/*--------------------------------*- C++ -*----------------------------------*\
| =========                 |                                                 |
| \\      /  F ield         | OpenFOAM: The Open Source CFD Toolbox           |
|  \\    /   O peration     | Version:  2412                                  |
|   \\  /    A nd           | Website:  www.openfoam.com                      |
|    \\/     M anipulation  |                                                 |
\*---------------------------------------------------------------------------*/
FoamFile
{
    version     2.0;
    format      ascii;
    arch        "LSB;label=32;scalar=64";
    class       volScalarField;
    location    "0.074";
    object      p;
}
// * * * * * * * * * * * * * * * * * * * * * * * * * * * * * * * * * * * * * //

dimensions      [1 -1 -2 0 0 0 0];

internalField   nonuniform List<scalar> 
78650
(
2964.09
2884.7
2888.25
2889.96
2893.48
2898.16
2901.7
2903.03
2902.63
2900.47
2896.8
2892.01
2885.5
2877.19
2867.67
2858.11
2848.88
2840.3
2832.3
2825
2818.34
2812.32
2806.93
2802.15
2797.91
2794.09
2790.59
2787.31
2784.17
2781.03
2777.81
2774.48
2771.09
2767.68
2764.34
2761.08
2757.91
2754.83
2751.83
2748.91
2746.11
2743.44
2740.91
2738.53
2736.32
2734.27
2732.4
2730.7
2729.15
2727.76
2726.5
2725.37
2724.35
2723.44
2722.62
2721.88
2721.19
2720.55
2719.92
2719.29
2718.62
2717.92
2717.14
2716.28
2715.29
2714.14
2712.78
2711.18
2709.29
2707.08
2704.47
2701.41
2697.81
2693.62
2688.76
2683.14
2676.67
2669.27
2660.84
2651.26
2640.42
2628.19
2614.41
2598.92
2581.56
2562.17
2540.69
2516.9
2490.66
2461.8
2430.44
2396.28
2359.22
2318.52
2275.31
2228.9
2180.04
2128.52
2073.21
2016.15
1956.93
1897.11
1833.9
1769.03
1706.26
1643.94
1587.44
1533.3
1483.77
1435.63
1389.43
1346.06
1303.89
1265.41
1230.89
1198.85
1170.77
1145.46
1124.68
1107.98
1071.35
2934.55
2870.13
2878.53
2883.08
2887.97
2893.24
2897.84
2900.23
2900.54
2899.2
2896
2891.26
2884.84
2876.7
2867.28
2857.74
2848.53
2840.02
2832.14
2824.96
2818.38
2812.45
2807.18
2802.54
2798.43
2794.73
2791.36
2788.27
2785.35
2782.45
2779.48
2776.39
2773.21
2770.01
2766.83
2763.74
2760.74
2757.84
2755.01
2752.28
2749.65
2747.14
2744.78
2742.56
2740.51
2738.64
2736.94
2735.42
2734.07
2732.88
2731.83
2730.92
2730.13
2729.46
2728.89
2728.41
2728.01
2727.65
2727.34
2727.03
2726.72
2726.39
2726.01
2725.57
2725.03
2724.37
2723.54
2722.5
2721.22
2719.66
2717.77
2715.47
2712.72
2709.44
2705.56
2701.01
2695.71
2689.57
2682.49
2674.38
2665.13
2654.62
2642.71
2629.21
2614
2596.92
2577.88
2556.67
2533.17
2507.18
2478.57
2446.89
2412.07
2373.83
2333.19
2289.42
2243.41
2193.93
2141.51
2086.18
2028.65
1969.73
1910.51
1847.78
1786.57
1721.85
1660.2
1599.14
1541.84
1488.68
1438.04
1392.28
1347.78
1306.19
1267.41
1231.42
1200.2
1170.73
1145.32
1123.91
1084.54
2905.61
2851.73
2864.31
2872.41
2879.97
2886.71
2892.35
2896.08
2897.37
2896.88
2894.45
2890
2883.8
2875.91
2866.73
2857.26
2848.13
2839.7
2831.95
2824.91
2818.45
2812.65
2807.5
2802.98
2798.99
2795.4
2792.16
2789.23
2786.52
2783.86
2781.13
2778.28
2775.33
2772.33
2769.35
2766.43
2763.61
2760.87
2758.23
2755.67
2753.23
2750.9
2748.7
2746.66
2744.78
2743.07
2741.55
2740.21
2739.06
2738.07
2737.24
2736.55
2735.99
2735.56
2735.25
2735.03
2734.91
2734.85
2734.85
2734.87
2734.91
2734.95
2734.96
2734.94
2734.85
2734.67
2734.36
2733.88
2733.19
2732.27
2731.07
2729.52
2727.58
2725.17
2722.24
2718.71
2714.51
2709.55
2703.75
2697.01
2689.24
2680.32
2670.12
2658.48
2645.27
2630.32
2613.5
2594.63
2573.59
2550.21
2524.3
2495.54
2463.89
2429.22
2392.07
2351.76
2308.81
2261.88
2211.82
2158.52
2102.02
2043.07
1984
1922.27
1861.44
1798.34
1734.13
1672.08
1608.46
1549.71
1492.16
1439.39
1390.18
1344.76
1302.97
1264.21
1229.18
1196.17
1166.48
1140.53
1090.86
2880.79
2831.66
2845.07
2857.07
2868.61
2878.08
2885.39
2890.48
2892.94
2893.26
2891.82
2888.12
2882.4
2874.84
2866.01
2856.71
2847.74
2839.4
2831.79
2824.89
2818.57
2812.9
2807.89
2803.48
2799.6
2796.11
2792.99
2790.22
2787.7
2785.27
2782.78
2780.18
2777.47
2774.69
2771.91
2769.18
2766.53
2763.97
2761.51
2759.14
2756.88
2754.73
2752.71
2750.84
2749.13
2747.6
2746.25
2745.09
2744.12
2743.33
2742.71
2742.24
2741.91
2741.72
2741.66
2741.7
2741.84
2742.07
2742.37
2742.72
2743.09
2743.49
2743.88
2744.26
2744.61
2744.88
2745.06
2745.11
2745
2744.69
2744.16
2743.33
2742.16
2740.59
2738.56
2736.01
2732.88
2729.07
2724.52
2719.13
2712.81
2705.47
2696.99
2687.21
2676
2663.19
2648.64
2632.2
2613.78
2593.17
2570.18
2544.49
2516.05
2484.72
2450.68
2413.16
2372.52
2327.82
2280.48
2229.81
2176.3
2120.17
2060.31
2000.05
1935.54
1874.35
1808.04
1746.24
1681.79
1618.97
1558.5
1498.77
1443.13
1390.96
1342.69
1299.22
1259.88
1224.44
1195.12
1170.15
1118.74
2862.06
2814.04
2824.04
2836.48
2852.05
2866.01
2876.6
2883.66
2887.65
2888.94
2888.3
2885.6
2880.59
2873.44
2865.04
2856.02
2847.27
2839.04
2831.6
2824.86
2818.72
2813.21
2808.34
2804.04
2800.25
2796.86
2793.86
2791.24
2788.9
2786.68
2784.42
2782.08
2779.62
2777.08
2774.51
2771.99
2769.52
2767.15
2764.86
2762.68
2760.6
2758.64
2756.81
2755.13
2753.6
2752.24
2751.07
2750.09
2749.31
2748.72
2748.3
2748.05
2747.96
2748
2748.18
2748.49
2748.9
2749.41
2750.01
2750.67
2751.38
2752.13
2752.9
2753.67
2754.44
2755.17
2755.83
2756.39
2756.83
2757.11
2757.21
2757.08
2756.66
2755.91
2754.74
2753.13
2751
2748.29
2744.92
2740.8
2735.85
2729.97
2723.07
2715
2705.64
2694.81
2682.42
2668.28
2652.3
2634.26
2613.95
2591.14
2565.79
2537.62
2506.53
2471.94
2434.28
2393.04
2349.26
2302.03
2251.71
2197.8
2140.34
2081.07
2017.4
1952.87
1887.26
1819.96
1756.65
1690.09
1628.2
1566.06
1506.42
1450.21
1396.49
1346.52
1299.69
1255.14
1216.81
1184.91
1123.79
2852.16
2805.15
2808.6
2815.08
2829.79
2847.81
2863.82
2875.08
2881.38
2884.01
2884.1
2882.45
2878.35
2871.77
2863.85
2855.17
2846.7
2838.64
2831.39
2824.84
2818.9
2813.57
2808.84
2804.65
2800.95
2797.67
2794.78
2792.3
2790.12
2788.09
2786.07
2783.98
2781.78
2779.49
2777.16
2774.85
2772.59
2770.41
2768.31
2766.31
2764.42
2762.66
2761.02
2759.52
2758.18
2757.01
2756.02
2755.22
2754.63
2754.23
2754.02
2753.98
2754.12
2754.4
2754.81
2755.37
2756.05
2756.84
2757.73
2758.7
2759.74
2760.83
2761.96
2763.12
2764.29
2765.46
2766.58
2767.65
2768.62
2769.47
2770.17
2770.69
2770.97
2771.01
2770.68
2769.99
2768.83
2767.17
2764.94
2762.05
2758.43
2754
2748.66
2742.29
2734.78
2725.96
2715.71
2703.86
2690.28
2674.77
2657.18
2637.34
2615.09
2590.09
2562.14
2530.91
2496.81
2459.45
2419.32
2375.3
2327.86
2276.57
2221.91
2163.8
2103.82
2037.7
1973.98
1903.72
1836.33
1766.87
1698.71
1633.67
1569.01
1509.5
1450.93
1398.35
1351.09
1308.27
1267.12
1229.2
1155.26
2847.38
2804.31
2801.22
2798.82
2806.82
2824.25
2845.01
2862.25
2873.23
2878.43
2879.88
2879.15
2876.05
2870.08
2862.54
2854.18
2846
2838.17
2831.15
2824.8
2819.08
2813.95
2809.37
2805.3
2801.7
2798.53
2795.76
2793.41
2791.37
2789.51
2787.71
2785.88
2783.94
2781.91
2779.82
2777.74
2775.7
2773.73
2771.83
2770.02
2768.32
2766.75
2765.31
2764.01
2762.86
2761.88
2761.08
2760.48
2760.07
2759.87
2759.87
2760.06
2760.4
2760.91
2761.57
2762.38
2763.32
2764.39
2765.57
2766.85
2768.21
2769.64
2771.12
2772.66
2774.23
2775.82
2777.4
2778.95
2780.44
2781.84
2783.14
2784.3
2785.27
2786.01
2786.48
2786.64
2786.43
2785.78
2784.64
2782.9
2780.54
2777.44
2773.55
2768.75
2762.93
2755.94
2747.67
2737.94
2726.65
2713.62
2698.73
2681.79
2662.59
2640.74
2616.11
2588.48
2558.13
2524.58
2487.9
2447.01
2402.42
2353.79
2301.87
2246.51
2187.58
2126.48
2062.41
1995.35
1923.41
1855.22
1782.45
1713.47
1644.09
1577.65
1511.67
1448.37
1391.44
1340.33
1298.18
1264.34
1193.35
2844.49
2805.7
2800.13
2792.51
2792.05
2801.29
2820.75
2843.48
2861.74
2871.6
2875.6
2875.88
2873.88
2868.86
2861.68
2853.58
2845.55
2837.88
2830.99
2824.8
2819.24
2814.31
2809.9
2805.96
2802.49
2799.44
2796.78
2794.55
2792.64
2790.94
2789.35
2787.76
2786.1
2784.33
2782.49
2780.66
2778.85
2777.1
2775.41
2773.81
2772.31
2770.93
2769.69
2768.59
2767.64
2766.86
2766.25
2765.84
2765.63
2765.63
2765.84
2766.22
2766.79
2767.53
2768.43
2769.48
2770.68
2772.02
2773.49
2775.06
2776.73
2778.49
2780.32
2782.22
2784.18
2786.18
2788.2
2790.21
2792.2
2794.13
2796
2797.76
2799.38
2800.85
2802.08
2803.04
2803.69
2804
2803.92
2803.32
2802.2
2800.4
2797.93
2794.65
2790.5
2785.33
2779.03
2771.43
2762.42
2751.82
2739.51
2725.26
2708.86
2690.04
2668.7
2644.63
2617.85
2587.75
2554.29
2516.75
2475.87
2431.12
2382.69
2330.5
2274.75
2215.47
2151.92
2086.98
2016.11
1945.25
1872.97
1799.78
1728.57
1658.44
1590.24
1524.69
1460.87
1399.96
1342.59
1294.8
1202.54
2840.73
2807.74
2802.02
2792.12
2786.31
2787.57
2797.97
2819.06
2843
2861.13
2870.34
2872.82
2871.92
2868.04
2861.38
2853.57
2845.55
2837.93
2831
2824.82
2819.36
2814.63
2810.39
2806.62
2803.3
2800.37
2797.84
2795.72
2793.93
2792.38
2790.98
2789.63
2788.22
2786.72
2785.14
2783.55
2781.99
2780.48
2779.02
2777.64
2776.34
2775.16
2774.11
2773.22
2772.47
2771.89
2771.49
2771.28
2771.27
2771.49
2771.88
2772.48
2773.27
2774.24
2775.38
2776.68
2778.14
2779.74
2781.49
2783.35
2785.33
2787.42
2789.59
2791.85
2794.18
2796.58
2799.02
2801.49
2803.95
2806.4
2808.81
2811.16
2813.42
2815.54
2817.51
2819.27
2820.78
2821.97
2822.81
2823.26
2823.31
2822.75
2821.62
2819.76
2817.14
2813.63
2809.13
2803.48
2796.58
2788.25
2778.38
2766.77
2753.28
2737.66
2719.76
2699.25
2675.97
2649.42
2619.65
2586.21
2549.62
2509.2
2464.96
2416.48
2363.73
2307.23
2246.62
2181.46
2114.13
2040.5
1967.86
1891.95
1815.37
1739.78
1666.51
1596.77
1530.67
1471.26
1415.9
1366.28
1266.82
2835.63
2809.41
2805.32
2795.01
2786.22
2782.36
2784.57
2796.13
2818.32
2842.93
2860.31
2868.03
2868.95
2866.89
2861.28
2853.95
2845.92
2838.22
2831.18
2824.92
2819.49
2814.91
2810.83
2807.24
2804.09
2801.31
2798.9
2796.9
2795.23
2793.83
2792.62
2791.48
2790.32
2789.07
2787.75
2786.42
2785.1
2783.83
2782.63
2781.48
2780.4
2779.43
2778.59
2777.89
2777.35
2776.98
2776.79
2776.78
2776.99
2777.39
2778
2778.81
2779.82
2781.01
2782.38
2783.93
2785.63
2787.5
2789.52
2791.67
2793.94
2796.34
2798.84
2801.44
2804.14
2806.91
2809.76
2812.66
2815.59
2818.53
2821.46
2824.37
2827.22
2829.99
2832.65
2835.15
2837.45
2839.53
2841.33
2842.77
2843.84
2844.48
2844.65
2844.19
2843.09
2841.21
2838.46
2834.73
2829.89
2823.79
2816.31
2807.27
2796.51
2783.81
2768.98
2751.7
2731.8
2708.9
2683.12
2654.09
2621.99
2585.86
2545.77
2501.33
2452.41
2399.13
2341.38
2279.92
2214.22
2144.8
2071.25
1995.09
1917.29
1834.4
1755.44
1674.06
1595.33
1523.27
1460.31
1409.43
1307.07
2829.73
2810.13
2808.56
2800.16
2789.07
2782.18
2779.85
2782.57
2795
2817.8
2842.19
2858.57
2864.43
2864.23
2860.57
2854.28
2846.65
2838.94
2831.73
2825.2
2819.72
2815.17
2811.18
2807.76
2804.79
2802.19
2799.94
2798.05
2796.5
2795.26
2794.23
2793.3
2792.37
2791.37
2790.3
2789.22
2788.15
2787.14
2786.19
2785.29
2784.45
2783.7
2783.07
2782.58
2782.24
2782.07
2782.08
2782.31
2782.7
2783.32
2784.14
2785.17
2786.4
2787.82
2789.42
2791.2
2793.16
2795.28
2797.57
2800
2802.56
2805.26
2808.09
2811.03
2814.08
2817.22
2820.47
2823.78
2827.16
2830.57
2834
2837.44
2840.87
2844.25
2847.56
2850.77
2853.84
2856.73
2859.39
2861.8
2863.91
2865.63
2866.92
2867.73
2868.02
2867.66
2866.55
2864.59
2861.64
2857.61
2852.36
2845.75
2837.62
2827.77
2816.03
2802.09
2785.78
2766.78
2745.12
2720.31
2692.21
2659.98
2623.89
2583.44
2538.51
2489.17
2435.16
2377.15
2314.5
2247.38
2175.73
2100.02
2024.39
1943.9
1861.89
1783.77
1699.02
1621.64
1544.21
1476.74
1347.47
2823.85
2810.36
2810.58
2805.21
2794.19
2784.3
2779.62
2778.73
2781.8
2794.61
2817.01
2839.91
2854.41
2859.47
2858.67
2853.8
2846.88
2839.63
2832.59
2825.87
2820.19
2815.45
2811.46
2808.16
2805.38
2802.99
2800.92
2799.16
2797.75
2796.68
2795.83
2795.09
2794.37
2793.6
2792.77
2791.93
2791.12
2790.36
2789.67
2789.03
2788.46
2787.94
2787.53
2787.25
2787.13
2787.16
2787.39
2787.8
2788.42
2789.24
2790.28
2791.53
2792.98
2794.62
2796.46
2798.47
2800.67
2803.04
2805.58
2808.28
2811.13
2814.12
2817.26
2820.52
2823.9
2827.41
2831.02
2834.73
2838.53
2842.39
2846.3
2850.24
2854.21
2858.17
2862.1
2865.98
2869.77
2873.43
2876.93
2880.23
2883.3
2886.08
2888.53
2890.56
2892.12
2893.15
2893.6
2893.4
2892.31
2890.31
2887.18
2882.88
2877.22
2870.06
2861.19
2850.37
2837.42
2822.05
2804.17
2783.22
2759.08
2731.17
2699.77
2664.13
2624.19
2579.86
2530.79
2476.96
2417.34
2352.85
2283.5
2209.34
2129.14
2048.08
1960.23
1876.95
1788.92
1709.89
1635.69
1569.86
1439.81
2818.06
2810.19
2811.52
2808.78
2799.89
2788.97
2781.61
2778.84
2779.06
2782.4
2794.84
2815.14
2835.27
2847.75
2851.84
2850.09
2845.35
2839.64
2833.02
2826.47
2820.74
2815.79
2811.74
2808.5
2805.87
2803.65
2801.75
2800.14
2798.89
2798
2797.33
2796.79
2796.29
2795.75
2795.15
2794.55
2793.98
2793.47
2793.04
2792.68
2792.36
2792.11
2791.94
2791.87
2791.96
2792.21
2792.63
2793.24
2794.07
2795.11
2796.36
2797.83
2799.5
2801.38
2803.44
2805.69
2808.13
2810.75
2813.54
2816.51
2819.63
2822.91
2826.34
2829.91
2833.63
2837.47
2841.45
2845.54
2849.74
2854.03
2858.4
2862.83
2867.3
2871.82
2876.34
2880.84
2885.3
2889.69
2893.97
2898.11
2902.08
2905.83
2909.31
2912.48
2915.29
2917.64
2919.47
2920.71
2921.31
2921.23
2920.1
2918.02
2914.69
2910.09
2904
2896.22
2886.57
2874.76
2860.58
2843.57
2823.66
2800.4
2773.89
2743.34
2708.81
2669.77
2625.69
2576.57
2521.78
2462.03
2396.35
2325.74
2250.55
2169.65
2083.99
1990.28
1900.2
1802.38
1711.19
1631.96
1479.61
2811.89
2809.61
2812.07
2811.16
2805.07
2794.99
2786.01
2780.88
2779.48
2780.41
2784.05
2794.78
2811.21
2827.66
2838.3
2842.37
2841.85
2838.26
2832.61
2826.53
2820.92
2816.01
2812.01
2808.83
2806.29
2804.23
2802.51
2801.05
2799.96
2799.25
2798.76
2798.42
2798.14
2797.82
2797.43
2797.05
2796.71
2796.44
2796.28
2796.18
2796.14
2796.15
2796.24
2796.41
2796.72
2797.18
2797.81
2798.63
2799.66
2800.91
2802.38
2804.06
2805.96
2808.06
2810.35
2812.84
2815.51
2818.36
2821.41
2824.62
2828.01
2831.56
2835.27
2839.15
2843.17
2847.34
2851.66
2856.11
2860.69
2865.38
2870.17
2875.06
2880.02
2885.04
2890.11
2895.2
2900.3
2905.36
2910.37
2915.3
2920.11
2924.77
2929.24
2933.48
2937.43
2941.04
2944.24
2946.99
2949.13
2950.64
2951.43
2951.5
2950.38
2948.23
2944.69
2939.71
2933.08
2924.54
2913.9
2900.78
2885.13
2866.44
2844.65
2818.99
2789.47
2755.3
2716.1
2671.79
2621.83
2566.82
2505.71
2439.13
2366.6
2288.42
2205.82
2118.28
2029.3
1937
1842.21
1756.29
1588.68
2805.59
2808.99
2812.72
2812.76
2809.19
2800.81
2791.65
2784.79
2781.44
2781.01
2782.49
2785.76
2793.57
2805.13
2817.37
2826.76
2831.54
2832.2
2829.3
2824.96
2820.46
2816.01
2812.08
2808.94
2806.5
2804.64
2803.15
2801.83
2800.87
2800.3
2799.99
2799.87
2799.85
2799.76
2799.59
2799.42
2799.31
2799.28
2799.37
2799.54
2799.78
2800.06
2800.4
2800.82
2801.36
2802.04
2802.88
2803.9
2805.13
2806.59
2808.27
2810.17
2812.28
2814.61
2817.13
2819.85
2822.75
2825.85
2829.13
2832.6
2836.24
2840.05
2844.04
2848.2
2852.52
2857.01
2861.65
2866.44
2871.38
2876.46
2881.66
2886.98
2892.39
2897.9
2903.49
2909.13
2914.82
2920.52
2926.21
2931.86
2937.45
2942.96
2948.34
2953.55
2958.56
2963.3
2967.73
2971.79
2975.42
2978.55
2981.01
2982.78
2983.76
2983.93
2982.86
2980.61
2976.85
2971.48
2964.26
2954.92
2943.3
2928.86
2911.47
2890.46
2865.82
2836.7
2802.99
2764.4
2720.43
2671.03
2615
2552.9
2483.72
2408.18
2325.97
2237.83
2141.26
2047.44
1943.15
1858.74
1700.37
2800.69
2807.82
2812.76
2813.95
2812.15
2805.63
2796.97
2789.52
2784.73
2782.96
2783.2
2784.79
2786.72
2790.68
2796.89
2805.4
2814.44
2820.73
2823.11
2821.99
2819.01
2815.33
2811.8
2808.82
2806.48
2804.87
2803.66
2802.55
2801.73
2801.27
2801.12
2801.2
2801.45
2801.59
2801.64
2801.67
2801.76
2801.95
2802.28
2802.71
2803.22
2803.77
2804.38
2805.07
2805.85
2806.76
2807.82
2809.06
2810.49
2812.15
2814.03
2816.14
2818.48
2821.02
2823.77
2826.72
2829.85
2833.18
2836.7
2840.4
2844.29
2848.35
2852.6
2857.03
2861.64
2866.42
2871.36
2876.48
2881.75
2887.19
2892.77
2898.48
2904.32
2910.28
2916.34
2922.5
2928.73
2935.01
2941.33
2947.66
2953.98
2960.26
2966.48
2972.6
2978.58
2984.39
2989.98
2995.28
3000.26
3004.84
3008.95
3012.5
3015.34
3017.42
3018.62
3018.9
3017.84
3015.43
3011.38
3005.52
2997.63
2987.25
2974.24
2958.01
2938.55
2915.08
2887.59
2855.43
2817.99
2774.91
2725.27
2669.59
2606.68
2537.07
2459.34
2375.04
2283.54
2186.69
2077.36
1975.05
1790.66
2797.18
2805.79
2812.3
2814.88
2814.08
2809.41
2801.55
2794.24
2788.84
2785.99
2785.23
2785.45
2786.08
2785.92
2785.31
2787.18
2793.69
2802.53
2809.99
2813.56
2814.01
2812.28
2810.17
2808.15
2806.33
2804.92
2803.89
2803.1
2802.51
2802.17
2802.12
2802.38
2802.84
2803.24
2803.54
2803.79
2804.08
2804.48
2805.04
2805.73
2806.5
2807.32
2808.19
2809.13
2810.16
2811.31
2812.6
2814.05
2815.69
2817.54
2819.63
2821.94
2824.49
2827.25
2830.22
2833.39
2836.76
2840.31
2844.06
2848
2852.12
2856.43
2860.93
2865.61
2870.49
2875.55
2880.79
2886.2
2891.8
2897.57
2903.51
2909.6
2915.84
2922.22
2928.73
2935.36
2942.09
2948.92
2955.82
2962.77
2969.76
2976.75
2983.74
2990.68
2997.56
3004.34
3010.96
3017.39
3023.59
3029.49
3035.04
3040.15
3044.75
3048.75
3051.98
3054.37
3055.8
3056.21
3055.18
3052.62
3048.25
3041.75
3032.99
3021.42
3007
2988.94
2967.15
2940.67
2909.05
2871.83
2828.27
2778.44
2721.22
2657.18
2584.81
2505.09
2417.11
2322.49
2221.36
2124.59
1951.96
2794.61
2803.27
2811.57
2815.38
2815.28
2812.41
2805.61
2798.64
2793.15
2789.63
2788.02
2787.33
2786.68
2785.42
2781.76
2777.98
2778.09
2783.06
2791.7
2799.98
2805.58
2807.72
2807.62
2806.81
2805.59
2804.61
2803.87
2803.42
2803.17
2803.03
2803.11
2803.5
2804.11
2804.75
2805.3
2805.77
2806.25
2806.85
2807.62
2808.54
2809.57
2810.66
2811.8
2812.99
2814.27
2815.67
2817.19
2818.86
2820.71
2822.77
2825.05
2827.57
2830.32
2833.3
2836.48
2839.87
2843.46
2847.23
2851.2
2855.37
2859.72
2864.27
2869
2873.92
2879.05
2884.38
2889.89
2895.59
2901.48
2907.57
2913.83
2920.27
2926.87
2933.64
2940.56
2947.62
2954.82
2962.15
2969.58
2977.09
2984.68
2992.33
3000.01
3007.71
3015.41
3023.06
3030.64
3038.1
3045.42
3052.54
3059.41
3065.97
3072.14
3077.84
3082.99
3087.48
3091.12
3093.85
3095.5
3096.02
3094.98
3092.18
3087.41
3080.2
3070.43
3057.34
3040.84
3019.91
2994.39
2963.64
2926.98
2884.1
2833.82
2776.29
2710.06
2635.73
2550.72
2457.31
2353.83
2244.72
2068.59
2792.83
2800.73
2810.4
2815.59
2816.26
2814.77
2809.21
2802.63
2797.24
2793.4
2791.15
2789.79
2788.17
2785.95
2781.16
2775.08
2770.28
2769.75
2774
2782.39
2791.59
2798.38
2801.85
2803.22
2803.41
2803.42
2803.5
2803.52
2803.61
2803.81
2804.1
2804.57
2805.27
2806.1
2806.9
2807.61
2808.31
2809.11
2810.07
2811.22
2812.49
2813.83
2815.22
2816.66
2818.18
2819.81
2821.57
2823.47
2825.53
2827.8
2830.29
2833.01
2835.96
2839.14
2842.54
2846.14
2849.94
2853.93
2858.11
2862.5
2867.07
2871.84
2876.79
2881.95
2887.32
2892.89
2898.66
2904.63
2910.8
2917.17
2923.74
2930.5
2937.44
2944.57
2951.87
2959.33
2966.96
2974.74
2982.65
2990.69
2998.84
3007.08
3015.39
3023.78
3032.2
3040.65
3049.08
3057.47
3065.79
3073.99
3082.04
3089.89
3097.47
3104.7
3111.54
3117.86
3123.59
3128.6
3132.7
3135.78
3137.69
3138.34
3137.28
3134.13
3128.73
3120.42
3109.23
3094.22
3075.36
3051.67
3022.56
2987.43
2945.16
2895.57
2837.39
2770.18
2691.99
2605.7
2506.17
2403.87
2238
2791.69
2798.45
2808.87
2815.51
2817.26
2816.54
2812.27
2806.23
2801.04
2797.07
2794.32
2792.39
2790.12
2786.93
2781.44
2774.34
2767.59
2762.98
2762.42
2766.38
2774.99
2784.71
2792.79
2797.97
2800.5
2801.61
2802.54
2803.18
2803.69
2804.26
2804.95
2805.63
2806.44
2807.41
2808.41
2809.35
2810.26
2811.23
2812.38
2813.72
2815.22
2816.81
2818.44
2820.13
2821.89
2823.75
2825.74
2827.86
2830.15
2832.63
2835.32
2838.24
2841.39
2844.77
2848.37
2852.18
2856.18
2860.38
2864.77
2869.37
2874.15
2879.13
2884.3
2889.68
2895.27
2901.08
2907.09
2913.3
2919.72
2926.36
2933.21
2940.27
2947.52
2954.98
2962.63
2970.46
2978.47
2986.65
2995.01
3003.51
3012.16
3020.93
3029.82
3038.81
3047.89
3057.05
3066.25
3075.47
3084.68
3093.85
3102.96
3111.96
3120.8
3129.42
3137.76
3145.75
3153.3
3160.3
3166.64
3172.22
3176.81
3180.29
3182.45
3183.18
3181.97
3178.33
3172.25
3162.83
3150.04
3132.67
3110.34
3082.09
3046.92
3004.54
2953.8
2893.93
2823.6
2742.18
2647.63
2544.28
2391.46
2791.01
2796.55
2807.2
2815.32
2818.06
2817.84
2814.82
2809.5
2804.61
2800.6
2797.37
2794.78
2791.94
2787.86
2781.84
2774.4
2766.59
2760.19
2756.36
2756.13
2760.4
2769.37
2779.95
2788.96
2794.99
2798.32
2800.36
2802.16
2803.43
2804.41
2805.48
2806.55
2807.55
2808.65
2809.83
2811
2812.13
2813.3
2814.63
2816.15
2817.85
2819.65
2821.51
2823.42
2825.4
2827.49
2829.7
2832.05
2834.57
2837.26
2840.16
2843.28
2846.63
2850.2
2853.99
2858
2862.2
2866.6
2871.19
2875.98
2880.97
2886.15
2891.52
2897.1
2902.9
2908.93
2915.16
2921.61
2928.27
2935.15
2942.26
2949.58
2957.13
2964.88
2972.84
2981
2989.37
2997.92
3006.67
3015.6
3024.69
3033.94
3043.35
3052.89
3062.56
3072.35
3082.23
3092.19
3102.19
3112.23
3122.27
3132.28
3142.23
3152.06
3161.73
3171.17
3180.33
3189.1
3197.41
3205.14
3212.17
3218.38
3223.5
3227.38
3229.79
3230.54
3229.09
3224.81
3217.56
3206.2
3190.62
3169.63
3142.47
3108.49
3066.11
3014.51
2952.08
2876.71
2789.34
2685.66
2546.38
2790.62
2795.09
2805.6
2815.03
2818.66
2818.93
2816.95
2812.45
2807.91
2803.92
2800.2
2796.75
2793.22
2788.34
2781.96
2774.34
2766.34
2759
2753.46
2750.64
2751.1
2756.1
2765.78
2777.21
2786.75
2793.46
2797.87
2800.66
2802.67
2804.18
2805.71
2807.27
2808.65
2809.92
2811.24
2812.58
2813.91
2815.26
2816.74
2818.43
2820.31
2822.32
2824.39
2826.52
2828.73
2831.03
2833.47
2836.04
2838.78
2841.69
2844.79
2848.12
2851.66
2855.42
2859.4
2863.6
2867.99
2872.58
2877.35
2882.33
2887.51
2892.89
2898.45
2904.22
2910.22
2916.44
2922.89
2929.55
2936.43
2943.53
2950.88
2958.45
2966.25
2974.28
2982.53
2990.99
2999.67
3008.56
3017.66
3026.97
3036.46
3046.14
3056
3066.02
3076.21
3086.55
3097.04
3107.64
3118.35
3129.14
3139.99
3150.89
3161.81
3172.7
3183.53
3194.25
3204.81
3215.14
3225.17
3234.8
3243.95
3252.49
3260.28
3267.2
3272.87
3277.12
3279.72
3280.43
3278.52
3273.29
3264.58
3251.15
3232.45
3207.44
3174.49
3132.98
3080.26
3014.23
2935.13
2836.87
2705.61
2790.4
2794.06
2804.23
2814.65
2819.17
2820
2818.74
2815.07
2810.93
2806.93
2802.68
2798.24
2793.67
2788.22
2781.56
2773.87
2765.92
2758.46
2752.06
2747.73
2746.07
2747.45
2753.61
2764.34
2776.28
2786.33
2793.39
2797.94
2801.05
2803.51
2805.58
2807.68
2809.59
2811.12
2812.59
2814.1
2815.61
2817.14
2818.79
2820.64
2822.69
2824.87
2827.14
2829.48
2831.89
2834.41
2837.06
2839.85
2842.79
2845.92
2849.23
2852.75
2856.49
2860.43
2864.6
2868.97
2873.55
2878.31
2883.27
2888.42
2893.78
2899.33
2905.07
2911.02
2917.21
2923.62
2930.26
2937.11
2944.19
2951.51
2959.07
2966.87
2974.9
2983.18
2991.68
3000.42
3009.38
3018.57
3027.99
3037.62
3047.47
3057.53
3067.79
3078.24
3088.89
3099.72
3110.73
3121.9
3133.22
3144.67
3156.24
3167.91
3179.67
3191.48
3203.31
3215.13
3226.9
3238.57
3250.08
3261.36
3272.33
3282.91
3292.98
3302.43
3311.04
3318.68
3324.91
3329.59
3332.41
3333.05
3330.49
3324.01
3312.92
3296.14
3272.19
3240.14
3196.16
3138.62
3066.2
2974.78
2852.65
2790.29
2793.38
2803.19
2814.31
2819.7
2821.01
2820.28
2817.39
2813.61
2809.52
2804.63
2799.12
2793.45
2787.25
2780.37
2772.89
2765.21
2757.94
2751.4
2746.19
2743.27
2742.83
2745.31
2753.03
2764.88
2777.24
2787.3
2794.24
2798.92
2802.39
2805.22
2807.87
2810.27
2812.2
2813.86
2815.51
2817.19
2818.89
2820.7
2822.71
2824.92
2827.28
2829.75
2832.29
2834.91
2837.64
2840.49
2843.49
2846.65
2849.98
2853.5
2857.22
2861.14
2865.27
2869.61
2874.16
2878.9
2883.84
2888.96
2894.29
2899.81
2905.53
2911.44
2917.56
2923.91
2930.5
2937.32
2944.35
2951.62
2959.13
2966.88
2974.89
2983.14
2991.63
3000.37
3009.35
3018.57
3028.02
3037.72
3047.65
3057.82
3068.21
3078.82
3089.65
3100.7
3111.96
3123.43
3135.09
3146.94
3158.96
3171.14
3183.47
3195.95
3208.55
3221.24
3234
3246.8
3259.61
3272.39
3285.06
3297.6
3309.91
3321.94
3333.57
3344.68
3355.12
3364.64
3373.12
3379.99
3385.13
3388
3388.29
3384.29
3375.74
3361.05
3339.69
3307.57
3262.92
3199.92
3116.36
3001.61
2790.25
2793.01
2802.55
2814.15
2820.32
2822
2821.64
2819.43
2815.92
2811.57
2805.86
2799.21
2792.43
2785.56
2778.58
2771.4
2764.12
2757.19
2750.89
2745.42
2741.66
2740.25
2740.75
2744.92
2754.45
2767.28
2779.71
2789.29
2795.92
2800.62
2804.39
2807.67
2810.66
2813.12
2815.06
2816.87
2818.7
2820.57
2822.54
2824.7
2827.07
2829.61
2832.26
2835
2837.82
2840.74
2843.8
2846.99
2850.35
2853.88
2857.59
2861.49
2865.59
2869.9
2874.41
2879.12
2884.03
2889.12
2894.4
2899.88
2905.56
2911.44
2917.5
2923.78
2930.29
2937.04
2944.02
2951.23
2958.67
2966.35
2974.28
2982.47
2990.92
2999.62
3008.56
3017.76
3027.21
3036.9
3046.85
3057.04
3067.49
3078.17
3089.1
3100.26
3111.66
3123.29
3135.15
3147.24
3159.55
3172.06
3184.77
3197.68
3210.77
3224.04
3237.46
3251.02
3264.7
3278.48
3292.32
3306.18
3320.02
3333.8
3347.47
3360.95
3374.16
3386.96
3399.22
3410.77
3421.32
3430.75
3438.25
3443.8
3446.73
3446.76
3441.33
3430.82
3410.73
3379.29
3326.48
3254.58
3145.41
2790.24
2792.91
2802.35
2814.23
2821.04
2823.01
2822.89
2821.23
2817.75
2812.86
2806.13
2798.49
2790.62
2783.24
2776.28
2769.45
2762.66
2756.18
2750.28
2744.93
2740.84
2738.6
2738.34
2740.07
2746.43
2757.85
2771.36
2783.29
2792.09
2798.37
2803.23
2807.33
2810.91
2813.84
2816.11
2818.1
2820.09
2822.13
2824.28
2826.62
2829.17
2831.89
2834.72
2837.64
2840.65
2843.76
2847
2850.38
2853.93
2857.64
2861.54
2865.63
2869.9
2874.38
2879.05
2883.92
2888.98
2894.22
2899.65
2905.28
2911.11
2917.12
2923.33
2929.75
2936.41
2943.31
2950.45
2957.81
2965.41
2973.25
2981.35
2989.71
2998.33
3007.21
3016.35
3025.75
3035.4
3045.3
3055.48
3065.91
3076.6
3087.55
3098.75
3110.2
3121.91
3133.87
3146.08
3158.54
3171.25
3184.19
3197.35
3210.75
3224.38
3238.22
3252.26
3266.5
3280.93
3295.51
3310.25
3325.1
3340.05
3355.05
3370.08
3385.09
3400.03
3414.81
3429.34
3443.45
3457.03
3469.91
3481.71
3492.26
3500.56
3506.55
3509.2
3507.84
3499.18
3481.95
3443.96
3391.41
3292.58
2790.24
2792.95
2802.52
2814.67
2821.91
2824.07
2824.1
2822.68
2818.93
2813.17
2805.54
2796.59
2788
2780.44
2773.64
2767.16
2760.9
2754.95
2749.52
2744.49
2740.32
2737.65
2736.85
2737.52
2741.14
2750.07
2763.19
2776.64
2787.53
2795.58
2801.69
2806.71
2810.92
2814.38
2817.05
2819.29
2821.46
2823.68
2826.02
2828.54
2831.26
2834.14
2837.14
2840.23
2843.41
2846.69
2850.1
2853.65
2857.37
2861.26
2865.33
2869.59
2874.03
2878.67
2883.49
2888.51
2893.72
2899.1
2904.67
2910.43
2916.4
2922.55
2928.89
2935.45
2942.25
2949.3
2956.58
2964.09
2971.83
2979.82
2988.07
2996.59
3005.38
3014.43
3023.74
3033.32
3043.16
3053.26
3063.64
3074.29
3085.2
3096.39
3107.83
3119.55
3131.53
3143.79
3156.31
3169.1
3182.15
3195.47
3209.03
3222.86
3236.94
3251.28
3265.86
3280.68
3295.73
3311.01
3326.5
3342.18
3358.05
3374.07
3390.23
3406.5
3422.86
3439.26
3455.62
3471.86
3487.89
3503.57
3518.72
3533.09
3546.28
3557.95
3567.17
3573.73
3576.52
3572.49
3552.34
3521.08
3446.99
2790.27
2793.21
2803.17
2815.52
2822.9
2825.2
2825.17
2823.65
2819.28
2812.62
2803.49
2793.67
2784.78
2777.3
2770.78
2764.69
2758.93
2753.56
2748.63
2743.97
2739.94
2737.11
2735.96
2735.94
2738.02
2744.38
2756.03
2769.97
2782.56
2792.4
2799.93
2805.95
2810.84
2814.81
2817.9
2820.42
2822.79
2825.2
2827.74
2830.45
2833.34
2836.37
2839.52
2842.77
2846.11
2849.55
2853.12
2856.84
2860.72
2864.78
2869.01
2873.43
2878.03
2882.82
2887.79
2892.95
2898.29
2903.81
2909.5
2915.39
2921.48
2927.76
2934.22
2940.91
2947.85
2955.03
2962.44
2970.08
2977.96
2986.09
2994.49
3003.16
3012.1
3021.3
3030.78
3040.52
3050.54
3060.82
3071.38
3082.23
3093.35
3104.74
3116.42
3128.37
3140.6
3153.12
3165.92
3179
3192.37
3206.01
3219.93
3234.14
3248.62
3263.39
3278.44
3293.76
3309.36
3325.22
3341.35
3357.74
3374.38
3391.25
3408.36
3425.68
3443.21
3460.91
3478.77
3496.72
3514.7
3532.64
3550.44
3567.93
3584.93
3601.19
3616.22
3629.33
3639.87
3646.11
3645.48
3630.79
3594.58
2790.34
2793.71
2804.27
2816.78
2823.95
2826.31
2826.01
2823.97
2818.84
2810.53
2800.19
2789.93
2781.14
2773.97
2767.83
2762.15
2756.86
2752.07
2747.62
2743.37
2739.62
2736.77
2735.33
2735.04
2735.95
2740.54
2750.31
2763.87
2777.56
2789.02
2798
2805.07
2810.72
2815.2
2818.7
2821.52
2824.1
2826.71
2829.44
2832.33
2835.38
2838.56
2841.85
2845.23
2848.71
2852.31
2856.03
2859.9
2863.93
2868.14
2872.53
2877.11
2881.86
2886.79
2891.91
2897.21
2902.67
2908.31
2914.13
2920.14
2926.35
2932.74
2939.33
2946.14
2953.2
2960.51
2968.05
2975.82
2983.82
2992.09
3000.63
3009.44
3018.52
3027.88
3037.51
3047.41
3057.59
3068.04
3078.78
3089.81
3101.12
3112.72
3124.61
3136.78
3149.25
3162.01
3175.06
3188.42
3202.07
3216.02
3230.27
3244.81
3259.66
3274.81
3290.28
3306.04
3322.12
3338.5
3355.18
3372.17
3389.47
3407.05
3424.94
3443.12
3461.61
3480.37
3499.42
3518.7
3538.21
3557.9
3577.71
3597.58
3617.34
3636.9
3655.94
3674.24
3691.32
3705.64
3716.81
3718.75
3715.63
2790.48
2794.5
2805.81
2818.41
2824.98
2827.08
2826.5
2823.66
2816.95
2807.04
2795.93
2785.67
2777.28
2770.55
2764.86
2759.61
2754.78
2750.53
2746.52
2742.71
2739.26
2736.47
2734.85
2734.43
2734.64
2737.93
2746.09
2758.65
2772.84
2785.67
2796.07
2804.21
2810.59
2815.57
2819.45
2822.56
2825.36
2828.17
2831.1
2834.18
2837.39
2840.72
2844.13
2847.65
2851.27
2855
2858.86
2862.87
2867.05
2871.41
2875.94
2880.66
2885.55
2890.62
2895.87
2901.29
2906.87
2912.62
2918.56
2924.68
2931
2937.5
2944.2
2951.13
2958.31
2965.73
2973.39
2981.28
2989.41
2997.8
3006.47
3015.42
3024.64
3034.13
3043.91
3053.96
3064.29
3074.9
3085.81
3097
3108.5
3120.28
3132.37
3144.74
3157.43
3170.41
3183.7
3197.31
3211.22
3225.45
3239.98
3254.84
3270.01
3285.52
3301.35
3317.51
3334
3350.83
3368
3385.5
3403.35
3421.54
3440.08
3458.96
3478.21
3497.81
3517.78
3538.08
3558.73
3579.68
3600.92
3622.42
3644.06
3665.85
3687.44
3708.9
3729.49
3749.23
3766.1
3777.45
3790.14
2790.7
2795.63
2807.81
2820.24
2826
2827.35
2826.38
2822.16
2813.68
2802.51
2791.11
2781.18
2773.37
2767.17
2761.9
2757.14
2752.73
2748.94
2745.37
2741.97
2738.79
2736.11
2734.41
2733.86
2733.86
2736.06
2743.02
2754.47
2768.66
2782.59
2794.27
2803.44
2810.55
2815.99
2820.21
2823.58
2826.6
2829.6
2832.72
2835.97
2839.33
2842.78
2846.32
2849.96
2853.7
2857.57
2861.56
2865.71
2870.03
2874.53
2879.21
2884.06
2889.08
2894.28
2899.66
2905.19
2910.89
2916.75
2922.79
2929.02
2935.43
2942.04
2948.84
2955.88
2963.18
2970.72