/*--------------------------------*- C++ -*----------------------------------*\
| =========                 |                                                 |
| \\      /  F ield         | OpenFOAM: The Open Source CFD Toolbox           |
|  \\    /   O peration     | Version:  2412                                  |
|   \\  /    A nd           | Website:  www.openfoam.com                      |
|    \\/     M anipulation  |                                                 |
\*---------------------------------------------------------------------------*/
FoamFile
{
    version     2.0;
    format      ascii;
    arch        "LSB;label=32;scalar=64";
    class       volScalarField;
    location    "0.074";
    object      rho;
}
// * * * * * * * * * * * * * * * * * * * * * * * * * * * * * * * * * * * * * //

dimensions      [1 -3 0 0 0 0 0];

internalField   nonuniform List<scalar> 
78650
(
0.0439733
0.0431376
0.0431741
0.0431914
0.0432279
0.0432771
0.0433143
0.0433284
0.0433242
0.0433015
0.0432629
0.0432124
0.0431439
0.0430563
0.0429558
0.0428549
0.0427574
0.0426667
0.042582
0.0425046
0.042434
0.04237
0.0423128
0.0422621
0.042217
0.0421765
0.0421392
0.0421043
0.0420709
0.0420375
0.0420032
0.0419677
0.0419315
0.0418952
0.0418595
0.0418247
0.0417909
0.041758
0.041726
0.0416949
0.0416649
0.0416363
0.0416093
0.0415839
0.0415602
0.0415383
0.0415182
0.0415
0.0414835
0.0414685
0.0414551
0.041443
0.0414321
0.0414223
0.0414135
0.0414055
0.0413982
0.0413913
0.0413846
0.0413778
0.0413707
0.0413631
0.0413548
0.0413455
0.0413349
0.0413226
0.041308
0.0412908
0.0412706
0.0412468
0.0412188
0.0411859
0.0411473
0.0411023
0.04105
0.0409895
0.0409199
0.0408402
0.0407492
0.0406458
0.0405287
0.0403963
0.0402471
0.0400789
0.0398901
0.0396788
0.0394442
0.0391837
0.0388954
0.0385774
0.0382306
0.0378513
0.0374379
0.0369818
0.0364949
0.0359689
0.0354117
0.03482
0.0341801
0.0335145
0.032818
0.032108
0.0313506
0.0305652
0.0297971
0.0290262
0.0283197
0.0276358
0.0270035
0.0263828
0.0257818
0.0252132
0.0246566
0.0241457
0.0236818
0.0232407
0.0228368
0.0224486
0.0221006
0.0217925
0.0212425
0.0436631
0.0429836
0.0430715
0.0431188
0.0431699
0.0432254
0.0432738
0.0432989
0.0433022
0.0432881
0.0432544
0.0432045
0.0431369
0.0430511
0.0429518
0.042851
0.0427537
0.0426637
0.0425802
0.0425041
0.0424344
0.0423715
0.0423156
0.0422662
0.0422226
0.0421832
0.0421474
0.0421145
0.0420834
0.0420526
0.0420209
0.041988
0.0419541
0.04192
0.0418862
0.0418532
0.0418212
0.0417902
0.04176
0.0417308
0.0417027
0.0416759
0.0416506
0.041627
0.0416051
0.041585
0.0415668
0.0415506
0.0415361
0.0415233
0.0415122
0.0415024
0.041494
0.0414868
0.0414807
0.0414755
0.0414712
0.0414674
0.041464
0.0414608
0.0414575
0.0414539
0.0414498
0.0414451
0.0414394
0.0414323
0.0414234
0.0414122
0.0413985
0.0413818
0.0413615
0.0413369
0.0413074
0.0412722
0.0412306
0.0411817
0.0411247
0.0410587
0.0409825
0.0408952
0.0407956
0.0406822
0.0405534
0.0404074
0.0402426
0.0400572
0.0398501
0.0396189
0.0393619
0.039077
0.0387624
0.0384127
0.0380268
0.0376012
0.0371465
0.0366542
0.0361338
0.0355704
0.0349696
0.0343307
0.033661
0.0329694
0.032268
0.031518
0.0307789
0.0299892
0.0292289
0.0284673
0.0277448
0.0270669
0.0264146
0.0258201
0.0252376
0.0246901
0.0241745
0.0236867
0.0232475
0.0228088
0.0223994
0.0220256
0.0214348
0.0433583
0.042789
0.0429213
0.0430063
0.0430856
0.0431566
0.043216
0.0432552
0.0432688
0.0432637
0.0432381
0.0431912
0.0431259
0.0430428
0.0429459
0.042846
0.0427495
0.0426603
0.0425782
0.0425036
0.0424351
0.0423736
0.042319
0.0422709
0.0422285
0.0421904
0.0421559
0.0421247
0.0420959
0.0420676
0.0420385
0.0420081
0.0419767
0.0419448
0.041913
0.0418819
0.0418517
0.0418226
0.0417943
0.0417671
0.0417409
0.041716
0.0416926
0.0416707
0.0416506
0.0416324
0.0416162
0.0416019
0.0415895
0.0415789
0.04157
0.0415627
0.0415567
0.0415521
0.0415487
0.0415464
0.0415451
0.0415445
0.0415444
0.0415447
0.0415452
0.0415455
0.0415457
0.0415454
0.0415445
0.0415426
0.0415392
0.0415341
0.0415268
0.0415169
0.041504
0.0414875
0.0414667
0.0414409
0.0414094
0.0413716
0.0413266
0.0412734
0.0412111
0.0411387
0.0410552
0.0409592
0.0408493
0.0407238
0.0405812
0.0404194
0.0402373
0.0400323
0.0398034
0.0395483
0.0392649
0.0389492
0.0386005
0.0382171
0.0378045
0.0373546
0.0368727
0.0363431
0.0357747
0.0351651
0.0345141
0.0338293
0.0331372
0.0324075
0.0316817
0.0309212
0.0301394
0.0293755
0.0285836
0.0278437
0.027111
0.0264324
0.0257941
0.0252009
0.0246495
0.0241286
0.0236406
0.0231561
0.022691
0.0222567
0.0215244
0.0430963
0.0425765
0.0427179
0.0428442
0.0429658
0.0430657
0.0431427
0.0431963
0.0432222
0.0432256
0.0432104
0.0431714
0.0431112
0.0430315
0.0429383
0.0428401
0.0427453
0.0426571
0.0425766
0.0425034
0.0424364
0.0423763
0.042323
0.0422762
0.042235
0.0421979
0.0421647
0.0421353
0.0421085
0.0420825
0.0420561
0.0420284
0.0419995
0.04197
0.0419403
0.0419112
0.041883
0.0418557
0.0418294
0.0418041
0.0417799
0.041757
0.0417354
0.0417154
0.0416972
0.0416808
0.0416664
0.041654
0.0416437
0.0416352
0.0416286
0.0416235
0.04162
0.0416179
0.0416173
0.0416177
0.0416193
0.0416218
0.041625
0.0416286
0.0416327
0.0416369
0.0416411
0.0416452
0.0416489
0.0416518
0.0416537
0.0416543
0.0416531
0.0416498
0.0416441
0.0416352
0.0416227
0.0416059
0.0415842
0.041557
0.0415234
0.0414827
0.0414339
0.0413761
0.0413084
0.0412296
0.0411385
0.0410334
0.0409128
0.0407747
0.0406177
0.0404399
0.0402403
0.0400166
0.0397663
0.0394859
0.0391744
0.0388303
0.0384548
0.0380391
0.0375867
0.0370865
0.0365536
0.0359795
0.0353691
0.0347238
0.0340303
0.033326
0.0325652
0.0318364
0.0310387
0.0302875
0.0294956
0.0287149
0.0279549
0.027196
0.0264821
0.025807
0.0251758
0.0245978
0.0240574
0.0235447
0.023088
0.0226679
0.0219148
0.0428984
0.0423895
0.0424951
0.0426263
0.0427909
0.0429383
0.0430501
0.0431245
0.0431665
0.0431801
0.0431733
0.0431449
0.0430921
0.0430167
0.0429281
0.0428328
0.0427403
0.0426533
0.0425745
0.0425031
0.042438
0.0423796
0.0423278
0.0422822
0.0422419
0.0422059
0.042174
0.0421461
0.0421212
0.0420976
0.0420736
0.0420486
0.0420224
0.0419954
0.0419681
0.0419411
0.0419149
0.0418895
0.0418652
0.0418419
0.0418197
0.0417988
0.0417793
0.0417612
0.0417449
0.0417304
0.0417179
0.0417075
0.0416992
0.0416928
0.0416884
0.0416857
0.0416847
0.0416851
0.0416871
0.0416903
0.0416947
0.0417002
0.0417066
0.0417137
0.0417213
0.0417292
0.0417375
0.0417458
0.0417539
0.0417617
0.0417688
0.0417748
0.0417795
0.0417825
0.0417836
0.0417821
0.0417777
0.0417697
0.0417572
0.04174
0.0417173
0.0416883
0.0416522
0.0416082
0.0415552
0.0414923
0.0414184
0.0413319
0.0412315
0.0411152
0.0409819
0.0408296
0.0406572
0.0404622
0.0402422
0.0399945
0.0397184
0.0394108
0.03907
0.0386894
0.0382734
0.0378154
0.0373269
0.0367965
0.0362282
0.0356149
0.0349564
0.0342715
0.0335294
0.0327702
0.0319907
0.0311828
0.0304145
0.0295979
0.0288301
0.0280505
0.0272949
0.0265761
0.0258818
0.0252253
0.0245916
0.0239611
0.0233841
0.0228723
0.0219883
0.0427936
0.042295
0.0423312
0.0423996
0.0425553
0.0427461
0.0429153
0.0430341
0.0431004
0.0431281
0.0431291
0.0431117
0.0430685
0.0429991
0.0429155
0.0428239
0.0427343
0.0426491
0.0425722
0.0425028
0.0424399
0.0423834
0.0423331
0.0422887
0.0422494
0.0422145
0.0421838
0.0421574
0.0421343
0.0421126
0.0420911
0.0420689
0.0420455
0.0420211
0.0419963
0.0419716
0.0419476
0.0419243
0.0419019
0.0418806
0.0418605
0.0418416
0.0418242
0.0418082
0.0417938
0.0417813
0.0417707
0.0417623
0.0417559
0.0417517
0.0417494
0.0417491
0.0417505
0.0417535
0.0417579
0.0417638
0.0417711
0.0417795
0.041789
0.0417994
0.0418105
0.0418221
0.0418342
0.0418466
0.0418591
0.0418715
0.0418835
0.0418949
0.0419053
0.0419144
0.0419218
0.0419273
0.0419303
0.0419307
0.0419272
0.0419199
0.0419076
0.0418899
0.041866
0.0418352
0.0417966
0.0417493
0.0416923
0.0416242
0.0415438
0.0414494
0.0413396
0.0412124
0.0410665
0.0408996
0.0407099
0.0404955
0.0402546
0.0399831
0.0396788
0.0393375
0.0389634
0.0385518
0.0381076
0.0376179
0.0370871
0.0365096
0.0358899
0.035226
0.0345352
0.0337669
0.0330195
0.0321871
0.0313802
0.0305391
0.0297042
0.0288982
0.0280885
0.027336
0.0265872
0.0259049
0.0252735
0.0246749
0.0240681
0.0234782
0.0224234
0.042743
0.0422861
0.0422526
0.0422268
0.0423118
0.0424967
0.0427165
0.0428986
0.0430145
0.0430693
0.0430847
0.043077
0.0430442
0.0429813
0.0429017
0.0428134
0.0427269
0.042644
0.0425697
0.0425025
0.0424418
0.0423874
0.0423388
0.0422956
0.0422573
0.0422236
0.0421942
0.0421692
0.0421475
0.0421278
0.0421086
0.0420891
0.0420685
0.0420468
0.0420246
0.0420025
0.0419807
0.0419597
0.0419394
0.0419202
0.0419021
0.0418853
0.0418699
0.0418561
0.0418438
0.0418334
0.0418248
0.0418184
0.041814
0.0418119
0.0418118
0.0418139
0.0418176
0.041823
0.04183
0.0418387
0.0418488
0.0418602
0.0418727
0.0418863
0.0419008
0.0419161
0.041932
0.0419483
0.0419651
0.041982
0.0419989
0.0420154
0.0420312
0.0420462
0.04206
0.0420724
0.0420826
0.0420905
0.0420956
0.0420973
0.042095
0.0420882
0.042076
0.0420575
0.0420323
0.0419993
0.0419579
0.0419067
0.0418446
0.0417701
0.0416817
0.0415777
0.0414568
0.0413172
0.0411574
0.0409753
0.0407683
0.0405324
0.0402658
0.0399658
0.0396351
0.0392682
0.0388655
0.0384144
0.0379201
0.0373777
0.0367951
0.0361694
0.0354984
0.0347969
0.034055
0.0332711
0.0324215
0.0316073
0.0307287
0.0298861
0.029029
0.0281997
0.0273664
0.0265549
0.0258053
0.0251032
0.024487
0.0239554
0.0229492
0.0427121
0.0423007
0.0422409
0.0421596
0.0421548
0.042253
0.0424596
0.0427003
0.0428933
0.0429973
0.0430395
0.0430424
0.0430214
0.0429684
0.0428926
0.042807
0.0427221
0.042641
0.042568
0.0425024
0.0424435
0.0423913
0.0423444
0.0423026
0.0422657
0.0422333
0.0422051
0.0421813
0.042161
0.042143
0.042126
0.0421091
0.0420914
0.0420726
0.0420531
0.0420335
0.0420142
0.0419956
0.0419776
0.0419606
0.0419445
0.0419298
0.0419166
0.0419049
0.0418948
0.0418864
0.04188
0.0418756
0.0418734
0.0418733
0.0418756
0.0418797
0.0418857
0.0418936
0.0419032
0.0419144
0.0419273
0.0419415
0.0419571
0.0419739
0.0419917
0.0420105
0.04203
0.0420502
0.042071
0.0420923
0.0421138
0.0421352
0.0421564
0.042177
0.0421968
0.0422155
0.0422328
0.0422483
0.0422614
0.0422717
0.0422786
0.0422818
0.042281
0.0422747
0.0422627
0.0422436
0.0422173
0.0421826
0.0421384
0.0420834
0.0420163
0.0419353
0.0418392
0.0417261
0.0415945
0.041442
0.0412662
0.041064
0.0408343
0.0405745
0.0402847
0.0399579
0.0395933
0.0391825
0.0387331
0.0382387
0.0377006
0.0371169
0.0364892
0.0358167
0.0350897
0.0343403
0.0335145
0.0326803
0.0318198
0.0309388
0.0300717
0.0292087
0.02836
0.0275323
0.0267065
0.0258884
0.0250798
0.0243677
0.0230788
0.0426722
0.0423221
0.042261
0.0421555
0.0420937
0.0421071
0.0422178
0.0424417
0.0426952
0.0428869
0.042984
0.0430102
0.0430007
0.0429597
0.0428894
0.042807
0.0427222
0.0426415
0.0425681
0.0425027
0.0424448
0.0423946
0.0423496
0.0423096
0.0422743
0.0422432
0.0422163
0.0421938
0.0421747
0.0421583
0.0421434
0.042129
0.042114
0.042098
0.0420813
0.0420643
0.0420477
0.0420316
0.0420161
0.0420013
0.0419875
0.0419749
0.0419638
0.0419542
0.0419463
0.0419401
0.0419359
0.0419336
0.0419335
0.0419358
0.04194
0.0419464
0.0419548
0.0419651
0.0419773
0.0419911
0.0420067
0.0420238
0.0420424
0.0420622
0.0420833
0.0421055
0.0421286
0.0421526
0.0421774
0.0422029
0.0422289
0.0422551
0.0422813
0.0423074
0.042333
0.0423579
0.0423819
0.0424044
0.0424253
0.0424439
0.0424599
0.0424726
0.0424815
0.0424863
0.0424869
0.0424809
0.042469
0.0424493
0.0424214
0.0423842
0.0423364
0.0422764
0.0422031
0.0421145
0.0420094
0.0418858
0.0417418
0.0415749
0.0413832
0.0411631
0.0409128
0.0406264
0.0403043
0.0399412
0.0395424
0.0390998
0.038613
0.0380764
0.0374891
0.0368556
0.0361708
0.0354285
0.0346545
0.0337998
0.0329473
0.0320466
0.0311275
0.0302101
0.0293103
0.0284418
0.0275998
0.0268148
0.0260458
0.0253189
0.0239503
0.042618
0.0423397
0.0422961
0.0421863
0.0420927
0.0420517
0.0420752
0.0421981
0.0424338
0.0426945
0.0428782
0.0429596
0.0429694
0.0429476
0.0428884
0.042811
0.0427261
0.0426446
0.0425701
0.0425037
0.0424462
0.0423976
0.0423543
0.0423161
0.0422827
0.0422531
0.0422276
0.0422063
0.0421885
0.0421737
0.0421608
0.0421487
0.0421363
0.0421231
0.042109
0.0420948
0.0420808
0.0420673
0.0420545
0.0420423
0.0420308
0.0420205
0.0420115
0.0420041
0.0419983
0.0419943
0.0419923
0.0419922
0.0419945
0.0419987
0.0420052
0.0420139
0.0420246
0.0420373
0.0420519
0.0420683
0.0420865
0.0421064
0.0421278
0.0421507
0.0421749
0.0422004
0.042227
0.0422547
0.0422833
0.0423128
0.042343
0.0423738
0.0424049
0.0424361
0.0424672
0.042498
0.0425282
0.0425576
0.0425858
0.0426122
0.0426366
0.0426586
0.0426776
0.042693
0.0427042
0.042711
0.0427128
0.042708
0.0426963
0.0426764
0.0426474
0.0426079
0.0425566
0.042492
0.0424127
0.0423168
0.0422025
0.0420674
0.0419094
0.0417249
0.0415122
0.0412668
0.0409898
0.040677
0.0403298
0.0399376
0.0395005
0.0390135
0.0384745
0.0378839
0.0372392
0.0365478
0.0358026
0.0350081
0.0341578
0.033268
0.032349
0.0313586
0.0304039
0.0294053
0.0284185
0.027484
0.0266255
0.0258892
0.0244952
0.0425554
0.0423473
0.0423304
0.042241
0.0421231
0.0420497
0.0420249
0.0420539
0.0421862
0.0424283
0.0426866
0.0428598
0.0429217
0.0429196
0.0428809
0.0428144
0.0427338
0.0426523
0.0425759
0.0425068
0.0424486
0.0424003
0.042358
0.0423216
0.0422902
0.0422625
0.0422386
0.0422185
0.042202
0.0421889
0.042178
0.0421681
0.0421581
0.0421475
0.0421362
0.0421246
0.0421133
0.0421025
0.0420924
0.0420828
0.0420739
0.0420659
0.0420592
0.0420539
0.0420504
0.0420486
0.0420486
0.0420511
0.0420553
0.0420618
0.0420706
0.0420816
0.0420946
0.0421097
0.0421268
0.0421458
0.0421666
0.0421892
0.0422134
0.0422393
0.0422666
0.0422953
0.0423253
0.0423565
0.0423888
0.0424222
0.0424566
0.0424918
0.0425275
0.0425637
0.0426001
0.0426365
0.0426728
0.0427086
0.0427436
0.0427775
0.04281
0.0428405
0.0428686
0.0428941
0.0429163
0.0429345
0.0429482
0.0429568
0.0429598
0.0429559
0.0429443
0.0429236
0.0428925
0.0428499
0.0427944
0.0427245
0.0426385
0.0425343
0.0424098
0.0422619
0.0420884
0.041886
0.0416548
0.0413892
0.0410877
0.0407406
0.0403506
0.0399113
0.0394212
0.0388801
0.0382839
0.0376392
0.0369376
0.0361796
0.0353631
0.0344916
0.0336118
0.0326656
0.0316902
0.0307488
0.0297075
0.0287264
0.0277023
0.0267647
0.0250327
0.0424929
0.0423496
0.0423518
0.0422947
0.0421775
0.0420723
0.0420225
0.042013
0.0420458
0.0421821
0.0424199
0.0426625
0.0428158
0.0428693
0.0428609
0.0428094
0.0427362
0.0426596
0.042585
0.0425138
0.0424536
0.0424033
0.042361
0.042326
0.0422965
0.042271
0.042249
0.0422303
0.0422154
0.042204
0.042195
0.0421871
0.0421794
0.0421713
0.0421624
0.0421535
0.0421448
0.0421367
0.0421294
0.0421227
0.0421165
0.0421111
0.0421067
0.0421037
0.0421024
0.0421027
0.0421052
0.0421096
0.0421161
0.0421249
0.042136
0.0421492
0.0421646
0.0421821
0.0422016
0.0422231
0.0422464
0.0422716
0.0422986
0.0423273
0.0423576
0.0423893
0.0424226
0.0424572
0.0424931
0.0425302
0.0425685
0.0426078
0.042648
0.0426888
0.0427302
0.0427719
0.0428139
0.0428557
0.0428973
0.0429382
0.0429781
0.0430168
0.0430537
0.0430885
0.0431208
0.0431501
0.0431759
0.0431974
0.0432138
0.0432247
0.0432294
0.0432273
0.0432159
0.0431948
0.0431618
0.0431166
0.0430569
0.0429814
0.0428879
0.0427735
0.0426365
0.0424738
0.0422841
0.0420613
0.041804
0.0415057
0.041169
0.0407855
0.0403539
0.0398726
0.0393369
0.0387457
0.0380864
0.0373677
0.0365883
0.0357471
0.0348279
0.0338887
0.032859
0.0318702
0.0308058
0.0298214
0.0288566
0.0279582
0.0262483
0.0424314
0.0423477
0.0423617
0.0423327
0.0422382
0.0421221
0.0420437
0.0420142
0.0420166
0.0420521
0.0421845
0.0424
0.0426134
0.0427454
0.0427887
0.0427702
0.0427201
0.0426597
0.0425895
0.0425202
0.0424595
0.0424069
0.0423639
0.0423295
0.0423016
0.0422781
0.0422579
0.0422407
0.0422274
0.042218
0.0422109
0.0422051
0.0421998
0.0421941
0.0421877
0.0421813
0.0421753
0.0421699
0.0421653
0.0421614
0.0421581
0.0421554
0.0421536
0.0421529
0.0421538
0.0421564
0.0421609
0.0421675
0.0421763
0.0421873
0.0422007
0.0422162
0.042234
0.0422539
0.0422759
0.0422998
0.0423257
0.0423535
0.0423832
0.0424146
0.0424477
0.0424825
0.0425189
0.0425568
0.0425961
0.0426368
0.0426789
0.0427222
0.0427666
0.042812
0.0428581
0.0429049
0.0429522
0.0429998
0.0430474
0.0430949
0.0431419
0.0431881
0.0432332
0.0432768
0.0433185
0.043358
0.0433946
0.0434279
0.0434574
0.0434821
0.0435013
0.0435144
0.0435206
0.0435198
0.043508
0.0434862
0.0434512
0.0434029
0.0433389
0.0432571
0.0431556
0.0430311
0.0428815
0.0427017
0.042491
0.0422441
0.0419621
0.0416361
0.0412663
0.0408465
0.0403704
0.039837
0.0392384
0.0385812
0.0378532
0.0370641
0.036216
0.0352945
0.034308
0.0332146
0.032145
0.0309538
0.0297983
0.0287483
0.0267731
0.0423658
0.0423415
0.0423676
0.0423579
0.0422932
0.0421861
0.0420906
0.0420359
0.042021
0.0420309
0.0420697
0.0421839
0.0423584
0.0425328
0.0426455
0.0426886
0.0426831
0.0426451
0.0425852
0.0425208
0.0424613
0.0424093
0.0423668
0.0423331
0.0423061
0.0422843
0.042266
0.0422504
0.0422389
0.0422313
0.0422261
0.0422225
0.0422196
0.0422161
0.042212
0.0422079
0.0422043
0.0422015
0.0421997
0.0421987
0.0421983
0.0421984
0.0421993
0.0422012
0.0422045
0.0422093
0.042216
0.0422248
0.0422357
0.042249
0.0422646
0.0422825
0.0423026
0.0423249
0.0423493
0.0423756
0.042404
0.0424343
0.0424666
0.0425007
0.0425366
0.0425742
0.0426135
0.0426545
0.0426971
0.0427412
0.0427868
0.0428339
0.0428823
0.0429318
0.0429824
0.0430339
0.0430862
0.0431392
0.0431926
0.0432462
0.0432998
0.0433531
0.0434057
0.0434575
0.043508
0.0435569
0.0436038
0.0436483
0.0436897
0.0437275
0.0437611
0.0437898
0.0438123
0.0438281
0.0438363
0.0438371
0.0438254
0.0438028
0.0437658
0.0437138
0.0436442
0.0435548
0.0434431
0.0433052
0.0431405
0.0429435
0.0427133
0.0424416
0.0421281
0.0417639
0.0413447
0.0408684
0.0403288
0.039731
0.0390623
0.0383283
0.0375222
0.0366452
0.0357089
0.0347047
0.0336676
0.0325672
0.0313968
0.0302883
0.0281625
0.0422988
0.0423348
0.0423744
0.0423749
0.0423369
0.0422479
0.0421506
0.0420775
0.0420419
0.0420373
0.042053
0.0420879
0.0421709
0.0422938
0.0424237
0.0425233
0.0425739
0.0425808
0.0425502
0.0425042
0.0424565
0.0424093
0.0423675
0.0423343
0.0423083
0.0422886
0.0422727
0.0422588
0.0422486
0.0422425
0.0422392
0.0422379
0.0422377
0.0422368
0.042235
0.0422332
0.0422319
0.0422316
0.0422326
0.0422344
0.0422369
0.0422399
0.0422435
0.042248
0.0422538
0.042261
0.0422699
0.0422808
0.0422939
0.0423093
0.0423271
0.0423473
0.0423698
0.0423945
0.0424212
0.04245
0.0424808
0.0425137
0.0425485
0.0425852
0.0426237
0.0426641
0.0427063
0.0427503
0.042796
0.0428434
0.0428924
0.042943
0.0429952
0.0430487
0.0431036
0.0431595
0.0432166
0.0432746
0.0433333
0.0433927
0.0434524
0.0435122
0.043572
0.0436313
0.0436899
0.0437476
0.0438039
0.0438584
0.0439108
0.0439604
0.0440067
0.0440492
0.0440871
0.0441197
0.0441454
0.0441639
0.0441741
0.044176
0.0441647
0.0441413
0.0441021
0.044046
0.0439707
0.043873
0.0437514
0.0436002
0.0434178
0.0431968
0.0429371
0.0426294
0.0422719
0.0418613
0.0413912
0.0408604
0.0402547
0.0395791
0.0388208
0.0379859
0.0370683
0.036073
0.0349652
0.0338658
0.0326063
0.0315393
0.0295675
0.0422467
0.0423225
0.0423748
0.0423875
0.0423684
0.0422992
0.0422071
0.0421279
0.042077
0.0420581
0.0420607
0.0420776
0.0420981
0.0421403
0.0422062
0.0422967
0.0423926
0.0424593
0.0424845
0.0424727
0.0424411
0.0424021
0.0423646
0.042333
0.0423081
0.042291
0.0422781
0.0422664
0.0422577
0.0422528
0.0422512
0.042252
0.0422547
0.0422562
0.0422568
0.0422571
0.042258
0.0422601
0.0422635
0.0422681
0.0422735
0.0422794
0.0422859
0.0422932
0.0423015
0.0423112
0.0423224
0.0423355
0.0423508
0.0423683
0.0423883
0.0424107
0.0424355
0.0424625
0.0424917
0.0425229
0.0425561
0.0425913
0.0426286
0.0426678
0.0427089
0.0427519
0.0427968
0.0428436
0.0428923
0.0429428
0.042995
0.0430489
0.0431045
0.0431618
0.0432205
0.0432807
0.0433421
0.0434047
0.0434684
0.043533
0.0435984
0.0436643
0.0437305
0.0437968
0.0438629
0.0439286
0.0439936
0.0440575
0.04412
0.0441806
0.0442389
0.0442942
0.0443461
0.0443937
0.0444365
0.0444735
0.044503
0.0445246
0.0445371
0.0445401
0.0445291
0.044504
0.044462
0.0444009
0.0443189
0.0442107
0.044075
0.0439055
0.0437019
0.0434558
0.0431668
0.0428276
0.0424314
0.0419735
0.0414433
0.0408451
0.0401649
0.0394071
0.0385535
0.0376177
0.0365872
0.035475
0.0341841
0.0329318
0.0306811
0.0422094
0.0423009
0.04237
0.0423973
0.0423889
0.0423393
0.0422558
0.0421781
0.0421206
0.0420903
0.0420822
0.0420846
0.0420913
0.0420896
0.0420831
0.042103
0.0421722
0.0422662
0.0423454
0.0423832
0.0423881
0.0423697
0.0423473
0.0423258
0.0423065
0.0422915
0.0422806
0.0422722
0.0422659
0.0422623
0.0422618
0.0422646
0.0422695
0.0422737
0.0422769
0.0422795
0.0422826
0.042287
0.0422929
0.0423002
0.0423083
0.0423171
0.0423263
0.0423363
0.0423473
0.0423595
0.0423731
0.0423885
0.0424059
0.0424256
0.0424477
0.0424723
0.0424992
0.0425285
0.04256
0.0425936
0.0426292
0.0426668
0.0427065
0.0427482
0.0427918
0.0428373
0.0428848
0.0429343
0.0429857
0.0430391
0.0430943
0.0431514
0.0432103
0.0432711
0.0433335
0.0433975
0.0434631
0.0435301
0.0435984
0.0436679
0.0437385
0.04381
0.0438822
0.0439549
0.0440278
0.0441009
0.0441738
0.0442462
0.0443179
0.0443884
0.0444574
0.0445243
0.0445887
0.04465
0.0447076
0.0447607
0.0448084
0.0448499
0.0448833
0.0449081
0.0449229
0.0449272
0.0449166
0.0448901
0.0448448
0.0447775
0.0446866
0.0445665
0.0444166
0.0442285
0.0440012
0.0437243
0.0433927
0.0430009
0.0425405
0.0420113
0.0414004
0.0407124
0.0399289
0.0390578
0.0380833
0.0370153
0.0358429
0.0346842
0.0326267
0.0421821
0.0422741
0.0423622
0.0424027
0.0424016
0.0423712
0.042299
0.0422249
0.0421665
0.0421291
0.0421119
0.0421046
0.0420977
0.0420843
0.0420453
0.042005
0.0420062
0.0420591
0.042151
0.0422391
0.0422985
0.0423213
0.0423202
0.0423117
0.0422987
0.0422883
0.0422804
0.0422756
0.042273
0.0422715
0.0422723
0.0422764
0.042283
0.0422897
0.0422956
0.0423006
0.0423057
0.0423121
0.0423202
0.04233
0.042341
0.0423525
0.0423646
0.0423773
0.0423909
0.0424057
0.0424218
0.0424395
0.0424592
0.042481
0.0425052
0.0425319
0.0425611
0.0425926
0.0426263
0.0426622
0.0427001
0.0427401
0.042782
0.0428261
0.0428721
0.0429201
0.04297
0.043022
0.0430761
0.0431322
0.0431903
0.0432503
0.0433122
0.0433762
0.043442
0.0435096
0.0435789
0.0436499
0.0437224
0.0437964
0.0438717
0.0439483
0.0440259
0.0441044
0.0441836
0.0442634
0.0443434
0.0444236
0.0445036
0.0445831
0.0446618
0.0447393
0.0448152
0.044889
0.0449602
0.0450281
0.045092
0.0451509
0.0452041
0.0452505
0.0452882
0.0453163
0.0453334
0.0453388
0.0453281
0.0452992
0.04525
0.0451755
0.0450746
0.0449392
0.0447682
0.044551
0.0442856
0.0439648
0.0435811
0.0431304
0.0425996
0.0419892
0.041282
0.0404814
0.039554
0.0385171
0.0373407
0.0360681
0.0340076
0.0421631
0.0422472
0.0423499
0.0424049
0.042412
0.0423962
0.0423372
0.0422673
0.04221
0.0421692
0.0421453
0.0421308
0.0421135
0.0420899
0.0420389
0.0419742
0.041923
0.0419173
0.0419626
0.042052
0.0421499
0.0422221
0.0422589
0.0422735
0.0422755
0.0422757
0.0422765
0.0422767
0.0422776
0.0422798
0.0422829
0.0422879
0.0422953
0.0423042
0.0423126
0.0423202
0.0423276
0.0423361
0.0423463
0.0423585
0.042372
0.0423862
0.0424009
0.0424162
0.0424324
0.0424497
0.0424683
0.0424884
0.0425103
0.0425344
0.0425607
0.0425895
0.0426208
0.0426544
0.0426904
0.0427285
0.0427687
0.0428109
0.0428551
0.0429014
0.0429497
0.043
0.0430522
0.0431066
0.0431632
0.0432219
0.0432826
0.0433453
0.0434101
0.043477
0.043546
0.0436169
0.0436897
0.0437644
0.0438408
0.0439189
0.0439986
0.0440798
0.0441624
0.0442462
0.0443311
0.0444169
0.0445035
0.0445906
0.0446781
0.0447657
0.0448532
0.0449401
0.0450262
0.0451111
0.0451943
0.0452753
0.0453535
0.0454282
0.0454986
0.0455638
0.0456227
0.0456743
0.0457164
0.0457482
0.0457679
0.0457746
0.0457637
0.0457313
0.0456758
0.0455904
0.0454752
0.0453205
0.0451258
0.0448807
0.0445788
0.0442132
0.0437718
0.0432519
0.0426388
0.0419253
0.0410853
0.0401431
0.0390325
0.0378622
0.0359641
0.042151
0.0422229
0.0423336
0.0424041
0.0424226
0.042415
0.0423697
0.0423056
0.0422504
0.0422082
0.0421789
0.0421584
0.0421343
0.0421004
0.0420419
0.0419662
0.0418943
0.0418451
0.0418391
0.0418814
0.0419731
0.0420767
0.0421626
0.0422177
0.0422446
0.0422564
0.0422663
0.0422731
0.0422785
0.0422846
0.0422919
0.0422991
0.0423077
0.042318
0.0423287
0.0423387
0.0423482
0.0423586
0.0423708
0.0423851
0.042401
0.0424178
0.0424351
0.042453
0.0424717
0.0424914
0.0425125
0.042535
0.0425593
0.0425855
0.0426141
0.042645
0.0426783
0.042714
0.0427521
0.0427923
0.0428347
0.042879
0.0429254
0.0429739
0.0430244
0.0430769
0.0431314
0.043188
0.0432468
0.0433079
0.0433711
0.0434364
0.0435039
0.0435735
0.0436454
0.0437193
0.0437953
0.0438733
0.0439533
0.0440351
0.0441188
0.0442042
0.0442912
0.0443798
0.0444698
0.044561
0.0446533
0.0447467
0.0448408
0.0449357
0.0450309
0.0451263
0.0452215
0.0453162
0.0454102
0.0455029
0.0455939
0.0456827
0.0457685
0.0458505
0.045928
0.0459998
0.0460649
0.0461221
0.0461691
0.0462047
0.0462269
0.0462344
0.0462221
0.0461849
0.0461226
0.0460261
0.045895
0.0457166
0.0454869
0.0451956
0.0448318
0.0443921
0.0438636
0.043236
0.0424908
0.0416143
0.0405762
0.0394168
0.0376999
0.0421437
0.0422027
0.0423158
0.0424021
0.0424312
0.0424288
0.0423967
0.0423403
0.0422883
0.0422457
0.0422114
0.0421838
0.0421537
0.0421103
0.0420461
0.0419669
0.0418837
0.0418153
0.0417744
0.041772
0.0418175
0.0419133
0.042026
0.0421219
0.0421861
0.0422215
0.0422431
0.0422622
0.0422758
0.0422862
0.0422975
0.0423089
0.0423195
0.0423312
0.0423437
0.0423562
0.0423682
0.0423806
0.0423947
0.0424109
0.0424289
0.042448
0.0424677
0.0424879
0.0425089
0.0425311
0.0425545
0.0425794
0.042606
0.0426345
0.0426652
0.0426983
0.0427337
0.0427714
0.0428115
0.0428538
0.0428983
0.0429447
0.0429931
0.0430437
0.0430963
0.0431508
0.0432074
0.0432661
0.0433272
0.0433905
0.043456
0.0435236
0.0435935
0.0436657
0.0437402
0.0438169
0.0438958
0.0439769
0.04406
0.0441452
0.0442324
0.0443216
0.0444127
0.0445056
0.0446001
0.0446961
0.0447937
0.0448926
0.0449928
0.045094
0.0451962
0.045299
0.0454022
0.0455057
0.045609
0.0457121
0.0458143
0.0459152
0.0460144
0.0461113
0.046205
0.0462948
0.0463798
0.0464588
0.0465306
0.046594
0.0466462
0.0466857
0.0467103
0.046718
0.0467034
0.0466597
0.0465859
0.04647
0.0463109
0.0460961
0.0458176
0.0454684
0.0450316
0.0444971
0.0438439
0.043043
0.0420971
0.0409546
0.0394164
0.0421396
0.0421872
0.0422988
0.042399
0.0424375
0.0424404
0.0424194
0.0423716
0.0423234
0.042281
0.0422415
0.0422048
0.0421673
0.0421153
0.0420474
0.0419663
0.0418809
0.0418027
0.0417435
0.0417133
0.0417183
0.0417717
0.041875
0.0419968
0.0420984
0.0421698
0.0422167
0.0422463
0.0422676
0.0422837
0.0423
0.0423166
0.0423312
0.0423446
0.0423587
0.042373
0.042387
0.0424013
0.0424171
0.042435
0.042455
0.0424763
0.0424982
0.0425208
0.0425442
0.0425686
0.0425944
0.0426217
0.0426506
0.0426814
0.0427143
0.0427494
0.0427869
0.0428266
0.0428687
0.042913
0.0429594
0.0430077
0.0430582
0.0431106
0.0431652
0.0432218
0.0432803
0.043341
0.043404
0.0434694
0.0435371
0.043607
0.0436791
0.0437535
0.0438304
0.0439097
0.0439912
0.044075
0.0441611
0.0442494
0.0443398
0.0444324
0.044527
0.0446237
0.0447223
0.0448226
0.0449248
0.0450286
0.045134
0.0452408
0.045349
0.0454584
0.0455687
0.0456797
0.0457913
0.0459033
0.0460152
0.0461269
0.0462378
0.0463474
0.0464554
0.0465608
0.0466631
0.0467613
0.0468544
0.0469413
0.0470205
0.0470908
0.0471484
0.0471916
0.0472181
0.0472252
0.047206
0.0471529
0.0470646
0.0469281
0.046738
0.0464831
0.0461468
0.0457217
0.0451767
0.0444838
0.0436385
0.0425725
0.0411476
0.0421373
0.0421762
0.0422843
0.042395
0.0424429
0.0424517
0.0424383
0.0423994
0.0423554
0.042313
0.0422678
0.0422207
0.042172
0.0421141
0.0420432
0.0419612
0.0418765
0.0417969
0.0417285
0.0416823
0.0416645
0.0416792
0.0417451
0.0418597
0.0419869
0.0420939
0.0421691
0.0422174
0.0422504
0.0422766
0.0422986
0.0423209
0.0423411
0.0423574
0.042373
0.042389
0.0424051
0.0424214
0.0424389
0.0424585
0.0424801
0.0425033
0.0425274
0.0425521
0.0425777
0.0426044
0.0426324
0.0426619
0.0426931
0.0427262
0.0427612
0.0427984
0.0428379
0.0428796
0.0429236
0.0429697
0.043018
0.0430682
0.0431205
0.0431748
0.0432312
0.0432896
0.04335
0.0434125
0.0434774
0.0435448
0.0436144
0.0436863
0.0437604
0.043837
0.0439161
0.0439976
0.0440816
0.0441679
0.0442566
0.0443476
0.0444409
0.0445364
0.0446343
0.0447343
0.0448365
0.0449407
0.0450468
0.045155
0.0452649
0.0453767
0.0454902
0.0456053
0.0457217
0.0458393
0.0459581
0.0460778
0.0461982
0.046319
0.04644
0.0465607
0.0466807
0.0467996
0.0469167
0.0470314
0.0471428
0.0472501
0.0473523
0.047448
0.0475352
0.0476125
0.0476754
0.0477228
0.0477514
0.0477578
0.0477321
0.0476667
0.0475546
0.0473849
0.0471427
0.0468176
0.0463679
0.0457707
0.0450053
0.0440254
0.0427189
0.0421362
0.042169
0.0422733
0.0423913
0.0424485
0.0424624
0.0424546
0.042424
0.0423839
0.0423405
0.0422886
0.04223
0.0421697
0.0421037
0.0420306
0.0419508
0.0418689
0.0417913
0.0417215
0.0416658
0.0416346
0.0416299
0.0416564
0.0417389
0.0418654
0.0419971
0.0421042
0.042178
0.0422278
0.0422647
0.0422948
0.0423229
0.0423484
0.0423689
0.0423865
0.042404
0.0424218
0.0424399
0.0424591
0.0424804
0.0425038
0.0425289
0.042555
0.0425819
0.0426097
0.0426386
0.0426688
0.0427005
0.0427339
0.0427692
0.0428063
0.0428456
0.042887
0.0429306
0.0429765
0.0430244
0.0430745
0.0431265
0.0431804
0.0432365
0.0432946
0.0433548
0.0434169
0.0434811
0.0435478
0.0436169
0.0436884
0.0437621
0.0438382
0.0439167
0.0439978
0.0440814
0.0441675
0.044256
0.0443471
0.0444405
0.0445364
0.0446346
0.0447353
0.0448383
0.0449436
0.0450512
0.0451609
0.0452728
0.0453868
0.0455029
0.0456209
0.0457409
0.0458626
0.0459859
0.0461108
0.0462371
0.0463647
0.0464934
0.0466229
0.046753
0.0468834
0.0470136
0.0471433
0.047272
0.047399
0.0475237
0.0476453
0.0477628
0.0478749
0.0479802
0.0480761
0.0481615
0.0482307
0.0482823
0.0483113
0.0483143
0.0482742
0.0481883
0.0480409
0.0478263
0.0475012
0.047042
0.0463819
0.045496
0.0442854
0.0421357
0.0421651
0.0422664
0.0423897
0.0424551
0.0424729
0.042469
0.0424457
0.0424084
0.0423622
0.0423016
0.0422309
0.0421589
0.0420857
0.0420115
0.0419349
0.0418573
0.0417833
0.041716
0.0416575
0.0416174
0.0416023
0.0416077
0.0416523
0.041754
0.041891
0.0420234
0.0421255
0.0421959
0.042246
0.0422859
0.0423208
0.0423526
0.0423786
0.0423992
0.0424184
0.0424379
0.0424577