/*--------------------------------*- C++ -*----------------------------------*\
| =========                 |                                                 |
| \\      /  F ield         | OpenFOAM: The Open Source CFD Toolbox           |
|  \\    /   O peration     | Version:  2412                                  |
|   \\  /    A nd           | Website:  www.openfoam.com                      |
|    \\/     M anipulation  |                                                 |
\*---------------------------------------------------------------------------*/
FoamFile
{
    version     2.0;
    format      ascii;
    arch        "LSB;label=32;scalar=64";
    class       volScalarField;
    location    "0.074";
    object      T;
}
// * * * * * * * * * * * * * * * * * * * * * * * * * * * * * * * * * * * * * //

dimensions      [0 0 0 1 0 0 0];

internalField   nonuniform List<scalar> 
78650
(
227
225.2
225.286
225.33
225.413
225.521
225.602
225.633
225.624
225.574
225.49
225.38
225.23
225.038
224.818
224.596
224.381
224.181
223.995
223.824
223.668
223.526
223.4
223.287
223.187
223.097
223.014
222.937
222.863
222.788
222.712
222.633
222.553
222.472
222.392
222.315
222.24
222.166
222.095
222.025
221.958
221.894
221.834
221.777
221.724
221.675
221.63
221.589
221.552
221.519
221.489
221.461
221.437
221.415
221.395
221.378
221.361
221.346
221.33
221.315
221.299
221.282
221.264
221.243
221.219
221.191
221.159
221.12
221.075
221.021
220.958
220.884
220.797
220.696
220.578
220.442
220.285
220.104
219.899
219.664
219.399
219.098
218.758
218.374
217.942
217.457
216.916
216.314
215.645
214.903
214.091
213.197
212.217
211.128
209.957
208.683
207.32
205.86
204.265
202.588
200.811
198.976
196.994
194.908
192.839
190.73
188.769
186.844
185.042
183.251
181.488
179.788
178.087
176.488
175.036
173.716
172.647
171.837
171.375
171.218
169.844
226.334
224.865
225.063
225.172
225.286
225.408
225.514
225.569
225.576
225.545
225.471
225.362
225.214
225.027
224.809
224.587
224.373
224.175
223.991
223.823
223.669
223.529
223.406
223.296
223.199
223.112
223.033
222.96
222.891
222.822
222.752
222.679
222.603
222.527
222.452
222.378
222.307
222.238
222.171
222.105
222.043
221.983
221.926
221.873
221.824
221.779
221.739
221.702
221.67
221.641
221.616
221.595
221.576
221.56
221.546
221.534
221.525
221.516
221.509
221.501
221.494
221.486
221.477
221.466
221.453
221.437
221.417
221.392
221.362
221.324
221.279
221.223
221.157
221.078
220.984
220.875
220.746
220.598
220.426
220.229
220.003
219.747
219.455
219.123
218.747
218.324
217.85
217.318
216.726
216.067
215.335
214.518
213.611
212.604
211.522
210.341
209.083
207.71
206.23
204.641
202.956
201.196
199.389
197.431
195.475
193.354
191.281
189.175
187.146
185.219
183.337
181.59
179.843
178.158
176.557
175.075
173.86
172.854
172.192
171.842
170.392
225.678
224.44
224.735
224.925
225.102
225.258
225.387
225.473
225.503
225.492
225.436
225.333
225.19
225.008
224.796
224.576
224.364
224.167
223.986
223.822
223.67
223.534
223.413
223.307
223.213
223.128
223.052
222.982
222.918
222.855
222.791
222.723
222.653
222.582
222.511
222.442
222.375
222.31
222.247
222.186
222.128
222.072
222.02
221.971
221.926
221.886
221.849
221.817
221.789
221.766
221.746
221.729
221.716
221.706
221.698
221.693
221.69
221.689
221.689
221.689
221.69
221.691
221.691
221.691
221.689
221.684
221.677
221.665
221.649
221.627
221.598
221.561
221.514
221.457
221.386
221.301
221.2
221.081
220.94
220.778
220.589
220.373
220.125
219.841
219.517
219.15
218.735
218.267
217.742
217.156
216.501
215.769
214.957
214.058
213.086
212.018
210.866
209.59
208.208
206.713
205.099
203.382
201.627
199.752
197.863
195.857
193.763
191.688
189.504
187.433
185.35
183.385
181.499
179.701
178.012
176.446
175.098
173.96
173.12
172.571
170.672
225.11
223.973
224.288
224.57
224.839
225.058
225.227
225.344
225.401
225.408
225.375
225.29
225.158
224.984
224.779
224.563
224.355
224.16
223.983
223.821
223.673
223.54
223.422
223.318
223.227
223.145
223.071
223.006
222.946
222.889
222.83
222.768
222.704
222.638
222.572
222.508
222.445
222.384
222.325
222.269
222.215
222.164
222.116
222.071
222.03
221.994
221.961
221.934
221.911
221.892
221.877
221.866
221.858
221.853
221.852
221.853
221.856
221.862
221.869
221.877
221.886
221.895
221.905
221.914
221.922
221.929
221.933
221.934
221.931
221.924
221.911
221.891
221.863
221.826
221.777
221.716
221.641
221.55
221.441
221.311
221.159
220.982
220.777
220.54
220.268
219.956
219.6
219.196
218.741
218.23
217.657
217.011
216.291
215.492
214.615
213.639
212.569
211.377
210.097
208.707
207.214
205.62
203.887
202.107
200.158
198.267
196.168
194.161
192.016
189.869
187.747
185.59
183.517
181.51
179.603
177.873
176.361
175.132
174.321
173.841
171.915
224.679
223.561
223.798
224.091
224.455
224.779
225.024
225.187
225.279
225.309
225.294
225.232
225.116
224.951
224.757
224.547
224.344
224.152
223.978
223.821
223.677
223.547
223.433
223.332
223.242
223.163
223.092
223.03
222.975
222.922
222.869
222.813
222.755
222.695
222.634
222.574
222.516
222.459
222.405
222.353
222.304
222.257
222.213
222.173
222.137
222.104
222.076
222.053
222.035
222.02
222.01
222.004
222.002
222.003
222.008
222.015
222.025
222.037
222.051
222.067
222.084
222.102
222.12
222.138
222.157
222.174
222.19
222.203
222.214
222.22
222.223
222.219
222.21
222.192
222.164
222.125
222.075
222.01
221.929
221.831
221.712
221.571
221.406
221.212
220.986
220.724
220.424
220.08
219.689
219.247
218.745
218.18
217.546
216.838
216.049
215.163
214.189
213.11
211.95
210.682
209.31
207.817
206.196
204.492
202.623
200.686
198.669
196.549
194.503
192.297
190.189
188.014
185.861
183.765
181.705
179.762
177.982
176.404
175.236
174.461
172.114
224.45
223.352
223.436
223.591
223.936
224.356
224.728
224.989
225.134
225.195
225.198
225.159
225.065
224.913
224.729
224.528
224.331
224.143
223.973
223.82
223.681
223.556
223.445
223.346
223.259
223.182
223.113
223.055
223.004
222.955
222.908
222.858
222.806
222.752
222.697
222.642
222.588
222.537
222.487
222.439
222.394
222.352
222.314
222.278
222.246
222.218
222.194
222.175
222.161
222.152
222.147
222.146
222.149
222.156
222.166
222.179
222.195
222.214
222.235
222.258
222.283
222.309
222.336
222.363
222.391
222.419
222.446
222.471
222.494
222.514
222.531
222.543
222.55
222.551
222.543
222.526
222.499
222.459
222.406
222.338
222.251
222.146
222.018
221.866
221.686
221.475
221.228
220.943
220.614
220.237
219.808
219.322
218.773
218.153
217.454
216.668
215.8
214.841
213.798
212.641
211.377
209.99
208.487
206.86
205.15
203.223
201.324
199.18
197.069
194.837
192.585
190.377
188.114
185.961
183.779
181.784
180.028
178.552
177.297
176.311
173.5
224.339
223.333
223.263
223.208
223.397
223.806
224.291
224.692
224.946
225.066
225.1
225.083
225.012
224.874
224.699
224.505
224.314
224.132
223.968
223.819
223.685
223.565
223.457
223.361
223.277
223.202
223.137
223.081
223.033
222.989
222.947
222.903
222.857
222.809
222.76
222.711
222.662
222.615
222.57
222.527
222.487
222.45
222.416
222.385
222.357
222.334
222.315
222.301
222.291
222.286
222.286
222.291
222.299
222.311
222.326
222.346
222.368
222.394
222.422
222.452
222.484
222.518
222.553
222.59
222.627
222.665
222.702
222.739
222.774
222.807
222.838
222.866
222.888
222.906
222.917
222.921
222.916
222.9
222.873
222.832
222.776
222.703
222.611
222.497
222.358
222.192
221.995
221.762
221.491
221.178
220.818
220.408
219.94
219.405
218.798
218.113
217.353
216.507
215.572
214.518
213.355
212.07
210.676
209.166
207.529
205.799
203.948
201.965
199.785
197.666
195.343
193.077
190.729
188.404
186.022
183.679
181.585
179.807
178.535
177.74
175.115
224.272
223.366
223.238
223.059
223.049
223.267
223.724
224.255
224.68
224.909
225.001
225.008
224.961
224.845
224.679
224.491
224.304
224.125
223.964
223.819
223.689
223.573
223.469
223.377
223.295
223.223
223.161
223.108
223.063
223.023
222.985
222.948
222.908
222.866
222.823
222.78
222.737
222.695
222.655
222.617
222.582
222.549
222.519
222.493
222.471
222.452
222.438
222.428
222.423
222.423
222.428
222.437
222.451
222.468
222.489
222.515
222.543
222.575
222.609
222.647
222.686
222.728
222.772
222.816
222.863
222.91
222.958
223.005
223.052
223.098
223.142
223.183
223.222
223.256
223.285
223.308
223.323
223.33
223.328
223.314
223.288
223.245
223.187
223.11
223.012
222.889
222.74
222.56
222.346
222.093
221.799
221.457
221.063
220.608
220.089
219.5
218.841
218.094
217.256
216.307
215.262
214.105
212.835
211.446
209.939
208.307
206.523
204.663
202.584
200.454
198.224
195.903
193.576
191.21
188.835
186.493
184.211
182.109
180.277
178.942
175.473
224.186
223.415
223.283
223.05
222.913
222.943
223.189
223.684
224.244
224.666
224.879
224.937
224.916
224.826
224.672
224.49
224.304
224.126
223.964
223.82
223.692
223.581
223.481
223.392
223.314
223.245
223.186
223.136
223.093
223.057
223.024
222.992
222.959
222.923
222.886
222.848
222.811
222.775
222.741
222.708
222.677
222.649
222.624
222.603
222.586
222.572
222.562
222.557
222.557
222.562
222.572
222.586
222.604
222.627
222.654
222.685
222.72
222.758
222.799
222.843
222.89
222.939
222.991
223.044
223.099
223.155
223.213
223.271
223.329
223.387
223.443
223.499
223.552
223.601
223.648
223.689
223.724
223.752
223.772
223.782
223.783
223.77
223.744
223.7
223.639
223.556
223.45
223.317
223.155
222.958
222.724
222.449
222.128
221.755
221.325
220.83
220.266
219.617
218.885
218.055
217.138
216.115
214.981
213.722
212.332
210.819
209.167
207.356
205.445
203.305
201.139
198.815
196.401
193.94
191.474
189.064
186.766
184.773
183.07
181.727
178.125
224.068
223.455
223.361
223.118
222.911
222.82
222.872
223.145
223.667
224.243
224.647
224.826
224.847
224.799
224.669
224.499
224.312
224.133
223.968
223.822
223.695
223.587
223.491
223.407
223.333
223.267
223.211
223.163
223.124
223.091
223.062
223.036
223.008
222.979
222.947
222.916
222.885
222.855
222.826
222.799
222.774
222.751
222.73
222.714
222.701
222.692
222.688
222.688
222.693
222.702
222.717
222.736
222.76
222.788
222.82
222.857
222.897
222.941
222.989
223.04
223.093
223.15
223.209
223.27
223.334
223.399
223.466
223.534
223.603
223.672
223.74
223.808
223.875
223.94
224.002
224.06
224.114
224.162
224.204
224.238
224.263
224.278
224.282
224.271
224.245
224.201
224.137
224.05
223.937
223.794
223.619
223.406
223.153
222.853
222.501
222.09
221.613
221.063
220.439
219.731
218.942
218.046
217.04
215.913
214.656
213.267
211.736
210.078
208.271
206.32
204.205
201.957
199.596
196.997
194.438
191.721
189.048
186.646
184.701
183.336
179.697
223.931
223.473
223.437
223.24
222.978
222.815
222.76
222.825
223.119
223.655
224.225
224.606
224.743
224.738
224.653
224.507
224.329
224.15
223.981
223.828
223.7
223.593
223.499
223.419
223.349
223.288
223.235
223.19
223.154
223.125
223.1
223.078
223.056
223.033
223.008
222.982
222.957
222.933
222.91
222.889
222.869
222.852
222.837
222.825
222.817
222.813
222.813
222.819
222.828
222.842
222.862
222.886
222.915
222.949
222.987
223.029
223.075
223.125
223.179
223.236
223.297
223.36
223.427
223.496
223.567
223.641
223.717
223.795
223.874
223.953
224.034
224.114
224.194
224.273
224.35
224.424
224.496
224.563
224.625
224.681
224.729
224.769
224.799
224.818
224.825
224.816
224.79
224.745
224.676
224.583
224.461
224.307
224.117
223.887
223.612
223.284
222.899
222.448
221.932
221.337
220.658
219.874
218.988
217.984
216.856
215.601
214.208
212.686
211.014
209.187
207.195
205.038
202.827
200.404
197.858
195.36
192.6
190.106
187.722
185.808
181.274
223.794
223.479
223.485
223.358
223.099
222.865
222.755
222.734
222.806
223.109
223.636
224.172
224.51
224.627
224.609
224.496
224.335
224.166
224.001
223.844
223.711
223.6
223.506
223.429
223.363
223.307
223.258
223.217
223.183
223.158
223.138
223.121
223.104
223.086
223.066
223.046
223.027
223.009
222.993
222.978
222.964
222.952
222.942
222.935
222.933
222.933
222.939
222.948
222.963
222.982
223.007
223.036
223.071
223.109
223.153
223.2
223.252
223.308
223.368
223.431
223.498
223.568
223.642
223.718
223.798
223.88
223.964
224.051
224.139
224.229
224.32
224.412
224.504
224.596
224.688
224.778
224.865
224.95
225.031
225.107
225.178
225.242
225.298
225.345
225.381
225.405
225.415
225.41
225.385
225.339
225.267
225.168
225.037
224.871
224.665
224.414
224.112
223.752
223.332
222.838
222.264
221.597
220.841
219.975
218.994
217.894
216.66
215.287
213.743
212.041
210.175
208.135
205.873
203.524
200.898
198.331
195.561
193.091
190.888
189.092
184.726
223.659
223.475
223.507
223.443
223.233
222.976
222.802
222.736
222.742
222.821
223.115
223.592
224.064
224.355
224.45
224.409
224.299
224.166
224.011
223.858
223.724
223.608
223.513
223.436
223.375
223.322
223.278
223.24
223.21
223.189
223.173
223.161
223.149
223.136
223.122
223.108
223.094
223.082
223.072
223.064
223.056
223.05
223.046
223.045
223.047
223.052
223.062
223.077
223.096
223.121
223.15
223.185
223.224
223.269
223.317
223.37
223.427
223.489
223.555
223.624
223.697
223.774
223.855
223.938
224.025
224.115
224.207
224.303
224.401
224.5
224.602
224.704
224.808
224.913
225.017
225.121
225.224
225.325
225.424
225.519
225.61
225.696
225.776
225.849
225.913
225.967
226.009
226.037
226.051
226.049
226.023
225.975
225.899
225.793
225.653
225.475
225.252
224.979
224.651
224.255
223.789
223.243
222.616
221.888
221.058
220.111
219.03
217.811
216.431
214.902
213.192
211.316
209.272
207.017
204.562
201.794
199.071
196.09
193.388
191.171
186.111
223.515
223.462
223.52
223.499
223.355
223.118
222.906
222.784
222.751
222.773
222.86
223.113
223.5
223.886
224.135
224.229
224.217
224.134
224.002
223.859
223.728
223.613
223.519
223.444
223.385
223.336
223.296
223.261
223.235
223.219
223.207
223.199
223.193
223.185
223.176
223.167
223.159
223.152
223.149
223.146
223.145
223.146
223.148
223.152
223.159
223.17
223.185
223.204
223.228
223.258
223.292
223.332
223.376
223.426
223.48
223.538
223.601
223.668
223.739
223.814
223.894
223.977
224.063
224.154
224.248
224.345
224.445
224.549
224.655
224.764
224.875
224.988
225.102
225.218
225.335
225.452
225.569
225.686
225.801
225.913
226.024
226.13
226.232
226.329
226.419
226.501
226.574
226.636
226.685
226.719
226.737
226.738
226.713
226.664
226.583
226.47
226.319
226.124
225.88
225.579
225.218
224.786
224.279
223.679
222.984
222.172
221.233
220.159
218.934
217.565
216.021
214.308
212.403
210.302
208.025
205.55
202.982
200.296
197.595
195.274
189.972
223.367
223.447
223.535
223.536
223.452
223.255
223.039
222.877
222.798
222.788
222.823
222.9
223.084
223.357
223.645
223.865
223.977
223.992
223.924
223.823
223.717
223.613
223.521
223.447
223.389
223.346
223.31
223.28
223.257
223.243
223.236
223.233
223.233
223.231
223.227
223.223
223.22
223.219
223.221
223.225
223.231
223.238
223.246
223.256
223.268
223.284
223.304
223.328
223.357
223.391
223.431
223.475
223.525
223.58
223.639
223.703
223.771
223.843
223.92
224.001
224.086
224.175
224.268
224.365
224.465
224.57
224.677
224.788
224.903
225.02
225.14
225.263
225.388
225.514
225.643
225.772
225.902
226.033
226.163
226.292
226.419
226.545
226.667
226.785
226.899
227.006
227.106
227.198
227.28
227.35
227.406
227.446
227.468
227.471
227.447
227.396
227.311
227.19
227.027
226.815
226.551
226.221
225.824
225.34
224.771
224.093
223.302
222.388
221.336
220.14
218.765
217.215
215.458
213.496
211.312
208.914
206.233
203.598
200.691
198.468
193.665
223.252
223.42
223.536
223.564
223.522
223.369
223.165
222.989
222.876
222.834
222.839
222.877
222.923
223.016
223.163
223.363
223.576
223.723
223.779
223.753
223.683
223.597
223.514
223.444
223.389
223.351
223.322
223.296
223.277
223.266
223.263
223.265
223.27
223.274
223.275
223.276
223.278
223.282
223.29
223.3
223.312
223.325
223.339
223.356
223.374
223.395
223.42
223.449
223.483
223.522
223.566
223.616
223.67
223.73
223.795
223.863
223.937
224.014
224.097
224.183
224.274
224.368
224.467
224.57
224.677
224.788
224.902
225.021
225.142
225.268
225.396
225.528
225.662
225.799
225.938
226.078
226.221
226.364
226.508
226.652
226.795
226.937
227.078
227.216
227.351
227.482
227.608
227.727
227.839
227.942
228.033
228.113
228.176
228.223
228.249
228.256
228.232
228.178
228.087
227.956
227.778
227.545
227.251
226.884
226.442
225.905
225.273
224.528
223.653
222.637
221.452
220.104
218.556
216.811
214.822
212.619
210.185
207.581
204.649
201.97
196.547
223.169
223.372
223.525
223.586
223.567
223.457
223.272
223.1
222.973
222.905
222.887
222.893
222.908
222.904
222.889
222.934
223.087
223.296
223.471
223.555
223.566
223.525
223.476
223.428
223.385
223.352
223.328
223.309
223.295
223.287
223.286
223.292
223.303
223.313
223.32
223.325
223.332
223.342
223.355
223.371
223.389
223.409
223.429
223.451
223.475
223.502
223.532
223.567
223.605
223.649
223.697
223.752
223.811
223.876
223.945
224.02
224.098
224.181
224.268
224.36
224.456
224.556
224.66
224.769
224.882
224.999
225.12
225.245
225.374
225.507
225.643
225.783
225.926
226.072
226.221
226.372
226.525
226.68
226.837
226.994
227.152
227.31
227.468
227.624
227.778
227.93
228.079
228.223
228.361
228.492
228.616
228.73
228.832
228.92
228.992
229.045
229.076
229.085
229.062
229.006
228.909
228.764
228.569
228.311
227.988
227.582
227.09
226.489
225.766
224.908
223.893
222.719
221.352
219.795
218.004
215.992
213.74
211.299
208.708
206.285
201.475
223.109
223.313
223.508
223.598
223.595
223.528
223.368
223.204
223.074
222.991
222.953
222.937
222.922
222.892
222.805
222.716
222.719
222.836
223.041
223.236
223.368
223.418
223.416
223.397
223.368
223.345
223.327
223.317
223.311
223.308
223.309
223.319
223.333
223.348
223.361
223.372
223.383
223.398
223.416
223.437
223.461
223.487
223.514
223.542
223.572
223.605
223.64
223.679
223.723
223.771
223.825
223.883
223.948
224.017
224.092
224.171
224.254
224.342
224.435
224.531
224.633
224.738
224.848
224.962
225.08
225.203
225.33
225.461
225.597
225.736
225.88
226.027
226.178
226.333
226.49
226.651
226.814
226.98
227.148
227.318
227.489
227.661
227.834
228.006
228.178
228.349
228.518
228.684
228.847
229.005
229.157
229.302
229.438
229.564
229.677
229.776
229.856
229.915
229.952
229.963
229.94
229.878
229.773
229.614
229.399
229.109
228.742
228.276
227.703
227.009
226.175
225.19
224.022
222.664
221.076
219.265
217.168
214.848
212.283
209.586
204.843
223.067
223.253
223.481
223.602
223.618
223.583
223.453
223.298
223.171
223.08
223.027
222.995
222.957
222.904
222.791
222.647
222.533
222.521
222.622
222.821
223.038
223.198
223.28
223.312
223.317
223.317
223.319
223.319
223.321
223.326
223.333
223.344
223.36
223.38
223.399
223.415
223.432
223.451
223.473
223.5
223.53
223.561
223.594
223.628
223.664
223.702
223.743
223.787
223.836
223.889
223.947
224.011
224.079
224.154
224.233
224.317
224.405
224.498
224.595
224.697
224.803
224.913
225.028
225.147
225.271
225.399
225.532
225.669
225.811
225.956
226.107
226.261
226.419
226.581
226.747
226.917
227.089
227.265
227.443
227.624
227.807
227.992
228.178
228.365
228.553
228.741
228.928
229.114
229.298
229.479
229.656
229.829
229.995
230.154
230.303
230.442
230.566
230.676
230.765
230.832
230.873
230.887
230.864
230.795
230.677
230.496
230.251
229.922
229.506
228.982
228.334
227.546
226.588
225.451
224.098
222.513
220.653
218.594
216.226
213.81
209.563
223.04
223.199
223.445
223.601
223.642
223.625
223.525
223.383
223.261
223.167
223.102
223.057
223.003
222.928
222.798
222.63
222.469
222.36
222.347
222.441
222.645
222.875
223.066
223.188
223.248
223.274
223.296
223.311
223.323
223.337
223.353
223.369
223.388
223.411
223.434
223.456
223.478
223.5
223.527
223.559
223.594
223.631
223.67
223.709
223.75
223.794
223.841
223.89
223.944
224.002
224.065
224.133
224.206
224.285
224.369
224.457
224.55
224.648
224.75
224.856
224.967
225.082
225.201
225.325
225.454
225.587
225.725
225.868
226.015
226.167
226.323
226.484
226.649
226.818
226.991
227.168
227.349
227.533
227.721
227.912
228.106
228.302
228.5
228.7
228.902
229.105
229.308
229.512
229.715
229.916
230.116
230.313
230.506
230.694
230.875
231.049
231.212
231.364
231.501
231.621
231.72
231.795
231.841
231.856
231.83
231.752
231.62
231.417
231.139
230.762
230.274
229.654
228.875
227.927
226.778
225.406
223.785
221.91
219.74
217.373
213.623
223.024
223.155
223.405
223.596
223.661
223.655
223.584
223.46
223.344
223.25
223.174
223.113
223.046
222.95
222.807
222.631
222.446
222.293
222.202
222.197
222.298
222.512
222.763
222.976
223.118
223.197
223.245
223.287
223.317
223.34
223.365
223.39
223.414
223.44
223.468
223.495
223.522
223.549
223.58
223.616
223.656
223.698
223.742
223.786
223.833
223.882
223.933
223.988
224.047
224.11
224.177
224.25
224.328
224.411
224.499
224.593
224.69
224.792
224.898
225.009
225.124
225.244
225.368
225.496
225.629
225.768
225.911
226.058
226.21
226.367
226.529
226.695
226.867
227.042
227.222
227.406
227.595
227.787
227.983
228.183
228.386
228.592
228.801
229.013
229.227
229.443
229.661
229.88
230.099
230.319
230.538
230.756
230.972
231.186
231.395
231.599
231.796
231.985
232.163
232.329
232.479
232.612
232.721
232.803
232.854
232.87
232.839
232.748
232.593
232.349
232.015
231.562
230.973
230.231
229.294
228.144
226.748
225.07
223.138
220.837
217.555
223.015
223.12
223.368
223.589
223.675
223.681
223.634
223.529
223.422
223.328
223.241
223.159
223.076
222.961
222.81
222.63
222.44
222.265
222.133
222.066
222.077
222.196
222.427
222.698
222.924
223.082
223.186
223.252
223.299
223.335
223.371
223.407
223.44
223.47
223.501
223.532
223.563
223.595
223.63
223.669
223.714
223.761
223.809
223.859
223.91
223.964
224.021
224.081
224.145
224.213
224.285
224.363
224.445
224.533
224.625
224.722
224.824
224.93
225.041
225.156
225.275
225.399
225.527
225.66
225.797
225.94
226.087
226.239
226.396
226.558
226.725
226.897
227.073
227.255
227.441
227.631
227.826
228.025
228.229
228.437
228.648
228.863
229.082
229.303
229.528
229.756
229.986
230.219
230.453
230.688
230.924
231.161
231.397
231.632
231.865
232.096
232.322
232.543
232.757
232.962
233.156
233.337
233.502
233.648
233.768
233.857
233.912
233.927
233.886
233.776
233.591
233.307
232.909
232.374
231.662
230.759
229.613
228.19
226.506
224.406
221.434
223.01
223.096
223.335
223.581
223.686
223.706
223.676
223.59
223.493
223.399
223.299
223.195
223.087
222.958
222.801
222.618
222.43
222.252
222.1
221.997
221.957
221.99
222.137
222.392
222.676
222.914
223.081
223.188
223.261
223.319
223.368
223.417
223.462
223.498
223.532
223.568
223.603
223.639
223.678
223.721
223.769
223.82
223.873
223.928
223.984
224.043
224.105
224.17
224.239
224.312
224.389
224.471
224.557
224.649
224.746
224.847
224.953
225.063
225.177
225.296
225.42
225.547
225.679
225.816
225.957
226.104
226.256
226.412
226.573
226.739
226.911
227.087
227.269
227.455
227.647
227.843
228.044
228.249
228.459
228.674
228.893
229.116
229.342
229.573
229.807
230.045
230.286
230.53
230.777
231.026
231.276
231.529
231.782
232.036
232.29
232.543
232.794
233.042
233.287
233.525
233.757
233.98
234.192
234.39
234.57
234.73
234.86
234.957
235.016
235.028
234.975
234.84
234.607
234.255
233.748
233.065
232.131
230.927
229.436
227.549
224.88
223.007
223.08
223.311
223.572
223.699
223.729
223.712
223.645
223.556
223.46
223.345
223.215
223.081
222.935
222.773
222.595
222.413
222.24
222.084
221.96
221.89
221.879
221.939
222.123
222.405
222.698
222.936
223.1
223.211
223.293
223.359
223.421
223.478
223.523
223.562
223.601
223.64
223.68
223.723
223.77
223.821
223.877
223.934
223.994
224.055
224.119
224.185
224.255
224.329
224.406
224.488
224.574
224.665
224.761
224.862
224.967
225.077
225.191
225.309
225.431
225.558
225.69
225.825
225.965
226.111
226.261
226.416
226.577
226.742
226.912
227.087
227.268
227.454
227.646
227.842
228.043
228.249
228.46
228.676
228.897
229.122
229.352
229.586
229.824
230.067
230.313
230.564
230.818
231.075
231.335
231.599
231.864
232.132
232.402
232.673
232.945
233.217
233.489
233.759
234.026
234.289
234.547
234.798
235.041
235.272
235.488
235.685
235.861
236.002
236.108
236.166
236.172
236.09
235.913
235.607
235.159
234.492
233.585
232.335
230.673
228.254
223.006
223.071
223.296
223.569
223.713
223.753
223.744
223.693
223.61
223.508
223.374
223.217
223.058
222.895
222.73
222.56
222.387
222.222
222.072
221.941
221.852
221.818
221.83
221.93
222.157
222.462
222.757
222.984
223.14
223.251
223.339
223.417
223.487
223.545
223.59
223.633
223.676
223.719
223.766
223.816
223.872
223.931
223.993
224.057
224.123
224.191
224.262
224.337
224.415
224.497
224.583
224.674
224.769
224.868
224.973
225.082
225.195
225.312
225.434
225.56
225.691
225.825
225.964
226.108
226.256
226.41
226.569
226.733
226.901
227.075
227.255
227.439
227.629
227.825
228.025
228.231
228.442
228.658
228.879
229.105
229.336
229.572
229.812
230.057
230.307
230.561
230.819
231.082
231.348
231.618
231.892
232.169
232.45
232.733
233.019
233.307
233.597
233.887
234.178
234.469
234.759
235.046
235.33
235.61
235.883
236.147
236.398
236.635
236.851
237.043
237.196
237.309
237.368
237.368
237.256
237.038
236.627
236.005
234.995
233.623
231.398
223.006
223.069
223.291
223.571
223.73
223.776
223.774
223.735
223.653
223.538
223.38
223.2
223.015
222.84
222.676
222.514
222.352
222.198
222.057
221.93
221.832
221.778
221.772
221.814
221.966
222.238
222.559
222.842
223.05
223.198
223.312
223.409
223.493
223.562
223.615
223.662
223.708
223.756
223.806
223.861
223.921
223.984
224.05
224.119
224.189
224.261
224.337
224.416
224.498
224.584
224.675
224.769
224.869
224.972
225.08
225.193
225.309
225.43
225.555
225.684
225.818
225.955
226.097
226.244
226.396
226.553
226.715
226.882
227.054
227.231
227.414
227.602
227.796
227.995
228.2
228.409
228.624
228.845
229.07
229.301
229.537
229.778
230.024
230.275
230.531
230.791
231.057
231.327
231.601
231.88
232.163
232.45
232.741
233.035
233.333
233.635
233.939
234.246
234.555
234.865
235.176
235.488
235.799
236.108
236.416
236.719
237.015
237.303
237.579
237.839
238.078
238.29
238.457
238.577
238.628
238.597
238.418
238.088
237.392
236.45
234.505
223.006
223.07
223.295
223.581
223.751
223.801
223.802
223.769
223.681
223.546
223.366
223.156
222.953
222.774
222.613
222.459
222.31
222.169
222.039
221.919
221.82
221.756
221.737
221.752
221.839
222.053
222.365
222.684
222.942
223.132
223.276
223.394
223.493
223.574
223.637
223.69
223.74
223.792
223.847
223.906
223.97
224.037
224.107
224.179
224.253
224.33
224.409
224.492
224.578
224.668
224.763
224.861
224.964
225.071
225.183
225.298
225.418
225.542
225.67
225.802
225.939
226.08
226.224
226.374
226.529
226.689
226.854
227.024
227.199
227.38
227.566
227.757
227.954
228.157
228.365
228.578
228.797
229.021
229.251
229.486
229.726
229.972
230.223
230.479
230.74
231.007
231.278
231.555
231.836
232.122
232.413
232.708
233.008
233.313
233.621
233.934
234.25
234.571
234.894
235.221
235.55
235.881
236.214
236.549
236.884
237.218
237.551
237.88
238.203
238.519
238.822
239.11
239.373
239.606
239.786
239.908
239.958
239.892
239.552
239.048
237.646
223.006
223.076
223.311
223.601
223.774
223.828
223.827
223.791
223.689
223.533
223.318
223.087
222.877
222.7
222.545
222.401
222.263
222.136
222.018
221.907
221.811
221.743
221.715
221.715
221.764
221.917
222.194
222.526
222.824
223.057
223.234
223.376
223.491
223.584
223.657
223.716
223.771
223.828
223.887
223.951
224.018
224.089
224.163
224.238
224.316
224.396
224.479
224.566
224.656
224.75
224.848
224.95
225.057
225.167
225.282
225.401
225.524
225.65
225.781
225.916
226.055
226.199
226.346
226.498
226.656
226.819
226.987
227.16
227.338
227.521
227.71
227.904
228.105
228.31
228.522
228.739
228.961
229.189
229.422
229.661
229.906
230.155
230.411
230.672
230.938
231.209
231.486
231.768
232.056
232.348
232.646
232.949
233.256
233.569
233.887
234.209
234.536
234.868
235.204
235.544
235.888
236.236
236.587
236.941
237.299
237.658
238.02
238.382
238.743
239.102
239.456
239.804
240.141
240.462
240.755
241.003
241.201
241.34
241.383
241.187
240.538
223.008
223.088
223.336
223.63
223.798
223.854
223.847
223.799
223.679
223.484
223.241
222.999
222.791
222.621
222.475
222.34
222.214
222.1
221.994
221.893
221.803
221.735
221.7
221.693
221.715
221.825
222.058
222.381
222.706
222.977
223.189
223.356
223.488
223.593
223.676
223.742
223.802
223.863
223.927
223.995
224.066
224.14
224.217
224.296
224.377
224.46
224.547
224.637
224.73
224.828
224.929
225.035
225.145
225.259
225.377
225.499
225.624
225.754
225.887
226.025
226.166
226.312
226.462
226.617
226.778
226.943
227.114
227.289
227.47
227.656
227.848
228.045
228.248
228.457
228.672
228.892
229.117
229.348
229.585
229.828
230.076
230.33
230.59
230.855
231.125
231.402
231.683
231.971
232.264
232.562
232.866
233.175
233.49
233.81
234.136
234.467
234.803
235.144
235.491
235.842
236.199
236.56
236.927
237.297
237.673
238.052
238.436
238.823
239.214
239.606
239.998
240.391
240.779
241.163
241.533
241.883
242.208
242.494
242.769
242.875
242.838
223.011
223.106
223.373
223.669
223.823
223.872
223.858
223.792
223.634
223.402
223.14
222.898
222.699
222.54
222.404
222.28
222.165
222.063
221.968
221.877
221.794
221.727
221.689
221.678
221.684
221.762
221.958
222.257
222.594
222.898
223.144
223.335
223.485
223.602
223.693
223.766
223.832
223.897
223.966
224.038
224.113
224.19
224.27
224.352
224.436
224.523
224.613
224.706
224.802
224.903
225.008
225.117
225.23
225.347
225.468
225.592
225.721
225.852
225.988
226.128
226.272
226.421
226.573
226.731
226.893
227.062
227.235
227.413
227.596
227.784
227.979
228.179
228.385
228.596
228.814
229.037
229.265
229.5
229.74
229.986
230.238
230.495
230.759
231.028
231.302
231.583
231.87
232.162
232.46
232.764
233.073
233.388
233.709
234.036
234.368
234.707
235.051
235.401
235.756
236.118
236.485
236.857
237.236
237.619
238.009
238.404
238.805
239.211
239.623
240.038
240.458
240.88
241.304
241.728
242.147
242.559
242.954
243.344
243.705
243.97
244.236
223.016
223.133
223.42
223.711
223.847
223.878
223.855
223.756
223.558
223.295
223.026
222.792
222.607
222.459
222.334
222.221
222.116
222.025
221.94
221.859
221.783
221.719
221.678
221.665
221.665
221.718
221.884
222.157
222.495
222.825
223.101
223.317
223.484
223.612
223.711
223.79
223.861
223.931
224.004
224.08
224.158
224.239
224.321
224.406
224.493
224.583
224.675
224.772
224.872
224.976
225.084
225.196
225.312
225.431
225.555
225.682