/*--------------------------------*- C++ -*----------------------------------*\
| =========                 |                                                 |
| \\      /  F ield         | OpenFOAM: The Open Source CFD Toolbox           |
|  \\    /   O peration     | Version:  2412                                  |
|   \\  /    A nd           | Website:  www.openfoam.com                      |
|    \\/     M anipulation  |                                                 |
\*---------------------------------------------------------------------------*/
FoamFile
{
    version     2.0;
    format      ascii;
    arch        "LSB;label=32;scalar=64";
    class       volScalarField;
    location    "0.069";
    object      rho;
}
// * * * * * * * * * * * * * * * * * * * * * * * * * * * * * * * * * * * * * //

dimensions      [1 -3 0 0 0 0 0];

internalField   nonuniform List<scalar> 
9771
(
0.0272343
0.0378333
0.0394341
0.039732
0.0399034
0.0400297
0.040145
0.0402353
0.0403071
0.0403604
0.0271961
0.0377725
0.039425
0.0397286
0.0399007
0.0400275
0.0401433
0.0402339
0.0403059
0.0403593
0.0271567
0.037708
0.0394163
0.0397253
0.039898
0.0400254
0.0401416
0.0402325
0.0403047
0.0403582
0.02712
0.0376416
0.0394081
0.0397221
0.0398953
0.0400233
0.04014
0.0402311
0.0403034
0.0403571
0.027089
0.0375695
0.0394002
0.0397188
0.0398926
0.0400212
0.0401383
0.0402297
0.0403022
0.040356
0.0270607
0.0374931
0.0393928
0.0397155
0.0398899
0.040019
0.0401366
0.0402282
0.040301
0.0403549
0.0270357
0.0374101
0.0393859
0.0397122
0.0398872
0.0400169
0.0401349
0.0402268
0.0402997
0.0403537
0.0403962
0.0404326
0.040471
0.0405214
0.040596
0.0407047
0.0408452
0.0410005
0.0411518
0.0412901
0.0414155
0.0415313
0.041641
0.0417464
0.0418489
0.041949
0.0420466
0.042141
0.0422313
0.0423171
0.0423984
0.0424756
0.0270089
0.0373198
0.0393797
0.0397088
0.0398844
0.0400147
0.0401331
0.0402253
0.0402984
0.0403526
0.0403951
0.0404317
0.0404703
0.0405211
0.0405963
0.0407058
0.040847
0.0410024
0.0411535
0.0412914
0.0414164
0.0415318
0.041641
0.0417461
0.0418482
0.0419481
0.0420455
0.0421397
0.0422297
0.0423153
0.0423965
0.0424734
0.0425463
0.0426153
0.0426805
0.0427424
0.0428014
0.0428579
0.026988
0.0372225
0.0393742
0.0397055
0.0398817
0.0400125
0.0401314
0.0402238
0.0402971
0.0403514
0.0403941
0.0404308
0.0404696
0.0405209
0.0405967
0.040707
0.0408487
0.0410043
0.0411553
0.0412928
0.0414172
0.0415322
0.041641
0.0417457
0.0418476
0.0419472
0.0420443
0.0421383
0.0422281
0.0423135
0.0423945
0.0424712
0.042544
0.0426127
0.0426778
0.0427395
0.0427983
0.0428546
0.0429086
0.026963
0.0371215
0.0393699
0.0397022
0.0398789
0.0400103
0.0401296
0.0402223
0.0402958
0.0403502
0.040393
0.0404298
0.0404688
0.0405208
0.0405971
0.0407082
0.0408505
0.0410063
0.041157
0.0412941
0.0414181
0.0415326
0.0416411
0.0417454
0.0418469
0.0419462
0.0420431
0.0421368
0.0422265
0.0423116
0.0423924
0.042469
0.0425415
0.0426101
0.042675
0.0427364
0.042795
0.0428511
0.042905
0.0269524
0.0370435
0.0393677
0.0396988
0.039876
0.040008
0.0401278
0.0402207
0.0402944
0.040349
0.0403919
0.0404288
0.0404681
0.0405208
0.0405976
0.0407094
0.0408524
0.0410083
0.0411588
0.0412955
0.041419
0.0415331
0.0416411
0.0417451
0.0418463
0.0419454
0.042042
0.0421354
0.0422248
0.0423098
0.0423904
0.0424668
0.0425391
0.0426075
0.0426721
0.0427334
0.0427918
0.0428477
0.0429013
0.0240074
0.036933
0.0393913
0.039611
0.0397991
0.0399526
0.0400856
0.0401869
0.0402661
0.0403251
0.040372
0.0404132
0.0404588
0.0405207
0.0406096
0.0407326
0.0408817
0.0410375
0.0411836
0.0413143
0.0414318
0.0415403
0.0416434
0.041743
0.0418405
0.0419362
0.0420298
0.0421205
0.0422074
0.0422901
0.0423686
0.042443
0.0425133
0.0425797
0.0426424
0.0427017
0.0427581
0.0428119
0.0428633
0.0429125
0.0429598
0.0430055
0.0430497
0.0430925
0.0431339
0.043174
0.043213
0.043251
0.0432883
0.0433248
0.0433607
0.0433961
0.0434309
0.0434653
0.0434993
0.043533
0.0435662
0.0435989
0.0436309
0.0436622
0.0436926
0.0437221
0.0437507
0.0437782
0.0438045
0.0438297
0.0438536
0.0438761
0.0438973
0.0439172
0.0439356
0.0439526
0.0439682
0.0439823
0.043995
0.0440063
0.0440162
0.0440247
0.0440318
0.027198
0.0384301
0.0393948
0.0394686
0.0396614
0.0398524
0.0400077
0.0401234
0.0402126
0.04028
0.0403344
0.0403844
0.0404429
0.0405239
0.0406363
0.0407811
0.0409414
0.0410963
0.0412334
0.0413521
0.0414577
0.0415554
0.0416489
0.0417404
0.0418305
0.0419198
0.0420076
0.0420929
0.0421748
0.042253
0.0423273
0.0423977
0.0424641
0.0425266
0.0425854
0.0426408
0.0426932
0.0427427
0.0427896
0.0428341
0.0428764
0.0429166
0.0429548
0.0429909
0.0430252
0.0430577
0.0430888
0.0431185
0.0431468
0.0431736
0.0431988
0.0432225
0.0432448
0.0432655
0.0432848
0.0433026
0.0433187
0.0433334
0.0433466
0.0433582
0.0433684
0.0433772
0.0433848
0.0433911
0.0433959
0.0433994
0.0434017
0.043403
0.0434033
0.0434025
0.0434006
0.0433979
0.0433943
0.0433899
0.0433847
0.0433787
0.043372
0.0433648
0.0433569
0.0297846
0.0387845
0.0393651
0.0393615
0.0395528
0.0397575
0.0399256
0.0400533
0.0401523
0.0402296
0.0402938
0.0403569
0.040435
0.040541
0.0406824
0.0408471
0.0410122
0.0411596
0.0412839
0.0413892
0.0414826
0.0415698
0.0416539
0.0417368
0.0418194
0.0419018
0.0419833
0.0420626
0.0421391
0.0422123
0.0422819
0.0423476
0.0424095
0.0424676
0.0425221
0.0425732
0.0426211
0.0426661
0.0427082
0.0427477
0.0427846
0.0428189
0.0428506
0.0428799
0.0429071
0.0429326
0.0429563
0.0429784
0.0429989
0.0430177
0.043035
0.0430506
0.0430646
0.043077
0.0430877
0.0430966
0.0431037
0.0431091
0.0431131
0.0431157
0.0431172
0.0431174
0.0431166
0.0431149
0.0431122
0.0431086
0.0431044
0.0430996
0.0430945
0.0430888
0.0430827
0.0430763
0.0430696
0.0430626
0.0430554
0.0430481
0.0430406
0.043033
0.0430255
0.0313289
0.0383908
0.0391391
0.0392307
0.0394713
0.0396737
0.0398471
0.0399841
0.0400912
0.0401782
0.0402534
0.0403333
0.0404363
0.0405725
0.04074
0.0409168
0.0410795
0.0412162
0.0413278
0.0414216
0.041505
0.0415834
0.0416598
0.0417353
0.0418108
0.0418859
0.0419603
0.042033
0.0421033
0.0421707
0.0422347
0.0422951
0.0423518
0.042405
0.0424549
0.0425014
0.0425448
0.0425851
0.0426226
0.0426573
0.0426891
0.0427179
0.042744
0.0427678
0.0427897
0.0428098
0.0428278
0.0428436
0.0428574
0.0428693
0.0428795
0.0428879
0.042895
0.042901
0.0429058
0.0429093
0.0429115
0.0429127
0.0429129
0.0429121
0.0429109
0.0429088
0.0429061
0.0429028
0.042899
0.0428948
0.0428902
0.0428854
0.0428803
0.042875
0.0428697
0.0428641
0.0428585
0.0428527
0.042847
0.0428412
0.0428355
0.0428298
0.0428241
0.0329028
0.0381552
0.0389428
0.0390874
0.0393756
0.039588
0.0397708
0.0399163
0.0400311
0.0401277
0.0402163
0.0403177
0.0404494
0.0406178
0.0408062
0.0409872
0.0411422
0.041267
0.0413668
0.0414506
0.0415257
0.0415969
0.0416664
0.0417351
0.0418032
0.0418709
0.0419379
0.0420035
0.0420671
0.0421281
0.0421862
0.0422411
0.0422927
0.0423411
0.0423863
0.0424283
0.0424673
0.0425034
0.0425366
0.0425671
0.0425945
0.0426192
0.0426414
0.0426615
0.0426799
0.0426964
0.0427106
0.0427226
0.0427327
0.0427412
0.0427481
0.0427536
0.0427579
0.0427613
0.0427639
0.0427656
0.0427665
0.0427666
0.042766
0.0427649
0.0427633
0.0427612
0.0427587
0.0427558
0.0427526
0.0427491
0.0427453
0.0427415
0.0427375
0.0427333
0.0427293
0.0427251
0.0427209
0.0427167
0.0427125
0.0427084
0.0427042
0.0427004
0.0426964
0.0342081
0.0379344
0.0387073
0.0389619
0.0393
0.0395126
0.0397003
0.039852
0.0399737
0.0400802
0.040185
0.0403132
0.0404777
0.0406744
0.0408754
0.0410536
0.0411977
0.0413106
0.0414003
0.0414761
0.0415448
0.0416101
0.0416736
0.0417358
0.0417972
0.0418577
0.0419174
0.0419758
0.0420326
0.0420871
0.0421391
0.0421883
0.0422348
0.0422784
0.0423191
0.042357
0.0423919
0.0424241
0.0424536
0.0424805
0.0425047
0.0425263
0.0425457
0.0425632
0.042579
0.042593
0.0426051
0.042615
0.0426232
0.04263
0.0426355
0.0426399
0.0426434
0.0426461
0.0426483
0.0426498
0.0426508
0.0426511
0.0426507
0.0426498
0.0426486
0.0426469
0.0426449
0.0426426
0.0426402
0.0426374
0.0426344
0.0426316
0.0426287
0.0426256
0.0426225
0.0426195
0.0426164
0.0426134
0.0426104
0.0426075
0.0426046
0.0426018
0.0425991
0.0352964
0.0378438
0.0384696
0.0388964
0.0392309
0.0394418
0.0396357
0.0397925
0.0399203
0.0400373
0.0401617
0.0403209
0.0405198
0.0407386
0.0409437
0.0411138
0.0412461
0.0413481
0.0414297
0.0414994
0.0415629
0.0416232
0.0416813
0.0417376
0.0417925
0.0418463
0.041899
0.0419504
0.0420003
0.0420484
0.0420944
0.0421383
0.0421798
0.0422189
0.0422555
0.0422896
0.0423211
0.04235
0.0423764
0.0424007
0.0424226
0.042442
0.0424591
0.0424742
0.0424879
0.0425002
0.0425112
0.0425206
0.0425285
0.042535
0.0425404
0.042545
0.0425488
0.0425521
0.0425548
0.0425569
0.0425583
0.0425591
0.0425595
0.0425593
0.0425586
0.0425578
0.0425567
0.0425553
0.0425537
0.0425521
0.0425503
0.0425488
0.0425469
0.0425451
0.0425433
0.0425415
0.0425397
0.0425379
0.0425362
0.0425345
0.0425329
0.0425314
0.0425299
0.036146
0.0378579
0.0383134
0.038871
0.0391544
0.0393799
0.0395812
0.0397393
0.0398719
0.0400006
0.0401496
0.0403427
0.0405727
0.0408055
0.0410076
0.0411668
0.0412877
0.0413807
0.0414561
0.0415212
0.0415807
0.0416365
0.0416896
0.0417402
0.0417891
0.0418365
0.0418826
0.0419275
0.041971
0.0420131
0.0420536
0.0420924
0.0421293
0.0421641
0.042197
0.0422279
0.0422564
0.0422825
0.0423066
0.0423288
0.0423491
0.0423672
0.0423829
0.0423967
0.0424091
0.0424205
0.0424307
0.0424396
0.0424473
0.042454
0.0424599
0.0424652
0.04247
0.042474
0.0424773
0.0424799
0.0424817
0.042483
0.042484
0.0424845
0.0424848
0.0424854
0.0424858
0.0424861
0.042486
0.0424861
0.0424857
0.0424855
0.0424849
0.0424844
0.0424838
0.0424831
0.0424826
0.042482
0.0424814
0.0424808
0.0424802
0.0424795
0.0424787
0.0368072
0.0379356
0.0382769
0.0388516
0.0391062
0.0393386
0.0395362
0.0396926
0.0398298
0.039972
0.0401499
0.0403781
0.0406322
0.04087
0.0410642
0.0412121
0.0413233
0.0414097
0.0414807
0.0415425
0.0415985
0.0416502
0.0416985
0.0417439
0.0417872
0.0418286
0.0418687
0.0419076
0.0419452
0.0419817
0.0420171
0.0420512
0.0420839
0.0421151
0.0421447
0.0421726
0.0421987
0.0422227
0.0422447
0.0422651
0.0422841
0.0423012
0.0423162
0.0423295
0.0423415
0.0423527
0.0423629
0.0423722
0.0423803
0.0423876
0.042394
0.0423999
0.0424051
0.0424096
0.0424135
0.0424169
0.0424198
0.0424224
0.0424247
0.0424267
0.0424286
0.0424304
0.0424319
0.042433
0.0424339
0.0424347
0.0424351
0.0424357
0.0424361
0.0424365
0.0424368
0.0424371
0.0424373
0.0424375
0.0424374
0.0424374
0.0424372
0.042437
0.0424367
0.0373201
0.0380354
0.0382942
0.0388521
0.0390818
0.0393153
0.039502
0.0396546
0.0397966
0.0399553
0.040164
0.0404246
0.0406934
0.0409284
0.0411121
0.0412497
0.0413536
0.0414356
0.0415039
0.0415634
0.0416165
0.0416645
0.0417084
0.0417488
0.0417867
0.0418226
0.0418572
0.0418905
0.0419229
0.0419545
0.0419854
0.0420153
0.0420444
0.0420723
0.042099
0.0421244
0.0421485
0.0421707
0.0421911
0.0422099
0.0422276
0.042244
0.0422587
0.0422718
0.0422838
0.0422949
0.0423053
0.0423149
0.0423237
0.0423317
0.042339
0.0423456
0.0423514
0.0423566
0.0423611
0.0423653
0.0423692
0.0423729
0.0423763
0.0423793
0.0423822
0.0423846
0.0423867
0.0423885
0.04239
0.0423915
0.0423929
0.0423943
0.0423955
0.0423966
0.0423975
0.0423983
0.0423991
0.0423997
0.0424003
0.0424009
0.0424013
0.0424016
0.0424018
0.0377094
0.0381544
0.0383603
0.0389026
0.0390857
0.0393056
0.0394779
0.0396268
0.0397756
0.0399528
0.0401946
0.0404792
0.0407525
0.0409787
0.0411511
0.04128
0.0413789
0.0414585
0.0415256
0.0415837
0.0416345
0.0416793
0.0417191
0.041755
0.041788
0.041819
0.0418484
0.0418769
0.0419046
0.0419318
0.0419586
0.0419849
0.0420107
0.0420358
0.0420599
0.0420832
0.0421053
0.0421261
0.0421453
0.042163
0.0421796
0.0421952
0.0422097
0.0422229
0.0422349
0.0422462
0.0422567
0.0422664
0.0422756
0.0422841
0.042292
0.0422992
0.0423057
0.0423115
0.0423169
0.0423219
0.0423267
0.0423312
0.0423353
0.0423391
0.0423425
0.0423455
0.0423483
0.0423507
0.0423529
0.042355
0.0423571
0.042359
0.0423607
0.0423624
0.0423638
0.0423652
0.0423665
0.0423677
0.0423688
0.0423698
0.0423706
0.0423714
0.042372
0.0380114
0.0382692
0.0384293
0.0389575
0.039104
0.0393082
0.039466
0.0396116
0.0397684
0.0399671
0.0402405
0.0405391
0.0408073
0.0410208
0.0411818
0.0413039
0.0413997
0.0414785
0.0415454
0.0416028
0.0416521
0.0416942
0.0417307
0.0417627
0.0417914
0.0418178
0.0418429
0.041867
0.0418905
0.0419138
0.041937
0.04196
0.0419829
0.0420054
0.0420274
0.0420487
0.0420691
0.0420886
0.0421068
0.0421236
0.0421394
0.0421544
0.0421686
0.0421818
0.042194
0.0422054
0.042216
0.042226
0.0422353
0.0422441
0.0422523
0.0422599
0.0422668
0.0422733
0.0422793
0.042285
0.0422904
0.0422954
0.0423001
0.0423044
0.0423083
0.0423119
0.0423152
0.0423182
0.0423211
0.0423237
0.0423262
0.0423284
0.0423306
0.0423325
0.0423344
0.0423361
0.0423378
0.0423393
0.0423407
0.042342
0.0423432
0.0423442
0.0423453
0.0382442
0.0383787
0.038511
0.0390266
0.0391383
0.0393244
0.0394646
0.0396075
0.0397733
0.0400018
0.0402997
0.0406012
0.0408572
0.0410558
0.0412061
0.0413224
0.0414163
0.0414953
0.0415627
0.0416201
0.0416683
0.0417086
0.0417425
0.0417713
0.0417965
0.0418191
0.0418405
0.041861
0.041881
0.0419008
0.0419207
0.0419408
0.041961
0.0419812
0.0420011
0.0420205
0.0420392
0.0420573
0.0420746
0.0420908
0.0421061
0.0421207
0.0421346
0.0421478
0.0421601
0.0421716
0.0421824
0.0421925
0.0422021
0.0422111
0.0422195
0.0422274
0.0422347
0.0422415
0.0422479
0.042254
0.0422598
0.0422651
0.04227
0.0422746
0.0422789
0.0422828
0.0422865
0.0422899
0.042293
0.0422959
0.0422986
0.0423011
0.0423034
0.0423055
0.0423075
0.0423093
0.042311
0.0423125
0.0423139
0.0423152
0.0423162
0.0423174
0.0423184
0.0384247
0.038474
0.038594
0.0390965
0.039179
0.0393467
0.0394709
0.0396131
0.0397913
0.040055
0.0403691
0.0406632
0.0409022
0.0410855
0.0412257
0.0413373
0.0414299
0.0415092
0.0415772
0.0416349
0.0416827
0.0417219
0.0417539
0.0417804
0.0418029
0.0418228
0.041841
0.0418587
0.041876
0.0418931
0.0419103
0.0419276
0.0419452
0.0419629
0.0419807
0.0419982
0.0420153
0.0420319
0.0420481
0.0420638
0.0420786
0.0420928
0.0421065
0.0421196
0.042132
0.0421436
0.0421546
0.0421649
0.0421747
0.0421839
0.0421925
0.0422006
0.0422081
0.0422152
0.0422219
0.0422282
0.0422341
0.0422395
0.0422445
0.0422492
0.0422536
0.0422577
0.0422614
0.0422649
0.0422681
0.042271
0.0422737
0.0422763
0.0422786
0.0422808
0.0422829
0.0422849
0.0422866
0.0422884
0.0422899
0.0422914
0.0422928
0.0422942
0.0422955
0.0385686
0.0385609
0.0386753
0.0391607
0.0392281
0.0393782
0.039487
0.0396311
0.0398257
0.0401224
0.0404437
0.0407233
0.0409432
0.0411115
0.0412427
0.04135
0.0414415
0.0415209
0.0415893
0.0416471
0.0416948
0.0417333
0.0417642
0.0417893
0.0418102
0.0418282
0.0418445
0.0418598
0.041875
0.04189
0.041905
0.0419201
0.0419354
0.0419507
0.0419662
0.0419817
0.0419971
0.0420122
0.0420272
0.042042
0.0420563
0.0420701
0.0420835
0.0420964
0.0421087
0.0421204
0.0421315
0.0421421
0.042152
0.0421613
0.0421701
0.0421783
0.042186
0.0421932
0.0422
0.0422063
0.0422121
0.0422176
0.0422226
0.0422273
0.0422317
0.0422357
0.0422394
0.0422428
0.0422459
0.0422489
0.0422516
0.0422542
0.0422566
0.0422589
0.042261
0.0422629
0.0422647
0.0422663
0.0422676
0.0422689
0.04227
0.0422711
0.0422724
0.0386818
0.0386419
0.0387588
0.0392103
0.0392784
0.0394114
0.039509
0.0396605
0.0398785
0.0401991
0.0405183
0.04078
0.0409807
0.0411351
0.0412583
0.0413618
0.041452
0.0415309
0.0415992
0.0416569
0.0417044
0.0417427
0.0417732
0.0417977
0.0418177
0.0418349
0.0418501
0.0418641
0.0418775
0.0418907
0.041904
0.0419173
0.0419306
0.0419441
0.0419576
0.0419711
0.0419846
0.0419981
0.0420117
0.0420253
0.0420388
0.042052
0.042065
0.0420776
0.0420897
0.0421013
0.0421123
0.0421229
0.0421328
0.0421422
0.042151
0.0421592
0.042167
0.0421742
0.0421808
0.0421871
0.0421928
0.0421982
0.0422032
0.0422077
0.042212
0.0422159
0.0422195
0.0422228
0.0422258
0.0422287
0.0422313
0.0422337
0.042236
0.0422381
0.0422399
0.0422416
0.042243
0.0422443
0.0422455
0.0422467
0.0422479
0.0422493
0.0422507
0.0387781
0.0387239
0.0388427
0.0392328
0.0393297
0.0394416
0.039536
0.0397013
0.0399484
0.0402811
0.0405893
0.040832
0.0410153
0.0411574
0.0412736
0.0413736
0.0414621
0.0415401
0.0416076
0.0416648
0.041712
0.0417502
0.0417807
0.0418052
0.0418252
0.0418422
0.0418571
0.0418707
0.0418832
0.0418951
0.0419066
0.0419182
0.04193
0.0419419
0.0419537
0.0419656
0.0419776
0.0419896
0.0420017
0.0420139
0.0420263
0.0420386
0.0420509
0.0420629
0.0420746
0.0420858
0.0420965
0.0421068
0.0421165
0.0421256
0.0421342
0.0421423
0.0421499
0.0421569
0.0421634
0.0421695
0.0421751
0.0421804
0.0421852
0.0421896
0.0421936
0.0421974
0.0422008
0.042204
0.0422069
0.0422096
0.042212
0.0422142
0.0422161
0.0422179
0.0422195
0.042221
0.0422224
0.0422236
0.0422249
0.0422262
0.0422276
0.0422291
0.0422307
0.0388621
0.038805
0.0389353
0.0392343
0.0393736
0.0394646
0.0395667
0.0397526
0.040031
0.0403649
0.0406554
0.0408788
0.0410471
0.0411789
0.0412891
0.0413859
0.0414724
0.0415488
0.0416149
0.041671
0.0417177
0.0417559
0.0417868
0.0418119
0.0418325
0.04185
0.0418651
0.0418787
0.041891
0.0419023
0.0419129
0.0419231
0.0419331
0.0419432
0.0419537
0.0419642
0.041975
0.0419859
0.0419969
0.042008
0.0420191
0.0420303
0.0420414
0.0420525
0.0420634
0.0420739
0.042084
0.0420937
0.0421028
0.0421115
0.0421197
0.0421273
0.0421345
0.0421412
0.0421474
0.0421531
0.0421585
0.0421634
0.0421679
0.0421721
0.042176
0.0421795
0.0421828
0.0421858
0.0421885
0.042191
0.0421933
0.0421953
0.0421972
0.0421988
0.0422004
0.0422018
0.0422032
0.0422045
0.0422059
0.0422073
0.0422088
0.0422101
0.0422115
0.0389356
0.0388831
0.0390268
0.039243
0.0394027
0.03948
0.0396019
0.0398145
0.0401212
0.0404475
0.0407162
0.0409207
0.0410762
0.0411997
0.041305
0.0413988
0.041483
0.0415572
0.0416215
0.0416763
0.0417223
0.0417605
0.0417921
0.041818
0.0418396
0.041858
0.0418738
0.0418878
0.0419002
0.0419113
0.0419214
0.0419309
0.0419399
0.0419486
0.0419574
0.0419665
0.041976
0.0419859
0.041996
0.0420062
0.0420163
0.0420265
0.0420366
0.0420466
0.0420564
0.0420659
0.042075
0.0420837
0.042092
0.0420999
0.0421073
0.0421144
0.0421209
0.042127
0.0421327
0.0421379
0.0421428
0.0421473
0.0421514
0.0421552
0.0421587
0.0421619
0.0421649
0.0421676
0.0421701
0.0421724
0.0421745
0.0421765
0.0421782
0.0421798
0.0421813
0.0421827
0.0421841
0.0421855
0.042187
0.0421883
0.0421898
0.0421909
0.042192
0.0390006
0.0389521
0.0391061
0.0392559
0.0394289
0.0394986
0.0396461
0.0398869
0.0402142
0.0405266
0.040772
0.0409584
0.0411027
0.0412196
0.0413209
0.0414118
0.0414935
0.0415654
0.0416276
0.0416809
0.0417262
0.0417645
0.0417968
0.0418239
0.0418468
0.0418663
0.041883
0.0418976
0.0419103
0.0419214
0.0419314
0.0419404
0.0419489
0.041957
0.0419649
0.0419728
0.041981
0.0419895
0.0419983
0.0420075
0.0420168
0.0420261
0.0420353
0.0420442
0.0420529
0.0420612
0.0420693
0.0420769
0.0420841
0.042091
0.0420974
0.0421035
0.0421092
0.0421145
0.0421194
0.0421239
0.0421282
0.0421321
0.0421357
0.0421391
0.0421422
0.042145
0.0421477
0.0421501
0.0421523
0.0421544
0.0421563
0.0421581
0.0421597
0.0421611
0.0421625
0.0421639
0.0421653
0.0421668
0.0421682
0.0421696
0.0421707
0.0421714
0.0421712
0.0390574
0.0390161
0.0391726
0.0392715
0.0394548
0.0395245
0.0397016
0.0399689
0.0403065
0.0406007
0.0408234
0.0409929
0.041127
0.0412384
0.0413364
0.0414246
0.0415037
0.0415732
0.0416334
0.0416853
0.04173
0.0417686
0.0418017
0.0418301
0.0418543
0.0418749
0.0418927
0.0419079
0.0419211
0.0419324
0.0419424
0.0419512
0.0419594
0.0419672
0.0419747
0.0419821
0.0419895
0.041997
0.0420047
0.0420125
0.0420205
0.0420284
0.0420363
0.0420441
0.0420517
0.0420589
0.0420658
0.0420723
0.0420784
0.0420841
0.0420894
0.0420944
0.0420991
0.0421035
0.0421075
0.0421113
0.0421148
0.042118
0.042121
0.0421238
0.0421264
0.0421289
0.0421311
0.0421332
0.0421352
0.042137
0.0421387
0.0421403
0.0421418
0.0421432
0.0421445
0.0421459
0.0421473
0.0421488
0.0421503
0.0421515
0.0421519
0.0421513
0.0421487
0.0391081
0.0390741
0.0392261
0.0392878
0.0394803
0.0395592
0.0397693
0.0400588
0.0403958
0.0406689
0.040871
0.0410252
0.0411498
0.0412561
0.0413511
0.0414366
0.0415131
0.0415803
0.0416389
0.0416898
0.0417342
0.0417731
0.0418072
0.0418368
0.0418623
0.0418842
0.0419029
0.0419188
0.0419324
0.041944
0.0419541
0.041963
0.0419711
0.0419788
0.0419861
0.0419932
0.0420002
0.0420071
0.0420139
0.0420207
0.0420273
0.0420338
0.0420401
0.0420463
0.0420523
0.0420581
0.0420636
0.0420688
0.0420736
0.0420782
0.0420824
0.0420864
0.04209
0.0420935
0.0420967
0.0420996
0.0421024
0.0421049
0.0421073
0.0421096
0.0421117
0.0421137
0.0421155
0.0421172
0.0421188
0.0421204
0.0421218
0.0421232
0.0421245
0.0421258
0.0421271
0.0421285
0.04213
0.0421311
0.0421327
0.042133
0.0421322
0.042129
0.0421219
0.0391528
0.0391245
0.0392694
0.0393063
0.0395014
0.0396052
0.0398509
0.0401552
0.040481
0.0407314
0.0409151
0.0410559
0.0411716
0.041273
0.0413647
0.0414475
0.0415214
0.0415867
0.0416441
0.0416944
0.041739
0.0417785
0.0418137
0.0418445
0.0418712
0.0418942
0.0419137
0.0419302
0.0419442
0.0419561
0.0419664
0.0419755
0.0419837
0.0419914
0.0419987
0.0420057
0.0420124
0.0420188
0.0420249
0.0420307
0.0420362
0.0420413
0.0420462
0.0420506
0.0420548
0.0420588
0.0420626
0.0420662
0.0420696
0.0420728
0.0420758
0.0420787
0.0420814
0.0420839
0.0420862
0.0420884
0.0420904
0.0420924
0.0420942
0.042096
0.0420977
0.0420992
0.0421007
0.0421021
0.0421034
0.0421047
0.0421058
0.042107
0.0421081
0.0421093
0.0421106
0.042112
0.0421128
0.0421144
0.0421147
0.0421139
0.0421106
0.0421031
0.0420864
0.0391926
0.0391683
0.039304
0.0393279
0.0395223
0.0396594
0.0399433
0.0402552
0.0405615
0.0407886
0.0409559
0.0410852
0.0411929
0.0412893
0.0413775
0.0414572
0.0415288
0.0415925
0.0416491
0.0416995
0.0417445
0.041785
0.0418213
0.0418533
0.0418811
0.041905
0.0419252
0.0419423
0.0419566
0.0419689
0.0419794
0.0419887
0.0419972
0.042005
0.0420123
0.0420191
0.0420255
0.0420313
0.0420367
0.0420415
0.0420458
0.0420497
0.042053
0.042056
0.0420585
0.0420608
0.0420629
0.0420649
0.0420668
0.0420685
0.0420702
0.0420718
0.0420734
0.042075
0.0420764
0.0420778
0.0420792
0.0420805
0.0420818
0.042083
0.0420842
0.0420853
0.0420864
0.0420875
0.0420885
0.0420895
0.0420904
0.0420914
0.0420925
0.0420936
0.0420948
0.0420955
0.0420969
0.042097
0.0420963
0.042093
0.0420855
0.0420687
0.0420399
0.039228
0.0392055
0.039332
0.0393549
0.0395486
0.0397187
0.0400405
0.0403552
0.0406375
0.0408412
0.0409936
0.0411131
0.0412137
0.0413051
0.0413896
0.0414663
0.0415355
0.0415979
0.0416542
0.041705
0.0417509
0.0417925
0.04183
0.0418631
0.0418919
0.0419166
0.0419374
0.041955
0.0419698
0.0419824
0.0419933
0.0420029
0.0420116
0.0420195
0.0420268
0.0420334
0.0420392
0.0420444
0.0420488
0.0420525
0.0420556
0.0420581
0.04206
0.0420615
0.0420626
0.0420635
0.0420641
0.0420646
0.0420651
0.0420655
0.0420659
0.0420663
0.0420668
0.0420674
0.042068
0.0420687
0.0420694
0.0420701
0.0420708
0.0420715
0.0420721
0.0420728
0.0420734
0.042074
0.0420746
0.0420752
0.0420759
0.0420767
0.0420776
0.0420786
0.0420794
0.0420802
0.0420802
0.0420795
0.0420766
0.0420695
0.0420547
0.0420269
0.0419797
0.0392594
0.0392368
0.0393558
0.0393877
0.0395825
0.0397829
0.0401388
0.0404521
0.0407086
0.0408897
0.0410282
0.0411394
0.0412338
0.0413206
0.0414013
0.041475
0.0415421
0.0416034
0.0416596
0.041711
0.041758
0.0418009
0.0418395
0.0418738
0.0419035
0.0419288
0.0419503
0.0419684
0.0419837
0.0419968
0.0420082
0.0420182
0.0420271
0.042035
0.0420421
0.0420482
0.0420534
0.0420576
0.0420609
0.0420634
0.0420651
0.0420662
0.0420667
0.0420668
0.0420666
0.0420662
0.0420657
0.042065
0.0420643
0.0420637
0.042063
0.0420625
0.042062
0.0420617
0.0420614
0.0420613
0.0420613
0.0420613
0.0420614
0.0420615
0.0420617
0.0420618
0.042062
0.0420621
0.0420623
0.0420627
0.0420631
0.0420637
0.0420643
0.042065
0.0420655
0.0420656
0.0420649
0.0420625
0.0420566
0.0420438
0.0420189
0.0419752
0.0419064
0.0392871
0.0392638
0.0393778
0.0394254
0.0396231
0.0398525
0.040235
0.0405434
0.0407747
0.0409348
0.0410603
0.0411638
0.0412532
0.041336
0.0414131
0.0414839
0.041549
0.0416094
0.0416655
0.0417177
0.0417658
0.0418099
0.0418496
0.0418848
0.0419153
0.0419415
0.0419636
0.0419824
0.0419984
0.0420121
0.0420241
0.0420345
0.0420435
0.0420513
0.0420579
0.0420633
0.0420676
0.0420707
0.0420727
0.0420738
0.0420742
0.0420739
0.0420732
0.0420721
0.0420708
0.0420693
0.0420677
0.042066
0.0420644
0.0420629
0.0420614
0.0420601
0.0420589
0.0420577
0.0420567
0.0420558
0.042055
0.0420544
0.0420538
0.0420533
0.0420529
0.0420525
0.0420522
0.042052
0.0420519
0.042052
0.0420522
0.0420526
0.042053
0.0420533
0.0420535
0.0420529
0.0420511
0.0420463
0.0420359
0.0420153
0.0419769
0.0419156
0.0418243
0.0393116
0.0392879
0.0394001
0.0394675
0.0396682
0.039929
0.0403268
0.0406269
0.0408357
0.0409769
0.0410901
0.0411868
0.0412719
0.0413512
0.0414251
0.0414933
0.0415568
0.0416162
0.0416724
0.0417251
0.0417741
0.0418191
0.0418597
0.0418958
0.0419272
0.0419542
0.0419772
0.0419969
0.0420137
0.0420283
0.0420408
0.0420516
0.0420607
0.0420682
0.0420741
0.0420786
0.0420817
0.0420834
0.042084
0.0420838
0.0420829
0.0420814
0.0420795
0.0420773
0.0420749
0.0420724
0.04207
0.0420676
0.0420652
0.042063
0.0420609
0.0420589
0.042057
0.0420553
0.0420536
0.0420521
0.0420507
0.0420494
0.0420482
0.0420471
0.042046
0.0420451
0.0420443
0.0420437
0.0420432
0.042043
0.0420429
0.0420431
0.0420431
0.0420431
0.0420427
0.0420415
0.0420383
0.0420304
0.0420143
0.0419836
0.0419317
0.0418513
0.0417425
0.0393335
0.0393106
0.0394236
0.0395126
0.0397176
0.0400126
0.0404118
0.0407013
0.0408912
0.0410165
0.0411184
0.0412085
0.0412899
0.0413664
0.0414376
0.0415037
0.0415656
0.0416243
0.0416802
0.0417332
0.0417828
0.0418284
0.0418697
0.0419064
0.0419387
0.0419666
0.0419907
0.0420115
0.0420294
0.0420448
0.042058
0.0420692
0.0420782
0.0420853
0.0420904
0.0420937
0.0420954
0.0420958
0.0420952
0.0420937
0.0420915
0.0420887
0.0420857
0.0420825
0.0420792
0.0420759
0.0420727
0.0420696
0.0420666
0.0420638
0.0420611
0.0420585
0.0420561
0.0420538
0.0420516
0.0420496
0.0420477
0.042046
0.0420443
0.0420427
0.0420412
0.0420399
0.0420386
0.0420375
0.0420367
0.0420361
0.0420356
0.0420353
0.0420348
0.0420345
0.0420335
0.0420312
0.0420261
0.0420149
0.0419919
0.0419505
0.0418851
0.0417889
0.041667
0.0393534
0.0393327
0.0394492
0.0395618
0.0397739
0.0400993
0.0404884
0.0407652
0.0409406
0.0410535
0.0411459
0.0412298
0.0413077
0.0413816
0.0414507
0.041515
0.0415757
0.0416335
0.041689
0.041742
0.0417916
0.0418374
0.0418791
0.0419164
0.0419494
0.0419784
0.0420037
0.0420257
0.0420449
0.0420614
0.0420753
0.0420867
0.0420957
0.0421022
0.0421063
0.0421083
0.0421088
0.042108
0.0421061
0.0421032
0.0420998
0.042096
0.042092
0.0420879
0.0420838
0.0420798
0.042076
0.0420722
0.0420686
0.0420651
0.0420618
0.0420587
0.0420557
0.042053
0.0420503
0.0420479
0.0420456
0.0420434
0.0420414
0.0420395
0.0420376
0.0420359
0.0420344
0.042033
0.0420319
0.042031
0.0420301
0.0420293
0.0420285
0.0420277
0.0420263
0.0420226
0.0420152
0.0420003
0.04197
0.0419186
0.0418409
0.0417326
0.0416026
0.0393722
0.0393551
0.0394776
0.0396162
0.0398443
0.0401806
0.0405529
0.0408178
0.0409836
0.0410881
0.041173
0.0412512
0.0413256
0.0413973
0.0414645
0.0415274
0.041587
0.041644
0.0416988
0.0417512
0.0418005
0.0418462
0.0418878
0.0419255
0.0419593
0.0419894
0.042016
0.0420395
0.04206
0.0420775
0.0420922
0.0421039
0.0421127
0.0421184
0.0421215
0.0421226
0.042122
0.04212
0.0421167
0.0421128
0.0421083
0.0421035
0.0420986
0.0420938
0.0420889
0.0420842
0.0420797
0.0420753
0.042071
0.0420669
0.0420631
0.0420594
0.0420559
0.0420527
0.0420496
0.0420467
0.0420441
0.0420415
0.0420391
0.0420369
0.0420347
0.0420327
0.0420309
0.0420292
0.0420279
0.0420268
0.0420257
0.0420245
0.0420231
0.0420219
0.0420202
0.0420153
0.0420046
0.0419852
0.0419483
0.0418868
0.0417988
0.0416822
0.0415483
0.0393906
0.0393784
0.0395085
0.0396717
0.03992
0.0402646
0.0406111
0.0408609
0.0410198
0.0411198
0.0411998
0.0412732
0.0413442
0.0414134
0.0414789
0.0415405
0.0415992
0.0416553
0.0417093
0.0417608
0.0418094
0.0418545
0.0418959
0.0419338
0.0419683
0.0419995
0.0420276
0.0420525
0.0420744
0.042093
0.0421083
0.0421202
0.0421285
0.0421336
0.0421359
0.0421362
0.0421347
0.0421314
0.0421272
0.0421223
0.0421169
0.0421113
0.0421057
0.0421001
0.0420945
0.0420891
0.0420838
0.0420787
0.0420738
0.0420692
0.0420647
0.0420606
0.0420566
0.0420529
0.0420494
0.0420461
0.042043
0.0420401
0.0420374
0.0420348
0.0420323
0.0420301
0.042028
0.0420261
0.0420245
0.0420232
0.042022
0.0420205
0.0420186
0.0420165
0.0420141
0.0420079
0.0419938
0.0419692
0.0419253
0.041854
0.0417567
0.0416341
0.0414991
0.0394092
0.0394028
0.0395411
0.0397262
0.0399981
0.0403502
0.0406676
0.0408979
0.0410502
0.0411484
0.0412263
0.0412961
0.0413638
0.0414303
0.0414938
0.0415542
0.041612
0.0416673
0.0417203
0.0417707
0.0418182
0.0418625
0.0419035
0.0419415
0.0419766
0.0420089
0.0420383
0.0420647
0.0420879
0.0421074
0.0421232
0.042135
0.042143
0.0421475
0.0421494
0.0421489
0.0421464
0.0421424
0.0421374
0.0421318
0.0421257
0.0421194
0.042113
0.0421066
0.0421004
0.0420942
0.0420882
0.0420825
0.042077
0.0420717
0.0420667
0.042062
0.0420576
0.0420534
0.0420494
0.0420457
0.0420422
0.0420389
0.0420358
0.0420328
0.04203
0.0420275
0.0420252
0.0420231
0.0420213
0.0420198
0.0420184
0.0420167
0.0420146
0.042012
0.0420083
0.0420004
0.041983
0.0419518
0.0418994
0.0418187
0.0417123
0.0415855
0.0414517
0.0394282
0.0394283
0.0395754
0.039782
0.0400786
0.040433
0.0407221
0.040931
0.0410759
0.0411741
0.041252
0.0413197
0.0413843
0.041448
0.0415093
0.0415683
0.0416252
0.0416796
0.0417315
0.0417806
0.0418268
0.0418702
0.0419107
0.0419487
0.0419844
0.0420177
0.0420484
0.042076
0.0421003
0.0421205
0.0421365
0.0421482
0.0421559
0.0421601
0.0421617
0.0421606
0.0421573
0.0421528
0.0421473
0.0421411
0.0421344
0.0421275
0.0421204
0.0421134
0.0421064
0.0420995
0.0420928
0.0420864
0.0420803
0.0420744
0.0420688
0.0420636
0.0420586
0.0420539
0.0420495
0.0420453
0.0420414
0.0420377
0.0420343
0.042031
0.0420279
0.0420251
0.0420226
0.0420203
0.0420184
0.0420167
0.0420151
0.0420131
0.0420108
0.0420079
0.0420027
0.0419923
0.0419703
0.0419318
0.0418696
0.0417792
0.0416649
0.0415356
0.0414058
0.0394477
0.0394546
0.0396126
0.0398404
0.0401605
0.0405107
0.0407741
0.0409617
0.0410987
0.0411975