/*--------------------------------*- C++ -*----------------------------------*\
| =========                 |                                                 |
| \\      /  F ield         | OpenFOAM: The Open Source CFD Toolbox           |
|  \\    /   O peration     | Version:  2412                                  |
|   \\  /    A nd           | Website:  www.openfoam.com                      |
|    \\/     M anipulation  |                                                 |
\*---------------------------------------------------------------------------*/
FoamFile
{
    version     2.0;
    format      ascii;
    arch        "LSB;label=32;scalar=64";
    class       volScalarField;
    location    "0.032";
    object      T;
}
// * * * * * * * * * * * * * * * * * * * * * * * * * * * * * * * * * * * * * //

dimensions      [0 0 0 1 0 0 0];

internalField   nonuniform List<scalar> 
9831
(
201.704
215.922
201.484
215.851
217.535
217.911
218.309
218.836
219.494
220.133
220.638
221.024
221.345
221.638
221.903
222.127
222.329
222.55
222.79
223.033
223.27
223.501
223.729
223.954
224.171
224.38
224.58
224.772
224.954
225.127
225.289
225.442
225.588
225.728
225.856
225.972
226.081
226.189
226.297
226.402
226.501
226.596
226.685
226.77
226.852
226.932
227.008
227.083
227.156
227.228
227.298
227.365
201.266
215.78
217.494
217.881
218.289
218.825
219.488
220.128
220.632
221.017
221.337
221.629
221.892
222.114
222.316
222.538
222.778
223.021
223.258
223.49
223.719
223.943
224.161
224.371
224.571
224.763
224.946
225.12
225.283
225.436
225.584
225.724
225.853
225.969
226.079
226.187
226.295
226.4
226.5
226.594
226.684
226.769
226.851
226.93
227.006
227.08
227.153
227.225
227.295
227.362
227.426
227.485
201.054
215.711
217.454
217.85
218.27
218.815
219.483
220.123
220.626
221.01
221.329
221.62
221.882
222.102
222.304
222.526
222.767
223.01
223.247
223.479
223.708
223.933
224.152
224.362
224.562
224.755
224.939
225.113
225.277
225.431
225.579
225.72
225.849
225.966
226.076
226.185
226.293
226.398
226.498
226.593
226.682
226.767
226.849
226.928
227.004
227.078
227.151
227.222
227.292
227.36
227.423
227.482
227.535
227.584
200.845
215.641
217.413
217.821
218.251
218.805
219.477
220.118
220.62
221.003
221.321
221.611
221.871
222.09
222.292
222.515
222.756
222.999
223.236
223.468
223.698
223.923
224.142
224.352
224.554
224.747
224.931
225.106
225.27
225.426
225.574
225.715
225.845
225.962
226.073
226.182
226.291
226.396
226.496
226.591
226.681
226.766
226.847
226.926
227.001
227.075
227.148
227.22
227.29
227.357
227.42
227.479
227.532
227.581
227.625
227.663
227.696
227.722
227.743
227.757
227.766
227.768
227.763
227.753
227.736
227.714
227.685
227.65
227.61
227.565
227.515
227.461
227.402
227.34
227.274
227.205
227.134
227.06
226.984
226.907
226.829
226.75
226.67
226.589
226.509
226.429
226.349
226.27
226.192
226.114
226.038
225.963
225.889
225.817
225.746
225.677
225.61
225.544
225.481
225.419
225.359
225.3
225.244
225.189
225.136
225.084
225.035
224.986
224.94
224.896
224.853
224.812
224.774
224.738
224.703
224.67
224.639
224.613
224.585
200.642
215.572
217.373
217.792
218.232
218.795
219.472
220.113
220.614
220.996
221.314
221.602
221.861
222.079
222.281
222.504
222.745
222.988
223.225
223.458
223.688
223.914
224.133
224.343
224.545
224.739
224.924
225.1
225.264
225.42
225.569
225.711
225.841
225.959
226.07
226.18
226.289
226.394
226.494
226.589
226.679
226.764
226.845
226.924
226.999
227.073
227.145
227.217
227.287
227.354
227.417
227.476
227.529
227.578
227.622
227.66
227.693
227.72
227.741
227.756
227.765
227.768
227.763
227.753
227.738
227.716
227.688
227.654
227.616
227.572
227.523
227.47
227.413
227.353
227.289
227.222
227.152
227.081
227.007
226.932
226.856
226.779
226.702
226.624
226.546
226.468
226.391
226.314
226.239
226.164
226.09
226.017
225.946
225.877
225.808
225.742
225.677
225.613
225.552
225.492
225.434
225.378
225.323
225.271
225.219
225.17
225.122
225.076
225.031
224.988
224.948
224.909
224.872
224.837
224.804
224.772
224.742
224.717
224.691
224.678
224.624
200.443
215.504
217.334
217.763
218.214
218.785
219.467
220.108
220.608
220.989
221.306
221.594
221.851
222.067
222.269
222.493
222.734
222.977
223.214
223.447
223.678
223.904
224.123
224.334
224.536
224.731
224.916
225.093
225.258
225.415
225.564
225.707
225.837
225.956
226.068
226.178
226.287
226.392
226.492
226.587
226.677
226.762
226.843
226.921
226.997
227.07
227.143
227.215
227.285
227.351
227.414
227.473
227.527
227.576
227.62
227.658
227.691
227.718
227.74
227.755
227.764
227.767
227.763
227.755
227.74
227.719
227.692
227.66
227.622
227.58
227.533
227.482
227.426
227.367
227.305
227.241
227.173
227.104
227.033
226.96
226.886
226.812
226.737
226.662
226.586
226.511
226.436
226.363
226.289
226.217
226.146
226.076
226.007
225.94
225.874
225.81
225.747
225.687
225.627
225.57
225.514
225.46
225.408
225.357
225.308
225.26
225.214
225.17
225.127
225.086
225.047
225.009
224.974
224.941
224.909
224.879
224.85
224.826
224.802
224.791
224.74
200.247
215.437
217.294
217.735
218.196
218.776
219.462
220.103
220.602
220.982
221.299
221.585
221.841
222.056
222.258
222.482
222.723
222.966
223.204
223.437
223.668
223.894
224.114
224.325
224.528
224.723
224.909
225.086
225.252
225.409
225.56
225.702
225.833
225.952
226.065
226.175
226.284
226.39
226.49
226.585
226.675
226.761
226.841
226.919
226.994
227.068
227.14
227.212
227.282
227.349
227.412
227.47
227.524
227.573
227.618
227.656
227.689
227.717
227.739
227.754
227.764
227.768
227.764
227.757
227.743
227.723
227.697
227.666
227.63
227.589
227.544
227.495
227.441
227.384
227.324
227.262
227.197
227.13
227.061
226.991
226.92
226.848
226.775
226.703
226.63
226.558
226.486
226.414
226.344
226.274
226.206
226.138
226.072
226.008
225.944
225.883
225.822
225.764
225.707
225.652
225.598
225.546
225.496
225.447
225.4
225.355
225.31
225.268
225.227
225.187
225.15
225.114
225.081
225.049
225.018
224.989
224.961
224.938
224.916
224.909
224.86
200.057
215.369
217.255
217.708
218.179
218.767
219.457
220.098
220.596
220.976
221.292
221.577
221.831
222.045
222.247
222.472
222.713
222.956
223.193
223.427
223.658
223.885
224.105
224.316
224.519
224.715
224.902
225.079
225.246
225.404
225.555
225.698
225.829
225.949
226.062
226.173
226.282
226.388
226.488
226.583
226.674
226.759
226.839
226.917
226.992
227.065
227.138
227.21
227.279
227.346
227.409
227.468
227.522
227.571
227.616
227.655
227.688
227.716
227.738
227.754
227.765
227.77
227.766
227.76
227.747
227.728
227.704
227.674
227.64
227.601
227.557
227.51
227.458
227.403
227.346
227.285
227.223
227.158
227.092
227.024
226.956
226.887
226.817
226.747
226.677
226.608
226.538
226.47
226.402
226.335
226.269
226.205
226.141
226.079
226.019
225.959
225.902
225.845
225.791
225.738
225.687
225.637
225.589
225.542
225.497
225.453
225.411
225.37
225.331
225.293
225.258
225.224
225.191
225.161
225.132
225.103
225.074
225.052
225.032
225.032
224.988
199.87
215.303
217.217
217.681
218.162
218.758
219.452
220.094
220.591
220.97
221.285
221.569
221.822
222.035
222.237
222.462
222.703
222.945
223.183
223.417
223.648
223.876
224.096
224.308
224.511
224.707
224.894
225.073
225.24
225.398
225.55
225.694
225.825
225.945
226.059
226.17
226.28
226.385
226.486
226.582
226.672
226.757
226.837
226.914
226.989
227.063
227.135
227.207
227.277
227.344
227.407
227.465
227.52
227.569
227.614
227.653
227.687
227.715
227.738
227.754
227.766
227.772
227.77
227.765
227.752
227.734
227.712
227.684
227.651
227.613
227.572
227.526
227.477
227.425
227.369
227.311
227.251
227.189
227.126
227.061
226.995
226.929
226.862
226.795
226.728
226.661
226.595
226.529
226.464
226.4
226.337
226.275
226.214
226.155
226.097
226.04
225.985
225.931
225.879
225.828
225.779
225.732
225.686
225.641
225.598
225.556
225.516
225.477
225.439
225.403
225.369
225.337
225.306
225.277
225.248
225.22
225.192
225.171
225.154
225.159
225.117
199.688
215.237
217.179
217.655
218.146
218.749
219.447
220.089
220.585
220.963
221.278
221.561
221.812
222.024
222.227
222.452
222.693
222.935
223.173
223.407
223.639
223.867
224.087
224.299
224.503
224.699
224.887
225.066
225.234
225.393
225.545
225.689
225.821
225.942
226.056
226.167
226.277
226.383
226.484
226.58
226.67
226.755
226.835
226.912
226.987
227.06
227.133
227.205
227.274
227.341
227.404
227.463
227.518
227.568
227.613
227.652
227.686
227.715
227.738
227.755
227.767
227.774
227.774
227.769
227.758
227.742
227.721
227.694
227.663
227.628
227.588
227.545
227.498
227.448
227.395
227.339
227.282
227.223
227.162
227.1
227.037
226.974
226.91
226.846
226.781
226.718
226.654
226.592
226.529
226.468
226.408
226.349
226.291
226.234
226.179
226.125
226.072
226.021
225.971
225.923
225.876
225.831
225.787
225.744
225.703
225.663
225.625
225.587
225.552
225.517
225.485
225.454
225.425
225.397
225.369
225.342
225.315
225.297
225.282
225.288
225.248
199.509
215.171
217.141
217.629
218.13
218.741
219.442
220.084
220.58
220.957
221.271
221.554
221.803
222.014
222.217
222.442
222.683
222.925
223.163
223.398
223.63
223.858
224.078
224.291
224.495
224.691
224.88
225.059
225.228
225.387
225.54
225.685
225.817
225.938
226.053
226.165
226.275
226.381
226.482
226.578
226.668
226.752
226.833
226.909
226.984
227.058
227.13
227.202
227.272
227.339
227.402
227.461
227.516
227.566
227.611
227.651
227.686
227.715
227.738
227.757
227.769
227.778
227.779
227.775
227.765
227.751
227.731
227.706
227.677
227.644
227.606
227.565
227.521
227.473
227.423
227.37
227.315
227.259
227.201
227.142
227.082
227.022
226.961
226.9
226.839
226.778
226.718
226.658
226.599
226.541
226.483
226.427
226.372
226.318
226.265
226.214
226.163
226.115
226.067
226.021
225.977
225.934
225.892
225.851
225.812
225.774
225.737
225.702
225.668
225.635
225.605
225.575
225.548
225.52
225.493
225.468
225.443
225.427
225.414
225.42
225.381
199.334
215.106
217.104
217.604
218.115
218.733
219.437
220.08
220.574
220.951
221.264
221.546
221.794
222.004
222.207
222.432
222.674
222.916
223.154
223.388
223.621
223.849
224.07
224.282
224.487
224.684
224.873
225.053
225.222
225.382
225.535
225.68
225.813
225.935
226.049
226.162
226.272
226.378
226.479
226.575
226.666
226.75
226.83
226.907
226.982
227.055
227.128
227.2
227.269
227.336
227.4
227.459
227.514
227.565
227.61
227.651
227.686
227.715
227.739
227.759
227.772
227.782
227.785
227.782
227.773
227.761
227.743
227.72
227.693
227.661
227.626
227.587
227.545
227.5
227.453
227.403
227.351
227.298
227.243
227.187
227.13
227.073
227.015
226.957
226.899
226.842
226.784
226.728
226.672
226.616
226.562
226.509
226.456
226.405
226.355
226.306
226.259
226.212
226.167
226.124
226.082
226.041
226.001
225.963
225.925
225.889
225.854
225.821
225.788
225.758
225.729
225.701
225.674
225.648
225.622
225.598
225.575
225.562
225.55
225.556
225.518
199.164
215.041
217.066
217.579
218.1
218.725
219.432
220.075
220.569
220.945
221.258
221.538
221.785
221.994
222.197
222.423
222.664
222.906
223.144
223.379
223.612
223.84
224.061
224.274
224.479
224.676
224.866
225.046
225.216
225.377
225.53
225.676
225.809
225.931
226.046
226.159
226.27
226.376
226.477
226.573
226.663
226.748
226.827
226.904
226.979
227.052
227.125
227.197
227.267
227.334
227.398
227.457
227.513
227.564
227.609
227.65
227.686
227.716
227.741
227.761
227.776
227.786
227.791
227.789
227.783
227.771
227.755
227.735
227.71
227.68
227.648
227.611
227.572
227.53
227.485
227.438
227.389
227.339
227.287
227.235
227.181
227.127
227.072
227.018
226.963
226.909
226.854
226.801
226.748
226.696
226.644
226.594
226.544
226.496
226.449
226.402
226.357
226.314
226.271
226.23
226.19
226.151
226.114
226.077
226.042
226.008
225.975
225.943
225.912
225.883
225.856
225.829
225.804
225.779
225.754
225.732
225.711
225.699
225.688
225.695
225.656
198.997
214.976
217.03
217.555
218.086
218.717
219.428
220.07
220.564
220.939
221.252
221.531
221.777
221.985
222.188
222.414
222.655
222.897
223.135
223.37
223.603
223.831
224.052
224.266
224.471
224.669
224.859
225.04
225.21
225.371
225.525
225.672
225.805
225.927
226.043
226.156
226.267
226.373
226.475
226.571
226.661
226.745
226.825
226.901
226.976
227.05
227.123
227.195
227.265
227.332
227.396
227.456
227.511
227.563
227.609
227.65
227.686
227.717
227.743
227.764
227.781
227.792
227.798
227.798
227.793
227.783
227.769
227.751
227.728
227.701
227.671
227.637
227.601
227.561
227.519
227.476
227.43
227.383
227.334
227.285
227.234
227.184
227.132
227.081
227.03
226.978
226.928
226.877
226.827
226.778
226.73
226.683
226.636
226.59
226.546
226.502
226.46
226.419
226.379
226.34
226.302
226.266
226.23
226.196
226.163
226.131
226.099
226.069
226.041
226.013
225.987
225.962
225.938
225.914
225.89
225.87
225.852
225.842
225.832
225.838
225.8
198.834
214.912
216.994
217.531
218.072
218.709
219.423
220.066
220.559
220.934
221.245
221.524
221.768
221.976
222.178
222.405
222.646
222.888
223.126
223.361
223.594
223.822
224.044
224.257
224.463
224.661
224.852
225.033
225.204
225.366
225.521
225.667
225.801
225.924
226.04
226.153
226.264
226.371
226.472
226.569
226.659
226.742
226.822
226.898
226.973
227.047
227.12
227.192
227.262
227.33
227.394
227.454
227.51
227.562
227.608
227.65
227.687
227.719
227.746
227.768
227.786
227.798
227.805
227.807
227.804
227.796
227.784
227.768
227.747
227.723
227.696
227.665
227.631
227.595
227.556
227.515
227.473
227.429
227.384
227.338
227.291
227.243
227.196
227.148
227.1
227.052
227.004
226.957
226.911
226.865
226.819
226.775
226.731
226.688
226.647
226.606
226.566
226.528
226.49
226.454
226.418
226.384
226.351
226.318
226.287
226.257
226.227
226.199
226.172
226.146
226.122
226.098
226.075
226.052
226.03
226.012
225.995
225.986
225.977
225.983
225.946
198.674
214.848
216.958
217.508
218.058
218.702
219.419
220.062
220.553
220.928
221.239
221.517
221.76
221.966
222.169
222.396
222.637
222.878
223.116
223.352
223.585
223.814
224.036
224.249
224.455
224.654
224.845
225.027
225.198
225.36
225.516
225.663
225.797
225.92
226.036
226.15
226.261
226.368
226.47
226.566
226.656
226.74
226.819
226.896
226.971
227.045
227.118
227.19
227.26
227.328
227.392
227.453
227.509
227.561
227.608
227.65
227.688
227.721
227.749
227.772
227.791
227.805
227.814
227.818
227.816
227.811
227.8
227.786
227.768
227.747
227.722
227.694
227.663
227.63
227.595
227.557
227.518
227.478
227.436
227.393
227.35
227.306
227.261
227.217
227.172
227.128
227.084
227.04
226.997
226.954
226.912
226.87
226.83
226.79
226.751
226.713
226.676
226.64
226.605
226.571
226.538
226.506
226.474
226.444
226.415
226.387
226.359
226.333
226.307
226.283
226.26
226.238
226.216
226.194
226.174
226.158
226.143
226.136
226.128
226.133
226.096
198.518
214.785
216.922
217.486
218.045
218.695
219.415
220.057
220.548
220.923
221.233
221.51
221.752
221.957
222.161
222.387
222.628
222.869
223.107
223.343
223.576
223.805
224.027
224.241
224.447
224.646
224.838
225.02
225.192
225.355
225.511
225.658
225.793
225.916
226.033
226.147
226.259
226.366
226.467
226.564
226.653
226.737
226.816
226.893
226.968
227.042
227.115
227.188
227.258
227.326
227.39
227.451
227.508
227.56
227.608
227.651
227.689
227.723
227.752
227.777
227.797
227.812
227.823
227.829
227.829
227.825
227.818
227.806
227.791
227.772
227.75
227.725
227.697
227.667
227.635
227.601
227.566
227.529
227.49
227.451
227.411
227.371
227.33
227.289
227.248
227.207
227.166
227.126
227.086
227.046
227.007
226.969
226.931
226.894
226.858
226.823
226.789
226.755
226.723
226.691
226.66
226.63
226.602
226.573
226.546
226.52
226.494
226.469
226.446
226.423
226.402
226.381
226.36
226.339
226.321
226.307
226.294
226.288
226.28
226.285
226.248
198.365
214.722
216.887
217.464
218.032
218.688
219.41
220.053
220.543
220.917
221.227
221.503
221.744
221.949
222.152
222.379
222.62
222.861
223.099
223.334
223.568
223.797
224.019
224.233
224.439
224.639
224.831
225.014
225.186
225.349
225.506
225.653
225.789
225.912
226.03
226.144
226.256
226.363
226.465
226.561
226.65
226.734
226.813
226.89
226.965
227.039
227.113
227.185
227.256
227.324
227.389
227.45
227.507
227.56
227.608
227.652
227.691
227.726
227.756
227.782
227.804
227.821
227.833
227.841
227.843
227.842
227.836
227.827
227.814
227.798
227.779
227.758
227.733
227.706
227.678
227.647
227.615
227.582
227.547
227.512
227.475
227.439
227.401
227.364
227.327
227.289
227.252
227.215
227.178
227.142
227.106
227.071
227.036
227.002
226.969
226.936
226.905
226.874
226.844
226.815
226.786
226.759
226.732
226.706
226.681
226.656
226.632
226.61
226.588
226.567
226.547
226.527
226.508
226.489
226.472
226.46
226.449
226.444
226.436
226.441
226.406
198.217
214.659
216.852
217.442
218.019
218.681
219.406
220.049
220.539
220.912
221.221
221.496
221.736
221.94
222.143
222.371
222.611
222.852
223.09
223.326
223.56
223.789
224.011
224.225
224.432
224.632
224.824
225.007
225.18
225.344
225.501
225.649
225.784
225.908
226.026
226.141
226.253
226.36
226.462
226.558
226.647
226.73
226.81
226.887
226.962
227.037
227.111
227.183
227.254
227.322
227.387
227.449
227.506
227.559
227.608
227.653
227.693
227.729
227.761
227.788
227.811
227.829
227.844
227.853
227.858
227.859
227.855
227.849
227.839
227.826
227.81
227.792
227.771
227.747
227.722
227.695
227.667
227.637
227.606
227.575
227.542
227.509
227.476
227.442
227.408
227.374
227.34
227.307
227.273
227.24
227.208
227.175
227.144
227.113
227.083
227.053
227.024
226.996
226.968
226.941
226.915
226.89
226.865
226.842
226.818
226.796
226.774
226.753
226.733
226.714
226.695
226.676
226.658
226.641
226.626
226.616
226.605
226.602
226.595
226.599
226.566
198.071
214.596
216.818
217.421
218.007
218.675
219.402
220.044
220.534
220.907
221.216
221.49
221.728
221.932
222.135
222.362
222.603
222.843
223.081
223.317
223.551
223.781
224.003
224.217
224.424
224.624
224.817
225.001
225.174
225.338
225.496
225.644
225.78
225.904
226.023
226.138
226.25
226.357
226.459
226.555
226.644
226.727
226.806
226.884
226.96
227.034
227.108
227.181
227.252
227.32
227.386
227.448
227.506
227.559
227.609
227.654
227.695
227.732
227.766
227.795
227.819
227.839
227.855
227.866
227.874
227.877
227.876
227.872
227.865
227.855
227.843
227.827
227.81
227.79
227.768
227.745
227.72
227.694
227.667
227.639
227.611
227.581
227.552
227.522
227.491
227.461
227.431
227.401
227.371
227.341
227.312
227.283
227.254
227.226
227.199
227.172
227.146
227.12
227.095
227.071
227.047
227.024
227.002
226.98
226.959
226.938
226.919
226.9
226.881
226.864
226.846
226.829
226.813
226.797
226.783
226.775
226.766
226.765
226.758
226.762
226.731
197.929
214.533
216.784
217.401
217.996
218.668
219.398
220.04
220.529
220.901
221.21
221.483
221.721
221.923
222.127
222.354
222.595
222.835
223.073
223.309
223.543
223.773
223.995
224.209
224.417
224.617
224.81
224.994
225.168
225.333
225.491
225.639
225.776
225.9
226.019
226.135
226.247
226.355
226.456
226.552
226.64
226.724
226.803
226.881
226.957
227.032
227.106
227.179
227.25
227.319
227.384
227.447
227.505
227.559
227.609
227.655
227.698
227.736
227.771
227.801
227.827
227.849
227.867
227.88
227.89
227.895
227.898
227.896
227.892
227.886
227.876
227.864
227.85
227.834
227.816
227.797
227.776
227.754
227.731
227.707
227.682
227.656
227.63
227.604
227.578
227.551
227.524
227.498
227.471
227.445
227.419
227.393
227.368
227.343
227.318
227.294
227.271
227.248
227.225
227.204
227.182
227.162
227.141
227.122
227.103
227.084
227.066
227.049
227.032
227.016
227
226.984
226.969
226.955
226.943
226.936
226.929
226.929
226.923
226.926
226.897
197.79
214.471
216.75
217.381
217.984
218.662
219.394
220.036
220.524
220.896
221.204
221.477
221.713
221.915
222.119
222.347
222.587
222.827
223.064
223.3
223.535
223.765
223.987
224.202
224.409
224.61
224.804
224.988
225.162
225.327
225.485
225.635
225.771
225.896
226.016
226.132
226.244
226.352
226.453
226.548
226.637
226.72
226.8
226.878
226.954
227.03
227.104
227.177
227.248
227.317
227.383
227.446
227.504
227.559
227.61
227.657
227.701
227.741
227.777
227.808
227.836
227.859
227.879
227.895
227.907
227.915
227.92
227.922
227.921
227.917
227.911
227.903
227.892
227.88
227.866
227.85
227.833
227.815
227.796
227.775
227.754
227.733
227.711
227.688
227.666
227.643
227.62
227.597
227.574
227.551
227.528
227.506
227.483
227.462
227.44
227.419
227.398
227.378
227.358
227.339
227.32
227.302
227.284
227.266
227.249
227.232
227.216
227.201
227.186
227.172
227.157
227.143
227.129
227.117
227.106
227.101
227.095
227.097
227.092
227.094
227.067
197.654
214.409
216.717
217.361
217.973
218.656
219.39
220.032
220.52
220.891
221.199
221.471
221.706
221.907
222.111
222.339
222.579
222.819
223.056
223.292
223.527
223.757
223.979
224.194
224.402
224.603
224.797
224.982
225.156
225.322
225.48
225.63
225.767
225.892
226.012
226.129
226.241
226.348
226.45
226.545
226.633
226.717
226.797
226.875
226.952
227.027
227.102
227.175
227.246
227.316
227.382
227.444
227.504
227.559
227.611
227.659
227.704
227.745
227.783
227.816
227.845
227.87
227.892
227.91
227.924
227.935
227.943
227.948
227.95
227.95
227.947
227.942
227.936
227.927
227.917
227.905
227.892
227.878
227.863
227.847
227.83
227.812
227.794
227.775
227.757
227.737
227.718
227.699
227.679
227.66
227.64
227.621
227.602
227.583
227.564
227.546
227.528
227.511
227.493
227.477
227.46
227.444
227.428
227.413
227.398
227.383
227.369
227.356
227.342
227.329
227.317
227.304
227.292
227.281
227.272
227.269
227.264
227.266
227.262
227.264
227.239
197.521
214.347
216.684
217.342
217.962
218.65
219.386
220.028
220.515
220.886
221.193
221.464
221.699
221.899
222.103
222.331
222.571
222.81
223.048
223.284
223.519
223.749
223.972
224.186
224.394
224.596
224.79
224.975
225.15
225.316
225.475
225.625
225.762
225.888
226.008
226.125
226.238
226.345
226.446
226.541
226.63
226.713
226.793
226.872
226.949
227.025
227.1
227.173
227.245
227.314
227.38
227.443
227.503
227.559
227.612
227.662
227.708
227.75
227.789
227.824
227.855
227.882
227.905
227.926
227.942
227.956
227.967
227.975
227.981
227.984
227.985
227.984
227.981
227.976
227.969
227.962
227.953
227.942
227.931
227.919
227.906
227.893
227.878
227.864
227.849
227.833
227.818
227.802
227.786
227.77
227.754
227.738
227.722
227.707
227.691
227.676
227.66
227.646
227.631
227.617
227.603
227.589
227.575
227.562
227.549
227.537
227.525
227.513
227.501
227.49
227.479
227.467
227.457
227.448
227.441
227.44
227.437
227.439
227.435
227.437
227.414
197.391
214.285
216.652
217.324
217.952
218.644
219.382
220.024
220.511
220.881
221.188
221.458
221.692
221.892
222.096
222.324
222.563
222.802
223.04
223.276
223.511
223.741
223.964
224.179
224.387
224.589
224.783
224.969
225.144
225.311
225.47
225.62
225.758
225.884
226.005
226.122
226.235
226.342
226.443
226.538
226.626
226.709
226.79
226.869
226.947
227.023
227.097
227.171
227.243
227.312
227.379
227.442
227.503
227.56
227.613
227.664
227.711
227.755
227.795
227.832
227.864
227.893
227.919
227.942
227.961
227.978
227.992
228.003
228.012
228.018
228.023
228.026
228.026
228.026
228.023
228.02
228.015
228.009
228.002
227.994
227.985
227.975
227.965
227.954
227.943
227.932
227.92
227.908
227.895
227.883
227.87
227.858
227.845
227.832
227.82
227.807
227.795
227.783
227.771
227.759
227.748
227.736
227.725
227.714
227.703
227.693
227.682
227.673
227.663
227.653
227.643
227.633
227.624
227.618
227.613
227.614
227.612
227.614
227.61
227.611
227.591
197.264
214.223
216.62
217.305
217.941
218.638
219.378
220.02
220.506
220.877
221.183
221.452
221.685
221.884
222.088
222.316
222.555
222.795
223.032
223.268
223.503
223.733
223.956
224.171
224.38
224.582
224.777
224.962
225.138
225.305
225.465
225.616
225.753
225.88
226.001
226.119
226.232
226.339
226.439
226.534
226.622
226.706
226.787
226.866
226.944
227.02
227.095
227.169
227.241
227.31
227.377
227.441
227.502
227.56
227.615
227.667
227.715
227.76
227.802
227.84
227.874
227.906
227.934
227.959
227.981
228
228.017
228.032
228.044
228.054
228.063
228.069
228.074
228.077
228.079
228.079
228.078
228.076
228.073
228.069
228.064
228.059
228.053
228.046
228.039
228.031
228.023
228.015
228.006
227.997
227.988
227.979
227.969
227.96
227.951
227.941
227.932
227.922
227.913
227.904
227.895
227.886
227.877
227.868
227.859
227.851
227.843
227.835
227.827
227.818
227.81
227.802
227.794
227.791
227.787
227.789
227.788
227.791
227.787
227.789
227.771
197.14
214.161
216.588
217.288
217.932
218.633
219.374
220.016
220.502
220.872
221.178
221.446
221.678
221.877
222.081
222.309
222.548
222.787
223.024
223.26
223.495
223.725
223.948
224.164
224.372
224.575
224.77
224.956
225.132
225.299
225.46
225.611
225.749
225.876
225.997
226.115
226.228
226.335
226.436
226.53
226.618
226.702
226.783
226.863
226.941
227.018
227.093
227.167
227.239
227.309
227.376
227.44
227.502
227.56
227.616
227.669
227.719
227.766
227.809
227.848
227.885
227.918
227.948
227.976
228.001
228.023
228.043
228.061
228.077
228.09
228.103
228.113
228.122
228.129
228.135
228.139
228.143
228.145
228.146
228.147
228.146
228.145
228.143
228.14
228.137
228.133
228.129
228.124
228.119
228.114
228.108
228.102
228.096
228.09
228.084
228.077
228.071
228.064
228.057
228.051
228.044
228.038
228.031
228.024
228.018
228.011
228.005
227.999
227.993
227.986
227.979
227.972
227.967
227.967
227.965
227.967
227.967
227.97
227.966
227.968
227.953
197.019
214.1
216.557
217.271
217.922
218.628
219.371
220.012
220.497
220.867
221.173
221.441
221.671
221.87
222.074
222.302
222.541
222.779
223.016
223.253
223.488
223.718
223.941
224.156
224.365
224.568
224.763
224.95
225.126
225.294
225.454
225.606
225.744
225.872
225.993
226.111
226.225
226.331
226.432
226.526
226.614
226.698
226.78
226.86
226.939
227.015
227.091
227.164
227.237
227.307
227.374
227.439
227.501
227.561
227.618
227.672
227.723
227.771
227.816
227.857
227.895
227.931
227.963
227.993
228.021
228.046
228.07
228.091
228.11
228.128
228.144
228.158
228.171
228.182
228.192
228.201
228.208
228.215
228.22
228.225
228.228
228.231
228.233
228.235
228.236
228.236
228.235
228.235
228.233
228.232
228.23
228.227
228.224
228.221
228.218
228.215
228.211
228.208
228.204
228.2
228.196
228.191
228.187
228.183
228.178
228.174
228.17
228.166
228.161
228.156
228.15
228.146
228.143
228.145
228.144
228.146
228.147
228.15
228.148
228.15
228.137
196.901
214.038
216.526
217.254
217.912
218.622
219.367
220.009
220.493
220.863
221.168
221.435
221.664
221.862
222.067
222.295
222.533
222.772
223.009
223.245
223.48
223.71
223.933
224.149
224.358
224.561
224.757
224.943
225.12
225.288
225.449
225.601
225.74
225.868
225.99
226.108
226.221
226.328
226.428
226.522
226.61
226.694
226.777
226.857
226.936
227.013
227.088
227.162
227.234
227.305
227.373
227.438
227.501
227.562
227.62
227.675
227.728
227.777
227.823
227.866
227.906
227.943
227.979
228.011
228.042
228.07
228.097
228.122
228.144
228.166
228.185
228.204
228.22
228.236
228.25
228.263
228.275
228.286
228.296
228.305
228.313
228.32
228.326
228.332
228.337
228.341
228.344
228.347
228.35
228.352
228.353
228.354
228.355
228.355
228.355
228.355
228.354
228.353
228.352
228.351
228.349
228.347
228.346
228.343
228.341
228.339
228.337
228.334
228.331
228.328
228.325
228.323
228.322
228.325
228.324
228.328
228.33
228.333
228.332
228.335
228.325
196.785
213.976
216.495
217.238
217.903
218.617
219.364
220.005
220.489
220.858
221.163
221.429
221.658
221.855
222.06
222.288
222.526
222.764
223.001
223.237
223.473
223.703
223.926
224.141
224.351
224.554
224.75
224.937
225.114
225.282
225.444
225.596
225.735
225.863
225.986
226.104
226.217
226.324
226.424
226.517
226.606
226.691
226.773
226.854
226.933
227.01
227.086
227.16
227.232
227.303
227.371
227.437
227.501
227.563
227.622
227.678
227.732
227.783
227.83
227.875
227.917
227.957
227.994
228.03
228.063
228.095
228.125
228.153
228.18
228.205
228.228
228.251
228.271
228.291
228.309
228.326
228.342
228.358
228.372
228.385
228.397
228.408
228.419
228.429
228.438
228.446
228.454
228.461
228.467
228.473
228.478
228.483
228.487
228.49
228.493
228.496
228.499
228.501
228.502
228.504
228.505
228.505
228.506
228.506
228.506
228.506
228.506
228.505
228.504
228.502
228.502
228.503
228.504
228.506
228.506
228.511
228.513
228.517
228.519
228.523
228.514
196.671
213.915
216.465
217.222
217.894
218.612
219.36
220.001
220.485
220.853
221.158
221.423
221.651
221.848
222.053
222.281
222.519
222.757
222.994
223.23
223.465
223.695
223.918
224.134
224.344
224.547
224.743
224.93
225.107
225.277
225.439
225.591
225.73
225.859
225.982
226.1
226.214
226.32
226.419
226.513
226.602
226.687
226.77
226.851
226.931
227.008
227.083
227.157
227.23
227.301
227.369
227.436
227.501
227.564
227.624
227.682
227.736
227.788
227.837
227.884
227.928
227.97
228.01
228.048
228.085
228.119
228.153
228.184
228.215
228.244
228.271
228.297
228.322
228.346
228.369
228.39
228.411
228.431
228.449
228.467
228.484
228.499
228.514
228.528
228.542
228.554
228.566
228.576
228.587
228.596
228.605
228.613
228.62
228.627
228.634
228.64
228.645
228.65
228.654
228.658
228.662
228.665
228.668
228.671
228.673
228.675
228.677
228.678
228.679
228.679
228.681
228.684
228.687
228.692
228.692
228.696
228.699
228.704
228.708
228.713
228.708
196.558
213.853
216.435
217.206
217.886
218.607
219.357
219.997
220.481
220.849
221.153
221.418
221.645
221.842
222.046
222.274
222.512
222.749
222.986
223.222
223.458
223.688
223.911
224.127
224.336
224.54
224.737
224.924
225.101
225.271
225.433
225.586
225.726
225.854
225.977
226.096
226.21
226.316
226.415
226.509
226.598
226.683
226.766
226.848
226.928
227.005
227.08
227.154
227.227
227.298
227.368
227.435
227.501
227.565
227.626
227.685
227.741
227.794
227.845
227.893
227.939
227.983
228.026
228.067
228.107
228.145
228.181
228.217
228.251
228.283
228.315
228.345
228.374
228.402
228.429
228.455
228.48
228.504
228.527
228.549
228.57
228.59
228.609
228.628
228.645
228.662
228.677
228.692
228.706
228.72
228.732
228.744
228.755
228.765
228.775
228.784
228.793
228.801
228.808
228.815
228.821
228.827
228.833
228.838
228.842
228.846
228.85
228.853
228.856
228.858
228.862
228.866
228.871
228.877
228.879
228.885
228.888
228.893
228.899
228.904
228.902
196.451
213.791
216.406
217.191
217.877
218.602
219.353
219.994
220.477
220.845
221.148
221.412
221.638
221.835
222.04
222.267
222.505
222.742
222.979
223.215
223.45