/*--------------------------------*- C++ -*----------------------------------*\
| =========                 |                                                 |
| \\      /  F ield         | OpenFOAM: The Open Source CFD Toolbox           |
|  \\    /   O peration     | Version:  2412                                  |
|   \\  /    A nd           | Website:  www.openfoam.com                      |
|    \\/     M anipulation  |                                                 |
\*---------------------------------------------------------------------------*/
FoamFile
{
    version     2.0;
    format      ascii;
    arch        "LSB;label=32;scalar=64";
    class       volScalarField;
    location    "0.115";
    object      T;
}
// * * * * * * * * * * * * * * * * * * * * * * * * * * * * * * * * * * * * * //

dimensions      [0 0 0 1 0 0 0];

internalField   nonuniform List<scalar> 
78650
(
245.589
225.501
224.36
224.363
224.219
224.087
223.957
223.852
223.762
223.677
223.583
223.475
223.354
223.231
223.119
223.021
222.937
222.864
222.802
222.751
222.709
222.674
222.645
222.616
222.584
222.546
222.5
222.446
222.386
222.32
222.251
222.18
222.108
222.038
221.97
221.903
221.84
221.779
221.722
221.668
221.619
221.574
221.532
221.494
221.459
221.427
221.399
221.373
221.35
221.33
221.313
221.297
221.284
221.274
221.265
221.258
221.252
221.247
221.242
221.238
221.233
221.227
221.22
221.211
221.199
221.183
221.163
221.137
221.103
221.062
221.012
220.951
220.879
220.793
220.691
220.572
220.432
220.27
220.082
219.866
219.62
219.339
219.022
218.662
218.255
217.796
217.282
216.708
216.071
215.366
214.585
213.726
212.776
211.744
210.606
209.391
208.07
206.64
205.099
203.436
201.69
199.878
198.048
196.163
194.213
192.262
190.279
188.354
186.424
184.492
182.7
181.025
179.478
178.122
176.842
175.626
174.588
173.699
173.063
172.68
171.191
244.83
225.418
224.441
224.415
224.264
224.124
223.987
223.875
223.782
223.697
223.608
223.505
223.388
223.266
223.151
223.05
222.963
222.889
222.826
222.774
222.731
222.696
222.667
222.639
222.61
222.576
222.535
222.487
222.431
222.37
222.305
222.237
222.169
222.101
222.036
221.973
221.912
221.854
221.8
221.749
221.703
221.66
221.622
221.587
221.556
221.528
221.504
221.483
221.464
221.449
221.436
221.426
221.418
221.413
221.41
221.409
221.41
221.411
221.414
221.417
221.42
221.423
221.425
221.426
221.425
221.421
221.413
221.4
221.381
221.356
221.322
221.28
221.227
221.163
221.085
220.991
220.88
220.748
220.594
220.415
220.208
219.971
219.7
219.391
219.04
218.642
218.194
217.691
217.127
216.498
215.795
215.016
214.148
213.198
212.146
211.016
209.777
208.454
207.03
205.506
203.893
202.185
200.41
198.531
196.585
194.641
192.621
190.581
188.707
186.801
184.92
183.042
181.162
179.458
177.966
176.658
175.635
174.858
174.224
173.761
172.087
244.108
225.242
224.505
224.462
224.307
224.163
224.018
223.898
223.799
223.715
223.631
223.535
223.423
223.301
223.184
223.079
222.99
222.914
222.85
222.797
222.753
222.718
222.689
222.663
222.637
222.607
222.57
222.527
222.476
222.42
222.359
222.294
222.23
222.166
222.103
222.043
221.985
221.93
221.879
221.831
221.788
221.749
221.714
221.683
221.655
221.631
221.611
221.594
221.58
221.569
221.561
221.556
221.554
221.554
221.557
221.562
221.569
221.578
221.588
221.598
221.61
221.621
221.633
221.643
221.652
221.659
221.663
221.664
221.659
221.649
221.632
221.607
221.573
221.529
221.474
221.404
221.32
221.217
221.094
220.948
220.778
220.58
220.352
220.09
219.79
219.447
219.057
218.616
218.118
217.561
216.936
216.241
215.467
214.614
213.668
212.644
211.515
210.303
208.977
207.544
206.013
204.347
202.584
200.753
198.848
196.868
194.93
192.874
190.898
188.939
186.978
185.173
183.264
181.374
179.567
177.841
176.406
175.345
174.716
174.477
172.934
243.476
225.12
224.537
224.49
224.339
224.197
224.048
223.92
223.815
223.73
223.651
223.562
223.457
223.339
223.219
223.111
223.018
222.94
222.874
222.82
222.776
222.741
222.712
222.687
222.663
222.637
222.605
222.567
222.522
222.47
222.414
222.354
222.292
222.232
222.172
222.115
222.061
222.009
221.961
221.916
221.876
221.84
221.808
221.78
221.756
221.736
221.72
221.707
221.697
221.691
221.688
221.688
221.691
221.697
221.705
221.716
221.729
221.745
221.761
221.78
221.799
221.818
221.839
221.858
221.878
221.895
221.911
221.923
221.932
221.936
221.935
221.927
221.911
221.887
221.853
221.807
221.747
221.672
221.579
221.466
221.332
221.173
220.987
220.77
220.52
220.232
219.9
219.523
219.094
218.61
218.065
217.455
216.769
216.007
215.156
214.221
213.181
212.056
210.816
209.49
208.057
206.523
204.872
203.123
201.322
199.363
197.394
195.36
193.231
191.246
189.125
187.108
185.236
183.372
181.611
179.92
178.306
176.79
175.67
175.009
173.111
242.779
224.994
224.54
224.509
224.372
224.232
224.08
223.943
223.83
223.743
223.667
223.586
223.49
223.377
223.258
223.146
223.049
222.967
222.9
222.845
222.8
222.764
222.736
222.712
222.69
222.667
222.64
222.606
222.567
222.521
222.469
222.414
222.356
222.299
222.243
222.19
222.138
222.09
222.045
222.003
221.966
221.933
221.905
221.881
221.86
221.844
221.832
221.823
221.818
221.816
221.818
221.823
221.831
221.842
221.856
221.873
221.892
221.914
221.937
221.963
221.99
222.017
222.046
222.075
222.104
222.132
222.159
222.183
222.205
222.223
222.236
222.244
222.246
222.241
222.227
222.203
222.167
222.118
222.053
221.971
221.869
221.746
221.598
221.424
221.219
220.98
220.703
220.383
220.017
219.602
219.129
218.595
217.992
217.318
216.563
215.728
214.796
213.781
212.656
211.442
210.104
208.66
207.117
205.444
203.678
201.788
199.77
197.834
195.719
193.606
191.529
189.305
187.211
185.107
183.098
181.342
179.84
178.596
177.458
176.594
174.167
242.023
224.947
224.553
224.529
224.405
224.267
224.112
223.967
223.846
223.755
223.68
223.607
223.521
223.416
223.299
223.184
223.082
222.996
222.927
222.87
222.825
222.789
222.761
222.738
222.718
222.698
222.674
222.646
222.612
222.572
222.526
222.476
222.423
222.369
222.317
222.267
222.219
222.174
222.132
222.094
222.06
222.03
222.005
221.984
221.968
221.955
221.946
221.942
221.941
221.944
221.95
221.96
221.973
221.989
222.009
222.031
222.057
222.085
222.115
222.147
222.182
222.217
222.254
222.292
222.33
222.368
222.406
222.442
222.476
222.507
222.535
222.558
222.576
222.588
222.593
222.59
222.577
222.553
222.515
222.462
222.392
222.303
222.193
222.06
221.899
221.71
221.485
221.224
220.919
220.569
220.167
219.71
219.19
218.605
217.944
217.203
216.369
215.45
214.425
213.309
212.074
210.746
209.302
207.748
206.059
204.266
202.356
200.353
198.31
196.101
194.061
191.864
189.704
187.558
185.355
183.252
181.336
179.687
178.521
177.807
175.368
241.175
224.928
224.553
224.541
224.436
224.304
224.146
223.992
223.861
223.763
223.689
223.622
223.548
223.453
223.341
223.225
223.118
223.028
222.955
222.898
222.852
222.816
222.787
222.765
222.746
222.729
222.709
222.686
222.658
222.624
222.584
222.538
222.49
222.441
222.392
222.345
222.301
222.26
222.221
222.187
222.156
222.13
222.108
222.091
222.078
222.069
222.064
222.064
222.067
222.075
222.085
222.1
222.118
222.139
222.164
222.193
222.224
222.258
222.295
222.334
222.376
222.419
222.464
222.51
222.558
222.606
222.653
222.7
222.746
222.79
222.831
222.869
222.903
222.932
222.955
222.971
222.979
222.979
222.967
222.942
222.901
222.844
222.768
222.672
222.552
222.406
222.23
222.021
221.773
221.485
221.151
220.767
220.326
219.824
219.251
218.605
217.877
217.07
216.164
215.165
214.052
212.844
211.509
210.064
208.5
206.808
205.028
203.041
201.063
198.903
196.716
194.508
192.231
190.077
187.911
185.858
183.897
182.107
180.566
179.409
176.446
240.255
224.931
224.557
224.553
224.462
224.337
224.179
224.017
223.876
223.77
223.694
223.633
223.569
223.486
223.382
223.267
223.158
223.063
222.987
222.927
222.881
222.844
222.816
222.794
222.777
222.761
222.745
222.726
222.703
222.675
222.641
222.602
222.559
222.514
222.47
222.427
222.386
222.348
222.313
222.282
222.255
222.232
222.214
222.2
222.191
222.186
222.185
222.189
222.196
222.208
222.223
222.242
222.265
222.292
222.322
222.356
222.393
222.433
222.477
222.523
222.571
222.622
222.674
222.729
222.785
222.842
222.9
222.957
223.014
223.07
223.125
223.177
223.225
223.27
223.311
223.346
223.374
223.394
223.406
223.407
223.395
223.37
223.327
223.267
223.186
223.083
222.954
222.796
222.604
222.376
222.106
221.79
221.423
221
220.514
219.963
219.334
218.627
217.824
216.93
215.929
214.829
213.603
212.27
210.811
209.232
207.525
205.682
203.696
201.604
199.385
197.178
194.801
192.463
190.057
187.721
185.568
183.691
182.188
181.085
178.017
239.249
224.921
224.558
224.557
224.474
224.355
224.207
224.044
223.892
223.776
223.696
223.637
223.582
223.512
223.42
223.31
223.199
223.1
223.02
222.958
222.911
222.874
222.846
222.825
222.808
222.795
222.782
222.767
222.749
222.726
222.699
222.666
222.628
222.588
222.548
222.509
222.472
222.438
222.407
222.379
222.356
222.337
222.322
222.312
222.306
222.305
222.309
222.316
222.328
222.344
222.363
222.387
222.415
222.447
222.482
222.521
222.564
222.61
222.66
222.712
222.768
222.825
222.886
222.948
223.013
223.079
223.146
223.214
223.282
223.349
223.416
223.481
223.544
223.604
223.661
223.714
223.761
223.802
223.836
223.86
223.874
223.877
223.866
223.839
223.794
223.73
223.643
223.531
223.39
223.216
223.006
222.756
222.461
222.116
221.715
221.252
220.719
220.112
219.419
218.643
217.764
216.785
215.686
214.482
213.149
211.697
210.109
208.386
206.512
204.535
202.405
200.228
197.917
195.537
193.162
190.635
188.319
186.191
184.339
182.912
179.239
238.197
224.947
224.543
224.538
224.466
224.359
224.222
224.062
223.906
223.781
223.694
223.635
223.585
223.529
223.451
223.351
223.241
223.139
223.055
222.991
222.943
222.907
222.879
222.858
222.842
222.831
222.82
222.808
222.794
222.777
222.756
222.729
222.698
222.663
222.628
222.593
222.56
222.53
222.502
222.479
222.459
222.443
222.432
222.426
222.424
222.427
222.434
222.445
222.461
222.481
222.505
222.534
222.566
222.603
222.643
222.688
222.736
222.788
222.843
222.902
222.964
223.029
223.096
223.166
223.239
223.313
223.389
223.467
223.545
223.624
223.702
223.78
223.856
223.931
224.003
224.073
224.138
224.198
224.253
224.301
224.339
224.368
224.385
224.391
224.381
224.355
224.309
224.241
224.149
224.028
223.875
223.687
223.458
223.185
222.86
222.481
222.038
221.53
220.943
220.278
219.515
218.656
217.687
216.613
215.411
214.082
212.602
210.995
209.257
207.358
205.323
203.089
200.83
198.387
196.029
193.545
191.108
188.928
187.021
185.542
181.928
237.09
224.896
224.509
224.497
224.436
224.348
224.225
224.076
223.921
223.786
223.691
223.629
223.583
223.536
223.474
223.387
223.282
223.178
223.09
223.023
222.975
222.94
222.913
222.893
222.879
222.868
222.859
222.85
222.84
222.828
222.812
222.792
222.767
222.738
222.708
222.678
222.649
222.622
222.599
222.579
222.562
222.551
222.543
222.541
222.543
222.549
222.56
222.576
222.596
222.62
222.648
222.681
222.718
222.759
222.805
222.854
222.908
222.966
223.027
223.092
223.16
223.232
223.306
223.384
223.464
223.547
223.631
223.718
223.806
223.895
223.985
224.075
224.164
224.252
224.339
224.424
224.506
224.585
224.659
224.727
224.789
224.843
224.887
224.92
224.941
224.949
224.941
224.914
224.866
224.793
224.692
224.561
224.395
224.19
223.942
223.645
223.291
222.876
222.39
221.83
221.182
220.445
219.606
218.662
217.591
216.397
215.064
213.607
211.996
210.227
208.299
206.188
203.997
201.554
198.999
196.416
193.65
191.194
188.958
187.218
182.901
235.954
224.897
224.475
224.436
224.379
224.312
224.215
224.085
223.937
223.796
223.691
223.621
223.575
223.536
223.487
223.416
223.321
223.218
223.126
223.057
223.008
222.974
222.948
222.929
222.917
222.908
222.901
222.894
222.887
222.879
222.869
222.854
222.835
222.812
222.787
222.762
222.738
222.715
222.696
222.679
222.667
222.659
222.655
222.656
222.662
222.673
222.687
222.707
222.731
222.759
222.792
222.829
222.871
222.916
222.967
223.021
223.08
223.143
223.21
223.28
223.355
223.433
223.514
223.598
223.686
223.776
223.87
223.965
224.062
224.161
224.261
224.362
224.464
224.565
224.665
224.765
224.863
224.958
225.05
225.139
225.222
225.299
225.369
225.43
225.481
225.52
225.545
225.557
225.551
225.524
225.474
225.396
225.289
225.147
224.966
224.742
224.468
224.141
223.751
223.297
222.763
222.15
221.44
220.627
219.694
218.645
217.466
216.156
214.676
213.045
211.263
209.336
207.225
204.975
202.52
200.14
197.383
194.909
192.534
190.544
185.866
234.799
224.823
224.438
224.38
224.327
224.275
224.2
224.09
223.955
223.813
223.696
223.616
223.565
223.53
223.491
223.436
223.354
223.255
223.162
223.089
223.039
223.006
222.983
222.966
222.956
222.949
222.944
222.939
222.935
222.93
222.924
222.915
222.902
222.885
222.866
222.846
222.826
222.808
222.792
222.78
222.771
222.766
222.766
222.772
222.781
222.796
222.814
222.838
222.865
222.898
222.935
222.976
223.022
223.073
223.127
223.187
223.251
223.319
223.391
223.467
223.547
223.632
223.719
223.811
223.905
224.003
224.104
224.208
224.314
224.422
224.532
224.644
224.756
224.87
224.983
225.096
225.209
225.32
225.429
225.536
225.639
225.737
225.83
225.916
225.994
226.062
226.12
226.165
226.195
226.209
226.205
226.177
226.125
226.041
225.925
225.772
225.577
225.335
225.038
224.681
224.253
223.75
223.155
222.465
221.669
220.765
219.731
218.558
217.224
215.749
214.095
212.274
210.275
208.075
205.684
203.08
200.385
197.706
195.284
193.409
189.061
233.622
224.783
224.397
224.306
224.249
224.205
224.152
224.071
223.954
223.824
223.703
223.613
223.556
223.52
223.489
223.446
223.379
223.289
223.195
223.12
223.069
223.037
223.016
223.002
222.995
222.991
222.988
222.985
222.983
222.982
222.979
222.975
222.968
222.957
222.943
222.928
222.913
222.9
222.888
222.88
222.875
222.874
222.878
222.886
222.9
222.918
222.941
222.968
222.999
223.036
223.077
223.123
223.173
223.228
223.287
223.351
223.419
223.492
223.57
223.651
223.737
223.827
223.921
224.019
224.12
224.225
224.333
224.445
224.559
224.676
224.795
224.917
225.04
225.164
225.289
225.415
225.541
225.667
225.792
225.916
226.037
226.155
226.27
226.379
226.482
226.577
226.665
226.742
226.808
226.859
226.895
226.912
226.913
226.883
226.828
226.738
226.613
226.446
226.231
225.964
225.635
225.241
224.767
224.211
223.56
222.804
221.924
220.914
219.761
218.466
216.994
215.356
213.524
211.493
209.258
206.778
204.344
201.435
198.659
196.274
191.077
232.463
224.718
224.356
224.231
224.161
224.121
224.086
224.029
223.937
223.823
223.709
223.615
223.551
223.512
223.484
223.45
223.397
223.316
223.225
223.148
223.095
223.064
223.046
223.035
223.032
223.032
223.032
223.032
223.032
223.033
223.034
223.034
223.032
223.026
223.018
223.009
222.999
222.99
222.983
222.978
222.977
222.98
222.987
222.999
223.017
223.039
223.065
223.096
223.132
223.172
223.217
223.267
223.321
223.38
223.444
223.512
223.585
223.663
223.745
223.832
223.923
224.019
224.119
224.222
224.33
224.441
224.557
224.676
224.798
224.923
225.051
225.182
225.314
225.449
225.586
225.723
225.862
226.002
226.141
226.28
226.418
226.555
226.688
226.818
226.944
227.065
227.179
227.285
227.382
227.468
227.542
227.599
227.64
227.661
227.664
227.634
227.576
227.48
227.344
227.164
226.931
226.64
226.279
225.845
225.32
224.695
223.956
223.099
222.108
220.973
219.661
218.178
216.495
214.623
212.551
210.279
207.764
205.298
202.538
200.344
195.576
231.32
224.66
224.319
224.169
224.078
224.032
224.004
223.967
223.906
223.815
223.711
223.616
223.548
223.504
223.476
223.448
223.405
223.335
223.249
223.172
223.118
223.087
223.072
223.066
223.066
223.072
223.076
223.078
223.081
223.084
223.088
223.092
223.094
223.094
223.091
223.087
223.082
223.078
223.075
223.075
223.077
223.084
223.095
223.111
223.132
223.157
223.188
223.223
223.262
223.306
223.355
223.409
223.467
223.53
223.598
223.671
223.748
223.831
223.918
224.009
224.105
224.206
224.311
224.421
224.534
224.652
224.774
224.899
225.029
225.161
225.297
225.437
225.578
225.723
225.869
226.018
226.168
226.32
226.473
226.626
226.779
226.932
227.084
227.233
227.38
227.523
227.662
227.795
227.921
228.039
228.146
228.243
228.325
228.391
228.437
228.463
228.466
228.436
228.373
228.27
228.122
227.924
227.665
227.341
226.935
226.442
225.848
225.148
224.322
223.355
222.221
220.924
219.437
217.765
215.851
213.699
211.293
208.797
205.904
203.306
198.172
230.199
224.586
224.286
224.126
224.01
223.946
223.911
223.878
223.837
223.774
223.691
223.607
223.541
223.495
223.466
223.441
223.405
223.346
223.267
223.19
223.136
223.107
223.095
223.092
223.098
223.11
223.118
223.124
223.129
223.135
223.141
223.149
223.155
223.159
223.161
223.162
223.162
223.163
223.165
223.169
223.175
223.185
223.2
223.219
223.244
223.273
223.307
223.346
223.389
223.437
223.49
223.548
223.61
223.677
223.749
223.826
223.907
223.994
224.085
224.182
224.283
224.388
224.498
224.613
224.732
224.856
224.984
225.116
225.252
225.392
225.535
225.682
225.833
225.986
226.142
226.301
226.462
226.625
226.79
226.956
227.123
227.291
227.459
227.626
227.791
227.954
228.115
228.271
228.423
228.569
228.708
228.837
228.956
229.063
229.155
229.228
229.281
229.31
229.316
229.285
229.217
229.105
228.942
228.723
228.435
228.073
227.624
227.076
226.41
225.615
224.673
223.576
222.295
220.826
219.119
217.184
215.003
212.638
210.149
207.677
202.88
229.109
224.451
224.255
224.088
223.945
223.856
223.806
223.772
223.744
223.706
223.65
223.584
223.524
223.481
223.453
223.432
223.403
223.354
223.282
223.206
223.152
223.124
223.115
223.115
223.127
223.144
223.157
223.168
223.176
223.185
223.193
223.203
223.213
223.222
223.229
223.234
223.239
223.245
223.251
223.259
223.27
223.284
223.302
223.325
223.353
223.386
223.424
223.466
223.514
223.565
223.622
223.683
223.749
223.82
223.896
223.976
224.062
224.153
224.249
224.349
224.455
224.565
224.68
224.8
224.924
225.053
225.187
225.324
225.467
225.613
225.763
225.918
226.076
226.237
226.401
226.569
226.74
226.913
227.089
227.267
227.447
227.628
227.81
227.993
228.175
228.357
228.537
228.715
228.891
229.062
229.228
229.388
229.54
229.683
229.814
229.931
230.033
230.114
230.174
230.207
230.215
230.182
230.108
229.985
229.804
229.56
229.235
228.821
228.3
227.665
226.896
225.974
224.868
223.574
222.061
220.335
218.333
216.134
213.654
211.162
206.697
228.105
224.222
224.183
224.053
223.91
223.801
223.723
223.67
223.635
223.609
223.578
223.537
223.494
223.46
223.436
223.419
223.397
223.357
223.293
223.22
223.165
223.138
223.131
223.134
223.153
223.176
223.194
223.209
223.222
223.233
223.244
223.256
223.27
223.282
223.293
223.303
223.313
223.323
223.334
223.347
223.362
223.379
223.401
223.428
223.459
223.496
223.537
223.583
223.634
223.689
223.75
223.815
223.884
223.959
224.038
224.123
224.212
224.307
224.407
224.511
224.621
224.736
224.855
224.98
225.109
225.243
225.382
225.525
225.673
225.825
225.982
226.143
226.308
226.476
226.649
226.825
227.004
227.187
227.373
227.561
227.752
227.946
228.141
228.338
228.535
228.733
228.931
229.128
229.324
229.518
229.708
229.894
230.076
230.25
230.416
230.572
230.716
230.846
230.958
231.048
231.114
231.152
231.161
231.125
231.042
230.903
230.695
230.411
230.038
229.565
228.972
228.238
227.339
226.264
224.983
223.477
221.701
219.709
217.391
215.001
210.959
227.277
223.968
224.054
224.007
223.883
223.758
223.658
223.584
223.537
223.511
223.494
223.476
223.452
223.43
223.414
223.403
223.388
223.358
223.304
223.235
223.179
223.152
223.147
223.153
223.177
223.206
223.229
223.249
223.265
223.279
223.292
223.307
223.323
223.339
223.354
223.369
223.383
223.398
223.413
223.43
223.449
223.471
223.497
223.527
223.562
223.602
223.647
223.696
223.75
223.809
223.873
223.942
224.015
224.093
224.176
224.264
224.357
224.456
224.559
224.668
224.782
224.9
225.024
225.153
225.287
225.425
225.569
225.717
225.87
226.028
226.191
226.358
226.529
226.704
226.884
227.067
227.255
227.446
227.64
227.838
228.039
228.243
228.45
228.659
228.87
229.083
229.296
229.51
229.724
229.937
230.149
230.359
230.566
230.768
230.965
231.156
231.337
231.508
231.665
231.807
231.931
232.03
232.103
232.145
232.154
232.112
232.017
231.858
231.622
231.298
230.865
230.308
229.603
228.734
227.67
226.388
224.862
223.075
221.014
218.704
215.134
226.64
223.7
223.852
223.904
223.846
223.729
223.613
223.52
223.458
223.424
223.409
223.403
223.396
223.388
223.384
223.382
223.374
223.354
223.312
223.252
223.196
223.167
223.162
223.171
223.2
223.234
223.262
223.285
223.305
223.322
223.338
223.356
223.375
223.394
223.413
223.431
223.45
223.469
223.489
223.51
223.533
223.559
223.588
223.622
223.66
223.704
223.752
223.805
223.863
223.925
223.993
224.065
224.141
224.223
224.309
224.401
224.497
224.599
224.707
224.819
224.936
225.059
225.187
225.32
225.457
225.6
225.748
225.901
226.059
226.222
226.39
226.562
226.739
226.92
227.106
227.296
227.491
227.69
227.892
228.098
228.308
228.522
228.739
228.959
229.182
229.407
229.634
229.863
230.093
230.323
230.554
230.784
231.013
231.24
231.464
231.683
231.897
232.103
232.301
232.487
232.659
232.814
232.95
233.059
233.14
233.185
233.193
233.142
233.029
232.835
232.551
232.158
231.636
230.959
230.092
229.019
227.705
226.117
224.281
222.066
218.92
226.157
223.405
223.609
223.762
223.769
223.696
223.576
223.469
223.392
223.346
223.327
223.326
223.33
223.334
223.344
223.352
223.354
223.343
223.314
223.266
223.215
223.186
223.18
223.19
223.223
223.261
223.293
223.32
223.344
223.363
223.382
223.402
223.423
223.446
223.468
223.49
223.513
223.536
223.56
223.586
223.613
223.643
223.676
223.713
223.755
223.802
223.854
223.91
223.971
224.037
224.108
224.183
224.263
224.348
224.438
224.533
224.633
224.738
224.848
224.964
225.085
225.211
225.343
225.479
225.621
225.768
225.92
226.077
226.24
226.407
226.579
226.757
226.939
227.125
227.317
227.513
227.714
227.919
228.129
228.343
228.561
228.783
229.008
229.238
229.471
229.707
229.946
230.187
230.431
230.677
230.924
231.171
231.419
231.667
231.914
232.159
232.4
232.638
232.869
233.093
233.307
233.51
233.698
233.869
234.018
234.136
234.223
234.269
234.274
234.207
234.073
233.841
233.505
233.031
232.393
231.569
230.507
229.179
227.588
225.586
222.76
225.796
223.114
223.329
223.578
223.664
223.639
223.537
223.428
223.342
223.285
223.256
223.25
223.256
223.268
223.289
223.311
223.324
223.326
223.31
223.276
223.233
223.207
223.201
223.212
223.247
223.288
223.323
223.353
223.379
223.402
223.423
223.445
223.469
223.494
223.52
223.546
223.572
223.6
223.628
223.658
223.689
223.723
223.76
223.8
223.846
223.897
223.952
224.011
224.076
224.145
224.219
224.297
224.38
224.469
224.561
224.659
224.762
224.871
224.985
225.104
225.228
225.358
225.492
225.633
225.778
225.928
226.084
226.245
226.411
226.583
226.759
226.941
227.128
227.319
227.516
227.717
227.924
228.135
228.351
228.571
228.796
229.025
229.259
229.497
229.739
229.985
230.234
230.486
230.742
231
231.261
231.523
231.788
232.053
232.32
232.586
232.851
233.115
233.375
233.631
233.881
234.124
234.357
234.578
234.784
234.97
235.133
235.261
235.355
235.402
235.404
235.311
235.141
234.846
234.414
233.81
232.969
231.87
230.479
228.695
226.162
225.533
222.852
223.026
223.347
223.522
223.553
223.499
223.397
223.307
223.242
223.198
223.179
223.18
223.191
223.219
223.254
223.283
223.299
223.295
223.278
223.248
223.228
223.225
223.237
223.273
223.315
223.352
223.385
223.413
223.438
223.461
223.485
223.512
223.541
223.569
223.599
223.629
223.66
223.693
223.726
223.762
223.799
223.84
223.884
223.933
223.987
224.046
224.109
224.176
224.248
224.325
224.407
224.493
224.584
224.68
224.781
224.888
224.999
225.116
225.238
225.365
225.498
225.636
225.779
225.928
226.082
226.241
226.406
226.575
226.751
226.931
227.117
227.307
227.503
227.704
227.911
228.122
228.338
228.559
228.785
229.016
229.252
229.492
229.738
229.987
230.241
230.499
230.761
231.027
231.296
231.568
231.844
232.122
232.403
232.685
232.97
233.255
233.54
233.825
234.108
234.388
234.664
234.935
235.199
235.452
235.694
235.919
236.122
236.3
236.437
236.536
236.58
236.562
236.433
236.202
235.818
235.24
234.432
233.287
231.751
229.464
225.338
222.625
222.734
223.077
223.353
223.457
223.445
223.368
223.279
223.211
223.156
223.119
223.105
223.11
223.137
223.182
223.229
223.264
223.276
223.273
223.258
223.249
223.25
223.265
223.301
223.343
223.381
223.415
223.445
223.471
223.497
223.524
223.553
223.584
223.616
223.649
223.683
223.718
223.754
223.792
223.831
223.872
223.916
223.964
224.017
224.074
224.136
224.202
224.272
224.348
224.428
224.512
224.602
224.696
224.795
224.898
225.008
225.122
225.242
225.367
225.497
225.633
225.774
225.92
226.071
226.228
226.391
226.558
226.732
226.91
227.094
227.283
227.477
227.677
227.882
228.093
228.308
228.529
228.755
228.986
229.222
229.463
229.71
229.961
230.217
230.478
230.744
231.014
231.288
231.566
231.849
232.135
232.425
232.718
233.015
233.314
233.616
233.919
234.224
234.529
234.834
235.138
235.44
235.739
236.032
236.319
236.595
236.858
237.104
237.326
237.52
237.671
237.779
237.821
237.784
237.613
237.292
236.759
235.859
234.632
232.564
225.182
222.447
222.496
222.801
223.155
223.336
223.37
223.328
223.249
223.183
223.127
223.075
223.042
223.034
223.051
223.099
223.163
223.22
223.25
223.261
223.264
223.267
223.275
223.295
223.33
223.37
223.409
223.444
223.475
223.503
223.53
223.56
223.592
223.625
223.66
223.696
223.734
223.772
223.812
223.854
223.897
223.941
223.989
224.041
224.097
224.157
224.222
224.291
224.365
224.443
224.526
224.614
224.706
224.803
224.904
225.011
225.123
225.24
225.362
225.49
225.623
225.762
225.905
226.054
226.209
226.369
226.534
226.705
226.881
227.062
227.249
227.441
227.639
227.843
228.051
228.265
228.485
228.709
228.94
229.175
229.416
229.662
229.913
230.17
230.432
230.699
230.971
231.248
231.529
231.816
232.107
232.402
232.702
233.006
233.314
233.625
233.941
234.259
234.58
234.904
235.229
235.556
235.883
236.21
236.536
236.859
237.178
237.49
237.791
238.08
238.35
238.597
238.809
238.967
239.064
239.082
238.999
238.746
238.157
237.345
235.582
225.038
222.333
222.297
222.531
222.919
223.185
223.273
223.265
223.214
223.156
223.103
223.047
222.997
222.971
222.974
223.013
223.088
223.169
223.221
223.25
223.266
223.283
223.3
223.324
223.358
223.398
223.436
223.472
223.504
223.533
223.562
223.594
223.628
223.665
223.703
223.742
223.782
223.825
223.868
223.913
223.959
224.008
224.059
224.114
224.173
224.237
224.305
224.377
224.454
224.535
224.62
224.711
224.806
224.905
225.01
225.119
225.234
225.353
225.478
225.609
225.744
225.885
226.032
226.183
226.34
226.503
226.671
226.844
227.023
227.207
227.397
227.592
227.793
228
228.211
228.429
228.652
228.88
229.114
229.353
229.598
229.849
230.105
230.366
230.633
230.906
231.183
231.466
231.754
232.047
232.346
232.649
232.957
233.27
233.587
233.91
234.236
234.567
234.902
235.241
235.583
235.928
236.276
236.626
236.977
237.33
237.682
238.032
238.378
238.719
239.048
239.367
239.666
239.938
240.162
240.328
240.441
240.469
240.211
239.813
238.59
224.874
222.237
222.144
222.289
222.665
223.007
223.158
223.191
223.172
223.13
223.082
223.024
222.963
222.922
222.912
222.936
223.014
223.115
223.19
223.239
223.269
223.297
223.324
223.352
223.386
223.425
223.463
223.498
223.53
223.561
223.592
223.626
223.663
223.702
223.743
223.785
223.829
223.875
223.921
223.97
224.019
224.071
224.126
224.184
224.247
224.314
224.385
224.46
224.539
224.623
224.711
224.804
224.902
225.004
225.111
225.223
225.34
225.462
225.59
225.723
225.861
226.004
226.153
226.307
226.467
226.632
226.802
226.978
227.159
227.346
227.538
227.736
227.94
228.149
228.364
228.584
228.811
229.042
229.28
229.523
229.771
230.026
230.286
230.552
230.823
231.1
231.383
231.671
231.964
232.264
232.568
232.878
233.193
233.514
233.84
234.171
234.507
234.849
235.195
235.546
235.902
236.262
236.626
236.995
237.367
237.743
238.122
238.502
238.883
239.264
239.642
240.016
240.381
240.735
241.062
241.356
241.599
241.807
241.912
241.797
241.303
224.67
222.133
222.021
222.093
222.424
222.814
223.038
223.114
223.126
223.106
223.064
223.006
222.936
222.881
222.862
222.876
222.949
223.063
223.161
223.229
223.273
223.311
223.344
223.376
223.411
223.449
223.487
223.522
223.555
223.588
223.621
223.657
223.697
223.738
223.782
223.827
223.874
223.923
223.972
224.024
224.077
224.131
224.189
224.251
224.317
224.387
224.461
224.538
224.62
224.707
224.798
224.894
224.994
225.098
225.208
225.322
225.442
225.566
225.696
225.832
225.972
226.118
226.269
226.425
226.587
226.755
226.927
227.105
227.289
227.479
227.674
227.874
228.08
228.292
228.51
228.733
228.962
229.197
229.438
229.684
229.936
230.194
230.458
230.728
231.004
231.285
231.572
231.865
232.164
232.468
232.779
233.095
233.416
233.744
234.077
234.416
234.761
235.111
235.467
235.828
236.195
236.568
236.946
237.329
237.718
238.112
238.511
238.914
239.321
239.731
240.144
240.557
240.969
241.378
241.777
242.163
242.522
242.86
243.17
243.334
243.408
224.424
222.031
221.912
221.941
222.211
222.623
222.915
223.039
223.079
223.08
223.049
222.99
222.913
222.847
222.821
222.83
222.897
223.019
223.135
223.219
223.277
223.323
223.362
223.398
223.434
223.472
223.509
223.545
223.579
223.613
223.648
223.687
223.729
223.773
223.819
223.867
223.917
223.968
224.021
224.076
224.131
224.189
224.25
224.315
224.384
224.457
224.533
224.614
224.698
224.787
224.881
224.979
225.082
225.189
225.3
225.417
225.539
225.666
225.798
225.936
226.078
226.226
226.38
226.538
226.703
226.872
227.047
227.227
227.413
227.605
227.802
228.005
228.214
228.428
228.649
228.875
229.106
229.344
229.588
229.837
230.093
230.354
230.621
230.895
231.174
231.46
231.751
232.048
232.352
232.661
232.976
233.298
233.625
233.959
234.298
234.644
234.996
235.354
235.718
236.088
236.465
236.847
237.236
237.631
238.032
238.44
238.854
239.274
239.699
240.13
240.566
241.005
241.448
241.892
242.333
242.768
243.186
243.602
243.988
244.29
244.592
224.135
221.934
221.812
221.812
222.028
222.446
222.791
222.963
223.035
223.055
223.032
222.974
222.893
222.819
222.789
222.797
222.861
222.986
223.114
223.212
223.28
223.333
223.377
223.416
223.453
223.491
223.529
223.565
223.601
223.636
223.674
223.715
223.759
223.806
223.855
223.905
223.958
224.012
224.068
224.125
224.183
224.244
224.308
224.376
224.448
224.524
224.603
224.686
224.773
224.864
224.96
225.061
225.165
225.275
225.389
225.508