/*--------------------------------*- C++ -*----------------------------------*\
| =========                 |                                                 |
| \\      /  F ield         | OpenFOAM: The Open Source CFD Toolbox           |
|  \\    /   O peration     | Version:  2412                                  |
|   \\  /    A nd           | Website:  www.openfoam.com                      |
|    \\/     M anipulation  |                                                 |
\*---------------------------------------------------------------------------*/
FoamFile
{
    version     2.0;
    format      ascii;
    arch        "LSB;label=32;scalar=64";
    class       volVectorField;
    location    "0.078";
    object      U;
}
// * * * * * * * * * * * * * * * * * * * * * * * * * * * * * * * * * * * * * //

dimensions      [0 1 -1 0 0 0 0];

internalField   nonuniform List<vector> 
9763
(
(176.744 -30.3419 0)
(166.617 -34.0298 0)
(176.973 -30.3684 0)
(166.108 -33.9044 0)
(177.268 -30.4696 0)
(166.016 -34.0467 0)
(177.625 -30.5311 0)
(166.123 -34.1459 0)
(178.005 -30.641 0)
(166.44 -34.2244 0)
(178.413 -30.7324 0)
(166.969 -34.38 0)
(178.825 -30.8348 0)
(167.648 -34.5115 0)
(179.229 -30.9407 0)
(168.351 -34.6989 0)
(179.618 -31.0284 0)
(169.043 -34.8434 0)
(179.98 -31.1368 0)
(169.694 -35.0287 0)
(180.333 -31.2161 0)
(170.335 -35.1739 0)
(180.666 -31.3279 0)
(170.957 -35.3532 0)
(181.006 -31.4048 0)
(171.584 -35.499 0)
(181.343 -31.5193 0)
(172.199 -35.6767 0)
(181.703 -31.5986 0)
(172.819 -35.823 0)
(182.07 -31.7222 0)
(173.429 -35.9998 0)
(182.473 -31.8079 0)
(174.048 -36.1478 0)
(182.893 -31.9407 0)
(174.665 -36.3286 0)
(183.354 -32.036 0)
(175.306 -36.4822 0)
(183.831 -32.178 0)
(175.958 -36.6732 0)
(184.336 -32.2807 0)
(176.647 -36.8364 0)
(184.835 -32.4244 0)
(177.358 -37.0414 0)
(185.328 -32.5254 0)
(178.11 -37.2158 0)
(185.777 -32.6569 0)
(178.888 -37.4354 0)
(186.181 -32.7432 0)
(179.714 -37.6211 0)
(186.51 -32.849 0)
(180.575 -37.8551 0)
(186.775 -32.9117 0)
(181.495 -38.051 0)
(186.968 -32.9873 0)
(182.455 -38.2952 0)
(187.119 -33.0284 0)
(183.468 -38.4937 0)
(187.235 -33.0828 0)
(184.495 -38.7315 0)
(187.359 -33.1131 0)
(185.521 -38.9125 0)
(187.51 -33.1645 0)
(186.496 -39.1159 0)
(187.734 -33.1976 0)
(187.4 -39.2559 0)
(188.057 -33.2707 0)
(188.205 -39.4039 0)
(188.508 -33.3266 0)
(188.922 -39.4931 0)
(189.057 -33.4254 0)
(189.57 -39.59 0)
(189.675 -33.5029 0)
(190.19 -39.6417 0)
(190.325 -33.6161 0)
(190.812 -39.7083 0)
(191.008 -33.7084 0)
(191.464 -39.7431 0)
(191.719 -33.8313 0)
(192.166 -39.7943 0)
(192.932 -39.8205 0)
(193.763 -39.8585 0)
(194.658 -39.8725 0)
(172.91 105.588 0)
(155.411 23.5974 0)
(168.532 7.27601 0)
(180.638 3.37245 0)
(188.628 -1.22584 0)
(194.595 -3.44136 0)
(197.507 -5.93092 0)
(199.077 -7.65133 0)
(200.083 -8.99103 0)
(201.052 -10.0413 0)
(202.028 -10.881 0)
(202.972 -11.5694 0)
(203.861 -12.1515 0)
(204.702 -12.656 0)
(205.522 -13.1153 0)
(206.357 -13.5374 0)
(207.2 -13.9575 0)
(208.056 -14.3723 0)
(208.914 -14.7937 0)
(209.772 -15.2111 0)
(210.621 -15.6284 0)
(211.459 -16.044 0)
(212.282 -16.4636 0)
(213.093 -16.8865 0)
(213.888 -17.3158 0)
(214.661 -17.7548 0)
(215.411 -18.2074 0)
(216.134 -18.6758 0)
(216.83 -19.1638 0)
(217.495 -19.6767 0)
(218.126 -20.2197 0)
(218.721 -20.7946 0)
(219.277 -21.4004 0)
(219.79 -22.0348 0)
(220.256 -22.6953 0)
(220.672 -23.3795 0)
(221.036 -24.0856 0)
(221.345 -24.8108 0)
(221.599 -25.5503 0)
(221.799 -26.2983 0)
(221.94 -27.0505 0)
(222.025 -27.8024 0)
(222.056 -28.5506 0)
(222.042 -29.2931 0)
(221.973 -30.0339 0)
(221.857 -30.7589 0)
(221.696 -31.4715 0)
(221.493 -32.1703 0)
(221.253 -32.853 0)
(220.977 -33.5187 0)
(220.671 -34.1674 0)
(220.339 -34.7972 0)
(219.978 -35.4062 0)
(219.581 -35.9936 0)
(219.151 -36.5603 0)
(218.729 -37.1129 0)
(218.301 -37.6448 0)
(217.857 -38.2084 0)
(217.117 -38.5883 0)
(216.507 -39.1646 0)
(215.724 -39.6546 0)
(214.777 -39.9305 0)
(213.784 -40.3263 0)
(212.648 -40.6 0)
(211.501 -40.9242 0)
(210.376 -41.2476 0)
(209.278 -41.5625 0)
(208.207 -41.8951 0)
(207.128 -42.1682 0)
(206.069 -42.475 0)
(204.991 -42.7154 0)
(203.923 -42.9899 0)
(202.836 -43.2104 0)
(201.757 -43.4628 0)
(200.663 -43.6733 0)
(199.579 -43.9128 0)
(198.486 -44.1202 0)
(197.399 -44.3453 0)
(196.307 -44.5453 0)
(195.223 -44.74 0)
(194.159 -44.9227 0)
(193.131 -45.1019 0)
(192.149 -45.2807 0)
(191.21 -45.471 0)
(190.29 -45.6509 0)
(189.365 -45.8491 0)
(188.393 -45.9936 0)
(187.398 -46.1797 0)
(186.381 -46.3105 0)
(185.387 -46.4774 0)
(184.41 -46.5789 0)
(183.482 -46.7307 0)
(182.59 -46.8256 0)
(181.762 -46.9932 0)
(180.962 -47.1045 0)
(180.217 -47.2945 0)
(179.472 -47.4237 0)
(178.76 -47.6173 0)
(178.041 -47.758 0)
(177.353 -47.9466 0)
(176.674 -48.0992 0)
(176.037 -48.2962 0)
(175.413 -48.4742 0)
(174.813 -48.6801 0)
(174.207 -48.8838 0)
(173.584 -49.0769 0)
(172.953 -49.2884 0)
(172.296 -49.4709 0)
(171.633 -49.6718 0)
(170.952 -49.8517 0)
(170.295 -50.0641 0)
(169.674 -50.2868 0)
(169.096 -50.543 0)
(168.563 -50.8342 0)
(168.078 -51.1614 0)
(167.667 -51.5414 0)
(167.39 -52.0001 0)
(167.286 -52.5135 0)
(167.198 -52.9889 0)
(167.221 -53.54 0)
(167.037 -53.7009 0)
(173.043 106.161 0)
(155.466 23.903 0)
(168.56 7.25099 0)
(180.661 3.36621 0)
(188.647 -1.22827 0)
(194.613 -3.42806 0)
(197.527 -5.9151 0)
(199.097 -7.63461 0)
(200.102 -8.97412 0)
(201.069 -10.0241 0)
(202.043 -10.8641 0)
(202.987 -11.552 0)
(203.875 -12.1335 0)
(204.715 -12.6367 0)
(205.534 -13.0945 0)
(206.369 -13.5142 0)
(207.211 -13.9316 0)
(208.068 -14.3434 0)
(208.925 -14.7619 0)
(209.784 -15.1766 0)
(210.635 -15.5914 0)
(211.475 -16.0047 0)
(212.301 -16.4218 0)
(213.114 -16.8422 0)
(213.913 -17.269 0)
(214.691 -17.7058 0)
(215.444 -18.1562 0)
(216.173 -18.6224 0)
(216.874 -19.1083 0)
(217.545 -19.6193 0)
(218.182 -20.1603 0)
(218.785 -20.7332 0)
(219.349 -21.3373 0)
(219.871 -21.9708 0)
(220.348 -22.6313 0)
(220.775 -23.3163 0)
(221.15 -24.0237 0)
(221.471 -24.7506 0)
(221.739 -25.4927 0)
(221.951 -26.2442 0)
(222.106 -27.0002 0)
(222.204 -27.7567 0)
(222.249 -28.5106 0)
(222.247 -29.2567 0)
(222.193 -30.004 0)
(222.091 -30.7374 0)
(221.943 -31.4572 0)
(221.753 -32.1642 0)
(221.525 -32.8555 0)
(221.262 -33.5299 0)
(220.968 -34.1872 0)
(220.648 -34.8256 0)
(220.299 -35.444 0)
(219.913 -36.0421 0)
(219.494 -36.6208 0)
(219.079 -37.1816 0)
(218.67 -37.7277 0)
(218.239 -38.2959 0)
(217.52 -38.6893 0)
(216.966 -39.3116 0)
(216.154 -39.7755 0)
(215.23 -40.0868 0)
(214.272 -40.5141 0)
(213.159 -40.7974 0)
(212.036 -41.1488 0)
(210.924 -41.4801 0)
(209.841 -41.824 0)
(208.777 -42.1725 0)
(207.71 -42.4792 0)
(206.662 -42.8144 0)
(205.597 -43.096 0)
(204.543 -43.4102 0)
(203.471 -43.6784 0)
(202.407 -43.9768 0)
(201.332 -44.2364 0)
(200.269 -44.5224 0)
(199.199 -44.7718 0)
(198.138 -45.0423 0)
(197.065 -45.281 0)
(195.999 -45.5256 0)
(194.946 -45.7566 0)
(193.931 -45.9941 0)
(192.964 -46.2333 0)
(192.051 -46.49 0)
(191.171 -46.7485 0)
(190.3 -47.0208 0)
(189.396 -47.2684 0)
(188.47 -47.5495 0)
(187.492 -47.7791 0)
(186.512 -48.0432 0)
(185.528 -48.2522 0)
(184.591 -48.5084 0)
(183.686 -48.7148 0)
(182.857 -48.9885 0)
(182.058 -49.2098 0)
(181.333 -49.5101 0)
(180.603 -49.7463 0)
(179.922 -50.0512 0)
(179.22 -50.2938 0)
(178.556 -50.5835 0)
(177.895 -50.8276 0)
(177.295 -51.1173 0)
(176.711 -51.3751 0)
(176.176 -51.6656 0)
(175.64 -51.9384 0)
(175.094 -52.1943 0)
(174.547 -52.4638 0)
(173.965 -52.6718 0)
(173.401 -52.9292 0)
(172.806 -53.0967 0)
(172.242 -53.3178 0)
(171.72 -53.5052 0)
(171.266 -53.7193 0)
(170.874 -53.9285 0)
(170.545 -54.1444 0)
(170.279 -54.3588 0)
(170.084 -54.5699 0)
(169.963 -54.7725 0)
(169.875 -54.951 0)
(169.875 -55.1639 0)
(169.976 -55.3309 0)
(173.187 106.345 0)
(155.521 23.9328 0)
(168.603 7.24549 0)
(180.688 3.37389 0)
(188.67 -1.21072 0)
(194.634 -3.41353 0)
(197.548 -5.90027 0)
(199.117 -7.61967 0)
(200.12 -8.95858 0)
(201.087 -10.0083 0)
(202.06 -10.8481 0)
(203.002 -11.5354 0)
(203.89 -12.1163 0)
(204.729 -12.6182 0)
(205.548 -13.0744 0)
(206.381 -13.492 0)
(207.223 -13.9069 0)
(208.079 -14.3162 0)
(208.937 -14.7322 0)
(209.797 -15.1447 0)
(210.65 -15.5575 0)
(211.492 -15.9691 0)
(212.32 -16.3843 0)
(213.136 -16.8028 0)
(213.938 -17.228 0)
(214.721 -17.6633 0)
(215.479 -18.1124 0)
(216.213 -18.5775 0)
(216.921 -19.0625 0)
(217.599 -19.573 0)
(218.245 -20.1138 0)
(218.855 -20.6868 0)
(219.429 -21.2917 0)
(219.962 -21.9267 0)
(220.45 -22.5893 0)
(220.888 -23.2773 0)
(221.276 -23.9883 0)
(221.611 -24.7198 0)
(221.891 -25.4672 0)
(222.117 -26.2251 0)
(222.285 -26.9887 0)
(222.397 -27.7537 0)
(222.455 -28.5157 0)
(222.463 -29.2715 0)
(222.422 -30.0257 0)
(222.333 -30.7717 0)
(222.196 -31.5016 0)
(222.017 -32.2188 0)
(221.799 -32.9207 0)
(221.546 -33.6057 0)
(221.262 -34.2735 0)
(220.951 -34.9225 0)
(220.612 -35.5521 0)
(220.235 -36.1621 0)
(219.824 -36.7523 0)
(219.416 -37.325 0)
(219.022 -37.8861 0)
(218.599 -38.4643 0)
(217.897 -38.8789 0)
(217.389 -39.5223 0)
(216.559 -39.9737 0)
(215.644 -40.333 0)
(214.706 -40.7825 0)
(213.613 -41.0771 0)
(212.517 -41.4458 0)
(211.423 -41.7797 0)
(210.361 -42.1424 0)
(209.31 -42.4935 0)
(208.26 -42.8192 0)
(207.228 -43.1663 0)
(206.183 -43.4729 0)
(205.15 -43.8071 0)
(204.103 -44.1016 0)
(203.067 -44.4196 0)
(202.025 -44.7014 0)
(200.998 -45.0043 0)
(199.965 -45.2725 0)
(198.939 -45.5645 0)
(197.896 -45.823 0)
(196.858 -46.1024 0)
(195.824 -46.362 0)
(194.826 -46.642 0)
(193.869 -46.9107 0)
(192.975 -47.2077 0)
(192.112 -47.4929 0)
(191.275 -47.7924 0)
(190.421 -48.0718 0)
(189.553 -48.3638 0)
(188.64 -48.6063 0)
(187.729 -48.8784 0)
(186.811 -49.1023 0)
(185.94 -49.3705 0)
(185.102 -49.5945 0)
(184.345 -49.8789 0)
(183.619 -50.1142 0)
(182.974 -50.4219 0)
(182.321 -50.6658 0)
(181.722 -50.9783 0)
(181.09 -51.2245 0)
(180.492 -51.5197 0)
(179.887 -51.7647 0)
(179.339 -52.058 0)
(178.799 -52.3073 0)
(178.316 -52.5983 0)
(177.817 -52.8473 0)
(177.319 -53.0965 0)
(176.801 -53.3289 0)
(176.256 -53.5214 0)
(175.706 -53.7308 0)
(175.127 -53.872 0)
(174.568 -54.0505 0)
(174.038 -54.1968 0)
(173.56 -54.3688 0)
(173.126 -54.5305 0)
(172.735 -54.7004 0)
(172.372 -54.8661 0)
(172.035 -55.0258 0)
(171.737 -55.1879 0)
(171.503 -55.3536 0)
(171.384 -55.5764 0)
(171.406 -55.8198 0)
(173.291 106.482 0)
(155.529 23.8979 0)
(168.642 7.23753 0)
(180.713 3.38433 0)
(188.689 -1.19628 0)
(194.652 -3.39705 0)
(197.567 -5.88456 0)
(199.136 -7.60424 0)
(200.138 -8.94309 0)
(201.102 -9.99242 0)
(202.074 -10.8321 0)
(203.016 -11.5189 0)
(203.903 -12.0992 0)
(204.742 -12.6001 0)
(205.559 -13.0549 0)
(206.392 -13.4704 0)
(207.233 -13.883 0)
(208.089 -14.2899 0)
(208.947 -14.7037 0)
(209.808 -15.114 0)
(210.662 -15.5248 0)
(211.506 -15.9346 0)
(212.336 -16.348 0)
(213.155 -16.7645 0)
(213.96 -17.1878 0)
(214.746 -17.6214 0)
(215.509 -18.0688 0)
(216.247 -18.5323 0)
(216.96 -19.0157 0)
(217.644 -19.5246 0)
(218.296 -20.0639 0)
(218.913 -20.6355 0)
(219.495 -21.2393 0)
(220.037 -21.8737 0)
(220.534 -22.5363 0)
(220.984 -23.2247 0)
(221.383 -23.9366 0)
(221.73 -24.6694 0)
(222.024 -25.4189 0)
(222.263 -26.1796 0)
(222.445 -26.9467 0)
(222.571 -27.7157 0)
(222.644 -28.4825 0)
(222.665 -29.2447 0)
(222.638 -30.001 0)
(222.564 -30.7562 0)
(222.442 -31.4937 0)
(222.276 -32.2182 0)
(222.072 -32.9283 0)
(221.831 -33.6216 0)
(221.56 -34.2977 0)
(221.262 -34.9557 0)
(220.935 -35.595 0)
(220.571 -36.2154 0)
(220.172 -36.8161 0)
(219.774 -37.3975 0)
(219.399 -37.969 0)
(218.989 -38.5517 0)
(218.31 -38.9823 0)
(217.842 -39.6426 0)
(217.008 -40.0804 0)
(216.121 -40.4804 0)
(215.2 -40.9485 0)
(214.126 -41.2592 0)
(213.052 -41.6515 0)
(211.974 -41.9964 0)
(210.934 -42.3807 0)
(209.898 -42.7313 0)
(208.874 -43.0726 0)
(207.864 -43.4259 0)
(206.845 -43.7566 0)
(205.834 -44.1142 0)
(204.806 -44.4462 0)
(203.786 -44.7983 0)
(202.76 -45.1182 0)
(201.752 -45.45 0)
(200.744 -45.7469 0)
(199.75 -46.0613 0)
(198.742 -46.3405 0)
(197.743 -46.6446 0)
(196.744 -46.9213 0)
(195.78 -47.2256 0)
(194.852 -47.5028 0)
(193.996 -47.8215 0)
(193.168 -48.1078 0)
(192.384 -48.4311 0)
(191.582 -48.7314 0)
(190.764 -49.0439 0)
(189.902 -49.3219 0)
(189.034 -49.6281 0)
(188.15 -49.8903 0)
(187.308 -50.1931 0)
(186.495 -50.4532 0)
(185.761 -50.7668 0)
(185.063 -51.0317 0)
(184.452 -51.3616 0)
(183.839 -51.6258 0)
(183.289 -51.9551 0)
(182.702 -52.2112 0)
(182.151 -52.5149 0)
(181.585 -52.762 0)
(181.074 -53.0573 0)
(180.563 -53.3008 0)
(180.113 -53.5918 0)
(179.638 -53.8258 0)
(179.17 -54.075 0)
(178.669 -54.2766 0)
(178.151 -54.4697 0)
(177.608 -54.6393 0)
(177.05 -54.7631 0)
(176.506 -54.9065 0)
(175.994 -55.0278 0)
(175.53 -55.1655 0)
(175.114 -55.2968 0)
(174.747 -55.4404 0)
(174.416 -55.5811 0)
(174.121 -55.7323 0)
(173.857 -55.8812 0)
(173.651 -56.0546 0)
(173.517 -56.2533 0)
(173.502 -56.5027 0)
(173.372 106.623 0)
(155.549 23.8672 0)
(168.682 7.22857 0)
(180.739 3.38971 0)
(188.71 -1.18707 0)
(194.672 -3.38386 0)
(197.588 -5.87094 0)
(199.155 -7.59043 0)
(200.155 -8.92871 0)
(201.119 -9.97774 0)
(202.089 -10.8174 0)
(203.03 -11.5036 0)
(203.917 -12.0833 0)
(204.755 -12.5831 0)
(205.571 -13.0364 0)
(206.403 -13.45 0)
(207.244 -13.8604 0)
(208.1 -14.2649 0)
(208.958 -14.6764 0)
(209.82 -15.0845 0)
(210.675 -15.4936 0)
(211.521 -15.9017 0)
(212.354 -16.3133 0)
(213.175 -16.728 0)
(213.983 -17.1497 0)
(214.773 -17.5819 0)
(215.54 -18.0281 0)
(216.284 -18.4904 0)
(217.003 -18.9728 0)
(217.693 -19.4811 0)
(218.352 -20.0201 0)
(218.978 -20.5917 0)
(219.568 -21.1959 0)
(220.119 -21.8313 0)
(220.627 -22.4956 0)
(221.088 -23.1864 0)
(221.499 -23.9014 0)
(221.859 -24.638 0)
(222.165 -25.392 0)
(222.416 -26.1582 0)
(222.612 -26.9318 0)
(222.751 -27.7079 0)
(222.836 -28.4822 0)
(222.868 -29.2523 0)
(222.854 -30.0158 0)
(222.792 -30.7795 0)
(222.682 -31.5275 0)
(222.527 -32.2611 0)
(222.333 -32.9805 0)
(222.103 -33.6836 0)
(221.841 -34.3694 0)
(221.552 -35.0371 0)
(221.235 -35.6866 0)
(220.88 -36.317 0)
(220.492 -36.927 0)
(220.101 -37.5172 0)
(219.74 -38.1007 0)
(219.34 -38.6927 0)
(218.679 -39.1433 0)
(218.246 -39.8151 0)
(217.414 -40.2439 0)
(216.549 -40.6827 0)
(215.636 -41.1613 0)
(214.577 -41.4871 0)
(213.524 -41.9029 0)
(212.457 -42.2687 0)
(211.431 -42.6845 0)
(210.404 -43.0507 0)
(209.399 -43.419 0)
(208.409 -43.7799 0)
(207.42 -44.1238 0)
(206.438 -44.4816 0)
(205.445 -44.8219 0)
(204.454 -45.1783 0)
(203.457 -45.5132 0)
(202.475 -45.859 0)
(201.495 -46.1801 0)
(200.531 -46.5175 0)
(199.556 -46.8261 0)
(198.59 -47.1596 0)
(197.619 -47.4634 0)
(196.678 -47.7942 0)
(195.768 -48.0899 0)
(194.932 -48.4318 0)
(194.124 -48.7241 0)
(193.383 -49.0745 0)
(192.623 -49.3786 0)
(191.862 -49.7011 0)
(191.064 -49.9909 0)
(190.256 -50.2984 0)
(189.431 -50.5608 0)
(188.644 -50.8596 0)
(187.882 -51.1171 0)
(187.197 -51.4254 0)
(186.547 -51.6887 0)
(185.983 -52.0139 0)
(185.421 -52.2769 0)
(184.926 -52.604 0)
(184.392 -52.8579 0)
(183.895 -53.161 0)
(183.376 -53.4073 0)
(182.908 -53.7021 0)
(182.434 -53.9462 0)
(182.02 -54.2387 0)
(181.574 -54.4772 0)
(181.132 -54.7294 0)
(180.651 -54.9314 0)
(180.151 -55.1486 0)
(179.605 -55.2805 0)
(179.058 -55.4498 0)
(178.519 -55.5719 0)
(178.013 -55.7193 0)
(177.548 -55.8492 0)
(177.135 -55.9942 0)
(176.771 -56.1383 0)
(176.453 -56.2897 0)
(176.171 -56.4426 0)
(175.924 -56.5952 0)
(175.724 -56.7612 0)
(175.601 -56.9507 0)
(175.574 -57.1853 0)
(173.453 106.774 0)
(155.57 23.8375 0)
(168.721 7.21877 0)
(180.764 3.39814 0)
(188.729 -1.17408 0)
(194.69 -3.36831 0)
(197.606 -5.85591 0)
(199.173 -7.57567 0)
(200.172 -8.9139 0)
(201.134 -9.96261 0)
(202.103 -10.8022 0)
(203.044 -11.488 0)
(203.929 -12.0672 0)
(204.767 -12.5658 0)
(205.582 -13.0179 0)
(206.413 -13.4296 0)
(207.253 -13.8378 0)
(208.109 -14.24 0)
(208.968 -14.6493 0)
(209.83 -15.0554 0)
(210.687 -15.4625 0)
(211.534 -15.8689 0)
(212.369 -16.2787 0)
(213.193 -16.6916 0)
(214.004 -17.1114 0)
(214.797 -17.5418 0)
(215.568 -17.9864 0)
(216.316 -18.4471 0)
(217.039 -18.928 0)
(217.735 -19.4348 0)
(218.4 -19.9722 0)
(219.032 -20.5425 0)
(219.63 -21.1456 0)
(220.19 -21.7803 0)
(220.707 -22.4445 0)
(221.179 -23.1356 0)
(221.601 -23.8515 0)
(221.973 -24.5894 0)
(222.291 -25.3453 0)
(222.556 -26.1143 0)
(222.765 -26.8913 0)
(222.918 -27.6714 0)
(223.017 -28.4506 0)
(223.063 -29.2258 0)
(223.061 -29.9951 0)
(223.012 -30.7624 0)
(222.918 -31.5201 0)
(222.776 -32.2609 0)
(222.595 -32.9878 0)
(222.377 -33.6988 0)
(222.128 -34.3926 0)
(221.851 -35.0683 0)
(221.546 -35.7258 0)
(221.204 -36.3642 0)
(220.827 -36.9819 0)
(220.446 -37.5795 0)
(220.101 -38.1734 0)
(219.713 -38.7734 0)
(219.074 -39.2433 0)
(218.667 -39.9214 0)
(217.844 -40.3372 0)
(217.014 -40.8071 0)
(216.11 -41.2863 0)
(215.07 -41.6176 0)
(214.044 -42.0468 0)
(212.997 -42.4253 0)
(211.993 -42.8693 0)
(210.978 -43.2553 0)
(209.991 -43.6616 0)
(209.012 -44.0439 0)
(208.042 -44.4177 0)
(207.076 -44.7894 0)
(206.105 -45.1483 0)
(205.134 -45.5125 0)
(204.159 -45.8621 0)
(203.197 -46.2183 0)
(202.244 -46.5602 0)
(201.306 -46.9161 0)
(200.364 -47.2501 0)
(199.43 -47.6033 0)
(198.488 -47.924 0)
(197.573 -48.2628 0)
(196.685 -48.5631 0)
(195.871 -48.9074 0)
(195.089 -49.1984 0)
(194.389 -49.5675 0)
(193.658 -49.8725 0)
(192.943 -50.2221 0)
(192.184 -50.5399 0)
(191.407 -50.8692 0)
(190.609 -51.1568 0)
(189.845 -51.4765 0)
(189.103 -51.7548 0)
(188.437 -52.079 0)
(187.808 -52.3579 0)
(187.269 -52.6935 0)
(186.736 -52.9673 0)
(186.276 -53.3016 0)
(185.779 -53.561 0)
(185.325 -53.8688 0)
(184.846 -54.1155 0)
(184.418 -54.4089 0)
(183.98 -54.6482 0)
(183.603 -54.9365 0)
(183.192 -55.1719 0)
(182.78 -55.4067 0)
(182.34 -55.6254 0)
(181.853 -55.7958 0)
(181.336 -55.9524 0)
(180.815 -56.0947 0)
(180.303 -56.2273 0)
(179.821 -56.3602 0)
(179.379 -56.4926 0)
(178.987 -56.6326 0)
(178.647 -56.7782 0)
(178.354 -56.9323 0)
(178.098 -57.0879 0)
(177.875 -57.2513 0)
(177.682 -57.4052 0)
(177.589 -57.6152 0)
(177.63 -57.8125 0)
(173.519 106.919 0)
(155.591 23.807 0)
(168.762 7.20982 0)
(180.79 3.40434 0)
(188.751 -1.16419 0)
(194.71 -3.35515 0)
(197.626 -5.84242 0)
(199.192 -7.56201 0)
(200.189 -8.8997 0)
(201.15 -9.94811 0)
(202.118 -10.7876 0)
(203.058 -11.4729 0)
(203.942 -12.0515 0)
(204.78 -12.5491 0)
(205.594 -12.9998 0)
(206.425 -13.4095 0)
(207.264 -13.8155 0)
(208.119 -14.2153 0)
(208.978 -14.6224 0)
(209.841 -15.0264 0)
(210.699 -15.4317 0)
(211.549 -15.8364 0)
(212.386 -16.2445 0)
(213.212 -16.6556 0)
(214.026 -17.0738 0)
(214.823 -17.5028 0)
(215.599 -17.946 0)
(216.352 -18.4055 0)
(217.08 -18.8854 0)
(217.782 -19.3915 0)
(218.454 -19.9284 0)
(219.095 -20.4985 0)
(219.701 -21.1018 0)
(220.271 -21.7373 0)
(220.798 -22.4029 0)
(221.281 -23.096 0)
(221.715 -23.8145 0)
(222.099 -24.5558 0)
(222.43 -25.3159 0)
(222.708 -26.0899 0)
(222.93 -26.8727 0)
(223.096 -27.6595 0)
(223.208 -28.4456 0)
(223.267 -29.228 0)
(223.276 -30.0063 0)
(223.24 -30.7779 0)
(223.158 -31.5468 0)
(223.028 -32.2973 0)
(222.858 -33.033 0)
(222.651 -33.7531 0)
(222.412 -34.4559 0)
(222.145 -35.1406 0)
(221.85 -35.8072 0)
(221.519 -36.4548 0)
(221.152 -37.0818 0)
(220.78 -37.6891 0)
(220.448 -38.2958 0)
(220.071 -38.9071 0)
(219.45 -39.3983 0)
(219.065 -40.0842 0)
(218.253 -40.5002 0)
(217.452 -41.0075 0)
(216.551 -41.4875 0)
(215.529 -41.8267 0)
(214.53 -42.2634 0)
(213.507 -42.6452 0)
(212.527 -43.1025 0)
(211.526 -43.4989 0)
(210.558 -43.9347 0)
(209.589 -44.3363 0)
(208.634 -44.7404 0)
(207.682 -45.1273 0)
(206.733 -45.5028 0)
(205.785 -45.8685 0)
(204.841 -46.2236 0)
(203.908 -46.5799 0)
(202.988 -46.9349 0)
(202.082 -47.3037 0)
(201.173 -47.6614 0)
(200.268 -48.0344 0)
(199.348 -48.3774 0)
(198.446 -48.7296 0)
(197.568 -49.0457 0)
(196.761 -49.395 0)
(195.994 -49.693 0)
(195.321 -50.0679 0)
(194.62 -50.3617 0)
(193.957 -50.7244 0)
(193.24 -51.0393 0)
(192.499 -51.3601 0)
(191.736 -51.6405 0)
(191.002 -51.9493 0)
(190.284 -52.2174 0)
(189.638 -52.5301 0)
(189.028 -52.7994 0)
(188.505 -53.1251 0)
(187.99 -53.3913 0)
(187.55 -53.7192 0)
(187.075 -53.9721 0)
(186.645 -54.2764 0)
(186.186 -54.5165 0)
(185.776 -54.8059 0)
(185.353 -55.0374 0)
(184.995 -55.3282 0)
(184.592 -55.5518 0)
(184.197 -55.7968 0)
(183.758 -56.0055 0)
(183.276 -56.1724 0)
(182.769 -56.3376 0)
(182.252 -56.4779 0)
(181.746 -56.618 0)
(181.267 -56.7522 0)
(180.83 -56.8922 0)
(180.442 -57.0373 0)
(180.108 -57.1925 0)
(179.823 -57.3535 0)
(179.579 -57.5246 0)
(179.361 -57.6952 0)
(179.164 -57.8702 0)
(179.001 -58.0558 0)
(179.002 -58.2989 0)
(173.6 107.047 0)
(155.612 23.7707 0)
(168.803 7.20076 0)
(180.816 3.41148 0)
(188.771 -1.15172 0)
(194.728 -3.33964 0)
(197.645 -5.82722 0)
(199.21 -7.54708 0)
(200.206 -8.88471 0)
(201.165 -9.93281 0)
(202.132 -10.7723 0)
(203.071 -11.4571 0)
(203.955 -12.0352 0)
(204.792 -12.5318 0)
(205.605 -12.9811 0)
(206.435 -13.3889 0)
(207.274 -13.7928 0)
(208.129 -14.1902 0)
(208.988 -14.595 0)
(209.852 -14.9969 0)
(210.711 -15.4003 0)
(211.562 -15.8032 0)
(212.401 -16.2095 0)
(213.23 -16.6187 0)
(214.047 -17.0349 0)
(214.846 -17.4621 0)
(215.626 -17.9036 0)
(216.383 -18.3615 0)
(217.117 -18.8397 0)
(217.824 -19.3441 0)
(218.502 -19.8795 0)
(219.149 -20.448 0)
(219.764 -21.0501 0)
(220.341 -21.6848 0)
(220.879 -22.3501 0)
(221.372 -23.0434 0)
(221.818 -23.7627 0)
(222.214 -24.5052 0)
(222.559 -25.2672 0)
(222.85 -26.0439 0)
(223.086 -26.8302 0)
(223.266 -27.6211 0)
(223.393 -28.412 0)
(223.466 -29.2 0)
(223.489 -29.9835 0)
(223.467 -30.7608 0)
(223.399 -31.5357 0)
(223.285 -32.2956 0)
(223.128 -33.0387 0)
(222.934 -33.7665 0)
(222.708 -34.4771 0)
(222.454 -35.1698 0)
(222.171 -35.8446 0)
(221.853 -36.5008 0)
(221.499 -37.1367 0)
(221.137 -37.7532 0)
(220.821 -38.3706 0)
(220.459 -38.99 0)
(219.861 -39.4992 0)
(219.494 -40.1882 0)
(218.698 -40.6015 0)
(217.937 -41.1451 0)
(217.035 -41.6263 0)
(216.028 -41.9788 0)
(215.054 -42.4252 0)
(214.057 -42.809 0)
(213.105 -43.2724 0)
(212.126 -43.6678 0)
(211.187 -44.12 0)
(210.236 -44.5315 0)
(209.303 -44.9645 0)
(208.364 -45.3728 0)
(207.431 -45.7791 0)
(206.494 -46.1642 0)
(205.568 -46.5429 0)
(204.656 -46.9127 0)
(203.767 -47.2886 0)
(202.892 -47.6692 0)
(202.019 -48.0444 0)
(201.146 -48.426 0)
(200.255 -48.779 0)
(199.374 -49.1323 0)
(198.516 -49.4561 0)
(197.722 -49.8031 0)
(196.975 -50.1116 0)
(196.321 -50.49 0)
(195.647 -50.7882 0)
(195.034 -51.1806 0)
(194.344 -51.5073 0)
(193.627 -51.8412 0)
(192.885 -52.1369 0)
(192.166 -52.4543 0)
(191.46 -52.7301 0)
(190.822 -53.0452 0)
(190.22 -53.316 0)
(189.705 -53.6398 0)
(189.201 -53.9044 0)
(188.775 -54.2291 0)
(188.316 -54.4778 0)
(187.906 -54.7774 0)
(187.464 -55.0091 0)
(187.071 -55.289 0)
(186.663 -55.5085 0)
(186.322 -55.7909 0)
(185.932 -55.9967 0)
(185.557 -56.2427 0)
(185.121 -56.4194 0)
(184.655 -56.5969 0)
(184.156 -56.7384 0)
(183.65 -56.8816 0)
(183.151 -57.0053 0)
(182.681 -57.1372 0)
(182.253 -57.2678 0)
(181.876 -57.4098 0)
(181.553 -57.5591 0)
(181.281 -57.7182 0)
(181.056 -57.8854 0)
(180.865 -58.0594 0)
(180.693 -58.2403 0)
(180.52 -58.4223 0)
(180.406 -58.6831 0)
(173.67 107.176 0)
(155.635 23.7367 0)
(168.845 7.19164 0)
(180.843 3.41759 0)
(188.794 -1.14161 0)
(194.749 -3.32619 0)
(197.666 -5.81345 0)
(199.23 -7.53313 0)
(200.224 -8.87021 0)
(201.182 -9.91798 0)
(202.147 -10.7574 0)
(203.086 -11.4417 0)
(203.969 -12.0193 0)
(204.805 -12.5147 0)
(205.618 -12.9627 0)
(206.447 -13.3686 0)
(207.285 -13.7701 0)
(208.14 -14.1651 0)
(208.999 -14.5676 0)
(209.863 -14.9674 0)
(210.724 -15.3688 0)
(211.577 -15.7699 0)
(212.418 -16.1745 0)
(213.25 -16.5819 0)
(214.069 -16.9963 0)
(214.873 -17.4219 0)
(215.657 -17.862 0)
(216.419 -18.3186 0)
(217.159 -18.7957 0)
(217.872 -19.2992 0)
(218.557 -19.834 0)
(219.213 -20.4021 0)
(219.836 -21.0042 0)
(220.423 -21.6394 0)
(220.971 -22.3058 0)
(221.476 -23.0009 0)
(221.934 -23.7226 0)
(222.343 -24.4682 0)
(222.701 -25.2341 0)
(223.006 -26.0156 0)
(223.256 -26.8075 0)
(223.45 -27.6047 0)
(223.59 -28.4026 0)
(223.677 -29.1978 0)
(223.714 -29.989 0)
(223.703 -30.7746 0)
(223.649 -31.555 0)
(223.549 -32.3269 0)
(223.404 -33.0793 0)
(223.222 -33.8161 0)
(223.008 -34.5359 0)
(222.765 -35.238 0)
(222.493 -35.9226 0)
(222.186 -36.589 0)
(221.843 -37.2348 0)
(221.49 -37.8608 0)
(221.188 -38.4882 0)
(220.841 -39.1151 0)
(220.264 -39.641 0)
(219.913 -40.3341 0)
(219.133 -40.7564 0)
(218.408 -41.3374 0)
(217.502 -41.821 0)
(216.507 -42.1954 0)
(215.556 -42.66 0)
(214.582 -43.0583 0)
(213.658 -43.5333 0)
(212.703 -43.9295 0)
(211.794 -44.3866 0)
(210.867 -44.7918 0)
(209.965 -45.2318 0)
(209.049 -45.6412 0)
(208.14 -46.0614 0)
(207.223 -46.4576 0)
(206.318 -46.8579 0)
(205.428 -47.2447 0)
(204.569 -47.6461 0)
(203.723 -48.0413 0)
(202.887 -48.4376 0)
(202.044 -48.8314 0)
(201.181 -49.2006 0)
(200.32 -49.5631 0)
(199.479 -49.9028 0)
(198.695 -50.2512 0)
(197.967 -50.5732 0)
(197.331 -50.9428 0)
(196.694 -51.2436 0)
(196.139 -51.6454 0)
(195.487 -51.9603 0)
(194.809 -52.2885 0)
(194.101 -52.5794 0)
(193.408 -52.8868 0)
(192.726 -53.1545 0)
(192.106 -53.4582 0)
(191.522 -53.7205 0)
(191.023 -54.0346 0)
(190.538 -54.2932 0)
(190.133 -54.6116 0)
(189.697 -54.8554 0)
(189.313 -55.1505 0)
(188.896 -55.3769 0)
(188.528 -55.6503 0)
(188.145 -55.8647 0)
(187.832 -56.1404 0)
(187.469 -56.3425 0)
(187.123 -56.5835 0)
(186.713 -56.7519 0)
(186.279 -56.9397 0)
(185.805 -57.073 0)
(185.325 -57.2179 0)
(184.85 -57.3352 0)
(184.406 -57.4645 0)
(184.003 -57.5901 0)
(183.652 -57.7261 0)
(183.356 -57.8697 0)
(183.111 -58.0194 0)
(182.917 -58.177 0)
(182.766 -58.3403 0)
(182.648 -58.5026 0)
(182.623 -58.7255 0)
(182.461 -58.8497 0)
(173.743 107.302 0)
(155.66 23.7048 0)
(168.888 7.18213 0)
(180.87 3.42434 0)
(188.814 -1.12919 0)
(194.768 -3.3105 0)
(197.686 -5.79794 0)
(199.248 -7.51787 0)
(200.241 -8.8549 0)
(201.198 -9.90235 0)
(202.162 -10.7417 0)
(203.1 -11.4256 0)
(203.982 -12.0026 0)
(204.817 -12.497 0)
(205.629 -12.9436 0)
(206.457 -13.3476 0)
(207.295 -13.7469 0)
(208.149 -14.1395 0)
(209.009 -14.5397 0)
(209.874 -14.9372 0)
(210.736 -15.3366 0)
(211.59 -15.7358 0)
(212.434 -16.1385 0)
(213.268 -16.544 0)
(214.09 -16.9564 0)
(214.897 -17.3801 0)
(215.684 -17.8184 0)
(216.451 -18.2731 0)
(217.196 -18.7485 0)
(217.915 -19.2503 0)
(218.606 -19.7833 0)
(219.268 -20.3498 0)
(219.899 -20.9505 0)
(220.496 -21.5847 0)
(221.053 -22.2506 0)
(221.569 -22.9458 0)
(222.04 -23.668 0)
(222.462 -24.4148 0)
(222.833 -25.1825 0)
(223.152 -25.9666 0)
(223.417 -26.762 0)
(223.627 -27.5634 0)
(223.782 -28.3662 0)
(223.884 -29.1669 0)
(223.936 -29.9637 0)
(223.939 -30.7561 0)
(223.899 -31.5406 0)
(223.815 -32.3218 0)
(223.686 -33.0829 0)
(223.518 -33.8273 0)
(223.317 -34.5552 0)
(223.088 -35.2659 0)
(222.83 -35.9592 0)
(222.538 -36.6344 0)
(222.208 -37.2883 0)
(221.866 -37.921 0)
(221.579 -38.5546 0)
(221.249 -39.1841 0)
(220.698 -39.7229 0)
(220.36 -40.4166 0)
(219.601 -40.8438 0)
(218.921 -41.4554 0)
(218.016 -41.9363 0)
(217.038 -42.3326 0)
(216.111 -42.8149 0)
(215.16 -43.2318 0)
(214.259 -43.7259 0)
(213.323 -44.1339 0)
(212.44 -44.606 0)
(211.535 -45.014 0)
(210.664 -45.4639 0)
(209.775 -45.8718 0)
(208.896 -46.3008 0)
(208.003 -46.7041 0)
(207.123 -47.1242 0)
(206.254 -47.5304 0)
(205.42 -47.9589 0)
(204.599 -48.3687 0)
(203.796 -48.7853 0)
(202.983 -49.1871 0)
(202.153 -49.5669 0)
(201.32 -49.9341 0)
(200.504 -50.2857 0)
(199.736 -50.636 0)
(199.03 -50.9771 0)
(198.404 -51.3442 0)
(197.804 -51.6709 0)
(197.293 -52.0878 0)
(196.674 -52.406 0)
(196.031 -52.7458 0)
(195.352 -53.0461 0)
(194.68 -53.3571 0)
(194.015 -53.6294 0)
(193.41 -53.9322 0)
(192.841 -54.1963 0)
(192.355 -54.5082 0)
(191.888 -54.7673 0)
(191.5 -55.0821 0)
(191.086 -55.3233 0)
(190.725 -55.6138 0)
(190.331 -55.834 0)
(189.986 -56.0988 0)
(189.628 -56.3039 0)
(189.339 -56.568 0)
(189.005 -56.7582 0)
(188.688 -56.9861 0)
(188.312 -57.1568 0)
(187.901 -57.326 0)
(187.451 -57.4549 0)
(186.989 -57.5812 0)
(186.531 -57.6876 0)
(186.101 -57.7988 0)
(185.712 -57.9083 0)
(185.375 -58.0243 0)
(185.092 -58.1488 0)
(184.857 -58.2744 0)
(184.671 -58.4113 0)
(184.524 -58.5438 0)
(184.434 -58.6998 0)
(184.432 -58.8825 0)
(184.342 -59.0027 0)
(173.812 107.43 0)
(155.685 23.6711 0)
(168.932 7.1723 0)
(180.898 3.43044 0)
(188.838 -1.1189 0)
(194.79 -3.29684 0)
(197.708 -5.78396 0)
(199.269 -7.50369 0)
(200.259 -8.84016 0)
(201.215 -9.88725 0)
(202.178 -10.7266 0)
(203.115 -11.41 0)
(203.996 -11.9864 0)
(204.831 -12.4797 0)
(205.642 -12.925 0)
(206.469 -13.3269 0)
(207.306 -13.7239 0)
(208.16 -14.114 0)
(209.02 -14.5118 0)
(209.886 -14.9072 0)
(210.749 -15.3045 0)
(211.605 -15.7019 0)
(212.451 -16.1028 0)
(213.288 -16.5064 0)
(214.113 -16.917 0)
(214.924 -17.339 0)
(215.715 -17.7757 0)
(216.488 -18.2291 0)
(217.238 -18.7032 0)
(217.963 -19.2041 0)
(218.662 -19.7363 0)
(219.332 -20.3022 0)
(219.972 -20.9027 0)
(220.578 -21.5371 0)
(221.147 -22.2039 0)
(221.675 -22.9005 0)
(222.158 -23.6249 0)
(222.593 -24.3745 0)
(222.979 -25.1459 0)
(223.312 -25.9345 0)
(223.592 -26.7353 0)
(223.816 -27.5429 0)
(223.986 -28.3525 0)
(224.103 -29.1604 0)
(224.168 -29.9649 0)
(224.186 -30.7648 0)
(224.158 -31.5571 0)
(224.087 -32.3462 0)
(223.973 -33.1188 0)
(223.818 -33.8724 0)
(223.63 -34.6095 0)
(223.413 -35.3296 0)
(223.167 -36.0323 0)
(222.888 -36.7167 0)
(222.57 -37.3792 0)
(222.238 -38.0201 0)
(221.964 -38.6619 0)
(221.651 -39.2973 0)
(221.125 -39.8509 0)
(220.8 -40.5475 0)
(220.062 -40.9878 0)
(219.422 -41.6237 0)
(218.521 -42.0975 0)
(217.561 -42.51 0)
(216.656 -43.0008 0)
(215.73 -43.4322 0)
(214.852 -43.9448 0)
(213.932 -44.3741 0)
(213.068 -44.874 0)
(212.18 -45.304 0)
(211.335 -45.7751 0)
(210.473 -46.1884 0)
(209.63 -46.6213 0)
(208.771 -47.0187 0)
(207.928 -47.4372 0)
(207.091 -47.8423 0)
(206.288 -48.2785 0)
(205.492 -48.6931 0)
(204.72 -49.1298 0)
(203.933 -49.5459 0)
(203.131 -49.947 0)
(202.322 -50.3299 0)
(201.527 -50.6982 0)
(200.775 -51.0524 0)
(200.09 -51.4065 0)
(199.478 -51.7645 0)
(198.92 -52.1131 0)
(198.44 -52.5197 0)
(197.861 -52.8286 0)
(197.261 -53.1642 0)
(196.615 -53.4556 0)
(195.967 -53.755 0)
(195.324 -54.0185 0)
(194.734 -54.3108 0)
(194.182 -54.5687 0)
(193.711 -54.8724 0)
(193.26 -55.1261 0)
(192.885 -55.4325 0)
(192.488 -55.668 0)
(192.145 -55.9518 0)
(191.768 -56.1662 0)
(191.439 -56.4233 0)
(191.095 -56.6211 0)
(190.82 -56.8761 0)
(190.504 -57.0555 0)
(190.221 -57.2883 0)
(189.866 -57.4493 0)
(189.473 -57.6152 0)
(189.035 -57.7316 0)