/*--------------------------------*- C++ -*----------------------------------*\
| =========                 |                                                 |
| \\      /  F ield         | OpenFOAM: The Open Source CFD Toolbox           |
|  \\    /   O peration     | Version:  2412                                  |
|   \\  /    A nd           | Website:  www.openfoam.com                      |
|    \\/     M anipulation  |                                                 |
\*---------------------------------------------------------------------------*/
FoamFile
{
    version     2.0;
    format      ascii;
    arch        "LSB;label=32;scalar=64";
    class       volScalarField;
    location    "0.116";
    object      p;
}
// * * * * * * * * * * * * * * * * * * * * * * * * * * * * * * * * * * * * * //

dimensions      [1 -1 -2 0 0 0 0];

internalField   nonuniform List<scalar> 
9771
(
1269.66
2817.26
2810.47
2754.31
2723.7
2708.96
2703.45
2700.66
2699.98
2701.61
1268.79
2816.18
2807.07
2753.9
2723.72
2709.02
2703.45
2700.64
2699.95
2701.56
1267.76
2815.21
2804.07
2753.64
2723.73
2709.06
2703.46
2700.63
2699.93
2701.51
1266.74
2814.29
2801.87
2753.48
2723.72
2709.11
2703.47
2700.61
2699.9
2701.46
1265.9
2813.38
2800.38
2753.35
2723.7
2709.15
2703.49
2700.6
2699.88
2701.41
1265.37
2812.28
2799.27
2753.17
2723.61
2709.19
2703.51
2700.58
2699.86
2701.37
1265.13
2810.84
2798.06
2752.8
2723.5
2709.23
2703.53
2700.57
2699.84
2701.32
2705.84
2712.75
2721.01
2729.68
2738.43
2747.01
2755.31
2763.25
2770.74
2777.77
2784.34
2790.5
2796.32
2801.85
2807.16
2812.26
2817.19
2821.97
2826.64
2831.19
2835.66
2840.01
1265.11
2808.96
2796.59
2752.22
2723.38
2709.28
2703.56
2700.55
2699.82
2701.28
2705.77
2712.66
2720.91
2729.57
2738.31
2746.88
2755.17
2763.1
2770.59
2777.62
2784.19
2790.35
2796.16
2801.7
2807
2812.1
2817.02
2821.8
2826.46
2831.01
2835.46
2839.81
2844.05
2848.2
2852.25
2856.23
2860.13
2863.97
1265.21
2806.66
2795.03
2751.54
2723.29
2709.32
2703.58
2700.53
2699.8
2701.24
2705.7
2712.57
2720.81
2729.46
2738.19
2746.74
2755.03
2762.95
2770.44
2777.46
2784.03
2790.19
2796
2801.54
2806.84
2811.93
2816.85
2821.62
2826.27
2830.82
2835.26
2839.6
2843.83
2847.96
2852
2855.96
2859.85
2863.67
2867.43
1265.19
2804.07
2793.82
2750.92
2723.2
2709.37
2703.6
2700.52
2699.78
2701.21
2705.64
2712.49
2720.71
2729.36
2738.07
2746.61
2754.89
2762.8
2770.28
2777.3
2783.87
2790.03
2795.84
2801.38
2806.68
2811.77
2816.68
2821.45
2826.09
2830.62
2835.06
2839.38
2843.6
2847.72
2851.75
2855.69
2859.56
2863.36
2867.1
1264.17
2801.31
2793.1
2750.4
2723.12
2709.39
2703.62
2700.51
2699.76
2701.18
2705.59
2712.41
2720.62
2729.26
2737.96
2746.49
2754.75
2762.66
2770.13
2777.14
2783.71
2789.87
2795.68
2801.22
2806.51
2811.6
2816.51
2821.27
2825.9
2830.43
2834.85
2839.17
2843.38
2847.48
2851.49
2855.42
2859.27
2863.05
2866.77
1308.45
2755.25
2795.65
2739.78
2721.3
2709.2
2703.53
2700.35
2699.54
2700.85
2705.07
2711.67
2719.65
2728.08
2736.6
2744.97
2753.09
2760.89
2768.28
2775.25
2781.8
2787.95
2793.76
2799.29
2804.57
2809.63
2814.5
2819.21
2823.79
2828.25
2832.59
2836.81
2840.9
2844.88
2848.75
2852.52
2856.2
2859.81
2863.33
2866.8
2870.21
2873.56
2876.88
2880.16
2883.4
2886.63
2889.83
2893.01
2896.17
2899.32
2902.45
2905.57
2908.67
2911.77
2914.84
2917.9
2920.93
2923.93
2926.89
2929.81
2932.68
2935.49
2938.23
2940.89
2943.46
2945.93
2948.28
2950.53
2952.66
2954.67
2956.54
2958.24
2959.8
2961.24
2962.54
2963.71
2964.71
2965.54
2966.23
1504.04
2735.59
2740.62
2715.64
2718.48
2710.07
2703.84
2700.21
2699.26
2700.39
2704.26
2710.48
2718.03
2726.04
2734.19
2742.23
2750.07
2757.63
2764.87
2771.73
2778.22
2784.35
2790.15
2795.66
2800.89
2805.9
2810.69
2815.3
2819.76
2824.08
2828.25
2832.27
2836.14
2839.86
2843.45
2846.91
2850.27
2853.52
2856.68
2859.73
2862.7
2865.58
2868.36
2871.06
2873.66
2876.18
2878.6
2880.92
2883.15
2885.27
2887.29
2889.21
2891.01
2892.7
2894.28
2895.73
2897.07
2898.28
2899.36
2900.32
2901.15
2901.86
2902.43
2902.89
2903.23
2903.45
2903.54
2903.51
2903.37
2903.17
2902.84
2902.4
2901.85
2901.23
2900.56
2899.84
2899.03
2898.16
2897.22
1663.43
2609.5
2673.84
2692.98
2707.53
2706.09
2702.95
2700.42
2699.79
2700.96
2704.66
2710.46
2717.53
2725.02
2732.62
2740.13
2747.52
2754.71
2761.64
2768.27
2774.59
2780.59
2786.28
2791.69
2796.83
2801.74
2806.43
2810.94
2815.28
2819.44
2823.43
2827.24
2830.87
2834.33
2837.62
2840.75
2843.74
2846.6
2849.34
2851.95
2854.45
2856.82
2859.06
2861.17
2863.15
2865
2866.71
2868.28
2869.72
2871.03
2872.2
2873.24
2874.16
2874.94
2875.6
2876.12
2876.52
2876.8
2876.96
2877.01
2876.95
2876.78
2876.52
2876.18
2875.76
2875.27
2874.72
2874.12
2873.46
2872.78
2872.08
2871.34
2870.58
2869.8
2869.03
2868.24
2867.47
2866.69
2865.92
1841.61
2544.14
2647.35
2675.39
2694.35
2698.57
2700.59
2700.22
2700.53
2702.14
2705.76
2711.11
2717.71
2724.74
2731.8
2738.76
2745.62
2752.32
2758.84
2765.14
2771.17
2776.94
2782.43
2787.66
2792.65
2797.4
2801.95
2806.32
2810.5
2814.48
2818.27
2821.85
2825.24
2828.44
2831.46
2834.3
2836.97
2839.47
2841.81
2843.99
2846.02
2847.89
2849.61
2851.19
2852.62
2853.91
2855.05
2856.05
2856.91
2857.63
2858.23
2858.7
2859.05
2859.29
2859.43
2859.47
2859.42
2859.28
2859.08
2858.8
2858.46
2858.07
2857.63
2857.16
2856.65
2856.1
2855.54
2854.96
2854.35
2853.74
2853.13
2852.49
2851.86
2851.21
2850.56
2849.91
2849.26
2848.62
2847.97
2002.07
2494.23
2611.28
2649.52
2679.07
2691.88
2698.68
2700.48
2702.07
2704.14
2707.71
2712.58
2718.51
2724.93
2731.52
2737.95
2744.25
2750.42
2756.45
2762.32
2767.99
2773.43
2778.65
2783.63
2788.4
2792.96
2797.34
2801.53
2805.52
2809.31
2812.87
2816.23
2819.38
2822.34
2825.11
2827.69
2830.09
2832.31
2834.35
2836.23
2837.94
2839.48
2840.86
2842.08
2843.15
2844.07
2844.85
2845.51
2846.04
2846.46
2846.77
2846.97
2847.09
2847.12
2847.06
2846.93
2846.73
2846.47
2846.16
2845.8
2845.38
2844.93
2844.45
2843.93
2843.4
2842.84
2842.25
2841.66
2841.06
2840.46
2839.86
2839.26
2838.66
2838.07
2837.49
2836.93
2836.38
2835.86
2835.36
2144.59
2468.74
2575.86
2622.79
2664.49
2684.41
2696.38
2701.23
2704.4
2707.03
2710.6
2714.96
2720.13
2725.78
2731.71
2737.65
2743.42
2749.05
2754.57
2759.95
2765.19
2770.24
2775.11
2779.79
2784.29
2788.62
2792.77
2796.75
2800.53
2804.09
2807.44
2810.58
2813.5
2816.23
2818.77
2821.14
2823.34
2825.35
2827.18
2828.81
2830.27
2831.55
2832.69
2833.68
2834.52
2835.24
2835.83
2836.3
2836.65
2836.91
2837.06
2837.13
2837.13
2837.05
2836.91
2836.71
2836.46
2836.17
2835.84
2835.48
2835.09
2834.67
2834.24
2833.8
2833.33
2832.88
2832.41
2831.97
2831.52
2831.08
2830.65
2830.24
2829.83
2829.44
2829.06
2828.69
2828.32
2827.95
2827.59
2263.89
2466.31
2537.37
2608.04
2654.01
2678.53
2694.52
2702.46
2707.45
2710.86
2714.55
2718.42
2722.79
2727.52
2732.55
2737.76
2743
2748.08
2753.08
2757.97
2762.74
2767.37
2771.86
2776.21
2780.42
2784.48
2788.38
2792.11
2795.66
2799
2802.14
2805.08
2807.82
2810.36
2812.71
2814.86
2816.83
2818.64
2820.3
2821.82
2823.18
2824.38
2825.42
2826.3
2827.04
2827.65
2828.14
2828.52
2828.81
2829
2829.12
2829.17
2829.16
2829.08
2828.95
2828.78
2828.57
2828.32
2828.04
2827.74
2827.43
2827.11
2826.76
2826.42
2826.05
2825.7
2825.33
2824.96
2824.59
2824.21
2823.82
2823.44
2823.05
2822.66
2822.29
2821.92
2821.56
2821.22
2820.89
2358.3
2477.82
2524.24
2596.12
2645.42
2674.24
2692.95
2703.61
2710.6
2715.05
2719.12
2722.75
2726.48
2730.31
2734.37
2738.6
2743.06
2747.57
2752
2756.39
2760.69
2764.89
2769
2773
2776.9
2780.68
2784.32
2787.79
2791.08
2794.19
2797.12
2799.87
2802.44
2804.84
2807.05
2809.09
2810.94
2812.61
2814.11
2815.45
2816.65
2817.71
2818.65
2819.48
2820.18
2820.77
2821.25
2821.64
2821.94
2822.15
2822.29
2822.37
2822.38
2822.33
2822.23
2822.11
2821.95
2821.76
2821.54
2821.31
2821.05
2820.78
2820.49
2820.19
2819.88
2819.58
2819.27
2818.96
2818.66
2818.36
2818.08
2817.8
2817.53
2817.29
2817.04
2816.82
2816.61
2816.39
2816.19
2434.02
2500.89
2525.28
2594.57
2640.58
2671.62
2691.96
2704.94
2713.91
2719.5
2724.11
2727.68
2730.95
2734.01
2737.12
2740.34
2743.8
2747.54
2751.39
2755.19
2758.98
2762.74
2766.46
2770.13
2773.73
2777.24
2780.62
2783.85
2786.92
2789.81
2792.54
2795.1
2797.51
2799.76
2801.84
2803.75
2805.5
2807.1
2808.55
2809.86
2811.01
2812.02
2812.89
2813.65
2814.3
2814.85
2815.31
2815.68
2815.97
2816.2
2816.36
2816.46
2816.51
2816.52
2816.48
2816.42
2816.34
2816.22
2816.09
2815.93
2815.76
2815.57
2815.39
2815.2
2815
2814.8
2814.61
2814.41
2814.21
2814.03
2813.83
2813.65
2813.46
2813.27
2813.07
2812.88
2812.68
2812.49
2812.29
2493.14
2524.72
2535.74
2602.35
2640.27
2670.77
2691.9
2706.69
2717.28
2723.96
2729.15
2732.8
2735.81
2738.33
2740.71
2743.06
2745.56
2748.29
2751.34
2754.54
2757.75
2761.01
2764.32
2767.65
2770.96
2774.21
2777.36
2780.37
2783.23
2785.94
2788.5
2790.9
2793.15
2795.24
2797.18
2798.99
2800.64
2802.15
2803.5
2804.73
2805.84
2806.83
2807.71
2808.49
2809.16
2809.73
2810.21
2810.61
2810.94
2811.2
2811.4
2811.56
2811.66
2811.71
2811.75
2811.74
2811.7
2811.65
2811.57
2811.46
2811.34
2811.2
2811.07
2810.9
2810.76
2810.59
2810.42
2810.24
2810.04
2809.88
2809.68
2809.5
2809.31
2809.12
2808.93
2808.75
2808.57
2808.4
2808.24
2540.81
2547.68
2550.83
2615.06
2643.74
2672.79
2693.36
2709.03
2720.73
2728.38
2734.14
2737.96
2740.86
2743.01
2744.82
2746.48
2748.18
2750
2752.07
2754.48
2757.07
2759.76
2762.58
2765.53
2768.54
2771.55
2774.49
2777.32
2780.02
2782.58
2785
2787.27
2789.39
2791.36
2793.18
2794.84
2796.37
2797.79
2799.08
2800.25
2801.29
2802.2
2803.02
2803.74
2804.39
2804.95
2805.44
2805.86
2806.21
2806.5
2806.74
2806.93
2807.07
2807.14
2807.23
2807.26
2807.24
2807.24
2807.18
2807.12
2807.03
2806.93
2806.85
2806.73
2806.62
2806.49
2806.36
2806.24
2806.1
2805.99
2805.87
2805.75
2805.64
2805.53
2805.44
2805.35
2805.26
2805.18
2805.09
2578.63
2568.66
2569.49
2632.12
2651.05
2677.52
2696.38
2712.05
2724.27
2732.65
2738.9
2742.9
2745.8
2747.74
2749.21
2750.38
2751.49
2752.6
2753.82
2755.27
2757.08
2759.16
2761.46
2763.95
2766.6
2769.34
2772.08
2774.74
2777.3
2779.73
2782.03
2784.19
2786.21
2788.08
2789.8
2791.36
2792.79
2794.08
2795.25
2796.32
2797.3
2798.18
2798.97
2799.66
2800.26
2800.79
2801.24
2801.64
2801.98
2802.26
2802.51
2802.71
2802.86
2802.96
2803.08
2803.14
2803.16
2803.2
2803.21
2803.19
2803.17
2803.12
2803.09
2803.04
2802.98
2802.92
2802.85
2802.78
2802.7
2802.62
2802.53
2802.45
2802.35
2802.25
2802.15
2802.05
2801.95
2801.85
2801.75
2608.59
2588.13
2589.79
2649.84
2661.64
2685.32
2701.21
2715.92
2728.08
2736.95
2743.53
2747.7
2750.64
2752.46
2753.7
2754.53
2755.2
2755.78
2756.36
2757.02
2757.94
2759.28
2760.98
2763
2765.23
2767.63
2770.11
2772.6
2775.01
2777.33
2779.53
2781.59
2783.51
2785.29
2786.91
2788.4
2789.75
2790.96
2792.06
2793.03
2793.91
2794.7
2795.42
2796.06
2796.63
2797.13
2797.57
2797.95
2798.27
2798.54
2798.77
2798.96
2799.11
2799.22
2799.34
2799.42
2799.46
2799.51
2799.53
2799.54
2799.53
2799.51
2799.49
2799.45
2799.4
2799.34
2799.28
2799.22
2799.15
2799.08
2799.01
2798.94
2798.86
2798.79
2798.72
2798.65
2798.59
2798.53
2798.47
2632.9
2607.12
2608.92
2664.06
2674.21
2694.37
2706.77
2720.31
2732.14
2741.27
2748.05
2752.33
2755.32
2757.08
2758.19
2758.81
2759.17
2759.36
2759.46
2759.57
2759.8
2760.32
2761.3
2762.76
2764.56
2766.58
2768.74
2770.97
2773.21
2775.38
2777.47
2779.43
2781.25
2782.94
2784.48
2785.88
2787.15
2788.3
2789.34
2790.26
2791.09
2791.82
2792.46
2793.03
2793.54
2793.99
2794.38
2794.72
2795.02
2795.27
2795.48
2795.65
2795.8
2795.92
2796.02
2796.1
2796.15
2796.2
2796.22
2796.23
2796.23
2796.23
2796.21
2796.19
2796.16
2796.12
2796.09
2796.05
2796.01
2795.96
2795.92
2795.87
2795.82
2795.76
2795.71
2795.65
2795.6
2795.54
2795.48
2653.23
2625.95
2628.81
2673.31
2687.24
2702.01
2712.21
2725.07
2736.47
2745.68
2752.53
2756.9
2759.96
2761.7
2762.73
2763.18
2763.3
2763.18
2762.9
2762.57
2762.34
2762.31
2762.59
2763.31
2764.55
2766.14
2767.96
2769.88
2771.86
2773.84
2775.78
2777.62
2779.35
2780.95
2782.41
2783.73
2784.93
2786.01
2786.97
2787.84
2788.62
2789.32
2789.93
2790.46
2790.92
2791.32
2791.66
2791.95
2792.2
2792.41
2792.59
2792.74
2792.86
2792.96
2793.04
2793.1
2793.15
2793.17
2793.19
2793.19
2793.19
2793.17
2793.16
2793.13
2793.1
2793.06
2793.02
2792.98
2792.94
2792.89
2792.84
2792.79
2792.74
2792.69
2792.64
2792.59
2792.54
2792.5
2792.45
2670.41
2644.32
2650.64
2677.83
2698.99
2706.85
2717.11
2730
2740.95
2750.09
2756.91
2761.35
2764.5
2766.25
2767.28
2767.62
2767.6
2767.23
2766.62
2765.94
2765.33
2764.91
2764.78
2764.94
2765.44
2766.42
2767.77
2769.34
2771.02
2772.75
2774.47
2776.16
2777.76
2779.25
2780.63
2781.88
2783.02
2784.03
2784.95
2785.76
2786.49
2787.13
2787.68
2788.17
2788.6
2788.96
2789.27
2789.52
2789.73
2789.9
2790.04
2790.15
2790.23
2790.3
2790.35
2790.38
2790.39
2790.4
2790.39
2790.38
2790.36
2790.33
2790.3
2790.26
2790.22
2790.17
2790.13
2790.08
2790.03
2789.98
2789.93
2789.88
2789.83
2789.78
2789.73
2789.68
2789.63
2789.59
2789.54
2685.08
2661.01
2670.98
2683.49
2707.66
2711.11
2722.61
2735.28
2745.54
2754.43
2761.17
2765.7
2768.98
2770.82
2771.9
2772.19
2772.05
2771.47
2770.62
2769.64
2768.69
2767.92
2767.4
2767.22
2767.26
2767.58
2768.25
2769.31
2770.61
2772.02
2773.49
2774.96
2776.4
2777.78
2779.07
2780.25
2781.33
2782.3
2783.17
2783.94
2784.62
2785.21
2785.72
2786.15
2786.52
2786.83
2787.09
2787.31
2787.48
2787.63
2787.74
2787.82
2787.87
2787.9
2787.92
2787.92
2787.91
2787.89
2787.86
2787.82
2787.78
2787.74
2787.68
2787.63
2787.57
2787.51
2787.45
2787.39
2787.33
2787.27
2787.21
2787.15
2787.1
2787.05
2787.01
2786.96
2786.93
2786.88
2786.83
2697.68
2676.29
2688.34
2689.99
2713.9
2717.73
2729.95
2740.98
2750.25
2758.71
2765.26
2769.87
2773.29
2775.27
2776.46
2776.78
2776.58
2775.92
2774.91
2773.69
2772.46
2771.35
2770.47
2769.88
2769.6
2769.53
2769.66
2770.03
2770.75
2771.73
2772.87
2774.08
2775.31
2776.53
2777.71
2778.81
2779.83
2780.76
2781.58
2782.31
2782.94
2783.48
2783.95
2784.34
2784.67
2784.94
2785.16
2785.34
2785.47
2785.58
2785.65
2785.69
2785.72
2785.73
2785.72
2785.7
2785.67
2785.62
2785.57
2785.51
2785.45
2785.38
2785.3
2785.23
2785.15
2785.08
2785.01
2784.94
2784.88
2784.82
2784.76
2784.7
2784.63
2784.56
2784.49
2784.41
2784.34
2784.28
2784.22
2708.51
2689.29
2702.64
2698.08
2721.31
2724.99
2737.26
2746.69
2755.11
2762.98
2769.21
2773.87
2777.42
2779.58
2780.96
2781.4
2781.21
2780.56
2779.49
2778.11
2776.63
2775.2
2773.96
2772.95
2772.25
2771.8
2771.57
2771.51
2771.63
2772.01
2772.68
2773.55
2774.51
2775.53
2776.54
2777.54
2778.47
2779.34
2780.11
2780.79
2781.39
2781.9
2782.33
2782.68
2782.98
2783.22
2783.41
2783.55
2783.66
2783.73
2783.77
2783.79
2783.78
2783.76
2783.72
2783.67
2783.61
2783.54
2783.46
2783.38
2783.29
2783.2
2783.12
2783.03
2782.95
2782.86
2782.77
2782.68
2782.58
2782.48
2782.39
2782.3
2782.23
2782.15
2782.09
2782.02
2781.96
2781.9
2781.83
2717.81
2700.42
2714.41
2707.06
2729.79
2732.79
2744.63
2752.6
2760.19
2767.3
2773.08
2777.68
2781.32
2783.66
2785.28
2785.91
2785.81
2785.3
2784.25
2782.81
2781.16
2779.46
2777.85
2776.43
2775.28
2774.42
2773.82
2773.43
2773.18
2773.1
2773.2
2773.56
2774.16
2774.9
2775.7
2776.52
2777.31
2778.07
2778.76
2779.38
2779.92
2780.39
2780.78
2781.11
2781.38
2781.59
2781.75
2781.87
2781.95
2781.99
2782.01
2782
2781.97
2781.92
2781.85
2781.77
2781.68
2781.59
2781.49
2781.39
2781.28
2781.17
2781.06
2780.95
2780.83
2780.72
2780.61
2780.51
2780.41
2780.31
2780.22
2780.12
2780.03
2779.95
2779.86
2779.78
2779.7
2779.62
2779.55
2725.85
2710.1
2724.27
2716.17
2738.53
2740.63
2751.83
2758.58
2765.43
2771.72
2776.94
2781.39
2785.05
2787.58
2789.46
2790.31
2790.39
2790.07
2789.14
2787.74
2786.01
2784.11
2782.18
2780.36
2778.75
2777.41
2776.37
2775.61
2775.05
2774.65
2774.4
2774.31
2774.43
2774.74
2775.23
2775.8
2776.4
2776.99
2777.55
2778.07
2778.53
2778.94
2779.29
2779.58
2779.81
2779.99
2780.12
2780.21
2780.26
2780.27
2780.27
2780.23
2780.18
2780.1
2780.02
2779.92
2779.81
2779.69
2779.57
2779.45
2779.32
2779.19
2779.06
2778.93
2778.81
2778.69
2778.57
2778.45
2778.34
2778.23
2778.13
2778.03
2777.93
2777.83
2777.74
2777.65
2777.57
2777.49
2777.42
2732.96
2718.6
2732.7
2725.08
2747.24
2748.41
2758.84
2764.59
2770.77
2776.24
2780.88
2785.04
2788.63
2791.31
2793.45
2794.57
2794.92
2794.75
2794.01
2792.74
2791.02
2789.01
2786.84
2784.67
2782.61
2780.8
2779.31
2778.15
2777.25
2776.57
2776.05
2775.66
2775.4
2775.29
2775.35
2775.54
2775.84
2776.2
2776.58
2776.94
2777.28
2777.58
2777.84
2778.06
2778.23
2778.36
2778.45
2778.5
2778.52
2778.52
2778.48
2778.42
2778.34
2778.24
2778.13
2778.02
2777.89
2777.76
2777.63
2777.49
2777.36
2777.22
2777.09
2776.96
2776.83
2776.7
2776.58
2776.46
2776.34
2776.23
2776.12
2776.02
2775.92
2775.82
2775.73
2775.64
2775.56
2775.48
2775.41
2739.48
2726.27
2740.21
2733.6
2755.77
2756.14
2765.66
2770.54
2776.11
2780.83
2784.89
2788.69
2792.13
2794.93
2797.33
2798.75
2799.38
2799.33
2798.81
2797.73
2796.09
2794.05
2791.73
2789.29
2786.89
2784.66
2782.7
2781.07
2779.78
2778.78
2777.99
2777.35
2776.81
2776.38
2776.04
2775.83
2775.77
2775.79
2775.88
2776.02
2776.17
2776.33
2776.47
2776.58
2776.67
2776.73
2776.75
2776.76
2776.74
2776.69
2776.62
2776.54
2776.44
2776.32
2776.2
2776.08
2775.95
2775.81
2775.67
2775.54
2775.4
2775.26
2775.13
2774.99
2774.86
2774.74
2774.62
2774.5
2774.38
2774.27
2774.17
2774.06
2773.97
2773.87
2773.79
2773.7
2773.62
2773.55
2773.46
2745.64
2733.4
2747.11
2741.66
2763.93
2763.71
2772.28
2776.36
2781.38
2785.43
2788.96
2792.37
2795.63
2798.51
2801.09
2802.81
2803.72
2803.78
2803.48
2802.56
2801.05
2799.06
2796.71
2794.14
2791.5
2788.92
2786.53
2784.45
2782.73
2781.35
2780.22
2779.31
2778.53
2777.84
2777.22
2776.68
2776.21
2775.87
2775.64
2775.48
2775.38
2775.3
2775.25
2775.21
2775.18
2775.13
2775.07
2775
2774.92
2774.83
2774.72
2774.61
2774.49
2774.37
2774.24
2774.11
2773.97
2773.83
2773.69
2773.56
2773.42
2773.28
2773.15
2773.03
2772.91
2772.79
2772.67
2772.56
2772.45
2772.35
2772.24
2772.15
2772.05
2771.96
2771.87
2771.78
2771.69
2771.61
2771.53
2751.59
2740.12
2753.62
2749.31
2771.59
2771
2778.62
2782
2786.49
2789.97
2793.06
2796.09
2799.17
2802.08
2804.77
2806.75
2807.93
2808.13
2807.99
2807.19
2805.85
2803.96
2801.67
2799.08
2796.33
2793.58
2790.93
2788.46
2786.23
2784.32
2782.78
2781.52
2780.44
2779.48
2778.62
2777.81
2777.06
2776.37
2775.78
2775.29
2774.88
2774.54
2774.26
2774.03
2773.83
2773.66
2773.49
2773.33
2773.17
2773.02
2772.86
2772.7
2772.54
2772.38
2772.23
2772.08
2771.93
2771.78
2771.64
2771.5
2771.37
2771.24
2771.12
2771.01
2770.9
2770.79
2770.68
2770.58
2770.48
2770.38
2770.29
2770.2
2770.11
2770.03
2769.95
2769.87
2769.8
2769.73
2769.66
2757.3
2746.53
2759.78
2756.43
2778.71
2778
2784.68
2787.46
2791.42
2794.43
2797.13
2799.85
2802.74
2805.62
2808.41
2810.59
2811.99
2812.35
2812.29
2811.57
2810.39
2808.64
2806.48
2803.97
2801.24
2798.38
2795.52
2792.77
2790.23
2787.92
2785.87
2784.1
2782.61
2781.33
2780.17
2779.11
2778.12
2777.19
2776.3
2775.5
2774.78
2774.16
2773.62
2773.14
2772.73
2772.37
2772.05
2771.76
2771.5
2771.26
2771.04
2770.83
2770.64
2770.46
2770.28
2770.12
2769.97
2769.82
2769.68
2769.56
2769.43
2769.31
2769.2
2769.08
2768.97
2768.86
2768.75
2768.65
2768.55
2768.46
2768.37
2768.28
2768.2
2768.12
2768.05
2767.98
2767.91
2767.84
2767.78
2762.61
2752.67
2765.56
2762.68
2785
2784.92
2790.75
2792.87
2796.23
2798.8
2801.18
2803.63
2806.33
2809.16
2812
2814.31
2815.87
2816.41
2816.37
2815.73
2814.71
2813.13
2811.15
2808.81
2806.19
2803.35
2800.39
2797.43
2794.56
2791.85
2789.37
2787.13
2785.14
2783.39
2781.86
2780.5
2779.26
2778.09
2776.98
2775.94
2774.97
2774.09
2773.3
2772.59
2771.95
2771.39
2770.9
2770.47
2770.09
2769.76
2769.46
2769.19
2768.95
2768.72
2768.51
2768.32
2768.14
2767.97
2767.81
2767.67
2767.53
2767.4
2767.27
2767.15
2767.04
2766.92
2766.82
2766.72
2766.62
2766.53
2766.44
2766.36
2766.28
2766.2
2766.12
2766.05
2765.98
2765.91
2765.85
2767.47
2758.48
2770.93
2768.13
2790.31
2791.9
2796.98
2798.45
2801.08
2803.18
2805.21
2807.42
2809.94
2812.7
2815.52
2817.88
2819.55
2820.24
2820.22
2819.71
2818.8
2817.41
2815.64
2813.49
2811.03
2808.31
2805.38
2802.32
2799.23
2796.18
2793.26
2790.54
2788.05
2785.81
2783.82
2782.04
2780.44
2779
2777.68
2776.45
2775.28
2774.17
2773.15
2772.21
2771.36
2770.6
2769.92
2769.31
2768.79
2768.33
2767.93
2767.57
2767.26
2766.99
2766.75
2766.53
2766.33
2766.14
2765.96
2765.79
2765.63
2765.48
2765.34
2765.2
2765.08
2764.96
2764.85
2764.75
2764.65
2764.55
2764.45
2764.36
2764.27
2764.19
2764.11
2764.03
2763.96
2763.89
2763.83
2771.94
2763.95
2776.17
2773.79
2794.47
2798.76
2802.82
2804.07
2806.08
2807.67
2809.3
2811.26
2813.58
2816.2
2818.92
2821.28
2823.03
2823.82
2823.86
2823.48
2822.69
2821.51
2819.94
2818
2815.74
2813.17
2810.34
2807.29
2804.08
2800.8
2797.54
2794.39
2791.41
2788.66
2786.16
2783.91
2781.92
2780.14
2778.54
2777.08
2775.73
2774.47
2773.3
2772.21
2771.21
2770.29
2769.45
2768.69
2768.02
2767.42
2766.88
2766.41
2765.98
2765.6
2765.26
2764.96
2764.68
2764.43
2764.2
2763.99
2763.8
2763.62
2763.46
2763.3
2763.16
2763.03
2762.9
2762.79
2762.67
2762.57
2762.46
2762.37
2762.28
2762.19
2762.11
2762.03
2761.96
2761.89
2761.82
2776.17
2769.27
2781.56
2780.53
2798.27
2804.46
2807.62
2809.25
2811
2812.25
2813.5
2815.19
2817.28
2819.69
2822.22
2824.51
2826.29
2827.17
2827.31
2827.03
2826.4
2825.41
2824.05
2822.34
2820.28
2817.88
2815.17
2812.17
2808.94
2805.54
2802.05
2798.57
2795.18
2791.96
2788.96
2786.23
2783.77
2781.57
2779.62
2777.88
2776.32
2774.9
2773.59
2772.38
2771.26
2770.23
2769.28
2768.4
2767.59
2766.85
2766.17
2765.56
2765
2764.5
2764.05
2763.64
2763.27
2762.94
2762.64
2762.36
2762.11
2761.87
2761.66
2761.46
2761.27
2761.1
2760.93
2760.78
2760.64
2760.51
2760.39
2760.28
2760.18
2760.08
2759.99
2759.9
2759.81
2759.73
2759.66
2780.33
2774.61
2787.14
2787.75
2802.03
2809.2
2811.36
2813.58
2815.47
2816.71
2817.75
2819.23
2821.05
2823.16
2825.43
2827.58
2829.33
2830.31
2830.58
2830.37
2829.91
2829.11
2827.98
2826.49
2824.62
2822.39
2819.8
2816.88
2813.66
2810.21
2806.59
2802.9
2799.21
2795.63
2792.21
2789.03
2786.11
2783.46
2781.1
2779
2777.15
2775.5
2774.02
2772.67
2771.45
2770.32
2769.28
2768.31
2767.42
2766.58
2765.81
2765.09
2764.43
2763.82
2763.26
2762.74
2762.27
2761.84
2761.44
2761.08
2760.74
2760.43
2760.15
2759.88
2759.64
2759.42
2759.21
2759.02
2758.84
2758.68
2758.52
2758.38
2758.24
2758.12
2757.99
2757.88
2757.77
2757.67
2757.58
2784.46
2779.93
2792.5
2794.41
2805.48
2813.5
2814.62
2817.33
2819.47
2820.91
2821.95
2823.31
2824.88
2826.66
2828.6
2830.53
2832.2
2833.28
2833.67
2833.53
2833.25
2832.61
2831.7
2830.41
2828.73
2826.65
2824.18
2821.34
2818.16
2814.69
2811.01
2807.19
2803.32
2799.5
2795.79
2792.26
2788.95
2785.91
2783.14
2780.65
2778.43
2776.48
2774.75
2773.21
2771.82
2770.57
2769.42
2768.36
2767.38
2766.47
2765.61
2764.82
2764.07
2763.38
2762.73
2762.13
2761.56
2761.04
2760.55
2760.1
2759.68
2759.29
2758.93
2758.59
2758.28
2757.99
2757.72
2757.47
2757.24
2757.02
2756.82
2756.63
2756.46
2756.29
2756.14
2755.99
2755.86
2755.73
2755.62
2788.55
2785.08
2797.44
2800.13
2808.45
2817.53
2817.85
2820.97
2823.23
2824.9
2826.05
2827.35
2828.7
2830.15
2831.74
2833.41
2834.96
2836.1
2836.61
2836.55
2836.42
2835.93
2835.2
2834.08
2832.57
2830.63
2828.26
2825.49
2822.34
2818.89
2815.18
2811.31
2807.36
2803.4
2799.51
2795.75
2792.17
2788.82
2785.71
2782.86
2780.29
2777.99
2775.95
2774.13
2772.52
2771.07
2769.77
2768.58
2767.48
2766.47
2765.54
2764.66
2763.84
2763.07
2762.34
2761.66
2761.02
2760.42
2759.85
2759.33
2758.83
2758.37
2757.94
2757.53
2757.15
2756.8
2756.47
2756.16
2755.87
2755.6
2755.35
2755.12
2754.9
2754.69
2754.5
2754.32
2754.15
2754
2753.85
2792.63
2790.02
2801.84
2805.13
2811.27
2821.28
2821.21
2824.7
2826.93
2828.78
2830.05
2831.32
2832.48
2833.63
2834.88
2836.27
2837.65
2838.81
2839.43
2839.49
2839.46
2839.07
2838.48
2837.49
2836.12
2834.29
2832
2829.28
2826.18
2822.74
2819.05
2815.18
2811.21
2807.2
2803.23
2799.35
2795.61
2792.05
2788.7
2785.58
2782.7
2780.08
2777.7
2775.56
2773.65
2771.94
2770.41
2769.03
2767.77
2766.62
2765.57
2764.59
2763.68
2762.83
2762.03
2761.28
2760.57
2759.91
2759.29
2758.7
2758.15
2757.63
2757.14
2756.68
2756.25
2755.84
2755.46
2755.1
2754.77
2754.45
2754.16
2753.88
2753.62
2753.38
2753.15
2752.94
2752.73
2752.54
2752.37
2796.71
2794.88
2805.92
2809.64
2814.21
2824.91
2824.58
2828.38
2830.55
2832.56
2833.95
2835.21
2836.2
2837.09
2838.02
2839.13
2840.32
2841.43
2842.17
2842.37
2842.38
2842.06
2841.57
2840.66
2839.37
2837.61
2835.39
2832.71
2829.64
2826.24
2822.58
2818.75
2814.8
2810.82
2806.84
2802.93
2799.12
2795.45
2791.95
2788.65
2785.55
2782.66
2779.99
2777.54
2775.31
2773.29
2771.47
2769.82
2768.34
2766.99
2765.76
2764.64
2763.61
2762.66
2761.77
2760.95
2760.17
2759.45
2758.77
2758.14
2757.54
2756.98
2756.45
2755.96
2755.49
2755.04
2754.63
2754.23
2753.86
2753.52
2753.19
2752.88
2752.59
2752.31
2752.05
2751.81
2751.59
2751.37
2751.17
2800.81
2799.71
2809.89
2813.81
2817.29
2828.4
2827.9
2831.9
2834.06
2836.22
2837.73
2838.99
2839.86
2840.53
2841.19
2842.03
2842.99
2844.02
2844.85
2845.19
2845.21
2844.93
2844.48
2843.59
2842.35
2840.61
2838.41
2835.76
2832.73
2829.37
2825.78
2822.01
2818.13
2814.21
2810.28
2806.39
2802.59
2798.88
2795.31
2791.9
2788.64
2785.57
2782.68
2779.97
2777.46
2775.15
2773.02
2771.09
2769.33
2767.73
2766.27
2764.95
2763.74
2762.65
2761.64
2760.72
2759.87
2759.07
2758.33
2757.64
2757
2756.4
2755.83
2755.3
2754.8
2754.33
2753.89
2753.47
2753.08
2752.71
2752.36
2752.02
2751.71
2751.42
2751.14
2750.87
2750.62
2750.39
2750.17
2804.99
2804.51
2813.76
2817.74
2820.42
2831.67
2831.12
2835.27
2837.46
2839.76
2841.37
2842.67
2843.44
2843.93
2844.38
2844.98
2845.71
2846.62
2847.45
2847.91
2847.98
2847.69
2847.22
2846.31
2845.06
2843.3
2841.11
2838.47
2835.47
2832.18
2828.67
2824.99
2821.22
2817.39
2813.54
2809.72
2805.94
2802.24
2798.65
2795.17
2791.82
2788.61
2785.57
2782.68
2779.96
2777.41
2775.04
2772.84
2770.82
2768.96
2767.26
2765.7
2764.28
2762.99
2761.82
2760.75
2759.76
2758.86
2758.04
2757.28
2756.57
2755.91
2755.28
2754.71
2754.17
2753.66
2753.19
2752.76
2752.34
2751.96
2751.59
2751.24
2750.92
2750.61
2750.31
2750.03
2749.77
2749.52
2749.29
2809.29
2809.27
2817.49
2821.47
2823.56
2834.71
2834.21
2838.48
2840.73
2843.15
2844.86
2846.23
2846.93
2847.3
2847.6
2847.99
2848.48
2849.23
2850
2850.53
2850.65
2850.35
2849.83
2848.82
2847.52
2845.7
2843.49
2840.86
2837.91
2834.69
2831.28
2827.72
2824.06
2820.35
2816.6
2812.85
2809.13
2805.46
2801.86
2798.35
2794.95
2791.66
2788.5
2785.49
2782.62
2779.91
2777.35
2774.96
2772.73
2770.65
2768.73
2766.96
2765.33
2763.84
2762.47
2761.21
2760.06
2759.02
2758.06
2757.18
2756.37
2755.62
2754.94
2754.3
2753.71
2753.16
2752.65
2752.17
2751.72
2751.29
2750.9
2750.52
2750.17
2749.85
2749.54
2749.25
2748.98
2748.72
2748.48
2813.68
2813.95
2821.07
2825.01
2826.67
2837.56
2837.18
2841.51
2843.84
2846.36
2848.17
2849.63
2850.31
2850.61
2850.83
2851.06
2851.34
2851.88
2852.53
2853.04
2853.19
2852.88
2852.27
2851.15
2849.74
2847.82
2845.57
2842.94
2840.05
2836.93
2833.64
2830.21
2826.68
2823.08
2819.44
2815.78
2812.12
2808.49
2804.91
2801.39
2797.95
2794.62
2791.4
2788.31
2785.35
2782.53
2779.85
2777.32
2774.94
2772.71
2770.62
2768.68
2766.88
2765.21
2763.66
2762.23
2760.92
2759.7
2758.58
2757.56
2756.62
2755.75
2754.97
2754.24
2753.56
2752.94
2752.37
2751.83
2751.34
2750.87
2750.44
2750.04
2749.66
2749.31
2748.97
2748.66
2748.37
2748.09
2747.83
2818.09
2818.49
2824.49
2828.39
2829.67
2840.2
2840.08
2844.44
2846.81
2849.41
2851.31
2852.86
2853.57
2853.85
2854.03
2854.17
2854.26
2854.61
2855.05
2855.48
2855.6
2855.25
2854.54
2853.26
2851.72
2849.67
2847.38
2844.76
2841.93
2838.91
2835.74
2832.44
2829.04
2825.56
2822.02
2818.44
2814.85
2811.27
2807.72
2804.22
2800.78
2797.44
2794.2
2791.07
2788.06
2785.19
2782.45
2779.84
2777.37
2775.04
2772.85
2770.79
2768.86
2767.05
2765.36
2763.79
2762.33
2760.98
2759.72
2758.55
2757.47
2756.47
2755.55
2754.69
2753.91
2753.18
2752.51
2751.89
2751.32
2750.79
2750.3
2749.85
2749.42
2749.03
2748.66
2748.31
2747.99
2747.68
2747.39
2822.46
2822.88
2827.8
2831.59
2832.5
2842.65
2842.97
2847.32
2849.66
2852.3
2854.27
2855.93
2856.72
2857.03
2857.17
2857.23
2857.24
2857.41
2857.6
2857.87
2857.9
2857.45
2856.61
2855.17
2853.46
2851.29
2848.94
2846.33
2843.56
2840.63
2837.58
2834.4
2831.11
2827.74
2824.3
2820.8
2817.28
2813.76
2810.26
2806.8
2803.4
2800.09
2796.86
2793.74
2790.74
2787.85
2785.09
2782.45
2779.94
2777.56
2775.3
2773.17
2771.16
2769.26
2767.47
2765.8
2764.23
2762.77
2761.4
2760.12
2758.93
2757.81
2756.78
2755.81
2754.92
2754.08
2753.3
2752.58
2751.91
2751.28
2750.7
2750.16
2749.66
2749.2
2748.77
2748.36
2747.99
2747.64
2747.31
2826.74
2827.09
2830.97
2834.57
2835.11
2844.95
2845.87
2850.23
2852.47
2855.07
2857.07
2858.84
2859.75
2860.1
2860.23
2860.24
2860.21
2860.25
2860.19
2860.27
2860.14
2859.48
2858.48
2856.85
2854.98
2852.71
2850.31
2847.7
2844.98
2842.12
2839.15
2836.07
2832.88
2829.59
2826.23
2822.82
2819.37
2815.92
2812.49
2809.1
2805.77
2802.51
2799.34
2796.27
2793.3
2790.44
2787.69
2785.06
2782.55
2780.15
2777.87
2775.7
2773.65
2771.7
2769.86
2768.12
2766.48
2764.94
2763.49
2762.12
2760.85
2759.65
2758.52
2757.47
2756.48
2755.56
2754.7
2753.89
2753.13
2752.42
2751.75
2751.13
2750.55
2750.01
2749.5
2749.02
2748.57
2748.15
2747.76
2830.9
2831.09
2833.98
2837.35
2837.61
2847.18
2848.71
2853.1
2855.28
2857.77
2859.73
2861.59
2862.63
2863.05
2863.2
2863.21
2863.13
2863.05
2862.79
2862.68
2862.31
2861.38
2860.16
2858.34
2856.32
2853.96
2851.51
2848.91
2846.22
2843.4
2840.48
2837.45
2834.33
2831.11
2827.82
2824.48
2821.12
2817.75
2814.41
2811.11
2807.87
2804.7
2801.61
2798.61
2795.7
2792.9
2790.19
2787.6
2785.1
2782.72
2780.44
2778.26
2776.19
2774.22
2772.35
2770.58
2768.9
2767.31
2765.81
2764.4
2763.06
2761.8
2760.62
2759.5
2758.45
2757.46
2756.53
2755.66
2754.83
2754.06
2753.33
2752.64
2752
2751.39
2750.82
2750.28
2749.78
2749.3
2748.86
2834.95
2834.89
2836.87
2839.98
2840.11
2849.42
2851.41
2855.84
2858.04
2860.4
2862.27
2864.2
2865.4
2865.9
2866.1
2866.12
2866
2865.8
2865.39
2865.03
2864.36
2863.17
2861.7
2859.68
2857.52
2855.08
2852.6
2849.99
2847.29
2844.48
2841.58
2838.57
2835.48
2832.31
2829.08
2825.81
2822.53
2819.27
2816.03
2812.83
2809.7
2806.63
2803.64
2800.74
2797.92
2795.19