/*--------------------------------*- C++ -*----------------------------------*\
| =========                 |                                                 |
| \\      /  F ield         | OpenFOAM: The Open Source CFD Toolbox           |
|  \\    /   O peration     | Version:  2412                                  |
|   \\  /    A nd           | Website:  www.openfoam.com                      |
|    \\/     M anipulation  |                                                 |
\*---------------------------------------------------------------------------*/
FoamFile
{
    version     2.0;
    format      ascii;
    arch        "LSB;label=32;scalar=64";
    class       volScalarField;
    location    "0.116";
    object      T;
}
// * * * * * * * * * * * * * * * * * * * * * * * * * * * * * * * * * * * * * //

dimensions      [0 0 0 1 0 0 0];

internalField   nonuniform List<scalar> 
9771
(
162.698
217.048
221.496
221.4
221.247
221.078
220.981
220.902
220.863
220.888
162.708
217.008
221.411
221.389
221.247
221.08
220.982
220.902
220.862
220.887
162.7
216.97
221.335
221.382
221.248
221.081
220.982
220.902
220.862
220.886
162.701
216.931
221.276
221.377
221.247
221.082
220.982
220.901
220.861
220.885
162.707
216.894
221.235
221.372
221.247
221.083
220.983
220.901
220.861
220.884
162.724
216.853
221.201
221.367
221.244
221.084
220.983
220.901
220.86
220.883
162.75
216.804
221.165
221.357
221.241
221.085
220.984
220.9
220.86
220.882
220.986
221.155
221.355
221.563
221.772
221.977
222.176
222.366
222.544
222.712
222.867
223.013
223.15
223.281
223.405
223.525
223.641
223.753
223.862
223.968
224.073
224.174
162.784
216.744
221.123
221.342
221.238
221.086
220.985
220.9
220.859
220.881
220.984
221.153
221.352
221.56
221.769
221.974
222.173
222.362
222.541
222.708
222.864
223.009
223.147
223.277
223.401
223.521
223.637
223.749
223.858
223.964
224.068
224.169
224.268
224.365
224.459
224.552
224.642
224.731
162.821
216.674
221.079
221.324
221.235
221.088
220.985
220.9
220.859
220.88
220.983
221.15
221.35
221.557
221.766
221.971
222.169
222.359
222.537
222.704
222.86
223.006
223.143
223.273
223.398
223.517
223.633
223.744
223.853
223.96
224.063
224.165
224.263
224.359
224.453
224.545
224.636
224.724
224.812
162.842
216.601
221.045
221.308
221.233
221.089
220.986
220.899
220.858
220.879
220.981
221.148
221.347
221.555
221.763
221.968
222.166
222.355
222.534
222.701
222.856
223.002
223.139
223.269
223.394
223.513
223.629
223.74
223.849
223.955
224.059
224.16
224.258
224.354
224.447
224.539
224.629
224.717
224.804
162.84
216.456
221.008
221.291
221.229
221.089
220.987
220.899
220.858
220.878
220.98
221.147
221.345
221.553
221.761
221.965
222.163
222.352
222.53
222.697
222.853
222.998
223.135
223.266
223.39
223.509
223.625
223.736
223.845
223.95
224.054
224.155
224.253
224.348
224.442
224.533
224.622
224.71
224.796
168.714
215.359
220.979
220.948
221.153
221.079
220.987
220.897
220.854
220.872
220.967
221.128
221.322
221.525
221.729
221.929
222.123
222.31
222.486
222.652
222.807
222.953
223.09
223.22
223.344
223.463
223.578
223.688
223.795
223.899
224.001
224.099
224.195
224.288
224.378
224.465
224.551
224.635
224.717
224.797
224.876
224.953
225.03
225.106
225.181
225.255
225.329
225.402
225.475
225.547
225.619
225.691
225.762
225.833
225.904
225.974
226.043
226.112
226.18
226.246
226.312
226.376
226.439
226.5
226.558
226.615
226.669
226.72
226.769
226.814
226.857
226.896
226.932
226.964
226.994
227.021
227.044
227.063
227.078
183.095
216.484
219.657
220.344
221.058
221.086
220.998
220.897
220.85
220.863
220.947
221.099
221.283
221.476
221.671
221.864
222.051
222.232
222.405
222.569
222.723
222.868
223.005
223.134
223.258
223.375
223.488
223.596
223.701
223.802
223.9
223.994
224.084
224.171
224.254
224.335
224.413
224.489
224.562
224.633
224.702
224.769
224.833
224.895
224.956
225.014
225.07
225.124
225.175
225.224
225.271
225.315
225.356
225.395
225.432
225.465
225.496
225.524
225.549
225.572
225.591
225.608
225.621
225.632
225.64
225.646
225.648
225.648
225.645
225.641
225.634
225.624
225.612
225.598
225.583
225.566
225.548
225.528
225.507
191.25
214.797
218.086
219.804
220.79
220.983
220.974
220.906
220.865
220.877
220.956
221.097
221.271
221.452
221.634
221.814
221.991
222.163
222.328
222.486
222.636
222.779
222.913
223.041
223.162
223.277
223.388
223.494
223.596
223.693
223.787
223.876
223.961
224.042
224.118
224.191
224.261
224.328
224.391
224.452
224.51
224.565
224.617
224.666
224.712
224.755
224.795
224.831
224.865
224.895
224.922
224.946
224.968
224.986
225.001
225.013
225.023
225.029
225.033
225.035
225.033
225.03
225.024
225.017
225.008
224.997
224.984
224.971
224.956
224.941
224.925
224.908
224.891
224.873
224.855
224.838
224.82
224.802
224.784
198.08
214.544
217.542
219.365
220.461
220.804
220.919
220.903
220.886
220.905
220.981
221.112
221.275
221.445
221.615
221.781
221.946
222.106
222.262
222.412
222.556
222.692
222.822
222.946
223.063
223.175
223.282
223.385
223.483
223.577
223.666
223.75
223.829
223.904
223.974
224.041
224.103
224.162
224.216
224.267
224.314
224.358
224.398
224.434
224.468
224.498
224.524
224.547
224.568
224.584
224.598
224.609
224.617
224.623
224.627
224.628
224.626
224.624
224.619
224.613
224.605
224.597
224.587
224.576
224.565
224.552
224.54
224.527
224.513
224.499
224.485
224.471
224.456
224.442
224.427
224.412
224.397
224.383
224.368
203.463
214.399
216.803
218.711
220.073
220.646
220.878
220.91
220.926
220.952
221.028
221.148
221.294
221.45
221.608
221.762
221.913
222.061
222.205
222.345
222.48
222.609
222.732
222.85
222.963
223.071
223.174
223.272
223.366
223.455
223.539
223.618
223.692
223.761
223.826
223.886
223.942
223.994
224.042
224.086
224.126
224.162
224.194
224.222
224.247
224.269
224.287
224.302
224.315
224.325
224.332
224.337
224.34
224.34
224.339
224.336
224.332
224.326
224.319
224.31
224.301
224.291
224.28
224.268
224.256
224.244
224.23
224.217
224.203
224.19
224.176
224.163
224.149
224.136
224.123
224.11
224.097
224.085
224.074
207.983
214.677
216.148
218.053
219.7
220.467
220.828
220.931
220.982
221.022
221.097
221.204
221.333
221.471
221.613
221.755
221.894
222.028
222.16
222.289
222.413
222.533
222.649
222.759
222.866
222.968
223.066
223.16
223.249
223.333
223.412
223.485
223.554
223.618
223.677
223.733
223.784
223.832
223.874
223.913
223.947
223.977
224.003
224.026
224.046
224.063
224.077
224.088
224.096
224.102
224.106
224.107
224.107
224.106
224.102
224.098
224.092
224.086
224.078
224.07
224.061
224.052
224.042
224.032
224.021
224.011
224.001
223.991
223.981
223.971
223.961
223.952
223.943
223.934
223.926
223.917
223.909
223.901
223.892
211.709
215.395
215.311
217.531
219.406
220.324
220.789
220.964
221.055
221.114
221.193
221.288
221.397
221.513
221.634
221.758
221.884
222.005
222.125
222.242
222.355
222.465
222.572
222.674
222.774
222.87
222.962
223.051
223.134
223.213
223.287
223.356
223.42
223.48
223.535
223.586
223.632
223.674
223.713
223.749
223.781
223.809
223.833
223.854
223.871
223.886
223.897
223.906
223.913
223.917
223.92
223.921
223.921
223.919
223.916
223.913
223.908
223.902
223.896
223.889
223.882
223.875
223.867
223.859
223.851
223.843
223.835
223.827
223.819
223.81
223.802
223.793
223.785
223.776
223.768
223.759
223.751
223.743
223.736
214.501
216.234
215.381
217.121
219.131
220.219
220.759
220.996
221.132
221.215
221.303
221.392
221.486
221.58
221.677
221.779
221.885
221.993
222.099
222.204
222.306
222.406
222.504
222.598
222.691
222.78
222.866
222.948
223.026
223.1
223.169
223.233
223.294
223.35
223.402
223.45
223.494
223.533
223.568
223.6
223.628
223.653
223.675
223.694
223.711
223.724
223.736
223.745
223.752
223.757
223.76
223.762
223.762
223.761
223.759
223.756
223.753
223.749
223.744
223.739
223.733
223.727
223.72
223.714
223.707
223.7
223.693
223.687
223.68
223.674
223.668
223.662
223.655
223.65
223.645
223.64
223.635
223.63
223.626
216.616
217.261
215.681
217.137
218.953
220.149
220.743
221.033
221.212
221.322
221.423
221.51
221.593
221.668
221.744
221.821
221.903
221.993
222.085
222.175
222.266
222.355
222.443
222.53
222.616
222.699
222.779
222.855
222.928
222.996
223.06
223.121
223.178
223.231
223.28
223.325
223.366
223.403
223.438
223.468
223.495
223.519
223.54
223.557
223.573
223.586
223.596
223.605
223.612
223.617
223.621
223.624
223.625
223.625
223.624
223.623
223.621
223.619
223.616
223.613
223.609
223.605
223.601
223.597
223.592
223.588
223.584
223.58
223.576
223.572
223.568
223.564
223.56
223.556
223.552
223.547
223.543
223.538
223.534
218.224
218.13
216.239
217.391
218.914
220.113
220.744
221.079
221.294
221.429
221.544
221.633
221.709
221.772
221.83
221.886
221.945
222.011
222.084
222.16
222.236
222.314
222.392
222.471
222.55
222.627
222.702
222.773
222.841
222.905
222.965
223.022
223.075
223.124
223.17
223.212
223.252
223.287
223.319
223.348
223.374
223.397
223.418
223.436
223.452
223.465
223.477
223.486
223.494
223.5
223.505
223.509
223.511
223.512
223.513
223.513
223.512
223.512
223.51
223.508
223.505
223.502
223.499
223.496
223.493
223.489
223.486
223.482
223.478
223.475
223.47
223.467
223.462
223.458
223.454
223.45
223.446
223.442
223.439
219.544
218.88
216.873
217.81
219
220.157
220.782
221.138
221.377
221.535
221.664
221.757
221.83
221.884
221.928
221.967
222.008
222.051
222.101
222.158
222.22
222.284
222.351
222.421
222.492
222.564
222.634
222.701
222.765
222.825
222.882
222.936
222.986
223.033
223.075
223.115
223.151
223.184
223.215
223.242
223.267
223.288
223.307
223.325
223.34
223.353
223.364
223.374
223.383
223.39
223.395
223.4
223.403
223.405
223.407
223.408
223.408
223.408
223.407
223.406
223.404
223.402
223.4
223.398
223.396
223.393
223.39
223.388
223.385
223.383
223.381
223.378
223.376
223.374
223.372
223.37
223.368
223.366
223.364
220.569
219.521
217.564
218.361
219.198
220.264
220.857
221.214
221.463
221.637
221.778
221.875
221.948
221.997
222.033
222.061
222.087
222.113
222.143
222.177
222.22
222.27
222.324
222.384
222.447
222.511
222.576
222.64
222.7
222.758
222.812
222.863
222.911
222.955
222.996
223.033
223.066
223.097
223.124
223.15
223.173
223.194
223.212
223.228
223.243
223.255
223.266
223.275
223.283
223.29
223.296
223.3
223.304
223.306
223.309
223.311
223.312
223.313
223.313
223.313
223.313
223.312
223.312
223.311
223.31
223.309
223.308
223.307
223.305
223.304
223.302
223.3
223.298
223.296
223.294
223.292
223.29
223.288
223.286
221.336
220.073
218.264
218.939
219.495
220.444
220.971
221.31
221.555
221.74
221.889
221.99
222.064
222.11
222.14
222.16
222.175
222.189
222.203
222.219
222.241
222.272
222.313
222.361
222.414
222.471
222.53
222.589
222.646
222.701
222.753
222.802
222.847
222.889
222.928
222.963
222.995
223.023
223.049
223.072
223.093
223.112
223.128
223.143
223.157
223.169
223.179
223.188
223.196
223.202
223.208
223.212
223.216
223.218
223.221
223.223
223.225
223.226
223.227
223.227
223.227
223.227
223.227
223.226
223.226
223.225
223.224
223.222
223.221
223.22
223.219
223.218
223.216
223.215
223.213
223.212
223.211
223.21
223.209
221.898
220.558
218.907
219.44
219.85
220.652
221.098
221.417
221.654
221.844
221.997
222.101
222.176
222.22
222.247
222.262
222.27
222.274
222.277
222.279
222.285
222.297
222.321
222.355
222.398
222.446
222.497
222.55
222.603
222.655
222.704
222.751
222.794
222.834
222.87
222.903
222.933
222.96
222.985
223.007
223.026
223.043
223.059
223.072
223.084
223.095
223.104
223.112
223.119
223.125
223.13
223.134
223.138
223.141
223.143
223.145
223.147
223.148
223.149
223.149
223.15
223.15
223.15
223.149
223.149
223.149
223.148
223.148
223.147
223.147
223.146
223.145
223.144
223.143
223.142
223.141
223.14
223.139
223.139
222.302
220.988
219.552
219.827
220.212
220.825
221.22
221.532
221.76
221.95
222.104
222.21
222.286
222.33
222.355
222.366
222.368
222.365
222.359
222.351
222.345
222.345
222.351
222.368
222.398
222.436
222.479
222.524
222.571
222.618
222.664
222.708
222.749
222.786
222.821
222.852
222.881
222.906
222.929
222.95
222.968
222.984
222.999
223.011
223.022
223.032
223.04
223.047
223.053
223.058
223.062
223.065
223.068
223.071
223.073
223.074
223.076
223.076
223.077
223.078
223.078
223.078
223.078
223.077
223.077
223.076
223.076
223.075
223.075
223.074
223.073
223.073
223.072
223.071
223.07
223.069
223.068
223.068
223.067
222.59
221.389
220.238
220.062
220.517
220.943
221.332
221.65
221.869
222.056
222.209
222.316
222.394
222.438
222.463
222.471
222.47
222.461
222.447
222.431
222.416
222.406
222.403
222.407
222.419
222.442
222.474
222.512
222.551
222.592
222.633
222.673
222.711
222.746
222.779
222.809
222.835
222.859
222.881
222.9
222.918
222.933
222.946
222.957
222.967
222.976
222.983
222.989
222.994
222.998
223.002
223.004
223.006
223.008
223.009
223.01
223.011
223.011
223.011
223.011
223.011
223.011
223.01
223.01
223.009
223.008
223.008
223.007
223.006
223.006
223.005
223.004
223.003
223.002
223.002
223.001
223
222.999
222.999
222.81
221.752
220.841
220.276
220.745
221.059
221.468
221.776
221.979
222.161
222.311
222.42
222.501
222.547
222.573
222.579
222.576
222.562
222.542
222.519
222.496
222.478
222.465
222.461
222.462
222.47
222.486
222.511
222.541
222.575
222.61
222.645
222.679
222.711
222.742
222.77
222.796
222.818
222.839
222.857
222.873
222.887
222.899
222.91
222.918
222.926
222.932
222.937
222.941
222.945
222.947
222.949
222.951
222.951
222.952
222.952
222.952
222.952
222.951
222.951
222.95
222.949
222.948
222.948
222.947
222.946
222.945
222.944
222.943
222.942
222.941
222.94
222.939
222.938
222.937
222.936
222.936
222.935
222.935
222.992
222.073
221.32
220.49
220.926
221.235
221.652
221.912
222.092
222.264
222.409
222.519
222.603
222.652
222.681
222.688
222.683
222.667
222.644
222.615
222.585
222.559
222.538
222.524
222.518
222.516
222.519
222.528
222.545
222.568
222.595
222.624
222.653
222.682
222.71
222.736
222.76
222.782
222.801
222.819
222.834
222.846
222.857
222.867
222.875
222.881
222.886
222.89
222.894
222.896
222.898
222.899
222.9
222.9
222.9
222.9
222.899
222.898
222.897
222.896
222.895
222.894
222.892
222.891
222.889
222.888
222.887
222.886
222.885
222.884
222.883
222.882
222.88
222.879
222.878
222.876
222.875
222.874
222.873
223.154
222.332
221.691
220.737
221.144
221.427
221.834
222.048
222.208
222.366
222.504
222.614
222.701
222.754
222.787
222.798
222.793
222.778
222.752
222.719
222.684
222.651
222.621
222.597
222.581
222.57
222.564
222.563
222.566
222.575
222.591
222.611
222.634
222.658
222.682
222.706
222.728
222.748
222.767
222.783
222.797
222.809
222.819
222.828
222.835
222.84
222.845
222.848
222.851
222.853
222.854
222.854
222.854
222.854
222.853
222.852
222.85
222.849
222.847
222.845
222.844
222.842
222.84
222.839
222.837
222.836
222.834
222.832
222.83
222.828
222.827
222.825
222.823
222.822
222.821
222.82
222.819
222.817
222.816
223.301
222.546
221.983
221.003
221.391
221.632
222.016
222.189
222.329
222.469
222.596
222.705
222.794
222.851
222.89
222.904
222.902
222.889
222.865
222.831
222.792
222.751
222.713
222.68
222.652
222.632
222.618
222.608
222.602
222.601
222.603
222.612
222.626
222.643
222.662
222.681
222.7
222.718
222.735
222.749
222.762
222.773
222.783
222.79
222.797
222.802
222.806
222.808
222.81
222.811
222.812
222.812
222.811
222.81
222.808
222.807
222.805
222.803
222.801
222.798
222.796
222.794
222.792
222.789
222.787
222.785
222.783
222.781
222.779
222.777
222.775
222.773
222.771
222.77
222.768
222.767
222.765
222.764
222.762
223.435
222.731
222.226
221.273
221.645
221.835
222.19
222.33
222.454
222.575
222.688
222.793
222.882
222.943
222.988
223.008
223.01
223.002
222.98
222.947
222.906
222.861
222.816
222.773
222.735
222.703
222.678
222.66
222.647
222.637
222.631
222.629
222.632
222.64
222.651
222.664
222.679
222.693
222.706
222.718
222.729
222.739
222.747
222.754
222.759
222.764
222.767
222.769
222.77
222.771
222.771
222.77
222.769
222.767
222.765
222.763
222.76
222.758
222.755
222.752
222.75
222.747
222.744
222.742
222.739
222.737
222.734
222.732
222.73
222.728
222.725
222.723
222.722
222.72
222.718
222.716
222.715
222.713
222.712
223.556
222.897
222.436
221.537
221.897
222.033
222.354
222.471
222.581
222.683
222.781
222.879
222.966
223.031
223.082
223.109
223.117
223.113
223.095
223.065
223.025
222.977
222.926
222.875
222.826
222.783
222.748
222.72
222.699
222.683
222.671
222.661
222.655
222.653
222.654
222.658
222.666
222.674
222.683
222.692
222.7
222.707
222.713
222.718
222.722
222.725
222.727
222.729
222.729
222.729
222.728
222.727
222.725
222.723
222.72
222.718
222.715
222.712
222.709
222.706
222.703
222.7
222.698
222.695
222.692
222.69
222.687
222.685
222.682
222.68
222.678
222.676
222.674
222.672
222.67
222.669
222.667
222.666
222.664
223.668
223.048
222.628
221.793
222.143
222.225
222.507
222.609
222.708
222.792
222.876
222.965
223.049
223.117
223.174
223.207
223.222
223.221
223.208
223.183
223.144
223.096
223.041
222.984
222.927
222.874
222.828
222.79
222.759
222.735
222.717
222.701
222.689
222.678
222.67
222.665
222.664
222.664
222.666
222.67
222.673
222.677
222.68
222.683
222.685
222.687
222.687
222.687
222.687
222.686
222.684
222.682
222.68
222.677
222.675
222.672
222.669
222.666
222.663
222.66
222.657
222.654
222.651
222.648
222.646
222.643
222.641
222.638
222.636
222.634
222.632
222.63
222.628
222.626
222.624
222.623
222.621
222.62
222.618
223.77
223.186
222.807
222.041
222.381
222.407
222.65
222.741
222.832
222.902
222.973
223.052
223.131
223.201
223.262
223.303
223.324
223.326
223.318
223.297
223.261
223.214
223.159
223.098
223.036
222.975
222.919
222.869
222.829
222.796
222.769
222.748
222.729
222.713
222.698
222.685
222.674
222.666
222.661
222.657
222.654
222.653
222.652
222.651
222.65
222.649
222.647
222.646
222.644
222.642
222.639
222.637
222.634
222.631
222.628
222.625
222.622
222.619
222.616
222.613
222.61
222.607
222.604
222.602
222.599
222.597
222.594
222.592
222.59
222.588
222.586
222.584
222.582
222.581
222.579
222.577
222.576
222.574
222.572
223.862
223.313
222.976
222.277
222.605
222.582
222.785
222.867
222.953
223.011
223.07
223.14
223.215
223.285
223.349
223.396
223.423
223.428
223.424
223.406
223.374
223.33
223.276
223.215
223.15
223.085
223.023
222.964
222.911
222.866
222.83
222.8
222.774
222.752
222.731
222.712
222.694
222.678
222.664
222.652
222.643
222.635
222.628
222.623
222.618
222.614
222.61
222.606
222.602
222.599
222.595
222.591
222.588
222.584
222.58
222.577
222.574
222.57
222.567
222.564
222.561
222.559
222.556
222.554
222.552
222.549
222.547
222.545
222.543
222.541
222.54
222.538
222.536
222.535
222.533
222.532
222.531
222.529
222.528
223.943
223.43
223.135
222.491
222.809
222.756
222.92
222.99
223.068
223.117
223.168
223.229
223.298
223.368
223.434
223.486
223.519
223.527
223.525
223.508
223.481
223.44
223.389
223.33
223.266
223.198
223.131
223.066
223.006
222.951
222.903
222.861
222.826
222.795
222.768
222.743
222.72
222.697
222.676
222.657
222.64
222.626
222.613
222.602
222.592
222.583
222.576
222.569
222.563
222.557
222.552
222.547
222.542
222.538
222.534
222.531
222.527
222.524
222.521
222.518
222.515
222.513
222.51
222.508
222.506
222.503
222.501
222.499
222.497
222.496
222.494
222.492
222.491
222.49
222.488
222.487
222.486
222.485
222.483
224.013
223.537
223.279
222.677
222.989
222.93
223.059
223.111
223.18
223.221
223.264
223.318
223.383
223.451
223.519
223.573
223.61
223.622
223.621
223.606
223.582
223.545
223.499
223.444
223.382
223.315
223.246
223.176
223.108
223.044
222.986
222.933
222.886
222.844
222.808
222.776
222.746
222.719
222.692
222.668
222.645
222.624
222.605
222.588
222.573
222.56
222.548
222.538
222.529
222.521
222.514
222.508
222.502
222.497
222.492
222.488
222.484
222.48
222.476
222.473
222.47
222.467
222.465
222.462
222.46
222.458
222.456
222.454
222.452
222.45
222.448
222.447
222.445
222.444
222.443
222.441
222.44
222.439
222.437
224.071
223.636
223.409
222.839
223.142
223.103
223.202
223.238
223.291
223.325
223.361
223.408
223.467
223.534
223.601
223.657
223.696
223.712
223.711
223.699
223.678
223.646
223.604
223.554
223.496
223.432
223.363
223.291
223.218
223.146
223.078
223.013
222.954
222.902
222.854
222.812
222.774
222.74
222.709
222.68
222.652
222.626
222.602
222.579
222.559
222.541
222.525
222.511
222.498
222.487
222.478
222.47
222.462
222.456
222.45
222.445
222.441
222.436
222.432
222.428
222.425
222.422
222.419
222.416
222.413
222.411
222.409
222.407
222.405
222.403
222.401
222.399
222.398
222.396
222.395
222.393
222.392
222.391
222.389
224.123
223.727
223.531
223.004
223.264
223.266
223.335
223.365
223.406
223.431
223.458
223.499
223.553
223.616
223.681
223.736
223.778
223.796
223.797
223.788
223.769
223.742
223.705
223.66
223.607
223.546
223.48
223.408
223.332
223.255
223.178
223.104
223.034
222.969
222.91
222.857
222.809
222.767
222.729
222.695
222.663
222.633
222.605
222.579
222.556
222.534
222.514
222.496
222.48
222.466
222.453
222.442
222.432
222.423
222.415
222.408
222.401
222.396
222.39
222.386
222.381
222.378
222.374
222.371
222.368
222.365
222.362
222.36
222.358
222.356
222.354
222.352
222.35
222.348
222.347
222.346
222.344
222.343
222.341
224.173
223.817
223.658
223.187
223.368
223.401
223.446
223.483
223.519
223.539
223.558
223.592
223.64
223.697
223.758
223.812
223.854
223.874
223.878
223.871
223.856
223.833
223.801
223.761
223.713
223.657
223.593
223.523
223.447
223.367
223.285
223.203
223.123
223.047
222.976
222.911
222.853
222.801
222.755
222.714
222.677
222.643
222.612
222.583
222.557
222.532
222.51
222.489
222.47
222.452
222.436
222.422
222.409
222.397
222.386
222.377
222.368
222.36
222.353
222.347
222.341
222.336
222.331
222.327
222.323
222.319
222.316
222.312
222.309
222.307
222.304
222.302
222.3
222.298
222.296
222.295
222.293
222.291
222.29
224.225
223.912
223.789
223.375
223.466
223.515
223.532
223.58
223.622
223.643
223.659
223.688
223.729
223.779
223.833
223.884
223.925
223.948
223.954
223.949
223.938
223.92
223.893
223.858
223.815
223.762
223.702
223.633
223.558
223.477
223.391
223.304
223.218
223.133
223.053
222.978
222.908
222.846
222.79
222.74
222.696
222.657
222.622
222.59
222.561
222.535
222.51
222.487
222.466
222.446
222.428
222.411
222.395
222.381
222.367
222.355
222.344
222.334
222.325
222.316
222.309
222.302
222.295
222.289
222.284
222.279
222.275
222.27
222.267
222.263
222.26
222.257
222.254
222.251
222.249
222.247
222.245
222.242
222.24
224.281
224.011
223.916
223.547
223.556
223.618
223.608
223.663
223.712
223.742
223.759
223.784
223.819
223.86
223.907
223.953
223.992
224.017
224.026
224.023
224.016
224.001
223.98
223.95
223.911
223.862
223.804
223.738
223.663
223.582
223.495
223.405
223.315
223.224
223.137
223.054
222.976
222.904
222.838
222.779
222.727
222.68
222.639
222.603
222.57
222.54
222.513
222.488
222.465
222.443
222.423
222.404
222.387
222.37
222.355
222.341
222.327
222.315
222.304
222.293
222.283
222.274
222.266
222.259
222.252
222.245
222.239
222.233
222.228
222.224
222.219
222.215
222.211
222.208
222.205
222.202
222.199
222.196
222.194
224.34
224.109
224.038
223.696
223.627
223.712
223.685
223.746
223.798
223.834
223.856
223.88
223.909
223.942
223.98
224.02
224.056
224.083
224.095
224.094
224.09
224.079
224.062
224.036
224
223.955
223.9
223.835
223.761
223.68
223.593
223.502
223.41
223.316
223.225
223.136
223.052
222.972
222.899
222.832
222.771
222.716
222.668
222.625
222.587
222.552
222.521
222.493
222.467
222.443
222.421
222.4
222.381
222.363
222.346
222.329
222.314
222.3
222.287
222.275
222.263
222.253
222.243
222.233
222.225
222.217
222.209
222.202
222.196
222.19
222.184
222.179
222.174
222.17
222.166
222.162
222.158
222.155
222.152
224.404
224.207
224.15
223.826
223.691
223.8
223.768
223.835
223.883
223.924
223.95
223.974
223.997
224.023
224.053
224.086
224.119
224.146
224.161
224.162
224.161
224.152
224.139
224.115
224.083
224.041
223.987
223.924
223.851
223.77
223.684
223.593
223.5
223.406
223.312
223.221
223.133
223.049
222.97
222.896
222.828
222.766
222.71
222.659
222.614
222.573
222.537
222.504
222.474
222.447
222.422
222.399
222.377
222.357
222.338
222.32
222.304
222.288
222.273
222.26
222.247
222.235
222.223
222.213
222.203
222.194
222.185
222.177
222.169
222.162
222.156
222.149
222.144
222.138
222.133
222.129
222.124
222.12
222.116
224.473
224.306
224.254
223.942
223.758
223.886
223.852
223.924
223.967
224.012
224.041
224.066
224.085
224.104
224.126
224.153
224.181
224.207
224.225
224.229
224.229
224.222
224.21
224.189
224.159
224.118
224.066
224.004
223.932
223.852
223.767
223.677
223.584
223.491
223.397
223.305
223.215
223.129
223.047
222.968
222.895
222.827
222.764
222.706
222.653
222.605
222.562
222.523
222.488
222.456
222.426
222.4
222.375
222.353
222.332
222.312
222.294
222.277
222.261
222.246
222.233
222.219
222.207
222.196
222.185
222.175
222.165
222.156
222.148
222.14
222.132
222.126
222.119
222.113
222.107
222.102
222.097
222.092
222.088
224.549
224.409
224.353
224.047
223.831
223.971
223.935
224.01
224.049
224.096
224.129
224.154
224.171
224.184
224.2
224.22
224.244
224.268
224.287
224.295
224.295
224.289
224.278
224.258
224.229
224.188
224.137
224.075
224.004
223.926
223.841
223.753
223.662
223.57
223.478
223.387
223.297
223.21
223.126
223.045
222.968
222.896
222.827
222.763
222.704
222.649
222.599
222.553
222.511
222.473
222.439
222.407
222.379
222.353
222.329
222.307
222.287
222.268
222.251
222.235
222.219
222.205
222.192
222.18
222.169
222.158
222.148
222.138
222.129
222.121
222.113
222.105
222.098
222.091
222.085
222.079
222.074
222.069
222.064
224.632
224.514
224.447
224.144
223.906
224.053
224.016
224.093
224.129
224.178
224.214
224.24
224.254
224.264
224.274
224.289
224.307
224.328
224.348
224.358
224.36
224.353
224.342
224.321
224.292
224.251
224.2
224.138
224.068
223.991
223.909
223.823
223.735
223.645
223.555
223.465
223.376
223.289
223.204
223.122
223.043
222.968
222.896
222.827
222.763
222.703
222.646
222.594
222.546
222.502
222.462
222.425
222.392
222.361
222.333
222.308
222.284
222.263
222.244
222.226
222.209
222.194
222.179
222.166
222.153
222.142
222.131
222.121
222.112
222.103
222.094
222.086
222.079
222.072
222.066
222.059
222.053
222.048
222.043
224.721
224.62
224.535
224.235
223.984
224.13
224.095
224.172
224.206
224.256
224.295
224.323
224.336
224.342
224.349
224.359
224.371
224.389
224.407
224.419
224.422
224.415
224.403
224.379
224.349
224.307
224.255
224.194
224.125
224.05
223.97
223.887
223.801
223.714
223.626
223.538
223.451
223.365
223.28
223.197
223.117
223.04
222.965
222.894
222.826
222.762
222.701
222.645
222.592
222.543
222.497
222.455
222.416
222.381
222.349
222.319
222.292
222.267
222.244
222.224
222.205
222.187
222.171
222.156
222.143
222.13
222.118
222.107
222.097
222.087
222.078
222.069
222.061
222.054
222.047
222.041
222.035
222.029
222.023
224.816
224.725
224.619
224.321
224.061
224.204
224.171
224.249
224.28
224.331
224.372
224.402
224.414
224.419
224.424
224.43
224.438
224.451
224.466
224.478
224.481
224.474
224.46
224.433
224.401
224.356
224.304
224.242
224.175
224.102
224.025
223.945
223.863
223.778
223.693
223.607
223.521
223.436
223.352
223.269
223.188
223.109
223.033
222.96
222.89
222.824
222.761
222.701
222.644
222.591
222.542
222.496
222.453
222.414
222.377
222.343
222.312
222.283
222.257
222.233
222.21
222.19
222.172
222.155
222.139
222.125
222.111
222.099
222.087
222.077
222.067
222.058
222.049
222.041
222.034
222.027
222.02
222.014
222.008
224.913
224.829
224.698
224.402
224.138
224.274
224.247
224.323
224.352
224.402
224.444
224.477
224.49
224.495
224.499
224.502
224.506
224.514
224.524
224.534
224.537
224.529
224.512
224.483
224.447
224.399
224.346
224.285
224.219
224.148
224.074
223.997
223.918
223.836
223.753
223.67
223.585
223.501
223.418
223.335
223.255
223.176
223.099
223.026
222.955
222.887
222.822
222.76
222.702
222.647
222.595
222.546
222.5
222.457
222.417
222.38
222.346
222.314
222.284
222.256
222.231
222.207
222.186
222.166
222.147
222.13
222.115
222.1
222.087
222.075
222.064
222.053
222.043
222.034
222.026
222.018
222.011
222.004
221.998
225.011
224.929
224.774
224.48
224.212
224.341
224.322
224.396
224.421
224.469
224.512
224.548
224.563
224.569
224.571
224.573
224.575
224.579
224.584
224.59
224.59
224.58
224.56
224.527
224.487
224.437
224.382
224.321
224.257
224.189
224.117
224.043
223.966
223.887
223.807
223.725
223.642
223.56
223.478
223.396
223.316
223.238
223.162
223.089
223.018
222.95
222.884
222.822
222.763
222.706
222.653
222.602
222.555
222.51
222.467
222.428
222.391
222.356
222.324
222.294
222.266
222.239
222.215
222.192
222.171
222.152
222.134
222.117
222.101
222.087
222.073
222.061
222.049
222.039
222.029
222.02
222.011
222.003
221.996
225.108
225.026
224.848
224.553
224.283
224.406
224.397
224.469
224.489
224.534
224.577
224.615
224.633
224.64
224.642
224.643
224.644
224.645
224.644
224.646
224.642
224.627
224.604
224.566
224.523
224.47
224.414
224.353
224.29
224.223
224.154
224.082
224.007
223.931
223.852
223.772
223.691
223.611
223.53
223.45
223.372
223.295
223.221
223.148
223.078
223.011
222.946
222.884
222.824
222.768
222.714
222.662
222.614
222.568
222.524
222.483
222.444
222.408
222.374
222.341
222.311
222.283
222.257
222.232
222.209
222.187
222.167
222.148
222.13
222.114
222.098
222.084
222.071
222.058
222.046
222.035
222.025
222.016
222.006
225.204
225.119
224.92
224.622
224.352
224.469
224.469
224.539
224.557
224.597
224.638
224.678
224.7
224.708
224.711
224.712
224.711
224.71
224.704
224.701
224.693
224.671
224.643
224.601
224.554
224.499
224.442
224.381
224.319
224.253
224.185
224.114
224.041
223.966
223.889
223.811
223.732
223.653
223.575
223.498
223.421
223.347
223.274
223.203
223.135
223.069
223.005
222.944
222.885
222.828
222.775
222.723
222.674
222.628
222.583
222.541
222.502
222.464
222.429
222.395
222.364
222.334
222.307
222.28
222.256
222.233
222.211
222.19
222.171
222.153
222.136
222.12
222.105
222.091
222.078
222.066
222.054
222.043
222.033
225.298
225.208
224.989
224.689
224.422
224.531
224.537
224.606
224.623
224.659
224.696
224.739
224.764
224.774
224.779
224.78
224.778
224.774
224.765
224.756
224.74
224.713
224.678
224.632
224.581
224.525
224.467
224.406
224.344
224.278
224.211
224.14
224.068
223.994
223.919
223.842
223.766
223.689
223.613
223.538
223.464
223.392
223.322
223.254