/*--------------------------------*- C++ -*----------------------------------*\
| =========                 |                                                 |
| \\      /  F ield         | OpenFOAM: The Open Source CFD Toolbox           |
|  \\    /   O peration     | Version:  2412                                  |
|   \\  /    A nd           | Website:  www.openfoam.com                      |
|    \\/     M anipulation  |                                                 |
\*---------------------------------------------------------------------------*/
FoamFile
{
    version     2.0;
    format      ascii;
    arch        "LSB;label=32;scalar=64";
    class       volScalarField;
    location    "0.013";
    object      rho;
}
// * * * * * * * * * * * * * * * * * * * * * * * * * * * * * * * * * * * * * //

dimensions      [1 -3 0 0 0 0 0];

internalField   nonuniform List<scalar> 
9857
(
0.042133
0.042133
0.042133
0.042133
0.042133
0.042133
0.042133
0.042133
0.042133
0.042133
0.042133
0.042133
0.042133
0.042133
0.042133
0.042133
0.042133
0.042133
0.042133
0.042133
0.042133
0.042133
0.042133
0.042133
0.042133
0.042133
0.042133
0.042133
0.042133
0.042133
0.042133
0.042133
0.042133
0.042133
0.042133
0.042133
0.042133
0.042133
0.042133
0.042133
0.042133
0.042133
0.042133
0.042133
0.042133
0.042133
0.042133
0.042133
0.042133
0.042133
0.042133
0.042133
0.042133
0.042133
0.042133
0.042133
0.042133
0.042133
0.042133
0.042133
0.042133
0.042133
0.042133
0.042133
0.042133
0.042133
0.042133
0.042133
0.042133
0.042133
0.042133
0.042133
0.042133
0.042133
0.042133
0.042133
0.042133
0.042133
0.042133
0.042133
0.042133
0.042133
0.042133
0.042133
0.042133
0.042133
0.042133
0.042133
0.042133
0.042133
0.042133
0.042133
0.042133
0.042133
0.042133
0.042133
0.042133
0.042133
0.042133
0.042133
0.042133
0.042133
0.042133
0.042133
0.042133
0.042133
0.042133
0.042133
0.042133
0.042133
0.042133
0.042133
0.042133
0.042133
0.042133
0.042133
0.042133
0.042133
0.042133
0.042133
0.042133
0.042133
0.042133
0.042133
0.042133
0.042133
0.042133
0.042133
0.042133
0.042133
0.042133
0.042133
0.042133
0.042133
0.042133
0.042133
0.042133
0.042133
0.042133
0.042133
0.042133
0.042133
0.042133
0.042133
0.042133
0.042133
0.042133
0.042133
0.042133
0.042133
0.042133
0.042133
0.042133
0.042133
0.042133
0.042133
0.042133
0.042133
0.042133
0.042133
0.042133
0.042133
0.042133
0.042133
0.042133
0.042133
0.042133
0.042133
0.042133
0.042133
0.042133
0.042133
0.042133
0.042133
0.042133
0.042133
0.042133
0.042133
0.042133
0.042133
0.042133
0.042133
0.042133
0.042133
0.042133
0.042133
0.042133
0.042133
0.042133
0.042133
0.042133
0.042133
0.042133
0.042133
0.042133
0.042133
0.042133
0.042133
0.042133
0.042133
0.042133
0.042133
0.042133
0.042133
0.042133
0.042133
0.042133
0.042133
0.042133
0.042133
0.042133
0.042133
0.042133
0.042133
0.042133
0.042133
0.042133
0.042133
0.042133
0.042133
0.042133
0.042133
0.042133
0.042133
0.042133
0.042133
0.042133
0.042133
0.042133
0.042133
0.042133
0.042133
0.042133
0.042133
0.042133
0.042133
0.042133
0.042133
0.042133
0.042133
0.042133
0.042133
0.042133
0.042133
0.042133
0.042133
0.042133
0.042133
0.042133
0.042133
0.042133
0.042133
0.042133
0.042133
0.042133
0.042133
0.042133
0.042133
0.042133
0.042133
0.042133
0.042133
0.042133
0.042133
0.042133
0.042133
0.042133
0.042133
0.042133
0.042133
0.042133
0.042133
0.042133
0.042133
0.042133
0.042133
0.042133
0.042133
0.042133
0.042133
0.042133
0.042133
0.042133
0.042133
0.042133
0.042133
0.0421331
0.042133
0.042133
0.042133
0.042133
0.042133
0.042133
0.042133
0.042133
0.042133
0.042133
0.042133
0.042133
0.042133
0.042133
0.042133
0.042133
0.042133
0.042133
0.042133
0.042133
0.042133
0.042133
0.042133
0.042133
0.042133
0.042133
0.042133
0.0421331
0.042133
0.042133
0.042133
0.042133
0.042133
0.042133
0.042133
0.042133
0.042133
0.042133
0.042133
0.042133
0.042133
0.042133
0.042133
0.042133
0.042133
0.042133
0.042133
0.042133
0.042133
0.042133
0.042133
0.042133
0.042133
0.042133
0.042133
0.0421331
0.0421363
0.0421914
0.0424982
0.043105
0.0435992
0.043776
0.0437865
0.0437106
0.0435762
0.0434599
0.043366
0.0432849
0.0432133
0.0431514
0.0430961
0.0430447
0.0430004
0.0429766
0.0429842
0.0430829
0.0434257
0.0439352
0.0443125
0.0444493
0.044464
0.044423
0.0443402
0.0442768
0.0442551
0.0442641
0.0442983
0.0443547
0.042133
0.042133
0.042133
0.042133
0.042133
0.042133
0.042133
0.042133
0.042133
0.042133
0.042133
0.042133
0.042133
0.042133
0.042133
0.042133
0.042133
0.042133
0.042133
0.042133
0.042133
0.042133
0.042133
0.042133
0.042133
0.042133
0.042133
0.0421332
0.0421395
0.0422248
0.0426045
0.0432233
0.0436509
0.0437798
0.0437682
0.0436706
0.0435377
0.0434284
0.0433373
0.0432562
0.0431843
0.0431225
0.0430674
0.0430161
0.0429774
0.0429626
0.042991
0.0431748
0.0436087
0.0440903
0.0443683
0.0444505
0.044436
0.0443843
0.044308
0.0442576
0.0442441
0.044258
0.0442998
0.0443582
0.042133
0.042133
0.042133
0.042133
0.042133
0.042133
0.042133
0.042133
0.042133
0.042133
0.042133
0.042133
0.042133
0.042133
0.042133
0.042133
0.042133
0.042133
0.042133
0.042133
0.042133
0.042133
0.042133
0.042133
0.042133
0.042133
0.042133
0.0421334
0.042145
0.0422704
0.0427199
0.0433286
0.0436864
0.0437785
0.0437513
0.0436304
0.0434981
0.0433948
0.0433075
0.0432279
0.0431564
0.0430941
0.0430381
0.0429871
0.0429568
0.042956
0.0430235
0.0433081
0.0437938
0.044206
0.0443907
0.044438
0.0444111
0.0443484
0.0442774
0.0442397
0.0442354
0.0442547
0.0443018
0.0443599
0.042133
0.042133
0.042133
0.042133
0.042133
0.042133
0.042133
0.042133
0.042133
0.042133
0.042133
0.042133
0.042133
0.042133
0.042133
0.042133
0.042133
0.042133
0.042133
0.042133
0.042133
0.042133
0.042133
0.042133
0.042133
0.042133
0.0421331
0.0421338
0.0421542
0.0423294
0.0428397
0.0434199
0.0437104
0.043771
0.0437296
0.0435929
0.0434606
0.0433604
0.0432762
0.0431991
0.0431289
0.0430658
0.0430086
0.0429607
0.0429392
0.0429565
0.0430937
0.0434752
0.0439587
0.0442811
0.0443956
0.0444128
0.0443821
0.0443157
0.0442517
0.0442241
0.0442279
0.044254
0.0443035
0.0443589
0.042133
0.042133
0.042133
0.042133
0.042133
0.042133
0.042133
0.042133
0.042133
0.042133
0.042133
0.042133
0.042133
0.042133
0.042133
0.042133
0.042133
0.042133
0.042133
0.042133
0.042133
0.042133
0.042133
0.042133
0.042133
0.042133
0.0421331
0.0421347
0.0421686
0.0424018
0.0429593
0.0434953
0.0437256
0.043759
0.0436994
0.043557
0.0434267
0.0433271
0.0432439
0.0431691
0.0431006
0.0430371
0.042979
0.0429384
0.0429284
0.0429735
0.043204
0.0436551
0.0440894
0.0443207
0.0443899
0.0443858
0.0443513
0.0442853
0.0442304
0.0442111
0.0442209
0.0442544
0.0443044
0.0443539
0.042133
0.042133
0.042133
0.042133
0.042133
0.042133
0.042133
0.042133
0.042133
0.042133
0.042133
0.042133
0.042133
0.042133
0.042133
0.042133
0.042133
0.042133
0.042133
0.042133
0.042133
0.042133
0.042133
0.042133
0.042133
0.042133
0.0421331
0.0421362
0.0421898
0.0424866
0.0430744
0.0435571
0.0437326
0.0437428
0.0436641
0.0435202
0.0433947
0.0432958
0.0432124
0.0431385
0.0430711
0.0430077
0.0429504
0.0429196
0.0429258
0.0430229
0.0433506
0.0438245
0.0441806
0.0443332
0.0443725
0.0443596
0.0443201
0.0442574
0.0442126
0.0442008
0.0442153
0.0442543
0.0443024
0.0443447
0.042133
0.042133
0.042133
0.042133
0.042133
0.042133
0.042133
0.042133
0.042133
0.042133
0.042133
0.042133
0.042133
0.042133
0.042133
0.042133
0.042133
0.042133
0.042133
0.042133
0.042133
0.042133
0.042133
0.042133
0.042133
0.042133
0.0421332
0.042139
0.0422194
0.0425817
0.0431814
0.0436036
0.043735
0.0437248
0.0436248
0.0434822
0.0433629
0.0432658
0.0431821
0.043108
0.04304
0.0429775
0.0429252
0.0429054
0.0429326
0.0431112
0.04352
0.0439662
0.0442344
0.0443322
0.0443511
0.0443338
0.0442908
0.0442326
0.0441975
0.0441927
0.044211
0.0442516
0.0442949
0.044332
0.042133
0.042133
0.042133
0.042133
0.042133
0.042133
0.042133
0.042133
0.042133
0.042133
0.042133
0.042133
0.042133
0.042133
0.042133
0.042133
0.042133
0.042133
0.042133
0.042133
0.042133
0.042133
0.042133
0.042133
0.042133
0.042133
0.0421334
0.0421437
0.0422589
0.042684
0.0432778
0.0436365
0.0437336
0.0437066
0.0435843
0.043443
0.0433302
0.0432361
0.0431528
0.0430779
0.0430084
0.0429467
0.0429045
0.0428989
0.0429633
0.0432365
0.0436901
0.044072
0.0442587
0.0443211
0.0443286
0.0443086
0.0442639
0.044211
0.0441843
0.0441855
0.0442066
0.0442455
0.0442833
0.044318
0.042133
0.042133
0.042133
0.042133
0.042133
0.042133
0.042133
0.042133
0.042133
0.042133
0.042133
0.042133
0.042133
0.042133
0.042133
0.042133
0.042133
0.042133
0.042133
0.042133
0.042133
0.042133
0.042133
0.042133
0.042133
0.0421331
0.0421337
0.0421512
0.042309
0.0427902
0.0433607
0.0436593
0.0437259
0.0436862
0.0435455
0.0434046
0.0432967
0.043206
0.0431238
0.0430478
0.0429769
0.0429173
0.0428871
0.0429002
0.0430293
0.0433906
0.0438399
0.0441408
0.0442648
0.0443023
0.0443051
0.0442843
0.0442397
0.0441929
0.0441726
0.0441774
0.0442005
0.0442354
0.0442687
0.0443045
0.042133
0.042133
0.042133
0.042133
0.042133
0.042133
0.042133
0.042133
0.042133
0.042133
0.042133
0.042133
0.042133
0.042133
0.042133
0.042133
0.042133
0.042133
0.042133
0.042133
0.042133
0.042133
0.042133
0.042133
0.042133
0.0421331
0.0421343
0.0421625
0.0423699
0.0428964
0.0434321
0.0436738
0.043714
0.0436587
0.043509
0.0433692
0.0432634
0.0431752
0.0430943
0.0430172
0.0429463
0.0428926
0.0428756
0.0429149
0.043132
0.0435564
0.0439587
0.0441774
0.04426
0.044282
0.0442822
0.0442613
0.0442181
0.0441772
0.0441612
0.0441676
0.0441909
0.044222
0.044254
0.0442955
0.042133
0.042133
0.042133
0.042133
0.042133
0.042133
0.042133
0.042133
0.042133
0.042133
0.042133
0.042133
0.042133
0.042133
0.042133
0.042133
0.042133
0.042133
0.042133
0.042133
0.042133
0.042133
0.042133
0.042133
0.042133
0.0421331
0.0421354
0.0421788
0.0424407
0.0429996
0.0434899
0.0436816
0.0436995
0.0436256
0.0434726
0.0433361
0.0432315
0.0431441
0.0430637
0.0429856
0.0429165
0.042873
0.0428723
0.0429578
0.043266
0.0437112
0.0440419
0.0441902
0.044245
0.0442614
0.0442613
0.0442407
0.044199
0.0441627
0.0441492
0.0441551
0.0441772
0.0442064
0.0442414
0.0442914
0.042133
0.042133
0.042133
0.042133
0.042133
0.042133
0.042133
0.042133
0.042133
0.042133
0.042133
0.042133
0.042133
0.042133
0.042133
0.042133
0.042133
0.042133
0.042133
0.042133
0.042133
0.042133
0.042133
0.042133
0.042133
0.0421331
0.0421373
0.0422013
0.0425202
0.0430971
0.0435367
0.0436834
0.0436817
0.043589
0.0434356
0.0433043
0.043201
0.0431133
0.043032
0.0429538
0.0428891
0.042858
0.0428769
0.0430357
0.0434208
0.0438412
0.0440912
0.0441905
0.0442271
0.0442415
0.0442424
0.0442221
0.0441815
0.0441479
0.0441351
0.0441396
0.0441609
0.0441921
0.0442347
0.0442933
0.042133
0.042133
0.042133
0.042133
0.042133
0.042133
0.042133
0.042133
0.042133
0.042133
0.042133
0.042133
0.042133
0.042133
0.042133
0.042133
0.042133
0.042133
0.042133
0.042133
0.042133
0.042133
0.042133
0.042133
0.042133
0.0421332
0.0421404
0.0422309
0.0426064
0.0431859
0.0435711
0.0436828
0.0436643
0.0435495
0.0433979
0.0432729
0.0431715
0.0430827
0.0429994
0.0429225
0.0428659
0.0428498
0.0428998
0.0431466
0.0435761
0.0439381
0.0441138
0.0441818
0.0442096
0.044224
0.0442259
0.0442053
0.0441643
0.0441312
0.0441181
0.0441215
0.0441445
0.0441814
0.0442329
0.0443027
0.042133
0.042133
0.042133
0.042133
0.042133
0.042133
0.042133
0.042133
0.042133
0.042133
0.042133
0.042133
0.042133
0.042133
0.042133
0.042133
0.042133
0.042133
0.042133
0.042133
0.042133
0.042133
0.042133
0.042133
0.042133
0.0421334
0.0421452
0.0422684
0.0426966
0.0432657
0.0435955
0.0436784
0.0436456
0.04351
0.04336
0.0432413
0.0431423
0.0430522
0.0429664
0.0428926
0.0428471
0.0428494
0.0429518
0.0432837
0.0437154
0.0440022
0.0441196
0.0441659
0.0441922
0.0442085
0.0442111
0.0441892
0.0441457
0.0441114
0.0440984
0.0441027
0.0441316
0.0441773
0.044238
0.0443211
0.042133
0.042133
0.042133
0.042133
0.042133
0.042133
0.042133
0.042133
0.042133
0.042133
0.042133
0.042133
0.042133
0.042133
0.042133
0.042133
0.042133
0.042133
0.042133
0.042133
0.042133
0.042133
0.042133
0.042133
0.0421331
0.0421338
0.0421524
0.042314
0.0427886
0.0433342
0.0436126
0.0436687
0.0436238
0.0434725
0.0433233
0.0432093
0.0431127
0.0430212
0.042934
0.0428658
0.0428333
0.0428573
0.0430363
0.0434329
0.0438268
0.0440375
0.0441158
0.0441498
0.0441771
0.0441952
0.0441973
0.0441725
0.0441247
0.0440886
0.0440773
0.0440854
0.0441243
0.0441794
0.0442533
0.0443469
0.042133
0.042133
0.042133
0.042133
0.042133
0.042133
0.042133
0.042133
0.042133
0.042133
0.042133
0.042133
0.042133
0.042133
0.042133
0.042133
0.042133
0.042133
0.042133
0.042133
0.042133
0.042133
0.042133
0.042133
0.0421331
0.0421343
0.0421626
0.0423676
0.0428795
0.0433935
0.0436227
0.0436569
0.0435961
0.0434367
0.043289
0.0431777
0.0430821
0.0429894
0.0429032
0.0428433
0.0428267
0.0428849
0.0431501
0.0435781
0.0439077
0.0440505
0.0441026
0.0441342
0.0441651
0.0441837
0.0441829
0.0441538
0.0441006
0.0440644
0.0440576
0.0440728
0.044123
0.0441905
0.0442777
0.0443764
0.042133
0.042133
0.042133
0.042133
0.042133
0.042133
0.042133
0.042133
0.042133
0.042133
0.042133
0.042133
0.042133
0.042133
0.042133
0.042133
0.042133
0.042133
0.042133
0.042133
0.042133
0.042133
0.042133
0.042133
0.0421331
0.0421353
0.0421767
0.0424284
0.0429674
0.0434419
0.0436277
0.043643
0.0435644
0.0434013
0.0432568
0.0431467
0.0430507
0.0429567
0.0428745
0.0428252
0.0428281
0.0429405
0.0432838
0.0437027
0.043959
0.0440523
0.0440878
0.0441207
0.0441553
0.0441736
0.0441671
0.0441311
0.044074
0.044041
0.0440416
0.0440671
0.0441291
0.0442118
0.0443079
0.0444039
0.042133
0.042133
0.042133
0.042133
0.042133
0.042133
0.042133
0.042133
0.042133
0.042133
0.042133
0.042133
0.042133
0.042133
0.042133
0.042133
0.042133
0.042133
0.042133
0.042133
0.042133
0.042133
0.042133
0.042133
0.0421331
0.0421368
0.0421954
0.0424955
0.0430506
0.0434816
0.0436283
0.0436263
0.0435299
0.0433661
0.0432261
0.0431164
0.0430185
0.0429241
0.0428492
0.0428123
0.0428379
0.0430262
0.0434261
0.043801
0.0439849
0.0440462
0.0440743
0.0441107
0.044147
0.0441633
0.0441493
0.0441041
0.0440471
0.0440203
0.0440305
0.044069
0.0441461
0.0442408
0.0443385
0.044425
0.0444946
0.0445519
0.0445979
0.0446382
0.0446794
0.0447246
0.044776
0.0448325
0.0448923
0.0449525
0.0450102
0.0450639
0.0451128
0.0451572
0.0451978
0.0452355
0.0452715
0.0453064
0.0453404
0.0453731
0.0454041
0.0454329
0.0454592
0.0454829
0.0455037
0.0455215
0.0455359
0.0455467
0.0455536
0.0455569
0.0455565
0.0455516
0.0455428
0.0455304
0.0455143
0.0454946
0.0454718
0.0454458
0.0454167
0.042133
0.042133
0.042133
0.042133
0.042133
0.042133
0.042133
0.042133
0.042133
0.042133
0.042133
0.042133
0.042133
0.042133
0.042133
0.042133
0.042133
0.042133
0.042133
0.042133
0.042133
0.042133
0.042133
0.042133
0.0421332
0.0421392
0.0422191
0.0425674
0.043127
0.0435117
0.043627
0.0436095
0.0434928
0.0433307
0.043196
0.0430863
0.0429858
0.0428927
0.0428279
0.0428067
0.0428665
0.0431367
0.0435596
0.0438707
0.0439932
0.0440322
0.0440614
0.0441034
0.0441391
0.0441507
0.0441288
0.0440748
0.0440224
0.0440053
0.0440257
0.04408
0.0441728
0.0442729
0.0443639
0.0444372
0.044496
0.0445439
0.044583
0.044621
0.0446621
0.0447077
0.044759
0.0448145
0.044872
0.0449286
0.044982
0.045031
0.0450754
0.0451158
0.0451529
0.0451877
0.0452212
0.0452537
0.0452852
0.0453154
0.0453437
0.0453697
0.045393
0.0454137
0.0454314
0.045446
0.0454572
0.0454647
0.0454687
0.0454692
0.0454654
0.0454577
0.0454463
0.0454314
0.045413
0.0453913
0.0453666
0.045339
0.0453084
0.0452761
0.0452406
0.0452048
0.0451663
0.0451278
0.0450877
0.0450469
0.0450059
0.0449638
0.0449221
0.042133
0.042133
0.042133
0.042133
0.042133
0.042133
0.042133
0.042133
0.042133
0.042133
0.042133
0.042133
0.042133
0.042133
0.042133
0.042133
0.042133
0.042133
0.042133
0.042133
0.042133
0.042133
0.042133
0.042133
0.0421333
0.0421426
0.0422485
0.0426425
0.0431965
0.0435338
0.0436227
0.0435919
0.0434554
0.0432953
0.0431659
0.0430562
0.042953
0.0428634
0.0428103
0.0428085
0.0429207
0.0432643
0.043674
0.0439135
0.0439927
0.0440181
0.0440502
0.0440972
0.04413
0.0441341
0.0441052
0.044046
0.0440027
0.0439982
0.0440279
0.0441004
0.0442046
0.0443022
0.0443809
0.0444417
0.0444916
0.0445305
0.0445662
0.0446035
0.0446449
0.0446908
0.0447416
0.0447955
0.0448503
0.0449031
0.044952
0.0449965
0.0450368
0.0450736
0.0451076
0.0451397
0.0451708
0.0452009
0.04523
0.0452577
0.0452833
0.0453064
0.0453268
0.0453444
0.045359
0.0453705
0.0453785
0.0453831
0.0453843
0.0453815
0.0453746
0.0453644
0.0453505
0.0453332
0.0453127
0.0452891
0.0452626
0.0452335
0.0452016
0.0451682
0.0451319
0.0450955
0.0450566
0.0450178
0.0449776
0.0449368
0.0448959
0.0448541
0.0448127
0.0447715
0.0447304
0.0446901
0.0446501
0.0446105
0.0445713
0.0445323
0.0444936
0.0444555
0.0444175
0.0443781
0.044328
0.042133
0.042133
0.042133
0.042133
0.042133
0.042133
0.042133
0.042133
0.042133
0.042133
0.042133
0.042133
0.042133
0.042133
0.042133
0.042133
0.042133
0.042133
0.042133
0.042133
0.042133
0.042133
0.042133
0.042133
0.0421335
0.0421477
0.0422836
0.0427191
0.0432573
0.0435498
0.0436142
0.0435726
0.0434191
0.0432604
0.0431355
0.0430253
0.0429206
0.0428382
0.0427964
0.042819
0.0430019
0.0433961
0.0437623
0.0439347
0.0439854
0.0440056
0.0440423
0.0440915
0.044119
0.0441134
0.0440789
0.044021
0.0439889
0.0439965
0.04404
0.0441288
0.0442365
0.0443241
0.0443887
0.0444401
0.04448
0.0445144
0.0445487
0.0445862
0.0446278
0.0446737
0.0447237
0.0447756
0.0448273
0.0448761
0.0449207
0.0449611
0.0449976
0.045031
0.0450622
0.0450919
0.0451206
0.0451485
0.0451752
0.0452003
0.0452232
0.0452435
0.0452609
0.0452755
0.0452871
0.0452954
0.0453005
0.0453022
0.0453003
0.0452944
0.0452849
0.0452721
0.0452558
0.0452363
0.0452138
0.0451883
0.0451602
0.0451297
0.0450965
0.0450622
0.0450251
0.044988
0.0449487
0.0449095
0.0448692
0.0448283
0.0447875
0.0447459
0.0447048
0.044664
0.0446235
0.0445837
0.0445443
0.0445054
0.0444668
0.0444285
0.0443906
0.0443531
0.0443159
0.0442774
0.0442284
0.042133
0.042133
0.042133
0.042133
0.042133
0.042133
0.042133
0.042133
0.042133
0.042133
0.042133
0.042133
0.042133
0.042133
0.042133
0.042133
0.042133
0.042133
0.042133
0.042133
0.042133
0.042133
0.042133
0.0421331
0.0421339
0.0421546
0.0423245
0.0427955
0.043311
0.0435602
0.0436037
0.0435489
0.0433848
0.0432271
0.0431045
0.0429936
0.0428899
0.0428172
0.0427897
0.042845
0.0431064
0.0435219
0.0438257
0.0439405
0.0439714
0.0439938
0.0440368
0.0440848
0.0441059
0.0440913
0.0440518
0.0440025
0.0439823
0.0439996
0.0440624
0.0441615
0.0442629
0.0443362
0.0443896
0.0444312
0.0444646
0.044497
0.0445314
0.0445693
0.044611
0.0446564
0.0447051
0.0447546
0.0448029
0.0448477
0.0448882
0.0449247
0.0449577
0.0449882
0.0450168
0.0450442
0.0450706
0.0450962
0.0451206
0.0451431
0.0451632
0.0451806
0.0451952
0.0452068
0.0452153
0.0452207
0.0452228
0.0452217
0.0452166
0.045208
0.0451959
0.0451807
0.045162
0.0451405
0.045116
0.0450888
0.045059
0.0450273
0.0449928
0.0449577
0.0449199
0.0448822
0.0448427
0.0448031
0.0447628
0.0447218
0.0446811
0.0446398
0.0445989
0.0445585
0.0445183
0.044479
0.0444401
0.0444018
0.0443637
0.044326
0.0442887
0.0442519
0.0442154
0.0441777
0.04413
0.042133
0.042133
0.042133
0.042133
0.042133
0.042133
0.042133
0.042133
0.042133
0.042133
0.042133
0.042133
0.042133
0.042133
0.042133
0.042133
0.042133
0.042133
0.042133
0.042133
0.042133
0.042133
0.042133
0.0421331
0.0421344
0.0421639
0.0423707
0.0428702
0.0433562
0.0435663
0.0435921
0.0435215
0.0433515
0.0431954
0.0430731
0.0429612
0.042861
0.0428004
0.0427906
0.0428927
0.043224
0.0436286
0.0438661
0.0439399
0.0439578
0.0439833
0.0440319
0.044076
0.0440898
0.0440692
0.044028
0.0439904
0.0439816
0.0440112
0.0440913
0.0441926
0.0442806
0.0443401
0.044384
0.044417
0.0444476
0.0444796
0.0445146
0.0445528
0.0445943
0.0446388
0.0446858
0.0447326
0.0447774
0.0448182
0.0448549
0.0448878
0.0449177
0.0449455
0.0449717
0.0449969
0.0450212
0.0450445
0.0450664
0.0450863
0.0451037
0.0451183
0.04513
0.0451387
0.0451442
0.0451466
0.0451461
0.0451417
0.0451338
0.0451226
0.045108
0.0450904
0.0450695
0.0450459
0.0450196
0.0449908
0.0449595
0.0449266
0.044891
0.044855
0.0448165
0.0447783
0.0447384
0.0446985
0.044658
0.0446169
0.0445762
0.0445351
0.0444944
0.0444543
0.0444146
0.0443757
0.0443373
0.0442994
0.0442619
0.0442247
0.044188
0.0441517
0.0441157
0.0440787
0.0440317
0.042133
0.042133
0.042133
0.042133
0.042133
0.042133
0.042133
0.042133
0.042133
0.042133
0.042133
0.042133
0.042133
0.042133
0.042133
0.042133
0.042133
0.042133
0.042133
0.042133
0.042133
0.042133
0.042133
0.0421331
0.0421352
0.042176
0.0424217
0.0429421
0.0433948
0.0435679
0.0435784
0.0434917
0.0433187
0.0431649
0.0430415
0.0429286
0.0428354
0.0427864
0.0427997
0.0429645
0.043347
0.043713
0.0438861
0.0439328
0.0439456
0.043975
0.0440264
0.0440646
0.0440712
0.0440484
0.0440103
0.0439853
0.0439872
0.0440307
0.0441215
0.0442162
0.0442884
0.0443376
0.0443713
0.0444005
0.0444304
0.044463
0.0444984
0.0445367
0.0445776
0.0446209
0.0446658
0.0447096
0.0447508
0.0447879
0.0448209
0.0448506
0.0448776
0.0449029
0.0449269
0.0449499
0.0449721
0.0449931
0.0450124
0.0450297
0.0450444
0.0450562
0.045065
0.0450707
0.0450734
0.0450732
0.0450694
0.0450621
0.0450516
0.0450379
0.0450209
0.045001
0.044978
0.0449526
0.0449244
0.0448941
0.0448614
0.0448273
0.0447906
0.0447538
0.0447148
0.0446761
0.0446359
0.0445957
0.0445552
0.0445139
0.0444733
0.0444324
0.0443918
0.044352
0.0443126
0.044274
0.044236
0.0441985
0.0441614
0.0441246
0.0440883
0.0440525
0.0440169
0.0439803
0.0439337
0.042133
0.042133
0.042133
0.042133
0.042133
0.042133
0.042133
0.042133
0.042133
0.042133
0.042133
0.042133
0.042133
0.042133
0.042133
0.042133
0.042133
0.042133
0.042133
0.042133
0.042133
0.042133
0.042133
0.0421331
0.0421365
0.0421912
0.0424768
0.0430098
0.0434262
0.0435674
0.0435631
0.04346
0.0432863
0.0431348
0.0430095
0.042897
0.0428145
0.0427776
0.0428209
0.0430578
0.0434637
0.0437743
0.0438921
0.0439199
0.0439339
0.0439686
0.04402
0.0440512
0.0440519
0.0440304
0.0439999
0.0439849
0.0439987
0.0440563
0.0441482
0.0442302
0.0442891
0.0443279
0.0443555
0.0443833
0.0444138
0.0444471
0.0444829
0.0445209
0.044561
0.0446026
0.0446451
0.0446857
0.0447235
0.044757
0.0447867
0.0448133
0.0448378
0.0448608
0.0448827
0.0449036
0.0449236
0.0449422
0.0449591
0.0449737
0.0449857
0.0449948
0.0450006
0.0450036
0.0450037
0.0450002
0.0449934
0.0449835
0.0449704
0.0449542
0.0449349
0.0449128
0.0448879
0.0448606
0.0448307
0.044799
0.0447649
0.0447297
0.0446921
0.0446545
0.0446149
0.0445756
0.0445351
0.0444945
0.0444538
0.0444125
0.0443718
0.044331
0.0442906
0.0442511
0.0442119
0.0441736
0.0441359
0.0440988
0.0440621
0.0440257
0.0439898
0.0439543
0.0439191
0.0438831
0.0438373
0.042133
0.042133
0.042133
0.042133
0.042133
0.042133
0.042133
0.042133
0.042133
0.042133
0.042133
0.042133
0.042133
0.042133
0.042133
0.042133
0.042133
0.042133
0.042133
0.042133
0.042133
0.042133
0.042133
0.0421332
0.0421382
0.04221
0.0425351
0.043073
0.0434507
0.0435653
0.0435473
0.0434265
0.0432538
0.0431048
0.0429776
0.0428674
0.0427972
0.0427757
0.0428592
0.0431656
0.0435676
0.043815
0.0438916
0.0439061
0.0439224
0.0439626
0.0440119
0.0440368
0.0440343
0.0440168
0.0439963
0.0439897
0.044015
0.0440824
0.0441676
0.0442354
0.0442835
0.0443138
0.0443388
0.0443667
0.0443981
0.0444321
0.044468
0.0445054
0.0445442
0.044584
0.0446238
0.0446612
0.0446955
0.0447256
0.0447522
0.0447762
0.0447983
0.0448191
0.0448389
0.0448578
0.0448755
0.0448917
0.0449061
0.0449181
0.0449274
0.0449335
0.0449367
0.0449371
0.0449339
0.0449275
0.0449181
0.0449055
0.04489
0.0448714
0.0448498
0.0448257
0.0447988
0.0447698
0.0447383
0.0447053
0.0446698
0.0446336
0.0445951
0.0445567
0.0445166
0.0444768
0.044436
0.0443951
0.0443543
0.0443129
0.0442722
0.0442316
0.0441913
0.0441519
0.044113
0.0440749
0.0440375
0.0440006
0.0439641
0.0439281
0.0438925
0.0438574
0.0438225
0.0437869
0.0437415
0.042133
0.042133
0.042133
0.042133
0.042133
0.042133
0.042133
0.042133
0.042133
0.042133
0.042133
0.042133
0.042133
0.042133
0.042133
0.042133
0.042133
0.042133
0.042133
0.042133
0.042133
0.042133
0.042133
0.0421332
0.0421407
0.0422325
0.0425955
0.0431302
0.0434693
0.0435609
0.0435314
0.0433926
0.0432209
0.0430743
0.0429458
0.0428403
0.0427839
0.0427818
0.042917
0.043277
0.0436504
0.0438379
0.0438867
0.0438935
0.0439122
0.0439562
0.044002
0.0440225
0.0440205
0.0440085
0.0439968
0.0440004
0.0440348
0.0441036
0.0441778
0.0442342
0.0442717
0.0442983
0.0443226
0.0443513
0.0443834
0.0444178
0.0444535
0.04449
0.0445274
0.044565
0.044602
0.0446361
0.0446671
0.0446941
0.0447179
0.0447394
0.0447593
0.0447781
0.044796
0.0448127
0.0448282
0.0448419
0.0448537
0.0448631
0.0448696
0.0448731
0.0448738
0.0448709
0.0448648
0.0448557
0.0448437
0.0448286
0.0448105
0.0447896
0.0447659
0.0447398
0.0447111
0.0446804
0.0446474
0.044613
0.0445763
0.0445391
0.0444998
0.0444607
0.0444201
0.0443797
0.0443386
0.0442974
0.0442563
0.0442148
0.044174
0.0441335
0.0440933
0.044054
0.0440153
0.0439774
0.0439402
0.0439036
0.0438675
0.0438317
0.0437964
0.0437616
0.043727
0.0436916
0.0436465
0.042133
0.042133
0.042133
0.042133
0.042133
0.042133
0.042133
0.042133
0.042133
0.042133
0.042133
0.042133
0.042133
0.042133
0.042133
0.042133
0.042133
0.042133
0.042133
0.042133
0.042133
0.042133
0.042133
0.0421334
0.0421442
0.0422588
0.042657
0.0431823
0.0434831
0.0435535
0.0435145
0.0433593
0.043188
0.043043
0.0429146
0.0428175
0.0427727
0.0427972
0.0429956
0.0433871
0.0437129
0.0438455
0.0438752
0.0438815
0.0439037
0.0439496
0.0439913
0.0440096
0.0440111
0.0440057
0.0440016
0.0440144
0.0440546
0.0441178
0.0441806
0.0442269
0.0442574
0.0442829
0.0443077
0.0443372
0.0443696
0.044404
0.0444392
0.0444747
0.0445103
0.0445455
0.0445797
0.0446106
0.0446385
0.0446626
0.0446838
0.044703
0.0447208
0.0447377
0.0447535
0.0447681
0.0447812
0.0447926
0.0448018
0.0448085
0.0448123
0.0448132
0.0448108
0.044805
0.0447961
0.0447844
0.0447697
0.0447522
0.0447318
0.0447087
0.044683
0.044655
0.0446245
0.0445923
0.0445577
0.0445221
0.0444842
0.0444461
0.044406
0.0443662
0.0443251
0.0442842
0.0442429
0.0442013
0.0441601
0.0441186
0.0440777
0.0440372
0.0439971
0.0439579
0.0439194
0.0438817
0.0438446
0.0438082
0.0437722
0.0437367
0.0437016
0.043667
0.0436327
0.0435978
0.0435534
0.042133
0.042133
0.042133
0.042133
0.042133
0.042133
0.042133
0.042133
0.042133
0.042133
0.042133
0.042133
0.042133
0.042133
0.042133
0.042133
0.042133
0.042133
0.042133
0.042133
0.042133
0.042133
0.042133
0.0421336
0.0421487
0.0422888
0.0427186
0.043228
0.0434931
0.0435443
0.043495
0.0433275
0.0431553
0.0430108
0.042885
0.0428
0.0427668
0.0428249
0.0430897
0.0434868
0.0437569
0.0438462
0.0438616
0.0438697
0.0438964
0.043943
0.0439812
0.0439994
0.0440066
0.0440069
0.0440111
0.0440299
0.0440694
0.0441241
0.0441782
0.0442155
0.0442427
0.0442683
0.044294
0.0443244
0.0443567
0.0443907
0.0444251
0.0444593
0.044493
0.0445258
0.044557
0.0445849
0.0446098
0.0446312
0.0446501
0.0446672
0.0446831
0.044698
0.0447118
0.0447242
0.0447349
0.0447438
0.0447505
0.0447544
0.0447557
0.0447538
0.0447484
0.0447398
0.0447283
0.0447139
0.0446968
0.0446768
0.0446542
0.0446289
0.0446012
0.0445714
0.0445392
0.0445055
0.0444695
0.0444328
0.0443937
0.0443547
0.0443139
0.0442735
0.0442318
0.0441904
0.0441487
0.0441068
0.0440654
0.0440237
0.0439827
0.0439422
0.0439022
0.0438631
0.0438247
0.0437871
0.0437503
0.043714
0.0436783
0.043643
0.0436081
0.0435738
0.0435397
0.043505
0.0434608
0.042133
0.042133
0.042133
0.042133
0.042133
0.042133
0.042133
0.042133
0.042133
0.042133
0.042133
0.042133
0.042133
0.042133
0.042133
0.042133
0.042133
0.042133
0.042133
0.042133
0.042133
0.042133
0.0421331
0.0421339
0.0421546
0.0423226
0.0427793
0.0432688
0.0434992
0.0435344
0.0434725
0.0432965
0.043123
0.0429784
0.0428577
0.0427859
0.0427675
0.0428679
0.0431917
0.0435724
0.0437844
0.0438427
0.0438483
0.0438583
0.0438896
0.0439363
0.0439726
0.0439927
0.0440054
0.0440129
0.0440233
0.044043
0.0440772
0.0441248
0.0441703
0.0442028
0.0442287
0.0442552
0.0442817
0.0443125
0.0443444
0.0443776
0.0444109
0.0444436
0.0444753
0.0445056
0.044534
0.0445591
0.0445812
0.0446001
0.0446168
0.0446319
0.0446459
0.0446589
0.0446705
0.0446806
0.0446891
0.0446955
0.0446994
0.0447009
0.0446994
0.0446944
0.0446862
0.044675
0.0446608
0.0446439
0.0446243
0.044602
0.0445772
0.04455
0.0445204
0.0444888
0.044455
0.04442
0.0443825
0.0443447
0.0443046
0.0442647
0.0442232
0.0441821
0.04414
0.0440982
0.0440562
0.044014
0.0439724
0.0439307
0.0438896
0.0438491
0.0438091
0.0437701
0.0437318
0.0436943
0.0436576
0.0436215
0.0435858
0.0435507
0.043516
0.0434818
0.0434478
0.0434134
0.0433691
0.042133
0.042133
0.042133
0.042133
0.042133
0.042133
0.042133
0.042133
0.042133
0.042133
0.042133
0.042133
0.042133
0.042133
0.042133
0.042133
0.042133
0.042133
0.042133
0.042133
0.042133
0.042133
0.0421331
0.0421343
0.0421621
0.0423596
0.0428384
0.0433035
0.0435024
0.0435237
0.0434478
0.0432658
0.043091
0.042946
0.0428326
0.0427755
0.0427761
0.0429271
0.0432923
0.043639
0.0437977
0.0438343
0.0438362
0.0438483
0.0438836
0.0439302
0.0439662
0.04399
0.0440079
0.0440224
0.0440343
0.0440507
0.0440798
0.0441217
0.0441601
0.0441901
0.0442161
0.0442435
0.0442704
0.0443012
0.0443325
0.0443647
0.0443966
0.0444276
0.0444572
0.0444851
0.0445109
0.0445332
0.0445528
0.0445694
0.044584
0.0445973
0.0446094
0.0446204
0.0446299
0.0446378
0.0446438
0.0446476
0.0446491
0.0446478
0.0446434
0.0446357
0.0446248
0.0446109
0.0445942
0.0445747
0.0445528
0.0445282
0.0445013
0.0444721
0.0444407
0.0444075
0.0443721
0.0443357
0.044297
0.0442581
0.0442169
0.0441763
0.0441341
0.0440924
0.0440499
0.0440075
0.0439652
0.0439227
0.0438809
0.043839
0.0437978
0.0437573
0.0437173
0.0436783
0.0436402
0.0436028
0.0435662
0.0435302
0.0434948
0.0434598
0.0434254
0.0433914
0.0433576
0.0433235
0.0432798
0.042133
0.042133
0.042133
0.042133
0.042133
0.042133
0.042133
0.042133
0.042133
0.042133
0.042133
0.042133
0.042133
0.042133
0.042133
0.042133
0.042133
0.042133
0.042133
0.042133
0.042133
0.042133
0.0421331
0.0421349
0.0421713
0.0423997
0.0428953
0.0433336
0.0435028
0.0435116
0.0434215
0.0432349
0.043059
0.0429147
0.0428119
0.0427668
0.0427943
0.0430033
0.0433888
0.0436882
0.0438007
0.0438223
0.0438247
0.04384
0.0438786
0.0439252