/*--------------------------------*- C++ -*----------------------------------*\
| =========                 |                                                 |
| \\      /  F ield         | OpenFOAM: The Open Source CFD Toolbox           |
|  \\    /   O peration     | Version:  2412                                  |
|   \\  /    A nd           | Website:  www.openfoam.com                      |
|    \\/     M anipulation  |                                                 |
\*---------------------------------------------------------------------------*/
FoamFile
{
    version     2.0;
    format      ascii;
    arch        "LSB;label=32;scalar=64";
    class       volVectorField;
    location    "0.066";
    object      U;
}
// * * * * * * * * * * * * * * * * * * * * * * * * * * * * * * * * * * * * * //

dimensions      [0 1 -1 0 0 0 0];

internalField   nonuniform List<vector> 
9816
(
(184.675 -29.9751 0)
(184.609 -30.2891 0)
(184.557 -30.5988 0)
(184.517 -30.9037 0)
(184.502 -31.2057 0)
(184.466 -31.4998 0)
(184.448 -31.7865 0)
(184.45 -32.0682 0)
(184.461 -32.3435 0)
(184.466 -32.6111 0)
(184.497 -32.8717 0)
(184.516 -33.124 0)
(184.557 -33.3673 0)
(184.583 -33.6014 0)
(184.62 -33.827 0)
(184.668 -34.0439 0)
(184.651 -34.2553 0)
(184.749 -34.4631 0)
(184.831 -34.6778 0)
(184.982 -34.8849 0)
(185.165 -35.097 0)
(185.382 -35.3007 0)
(185.609 -35.5043 0)
(185.84 -35.6933 0)
(186.042 -35.8767 0)
(186.209 -36.0345 0)
(186.307 -36.1804 0)
(186.315 -36.3056 0)
(186.177 -36.3533 0)
(185.8 -36.3644 0)
(185.129 -36.3172 0)
(184.164 -36.2212 0)
(182.927 -36.0884 0)
(181.434 -35.8595 0)
(179.646 -35.6476 0)
(177.569 -35.2464 0)
(175.146 -34.9714 0)
(172.501 -34.3811 0)
(169.618 -34.1081 0)
(166.752 -33.4076 0)
(163.919 -33.302 0)
(161.566 -32.5372 0)
(191.802 -29.6515 0)
(191.84 -29.8325 0)
(191.908 -30.005 0)
(191.961 -30.1737 0)
(192.035 -30.3336 0)
(192.096 -30.4874 0)
(192.139 -30.6363 0)
(192.216 -30.7779 0)
(192.29 -30.9143 0)
(192.359 -31.0445 0)
(192.428 -31.1684 0)
(192.502 -31.2828 0)
(192.533 -31.3966 0)
(192.616 -31.4954 0)
(192.66 -31.6064 0)
(192.78 -31.7047 0)
(192.949 -31.8115 0)
(193.169 -31.9127 0)
(193.41 -32.0173 0)
(193.64 -32.108 0)
(193.816 -32.1903 0)
(193.923 -32.2514 0)
(193.967 -32.31 0)
(193.946 -32.3442 0)
(193.766 -32.3071 0)
(193.287 -32.2989 0)
(192.483 -32.1456 0)
(191.344 -32.0679 0)
(189.938 -31.7925 0)
(188.226 -31.6339 0)
(186.246 -31.2227 0)
(183.935 -30.9817 0)
(181.427 -30.4448 0)
(178.762 -30.1822 0)
(176.218 -29.6187 0)
(173.907 -29.4578 0)
(172.105 -29.0345 0)
(170.783 -28.9965 0)
(170.008 -28.7274 0)
(169.588 -28.8355 0)
(169.43 -28.7678 0)
(169.371 -28.844 0)
(195.526 -29.0267 0)
(195.595 -29.1612 0)
(195.679 -29.2877 0)
(195.761 -29.4105 0)
(195.839 -29.5292 0)
(195.92 -29.639 0)
(195.981 -29.7481 0)
(196.055 -29.8474 0)
(196.119 -29.944 0)
(196.182 -30.0316 0)
(196.221 -30.1176 0)
(196.275 -30.1921 0)
(196.29 -30.2711 0)
(196.354 -30.3422 0)
(196.439 -30.4132 0)
(196.535 -30.48 0)
(196.625 -30.5418 0)
(196.693 -30.5935 0)
(196.721 -30.6446 0)
(196.711 -30.6804 0)
(196.636 -30.6879 0)
(196.436 -30.6889 0)
(196.051 -30.6336 0)
(195.426 -30.5752 0)
(194.524 -30.4278 0)
(193.276 -30.2707 0)
(191.647 -29.9896 0)
(189.603 -29.7047 0)
(187.219 -29.3067 0)
(184.601 -28.9317 0)
(181.937 -28.4992 0)
(179.405 -28.1164 0)
(177.191 -27.7769 0)
(175.425 -27.57 0)
(174.194 -27.3174 0)
(173.441 -27.1338 0)
(173.04 -27.2262 0)
(172.872 -27.279 0)
(172.835 -27.2031 0)
(172.846 -27.1346 0)
(172.892 -27.126 0)
(173.009 -27.1769 0)
(198.117 -28.8982 0)
(198.196 -28.97 0)
(198.271 -29.0356 0)
(198.342 -29.0944 0)
(198.403 -29.1493 0)
(198.459 -29.1972 0)
(198.503 -29.2422 0)
(198.545 -29.2818 0)
(198.579 -29.3187 0)
(198.609 -29.3508 0)
(198.619 -29.3832 0)
(198.647 -29.4125 0)
(198.684 -29.4407 0)
(198.722 -29.4686 0)
(198.755 -29.4922 0)
(198.772 -29.5176 0)
(198.77 -29.5393 0)
(198.737 -29.542 0)
(198.64 -29.5572 0)
(198.438 -29.5245 0)
(198.061 -29.5119 0)
(197.456 -29.4057 0)
(196.54 -29.3244 0)
(195.266 -29.1007 0)
(193.563 -28.9042 0)
(191.45 -28.544 0)
(188.944 -28.2206 0)
(186.186 -27.762 0)
(183.331 -27.3711 0)
(180.617 -26.9476 0)
(178.239 -26.6254 0)
(176.375 -26.2623 0)
(175.045 -26.1097 0)
(174.218 -26.1199 0)
(173.812 -25.9582 0)
(173.653 -25.8117 0)
(173.596 -25.7983 0)
(173.598 -25.8726 0)
(173.614 -25.9377 0)
(173.673 -25.9458 0)
(173.824 -25.9528 0)
(174.074 -25.9321 0)
(199.461 -28.275 0)
(199.49 -28.2982 0)
(199.516 -28.3186 0)
(199.537 -28.3363 0)
(199.554 -28.3517 0)
(199.568 -28.3649 0)
(199.581 -28.3766 0)
(199.593 -28.3872 0)
(199.602 -28.3975 0)
(199.616 -28.4073 0)
(199.635 -28.4166 0)
(199.659 -28.4248 0)
(199.681 -28.4341 0)
(199.698 -28.4412 0)
(199.708 -28.449 0)
(199.718 -28.4549 0)
(199.72 -28.4552 0)
(199.692 -28.4605 0)
(199.588 -28.4404 0)
(199.321 -28.4194 0)
(198.793 -28.3356 0)
(197.887 -28.2307 0)
(196.518 -28.0322 0)
(194.634 -27.7887 0)
(192.254 -27.4496 0)
(189.457 -27.0679 0)
(186.409 -26.6382 0)
(183.324 -26.216 0)
(180.45 -25.7934 0)
(177.992 -25.4301 0)
(176.077 -25.2484 0)
(174.757 -25.0491 0)
(173.978 -24.7693 0)
(173.553 -24.7463 0)
(173.377 -24.8566 0)
(173.327 -24.8571 0)
(173.334 -24.8059 0)
(173.36 -24.7335 0)
(173.415 -24.6733 0)
(173.512 -24.6736 0)
(173.683 -24.713 0)
(173.957 -24.776 0)
(200.103 -27.5833 0)
(200.106 -27.5923 0)
(200.109 -27.6004 0)
(200.112 -27.6072 0)
(200.117 -27.614 0)
(200.124 -27.62 0)
(200.132 -27.6269 0)
(200.142 -27.6326 0)
(200.145 -27.639 0)
(200.154 -27.6435 0)
(200.174 -27.6506 0)
(200.196 -27.6565 0)
(200.21 -27.6627 0)
(200.216 -27.6685 0)
(200.223 -27.6729 0)
(200.226 -27.6735 0)
(200.207 -27.6729 0)
(200.124 -27.6508 0)
(199.901 -27.6243 0)
(199.453 -27.5476 0)
(198.663 -27.4445 0)
(197.433 -27.2487 0)
(195.669 -27.0214 0)
(193.365 -26.668 0)
(190.566 -26.3056 0)
(187.446 -25.8439 0)
(184.219 -25.415 0)
(181.155 -24.9719 0)
(178.475 -24.6513 0)
(176.356 -24.3028 0)
(174.836 -24.021 0)
(173.845 -24.0145 0)
(173.287 -24.0104 0)
(173.05 -23.8467 0)
(172.966 -23.7367 0)
(172.941 -23.7129 0)
(172.953 -23.7606 0)
(172.972 -23.8272 0)
(173.021 -23.8518 0)
(173.149 -23.8634 0)
(173.366 -23.8553 0)
(173.675 -23.846 0)
(200.703 -27.369 0)
(200.695 -27.3817 0)
(200.69 -27.3944 0)
(200.686 -27.406 0)
(200.686 -27.4183 0)
(200.686 -27.4289 0)
(200.69 -27.4398 0)
(200.69 -27.4508 0)
(200.7 -27.4604 0)
(200.716 -27.4713 0)
(200.735 -27.48 0)
(200.746 -27.4902 0)
(200.749 -27.4993 0)
(200.746 -27.5017 0)
(200.716 -27.5029 0)
(200.635 -27.4907 0)
(200.465 -27.4805 0)
(200.168 -27.4305 0)
(199.662 -27.3696 0)
(198.852 -27.2287 0)
(197.623 -27.0616 0)
(195.902 -26.7842 0)
(193.645 -26.4624 0)
(190.904 -26.0486 0)
(187.81 -25.6011 0)
(184.576 -25.1394 0)
(181.457 -24.6833 0)
(178.691 -24.2684 0)
(176.437 -23.98 0)
(174.766 -23.8195 0)
(173.69 -23.5202 0)
(173.051 -23.3732 0)
(172.725 -23.461 0)
(172.597 -23.5088 0)
(172.57 -23.461 0)
(172.587 -23.4043 0)
(172.621 -23.3346 0)
(172.687 -23.3291 0)
(172.814 -23.3481 0)
(173.025 -23.4196 0)
(173.339 -23.4859 0)
(173.727 -23.5758 0)
(201.261 -27.5022 0)
(201.25 -27.5223 0)
(201.248 -27.5459 0)
(201.24 -27.566 0)
(201.239 -27.588 0)
(201.235 -27.6082 0)
(201.227 -27.6276 0)
(201.232 -27.6486 0)
(201.245 -27.6687 0)
(201.259 -27.6874 0)
(201.265 -27.7077 0)
(201.26 -27.7256 0)
(201.239 -27.7387 0)
(201.19 -27.7461 0)
(201.088 -27.744 0)
(200.888 -27.7214 0)
(200.52 -27.6732 0)
(199.897 -27.5791 0)
(198.927 -27.442 0)
(197.531 -27.2197 0)
(195.639 -26.9439 0)
(193.244 -26.5627 0)
(190.398 -26.1456 0)
(187.252 -25.6537 0)
(184.008 -25.1769 0)
(180.915 -24.7005 0)
(178.188 -24.3347 0)
(175.998 -23.9782 0)
(174.401 -23.6654 0)
(173.336 -23.5973 0)
(172.71 -23.6231 0)
(172.429 -23.4651 0)
(172.33 -23.3554 0)
(172.304 -23.3259 0)
(172.321 -23.3716 0)
(172.352 -23.439 0)
(172.424 -23.4735 0)
(172.589 -23.4889 0)
(172.852 -23.5088 0)
(173.201 -23.5111 0)
(173.614 -23.533 0)
(174.062 -23.5606 0)
(201.81 -27.7563 0)
(201.812 -27.7837 0)
(201.821 -27.811 0)
(201.825 -27.838 0)
(201.821 -27.8642 0)
(201.829 -27.8894 0)
(201.83 -27.9156 0)
(201.841 -27.94 0)
(201.854 -27.9632 0)
(201.857 -27.9867 0)
(201.849 -28.0071 0)
(201.82 -28.0237 0)
(201.754 -28.0256 0)
(201.614 -28.0197 0)
(201.352 -27.9862 0)
(200.904 -27.9398 0)
(200.19 -27.825 0)
(199.097 -27.6802 0)
(197.539 -27.431 0)
(195.447 -27.1305 0)
(192.834 -26.7251 0)
(189.783 -26.2743 0)
(186.471 -25.7673 0)
(183.128 -25.2637 0)
(180.004 -24.8135 0)
(177.323 -24.4059 0)
(175.227 -24.0289 0)
(173.726 -23.8478 0)
(172.765 -23.8287 0)
(172.265 -23.646 0)
(172.043 -23.5042 0)
(171.96 -23.4826 0)
(171.955 -23.5524 0)
(171.969 -23.6087 0)
(172.011 -23.6203 0)
(172.128 -23.6192 0)
(172.338 -23.6007 0)
(172.639 -23.6031 0)
(173.02 -23.6114 0)
(173.451 -23.665 0)
(173.903 -23.7272 0)
(174.343 -23.8194 0)
(202.295 -28.0513 0)
(202.313 -28.0743 0)
(202.328 -28.097 0)
(202.34 -28.116 0)
(202.344 -28.1355 0)
(202.351 -28.1518 0)
(202.355 -28.1672 0)
(202.358 -28.1806 0)
(202.352 -28.194 0)
(202.332 -28.2001 0)
(202.286 -28.2009 0)
(202.195 -28.1915 0)
(202.029 -28.1789 0)
(201.754 -28.1345 0)
(201.299 -28.0894 0)
(200.572 -27.9587 0)
(199.443 -27.8255 0)
(197.827 -27.5474 0)
(195.635 -27.269 0)
(192.899 -26.817 0)
(189.689 -26.391 0)
(186.223 -25.8383 0)
(182.733 -25.3606 0)
(179.509 -24.88 0)
(176.774 -24.4508 0)
(174.658 -24.1368 0)
(173.172 -24.0349 0)
(172.27 -23.8532 0)
(171.811 -23.6424 0)
(171.603 -23.6182 0)
(171.542 -23.7054 0)
(171.537 -23.7558 0)
(171.557 -23.7491 0)
(171.621 -23.7226 0)
(171.758 -23.682 0)
(171.983 -23.6663 0)
(172.298 -23.694 0)
(172.696 -23.7461 0)
(173.141 -23.8375 0)
(173.603 -23.9256 0)
(174.047 -24.0223 0)
(174.464 -24.0959 0)
(202.664 -28.3166 0)
(202.668 -28.325 0)
(202.666 -28.3319 0)
(202.661 -28.3368 0)
(202.652 -28.3397 0)
(202.64 -28.3427 0)
(202.625 -28.3416 0)
(202.603 -28.3454 0)
(202.571 -28.3365 0)
(202.515 -28.3407 0)
(202.428 -28.3162 0)
(202.28 -28.319 0)
(202.039 -28.2559 0)
(201.614 -28.232 0)
(200.93 -28.0837 0)
(199.843 -27.981 0)
(198.276 -27.6851 0)
(196.114 -27.4364 0)
(193.386 -26.9723 0)
(190.144 -26.5603 0)
(186.609 -26.002 0)
(183.019 -25.5128 0)
(179.675 -25.0307 0)
(176.816 -24.6515 0)
(174.614 -24.2532 0)
(173.066 -24.0401 0)
(172.096 -24.0807 0)
(171.601 -23.9534 0)
(171.403 -23.7973 0)
(171.333 -23.7427 0)
(171.337 -23.7874 0)
(171.352 -23.868 0)
(171.399 -23.9233 0)
(171.516 -23.9295 0)
(171.73 -23.9295 0)
(172.034 -23.9319 0)
(172.42 -23.933 0)
(172.862 -23.9726 0)
(173.328 -24.0247 0)
(173.784 -24.1061 0)
(174.213 -24.1858 0)
(174.603 -24.2736 0)
(202.77 -28.5573 0)
(202.754 -28.5537 0)
(202.736 -28.5488 0)
(202.717 -28.5425 0)
(202.696 -28.5372 0)
(202.674 -28.5284 0)
(202.647 -28.5241 0)
(202.619 -28.5098 0)
(202.573 -28.511 0)
(202.502 -28.4808 0)
(202.373 -28.4819 0)
(202.158 -28.4124 0)
(201.767 -28.3951 0)
(201.133 -28.2361 0)
(200.111 -28.152 0)
(198.629 -27.8407 0)
(196.554 -27.6209 0)
(193.919 -27.1351 0)
(190.742 -26.7541 0)
(187.243 -26.1672 0)
(183.633 -25.7136 0)
(180.239 -25.162 0)
(177.287 -24.78 0)
(174.961 -24.4891 0)
(173.317 -24.2275 0)
(172.295 -23.9714 0)
(171.72 -24.0091 0)
(171.46 -24.0869 0)
(171.38 -24.0204 0)
(171.38 -23.9471 0)
(171.4 -23.8976 0)
(171.438 -23.8989 0)
(171.516 -23.9498 0)
(171.682 -24.0153 0)
(171.951 -24.0802 0)
(172.322 -24.1354 0)
(172.761 -24.1974 0)
(173.235 -24.2295 0)
(173.707 -24.2701 0)
(174.152 -24.2938 0)
(174.554 -24.3358 0)
(174.914 -24.3775 0)
(202.736 -28.8601 0)
(202.705 -28.8516 0)
(202.677 -28.8407 0)
(202.649 -28.8323 0)
(202.624 -28.8207 0)
(202.597 -28.8143 0)
(202.574 -28.7999 0)
(202.537 -28.7995 0)
(202.479 -28.7715 0)
(202.362 -28.7671 0)
(202.151 -28.7016 0)
(201.762 -28.6685 0)
(201.126 -28.5211 0)
(200.113 -28.3978 0)
(198.643 -28.1193 0)
(196.615 -27.8308 0)
(194.028 -27.4024 0)
(190.934 -26.9362 0)
(187.504 -26.4134 0)
(183.977 -25.8795 0)
(180.63 -25.3828 0)
(177.712 -24.9603 0)
(175.389 -24.658 0)
(173.732 -24.3708 0)
(172.667 -24.1796 0)
(172.055 -24.2245 0)
(171.754 -24.2291 0)
(171.647 -24.1386 0)
(171.627 -24.0829 0)
(171.644 -24.0688 0)
(171.673 -24.1074 0)
(171.756 -24.1824 0)
(171.934 -24.2308 0)
(172.223 -24.2884 0)
(172.613 -24.3332 0)
(173.07 -24.3906 0)
(173.56 -24.4262 0)
(174.041 -24.4807 0)
(174.485 -24.5256 0)
(174.876 -24.5886 0)
(175.218 -24.6476 0)
(175.515 -24.7171 0)
(202.668 -29.3097 0)
(202.628 -29.3027 0)
(202.594 -29.2935 0)
(202.565 -29.288 0)
(202.542 -29.2802 0)
(202.519 -29.2755 0)
(202.485 -29.2695 0)
(202.421 -29.2561 0)
(202.293 -29.2248 0)
(202.038 -29.1894 0)
(201.595 -29.0864 0)
(200.858 -28.9896 0)
(199.752 -28.7494 0)
(198.156 -28.5301 0)
(196.046 -28.1079 0)
(193.385 -27.7287 0)
(190.3 -27.155 0)
(186.925 -26.6684 0)
(183.538 -26.0738 0)
(180.369 -25.6175 0)
(177.664 -25.1885 0)
(175.547 -24.8881 0)
(174.068 -24.5926 0)
(173.117 -24.5311 0)
(172.573 -24.5622 0)
(172.322 -24.462 0)
(172.237 -24.3868 0)
(172.22 -24.3748 0)
(172.232 -24.428 0)
(172.282 -24.5124 0)
(172.418 -24.5559 0)
(172.666 -24.6122 0)
(173.028 -24.656 0)
(173.473 -24.711 0)
(173.968 -24.7599 0)
(174.467 -24.8268 0)
(174.939 -24.8943 0)
(175.358 -24.9757 0)
(175.719 -25.0517 0)
(176.026 -25.1307 0)
(176.29 -25.1983 0)
(176.523 -25.2593 0)
(202.659 -29.9435 0)
(202.619 -29.942 0)
(202.588 -29.9458 0)
(202.563 -29.9447 0)
(202.54 -29.9541 0)
(202.502 -29.9427 0)
(202.41 -29.9418 0)
(202.225 -29.8857 0)
(201.864 -29.8512 0)
(201.268 -29.7024 0)
(200.324 -29.5748 0)
(198.973 -29.2764 0)
(197.109 -28.9842 0)
(194.742 -28.5143 0)
(191.891 -28.0398 0)
(188.712 -27.4582 0)
(185.399 -26.8984 0)
(182.209 -26.3527 0)
(179.38 -25.8657 0)
(177.078 -25.5116 0)
(175.377 -25.2936 0)
(174.268 -25.0549 0)
(173.611 -24.9142 0)
(173.261 -24.9863 0)
(173.117 -25.0307 0)
(173.086 -25.0013 0)
(173.095 -24.9707 0)
(173.153 -24.9728 0)
(173.301 -25.014 0)
(173.555 -25.1042 0)
(173.931 -25.1867 0)
(174.386 -25.3161 0)
(174.892 -25.3972 0)
(175.397 -25.4969 0)
(175.878 -25.5538 0)
(176.308 -25.6165 0)
(176.681 -25.6614 0)
(176.996 -25.712 0)
(177.26 -25.7602 0)
(177.485 -25.8129 0)
(177.683 -25.8674 0)
(177.865 -25.9225 0)
(202.791 -30.7118 0)
(202.772 -30.7308 0)
(202.747 -30.7443 0)
(202.71 -30.7623 0)
(202.637 -30.7551 0)
(202.483 -30.744 0)
(202.186 -30.6864 0)
(201.658 -30.6042 0)
(200.82 -30.4428 0)
(199.574 -30.2184 0)
(197.847 -29.8904 0)
(195.598 -29.4702 0)
(192.858 -28.9619 0)
(189.748 -28.382 0)
(186.465 -27.7892 0)
(183.263 -27.2126 0)
(180.393 -26.7053 0)
(178.05 -26.272 0)
(176.31 -26.0222 0)
(175.157 -25.8782 0)
(174.505 -25.691 0)
(174.174 -25.6223 0)
(174.038 -25.713 0)
(173.998 -25.7686 0)
(174.011 -25.7666 0)
(174.095 -25.7721 0)
(174.295 -25.7874 0)
(174.616 -25.8394 0)
(175.046 -25.9237 0)
(175.547 -26.0426 0)
(176.077 -26.1692 0)
(176.594 -26.292 0)
(177.071 -26.3983 0)
(177.492 -26.4762 0)
(177.853 -26.5357 0)
(178.158 -26.572 0)
(178.414 -26.6028 0)
(178.632 -26.6259 0)
(178.821 -26.655 0)
(178.991 -26.6865 0)
(179.15 -26.7277 0)
(179.306 -26.7734 0)
(203.15 -31.5029 0)
(203.126 -31.5341 0)
(203.07 -31.5558 0)
(202.952 -31.5556 0)
(202.716 -31.5348 0)
(202.276 -31.4658 0)
(201.539 -31.3523 0)
(200.412 -31.1474 0)
(198.799 -30.8633 0)
(196.646 -30.4543 0)
(193.953 -29.9678 0)
(190.833 -29.3814 0)
(187.48 -28.7687 0)
(184.174 -28.1504 0)
(181.187 -27.6175 0)
(178.74 -27.216 0)
(176.96 -26.844 0)
(175.804 -26.6416 0)
(175.146 -26.6492 0)
(174.846 -26.621 0)
(174.768 -26.5191 0)
(174.753 -26.493 0)
(174.772 -26.5409 0)
(174.882 -26.63 0)
(175.13 -26.6985 0)
(175.516 -26.793 0)
(176.014 -26.8786 0)
(176.572 -26.9688 0)
(177.143 -27.0483 0)
(177.685 -27.131 0)
(178.169 -27.2084 0)
(178.583 -27.2889 0)
(178.929 -27.366 0)
(179.215 -27.4402 0)
(179.455 -27.5069 0)
(179.66 -27.5645 0)
(179.842 -27.6123 0)
(180.007 -27.6505 0)
(180.163 -27.6812 0)
(180.314 -27.7057 0)
(180.464 -27.7268 0)
(180.616 -27.7452 0)
(203.667 -32.2078 0)
(203.601 -32.2354 0)
(203.456 -32.2345 0)
(203.153 -32.2144 0)
(202.593 -32.1264 0)
(201.665 -32.0026 0)
(200.275 -31.7478 0)
(198.314 -31.4356 0)
(195.765 -30.9526 0)
(192.67 -30.4279 0)
(189.231 -29.7815 0)
(185.709 -29.1982 0)
(182.457 -28.5772 0)
(179.734 -28.0945 0)
(177.703 -27.7768 0)
(176.376 -27.6204 0)
(175.683 -27.3689 0)
(175.366 -27.325 0)
(175.267 -27.4132 0)
(175.249 -27.4553 0)
(175.281 -27.4456 0)
(175.406 -27.4597 0)
(175.675 -27.4743 0)
(176.088 -27.5422 0)
(176.627 -27.6242 0)
(177.226 -27.7625 0)
(177.839 -27.879 0)
(178.405 -28.0146 0)
(178.907 -28.1056 0)
(179.328 -28.1895 0)
(179.677 -28.2385 0)
(179.964 -28.2796 0)
(180.205 -28.3049 0)
(180.412 -28.33 0)
(180.597 -28.3532 0)
(180.767 -28.3813 0)
(180.928 -28.4128 0)
(181.083 -28.4484 0)
(181.234 -28.4863 0)
(181.383 -28.525 0)
(181.53 -28.5642 0)
(181.677 -28.6021 0)
(204.193 -32.8022 0)
(204.044 -32.7944 0)
(203.714 -32.7783 0)
(203.096 -32.6734 0)
(202.063 -32.5526 0)
(200.511 -32.2644 0)
(198.317 -31.9363 0)
(195.486 -31.4204 0)
(192.101 -30.8682 0)
(188.426 -30.226 0)
(184.797 -29.6157 0)
(181.58 -29.0705 0)
(179.059 -28.5674 0)
(177.309 -28.414 0)
(176.289 -28.3048 0)
(175.823 -28.0973 0)
(175.659 -27.9975 0)
(175.623 -28.054 0)
(175.632 -28.1583 0)
(175.706 -28.2068 0)
(175.928 -28.2426 0)
(176.313 -28.2835 0)
(176.842 -28.3333 0)
(177.464 -28.4032 0)
(178.114 -28.4937 0)
(178.728 -28.6067 0)
(179.269 -28.7182 0)
(179.722 -28.8314 0)
(180.095 -28.9214 0)
(180.399 -28.9969 0)
(180.653 -29.0443 0)
(180.872 -29.0768 0)
(181.068 -29.0903 0)
(181.25 -29.0989 0)
(181.424 -29.1014 0)
(181.592 -29.1085 0)
(181.754 -29.1184 0)
(181.911 -29.1372 0)
(182.063 -29.1612 0)
(182.209 -29.1928 0)
(182.352 -29.2278 0)
(182.492 -29.268 0)
(204.564 -33.2948 0)
(204.241 -33.2766 0)
(203.633 -33.1701 0)
(202.599 -33.0425 0)
(201.012 -32.7547 0)
(198.736 -32.4152 0)
(195.774 -31.8915 0)
(192.234 -31.3308 0)
(188.417 -30.6778 0)
(184.699 -30.0609 0)
(181.464 -29.5813 0)
(178.992 -29.196 0)
(177.378 -28.7928 0)
(176.457 -28.7023 0)
(176.056 -28.8252 0)
(175.943 -28.7684 0)
(175.936 -28.7055 0)
(175.976 -28.658 0)
(176.096 -28.6925 0)
(176.368 -28.7484 0)
(176.804 -28.8673 0)
(177.388 -28.9737 0)
(178.041 -29.1164 0)
(178.703 -29.2057 0)
(179.309 -29.3028 0)
(179.836 -29.3528 0)
(180.269 -29.409 0)
(180.624 -29.4405 0)
(180.913 -29.4856 0)
(181.157 -29.5225 0)
(181.368 -29.5721 0)
(181.563 -29.6159 0)
(181.744 -29.6653 0)
(181.921 -29.7066 0)
(182.092 -29.7485 0)
(182.259 -29.7817 0)
(182.421 -29.8134 0)
(182.577 -29.8373 0)
(182.726 -29.8595 0)
(182.869 -29.876 0)
(183.007 -29.8917 0)
(183.143 -29.904 0)
(204.631 -33.754 0)
(204.079 -33.6643 0)
(203.116 -33.5229 0)
(201.588 -33.2536 0)
(199.352 -32.9093 0)
(196.392 -32.3915 0)
(192.814 -31.836 0)
(188.933 -31.1564 0)
(185.131 -30.5852 0)
(181.836 -30.0627 0)
(179.335 -29.6005 0)
(177.682 -29.3474 0)
(176.755 -29.3656 0)
(176.365 -29.26 0)
(176.269 -29.1508 0)
(176.257 -29.1359 0)
(176.292 -29.1829 0)
(176.426 -29.2588 0)
(176.722 -29.3136 0)
(177.191 -29.4273 0)
(177.804 -29.4991 0)
(178.478 -29.6083 0)
(179.151 -29.6747 0)
(179.757 -29.7598 0)
(180.275 -29.818 0)
(180.696 -29.8901 0)
(181.04 -29.9498 0)
(181.321 -30.0161 0)
(181.563 -30.0723 0)
(181.777 -30.1264 0)
(181.977 -30.1701 0)
(182.167 -30.2082 0)
(182.353 -30.2376 0)
(182.534 -30.2619 0)
(182.71 -30.2804 0)
(182.88 -30.2956 0)
(183.042 -30.3083 0)
(183.196 -30.3199 0)
(183.342 -30.3316 0)
(183.479 -30.3443 0)
(183.611 -30.3589 0)
(183.74 -30.3759 0)
(204.455 -34.1137 0)
(203.574 -34.0153 0)
(202.16 -33.7223 0)
(200.027 -33.4352 0)
(197.161 -32.8883 0)
(193.619 -32.375 0)
(189.726 -31.6768 0)
(185.857 -31.1202 0)
(182.478 -30.5175 0)
(179.868 -30.0827 0)
(178.117 -29.9252 0)
(177.14 -29.8363 0)
(176.735 -29.6312 0)
(176.601 -29.5529 0)
(176.582 -29.6191 0)
(176.613 -29.7122 0)
(176.747 -29.7574 0)
(177.055 -29.7994 0)
(177.542 -29.8763 0)
(178.171 -29.9372 0)
(178.863 -30.0248 0)
(179.542 -30.1059 0)
(180.148 -30.2047 0)
(180.66 -30.2956 0)
(181.076 -30.3876 0)
(181.416 -30.4664 0)
(181.7 -30.5331 0)
(181.946 -30.5845 0)
(182.168 -30.6214 0)
(182.377 -30.6476 0)
(182.578 -30.6644 0)
(182.772 -30.6776 0)
(182.961 -30.6878 0)
(183.144 -30.7002 0)
(183.318 -30.714 0)
(183.482 -30.7327 0)
(183.637 -30.754 0)
(183.782 -30.7795 0)
(183.918 -30.8066 0)
(184.046 -30.8363 0)
(184.169 -30.8666 0)
(184.289 -30.8987 0)
(204.11 -34.4345 0)
(202.816 -34.1812 0)
(200.828 -33.9058 0)
(198.091 -33.4154 0)
(194.643 -32.89 0)
(190.76 -32.2418 0)
(186.83 -31.6486 0)
(183.324 -31.0293 0)
(180.556 -30.5972 0)
(178.656 -30.4515 0)
(177.588 -30.2548 0)
(177.122 -30.0417 0)
(176.947 -30.0141 0)
(176.918 -30.1089 0)
(176.944 -30.1878 0)
(177.069 -30.217 0)
(177.375 -30.2513 0)
(177.866 -30.2939 0)
(178.501 -30.3589 0)
(179.202 -30.442 0)
(179.887 -30.5477 0)
(180.497 -30.6603 0)
(181.01 -30.7729 0)
(181.429 -30.8708 0)
(181.771 -30.9526 0)
(182.06 -31.0089 0)
(182.311 -31.0476 0)
(182.539 -31.0666 0)
(182.754 -31.0779 0)
(182.961 -31.0817 0)
(183.16 -31.0883 0)
(183.351 -31.097 0)
(183.534 -31.1141 0)
(183.708 -31.1365 0)
(183.872 -31.1667 0)
(184.026 -31.1999 0)
(184.169 -31.2373 0)
(184.304 -31.2744 0)
(184.43 -31.3125 0)
(184.55 -31.3482 0)
(184.666 -31.3834 0)
(184.781 -31.4156 0)
(203.704 -34.601 0)
(201.923 -34.3024 0)
(199.364 -33.9405 0)
(196.065 -33.3856 0)
(192.21 -32.8274 0)
(188.206 -32.1814 0)
(184.505 -31.5915 0)
(181.492 -31.1556 0)
(179.358 -30.9296 0)
(178.12 -30.6141 0)
(177.523 -30.4741 0)
(177.298 -30.5634 0)
(177.248 -30.6172 0)
(177.265 -30.6064 0)
(177.38 -30.6129 0)
(177.665 -30.6266 0)
(178.133 -30.6736 0)
(178.756 -30.7582 0)
(179.454 -30.8838 0)
(180.147 -31.0087 0)
(180.767 -31.1376 0)
(181.292 -31.2389 0)
(181.721 -31.3151 0)
(182.073 -31.3662 0)
(182.368 -31.3938 0)
(182.623 -31.4115 0)
(182.853 -31.421 0)
(183.067 -31.435 0)
(183.27 -31.4521 0)
(183.464 -31.4789 0)
(183.651 -31.5104 0)
(183.83 -31.5489 0)
(184.001 -31.5884 0)
(184.162 -31.6299 0)
(184.315 -31.6686 0)
(184.459 -31.7057 0)
(184.594 -31.7379 0)
(184.722 -31.7666 0)
(184.843 -31.7901 0)
(184.96 -31.81 0)
(185.073 -31.8257 0)
(185.185 -31.8381 0)
(203.304 -34.6918 0)
(201.04 -34.3952 0)
(197.98 -33.9116 0)
(194.241 -33.3819 0)
(190.177 -32.7491 0)
(186.238 -32.175 0)
(182.877 -31.7251 0)
(180.391 -31.34 0)
(178.832 -30.9942 0)
(178.002 -30.9894 0)
(177.671 -31.0432 0)
(177.592 -30.9944 0)
(177.598 -30.9417 0)
(177.684 -30.9315 0)
(177.909 -30.9702 0)
(178.319 -31.0493 0)
(178.901 -31.1728 0)
(179.592 -31.2851 0)
(180.288 -31.426 0)
(180.935 -31.5033 0)
(181.483 -31.5885 0)
(181.936 -31.6229 0)
(182.301 -31.6625 0)
(182.602 -31.6827 0)
(182.856 -31.7158 0)
(183.081 -31.747 0)
(183.287 -31.7899 0)
(183.483 -31.8318 0)
(183.671 -31.8777 0)
(183.855 -31.9194 0)
(184.033 -31.9588 0)
(184.204 -31.992 0)
(184.368 -32.0199 0)
(184.523 -32.042 0)
(184.671 -32.0585 0)
(184.811 -32.071 0)
(184.943 -32.0793 0)
(185.067 -32.0859 0)
(185.186 -32.09 0)
(185.299 -32.0945 0)
(185.409 -32.0981 0)
(185.517 -32.1036 0)
(202.878 -34.7868 0)
(200.194 -34.4581 0)
(196.737 -33.9073 0)
(192.723 -33.3683 0)
(188.604 -32.7417 0)
(184.847 -32.2704 0)
(181.88 -31.7821 0)
(179.85 -31.438 0)
(178.659 -31.4476 0)
(178.118 -31.3802 0)
(177.969 -31.2512 0)
(177.942 -31.2165 0)
(177.98 -31.2515 0)
(178.124 -31.325 0)
(178.449 -31.3822 0)
(178.963 -31.5132 0)
(179.624 -31.5837 0)
(180.328 -31.6951 0)
(181.001 -31.7516 0)
(181.584 -31.8204 0)
(182.065 -31.8641 0)
(182.448 -31.9192 0)
(182.757 -31.9697 0)
(183.012 -32.0266 0)
(183.235 -32.0795 0)
(183.439 -32.1288 0)
(183.632 -32.1707 0)
(183.821 -32.2045 0)
(184.005 -32.2312 0)
(184.186 -32.2499 0)
(184.361 -32.264 0)
(184.529 -32.2728 0)
(184.689 -32.2803 0)
(184.841 -32.2859 0)
(184.984 -32.293 0)
(185.119 -32.3009 0)
(185.245 -32.3117 0)
(185.364 -32.3242 0)
(185.476 -32.3394 0)
(185.583 -32.3562 0)
(185.686 -32.375 0)
(185.788 -32.3954 0)
(202.335 -34.9107 0)
(199.313 -34.4906 0)
(195.568 -33.9328 0)
(191.424 -33.3694 0)
(187.371 -32.7946 0)
(183.889 -32.2738 0)
(181.286 -31.8767 0)
(179.604 -31.8271 0)
(178.742 -31.6606 0)
(178.413 -31.492 0)
(178.316 -31.4677 0)
(178.316 -31.5515 0)
(178.386 -31.6279 0)
(178.61 -31.6782 0)
(179.036 -31.7239 0)
(179.628 -31.8202 0)
(180.317 -31.8647 0)
(181.003 -31.9568 0)
(181.623 -32.0139 0)
(182.135 -32.1054 0)
(182.549 -32.1705 0)
(182.875 -32.2526 0)
(183.146 -32.3086 0)
(183.375 -32.3655 0)
(183.585 -32.3985 0)
(183.782 -32.4278 0)
(183.974 -32.4412 0)
(184.162 -32.453 0)
(184.346 -32.4581 0)
(184.525 -32.4652 0)
(184.696 -32.4727 0)
(184.86 -32.4847 0)
(185.014 -32.5004 0)
(185.158 -32.5203 0)
(185.294 -32.5436 0)
(185.422 -32.5689 0)
(185.542 -32.5959 0)
(185.655 -32.6228 0)
(185.762 -32.6498 0)
(185.865 -32.6756 0)
(185.965 -32.7008 0)
(186.064 -32.7244 0)
(201.588 -35.0423 0)
(198.289 -34.512 0)
(194.346 -33.9848 0)
(190.189 -33.3834 0)
(186.317 -32.8037 0)
(183.16 -32.3367 0)
(180.917 -32.1752 0)
(179.605 -31.9596 0)
(178.998 -31.7317 0)
(178.768 -31.7348 0)
(178.723 -31.8312 0)
(178.744 -31.886 0)
(178.868 -31.92 0)
(179.183 -31.9298 0)
(179.685 -31.9873 0)
(180.323 -32.0377 0)
(181.004 -32.1334 0)
(181.648 -32.2248 0)
(182.2 -32.3365 0)
(182.65 -32.4302 0)
(183.01 -32.5103 0)
(183.302 -32.5708 0)
(183.55 -32.6054 0)
(183.77 -32.6298 0)
(183.975 -32.6354 0)
(184.172 -32.6435 0)
(184.363 -32.6442 0)
(184.55 -32.6562 0)
(184.731 -32.6685 0)
(184.904 -32.6938 0)
(185.069 -32.7201 0)
(185.225 -32.7555 0)
(185.373 -32.7892 0)
(185.511 -32.8272 0)
(185.643 -32.861 0)
(185.766 -32.8957 0)
(185.884 -32.9249 0)
(185.995 -32.953 0)
(186.102 -32.9757 0)
(186.204 -32.9967 0)
(186.304 -33.0131 0)
(186.403 -33.0278 0)
(200.572 -35.1409 0)
(197.028 -34.5579 0)
(192.977 -34.0206 0)
(188.917 -33.3737 0)
(185.313 -32.8843 0)
(182.529 -32.5621 0)
(180.716 -32.226 0)
(179.737 -32.0192 0)
(179.312 -32.1006 0)
(179.194 -32.1418 0)
(179.183 -32.1239 0)
(179.246 -32.1047 0)
(179.454 -32.1322 0)
(179.845 -32.1686 0)
(180.396 -32.2655 0)
(181.043 -32.37 0)
(181.689 -32.5099 0)
(182.28 -32.5975 0)
(182.772 -32.7 0)
(183.176 -32.7426 0)
(183.5 -32.7901 0)
(183.772 -32.8035 0)
(184.007 -32.8264 0)
(184.22 -32.8391 0)
(184.42 -32.8662 0)
(184.612 -32.8927 0)
(184.798 -32.9307 0)
(184.98 -32.9676 0)
(185.156 -33.0095 0)
(185.326 -33.0475 0)
(185.487 -33.0852 0)
(185.641 -33.1176 0)
(185.787 -33.1469 0)
(185.926 -33.1711 0)
(186.057 -33.1917 0)
(186.182 -33.2083 0)
(186.3 -33.2218 0)
(186.413 -33.2328 0)
(186.521 -33.2415 0)
(186.624 -33.2492 0)
(186.725 -33.2557 0)
(186.825 -33.2622 0)
(199.313 -35.2008 0)
(195.549 -34.6156 0)
(191.479 -34.0245 0)
(187.604 -33.4545 0)
(184.367 -33.0339 0)
(182.065 -32.5925 0)
(180.664 -32.4174 0)
(179.96 -32.4802 0)
(179.722 -32.4069 0)
(179.681 -32.3583 0)
(179.703 -32.3454 0)
(179.816 -32.3925 0)
(180.1 -32.4367 0)
(180.55 -32.5818 0)
(181.152 -32.6524 0)
(181.793 -32.7938 0)
(182.411 -32.857 0)
(182.946 -32.9344 0)
(183.39 -32.9736 0)
(183.749 -33.0121 0)
(184.041 -33.0471 0)
(184.289 -33.0857 0)
(184.508 -33.1335 0)
(184.712 -33.1795 0)
(184.906 -33.2312 0)
(185.098 -33.2739 0)
(185.285 -33.3184 0)
(185.469 -33.3505 0)
(185.647 -33.3833 0)
(185.818 -33.4038 0)
(185.981 -33.4253 0)
(186.137 -33.4373 0)
(186.284 -33.4515 0)
(186.423 -33.4594 0)
(186.554 -33.4707 0)
(186.678 -33.4786 0)
(186.795 -33.4905 0)
(186.906 -33.5008 0)
(187.011 -33.5147 0)
(187.112 -33.528 0)
(187.208 -33.5445 0)
(187.304 -33.5611 0)
(197.956 -35.2281 0)
(194.014 -34.6748 0)
(190.001 -34.0736 0)
(186.403 -33.5587 0)
(183.62 -33.0772 0)
(181.762 -32.9046 0)
(180.734 -32.866 0)
(180.317 -32.6876 0)
(180.193 -32.6213 0)
(180.177 -32.6691 0)
(180.233 -32.752 0)
(180.423 -32.8011 0)
(180.791 -32.8713 0)
(181.32 -32.9777 0)
(181.947 -33.0263 0)
(182.573 -33.122 0)
(183.143 -33.1669 0)
(183.618 -33.2462 0)
(184.009 -33.2981 0)
(184.321 -33.3753 0)
(184.587 -33.4301 0)
(184.818 -33.4955 0)
(185.033 -33.5386 0)
(185.238 -33.584 0)
(185.439 -33.6112 0)
(185.636 -33.6385 0)
(185.83 -33.6543 0)
(186.018 -33.6705 0)
(186.198 -33.6823 0)
(186.368 -33.696 0)
(186.529 -33.7104 0)
(186.68 -33.7276 0)
(186.822 -33.7474 0)
(186.956 -33.7694 0)
(187.081 -33.7939 0)
(187.199 -33.8189 0)
(187.311 -33.8453 0)
(187.416 -33.8708 0)
(187.516 -33.8966 0)
(187.612 -33.9208 0)
(187.704 -33.9451 0)
(187.796 -33.9678 0)
(196.678 -35.2916 0)
(192.63 -34.7381 0)
(188.742 -34.1306 0)
(185.465 -33.714 0)
(183.096 -33.4032 0)
(181.675 -33.0818 0)
(180.961 -33.0708 0)
(180.706 -33.1156 0)
(180.655 -33.0973 0)
(180.668 -33.0769 0)
(180.776 -33.1009 0)
(181.054 -33.1234 0)
(181.501 -33.2132 0)
(182.081 -33.3052 0)
(182.7 -33.4315 0)
(183.295 -33.5161 0)
(183.807 -33.6154 0)
(184.237 -33.6663 0)
(184.585 -33.723 0)
(184.878 -33.7535 0)
(185.13 -33.7883 0)
(185.36 -33.8149 0)
(185.576 -33.8471 0)
(185.785 -33.879 0)
(185.988 -33.9146 0)
(186.185 -33.9505 0)
(186.376 -33.9867 0)
(186.559 -34.0217 0)
(186.732 -34.0544 0)
(186.896 -34.085 0)
(187.05 -34.1124 0)
(187.195 -34.1377 0)
(187.332 -34.1599 0)
(187.461 -34.1803 0)
(187.583 -34.1983 0)
(187.698 -34.2149 0)
(187.808 -34.2297 0)
(187.911 -34.2435 0)
(188.01 -34.256 0)
(188.104 -34.2678 0)
(188.195 -34.279 0)
(188.285 -34.2901 0)
(195.606 -35.3822 0)
(191.54 -34.8023 0)
(187.813 -34.324 0)
(184.867 -33.8967 0)
(182.888 -33.5256 0)
(181.752 -33.515 0)
(181.259 -33.5072 0)
(181.128 -33.4237 0)
(181.106 -33.3871 0)
(181.15 -33.4069 0)
(181.326 -33.4397 0)
(181.662 -33.5466 0)
(182.169 -33.6334 0)
(182.771 -33.7408 0)
(183.384 -33.8389 0)
(183.946 -33.9002 0)
(184.423 -33.9614 0)
(184.818 -33.9945 0)
(185.141 -34.0387 0)
(185.417 -34.0734 0)
(185.657 -34.1231 0)
(185.881 -34.1663 0)
(186.092 -34.2182 0)
(186.299 -34.2607 0)
(186.5 -34.306 0)
(186.696 -34.3407 0)
(186.884 -34.3746 0)
(187.064 -34.3993 0)
(187.235 -34.4224 0)
(187.396 -34.4391 0)
(187.547 -34.4548 0)
(187.69 -34.4673 0)
(187.824 -34.4799 0)
(187.951 -34.4915 0)
(188.07 -34.504 0)
(188.182 -34.5166 0)
(188.288 -34.5302 0)
(188.388 -34.5442 0)
(188.482 -34.5587 0)
(188.572 -34.5738 0)
(188.658 -34.5893 0)
(188.743 -34.6055 0)
(194.804 -35.488 0)
(190.783 -34.9629 0)
(187.261 -34.4742 0)
(184.607 -34.0526 0)
(182.885 -33.9639 0)
(181.985 -33.8835 0)
(181.647 -33.7335 0)
(181.556 -33.6934 0)
(181.551 -33.739 0)
(181.619 -33.8168 0)
(181.843 -33.8467 0)
(182.241 -33.9651 0)
(182.797 -34.0165 0)
(183.414 -34.1067 0)
(184.018 -34.1592 0)
(184.549 -34.2233 0)