/*--------------------------------*- C++ -*----------------------------------*\
| =========                 |                                                 |
| \\      /  F ield         | OpenFOAM: The Open Source CFD Toolbox           |
|  \\    /   O peration     | Version:  2412                                  |
|   \\  /    A nd           | Website:  www.openfoam.com                      |
|    \\/     M anipulation  |                                                 |
\*---------------------------------------------------------------------------*/
FoamFile
{
    version     2.0;
    format      ascii;
    arch        "LSB;label=32;scalar=64";
    class       volVectorField;
    location    "0.021";
    object      U;
}
// * * * * * * * * * * * * * * * * * * * * * * * * * * * * * * * * * * * * * //

dimensions      [0 1 -1 0 0 0 0];

internalField   nonuniform List<vector> 
9763
(
(182.228 -28.0769 0)
(170.456 -32.9846 0)
(182.392 -28.0983 0)
(169.638 -32.8825 0)
(182.591 -28.1841 0)
(169.466 -33.0046 0)
(182.851 -28.2285 0)
(169.547 -33.1127 0)
(183.149 -28.321 0)
(169.858 -33.1921 0)
(183.489 -28.4017 0)
(170.386 -33.3737 0)
(183.851 -28.4822 0)
(171.079 -33.5062 0)
(184.199 -28.5868 0)
(171.797 -33.7181 0)
(184.531 -28.6497 0)
(172.512 -33.8678 0)
(184.817 -28.7582 0)
(173.181 -34.0727 0)
(185.087 -28.8131 0)
(173.84 -34.2269 0)
(185.318 -28.9178 0)
(174.476 -34.4225 0)
(185.556 -28.9753 0)
(175.123 -34.579 0)
(185.783 -29.0775 0)
(175.765 -34.7701 0)
(186.039 -29.143 0)
(176.426 -34.9307 0)
(186.307 -29.2494 0)
(177.093 -35.12 0)
(186.617 -29.3271 0)
(177.785 -35.2871 0)
(186.955 -29.4418 0)
(178.498 -35.4793 0)
(187.343 -29.5332 0)
(179.254 -35.6589 0)
(187.764 -29.6568 0)
(180.053 -35.8615 0)
(188.224 -29.7589 0)
(180.912 -36.0594 0)
(188.695 -29.8841 0)
(181.829 -36.2786 0)
(189.165 -29.9858 0)
(182.81 -36.4963 0)
(189.597 -30.0971 0)
(183.84 -36.7315 0)
(189.979 -30.1831 0)
(184.907 -36.961 0)
(190.292 -30.2671 0)
(185.983 -37.2005 0)
(190.543 -30.3302 0)
(187.042 -37.423 0)
(190.741 -30.3886 0)
(188.046 -37.6446 0)
(190.91 -30.4354 0)
(188.975 -37.8374 0)
(191.071 -30.4811 0)
(189.804 -38.0209 0)
(191.253 -30.5249 0)
(190.531 -38.1711 0)
(191.483 -30.5729 0)
(191.156 -38.306 0)
(191.786 -30.6301 0)
(191.701 -38.4104 0)
(192.173 -30.6985 0)
(192.187 -38.4975 0)
(192.636 -30.7774 0)
(192.642 -38.5685 0)
(193.155 -30.863 0)
(193.091 -38.6272 0)
(193.712 -30.9596 0)
(193.554 -38.6787 0)
(194.296 -31.0565 0)
(194.046 -38.7189 0)
(194.892 -31.1628 0)
(194.579 -38.7553 0)
(195.48 -31.2604 0)
(195.158 -38.7804 0)
(195.792 -38.8034 0)
(196.479 -38.8106 0)
(197.22 -38.816 0)
(171.532 50.7485 0)
(176.201 5.40144 0)
(189.09 -2.44735 0)
(194.609 -5.2639 0)
(195.892 -6.62653 0)
(197.008 -7.10194 0)
(198.281 -7.03353 0)
(199.673 -6.4259 0)
(201.257 -5.33329 0)
(203.185 -4.05697 0)
(205.566 -3.15051 0)
(208.294 -3.11951 0)
(211.607 -4.26836 0)
(213.802 -5.73437 0)
(215.074 -6.56345 0)
(215.5 -6.86674 0)
(215.491 -7.03008 0)
(215.435 -7.04936 0)
(215.462 -7.17165 0)
(215.661 -7.41061 0)
(215.978 -7.84089 0)
(216.297 -8.26038 0)
(216.587 -8.59527 0)
(216.888 -8.90491 0)
(217.244 -9.29361 0)
(217.658 -9.82874 0)
(218.077 -10.4446 0)
(218.491 -11.0529 0)
(218.897 -11.6601 0)
(219.322 -12.3014 0)
(219.737 -13.0055 0)
(220.149 -13.7556 0)
(220.529 -14.5401 0)
(220.894 -15.3494 0)
(221.222 -16.1873 0)
(221.52 -17.0533 0)
(221.774 -17.95 0)
(221.992 -18.8732 0)
(222.162 -19.809 0)
(222.286 -20.7454 0)
(222.353 -21.684 0)
(222.357 -22.6347 0)
(222.296 -23.5962 0)
(222.171 -24.5528 0)
(221.99 -25.5016 0)
(221.752 -26.4369 0)
(221.463 -27.3423 0)
(221.126 -28.2209 0)
(220.747 -29.0751 0)
(220.325 -29.9061 0)
(219.861 -30.7171 0)
(219.357 -31.5101 0)
(218.815 -32.2829 0)
(218.236 -33.0312 0)
(217.62 -33.7508 0)
(216.971 -34.4369 0)
(216.31 -35.097 0)
(215.656 -35.74 0)
(215.002 -36.3697 0)
(214.298 -36.9621 0)
(213.575 -37.5232 0)
(212.873 -38.0759 0)
(212.149 -38.5943 0)
(211.436 -39.1018 0)
(210.698 -39.5733 0)
(209.96 -40.0337 0)
(209.203 -40.4674 0)
(208.443 -40.8882 0)
(207.682 -41.297 0)
(206.91 -41.6845 0)
(206.139 -42.0634 0)
(205.346 -42.4091 0)
(204.557 -42.7516 0)
(203.744 -43.0609 0)
(202.931 -43.3634 0)
(202.11 -43.6472 0)
(201.3 -43.9489 0)
(200.456 -44.21 0)
(199.631 -44.509 0)
(198.773 -44.7647 0)
(197.93 -45.0504 0)
(197.061 -45.2933 0)
(196.197 -45.5441 0)
(195.327 -45.7634 0)
(194.467 -45.9832 0)
(193.604 -46.1648 0)
(192.758 -46.355 0)
(191.906 -46.5118 0)
(191.052 -46.6829 0)
(190.172 -46.8436 0)
(189.277 -47.0109 0)
(188.414 -47.2249 0)
(187.551 -47.3976 0)
(186.697 -47.5819 0)
(185.827 -47.7394 0)
(184.952 -47.8923 0)
(184.083 -48.0551 0)
(183.22 -48.2024 0)
(182.385 -48.3844 0)
(181.568 -48.5434 0)
(180.8 -48.7515 0)
(180.054 -48.937 0)
(179.358 -49.1705 0)
(178.672 -49.3894 0)
(178.001 -49.625 0)
(177.328 -49.8689 0)
(176.632 -50.0797 0)
(175.948 -50.3307 0)
(175.249 -50.5323 0)
(174.571 -50.7807 0)
(173.879 -50.9855 0)
(173.235 -51.2533 0)
(172.626 -51.5148 0)
(172.074 -51.8344 0)
(171.569 -52.1797 0)
(171.137 -52.5797 0)
(170.827 -53.0481 0)
(170.711 -53.5955 0)
(170.663 -54.1071 0)
(170.712 -54.6796 0)
(170.524 -54.8591 0)
(171.592 50.9128 0)
(176.236 5.52773 0)
(189.119 -2.44171 0)
(194.626 -5.26674 0)
(195.906 -6.62002 0)
(197.018 -7.09297 0)
(198.291 -7.02277 0)
(199.686 -6.41438 0)
(201.275 -5.32048 0)
(203.204 -4.03825 0)
(205.578 -3.11756 0)
(208.307 -3.06495 0)
(211.609 -4.20146 0)
(213.823 -5.68065 0)
(215.081 -6.5359 0)
(215.518 -6.86277 0)
(215.515 -7.03532 0)
(215.462 -7.05505 0)
(215.485 -7.16839 0)
(215.682 -7.39942 0)
(215.997 -7.8211 0)
(216.322 -8.24252 0)
(216.619 -8.57943 0)
(216.923 -8.88686 0)
(217.282 -9.26842 0)
(217.7 -9.79554 0)
(218.125 -10.4084 0)
(218.546 -11.0157 0)
(218.961 -11.6203 0)
(219.395 -12.2574 0)
(219.82 -12.9577 0)
(220.242 -13.705 0)
(220.634 -14.4873 0)
(221.012 -15.2944 0)
(221.354 -16.1307 0)
(221.666 -16.996 0)
(221.937 -17.8927 0)
(222.171 -18.8163 0)
(222.358 -19.754 0)
(222.499 -20.6936 0)
(222.585 -21.6374 0)
(222.609 -22.5943 0)
(222.567 -23.5628 0)
(222.46 -24.5273 0)
(222.298 -25.4788 0)
(222.08 -26.4255 0)
(221.81 -27.3427 0)
(221.49 -28.2326 0)
(221.127 -29.0996 0)
(220.718 -29.9441 0)
(220.269 -30.768 0)
(219.781 -31.5733 0)
(219.255 -32.3584 0)
(218.693 -33.1199 0)
(218.093 -33.8536 0)
(217.458 -34.5548 0)
(216.81 -35.2307 0)
(216.169 -35.8892 0)
(215.532 -36.5358 0)
(214.843 -37.1481 0)
(214.13 -37.7313 0)
(213.437 -38.3054 0)
(212.724 -38.8466 0)
(212.019 -39.3758 0)
(211.29 -39.8724 0)
(210.562 -40.3603 0)
(209.813 -40.8254 0)
(209.061 -41.2791 0)
(208.308 -41.7218 0)
(207.545 -42.1433 0)
(206.784 -42.5578 0)
(205.999 -42.9407 0)
(205.219 -43.3279 0)
(204.408 -43.681 0)
(203.602 -44.0387 0)
(202.788 -44.3817 0)
(201.987 -44.7402 0)
(201.154 -45.0615 0)
(200.347 -45.4093 0)
(199.514 -45.7183 0)
(198.697 -46.0442 0)
(197.861 -46.3369 0)
(197.031 -46.6404 0)
(196.194 -46.9213 0)
(195.367 -47.2115 0)
(194.534 -47.4683 0)
(193.728 -47.7404 0)
(192.924 -47.9861 0)
(192.142 -48.2566 0)
(191.344 -48.5208 0)
(190.533 -48.7946 0)
(189.72 -49.0997 0)
(188.872 -49.3675 0)
(188.036 -49.6704 0)
(187.173 -49.9369 0)
(186.317 -50.2165 0)
(185.467 -50.4931 0)
(184.627 -50.7616 0)
(183.819 -51.053 0)
(183.03 -51.3203 0)
(182.299 -51.6312 0)
(181.591 -51.9087 0)
(180.956 -52.2399 0)
(180.326 -52.532 0)
(179.741 -52.8602 0)
(179.136 -53.1558 0)
(178.522 -53.4394 0)
(177.906 -53.7203 0)
(177.279 -53.9559 0)
(176.684 -54.2269 0)
(176.081 -54.4176 0)
(175.53 -54.6576 0)
(175.038 -54.8694 0)
(174.621 -55.101 0)
(174.27 -55.3269 0)
(173.981 -55.5501 0)
(173.758 -55.7659 0)
(173.609 -55.9693 0)
(173.526 -56.1562 0)
(173.537 -56.3591 0)
(173.635 -56.5329 0)
(171.685 50.9875 0)
(176.27 5.52786 0)
(189.151 -2.44438 0)
(194.642 -5.25327 0)
(195.916 -6.60959 0)
(197.027 -7.08283 0)
(198.301 -7.0119 0)
(199.698 -6.40292 0)
(201.289 -5.30637 0)
(203.217 -4.01497 0)
(205.578 -3.07693 0)
(208.304 -3.00588 0)
(211.589 -4.1348 0)
(213.841 -5.63712 0)
(215.089 -6.51594 0)
(215.535 -6.86165 0)
(215.539 -7.03703 0)
(215.493 -7.05992 0)
(215.509 -7.16887 0)
(215.704 -7.39084 0)
(216.019 -7.80731 0)
(216.35 -8.23046 0)
(216.652 -8.56896 0)
(216.96 -8.87462 0)
(217.322 -9.25063 0)
(217.745 -9.77215 0)
(218.176 -10.3833 0)
(218.606 -10.9903 0)
(219.029 -11.5939 0)
(219.472 -12.229 0)
(219.907 -12.9274 0)
(220.34 -13.6741 0)
(220.745 -14.4571 0)
(221.138 -15.2656 0)
(221.495 -16.1038 0)
(221.824 -16.9716 0)
(222.111 -17.8715 0)
(222.361 -18.7991 0)
(222.565 -19.7423 0)
(222.724 -20.6891 0)
(222.828 -21.6414 0)
(222.87 -22.6079 0)
(222.846 -23.5867 0)
(222.757 -24.563 0)
(222.611 -25.5263 0)
(222.41 -26.4843 0)
(222.158 -27.4175 0)
(221.852 -28.3207 0)
(221.501 -29.201 0)
(221.105 -30.0589 0)
(220.666 -30.8964 0)
(220.19 -31.7157 0)
(219.677 -32.5159 0)
(219.128 -33.2933 0)
(218.541 -34.0434 0)
(217.917 -34.7607 0)
(217.279 -35.4522 0)
(216.651 -36.1265 0)
(216.029 -36.79 0)
(215.353 -37.4198 0)
(214.652 -38.0195 0)
(213.971 -38.6096 0)
(213.27 -39.1674 0)
(212.578 -39.713 0)
(211.863 -40.2268 0)
(211.151 -40.731 0)
(210.419 -41.2129 0)
(209.685 -41.6837 0)
(208.952 -42.1446 0)
(208.211 -42.5863 0)
(207.473 -43.0212 0)
(206.711 -43.4264 0)
(205.958 -43.8343 0)
(205.176 -44.2051 0)
(204.409 -44.585 0)
(203.634 -44.9495 0)
(202.871 -45.3278 0)
(202.076 -45.6756 0)
(201.3 -46.0436 0)
(200.5 -46.3826 0)
(199.707 -46.7281 0)
(198.902 -47.0546 0)
(198.1 -47.3878 0)
(197.292 -47.7092 0)
(196.486 -48.0386 0)
(195.668 -48.3405 0)
(194.874 -48.653 0)
(194.091 -48.9437 0)
(193.342 -49.247 0)
(192.6 -49.5379 0)
(191.865 -49.8247 0)
(191.14 -50.1309 0)
(190.384 -50.3997 0)
(189.646 -50.7126 0)
(188.874 -50.9812 0)
(188.115 -51.2788 0)
(187.352 -51.5566 0)
(186.604 -51.8387 0)
(185.878 -52.125 0)
(185.175 -52.3979 0)
(184.52 -52.6989 0)
(183.888 -52.9713 0)
(183.323 -53.2879 0)
(182.758 -53.56 0)
(182.24 -53.87 0)
(181.688 -54.1265 0)
(181.132 -54.3932 0)
(180.547 -54.6196 0)
(179.958 -54.8426 0)
(179.36 -55.0442 0)
(178.758 -55.2185 0)
(178.188 -55.4004 0)
(177.664 -55.5748 0)
(177.193 -55.7532 0)
(176.769 -55.9299 0)
(176.379 -56.1004 0)
(176.017 -56.2638 0)
(175.688 -56.425 0)
(175.415 -56.5847 0)
(175.265 -56.814 0)
(175.274 -57.0783 0)
(171.774 51.0225 0)
(176.288 5.51848 0)
(189.184 -2.4428 0)
(194.658 -5.24454 0)
(195.929 -6.6013 0)
(197.035 -7.0731 0)
(198.31 -7.00132 0)
(199.711 -6.3917 0)
(201.307 -5.29253 0)
(203.236 -3.99272 0)
(205.589 -3.03901 0)
(208.314 -2.95166 0)
(211.584 -4.07328 0)
(213.859 -5.5961 0)
(215.094 -6.49566 0)
(215.549 -6.85785 0)
(215.562 -7.04093 0)
(215.522 -7.06649 0)
(215.534 -7.16633 0)
(215.723 -7.38121 0)
(216.036 -7.79079 0)
(216.373 -8.21473 0)
(216.681 -8.55448 0)
(216.992 -8.85823 0)
(217.356 -9.22869 0)
(217.782 -9.74405 0)
(218.219 -10.3526 0)
(218.656 -10.9582 0)
(219.086 -11.5595 0)
(219.537 -12.1911 0)
(219.981 -12.8863 0)
(220.424 -13.6306 0)
(220.841 -14.4116 0)
(221.246 -15.2183 0)
(221.618 -16.0554 0)
(221.961 -16.9228 0)
(222.264 -17.8227 0)
(222.53 -18.7508 0)
(222.751 -19.6954 0)
(222.928 -20.6447 0)
(223.051 -21.601 0)
(223.113 -22.5729 0)
(223.109 -23.5581 0)
(223.04 -24.5419 0)
(222.912 -25.5136 0)
(222.732 -26.4742 0)
(222.503 -27.4218 0)
(222.215 -28.3364 0)
(221.88 -29.2279 0)
(221.499 -30.0983 0)
(221.075 -30.9482 0)
(220.613 -31.7795 0)
(220.116 -32.5917 0)
(219.583 -33.3821 0)
(219.014 -34.1459 0)
(218.405 -34.8776 0)
(217.783 -35.5834 0)
(217.17 -36.2718 0)
(216.566 -36.9504 0)
(215.908 -37.5974 0)
(215.222 -38.2156 0)
(214.556 -38.8245 0)
(213.871 -39.402 0)
(213.194 -39.9668 0)
(212.494 -40.5007 0)
(211.796 -41.0264 0)
(211.078 -41.5328 0)
(210.355 -42.0298 0)
(209.636 -42.5175 0)
(208.911 -42.9872 0)
(208.189 -43.4503 0)
(207.442 -43.887 0)
(206.703 -44.3261 0)
(205.934 -44.7293 0)
(205.186 -45.146 0)
(204.427 -45.5444 0)
(203.681 -45.9534 0)
(202.909 -46.3323 0)
(202.157 -46.7227 0)
(201.388 -47.087 0)
(200.627 -47.4459 0)
(199.868 -47.7932 0)
(199.115 -48.1379 0)
(198.363 -48.4755 0)
(197.612 -48.8127 0)
(196.851 -49.1292 0)
(196.109 -49.4502 0)
(195.384 -49.7634 0)
(194.683 -50.08 0)
(193.999 -50.4012 0)
(193.314 -50.7117 0)
(192.646 -51.0521 0)
(191.942 -51.3525 0)
(191.263 -51.6996 0)
(190.542 -51.9952 0)
(189.839 -52.3243 0)
(189.122 -52.6188 0)
(188.424 -52.9243 0)
(187.741 -53.2164 0)
(187.086 -53.505 0)
(186.473 -53.8032 0)
(185.886 -54.0819 0)
(185.357 -54.3883 0)
(184.833 -54.6554 0)
(184.349 -54.9492 0)
(183.833 -55.1907 0)
(183.312 -55.4395 0)
(182.757 -55.6365 0)
(182.197 -55.8423 0)
(181.613 -56.0086 0)
(181.029 -56.1536 0)
(180.467 -56.3006 0)
(179.951 -56.4487 0)
(179.483 -56.5924 0)
(179.065 -56.7464 0)
(178.686 -56.889 0)
(178.35 -57.0462 0)
(178.053 -57.1938 0)
(177.829 -57.3792 0)
(177.685 -57.5885 0)
(177.669 -57.8578 0)
(171.807 51.0559 0)
(176.309 5.50653 0)
(189.217 -2.44181 0)
(194.674 -5.23703 0)
(195.939 -6.5918 0)
(197.044 -7.06354 0)
(198.319 -6.99087 0)
(199.722 -6.38055 0)
(201.32 -5.27893 0)
(203.249 -3.97119 0)
(205.591 -3.00214 0)
(208.31 -2.89776 0)
(211.566 -4.01089 0)
(213.87 -5.55462 0)
(215.098 -6.4761 0)
(215.563 -6.85613 0)
(215.584 -7.04197 0)
(215.551 -7.07118 0)
(215.558 -7.1671 0)
(215.743 -7.37393 0)
(216.055 -7.7776 0)
(216.398 -8.20276 0)
(216.712 -8.5443 0)
(217.026 -8.84666 0)
(217.393 -9.21206 0)
(217.822 -9.72188 0)
(218.266 -10.3285 0)
(218.709 -10.9339 0)
(219.147 -11.5342 0)
(219.607 -12.1638 0)
(220.059 -12.8572 0)
(220.513 -13.6004 0)
(220.942 -14.3814 0)
(221.36 -15.1888 0)
(221.746 -16.0271 0)
(222.105 -16.8964 0)
(222.423 -17.7988 0)
(222.705 -18.7304 0)
(222.942 -19.6797 0)
(223.137 -20.6352 0)
(223.278 -21.5989 0)
(223.356 -22.5788 0)
(223.369 -23.5725 0)
(223.318 -24.5666 0)
(223.207 -25.5496 0)
(223.045 -26.5188 0)
(222.832 -27.4799 0)
(222.561 -28.4093 0)
(222.239 -29.3133 0)
(221.87 -30.1964 0)
(221.457 -31.059 0)
(221.006 -31.9026 0)
(220.52 -32.7274 0)
(220 -33.5311 0)
(219.442 -34.3088 0)
(218.845 -35.0548 0)
(218.234 -35.7745 0)
(217.633 -36.4768 0)
(217.044 -37.17 0)
(216.4 -37.8324 0)
(215.727 -38.4658 0)
(215.075 -39.0896 0)
(214.406 -39.6829 0)
(213.745 -40.2634 0)
(213.059 -40.8134 0)
(212.378 -41.3547 0)
(211.677 -41.8764 0)
(210.974 -42.3876 0)
(210.277 -42.8895 0)
(209.576 -43.3754 0)
(208.878 -43.8549 0)
(208.157 -44.3095 0)
(207.445 -44.7633 0)
(206.707 -45.1818 0)
(205.994 -45.6156 0)
(205.267 -46.0296 0)
(204.553 -46.4547 0)
(203.812 -46.8533 0)
(203.089 -47.2606 0)
(202.35 -47.6473 0)
(201.614 -48.0246 0)
(200.887 -48.4002 0)
(200.163 -48.7713 0)
(199.443 -49.1413 0)
(198.72 -49.5067 0)
(197.987 -49.8576 0)
(197.269 -50.2022 0)
(196.577 -50.5427 0)
(195.91 -50.8666 0)
(195.282 -51.2028 0)
(194.654 -51.5075 0)
(194.066 -51.8523 0)
(193.435 -52.1424 0)
(192.838 -52.4853 0)
(192.19 -52.7705 0)
(191.562 -53.0925 0)
(190.91 -53.3732 0)
(190.276 -53.6716 0)
(189.648 -53.9462 0)
(189.052 -54.2303 0)
(188.487 -54.5095 0)
(187.955 -54.7856 0)
(187.466 -55.0742 0)
(186.987 -55.3389 0)
(186.538 -55.6207 0)
(186.063 -55.8648 0)
(185.574 -56.1082 0)
(185.053 -56.3107 0)
(184.519 -56.5327 0)
(183.947 -56.6754 0)
(183.382 -56.8579 0)
(182.832 -56.9991 0)
(182.325 -57.169 0)
(181.857 -57.3205 0)
(181.437 -57.4871 0)
(181.059 -57.6456 0)
(180.724 -57.8132 0)
(180.431 -57.9741 0)
(180.21 -58.1631 0)
(180.079 -58.375 0)
(180.051 -58.6374 0)
(171.838 51.1019 0)
(176.331 5.49065 0)
(189.25 -2.44093 0)
(194.689 -5.22886 0)
(195.952 -6.58383 0)
(197.052 -7.05418 0)
(198.328 -6.98057 0)
(199.734 -6.3696 0)
(201.337 -5.26557 0)
(203.267 -3.95022 0)
(205.603 -2.96676 0)
(208.318 -2.84644 0)
(211.562 -3.95144 0)
(213.877 -5.51377 0)
(215.099 -6.4555 0)
(215.575 -6.85248 0)
(215.606 -7.045 0)
(215.58 -7.07785 0)
(215.583 -7.16531 0)
(215.762 -7.36556 0)
(216.07 -7.7619 0)
(216.419 -8.18743 0)
(216.739 -8.53045 0)
(217.056 -8.83128 0)
(217.424 -9.19157 0)
(217.857 -9.69531 0)
(218.305 -10.2991 0)
(218.755 -10.9033 0)
(219.2 -11.5016 0)
(219.667 -12.1279 0)
(220.128 -12.818 0)
(220.591 -13.5587 0)
(221.031 -14.3376 0)
(221.462 -15.1434 0)
(221.862 -15.9806 0)
(222.235 -16.8493 0)
(222.567 -17.7518 0)
(222.865 -18.6838 0)
(223.119 -19.6344 0)
(223.332 -20.5925 0)
(223.491 -21.5602 0)
(223.587 -22.5451 0)
(223.619 -23.5445 0)
(223.587 -24.5454 0)
(223.498 -25.536 0)
(223.354 -26.511 0)
(223.16 -27.4804 0)
(222.91 -28.4236 0)
(222.605 -29.3385 0)
(222.251 -30.233 0)
(221.853 -31.1073 0)
(221.417 -31.9621 0)
(220.945 -32.7978 0)
(220.44 -33.6129 0)
(219.897 -34.4029 0)
(219.315 -35.1618 0)
(218.716 -35.8943 0)
(218.13 -36.6092 0)
(217.556 -37.3159 0)
(216.929 -37.9934 0)
(216.269 -38.6424 0)
(215.632 -39.2822 0)
(214.979 -39.8924 0)
(214.334 -40.4901 0)
(213.663 -41.058 0)
(212.997 -41.6174 0)
(212.311 -42.1582 0)
(211.623 -42.6895 0)
(210.941 -43.213 0)
(210.256 -43.7236 0)
(209.571 -44.2286 0)
(208.865 -44.7106 0)
(208.167 -45.1894 0)
(207.444 -45.635 0)
(206.749 -46.0961 0)
(206.037 -46.5338 0)
(205.343 -46.9805 0)
(204.623 -47.3985 0)
(203.923 -47.8198 0)
(203.211 -48.2198 0)
(202.503 -48.6041 0)
(201.815 -48.9892 0)
(201.131 -49.3648 0)
(200.456 -49.7383 0)
(199.779 -50.1068 0)
(199.091 -50.468 0)
(198.408 -50.8216 0)
(197.749 -51.18 0)
(197.103 -51.5162 0)
(196.505 -51.875 0)
(195.902 -52.191 0)
(195.358 -52.5577 0)
(194.764 -52.855 0)
(194.219 -53.2153 0)
(193.616 -53.5085 0)
(193.034 -53.8407 0)
(192.424 -54.1277 0)
(191.83 -54.4321 0)
(191.238 -54.7073 0)
(190.681 -54.995 0)
(190.149 -55.2665 0)
(189.659 -55.5435 0)
(189.203 -55.8171 0)
(188.768 -56.0793 0)
(188.358 -56.3482 0)
(187.928 -56.5881 0)
(187.485 -56.818 0)
(187.017 -57.0355 0)
(186.514 -57.2223 0)
(185.988 -57.3868 0)
(185.462 -57.5497 0)
(184.955 -57.7076 0)
(184.48 -57.8681 0)
(184.044 -58.0278 0)
(183.654 -58.1961 0)
(183.304 -58.3632 0)
(182.996 -58.5392 0)
(182.727 -58.7159 0)
(182.513 -58.9004 0)
(182.42 -59.1454 0)
(182.476 -59.3708 0)
(171.934 51.1347 0)
(176.354 5.47356 0)
(189.284 -2.44043 0)
(194.705 -5.22128 0)
(195.962 -6.57437 0)
(197.061 -7.04463 0)
(198.337 -6.97011 0)
(199.745 -6.35843 0)
(201.351 -5.252 0)
(203.28 -3.92905 0)
(205.607 -2.93081 0)
(208.313 -2.79368 0)
(211.543 -3.88919 0)
(213.876 -5.47102 0)
(215.103 -6.43532 0)
(215.588 -6.85054 0)
(215.63 -7.04538 0)
(215.609 -7.08265 0)
(215.608 -7.16624 0)
(215.781 -7.35907 0)
(216.088 -7.74867 0)
(216.444 -8.17501 0)
(216.768 -8.52 0)
(217.089 -8.81967 0)
(217.46 -9.17513 0)
(217.896 -9.67321 0)
(218.35 -10.2748 0)
(218.807 -10.8787 0)
(219.259 -11.4758 0)
(219.734 -12.1 0)
(220.204 -12.7881 0)
(220.678 -13.5274 0)
(221.13 -14.3059 0)
(221.573 -15.1118 0)
(221.987 -15.95 0)
(222.374 -16.8203 0)
(222.722 -17.7249 0)
(223.036 -18.6598 0)
(223.307 -19.6145 0)
(223.539 -20.5784 0)
(223.715 -21.5531 0)
(223.828 -22.5454 0)
(223.877 -23.5525 0)
(223.864 -24.5623 0)
(223.794 -25.563 0)
(223.665 -26.5497 0)
(223.489 -27.5266 0)
(223.258 -28.4862 0)
(222.968 -29.4151 0)
(222.628 -30.3225 0)
(222.242 -31.2095 0)
(221.819 -32.0766 0)
(221.36 -32.9243 0)
(220.867 -33.7516 0)
(220.336 -34.5541 0)
(219.765 -35.3259 0)
(219.178 -36.0711 0)
(218.603 -36.7987 0)
(218.044 -37.5187 0)
(217.43 -38.21 0)
(216.783 -38.8722 0)
(216.16 -39.5249 0)
(215.523 -40.1493 0)
(214.893 -40.7616 0)
(214.238 -41.3443 0)
(213.588 -41.9176 0)
(212.921 -42.4715 0)
(212.253 -43.0144 0)
(211.593 -43.5492 0)
(210.93 -44.0726 0)
(210.268 -44.5894 0)
(209.587 -45.0842 0)
(208.915 -45.573 0)
(208.221 -46.0321 0)
(207.556 -46.5065 0)
(206.871 -46.957 0)
(206.206 -47.4171 0)
(205.515 -47.8501 0)
(204.839 -48.2857 0)
(204.152 -48.7024 0)
(203.463 -49.1039 0)
(202.796 -49.5111 0)
(202.13 -49.9074 0)
(201.474 -50.2993 0)
(200.82 -50.6868 0)
(200.157 -51.0663 0)
(199.495 -51.4329 0)
(198.855 -51.8016 0)
(198.226 -52.1402 0)
(197.651 -52.5001 0)
(197.072 -52.8077 0)
(196.563 -53.1675 0)
(196.002 -53.445 0)
(195.506 -53.7954 0)
(194.941 -54.0657 0)
(194.402 -54.3832 0)
(193.827 -54.6525 0)
(193.264 -54.942 0)
(192.697 -55.203 0)
(192.161 -55.4798 0)
(191.645 -55.7377 0)
(191.173 -56.0086 0)
(190.727 -56.2678 0)
(190.313 -56.5305 0)
(189.915 -56.7912 0)
(189.504 -57.0288 0)
(189.086 -57.2674 0)
(188.634 -57.4798 0)
(188.147 -57.6668 0)
(187.639 -57.8379 0)
(187.133 -58.0075 0)
(186.642 -58.1708 0)
(186.181 -58.3396 0)
(185.757 -58.5063 0)
(185.378 -58.6853 0)
(185.039 -58.8615 0)
(184.745 -59.0542 0)
(184.481 -59.2394 0)
(184.268 -59.4488 0)
(184.098 -59.6661 0)
(184.108 -59.9475 0)
(172.015 51.1646 0)
(176.378 5.45816 0)
(189.318 -2.44008 0)
(194.722 -5.21328 0)
(195.974 -6.56616 0)
(197.07 -7.03509 0)
(198.346 -6.95958 0)
(199.758 -6.34723 0)
(201.368 -5.23837 0)
(203.298 -3.90791 0)
(205.62 -2.89553 0)
(208.32 -2.74199 0)
(211.535 -3.82828 0)
(213.871 -5.42767 0)
(215.112 -6.41493 0)
(215.602 -6.84696 0)
(215.656 -7.04765 0)
(215.637 -7.0895 0)
(215.633 -7.16493 0)
(215.799 -7.3514 0)
(216.103 -7.7328 0)
(216.465 -8.1591 0)
(216.795 -8.50582 0)
(217.119 -8.80421 0)
(217.492 -9.15471 0)
(217.931 -9.64648 0)
(218.39 -10.2449 0)
(218.853 -10.8475 0)
(219.312 -11.4426 0)
(219.794 -12.0634 0)
(220.273 -12.7481 0)
(220.757 -13.4846 0)
(221.22 -14.2609 0)
(221.675 -15.065 0)
(222.102 -15.9018 0)
(222.504 -16.7714 0)
(222.867 -17.676 0)
(223.197 -18.6111 0)
(223.487 -19.5668 0)
(223.738 -20.5333 0)
(223.933 -21.5123 0)
(224.065 -22.5097 0)
(224.132 -23.5221 0)
(224.139 -24.538 0)
(224.09 -25.5462 0)
(223.982 -26.5411 0)
(223.825 -27.5235 0)
(223.614 -28.4964 0)
(223.344 -29.4387 0)
(223.021 -30.3574 0)
(222.653 -31.2561 0)
(222.247 -32.1345 0)
(221.804 -32.9931 0)
(221.327 -33.8316 0)
(220.812 -34.6458 0)
(220.256 -35.4298 0)
(219.683 -36.1874 0)
(219.121 -36.9275 0)
(218.578 -37.6608 0)
(217.981 -38.3666 0)
(217.348 -39.0432 0)
(216.74 -39.7102 0)
(216.119 -40.3503 0)
(215.505 -40.979 0)
(214.865 -41.5789 0)
(214.233 -42.1694 0)
(213.584 -42.7406 0)
(212.933 -43.3013 0)
(212.288 -43.8554 0)
(211.639 -44.4006 0)
(210.991 -44.9391 0)
(210.328 -45.4576 0)
(209.671 -45.9683 0)
(208.997 -46.4533 0)
(208.351 -46.951 0)
(207.688 -47.4238 0)
(207.046 -47.9033 0)
(206.382 -48.3546 0)
(205.733 -48.8039 0)
(205.073 -49.2321 0)
(204.412 -49.6421 0)
(203.778 -50.0564 0)
(203.143 -50.4555 0)
(202.518 -50.8467 0)
(201.904 -51.238 0)
(201.279 -51.6228 0)
(200.648 -51.9977 0)
(200.031 -52.3758 0)
(199.417 -52.7256 0)
(198.853 -53.0946 0)
(198.285 -53.4106 0)
(197.79 -53.775 0)
(197.248 -54.0533 0)
(196.782 -54.4077 0)
(196.243 -54.6708 0)
(195.74 -54.9899 0)
(195.193 -55.2528 0)
(194.656 -55.5375 0)
(194.112 -55.7929 0)
(193.593 -56.0621 0)
(193.091 -56.3118 0)
(192.631 -56.5739 0)
(192.196 -56.821 0)
(191.8 -57.0796 0)
(191.413 -57.3236 0)
(191.027 -57.5602 0)
(190.628 -57.7892 0)
(190.19 -57.9893 0)
(189.723 -58.1664 0)
(189.236 -58.331 0)
(188.752 -58.4943 0)
(188.28 -58.6496 0)
(187.839 -58.8118 0)
(187.433 -58.9734 0)
(187.072 -59.1462 0)
(186.754 -59.3208 0)
(186.482 -59.509 0)
(186.245 -59.695 0)
(186.058 -59.9103 0)
(185.864 -60.1119 0)
(185.764 -60.4205 0)
(172.048 51.2016 0)
(176.404 5.44347 0)
(189.352 -2.43993 0)
(194.739 -5.20568 0)
(195.985 -6.55648 0)
(197.078 -7.02528 0)
(198.356 -6.94879 0)
(199.77 -6.33568 0)
(201.383 -5.22438 0)
(203.312 -3.88638 0)
(205.626 -2.85929 0)
(208.314 -2.68855 0)
(211.513 -3.76425 0)
(213.862 -5.38224 0)
(215.123 -6.39442 0)
(215.618 -6.84532 0)
(215.685 -7.04833 0)
(215.666 -7.09456 0)
(215.658 -7.16593 0)
(215.818 -7.34544 0)
(216.122 -7.71912 0)
(216.49 -8.14583 0)
(216.825 -8.49471 0)
(217.153 -8.79213 0)
(217.528 -9.13791 0)
(217.971 -9.62372 0)
(218.436 -10.2196 0)
(218.906 -10.8214 0)
(219.372 -11.4153 0)
(219.862 -12.0336 0)
(220.351 -12.716 0)
(220.846 -13.4511 0)
(221.321 -14.2267 0)
(221.789 -15.0305 0)
(222.229 -15.8678 0)
(222.646 -16.7388 0)
(223.024 -17.6453 0)
(223.371 -18.5827 0)
(223.68 -19.5419 0)
(223.95 -20.5138 0)
(224.165 -21.4998 0)
(224.315 -22.5047 0)
(224.401 -23.5247 0)
(224.427 -24.5488 0)
(224.397 -25.5671 0)
(224.308 -26.5732 0)
(224.168 -27.5647 0)
(223.974 -28.55 0)
(223.723 -29.5093 0)
(223.415 -30.4414 0)
(223.063 -31.353 0)
(222.672 -32.2443 0)
(222.244 -33.1156 0)
(221.782 -33.9665 0)
(221.282 -34.7933 0)
(220.74 -35.5899 0)
(220.179 -36.3598 0)
(219.63 -37.1123 0)
(219.103 -37.8588 0)
(218.522 -38.5782 0)
(217.903 -39.2673 0)
(217.309 -39.9462 0)
(216.704 -40.5992 0)
(216.107 -41.2414 0)
(215.484 -41.8548 0)
(214.872 -42.458 0)
(214.245 -43.0415 0)
(213.616 -43.6134 0)
(212.991 -44.1784 0)
(212.364 -44.7343 0)
(211.738 -45.2814 0)
(211.103 -45.8094 0)
(210.474 -46.3282 0)
(209.831 -46.8265 0)
(209.215 -47.3355 0)
(208.584 -47.8224 0)
(207.974 -48.3148 0)
(207.345 -48.7833 0)
(206.725 -49.2486 0)
(206.094 -49.696 0)
(205.456 -50.1277 0)
(204.842 -50.563 0)
(204.225 -50.9802 0)
(203.619 -51.385 0)
(203.035 -51.7909 0)
(202.443 -52.1859 0)
(201.845 -52.5712 0)
(201.255 -52.9536 0)
(200.665 -53.3098 0)
(200.117 -53.6766 0)
(199.568 -53.9929 0)
(199.091 -54.3482 0)
(198.575 -54.6188 0)
(198.143 -54.962 0)
(197.639 -55.2068 0)
(197.184 -55.5181 0)
(196.676 -55.7627 0)
(196.183 -56.038 0)
(195.676 -56.2821 0)
(195.19 -56.5426 0)
(194.717 -56.7849 0)
(194.281 -57.0401 0)
(193.872 -57.2828 0)
(193.503 -57.5391 0)
(193.143 -57.7756 0)
(192.796 -58.0173 0)
(192.426 -58.2385 0)
(192.021 -58.4269 0)
(191.591 -58.6074 0)
(191.146 -58.7693 0)
(190.702 -58.9282 0)
(190.271 -59.0787 0)
(189.87 -59.2344 0)
(189.505 -59.3903 0)
(189.185 -59.5558 0)
(188.909 -59.7241 0)
(188.678 -59.9017 0)
(188.49 -60.0825 0)
(188.363 -60.2855 0)
(188.324 -60.5203 0)
(188.21 -60.716 0)
(172.094 51.2404 0)
(176.43 5.42831 0)
(189.388 -2.43985 0)
(194.756 -5.19771 0)
(195.998 -6.54799 0)
(197.088 -7.01548 0)
(198.366 -6.93791 0)
(199.783 -6.32407 0)
(201.4 -5.2103 0)
(203.331 -3.86482 0)
(205.641 -2.8237 0)
(208.319 -2.63601 0)
(211.502 -3.70137 0)
(213.857 -5.33673 0)
(215.137 -6.37348 0)
(215.634 -6.84107 0)
(215.715 -7.05039 0)
(215.694 -7.1017 0)
(215.683 -7.16485 0)
(215.835 -7.3384 0)
(216.138 -7.70291 0)
(216.512 -8.12917 0)
(216.853 -8.47997 0)
(217.184 -8.77631 0)
(217.561 -9.11724 0)
(218.007 -9.59645 0)
(218.477 -10.1887 0)
(218.953 -10.789 0)
(219.426 -11.3807 0)
(219.924 -11.9956 0)
(220.422 -12.6744 0)
(220.928 -13.4065 0)
(221.414 -14.1798 0)
(221.893 -14.9816 0)
(222.347 -15.8172 0)
(222.778 -16.6873 0)
(223.172 -17.5936 0)
(223.537 -18.5308 0)
(223.865 -19.4906 0)
(224.154 -20.4647 0)
(224.389 -21.455 0)
(224.559 -22.4653 0)
(224.666 -23.4908 0)
(224.713 -24.5209 0)
(224.706 -25.5462 0)
(224.639 -26.5605 0)
(224.516 -27.5624 0)
(224.342 -28.5529 0)
(224.113 -29.5291 0)
(223.825 -30.4737 0)
(223.491 -31.3964 0)
(223.118 -32.2992 0)
(222.709 -33.1819 0)
(222.266 -34.0444 0)
(221.784 -34.883 0)
(221.259 -35.6918 0)
(220.713 -36.4738 0)
(220.179 -37.2388 0)
(219.67 -37.9984 0)
(219.108 -38.7322 0)
(218.506 -39.4353 0)
(217.928 -40.1276 0)
(217.34 -40.7953 0)
(216.76 -41.453 0)
(216.155 -42.0828 0)
(215.563 -42.7028 0)
(214.956 -43.3044 0)
(214.344 -43.8949 0)
(213.736 -44.4792 0)
(213.125 -45.0546 0)
(212.517 -45.6198 0)
(211.903 -46.1681 0)
(211.293 -46.7065 0)
(210.673 -47.2287 0)
(210.079 -47.7571 0)
(209.474 -48.2645 0)
(208.892 -48.7713 0)
(208.298 -49.2558 0)
(207.709 -49.7297 0)
(207.114 -50.1868 0)
(206.508 -50.6257 0)
(205.925 -51.0648 0)
(205.338 -51.4834 0)
(204.764 -51.8877 0)
(204.219 -52.2956 0)
(203.669 -52.6926 0)
(203.114 -53.0857 0)
(202.555 -53.4734 0)
(201.995 -53.8457 0)
(201.46 -54.2206 0)
(200.926 -54.5557 0)
(200.453 -54.9183 0)
(199.951 -55.2043 0)
(199.534 -55.5515 0)
(199.055 -55.8004 0)
(198.64 -56.1185 0)
(198.166 -56.3571 0)
(197.718 -56.6365 0)
(197.248 -56.874 0)
(196.801 -57.133 0)
(196.358 -57.3682 0)
(195.951 -57.618 0)
(195.568 -57.855 0)
(195.222 -58.1015 0)
(194.889 -58.3303 0)
(194.57 -58.5656 0)
(194.218 -58.7596 0)
(193.845 -58.9462 0)
(193.444 -59.106 0)
(193.03 -59.2571 0)
(192.614 -59.393 0)
(192.213 -59.5277 0)
(191.839 -59.6608 0)
(191.504 -59.7975 0)
(191.211 -59.9413 0)
(190.961 -60.0873 0)
(190.754 -60.243 0)
(190.586 -60.3979 0)
(190.479 -60.5781 0)
(190.452 -60.7751 0)
(190.413 -60.952 0)
(172.181 51.264 0)
(176.459 5.41262 0)
(189.423 -2.43991 0)
(194.773 -5.1901 0)
(196.009 -6.5381 0)
(197.096 -7.00541 0)
(198.375 -6.92678 0)
(199.795 -6.31213 0)
(201.416 -5.19588 0)
(203.346 -3.84292 0)
(205.648 -2.78725 0)
(208.314 -2.58216 0)
(211.477 -3.63592 0)
(213.849 -5.28926 0)
(215.153 -6.3533 0)
(215.653 -6.83869 0)
(215.745 -7.05155 0)
(215.723 -7.10696 0)
(215.708 -7.16573 0)
(215.853 -7.33304 0)
(216.158 -7.68886 0)
(216.537 -8.11516 0)
(216.883 -8.46821 0)
(217.218 -8.76377 0)
(217.598 -9.10013 0)
(218.047 -9.57313 0)
(218.523 -10.1623 0)
(219.006 -10.7616 0)
(219.487 -11.3519 0)
(219.993 -11.9643 0)
(220.502 -12.6406 0)
(221.019 -13.3711 0)
(221.516 -14.1434 0)
(222.008 -14.9446 0)
(222.476 -15.7803 0)
(222.922 -16.6513 0)
(223.333 -17.5591 0)
(223.716 -18.4983 0)
(224.063 -19.4609 0)
(224.371 -20.4398 0)
(224.626 -21.4366 0)
(224.817 -22.4545 0)
(224.944 -23.4879 0)
(225.011 -24.5262 0)
(225.024 -25.5609 0)
(224.978 -26.5863 0)
(224.873 -27.5999 0)
(224.717 -28.5995 0)
(224.506 -29.5912 0)
(224.235 -30.5515 0)
(223.917 -31.4868 0)
(223.56 -32.4023 0)
(223.169 -33.2979 0)
(222.744 -34.1736 0)
(222.278 -35.0252 0)
(221.769 -35.8466 0)
(221.237 -36.6407 0)
(220.717 -37.4176 0)
(220.226 -38.1898 0)
(219.684 -38.9371 0)
(219.098 -39.6528 0)
(218.537 -40.3568 0)
(217.966 -41.0365 0)
(217.405 -41.706 0)
(216.819 -42.347 0)
(216.249 -42.9779 0)
(215.666 -43.591 0)
(215.078 -44.1924 0)
(214.493 -44.7871 0)
(213.907 -45.3712 0)
(213.326 -45.943 0)
(212.741 -46.4992 0)
(212.158 -47.0453 0)
(211.568 -47.5796 0)
(211 -48.1167 0)
(210.428 -48.6367 0)
(209.876 -49.152 0)
(209.319 -49.6514 0)
(208.758 -50.1355 0)
(208.196 -50.6103 0)
(207.616 -51.0651 0)
(207.057 -51.5178 0)
(206.493 -51.9483 0)
(205.942 -52.3615 0)
(205.428 -52.7752 0)
(204.916 -53.1755 0)
(204.402 -53.5721 0)
(203.879 -53.9573 0)
(203.356 -54.337 0)
(202.838 -54.7069 0)
(202.328 -55.0527 0)
(201.861 -55.4125 0)
(201.373 -55.7072 0)
(200.962 -56.0507 0)
(200.502 -56.3015 0)
(200.115 -56.6187 0)
(199.669 -56.8466 0)
(199.262 -57.1265 0)
(198.823 -57.3483 0)
(198.413 -57.6033 0)
(197.996 -57.8203 0)
(197.618 -58.0632 0)
(197.254 -58.283 0)
(196.929 -58.5172 0)
(196.613 -58.7362 0)
(196.303 -58.9494 0)
(195.968 -59.1342 0)
(195.61 -59.3105 0)