/*--------------------------------*- C++ -*----------------------------------*\
| =========                 |                                                 |
| \\      /  F ield         | OpenFOAM: The Open Source CFD Toolbox           |
|  \\    /   O peration     | Version:  2412                                  |
|   \\  /    A nd           | Website:  www.openfoam.com                      |
|    \\/     M anipulation  |                                                 |
\*---------------------------------------------------------------------------*/
FoamFile
{
    version     2.0;
    format      ascii;
    arch        "LSB;label=32;scalar=64";
    class       volScalarField;
    location    "0.113";
    object      rho;
}
// * * * * * * * * * * * * * * * * * * * * * * * * * * * * * * * * * * * * * //

dimensions      [1 -3 0 0 0 0 0];

internalField   nonuniform List<scalar> 
78650
(
0.0537932
0.0439986
0.0430869
0.0429437
0.0428022
0.0427039
0.0426173
0.0425483
0.0424947
0.0424531
0.0424165
0.0423783
0.0423333
0.0422811
0.0422267
0.0421759
0.042131
0.0420915
0.0420565
0.0420255
0.0419985
0.0419753
0.0419556
0.0419388
0.0419238
0.0419091
0.0418935
0.0418759
0.0418559
0.0418336
0.041809
0.0417825
0.0417547
0.041726
0.0416973
0.041669
0.0416414
0.0416148
0.0415892
0.0415648
0.0415416
0.0415198
0.0414994
0.0414806
0.0414634
0.0414478
0.0414338
0.0414213
0.0414102
0.0414004
0.0413918
0.0413844
0.0413782
0.0413728
0.0413684
0.0413647
0.0413615
0.0413587
0.0413563
0.041354
0.0413514
0.0413485
0.041345
0.0413405
0.0413348
0.0413275
0.0413182
0.0413064
0.0412915
0.0412732
0.0412506
0.0412234
0.0411909
0.0411526
0.0411076
0.0410547
0.0409929
0.0409208
0.0408376
0.040742
0.0406331
0.0405094
0.0403696
0.040212
0.0400345
0.0398353
0.0396117
0.0393628
0.0390862
0.0387815
0.0384455
0.0380785
0.0376754
0.0372427
0.0367716
0.0362733
0.0357342
0.0351588
0.0345431
0.0338806
0.0331935
0.0324954
0.0317752
0.0310444
0.0303283
0.0295812
0.0288666
0.0281644
0.0275281
0.0269027
0.0262436
0.0256247
0.0250723
0.0245877
0.0241986
0.0238211
0.0234494
0.0230653
0.0227052
0.0223788
0.0218267
0.0533855
0.0439271
0.0430872
0.0429542
0.0428201
0.0427209
0.0426317
0.042559
0.0425027
0.0424601
0.0424243
0.0423886
0.0423466
0.0422962
0.0422418
0.0421898
0.0421434
0.0421029
0.0420673
0.0420359
0.0420086
0.0419853
0.0419656
0.0419489
0.0419345
0.0419208
0.0419067
0.0418909
0.0418731
0.041853
0.0418306
0.0418063
0.0417804
0.0417535
0.0417264
0.0416996
0.0416735
0.0416484
0.0416243
0.0416014
0.0415797
0.0415595
0.0415407
0.0415235
0.0415079
0.041494
0.0414817
0.041471
0.0414618
0.041454
0.0414476
0.0414424
0.0414385
0.0414356
0.0414337
0.0414327
0.0414323
0.0414326
0.0414334
0.0414344
0.0414354
0.0414363
0.0414369
0.0414368
0.0414358
0.0414335
0.0414298
0.0414239
0.0414154
0.041404
0.041389
0.0413698
0.0413461
0.0413172
0.0412826
0.0412411
0.0411916
0.0411331
0.0410645
0.0409849
0.0408931
0.040788
0.0406682
0.0405325
0.0403786
0.0402046
0.040008
0.0397878
0.0395417
0.039269
0.0389658
0.0386311
0.0382605
0.0378582
0.0374168
0.0369466
0.0364326
0.0358858
0.0353002
0.0346732
0.0340132
0.0333241
0.0326286
0.0318888
0.0311732
0.0304337
0.0297131
0.0289954
0.0282766
0.0276494
0.0270007
0.0263629
0.0257485
0.0251642
0.0246656
0.0242314
0.0238422
0.0234566
0.023062
0.0226756
0.0220606
0.052959
0.0437985
0.0430902
0.0429619
0.0428344
0.0427363
0.042646
0.0425706
0.0425111
0.0424664
0.042431
0.0423977
0.042359
0.0423113
0.0422576
0.0422046
0.0421567
0.042115
0.0420785
0.0420467
0.0420192
0.0419958
0.0419761
0.0419596
0.0419455
0.0419328
0.04192
0.041906
0.0418902
0.0418722
0.0418522
0.0418301
0.0418063
0.0417813
0.0417559
0.0417306
0.041706
0.0416824
0.0416598
0.0416385
0.0416184
0.0415998
0.0415826
0.041567
0.0415531
0.0415409
0.0415304
0.0415216
0.0415143
0.0415086
0.0415042
0.0415013
0.0414997
0.0414993
0.0414999
0.0415016
0.0415041
0.0415074
0.0415113
0.0415157
0.0415204
0.0415251
0.0415297
0.041534
0.0415376
0.0415404
0.0415418
0.0415418
0.0415396
0.041535
0.0415274
0.041516
0.0415007
0.0414809
0.0414561
0.0414253
0.0413876
0.0413418
0.041287
0.0412221
0.0411462
0.0410582
0.0409569
0.0408409
0.0407085
0.0405578
0.0403864
0.0401931
0.0399753
0.039732
0.03946
0.0391585
0.0388247
0.0384607
0.0380608
0.0376294
0.0371542
0.0366482
0.0361007
0.0355183
0.0349014
0.0342361
0.0335592
0.0328261
0.0320915
0.0313595
0.0305841
0.029861
0.0291002
0.028386
0.0277194
0.0270591
0.0264287
0.025802
0.0251812
0.0246184
0.024132
0.0236903
0.0232885
0.0229106
0.022212
0.0525449
0.0436943
0.0430873
0.0429672
0.042845
0.04275
0.042661
0.0425829
0.0425195
0.0424722
0.0424367
0.0424055
0.0423703
0.0423261
0.042274
0.0422206
0.0421713
0.0421281
0.0420906
0.0420582
0.0420305
0.042007
0.0419873
0.0419709
0.0419572
0.0419453
0.0419337
0.0419214
0.0419075
0.0418918
0.041874
0.0418542
0.0418326
0.0418097
0.0417861
0.0417625
0.0417395
0.0417174
0.0416964
0.0416766
0.0416581
0.0416411
0.0416255
0.0416116
0.0415993
0.0415888
0.0415801
0.0415731
0.0415677
0.0415639
0.0415616
0.0415609
0.0415615
0.0415635
0.0415667
0.0415709
0.0415762
0.0415824
0.0415894
0.041597
0.0416052
0.0416136
0.0416221
0.0416305
0.0416386
0.0416462
0.0416527
0.0416581
0.0416619
0.0416636
0.041663
0.0416592
0.0416521
0.0416409
0.0416255
0.0416049
0.0415785
0.041545
0.0415034
0.0414531
0.0413928
0.0413217
0.0412386
0.0411425
0.0410316
0.0409043
0.0407581
0.0405916
0.0404025
0.0401899
0.039951
0.0396846
0.0393872
0.0390588
0.0386936
0.0382944
0.0378533
0.0373815
0.0368665
0.0363185
0.035729
0.035102
0.0344338
0.0337423
0.0330013
0.0322851
0.0315001
0.0307277
0.0299632
0.0291617
0.0284381
0.0277372
0.0270922
0.0264943
0.0258758
0.0252578
0.0246665
0.0241017
0.0236241
0.0232091
0.0224787
0.0520943
0.0435881
0.0430766
0.0429719
0.0428584
0.0427653
0.0426763
0.0425956
0.0425282
0.0424778
0.0424414
0.0424115
0.0423797
0.0423399
0.0422907
0.0422376
0.0421871
0.0421422
0.0421036
0.0420705
0.0420426
0.0420191
0.0419994
0.0419831
0.0419697
0.0419584
0.041948
0.0419372
0.0419252
0.0419116
0.0418961
0.0418788
0.0418595
0.0418387
0.0418171
0.0417953
0.0417739
0.0417534
0.0417339
0.0417157
0.0416989
0.0416835
0.0416696
0.0416573
0.0416468
0.041638
0.041631
0.0416258
0.0416223
0.0416205
0.0416204
0.0416219
0.0416247
0.041629
0.0416346
0.0416415
0.0416495
0.0416586
0.0416686
0.0416795
0.041691
0.041703
0.0417153
0.0417278
0.0417403
0.0417524
0.041764
0.0417748
0.0417844
0.0417922
0.041798
0.0418015
0.0418022
0.0417995
0.0417931
0.0417823
0.0417664
0.0417445
0.0417154
0.0416786
0.0416329
0.0415775
0.0415113
0.0414333
0.041342
0.041236
0.0411131
0.0409718
0.0408098
0.040626
0.0404175
0.0401829
0.0399189
0.0396249
0.0392962
0.0389346
0.0385345
0.0381025
0.0376276
0.0371178
0.0365589
0.0359595
0.0353192
0.0346448
0.033934
0.0331864
0.0324345
0.0316268
0.0308815
0.0300656
0.0292832
0.0284991
0.0277356
0.0270459
0.0264075
0.0258314
0.0252679
0.0246765
0.0240735
0.0235334
0.0226148
0.0516143
0.0435262
0.0430669
0.0429724
0.0428678
0.0427777
0.0426896
0.0426074
0.0425368
0.042483
0.0424448
0.0424157
0.0423871
0.042352
0.042307
0.0422554
0.0422042
0.0421578
0.0421177
0.0420838
0.0420556
0.0420321
0.0420125
0.0419963
0.0419832
0.0419725
0.041963
0.0419536
0.0419434
0.0419318
0.0419187
0.0419038
0.041887
0.0418685
0.041849
0.0418291
0.0418094
0.0417905
0.0417727
0.0417561
0.0417409
0.0417271
0.0417149
0.0417044
0.0416955
0.0416885
0.0416833
0.0416799
0.0416784
0.0416785
0.0416805
0.041684
0.041689
0.0416957
0.0417037
0.0417132
0.0417238
0.0417357
0.0417487
0.0417626
0.0417774
0.0417929
0.041809
0.0418254
0.041842
0.0418587
0.0418751
0.0418909
0.0419059
0.0419198
0.0419321
0.0419424
0.0419503
0.0419555
0.0419576
0.0419562
0.0419506
0.04194
0.0419228
0.041899
0.0418674
0.0418274
0.0417778
0.0417178
0.041646
0.0415612
0.0414615
0.0413451
0.0412097
0.0410539
0.0408754
0.0406732
0.0404441
0.0401869
0.0398973
0.0395763
0.0392193
0.0388293
0.0383961
0.0379255
0.0374065
0.0368515
0.0362529
0.0356133
0.0349475
0.0342096
0.0334774
0.0326827
0.0318759
0.0310589
0.0302427
0.0294626
0.0286531
0.0278885
0.0271248
0.026427
0.0258003
0.0252143
0.0246482
0.0241044
0.0230867
0.0510952
0.0434734
0.04305
0.0429649
0.0428699
0.0427866
0.0427021
0.0426196
0.0425458
0.0424878
0.0424472
0.0424181
0.0423922
0.042362
0.042322
0.0422733
0.0422222
0.0421744
0.0421328
0.0420981
0.0420695
0.042046
0.0420266
0.0420106
0.0419978
0.0419876
0.041979
0.0419708
0.0419622
0.0419526
0.0419416
0.0419291
0.0419148
0.0418988
0.0418816
0.0418637
0.0418459
0.0418288
0.0418126
0.0417977
0.0417841
0.041772
0.0417615
0.0417526
0.0417455
0.0417403
0.0417369
0.0417354
0.0417358
0.0417381
0.0417419
0.0417475
0.0417548
0.0417637
0.0417742
0.0417861
0.0417994
0.0418141
0.04183
0.041847
0.041865
0.0418839
0.0419036
0.0419238
0.0419445
0.0419655
0.0419865
0.0420074
0.0420277
0.0420473
0.0420657
0.0420826
0.0420978
0.0421106
0.0421208
0.0421279
0.0421316
0.0421317
0.0421261
0.0421148
0.0420963
0.0420705
0.0420362
0.0419927
0.0419387
0.0418732
0.0417945
0.0417009
0.0415902
0.0414614
0.0413124
0.0411419
0.0409468
0.0407249
0.0404725
0.0401896
0.0398716
0.0395193
0.0391239
0.0386899
0.0382093
0.0376929
0.0371303
0.0365256
0.0358748
0.0351924
0.0344617
0.0337068
0.0328876
0.0320849
0.0312272
0.0304169
0.0295838
0.0287861
0.0280061
0.0272165
0.02647
0.0257559
0.0251212
0.0245735
0.0235852
0.0505479
0.0434272
0.0430322
0.0429528
0.0428679
0.0427912
0.042712
0.042631
0.0425543
0.0424925
0.042449
0.0424188
0.0423949
0.0423692
0.042335
0.0422905
0.0422407
0.0421921
0.0421491
0.0421132
0.0420842
0.0420608
0.0420416
0.042026
0.0420135
0.0420038
0.0419959
0.0419888
0.0419817
0.0419738
0.041965
0.0419549
0.0419431
0.0419296
0.0419148
0.0418991
0.0418833
0.041868
0.0418537
0.0418404
0.0418285
0.0418181
0.0418093
0.0418022
0.0417968
0.0417933
0.0417917
0.0417921
0.0417946
0.0417986
0.0418045
0.0418122
0.0418216
0.0418328
0.0418456
0.04186
0.0418759
0.0418933
0.041912
0.0419319
0.0419531
0.0419753
0.0419985
0.0420224
0.042047
0.0420722
0.0420977
0.0421232
0.0421487
0.0421737
0.042198
0.0422212
0.0422431
0.0422632
0.0422813
0.042297
0.0423097
0.0423189
0.0423241
0.0423249
0.0423195
0.0423077
0.0422883
0.0422609
0.0422243
0.0421778
0.0421197
0.0420487
0.0419626
0.0418602
0.0417392
0.0415981
0.041434
0.041245
0.0410281
0.0407831
0.0405052
0.040194
0.039843
0.0394563
0.0390276
0.0385599
0.0380406
0.0374781
0.036866
0.0362091
0.0355079
0.0347645
0.0339666
0.0331516
0.0322833
0.0314141
0.0305536
0.0296808
0.0288767
0.0280484
0.0272315
0.0264388
0.0256645
0.0249791
0.0237299
0.0499719
0.0433826
0.0430095
0.042935
0.0428595
0.0427899
0.0427178
0.042641
0.0425635
0.0424982
0.0424507
0.0424184
0.042395
0.0423732
0.0423449
0.0423061
0.0422591
0.0422105
0.0421661
0.042129
0.0420994
0.0420761
0.0420574
0.0420423
0.0420302
0.042021
0.0420138
0.0420077
0.0420019
0.0419957
0.0419888
0.0419809
0.0419716
0.0419607
0.0419484
0.041935
0.0419214
0.041908
0.0418955
0.041884
0.0418739
0.0418652
0.041858
0.0418526
0.041849
0.0418473
0.0418476
0.04185
0.0418541
0.0418602
0.0418681
0.0418779
0.0418895
0.0419029
0.0419181
0.0419349
0.0419534
0.0419734
0.0419948
0.0420177
0.0420419
0.0420674
0.042094
0.0421215
0.0421499
0.0421791
0.0422089
0.042239
0.0422694
0.0422996
0.0423296
0.0423588
0.0423872
0.0424143
0.0424398
0.0424634
0.0424848
0.0425036
0.0425187
0.0425297
0.0425361
0.0425375
0.0425322
0.0425199
0.0424994
0.0424701
0.0424308
0.0423802
0.0423165
0.0422383
0.0421435
0.0420308
0.0418979
0.0417434
0.0415643
0.0413592
0.041123
0.0408549
0.0405501
0.0402115
0.0398308
0.0394081
0.0389338
0.0384156
0.0378468
0.0372354
0.0365731
0.0358619
0.0351156
0.0343038
0.033471
0.0325638
0.0316989
0.0307817
0.0298805
0.029034
0.0281925
0.0274163
0.02665
0.0259265
0.0245737
0.0493838
0.0433505
0.0429756
0.0429008
0.0428347
0.042776
0.0427144
0.0426462
0.0425731
0.0425053
0.0424527
0.042417
0.0423935
0.0423739
0.0423514
0.0423192
0.0422767
0.0422292
0.0421838
0.0421453
0.0421149
0.0420917
0.0420736
0.0420593
0.0420479
0.0420393
0.0420328
0.0420276
0.0420229
0.0420181
0.0420131
0.0420072
0.0420003
0.041992
0.0419822
0.0419713
0.0419599
0.0419487
0.041938
0.0419284
0.04192
0.0419131
0.0419076
0.041904
0.0419021
0.0419021
0.0419044
0.0419085
0.0419146
0.0419226
0.0419325
0.0419443
0.0419581
0.0419737
0.0419911
0.0420103
0.0420312
0.0420538
0.042078
0.0421037
0.0421308
0.0421594
0.0421892
0.0422202
0.0422523
0.0422853
0.0423192
0.0423537
0.0423887
0.0424239
0.0424592
0.0424942
0.0425287
0.0425624
0.0425949
0.0426261
0.0426557
0.0426831
0.042708
0.0427297
0.0427472
0.0427601
0.042768
0.0427705
0.0427659
0.0427537
0.0427328
0.0427021
0.04266
0.0426053
0.042536
0.0424508
0.0423475
0.0422246
0.042079
0.0419087
0.0417093
0.0414805
0.0412184
0.0409235
0.0405872
0.0402091
0.0397823
0.0393119
0.0387904
0.0382235
0.037602
0.03693
0.0362021
0.0354262
0.034627
0.0337441
0.0328361
0.0319006
0.0309293
0.0300121
0.0290385
0.0281334
0.0272878
0.0265364
0.0251166
0.0487825
0.0432908
0.0429424
0.0428705
0.0428137
0.0427654
0.0427129
0.0426527
0.0425855
0.0425153
0.0424563
0.042416
0.0423907
0.0423728
0.0423543
0.0423289
0.0422924
0.0422475
0.0422016
0.0421616
0.0421302
0.0421071
0.0420898
0.0420764
0.042066
0.0420582
0.0420526
0.0420483
0.0420446
0.0420412
0.0420376
0.0420337
0.0420291
0.0420232
0.0420159
0.0420076
0.0419986
0.0419895
0.0419809
0.0419732
0.0419666
0.0419614
0.0419577
0.0419558
0.0419556
0.0419576
0.0419615
0.0419674
0.0419754
0.0419854
0.0419974
0.0420113
0.0420271
0.0420448
0.0420645
0.042086
0.0421094
0.0421345
0.0421613
0.0421897
0.0422198
0.0422514
0.0422844
0.0423187
0.0423543
0.0423911
0.0424289
0.0424676
0.0425071
0.0425471
0.0425875
0.0426279
0.0426683
0.0427082
0.0427475
0.0427858
0.042823
0.0428588
0.0428926
0.0429238
0.042952
0.0429765
0.0429966
0.0430116
0.043021
0.0430245
0.0430206
0.0430082
0.0429863
0.042953
0.0429072
0.0428475
0.042772
0.0426792
0.0425663
0.0424314
0.0422711
0.0420847
0.0418676
0.0416185
0.04133
0.0410025
0.0406305
0.0402164
0.0397518
0.0392365
0.0386608
0.0380354
0.0373558
0.0366239
0.0358315
0.0349949
0.0340703
0.0331673
0.0322039
0.031276
0.0302508
0.0292744
0.0282908
0.0273857
0.0256903
0.0481637
0.0432469
0.0429119
0.0428332
0.0427821
0.0427433
0.042702
0.0426522
0.042592
0.0425251
0.0424627
0.0424174
0.0423888
0.0423707
0.0423548
0.0423351
0.0423051
0.0422643
0.0422191
0.0421778
0.0421453
0.042122
0.0421055
0.0420933
0.0420842
0.0420775
0.042073
0.0420697
0.042067
0.0420648
0.0420627
0.0420605
0.0420579
0.0420543
0.0420495
0.0420437
0.0420371
0.0420303
0.0420238
0.0420181
0.0420135
0.0420101
0.0420082
0.0420079
0.0420097
0.0420132
0.0420189
0.0420266
0.0420365
0.0420485
0.0420624
0.0420783
0.0420962
0.0421161
0.0421379
0.0421617
0.0421874
0.0422149
0.0422442
0.0422753
0.0423081
0.0423426
0.0423786
0.0424162
0.0424551
0.0424954
0.042537
0.0425797
0.0426234
0.0426679
0.0427131
0.0427586
0.0428045
0.0428503
0.0428959
0.042941
0.0429854
0.0430289
0.0430711
0.0431115
0.0431496
0.0431847
0.0432165
0.0432443
0.0432674
0.0432851
0.0432967
0.0433018
0.0432994
0.043287
0.0432641
0.0432284
0.0431791
0.0431144
0.0430322
0.0429306
0.0428067
0.0426592
0.0424831
0.0422771
0.0420352
0.0417585
0.0414411
0.0410815
0.0406706
0.0402085
0.0396896
0.0391193
0.0384865
0.037799
0.0370459
0.0362273
0.0353596
0.0344261
0.0334627
0.0324192
0.0314097
0.0303907
0.0294081
0.0285293
0.0268959
0.0475532
0.04318
0.042887
0.0427981
0.0427457
0.0427113
0.0426802
0.0426424
0.0425932
0.0425343
0.0424731
0.0424227
0.0423895
0.0423687
0.0423536
0.0423373
0.0423135
0.0422783
0.0422351
0.0421932
0.0421597
0.042136
0.0421203
0.0421093
0.0421017
0.0420966
0.0420935
0.0420914
0.0420898
0.0420887
0.0420879
0.0420872
0.0420865
0.0420851
0.0420827
0.0420794
0.0420752
0.0420708
0.0420665
0.0420628
0.0420601
0.0420587
0.0420585
0.0420602
0.0420635
0.0420688
0.0420762
0.0420857
0.0420975
0.0421113
0.0421272
0.0421451
0.042165
0.042187
0.042211
0.042237
0.0422649
0.0422948
0.0423266
0.0423602
0.0423957
0.042433
0.042472
0.0425126
0.0425548
0.0425985
0.0426436
0.0426901
0.0427379
0.0427867
0.0428364
0.0428868
0.0429379
0.0429893
0.0430408
0.0430923
0.0431434
0.0431942
0.0432442
0.0432931
0.0433403
0.0433853
0.0434278
0.0434671
0.0435027
0.0435341
0.0435604
0.0435808
0.0435945
0.043601
0.0435995
0.0435865
0.0435623
0.0435238
0.0434709
0.0434009
0.0433117
0.0432012
0.0430648
0.0429014
0.0427061
0.0424792
0.0422135
0.0419062
0.0415497
0.0411453
0.040688
0.0401771
0.0395995
0.0389634
0.0382618
0.037499
0.0366634
0.0357515
0.034825
0.0337818
0.0327402
0.0315873
0.0304454
0.0293936
0.0274316
0.0469463
0.0431236
0.0428563
0.0427579
0.0427028
0.0426727
0.0426516
0.0426274
0.0425895
0.0425376
0.0424816
0.0424301
0.0423915
0.0423665
0.0423505
0.0423364
0.0423177
0.0422888
0.0422493
0.0422077
0.0421733
0.0421491
0.0421339
0.0421244
0.0421184
0.042115
0.0421137
0.0421134
0.042113
0.042113
0.0421134
0.0421141
0.042115
0.0421155
0.0421154
0.0421145
0.0421127
0.0421106
0.0421086
0.0421071
0.0421064
0.0421069
0.0421087
0.0421119
0.042117
0.0421241
0.0421332
0.0421445
0.042158
0.0421737
0.0421915
0.0422114
0.0422333
0.0422573
0.0422834
0.0423115
0.0423416
0.0423738
0.042408
0.042444
0.0424821
0.042522
0.0425637
0.0426073
0.0426525
0.0426994
0.0427479
0.042798
0.0428495
0.0429023
0.0429563
0.0430113
0.0430672
0.0431237
0.0431808
0.0432382
0.0432957
0.0433532
0.0434104
0.0434671
0.0435229
0.0435772
0.0436296
0.0436797
0.0437271
0.0437711
0.0438112
0.0438468
0.0438771
0.0439006
0.0439169
0.0439251
0.0439252
0.0439115
0.0438861
0.0438448
0.0437872
0.0437107
0.0436122
0.0434902
0.0433404
0.0431616
0.0429461
0.0426922
0.0423942
0.0420519
0.0416572
0.0412062
0.0406914
0.0401178
0.0394732
0.0387635
0.0379794
0.0371262
0.0361974
0.0352255
0.0341706
0.0331251
0.0319841
0.030948
0.0289791
0.0463507
0.0430639
0.0428334
0.0427299
0.0426675
0.0426356
0.0426171
0.0425995
0.0425737
0.0425331
0.042483
0.0424339
0.0423937
0.0423654
0.042347
0.0423335
0.0423185
0.0422956
0.0422609
0.0422207
0.0421857
0.042161
0.0421462
0.0421381
0.0421337
0.0421322
0.0421331
0.0421348
0.0421359
0.0421372
0.0421388
0.0421407
0.0421431
0.0421455
0.0421475
0.0421487
0.0421493
0.0421496
0.0421498
0.0421505
0.0421519
0.0421543
0.0421579
0.0421631
0.0421699
0.0421787
0.0421895
0.0422025
0.0422178
0.0422353
0.042255
0.0422768
0.0423006
0.0423266
0.0423547
0.0423849
0.0424172
0.0424516
0.042488
0.0425264
0.0425669
0.0426093
0.0426537
0.0427001
0.0427482
0.0427982
0.0428499
0.0429034
0.0429585
0.0430151
0.0430731
0.0431324
0.0431928
0.0432542
0.0433165
0.0433794
0.0434428
0.0435066
0.0435705
0.0436345
0.0436981
0.0437608
0.0438224
0.0438824
0.0439404
0.0439959
0.0440484
0.0440975
0.0441423
0.0441822
0.0442164
0.044243
0.0442618
0.0442717
0.0442726
0.0442589
0.044232
0.0441879
0.0441255
0.0440426
0.043935
0.0438007
0.0436331
0.0434317
0.0431905
0.0429071
0.0425733
0.0421865
0.04174
0.0412328
0.0406538
0.0400081
0.0392803
0.0384772
0.0375824
0.0366104
0.0355639
0.0344627
0.0331882
0.0320388
0.0299394
0.0457734
0.0429987
0.0428109
0.042707
0.0426357
0.0425967
0.0425752
0.0425606
0.0425442
0.042517
0.0424774
0.0424334
0.0423941
0.0423646
0.0423447
0.042331
0.0423183
0.0423
0.0422704
0.0422324
0.0421973
0.0421721
0.0421576
0.0421508
0.0421479
0.0421482
0.0421519
0.0421555
0.0421583
0.0421612
0.042164
0.0421671
0.0421708
0.0421749
0.0421788
0.0421821
0.042185
0.0421875
0.04219
0.0421928
0.0421963
0.0422007
0.0422063
0.0422133
0.0422219
0.0422324
0.0422449
0.0422597
0.0422767
0.0422959
0.0423174
0.042341
0.0423668
0.0423947
0.0424247
0.0424569
0.0424913
0.0425278
0.0425664
0.0426071
0.0426498
0.0426947
0.0427416
0.0427905
0.0428415
0.0428943
0.042949
0.0430056
0.043064
0.0431241
0.0431859
0.0432491
0.0433137
0.0433796
0.0434466
0.0435147
0.0435835
0.0436531
0.0437232
0.0437938
0.0438646
0.0439351
0.0440051
0.0440741
0.0441419
0.0442081
0.0442722
0.0443338
0.0443922
0.0444469
0.044497
0.0445418
0.0445803
0.0446105
0.0446323
0.0446441
0.0446459
0.0446318
0.0446029
0.0445552
0.0444864
0.0443942
0.0442737
0.0441242
0.0439388
0.0437146
0.0434441
0.0431244
0.0427489
0.0423139
0.0418094
0.0412364
0.0405806
0.0398502
0.0390269
0.0381272
0.0371252
0.03606
0.0348576
0.0336916
0.0315498
0.0452151
0.0429162
0.0427869
0.0426884
0.0426065
0.0425564
0.042528
0.0425132
0.042502
0.0424859
0.0424592
0.0424239
0.0423889
0.0423603
0.042341
0.042328
0.0423173
0.042303
0.0422781
0.042243
0.042208
0.0421823
0.042168
0.0421623
0.0421608
0.0421631
0.0421693
0.0421751
0.0421799
0.0421845
0.0421887
0.042193
0.042198
0.0422036
0.0422092
0.0422146
0.0422195
0.0422241
0.0422288
0.0422338
0.0422394
0.0422458
0.0422534
0.0422622
0.0422726
0.0422848
0.0422991
0.0423155
0.0423343
0.0423553
0.0423785
0.0424039
0.0424315
0.0424612
0.0424931
0.0425273
0.0425636
0.0426022
0.0426429
0.0426857
0.0427307
0.0427778
0.0428271
0.0428785
0.042932
0.0429875
0.0430451
0.0431046
0.0431662
0.0432296
0.0432948
0.0433618
0.0434303
0.0435003
0.0435718
0.0436445
0.0437185
0.0437934
0.0438692
0.0439459
0.0440232
0.0441008
0.0441784
0.0442557
0.0443324
0.0444082
0.0444827
0.0445555
0.0446261
0.044694
0.0447586
0.0448191
0.0448746
0.0449244
0.0449674
0.0450014
0.0450262
0.0450401
0.045043
0.0450286
0.0449973
0.0449452
0.0448694
0.0447681
0.0446342
0.0444654
0.0442544
0.0439983
0.0436895
0.0433223
0.0428875
0.0423841
0.0418005
0.0411383
0.0403769
0.0395264
0.0385683
0.037511
0.0363598
0.0351775
0.0331679
0.0446973
0.0427984
0.0427492
0.0426688
0.0425899
0.042533
0.0424945
0.0424714
0.0424572
0.042445
0.0424289
0.0424056
0.0423792
0.0423548
0.0423373
0.0423253
0.0423164
0.0423057
0.0422856
0.0422539
0.0422188
0.0421922
0.0421777
0.0421728
0.0421726
0.042177
0.0421858
0.0421937
0.0422005
0.042207
0.0422128
0.0422183
0.0422245
0.0422315
0.0422388
0.0422459
0.0422528
0.0422595
0.0422662
0.0422733
0.042281
0.0422895
0.042299
0.0423098
0.042322
0.0423359
0.0423519
0.04237
0.0423904
0.0424131
0.0424381
0.0424652
0.0424945
0.042526
0.0425598
0.0425958
0.0426341
0.0426746
0.0427172
0.0427621
0.0428092
0.0428585
0.04291
0.0429637
0.0430196
0.0430777
0.0431379
0.0432002
0.0432646
0.043331
0.0433995
0.0434698
0.0435419
0.0436158
0.0436913
0.0437683
0.0438468
0.0439266
0.0440076
0.0440898
0.044173
0.044257
0.0443416
0.0444263
0.044511
0.0445955
0.0446794
0.0447624
0.0448441
0.0449241
0.0450018
0.0450767
0.0451479
0.0452148
0.0452764
0.0453317
0.0453796
0.0454177
0.0454458
0.0454618
0.0454654
0.0454502
0.0454158
0.045358
0.045272
0.0451559
0.0450027
0.0448098
0.044569
0.044275
0.0439201
0.0434992
0.043001
0.0424254
0.0417559
0.0409909
0.0400964
0.0390947
0.0379562
0.0367375
0.0347406
0.0442649
0.0426647
0.0426908
0.0426516
0.0425822
0.0425181
0.0424707
0.0424387
0.0424185
0.0424049
0.0423932
0.0423787
0.0423611
0.0423429
0.0423291
0.04232
0.042314
0.0423061
0.0422918
0.0422649
0.0422306
0.0422026
0.0421873
0.0421828
0.0421835
0.04219
0.0422011
0.0422112
0.0422202
0.0422285
0.0422359
0.0422428
0.0422502
0.0422584
0.0422673
0.0422761
0.0422848
0.0422934
0.0423021
0.0423113
0.042321
0.0423315
0.0423431
0.0423557
0.0423698
0.0423854
0.042403
0.0424228
0.0424449
0.0424693
0.0424959
0.0425247
0.0425558
0.042589
0.0426245
0.0426623
0.0427024
0.0427447
0.0427893
0.0428361
0.0428852
0.0429365
0.0429901
0.043046
0.0431042
0.0431646
0.0432272
0.0432921
0.0433592
0.0434284
0.0434998
0.0435733
0.0436487
0.0437261
0.0438053
0.0438862
0.0439689
0.0440532
0.0441389
0.0442261
0.0443147
0.0444045
0.0444953
0.0445868
0.0446788
0.044771
0.0448633
0.0449554
0.045047
0.0451376
0.045227
0.0453145
0.0453996
0.0454817
0.04556
0.0456337
0.0457016
0.0457627
0.0458158
0.0458585
0.0458901
0.0459084
0.0459127
0.0458958
0.0458562
0.0457905
0.0456936
0.0455624
0.0453887
0.0451675
0.0448904
0.0445499
0.0441349
0.0436417
0.0430564
0.042374
0.0415743
0.0406697
0.0395956
0.0384581
0.0366515
0.0439368
0.0425337
0.0425961
0.0426016
0.0425655
0.042508
0.0424569
0.0424165
0.0423878
0.0423686
0.0423559
0.042346
0.0423359
0.0423251
0.0423165
0.0423116
0.0423083
0.0423033
0.0422938
0.0422741
0.0422434
0.0422145
0.0421978
0.0421928
0.0421942
0.0422024
0.0422157
0.0422279
0.0422389
0.0422492
0.0422583
0.0422666
0.0422751
0.0422846
0.0422948
0.0423052
0.0423156
0.042326
0.0423366
0.0423477
0.0423594
0.0423719
0.0423854
0.0424
0.0424158
0.0424332
0.0424525
0.042474
0.0424977
0.0425237
0.042552
0.0425824
0.0426151
0.04265
0.0426872
0.0427267
0.0427685
0.0428126
0.042859
0.0429077
0.0429586
0.0430118
0.0430674
0.0431254
0.0431856
0.0432482
0.0433132
0.0433804
0.0434499
0.0435217
0.0435959
0.0436722
0.0437506
0.0438311
0.0439137
0.0439982
0.0440846
0.0441729
0.0442629
0.0443546
0.044448
0.0445429
0.0446393
0.0447367
0.0448351
0.0449343
0.0450341
0.0451342
0.0452345
0.0453347
0.0454344
0.0455332
0.0456307
0.0457263
0.0458194
0.0459094
0.0459953
0.0460762
0.046151
0.0462185
0.0462775
0.0463248
0.0463599
0.0463801
0.0463846
0.0463652
0.0463201
0.0462439
0.0461303
0.0459741
0.0457668
0.0455006
0.0451652
0.0447556
0.0442579
0.0436611
0.0429452
0.0420908
0.0410792
0.0399189
0.0382785
0.0436946
0.0423893
0.0424779
0.0425334
0.0425321
0.0424963
0.0424453
0.0423989
0.0423624
0.0423358
0.0423187
0.0423093
0.0423038
0.0422995
0.0422967
0.0422977
0.0422995
0.0422993
0.0422939
0.0422799
0.0422548
0.0422272
0.0422093
0.0422037
0.0422053
0.0422149
0.04223
0.0422441
0.0422569
0.042269
0.0422797
0.0422893
0.042299
0.0423096
0.0423211
0.042333
0.042345
0.0423571
0.0423696
0.0423825
0.0423961
0.0424105
0.0424259
0.0424424
0.0424601
0.0424792
0.0425002
0.0425233
0.0425486
0.0425762
0.0426061
0.0426382
0.0426725
0.0427089
0.0427477
0.0427888
0.0428323
0.0428781
0.0429262
0.0429766
0.0430293
0.0430844
0.0431418
0.0432016
0.0432638
0.0433285
0.0433955
0.0434649
0.0435367
0.0436109
0.0436874
0.0437663
0.0438475
0.0439309
0.0440165
0.0441042
0.044194
0.0442859
0.0443798
0.0444755
0.0445732
0.0446727
0.044774
0.0448768
0.0449809
0.0450862
0.0451926
0.0452999
0.0454079
0.0455164
0.0456252
0.0457339
0.0458421
0.0459494
0.0460555
0.0461597
0.0462613
0.0463596
0.0464535
0.0465423
0.0466246
0.0466991
0.0467643
0.0468166
0.0468554
0.046877
0.0468808
0.046856
0.0468017
0.0467099
0.046576
0.0463907
0.0461448
0.0458295
0.0454297
0.0449372
0.0443306
0.0435814
0.0426894
0.0415855
0.0400978
0.0435209
0.0422457
0.0423401
0.042443
0.0424819
0.0424743
0.0424323
0.0423849
0.0423428
0.0423091
0.042285
0.0422716
0.0422667
0.0422659
0.0422694
0.0422763
0.0422849
0.0422897
0.0422881
0.0422803
0.0422626
0.0422394
0.0422219
0.0422156
0.0422172
0.0422278
0.0422445
0.04226
0.0422744
0.0422881
0.0423003
0.0423112
0.0423221
0.0423338
0.0423465
0.0423597
0.0423732
0.042387
0.0424011
0.0424158
0.0424312
0.0424475
0.0424648
0.0424831
0.0425026
0.0425235
0.0425461
0.0425707
0.0425977
0.0426269
0.0426583
0.042692
0.0427278
0.0427658
0.0428061
0.0428488
0.0428938
0.0429412
0.0429909
0.043043
0.0430974
0.0431541
0.0432133
0.0432749
0.0433389
0.0434054
0.0434743
0.0435457
0.0436196
0.043696
0.0437748
0.0438561
0.0439397
0.0440257
0.044114
0.0442046
0.0442975
0.0443926
0.0444898
0.0445892
0.0446906
0.0447942
0.0448998
0.0450073
0.0451164
0.0452271
0.0453392
0.0454528
0.0455675
0.0456832
0.0457998
0.0459171
0.0460346
0.0461522
0.0462695
0.046386
0.0465012
0.0466145
0.0467251
0.0468323
0.0469351
0.0470326
0.0471232
0.0472052
0.0472772
0.0473343
0.0473763
0.0473991
0.0474021
0.0473702
0.0473058
0.0471936
0.0470316
0.0468053
0.0465017
0.0461094
0.0455955
0.0449342
0.0441207
0.0430971
0.0417321
0.0434046
0.042116
0.0421907
0.0423287
0.0424157
0.0424398
0.0424194
0.042374
0.0423276
0.0422888
0.0422582
0.0422378
0.0422289
0.0422285
0.0422347
0.0422473
0.0422628
0.0422745
0.0422798
0.0422776
0.0422659
0.0422488
0.0422341
0.0422282
0.04223
0.0422417
0.0422592
0.0422759
0.0422917
0.0423067
0.0423201
0.0423322
0.0423441
0.0423569
0.0423707
0.0423853
0.0424002
0.0424154
0.0424312
0.0424476
0.0424648
0.0424828
0.0425019
0.042522
0.0425432
0.0425658
0.0425901
0.0426163
0.0426448
0.0426756
0.0427086
0.0427437
0.0427811
0.0428206
0.0428624
0.0429065
0.0429531
0.0430019
0.0430532
0.0431068
0.0431627
0.043221
0.0432818
0.043345
0.0434108
0.043479
0.0435497
0.0436229
0.0436987
0.043777
0.0438579
0.0439413
0.0440271
0.0441155
0.0442062
0.0442994
0.0443949
0.0444929
0.0445931
0.0446957
0.0448005
0.0449076
0.0450171
0.0451286
0.0452421
0.0453574
0.0454746
0.0455935
0.045714
0.0458361
0.0459595
0.0460841
0.0462097
0.046336
0.0464628
0.0465899
0.0467167
0.0468428
0.0469676
0.0470906
0.047211
0.0473281
0.0474406
0.0475476
0.0476471
0.0477372
0.0478164
0.0478787
0.0479244
0.0479473
0.0479477
0.0479013
0.0478174
0.0476724
0.0474625
0.0471712
0.0467656
0.0462221
0.045508
0.0445786
0.0433354
0.043329
0.0420025
0.0420523
0.0421988
0.042335
0.0423926
0.0423933
0.0423603
0.0423138
0.0422739
0.0422403
0.0422133
0.0421968
0.0421921
0.0421974
0.0422121
0.0422339
0.0422538
0.0422665
0.0422701
0.0422659
0.0422555
0.0422457
0.0422412
0.0422438
0.0422564
0.0422744
0.042292
0.0423088
0.0423248
0.0423393
0.0423524
0.0423652
0.042379
0.042394
0.0424098
0.042426
0.0424427
0.0424601
0.0424781
0.0424969
0.0425167
0.0425375
0.0425593
0.0425822
0.0426064
0.0426323
0.0426601
0.0426902
0.0427224
0.0427569
0.0427936
0.0428323
0.0428733
0.0429165
0.0429621
0.04301
0.0430604
0.043113
0.0431681
0.0432255
0.0432853
0.0433476
0.0434123
0.0434796
0.0435494
0.0436218
0.0436967
0.0437742
0.0438543
0.043937
0.0440223
0.0441102
0.0442006
0.0442935
0.044389
0.0444869
0.0445874
0.0446904
0.0447957
0.0449035
0.0450138
0.0451265
0.0452416
0.0453588
0.0454782
0.0455997
0.0457233
0.0458489
0.0459763
0.0461055
0.0462364
0.0463688
0.0465025
0.0466375
0.0467734
0.04691
0.0470469
0.0471838
0.04732
0.0474552
0.0475889
0.04772
0.047848
0.0479711
0.0480886
0.0481982
0.0482973
0.0483843
0.0484516
0.0485008
0.0485223
0.0485146
0.0484537
0.0483468
0.048167
0.047887
0.047473
0.0468568
0.0460265
0.0448691
0.0432783
0.0419249
0.0419445
0.042064
0.0422269
0.0423244
0.0423541
0.0423387
0.0422985
0.0422606
0.0422282
0.0422
0.0421762
0.0421637
0.0421633
0.0421752
0.0421996
0.0422271
0.04225
0.0422603
0.042262
0.0422589
0.0422554
0.0422539
0.0422583
0.0422719
0.0422899
0.0423081
0.0423257
0.0423424
0.0423577
0.0423716
0.0423854
0.0424001
0.0424162
0.0424331
0.0424507
0.0424688
0.0424876
0.0425072