/*--------------------------------*- C++ -*----------------------------------*\
| =========                 |                                                 |
| \\      /  F ield         | OpenFOAM: The Open Source CFD Toolbox           |
|  \\    /   O peration     | Version:  2412                                  |
|   \\  /    A nd           | Website:  www.openfoam.com                      |
|    \\/     M anipulation  |                                                 |
\*---------------------------------------------------------------------------*/
FoamFile
{
    version     2.0;
    format      ascii;
    arch        "LSB;label=32;scalar=64";
    class       volScalarField;
    location    "0.047";
    object      rho;
}
// * * * * * * * * * * * * * * * * * * * * * * * * * * * * * * * * * * * * * //

dimensions      [1 -3 0 0 0 0 0];

internalField   nonuniform List<scalar> 
78650
(
0.042133
0.042133
0.0421332
0.0421369
0.0421689
0.0422646
0.0423758
0.0424309
0.0424264
0.0423655
0.0422171
0.0420704
0.0419641
0.0418834
0.0418068
0.0417222
0.0416449
0.0416038
0.041597
0.0416124
0.0416481
0.0416738
0.0416813
0.041679
0.0416682
0.0416517
0.041636
0.0416214
0.0416062
0.0415905
0.0415748
0.0415595
0.0415448
0.0415304
0.0415162
0.0415017
0.0414865
0.0414707
0.0414543
0.0414375
0.0414203
0.0414026
0.0413846
0.0413663
0.041348
0.0413299
0.0413125
0.0412956
0.0412794
0.0412639
0.0412492
0.0412353
0.0412224
0.0412102
0.0411987
0.0411876
0.0411767
0.0411657
0.0411545
0.0411429
0.0411306
0.0411173
0.0411027
0.0410863
0.0410678
0.041047
0.0410232
0.0409958
0.0409643
0.0409281
0.0408866
0.0408393
0.0407851
0.0407231
0.0406522
0.0405716
0.0404806
0.0403781
0.0402629
0.0401335
0.0399883
0.0398259
0.0396445
0.0394425
0.0392176
0.0389679
0.0386912
0.0383858
0.0380526
0.0376904
0.0372967
0.0368645
0.0363947
0.0358871
0.0353421
0.0347561
0.0341289
0.0334625
0.03276
0.032019
0.0312512
0.0304788
0.0297041
0.0288788
0.0280279
0.0271981
0.026384
0.0256352
0.0249493
0.024278
0.0236291
0.0230087
0.0224188
0.0218669
0.0213644
0.0208952
0.0204828
0.0200909
0.0197287
0.0194023
0.0188401
0.042133
0.042133
0.0421331
0.0421352
0.0421578
0.0422417
0.0423602
0.0424304
0.0424343
0.0423947
0.0422601
0.0421108
0.0420006
0.0419194
0.0418459
0.0417638
0.041681
0.0416264
0.0416112
0.0416192
0.0416514
0.0416841
0.041698
0.0416993
0.0416933
0.0416792
0.0416641
0.0416505
0.0416367
0.0416223
0.0416077
0.0415936
0.0415799
0.0415669
0.041554
0.041541
0.0415276
0.0415136
0.0414991
0.0414841
0.0414688
0.0414531
0.041437
0.0414207
0.0414043
0.0413883
0.0413729
0.0413581
0.0413441
0.0413308
0.0413185
0.041307
0.0412966
0.0412871
0.0412783
0.0412702
0.0412624
0.0412548
0.0412472
0.0412393
0.041231
0.041222
0.041212
0.0412006
0.0411875
0.0411724
0.0411548
0.0411341
0.0411099
0.0410814
0.0410483
0.0410101
0.0409659
0.0409147
0.0408556
0.0407877
0.0407103
0.0406226
0.0405233
0.0404114
0.0402853
0.0401435
0.039984
0.0398052
0.0396049
0.0393816
0.0391337
0.0388602
0.0385604
0.038231
0.0378679
0.0374669
0.0370312
0.0365609
0.0360569
0.0355157
0.0349337
0.034306
0.0336271
0.0329119
0.032188
0.031424
0.030645
0.0298542
0.029036
0.0282288
0.0274063
0.0265644
0.0257946
0.0250455
0.02433
0.0236721
0.0230408
0.0224581
0.0219216
0.0214092
0.0209419
0.020486
0.0200622
0.0196641
0.0190272
0.042133
0.042133
0.0421331
0.0421342
0.0421492
0.042219
0.0423398
0.042427
0.0424414
0.0424187
0.0423023
0.0421534
0.0420385
0.0419551
0.0418837
0.0418054
0.0417206
0.0416547
0.0416295
0.0416309
0.0416555
0.0416925
0.0417146
0.0417203
0.0417181
0.0417074
0.0416931
0.0416804
0.0416678
0.0416547
0.0416414
0.0416283
0.0416158
0.0416039
0.0415925
0.041581
0.0415694
0.0415573
0.0415447
0.0415316
0.0415181
0.0415044
0.0414903
0.0414759
0.0414616
0.0414476
0.0414342
0.0414216
0.0414098
0.0413988
0.0413888
0.0413798
0.0413719
0.041365
0.0413591
0.0413539
0.0413493
0.041345
0.0413409
0.0413368
0.0413325
0.0413278
0.0413223
0.0413159
0.041308
0.0412985
0.0412869
0.0412728
0.0412556
0.0412347
0.0412098
0.0411803
0.0411456
0.0411047
0.0410569
0.041001
0.0409365
0.0408626
0.0407783
0.0406826
0.0405738
0.0404506
0.0403112
0.0401545
0.0399782
0.0397811
0.039561
0.0393163
0.0390452
0.0387447
0.0384135
0.0380502
0.0376573
0.0372308
0.0367651
0.0362541
0.0356978
0.0351053
0.0344792
0.0338168
0.033109
0.0323536
0.0315682
0.0307828
0.0299623
0.0291283
0.0283312
0.0274738
0.0266392
0.0258442
0.0250441
0.0243144
0.0236044
0.0229593
0.0223764
0.0218199
0.0213068
0.0207966
0.0203246
0.0198903
0.0191491
0.042133
0.042133
0.0421331
0.0421336
0.0421428
0.0421976
0.042315
0.0424189
0.0424474
0.0424371
0.0423443
0.0421996
0.0420786
0.0419907
0.0419202
0.0418467
0.0417636
0.04169
0.0416525
0.0416469
0.0416626
0.0416999
0.0417304
0.041742
0.0417428
0.0417363
0.0417234
0.0417112
0.0416998
0.041688
0.0416759
0.041664
0.0416526
0.041642
0.0416319
0.0416221
0.0416122
0.0416021
0.0415914
0.0415803
0.0415688
0.0415569
0.0415448
0.0415324
0.0415201
0.0415082
0.0414968
0.0414863
0.0414767
0.0414679
0.0414602
0.0414535
0.041448
0.0414437
0.0414405
0.0414382
0.0414367
0.0414356
0.0414349
0.0414344
0.0414339
0.0414333
0.0414323
0.0414305
0.0414277
0.0414236
0.0414178
0.0414099
0.0413995
0.0413859
0.0413687
0.0413476
0.041322
0.041291
0.041254
0.0412098
0.0411578
0.0410974
0.0410277
0.0409477
0.0408561
0.0407517
0.0406327
0.0404979
0.0403453
0.0401731
0.0399794
0.0397624
0.039521
0.0392527
0.038956
0.038629
0.0382714
0.0378772
0.0374434
0.0369691
0.0364576
0.0359123
0.0353242
0.0346918
0.0340063
0.0332903
0.0325266
0.0317362
0.0309383
0.0300826
0.0292495
0.0284131
0.0275421
0.026732
0.0259107
0.0251297
0.0243719
0.0236432
0.0229801
0.0223597
0.0217956
0.0212407
0.0207263
0.020251
0.0194507
0.042133
0.042133
0.042133
0.0421333
0.0421385
0.0421785
0.042287
0.0424051
0.0424501
0.0424517
0.0423851
0.0422481
0.0421196
0.0420262
0.041956
0.0418879
0.0418094
0.0417318
0.0416819
0.041668
0.0416757
0.0417079
0.0417447
0.041764
0.0417683
0.0417654
0.0417549
0.0417432
0.0417327
0.0417223
0.0417116
0.0417008
0.0416906
0.0416812
0.0416726
0.0416644
0.0416565
0.0416484
0.0416398
0.0416306
0.0416211
0.0416111
0.0416009
0.0415906
0.0415803
0.0415704
0.0415611
0.0415527
0.0415452
0.0415387
0.0415333
0.0415289
0.0415259
0.0415242
0.0415236
0.0415242
0.0415256
0.0415278
0.0415304
0.0415335
0.0415368
0.0415403
0.0415435
0.0415463
0.0415484
0.0415495
0.0415494
0.0415475
0.0415437
0.0415373
0.0415275
0.0415145
0.0414976
0.0414761
0.0414493
0.0414162
0.0413762
0.0413285
0.0412725
0.0412073
0.0411317
0.0410445
0.0409442
0.0408294
0.0406983
0.0405496
0.0403815
0.0401924
0.0399803
0.0397426
0.0394785
0.0391868
0.038866
0.0385097
0.0381156
0.0376825
0.0372119
0.0367036
0.0361504
0.0355589
0.0349264
0.0342443
0.033518
0.0327374
0.0319535
0.0311164
0.0302427
0.0294005
0.0285086
0.0276335
0.0267812
0.0259242
0.0251247
0.0243637
0.0236361
0.0229588
0.0223375
0.0217325
0.021159
0.0206215
0.0196714
0.042133
0.042133
0.042133
0.0421331
0.0421358
0.0421626
0.0422567
0.0423845
0.0424497
0.0424652
0.042422
0.0422968
0.0421616
0.0420629
0.0419926
0.0419296
0.0418575
0.0417797
0.0417193
0.041695
0.0416954
0.0417178
0.0417567
0.0417849
0.0417943
0.0417943
0.0417871
0.0417763
0.0417665
0.0417574
0.0417482
0.0417388
0.0417299
0.0417218
0.0417146
0.0417083
0.0417023
0.0416963
0.0416898
0.0416827
0.0416751
0.0416671
0.0416589
0.0416506
0.0416423
0.0416344
0.0416271
0.0416208
0.0416155
0.0416112
0.041608
0.041606
0.0416053
0.0416061
0.0416082
0.0416115
0.0416158
0.0416211
0.041627
0.0416335
0.0416405
0.0416479
0.0416553
0.0416626
0.0416694
0.0416755
0.0416807
0.0416848
0.0416871
0.0416874
0.041685
0.0416799
0.0416714
0.0416588
0.0416418
0.0416194
0.0415909
0.0415556
0.0415129
0.0414621
0.0414022
0.041332
0.0412501
0.0411553
0.0410459
0.0409207
0.0407778
0.0406152
0.040431
0.0402236
0.0399922
0.0397338
0.0394452
0.0391216
0.0387643
0.0383735
0.037949
0.037486
0.0369759
0.0364228
0.0358191
0.0351746
0.0344941
0.0337571
0.0329693
0.0321657
0.0313148
0.0304545
0.0295733
0.0286585
0.027785
0.0268782
0.0259766
0.0251429
0.0243236
0.0235588
0.022858
0.0221855
0.0215897
0.0210536
0.0200748
0.042133
0.042133
0.042133
0.0421331
0.0421343
0.0421506
0.0422262
0.0423575
0.0424459
0.0424769
0.0424514
0.0423432
0.0422055
0.0421024
0.0420309
0.0419719
0.0419066
0.041832
0.0417651
0.041728
0.0417205
0.0417325
0.0417677
0.0418034
0.0418202
0.0418231
0.0418194
0.0418103
0.0418012
0.0417933
0.0417857
0.041778
0.0417704
0.0417637
0.0417581
0.0417537
0.0417498
0.041746
0.0417417
0.0417367
0.041731
0.0417249
0.0417187
0.0417123
0.0417061
0.0417002
0.041695
0.0416907
0.0416876
0.0416855
0.0416846
0.0416849
0.0416867
0.0416898
0.0416945
0.0417005
0.0417078
0.0417161
0.0417253
0.0417352
0.0417458
0.041757
0.0417685
0.0417801
0.0417916
0.0418026
0.0418132
0.0418229
0.0418312
0.0418379
0.0418425
0.0418447
0.0418444
0.0418405
0.041833
0.0418207
0.0418032
0.0417796
0.0417494
0.041712
0.0416666
0.0416121
0.0415472
0.0414708
0.0413812
0.0412774
0.0411575
0.0410201
0.0408634
0.0406856
0.0404847
0.0402582
0.0400044
0.0397211
0.0394087
0.039063
0.0386787
0.0382497
0.0377749
0.0372624
0.0367054
0.0361098
0.0354637
0.0347748
0.0340237
0.0332352
0.0324012
0.031526
0.0306542
0.0297352
0.0288338
0.0279439
0.0270403
0.0261364
0.0252708
0.0244356
0.0236491
0.022888
0.0221566
0.0214982
0.0203127
0.042133
0.042133
0.042133
0.0421331
0.0421335
0.0421424
0.042198
0.0423241
0.0424366
0.0424836
0.0424706
0.0423888
0.0422542
0.0421457
0.0420713
0.0420147
0.041956
0.0418871
0.0418179
0.0417687
0.0417512
0.041754
0.0417789
0.0418179
0.041844
0.0418518
0.041851
0.0418446
0.0418367
0.04183
0.041824
0.0418182
0.0418123
0.0418071
0.0418032
0.0418006
0.0417989
0.0417974
0.0417953
0.0417924
0.0417887
0.0417845
0.0417802
0.0417758
0.0417715
0.0417677
0.0417645
0.0417623
0.0417613
0.0417614
0.0417628
0.0417654
0.0417694
0.0417749
0.0417821
0.0417908
0.0418009
0.0418121
0.0418244
0.0418377
0.0418518
0.0418666
0.0418821
0.0418979
0.0419138
0.0419296
0.0419452
0.0419602
0.0419745
0.0419875
0.0419989
0.0420081
0.0420151
0.0420196
0.0420211
0.0420186
0.0420117
0.0419996
0.0419814
0.0419571
0.0419257
0.0418866
0.0418383
0.04178
0.0417101
0.0416274
0.0415304
0.0414177
0.0412873
0.0411374
0.0409664
0.040772
0.0405525
0.0403049
0.0400285
0.0397186
0.0393725
0.0389871
0.0385624
0.0380996
0.0375906
0.0370402
0.0364346
0.0357839
0.0350891
0.0343312
0.0335331
0.0326635
0.0317879
0.0308499
0.0298957
0.0289495
0.0280096
0.0270711
0.0261308
0.0252494
0.0243819
0.0235819
0.0228479
0.0221691
0.0209196
0.042133
0.042133
0.042133
0.042133
0.0421332
0.0421374
0.0421743
0.0422861
0.0424181
0.0424848
0.042484
0.0424318
0.0423062
0.0421915
0.0421133
0.042058
0.0420053
0.041943
0.041875
0.0418172
0.0417867
0.0417807
0.0417935
0.0418293
0.0418641
0.0418796
0.041882
0.041879
0.0418729
0.0418675
0.0418634
0.0418596
0.0418556
0.041852
0.0418497
0.0418491
0.0418497
0.0418505
0.0418506
0.0418498
0.0418481
0.0418458
0.0418433
0.0418408
0.0418385
0.0418367
0.0418355
0.0418354
0.0418365
0.0418388
0.0418423
0.0418471
0.0418535
0.0418614
0.0418711
0.0418824
0.0418952
0.0419094
0.0419248
0.0419413
0.0419589
0.0419773
0.0419966
0.0420165
0.0420368
0.0420572
0.0420777
0.042098
0.0421179
0.0421369
0.0421547
0.0421709
0.0421854
0.0421977
0.0422074
0.0422139
0.0422168
0.0422157
0.0422092
0.0421974
0.0421789
0.0421539
0.0421209
0.0420792
0.0420272
0.0419639
0.0418879
0.0417979
0.0416924
0.0415695
0.0414275
0.041264
0.0410775
0.0408661
0.0406284
0.0403588
0.0400546
0.0397131
0.039335
0.0389184
0.0384556
0.0379485
0.0373872
0.0367833
0.0361238
0.0354171
0.0346687
0.033853
0.0329877
0.0320828
0.0311203
0.0301679
0.0291606
0.0281775
0.0272059
0.026244
0.0252992
0.0243592
0.0234844
0.0227221
0.0212841
0.042133
0.042133
0.042133
0.042133
0.0421331
0.0421349
0.0421566
0.042247
0.0423883
0.042481
0.0424949
0.0424683
0.0423583
0.0422393
0.0421579
0.0421028
0.0420545
0.0419979
0.0419328
0.0418705
0.0418276
0.0418119
0.0418146
0.0418401
0.0418795
0.0419054
0.0419136
0.0419135
0.0419101
0.0419063
0.0419038
0.0419021
0.0419003
0.0418986
0.041898
0.0418993
0.0419021
0.0419052
0.0419075
0.0419087
0.0419089
0.0419085
0.0419078
0.0419071
0.0419068
0.0419069
0.0419077
0.0419096
0.0419127
0.0419171
0.0419228
0.0419299
0.0419385
0.0419488
0.0419608
0.0419746
0.0419901
0.0420071
0.0420255
0.0420452
0.042066
0.0420879
0.0421109
0.0421347
0.0421591
0.042184
0.0422092
0.0422345
0.0422597
0.0422845
0.0423085
0.0423313
0.0423527
0.0423726
0.0423905
0.0424059
0.042418
0.0424265
0.042431
0.0424315
0.0424259
0.0424148
0.0423966
0.042371
0.0423365
0.0422922
0.0422366
0.0421688
0.0420871
0.0419899
0.0418752
0.0417413
0.0415867
0.0414088
0.0412052
0.0409719
0.0407084
0.0404131
0.0400839
0.0397149
0.0392997
0.0388392
0.0383271
0.0377721
0.0371591
0.0364977
0.0357799
0.0350149
0.0341741
0.0333076
0.0323593
0.0313834
0.0304064
0.0293617
0.028342
0.027356
0.0263626
0.025426
0.0244831
0.0236078
0.0220343
0.042133
0.042133
0.042133
0.042133
0.0421331
0.0421337
0.0421449
0.0422109
0.0423498
0.0424689
0.0425038
0.0424941
0.0424082
0.0422903
0.042205
0.0421477
0.0421015
0.0420494
0.0419883
0.0419256
0.0418747
0.0418477
0.0418422
0.0418551
0.0418923
0.0419282
0.0419454
0.0419491
0.0419483
0.0419463
0.0419455
0.041946
0.0419466
0.041947
0.0419482
0.0419513
0.0419561
0.0419614
0.0419659
0.0419691
0.0419711
0.0419723
0.0419733
0.0419745
0.041976
0.0419781
0.0419809
0.0419847
0.0419898
0.0419963
0.0420041
0.0420134
0.0420242
0.0420368
0.0420512
0.0420674
0.0420855
0.0421053
0.0421266
0.0421493
0.0421734
0.0421987
0.0422252
0.0422528
0.0422814
0.0423106
0.0423403
0.0423704
0.0424007
0.042431
0.042461
0.0424901
0.0425183
0.0425453
0.0425708
0.0425944
0.0426157
0.042634
0.0426486
0.0426593
0.0426657
0.0426675
0.0426632
0.0426526
0.0426342
0.0426072
0.0425704
0.0425227
0.0424632
0.0423901
0.0423019
0.0421965
0.0420724
0.0419271
0.0417589
0.0415649
0.0413439
0.041092
0.0408054
0.0404791
0.0401104
0.0397002
0.0392431
0.0387422
0.0381833
0.0375754
0.0369028
0.036179
0.0354073
0.0345565
0.0336688
0.0326742
0.0316794
0.0306433
0.02953
0.0284625
0.0273678
0.0263004
0.0253167
0.0244358
0.0226577
0.042133
0.042133
0.042133
0.042133
0.042133
0.0421332
0.0421383
0.0421812
0.0423057
0.0424471
0.0425063
0.0425114
0.0424557
0.0423443
0.0422521
0.0421904
0.0421452
0.0420976
0.0420416
0.0419815
0.0419272
0.0418902
0.0418764
0.0418793
0.0419063
0.0419474
0.0419758
0.0419864
0.0419883
0.0419883
0.0419889
0.0419912
0.0419942
0.0419969
0.0420001
0.042005
0.0420117
0.0420189
0.0420254
0.0420305
0.0420342
0.042037
0.0420396
0.0420424
0.0420458
0.0420497
0.0420544
0.0420601
0.0420672
0.0420757
0.0420856
0.042097
0.0421101
0.0421248
0.0421415
0.0421601
0.0421807
0.0422031
0.0422272
0.0422529
0.04228
0.0423086
0.0423385
0.0423697
0.0424021
0.0424354
0.0424694
0.0425041
0.0425393
0.0425748
0.0426103
0.0426455
0.04268
0.0427138
0.0427466
0.0427781
0.0428078
0.0428351
0.0428596
0.0428811
0.0428987
0.0429121
0.0429209
0.0429245
0.042922
0.042912
0.0428936
0.0428654
0.0428269
0.0427765
0.0427129
0.042634
0.0425385
0.042424
0.042289
0.0421306
0.0419474
0.0417352
0.0414912
0.0412116
0.0408948
0.0405394
0.040139
0.0396917
0.0391867
0.0386324
0.0380147
0.0373418
0.0366047
0.0358121
0.0349637
0.0340393
0.0330199
0.0320212
0.0309475
0.0297844
0.0287196
0.0276
0.0264621
0.0254333
0.0234763
0.042133
0.042133
0.042133
0.042133
0.042133
0.0421331
0.0421351
0.0421596
0.0422606
0.0424143
0.0425012
0.0425262
0.0424966
0.0423964
0.0422966
0.0422309
0.0421871
0.0421444
0.0420935
0.0420372
0.041983
0.0419397
0.0419168
0.0419123
0.0419262
0.0419653
0.0420039
0.0420242
0.0420306
0.0420324
0.0420342
0.0420379
0.0420431
0.0420482
0.0420537
0.0420604
0.0420687
0.0420777
0.0420859
0.0420926
0.0420978
0.0421021
0.0421062
0.0421106
0.0421157
0.0421214
0.042128
0.0421356
0.0421446
0.042155
0.042167
0.0421805
0.0421956
0.0422125
0.0422314
0.0422524
0.0422754
0.0423004
0.0423272
0.0423557
0.0423858
0.0424175
0.0424508
0.0424855
0.0425216
0.0425588
0.042597
0.0426361
0.042676
0.0427165
0.0427574
0.0427983
0.0428389
0.0428791
0.0429187
0.0429576
0.0429951
0.043031
0.0430648
0.0430959
0.0431241
0.043149
0.0431699
0.0431861
0.043197
0.0432022
0.0432012
0.043191
0.0431723
0.0431427
0.0431022
0.0430486
0.0429805
0.0428957
0.0427928
0.0426691
0.0425229
0.0423502
0.0421487
0.0419154
0.0416484
0.0413439
0.0409955
0.0406008
0.0401527
0.0396549
0.0390945
0.0384807
0.0377958
0.0370502
0.0362384
0.0353647
0.0344131
0.0333541
0.0323232
0.0311607
0.0299599
0.0288458
0.0276978
0.0266385
0.0245956
0.042133
0.042133
0.042133
0.042133
0.042133
0.0421331
0.0421337
0.042146
0.0422194
0.042372
0.0424909
0.0425379
0.0425233
0.0424431
0.0423411
0.0422721
0.0422291
0.0421906
0.0421443
0.0420918
0.0420399
0.0419946
0.0419642
0.041953
0.0419571
0.041986
0.0420296
0.0420609
0.0420741
0.0420786
0.0420815
0.0420861
0.042093
0.0421005
0.0421082
0.0421168
0.0421267
0.0421372
0.0421468
0.042155
0.0421615
0.0421672
0.0421727
0.0421786
0.0421852
0.0421927
0.0422011
0.0422106
0.0422214
0.0422337
0.0422477
0.0422632
0.0422804
0.0422994
0.0423204
0.0423436
0.0423689
0.0423964
0.0424258
0.042457
0.04249
0.0425247
0.0425611
0.0425991
0.0426386
0.0426796
0.0427218
0.042765
0.0428092
0.0428544
0.0429003
0.0429465
0.0429929
0.0430391
0.0430852
0.0431309
0.0431759
0.0432198
0.0432622
0.0433026
0.0433407
0.0433762
0.0434085
0.0434374
0.043462
0.0434813
0.0434949
0.0435019
0.0435026
0.043493
0.0434745
0.043444
0.0434011
0.0433435
0.0432701
0.0431784
0.0430668
0.0429316
0.0427715
0.042583
0.0423634
0.0421076
0.0418108
0.0414711
0.0410827
0.040646
0.0401498
0.039599
0.038977
0.0382921
0.0375336
0.0367074
0.0358173
0.0348389
0.0337565
0.0326649
0.0314073
0.0301894
0.0289215
0.0277528
0.0254613
0.042133
0.042133
0.042133
0.042133
0.042133
0.042133
0.0421332
0.0421386
0.0421862
0.0423241
0.0424724
0.0425413
0.0425395
0.0424862
0.0423867
0.042314
0.0422702
0.042235
0.0421933
0.0421449
0.0420966
0.0420527
0.042018
0.042
0.0419973
0.0420126
0.0420536
0.0420944
0.0421168
0.0421253
0.0421295
0.0421347
0.0421429
0.0421527
0.0421628
0.0421734
0.0421848
0.0421965
0.0422075
0.0422168
0.0422247
0.0422316
0.0422384
0.0422457
0.0422539
0.0422631
0.0422733
0.0422846
0.0422972
0.0423114
0.0423272
0.0423447
0.042364
0.042385
0.0424081
0.0424334
0.042461
0.0424908
0.0425227
0.0425565
0.0425923
0.0426299
0.0426693
0.0427105
0.0427534
0.0427979
0.0428438
0.0428911
0.0429395
0.0429891
0.0430397
0.043091
0.0431428
0.0431947
0.0432469
0.043299
0.043351
0.0434023
0.0434527
0.0435017
0.043549
0.0435943
0.0436372
0.0436773
0.043714
0.0437468
0.043775
0.0437971
0.0438131
0.0438222
0.0438242
0.0438155
0.0437967
0.043765
0.0437196
0.0436582
0.0435795
0.0434802
0.043359
0.043212
0.0430363
0.0428274
0.0425822
0.0422982
0.0419697
0.0415946
0.0411628
0.0406757
0.0401195
0.0395011
0.0388058
0.0380435
0.0371987
0.0362767
0.0352683
0.0341975
0.0330005
0.0317662
0.0304757
0.0292922
0.0270581
0.042133
0.042133
0.042133
0.042133
0.042133
0.042133
0.0421331
0.0421352
0.0421627
0.0422762
0.0424415
0.0425386
0.0425514
0.042523
0.0424314
0.0423543
0.0423092
0.0422773
0.042241
0.0421973
0.0421526
0.0421114
0.0420757
0.0420513
0.0420425
0.0420475
0.0420781
0.0421235
0.0421559
0.0421705
0.0421772
0.0421832
0.0421923
0.0422041
0.0422167
0.0422293
0.0422422
0.0422551
0.0422671
0.0422776
0.0422867
0.0422948
0.0423029
0.0423116
0.0423213
0.0423322
0.0423441
0.0423572
0.0423715
0.0423875
0.0424052
0.0424246
0.0424458
0.0424688
0.0424939
0.0425212
0.042551
0.042583
0.0426173
0.0426537
0.042692
0.0427323
0.0427746
0.0428188
0.0428648
0.0429127
0.0429622
0.0430131
0.0430655
0.0431192
0.0431741
0.0432302
0.043287
0.0433443
0.043402
0.0434602
0.0435185
0.0435768
0.0436345
0.0436915
0.0437474
0.0438019
0.0438546
0.0439053
0.0439534
0.0439986
0.04404
0.0440771
0.0441091
0.0441348
0.0441539
0.0441654
0.0441689
0.0441611
0.0441417
0.0441084
0.0440599
0.0439939
0.0439088
0.0438009
0.0436677
0.0435053
0.0433113
0.0430817
0.042811
0.0424952
0.0421259
0.0417035
0.041216
0.040666
0.0400365
0.0393376
0.0385538
0.0376902
0.0367354
0.0356697
0.0345479
0.0332652
0.0319159
0.0306184
0.0281648
0.042133
0.042133
0.042133
0.042133
0.042133
0.042133
0.0421331
0.0421338
0.0421482
0.0422335
0.0424013
0.0425284
0.0425624
0.0425502
0.0424714
0.0423922
0.0423466
0.0423184
0.0422878
0.0422484
0.0422062
0.0421671
0.0421322
0.0421039
0.0420893
0.0420877
0.042105
0.0421484
0.04219
0.0422128
0.042223
0.0422304
0.0422401
0.0422535
0.0422684
0.0422831
0.0422976
0.0423116
0.0423247
0.0423363
0.0423466
0.042356
0.0423655
0.0423755
0.0423868
0.0423993
0.0424129
0.0424277
0.0424439
0.0424616
0.0424811
0.0425024
0.0425255
0.0425505
0.0425775
0.0426068
0.0426386
0.0426728
0.0427094
0.0427482
0.042789
0.042832
0.0428769
0.042924
0.042973
0.043024
0.0430769
0.0431314
0.0431875
0.043245
0.0433041
0.0433646
0.0434261
0.0434884
0.0435515
0.0436152
0.0436795
0.0437441
0.0438088
0.0438731
0.0439368
0.0439997
0.0440614
0.0441217
0.0441802
0.0442366
0.0442901
0.0443403
0.0443863
0.0444276
0.0444637
0.0444931
0.0445153
0.0445292
0.0445341
0.0445273
0.0445074
0.0444726
0.0444207
0.0443492
0.0442559
0.0441374
0.0439912
0.0438123
0.0435956
0.0433374
0.0430309
0.0426746
0.0422573
0.0417795
0.0412255
0.0406005
0.0398874
0.0390945
0.0382071
0.0372199
0.0361283
0.0349761
0.0336524
0.0324069
0.0300703
0.042133
0.042133
0.042133
0.042133
0.042133
0.042133
0.042133
0.0421333
0.0421402
0.0421994
0.0423572
0.0425117
0.0425693
0.0425666
0.0425071
0.0424295
0.0423833
0.0423578
0.0423318
0.0422962
0.0422556
0.0422181
0.042185
0.0421561
0.0421368
0.0421304
0.0421376
0.0421725
0.0422197
0.0422513
0.0422665
0.0422759
0.0422865
0.042301
0.0423178
0.0423344
0.0423502
0.0423653
0.0423794
0.0423923
0.0424039
0.0424147
0.0424256
0.0424371
0.0424499
0.042464
0.0424794
0.042496
0.0425139
0.0425334
0.0425547
0.0425778
0.0426027
0.0426296
0.0426585
0.0426897
0.0427235
0.0427598
0.0427985
0.0428396
0.0428828
0.0429282
0.0429758
0.0430255
0.0430774
0.0431313
0.0431872
0.0432451
0.0433046
0.0433658
0.0434287
0.0434932
0.043559
0.043626
0.0436939
0.0437627
0.0438325
0.0439029
0.0439738
0.0440448
0.0441158
0.0441864
0.0442564
0.0443255
0.0443936
0.0444602
0.0445249
0.0445871
0.0446462
0.0447017
0.0447529
0.0447993
0.0448399
0.0448734
0.0448988
0.044915
0.0449214
0.0449155
0.0448948
0.0448576
0.0448014
0.0447238
0.0446217
0.0444905
0.0443261
0.0441247
0.0438805
0.0435899
0.0432425
0.0428372
0.0423599
0.0418119
0.0411768
0.0404595
0.0396402
0.0387196
0.0376865
0.036527
0.035224
0.0339112
0.0316118
0.042133
0.042133
0.042133
0.042133
0.042133
0.042133
0.042133
0.0421331
0.0421362
0.0421746
0.042314
0.042489
0.0425696
0.0425787
0.042539
0.0424659
0.0424176
0.0423933
0.0423712
0.0423396
0.0423012
0.0422651
0.0422345
0.042207
0.0421852
0.0421753
0.0421762
0.0421991
0.0422464
0.0422863
0.0423079
0.04232
0.0423315
0.0423467
0.0423647
0.0423827
0.0423997
0.0424158
0.042431
0.0424451
0.0424581
0.0424704
0.0424828
0.0424959
0.0425102
0.042526
0.0425432
0.0425615
0.0425812
0.0426024
0.0426254
0.0426503
0.0426771
0.0427058
0.0427366
0.0427697
0.0428053
0.0428436
0.0428844
0.0429277
0.0429732
0.0430209
0.0430709
0.0431232
0.0431778
0.0432345
0.0432933
0.0433542
0.043417
0.0434816
0.0435481
0.0436163
0.0436862
0.0437574
0.0438299
0.0439035
0.0439782
0.0440541
0.0441307
0.0442079
0.0442854
0.0443631
0.0444406
0.0445178
0.0445944
0.0446703
0.0447449
0.044818
0.0448888
0.044957
0.0450219
0.0450831
0.0451399
0.0451913
0.0452365
0.0452741
0.0453028
0.0453216
0.0453296
0.0453245
0.0453024
0.0452623
0.0452005
0.0451139
0.0449993
0.0448526
0.0446682
0.0444413
0.044163
0.0438305
0.0434304
0.0429621
0.04241
0.0417768
0.0410427
0.0402056
0.0392429
0.0381611
0.0369581
0.0356612
0.0334772
0.042133
0.042133
0.042133
0.042133
0.042133
0.042133
0.042133
0.0421331
0.0421344
0.0421583
0.0422754
0.0424618
0.0425649
0.0425903
0.0425669
0.0424981
0.0424475
0.0424244
0.0424066
0.0423799
0.0423444
0.0423098
0.0422814
0.0422564
0.0422345
0.0422215
0.0422185
0.0422309
0.0422731
0.0423193
0.0423476
0.0423632
0.0423759
0.0423913
0.0424098
0.0424287
0.0424464
0.0424633
0.0424795
0.0424949
0.0425093
0.0425232
0.0425371
0.0425517
0.0425676
0.0425851
0.042604
0.0426241
0.0426455
0.0426685
0.0426932
0.0427199
0.0427484
0.0427789
0.0428115
0.0428464
0.0428839
0.042924
0.0429669
0.0430122
0.0430599
0.0431099
0.0431622
0.0432169
0.0432739
0.0433332
0.0433948
0.0434586
0.0435244
0.0435921
0.0436618
0.0437335
0.0438071
0.0438822
0.0439588
0.0440367
0.044116
0.0441967
0.0442785
0.0443613
0.0444447
0.0445287
0.044613
0.0446975
0.0447819
0.044866
0.0449497
0.0450325
0.0451139
0.0451935
0.0452709
0.0453455
0.0454169
0.0454844
0.045547
0.0456038
0.0456539
0.0456959
0.0457282
0.0457497
0.0457591
0.0457546
0.0457304
0.0456864
0.0456179
0.0455221
0.0453931
0.0452261
0.0450133
0.0447506
0.0444256
0.0440357
0.0435642
0.0430109
0.0423587
0.0416042
0.0407177
0.0397184
0.0385381
0.0373045
0.035324
0.042133
0.042133
0.042133
0.042133
0.042133
0.042133
0.042133
0.042133
0.0421337
0.0421484
0.0422437
0.0424327
0.0425583
0.0426017
0.0425877
0.0425239
0.042474
0.0424529
0.0424394
0.0424179
0.0423858
0.0423526
0.042326
0.0423034
0.0422828
0.0422682
0.0422626
0.0422685
0.0423021
0.0423514
0.0423864
0.042406
0.0424202
0.0424356
0.042454
0.0424731
0.0424913
0.0425087
0.0425258
0.0425422
0.0425579
0.0425732
0.0425885
0.0426046
0.042622
0.0426411
0.0426616
0.0426835
0.0427067
0.0427313
0.0427578
0.0427861
0.0428165
0.0428487
0.0428831
0.0429197
0.042959
0.043001
0.0430458
0.0430931
0.0431429
0.043195
0.0432495
0.0433064
0.0433658
0.0434276
0.0434917
0.0435581
0.0436267
0.0436974
0.0437701
0.043845
0.0439219
0.0440006
0.0440809
0.0441629
0.0442464
0.0443315
0.044418
0.0445058
0.0445947
0.0446844
0.0447748
0.0448658
0.0449572
0.0450489
0.0451405
0.045232
0.0453228
0.0454126
0.0455009
0.0455874
0.0456717
0.0457533
0.0458313
0.0459051
0.0459737
0.0460362
0.0460916
0.0461382
0.046174
0.0461981
0.0462089
0.0462042
0.0461774
0.0461282
0.0460495
0.0459388
0.045789
0.0455952
0.0453459
0.0450374
0.0446534
0.0441924
0.0436346
0.0429676
0.0421685
0.041231
0.040114
0.0388813
0.0370542
0.042133
0.042133
0.042133
0.042133
0.042133
0.042133
0.042133
0.042133
0.0421333
0.0421426
0.0422196
0.0424051
0.0425526
0.0426098
0.0426014
0.0425463
0.0424984
0.0424798
0.0424703
0.0424537
0.042425
0.042393
0.0423677
0.0423472
0.0423288
0.0423143
0.0423077
0.04231
0.042335
0.0423841
0.042425
0.0424491
0.042465
0.0424804
0.0424982
0.042517
0.0425352
0.0425529
0.0425705
0.0425878
0.0426045
0.0426208
0.0426373
0.0426547
0.0426735
0.042694
0.0427162
0.0427397
0.0427646
0.042791
0.0428191
0.0428492
0.0428812
0.0429152
0.0429513
0.0429897
0.0430307
0.0430745
0.0431211
0.0431703
0.0432221
0.0432762
0.0433328
0.0433918
0.0434534
0.0435175
0.0435839
0.0436528
0.043724
0.0437974
0.0438729
0.0439507
0.0440306
0.0441126
0.0441964
0.0442819
0.0443692
0.0444582
0.044549
0.0446413
0.0447349
0.0448298
0.0449257
0.0450225
0.0451201
0.0452183
0.0453171
0.0454162
0.0455153
0.0456141
0.0457121
0.0458092
0.0459049
0.0459989
0.0460906
0.0461794
0.0462644
0.046345
0.0464202
0.0464889
0.0465498
0.0466014
0.0466412
0.0466681
0.0466802
0.0466748
0.0466434
0.0465869
0.0464969
0.0463701
0.0461957
0.045969
0.0456732
0.0453048
0.0448429
0.0442795
0.0435902
0.042744
0.0417379
0.040537
0.0388649
0.042133
0.042133
0.042133
0.042133
0.042133
0.042133
0.042133
0.042133
0.0421332
0.0421394
0.0422028
0.0423821
0.0425477
0.0426154
0.0426115
0.0425653
0.0425208
0.0425051
0.0424992
0.0424871
0.0424616
0.0424305
0.0424063
0.0423879
0.0423721
0.0423591
0.0423528
0.0423535
0.0423721
0.0424189
0.0424642
0.0424926
0.0425103
0.0425256
0.0425426
0.0425608
0.0425787
0.0425965
0.0426144
0.0426321
0.0426495
0.0426665
0.0426839
0.0427023
0.0427223
0.0427441
0.0427678
0.0427929
0.0428194
0.0428474
0.0428772
0.0429089
0.0429426
0.0429783
0.0430161
0.0430561
0.0430988
0.0431443
0.0431927
0.0432438
0.0432974
0.0433535
0.043412
0.043473
0.0435367
0.0436029
0.0436716
0.0437427
0.0438163
0.0438922
0.0439703
0.0440507
0.0441334
0.0442183
0.0443052
0.044394
0.0444847
0.0445773
0.0446719
0.0447682
0.0448662
0.0449655
0.0450663
0.0451683
0.0452714
0.0453756
0.0454807
0.0455866
0.045693
0.0457996
0.0459062
0.0460125
0.0461182
0.046223
0.0463266
0.0464283
0.0465276
0.0466239
0.0467165
0.0468043
0.0468865
0.0469617
0.0470287
0.0470854
0.0471291
0.0471589
0.0471718
0.0471648
0.0471285
0.0470623
0.0469545
0.0468015
0.0465877
0.0463087
0.0459403
0.0454752
0.0448732
0.0441045
0.0431697
0.0420055
0.0404528
0.042133
0.042133
0.042133
0.042133
0.042133
0.042133
0.042133
0.042133
0.0421332
0.0421378
0.0421922
0.0423653
0.0425433
0.0426199
0.0426196
0.0425814
0.0425412
0.0425289
0.042526
0.0425178
0.042495
0.0424648
0.0424421
0.0424257
0.0424128
0.0424023
0.0423972
0.0423976
0.0424124
0.0424558
0.0425036
0.0425358
0.0425551
0.0425704
0.0425867
0.0426042
0.0426219
0.0426395
0.0426575
0.0426754
0.042693
0.0427104
0.0427284
0.0427475
0.0427685
0.0427915
0.0428165
0.0428431
0.0428711
0.0429007
0.042932
0.0429653
0.0430007
0.043038
0.0430774
0.0431191
0.0431635
0.0432107
0.0432608
0.0433136
0.043369
0.0434269
0.0434873
0.0435503
0.0436158
0.0436841
0.0437548
0.0438281
0.0439039
0.043982
0.0440625
0.0441453
0.0442306
0.0443182
0.0444079
0.0444996
0.0445934
0.0446893
0.0447873
0.0448872
0.0449889
0.0450924
0.0451974
0.045304
0.045412
0.0455214
0.045632
0.0457438
0.0458565
0.0459701
0.0460841
0.0461983
0.0463127
0.046427
0.0465408
0.0466538
0.0467654
0.0468753
0.0469829
0.0470873
0.047188
0.0472836
0.0473735
0.0474559
0.0475297
0.0475925
0.0476409
0.0476735
0.047687
0.0476768
0.0476316
0.0475508
0.0474196
0.0472335
0.0469703
0.0466255
0.0461485
0.0455094
0.0446732
0.043578
0.0421089
0.042133
0.042133
0.042133
0.042133
0.042133
0.042133
0.042133
0.042133
0.0421331
0.0421372
0.0421869
0.0423558
0.0425417
0.0426242
0.0426269
0.0425949
0.0425598
0.0425512
0.042551
0.042546
0.0425256
0.0424968
0.0424757
0.0424614
0.0424512
0.0424434
0.0424399
0.0424408
0.0424538
0.0424939
0.0425424
0.0425775
0.0425982
0.0426137
0.0426294
0.0426465
0.0426639
0.0426815
0.0426994
0.0427173
0.0427348
0.0427524
0.0427707
0.0427904
0.0428122
0.0428363
0.0428625
0.0428905