/*--------------------------------*- C++ -*----------------------------------*\
| =========                 |                                                 |
| \\      /  F ield         | OpenFOAM: The Open Source CFD Toolbox           |
|  \\    /   O peration     | Version:  2412                                  |
|   \\  /    A nd           | Website:  www.openfoam.com                      |
|    \\/     M anipulation  |                                                 |
\*---------------------------------------------------------------------------*/
FoamFile
{
    version     2.0;
    format      ascii;
    arch        "LSB;label=32;scalar=64";
    class       volScalarField;
    location    "0.047";
    object      T;
}
// * * * * * * * * * * * * * * * * * * * * * * * * * * * * * * * * * * * * * //

dimensions      [0 0 0 1 0 0 0];

internalField   nonuniform List<scalar> 
78650
(
223
223
223
223.009
223.08
223.292
223.538
223.66
223.65
223.516
223.187
222.862
222.625
222.446
222.275
222.086
221.913
221.822
221.807
221.841
221.921
221.978
221.995
221.99
221.966
221.929
221.894
221.861
221.827
221.792
221.757
221.723
221.69
221.658
221.626
221.593
221.559
221.524
221.487
221.449
221.411
221.371
221.331
221.29
221.249
221.209
221.17
221.132
221.095
221.06
221.027
220.996
220.967
220.939
220.913
220.888
220.864
220.84
220.815
220.789
220.761
220.731
220.698
220.661
220.62
220.573
220.519
220.456
220.385
220.303
220.21
220.103
219.98
219.84
219.679
219.497
219.291
219.059
218.796
218.501
218.168
217.795
217.377
216.91
216.388
215.808
215.165
214.454
213.672
212.815
211.878
210.849
209.721
208.483
207.141
205.693
204.133
202.465
200.637
198.716
196.686
194.567
192.419
190.257
188.007
185.774
183.498
181.206
179.071
177.025
175.008
173.046
171.106
169.337
167.812
166.429
165.276
164.364
163.907
163.85
162.351
223
223
223
223.005
223.055
223.241
223.504
223.659
223.668
223.58
223.282
222.951
222.706
222.526
222.362
222.179
221.994
221.872
221.838
221.856
221.928
222.001
222.032
222.035
222.022
221.99
221.957
221.926
221.896
221.863
221.831
221.799
221.768
221.739
221.71
221.681
221.651
221.62
221.587
221.554
221.52
221.484
221.449
221.412
221.376
221.34
221.305
221.272
221.24
221.211
221.183
221.157
221.133
221.112
221.092
221.074
221.057
221.04
221.023
221.005
220.987
220.966
220.944
220.918
220.889
220.855
220.815
220.768
220.713
220.649
220.575
220.489
220.389
220.273
220.139
219.986
219.812
219.614
219.389
219.134
218.846
218.522
218.155
217.744
217.283
216.77
216.199
215.566
214.867
214.092
213.235
212.286
211.248
210.116
208.894
207.574
206.142
204.581
202.867
201.077
199.197
197.165
195.001
192.814
190.548
188.254
186.034
183.666
181.377
179.197
177.02
174.967
172.945
170.996
169.235
167.635
166.323
165.259
164.631
164.405
162.827
223
223
223
223.002
223.036
223.191
223.458
223.651
223.683
223.633
223.376
223.046
222.791
222.605
222.446
222.272
222.083
221.935
221.879
221.882
221.937
222.02
222.069
222.082
222.077
222.053
222.021
221.993
221.965
221.936
221.906
221.877
221.848
221.822
221.796
221.771
221.745
221.718
221.689
221.66
221.63
221.599
221.568
221.536
221.504
221.473
221.443
221.414
221.388
221.363
221.341
221.32
221.302
221.287
221.274
221.262
221.252
221.242
221.233
221.224
221.215
221.204
221.192
221.177
221.16
221.138
221.112
221.08
221.041
220.994
220.938
220.872
220.794
220.702
220.593
220.468
220.323
220.157
219.967
219.75
219.502
219.222
218.904
218.545
218.141
217.689
217.183
216.618
215.989
215.291
214.52
213.668
212.735
211.711
210.589
209.358
208.018
206.581
205.04
203.352
201.544
199.673
197.69
195.613
193.478
191.157
188.884
186.56
184.12
181.815
179.502
177.261
175.104
173.025
171.086
169.298
167.804
166.594
165.705
165.126
162.926
223
223
223
223.001
223.022
223.143
223.404
223.633
223.697
223.674
223.469
223.148
222.88
222.684
222.527
222.364
222.179
222.014
221.93
221.918
221.953
222.036
222.105
222.131
222.132
222.118
222.089
222.062
222.036
222.01
221.983
221.956
221.931
221.907
221.884
221.863
221.841
221.818
221.794
221.769
221.743
221.717
221.69
221.663
221.635
221.608
221.583
221.559
221.538
221.518
221.501
221.486
221.473
221.463
221.456
221.451
221.448
221.445
221.444
221.443
221.442
221.441
221.438
221.434
221.428
221.419
221.406
221.388
221.364
221.333
221.295
221.248
221.191
221.121
221.037
220.937
220.821
220.686
220.53
220.349
220.142
219.905
219.635
219.328
218.979
218.586
218.142
217.646
217.093
216.476
215.788
215.023
214.179
213.248
212.228
211.111
209.884
208.546
207.08
205.502
203.768
201.921
199.962
197.882
195.805
193.608
191.276
189.057
186.668
184.267
181.898
179.471
177.143
174.929
172.794
170.872
169.291
168.073
167.273
166.802
164.587
223
223
223
223.001
223.012
223.101
223.341
223.603
223.702
223.706
223.559
223.256
222.971
222.763
222.607
222.456
222.281
222.108
221.996
221.965
221.982
222.054
222.136
222.179
222.189
222.183
222.159
222.133
222.11
222.087
222.063
222.039
222.016
221.995
221.975
221.957
221.94
221.922
221.902
221.882
221.86
221.838
221.816
221.793
221.77
221.748
221.727
221.708
221.691
221.677
221.664
221.654
221.647
221.644
221.642
221.644
221.647
221.652
221.658
221.665
221.673
221.68
221.687
221.694
221.699
221.701
221.701
221.696
221.687
221.673
221.651
221.622
221.584
221.536
221.476
221.401
221.311
221.205
221.08
220.934
220.764
220.567
220.339
220.079
219.782
219.444
219.062
218.631
218.147
217.603
216.995
216.319
215.572
214.742
213.821
212.798
211.673
210.451
209.121
207.691
206.149
204.46
202.623
200.614
198.474
196.305
193.968
191.618
189.256
186.783
184.427
181.982
179.534
177.171
174.783
172.511
170.53
168.843
167.792
167.311
165.086
223
223
223
223
223.006
223.066
223.274
223.558
223.702
223.736
223.641
223.364
223.064
222.845
222.688
222.548
222.388
222.214
222.08
222.025
222.026
222.076
222.163
222.226
222.247
222.247
222.231
222.207
222.185
222.165
222.144
222.123
222.103
222.085
222.069
222.055
222.042
222.029
222.014
221.998
221.981
221.963
221.945
221.927
221.908
221.891
221.875
221.86
221.848
221.839
221.831
221.827
221.825
221.827
221.832
221.839
221.849
221.86
221.874
221.889
221.904
221.921
221.937
221.954
221.969
221.983
221.995
222.003
222.008
222.008
222.003
221.991
221.973
221.945
221.907
221.856
221.792
221.714
221.619
221.506
221.372
221.214
221.029
220.815
220.568
220.284
219.96
219.591
219.174
218.703
218.174
217.579
216.914
216.168
215.34
214.425
213.419
212.314
211.095
209.768
208.31
206.739
205.05
203.221
201.234
199.174
197.004
194.63
192.288
189.754
187.229
184.796
182.293
179.896
177.52
175.286
173.269
171.465
169.93
168.839
165.757
223
223
223
223
223.003
223.039
223.207
223.498
223.693
223.762
223.706
223.466
223.161
222.933
222.774
222.642
222.497
222.331
222.182
222.099
222.082
222.109
222.188
222.267
222.305
222.311
222.303
222.283
222.263
222.245
222.228
222.211
222.194
222.179
222.166
222.156
222.148
222.139
222.13
222.119
222.106
222.092
222.078
222.064
222.051
222.038
222.026
222.017
222.009
222.005
222.003
222.003
222.007
222.014
222.024
222.038
222.054
222.073
222.093
222.116
222.14
222.164
222.19
222.216
222.242
222.267
222.29
222.312
222.33
222.344
222.354
222.359
222.359
222.35
222.334
222.306
222.266
222.214
222.147
222.064
221.963
221.841
221.696
221.524
221.322
221.088
220.818
220.508
220.154
219.752
219.297
218.782
218.205
217.556
216.832
216.023
215.122
214.124
213.02
211.813
210.475
209.022
207.431
205.706
203.828
201.765
199.671
197.386
195.057
192.586
189.967
187.414
184.716
182.025
179.414
176.987
174.854
173.088
171.824
170.98
168.016
223
223
223
223
223.001
223.021
223.144
223.424
223.673
223.776
223.748
223.567
223.269
223.029
222.863
222.738
222.607
222.454
222.3
222.19
222.151
222.157
222.213
222.3
222.358
222.375
222.374
222.359
222.342
222.327
222.314
222.3
222.287
222.276
222.267
222.261
222.258
222.254
222.249
222.243
222.235
222.225
222.216
222.206
222.197
222.188
222.181
222.176
222.174
222.174
222.177
222.183
222.192
222.204
222.22
222.239
222.262
222.287
222.314
222.344
222.376
222.409
222.443
222.478
222.514
222.549
222.584
222.618
222.649
222.677
222.702
222.723
222.739
222.749
222.752
222.746
222.731
222.704
222.664
222.61
222.541
222.454
222.346
222.215
222.058
221.873
221.655
221.402
221.109
220.772
220.388
219.949
219.451
218.885
218.25
217.539
216.749
215.867
214.881
213.788
212.572
211.255
209.805
208.231
206.526
204.65
202.629
200.458
198.13
195.796
193.294
190.757
188.141
185.394
182.648
179.89
177.235
174.839
172.999
171.806
168.227
223
223
223
223
223
223.01
223.092
223.34
223.632
223.779
223.778
223.662
223.384
223.13
222.957
222.834
222.717
222.578
222.427
222.298
222.23
222.217
222.245
222.325
222.403
222.437
222.443
222.436
222.423
222.411
222.401
222.393
222.384
222.376
222.371
222.369
222.371
222.372
222.373
222.371
222.367
222.362
222.356
222.351
222.346
222.342
222.34
222.339
222.342
222.347
222.355
222.365
222.379
222.397
222.418
222.443
222.472
222.504
222.538
222.575
222.614
222.655
222.698
222.742
222.787
222.833
222.879
222.924
222.968
223.009
223.048
223.084
223.117
223.144
223.166
223.18
223.186
223.184
223.169
223.143
223.103
223.048
222.975
222.881
222.765
222.624
222.454
222.253
222.017
221.742
221.424
221.057
220.638
220.161
219.621
219.009
218.316
217.534
216.655
215.678
214.59
213.399
212.073
210.632
209.043
207.319
205.424
203.357
201.11
198.77
196.301
193.718
191.12
188.421
185.679
183.048
180.518
178.32
176.307
174.686
170.442
223
223
223
223
223
223.004
223.052
223.253
223.566
223.771
223.802
223.743
223.5
223.236
223.056
222.933
222.826
222.7
222.556
222.417
222.321
222.286
222.292
222.349
222.437
222.495
222.513
222.513
222.505
222.497
222.491
222.487
222.483
222.48
222.478
222.481
222.487
222.494
222.5
222.502
222.503
222.502
222.5
222.499
222.498
222.499
222.501
222.505
222.511
222.521
222.534
222.55
222.569
222.591
222.618
222.649
222.683
222.721
222.762
222.806
222.852
222.901
222.952
223.005
223.059
223.115
223.17
223.227
223.282
223.337
223.389
223.44
223.487
223.532
223.571
223.605
223.632
223.651
223.66
223.661
223.65
223.626
223.586
223.529
223.452
223.353
223.229
223.078
222.896
222.68
222.424
222.126
221.781
221.381
220.924
220.399
219.806
219.133
218.376
217.527
216.574
215.515
214.326
213.023
211.568
209.982
208.242
206.343
204.272
201.987
199.553
196.939
194.27
191.406
188.455
185.432
182.491
179.986
178.14
176.911
173.021
223
223
223
223
223
223.001
223.026
223.173
223.481
223.744
223.821
223.8
223.61
223.349
223.16
223.033
222.931
222.815
222.679
222.54
222.426
222.366
222.354
222.383
222.465
222.545
222.584
222.592
222.59
222.586
222.584
222.585
222.587
222.587
222.59
222.597
222.608
222.619
222.63
222.637
222.641
222.644
222.646
222.648
222.652
222.657
222.663
222.672
222.683
222.697
222.715
222.735
222.759
222.787
222.819
222.855
222.895
222.939
222.987
223.037
223.091
223.147
223.206
223.267
223.33
223.395
223.461
223.528
223.595
223.661
223.727
223.791
223.853
223.913
223.97
224.022
224.069
224.109
224.141
224.164
224.179
224.183
224.174
224.151
224.11
224.049
223.968
223.862
223.73
223.568
223.372
223.138
222.863
222.541
222.167
221.733
221.235
220.664
220.014
219.28
218.449
217.513
216.455
215.283
213.969
212.532
210.939
209.201
207.309
205.216
202.988
200.554
198.059
195.369
192.516
189.66
186.556
183.569
180.809
178.751
173.654
223
223
223
223
223
223
223.012
223.107
223.383
223.696
223.827
223.838
223.715
223.469
223.265
223.128
223.027
222.922
222.797
222.664
222.543
222.461
222.43
222.436
222.497
222.588
222.651
222.675
222.679
222.679
222.681
222.686
222.692
222.698
222.705
222.716
222.731
222.747
222.762
222.773
222.781
222.787
222.793
222.8
222.807
222.816
222.827
222.84
222.855
222.874
222.896
222.921
222.95
222.983
223.02
223.061
223.107
223.156
223.21
223.267
223.327
223.39
223.457
223.526
223.597
223.671
223.746
223.823
223.901
223.979
224.057
224.134
224.21
224.285
224.357
224.427
224.492
224.551
224.605
224.652
224.691
224.721
224.741
224.749
224.743
224.72
224.68
224.617
224.532
224.421
224.28
224.106
223.896
223.643
223.344
222.991
222.582
222.108
221.566
220.943
220.229
219.415
218.489
217.452
216.282
214.991
213.538
211.938
210.158
208.205
206.067
203.69
201.083
198.417
195.522
192.688
189.789
187.174
184.737
182.703
177.437
223
223
223
223
223
223
223.004
223.059
223.283
223.623
223.816
223.871
223.805
223.584
223.363
223.218
223.12
223.026
222.913
222.788
222.667
222.571
222.52
222.51
222.541
222.628
222.714
222.759
222.773
222.777
222.781
222.79
222.801
222.813
222.824
222.839
222.858
222.878
222.896
222.911
222.923
222.932
222.941
222.951
222.962
222.975
222.99
223.007
223.027
223.05
223.077
223.107
223.14
223.177
223.219
223.266
223.317
223.372
223.431
223.494
223.561
223.631
223.705
223.782
223.861
223.943
224.028
224.114
224.202
224.291
224.381
224.47
224.56
224.648
224.735
224.821
224.903
224.982
225.055
225.123
225.185
225.24
225.286
225.322
225.346
225.357
225.354
225.332
225.291
225.225
225.136
225.018
224.868
224.682
224.456
224.183
223.86
223.479
223.035
222.516
221.915
221.227
220.44
219.553
218.542
217.411
216.128
214.707
213.106
211.343
209.398
207.282
204.895
202.336
199.543
196.349
193.232
190.005
187.262
185.198
180.118
223
223
223
223
223
223
223.001
223.029
223.192
223.53
223.793
223.897
223.864
223.687
223.462
223.309
223.214
223.128
223.026
222.909
222.794
222.693
222.625
222.601
222.61
222.674
222.771
222.84
222.87
222.88
222.887
222.897
222.912
222.929
222.946
222.965
222.987
223.01
223.032
223.05
223.064
223.077
223.089
223.102
223.117
223.133
223.152
223.173
223.197
223.225
223.255
223.29
223.328
223.37
223.416
223.468
223.524
223.584
223.649
223.718
223.791
223.868
223.949
224.032
224.12
224.21
224.303
224.398
224.496
224.595
224.695
224.796
224.898
224.999
225.101
225.201
225.3
225.395
225.488
225.576
225.659
225.737
225.808
225.871
225.925
225.966
225.996
226.011
226.012
225.991
225.95
225.883
225.789
225.663
225.503
225.302
225.058
224.761
224.409
223.991
223.502
222.935
222.278
221.524
220.652
219.66
218.522
217.249
215.804
214.206
212.417
210.432
208.259
205.815
203.382
200.42
197.374
194.273
191.161
188.548
182.445
223
223
223
223
223
223
223
223.012
223.118
223.424
223.752
223.904
223.9
223.782
223.563
223.402
223.305
223.227
223.134
223.027
222.92
222.822
222.745
222.705
222.699
222.733
222.824
222.915
222.965
222.984
222.993
223.005
223.023
223.045
223.067
223.09
223.116
223.142
223.166
223.187
223.204
223.219
223.234
223.251
223.269
223.289
223.312
223.337
223.365
223.397
223.432
223.47
223.513
223.559
223.61
223.666
223.727
223.793
223.863
223.938
224.017
224.1
224.187
224.278
224.372
224.47
224.571
224.675
224.782
224.891
225.001
225.113
225.226
225.34
225.454
225.569
225.682
225.794
225.904
226.01
226.113
226.212
226.305
226.393
226.473
226.544
226.605
226.653
226.687
226.707
226.711
226.691
226.65
226.581
226.482
226.349
226.177
225.961
225.695
225.372
224.988
224.532
223.995
223.366
222.631
221.785
220.807
219.701
218.436
217.02
215.402
213.592
211.578
209.362
206.864
204.189
201.095
198.305
195.404
192.956
187.139
223
223
223
223
223
223
223
223.005
223.066
223.318
223.683
223.898
223.926
223.864
223.661
223.491
223.391
223.32
223.24
223.143
223.044
222.953
222.873
222.819
222.8
222.811
222.879
222.98
223.052
223.084
223.099
223.112
223.132
223.159
223.186
223.214
223.243
223.271
223.298
223.322
223.342
223.36
223.377
223.397
223.418
223.442
223.469
223.498
223.53
223.565
223.604
223.647
223.694
223.745
223.8
223.86
223.926
223.997
224.072
224.152
224.237
224.326
224.419
224.516
224.617
224.722
224.831
224.943
225.058
225.176
225.296
225.418
225.542
225.667
225.793
225.92
226.048
226.174
226.3
226.424
226.545
226.663
226.777
226.888
226.992
227.09
227.179
227.259
227.328
227.384
227.425
227.449
227.456
227.439
227.397
227.325
227.22
227.077
226.892
226.658
226.37
226.018
225.593
225.086
224.487
223.788
222.971
222.034
220.945
219.707
218.28
216.674
214.845
212.808
210.525
207.961
205.113
202.041
198.875
196.17
190.345
223
223
223
223
223
223
223
223.002
223.034
223.223
223.595
223.876
223.951
223.924
223.75
223.575
223.474
223.412
223.344
223.256
223.163
223.076
222.999
222.936
222.904
222.9
222.938
223.035
223.127
223.178
223.201
223.217
223.238
223.268
223.301
223.334
223.365
223.397
223.426
223.451
223.474
223.495
223.516
223.538
223.563
223.591
223.621
223.654
223.69
223.729
223.772
223.819
223.87
223.925
223.985
224.049
224.119
224.195
224.275
224.36
224.45
224.545
224.644
224.747
224.855
224.967
225.083
225.202
225.325
225.451
225.58
225.712
225.846
225.981
226.119
226.258
226.398
226.538
226.679
226.818
226.956
227.092
227.225
227.356
227.483
227.604
227.72
227.827
227.926
228.015
228.093
228.156
228.203
228.233
228.243
228.228
228.185
228.11
227.998
227.844
227.643
227.385
227.066
226.676
226.205
225.646
224.979
224.197
223.273
222.207
220.966
219.552
217.922
216.091
214.02
211.715
209.191
206.393
203.335
200.55
194.593
223
223
223
223
223
223
223
223.001
223.016
223.147
223.497
223.839
223.966
223.96
223.829
223.657
223.555
223.499
223.441
223.362
223.272
223.189
223.116
223.052
223.009
222.995
223.011
223.088
223.193
223.263
223.297
223.318
223.341
223.373
223.41
223.447
223.482
223.516
223.547
223.575
223.601
223.625
223.649
223.674
223.703
223.734
223.768
223.805
223.845
223.888
223.934
223.985
224.04
224.1
224.163
224.232
224.306
224.386
224.471
224.561
224.657
224.756
224.861
224.97
225.084
225.202
225.324
225.451
225.581
225.715
225.852
225.993
226.136
226.281
226.428
226.578
226.73
226.883
227.036
227.19
227.343
227.495
227.646
227.795
227.942
228.086
228.225
228.359
228.485
228.604
228.714
228.813
228.9
228.971
229.025
229.06
229.073
229.06
229.016
228.936
228.815
228.648
228.429
228.148
227.798
227.366
226.836
226.201
225.437
224.541
223.483
222.26
220.831
219.197
217.305
215.171
212.774
210.122
207.27
204.668
199.555
223
223
223
223
223
223
223
223
223.007
223.092
223.401
223.788
223.967
223.987
223.899
223.738
223.631
223.577
223.528
223.458
223.373
223.294
223.226
223.165
223.116
223.094
223.097
223.147
223.252
223.341
223.388
223.415
223.441
223.475
223.514
223.554
223.592
223.627
223.661
223.692
223.721
223.748
223.775
223.804
223.836
223.871
223.909
223.949
223.993
224.04
224.091
224.145
224.204
224.268
224.335
224.408
224.486
224.57
224.66
224.755
224.855
224.96
225.07
225.184
225.304
225.428
225.556
225.689
225.826
225.968
226.112
226.261
226.412
226.567
226.724
226.883
227.046
227.21
227.376
227.542
227.71
227.877
228.043
228.209
228.374
228.537
228.697
228.854
229.005
229.151
229.29
229.42
229.541
229.651
229.747
229.826
229.887
229.927
229.944
229.933
229.885
229.8
229.669
229.485
229.239
228.922
228.521
228.028
227.424
226.702
225.833
224.809
223.591
222.176
220.519
218.619
216.424
213.957
211.308
208.442
203.312
223
223
223
223
223
223
223
223
223.003
223.056
223.316
223.728
223.956
224.012
223.961
223.809
223.697
223.646
223.607
223.548
223.469
223.392
223.33
223.274
223.226
223.197
223.19
223.218
223.311
223.414
223.477
223.511
223.539
223.573
223.614
223.656
223.695
223.732
223.768
223.802
223.834
223.865
223.895
223.927
223.963
224.001
224.043
224.087
224.135
224.186
224.24
224.299
224.361
224.429
224.5
224.577
224.659
224.747
224.841
224.941
225.045
225.155
225.27
225.389
225.514
225.643
225.778
225.917
226.06
226.208
226.36
226.516
226.675
226.837
227.003
227.172
227.344
227.518
227.695
227.873
228.053
228.233
228.414
228.595
228.776
228.957
229.136
229.313
229.486
229.656
229.821
229.98
230.131
230.274
230.407
230.527
230.633
230.722
230.79
230.835
230.855
230.845
230.793
230.7
230.553
230.348
230.074
229.722
229.273
228.716
228.024
227.187
226.168
224.961
223.519
221.839
219.884
217.734
215.271
212.769
208.315
223
223
223
223
223
223
223
223
223.001
223.034
223.245
223.664
223.941
224.037
224.006
223.866
223.756
223.709
223.679
223.632
223.561
223.487
223.428
223.378
223.333
223.3
223.288
223.301
223.376
223.485
223.562
223.606
223.637
223.671
223.712
223.754
223.794
223.832
223.87
223.907
223.941
223.975
224.009
224.044
224.083
224.124
224.17
224.218
224.27
224.324
224.382
224.444
224.511
224.582
224.658
224.738
224.824
224.916
225.014
225.118
225.227
225.341
225.46
225.585
225.715
225.849
225.989
226.134
226.283
226.437
226.595
226.758
226.924
227.094
227.268
227.445
227.625
227.809
227.995
228.184
228.375
228.568
228.761
228.956
229.151
229.347
229.543
229.738
229.931
230.122
230.31
230.493
230.672
230.844
231.009
231.165
231.309
231.441
231.557
231.655
231.731
231.781
231.803
231.793
231.736
231.633
231.47
231.238
230.92
230.507
229.972
229.306
228.472
227.465
226.241
224.78
223.042
221.026
218.673
216.133
212.103
223
223
223
223
223
223
223
223
223.001
223.021
223.192
223.603
223.929
224.055
224.037
223.915
223.81
223.768
223.747
223.711
223.647
223.577
223.521
223.475
223.435
223.403
223.388
223.393
223.448
223.557
223.648
223.701
223.736
223.77
223.809
223.851
223.891
223.93
223.969
224.007
224.044
224.08
224.116
224.155
224.196
224.241
224.29
224.342
224.397
224.455
224.517
224.583
224.653
224.728
224.807
224.891
224.981
225.077
225.179
225.287
225.4
225.519
225.642
225.771
225.906
226.045
226.19
226.34
226.495
226.654
226.818
226.987
227.16
227.336
227.517
227.702
227.89
228.082
228.277
228.475
228.676
228.879
229.084
229.291
229.499
229.709
229.919
230.13
230.341
230.55
230.757
230.963
231.165
231.364
231.557
231.743
231.922
232.091
232.248
232.392
232.52
232.628
232.711
232.767
232.792
232.78
232.714
232.594
232.402
232.132
231.763
231.283
230.658
229.877
228.887
227.667
226.182
224.398
222.348
219.925
216.38
223
223
223
223
223
223
223
223
223
223.014
223.155
223.552
223.918
224.068
224.059
223.957
223.859
223.824
223.811
223.785
223.728
223.659
223.606
223.565
223.53
223.502
223.488
223.489
223.531
223.634
223.734
223.797
223.836
223.87
223.907
223.947
223.987
224.026
224.066
224.105
224.143
224.181
224.219
224.259
224.303
224.352
224.404
224.459
224.518
224.579
224.645
224.714
224.788
224.867
224.949
225.037
225.131
225.23
225.336
225.448
225.565
225.687
225.815
225.949
226.087
226.231
226.381
226.535
226.695
226.86
227.029
227.203
227.382
227.565
227.752
227.943
228.138
228.338
228.541
228.748
228.957
229.17
229.385
229.602
229.822
230.043
230.267
230.492
230.717
230.943
231.168
231.392
231.615
231.836
232.053
232.267
232.475
232.676
232.869
233.052
233.224
233.38
233.52
233.638
233.728
233.79
233.816
233.801
233.725
233.589
233.368
233.053
232.611
232.029
231.255
230.276
229.024
227.459
225.599
223.302
220.046
223
223
223
223
223
223
223
223
223
223.011
223.131
223.515
223.908
224.077
224.077
223.993
223.904
223.877
223.871
223.852
223.802
223.735
223.685
223.649
223.62
223.597
223.586
223.587
223.62
223.716
223.821
223.893
223.935
223.969
224.005
224.043
224.082
224.121
224.161
224.2
224.239
224.277
224.317
224.359
224.405
224.456
224.511
224.569
224.631
224.696
224.765
224.838
224.916
224.998
225.084
225.175
225.272
225.376
225.485
225.6
225.721
225.848
225.979
226.117
226.26
226.408
226.561
226.721
226.885
227.054
227.229
227.408
227.592
227.78
227.973
228.17
228.372
228.578
228.788
229.002
229.22
229.441
229.665
229.891
230.121
230.353
230.588
230.825
231.063
231.303
231.543
231.784
232.024
232.264
232.503
232.739
232.972
233.201
233.425
233.643
233.852
234.05
234.236
234.407
234.559
234.689
234.789
234.856
234.884
234.864
234.77
234.601
234.326
233.934
233.374
232.634
231.624
230.318
228.68
226.572
223.573
223
223
223
223
223
223
223
223
223
223.009
223.12
223.494
223.905
224.087
224.093
224.022
223.945
223.926
223.926
223.915
223.87
223.806
223.759
223.728
223.705
223.688
223.68
223.682
223.711
223.8
223.907
223.984
224.03
224.064
224.099
224.137
224.175
224.213
224.253
224.292
224.331
224.37
224.41
224.453
224.501
224.554
224.612
224.674
224.739
224.807
224.879
224.955
225.036
225.122
225.211
225.306
225.406
225.513
225.626
225.745
225.87
226
226.135
226.276
226.423
226.575
226.733
226.896
227.064
227.238
227.417
227.601
227.79
227.983
228.181
228.384
228.591
228.803
229.019
229.24
229.465
229.693
229.924
230.159
230.398
230.639
230.884
231.131
231.381
231.633
231.886
232.141
232.397
232.653
232.91
233.166
233.421
233.673
233.923
234.169
234.41
234.644
234.87
235.085
235.288
235.474
235.642
235.783
235.892
235.965
235.993
235.961
235.847
235.644
235.312
234.841
234.137
233.158
231.755
229.844
227.012
223
223
223
223
223
223
223
223
223
223.009
223.117
223.49
223.908
224.097
224.108
224.048
223.983
223.973
223.977
223.971
223.932
223.873
223.83
223.803
223.785
223.774
223.77
223.774
223.802
223.884
223.99
224.071
224.119
224.154
224.187
224.224
224.263
224.301
224.34
224.38
224.418
224.457
224.498
224.542
224.592
224.647
224.707
224.772
224.84
224.911
224.986
225.066
225.15
225.238
225.331
225.429
225.533
225.643
225.76
225.882
226.01
226.144
226.283
226.428
226.578
226.734
226.895
227.062
227.235
227.413
227.595
227.784
227.977
228.175
228.378
228.585
228.798
229.015
229.237
229.464
229.694
229.929
230.168
230.41
230.656
230.905
231.159
231.415
231.675
231.938
232.202
232.469
232.738
233.009
233.281
233.554
233.827
234.1
234.371
234.642
234.909
235.174
235.433
235.686
235.931
236.165
236.387
236.591
236.775
236.932
237.054
237.135
237.165
237.124
236.977
236.714
236.268
235.603
234.505
232.973
230.338
223
223
223
223
223
223
223
223
223
223.009
223.121
223.501
223.921
224.109
224.122
224.069
224.018
224.018
224.027
224.024
223.989
223.936
223.898
223.874
223.861
223.854
223.853
223.859
223.889
223.966
224.069
224.151
224.201
224.235
224.268
224.304
224.342
224.381
224.42
224.46
224.499
224.538
224.58
224.626
224.677
224.735
224.797
224.864
224.935
225.009
225.087
225.17
225.257
225.349
225.445
225.546
225.653
225.767
225.887
226.012
226.144
226.281
226.423
226.571
226.725
226.884
227.049
227.22
227.396
227.577
227.764
227.956
228.154
228.356
228.563
228.775
228.992
229.215
229.442
229.673
229.91
230.15
230.395
230.644
230.897
231.154
231.415
231.679
231.948
232.22
232.494
232.772
233.052
233.335
233.62
233.908
234.197
234.486
234.777
235.068
235.358
235.648
235.935
236.219
236.499
236.773
237.04
237.296
237.539
237.766
237.971
238.145
238.281
238.365
238.386
238.316
238.133
237.792
237.089
236.102
233.945
223
223
223
223
223
223
223
223
223
223.011
223.135
223.529
223.943
224.121
224.135
224.09
224.052
224.059
224.076
224.074
224.042
223.995
223.962
223.943
223.933
223.93
223.932
223.941
223.972
224.045
224.144
224.225
224.274
224.307
224.339
224.374
224.412
224.451
224.491
224.532
224.571
224.612
224.655
224.703
224.757
224.816
224.882
224.951
225.024
225.101
225.182
225.268
225.358
225.453
225.552
225.656
225.767
225.884
226.007
226.136
226.27
226.411
226.556
226.707
226.864
227.027
227.196
227.37
227.549
227.734
227.925
228.121
228.322
228.528
228.739
228.955
229.177
229.403
229.635
229.872
230.113
230.359
230.61
230.865
231.124
231.387
231.655
231.927
232.203
232.483
232.767
233.054
233.344
233.638
233.935
234.235
234.537
234.842
235.148
235.457
235.766
236.077
236.388
236.698
237.008
237.315
237.618
237.917
238.209
238.491
238.761
239.013
239.245
239.442
239.598
239.692
239.724
239.638
239.327
238.81
237.513
223
223
223
223
223
223
223
223
223
223.015
223.159
223.57
223.973
224.135
224.147
224.11
224.085
224.1
224.122
224.12
224.091
224.05
224.023
224.008
224.002
224.001
224.006
224.019
224.051
224.12
224.214
224.291
224.337
224.368
224.398
224.433
224.471
224.511
224.553
224.595
224.636
224.679
224.724
224.774
224.831
224.893
224.96
225.032
225.108
225.187
225.271
225.36
225.453
225.551
225.653
225.76
225.874
225.994
226.12
226.253
226.39
226.533
226.682
226.837
226.997
227.163
227.335
227.512
227.695
227.883
228.077
228.276
228.481
228.691
228.906
229.126
229.352
229.583
229.819
230.06
230.306
230.557
230.813
231.073
231.338
231.608
231.882
232.161
232.444
232.731
233.023
233.319
233.618
233.922
234.229
234.54
234.854
235.172
235.492
235.816
236.142
236.471
236.801
237.134
237.467
237.802
238.136
238.469
238.8
239.127
239.449
239.762
240.065
240.351
240.612
240.83
241.011
241.147
241.21
241.019
240.618
223
223
223
223
223
223
223
223
223.001
223.021
223.195
223.624
224.007
224.15
224.157
224.13
224.118
224.14
224.167
224.163
224.136
224.102
224.081
224.07
224.067
224.069
224.077
224.09
224.123
224.189
224.276
224.347
224.389
224.418
224.447
224.482
224.52
224.562
224.605
224.649
224.693
224.738
224.786
224.84
224.899
224.964
225.034
225.109
225.187
225.269
225.355
225.447
225.543
225.643
225.748
225.859
225.975
226.099
226.228
226.363
226.504
226.65
226.802
226.959
227.123
227.292
227.466
227.647
227.833
228.025
228.222
228.424
228.632
228.846
229.064
229.288
229.518
229.753
229.993
230.238
230.489
230.745
231.005
231.271
231.541
231.816
232.096
232.381
232.67
232.965
233.264
233.567
233.875
234.187
234.503
234.824
235.149
235.478
235.81
236.147
236.487
236.832
237.179
237.53
237.883
238.24
238.599
238.959
239.321
239.684
240.045
240.405
240.76
241.108
241.445
241.764
242.065
242.333
242.582
242.702
242.806
223
223
223
223
223
223
223
223
223.001
223.032
223.242
223.687
224.043
224.166
224.168
224.15
224.15
224.181
224.209
224.204
224.178
224.151
224.136
224.129
224.128
224.133
224.141
224.155
224.187
224.249
224.329
224.394
224.432
224.458
224.486
224.521
224.56
224.603
224.649
224.696
224.743
224.791
224.843
224.899
224.962
225.03
225.103
225.18
225.26
225.345
225.434
225.528
225.627
225.73
225.838
225.951
226.071
226.197
226.33
226.468
226.611
226.76
226.915
227.075
227.242
227.414
227.591
227.775
227.964
228.159
228.359
228.564
228.776
228.992
229.215
229.442
229.675
229.914
230.158
230.408
230.663
230.923
231.188
231.458
231.733
232.013
232.299
232.59
232.886
233.186
233.492
233.802
234.117
234.437
234.762
235.092
235.426
235.765
236.108
236.456
236.809
237.166
237.527
237.893
238.263
238.638
239.016
239.398
239.783
240.171
240.561
240.952
241.343
241.733
242.118
242.494
242.856
243.208
243.526
243.775
244.032
223
223
223
223
223
223
223
223
223.002
223.048
223.301
223.755
224.079
224.181
224.181
224.169
224.18
224.221
224.248
224.243
224.22
224.199
224.189
224.184
224.185
224.191
224.198
224.21
224.241
224.3
224.373
224.431
224.465
224.489
224.516
224.551
224.592
224.638