/*--------------------------------*- C++ -*----------------------------------*\
| =========                 |                                                 |
| \\      /  F ield         | OpenFOAM: The Open Source CFD Toolbox           |
|  \\    /   O peration     | Version:  2406                                  |
|   \\  /    A nd           | Website:  www.openfoam.com                      |
|    \\/     M anipulation  |                                                 |
\*---------------------------------------------------------------------------*/
FoamFile
{
    version     2.0;
    format      ascii;
    arch        "LSB;label=32;scalar=64";
    class       volScalarField;
    location    "0.047";
    object      T;
}
// * * * * * * * * * * * * * * * * * * * * * * * * * * * * * * * * * * * * * //

dimensions      [0 0 0 1 0 0 0];

internalField   nonuniform List<scalar> 
78650
(
237.644
224.488
223.947
223.85
223.654
223.432
223.198
222.98
222.776
222.582
222.407
222.264
222.156
222.069
221.989
221.904
221.811
221.712
221.614
221.52
221.433
221.354
221.284
221.223
221.167
221.113
221.06
221.006
220.95
220.893
220.835
220.777
220.72
220.665
220.613
220.562
220.514
220.469
220.427
220.387
220.351
220.317
220.284
220.254
220.224
220.196
220.166
220.136
220.104
220.07
220.031
219.987
219.938
219.882
219.819
219.746
219.664
219.57
219.462
219.341
219.203
219.048
218.873
218.677
218.458
218.213
217.942
217.641
217.308
216.94
216.537
216.095
215.614
215.091
214.524
213.911
213.249
212.527
211.747
210.911
210.022
209.079
208.076
207.013
205.886
204.7
203.459
202.174
200.843
199.51
198.154
196.727
195.312
193.857
192.434
191.009
189.568
188.218
186.868
185.554
184.307
183.065
181.877
180.701
179.6
178.6
177.687
176.854
176.088
175.329
174.609
173.902
173.238
172.585
171.944
171.368
170.89
170.563
170.36
170.288
169.682
237.171
224.324
223.871
223.768
223.57
223.348
223.116
222.91
222.722
222.543
222.375
222.234
222.124
222.038
221.962
221.884
221.8
221.711
221.62
221.533
221.453
221.38
221.317
221.262
221.214
221.169
221.125
221.081
221.035
220.987
220.938
220.889
220.84
220.793
220.748
220.704
220.664
220.626
220.592
220.56
220.531
220.505
220.482
220.46
220.44
220.42
220.401
220.382
220.361
220.339
220.313
220.283
220.248
220.208
220.161
220.106
220.043
219.969
219.883
219.785
219.673
219.544
219.398
219.233
219.047
218.839
218.605
218.345
218.055
217.734
217.381
216.993
216.567
216.1
215.589
215.032
214.425
213.766
213.057
212.297
211.484
210.617
209.691
208.711
207.675
206.59
205.451
204.254
203.018
201.725
200.406
199.009
197.63
196.246
194.812
193.404
191.953
190.548
189.186
187.79
186.471
185.144
183.889
182.677
181.493
180.377
179.329
178.344
177.408
176.532
175.714
174.956
174.243
173.567
172.936
172.356
171.853
171.436
171.136
170.944
170.218
236.836
224.165
223.795
223.71
223.516
223.29
223.057
222.854
222.676
222.513
222.359
222.222
222.11
222.02
221.945
221.872
221.795
221.713
221.629
221.548
221.474
221.409
221.351
221.303
221.262
221.225
221.191
221.156
221.12
221.082
221.042
221.002
220.962
220.922
220.885
220.849
220.816
220.786
220.759
220.735
220.714
220.696
220.681
220.668
220.657
220.648
220.639
220.63
220.621
220.61
220.597
220.581
220.56
220.535
220.504
220.466
220.421
220.367
220.302
220.226
220.138
220.035
219.916
219.78
219.626
219.45
219.252
219.029
218.78
218.502
218.194
217.852
217.475
217.061
216.606
216.111
215.572
214.986
214.355
213.673
212.936
212.141
211.286
210.375
209.409
208.392
207.317
206.19
205.013
203.768
202.486
201.159
199.799
198.445
197.03
195.628
194.235
192.804
191.453
190.061
188.726
187.416
186.111
184.856
183.601
182.421
181.324
180.236
179.196
178.169
177.204
176.307
175.456
174.653
173.906
173.253
172.704
172.263
171.948
171.769
171.01
236.588
224.042
223.724
223.666
223.497
223.28
223.044
222.837
222.663
222.508
222.361
222.224
222.108
222.016
221.939
221.869
221.797
221.72
221.642
221.568
221.501
221.442
221.391
221.349
221.315
221.285
221.259
221.233
221.206
221.178
221.148
221.117
221.085
221.054
221.024
220.996
220.971
220.948
220.928
220.912
220.899
220.889
220.882
220.878
220.876
220.875
220.876
220.878
220.879
220.88
220.879
220.875
220.868
220.858
220.842
220.821
220.793
220.758
220.713
220.659
220.593
220.515
220.423
220.315
220.191
220.048
219.884
219.699
219.49
219.254
218.991
218.697
218.371
218.012
217.616
217.181
216.703
216.18
215.612
214.993
214.318
213.587
212.802
211.968
211.084
210.148
209.15
208.1
206.991
205.836
204.618
203.356
202.036
200.696
199.326
197.898
196.521
195.063
193.629
192.168
190.695
189.312
187.92
186.6
185.279
183.999
182.821
181.686
180.645
179.623
178.653
177.711
176.802
175.926
175.104
174.38
173.772
173.248
172.825
172.512
171.501
236.409
224.054
223.657
223.64
223.513
223.3
223.058
222.844
222.669
222.517
222.375
222.239
222.119
222.022
221.943
221.873
221.804
221.733
221.662
221.595
221.534
221.482
221.439
221.403
221.375
221.353
221.333
221.315
221.297
221.278
221.257
221.235
221.212
221.19
221.168
221.148
221.129
221.114
221.102
221.093
221.088
221.086
221.087
221.091
221.098
221.107
221.117
221.129
221.141
221.153
221.164
221.173
221.179
221.183
221.183
221.177
221.166
221.149
221.124
221.09
221.047
220.992
220.925
220.844
220.748
220.636
220.505
220.354
220.182
219.986
219.764
219.515
219.237
218.928
218.583
218.202
217.783
217.323
216.823
216.275
215.677
215.03
214.335
213.591
212.792
211.933
211.01
210.035
208.996
207.911
206.772
205.572
204.322
203.019
201.717
200.349
198.965
197.547
196.117
194.725
193.283
191.886
190.456
189.065
187.706
186.33
185.032
183.758
182.587
181.459
180.372
179.319
178.313
177.373
176.501
175.712
175.024
174.44
173.982
173.655
172.464
236.24
224.118
223.666
223.664
223.555
223.357
223.114
222.885
222.698
222.546
222.412
222.282
222.16
222.054
221.967
221.894
221.828
221.763
221.698
221.637
221.583
221.537
221.499
221.469
221.447
221.43
221.417
221.405
221.395
221.384
221.371
221.357
221.343
221.329
221.315
221.303
221.292
221.284
221.28
221.278
221.281
221.286
221.296
221.308
221.323
221.34
221.36
221.382
221.404
221.427
221.449
221.47
221.49
221.507
221.52
221.53
221.536
221.536
221.529
221.516
221.494
221.461
221.418
221.363
221.295
221.212
221.113
220.996
220.861
220.704
220.524
220.319
220.088
219.827
219.535
219.211
218.852
218.455
218.019
217.537
217.007
216.43
215.804
215.127
214.396
213.606
212.759
211.861
210.904
209.903
208.839
207.725
206.554
205.329
204.062
202.735
201.353
199.973
198.55
197.148
195.713
194.283
192.869
191.448
190.08
188.664
187.303
185.973
184.72
183.523
182.354
181.212
180.125
179.103
178.157
177.269
176.447
175.755
175.254
174.92
173.965
236.047
224.221
223.732
223.729
223.633
223.467
223.237
222.993
222.783
222.618
222.483
222.36
222.243
222.133
222.036
221.955
221.885
221.821
221.759
221.702
221.651
221.609
221.576
221.551
221.533
221.52
221.512
221.506
221.501
221.497
221.491
221.486
221.479
221.473
221.467
221.462
221.46
221.459
221.462
221.468
221.478
221.491
221.508
221.528
221.552
221.578
221.607
221.638
221.671
221.704
221.738
221.771
221.803
221.833
221.861
221.886
221.907
221.923
221.935
221.94
221.938
221.928
221.908
221.878
221.835
221.78
221.711
221.626
221.524
221.403
221.261
221.097
220.909
220.695
220.453
220.181
219.877
219.537
219.16
218.742
218.283
217.781
217.234
216.637
215.988
215.284
214.527
213.72
212.854
211.936
210.949
209.913
208.813
207.665
206.464
205.214
203.909
202.556
201.169
199.768
198.35
196.869
195.436
193.967
192.562
191.097
189.643
188.219
186.835
185.534
184.264
183.041
181.866
180.743
179.699
178.696
177.734
176.866
176.143
175.594
174.205
235.791
224.366
223.865
223.844
223.751
223.609
223.404
223.16
222.926
222.737
222.591
222.472
222.363
222.256
222.154
222.062
221.983
221.914
221.852
221.795
221.746
221.705
221.673
221.651
221.636
221.626
221.621
221.619
221.619
221.62
221.62
221.62
221.621
221.621
221.623
221.626
221.631
221.638
221.648
221.661
221.678
221.699
221.724
221.752
221.783
221.818
221.856
221.896
221.939
221.982
222.026
222.071
222.115
222.158
222.199
222.238
222.274
222.307
222.335
222.358
222.375
222.385
222.388
222.381
222.365
222.337
222.296
222.242
222.173
222.087
221.983
221.859
221.714
221.546
221.352
221.131
220.88
220.597
220.281
219.929
219.539
219.108
218.631
218.106
217.532
216.908
216.236
215.512
214.729
213.891
212.989
212.038
211.02
209.956
208.835
207.663
206.44
205.139
203.817
202.458
201.107
199.665
198.259
196.82
195.4
193.984
192.531
191.099
189.655
188.289
186.96
185.676
184.436
183.223
182.104
181.076
180.169
179.368
178.668
178.082
176.551
235.437
224.543
224.051
223.986
223.894
223.776
223.603
223.373
223.126
222.908
222.74
222.614
222.513
222.414
222.313
222.214
222.124
222.045
221.978
221.919
221.869
221.827
221.794
221.771
221.757
221.749
221.746
221.746
221.75
221.754
221.758
221.764
221.769
221.776
221.784
221.794
221.806
221.82
221.837
221.857
221.882
221.91
221.942
221.978
222.018
222.061
222.108
222.157
222.209
222.262
222.317
222.373
222.428
222.484
222.538
222.591
222.642
222.69
222.734
222.775
222.811
222.84
222.863
222.879
222.886
222.884
222.87
222.845
222.806
222.753
222.683
222.596
222.491
222.364
222.215
222.041
221.841
221.614
221.356
221.064
220.738
220.373
219.964
219.514
219.019
218.479
217.893
217.253
216.556
215.804
214.993
214.129
213.202
212.228
211.187
210.096
208.939
207.73
206.469
205.166
203.831
202.404
200.959
199.503
198.032
196.596
195.095
193.625
192.102
190.635
189.202
187.814
186.456
185.106
183.824
182.635
181.613
180.73
180.013
179.484
177.851
234.955
224.72
224.262
224.158
224.047
223.938
223.794
223.595
223.358
223.124
222.931
222.79
222.687
222.597
222.503
222.402
222.303
222.214
222.137
222.073
222.018
221.974
221.938
221.913
221.897
221.889
221.886
221.888
221.893
221.9
221.907
221.916
221.926
221.937
221.95
221.966
221.984
222.004
222.028
222.056
222.087
222.123
222.162
222.206
222.253
222.304
222.359
222.417
222.478
222.541
222.606
222.672
222.739
222.806
222.873
222.939
223.003
223.066
223.126
223.183
223.236
223.285
223.328
223.365
223.394
223.415
223.428
223.431
223.422
223.401
223.365
223.314
223.247
223.161
223.056
222.929
222.778
222.602
222.398
222.164
221.898
221.597
221.258
220.881
220.464
220.004
219.498
218.939
218.329
217.667
216.951
216.183
215.355
214.473
213.521
212.519
211.455
210.346
209.176
207.948
206.663
205.345
203.983
202.599
201.161
199.755
198.298
196.828
195.322
193.817
192.351
190.897
189.489
188.089
186.737
185.409
184.209
183.104
182.147
181.336
179.262
234.297
224.92
224.504
224.353
224.215
224.085
223.952
223.79
223.588
223.361
223.153
222.993
222.882
222.795
222.71
222.616
222.514
222.415
222.327
222.253
222.192
222.143
222.104
222.074
222.054
222.044
222.041
222.042
222.048
222.058
222.067
222.078
222.09
222.105
222.122
222.142
222.166
222.192
222.222
222.256
222.294
222.337
222.383
222.434
222.489
222.548
222.611
222.678
222.747
222.82
222.894
222.971
223.049
223.127
223.206
223.284
223.362
223.439
223.514
223.587
223.657
223.723
223.785
223.842
223.893
223.937
223.974
224.001
224.019
224.027
224.024
224.006
223.974
223.925
223.86
223.776
223.67
223.543
223.391
223.212
223.007
222.769
222.498
222.193
221.848
221.462
221.032
220.555
220.032
219.461
218.838
218.162
217.426
216.631
215.772
214.866
213.901
212.882
211.785
210.627
209.418
208.172
206.893
205.545
204.123
202.678
201.26
199.8
198.333
196.802
195.332
193.831
192.385
190.928
189.523
188.151
186.89
185.782
184.871
184.17
182.544
233.419
224.957
224.679
224.585
224.435
224.261
224.099
223.948
223.779
223.58
223.379
223.21
223.086
222.997
222.92
222.837
222.742
222.64
222.542
222.457
222.386
222.33
222.286
222.252
222.227
222.213
222.208
222.208
222.214
222.225
222.235
222.248
222.263
222.279
222.299
222.323
222.351
222.382
222.417
222.457
222.501
222.55
222.604
222.662
222.724
222.79
222.861
222.936
223.014
223.095
223.179
223.265
223.353
223.442
223.532
223.623
223.713
223.803
223.892
223.98
224.066
224.149
224.229
224.305
224.376
224.441
224.501
224.553
224.597
224.632
224.657
224.671
224.675
224.663
224.636
224.593
224.531
224.45
224.348
224.222
224.071
223.891
223.682
223.44
223.163
222.849
222.497
222.103
221.667
221.186
220.655
220.071
219.43
218.736
217.986
217.186
216.32
215.393
214.393
213.342
212.238
211.087
209.874
208.59
207.247
205.836
204.444
203.007
201.576
200.011
198.459
196.886
195.341
193.801
192.276
190.755
189.29
187.934
186.703
185.688
183.422
232.4
224.757
224.723
224.671
224.555
224.401
224.236
224.085
223.934
223.766
223.586
223.417
223.284
223.189
223.117
223.048
222.967
222.874
222.773
222.678
222.596
222.53
222.48
222.441
222.412
222.393
222.385
222.384
222.388
222.4
222.411
222.425
222.442
222.46
222.482
222.508
222.539
222.574
222.614
222.659
222.709
222.764
222.823
222.888
222.957
223.031
223.109
223.191
223.278
223.368
223.46
223.556
223.653
223.753
223.854
223.956
224.058
224.161
224.264
224.365
224.466
224.565
224.662
224.755
224.845
224.931
225.012
225.087
225.155
225.216
225.269
225.311
225.344
225.365
225.374
225.369
225.348
225.31
225.253
225.176
225.077
224.953
224.804
224.626
224.416
224.174
223.898
223.583
223.228
222.83
222.384
221.891
221.347
220.754
220.107
219.404
218.634
217.809
216.925
215.99
214.986
213.922
212.795
211.618
210.383
209.096
207.764
206.422
205.04
203.599
202.104
200.6
199.071
197.568
196.09
194.611
193.225
191.925
190.754
189.745
187.506
231.496
224.389
224.52
224.63
224.6
224.472
224.32
224.183
224.052
223.917
223.768
223.613
223.474
223.369
223.296
223.237
223.174
223.098
223.007
222.908
222.815
222.738
222.679
222.634
222.601
222.579
222.568
222.564
222.568
222.58
222.592
222.607
222.625
222.645
222.668
222.696
222.729
222.768
222.811
222.86
222.915
222.975
223.041
223.111
223.187
223.268
223.353
223.442
223.536
223.634
223.735
223.839
223.946
224.055
224.166
224.279
224.393
224.507
224.622
224.737
224.852
224.966
225.078
225.188
225.296
225.4
225.501
225.597
225.688
225.773
225.851
225.922
225.984
226.037
226.078
226.108
226.124
226.128
226.114
226.084
226.034
225.961
225.867
225.747
225.599
225.423
225.216
224.974
224.696
224.378
224.019
223.616
223.169
222.673
222.122
221.516
220.849
220.134
219.361
218.528
217.617
216.645
215.618
214.548
213.411
212.199
210.916
209.586
208.226
206.832
205.348
203.854
202.261
200.674
199.072
197.522
195.971
194.533
193.224
192.126
189.663
230.901
223.923
224.136
224.406
224.477
224.457
224.349
224.221
224.116
224.026
223.917
223.79
223.657
223.542
223.461
223.404
223.356
223.301
223.227
223.136
223.038
222.949
222.879
222.827
222.79
222.765
222.751
222.746
222.749
222.761
222.774
222.79
222.809
222.831
222.856
222.886
222.921
222.962
223.009
223.061
223.12
223.185
223.255
223.332
223.413
223.5
223.592
223.688
223.79
223.895
224.004
224.117
224.232
224.35
224.471
224.594
224.718
224.844
224.971
225.098
225.226
225.353
225.48
225.606
225.73
225.852
225.971
226.087
226.198
226.306
226.407
226.503
226.592
226.672
226.745
226.807
226.858
226.896
226.922
226.933
226.93
226.906
226.864
226.798
226.71
226.596
226.454
226.282
226.078
225.838
225.561
225.246
224.889
224.485
224.031
223.527
222.972
222.37
221.709
220.987
220.195
219.35
218.451
217.502
216.482
215.387
214.217
212.997
211.742
210.452
209.115
207.696
206.239
204.732
203.188
201.723
200.027
198.522
197.087
195.822
193.217
230.603
223.59
223.737
224.039
224.246
224.324
224.288
224.205
224.124
224.055
224.002
223.929
223.829
223.719
223.625
223.559
223.515
223.476
223.424
223.349
223.256
223.16
223.078
223.017
222.975
222.947
222.933
222.927
222.93
222.943
222.956
222.973
222.994
223.017
223.044
223.076
223.113
223.156
223.205
223.261
223.323
223.391
223.466
223.547
223.634
223.727
223.825
223.928
224.036
224.148
224.265
224.385
224.509
224.635
224.765
224.897
225.031
225.167
225.305
225.444
225.583
225.723
225.863
226.003
226.143
226.28
226.417
226.55
226.681
226.809
226.932
227.051
227.165
227.272
227.372
227.464
227.548
227.621
227.683
227.733
227.768
227.789
227.796
227.781
227.747
227.691
227.608
227.502
227.367
227.201
227.003
226.769
226.496
226.181
225.823
225.42
224.97
224.47
223.909
223.293
222.618
221.888
221.094
220.239
219.319
218.334
217.278
216.161
214.989
213.773
212.505
211.181
209.788
208.342
206.869
205.342
203.845
202.391
200.948
199.673
197.024
230.594
223.601
223.502
223.652
223.85
224.022
224.098
224.105
224.073
224.04
224.014
223.991
223.954
223.882
223.79
223.711
223.663
223.629
223.594
223.539
223.46
223.364
223.273
223.202
223.154
223.124
223.108
223.103
223.106
223.121
223.136
223.154
223.176
223.201
223.23
223.263
223.302
223.347
223.399
223.457
223.522
223.594
223.673
223.758
223.85
223.948
224.051
224.16
224.274
224.393
224.517
224.644
224.775
224.91
225.048
225.189
225.332
225.478
225.626
225.775
225.926
226.078
226.23
226.383
226.536
226.689
226.841
226.991
227.139
227.285
227.429
227.569
227.704
227.835
227.961
228.08
228.192
228.296
228.391
228.476
228.55
228.611
228.658
228.69
228.705
228.705
228.677
228.632
228.56
228.462
228.335
228.176
227.983
227.754
227.487
227.179
226.825
226.423
225.968
225.466
224.91
224.297
223.616
222.876
222.081
221.233
220.318
219.333
218.278
217.169
216.003
214.783
213.493
212.138
210.722
209.281
207.817
206.392
204.893
203.601
201.083
230.612
223.709
223.426
223.458
223.505
223.627
223.751
223.846
223.911
223.955
223.984
223.996
224.003
223.992
223.938
223.867
223.811
223.775
223.746
223.708
223.646
223.56
223.466
223.386
223.33
223.296
223.28
223.274
223.278
223.295
223.311
223.33
223.354
223.381
223.411
223.447
223.488
223.535
223.589
223.65
223.717
223.792
223.874
223.964
224.06
224.162
224.271
224.385
224.505
224.63
224.759
224.894
225.032
225.174
225.319
225.468
225.62
225.774
225.931
226.09
226.251
226.413
226.577
226.742
226.907
227.073
227.239
227.404
227.568
227.731
227.892
228.051
228.207
228.36
228.509
228.652
228.791
228.923
229.048
229.165
229.272
229.37
229.457
229.531
229.59
229.633
229.66
229.669
229.657
229.622
229.563
229.474
229.358
229.21
229.028
228.808
228.547
228.242
227.893
227.501
227.055
226.554
225.99
225.373
224.702
223.977
223.186
222.321
221.383
220.382
219.321
218.21
217.032
215.795
214.481
213.122
211.706
210.329
208.843
207.477
205
230.608
223.812
223.454
223.433
223.362
223.33
223.364
223.468
223.603
223.742
223.863
223.95
224.001
224.027
224.034
224.006
223.957
223.917
223.887
223.856
223.809
223.738
223.651
223.567
223.503
223.464
223.445
223.439
223.443
223.462
223.481
223.501
223.526
223.554
223.587
223.624
223.667
223.717
223.773
223.836
223.907
223.985
224.07
224.163
224.262
224.369
224.482
224.601
224.726
224.856
224.992
225.132
225.277
225.426
225.578
225.734
225.894
226.056
226.221
226.389
226.559
226.731
226.905
227.081
227.258
227.436
227.614
227.793
227.971
228.149
228.327
228.502
228.677
228.849
229.018
229.183
229.345
229.502
229.653
229.798
229.937
230.067
230.188
230.299
230.399
230.486
230.559
230.615
230.655
230.676
230.68
230.655
230.609
230.533
230.427
230.289
230.115
229.904
229.653
229.36
229.016
228.625
228.181
227.685
227.128
226.514
225.838
225.098
224.293
223.423
222.493
221.505
220.456
219.353
218.179
216.962
215.688
214.411
213.097
211.818
209.597
230.576
223.886
223.542
223.487
223.345
223.195
223.099
223.108
223.206
223.392
223.614
223.809
223.938
224.016
224.07
224.094
224.082
224.05
224.018
223.988
223.951
223.897
223.823
223.743
223.674
223.629
223.606
223.599
223.603
223.622
223.645
223.666
223.692
223.721
223.756
223.795
223.841
223.893
223.952
224.017
224.09
224.171
224.259
224.355
224.458
224.569
224.686
224.809
224.939
225.074
225.215
225.361
225.511
225.666
225.825
225.987
226.153
226.323
226.496
226.671
226.85
227.03
227.214
227.399
227.586
227.774
227.964
228.155
228.346
228.537
228.729
228.92
229.11
229.299
229.486
229.671
229.853
230.032
230.207
230.378
230.543
230.701
230.854
230.998
231.133
231.259
231.373
231.474
231.561
231.632
231.687
231.722
231.738
231.733
231.697
231.638
231.547
231.423
231.264
231.065
230.824
230.541
230.21
229.827
229.385
228.889
228.337
227.731
227.061
226.325
225.521
224.649
223.716
222.717
221.651
220.529
219.336
218.132
216.843
215.568
213.549
230.532
223.928
223.659
223.586
223.385
223.178
222.981
222.867
222.871
222.992
223.239
223.538
223.794
223.963
224.065
224.13
224.161
224.16
224.138
224.109
224.077
224.036
223.98
223.91
223.843
223.793
223.766
223.756
223.758
223.777
223.802
223.825
223.851
223.882
223.918
223.959
224.007
224.061
224.122
224.191
224.267
224.35
224.442
224.54
224.647
224.761
224.881
225.009
225.142
225.282
225.428
225.578
225.734
225.894
226.058
226.227
226.399
226.575
226.755
226.937
227.123
227.312
227.503
227.696
227.892
228.09
228.29
228.491
228.694
228.897
229.101
229.305
229.509
229.713
229.916
230.118
230.318
230.517
230.712
230.905
231.093
231.277
231.456
231.629
231.796
231.954
232.104
232.244
232.372
232.489
232.592
232.679
232.749
232.8
232.83
232.84
232.822
232.777
232.7
232.588
232.442
232.257
232.029
231.754
231.429
231.056
230.626
230.145
229.599
228.992
228.317
227.576
226.773
225.902
224.975
223.986
222.948
221.871
220.744
219.521
217.785
230.509
223.999
223.749
223.68
223.451
223.208
222.967
222.759
222.66
222.682
222.847
223.162
223.529
223.826
224.011
224.122
224.197
224.231
224.231
224.211
224.184
224.153
224.114
224.062
224.002
223.952
223.92
223.908
223.908
223.925
223.951
223.975
224.002
224.034
224.071
224.114
224.164
224.22
224.284
224.356
224.434
224.521
224.615
224.717
224.826
224.943
225.067
225.198
225.336
225.48
225.629
225.785
225.945
226.11
226.279
226.453
226.631
226.813
226.998
227.187
227.379
227.575
227.773
227.974
228.178
228.384
228.593
228.803
229.015
229.229
229.443
229.659
229.875
230.092
230.309
230.525
230.741
230.956
231.169
231.381
231.589
231.795
231.997
232.195
232.388
232.576
232.757
232.93
233.094
233.25
233.394
233.527
233.646
233.75
233.837
233.905
233.953
233.979
233.984
233.953
233.899
233.807
233.678
233.512
233.301
233.043
232.732
232.369
231.946
231.466
230.921
230.313
229.638
228.892
228.086
227.207
226.28
225.298
224.275
223.135
221.548
230.509
224.045
223.835
223.767
223.521
223.244
222.977
222.734
222.561
222.503
222.557
222.785
223.173
223.589
223.9
224.085
224.195
224.26
224.289
224.289
224.272
224.251
224.228
224.196
224.151
224.106
224.072
224.056
224.053
224.067
224.094
224.119
224.147
224.18
224.219
224.263
224.314
224.373
224.44
224.514
224.595
224.684
224.782
224.886
224.999
225.119
225.246
225.381
225.521
225.669
225.822
225.981
226.146
226.315
226.489
226.667
226.85
227.037
227.227
227.422
227.62
227.821
228.025
228.233
228.443
228.657
228.873
229.091
229.311
229.534
229.758
229.983
230.21
230.438
230.666
230.895
231.124
231.353
231.582
231.809
232.035
232.259
232.481
232.7
232.916
233.128
233.335
233.537
233.732
233.92
234.1
234.271
234.431
234.581
234.717
234.839
234.944
235.031
235.098
235.141
235.162
235.158
235.113
235.042
234.93
234.776
234.576
234.328
234.027
233.673
233.256
232.779
232.23
231.617
230.936
230.183
229.38
228.517
227.615
226.593
225.181
230.537
224.076
223.893
223.822
223.572
223.282
222.992
222.735
222.531
222.419
222.405
222.504
222.812
223.274
223.708
224.001
224.163
224.256
224.312
224.336
224.337
224.33
224.321
224.309
224.282
224.247
224.213
224.195
224.19
224.201
224.228
224.254
224.283
224.318
224.357
224.403
224.456
224.517
224.586
224.663
224.747
224.839
224.939
225.047
225.162
225.285
225.416
225.553
225.697
225.847
226.004
226.167
226.335
226.508
226.686
226.868
227.055
227.246
227.441
227.64
227.843
228.05
228.26
228.473
228.689
228.909
229.131
229.356
229.584
229.813
230.045
230.279
230.515
230.752
230.991
231.23
231.47
231.711
231.952
232.193
232.434
232.673
232.911
233.148
233.383
233.615
233.844
234.069
234.29
234.506
234.716
234.919
235.115
235.302
235.479
235.646
235.8
235.941
236.065
236.173
236.259
236.326
236.367
236.385
236.373
236.323
236.24
236.115
235.944
235.724
235.446
235.111
234.705
234.235
233.686
233.065
232.373
231.607
230.792
229.851
228.549
230.607
224.096
223.922
223.837
223.583
223.294
223.002
222.739
222.525
222.387
222.334
222.355
222.534
222.944
223.452
223.857
224.101
224.234
224.312
224.359
224.381
224.389
224.396
224.4
224.393
224.371
224.343
224.324
224.318
224.327
224.354
224.381
224.412
224.447
224.488
224.536
224.591
224.654
224.725
224.804
224.891
224.986
225.089
225.2
225.318
225.444
225.577
225.717
225.864
226.017
226.177
226.343
226.514
226.691
226.872
227.058
227.248
227.443
227.642
227.845
228.053
228.263
228.478
228.696
228.917
229.142
229.37
229.6
229.834
230.07
230.309
230.55
230.793
231.038
231.285
231.533
231.782
232.033
232.285
232.537
232.789
233.042
233.294
233.545
233.795
234.044
234.291
234.536
234.777
235.016
235.25
235.48
235.704
235.923
236.134
236.337
236.532
236.716
236.889
237.05
237.195
237.325
237.436
237.525
237.591
237.631
237.644
237.62
237.557
237.452
237.296
237.091
236.822
236.497
236.094
235.627
235.075
234.445
233.742
232.904
231.728
230.719
224.12
223.93
223.823
223.562
223.276
222.997
222.74
222.527
222.371
222.306
222.296
222.364
222.662
223.169
223.665
223.999
224.191
224.297
224.364
224.405
224.43
224.452
224.474
224.484
224.477
224.458
224.441
224.435
224.443
224.469
224.498
224.531
224.568
224.611
224.66
224.717
224.782
224.856
224.938
225.028
225.125
225.231
225.345
225.466
225.594
225.73
225.873
226.023
226.179
226.342
226.51
226.684
226.864
227.048
227.237
227.43
227.629
227.831
228.038
228.248
228.463
228.681
228.903
229.129
229.358
229.59
229.826
230.065
230.306
230.55
230.797
231.046
231.298
231.552
231.807
232.065
232.323
232.584
232.845
233.107
233.37
233.633
233.896
234.159
234.422
234.684
234.944
235.203
235.459
235.713
235.965
236.212
236.456
236.694
236.928
237.155
237.375
237.587
237.789
237.981
238.162
238.329
238.48
238.615
238.729
238.823
238.891
238.931
238.944
238.916
238.85
238.732
238.563
238.326
238.031
237.644
237.181
236.597
235.882
234.82
230.878
224.126
223.928
223.774
223.496
223.222
222.969
222.736
222.53
222.372
222.289
222.267
222.285
222.466
222.907
223.447
223.868
224.125
224.271
224.36
224.418
224.459
224.495
224.532
224.558
224.565
224.556
224.544
224.539
224.548
224.575
224.606
224.641
224.68
224.725
224.776
224.835
224.903
224.979
225.063
225.156
225.257
225.365
225.482
225.605
225.737
225.875
226.021
226.173
226.332
226.497
226.668
226.845
227.027
227.214
227.405
227.602
227.803
228.008
228.218
228.432
228.649
228.871
229.097
229.326
229.559
229.795
230.035
230.278
230.524
230.773
231.025
231.279
231.536
231.796
232.058
232.322
232.587
232.855
233.124
233.394
233.666
233.938
234.211
234.484
234.758
235.031
235.304
235.577
235.848
236.118
236.386
236.652
236.915
237.176
237.433
237.685
237.933
238.175
238.412
238.641
238.861
239.073
239.275
239.465
239.642
239.804
239.949
240.072
240.173
240.246
240.29
240.302
240.267
240.187
240.06
239.864
239.612
239.221
238.749
237.936
231.072
224.124
223.858
223.672
223.393
223.144
222.924
222.722
222.533
222.379
222.285
222.249
222.254
222.348
222.695
223.233
223.718
224.041
224.234
224.349
224.424
224.478
224.526
224.576
224.618
224.637
224.638
224.632
224.63
224.642
224.669
224.703
224.741
224.782
224.83
224.884
224.945
225.016
225.095
225.182
225.278
225.381
225.493
225.612
225.738
225.872
226.013
226.161
226.316
226.477
226.644
226.818
226.997
227.181
227.37
227.564
227.763
227.967
228.174
228.387
228.603
228.824
229.048
229.277
229.509
229.746
229.986
230.229
230.476
230.726
230.979
231.235
231.494
231.756
232.02
232.287
232.556
232.828
233.101
233.377
233.654
233.932
234.212
234.493
234.775
235.058
235.341
235.625
235.908
236.191
236.474
236.755
237.036
237.315
237.592
237.868
238.14
238.41
238.676
238.938
239.195
239.447
239.693
239.932
240.163
240.384
240.596
240.795
240.982
241.153
241.308
241.442
241.555
241.637
241.69
241.711
241.693
241.636
241.482
241.282
240.823
231.296
224.128
223.752
223.543
223.276
223.056
222.869
222.697
222.531
222.385
222.285
222.241
222.238
222.288
222.545
223.045
223.567
223.95
224.192
224.337
224.428
224.492
224.549
224.609
224.662
224.694
224.704
224.704
224.707
224.723
224.753
224.79
224.831
224.875
224.926
224.983
225.048
225.121
225.203
225.293
225.392
225.498
225.613
225.735
225.864
226
226.144
226.294
226.451
226.615
226.784
226.96
227.141
227.327
227.519
227.715
227.916
228.121
228.332
228.546
228.765
228.988
229.216
229.447
229.682
229.921
230.164
230.411
230.661
230.914
231.171
231.431
231.694
231.96
232.228
232.5
232.774
233.05
233.329
233.61
233.893
234.178
234.464
234.752
235.041
235.331
235.622
235.914
236.206
236.499
236.791
237.084
237.376
237.668
237.958
238.247
238.535
238.821
239.105
239.386
239.664
239.938
240.209
240.475
240.735
240.99
241.238
241.478
241.71
241.932
242.144
242.343
242.528
242.693
242.835
242.956
243.068
243.169
243.226
243.209
243.124
231.509
224.095
223.641
223.426
223.172
222.975
222.811
222.664
222.522
222.391
222.289
222.239
222.228
222.252
222.444
222.894
223.428
223.859
224.148
224.322
224.429
224.503
224.566
224.633
224.695
224.737
224.756
224.764
224.773
224.793
224.827
224.868
224.912
224.961
225.014
225.075
225.143
225.22
225.305
225.398
225.5
225.609
225.726
225.851
225.983
226.122
226.267
226.42
226.579
226.745
226.916
227.094
227.277
227.465
227.658
227.856
228.059
228.267
228.479
228.696
228.917
229.142
229.372
229.605
229.843
230.085
230.33
230.58
230.833
231.089
231.349
231.612
231.879
232.148
232.421
232.696
232.974
233.255
233.538
233.824
234.112
234.402
234.694
234.987
235.282
235.579
235.876
236.175
236.475
236.775
237.076
237.377
237.678
237.978
238.279
238.578
238.877
239.175
239.471
239.766
240.058
240.348
240.634
240.918
241.198
241.474
241.744
242.009
242.268
242.519
242.763
242.997
243.222
243.432
243.624
243.801
243.967
244.122
244.27
244.367
244.458
231.695
224.028
223.534
223.323
223.082
222.903
222.755
222.627
222.507
222.392
222.293
222.238
222.22
222.23
222.376
222.782
223.314
223.781
224.108
224.309
224.429
224.51
224.578
224.65
224.719
224.769
224.797
224.812
224.828
224.854
224.892
224.937
224.986
225.038
225.095
225.16
225.231
225.312
225.4
225.496
225.601
225.713
225.833
225.96
226.095
226.236
226.384
226.539
226.7
226.867
227.041
227.22