/*--------------------------------*- C++ -*----------------------------------*\
| =========                 |                                                 |
| \\      /  F ield         | OpenFOAM: The Open Source CFD Toolbox           |
|  \\    /   O peration     | Version:  2412                                  |
|   \\  /    A nd           | Website:  www.openfoam.com                      |
|    \\/     M anipulation  |                                                 |
\*---------------------------------------------------------------------------*/
FoamFile
{
    version     2.0;
    format      ascii;
    arch        "LSB;label=32;scalar=64";
    class       volVectorField;
    location    "0.072";
    object      U;
}
// * * * * * * * * * * * * * * * * * * * * * * * * * * * * * * * * * * * * * //

dimensions      [0 1 -1 0 0 0 0];

internalField   nonuniform List<vector> 
9831
(
(296.617 119.174 0)
(263.318 -0.928693 0)
(296.821 119.853 0)
(263.532 -0.855084 0)
(246.99 -4.29795 0)
(237.42 -5.20221 0)
(230.991 -6.04135 0)
(227.473 -6.7748 0)
(225.638 -7.4222 0)
(224.642 -7.95088 0)
(223.96 -8.34746 0)
(223.375 -8.68441 0)
(222.789 -8.94288 0)
(222.204 -9.1765 0)
(221.596 -9.41348 0)
(220.91 -9.67585 0)
(220.089 -10.0134 0)
(219.086 -10.443 0)
(217.918 -10.9404 0)
(216.663 -11.4459 0)
(215.409 -11.9042 0)
(214.216 -12.2876 0)
(213.095 -12.5886 0)
(212.033 -12.8216 0)
(211.006 -13.009 0)
(210.002 -13.1775 0)
(209.02 -13.3369 0)
(208.071 -13.4824 0)
(207.165 -13.6001 0)
(206.303 -13.683 0)
(205.48 -13.7313 0)
(204.692 -13.7531 0)
(203.933 -13.757 0)
(203.197 -13.7498 0)
(202.484 -13.7355 0)
(201.791 -13.7167 0)
(201.117 -13.6953 0)
(200.463 -13.6719 0)
(199.829 -13.6472 0)
(199.213 -13.6212 0)
(198.615 -13.5949 0)
(198.034 -13.5687 0)
(197.472 -13.543 0)
(196.928 -13.5179 0)
(196.403 -13.4936 0)
(195.896 -13.4703 0)
(195.408 -13.4488 0)
(194.939 -13.4291 0)
(194.491 -13.4114 0)
(194.066 -13.3953 0)
(193.667 -13.3805 0)
(193.296 -13.3669 0)
(297.026 120.533 0)
(263.745 -0.789824 0)
(247.152 -4.2848 0)
(237.541 -5.20244 0)
(231.075 -6.05914 0)
(227.532 -6.8018 0)
(225.682 -7.45054 0)
(224.675 -7.97621 0)
(223.988 -8.37164 0)
(223.398 -8.70743 0)
(222.808 -8.9652 0)
(222.22 -9.19934 0)
(221.608 -9.43793 0)
(220.917 -9.70395 0)
(220.086 -10.0478 0)
(219.072 -10.485 0)
(217.896 -10.9886 0)
(216.638 -11.4971 0)
(215.387 -11.9556 0)
(214.198 -12.3381 0)
(213.081 -12.6382 0)
(212.022 -12.8711 0)
(210.996 -13.0593 0)
(209.993 -13.2288 0)
(209.012 -13.3889 0)
(208.066 -13.5345 0)
(207.161 -13.6519 0)
(206.299 -13.7344 0)
(205.478 -13.7825 0)
(204.69 -13.8044 0)
(203.93 -13.8086 0)
(203.195 -13.8019 0)
(202.481 -13.7883 0)
(201.788 -13.77 0)
(201.115 -13.7493 0)
(200.461 -13.7265 0)
(199.826 -13.7024 0)
(199.21 -13.6771 0)
(198.612 -13.6515 0)
(198.032 -13.6258 0)
(197.47 -13.6007 0)
(196.926 -13.576 0)
(196.401 -13.5521 0)
(195.894 -13.5291 0)
(195.405 -13.5077 0)
(194.936 -13.488 0)
(194.487 -13.4698 0)
(194.063 -13.4528 0)
(193.664 -13.4367 0)
(193.292 -13.4215 0)
(192.948 -13.4069 0)
(192.634 -13.3931 0)
(297.112 121.042 0)
(263.947 -0.725323 0)
(247.311 -4.26992 0)
(237.66 -5.20256 0)
(231.159 -6.07686 0)
(227.591 -6.82754 0)
(225.727 -7.47706 0)
(224.71 -7.99994 0)
(224.017 -8.39459 0)
(223.422 -8.72933 0)
(222.828 -8.98646 0)
(222.237 -9.22115 0)
(221.622 -9.46145 0)
(220.924 -9.73135 0)
(220.085 -10.0818 0)
(219.06 -10.5266 0)
(217.876 -11.0362 0)
(216.616 -11.5476 0)
(215.366 -12.0063 0)
(214.18 -12.3877 0)
(213.067 -12.687 0)
(212.009 -12.9199 0)
(210.985 -13.1089 0)
(209.982 -13.2794 0)
(209.003 -13.4402 0)
(208.057 -13.586 0)
(207.154 -13.703 0)
(206.294 -13.7851 0)
(205.473 -13.8331 0)
(204.685 -13.8552 0)
(203.926 -13.8597 0)
(203.19 -13.8536 0)
(202.476 -13.8405 0)
(201.783 -13.8229 0)
(201.109 -13.8028 0)
(200.456 -13.7806 0)
(199.821 -13.7572 0)
(199.205 -13.7325 0)
(198.607 -13.7075 0)
(198.026 -13.6825 0)
(197.464 -13.6579 0)
(196.92 -13.6336 0)
(196.395 -13.6101 0)
(195.887 -13.5874 0)
(195.398 -13.5662 0)
(194.928 -13.5464 0)
(194.48 -13.5277 0)
(194.055 -13.5098 0)
(193.656 -13.4925 0)
(193.285 -13.4755 0)
(192.941 -13.459 0)
(192.626 -13.4425 0)
(192.342 -13.4258 0)
(192.089 -13.4083 0)
(297.313 121.733 0)
(264.139 -0.647496 0)
(247.469 -4.25646 0)
(237.779 -5.20287 0)
(231.242 -6.0951 0)
(227.648 -6.85445 0)
(225.769 -7.50485 0)
(224.742 -8.02463 0)
(224.043 -8.41815 0)
(223.444 -8.75168 0)
(222.847 -9.00811 0)
(222.252 -9.24331 0)
(221.633 -9.48524 0)
(220.929 -9.7589 0)
(220.08 -10.1157 0)
(219.045 -10.5679 0)
(217.854 -11.0834 0)
(216.592 -11.5973 0)
(215.345 -12.0561 0)
(214.163 -12.4365 0)
(213.053 -12.7352 0)
(211.998 -12.9681 0)
(210.975 -13.1579 0)
(209.973 -13.3295 0)
(208.996 -13.491 0)
(208.052 -13.6369 0)
(207.15 -13.7537 0)
(206.291 -13.8355 0)
(205.47 -13.8834 0)
(204.683 -13.9057 0)
(203.923 -13.9106 0)
(203.188 -13.9051 0)
(202.474 -13.8926 0)
(201.78 -13.8757 0)
(201.107 -13.8562 0)
(200.453 -13.8347 0)
(199.819 -13.812 0)
(199.203 -13.7879 0)
(198.604 -13.7637 0)
(198.024 -13.7393 0)
(197.462 -13.7152 0)
(196.918 -13.6915 0)
(196.392 -13.6683 0)
(195.884 -13.6461 0)
(195.395 -13.6251 0)
(194.924 -13.6052 0)
(194.476 -13.5861 0)
(194.051 -13.5673 0)
(193.652 -13.5486 0)
(193.28 -13.53 0)
(192.936 -13.5114 0)
(192.621 -13.4923 0)
(192.337 -13.4724 0)
(192.084 -13.4511 0)
(191.865 -13.4278 0)
(191.679 -13.4024 0)
(191.528 -13.3728 0)
(191.412 -13.3405 0)
(191.335 -13.303 0)
(191.308 -13.258 0)
(191.308 -13.2259 0)
(191.326 -13.1695 0)
(191.395 -13.1117 0)
(191.498 -13.0454 0)
(191.636 -12.973 0)
(191.806 -12.8926 0)
(192.007 -12.8042 0)
(192.239 -12.7078 0)
(192.499 -12.6028 0)
(192.785 -12.4895 0)
(193.096 -12.3678 0)
(193.429 -12.2376 0)
(193.783 -12.1 0)
(194.154 -11.9538 0)
(194.542 -11.8017 0)
(194.943 -11.6409 0)
(195.356 -11.4762 0)
(195.778 -11.3023 0)
(196.21 -11.1276 0)
(196.644 -10.9425 0)
(197.088 -10.7605 0)
(197.528 -10.5663 0)
(197.975 -10.3796 0)
(198.414 -10.1787 0)
(198.861 -9.98974 0)
(199.293 -9.78442 0)
(199.733 -9.59529 0)
(200.154 -9.38808 0)
(200.584 -9.20047 0)
(200.991 -8.99381 0)
(201.407 -8.80911 0)
(201.797 -8.60517 0)
(202.196 -8.42449 0)
(202.567 -8.22507 0)
(202.947 -8.04938 0)
(203.298 -7.85599 0)
(203.657 -7.68613 0)
(203.988 -7.50006 0)
(204.328 -7.33677 0)
(204.64 -7.15894 0)
(204.959 -7.00278 0)
(205.253 -6.83372 0)
(205.552 -6.68505 0)
(205.826 -6.52497 0)
(206.105 -6.38397 0)
(206.358 -6.23289 0)
(206.617 -6.09968 0)
(206.853 -5.95774 0)
(207.096 -5.83259 0)
(207.322 -5.70027 0)
(207.553 -5.58332 0)
(207.768 -5.46062 0)
(207.983 -5.35152 0)
(208.179 -5.23803 0)
(208.365 -5.13615 0)
(208.519 -5.03082 0)
(208.645 -4.93301 0)
(208.74 -4.82863 0)
(208.755 -4.74749 0)
(297.441 122.259 0)
(264.328 -0.590233 0)
(247.625 -4.24182 0)
(237.897 -5.20312 0)
(231.324 -6.11329 0)
(227.706 -6.88008 0)
(225.813 -7.53084 0)
(224.776 -8.04778 0)
(224.071 -8.44053 0)
(223.467 -8.77297 0)
(222.866 -9.02873 0)
(222.269 -9.26448 0)
(221.646 -9.50817 0)
(220.936 -9.7858 0)
(220.078 -10.1492 0)
(219.032 -10.6088 0)
(217.834 -11.1299 0)
(216.569 -11.6464 0)
(215.324 -12.1051 0)
(214.146 -12.4845 0)
(213.039 -12.7825 0)
(211.985 -13.0156 0)
(210.964 -13.2062 0)
(209.963 -13.379 0)
(208.986 -13.5412 0)
(208.044 -13.6872 0)
(207.143 -13.8037 0)
(206.285 -13.8853 0)
(205.466 -13.9331 0)
(204.679 -13.9557 0)
(203.919 -13.9611 0)
(203.183 -13.9561 0)
(202.469 -13.9442 0)
(201.775 -13.928 0)
(201.102 -13.9092 0)
(200.448 -13.8884 0)
(199.814 -13.8663 0)
(199.197 -13.843 0)
(198.599 -13.8194 0)
(198.019 -13.7956 0)
(197.456 -13.7721 0)
(196.912 -13.7488 0)
(196.386 -13.7262 0)
(195.878 -13.7043 0)
(195.387 -13.6835 0)
(194.916 -13.6635 0)
(194.467 -13.6439 0)
(194.043 -13.6242 0)
(193.644 -13.6043 0)
(193.271 -13.5841 0)
(192.927 -13.5634 0)
(192.611 -13.5417 0)
(192.327 -13.5184 0)
(192.073 -13.4931 0)
(191.853 -13.4652 0)
(191.667 -13.4346 0)
(191.515 -13.399 0)
(191.398 -13.3601 0)
(191.32 -13.3153 0)
(191.291 -13.2621 0)
(191.289 -13.2182 0)
(191.302 -13.1535 0)
(191.367 -13.0847 0)
(191.467 -13.0065 0)
(191.6 -12.9217 0)
(191.764 -12.8283 0)
(191.96 -12.7261 0)
(192.185 -12.6153 0)
(192.438 -12.4953 0)
(192.717 -12.3666 0)
(193.02 -12.229 0)
(193.345 -12.0826 0)
(193.689 -11.9285 0)
(194.051 -11.7657 0)
(194.428 -11.5965 0)
(194.818 -11.419 0)
(195.221 -11.2371 0)
(195.631 -11.0465 0)
(196.051 -10.8546 0)
(196.473 -10.6532 0)
(196.904 -10.4542 0)
(197.331 -10.2443 0)
(197.766 -10.0411 0)
(198.191 -9.82508 0)
(198.625 -9.62013 0)
(199.043 -9.40052 0)
(199.47 -9.19609 0)
(199.878 -8.97541 0)
(200.294 -8.7733 0)
(200.687 -8.55402 0)
(201.09 -8.35571 0)
(201.466 -8.13999 0)
(201.852 -7.94664 0)
(202.21 -7.73628 0)
(202.577 -7.54886 0)
(202.915 -7.34535 0)
(203.262 -7.1647 0)
(203.581 -6.96928 0)
(203.908 -6.7961 0)
(204.208 -6.60967 0)
(204.516 -6.44446 0)
(204.798 -6.26753 0)
(205.087 -6.1106 0)
(205.35 -5.94335 0)
(205.618 -5.79484 0)
(205.861 -5.63723 0)
(206.11 -5.49724 0)
(206.337 -5.34939 0)
(206.57 -5.21808 0)
(206.787 -5.0804 0)
(207.009 -4.95785 0)
(207.216 -4.83029 0)
(207.424 -4.71614 0)
(207.611 -4.59833 0)
(207.789 -4.4919 0)
(207.934 -4.38309 0)
(208.046 -4.27993 0)
(208.136 -4.17225 0)
(208.147 -4.08845 0)
(208.222 -3.97919 0)
(208.256 -4.02694 0)
(297.508 122.754 0)
(264.506 -0.517202 0)
(247.779 -4.22768 0)
(238.014 -5.20351 0)
(231.405 -6.13198 0)
(227.761 -6.90683 0)
(225.854 -7.55805 0)
(224.807 -8.07186 0)
(224.097 -8.46351 0)
(223.488 -8.79468 0)
(222.884 -9.04974 0)
(222.284 -9.28601 0)
(221.657 -9.53136 0)
(220.94 -9.81284 0)
(220.072 -10.1826 0)
(219.016 -10.6495 0)
(217.811 -11.176 0)
(216.545 -11.6946 0)
(215.303 -12.1534 0)
(214.129 -12.5319 0)
(213.025 -12.8292 0)
(211.974 -13.0625 0)
(210.954 -13.2541 0)
(209.955 -13.428 0)
(208.979 -13.5909 0)
(208.039 -13.7371 0)
(207.139 -13.8534 0)
(206.282 -13.9348 0)
(205.463 -13.9826 0)
(204.677 -14.0054 0)
(203.917 -14.0113 0)
(203.181 -14.0069 0)
(202.467 -13.9958 0)
(201.773 -13.9802 0)
(201.1 -13.9621 0)
(200.446 -13.942 0)
(199.812 -13.9206 0)
(199.195 -13.8981 0)
(198.597 -13.8752 0)
(198.017 -13.8521 0)
(197.454 -13.8292 0)
(196.91 -13.8065 0)
(196.384 -13.7843 0)
(195.874 -13.7629 0)
(195.384 -13.7423 0)
(194.912 -13.7223 0)
(194.463 -13.7022 0)
(194.038 -13.6816 0)
(193.639 -13.6605 0)
(193.266 -13.6387 0)
(192.921 -13.6159 0)
(192.605 -13.5916 0)
(192.319 -13.5652 0)
(192.066 -13.5361 0)
(191.844 -13.5037 0)
(191.657 -13.4678 0)
(191.502 -13.4263 0)
(191.382 -13.3808 0)
(191.302 -13.3287 0)
(191.271 -13.2679 0)
(191.265 -13.2123 0)
(191.272 -13.1399 0)
(191.332 -13.0602 0)
(191.425 -12.9709 0)
(191.552 -12.8741 0)
(191.71 -12.7679 0)
(191.899 -12.6525 0)
(192.116 -12.5278 0)
(192.36 -12.3934 0)
(192.63 -12.2499 0)
(192.922 -12.0971 0)
(193.236 -11.9352 0)
(193.57 -11.7653 0)
(193.92 -11.5866 0)
(194.285 -11.4012 0)
(194.663 -11.2076 0)
(195.053 -11.0093 0)
(195.449 -10.8029 0)
(195.856 -10.5947 0)
(196.265 -10.3776 0)
(196.681 -10.1625 0)
(197.094 -9.93748 0)
(197.515 -9.71846 0)
(197.926 -9.48804 0)
(198.346 -9.2678 0)
(198.75 -9.03448 0)
(199.163 -8.81536 0)
(199.556 -8.58173 0)
(199.959 -8.36565 0)
(200.338 -8.13418 0)
(200.727 -7.92268 0)
(201.09 -7.69553 0)
(201.463 -7.48984 0)
(201.807 -7.26879 0)
(202.162 -7.06988 0)
(202.487 -6.85642 0)
(202.822 -6.66513 0)
(203.129 -6.46049 0)
(203.445 -6.2775 0)
(203.733 -6.08254 0)
(204.031 -5.90832 0)
(204.302 -5.72354 0)
(204.58 -5.55836 0)
(204.833 -5.3839 0)
(205.091 -5.22788 0)
(205.325 -5.06369 0)
(205.565 -4.91686 0)
(205.783 -4.76302 0)
(206.008 -4.62548 0)
(206.216 -4.48233 0)
(206.431 -4.35406 0)
(206.63 -4.22149 0)
(206.83 -4.10218 0)
(207.011 -3.97984 0)
(207.182 -3.86882 0)
(207.32 -3.7567 0)
(207.412 -3.6482 0)
(207.501 -3.53695 0)
(207.506 -3.45212 0)
(207.58 -3.33937 0)
(207.614 -3.37861 0)
(297.671 123.379 0)
(264.677 -0.438044 0)
(247.932 -4.21348 0)
(238.13 -5.20391 0)
(231.485 -6.15063 0)
(227.817 -6.9323 0)
(225.896 -7.58347 0)
(224.84 -8.09443 0)
(224.125 -8.48533 0)
(223.511 -8.81537 0)
(222.903 -9.06977 0)
(222.3 -9.30659 0)
(221.669 -9.55375 0)
(220.945 -9.8393 0)
(220.068 -10.2157 0)
(219.002 -10.6897 0)
(217.79 -11.2215 0)
(216.523 -11.7423 0)
(215.283 -12.2009 0)
(214.112 -12.5784 0)
(213.011 -12.8753 0)
(211.962 -13.1088 0)
(210.943 -13.3013 0)
(209.944 -13.4763 0)
(208.97 -13.64 0)
(208.031 -13.7864 0)
(207.133 -13.9026 0)
(206.277 -13.9837 0)
(205.459 -14.0316 0)
(204.672 -14.0547 0)
(203.913 -14.0611 0)
(203.176 -14.0574 0)
(202.462 -14.0469 0)
(201.768 -14.032 0)
(201.095 -14.0146 0)
(200.441 -13.9952 0)
(199.807 -13.9746 0)
(199.19 -13.9527 0)
(198.592 -13.9306 0)
(198.011 -13.9081 0)
(197.449 -13.8859 0)
(196.904 -13.8637 0)
(196.377 -13.842 0)
(195.867 -13.821 0)
(195.376 -13.8007 0)
(194.904 -13.7806 0)
(194.454 -13.76 0)
(194.029 -13.7386 0)
(193.629 -13.7162 0)
(193.256 -13.6928 0)
(192.91 -13.668 0)
(192.594 -13.6411 0)
(192.307 -13.6114 0)
(192.053 -13.5784 0)
(191.83 -13.5414 0)
(191.641 -13.5003 0)
(191.485 -13.4528 0)
(191.363 -13.4009 0)
(191.28 -13.3416 0)
(191.247 -13.2727 0)
(191.237 -13.2054 0)
(191.239 -13.1255 0)
(191.293 -13.0345 0)
(191.382 -12.9337 0)
(191.503 -12.8247 0)
(191.655 -12.7057 0)
(191.836 -12.5768 0)
(192.046 -12.4381 0)
(192.281 -12.2892 0)
(192.542 -12.1307 0)
(192.825 -11.9624 0)
(193.129 -11.7849 0)
(193.452 -11.5989 0)
(193.791 -11.4042 0)
(194.145 -11.2025 0)
(194.51 -10.9927 0)
(194.887 -10.778 0)
(195.271 -10.5555 0)
(195.664 -10.3309 0)
(196.059 -10.0982 0)
(196.462 -9.86702 0)
(196.861 -9.62689 0)
(197.268 -9.39221 0)
(197.665 -9.1474 0)
(198.069 -8.91208 0)
(198.459 -8.66519 0)
(198.858 -8.43167 0)
(199.236 -8.18532 0)
(199.625 -7.95564 0)
(199.99 -7.7123 0)
(200.365 -7.48808 0)
(200.713 -7.24991 0)
(201.073 -7.0324 0)
(201.403 -6.80117 0)
(201.744 -6.59136 0)
(202.056 -6.36853 0)
(202.379 -6.16725 0)
(202.672 -5.95401 0)
(202.976 -5.76188 0)
(203.252 -5.55906 0)
(203.538 -5.37652 0)
(203.798 -5.18456 0)
(204.065 -5.01183 0)
(204.306 -4.83086 0)
(204.554 -4.66801 0)
(204.777 -4.49793 0)
(205.007 -4.34494 0)
(205.216 -4.18581 0)
(205.432 -4.04271 0)
(205.632 -3.8948 0)
(205.838 -3.76154 0)
(206.029 -3.62471 0)
(206.221 -3.50103 0)
(206.393 -3.37483 0)
(206.557 -3.26033 0)
(206.687 -3.14523 0)
(206.756 -3.03239 0)
(206.846 -2.91927 0)
(206.849 -2.8307 0)
(206.922 -2.71599 0)
(206.956 -2.75029 0)
(297.771 123.875 0)
(264.844 -0.37731 0)
(248.083 -4.19973 0)
(238.245 -5.20444 0)
(231.564 -6.16977 0)
(227.87 -6.95882 0)
(225.936 -7.61007 0)
(224.871 -8.11792 0)
(224.15 -8.50774 0)
(223.532 -8.83648 0)
(222.92 -9.09019 0)
(222.314 -9.32753 0)
(221.679 -9.57641 0)
(220.948 -9.86592 0)
(220.061 -10.2487 0)
(218.985 -10.7297 0)
(217.768 -11.2666 0)
(216.5 -11.7893 0)
(215.263 -12.2477 0)
(214.096 -12.6243 0)
(212.998 -12.9207 0)
(211.951 -13.1545 0)
(210.933 -13.3481 0)
(209.936 -13.5242 0)
(208.963 -13.6887 0)
(208.026 -13.8353 0)
(207.129 -13.9513 0)
(206.274 -14.0324 0)
(205.457 -14.0803 0)
(204.67 -14.1038 0)
(203.911 -14.1108 0)
(203.174 -14.1077 0)
(202.46 -14.0979 0)
(201.766 -14.0838 0)
(201.093 -14.067 0)
(200.439 -14.0484 0)
(199.805 -14.0285 0)
(199.188 -14.0075 0)
(198.59 -13.9861 0)
(198.009 -13.9644 0)
(197.447 -13.9427 0)
(196.902 -13.9212 0)
(196.374 -13.9001 0)
(195.864 -13.8796 0)
(195.372 -13.8596 0)
(194.9 -13.8394 0)
(194.45 -13.8183 0)
(194.024 -13.796 0)
(193.624 -13.7725 0)
(193.25 -13.7476 0)
(192.903 -13.7208 0)
(192.586 -13.6913 0)
(192.298 -13.6585 0)
(192.042 -13.6218 0)
(191.819 -13.5804 0)
(191.627 -13.5342 0)
(191.468 -13.481 0)
(191.343 -13.4226 0)
(191.257 -13.3563 0)
(191.219 -13.2798 0)
(191.204 -13.201 0)
(191.2 -13.1141 0)
(191.248 -13.0121 0)
(191.33 -12.9005 0)
(191.444 -12.78 0)
(191.587 -12.6487 0)
(191.759 -12.507 0)
(191.959 -12.3548 0)
(192.185 -12.1921 0)
(192.435 -12.0194 0)
(192.707 -11.8365 0)
(192.999 -11.6441 0)
(193.309 -11.443 0)
(193.635 -11.233 0)
(193.976 -11.0159 0)
(194.327 -10.7907 0)
(194.69 -10.5604 0)
(195.059 -10.3227 0)
(195.438 -10.0827 0)
(195.818 -9.83512 0)
(196.205 -9.58868 0)
(196.589 -9.3342 0)
(196.98 -9.08463 0)
(197.362 -8.82612 0)
(197.752 -8.57641 0)
(198.126 -8.31655 0)
(198.51 -8.06926 0)
(198.873 -7.81069 0)
(199.247 -7.56792 0)
(199.597 -7.31312 0)
(199.958 -7.07656 0)
(200.293 -6.82768 0)
(200.638 -6.59862 0)
(200.955 -6.3574 0)
(201.283 -6.13687 0)
(201.582 -5.90477 0)
(201.892 -5.69357 0)
(202.173 -5.47175 0)
(202.466 -5.27049 0)
(202.73 -5.05976 0)
(203.005 -4.86884 0)
(203.254 -4.66964 0)
(203.511 -4.48927 0)
(203.742 -4.30167 0)
(203.98 -4.13187 0)
(204.193 -3.95575 0)
(204.415 -3.79646 0)
(204.614 -3.63186 0)
(204.822 -3.48303 0)
(205.014 -3.33014 0)
(205.212 -3.1917 0)
(205.396 -3.05031 0)
(205.581 -2.92197 0)
(205.746 -2.7915 0)
(205.904 -2.67342 0)
(206.027 -2.55384 0)
(206.077 -2.43748 0)
(206.166 -2.3218 0)
(206.168 -2.23001 0)
(206.239 -2.1131 0)
(206.272 -2.1419 0)
(297.79 124.291 0)
(265.003 -0.312722 0)
(248.232 -4.18496 0)
(238.359 -5.20503 0)
(231.643 -6.18889 0)
(227.924 -6.98406 0)
(225.977 -7.63492 0)
(224.903 -8.13993 0)
(224.177 -8.52904 0)
(223.554 -8.8566 0)
(222.939 -9.10966 0)
(222.33 -9.34757 0)
(221.69 -9.5983 0)
(220.953 -9.89199 0)
(220.056 -10.2814 0)
(218.971 -10.7694 0)
(217.748 -11.3112 0)
(216.479 -11.8356 0)
(215.244 -12.2938 0)
(214.08 -12.6696 0)
(212.985 -12.9655 0)
(211.939 -13.1997 0)
(210.922 -13.3943 0)
(209.926 -13.5716 0)
(208.954 -13.7368 0)
(208.018 -13.8836 0)
(207.123 -13.9996 0)
(206.269 -14.0805 0)
(205.452 -14.1286 0)
(204.666 -14.1525 0)
(203.906 -14.16 0)
(203.17 -14.1576 0)
(202.455 -14.1485 0)
(201.762 -14.1351 0)
(201.088 -14.1191 0)
(200.435 -14.1013 0)
(199.8 -14.0821 0)
(199.184 -14.0619 0)
(198.585 -14.0412 0)
(198.004 -14.0202 0)
(197.441 -13.9992 0)
(196.896 -13.9783 0)
(196.368 -13.9578 0)
(195.856 -13.9378 0)
(195.363 -13.918 0)
(194.891 -13.8977 0)
(194.441 -13.8761 0)
(194.015 -13.853 0)
(193.614 -13.8284 0)
(193.239 -13.8019 0)
(192.892 -13.7731 0)
(192.573 -13.741 0)
(192.285 -13.7049 0)
(192.027 -13.6644 0)
(191.802 -13.6186 0)
(191.608 -13.5672 0)
(191.446 -13.5083 0)
(191.318 -13.4435 0)
(191.229 -13.3702 0)
(191.187 -13.2861 0)
(191.168 -13.1953 0)
(191.157 -13.102 0)
(191.199 -12.9881 0)
(191.275 -12.8656 0)
(191.382 -12.7333 0)
(191.517 -12.5894 0)
(191.682 -12.4347 0)
(191.873 -12.2689 0)
(192.089 -12.0921 0)
(192.328 -11.9049 0)
(192.589 -11.7072 0)
(192.87 -11.4997 0)
(193.168 -11.2832 0)
(193.481 -11.0578 0)
(193.808 -10.8251 0)
(194.146 -10.5844 0)
(194.495 -10.3385 0)
(194.85 -10.0854 0)
(195.214 -9.82987 0)
(195.58 -9.56739 0)
(195.952 -9.30575 0)
(196.321 -9.03691 0)
(196.696 -8.77257 0)
(197.063 -8.50041 0)
(197.437 -8.23652 0)
(197.796 -7.96383 0)
(198.164 -7.70305 0)
(198.513 -7.4325 0)
(198.871 -7.17703 0)
(199.206 -6.91111 0)
(199.553 -6.6627 0)
(199.872 -6.40353 0)
(200.204 -6.16349 0)
(200.506 -5.91282 0)
(200.821 -5.68217 0)
(201.106 -5.44141 0)
(201.403 -5.22095 0)
(201.671 -4.99121 0)
(201.951 -4.78151 0)
(202.203 -4.56357 0)
(202.466 -4.36498 0)
(202.702 -4.15922 0)
(202.948 -3.97189 0)
(203.168 -3.77833 0)
(203.396 -3.60224 0)
(203.599 -3.42073 0)
(203.811 -3.25574 0)
(204.001 -3.08626 0)
(204.2 -2.93227 0)
(204.383 -2.77496 0)
(204.574 -2.63183 0)
(204.749 -2.48638 0)
(204.927 -2.3538 0)
(205.085 -2.21957 0)
(205.235 -2.09815 0)
(205.35 -1.97386 0)
(205.384 -1.85536 0)
(205.471 -1.73677 0)
(205.47 -1.64304 0)
(205.537 -1.52396 0)
(205.568 -1.54647 0)
(297.899 124.839 0)
(265.152 -0.231167 0)
(248.38 -4.17094 0)
(238.473 -5.20578 0)
(231.72 -6.2085 0)
(227.976 -7.0103 0)
(226.016 -7.66089 0)
(224.933 -8.16283 0)
(224.201 -8.55091 0)
(223.574 -8.87715 0)
(222.955 -9.12952 0)
(222.343 -9.36796 0)
(221.699 -9.62046 0)
(220.954 -9.9182 0)
(220.048 -10.314 0)
(218.954 -10.8088 0)
(217.726 -11.3552 0)
(216.457 -11.8813 0)
(215.225 -12.3393 0)
(214.064 -12.7142 0)
(212.972 -13.0098 0)
(211.928 -13.2443 0)
(210.912 -13.44 0)
(209.917 -13.6185 0)
(208.947 -13.7845 0)
(208.013 -13.9316 0)
(207.119 -14.0475 0)
(206.267 -14.1284 0)
(205.45 -14.1767 0)
(204.664 -14.201 0)
(203.904 -14.2091 0)
(203.168 -14.2074 0)
(202.453 -14.199 0)
(201.76 -14.1864 0)
(201.087 -14.1712 0)
(200.433 -14.1541 0)
(199.798 -14.1358 0)
(199.182 -14.1163 0)
(198.583 -14.0965 0)
(198.002 -14.0762 0)
(197.439 -14.0559 0)
(196.893 -14.0357 0)
(196.365 -14.0159 0)
(195.853 -13.9964 0)
(195.359 -13.9769 0)
(194.886 -13.9565 0)
(194.436 -13.9345 0)
(194.009 -13.9107 0)
(193.607 -13.8849 0)
(193.232 -13.857 0)
(192.883 -13.8262 0)
(192.564 -13.7917 0)
(192.274 -13.7525 0)
(192.015 -13.7084 0)
(191.787 -13.6583 0)
(191.59 -13.602 0)
(191.425 -13.5376 0)
(191.293 -13.4665 0)
(191.2 -13.3863 0)
(191.152 -13.2947 0)
(191.127 -13.1942 0)
(191.11 -13.0922 0)
(191.144 -12.9684 0)
(191.212 -12.8359 0)
(191.31 -12.6924 0)
(191.436 -12.5366 0)
(191.59 -12.3695 0)
(191.77 -12.1909 0)
(191.975 -12.0009 0)
(192.202 -11.8001 0)
(192.451 -11.5885 0)
(192.718 -11.3668 0)
(193.002 -11.1359 0)
(193.301 -10.896 0)
(193.613 -10.6486 0)
(193.936 -10.3933 0)
(194.27 -10.1327 0)
(194.609 -9.86521 0)
(194.957 -9.5951 0)
(195.306 -9.31858 0)
(195.662 -9.04264 0)
(196.015 -8.76026 0)
(196.374 -8.48197 0)
(196.724 -8.19688 0)
(197.082 -7.91952 0)
(197.425 -7.63461 0)
(197.777 -7.36095 0)
(198.11 -7.07892 0)
(198.453 -6.81123 0)
(198.773 -6.53456 0)
(199.105 -6.27463 0)
(199.41 -6.00543 0)
(199.727 -5.75461 0)
(200.016 -5.49461 0)
(200.316 -5.25394 0)
(200.588 -5.00452 0)
(200.872 -4.77479 0)
(201.128 -4.53705 0)
(201.396 -4.31881 0)
(201.636 -4.09351 0)
(201.888 -3.8871 0)
(202.114 -3.67459 0)
(202.349 -3.48013 0)
(202.559 -3.2804 0)
(202.777 -3.09781 0)
(202.971 -2.91069 0)
(203.173 -2.73981 0)
(203.354 -2.56525 0)
(203.546 -2.40591 0)
(203.72 -2.24399 0)
(203.903 -2.09599 0)
(204.071 -1.9463 0)
(204.242 -1.80929 0)
(204.393 -1.67129 0)
(204.536 -1.54602 0)
(204.643 -1.41712 0)
(204.666 -1.29667 0)
(204.749 -1.17469 0)
(204.743 -1.07933 0)
(204.805 -0.957873 0)
(204.833 -0.974006 0)
(297.947 125.293 0)
(265.296 -0.160378 0)
(248.528 -4.15694 0)
(238.586 -5.20667 0)
(231.796 -6.22812 0)
(228.028 -7.03527 0)
(226.056 -7.68515 0)
(224.964 -8.18431 0)
(224.227 -8.57169 0)
(223.595 -8.89673 0)
(222.973 -9.14846 0)
(222.358 -9.38749 0)
(221.709 -9.64191 0)
(220.958 -9.94391 0)
(220.043 -10.3463 0)
(218.939 -10.8479 0)
(217.706 -11.3988 0)
(216.436 -11.9265 0)
(215.206 -12.3841 0)
(214.048 -12.7582 0)
(212.958 -13.0535 0)
(211.916 -13.2885 0)
(210.901 -13.4852 0)
(209.907 -13.6649 0)
(208.939 -13.8317 0)
(208.006 -13.979 0)
(207.113 -14.0949 0)
(206.262 -14.1759 0)
(205.446 -14.2243 0)
(204.66 -14.2491 0)
(203.9 -14.2578 0)
(203.164 -14.2568 0)
(202.449 -14.2492 0)
(201.755 -14.2374 0)
(201.082 -14.2229 0)
(200.429 -14.2066 0)
(199.794 -14.1891 0)
(199.177 -14.1705 0)
(198.578 -14.1514 0)
(197.997 -14.1318 0)
(197.434 -14.1123 0)
(196.887 -14.0927 0)
(196.358 -14.0736 0)
(195.845 -14.0546 0)
(195.351 -14.0354 0)
(194.877 -14.0149 0)
(194.426 -13.9925 0)
(193.999 -13.9678 0)
(193.597 -13.941 0)
(193.22 -13.9116 0)
(192.871 -13.8788 0)
(192.55 -13.8417 0)
(192.258 -13.7995 0)
(191.997 -13.7516 0)
(191.767 -13.6972 0)
(191.567 -13.636 0)
(191.399 -13.566 0)
(191.263 -13.4886 0)
(191.166 -13.4015 0)
(191.112 -13.3024 0)
(191.082 -13.1928 0)
(191.059 -13.0798 0)
(191.085 -12.9477 0)
(191.146 -12.8043 0)
(191.236 -12.6488 0)
(191.353 -12.4811 0)
(191.497 -12.3015 0)
(191.667 -12.1098 0)
(191.861 -11.9063 0)
(192.077 -11.6915 0)
(192.312 -11.4657 0)
(192.567 -11.2296 0)
(192.838 -10.9841 0)
(193.123 -10.7295 0)
(193.421 -10.4673 0)
(193.729 -10.1972 0)
(194.047 -9.92179 0)
(194.371 -9.63971 0)
(194.703 -9.35492 0)
(195.036 -9.06425 0)
(195.376 -8.774 0)
(195.712 -8.47807 0)
(196.055 -8.18595 0)
(196.389 -7.88799 0)
(196.73 -7.59736 0)
(197.058 -7.30037 0)
(197.393 -7.01412 0)
(197.711 -6.72085 0)
(198.038 -6.44133 0)
(198.342 -6.15426 0)
(198.658 -5.88331 0)
(198.948 -5.60455 0)
(199.25 -5.34354 0)
(199.524 -5.07477 0)
(199.811 -4.82473 0)
(200.069 -4.5673 0)
(200.34 -4.329 0)
(200.582 -4.08396 0)
(200.837 -3.85791 0)
(201.065 -3.62597 0)
(201.305 -3.41246 0)
(201.519 -3.19392 0)
(201.743 -2.99301 0)
(201.941 -2.7878 0)
(202.149 -2.59938 0)
(202.332 -2.40729 0)
(202.525 -2.23111 0)
(202.697 -2.05206 0)
(202.88 -1.88791 0)
(203.046 -1.7219 0)
(203.221 -1.5695 0)
(203.381 -1.41606 0)
(203.544 -1.27504 0)
(203.688 -1.13379 0)
(203.822 -1.00474 0)
(203.922 -0.871951 0)
(203.937 -0.749941 0)
(204.013 -0.624593 0)
(204.002 -0.528083 0)
(204.058 -0.404481 0)
(204.084 -0.414283 0)
(297.989 125.709 0)
(265.433 -0.0917014 0)
(248.674 -4.14332 0)
(238.698 -5.20777 0)
(231.871 -6.24822 0)
(228.077 -7.06118 0)
(226.093 -7.71049 0)
(224.993 -8.20664 0)
(224.251 -8.59302 0)
(223.615 -8.91672 0)
(222.99 -9.16779 0)
(222.371 -9.40737 0)
(221.717 -9.66363 0)
(220.959 -9.96977 0)
(220.034 -10.3786 0)
(218.922 -10.8867 0)
(217.683 -11.4419 0)
(216.414 -11.971 0)
(215.187 -12.4283 0)
(214.033 -12.8016 0)
(212.946 -13.0967 0)
(211.905 -13.3321 0)
(210.892 -13.5301 0)
(209.899 -13.7109 0)
(208.932 -13.8785 0)
(208.001 -14.0261 0)
(207.11 -14.142 0)
(206.259 -14.223 0)
(205.444 -14.2718 0)
(204.658 -14.297 0)
(203.898 -14.3064 0)
(203.162 -14.3062 0)
(202.447 -14.2993 0)
(201.754 -14.2883 0)
(201.08 -14.2746 0)
(200.427 -14.2591 0)
(199.792 -14.2425 0)
(199.175 -14.2247 0)
(198.577 -14.2065 0)
(197.995 -14.1877 0)
(197.432 -14.1689 0)
(196.885 -14.1502 0)
(196.355 -14.1317 0)
(195.841 -14.1133 0)
(195.347 -14.0944 0)
(194.873 -14.0738 0)
(194.421 -14.051 0)
(193.993 -14.0257 0)
(193.59 -13.9979 0)
(193.212 -13.9671 0)
(192.862 -13.9324 0)
(192.539 -13.8929 0)
(192.246 -13.8477 0)
(191.983 -13.7964 0)
(191.75 -13.738 0)
(191.546 -13.6721 0)
(191.374 -13.5968 0)
(191.233 -13.5134 0)
(191.13 -13.4196 0)
(191.07 -13.3132 0)
(191.033 -13.1955 0)
(191.003 -13.0719 0)
(191.02 -12.9315 0)
(191.072 -12.7787 0)
(191.152 -12.6124 0)
(191.258 -12.4334 0)
(191.391 -12.242 0)
(191.549 -12.0381 0)
(191.73 -11.8221 0)
(191.932 -11.5944 0)
(192.154 -11.3554 0)
(192.394 -11.1059 0)
(192.65 -10.8468 0)
(192.919 -10.5785 0)
(193.201 -10.3025 0)
(193.492 -10.0187 0)
(193.794 -9.72948 0)
(194.101 -9.43386 0)
(194.416 -9.13542 0)
(194.732 -8.83155 0)
(195.054 -8.52791 0)
(195.373 -8.21928 0)
(195.699 -7.91418 0)
(196.016 -7.60411 0)
(196.34 -7.30095 0)
(196.651 -6.99251 0)
(196.97 -6.69428 0)
(197.271 -6.39025 0)
(197.581 -6.09935 0)
(197.87 -5.80222 0)
(198.171 -5.52053 0)
(198.446 -5.2324 0)
(198.733 -4.96133 0)
(198.993 -4.68384 0)
(199.266 -4.42444 0)
(199.51 -4.15892 0)
(199.768 -3.91194 0)
(199.997 -3.65943 0)
(200.241 -3.42538 0)
(200.457 -3.18655 0)
(200.685 -2.96568 0)
(200.888 -2.74081 0)
(201.102 -2.53318 0)
(201.29 -2.32218 0)
(201.488 -2.12763 0)
(201.661 -1.93028 0)
(201.845 -1.74854 0)
(202.009 -1.56471 0)
(202.183 -1.39552 0)
(202.341 -1.22515 0)
(202.508 -1.06814 0)
(202.661 -0.910722 0)
(202.817 -0.765511 0)
(202.954 -0.620875 0)
(203.08 -0.487667 0)
(203.174 -0.351164 0)
(203.18 -0.227223 0)
(203.251 -0.098349 0)
(203.234 -0.000549912 0)
(203.285 0.125129 0)
(203.309 0.121506 0)
(297.987 126.117 0)
(265.562 -0.0194197 0)
(248.821 -4.12934 0)
(238.81 -5.20902 0)
(231.945 -6.26834 0)
(228.127 -7.08582 0)
(226.132 -7.73415 0)
(225.023 -8.22758 0)
(224.276 -8.61331 0)
(223.636 -8.93579 0)
(223.007 -9.18624 0)
(222.385 -9.42643 0)
(221.727 -9.68467 0)
(220.961 -9.99515 0)
(220.027 -10.4105 0)
(218.906 -10.9251 0)
(217.663 -11.4846 0)
(216.393 -12.0149 0)
(215.168 -12.4718 0)
(214.017 -12.8444 0)
(212.932 -13.1393 0)
(211.893 -13.3753 0)
(210.881 -13.5744 0)
(209.889 -13.7564 0)
(208.923 -13.9248 0)
(207.993 -14.0727 0)
(207.104 -14.1887 0)
(206.254 -14.2698 0)
(205.439 -14.3188 0)
(204.654 -14.3446 0)
(203.894 -14.3547 0)
(203.158 -14.3552 0)
(202.443 -14.3491 0)
(201.749 -14.3388 0)
(201.076 -14.3259 0)
(200.423 -14.3113 0)
(199.788 -14.2955 0)
(199.171 -14.2786 0)
(198.572 -14.2612 0)
(197.99 -14.2432 0)
(197.426 -14.2252 0)
(196.879 -14.2072 0)
(196.347 -14.1895 0)
(195.833 -14.1717 0)
(195.338 -14.153 0)
(194.863 -14.1323 0)
(194.411 -14.1091 0)
(193.983 -14.0831 0)
(193.578 -14.0542 0)
(193.2 -14.022 0)
(192.848 -13.9854 0)
(192.524 -13.9435 0)
(192.229 -13.8953 0)
(191.963 -13.8405 0)
(191.727 -13.7779 0)
(191.52 -13.7072 0)
(191.343 -13.6266 0)
(191.198 -13.5371 0)
(191.09 -13.4366 0)
(191.024 -13.3232 0)
(190.98 -13.1975 0)
(190.943 -13.0607 0)
(190.95 -12.9156 0)
(190.994 -12.7502 0)
(191.065 -12.5729 0)
(191.162 -12.3826 0)
(191.284 -12.1792 0)
(191.43 -11.9627 0)
(191.599 -11.7338 0)
(191.788 -11.4929 0)
(191.996 -11.2404 0)
(192.222 -10.9773 0)
(192.463 -10.7042 0)
(192.717 -10.422 0)
(192.983 -10.132 0)
(193.258 -9.83431 0)
(193.543 -9.5311 0)
(193.834 -9.22175 0)
(194.132 -8.90953 0)
(194.431 -8.59233 0)
(194.736 -8.27529 0)
(195.038 -7.95392 0)
(195.346 -7.63591 0)
(195.646 -7.31379 0)
(195.953 -6.9983 0)
(196.247 -6.67856 0)
(196.549 -6.36862 0)
(196.833 -6.0541 0)
(197.128 -5.75221 0)
(197.401 -5.4454 0)
(197.685 -5.15349 0)
(197.945 -4.85646 0)
(198.217 -4.57595 0)
(198.462 -4.29034 0)
(198.72 -4.02226 0)
(198.95 -3.74935 0)
(199.194 -3.49444 0)
(199.41 -3.2352 0)
(199.64 -2.99392 0)
(199.844 -2.74897 0)
(200.06 -2.52153 0)
(200.251 -2.29109 0)
(200.453 -2.07747 0)
(200.63 -1.86141 0)
(200.818 -1.66142 0)
(200.982 -1.45947 0)
(201.156 -1.27278 0)
(201.31 -1.08477 0)
(201.475 -0.911046 0)
(201.625 -0.736825 0)
(201.784 -0.575647 0)
(201.929 -0.414663 0)
(202.078 -0.265642 0)
(202.207 -0.117979 0)
(202.324 0.0192261 0)
(202.411 0.158993 0)
(202.411 0.284757 0)
(202.477 0.416749 0)
(202.455 0.515643 0)
(202.501 0.642866 0)
(202.514 0.64527 0)
(298.033 126.588 0)
(265.683 0.0582647 0)
(248.967 -4.11597 0)
(238.921 -5.21054 0)
(232.018 -6.28895 0)
(228.175 -7.11135 0)
(226.168 -7.75886 0)
(225.051 -8.24936 0)
(224.3 -8.63413 0)
(223.655 -8.95526 0)
(223.023 -9.20508 0)
(222.397 -9.44585 0)
(221.734 -9.70598 0)
(220.961 -10.0207 0)
(220.017 -10.4424 0)
(218.888 -10.9633 0)
(217.641 -11.5267 0)
(216.372 -12.0582 0)
(215.15 -12.5148 0)
(214.002 -12.8867 0)
(212.92 -13.1815 0)
(211.882 -13.4181 0)
(210.871 -13.6183 0)
(209.881 -13.8015 0)
(208.917 -13.9708 0)
(207.989 -14.119 0)
(207.1 -14.2351 0)
(206.252 -14.3163 0)
(205.437 -14.3657 0)
(204.652 -14.3921 0)
(203.892 -14.4028 0)
(203.156 -14.4041 0)