/*--------------------------------*- C++ -*----------------------------------*\
| =========                 |                                                 |
| \\      /  F ield         | OpenFOAM: The Open Source CFD Toolbox           |
|  \\    /   O peration     | Version:  2412                                  |
|   \\  /    A nd           | Website:  www.openfoam.com                      |
|    \\/     M anipulation  |                                                 |
\*---------------------------------------------------------------------------*/
FoamFile
{
    version     2.0;
    format      ascii;
    arch        "LSB;label=32;scalar=64";
    class       volVectorField;
    location    "0.111";
    object      U;
}
// * * * * * * * * * * * * * * * * * * * * * * * * * * * * * * * * * * * * * //

dimensions      [0 1 -1 0 0 0 0];

internalField   nonuniform List<vector> 
9763
(
(179.664 -30.3139 0)
(169.181 -34.4448 0)
(179.886 -30.3374 0)
(168.655 -34.339 0)
(180.171 -30.4304 0)
(168.561 -34.4855 0)
(180.51 -30.4898 0)
(168.675 -34.5924 0)
(180.869 -30.5879 0)
(169.015 -34.6749 0)
(181.247 -30.6731 0)
(169.561 -34.8469 0)
(181.627 -30.7658 0)
(170.246 -34.9847 0)
(181.994 -30.8634 0)
(170.942 -35.1829 0)
(182.344 -30.9415 0)
(171.619 -35.3382 0)
(182.665 -31.0366 0)
(172.255 -35.5231 0)
(182.971 -31.1108 0)
(172.872 -35.6831 0)
(183.256 -31.2097 0)
(173.471 -35.8584 0)
(183.542 -31.281 0)
(174.065 -36.0238 0)
(183.821 -31.3821 0)
(174.65 -36.1894 0)
(184.116 -31.4605 0)
(175.229 -36.3569 0)
(184.422 -31.5661 0)
(175.806 -36.5182 0)
(184.757 -31.6586 0)
(176.383 -36.6886 0)
(185.117 -31.7719 0)
(176.972 -36.851 0)
(185.513 -31.8828 0)
(177.577 -37.0274 0)
(185.941 -32.0074 0)
(178.215 -37.1999 0)
(186.402 -32.1358 0)
(178.89 -37.3886 0)
(186.887 -32.2702 0)
(179.618 -37.5794 0)
(187.381 -32.4086 0)
(180.403 -37.7871 0)
(187.866 -32.5429 0)
(181.255 -38.002 0)
(188.319 -32.6761 0)
(182.174 -38.2313 0)
(188.722 -32.7948 0)
(183.155 -38.4694 0)
(189.06 -32.9077 0)
(184.184 -38.7112 0)
(189.334 -33.0018 0)
(185.232 -38.9566 0)
(189.551 -33.0926 0)
(186.266 -39.1844 0)
(189.736 -33.169 0)
(187.242 -39.4062 0)
(189.908 -33.2506 0)
(188.133 -39.5874 0)
(190.105 -33.3247 0)
(188.915 -39.7609 0)
(190.351 -33.4144 0)
(189.602 -39.8846 0)
(190.682 -33.5001 0)
(190.213 -40.011 0)
(191.101 -33.6164 0)
(190.799 -40.0913 0)
(191.614 -33.7314 0)
(191.393 -40.1996 0)
(192.21 -33.8785 0)
(192.029 -40.267 0)
(192.885 -34.0193 0)
(192.714 -40.3699 0)
(193.612 -34.1828 0)
(193.454 -40.4346 0)
(194.373 -34.3333 0)
(194.236 -40.5253 0)
(195.053 -40.5803 0)
(195.897 -40.6468 0)
(196.77 -40.6864 0)
(184.923 103.847 0)
(163.027 22.1244 0)
(170.4 7.47943 0)
(179.742 2.96354 0)
(186.606 -2.57021 0)
(193.462 -4.28358 0)
(198.571 -5.99035 0)
(202.45 -6.81134 0)
(204.908 -8.03353 0)
(206.543 -8.80338 0)
(207.332 -9.76707 0)
(208.211 -10.4734 0)
(208.826 -11.1894 0)
(209.402 -11.8084 0)
(209.907 -12.3929 0)
(210.401 -12.9292 0)
(210.883 -13.4386 0)
(211.364 -13.9293 0)
(211.85 -14.4088 0)
(212.347 -14.8833 0)
(212.859 -15.3579 0)
(213.39 -15.8379 0)
(213.941 -16.3272 0)
(214.511 -16.8278 0)
(215.098 -17.34 0)
(215.698 -17.8646 0)
(216.306 -18.4032 0)
(216.919 -18.9594 0)
(217.532 -19.5357 0)
(218.14 -20.1343 0)
(218.738 -20.7557 0)
(219.32 -21.4 0)
(219.878 -22.0665 0)
(220.407 -22.7545 0)
(220.899 -23.4629 0)
(221.349 -24.1904 0)
(221.752 -24.9348 0)
(222.103 -25.6931 0)
(222.4 -26.462 0)
(222.638 -27.2391 0)
(222.82 -28.0197 0)
(222.942 -28.7987 0)
(223.002 -29.5741 0)
(223.004 -30.3428 0)
(222.951 -31.101 0)
(222.846 -31.8534 0)
(222.687 -32.5928 0)
(222.48 -33.3081 0)
(222.232 -34.0053 0)
(221.943 -34.6838 0)
(221.619 -35.3419 0)
(221.253 -35.9781 0)
(220.837 -36.591 0)
(220.377 -37.1791 0)
(219.929 -37.752 0)
(219.526 -38.3188 0)
(219.095 -38.8667 0)
(218.523 -39.3688 0)
(217.909 -39.9136 0)
(217.091 -40.2738 0)
(216.461 -40.8664 0)
(215.46 -41.1515 0)
(214.428 -41.515 0)
(213.357 -41.7876 0)
(212.349 -42.1484 0)
(211.347 -42.4286 0)
(210.418 -42.8034 0)
(209.433 -43.0813 0)
(208.458 -43.3985 0)
(207.457 -43.6582 0)
(206.458 -43.928 0)
(205.448 -44.16 0)
(204.445 -44.3912 0)
(203.442 -44.6048 0)
(202.441 -44.812 0)
(201.441 -45.007 0)
(200.445 -45.2015 0)
(199.453 -45.3983 0)
(198.455 -45.5882 0)
(197.449 -45.7852 0)
(196.421 -45.9498 0)
(195.388 -46.1282 0)
(194.353 -46.2525 0)
(193.362 -46.4249 0)
(192.414 -46.5345 0)
(191.558 -46.7427 0)
(190.724 -46.8649 0)
(189.961 -47.1346 0)
(189.079 -47.2683 0)
(188.165 -47.4881 0)
(187.204 -47.6304 0)
(186.217 -47.773 0)
(185.213 -47.8523 0)
(184.236 -47.958 0)
(183.3 -48.0398 0)
(182.427 -48.1684 0)
(181.604 -48.2845 0)
(180.844 -48.4516 0)
(180.117 -48.6023 0)
(179.441 -48.8002 0)
(178.781 -48.9778 0)
(178.159 -49.1907 0)
(177.543 -49.3928 0)
(176.936 -49.5978 0)
(176.332 -49.8262 0)
(175.694 -49.9969 0)
(175.072 -50.2351 0)
(174.407 -50.383 0)
(173.761 -50.6106 0)
(173.08 -50.7498 0)
(172.429 -50.9679 0)
(171.81 -51.159 0)
(171.248 -51.4113 0)
(170.731 -51.6849 0)
(170.262 -52.0022 0)
(169.857 -52.366 0)
(169.567 -52.8003 0)
(169.453 -53.3035 0)
(169.39 -53.7745 0)
(169.427 -54.3082 0)
(169.25 -54.4679 0)
(185.044 104.258 0)
(163.102 22.4313 0)
(170.427 7.45017 0)
(179.776 2.96581 0)
(186.623 -2.56773 0)
(193.467 -4.27802 0)
(198.574 -5.98579 0)
(202.455 -6.80251 0)
(204.915 -8.02381 0)
(206.554 -8.79049 0)
(207.346 -9.7518 0)
(208.224 -10.4583 0)
(208.839 -11.1743 0)
(209.416 -11.7933 0)
(209.921 -12.3775 0)
(210.416 -12.9133 0)
(210.898 -13.4218 0)
(211.38 -13.911 0)
(211.868 -14.3888 0)
(212.366 -14.8609 0)
(212.88 -15.3328 0)
(213.414 -15.8098 0)
(213.968 -16.2957 0)
(214.541 -16.7928 0)
(215.132 -17.3014 0)
(215.736 -17.8223 0)
(216.35 -18.3573 0)
(216.969 -18.9097 0)
(217.589 -19.4823 0)
(218.205 -20.0775 0)
(218.812 -20.6957 0)
(219.403 -21.3373 0)
(219.972 -22.0018 0)
(220.512 -22.6884 0)
(221.016 -23.3963 0)
(221.479 -24.124 0)
(221.896 -24.8695 0)
(222.262 -25.6298 0)
(222.573 -26.4014 0)
(222.826 -27.1815 0)
(223.023 -27.9663 0)
(223.16 -28.7507 0)
(223.236 -29.5317 0)
(223.253 -30.3069 0)
(223.214 -31.0734 0)
(223.123 -31.8284 0)
(222.979 -32.5798 0)
(222.786 -33.3047 0)
(222.55 -34.0109 0)
(222.274 -34.6997 0)
(221.962 -35.3691 0)
(221.609 -36.018 0)
(221.204 -36.645 0)
(220.755 -37.2472 0)
(220.315 -37.8334 0)
(219.921 -38.4123 0)
(219.5 -38.9738 0)
(218.947 -39.4975 0)
(218.343 -40.0509 0)
(217.539 -40.432 0)
(216.932 -41.034 0)
(215.956 -41.3371 0)
(214.946 -41.7186 0)
(213.891 -42.0146 0)
(212.896 -42.3955 0)
(211.905 -42.6962 0)
(210.992 -43.0925 0)
(210.02 -43.3933 0)
(209.061 -43.7365 0)
(208.073 -44.0252 0)
(207.09 -44.3324 0)
(206.096 -44.6053 0)
(205.113 -44.8886 0)
(204.126 -45.1591 0)
(203.138 -45.4209 0)
(202.15 -45.6736 0)
(201.163 -45.9224 0)
(200.179 -46.1668 0)
(199.193 -46.4008 0)
(198.202 -46.6361 0)
(197.193 -46.844 0)
(196.179 -47.0643 0)
(195.162 -47.2457 0)
(194.189 -47.4763 0)
(193.255 -47.6611 0)
(192.425 -47.9415 0)
(191.625 -48.1468 0)
(190.948 -48.5088 0)
(190.139 -48.7321 0)
(189.309 -49.0381 0)
(188.378 -49.2582 0)
(187.399 -49.4932 0)
(186.393 -49.6712 0)
(185.417 -49.8846 0)
(184.483 -50.0719 0)
(183.622 -50.3132 0)
(182.813 -50.5323 0)
(182.08 -50.8107 0)
(181.376 -51.0551 0)
(180.741 -51.3582 0)
(180.11 -51.6146 0)
(179.54 -51.9245 0)
(178.963 -52.1871 0)
(178.429 -52.4882 0)
(177.878 -52.7611 0)
(177.313 -53.0118 0)
(176.752 -53.2869 0)
(176.149 -53.4774 0)
(175.578 -53.7394 0)
(174.968 -53.8868 0)
(174.394 -54.1034 0)
(173.861 -54.2682 0)
(173.41 -54.4776 0)
(173.028 -54.6745 0)
(172.719 -54.8899 0)
(172.47 -55.1007 0)
(172.283 -55.3111 0)
(172.153 -55.5082 0)
(172.062 -55.6829 0)
(172.058 -55.882 0)
(172.147 -56.0488 0)
(185.19 104.43 0)
(163.108 22.4664 0)
(170.469 7.44077 0)
(179.809 2.95384 0)
(186.642 -2.57059 0)
(193.479 -4.26895 0)
(198.585 -5.97399 0)
(202.466 -6.7913 0)
(204.927 -8.0137 0)
(206.568 -8.7783 0)
(207.361 -9.73894 0)
(208.239 -10.4459 0)
(208.855 -11.1619 0)
(209.433 -11.7814 0)
(209.939 -12.3656 0)
(210.434 -12.9012 0)
(210.918 -13.4089 0)
(211.401 -13.8969 0)
(211.89 -14.373 0)
(212.389 -14.8432 0)
(212.906 -15.3128 0)
(213.441 -15.7873 0)
(213.998 -16.2705 0)
(214.575 -16.7647 0)
(215.17 -17.2706 0)
(215.779 -17.7889 0)
(216.399 -18.3213 0)
(217.024 -18.8713 0)
(217.652 -19.4418 0)
(218.276 -20.0351 0)
(218.892 -20.6519 0)
(219.494 -21.2927 0)
(220.074 -21.9569 0)
(220.626 -22.6442 0)
(221.144 -23.3535 0)
(221.62 -24.0837 0)
(222.052 -24.8326 0)
(222.432 -25.5974 0)
(222.759 -26.3749 0)
(223.028 -27.1618 0)
(223.24 -27.9541 0)
(223.392 -28.7473 0)
(223.482 -29.5382 0)
(223.513 -30.3239 0)
(223.487 -31.101 0)
(223.409 -31.8663 0)
(223.277 -32.6294 0)
(223.096 -33.3684 0)
(222.87 -34.0862 0)
(222.603 -34.7868 0)
(222.301 -35.4683 0)
(221.957 -36.1289 0)
(221.562 -36.7667 0)
(221.123 -37.379 0)
(220.691 -37.9749 0)
(220.307 -38.5662 0)
(219.895 -39.1425 0)
(219.36 -39.6824 0)
(218.765 -40.2475 0)
(217.973 -40.6464 0)
(217.382 -41.2633 0)
(216.413 -41.5891 0)
(215.417 -41.9912 0)
(214.376 -42.308 0)
(213.395 -42.7063 0)
(212.417 -43.0225 0)
(211.52 -43.4332 0)
(210.562 -43.7468 0)
(209.618 -44.103 0)
(208.648 -44.4096 0)
(207.686 -44.7385 0)
(206.714 -45.0321 0)
(205.759 -45.3429 0)
(204.805 -45.6341 0)
(203.855 -45.9176 0)
(202.909 -46.1974 0)
(201.963 -46.472 0)
(201.014 -46.7407 0)
(200.057 -46.9975 0)
(199.089 -47.2524 0)
(198.099 -47.482 0)
(197.103 -47.7227 0)
(196.104 -47.9341 0)
(195.15 -48.1922 0)
(194.236 -48.4166 0)
(193.426 -48.7303 0)
(192.651 -48.9772 0)
(192.023 -49.3734 0)
(191.264 -49.6169 0)
(190.504 -49.932 0)
(189.641 -50.1491 0)
(188.732 -50.3821 0)
(187.795 -50.5629 0)
(186.892 -50.7827 0)
(186.034 -50.979 0)
(185.255 -51.2292 0)
(184.527 -51.4564 0)
(183.876 -51.7407 0)
(183.249 -51.987 0)
(182.689 -52.2912 0)
(182.122 -52.5397 0)
(181.616 -52.8446 0)
(181.092 -53.0874 0)
(180.624 -53.3856 0)
(180.114 -53.6222 0)
(179.609 -53.8746 0)
(179.072 -54.1014 0)
(178.507 -54.2862 0)
(177.941 -54.5018 0)
(177.341 -54.6268 0)
(176.762 -54.8051 0)
(176.218 -54.9385 0)
(175.738 -55.1108 0)
(175.313 -55.2676 0)
(174.943 -55.4412 0)
(174.604 -55.6051 0)
(174.289 -55.767 0)
(173.994 -55.9199 0)
(173.747 -56.0762 0)
(173.619 -56.2987 0)
(173.638 -56.5466 0)
(185.302 104.559 0)
(163.125 22.438 0)
(170.506 7.42801 0)
(179.843 2.94488 0)
(186.66 -2.57099 0)
(193.486 -4.25932 0)
(198.588 -5.96376 0)
(202.472 -6.77946 0)
(204.934 -8.00238 0)
(206.578 -8.76571 0)
(207.373 -9.72517 0)
(208.251 -10.4324 0)
(208.867 -11.1484 0)
(209.445 -11.7678 0)
(209.952 -12.3518 0)
(210.448 -12.887 0)
(210.933 -13.3938 0)
(211.416 -13.8807 0)
(211.906 -14.3553 0)
(212.407 -14.8235 0)
(212.925 -15.2909 0)
(213.462 -15.7629 0)
(214.022 -16.2434 0)
(214.602 -16.7348 0)
(215.2 -17.2378 0)
(215.814 -17.7531 0)
(216.439 -18.2826 0)
(217.07 -18.8297 0)
(217.704 -19.3973 0)
(218.336 -19.9879 0)
(218.96 -20.6022 0)
(219.57 -21.2407 0)
(220.16 -21.9032 0)
(220.723 -22.5893 0)
(221.253 -23.2979 0)
(221.743 -24.028 0)
(222.187 -24.7777 0)
(222.582 -25.544 0)
(222.924 -26.3236 0)
(223.209 -27.1133 0)
(223.436 -27.9094 0)
(223.604 -28.7073 0)
(223.71 -29.5035 0)
(223.757 -30.2952 0)
(223.746 -31.0793 0)
(223.681 -31.8523 0)
(223.565 -32.6197 0)
(223.4 -33.3716 0)
(223.187 -34.0982 0)
(222.934 -34.8082 0)
(222.644 -35.5 0)
(222.313 -36.172 0)
(221.932 -36.8222 0)
(221.504 -37.4479 0)
(221.082 -38.0577 0)
(220.708 -38.6624 0)
(220.309 -39.251 0)
(219.795 -39.8046 0)
(219.217 -40.3756 0)
(218.443 -40.7891 0)
(217.872 -41.4113 0)
(216.922 -41.7491 0)
(215.946 -42.1646 0)
(214.923 -42.5013 0)
(213.958 -42.9172 0)
(212.993 -43.2507 0)
(212.111 -43.6783 0)
(211.165 -44.007 0)
(210.237 -44.3792 0)
(209.285 -44.7088 0)
(208.342 -45.061 0)
(207.388 -45.3806 0)
(206.454 -45.7235 0)
(205.517 -46.0442 0)
(204.59 -46.3673 0)
(203.67 -46.6913 0)
(202.749 -47.0045 0)
(201.827 -47.3051 0)
(200.899 -47.5856 0)
(199.962 -47.8553 0)
(199.006 -48.0971 0)
(198.046 -48.3467 0)
(197.086 -48.5717 0)
(196.171 -48.8394 0)
(195.298 -49.0807 0)
(194.531 -49.4065 0)
(193.802 -49.6755 0)
(193.23 -50.0945 0)
(192.516 -50.363 0)
(191.805 -50.7078 0)
(190.981 -50.956 0)
(190.108 -51.2172 0)
(189.205 -51.4292 0)
(188.337 -51.6769 0)
(187.515 -51.9033 0)
(186.773 -52.1775 0)
(186.084 -52.4303 0)
(185.475 -52.7314 0)
(184.89 -52.9955 0)
(184.371 -53.3071 0)
(183.842 -53.5611 0)
(183.373 -53.8641 0)
(182.884 -54.1008 0)
(182.456 -54.3944 0)
(181.981 -54.6136 0)
(181.517 -54.8655 0)
(181.004 -55.0536 0)
(180.474 -55.2451 0)
(179.914 -55.41 0)
(179.334 -55.5243 0)
(178.766 -55.6584 0)
(178.239 -55.778 0)
(177.767 -55.9097 0)
(177.355 -56.0448 0)
(176.999 -56.1885 0)
(176.686 -56.3342 0)
(176.408 -56.4868 0)
(176.158 -56.6376 0)
(175.958 -56.8089 0)
(175.83 -57.01 0)
(175.821 -57.2593 0)
(185.387 104.708 0)
(163.138 22.4184 0)
(170.545 7.41558 0)
(179.877 2.93555 0)
(186.679 -2.57195 0)
(193.496 -4.25264 0)
(198.597 -5.9551 0)
(202.482 -6.76971 0)
(204.945 -7.99318 0)
(206.59 -8.7545 0)
(207.387 -9.71325 0)
(208.264 -10.4209 0)
(208.882 -11.137 0)
(209.461 -11.7567 0)
(209.968 -12.3408 0)
(210.465 -12.8757 0)
(210.95 -13.3819 0)
(211.435 -13.8676 0)
(211.926 -14.3407 0)
(212.429 -14.8071 0)
(212.948 -15.2724 0)
(213.487 -15.742 0)
(214.049 -16.2199 0)
(214.632 -16.7088 0)
(215.235 -17.2091 0)
(215.853 -17.7219 0)
(216.483 -18.249 0)
(217.121 -18.7937 0)
(217.762 -19.3592 0)
(218.401 -19.9478 0)
(219.034 -20.5606 0)
(219.653 -21.1981 0)
(220.254 -21.8602 0)
(220.828 -22.5465 0)
(221.37 -23.2562 0)
(221.872 -23.9882 0)
(222.331 -24.7407 0)
(222.74 -25.5108 0)
(223.097 -26.2953 0)
(223.396 -27.0909 0)
(223.638 -27.8936 0)
(223.82 -28.6992 0)
(223.941 -29.5039 0)
(224.002 -30.3047 0)
(224.004 -31.0981 0)
(223.95 -31.8826 0)
(223.847 -32.6557 0)
(223.694 -33.4219 0)
(223.491 -34.1598 0)
(223.248 -34.8799 0)
(222.968 -35.5827 0)
(222.647 -36.2658 0)
(222.275 -36.9271 0)
(221.857 -37.5627 0)
(221.444 -38.1815 0)
(221.079 -38.797 0)
(220.69 -39.399 0)
(220.191 -39.968 0)
(219.628 -40.5503 0)
(218.868 -40.9814 0)
(218.313 -41.6158 0)
(217.373 -41.97 0)
(216.413 -42.3996 0)
(215.406 -42.7526 0)
(214.456 -43.1794 0)
(213.503 -43.5234 0)
(212.635 -43.9644 0)
(211.701 -44.3054 0)
(210.788 -44.6927 0)
(209.854 -45.0391 0)
(208.931 -45.4008 0)
(208.002 -45.7303 0)
(207.095 -46.0823 0)
(206.186 -46.4115 0)
(205.295 -46.7569 0)
(204.414 -47.1066 0)
(203.529 -47.4447 0)
(202.641 -47.7715 0)
(201.743 -48.0783 0)
(200.833 -48.373 0)
(199.903 -48.6434 0)
(198.966 -48.9191 0)
(198.031 -49.1727 0)
(197.139 -49.4618 0)
(196.292 -49.7283 0)
(195.551 -50.0698 0)
(194.856 -50.3575 0)
(194.329 -50.7873 0)
(193.66 -51.0613 0)
(193.008 -51.4101 0)
(192.243 -51.6569 0)
(191.428 -51.9118 0)
(190.584 -52.1181 0)
(189.776 -52.3582 0)
(189.013 -52.58 0)
(188.329 -52.8474 0)
(187.698 -53.0993 0)
(187.142 -53.3941 0)
(186.611 -53.6613 0)
(186.137 -53.9655 0)
(185.655 -54.2226 0)
(185.221 -54.5179 0)
(184.772 -54.7556 0)
(184.383 -55.047 0)
(183.946 -55.2699 0)
(183.519 -55.5254 0)
(183.037 -55.7144 0)
(182.536 -55.9322 0)
(181.979 -56.0631 0)
(181.414 -56.2226 0)
(180.855 -56.3387 0)
(180.337 -56.4844 0)
(179.865 -56.6129 0)
(179.454 -56.761 0)
(179.098 -56.908 0)
(178.793 -57.0643 0)
(178.525 -57.2205 0)
(178.289 -57.376 0)
(178.097 -57.5413 0)
(177.979 -57.7315 0)
(177.956 -57.9642 0)
(185.471 104.863 0)
(163.151 22.4007 0)
(170.584 7.40213 0)
(179.91 2.92555 0)
(186.698 -2.57286 0)
(193.503 -4.24418 0)
(198.601 -5.94618 0)
(202.488 -6.75893 0)
(204.953 -7.98265 0)
(206.601 -8.74254 0)
(207.398 -9.70012 0)
(208.276 -10.408 0)
(208.894 -11.1241 0)
(209.473 -11.7439 0)
(209.981 -12.3278 0)
(210.478 -12.8623 0)
(210.964 -13.3677 0)
(211.45 -13.8523 0)
(211.942 -14.3239 0)
(212.446 -14.7886 0)
(212.966 -15.2517 0)
(213.508 -15.719 0)
(214.072 -16.1943 0)
(214.658 -16.6803 0)
(215.264 -17.1779 0)
(215.886 -17.6878 0)
(216.521 -18.212 0)
(217.164 -18.7539 0)
(217.811 -19.3167 0)
(218.457 -19.9026 0)
(219.097 -20.5129 0)
(219.726 -21.1482 0)
(220.336 -21.8085 0)
(220.92 -22.4935 0)
(221.473 -23.2025 0)
(221.988 -23.9344 0)
(222.46 -24.6875 0)
(222.883 -25.4589 0)
(223.254 -26.2455 0)
(223.569 -27.0438 0)
(223.826 -27.8502 0)
(224.023 -28.6603 0)
(224.159 -29.4703 0)
(224.235 -30.277 0)
(224.252 -31.0774 0)
(224.213 -31.8688 0)
(224.124 -32.648 0)
(223.985 -33.4234 0)
(223.796 -34.1718 0)
(223.566 -34.9007 0)
(223.298 -35.6132 0)
(222.99 -36.3069 0)
(222.631 -36.9788 0)
(222.225 -37.6253 0)
(221.822 -38.2553 0)
(221.466 -38.8816 0)
(221.089 -39.4937 0)
(220.611 -40.0726 0)
(220.066 -40.6595 0)
(219.325 -41.1038 0)
(218.788 -41.745 0)
(217.864 -42.1127 0)
(216.921 -42.5557 0)
(215.932 -42.9266 0)
(214.997 -43.3644 0)
(214.057 -43.7197 0)
(213.206 -44.175 0)
(212.285 -44.5324 0)
(211.387 -44.9424 0)
(210.466 -45.3126 0)
(209.554 -45.6903 0)
(208.64 -46.0364 0)
(207.749 -46.3995 0)
(206.86 -46.742 0)
(205.996 -47.1121 0)
(205.14 -47.4835 0)
(204.28 -47.8417 0)
(203.421 -48.1886 0)
(202.553 -48.5133 0)
(201.675 -48.8239 0)
(200.78 -49.1124 0)
(199.877 -49.402 0)
(198.972 -49.6711 0)
(198.107 -49.9689 0)
(197.287 -50.2495 0)
(196.571 -50.5987 0)
(195.901 -50.903 0)
(195.402 -51.3456 0)
(194.758 -51.6353 0)
(194.138 -52.0039 0)
(193.401 -52.2696 0)
(192.613 -52.5412 0)
(191.797 -52.7652 0)
(191.019 -53.0208 0)
(190.288 -53.2576 0)
(189.638 -53.5367 0)
(189.043 -53.8003 0)
(188.523 -54.1014 0)
(188.031 -54.3781 0)
(187.59 -54.6806 0)
(187.146 -54.9451 0)
(186.74 -55.2321 0)
(186.326 -55.4714 0)
(185.974 -55.7551 0)
(185.58 -55.9758 0)
(185.198 -56.222 0)
(184.765 -56.4219 0)
(184.292 -56.6163 0)
(183.77 -56.7469 0)
(183.236 -56.8993 0)
(182.711 -57.0195 0)
(182.219 -57.1565 0)
(181.772 -57.286 0)
(181.382 -57.429 0)
(181.048 -57.5762 0)
(180.765 -57.7332 0)
(180.52 -57.8906 0)
(180.307 -58.0551 0)
(180.119 -58.2078 0)
(180.032 -58.4178 0)
(180.08 -58.611 0)
(185.561 105.004 0)
(163.163 22.3831 0)
(170.624 7.38977 0)
(179.944 2.91561 0)
(186.718 -2.57395 0)
(193.513 -4.23685 0)
(198.609 -5.93745 0)
(202.498 -6.74925 0)
(204.963 -7.97349 0)
(206.613 -8.73147 0)
(207.412 -9.68832 0)
(208.289 -10.3966 0)
(208.908 -11.1128 0)
(209.488 -11.7329 0)
(209.996 -12.3168 0)
(210.494 -12.8511 0)
(210.982 -13.3558 0)
(211.468 -13.8394 0)
(211.961 -14.3095 0)
(212.466 -14.7724 0)
(212.989 -15.2335 0)
(213.532 -15.6983 0)
(214.099 -16.1711 0)
(214.688 -16.6545 0)
(215.298 -17.1495 0)
(215.924 -17.6569 0)
(216.564 -18.1786 0)
(217.213 -18.7181 0)
(217.867 -19.2786 0)
(218.521 -19.8626 0)
(219.169 -20.4712 0)
(219.807 -21.1053 0)
(220.427 -21.7649 0)
(221.023 -22.4499 0)
(221.588 -23.1596 0)
(222.116 -23.8931 0)
(222.601 -24.6486 0)
(223.039 -25.4234 0)
(223.424 -26.2144 0)
(223.754 -27.0181 0)
(224.026 -27.8306 0)
(224.238 -28.6478 0)
(224.389 -29.4657 0)
(224.479 -30.281 0)
(224.51 -31.0906 0)
(224.484 -31.8916 0)
(224.406 -32.6796 0)
(224.279 -33.4639 0)
(224.103 -34.2258 0)
(223.883 -34.9647 0)
(223.625 -35.6874 0)
(223.327 -36.3915 0)
(222.979 -37.0735 0)
(222.584 -37.7291 0)
(222.189 -38.3677 0)
(221.842 -39.0041 0)
(221.476 -39.6278 0)
(221.016 -40.2205 0)
(220.486 -40.8175 0)
(219.761 -41.2793 0)
(219.24 -41.9326 0)
(218.329 -42.3182 0)
(217.401 -42.7776 0)
(216.426 -43.1683 0)
(215.503 -43.619 0)
(214.577 -43.987 0)
(213.744 -44.4541 0)
(212.841 -44.8222 0)
(211.963 -45.2462 0)
(211.057 -45.6286 0)
(210.158 -46.0181 0)
(209.257 -46.3808 0)
(208.382 -46.7534 0)
(207.517 -47.1051 0)
(206.685 -47.4828 0)
(205.86 -47.8531 0)
(205.034 -48.2141 0)
(204.206 -48.5725 0)
(203.368 -48.9159 0)
(202.519 -49.2506 0)
(201.651 -49.5674 0)
(200.773 -49.8783 0)
(199.891 -50.1672 0)
(199.045 -50.4742 0)
(198.246 -50.766 0)
(197.545 -51.1157 0)
(196.897 -51.4249 0)
(196.418 -51.8621 0)
(195.801 -52.1463 0)
(195.214 -52.5107 0)
(194.507 -52.7682 0)
(193.749 -53.0303 0)
(192.964 -53.2446 0)
(192.216 -53.4908 0)
(191.513 -53.7175 0)
(190.891 -53.9881 0)
(190.321 -54.2425 0)
(189.828 -54.5362 0)
(189.358 -54.8063 0)
(188.936 -55.0999 0)
(188.511 -55.3629 0)
(188.113 -55.6387 0)
(187.715 -55.8796 0)
(187.37 -56.1572 0)
(186.991 -56.3751 0)
(186.634 -56.6264 0)
(186.217 -56.8284 0)
(185.752 -57.0067 0)
(185.245 -57.1563 0)
(184.723 -57.2983 0)
(184.208 -57.4328 0)
(183.722 -57.5659 0)
(183.281 -57.7048 0)
(182.893 -57.8499 0)
(182.564 -58.0062 0)
(182.286 -58.1687 0)
(182.052 -58.341 0)
(181.842 -58.5127 0)
(181.649 -58.6869 0)
(181.491 -58.8726 0)
(181.496 -59.1144 0)
(185.641 105.138 0)
(163.176 22.3657 0)
(170.665 7.37702 0)
(179.978 2.90521 0)
(186.738 -2.57509 0)
(193.52 -4.22836 0)
(198.614 -5.92853 0)
(202.504 -6.73858 0)
(204.971 -7.96298 0)
(206.623 -8.7194 0)
(207.424 -9.67506 0)
(208.301 -10.3835 0)
(208.92 -11.0998 0)
(209.5 -11.72 0)
(210.009 -12.3038 0)
(210.508 -12.8377 0)
(210.996 -13.3416 0)
(211.483 -13.824 0)
(211.977 -14.2927 0)
(212.484 -14.7537 0)
(213.008 -15.2126 0)
(213.553 -15.6751 0)
(214.121 -16.1451 0)
(214.713 -16.6258 0)
(215.327 -17.1178 0)
(215.957 -17.6223 0)
(216.602 -18.141 0)
(217.256 -18.6776 0)
(217.916 -19.2352 0)
(218.577 -19.8164 0)
(219.234 -20.4224 0)
(219.88 -21.0541 0)
(220.509 -21.7117 0)
(221.116 -22.3952 0)
(221.693 -23.1041 0)
(222.233 -23.8373 0)
(222.732 -24.5932 0)
(223.184 -25.3693 0)
(223.584 -26.1622 0)
(223.93 -26.9686 0)
(224.218 -27.7848 0)
(224.446 -28.6066 0)
(224.613 -29.4299 0)
(224.719 -30.2512 0)
(224.765 -31.0676 0)
(224.755 -31.8758 0)
(224.69 -32.6738 0)
(224.578 -33.4604 0)
(224.418 -34.2364 0)
(224.211 -34.9848 0)
(223.966 -35.7165 0)
(223.681 -36.4305 0)
(223.347 -37.1228 0)
(222.964 -37.789 0)
(222.579 -38.439 0)
(222.242 -39.0875 0)
(221.889 -39.7227 0)
(221.449 -40.3268 0)
(220.937 -40.9295 0)
(220.233 -41.4032 0)
(219.733 -42.0611 0)
(218.841 -42.4581 0)
(217.934 -42.9284 0)
(216.977 -43.3372 0)
(216.066 -43.8036 0)
(215.153 -44.1927 0)
(214.339 -44.6798 0)
(213.454 -45.0652 0)
(212.598 -45.5025 0)
(211.712 -45.8917 0)
(210.83 -46.2911 0)
(209.945 -46.6745 0)
(209.079 -47.069 0)
(208.225 -47.4488 0)
(207.406 -47.8483 0)
(206.596 -48.228 0)
(205.795 -48.5984 0)
(205 -48.9664 0)
(204.199 -49.3205 0)
(203.388 -49.6685 0)
(202.558 -50.0016 0)
(201.71 -50.3232 0)
(200.857 -50.6247 0)
(200.034 -50.9355 0)
(199.26 -51.2368 0)
(198.578 -51.5861 0)
(197.953 -51.9053 0)
(197.486 -52.3407 0)
(196.89 -52.6311 0)
(196.327 -53.0038 0)
(195.639 -53.2684 0)
(194.899 -53.5372 0)
(194.131 -53.758 0)
(193.401 -54.0097 0)
(192.716 -54.2394 0)
(192.113 -54.5126 0)
(191.561 -54.7648 0)
(191.087 -55.058 0)
(190.634 -55.321 0)
(190.23 -55.6095 0)
(189.82 -55.8642 0)
(189.433 -56.1272 0)
(189.051 -56.3629 0)
(188.711 -56.6251 0)
(188.348 -56.8363 0)
(188.01 -57.0842 0)
(187.604 -57.2663 0)
(187.156 -57.4421 0)
(186.665 -57.5758 0)
(186.159 -57.7163 0)
(185.656 -57.8351 0)
(185.182 -57.9638 0)
(184.75 -58.0912 0)
(184.374 -58.2318 0)
(184.055 -58.3812 0)
(183.791 -58.5415 0)
(183.575 -58.7107 0)
(183.392 -58.8863 0)
(183.226 -59.0683 0)
(183.054 -59.25 0)
(182.944 -59.5122 0)
(185.727 105.266 0)
(163.192 22.3462 0)
(170.706 7.36447 0)
(180.014 2.89451 0)
(186.758 -2.57632 0)
(193.531 -4.22049 0)
(198.622 -5.91965 0)
(202.514 -6.72874 0)
(204.982 -7.9536 0)
(206.635 -8.7081 0)
(207.438 -9.66298 0)
(208.315 -10.3719 0)
(208.934 -11.0882 0)
(209.515 -11.7087 0)
(210.025 -12.2925 0)
(210.524 -12.8261 0)
(211.013 -13.3294 0)
(211.502 -13.8107 0)
(211.997 -14.2779 0)
(212.505 -14.7371 0)
(213.03 -15.1939 0)
(213.577 -15.6539 0)
(214.149 -16.1213 0)
(214.744 -16.5993 0)
(215.361 -17.0886 0)
(215.996 -17.5904 0)
(216.646 -18.1065 0)
(217.306 -18.6405 0)
(217.973 -19.1957 0)
(218.642 -19.7747 0)
(219.307 -20.3788 0)
(219.962 -21.0091 0)
(220.603 -21.6658 0)
(221.221 -22.349 0)
(221.81 -23.0583 0)
(222.364 -23.7928 0)
(222.877 -24.5509 0)
(223.343 -25.33 0)
(223.759 -26.1271 0)
(224.121 -26.9386 0)
(224.424 -27.7607 0)
(224.668 -28.5894 0)
(224.851 -29.4205 0)
(224.972 -30.2503 0)
(225.034 -31.0758 0)
(225.037 -31.8938 0)
(224.985 -32.7012 0)
(224.886 -33.4962 0)
(224.739 -34.2842 0)
(224.544 -35.0445 0)
(224.31 -35.7863 0)
(224.037 -36.5107 0)
(223.715 -37.2134 0)
(223.343 -37.89 0)
(222.968 -38.5506 0)
(222.64 -39.2108 0)
(222.297 -39.858 0)
(221.876 -40.4764 0)
(221.381 -41.0895 0)
(220.694 -41.5799 0)
(220.212 -42.248 0)
(219.338 -42.6598 0)
(218.451 -43.1408 0)
(217.51 -43.5629 0)
(216.612 -44.0414 0)
(215.712 -44.4509 0)
(214.916 -44.9606 0)
(214.046 -45.3687 0)
(213.21 -45.8227 0)
(212.344 -46.2189 0)
(211.486 -46.6235 0)
(210.627 -47.0098 0)
(209.787 -47.4054 0)
(208.957 -47.7939 0)
(208.157 -48.201 0)
(207.364 -48.5909 0)
(206.585 -48.9819 0)
(205.817 -49.3727 0)
(205.047 -49.7485 0)
(204.273 -50.1157 0)
(203.48 -50.4643 0)
(202.666 -50.7935 0)
(201.845 -51.1051 0)
(201.048 -51.4182 0)
(200.302 -51.7293 0)
(199.64 -52.0748 0)
(199.042 -52.4016 0)
(198.586 -52.8224 0)
(198.021 -53.1087 0)
(197.489 -53.4733 0)
(196.832 -53.7278 0)
(196.121 -53.9857 0)
(195.382 -54.1959 0)
(194.681 -54.4394 0)
(194.025 -54.6599 0)
(193.449 -54.9269 0)
(192.923 -55.1698 0)
(192.478 -55.4591 0)
(192.049 -55.7115 0)
(191.674 -55.9971 0)
(191.285 -56.2414 0)
(190.923 -56.4979 0)
(190.566 -56.7299 0)
(190.247 -56.9815 0)
(189.914 -57.1967 0)
(189.6 -57.4369 0)
(189.221 -57.6175 0)
(188.805 -57.7881 0)
(188.345 -57.9253 0)
(187.87 -58.0608 0)
(187.396 -58.1752 0)
(186.949 -58.2974 0)
(186.546 -58.419 0)
(186.198 -58.5523 0)
(185.909 -58.6958 0)
(185.674 -58.8476 0)
(185.491 -59.0084 0)
(185.351 -59.1751 0)
(185.241 -59.3409 0)
(185.22 -59.5636 0)
(185.063 -59.6932 0)
(185.805 105.397 0)
(163.21 22.3244 0)
(170.748 7.35133 0)
(180.049 2.88321 0)
(186.779 -2.57766 0)
(193.538 -4.21159 0)
(198.627 -5.91061 0)
(202.521 -6.71801 0)
(204.99 -7.94296 0)
(206.646 -8.69579 0)
(207.45 -9.64943 0)
(208.326 -10.3586 0)
(208.947 -11.0749 0)
(209.528 -11.6955 0)
(210.038 -12.2791 0)
(210.538 -12.8124 0)
(211.028 -13.315 0)
(211.518 -13.7951 0)
(212.014 -14.2608 0)
(212.523 -14.7181 0)
(213.05 -15.1727 0)
(213.599 -15.6301 0)
(214.172 -16.0948 0)
(214.77 -16.5698 0)
(215.39 -17.0561 0)
(216.03 -17.5548 0)
(216.684 -18.0678 0)
(217.35 -18.5988 0)
(218.024 -19.1509 0)
(218.699 -19.7269 0)
(219.372 -20.3282 0)
(220.037 -20.956 0)
(220.687 -21.6105 0)
(221.316 -22.292 0)
(221.917 -23.0001 0)
(222.484 -23.7341 0)
(223.011 -24.4924 0)
(223.492 -25.2726 0)
(223.924 -26.0715 0)
(224.302 -26.8857 0)
(224.622 -27.7115 0)
(224.883 -28.5448 0)
(225.083 -29.3814 0)
(225.221 -30.2174 0)
(225.299 -31.0499 0)
(225.319 -31.8757 0)
(225.283 -32.6918 0)
(225.198 -33.4933 0)
(225.066 -34.2899 0)
(224.888 -35.0629 0)
(224.667 -35.814 0)
(224.408 -36.5482 0)
(224.1 -37.2615 0)
(223.742 -37.949 0)
(223.378 -38.6206 0)
(223.061 -39.2918 0)
(222.733 -39.9479 0)
(222.333 -40.5754 0)
(221.857 -41.1928 0)
(221.191 -41.6939 0)
(220.729 -42.367 0)
(219.874 -42.7911 0)
(219.008 -43.2819 0)
(218.087 -43.7161 0)
(217.205 -44.2032 0)
(216.325 -44.6268 0)
(215.553 -45.1513 0)
(214.704 -45.5763 0)
(213.889 -46.049 0)
(213.039 -46.4663 0)
(212.2 -46.8972 0)
(211.358 -47.3033 0)
(210.537 -47.7104 0)
(209.73 -48.1072 0)
(208.952 -48.516 0)
(208.181 -48.915 0)
(207.428 -49.3286 0)
(206.685 -49.7449 0)
(205.938 -50.1457 0)
(205.192 -50.5353 0)
(204.43 -50.9007 0)
(203.648 -51.2382 0)
(202.862 -51.5576 0)
(202.099 -51.8689 0)
(201.39 -52.1872 0)
(200.757 -52.5272 0)
(200.194 -52.8699 0)
(199.744 -53.2794 0)
(199.206 -53.579 0)
(198.698 -53.9478 0)
(198.063 -54.2084 0)
(197.373 -54.4692 0)
(196.657 -54.6838 0)
(195.98 -54.9313 0)
(195.346 -55.1539 0)
(194.796 -55.4225 0)
(194.293 -55.663 0)
(193.875 -55.9521 0)
(193.467 -56.1958 0)
(193.12 -56.4794 0)
(192.75 -56.7085 0)
(192.415 -56.9601 0)
(192.079 -57.1759 0)
(191.788 -57.4182 0)
(191.482 -57.6224 0)
(191.191 -57.8474 0)
(190.839 -58.0146 0)
(190.448 -58.179 0)
(190.014 -58.3026 0)
(189.561 -58.4229 0)
(189.107 -58.5218 0)
(188.678 -58.6259 0)
(188.292 -58.7306 0)
(187.963 -58.8451 0)
(187.692 -58.9712 0)
(187.474 -59.102 0)
(187.303 -59.2447 0)
(187.168 -59.384 0)
(187.089 -59.5467 0)
(187.093 -59.7308 0)
(187.012 -59.8615 0)
(185.887 105.526 0)
(163.226 22.3016 0)
(170.792 7.33807 0)
(180.085 2.87144 0)
(186.8 -2.57906 0)
(193.549 -4.20327 0)
(198.636 -5.90168 0)
(202.531 -6.7081 0)
(205.001 -7.93344 0)
(206.659 -8.6843 0)
(207.465 -9.63711 0)
(208.34 -10.3466 0)
(208.962 -11.0631 0)
(209.543 -11.684 0)
(210.055 -12.2676 0)
(210.555 -12.8006 0)
(211.046 -13.3025 0)
(211.536 -13.7815 0)
(212.034 -14.2457 0)
(212.544 -14.7012 0)
(213.073 -15.1535 0)
(213.624 -15.6085 0)
(214.2 -16.0705 0)
(214.801 -16.5427 0)
(215.425 -17.0261 0)
(216.069 -17.522 0)
(216.729 -18.0323 0)
(217.401 -18.5605 0)
(218.081 -19.1101 0)
(218.765 -19.6837 0)
(219.447 -20.283 0)
(220.121 -20.909 0)
(220.781 -21.5624 0)
(221.422 -22.2433 0)
(222.036 -22.9516 0)
(222.617 -23.6865 0)
(223.158 -24.4467 0)
(223.655 -25.2298 0)
(224.103 -26.0325 0)
(224.497 -26.8515 0)
(224.835 -27.683 0)
(225.112 -28.5231 0)
(225.329 -29.3672 0)
(225.483 -30.2117 0)
(225.577 -31.0532 0)
(225.612 -31.8885 0)
(225.591 -32.714 0)
(225.519 -33.5277 0)
(225.4 -34.3297 0)
(225.236 -35.118 0)
(225.028 -35.88 0)
(224.781 -36.6242 0)
(224.486 -37.3478 0)
(224.14 -38.0455 0)
(223.786 -38.7268 0)
(223.48 -39.4078 0)
(223.164 -40.0728 0)
(222.784 -40.7103 0)
(222.326 -41.3347 0)
(221.68 -41.8491 0)
(221.236 -42.531 0)
(220.397 -42.9714 0)
(219.549 -43.4765 0)
(218.644 -43.9249 0)
(217.777 -44.4197 0)
(216.915 -44.8496 0)
(216.169 -45.3769 0)
(215.346 -45.8015 0)
(214.559 -46.2787 0)
(213.735 -46.7092 0)
(212.92 -47.1636 0)
(212.096 -47.5894 0)
(211.292 -48.0141 0)
(210.506 -48.4222 0)
(209.751 -48.8325 0)
(209.012 -49.2368 0)
(208.297 -49.6592 0)
(207.586 -50.0822 0)
(206.868 -50.4921 0)
(206.149 -50.8976 0)
(205.41 -51.2832 0)
(204.65 -51.6432 0)
(203.888 -51.9874 0)
(203.149 -52.3139 0)
(202.471 -52.6494 0)
(201.866 -52.9858 0)
(201.346 -53.3419 0)
(200.903 -53.7251 0)
(200.404 -54.0294 0)
(199.921 -54.3837 0)
(199.314 -54.6326 0)
(198.65 -54.8789 0)
(197.961 -55.0844 0)
(197.308 -55.3234 0)
(196.698 -55.5389 0)
(196.169 -55.8007 0)
(195.687 -56.0336 0)
(195.289 -56.3169 0)
(194.897 -56.5508 0)
(194.569 -56.8285 0)
(194.211 -57.0439 0)
(193.894 -57.2904 0)
(193.569 -57.489 0)
(193.3 -57.727 0)
(193.008 -57.9148 0)
(192.74 -58.1329 0)
(192.409 -58.2948 0)
(192.033 -58.4469 0)
(191.613 -58.5673 0)