/*--------------------------------*- C++ -*----------------------------------*\
| =========                 |                                                 |
| \\      /  F ield         | OpenFOAM: The Open Source CFD Toolbox           |
|  \\    /   O peration     | Version:  2412                                  |
|   \\  /    A nd           | Website:  www.openfoam.com                      |
|    \\/     M anipulation  |                                                 |
\*---------------------------------------------------------------------------*/
FoamFile
{
    version     2.0;
    format      ascii;
    arch        "LSB;label=32;scalar=64";
    class       volVectorField;
    location    "0.011";
    object      U;
}
// * * * * * * * * * * * * * * * * * * * * * * * * * * * * * * * * * * * * * //

dimensions      [0 1 -1 0 0 0 0];

internalField   nonuniform List<vector> 
9771
(
(252.913 17.4798 0)
(234.508 -7.20024 0)
(223.887 -8.01873 0)
(218.836 -6.6403 0)
(215.813 -4.9857 0)
(213.524 -3.41444 0)
(211.863 -1.99913 0)
(210.788 -0.915595 0)
(210.227 -0.280173 0)
(210.031 -0.0425518 0)
(253.188 17.4811 0)
(234.549 -7.22763 0)
(223.919 -8.04737 0)
(218.855 -6.66656 0)
(215.831 -5.00936 0)
(213.54 -3.43554 0)
(211.876 -2.01626 0)
(210.796 -0.92719 0)
(210.231 -0.285699 0)
(210.032 -0.0438621 0)
(253.464 17.5134 0)
(234.566 -7.26763 0)
(223.943 -8.0776 0)
(218.874 -6.69237 0)
(215.849 -5.03266 0)
(213.555 -3.45633 0)
(211.887 -2.03311 0)
(210.804 -0.938585 0)
(210.234 -0.291155 0)
(210.033 -0.0451694 0)
(253.737 17.5077 0)
(234.603 -7.2923 0)
(223.974 -8.10494 0)
(218.893 -6.71794 0)
(215.866 -5.0558 0)
(213.571 -3.47709 0)
(211.9 -2.05009 0)
(210.813 -0.950179 0)
(210.239 -0.296771 0)
(210.034 -0.0465362 0)
(254.016 17.5371 0)
(234.619 -7.33298 0)
(223.998 -8.13474 0)
(218.911 -6.74342 0)
(215.884 -5.07896 0)
(213.586 -3.49791 0)
(211.912 -2.06709 0)
(210.82 -0.961791 0)
(210.242 -0.302424 0)
(210.035 -0.0479271 0)
(254.289 17.5277 0)
(234.654 -7.35838 0)
(224.03 -8.1614 0)
(218.93 -6.76891 0)
(215.902 -5.10221 0)
(213.602 -3.51895 0)
(211.925 -2.08442 0)
(210.83 -0.973758 0)
(210.247 -0.308321 0)
(210.035 -0.0494018 0)
(254.575 17.549 0)
(234.665 -7.39735 0)
(224.053 -8.19118 0)
(218.948 -6.7944 0)
(215.92 -5.12554 0)
(213.618 -3.54009 0)
(211.937 -2.10182 0)
(210.837 -0.985757 0)
(210.251 -0.314259 0)
(210.036 -0.0509024 0)
(210 -0.001995 0)
(210 3.78935e-05 0)
(210 4.0001e-05 0)
(210 1.50351e-05 0)
(210 5.34987e-06 0)
(210 1.48412e-06 0)
(210 1.81278e-07 0)
(210 2.27901e-09 0)
(210 -2.91852e-08 0)
(210 -6.15453e-06 0)
(210 -0.000988236 0)
(209.969 -0.0528697 0)
(209.586 -0.701365 0)
(208.434 -2.84048 0)
(207.274 -5.25688 0)
(206.706 -6.51771 0)
(206.55 -6.86839 0)
(206.375 -6.98866 0)
(206.086 -6.9488 0)
(205.567 -7.27633 0)
(205.203 -7.78502 0)
(205.067 -8.0864 0)
(254.856 17.5361 0)
(234.694 -7.42484 0)
(224.086 -8.21726 0)
(218.966 -6.81987 0)
(215.938 -5.1489 0)
(213.634 -3.5614 0)
(211.951 -2.1195 0)
(210.847 -0.998083 0)
(210.255 -0.320431 0)
(210.037 -0.0524862 0)
(210 -0.00205654 0)
(210 4.12672e-05 0)
(210 4.18914e-05 0)
(210 1.53041e-05 0)
(210 5.4765e-06 0)
(210 1.54547e-06 0)
(210 1.92491e-07 0)
(210 2.1622e-09 0)
(210 -3.00753e-08 0)
(210 -6.33904e-06 0)
(210 -0.00102461 0)
(209.969 -0.0547774 0)
(209.579 -0.718202 0)
(208.431 -2.86999 0)
(207.287 -5.27445 0)
(206.719 -6.52844 0)
(206.555 -6.88129 0)
(206.37 -7.00198 0)
(206.075 -6.9717 0)
(205.57 -7.29838 0)
(205.229 -7.79161 0)
(205.103 -8.0897 0)
(205.088 -8.31319 0)
(205.061 -8.52255 0)
(204.946 -8.81726 0)
(204.739 -9.25346 0)
(204.507 -9.73286 0)
(204.283 -10.1972 0)
(255.143 17.5485 0)
(234.702 -7.4611 0)
(224.108 -8.2469 0)
(218.985 -6.84539 0)
(215.956 -5.17249 0)
(213.65 -3.58291 0)
(211.962 -2.13733 0)
(210.855 -1.01051 0)
(210.259 -0.326707 0)
(210.038 -0.0541282 0)
(210 -0.00213688 0)
(210 4.8126e-05 0)
(210 4.3599e-05 0)
(210 1.5544e-05 0)
(210 5.60543e-06 0)
(210 1.61153e-06 0)
(210 2.04914e-07 0)
(210 2.34001e-09 0)
(210 -3.03788e-08 0)
(210 -6.47611e-06 0)
(210 -0.00107756 0)
(209.969 -0.0570853 0)
(209.572 -0.735394 0)
(208.42 -2.90303 0)
(207.297 -5.29557 0)
(206.735 -6.53548 0)
(206.562 -6.89275 0)
(206.366 -7.01464 0)
(206.061 -6.996 0)
(205.575 -7.32552 0)
(205.253 -7.80371 0)
(205.142 -8.09122 0)
(205.129 -8.31168 0)
(205.102 -8.52378 0)
(204.987 -8.82712 0)
(204.78 -9.27009 0)
(204.55 -9.7515 0)
(204.33 -10.2169 0)
(204.13 -10.6608 0)
(255.431 17.5232 0)
(234.73 -7.49405 0)
(224.142 -8.27238 0)
(219.003 -6.87109 0)
(215.974 -5.19641 0)
(213.666 -3.60476 0)
(211.976 -2.15557 0)
(210.865 -1.02339 0)
(210.264 -0.333309 0)
(210.039 -0.0558988 0)
(210 -0.00225135 0)
(210 5.25003e-05 0)
(210 4.61503e-05 0)
(210 1.57386e-05 0)
(210 5.74093e-06 0)
(210 1.68237e-06 0)
(210 2.18785e-07 0)
(210 2.16299e-09 0)
(210 -2.98537e-08 0)
(210 -6.52899e-06 0)
(210 -0.00112544 0)
(209.969 -0.0600131 0)
(209.563 -0.753319 0)
(208.418 -2.93158 0)
(207.31 -5.31315 0)
(206.746 -6.547 0)
(206.564 -6.90745 0)
(206.361 -7.02832 0)
(206.055 -7.01937 0)
(205.596 -7.34599 0)
(205.283 -7.80914 0)
(205.182 -8.09532 0)
(205.17 -8.31468 0)
(205.143 -8.52974 0)
(205.026 -8.84129 0)
(204.821 -9.28711 0)
(204.595 -9.76875 0)
(204.379 -10.2346 0)
(204.185 -10.6787 0)
(255.656 17.5772 0)
(234.711 -7.61055 0)
(224.159 -8.30984 0)
(219.021 -6.89458 0)
(215.993 -5.216 0)
(213.682 -3.62297 0)
(211.989 -2.17049 0)
(210.873 -1.03337 0)
(210.269 -0.337973 0)
(210.041 -0.056975 0)
(210 -0.00221665 0)
(210 6.4046e-05 0)
(210 4.82987e-05 0)
(210 1.60833e-05 0)
(210 6.02852e-06 0)
(210 1.75647e-06 0)
(210 2.27457e-07 0)
(210 3.33219e-09 0)
(210 -2.29195e-08 0)
(210 -5.27333e-06 0)
(210 -0.0010545 0)
(209.969 -0.0597732 0)
(209.555 -0.7668 0)
(208.408 -2.96323 0)
(207.319 -5.33187 0)
(206.759 -6.55287 0)
(206.569 -6.91742 0)
(206.357 -7.04053 0)
(206.046 -7.04937 0)
(205.614 -7.37921 0)
(205.313 -7.8205 0)
(205.225 -8.09607 0)
(205.212 -8.31311 0)
(205.183 -8.53072 0)
(205.066 -8.85104 0)
(204.863 -9.30396 0)
(204.64 -9.78716 0)
(204.428 -10.2538 0)
(204.241 -10.6977 0)
(253.393 11.9021 0)
(235.032 -9.49404 0)
(224.939 -9.18798 0)
(219.564 -7.68098 0)
(216.483 -5.87051 0)
(214.094 -4.16897 0)
(212.311 -2.59326 0)
(211.1 -1.31863 0)
(210.4 -0.487917 0)
(210.094 -0.107379 0)
(210.011 -0.0101281 0)
(210 -0.000215661 0)
(210 3.15352e-05 0)
(210 1.64749e-05 0)
(210 8.1458e-06 0)
(210 2.70345e-06 0)
(210 5.69572e-07 0)
(210 4.51034e-08 0)
(210 -9.0859e-08 0)
(210 -2.22523e-05 0)
(209.998 -0.00273537 0)
(209.935 -0.103672 0)
(209.457 -1.01283 0)
(208.378 -3.34 0)
(207.381 -5.5829 0)
(206.85 -6.68029 0)
(206.586 -7.05655 0)
(206.368 -7.19737 0)
(206.096 -7.29627 0)
(205.773 -7.59784 0)
(205.643 -7.91123 0)
(205.64 -8.15317 0)
(205.64 -8.34552 0)
(205.601 -8.5929 0)
(205.48 -8.98964 0)
(205.304 -9.4787 0)
(205.122 -9.97172 0)
(204.955 -10.4437 0)
(204.818 -10.8887 0)
(204.7 -11.3064 0)
(204.596 -11.7027 0)
(204.493 -12.088 0)
(204.389 -12.4745 0)
(204.271 -12.8691 0)
(204.131 -13.274 0)
(203.977 -13.6882 0)
(203.811 -14.1083 0)
(203.637 -14.5323 0)
(203.453 -14.9594 0)
(203.261 -15.39 0)
(203.059 -15.8232 0)
(202.846 -16.2572 0)
(202.622 -16.6935 0)
(202.397 -17.1367 0)
(202.172 -17.5879 0)
(201.947 -18.0454 0)
(201.721 -18.5069 0)
(201.492 -18.9709 0)
(201.259 -19.4355 0)
(201.026 -19.9004 0)
(200.795 -20.3658 0)
(200.57 -20.8329 0)
(200.353 -21.3018 0)
(200.145 -21.772 0)
(199.948 -22.2426 0)
(199.76 -22.7132 0)
(199.583 -23.1833 0)
(199.418 -23.6534 0)
(199.265 -24.123 0)
(199.128 -24.5918 0)
(199.007 -25.059 0)
(198.905 -25.5243 0)
(198.818 -25.9871 0)
(198.749 -26.4469 0)
(198.693 -26.9029 0)
(198.648 -27.3543 0)
(198.624 -27.8017 0)
(198.614 -28.2426 0)
(198.591 -28.6774 0)
(242.417 4.41567 0)
(233.104 -12.2026 0)
(225.825 -10.7032 0)
(220.407 -9.21257 0)
(217.211 -7.18796 0)
(214.683 -5.26513 0)
(212.747 -3.44782 0)
(211.383 -1.90887 0)
(210.546 -0.813555 0)
(210.145 -0.227365 0)
(210.02 -0.0319761 0)
(210.001 -0.00139883 0)
(210 1.32425e-05 0)
(210 1.35787e-05 0)
(210 9.38126e-06 0)
(210 4.44234e-06 0)
(210 1.44931e-06 0)
(210 1.91598e-07 0)
(210 -5.71125e-07 0)
(210 -0.000111593 0)
(209.995 -0.00930554 0)
(209.891 -0.224437 0)
(209.323 -1.52694 0)
(208.311 -4.01643 0)
(207.483 -6.0232 0)
(207.017 -6.95431 0)
(206.689 -7.3291 0)
(206.457 -7.50603 0)
(206.269 -7.64761 0)
(206.166 -7.81555 0)
(206.275 -7.96214 0)
(206.416 -8.09265 0)
(206.468 -8.32364 0)
(206.428 -8.68116 0)
(206.321 -9.18251 0)
(206.199 -9.70282 0)
(206.098 -10.1938 0)
(206.023 -10.6528 0)
(205.982 -11.0826 0)
(205.961 -11.4934 0)
(205.945 -11.901 0)
(205.922 -12.3194 0)
(205.896 -12.7529 0)
(205.862 -13.1959 0)
(205.824 -13.6404 0)
(205.786 -14.0832 0)
(205.751 -14.5246 0)
(205.721 -14.9658 0)
(205.692 -15.4081 0)
(205.663 -15.8535 0)
(205.631 -16.3039 0)
(205.6 -16.7594 0)
(205.573 -17.2185 0)
(205.554 -17.6789 0)
(205.541 -18.1395 0)
(205.537 -18.6006 0)
(205.537 -19.0632 0)
(205.549 -19.5265 0)
(205.565 -19.9909 0)
(205.589 -20.449 0)
(205.631 -20.9014 0)
(205.681 -21.3479 0)
(205.742 -21.7874 0)
(205.81 -22.2172 0)
(205.885 -22.6359 0)
(205.967 -23.0444 0)
(206.056 -23.4444 0)
(206.153 -23.8364 0)
(206.258 -24.2188 0)
(206.372 -24.5898 0)
(206.494 -24.9477 0)
(206.624 -25.2917 0)
(206.758 -25.6222 0)
(206.898 -25.9395 0)
(207.04 -26.2452 0)
(207.189 -26.5397 0)
(207.343 -26.825 0)
(207.507 -27.0957 0)
(207.634 -27.3609 0)
(235.565 -2.80695 0)
(231.691 -14.7607 0)
(226.453 -12.1129 0)
(221.051 -10.7365 0)
(217.825 -8.52891 0)
(215.263 -6.41065 0)
(213.235 -4.37567 0)
(211.743 -2.58873 0)
(210.764 -1.22796 0)
(210.24 -0.408384 0)
(210.043 -0.0756993 0)
(210.003 -0.0052871 0)
(210 -4.94664e-05 0)
(210 1.13594e-05 0)
(210 9.15298e-06 0)
(210 5.73784e-06 0)
(210 2.54472e-06 0)
(210 4.99592e-07 0)
(210 -2.09491e-06 0)
(210 -0.000344599 0)
(209.99 -0.0219658 0)
(209.841 -0.388894 0)
(209.212 -2.05958 0)
(208.273 -4.63427 0)
(207.544 -6.45546 0)
(207.128 -7.24931 0)
(206.891 -7.55632 0)
(206.738 -7.7142 0)
(206.743 -7.73462 0)
(206.88 -7.74405 0)
(207.055 -7.85367 0)
(207.201 -8.04981 0)
(207.275 -8.33848 0)
(207.255 -8.79641 0)
(207.206 -9.31938 0)
(207.177 -9.80873 0)
(207.182 -10.261 0)
(207.211 -10.6897 0)
(207.26 -11.1061 0)
(207.318 -11.5225 0)
(207.377 -11.9492 0)
(207.434 -12.3882 0)
(207.499 -12.8299 0)
(207.571 -13.2657 0)
(207.652 -13.6931 0)
(207.738 -14.1184 0)
(207.822 -14.5435 0)
(207.907 -14.9724 0)
(207.996 -15.4063 0)
(208.086 -15.8417 0)
(208.179 -16.2763 0)
(208.276 -16.7081 0)
(208.382 -17.135 0)
(208.496 -17.5548 0)
(208.619 -17.9662 0)
(208.749 -18.3692 0)
(208.885 -18.7658 0)
(209.027 -19.155 0)
(209.172 -19.5367 0)
(209.323 -19.9101 0)
(209.482 -20.2746 0)
(209.643 -20.6304 0)
(209.804 -20.9769 0)
(209.963 -21.3123 0)
(210.12 -21.6355 0)
(210.276 -21.9471 0)
(210.43 -22.2488 0)
(210.587 -22.5413 0)
(210.742 -22.8254 0)
(210.903 -23.0992 0)
(211.061 -23.3639 0)
(211.223 -23.6171 0)
(211.382 -23.8611 0)
(211.543 -24.0944 0)
(211.705 -24.3189 0)
(211.87 -24.5343 0)
(212.037 -24.742 0)
(212.207 -24.9408 0)
(212.371 -25.132 0)
(230.1 -8.63095 0)
(229.9 -16.8802 0)
(226.49 -13.3772 0)
(221.402 -12.1978 0)
(218.216 -9.84352 0)
(215.678 -7.55799 0)
(213.61 -5.33028 0)
(212.043 -3.3197 0)
(210.967 -1.70963 0)
(210.344 -0.649531 0)
(210.076 -0.149134 0)
(210.007 -0.0147372 0)
(210 -0.000326697 0)
(210 9.80032e-06 0)
(210 8.62568e-06 0)
(210 6.3562e-06 0)
(210 3.52937e-06 0)
(210 9.27814e-07 0)
(210 -5.66787e-06 0)
(210 -0.000813439 0)
(209.984 -0.0419139 0)
(209.794 -0.587024 0)
(209.132 -2.58667 0)
(208.259 -5.20089 0)
(207.64 -6.83849 0)
(207.341 -7.4798 0)
(207.221 -7.70037 0)
(207.234 -7.70354 0)
(207.412 -7.59173 0)
(207.65 -7.55595 0)
(207.814 -7.72617 0)
(207.936 -7.97409 0)
(208.013 -8.36228 0)
(208.048 -8.84612 0)
(208.096 -9.32152 0)
(208.179 -9.75376 0)
(208.284 -10.1595 0)
(208.401 -10.5558 0)
(208.528 -10.9541 0)
(208.656 -11.3627 0)
(208.784 -11.7813 0)
(208.923 -12.1998 0)
(209.079 -12.6153 0)
(209.246 -13.0119 0)
(209.423 -13.4054 0)
(209.605 -13.8024 0)
(209.786 -14.2051 0)
(209.966 -14.614 0)
(210.149 -15.0249 0)
(210.337 -15.4335 0)
(210.531 -15.8374 0)
(210.73 -16.2359 0)
(210.934 -16.629 0)
(211.141 -17.0154 0)
(211.35 -17.3944 0)
(211.561 -17.7642 0)
(211.774 -18.1247 0)
(211.987 -18.4755 0)
(212.199 -18.8165 0)
(212.411 -19.1473 0)
(212.622 -19.4678 0)
(212.831 -19.778 0)
(213.035 -20.078 0)
(213.236 -20.3667 0)
(213.432 -20.6443 0)
(213.626 -20.9094 0)
(213.816 -21.1649 0)
(214.008 -21.4087 0)
(214.195 -21.6445 0)
(214.384 -21.8697 0)
(214.569 -22.0856 0)
(214.75 -22.2932 0)
(214.933 -22.4878 0)
(215.102 -22.6781 0)
(215.282 -22.8518 0)
(215.444 -23.0249 0)
(215.621 -23.179 0)
(215.777 -23.3356 0)
(215.946 -23.4713 0)
(226.094 -13.2429 0)
(228.211 -18.7751 0)
(226.199 -14.6695 0)
(221.57 -13.5626 0)
(218.449 -11.1133 0)
(215.987 -8.6965 0)
(213.92 -6.30442 0)
(212.312 -4.09415 0)
(211.163 -2.2517 0)
(210.456 -0.950791 0)
(210.119 -0.259055 0)
(210.015 -0.0337228 0)
(210.001 -0.0012369 0)
(210 6.5082e-06 0)
(210 8.02749e-06 0)
(210 6.66266e-06 0)
(210 4.31854e-06 0)
(210 1.39956e-06 0)
(210 -1.22187e-05 0)
(209.999 -0.00157626 0)
(209.978 -0.0686947 0)
(209.755 -0.804658 0)
(209.086 -3.08625 0)
(208.3 -5.68753 0)
(207.817 -7.12269 0)
(207.664 -7.5912 0)
(207.657 -7.7367 0)
(207.817 -7.52945 0)
(208.094 -7.32098 0)
(208.367 -7.3331 0)
(208.513 -7.5427 0)
(208.635 -7.86307 0)
(208.734 -8.30842 0)
(208.848 -8.76384 0)
(208.992 -9.17403 0)
(209.163 -9.54754 0)
(209.347 -9.91124 0)
(209.537 -10.2705 0)
(209.729 -10.6398 0)
(209.922 -11.0248 0)
(210.121 -11.4156 0)
(210.332 -11.7965 0)
(210.569 -12.1613 0)
(210.817 -12.5228 0)
(211.072 -12.8895 0)
(211.332 -13.2632 0)
(211.592 -13.6404 0)
(211.852 -14.0174 0)
(212.113 -14.3903 0)
(212.377 -14.7566 0)
(212.646 -15.1167 0)
(212.918 -15.4723 0)
(213.189 -15.8255 0)
(213.459 -16.1744 0)
(213.724 -16.5165 0)
(213.984 -16.8484 0)
(214.24 -17.1678 0)
(214.491 -17.4757 0)
(214.736 -17.7724 0)
(214.975 -18.058 0)
(215.207 -18.3334 0)
(215.434 -18.5971 0)
(215.653 -18.8507 0)
(215.869 -19.0913 0)
(216.074 -19.3234 0)
(216.277 -19.5437 0)
(216.469 -19.7578 0)
(216.659 -19.962 0)
(216.841 -20.1578 0)
(217.015 -20.3459 0)
(217.19 -20.5207 0)
(217.346 -20.6923 0)
(217.509 -20.8466 0)
(217.648 -21.0011 0)
(217.798 -21.1365 0)
(217.922 -21.2735 0)
(218.057 -21.3922 0)
(218.167 -21.5122 0)
(218.286 -21.6157 0)
(223.106 -16.7807 0)
(226.504 -20.3453 0)
(225.629 -16.0055 0)
(221.571 -14.799 0)
(218.525 -12.3137 0)
(216.17 -9.80116 0)
(214.143 -7.27525 0)
(212.526 -4.89217 0)
(211.335 -2.83843 0)
(210.565 -1.30499 0)
(210.167 -0.408266 0)
(210.027 -0.0664902 0)
(210.001 -0.00356584 0)
(210 -1.28517e-05 0)
(210 7.59792e-06 0)
(210 6.82578e-06 0)
(210 4.96605e-06 0)
(210 1.86547e-06 0)
(210 -2.19668e-05 0)
(209.999 -0.00261235 0)
(209.973 -0.100054 0)
(209.731 -1.02308 0)
(209.087 -3.52798 0)
(208.423 -6.05862 0)
(208.084 -7.30713 0)
(208.044 -7.6529 0)
(208.132 -7.62347 0)
(208.43 -7.27391 0)
(208.752 -7.03869 0)
(209.022 -7.10354 0)
(209.172 -7.33388 0)
(209.314 -7.68913 0)
(209.451 -8.1257 0)
(209.626 -8.52562 0)
(209.842 -8.87653 0)
(210.078 -9.21453 0)
(210.33 -9.52806 0)
(210.586 -9.85204 0)
(210.841 -10.198 0)
(211.102 -10.5552 0)
(211.372 -10.9061 0)
(211.652 -11.2415 0)
(211.949 -11.5625 0)
(212.256 -11.8848 0)
(212.567 -12.2159 0)
(212.883 -12.5534 0)
(213.203 -12.8914 0)
(213.526 -13.2244 0)
(213.85 -13.5498 0)
(214.173 -13.8665 0)
(214.495 -14.1769 0)
(214.814 -14.4836 0)
(215.126 -14.7892 0)
(215.432 -15.0916 0)
(215.729 -15.3875 0)
(216.016 -15.6737 0)
(216.296 -15.9483 0)
(216.568 -16.2118 0)
(216.831 -16.4659 0)
(217.086 -16.7098 0)
(217.33 -16.9463 0)
(217.566 -17.1721 0)
(217.788 -17.3914 0)
(218.003 -17.5993 0)
(218.201 -17.8022 0)
(218.394 -17.9951 0)
(218.572 -18.1827 0)
(218.743 -18.3625 0)
(218.906 -18.5332 0)
(219.056 -18.6987 0)
(219.206 -18.8516 0)
(219.337 -19.0023 0)
(219.473 -19.1393 0)
(219.588 -19.2751 0)
(219.709 -19.3982 0)
(219.811 -19.5191 0)
(219.916 -19.6293 0)
(220.005 -19.7361 0)
(220.091 -19.8342 0)
(220.884 -19.4522 0)
(224.897 -21.6479 0)
(224.892 -17.3501 0)
(221.445 -15.9144 0)
(218.486 -13.4416 0)
(216.247 -10.8611 0)
(214.286 -8.23057 0)
(212.687 -5.70058 0)
(211.477 -3.45661 0)
(210.665 -1.703 0)
(210.218 -0.596082 0)
(210.042 -0.116613 0)
(210.003 -0.00847032 0)
(210 -9.1528e-05 0)
(210 7.54669e-06 0)
(210 6.95667e-06 0)
(210 5.47933e-06 0)
(210 2.31068e-06 0)
(210 -3.39829e-05 0)
(209.999 -0.00380518 0)
(209.969 -0.132188 0)
(209.725 -1.22109 0)
(209.138 -3.88641 0)
(208.6 -6.3298 0)
(208.417 -7.38483 0)
(208.46 -7.67939 0)
(208.648 -7.41487 0)
(208.998 -6.95566 0)
(209.352 -6.74535 0)
(209.611 -6.84545 0)
(209.783 -7.07984 0)
(209.954 -7.43447 0)
(210.133 -7.821 0)
(210.357 -8.16642 0)
(210.624 -8.47937 0)
(210.91 -8.76675 0)
(211.221 -9.03742 0)
(211.534 -9.33284 0)
(211.847 -9.64818 0)
(212.168 -9.96385 0)
(212.498 -10.2651 0)
(212.835 -10.5492 0)
(213.179 -10.8248 0)
(213.528 -11.1027 0)
(213.881 -11.3884 0)
(214.241 -11.6777 0)
(214.606 -11.9654 0)
(214.976 -12.2469 0)
(215.346 -12.5204 0)
(215.712 -12.7859 0)
(216.071 -13.0458 0)
(216.421 -13.3026 0)
(216.762 -13.5576 0)
(217.093 -13.8098 0)
(217.415 -14.0573 0)
(217.729 -14.2994 0)
(218.035 -14.5366 0)
(218.333 -14.7688 0)
(218.623 -14.9981 0)
(218.907 -15.2219 0)
(219.178 -15.4438 0)
(219.441 -15.6591 0)
(219.686 -15.8733 0)
(219.922 -16.0805 0)
(220.14 -16.2857 0)
(220.346 -16.4839 0)
(220.539 -16.6772 0)
(220.72 -16.8653 0)
(220.893 -17.0456 0)
(221.051 -17.2233 0)
(221.206 -17.3917 0)
(221.346 -17.5583 0)
(221.485 -17.7159 0)
(221.609 -17.8714 0)
(221.732 -18.0195 0)
(221.843 -18.1644 0)
(221.95 -18.3031 0)
(222.046 -18.4377 0)
(222.134 -18.5668 0)
(219.127 -21.4268 0)
(223.474 -22.8826 0)
(224.043 -18.5606 0)
(221.184 -16.8779 0)
(218.35 -14.4865 0)
(216.232 -11.8692 0)
(214.354 -9.16097 0)
(212.791 -6.50768 0)
(211.583 -4.09377 0)
(210.748 -2.13465 0)
(210.265 -0.818914 0)
(210.058 -0.186239 0)
(210.005 -0.0173232 0)
(210 -0.000322735 0)
(210 7.79864e-06 0)
(210 7.17922e-06 0)
(210 5.90283e-06 0)
(210 2.74016e-06 0)
(210 -4.56664e-05 0)
(209.999 -0.0049303 0)
(209.97 -0.160301 0)
(209.746 -1.37885 0)
(209.249 -4.13821 0)
(208.836 -6.48586 0)
(208.785 -7.35827 0)
(208.873 -7.59136 0)
(209.145 -7.11604 0)
(209.514 -6.6005 0)
(209.876 -6.42452 0)
(210.129 -6.53514 0)
(210.334 -6.77205 0)
(210.55 -7.11222 0)
(210.789 -7.442 0)
(211.052 -7.74909 0)
(211.35 -8.0053 0)
(211.667 -8.23598 0)
(212.011 -8.46394 0)
(212.361 -8.71886 0)
(212.715 -8.98739 0)
(213.081 -9.2461 0)
(213.457 -9.49103 0)
(213.839 -9.72106 0)
(214.221 -9.94725 0)
(214.605 -10.1747 0)
(214.991 -10.4056 0)
(215.383 -10.637 0)
(215.781 -10.8656 0)
(216.181 -11.0906 0)
(216.582 -11.3103 0)
(216.978 -11.5248 0)
(217.367 -11.7352 0)
(217.748 -11.9435 0)
(218.121 -12.1495 0)
(218.484 -12.3525 0)
(218.841 -12.5535 0)
(219.191 -12.7543 0)
(219.535 -12.9585 0)
(219.875 -13.1648 0)
(220.209 -13.3751 0)
(220.539 -13.584 0)
(220.86 -13.7946 0)
(221.173 -14.0017 0)
(221.472 -14.2098 0)
(221.759 -14.4144 0)
(222.029 -14.6181 0)
(222.286 -14.8185 0)
(222.528 -15.0155 0)
(222.755 -15.2109 0)
(222.972 -15.4023 0)
(223.175 -15.5938 0)
(223.37 -15.7813 0)
(223.553 -15.9682 0)
(223.728 -16.1514 0)
(223.895 -16.3332 0)
(224.055 -16.5122 0)
(224.207 -16.6888 0)
(224.353 -16.8625 0)
(224.49 -17.0331 0)
(224.619 -17.2004 0)
(217.79 -22.9143 0)
(222.16 -23.9767 0)
(223.187 -19.6635 0)
(220.837 -17.7211 0)
(218.145 -15.4472 0)
(216.138 -12.8227 0)
(214.354 -10.0607 0)
(212.842 -7.30455 0)
(211.652 -4.73935 0)
(210.811 -2.59001 0)
(210.306 -1.07125 0)
(210.075 -0.275758 0)
(210.009 -0.0314358 0)
(210 -0.000860772 0)
(210 7.6802e-06 0)
(210 7.45499e-06 0)
(210 6.30858e-06 0)
(210 3.20213e-06 0)
(210 -5.0333e-05 0)
(209.999 -0.0054889 0)
(209.976 -0.175939 0)
(209.798 -1.46873 0)
(209.407 -4.25968 0)
(209.099 -6.49227 0)
(209.139 -7.26101 0)
(209.278 -7.40068 0)
(209.598 -6.78074 0)
(209.963 -6.23101 0)
(210.324 -6.08761 0)
(210.582 -6.19544 0)
(210.822 -6.41797 0)
(211.075 -6.7273 0)
(211.371 -6.99625 0)
(211.672 -7.26746 0)
(212.008 -7.46472 0)
(212.354 -7.64443 0)
(212.712 -7.82683 0)
(213.078 -8.02908 0)
(213.455 -8.2354 0)
(213.851 -8.42663 0)
(214.255 -8.60881 0)
(214.665 -8.78029 0)
(215.074 -8.94865 0)
(215.482 -9.11637 0)
(215.891 -9.28217 0)
(216.304 -9.44605 0)
(216.722 -9.60753 0)
(217.142 -9.77164 0)
(217.562 -9.93529 0)
(217.981 -10.0971 0)
(218.396 -10.2562 0)
(218.807 -10.4143 0)
(219.214 -10.5705 0)
(219.615 -10.7224 0)
(220.013 -10.8721 0)
(220.408 -11.0229 0)
(220.8 -11.1813 0)
(221.189 -11.3467 0)
(221.575 -11.5203 0)
(221.959 -11.6967 0)
(222.338 -11.8765 0)
(222.711 -12.0553 0)
(223.075 -12.2347 0)
(223.429 -12.4121 0)
(223.771 -12.589 0)
(224.1 -12.7649 0)
(224.416 -12.9402 0)
(224.717 -13.1158 0)
(225.007 -13.2912 0)
(225.284 -13.4677 0)
(225.55 -13.6448 0)
(225.807 -13.8225 0)
(226.054 -14.0005 0)
(226.294 -14.1781 0)
(226.527 -14.3556 0)
(226.753 -14.5318 0)
(226.972 -14.7069 0)
(227.183 -14.88 0)
(227.386 -15.0508 0)
(216.817 -24.0803 0)
(220.935 -24.8505 0)
(222.293 -20.6777 0)
(220.447 -18.5131 0)
(217.894 -16.3391 0)
(215.979 -13.7195 0)
(214.292 -10.9244 0)
(212.841 -8.08398 0)
(211.682 -5.38463 0)
(210.849 -3.05999 0)
(210.336 -1.34658 0)
(210.089 -0.383865 0)
(210.012 -0.0517574 0)
(210 -0.00190886 0)
(210 5.05007e-06 0)
(210 7.59457e-06 0)
(210 6.7754e-06 0)
(210 3.71917e-06 0)
(210 -4.86417e-05 0)
(209.999 -0.00537043 0)
(209.981 -0.173903 0)
(209.846 -1.46189 0)
(209.56 -4.24957 0)
(209.412 -6.40975 0)
(209.492 -7.1688 0)
(209.69 -7.18968 0)
(210.009 -6.46397 0)
(210.361 -5.89305 0)
(210.718 -5.75988 0)
(210.986 -5.86127 0)
(211.246 -6.03859 0)
(211.512 -6.29536 0)
(211.835 -6.50178 0)
(212.179 -6.71228 0)
(212.546 -6.86625 0)
(212.92 -6.99912 0)
(213.29 -7.13888 0)
(213.669 -7.28145 0)
(214.06 -7.42035 0)
(214.47 -7.53955 0)
(214.89 -7.65548 0)
(215.316 -7.76666 0)
(215.742 -7.87107 0)
(216.167 -7.9717 0)
(216.593 -8.06266 0)
(217.02 -8.15015 0)
(217.45 -8.23576 0)
(217.88 -8.33195 0)
(218.311 -8.43146 0)
(218.742 -8.53149 0)
(219.175 -8.63045 0)
(219.606 -8.7326 0)
(220.035 -8.83298 0)
(220.463 -8.92558 0)
(220.893 -9.01042 0)
(221.323 -9.09382 0)
(221.753 -9.18389 0)
(222.183 -9.28283 0)
(222.61 -9.39138 0)
(223.037 -9.50538 0)
(223.46 -9.62327 0)
(223.881 -9.74106 0)
(224.297 -9.85761 0)
(224.707 -9.97105 0)
(225.11 -10.083 0)
(225.505 -10.1945 0)
(225.89 -10.3068 0)
(226.266 -10.4197 0)
(226.632 -10.5341 0)
(226.989 -10.6499 0)
(227.336 -10.7682 0)
(227.674 -10.8878 0)
(228.003 -11.0093 0)
(228.323 -11.1313 0)
(228.634 -11.2541 0)
(228.937 -11.3764 0)
(229.232 -11.4981 0)
(229.519 -11.6187 0)
(229.797 -11.7378 0)
(216.09 -25.0266 0)
(219.832 -25.5339 0)
(221.32 -21.6031 0)
(220.003 -19.2974 0)
(217.602 -17.1734 0)
(215.767 -14.5603 0)
(214.177 -11.7484 0)
(212.792 -8.84032 0)
(211.675 -6.02259 0)
(210.862 -3.53665 0)
(210.353 -1.63815 0)
(210.1 -0.507893 0)
(210.015 -0.078652 0)
(210.001 -0.00367985 0)
(210 -5.16357e-06 0)
(210 7.81251e-06 0)
(210 7.23047e-06 0)
(210 4.28786e-06 0)
(210 -4.26817e-05 0)
(210 -0.00487111 0)
(209.988 -0.162487 0)
(209.9 -1.40054 0)
(209.712 -4.13758 0)
(209.679 -6.26085 0)
(209.824 -7.01 0)
(210.113 -7.0199 0)
(210.413 -6.22301 0)
(210.718 -5.61241 0)
(211.055 -5.43035 0)
(211.34 -5.50642 0)
(211.609 -5.66921 0)
(211.896 -5.83908 0)
(212.202 -6.00833 0)
(212.565 -6.10525 0)
(212.941 -6.22356 0)
(213.331 -6.31913 0)
(213.714 -6.42618 0)
(214.105 -6.50845 0)
(214.504 -6.57849 0)
(214.918 -6.62543 0)
(215.341 -6.67476 0)
(215.769 -6.72795 0)
(216.199 -6.76944 0)
(216.629 -6.80411 0)
(217.063 -6.81906 0)
(217.5 -6.82875 0)
(217.936 -6.83511 0)
(218.371 -6.8567 0)
(218.806 -6.88048 0)
(219.243 -6.90374 0)
(219.681 -6.93036 0)
(220.116 -6.96956 0)
(220.549 -7.00663 0)
(220.984 -7.02744 0)
(221.423 -7.0298 0)
(221.863 -7.0275 0)
(222.305 -7.03128 0)
(222.745 -7.04461 0)
(223.184 -7.06578 0)
(223.622 -7.09152 0)
(224.059 -7.11804 0)
(224.495 -7.14297 0)
(224.929 -7.16432 0)
(225.361 -7.18248 0)
(225.789 -7.1992 0)
(226.212 -7.21627 0)
(226.629 -7.23394 0)
(227.039 -7.25186 0)
(227.441 -7.27023 0)
(227.835 -7.2893 0)
(228.22 -7.30926 0)
(228.596 -7.32912 0)
(228.962 -7.34828 0)
(229.321 -7.36658 0)
(229.671 -7.3846 0)
(230.013 -7.40216 0)
(230.348 -7.41902 0)
(230.676 -7.43527 0)
(230.997 -7.45125 0)
(215.637 -25.7803 0)
(218.882 -26.0484 0)
(220.285 -22.4315 0)
(219.496 -20.0917 0)
(217.26 -17.9523 0)
(215.511 -15.347 0)
(214.018 -12.5316 0)
(212.701 -9.56974 0)
(211.633 -6.64772 0)
(210.85 -4.01322 0)
(210.355 -1.93941 0)
(210.105 -0.644259 0)
(210.017 -0.111806 0)
(210.001 -0.00634018 0)
(210 -3.06467e-05 0)
(210 8.14046e-06 0)
(210 7.687e-06 0)
(210 4.90905e-06 0)
(210 -3.2375e-05 0)
(210 -0.00393667 0)
(209.996 -0.139582 0)
(209.957 -1.27312 0)
(209.881 -3.90026 0)
(209.87 -6.09321 0)
(210.182 -6.72685 0)
(210.462 -6.83177 0)
(210.746 -6.02803 0)
(211.009 -5.35429 0)
(211.343 -5.08702 0)
(211.656 -5.12338 0)
(211.921 -5.30893 0)
(212.224 -5.40394 0)
(212.514 -5.52385 0)
(212.857 -5.51385 0)
(213.23 -5.57192 0)
(213.611 -5.63736 0)
(213.987 -5.70919 0)
(214.372 -5.74038 0)
(214.771 -5.74247 0)
(215.181 -5.72587 0)
(215.598 -5.71137 0)
(216.015 -5.71028 0)
(216.432 -5.69771 0)
(216.852 -5.6767 0)
(217.276 -5.62753 0)
(217.704 -5.56887 0)
(218.132 -5.50298 0)
(218.561 -5.44889 0)
(218.99 -5.3911 0)
(219.42 -5.32853 0)
(219.847 -5.27713 0)
(220.268 -5.24842 0)
(220.687 -5.2156 0)
(221.109 -5.15387 0)
(221.534 -5.06175 0)
(221.959 -4.96442 0)
(222.381 -4.87735 0)
(222.799 -4.80121 0)
(223.215 -4.72898 0)
(223.628 -4.65636 0)
(224.039 -4.57674 0)
(224.451 -4.49099 0)
(224.861 -4.40017 0)
(225.27 -4.30956 0)
(225.675 -4.21975 0)
(226.075 -4.13302 0)
(226.469 -4.04773 0)
(226.855 -3.96458 0)
(227.232 -3.88111 0)
(227.6 -3.79659 0)
(227.961 -3.70848 0)
(228.315 -3.61735 0)
(228.663 -3.52323 0)
(229.005 -3.42797 0)
(229.341 -3.33131 0)
(229.671 -3.23444 0)
(229.993 -3.13678 0)
(230.308 -3.03994 0)
(230.615 -2.94393 0)
(215.388 -26.3634 0)
(218.084 -26.3821 0)
(219.226 -23.1208 0)
(218.919 -20.8765 0)
(216.859 -18.675 0)
(215.219 -16.0839 0)
(213.82 -13.275 0)
(212.573 -10.27 0)
(211.558 -7.25587 0)
(210.813 -4.48403 0)
(210.342 -2.24436 0)
(210.104 -0.788898 0)
(210.018 -0.150266 0)
(210.001 -0.00995594 0)
(210 -8.00801e-05 0)
(210 8.59387e-06 0)
(210 8.15635e-06 0)
(210 5.57567e-06 0)
(210 -2.0375e-05 0)
(210 -0.00277414 0)
(210.002 -0.108533 0)
(210.006 -1.0897 0)
(210.049 -3.55435 0)
(210.056 -5.87253 0)
(210.546 -6.36498 0)
(210.722 -6.60928 0)
(210.988 -5.84582 0)
(211.235 -5.09184 0)
(211.589 -4.73877 0)
(211.912 -4.73051 0)
(212.161 -4.92207 0)
(212.467 -4.99389 0)
(212.771 -5.04469 0)
(213.091 -4.98546 0)
(213.446 -4.95968 0)
(213.802 -4.98637 0)
(214.147 -5.00668 0)
(214.509 -4.99839 0)
(214.892 -4.94068 0)
(215.283 -4.87295 0)
(215.676 -4.80167 0)
(216.072 -4.75025 0)
(216.468 -4.69542 0)
(216.865 -4.62825 0)
(217.263 -4.53042 0)
(217.665 -4.41529 0)
(218.065 -4.28935 0)
(218.466 -4.16617 0)
(218.869 -4.03378 0)
(219.269 -3.89368 0)
(219.661 -3.77274 0)
(220.047 -3.6778 0)
(220.431 -3.57479 0)
(220.818 -3.43196 0)
(221.204 -3.25361 0)
(221.583 -3.07281 0)
(221.957 -2.90675 0)
(222.324 -2.75134 0)
(222.686 -2.59529 0)
(223.045 -2.43266 0)
(223.401 -2.25473 0)
(223.756 -2.06689 0)
(224.105 -1.87526 0)
(224.452 -1.68923 0)
(224.791 -1.50753 0)
(225.123 -1.33272 0)
(225.446 -1.16329 0)
(225.762 -1.0016 0)
(226.071 -0.84101 0)
(226.376 -0.677767 0)
(226.672 -0.50691 0)
(226.963 -0.33136 0)
(227.244 -0.151552 0)
(227.517 0.0295056 0)
(227.782 0.213715 0)
(228.039 0.399054 0)
(228.288 0.585203 0)
(228.53 0.769602 0)
(228.765 0.952365 0)
(215.298 -26.7068 0)
(217.431 -26.4828 0)
(218.208 -23.6336 0)
(218.285 -21.6101 0)
(216.397 -19.3392 0)
(214.895 -16.7751 0)
(213.589 -13.9798 0)
(212.411 -10.94 0)
(211.454 -7.84406 0)
(210.753 -4.94444 0)
(210.314 -2.54763 0)
(210.095 -0.937612 0)
(210.017 -0.192573 0)
(210.001 -0.0144592 0)
(210 -0.000160072 0)
(210 9.16486e-06 0)
(210 8.64373e-06 0)
(210 6.27779e-06 0)
(210 -9.88435e-06 0)
(210 -0.001679 0)
(210.005 -0.0752931 0)
(210.04 -0.867913 0)
(210.18 -3.12231 0)
(210.243 -5.53305 0)
(210.859 -5.99562 0)
(210.97 -6.38658 0)
(211.196 -5.70199 0)
(211.425 -4.84016 0)
(211.777 -4.38997 0)
(212.086 -4.33798 0)
(212.326 -4.50982 0)
(212.631 -4.57088 0)
(212.958 -4.54653 0)
(213.273 -4.50735 0)
(213.593 -4.40627 0)
(213.92 -4.38788 0)
(214.224 -4.35509 0)
(214.56 -4.30748 0)
(214.916 -4.19579 0)
(215.278 -4.07762 0)
(215.637 -3.96027 0)
(215.997 -3.86564 0)
(216.36 -3.78101 0)
(216.72 -3.67344 0)
(217.082 -3.5376 0)
(217.442 -3.37391 0)
(217.799 -3.19833 0)
(218.155 -3.01744 0)
(218.51 -2.82776 0)
(218.855 -2.63221 0)
(219.191 -2.45908 0)
(219.521 -2.30713 0)
(219.851 -2.14276 0)
(220.18 -1.93649 0)
(220.505 -1.69873 0)
(220.817 -1.46021 0)
(221.12 -1.23504 0)
(221.417 -1.01748 0)
(221.708 -0.795946 0)
(221.996 -0.564729 0)
(222.277 -0.316689 0)
(222.553 -0.0613507 0)
(222.82 0.194484 0)
(223.081 0.440502 0)
(223.33 0.678645 0)
(223.576 0.904251 0)
(223.811 1.12358 0)
(224.041 1.33575 0)
(224.26 1.54882 0)
(224.475 1.76342 0)
(224.681 1.98458 0)
(224.882 2.20885 0)
(225.074 2.43642 0)
(225.26 2.66459 0)
(225.438 2.89462 0)
(225.608 3.12417 0)
(225.77 3.35253 0)
(225.924 3.57733 0)
(226.071 3.79784 0)
(215.294 -26.8251 0)
(216.912 -26.4129 0)
(217.294 -23.9882 0)
(217.616 -22.2371 0)
(215.882 -19.9363 0)
(214.541 -17.421 0)
(213.329 -14.6471 0)
(212.221 -11.5798 0)
(211.325 -8.41019 0)
(210.673 -5.39068 0)
(210.271 -2.84454 0)
(210.079 -1.08633 0)
(210.014 -0.236942 0)
(210.001 -0.0196439 0)
(210 -0.000271883 0)
(210 9.82432e-06 0)
(210 9.14574e-06 0)
(210 7.0031e-06 0)
(210 -2.62856e-06 0)
(210 -0.000859553 0)
(210.005 -0.0457831 0)
(210.057 -0.632626 0)
(210.261 -2.61445 0)
(210.404 -5.05733 0)
(211.102 -5.61301 0)
(211.194 -6.15568 0)
(211.412 -5.60458 0)
(211.612 -4.64892 0)
(211.915 -4.06022 0)
(212.181 -3.95766 0)
(212.418 -4.0887 0)
(212.713 -4.09833 0)
(213.068 -4.02722 0)
(213.377 -4.02815 0)
(213.667 -3.90245 0)
(213.964 -3.84872 0)
(214.241 -3.7803 0)
(214.55 -3.67545 0)
(214.877 -3.51984 0)
(215.201 -3.35433 0)
(215.523 -3.20933 0)
(215.833 -3.07845 0)
(216.151 -2.96954 0)
(216.459 -2.82429 0)