/*--------------------------------*- C++ -*----------------------------------*\
| =========                 |                                                 |
| \\      /  F ield         | OpenFOAM: The Open Source CFD Toolbox           |
|  \\    /   O peration     | Version:  2412                                  |
|   \\  /    A nd           | Website:  www.openfoam.com                      |
|    \\/     M anipulation  |                                                 |
\*---------------------------------------------------------------------------*/
FoamFile
{
    version     2.0;
    format      ascii;
    arch        "LSB;label=32;scalar=64";
    class       volScalarField;
    location    "0.041";
    object      rho;
}
// * * * * * * * * * * * * * * * * * * * * * * * * * * * * * * * * * * * * * //

dimensions      [1 -3 0 0 0 0 0];

internalField   nonuniform List<scalar> 
78650
(
0.042133
0.042133
0.042133
0.042133
0.042133
0.0421335
0.0421417
0.0421963
0.0423247
0.0424481
0.042487
0.0424845
0.0423968
0.0422346
0.0420887
0.041985
0.041911
0.0418483
0.0417808
0.0417043
0.041625
0.041559
0.041525
0.0415199
0.0415388
0.0415808
0.0416164
0.0416295
0.0416281
0.0416153
0.0415969
0.0415809
0.0415677
0.0415552
0.0415416
0.0415275
0.0415136
0.0415005
0.0414884
0.041477
0.0414663
0.0414561
0.0414466
0.0414379
0.0414302
0.0414236
0.0414181
0.0414134
0.041409
0.0414049
0.0414012
0.0413979
0.0413948
0.0413917
0.0413883
0.0413845
0.0413802
0.0413753
0.0413695
0.0413628
0.0413547
0.0413451
0.0413338
0.0413204
0.0413045
0.0412857
0.0412633
0.041237
0.041206
0.0411698
0.0411278
0.0410792
0.0410236
0.0409604
0.0408884
0.0408065
0.0407135
0.0406082
0.0404896
0.0403563
0.040207
0.0400401
0.0398538
0.0396468
0.0394174
0.0391643
0.0388852
0.0385781
0.0382371
0.0378632
0.0374579
0.0370258
0.0365519
0.0360391
0.0354747
0.0348733
0.0342376
0.0335598
0.0328421
0.0321088
0.0313381
0.0305151
0.0296777
0.0288205
0.0279696
0.0271717
0.0263903
0.0256525
0.0249373
0.0242514
0.0235931
0.0229852
0.0224081
0.0218678
0.0213771
0.0209067
0.0204969
0.0200955
0.0197171
0.0193703
0.0187757
0.042133
0.042133
0.042133
0.042133
0.042133
0.0421332
0.0421381
0.042179
0.042297
0.0424327
0.0424887
0.0424977
0.042434
0.0422807
0.0421269
0.0420169
0.0419411
0.0418806
0.041818
0.0417471
0.0416714
0.0416016
0.0415556
0.0415415
0.0415503
0.0415851
0.0416265
0.0416482
0.0416517
0.0416446
0.0416283
0.0416121
0.0415994
0.0415885
0.0415771
0.0415652
0.0415532
0.041542
0.0415317
0.0415221
0.0415132
0.041505
0.0414974
0.0414906
0.0414849
0.0414803
0.0414768
0.0414743
0.0414722
0.0414705
0.0414693
0.0414685
0.041468
0.0414677
0.0414673
0.0414667
0.0414657
0.0414643
0.0414622
0.0414594
0.0414556
0.0414504
0.0414438
0.0414355
0.0414251
0.0414121
0.0413962
0.0413767
0.0413531
0.041325
0.0412915
0.0412523
0.0412067
0.0411542
0.041094
0.041025
0.0409459
0.0408558
0.0407534
0.0406377
0.0405074
0.0403612
0.0401974
0.0400145
0.0398102
0.0395832
0.0393308
0.0390514
0.0387423
0.0384056
0.038038
0.0376355
0.0371867
0.0367029
0.0361801
0.0356355
0.0350532
0.0344231
0.0337378
0.0330148
0.0322917
0.0315361
0.0307745
0.029965
0.0291136
0.0282672
0.0274229
0.0265873
0.025801
0.0250338
0.0243018
0.0236182
0.0229626
0.0223524
0.0218124
0.0213135
0.0208656
0.0204403
0.0200436
0.0196651
0.0190238
0.042133
0.042133
0.042133
0.042133
0.042133
0.0421331
0.0421359
0.0421646
0.0422681
0.0424122
0.0424885
0.0425096
0.0424665
0.0423257
0.0421658
0.0420502
0.0419725
0.0419139
0.0418555
0.0417898
0.0417185
0.0416482
0.0415926
0.0415677
0.0415678
0.0415906
0.041633
0.0416648
0.0416749
0.0416723
0.0416602
0.0416448
0.0416323
0.0416225
0.0416132
0.0416035
0.0415937
0.0415845
0.041576
0.0415683
0.0415613
0.041555
0.0415493
0.0415445
0.0415406
0.041538
0.0415366
0.0415363
0.0415366
0.0415373
0.0415385
0.0415402
0.0415425
0.041545
0.0415476
0.0415502
0.0415525
0.0415545
0.0415562
0.0415572
0.0415575
0.0415568
0.0415549
0.0415516
0.0415467
0.0415394
0.0415297
0.0415169
0.0415004
0.0414801
0.041455
0.0414248
0.0413888
0.0413467
0.0412976
0.0412406
0.0411747
0.0410987
0.0410116
0.0409123
0.0407997
0.0406724
0.0405288
0.0403674
0.0401863
0.0399846
0.0397599
0.0395109
0.0392345
0.0389304
0.0385945
0.0382243
0.0378152
0.0373748
0.036895
0.0363847
0.0358231
0.0352238
0.0345848
0.0338774
0.0331376
0.0323762
0.0315974
0.0308331
0.0300399
0.0292239
0.0284139
0.027566
0.0267404
0.0259331
0.0251423
0.0244042
0.0236893
0.0230204
0.0223937
0.0217886
0.0212194
0.0206634
0.0201747
0.01974
0.0190068
0.042133
0.042133
0.042133
0.042133
0.042133
0.0421331
0.0421345
0.0421533
0.0422391
0.0423862
0.0424857
0.0425201
0.0424923
0.0423697
0.042208
0.0420868
0.0420065
0.0419489
0.0418942
0.0418331
0.0417662
0.0416977
0.0416364
0.0415987
0.0415892
0.0416005
0.0416375
0.0416775
0.0416966
0.0416989
0.0416925
0.0416793
0.0416669
0.0416579
0.0416504
0.0416429
0.0416353
0.0416283
0.0416218
0.0416159
0.0416107
0.0416062
0.0416025
0.0415995
0.0415976
0.0415969
0.0415976
0.0415995
0.041602
0.0416051
0.0416087
0.0416129
0.0416178
0.0416231
0.0416286
0.0416342
0.0416397
0.0416451
0.0416504
0.0416552
0.0416595
0.041663
0.0416657
0.0416671
0.0416673
0.0416656
0.0416619
0.0416557
0.041646
0.0416331
0.0416161
0.0415944
0.0415677
0.0415355
0.0414972
0.0414519
0.0413987
0.0413365
0.0412643
0.0411811
0.0410859
0.0409774
0.0408542
0.0407149
0.0405578
0.0403816
0.0401836
0.0399623
0.0397155
0.0394428
0.0391396
0.0388029
0.0384298
0.038027
0.0375903
0.0371233
0.0366047
0.0360491
0.035445
0.0347994
0.0341048
0.0333677
0.0325683
0.0317483
0.0309203
0.0300672
0.0292373
0.0283999
0.0275621
0.0267486
0.0259372
0.0251609
0.0244106
0.023714
0.0230554
0.0224332
0.0218687
0.021312
0.0207572
0.0202297
0.019353
0.042133
0.042133
0.042133
0.042133
0.042133
0.0421331
0.0421337
0.042145
0.0422116
0.0423548
0.0424773
0.0425268
0.0425104
0.0424134
0.0422545
0.0421267
0.0420428
0.0419854
0.041934
0.0418769
0.0418139
0.0417483
0.0416847
0.0416359
0.0416156
0.0416173
0.0416425
0.0416856
0.0417163
0.0417258
0.0417243
0.0417153
0.041704
0.0416953
0.0416892
0.0416837
0.0416784
0.0416737
0.0416692
0.0416653
0.041662
0.0416593
0.0416574
0.0416564
0.0416563
0.0416576
0.0416603
0.0416642
0.0416691
0.0416745
0.0416806
0.0416873
0.0416948
0.0417028
0.0417113
0.0417199
0.0417286
0.0417374
0.0417462
0.0417547
0.041763
0.0417707
0.0417778
0.041784
0.0417892
0.0417929
0.0417948
0.0417949
0.0417921
0.0417864
0.0417771
0.0417638
0.041746
0.0417232
0.0416952
0.041661
0.0416198
0.0415706
0.0415125
0.0414443
0.0413653
0.0412743
0.04117
0.041051
0.0409155
0.0407622
0.0405892
0.0403954
0.0401786
0.039937
0.0396662
0.0393661
0.0390364
0.0386782
0.0382801
0.0378399
0.037348
0.0368276
0.0362636
0.0356677
0.0350316
0.0343504
0.0336256
0.0328373
0.0320306
0.0311589
0.030281
0.0293812
0.0284739
0.0275789
0.026699
0.0258421
0.025021
0.0242567
0.0235237
0.0228365
0.022225
0.0216534
0.0211277
0.0206339
0.0197662
0.042133
0.042133
0.042133
0.042133
0.042133
0.042133
0.0421333
0.0421395
0.0421872
0.0423186
0.0424611
0.042529
0.0425239
0.0424563
0.0423054
0.0421701
0.0420816
0.0420236
0.0419753
0.0419217
0.0418616
0.0417987
0.0417358
0.0416802
0.0416474
0.0416397
0.0416522
0.0416914
0.0417321
0.0417524
0.0417562
0.0417523
0.0417433
0.0417352
0.04173
0.0417261
0.041723
0.0417206
0.0417184
0.0417164
0.041715
0.0417142
0.0417141
0.0417149
0.0417168
0.04172
0.0417246
0.0417306
0.0417378
0.0417456
0.0417541
0.0417633
0.0417733
0.0417841
0.0417954
0.041807
0.0418188
0.0418309
0.0418431
0.0418553
0.0418673
0.0418792
0.0418905
0.0419013
0.0419114
0.0419204
0.0419279
0.0419336
0.0419373
0.0419385
0.0419368
0.0419316
0.0419225
0.0419088
0.0418906
0.0418669
0.0418374
0.0418008
0.0417563
0.0417029
0.0416398
0.041566
0.0414803
0.0413814
0.0412676
0.0411379
0.0409902
0.0408234
0.0406348
0.0404229
0.0401846
0.0399194
0.0396243
0.0392969
0.0389293
0.0385245
0.0380788
0.0376045
0.0370851
0.0365311
0.0359187
0.0352585
0.0345629
0.0338156
0.0330515
0.0322409
0.0314077
0.0305488
0.0296588
0.0287569
0.0278478
0.026945
0.0260516
0.0251989
0.0243559
0.0235587
0.0228112
0.0220858
0.0214282
0.020837
0.019748
0.042133
0.042133
0.042133
0.042133
0.042133
0.042133
0.0421331
0.0421362
0.0421674
0.0422796
0.0424353
0.0425271
0.0425352
0.0424952
0.042358
0.0422164
0.0421231
0.0420635
0.0420173
0.0419666
0.0419085
0.0418478
0.0417872
0.0417293
0.041686
0.0416685
0.0416708
0.0416983
0.0417436
0.0417768
0.0417891
0.0417898
0.0417849
0.0417779
0.0417732
0.0417705
0.0417694
0.0417693
0.0417694
0.0417695
0.0417699
0.0417709
0.0417727
0.0417753
0.0417791
0.0417841
0.0417908
0.0417989
0.0418083
0.0418185
0.0418294
0.0418411
0.0418537
0.0418672
0.0418813
0.0418959
0.0419108
0.0419261
0.0419417
0.0419575
0.0419734
0.0419892
0.0420048
0.0420201
0.0420349
0.042049
0.042062
0.0420737
0.0420835
0.0420913
0.0420965
0.0420989
0.0420983
0.0420936
0.0420849
0.0420713
0.0420527
0.0420279
0.0419962
0.0419566
0.0419083
0.0418504
0.0417818
0.0417015
0.0416078
0.0414996
0.0413751
0.0412332
0.0410714
0.0408885
0.0406817
0.0404503
0.0401915
0.0399022
0.0395764
0.0392167
0.0388209
0.0383939
0.0379196
0.0374044
0.0368286
0.0362131
0.0355437
0.0348244
0.0340415
0.0332288
0.0323646
0.0315066
0.0306151
0.0297225
0.0288202
0.0279194
0.0270217
0.0261564
0.0252989
0.0244917
0.0237322
0.0229795
0.0222501
0.0215785
0.0203619
0.042133
0.042133
0.042133
0.042133
0.042133
0.042133
0.0421331
0.0421344
0.0421528
0.0422412
0.0423996
0.042519
0.0425451
0.0425259
0.0424108
0.0422675
0.0421683
0.0421047
0.0420588
0.0420106
0.0419545
0.0418957
0.0418382
0.041782
0.041733
0.0417046
0.0416983
0.041712
0.0417535
0.0417973
0.0418219
0.0418286
0.0418277
0.041823
0.041819
0.0418172
0.0418174
0.0418194
0.0418217
0.0418239
0.0418264
0.0418293
0.0418328
0.0418373
0.0418429
0.0418499
0.0418585
0.0418687
0.0418802
0.0418928
0.0419062
0.0419204
0.0419355
0.0419516
0.0419685
0.041986
0.042004
0.0420225
0.0420414
0.0420606
0.0420802
0.0420999
0.0421196
0.0421392
0.0421586
0.0421776
0.0421958
0.042213
0.0422289
0.0422431
0.0422554
0.042265
0.0422719
0.0422756
0.0422763
0.0422725
0.0422645
0.0422511
0.0422317
0.0422055
0.0421716
0.0421294
0.0420777
0.0420156
0.0419418
0.0418548
0.0417532
0.0416358
0.0415005
0.041346
0.04117
0.040971
0.040745
0.0404894
0.0402016
0.0398849
0.0395352
0.039151
0.0387181
0.0382446
0.0377181
0.03716
0.0365482
0.03589
0.0351833
0.0344224
0.0335913
0.0327046
0.0317864
0.0308185
0.0298649
0.0288753
0.0278978
0.026931
0.0260001
0.0251147
0.0242752
0.0234632
0.022717
0.0220654
0.0208695
0.042133
0.042133
0.042133
0.042133
0.042133
0.042133
0.0421331
0.0421335
0.0421431
0.0422065
0.0423567
0.0425019
0.0425505
0.0425474
0.0424635
0.0423237
0.0422153
0.042145
0.0420983
0.042053
0.042
0.0419433
0.041889
0.0418364
0.0417865
0.0417491
0.0417342
0.0417372
0.041766
0.0418135
0.0418516
0.0418686
0.0418721
0.0418706
0.0418675
0.0418662
0.0418673
0.041871
0.0418753
0.0418797
0.0418842
0.041889
0.0418945
0.0419008
0.0419083
0.0419171
0.0419276
0.0419398
0.0419536
0.0419685
0.0419844
0.0420011
0.0420187
0.0420374
0.0420571
0.0420775
0.0420985
0.0421201
0.0421423
0.042165
0.0421882
0.0422117
0.0422354
0.0422593
0.0422831
0.0423069
0.0423302
0.0423529
0.0423746
0.0423949
0.0424137
0.0424306
0.0424452
0.042457
0.0424658
0.0424713
0.0424733
0.0424707
0.0424631
0.0424496
0.0424291
0.0424012
0.0423649
0.0423196
0.0422639
0.0421967
0.0421163
0.0420218
0.0419113
0.0417837
0.0416365
0.041468
0.0412752
0.0410569
0.0408108
0.0405363
0.0402261
0.0398769
0.0394808
0.0390473
0.0385677
0.0380534
0.0374835
0.0368738
0.0362065
0.0354871
0.0347319
0.0339043
0.0330695
0.0321487
0.0312219
0.0302513
0.029255
0.0282507
0.0272468
0.0262653
0.0252849
0.0243473
0.0234425
0.0226228
0.021105
0.042133
0.042133
0.042133
0.042133
0.042133
0.042133
0.042133
0.0421332
0.0421376
0.0421783
0.0423092
0.0424734
0.04255
0.0425651
0.0425125
0.0423817
0.0422617
0.0421842
0.0421368
0.0420953
0.0420465
0.0419925
0.0419405
0.0418919
0.0418445
0.0418028
0.0417786
0.0417734
0.0417871
0.041829
0.0418767
0.0419069
0.0419177
0.0419192
0.0419181
0.0419173
0.0419189
0.0419235
0.0419296
0.0419361
0.0419427
0.0419496
0.041957
0.0419652
0.0419746
0.0419854
0.0419978
0.042012
0.0420279
0.0420452
0.0420635
0.0420826
0.0421028
0.0421241
0.0421464
0.0421696
0.0421936
0.0422183
0.0422437
0.0422697
0.0422963
0.0423235
0.0423511
0.042379
0.0424072
0.0424355
0.0424637
0.0424916
0.0425188
0.0425451
0.0425702
0.0425938
0.0426156
0.0426352
0.0426525
0.0426668
0.0426779
0.0426854
0.0426888
0.0426876
0.0426804
0.0426668
0.0426455
0.0426166
0.0425785
0.0425304
0.0424708
0.0423985
0.0423119
0.0422099
0.0420901
0.0419514
0.0417907
0.0416066
0.0413961
0.0411575
0.0408847
0.0405771
0.0402313
0.0398527
0.0394312
0.0389691
0.038448
0.0378816
0.0372505
0.0365689
0.0358257
0.0350266
0.0341743
0.033258
0.0322854
0.0313253
0.0303407
0.0293373
0.0283273
0.0273371
0.0263313
0.0253888
0.0244977
0.0236669
0.0221187
0.042133
0.042133
0.042133
0.042133
0.042133
0.042133
0.042133
0.0421331
0.0421348
0.0421579
0.0422615
0.0424339
0.0425433
0.0425805
0.0425522
0.0424362
0.0423077
0.0422246
0.042176
0.042138
0.0420939
0.042043
0.041993
0.0419477
0.0419045
0.0418628
0.0418311
0.041818
0.0418208
0.041848
0.0418966
0.0419398
0.0419623
0.0419691
0.0419699
0.04197
0.0419719
0.0419771
0.0419846
0.0419929
0.0420016
0.0420105
0.04202
0.0420303
0.0420416
0.0420543
0.0420686
0.0420849
0.0421029
0.0421225
0.0421432
0.0421649
0.0421876
0.0422114
0.0422364
0.0422624
0.0422893
0.0423171
0.0423456
0.0423749
0.0424049
0.0424357
0.0424671
0.042499
0.0425314
0.0425641
0.042597
0.0426298
0.0426624
0.0426944
0.0427256
0.0427557
0.0427844
0.0428114
0.0428365
0.0428592
0.0428795
0.0428967
0.0429102
0.0429195
0.0429242
0.0429244
0.0429171
0.0429035
0.0428815
0.0428509
0.0428102
0.0427585
0.0426941
0.0426163
0.042523
0.0424128
0.042283
0.0421324
0.041958
0.0417574
0.041526
0.0412643
0.040969
0.0406416
0.0402708
0.0398576
0.0393887
0.038876
0.0383035
0.0376879
0.0370095
0.0362732
0.0354742
0.0346282
0.0336746
0.0326709
0.0316461
0.0305569
0.0294529
0.0283714
0.027249
0.0261732
0.025156
0.0242494
0.022472
0.042133
0.042133
0.042133
0.042133
0.042133
0.042133
0.042133
0.0421331
0.0421336
0.0421451
0.0422186
0.0423847
0.0425296
0.042589
0.0425766
0.0424888
0.042358
0.0422682
0.0422163
0.0421804
0.0421415
0.0420949
0.0420473
0.0420043
0.0419651
0.0419263
0.0418913
0.0418699
0.0418646
0.0418761
0.0419157
0.0419663
0.0420021
0.0420177
0.0420221
0.0420235
0.0420257
0.0420311
0.0420395
0.0420495
0.0420602
0.0420713
0.042083
0.0420954
0.0421088
0.0421235
0.0421398
0.042158
0.0421782
0.0422
0.0422231
0.0422473
0.0422725
0.0422988
0.0423264
0.0423552
0.0423849
0.0424155
0.0424471
0.0424795
0.0425129
0.0425471
0.0425821
0.0426178
0.0426541
0.0426911
0.0427284
0.042766
0.0428037
0.0428411
0.042878
0.0429143
0.0429495
0.0429836
0.0430161
0.0430469
0.0430756
0.0431019
0.0431255
0.0431457
0.0431617
0.0431732
0.0431797
0.043181
0.0431749
0.0431615
0.0431392
0.0431073
0.0430643
0.0430093
0.0429406
0.042857
0.042756
0.0426363
0.0424948
0.0423295
0.0421372
0.0419181
0.0416674
0.041383
0.0410547
0.0406845
0.0402644
0.0398031
0.0392849
0.0387192
0.0380884
0.0374083
0.0366634
0.0358489
0.0349922
0.0340482
0.0330745
0.0320578
0.0309666
0.0298968
0.0287621
0.0276445
0.0264945
0.0254223
0.0233715
0.042133
0.042133
0.042133
0.042133
0.042133
0.042133
0.042133
0.042133
0.0421332
0.0421381
0.0421844
0.04233
0.0425029
0.0425898
0.0425924
0.0425379
0.0424115
0.0423129
0.0422562
0.0422219
0.0421889
0.0421481
0.0421033
0.0420615
0.0420245
0.041989
0.0419542
0.0419265
0.041914
0.0419149
0.041938
0.0419864
0.0420341
0.042062
0.0420729
0.0420767
0.0420796
0.042085
0.0420941
0.0421056
0.0421182
0.0421315
0.0421455
0.0421601
0.0421757
0.0421925
0.0422108
0.0422311
0.0422534
0.0422775
0.042303
0.0423295
0.0423572
0.0423861
0.0424162
0.0424476
0.0424801
0.0425137
0.0425482
0.0425837
0.0426202
0.0426578
0.0426963
0.0427357
0.0427759
0.0428169
0.0428586
0.0429008
0.0429433
0.0429858
0.0430283
0.0430704
0.0431119
0.0431526
0.0431922
0.0432305
0.0432673
0.0433022
0.0433349
0.0433649
0.0433918
0.043415
0.0434336
0.0434473
0.0434555
0.043458
0.0434527
0.0434392
0.0434161
0.0433822
0.0433367
0.0432783
0.043205
0.0431152
0.043006
0.0428761
0.0427222
0.0425433
0.0423338
0.0420915
0.0418101
0.0414926
0.0411317
0.0407304
0.040274
0.0397683
0.0391961
0.0385692
0.0378685
0.0371032
0.0362637
0.0353585
0.0343576
0.0333152
0.032203
0.0310307
0.0298848
0.0287395
0.0276161
0.0266066
0.0246605
0.042133
0.042133
0.042133
0.042133
0.042133
0.042133
0.042133
0.042133
0.0421331
0.0421349
0.0421606
0.0422759
0.0424615
0.0425831
0.0426051
0.0425786
0.0424642
0.0423572
0.0422965
0.0422636
0.0422365
0.0422016
0.0421595
0.0421176
0.042081
0.0420478
0.0420154
0.0419858
0.0419666
0.0419606
0.041969
0.0420058
0.0420586
0.0420995
0.0421203
0.0421286
0.0421332
0.0421389
0.0421483
0.0421609
0.0421754
0.0421909
0.0422071
0.0422241
0.042242
0.042261
0.0422814
0.0423037
0.0423281
0.0423544
0.0423822
0.0424112
0.0424413
0.0424726
0.0425053
0.0425392
0.0425744
0.0426107
0.0426481
0.0426865
0.0427261
0.0427668
0.0428087
0.0428516
0.0428955
0.0429403
0.042986
0.0430325
0.0430795
0.043127
0.0431746
0.0432221
0.0432695
0.0433164
0.0433627
0.0434081
0.0434525
0.0434955
0.0435368
0.0435762
0.0436131
0.043647
0.0436776
0.0437041
0.0437259
0.0437423
0.0437528
0.0437568
0.0437529
0.0437395
0.043716
0.0436807
0.0436327
0.0435702
0.043491
0.0433935
0.0432749
0.0431335
0.0429644
0.0427667
0.0425358
0.0422732
0.0419702
0.0416266
0.0412298
0.0407845
0.0402759
0.0397135
0.0390794
0.0383869
0.0376204
0.0367815
0.035875
0.0348642
0.033846
0.0326458
0.0314194
0.0301314
0.0288141
0.0275991
0.0252668
0.042133
0.042133
0.042133
0.042133
0.042133
0.042133
0.042133
0.042133
0.0421331
0.0421337
0.0421462
0.0422284
0.0424099
0.0425664
0.0426151
0.0426058
0.0425137
0.0424027
0.0423382
0.0423051
0.0422822
0.042252
0.0422124
0.0421705
0.0421337
0.0421024
0.0420731
0.0420449
0.0420219
0.0420103
0.0420099
0.0420297
0.0420782
0.0421296
0.0421627
0.0421783
0.0421858
0.0421924
0.042202
0.0422156
0.0422318
0.0422494
0.0422678
0.0422871
0.0423073
0.0423286
0.0423512
0.0423756
0.042402
0.0424305
0.0424606
0.042492
0.0425245
0.0425582
0.0425933
0.0426297
0.0426675
0.0427065
0.0427466
0.042788
0.0428305
0.0428742
0.0429193
0.0429655
0.043013
0.0430615
0.0431111
0.0431616
0.043213
0.0432651
0.0433176
0.0433704
0.0434233
0.0434761
0.0435286
0.0435807
0.0436321
0.0436827
0.0437321
0.0437801
0.0438263
0.0438702
0.0439114
0.0439494
0.0439837
0.0440138
0.0440388
0.0440578
0.0440703
0.0440755
0.0440729
0.0440596
0.0440359
0.0439989
0.0439482
0.0438814
0.0437962
0.0436904
0.0435604
0.0434054
0.0432211
0.0430063
0.0427521
0.0424578
0.0421139
0.0417236
0.0412738
0.0407707
0.0401992
0.0395673
0.0388541
0.0380661
0.0372016
0.036269
0.0352529
0.0341641
0.0329437
0.0317795
0.0305429
0.0293559
0.0270551
0.042133
0.042133
0.042133
0.042133
0.042133
0.042133
0.042133
0.042133
0.042133
0.0421332
0.0421386
0.0421913
0.0423537
0.0425392
0.0426174
0.0426232
0.0425606
0.0424506
0.0423794
0.0423438
0.0423229
0.0422973
0.0422615
0.0422211
0.0421847
0.0421546
0.0421282
0.0421027
0.0420794
0.0420634
0.0420574
0.0420639
0.0420995
0.0421544
0.0421995
0.0422249
0.0422374
0.0422459
0.042256
0.0422701
0.0422878
0.0423072
0.0423278
0.0423492
0.0423717
0.0423952
0.04242
0.0424465
0.042475
0.0425056
0.0425379
0.0425716
0.0426064
0.0426425
0.0426799
0.0427187
0.0427589
0.0428004
0.0428432
0.0428873
0.0429326
0.0429792
0.0430273
0.0430767
0.0431274
0.0431794
0.0432326
0.043287
0.0433424
0.0433987
0.0434558
0.0435134
0.0435714
0.0436297
0.043688
0.0437463
0.0438043
0.0438619
0.0439188
0.0439748
0.0440296
0.0440828
0.0441341
0.0441829
0.0442288
0.0442714
0.04431
0.0443441
0.0443727
0.0443947
0.0444096
0.0444167
0.044416
0.0444027
0.0443785
0.0443393
0.0442849
0.0442126
0.0441197
0.044005
0.0438637
0.0436937
0.0434876
0.0432458
0.0429603
0.0426328
0.0422513
0.0418183
0.0413185
0.0407565
0.0401142
0.0393993
0.0385943
0.0377107
0.0367365
0.0356699
0.0344487
0.0331603
0.0317906
0.0305216
0.0281613
0.042133
0.042133
0.042133
0.042133
0.042133
0.042133
0.042133
0.042133
0.042133
0.0421331
0.0421352
0.0421657
0.0422991
0.0425013
0.0426113
0.0426382
0.042602
0.0424972
0.042417
0.0423778
0.0423591
0.0423387
0.0423086
0.042271
0.0422351
0.0422058
0.0421812
0.0421584
0.0421369
0.0421191
0.0421095
0.0421087
0.0421278
0.0421777
0.0422319
0.0422684
0.042288
0.0422996
0.0423106
0.0423251
0.0423438
0.0423649
0.0423872
0.0424107
0.0424352
0.0424609
0.0424879
0.0425164
0.042547
0.0425795
0.042614
0.0426498
0.0426869
0.0427252
0.0427648
0.0428059
0.0428484
0.0428924
0.0429377
0.0429844
0.0430323
0.0430817
0.0431326
0.043185
0.0432388
0.0432941
0.0433508
0.0434088
0.043468
0.0435284
0.0435897
0.0436519
0.0437147
0.0437781
0.0438419
0.0439059
0.04397
0.0440341
0.044098
0.0441614
0.0442242
0.0442859
0.0443462
0.0444049
0.0444614
0.0445153
0.0445662
0.0446135
0.0446564
0.0446944
0.0447266
0.0447515
0.0447692
0.0447784
0.0447794
0.0447664
0.0447412
0.0446998
0.0446412
0.0445631
0.0444615
0.0443346
0.044177
0.043989
0.0437627
0.0434979
0.0431828
0.042818
0.0423889
0.0418996
0.0413339
0.0406975
0.0399709
0.0391661
0.0382651
0.0372715
0.0362128
0.0349858
0.0336227
0.0322925
0.0297976
0.042133
0.042133
0.042133
0.042133
0.042133
0.042133
0.042133
0.042133
0.042133
0.0421331
0.0421338
0.04215
0.0422512
0.0424555
0.0425997
0.0426521
0.0426321
0.0425371
0.0424515
0.0424096
0.0423933
0.0423783
0.0423544
0.0423201
0.0422848
0.0422558
0.0422324
0.0422119
0.0421932
0.0421765
0.0421649
0.0421606
0.0421679
0.0422053
0.0422624
0.0423094
0.0423377
0.0423539
0.0423665
0.0423814
0.0424005
0.0424228
0.0424467
0.0424718
0.0424981
0.0425257
0.0425547
0.0425853
0.0426177
0.0426523
0.0426887
0.0427266
0.0427658
0.0428062
0.0428479
0.0428911
0.0429358
0.0429821
0.0430297
0.0430788
0.0431293
0.0431812
0.0432348
0.0432899
0.0433467
0.043405
0.0434649
0.0435262
0.043589
0.0436531
0.0437184
0.0437847
0.0438519
0.04392
0.0439887
0.0440581
0.0441278
0.0441979
0.0442681
0.0443383
0.0444083
0.0444778
0.0445466
0.0446142
0.0446804
0.0447448
0.044807
0.0448666
0.0449228
0.0449752
0.0450228
0.0450652
0.0451015
0.0451301
0.0451509
0.0451623
0.0451644
0.0451516
0.0451249
0.0450806
0.0450165
0.0449309
0.0448194
0.044681
0.0445071
0.0442966
0.0440385
0.0437334
0.043368
0.0429448
0.0424478
0.0418804
0.0412238
0.0404848
0.0396404
0.0387033
0.0376582
0.0364952
0.0351913
0.0339551
0.0317657
0.042133
0.042133
0.042133
0.042133
0.042133
0.042133
0.042133
0.042133
0.042133
0.042133
0.0421333
0.0421414
0.0422132
0.0424064
0.042585
0.0426591
0.0426506
0.0425736
0.0424852
0.0424408
0.0424263
0.0424159
0.0423978
0.0423672
0.0423326
0.0423042
0.0422822
0.0422638
0.0422481
0.0422342
0.0422229
0.0422175
0.0422187
0.0422414
0.0422941
0.0423485
0.0423863
0.0424084
0.0424235
0.0424389
0.0424582
0.0424812
0.0425063
0.0425327
0.0425605
0.0425898
0.0426206
0.042653
0.0426873
0.0427236
0.0427619
0.0428017
0.0428429
0.0428852
0.0429289
0.0429741
0.0430209
0.0430692
0.0431191
0.0431705
0.0432233
0.0432777
0.0433337
0.0433915
0.043451
0.0435122
0.043575
0.0436395
0.0437055
0.0437731
0.043842
0.0439123
0.0439836
0.044056
0.0441294
0.0442036
0.0442785
0.0443541
0.0444302
0.0445066
0.0445832
0.0446598
0.0447362
0.044812
0.044887
0.0449608
0.0450332
0.0451036
0.0451718
0.045237
0.0452986
0.0453561
0.0454087
0.0454558
0.0454966
0.0455291
0.0455529
0.0455665
0.0455695
0.0455566
0.0455278
0.04548
0.0454101
0.045316
0.0451906
0.0450328
0.0448338
0.0445942
0.0443013
0.0439557
0.0435414
0.0430595
0.0424915
0.0418399
0.0410847
0.0402281
0.0392399
0.0381164
0.0368799
0.0354904
0.0332261
0.042133
0.042133
0.042133
0.042133
0.042133
0.042133
0.042133
0.042133
0.042133
0.042133
0.0421331
0.0421371
0.0421858
0.0423594
0.0425642
0.0426613
0.0426634
0.0426063
0.0425174
0.0424708
0.0424573
0.0424503
0.0424377
0.0424113
0.0423784
0.0423512
0.042331
0.0423148
0.0423019
0.0422912
0.042282
0.0422766
0.0422753
0.042287
0.0423297
0.0423869
0.0424333
0.0424624
0.0424809
0.0424973
0.0425167
0.0425401
0.0425661
0.0425936
0.0426226
0.0426534
0.0426857
0.0427198
0.0427557
0.0427937
0.0428337
0.0428753
0.0429182
0.0429624
0.043008
0.043055
0.0431036
0.0431539
0.0432058
0.0432593
0.0433143
0.0433709
0.0434292
0.0434894
0.0435514
0.0436152
0.0436808
0.0437482
0.0438172
0.0438879
0.0439602
0.044034
0.0441091
0.0441854
0.0442629
0.0443416
0.0444212
0.0445017
0.0445831
0.0446652
0.0447478
0.0448308
0.044914
0.0449972
0.0450801
0.0451624
0.0452439
0.0453243
0.0454032
0.0454801
0.0455544
0.0456256
0.0456931
0.0457564
0.0458146
0.045867
0.0459125
0.0459489
0.0459758
0.0459914
0.0459954
0.0459822
0.0459509
0.0458982
0.0458193
0.0457137
0.0455732
0.0453975
0.0451738
0.0449012
0.0445633
0.0441608
0.043676
0.0431098
0.0424413
0.0416674
0.0407651
0.0397643
0.0385943
0.0373582
0.0353245
0.042133
0.042133
0.042133
0.042133
0.042133
0.042133
0.042133
0.042133
0.042133
0.042133
0.0421331
0.042135
0.0421677
0.0423185
0.0425386
0.0426598
0.0426739
0.0426339
0.042547
0.0424985
0.0424856
0.0424813
0.0424742
0.042453
0.0424227
0.0423972
0.042379
0.0423647
0.0423539
0.0423458
0.0423391
0.0423348
0.042333
0.0423386
0.0423699
0.0424248
0.0424778
0.0425142
0.0425372
0.0425552
0.0425751
0.0425989
0.0426257
0.0426542
0.0426843
0.0427163
0.04275
0.0427855
0.0428229
0.0428624
0.0429039
0.0429471
0.0429917
0.0430375
0.0430847
0.0431334
0.0431837
0.0432358
0.0432896
0.043345
0.043402
0.0434607
0.0435211
0.0435835
0.0436478
0.0437141
0.0437822
0.0438522
0.0439241
0.0439977
0.0440731
0.0441501
0.0442286
0.0443086
0.0443899
0.0444726
0.0445565
0.0446416
0.0447278
0.044815
0.044903
0.0449918
0.0450812
0.045171
0.045261
0.045351
0.0454407
0.0455298
0.0456182
0.0457054
0.0457909
0.0458743
0.045955
0.0460326
0.0461065
0.046176
0.04624
0.0462977
0.046348
0.0463884
0.0464185
0.0464361
0.0464407
0.0464264
0.0463914
0.0463331
0.0462449
0.0461252
0.0459622
0.0457551
0.0454884
0.045162
0.0447561
0.0442716
0.043689
0.0430002
0.0421807
0.0412241
0.0400774
0.038826
0.0369481
0.042133
0.042133
0.042133
0.042133
0.042133
0.042133
0.042133
0.042133
0.042133
0.042133
0.0421331
0.0421341
0.0421563
0.0422858
0.0425127
0.042656
0.0426829
0.0426561
0.0425728
0.0425231
0.0425114
0.0425098
0.0425082
0.0424928
0.0424656
0.0424418
0.0424249
0.0424121
0.0424026
0.0423963
0.042392
0.0423894
0.0423884
0.0423918
0.0424137
0.0424626
0.0425194
0.042563
0.042591
0.0426116
0.0426324
0.0426569
0.0426847
0.0427142
0.0427454
0.0427785
0.0428134
0.0428501
0.0428888
0.0429297
0.0429725
0.0430172
0.0430632
0.0431106
0.0431593
0.0432095
0.0432614
0.0433151
0.0433706
0.0434278
0.0434866
0.0435471
0.0436095
0.0436739
0.0437404
0.0438089
0.0438794
0.0439518
0.0440262
0.0441025
0.0441806
0.0442606
0.0443422
0.0444254
0.0445102
0.0445965
0.0446843
0.0447734
0.0448639
0.0449557
0.0450486
0.0451426
0.0452374
0.0453331
0.0454294
0.0455261
0.045623
0.04572
0.0458168
0.0459131
0.0460085
0.0461027
0.0461951
0.0462854
0.0463732
0.0464578
0.0465385
0.0466146
0.0466848
0.0467482
0.0468036
0.0468482
0.0468817
0.0469017
0.046907
0.0468912
0.046851
0.0467832
0.0466795
0.0465394
0.0463486
0.0461064
0.045793
0.0454081
0.0449272
0.0443393
0.0436194
0.0427405
0.0417027
0.0404748
0.0387759
0.042133
0.042133
0.042133
0.042133
0.042133
0.042133
0.042133
0.042133
0.042133
0.042133
0.042133
0.0421336
0.0421496
0.0422618
0.0424902
0.0426515
0.0426909
0.0426731
0.0425941
0.0425449
0.0425353
0.0425376
0.0425404
0.04253
0.042506
0.0424835
0.0424676
0.0424557
0.0424473
0.0424424
0.0424402
0.0424396
0.0424403
0.0424437
0.0424594
0.042501
0.0425585
0.0426082
0.0426417
0.0426654
0.0426877
0.0427133
0.0427423
0.0427731
0.0428054
0.0428395
0.0428755
0.0429133
0.0429532
0.0429953
0.0430394
0.0430853
0.0431327
0.0431814
0.0432315
0.0432831
0.0433364
0.0433915
0.0434485
0.0435073
0.0435678
0.0436301
0.0436943
0.0437605
0.0438289
0.0438994
0.0439721
0.0440468
0.0441235
0.0442022
0.0442828
0.0443654
0.0444499
0.044536
0.0446239
0.0447135
0.0448047
0.0448975
0.0449919
0.0450877
0.045185
0.0452836
0.0453833
0.0454842
0.0455861
0.0456888
0.0457922
0.0458961
0.0460003
0.0461046
0.0462087
0.0463123
0.0464149
0.0465163
0.0466161
0.046714
0.0468092
0.0469013
0.0469891
0.047072
0.0471488
0.0472181
0.0472792
0.0473285
0.0473654
0.047387
0.0473923
0.0473732
0.0473268
0.0472496
0.04713
0.0469661
0.0467381
0.0464455
0.0460617
0.0455821
0.044968
0.044184
0.0432283
0.0420365
0.0404425
0.042133
0.042133
0.042133
0.042133
0.042133
0.042133
0.042133
0.042133
0.042133
0.042133
0.042133
0.0421335
0.0421458
0.0422459
0.0424735
0.0426488
0.0426986
0.0426852
0.0426112
0.042565
0.042558
0.0425646
0.0425712
0.0425642
0.0425431
0.0425218
0.0425068
0.0424958
0.0424885
0.0424849
0.0424843
0.0424859
0.0424888
0.0424931
0.0425057
0.0425405
0.0425963
0.0426505
0.0426891
0.0427163
0.0427406
0.0427676
0.042798
0.0428302
0.0428638
0.042899
0.042936
0.042975
0.043016
0.0430591
0.0431045
0.0431516
0.0432001
0.0432501
0.0433014
0.0433542
0.0434088
0.0434652
0.0435236
0.0435839
0.0436459
0.0437098
0.0437756
0.0438435
0.0439137
0.0439861
0.0440607
0.0441374
0.0442162
0.0442971
0.0443801
0.0444651
0.0445521
0.0446409
0.0447316
0.0448241
0.0449184
0.0450145
0.0451123
0.0452118
0.0453129
0.0454156
0.0455197
0.0456252
0.045732
0.04584
0.045949
0.0460589
0.0461696
0.0462809
0.0463925
0.0465043
0.0466158
0.0467269
0.0468372
0.0469465
0.0470543
0.0471601
0.0472633
0.0473631
0.0474586
0.047549
0.047633
0.0477092
0.0477764
0.0478307
0.0478718
0.0478958
0.0479012
0.0478785
0.0478223
0.0477275
0.0475795
0.0473758
0.0470891
0.0467154
0.0462027
0.0455234
0.0446522
0.0435277
0.0420209
0.042133
0.042133
0.042133
0.042133
0.042133
0.042133
0.042133
0.042133
0.042133
0.042133
0.042133
0.0421334
0.0421444
0.0422377
0.0424642
0.0426488
0.0427057
0.0426937
0.0426255
0.0425834
0.0425797
0.0425908
0.0426007
0.0425957
0.0425771
0.0425572
0.0425432
0.0425334
0.0425273
0.0425248
0.0425257
0.0425294
0.0425344
0.0425401
0.0425516
0.0425812
0.0426339
0.0426908
0.0427339
0.0427644
0.0427908
0.0428193
0.0428512
0.042885
0.0429199
0.0429563
0.0429945
0.0430345
0.0430766
0.0431209
0.0431673
0.0432156
0.0432653
0.0433163
0.0433687