/*--------------------------------*- C++ -*----------------------------------*\
| =========                 |                                                 |
| \\      /  F ield         | OpenFOAM: The Open Source CFD Toolbox           |
|  \\    /   O peration     | Version:  2406                                  |
|   \\  /    A nd           | Website:  www.openfoam.com                      |
|    \\/     M anipulation  |                                                 |
\*---------------------------------------------------------------------------*/
FoamFile
{
    version     2.0;
    format      ascii;
    arch        "LSB;label=32;scalar=64";
    class       volScalarField;
    location    "0.041";
    object      T;
}
// * * * * * * * * * * * * * * * * * * * * * * * * * * * * * * * * * * * * * //

dimensions      [0 0 0 1 0 0 0];

internalField   nonuniform List<scalar> 
78650
(
235.748
224.933
224.196
223.982
223.901
223.93
224.005
224.063
224.05
223.945
223.743
223.511
223.305
223.141
223.006
222.883
222.763
222.637
222.503
222.365
222.235
222.124
222.034
221.96
221.897
221.84
221.784
221.726
221.665
221.603
221.541
221.48
221.42
221.362
221.307
221.253
221.201
221.152
221.105
221.06
221.017
220.977
220.938
220.899
220.862
220.823
220.783
220.742
220.697
220.65
220.598
220.541
220.479
220.41
220.333
220.247
220.152
220.045
219.926
219.792
219.643
219.477
219.292
219.086
218.857
218.603
218.323
218.015
217.676
217.303
216.894
216.445
215.956
215.424
214.848
214.229
213.557
212.831
212.051
211.222
210.339
209.401
208.396
207.333
206.209
205.026
203.779
202.481
201.147
199.808
198.436
197.018
195.595
194.107
192.599
191.177
189.854
188.522
187.19
185.865
184.606
183.351
182.109
180.949
179.889
178.901
177.998
177.117
176.264
175.43
174.642
173.892
173.183
172.545
171.988
171.552
171.228
170.961
170.734
170.59
169.91
235.288
225.076
224.418
224.151
224.012
224.014
224.068
224.134
224.147
224.07
223.889
223.655
223.432
223.253
223.108
222.984
222.871
222.758
222.639
222.511
222.385
222.271
222.173
222.094
222.028
221.97
221.915
221.859
221.802
221.743
221.685
221.627
221.571
221.517
221.465
221.416
221.369
221.325
221.283
221.244
221.208
221.174
221.142
221.112
221.082
221.052
221.022
220.991
220.957
220.921
220.882
220.838
220.79
220.736
220.675
220.607
220.53
220.443
220.345
220.235
220.111
219.971
219.815
219.639
219.444
219.226
218.983
218.715
218.418
218.092
217.733
217.338
216.905
216.431
215.913
215.349
214.735
214.071
213.36
212.6
211.786
210.915
209.983
209.002
207.968
206.887
205.753
204.558
203.311
202.007
200.674
199.277
197.878
196.508
195.142
193.709
192.275
190.854
189.524
188.146
186.801
185.561
184.344
183.165
182.017
180.921
179.926
178.96
178.041
177.17
176.35
175.557
174.783
174.025
173.313
172.695
172.192
171.801
171.538
171.385
170.625
234.815
225.185
224.582
224.299
224.122
224.085
224.125
224.188
224.218
224.17
224.023
223.801
223.569
223.373
223.215
223.085
222.974
222.871
222.766
222.654
222.537
222.425
222.323
222.237
222.166
222.105
222.05
221.996
221.941
221.886
221.831
221.776
221.724
221.674
221.627
221.582
221.54
221.501
221.464
221.431
221.401
221.374
221.349
221.326
221.305
221.284
221.263
221.242
221.219
221.194
221.167
221.136
221.102
221.063
221.018
220.966
220.908
220.84
220.763
220.674
220.574
220.459
220.33
220.183
220.019
219.833
219.626
219.395
219.138
218.854
218.54
218.193
217.809
217.388
216.926
216.423
215.875
215.281
214.643
213.955
213.21
212.406
211.542
210.627
209.655
208.634
207.551
206.419
205.238
203.998
202.722
201.406
200.068
198.705
197.327
195.91
194.495
193.019
191.58
190.221
188.842
187.517
186.174
184.894
183.674
182.501
181.393
180.278
179.205
178.196
177.277
176.42
175.608
174.85
174.154
173.535
173.003
172.561
172.252
172.079
171.374
234.322
225.268
224.722
224.451
224.243
224.162
224.18
224.229
224.267
224.244
224.14
223.946
223.714
223.505
223.333
223.193
223.078
222.978
222.884
222.787
222.686
222.583
222.483
222.393
222.316
222.25
222.192
222.137
222.084
222.031
221.979
221.928
221.88
221.833
221.79
221.75
221.712
221.678
221.647
221.62
221.596
221.575
221.557
221.541
221.528
221.516
221.504
221.492
221.479
221.465
221.45
221.432
221.411
221.385
221.356
221.32
221.279
221.23
221.172
221.105
221.027
220.937
220.834
220.715
220.581
220.428
220.255
220.061
219.844
219.602
219.332
219.032
218.701
218.335
217.931
217.488
217.002
216.472
215.899
215.276
214.6
213.871
213.091
212.26
211.373
210.43
209.423
208.37
207.261
206.106
204.892
203.614
202.288
200.939
199.544
198.124
196.701
195.293
193.864
192.468
191.058
189.683
188.311
186.953
185.702
184.466
183.3
182.158
181.084
180.05
179.059
178.066
177.096
176.173
175.327
174.57
173.9
173.316
172.858
172.541
171.551
233.69
225.295
224.851
224.624
224.398
224.266
224.247
224.273
224.302
224.298
224.234
224.082
223.865
223.649
223.462
223.309
223.187
223.084
222.995
222.911
222.827
222.738
222.647
222.558
222.477
222.406
222.344
222.287
222.233
222.181
222.132
222.084
222.039
221.996
221.957
221.921
221.889
221.86
221.834
221.812
221.794
221.78
221.769
221.76
221.755
221.751
221.748
221.746
221.743
221.74
221.736
221.73
221.722
221.711
221.696
221.676
221.651
221.62
221.581
221.534
221.478
221.412
221.333
221.241
221.135
221.012
220.872
220.712
220.531
220.328
220.1
219.845
219.561
219.245
218.893
218.505
218.079
217.615
217.109
216.556
215.955
215.307
214.608
213.855
213.043
212.174
211.247
210.275
209.242
208.16
207.019
205.823
204.575
203.291
201.972
200.607
199.224
197.811
196.384
194.951
193.513
192.035
190.651
189.249
187.899
186.548
185.226
183.99
182.839
181.767
180.743
179.747
178.805
177.912
177.095
176.352
175.698
175.125
174.645
174.262
173.151
232.93
225.257
224.96
224.799
224.592
224.42
224.338
224.328
224.336
224.34
224.306
224.201
224.014
223.803
223.604
223.439
223.305
223.194
223.103
223.025
222.954
222.884
222.809
222.73
222.651
222.576
222.508
222.447
222.391
222.338
222.29
222.244
222.202
222.163
222.128
222.096
222.068
222.044
222.024
222.007
221.995
221.987
221.983
221.982
221.983
221.988
221.994
222.001
222.008
222.015
222.022
222.028
222.032
222.034
222.033
222.028
222.019
222.006
221.985
221.958
221.923
221.878
221.823
221.757
221.679
221.586
221.477
221.351
221.206
221.042
220.855
220.644
220.406
220.139
219.842
219.511
219.146
218.742
218.297
217.807
217.272
216.692
216.061
215.377
214.638
213.846
213.003
212.11
211.154
210.149
209.08
207.966
206.8
205.568
204.298
202.966
201.613
200.232
198.814
197.367
195.959
194.508
193.089
191.659
190.241
188.846
187.448
186.125
184.825
183.558
182.307
181.095
179.968
178.932
177.985
177.13
176.386
175.792
175.36
175.095
174.069
232.011
225.08
224.99
224.898
224.764
224.609
224.475
224.404
224.383
224.381
224.363
224.295
224.152
223.958
223.756
223.58
223.434
223.312
223.213
223.134
223.07
223.014
222.957
222.895
222.826
222.755
222.685
222.62
222.559
222.503
222.454
222.409
222.369
222.333
222.302
222.274
222.252
222.232
222.217
222.207
222.2
222.199
222.201
222.207
222.216
222.228
222.243
222.259
222.276
222.294
222.311
222.329
222.345
222.36
222.372
222.382
222.389
222.392
222.389
222.381
222.366
222.343
222.311
222.269
222.216
222.15
222.071
221.977
221.866
221.737
221.587
221.417
221.222
221.002
220.754
220.476
220.164
219.817
219.433
219.01
218.549
218.046
217.495
216.893
216.241
215.539
214.784
213.973
213.098
212.168
211.175
210.136
209.032
207.876
206.663
205.408
204.105
202.761
201.391
199.974
198.565
197.138
195.7
194.277
192.835
191.446
190.065
188.754
187.464
186.193
184.945
183.711
182.525
181.363
180.268
179.201
178.196
177.306
176.586
176.034
174.64
231.018
224.749
224.853
224.87
224.814
224.728
224.618
224.514
224.459
224.435
224.413
224.369
224.272
224.111
223.918
223.733
223.573
223.439
223.329
223.243
223.179
223.13
223.089
223.047
222.996
222.936
222.871
222.804
222.739
222.679
222.627
222.581
222.541
222.507
222.479
222.455
222.437
222.422
222.413
222.408
222.407
222.412
222.421
222.434
222.45
222.47
222.493
222.518
222.544
222.572
222.6
222.628
222.656
222.684
222.709
222.733
222.755
222.773
222.787
222.797
222.801
222.799
222.788
222.77
222.742
222.703
222.653
222.589
222.511
222.417
222.305
222.174
222.023
221.848
221.648
221.42
221.163
220.874
220.553
220.195
219.801
219.364
218.881
218.351
217.775
217.15
216.472
215.738
214.946
214.104
213.204
212.256
211.244
210.183
209.063
207.891
206.675
205.39
204.063
202.68
201.271
199.846
198.371
196.914
195.427
193.976
192.505
191.052
189.648
188.269
186.971
185.738
184.582
183.452
182.387
181.374
180.469
179.685
179.027
178.475
177.106
230.102
224.136
224.456
224.71
224.774
224.752
224.696
224.616
224.555
224.507
224.469
224.431
224.365
224.247
224.078
223.892
223.719
223.571
223.451
223.355
223.284
223.235
223.203
223.176
223.145
223.104
223.053
222.993
222.928
222.865
222.809
222.76
222.719
222.685
222.659
222.639
222.624
222.614
222.61
222.611
222.617
222.627
222.642
222.662
222.686
222.714
222.745
222.779
222.814
222.852
222.89
222.929
222.969
223.008
223.047
223.085
223.12
223.154
223.184
223.211
223.233
223.25
223.261
223.265
223.261
223.247
223.224
223.188
223.141
223.079
223.001
222.907
222.794
222.661
222.506
222.326
222.12
221.886
221.622
221.324
220.992
220.621
220.209
219.756
219.259
218.715
218.12
217.472
216.772
216.021
215.212
214.348
213.42
212.442
211.399
210.306
209.149
207.943
206.688
205.391
204.04
202.65
201.22
199.794
198.351
196.88
195.397
193.889
192.41
190.918
189.461
188.036
186.639
185.269
183.935
182.684
181.595
180.702
180.014
179.524
177.903
229.488
223.464
223.806
224.257
224.532
224.646
224.665
224.648
224.609
224.551
224.499
224.452
224.398
224.321
224.197
224.033
223.86
223.702
223.572
223.468
223.39
223.337
223.306
223.287
223.271
223.25
223.219
223.176
223.12
223.059
223
222.947
222.903
222.869
222.843
222.825
222.813
222.808
222.808
222.815
222.826
222.842
222.864
222.891
222.922
222.957
222.996
223.038
223.083
223.13
223.178
223.227
223.278
223.329
223.38
223.43
223.48
223.528
223.574
223.617
223.657
223.693
223.723
223.748
223.766
223.776
223.779
223.771
223.753
223.723
223.678
223.62
223.546
223.453
223.342
223.208
223.052
222.869
222.659
222.419
222.148
221.842
221.5
221.121
220.699
220.232
219.718
219.158
218.549
217.891
217.174
216.401
215.568
214.686
213.738
212.732
211.659
210.545
209.381
208.157
206.878
205.534
204.179
202.793
201.402
199.939
198.504
197.028
195.601
194.166
192.753
191.35
189.948
188.567
187.211
185.856
184.586
183.424
182.454
181.633
179.623
229.234
223.215
223.329
223.638
224.002
224.317
224.512
224.585
224.586
224.551
224.5
224.445
224.399
224.343
224.258
224.139
223.987
223.83
223.693
223.583
223.498
223.437
223.402
223.385
223.376
223.37
223.36
223.338
223.3
223.249
223.194
223.141
223.095
223.058
223.031
223.014
223.004
223.002
223.007
223.018
223.035
223.057
223.085
223.119
223.157
223.2
223.247
223.297
223.351
223.407
223.465
223.524
223.586
223.648
223.711
223.774
223.837
223.899
223.959
224.018
224.075
224.128
224.177
224.222
224.262
224.294
224.32
224.338
224.347
224.347
224.333
224.308
224.268
224.213
224.141
224.05
223.939
223.805
223.648
223.464
223.252
223.01
222.735
222.424
222.074
221.684
221.252
220.776
220.253
219.678
219.046
218.361
217.621
216.829
215.967
215.047
214.067
213.046
211.96
210.807
209.583
208.311
207.006
205.654
204.268
202.782
201.322
199.827
198.328
196.823
195.334
193.864
192.416
191.002
189.665
188.41
187.249
186.165
185.247
184.531
182.868
229.25
223.252
223.144
223.221
223.419
223.728
224.061
224.308
224.424
224.447
224.423
224.389
224.361
224.323
224.266
224.181
224.067
223.933
223.801
223.689
223.599
223.534
223.494
223.475
223.469
223.469
223.474
223.472
223.456
223.425
223.382
223.335
223.29
223.252
223.224
223.206
223.197
223.197
223.205
223.221
223.243
223.271
223.305
223.344
223.389
223.439
223.494
223.552
223.614
223.679
223.746
223.816
223.887
223.96
224.034
224.109
224.185
224.26
224.335
224.409
224.481
224.551
224.618
224.681
224.741
224.795
224.844
224.887
224.921
224.947
224.964
224.97
224.965
224.946
224.913
224.863
224.796
224.709
224.6
224.468
224.311
224.127
223.913
223.667
223.386
223.069
222.714
222.317
221.875
221.385
220.845
220.258
219.62
218.926
218.172
217.367
216.505
215.589
214.6
213.55
212.437
211.281
210.078
208.822
207.497
206.123
204.714
203.292
201.788
200.262
198.676
197.128
195.553
193.976
192.413
190.899
189.48
188.152
186.937
185.971
183.635
229.253
223.339
223.142
223.147
223.165
223.258
223.485
223.785
224.051
224.207
224.258
224.256
224.243
224.24
224.223
224.172
224.096
223.997
223.892
223.787
223.697
223.628
223.584
223.562
223.554
223.557
223.57
223.582
223.584
223.575
223.552
223.519
223.482
223.447
223.419
223.401
223.393
223.393
223.404
223.422
223.448
223.481
223.521
223.567
223.618
223.675
223.737
223.804
223.874
223.948
224.024
224.103
224.184
224.268
224.353
224.439
224.527
224.615
224.703
224.791
224.878
224.964
225.048
225.129
225.207
225.282
225.352
225.416
225.475
225.527
225.571
225.606
225.63
225.644
225.647
225.634
225.608
225.564
225.5
225.418
225.313
225.184
225.03
224.848
224.635
224.389
224.107
223.788
223.428
223.026
222.581
222.091
221.549
220.952
220.303
219.604
218.838
218.008
217.112
216.168
215.165
214.104
212.975
211.794
210.556
209.267
207.943
206.58
205.165
203.733
202.257
200.79
199.327
197.844
196.35
194.861
193.431
192.091
190.837
189.696
187.111
229.201
223.443
223.214
223.174
223.152
223.141
223.174
223.306
223.524
223.741
223.892
223.967
224.01
224.051
224.081
224.095
224.071
224.011
223.935
223.855
223.777
223.712
223.666
223.642
223.634
223.637
223.652
223.672
223.688
223.695
223.693
223.68
223.659
223.633
223.611
223.595
223.588
223.59
223.602
223.623
223.653
223.69
223.734
223.786
223.843
223.907
223.976
224.05
224.128
224.209
224.294
224.382
224.473
224.566
224.662
224.759
224.857
224.957
225.058
225.159
225.26
225.361
225.46
225.558
225.654
225.747
225.837
225.923
226.005
226.081
226.15
226.213
226.267
226.312
226.346
226.369
226.38
226.379
226.358
226.322
226.266
226.189
226.089
225.965
225.813
225.633
225.421
225.175
224.894
224.575
224.215
223.81
223.355
222.851
222.299
221.694
221.022
220.293
219.51
218.681
217.781
216.81
215.769
214.682
213.541
212.336
211.059
209.729
208.36
206.928
205.477
203.941
202.437
200.909
199.339
197.778
196.242
194.916
193.789
192.868
190.748
229.099
223.564
223.338
223.273
223.212
223.163
223.147
223.155
223.199
223.304
223.431
223.547
223.648
223.748
223.852
223.935
223.977
223.976
223.937
223.883
223.833
223.786
223.747
223.722
223.713
223.715
223.729
223.751
223.775
223.796
223.81
223.816
223.813
223.804
223.793
223.784
223.781
223.785
223.799
223.822
223.854
223.895
223.943
224
224.063
224.132
224.208
224.289
224.374
224.464
224.557
224.654
224.754
224.857
224.962
225.069
225.179
225.29
225.402
225.516
225.63
225.745
225.859
225.973
226.085
226.196
226.304
226.409
226.512
226.61
226.703
226.79
226.871
226.944
227.009
227.065
227.109
227.142
227.161
227.168
227.157
227.129
227.082
227.012
226.92
226.801
226.655
226.479
226.271
226.029
225.749
225.429
225.065
224.658
224.206
223.702
223.143
222.535
221.875
221.161
220.375
219.523
218.612
217.655
216.638
215.55
214.384
213.167
211.909
210.61
209.233
207.779
206.301
204.787
203.256
201.701
200.007
198.378
196.895
195.583
192.901
228.946
223.68
223.471
223.405
223.342
223.267
223.202
223.166
223.146
223.127
223.122
223.149
223.216
223.324
223.47
223.629
223.762
223.845
223.875
223.869
223.851
223.829
223.811
223.795
223.788
223.789
223.802
223.824
223.852
223.88
223.906
223.927
223.942
223.951
223.956
223.959
223.965
223.975
223.992
224.018
224.053
224.097
224.149
224.209
224.277
224.352
224.434
224.521
224.614
224.711
224.812
224.916
225.025
225.136
225.25
225.367
225.487
225.608
225.732
225.857
225.984
226.111
226.239
226.367
226.494
226.621
226.746
226.87
226.991
227.109
227.224
227.335
227.44
227.54
227.633
227.719
227.795
227.863
227.919
227.963
227.993
228.008
228.011
227.99
227.953
227.892
227.806
227.695
227.556
227.387
227.185
226.947
226.671
226.356
225.997
225.592
225.14
224.64
224.083
223.466
222.787
222.053
221.259
220.406
219.489
218.508
217.46
216.354
215.194
213.988
212.717
211.374
209.968
208.547
207.124
205.681
204.295
202.75
201.37
200.217
197.808
228.754
223.773
223.585
223.531
223.483
223.409
223.321
223.243
223.182
223.118
223.038
222.951
222.906
222.932
223.035
223.211
223.426
223.617
223.741
223.802
223.831
223.843
223.849
223.855
223.859
223.864
223.875
223.896
223.925
223.957
223.99
224.021
224.051
224.077
224.099
224.118
224.135
224.155
224.179
224.209
224.247
224.294
224.349
224.413
224.485
224.565
224.652
224.745
224.844
224.948
225.056
225.169
225.285
225.405
225.528
225.654
225.782
225.914
226.048
226.184
226.321
226.461
226.601
226.742
226.884
227.025
227.166
227.306
227.445
227.582
227.717
227.848
227.976
228.1
228.218
228.331
228.436
228.534
228.623
228.702
228.771
228.826
228.868
228.895
228.907
228.901
228.872
228.822
228.746
228.644
228.513
228.351
228.157
227.926
227.655
227.343
226.989
226.586
226.127
225.615
225.052
224.439
223.76
223.017
222.212
221.354
220.433
219.443
218.378
217.256
216.074
214.834
213.517
212.14
210.715
209.279
207.805
206.387
204.794
203.421
200.785
228.534
223.852
223.677
223.628
223.6
223.548
223.467
223.37
223.271
223.166
223.051
222.915
222.785
222.703
222.702
222.793
222.992
223.251
223.484
223.653
223.758
223.818
223.855
223.885
223.913
223.934
223.95
223.97
223.998
224.032
224.068
224.105
224.143
224.182
224.219
224.254
224.287
224.32
224.354
224.391
224.434
224.485
224.544
224.611
224.687
224.771
224.863
224.961
225.066
225.176
225.291
225.41
225.534
225.661
225.792
225.927
226.064
226.204
226.348
226.494
226.642
226.792
226.943
227.097
227.251
227.406
227.561
227.716
227.871
228.024
228.177
228.328
228.476
228.621
228.762
228.899
229.031
229.157
229.276
229.387
229.49
229.582
229.664
229.733
229.788
229.827
229.85
229.856
229.838
229.8
229.737
229.646
229.527
229.376
229.189
228.966
228.703
228.396
228.043
227.645
227.199
226.703
226.144
225.525
224.848
224.12
223.33
222.471
221.54
220.548
219.5
218.402
217.231
215.995
214.677
213.328
211.951
210.594
209.177
207.851
205.365
228.303
223.915
223.75
223.703
223.689
223.66
223.599
223.507
223.395
223.261
223.101
222.935
222.77
222.625
222.533
222.521
222.61
222.829
223.124
223.403
223.605
223.731
223.82
223.885
223.94
223.988
224.02
224.045
224.072
224.107
224.145
224.186
224.23
224.276
224.325
224.374
224.422
224.468
224.514
224.562
224.612
224.668
224.731
224.802
224.882
224.97
225.066
225.169
225.279
225.394
225.515
225.641
225.771
225.906
226.044
226.186
226.331
226.48
226.632
226.787
226.944
227.104
227.267
227.431
227.597
227.764
227.932
228.1
228.269
228.438
228.607
228.775
228.941
229.106
229.268
229.426
229.582
229.732
229.878
230.017
230.15
230.275
230.391
230.498
230.593
230.676
230.745
230.798
230.833
230.851
230.852
230.822
230.773
230.694
230.585
230.445
230.27
230.057
229.806
229.513
229.171
228.779
228.333
227.833
227.274
226.658
225.98
225.242
224.438
223.569
222.638
221.646
220.589
219.472
218.281
217.049
215.766
214.497
213.189
211.927
209.742
228.081
223.97
223.814
223.766
223.763
223.75
223.709
223.629
223.518
223.373
223.187
222.983
222.79
222.616
222.475
222.399
222.393
222.49
222.733
223.061
223.366
223.595
223.75
223.858
223.941
224.015
224.077
224.118
224.151
224.185
224.225
224.267
224.313
224.364
224.419
224.478
224.539
224.599
224.659
224.718
224.778
224.841
224.909
224.985
225.068
225.16
225.26
225.367
225.482
225.603
225.729
225.86
225.997
226.137
226.282
226.431
226.584
226.74
226.9
227.063
227.229
227.398
227.57
227.744
227.92
228.098
228.277
228.458
228.64
228.822
229.005
229.188
229.371
229.552
229.732
229.911
230.086
230.259
230.428
230.593
230.753
230.907
231.054
231.193
231.324
231.445
231.556
231.653
231.736
231.803
231.855
231.887
231.9
231.891
231.854
231.792
231.697
231.571
231.41
231.208
230.961
230.671
230.334
229.949
229.506
229.007
228.448
227.835
227.161
226.419
225.611
224.734
223.799
222.799
221.726
220.594
219.391
218.186
216.908
215.643
213.675
227.883
224.018
223.877
223.827
223.83
223.828
223.801
223.73
223.621
223.473
223.28
223.057
222.835
222.635
222.466
222.354
222.306
222.316
222.436
222.71
223.062
223.384
223.619
223.784
223.911
224.014
224.108
224.179
224.227
224.265
224.307
224.351
224.399
224.452
224.51
224.575
224.645
224.717
224.789
224.86
224.931
225.003
225.078
225.159
225.247
225.342
225.446
225.557
225.676
225.801
225.932
226.069
226.211
226.357
226.508
226.663
226.822
226.985
227.152
227.322
227.496
227.673
227.853
228.036
228.221
228.409
228.599
228.79
228.983
229.178
229.373
229.57
229.766
229.963
230.159
230.354
230.548
230.741
230.93
231.117
231.3
231.479
231.653
231.822
231.984
232.138
232.284
232.42
232.545
232.657
232.757
232.841
232.907
232.955
232.983
232.991
232.969
232.921
232.842
232.728
232.579
232.393
232.166
231.894
231.572
231.199
230.77
230.289
229.746
229.142
228.473
227.737
226.941
226.077
225.156
224.171
223.134
222.055
220.92
219.703
217.937
227.721
224.056
223.934
223.888
223.894
223.901
223.883
223.815
223.703
223.55
223.356
223.131
222.898
222.676
222.487
222.347
222.271
222.256
222.289
222.449
222.759
223.124
223.441
223.677
223.856
223.996
224.118
224.22
224.295
224.346
224.391
224.438
224.487
224.54
224.599
224.667
224.742
224.823
224.905
224.988
225.07
225.151
225.235
225.322
225.415
225.515
225.622
225.738
225.86
225.989
226.125
226.266
226.413
226.564
226.72
226.881
227.046
227.215
227.388
227.565
227.745
227.93
228.117
228.308
228.501
228.697
228.896
229.097
229.3
229.505
229.711
229.919
230.128
230.338
230.548
230.758
230.968
231.177
231.384
231.59
231.793
231.994
232.192
232.385
232.574
232.757
232.934
233.103
233.264
233.415
233.556
233.686
233.802
233.903
233.986
234.052
234.097
234.12
234.123
234.089
234.033
233.94
233.809
233.639
233.424
233.162
232.847
232.479
232.049
231.564
231.014
230.399
229.717
228.964
228.15
227.265
226.332
225.348
224.328
223.195
221.621
227.597
224.091
223.985
223.946
223.953
223.971
223.956
223.889
223.766
223.602
223.406
223.186
222.958
222.734
222.53
222.37
222.273
222.239
222.247
222.315
222.526
222.867
223.228
223.53
223.764
223.95
224.103
224.239
224.347
224.421
224.475
224.525
224.577
224.631
224.691
224.759
224.837
224.923
225.013
225.106
225.198
225.289
225.381
225.475
225.574
225.678
225.79
225.909
226.035
226.168
226.307
226.453
226.604
226.76
226.92
227.086
227.256
227.43
227.609
227.792
227.978
228.169
228.363
228.56
228.76
228.964
229.171
229.38
229.591
229.805
230.021
230.239
230.459
230.68
230.902
231.124
231.347
231.571
231.793
232.015
232.236
232.455
232.672
232.887
233.098
233.306
233.509
233.707
233.899
234.083
234.26
234.427
234.585
234.731
234.864
234.983
235.086
235.17
235.235
235.276
235.295
235.287
235.241
235.166
235.052
234.898
234.697
234.45
234.147
233.794
233.377
232.901
232.356
231.745
231.067
230.318
229.516
228.65
227.744
226.714
225.291
227.52
224.128
224.03
223.998
224.009
224.035
224.021
223.948
223.809
223.631
223.43
223.215
222.999
222.787
222.588
222.418
222.302
222.252
222.245
222.274
222.396
222.662
223.015
223.358
223.646
223.883
224.077
224.242
224.381
224.484
224.554
224.611
224.666
224.721
224.781
224.85
224.929
225.018
225.114
225.214
225.315
225.415
225.516
225.617
225.722
225.832
225.948
226.07
226.2
226.337
226.48
226.629
226.783
226.943
227.108
227.278
227.453
227.632
227.815
228.003
228.195
228.39
228.59
228.793
229
229.21
229.424
229.64
229.859
230.08
230.304
230.531
230.76
230.99
231.222
231.455
231.69
231.925
232.16
232.396
232.631
232.866
233.1
233.332
233.562
233.791
234.016
234.237
234.455
234.667
234.873
235.073
235.266
235.45
235.624
235.788
235.939
236.077
236.2
236.304
236.389
236.453
236.492
236.508
236.492
236.442
236.357
236.23
236.056
235.833
235.552
235.214
234.804
234.33
233.778
233.153
232.459
231.692
230.879
229.939
228.638
227.492
224.16
224.076
224.05
224.065
224.095
224.077
223.988
223.829
223.638
223.43
223.218
223.016
222.824
222.643
222.481
222.356
222.286
222.265
222.275
222.345
222.535
222.84
223.187
223.511
223.793
224.033
224.231
224.401
224.534
224.626
224.693
224.752
224.811
224.872
224.941
225.021
225.111
225.211
225.317
225.425
225.533
225.641
225.75
225.861
225.976
226.096
226.223
226.356
226.496
226.642
226.794
226.952
227.116
227.284
227.458
227.636
227.82
228.007
228.199
228.396
228.596
228.801
229.009
229.221
229.437
229.656
229.878
230.103
230.331
230.563
230.796
231.033
231.271
231.512
231.754
231.998
232.243
232.489
232.736
232.983
233.231
233.479
233.726
233.972
234.217
234.46
234.701
234.939
235.174
235.405
235.632
235.853
236.068
236.277
236.477
236.669
236.851
237.022
237.179
237.323
237.45
237.559
237.647
237.711
237.749
237.76
237.733
237.668
237.561
237.404
237.197
236.927
236.6
236.196
235.728
235.175
234.543
233.839
232.999
231.82
227.502
224.182
224.116
224.103
224.122
224.149
224.123
224.007
223.83
223.626
223.41
223.202
223.013
222.841
222.683
222.541
222.422
222.337
222.3
222.296
222.334
222.473
222.725
223.042
223.375
223.691
223.974
224.213
224.412
224.571
224.686
224.767
224.834
224.897
224.962
225.031
225.111
225.202
225.304
225.414
225.528
225.643
225.758
225.874
225.991
226.111
226.235
226.366
226.503
226.646
226.795
226.95
227.111
227.278
227.45
227.627
227.809
227.996
228.187
228.383
228.583
228.788
228.997
229.209
229.426
229.646
229.87
230.098
230.328
230.562
230.799
231.039
231.282
231.527
231.775
232.024
232.276
232.53
232.785
233.041
233.298
233.557
233.815
234.074
234.333
234.592
234.85
235.107
235.362
235.616
235.866
236.114
236.359
236.599
236.835
237.066
237.29
237.508
237.717
237.917
238.107
238.286
238.451
238.6
238.733
238.845
238.936
239.002
239.041
239.053
239.022
238.954
238.834
238.663
238.423
238.126
237.736
237.269
236.683
235.966
234.902
227.546
224.194
224.151
224.153
224.177
224.193
224.149
224.004
223.809
223.59
223.373
223.174
222.998
222.842
222.705
222.587
222.482
222.395
222.343
222.327
222.344
222.45
222.664
222.943
223.257
223.588
223.905
224.183
224.412
224.598
224.736
224.835
224.911
224.979
225.047
225.119
225.2
225.292
225.396
225.509
225.627
225.747
225.869
225.99
226.112
226.237
226.366
226.5
226.64
226.786
226.939
227.097
227.261
227.43
227.605
227.785
227.97
228.16
228.354
228.553
228.757
228.966
229.178
229.395
229.615
229.84
230.068
230.3
230.535
230.774
231.016
231.261
231.509
231.76
232.014
232.27
232.529
232.789
233.052
233.316
233.582
233.849
234.117
234.386
234.655
234.925
235.195
235.464
235.734
236.002
236.269
236.534
236.797
237.057
237.315
237.569
237.819
238.064
238.304
238.538
238.765
238.983
239.193
239.393
239.581
239.756
239.915
240.058
240.179
240.278
240.349
240.391
240.4
240.363
240.281
240.153
239.955
239.7
239.308
238.833
238.016
227.64
224.214
224.189
224.197
224.225
224.223
224.148
223.978
223.763
223.538
223.326
223.138
222.974
222.833
222.715
222.616
222.529
222.45
222.389
222.364
222.371
222.449
222.64
222.889
223.175
223.498
223.836
224.147
224.408
224.618
224.779
224.894
224.981
225.056
225.128
225.203
225.286
225.38
225.485
225.6
225.722
225.847
225.973
226.099
226.226
226.356
226.489
226.627
226.77
226.919
227.074
227.235
227.401
227.573
227.751
227.934
228.121
228.314
228.511
228.713
228.92
229.132
229.347
229.567
229.791
230.02
230.252
230.487
230.727
230.969
231.216
231.465
231.718
231.974
232.233
232.495
232.759
233.026
233.294
233.565
233.838
234.112
234.388
234.665
234.943
235.222
235.502
235.782
236.062
236.342
236.622
236.901
237.178
237.455
237.73
238.002
238.272
238.539
238.803
239.063
239.318
239.568
239.812
240.049
240.278
240.498
240.708
240.906
241.09
241.26
241.413
241.545
241.656
241.736
241.787
241.806
241.785
241.726
241.568
241.366
240.904
227.784
224.228
224.226
224.233
224.256
224.235
224.126
223.923
223.692
223.47
223.27
223.096
222.946
222.819
222.715
222.634
222.564
222.496
222.436
222.406
222.407
222.466
222.642
222.871
223.127
223.432
223.775
224.111
224.401
224.635
224.814
224.946
225.044
225.126
225.204
225.283
225.369
225.465
225.571
225.688
225.812
225.941
226.071
226.201
226.333
226.467
226.604
226.745
226.891
227.043
227.201
227.364
227.533
227.708
227.888
228.073
228.263
228.458
228.658
228.863
229.073
229.287
229.506
229.729
229.956
230.188
230.423
230.662
230.905
231.152
231.402
231.656
231.913
232.173
232.437
232.703
232.972
233.244
233.518
233.795
234.073
234.354
234.636
234.92
235.205
235.492
235.78
236.068
236.358
236.648
236.937
237.227
237.516
237.805
238.093
238.38
238.665
238.949
239.23
239.509
239.785
240.058
240.326
240.59
240.849
241.102
241.348
241.586
241.816
242.037
242.247
242.444
242.627
242.79
242.931
243.051
243.161
243.26
243.314
243.296
243.209
227.982
224.251
224.254
224.26
224.27
224.229
224.074
223.839
223.602
223.39
223.207
223.05
222.915
222.802
222.714
222.646
222.59
222.535
222.482
222.454
222.453
222.501
222.661
222.876
223.109
223.392
223.731
224.082
224.395
224.649
224.846
224.992
225.101
225.191
225.275
225.359
225.448
225.546
225.655
225.773
225.899
226.03
226.164
226.298
226.434
226.571
226.712
226.856
227.005
227.16
227.32
227.485
227.656
227.833
228.015
228.202
228.395
228.592
228.795
229.002
229.215
229.431
229.653
229.879
230.109
230.343
230.582
230.824
231.07
231.32
231.574
231.831
232.092
232.357
232.624
232.895
233.168
233.445
233.723
234.005
234.289
234.574
234.862
235.152
235.444
235.737
236.031
236.327
236.624
236.921
237.219
237.517
237.815
238.114
238.411
238.709
239.005
239.301
239.595
239.887
240.178
240.466
240.75
241.032
241.31
241.584
241.853
242.117
242.374
242.624
242.866
243.099
243.322
243.531
243.722
243.897
244.061
244.215
244.362
244.458
244.548
228.215
224.277
224.272
224.273
224.268
224.189
223.986
223.735
223.506
223.31
223.146
223.005
222.885
222.787
222.713
222.658
222.614
222.573
222.531
222.506
222.505
222.55
222.695
222.896
223.11
223.373
223.704
224.062
224.393
224.665
224.876
225.034
225.153
225.25
225.34
225.429
225.522
225.623
225.733
225.853
225.982
226.115
226.251
226.388
226.527
226.668
226.812
226.959
227.111
227.268
227.431
227.599
227.772
227.951
228.135
228.324
228.519
228.718
228.923