/*--------------------------------*- C++ -*----------------------------------*\
| =========                 |                                                 |
| \\      /  F ield         | OpenFOAM: The Open Source CFD Toolbox           |
|  \\    /   O peration     | Version:  2412                                  |
|   \\  /    A nd           | Website:  www.openfoam.com                      |
|    \\/     M anipulation  |                                                 |
\*---------------------------------------------------------------------------*/
FoamFile
{
    version     2.0;
    format      ascii;
    arch        "LSB;label=32;scalar=64";
    class       volScalarField;
    location    "0.031";
    object      p;
}
// * * * * * * * * * * * * * * * * * * * * * * * * * * * * * * * * * * * * * //

dimensions      [1 -1 -2 0 0 0 0];

internalField   nonuniform List<scalar> 
9859
(
2676.1
2676.2
2676.16
2676.18
2676.19
2676.18
2676.17
2676.17
2676.17
2676.17
2676.17
2676.17
2676.17
2676.17
2676.14
2675.88
2675.11
2673.92
2672.7
2671.76
2671.18
2670.92
2670.87
2671.12
2672.51
2674.89
2677.17
2678.82
2679.83
2680.34
2680.53
2680.54
2680.29
2679.6
2678.9
2678.41
2678.13
2678.01
2678.03
2678.2
2678.38
2678.44
2678.33
2678.01
2677.57
2677.21
2677.01
2676.98
2677.02
2677.01
2676.85
2676.52
2676.22
2676.19
2676.54
2677.16
2677.84
2678.46
2679.1
2679.95
2681.12
2682.53
2683.98
2685.38
2686.81
2688.45
2690.36
2692.45
2694.57
2677.4
2677.52
2677.46
2677.48
2677.49
2677.49
2677.48
2677.48
2677.48
2677.48
2677.48
2677.48
2677.48
2677.48
2677.44
2677.19
2676.41
2675.21
2673.99
2673.05
2672.47
2672.21
2672.16
2672.41
2673.8
2676.19
2678.47
2680.12
2681.12
2681.64
2681.83
2681.84
2681.59
2680.9
2680.19
2679.71
2679.43
2679.3
2679.33
2679.5
2679.68
2679.74
2679.63
2679.31
2678.87
2678.51
2678.31
2678.28
2678.33
2678.31
2678.15
2677.81
2677.51
2677.47
2677.8
2678.42
2679.09
2679.71
2680.34
2681.18
2682.34
2683.74
2685.18
2686.56
2687.98
2689.61
2691.5
2693.58
2695.68
2697.73
2699.79
2701.99
2704.33
2706.7
2709
2724.77
2727.1
2730.18
2734.54
2738.8
2743.79
2748.18
2752.5
2756.45
2760.11
2763.66
2766.84
2770.21
2773.47
2776.66
2779.62
2781.9
2783.92
2785.67
2787.29
2788.97
2790.48
2791.86
2793.3
2794.68
2796
2797.3
2798.48
2799.86
2801.24
2802.7
2804.66
2807.11
2810.45
2814.52
2819.82
2821
2678.79
2678.92
2678.86
2678.87
2678.88
2678.88
2678.87
2678.87
2678.87
2678.87
2678.87
2678.87
2678.87
2678.87
2678.83
2678.57
2677.79
2676.59
2675.37
2674.42
2673.84
2673.58
2673.53
2673.78
2675.18
2677.57
2679.85
2681.5
2682.51
2683.02
2683.22
2683.23
2682.97
2682.28
2681.57
2681.08
2680.8
2680.68
2680.71
2680.88
2681.06
2681.12
2681.01
2680.69
2680.25
2679.89
2679.7
2679.67
2679.72
2679.7
2679.53
2679.19
2678.87
2678.83
2679.15
2679.76
2680.43
2681.04
2681.67
2682.5
2683.66
2685.05
2686.48
2687.84
2689.25
2690.86
2692.74
2694.8
2696.87
2698.9
2700.93
2703.09
2705.4
2707.73
2709.99
2712.16
2714.22
2716.18
2717.98
2719.63
2721.18
2722.65
2723.88
2725.33
2727.63
2730.66
2735.05
2739.44
2744.33
2748.79
2753.03
2757.07
2760.64
2764.16
2767.34
2770.64
2773.86
2776.96
2779.81
2782.08
2783.99
2785.68
2787.29
2788.93
2790.4
2791.73
2793.13
2794.49
2795.77
2796.99
2798.13
2799.45
2800.78
2802.18
2804.01
2806.32
2809.52
2813.23
2817.96
2818.14
2680.27
2680.41
2680.35
2680.36
2680.37
2680.36
2680.36
2680.36
2680.36
2680.36
2680.36
2680.36
2680.36
2680.35
2680.32
2680.06
2679.27
2678.06
2676.84
2675.89
2675.31
2675.05
2675
2675.25
2676.66
2679.05
2681.33
2682.98
2683.98
2684.5
2684.69
2684.7
2684.44
2683.75
2683.04
2682.56
2682.28
2682.16
2682.18
2682.35
2682.53
2682.59
2682.49
2682.16
2681.72
2681.37
2681.18
2681.15
2681.2
2681.18
2681.01
2680.66
2680.34
2680.29
2680.61
2681.21
2681.88
2682.49
2683.11
2683.94
2685.09
2686.48
2687.89
2689.24
2690.63
2692.22
2694.09
2696.13
2698.18
2700.17
2702.17
2704.29
2706.55
2708.84
2711.07
2713.2
2715.24
2717.16
2718.91
2720.5
2721.99
2723.4
2724.58
2725.92
2728.19
2731.19
2735.7
2740.13
2744.95
2749.35
2753.61
2757.61
2761.22
2764.68
2767.85
2771.14
2774.34
2777.34
2779.99
2782.21
2784.06
2785.7
2787.26
2788.86
2790.31
2791.6
2792.96
2794.29
2795.52
2796.68
2797.78
2799.02
2800.3
2801.63
2803.33
2805.48
2808.54
2811.91
2816.03
2815.16
2681.86
2682.03
2681.95
2681.97
2681.97
2681.96
2681.96
2681.96
2681.96
2681.96
2681.96
2681.96
2681.96
2681.96
2681.92
2681.66
2680.86
2679.65
2678.42
2677.47
2676.89
2676.63
2676.58
2676.83
2678.24
2680.63
2682.92
2684.57
2685.57
2686.08
2686.28
2686.29
2686.03
2685.33
2684.63
2684.14
2683.86
2683.74
2683.77
2683.93
2684.12
2684.18
2684.07
2683.75
2683.31
2682.96
2682.77
2682.75
2682.79
2682.78
2682.6
2682.24
2681.92
2681.86
2682.18
2682.78
2683.45
2684.06
2684.68
2685.51
2686.66
2688.03
2689.43
2690.77
2692.14
2693.72
2695.57
2697.58
2699.6
2701.56
2703.51
2705.6
2707.81
2710.04
2712.22
2714.32
2716.32
2718.21
2719.92
2721.46
2722.86
2724.18
2725.31
2726.54
2728.78
2731.84
2736.28
2740.71
2745.49
2750.04
2754.2
2758.27
2761.82
2765.21
2768.37
2771.59
2774.75
2777.65
2780.24
2782.37
2784.12
2785.72
2787.25
2788.81
2790.21
2791.46
2792.77
2794.07
2795.25
2796.35
2797.4
2798.55
2799.79
2801.05
2802.62
2804.6
2807.49
2810.49
2813.95
2812.07
2786.68
2683.58
2683.77
2683.69
2683.7
2683.7
2683.7
2683.69
2683.69
2683.69
2683.69
2683.69
2683.69
2683.69
2683.69
2683.66
2683.39
2682.59
2681.37
2680.14
2679.19
2678.61
2678.35
2678.3
2678.55
2679.96
2682.35
2684.64
2686.29
2687.29
2687.8
2688
2688.01
2687.74
2687.05
2686.34
2685.85
2685.57
2685.45
2685.48
2685.65
2685.83
2685.89
2685.79
2685.46
2685.02
2684.68
2684.49
2684.47
2684.52
2684.5
2684.32
2683.96
2683.63
2683.57
2683.89
2684.49
2685.16
2685.77
2686.4
2687.23
2688.37
2689.74
2691.13
2692.45
2693.81
2695.36
2697.19
2699.18
2701.17
2703.09
2705
2707.03
2709.19
2711.36
2713.47
2715.53
2717.49
2719.33
2721
2722.46
2723.75
2724.98
2726.08
2727.2
2729.4
2732.52
2737.05
2741.3
2746.16
2750.7
2754.87
2758.89
2762.44
2765.74
2768.93
2772.18
2775.26
2777.98
2780.46
2782.5
2784.19
2785.74
2787.22
2788.73
2790.1
2791.31
2792.57
2793.84
2794.95
2796
2796.99
2798.06
2799.25
2800.44
2801.87
2803.67
2806.38
2809.02
2811.77
2808.84
2781.68
2685.45
2685.67
2685.58
2685.59
2685.59
2685.59
2685.58
2685.58
2685.58
2685.58
2685.58
2685.58
2685.58
2685.58
2685.55
2685.27
2684.47
2683.25
2682.01
2681.06
2680.47
2680.21
2680.16
2680.42
2681.83
2684.23
2686.51
2688.16
2689.16
2689.67
2689.87
2689.87
2689.61
2688.91
2688.2
2687.72
2687.44
2687.32
2687.34
2687.51
2687.69
2687.76
2687.65
2687.33
2686.89
2686.54
2686.36
2686.34
2686.39
2686.37
2686.19
2685.83
2685.49
2685.44
2685.75
2686.36
2687.04
2687.66
2688.29
2689.12
2690.27
2691.63
2693
2694.31
2695.64
2697.18
2698.98
2700.94
2702.89
2704.76
2706.62
2708.6
2710.7
2712.79
2714.83
2716.83
2718.75
2720.54
2722.15
2723.56
2724.75
2725.86
2726.92
2727.94
2730.08
2733.58
2737.75
2741.84
2746.81
2751.52
2755.56
2759.59
2763.09
2766.33
2769.48
2772.73
2775.68
2778.32
2780.7
2782.64
2784.25
2785.75
2787.2
2788.66
2789.98
2791.13
2792.36
2793.58
2794.66
2795.63
2796.55
2797.54
2798.69
2799.8
2801.09
2802.69
2805.19
2807.45
2809.46
2805.46
2776.63
2687.51
2687.76
2687.66
2687.67
2687.67
2687.66
2687.66
2687.66
2687.66
2687.66
2687.66
2687.66
2687.66
2687.66
2687.62
2687.34
2686.53
2685.31
2684.07
2683.11
2682.53
2682.26
2682.21
2682.47
2683.88
2686.28
2688.57
2690.22
2691.22
2691.72
2691.92
2691.92
2691.65
2690.95
2690.24
2689.76
2689.48
2689.36
2689.39
2689.56
2689.74
2689.8
2689.7
2689.37
2688.93
2688.59
2688.41
2688.39
2688.44
2688.43
2688.25
2687.88
2687.55
2687.49
2687.82
2688.43
2689.12
2689.75
2690.4
2691.23
2692.38
2693.73
2695.09
2696.38
2697.69
2699.2
2700.97
2702.9
2704.81
2706.62
2708.42
2710.34
2712.37
2714.39
2716.34
2718.25
2720.11
2721.85
2723.4
2724.73
2725.79
2726.73
2727.72
2728.65
2730.83
2734.1
2738.31
2742.45
2747.59
2752.29
2756.31
2760.28
2763.76
2766.9
2770.11
2773.36
2776.13
2778.65
2780.93
2782.77
2784.31
2785.76
2787.16
2788.57
2789.84
2790.96
2792.13
2793.3
2794.33
2795.25
2796.08
2796.99
2798.1
2799.12
2800.25
2801.65
2803.95
2805.81
2807.04
2801.94
2771.53
2689.77
2690.07
2689.96
2689.96
2689.96
2689.96
2689.95
2689.95
2689.95
2689.95
2689.95
2689.95
2689.95
2689.95
2689.92
2689.64
2688.82
2687.59
2686.34
2685.38
2684.8
2684.53
2684.48
2684.74
2686.15
2688.55
2690.84
2692.49
2693.49
2693.99
2694.18
2694.19
2693.91
2693.21
2692.5
2692.02
2691.74
2691.62
2691.65
2691.81
2692
2692.06
2691.95
2691.63
2691.19
2690.85
2690.67
2690.66
2690.71
2690.7
2690.52
2690.15
2689.83
2689.78
2690.11
2690.73
2691.43
2692.09
2692.74
2693.58
2694.73
2696.09
2697.43
2698.69
2699.98
2701.45
2703.19
2705.07
2706.92
2708.67
2710.4
2712.25
2714.21
2716.14
2717.99
2719.81
2721.59
2723.25
2724.74
2725.99
2726.95
2727.73
2728.63
2729.46
2731.64
2735.32
2738.85
2743.14
2748.4
2753.2
2757.09
2761.03
2764.48
2767.54
2770.81
2773.89
2776.58
2779
2781.16
2782.9
2784.37
2785.77
2787.12
2788.47
2789.7
2790.76
2791.88
2793.01
2793.99
2794.83
2795.59
2796.41
2797.49
2798.4
2799.38
2800.57
2802.63
2804.06
2804.5
2798.27
2766.37
2692.3
2692.64
2692.52
2692.52
2692.52
2692.52
2692.52
2692.51
2692.51
2692.51
2692.51
2692.51
2692.51
2692.51
2692.48
2692.19
2691.37
2690.13
2688.88
2687.92
2687.33
2687.07
2687.01
2687.27
2688.69
2691.09
2693.37
2695.02
2696.02
2696.52
2696.71
2696.71
2696.43
2695.72
2695.01
2694.53
2694.25
2694.13
2694.16
2694.33
2694.51
2694.57
2694.47
2694.14
2693.7
2693.36
2693.19
2693.18
2693.23
2693.22
2693.05
2692.69
2692.37
2692.34
2692.68
2693.32
2694.04
2694.71
2695.38
2696.24
2697.39
2698.74
2700.07
2701.3
2702.55
2703.99
2705.68
2707.51
2709.29
2710.96
2712.61
2714.38
2716.26
2718.1
2719.84
2721.53
2723.2
2724.79
2726.2
2727.36
2728.2
2728.8
2729.64
2730.53
2732.88
2736.48
2739.33
2744.05
2749.29
2754.09
2757.91
2761.81
2765.25
2768.19
2771.48
2774.46
2777.03
2779.33
2781.38
2783.03
2784.43
2785.77
2787.07
2788.37
2789.54
2790.54
2791.62
2792.69
2793.62
2794.4
2795.06
2795.81
2796.83
2797.63
2798.47
2799.44
2801.22
2802.22
2801.83
2794.48
2761.14
2695.13
2695.53
2695.41
2695.41
2695.4
2695.4
2695.4
2695.4
2695.4
2695.4
2695.4
2695.4
2695.4
2695.4
2695.36
2695.07
2694.24
2692.99
2691.74
2690.77
2690.18
2689.92
2689.86
2690.11
2691.54
2693.94
2696.22
2697.87
2698.86
2699.36
2699.54
2699.54
2699.26
2698.55
2697.84
2697.35
2697.07
2696.96
2696.98
2697.15
2697.33
2697.39
2697.29
2696.96
2696.52
2696.18
2696.01
2696
2696.07
2696.06
2695.89
2695.55
2695.24
2695.22
2695.58
2696.24
2696.99
2697.69
2698.38
2699.24
2700.4
2701.74
2703.06
2704.26
2705.47
2706.86
2708.49
2710.25
2711.94
2713.52
2715.06
2716.74
2718.52
2720.25
2721.87
2723.42
2724.97
2726.45
2727.77
2728.83
2729.52
2729.88
2730.52
2731.3
2733.85
2737.44
2740.02
2744.91
2750.23
2755.06
2758.83
2762.65
2766.04
2768.9
2772.17
2775.03
2777.5
2779.67
2781.6
2783.15
2784.48
2785.77
2787.02
2788.26
2789.36
2790.32
2791.33
2792.36
2793.24
2793.93
2794.5
2795.18
2796.14
2796.84
2797.49
2798.27
2799.74
2800.27
2799.03
2790.54
2755.87
2698.34
2698.82
2698.68
2698.68
2698.68
2698.67
2698.67
2698.67
2698.67
2698.67
2698.67
2698.67
2698.67
2698.67
2698.63
2698.34
2697.5
2696.24
2694.98
2694.01
2693.42
2693.15
2693.1
2693.35
2694.77
2697.17
2699.46
2701.1
2702.09
2702.59
2702.77
2702.76
2702.48
2701.76
2701.04
2700.55
2700.27
2700.16
2700.18
2700.35
2700.53
2700.59
2700.48
2700.15
2699.71
2699.37
2699.21
2699.21
2699.27
2699.28
2699.12
2698.79
2698.51
2698.51
2698.89
2699.59
2700.36
2701.09
2701.81
2702.68
2703.85
2705.19
2706.48
2707.65
2708.8
2710.12
2711.68
2713.35
2714.94
2716.39
2717.82
2719.37
2721.04
2722.66
2724.15
2725.54
2726.93
2728.29
2729.49
2730.44
2731.01
2731.17
2731.66
2732.5
2735.23
2738.25
2740.98
2745.99
2751.23
2756.07
2759.76
2763.51
2766.9
2769.62
2772.87
2775.61
2777.97
2780.01
2781.82
2783.27
2784.53
2785.76
2786.95
2788.13
2789.18
2790.07
2791.02
2792
2792.82
2793.44
2793.9
2794.53
2795.41
2795.99
2796.49
2797.05
2798.18
2798.22
2796.09
2786.45
2750.58
2702.02
2702.59
2702.44
2702.44
2702.43
2702.43
2702.43
2702.43
2702.43
2702.43
2702.43
2702.43
2702.43
2702.43
2702.39
2702.09
2701.24
2699.98
2698.71
2697.74
2697.14
2696.87
2696.82
2697.07
2698.49
2700.89
2703.18
2704.82
2705.8
2706.29
2706.47
2706.46
2706.16
2705.44
2704.71
2704.22
2703.94
2703.82
2703.84
2704.01
2704.19
2704.25
2704.14
2703.8
2703.36
2703.02
2702.86
2702.87
2702.95
2702.97
2702.83
2702.52
2702.28
2702.31
2702.72
2703.45
2704.26
2705.03
2705.77
2706.66
2707.82
2709.15
2710.42
2711.54
2712.62
2713.86
2715.33
2716.88
2718.33
2719.63
2720.9
2722.31
2723.84
2725.32
2726.66
2727.88
2729.1
2730.3
2731.37
2732.16
2732.57
2732.45
2732.59
2733.42
2736.58
2738.9
2742.08
2747.15
2752.35
2757.11
2760.78
2764.43
2767.79
2770.36
2773.59
2776.2
2778.44
2780.34
2782.03
2783.38
2784.58
2785.75
2786.88
2787.99
2788.98
2789.8
2790.68
2791.62
2792.38
2792.92
2793.28
2793.84
2794.62
2795.07
2795.42
2795.77
2796.53
2796.04
2793.02
2782.22
2745.25
2706.28
2706.98
2706.81
2706.8
2706.8
2706.79
2706.79
2706.79
2706.79
2706.79
2706.79
2706.79
2706.79
2706.79
2706.75
2706.45
2705.59
2704.32
2703.04
2702.06
2701.47
2701.2
2701.14
2701.39
2702.81
2705.21
2707.49
2709.13
2710.11
2710.6
2710.77
2710.75
2710.45
2709.71
2708.98
2708.48
2708.2
2708.07
2708.09
2708.25
2708.42
2708.48
2708.37
2708.02
2707.58
2707.25
2707.1
2707.11
2707.21
2707.24
2707.13
2706.86
2706.66
2706.73
2707.18
2707.96
2708.81
2709.61
2710.36
2711.26
2712.42
2713.74
2714.96
2716.01
2717.01
2718.15
2719.49
2720.9
2722.19
2723.3
2724.38
2725.61
2726.97
2728.3
2729.47
2730.5
2731.51
2732.54
2733.44
2734.09
2734.36
2734.03
2733.86
2734.96
2737.75
2739.76
2743.37
2748.44
2753.53
2758.18
2761.79
2765.4
2768.7
2771.17
2774.33
2776.8
2778.9
2780.67
2782.23
2783.49
2784.62
2785.74
2786.81
2787.85
2788.75
2789.52
2790.33
2791.21
2791.91
2792.36
2792.62
2793.13
2793.8
2794.12
2794.27
2794.46
2794.79
2793.75
2789.82
2777.83
2739.88
2711.26
2712.11
2711.93
2711.91
2711.91
2711.91
2711.9
2711.9
2711.9
2711.9
2711.9
2711.91
2711.91
2711.9
2711.86
2711.56
2710.69
2709.41
2708.12
2707.14
2706.53
2706.26
2706.2
2706.45
2707.88
2710.28
2712.56
2714.2
2715.17
2715.65
2715.81
2715.79
2715.47
2714.72
2713.98
2713.47
2713.18
2713.05
2713.06
2713.21
2713.38
2713.43
2713.31
2712.96
2712.51
2712.18
2712.04
2712.07
2712.19
2712.25
2712.17
2711.95
2711.81
2711.92
2712.43
2713.24
2714.12
2714.93
2715.69
2716.57
2717.71
2718.99
2720.16
2721.12
2722.01
2723.02
2724.22
2725.47
2726.57
2727.47
2728.33
2729.33
2730.46
2731.6
2732.58
2733.4
2734.2
2735.02
2735.73
2736.2
2736.29
2735.71
2735.09
2736.87
2738.61
2740.79
2744.86
2749.89
2754.8
2759.26
2762.9
2766.41
2769.6
2772.09
2775.07
2777.41
2779.37
2781
2782.43
2783.59
2784.66
2785.71
2786.72
2787.68
2788.51
2789.2
2789.95
2790.78
2791.41
2791.77
2791.93
2792.38
2792.93
2793.11
2793.09
2793.08
2792.96
2791.33
2786.49
2773.27
2734.4
2717.1
2718.12
2717.91
2717.9
2717.9
2717.89
2717.89
2717.89
2717.89
2717.89
2717.89
2717.89
2717.89
2717.89
2717.85
2717.54
2716.66
2715.37
2714.07
2713.08
2712.48
2712.2
2712.15
2712.39
2713.82
2716.23
2718.5
2720.14
2721.11
2721.58
2721.74
2721.71
2721.38
2720.62
2719.86
2719.34
2719.03
2718.89
2718.88
2719.02
2719.18
2719.22
2719.09
2718.73
2718.29
2717.97
2717.84
2717.89
2718.03
2718.13
2718.09
2717.93
2717.84
2718
2718.54
2719.38
2720.27
2721.05
2721.77
2722.61
2723.71
2724.93
2726
2726.85
2727.6
2728.46
2729.51
2730.58
2731.49
2732.17
2732.79
2733.53
2734.4
2735.29
2736.05
2736.65
2737.22
2737.79
2738.27
2738.55
2738.49
2737.74
2736.61
2739.22
2739.39
2742.17
2746.47
2751.46
2756.21
2760.42
2764.09
2767.49
2770.49
2773.05
2775.83
2778.01
2779.81
2781.32
2782.62
2783.69
2784.7
2785.69
2786.62
2787.51
2788.25
2788.87
2789.54
2790.32
2790.88
2791.14
2791.21
2791.59
2792.01
2792.04
2791.84
2791.64
2791.05
2788.79
2783.04
2768.57
2728.77
2723.87
2725.06
2724.83
2724.82
2724.82
2724.82
2724.81
2724.81
2724.81
2724.81
2724.81
2724.81
2724.81
2724.81
2724.77
2724.45
2723.57
2722.26
2720.96
2719.96
2719.35
2719.08
2719.02
2719.27
2720.7
2723.11
2725.39
2727.02
2727.99
2728.46
2728.62
2728.59
2728.25
2727.47
2726.7
2726.17
2725.84
2725.67
2725.65
2725.77
2725.91
2725.93
2725.79
2725.43
2724.98
2724.68
2724.57
2724.64
2724.81
2724.95
2724.96
2724.86
2724.81
2725.01
2725.56
2726.39
2727.24
2727.96
2728.61
2729.38
2730.4
2731.53
2732.49
2733.19
2733.78
2734.47
2735.34
2736.23
2736.93
2737.4
2737.79
2738.27
2738.85
2739.41
2739.89
2740.26
2740.58
2740.89
2741.11
2741.15
2740.84
2739.91
2738.36
2741.71
2740.36
2743.84
2748.26
2753.18
2757.74
2761.62
2765.33
2768.65
2771.44
2774.03
2776.6
2778.61
2780.25
2781.62
2782.81
2783.8
2784.75
2785.66
2786.52
2787.32
2787.96
2788.51
2789.1
2789.83
2790.31
2790.48
2790.46
2790.76
2791.03
2790.91
2790.53
2790.12
2789.05
2786.13
2779.47
2763.73
2723.14
2731.59
2732.93
2732.69
2732.68
2732.68
2732.68
2732.67
2732.67
2732.67
2732.67
2732.67
2732.67
2732.67
2732.67
2732.63
2732.31
2731.41
2730.09
2728.78
2727.78
2727.17
2726.89
2726.83
2727.08
2728.52
2730.93
2733.21
2734.84
2735.81
2736.29
2736.45
2736.41
2736.07
2735.28
2734.5
2733.95
2733.6
2733.41
2733.37
2733.46
2733.58
2733.59
2733.43
2733.06
2732.61
2732.32
2732.23
2732.33
2732.54
2732.72
2732.77
2732.72
2732.71
2732.92
2733.46
2734.25
2735.02
2735.66
2736.21
2736.88
2737.8
2738.8
2739.62
2740.15
2740.56
2741.05
2741.71
2742.4
2742.88
2743.13
2743.3
2743.55
2743.84
2744.05
2744.19
2744.29
2744.35
2744.38
2744.31
2744.09
2743.53
2742.42
2740.59
2744.05
2741.77
2745.74
2750.22
2755.04
2759.44
2762.95
2766.7
2769.87
2772.46
2775.03
2777.36
2779.2
2780.7
2781.93
2782.99
2783.9
2784.79
2785.62
2786.4
2787.11
2787.66
2788.12
2788.63
2789.31
2789.71
2789.78
2789.67
2789.9
2790.02
2789.73
2789.15
2788.52
2786.97
2783.36
2775.81
2758.78
2717.43
2740.25
2741.74
2741.49
2741.49
2741.48
2741.48
2741.48
2741.48
2741.48
2741.48
2741.48
2741.48
2741.48
2741.48
2741.43
2741.11
2740.2
2738.87
2737.54
2736.53
2735.92
2735.64
2735.58
2735.83
2737.27
2739.69
2741.98
2743.61
2744.58
2745.06
2745.22
2745.18
2744.83
2744.04
2743.25
2742.69
2742.32
2742.11
2742.04
2742.11
2742.2
2742.19
2742.02
2741.63
2741.19
2740.91
2740.84
2740.97
2741.22
2741.44
2741.54
2741.54
2741.54
2741.75
2742.26
2742.98
2743.67
2744.19
2744.62
2745.18
2745.97
2746.83
2747.47
2747.81
2748.01
2748.27
2748.71
2749.16
2749.4
2749.4
2749.34
2749.36
2749.4
2749.27
2749
2748.77
2748.55
2748.28
2747.9
2747.36
2746.44
2745.12
2743.51
2746.02
2743.63
2747.9
2752.38
2757.07
2761.33
2764.42
2768.17
2771.16
2773.56
2776.03
2778.14
2779.77
2781.09
2782.21
2783.18
2784.01
2784.83
2785.57
2786.27
2786.88
2787.33
2787.7
2788.13
2788.76
2789.06
2789.04
2788.86
2788.99
2788.95
2788.48
2787.71
2786.82
2784.79
2780.47
2772.02
2753.78
2711.79
2749.92
2751.55
2751.29
2751.3
2751.29
2751.29
2751.29
2751.29
2751.29
2751.29
2751.29
2751.29
2751.29
2751.29
2751.24
2750.91
2749.99
2748.64
2747.31
2746.29
2745.67
2745.38
2745.32
2745.57
2747.02
2749.44
2751.73
2753.37
2754.34
2754.82
2754.98
2754.95
2754.59
2753.8
2753
2752.43
2752.05
2751.81
2751.72
2751.76
2751.83
2751.8
2751.61
2751.21
2750.78
2750.52
2750.47
2750.63
2750.92
2751.17
2751.32
2751.36
2751.38
2751.57
2752.04
2752.68
2753.26
2753.65
2753.96
2754.38
2755.02
2755.7
2756.14
2756.26
2756.21
2756.21
2756.39
2756.58
2756.54
2756.27
2755.94
2755.71
2755.49
2755.07
2754.4
2753.78
2753.26
2752.68
2751.97
2751.11
2749.75
2748.01
2747.18
2747.73
2745.97
2750.36
2754.78
2759.27
2763.4
2766.08
2769.79
2772.52
2774.76
2777.04
2778.91
2780.34
2781.49
2782.5
2783.37
2784.12
2784.87
2785.52
2786.12
2786.63
2786.98
2787.26
2787.6
2788.17
2788.38
2788.25
2788
2788.03
2787.83
2787.18
2786.19
2785
2782.49
2777.46
2768.12
2748.68
2706.25
2760.68
2762.47
2762.19
2762.21
2762.21
2762.21
2762.2
2762.2
2762.21
2762.21
2762.21
2762.21
2762.21
2762.2
2762.16
2761.82
2760.88
2759.52
2758.18
2757.15
2756.52
2756.23
2756.16
2756.41
2757.86
2760.29
2762.59
2764.23
2765.2
2765.67
2765.83
2765.8
2765.44
2764.65
2763.84
2763.26
2762.87
2762.62
2762.51
2762.53
2762.57
2762.53
2762.32
2761.92
2761.49
2761.24
2761.22
2761.41
2761.75
2762.05
2762.24
2762.31
2762.33
2762.5
2762.9
2763.45
2763.91
2764.16
2764.32
2764.57
2765.03
2765.51
2765.72
2765.59
2765.25
2764.97
2764.87
2764.76
2764.42
2763.83
2763.19
2762.66
2762.17
2761.46
2760.46
2759.38
2758.51
2757.6
2756.54
2755.33
2753.48
2751.08
2751.43
2749.54
2748.92
2753.15
2757.48
2761.69
2765.68
2767.94
2771.55
2773.96
2776.03
2778.06
2779.68
2780.88
2781.87
2782.79
2783.57
2784.24
2784.91
2785.46
2785.96
2786.36
2786.61
2786.78
2787.04
2787.54
2787.65
2787.43
2787.11
2787.03
2786.65
2785.81
2784.61
2783.08
2780.07
2774.34
2764.13
2743.58
2700.65
2772.63
2774.59
2774.29
2774.33
2774.33
2774.33
2774.33
2774.33
2774.33
2774.33
2774.33
2774.33
2774.33
2774.33
2774.28
2773.93
2772.98
2771.61
2770.25
2769.21
2768.58
2768.28
2768.21
2768.46
2769.91
2772.35
2774.65
2776.29
2777.26
2777.73
2777.89
2777.86
2777.49
2776.69
2775.88
2775.29
2774.89
2774.63
2774.5
2774.5
2774.54
2774.48
2774.26
2773.86
2773.44
2773.23
2773.23
2773.46
2773.85
2774.19
2774.42
2774.52
2774.53
2774.64
2774.96
2775.39
2775.71
2775.8
2775.78
2775.84
2776.08
2776.32
2776.27
2775.84
2775.19
2774.6
2774.19
2773.75
2773.08
2772.15
2771.17
2770.31
2769.47
2768.45
2767.14
2765.66
2764.38
2763.12
2761.67
2760.08
2757.78
2754.48
2755.96
2751.88
2752.48
2756.35
2760.53
2764.41
2768.16
2770.01
2773.5
2775.51
2777.37
2779.09
2780.44
2781.42
2782.25
2783.08
2783.77
2784.37
2784.95
2785.39
2785.78
2786.06
2786.21
2786.27
2786.45
2786.87
2786.89
2786.56
2786.18
2785.97
2785.42
2784.38
2782.95
2781.05
2777.53
2771.1
2760.01
2738.42
2695.14
2785.86
2787.96
2787.65
2787.7
2787.71
2787.71
2787.71
2787.71
2787.71
2787.71
2787.71
2787.71
2787.71
2787.71
2787.66
2787.3
2786.34
2784.95
2783.58
2782.53
2781.89
2781.59
2781.52
2781.77
2783.22
2785.67
2787.97
2789.61
2790.59
2791.06
2791.21
2791.17
2790.8
2789.99
2789.18
2788.57
2788.16
2787.89
2787.76
2787.75
2787.78
2787.73
2787.51
2787.11
2786.73
2786.54
2786.58
2786.85
2787.29
2787.68
2787.94
2788.04
2788.03
2788.06
2788.27
2788.55
2788.69
2788.59
2788.35
2788.18
2788.19
2788.16
2787.81
2787.04
2786.05
2785.13
2784.38
2783.59
2782.56
2781.27
2779.93
2778.72
2777.51
2776.13
2774.48
2772.68
2770.94
2769.28
2767.42
2765.39
2762.71
2758.6
2760.58
2755.03
2756.45
2760
2763.99
2767.53
2770.87
2772.32
2775.48
2777.19
2778.76
2780.14
2781.21
2781.96
2782.64
2783.38
2783.98
2784.5
2784.99
2785.31
2785.6
2785.75
2785.79
2785.73
2785.82
2786.16
2786.08
2785.65
2785.21
2784.86
2784.14
2782.89
2781.23
2778.92
2774.86
2767.75
2755.82
2733.21
2689.58
2800.37
2802.59
2802.27
2802.34
2802.35
2802.35
2802.35
2802.35
2802.35
2802.35
2802.35
2802.35
2802.35
2802.35
2802.3
2801.94
2800.96
2799.55
2798.16
2797.1
2796.46
2796.16
2796.09
2796.33
2797.79
2800.25
2802.56
2804.21
2805.18
2805.65
2805.8
2805.76
2805.38
2804.56
2803.73
2803.12
2802.7
2802.43
2802.29
2802.29
2802.32
2802.27
2802.07
2801.7
2801.35
2801.2
2801.28
2801.61
2802.1
2802.52
2802.79
2802.88
2802.81
2802.75
2802.82
2802.92
2802.86
2802.52
2802.02
2801.6
2801.32
2800.99
2800.31
2799.19
2797.83
2796.55
2795.44
2794.29
2792.88
2791.21
2789.5
2787.91
2786.32
2784.54
2782.51
2780.37
2778.27
2776.14
2773.85
2771.3
2768.33
2763.67
2765.2
2759.06
2760.88
2764.16
2767.92
2771.2
2773.71
2775.03
2777.68
2779.01
2780.2
2781.21
2781.99
2782.52
2783.04
2783.69
2784.2
2784.63
2785.02
2785.23
2785.4
2785.41
2785.35
2785.16
2785.16
2785.4
2785.24
2784.7
2784.2
2783.7
2782.79
2781.34
2779.44
2776.69
2772.08
2764.3
2751.55
2728.01
2683.97
2816.12
2818.43
2818.11
2818.2
2818.22
2818.22
2818.22
2818.22
2818.22
2818.22
2818.22
2818.22
2818.22
2818.22
2818.17
2817.8
2816.8
2815.37
2813.97
2812.9
2812.25
2811.94
2811.87
2812.12
2813.58
2816.05
2818.37
2820.03
2821.01
2821.48
2821.63
2821.58
2821.2
2820.36
2819.52
2818.89
2818.46
2818.19
2818.06
2818.06
2818.11
2818.08
2817.9
2817.57
2817.28
2817.18
2817.3
2817.69
2818.22
2818.67
2818.93
2818.98
2818.83
2818.63
2818.53
2818.43
2818.13
2817.52
2816.74
2816.02
2815.43
2814.78
2813.74
2812.24
2810.51
2808.86
2807.36
2805.82
2804.02
2801.96
2799.86
2797.89
2795.92
2793.74
2791.31
2788.8
2786.38
2783.78
2780.95
2777.85
2774.58
2769.77
2769.94
2763.93
2765.86
2768.83
2772.34
2775.45
2776.81
2778.16
2780.07
2780.96
2781.69
2782.31
2782.8
2783.11
2783.47
2784.02
2784.43
2784.78
2785.05
2785.14
2785.19
2785.06
2784.88
2784.56
2784.47
2784.6
2784.34
2783.71
2783.14
2782.47
2781.39
2779.73
2777.57
2774.37
2769.2
2760.76
2747.19
2722.74
2678.18
2833.06
2835.43
2835.09
2835.21
2835.24
2835.24
2835.24
2835.24
2835.24
2835.24
2835.24
2835.24
2835.24
2835.24
2835.19
2834.81
2833.8
2832.35
2830.93
2829.84
2829.18
2828.88
2828.81
2829.05
2830.52
2833
2835.34
2837.01
2837.99
2838.46
2838.61
2838.57
2838.17
2837.32
2836.46
2835.82
2835.38
2835.11
2834.99
2835.01
2835.08
2835.08
2834.95
2834.67
2834.44
2834.39
2834.57
2835.01
2835.58
2836.03
2836.27
2836.25
2835.97
2835.62
2835.32
2834.99
2834.41
2833.5
2832.42
2831.38
2830.46
2829.45
2828.05
2826.16
2824.05
2822
2820.12
2818.18
2815.98
2813.53
2811.03
2808.67
2806.3
2803.71
2800.88
2798
2795.22
2792.19
2789.01
2785.24
2781.39
2776.69
2775.13
2769.64
2771.44
2774.02
2777.19
2780.4
2780.52
2781.41
2782.68
2783.03
2783.24
2783.46
2783.65
2783.76
2783.95
2784.38
2784.68
2784.92
2785.09
2785.04
2784.96
2784.7
2784.38
2783.92
2783.76
2783.75
2783.4
2782.67
2782.03
2781.19
2779.93
2778.06
2775.63
2771.97
2766.21
2757.13
2742.75
2717.44
2672.9
2851.1
2853.47
2853.13
2853.26
2853.31
2853.31
2853.31
2853.31
2853.31
2853.31
2853.31
2853.31
2853.31
2853.31
2853.25
2852.87
2851.84
2850.37
2848.93
2847.83
2847.17
2846.86
2846.79
2847.03
2848.51
2851.01
2853.36
2855.03
2856.02
2856.5
2856.65
2856.6
2856.2
2855.33
2854.46
2853.8
2853.36
2853.1
2853
2853.03
2853.13
2853.18
2853.1
2852.89
2852.73
2852.73
2852.96
2853.45
2854.03
2854.46
2854.65
2854.52
2854.09
2853.56
2853.04
2852.46
2851.59
2850.35
2848.93
2847.56
2846.28
2844.91
2843.13
2840.85
2838.35
2835.92
2833.64
2831.31
2828.71
2825.85
2822.97
2820.21
2817.44
2814.46
2811.24
2808.01
2804.87
2801.44
2797.54
2793.38
2789.05
2783.95
2781.18
2776.17
2777.65
2779.86
2782.56
2785.49
2784.92
2785.01
2785.59
2785.25
2784.9
2784.7
2784.59
2784.48
2784.48
2784.76
2784.93
2785.08
2785.12
2784.95
2784.73
2784.32
2783.87
2783.27
2783.02
2782.86
2782.41
2781.6
2780.87
2779.85
2778.4
2776.33
2773.62
2769.49
2763.13
2753.42
2738.29
2712.23
2667.25
2870.08
2872.42
2872.07
2872.22
2872.28
2872.29
2872.29
2872.29
2872.29
2872.29
2872.29
2872.29
2872.29
2872.29
2872.23
2871.84
2870.79
2869.3
2867.84
2866.73
2866.05
2865.74
2865.67
2865.92
2867.4
2869.91
2872.28
2873.97
2874.97
2875.45
2875.6
2875.56
2875.14
2874.26
2873.37
2872.7
2872.26
2872.02
2871.93
2872
2872.14
2872.23
2872.22
2872.07
2871.98
2872.04
2872.31
2872.84
2873.41
2873.79
2873.9
2873.62
2873.01
2872.27
2871.52
2870.66
2869.47
2867.9
2866.13
2864.4
2862.76
2861.01
2858.86
2856.21
2853.33
2850.52
2847.86
2845.14
2842.15
2838.9
2835.63
2832.48
2829.32
2825.94
2822.35
2818.81
2815.36
2811.47
2807.23
2802.26
2797.18
2791.98
2788.18
2783.54
2784.53
2786.29
2788.6
2791
2790.04
2789.1
2788.75
2787.7
2786.76
2786.11
2785.65
2785.32
2785.11
2785.2
2785.21
2785.24
2785.15
2784.85
2784.49
2783.94
2783.33
2782.59
2782.25
2781.94
2781.37
2780.48
2779.65
2778.44
2776.79
2774.52
2771.54
2766.95
2759.99
2749.63
2733.68
2706.88
2662.08
2889.85
2892.1
2891.74
2891.9
2891.98
2892
2892
2891.99
2891.99
2891.99
2891.99
2891.99
2891.99
2891.99
2891.93
2891.53
2890.46
2888.95
2887.47
2886.35
2885.66
2885.35
2885.28
2885.53
2887.02
2889.55
2891.93
2893.64
2894.64
2895.13
2895.29
2895.24
2894.81
2893.92
2893.01
2892.34
2891.91
2891.69
2891.63
2891.73
2891.91
2892.06
2892.11
2892.04
2892
2892.11
2892.41
2892.95
2893.48
2893.79
2893.77
2893.31
2892.48
2891.52
2890.52
2889.38
2887.87
2885.94
2883.82
2881.73
2879.71
2877.6
2875.08
2872.07
2868.83
2865.66
2862.62
2859.52
2856.16
2852.54
2848.9
2845.38
2841.84
2838.1
2834.17
2830.35
2826.53
2822.36
2817.6
2812.01
2805.6
2800.83
2796.03
2791.73
2792.13
2793.45
2795.45
2796.91
2795.28
2793.7
2792.32
2790.56
2789.01
2787.8
2786.9
2786.3
2785.82
2785.69
2785.52
2785.41
2785.19
2784.75
2784.25
2783.55
2782.78
2781.9
2781.45
2780.98
2780.29
2779.32
2778.38
2776.97
2775.11
2772.65
2769.38
2764.35
2756.78
2745.78
2729.06
2701.74
2656.97
2910.2
2912.31
2911.93
2912.1
2912.19
2912.22
2912.22
2912.21
2912.21
2912.21
2912.21
2912.21
2912.21
2912.21
2912.15
2911.74
2910.65
2909.12
2907.61
2906.48
2905.79
2905.47
2905.4
2905.66
2907.15
2909.69
2912.1
2913.82
2914.83
2915.32
2915.48
2915.43
2915
2914.09
2913.18
2912.51
2912.1
2911.91
2911.89
2912.02
2912.25
2912.46
2912.57
2912.57
2912.57
2912.7
2913.02
2913.53
2913.99
2914.19
2914
2913.32
2912.26
2911.06
2909.82
2908.38
2906.55
2904.27
2901.79
2899.34
2896.96
2894.49
2891.63
2888.29
2884.72
2881.21
2877.82
2874.38
2870.67
2866.71
2862.71
2858.83
2854.94
2850.86
2846.64
2842.54
2838.34
2833.86
2828.74
2822.61
2814.67
2810.19
2804.84
2800.7
2800.46
2801.4
2803.08
2803.96
2801.11
2798.78
2796.53
2794.18
2791.89
2789.97
2788.48
2787.46
2786.68
2786.27
2785.87
2785.6
2785.23
2784.66
2784.01
2783.17
2782.22
2781.21
2780.63
2779.99
2779.16
2778.12
2777.05
2775.42
2773.35
2770.7
2767.12
2761.68
2753.52
2741.92
2724.43
2696.62
2652.02
2930.88
2932.82
2932.41
2932.58
2932.68
2932.72
2932.72
2932.72
2932.71
2932.71
2932.71
2932.72
2932.72
2932.71
2932.65
2932.23
2931.13
2929.56
2928.04
2926.89
2926.19
2925.87
2925.8
2926.06
2927.56
2930.12
2932.54
2934.27
2935.3
2935.79
2935.96
2935.91
2935.47
2934.55
2933.63
2932.98
2932.6
2932.44
2932.46
2932.63
2932.92
2933.17
2933.34
2933.4
2933.42
2933.56
2933.86
2934.3
2934.65
2934.7
2934.31
2933.37
2932.08
2930.64
2929.13
2927.42
2925.26
2922.64
2919.82
2917.01
2914.28
2911.47
2908.29
2904.64
2900.77
2896.95
2893.25
2889.49
2885.46
2881.18
2876.87
2872.68
2868.48
2864.12
2859.64
2855.28
2850.77
2845.94
2840.32
2833.45
2825.32
2820.22
2814.51
2810.38
2809.61
2810.16
2811.08
2810.49
2807.49
2804.5
2801.6
2798.52
2795.46
2792.78
2790.57
2788.9
2787.7
2786.96
2786.3
2785.81
2785.29
2784.59
2783.78
2782.8
2781.66
2780.52
2779.78
2778.98
2777.99
2776.88
2775.65
2773.82
2771.51
2768.68
2764.79
2758.93
2750.21
2737.98
2719.79
2691.67
2647.29
2951.66