/*--------------------------------*- C++ -*----------------------------------*\
| =========                 |                                                 |
| \\      /  F ield         | OpenFOAM: The Open Source CFD Toolbox           |
|  \\    /   O peration     | Version:  2412                                  |
|   \\  /    A nd           | Website:  www.openfoam.com                      |
|    \\/     M anipulation  |                                                 |
\*---------------------------------------------------------------------------*/
FoamFile
{
    version     2.0;
    format      ascii;
    arch        "LSB;label=32;scalar=64";
    class       volScalarField;
    location    "0.047";
    object      rho;
}
// * * * * * * * * * * * * * * * * * * * * * * * * * * * * * * * * * * * * * //

dimensions      [1 -3 0 0 0 0 0];

internalField   nonuniform List<scalar> 
9922
(
0.054998
0.0435022
0.0431633
0.04339
0.0434592
0.0435031
0.0435003
0.0434621
0.0433991
0.0433354
0.0432781
0.0432258
0.0431752
0.04312
0.0430562
0.0429836
0.0429038
0.0428191
0.0427299
0.0426358
0.0425362
0.0424308
0.04232
0.0422038
0.0420826
0.0419554
0.041821
0.0416773
0.0415226
0.0413551
0.041173
0.0409741
0.0407559
0.0405158
0.0402513
0.0399598
0.0396389
0.0392861
0.0388995
0.0384777
0.038019
0.037522
0.0369851
0.0364081
0.0357935
0.0351513
0.0344987
0.033852
0.0332232
0.0326212
0.0320458
0.0314905
0.0309523
0.0304252
0.029904
0.0293855
0.02887
0.0283663
0.0278804
0.0274038
0.0269273
0.0264529
0.0259942
0.0255659
0.0251697
0.0248004
0.0244554
0.0241352
0.0238407
0.0235707
0.0233289
0.0231169
0.0229254
0.0227482
0.0225865
0.0224345
0.0222952
0.0221621
0.0220369
0.0219163
0.0218018
0.0216926
0.0215894
0.0214914
0.0213985
0.0213097
0.0212244
0.0211426
0.0210647
0.0209903
0.0209191
0.0208506
0.0207844
0.0207206
0.0206592
0.0206003
0.0205435
0.020489
0.0204364
0.0203859
0.0203371
0.0202899
0.0202441
0.0202005
0.0201588
0.0201199
0.0200834
0.0200503
0.0200195
0.0199906
0.0199602
0.019927
0.0198888
0.0198495
0.0198093
0.0197638
0.0197167
0.0196684
0.0196255
0.0195878
0.0195467
0.0550082
0.0434949
0.0431482
0.0433782
0.0434501
0.0434956
0.0434936
0.0434562
0.0433939
0.0433311
0.0432746
0.0432228
0.0431725
0.0431174
0.0430535
0.0429806
0.0429005
0.0428156
0.0427262
0.0426321
0.0425324
0.042427
0.042316
0.0421997
0.042078
0.0419505
0.0418155
0.0416712
0.0415156
0.0413472
0.0411639
0.0409636
0.0407438
0.0405017
0.0402348
0.0399406
0.0396166
0.0392606
0.0388706
0.0384454
0.0379836
0.037484
0.0369458
0.0363696
0.0357604
0.0351303
0.0344929
0.0338611
0.0332473
0.0326587
0.0320944
0.0315492
0.031019
0.0305002
0.0299899
0.0294852
0.0289804
0.0284725
0.0279692
0.027485
0.0270206
0.0265645
0.026112
0.0256691
0.0252486
0.0248608
0.0245069
0.0241848
0.0238923
0.0236272
0.0233826
0.0231599
0.0229582
0.022772
0.0226027
0.0224448
0.022302
0.0221671
0.0220422
0.0219223
0.0218087
0.0216996
0.0215963
0.0214981
0.0214054
0.0213165
0.021231
0.0211491
0.0210709
0.0209963
0.0209246
0.0208556
0.0207892
0.0207255
0.0206639
0.0206048
0.0205476
0.0204927
0.0204397
0.0203889
0.0203396
0.0202922
0.0202465
0.0202027
0.0201608
0.0201214
0.0200844
0.0200508
0.0200195
0.0199903
0.0199594
0.0199257
0.0198868
0.0198466
0.0198051
0.0197584
0.0197102
0.0196611
0.0196185
0.0195819
0.0195407
0.0550182
0.0434878
0.043133
0.0433661
0.0434409
0.0434879
0.0434869
0.0434502
0.0433887
0.0433267
0.043271
0.0432198
0.0431698
0.0431147
0.0430506
0.0429775
0.0428971
0.042812
0.0427225
0.0426283
0.0425286
0.0424232
0.0423121
0.0421955
0.0420735
0.0419455
0.04181
0.041665
0.0415087
0.0413393
0.0411549
0.0409532
0.0407316
0.0404876
0.0402184
0.0399216
0.0395946
0.0392355
0.0388423
0.0384139
0.0379494
0.0374478
0.0369089
0.0363353
0.0357343
0.0351159
0.0344906
0.0338708
0.0332716
0.0326968
0.0321448
0.0316085
0.0310846
0.0305701
0.0300621
0.0295619
0.0290699
0.0285808
0.0280879
0.0275924
0.0271077
0.0266461
0.0262049
0.0257763
0.0253602
0.0249619
0.0245882
0.0242448
0.0239346
0.0236596
0.0234169
0.023196
0.0229951
0.0228094
0.022639
0.0224785
0.0223326
0.0221952
0.0220692
0.0219488
0.0218341
0.0217236
0.0216181
0.0215175
0.0214219
0.0213309
0.0212443
0.0211618
0.0210831
0.0210078
0.0209354
0.0208662
0.0207999
0.0207366
0.0206752
0.0206161
0.0205591
0.0205044
0.0204517
0.0204012
0.0203525
0.0203057
0.0202604
0.0202169
0.0201748
0.0201353
0.0200984
0.0200651
0.0200341
0.0200053
0.0199749
0.0199415
0.0199027
0.0198625
0.0198209
0.0197736
0.0197242
0.0196735
0.0196295
0.0195911
0.0195494
0.0550279
0.043481
0.0431176
0.0433539
0.0434315
0.0434801
0.0434799
0.0434441
0.0433833
0.0433223
0.0432674
0.0432168
0.0431671
0.0431121
0.0430478
0.0429743
0.0428937
0.0428083
0.0427187
0.0426245
0.0425248
0.0424194
0.0423081
0.0421913
0.042069
0.0419405
0.0418045
0.0416588
0.0415017
0.0413313
0.0411458
0.0409428
0.0407195
0.0404735
0.0402021
0.0399026
0.0395729
0.0392107
0.0388145
0.0383833
0.0379164
0.0374132
0.036875
0.036306
0.0357131
0.0351041
0.03449
0.0338864
0.0333049
0.0327468
0.0322103
0.0316864
0.0311714
0.0306634
0.0301579
0.0296536
0.0291534
0.0286639
0.0281857
0.0277098
0.0272302
0.0267514
0.0262888
0.0258533
0.025443
0.0250531
0.0246838
0.0243375
0.0240173
0.0237242
0.0234595
0.0232245
0.0230146
0.0228241
0.0226514
0.0224899
0.0223428
0.0222034
0.022075
0.021952
0.0218354
0.0217235
0.0216174
0.021516
0.0214196
0.021328
0.0212413
0.0211589
0.0210798
0.0210039
0.0209309
0.0208615
0.0207955
0.0207323
0.0206707
0.0206113
0.0205541
0.0204994
0.0204467
0.0203961
0.0203474
0.0203009
0.0202559
0.0202122
0.0201698
0.0201299
0.0200929
0.0200597
0.020029
0.0200003
0.0199699
0.0199367
0.0198982
0.0198587
0.0198182
0.0197723
0.0197239
0.0196746
0.0196309
0.0195937
0.0195543
0.0550373
0.0434745
0.043102
0.0433414
0.0434219
0.0434721
0.0434729
0.0434379
0.0433779
0.0433178
0.0432638
0.0432138
0.0431644
0.0431093
0.0430448
0.0429711
0.0428902
0.0428046
0.0427149
0.0426206
0.042521
0.0424155
0.0423042
0.0421871
0.0420645
0.0419356
0.041799
0.0416527
0.0414947
0.0413234
0.0411368
0.0409323
0.0407075
0.0404595
0.0401858
0.0398839
0.0395514
0.0391863
0.0387873
0.0383536
0.0378846
0.0373808
0.0368446
0.0362808
0.0356947
0.0350948
0.0344957
0.0339113
0.0333451
0.0327994
0.0322717
0.0317551
0.031248
0.0307488
0.0302541
0.0297608
0.0292647
0.0287659
0.0282737
0.0277982
0.0273351
0.0268737
0.0264116
0.0259569
0.0255239
0.0251209
0.0247476
0.0244017
0.0240827
0.0237906
0.0235255
0.0232851
0.0230669
0.0228671
0.0226851
0.0225158
0.0223625
0.0222187
0.0220879
0.0219639
0.0218485
0.0217388
0.0216341
0.0215335
0.0214372
0.0213456
0.0212587
0.0211758
0.0210954
0.021018
0.0209442
0.0208744
0.0208082
0.0207447
0.0206828
0.0206231
0.020566
0.0205115
0.0204588
0.0204081
0.0203594
0.0203129
0.0202678
0.020224
0.0201814
0.0201414
0.0201043
0.0200711
0.0200401
0.020011
0.01998
0.0199462
0.0199071
0.0198668
0.0198254
0.0197789
0.0197291
0.019679
0.0196345
0.0195968
0.0195576
0.0550464
0.0434682
0.0430863
0.0433287
0.0434123
0.0434639
0.0434656
0.0434315
0.0433724
0.0433133
0.0432601
0.0432107
0.0431616
0.0431066
0.0430419
0.0429679
0.0428867
0.0428008
0.042711
0.0426167
0.0425171
0.0424116
0.0423002
0.0421829
0.04206
0.0419306
0.0417935
0.0416465
0.0414878
0.0413155
0.0411277
0.040922
0.0406955
0.0404456
0.0401697
0.0398653
0.0395301
0.0391623
0.0387606
0.0383246
0.0378542
0.0373507
0.0368174
0.0362585
0.03568
0.0350927
0.0345096
0.0339379
0.033381
0.0328443
0.0323237
0.0318147
0.0313137
0.0308194
0.0303299
0.0298456
0.0293648
0.0288821
0.0283932
0.0279026
0.0274239
0.0269644
0.0265177
0.026077
0.0256443
0.0252265
0.0248317
0.0244665
0.0241329
0.0238311
0.0235603
0.0233174
0.023098
0.022898
0.0227159
0.022546
0.0223913
0.0222452
0.0221118
0.0219846
0.0218653
0.0217514
0.0216429
0.0215394
0.0214413
0.0213484
0.0212603
0.021176
0.0210943
0.0210161
0.0209419
0.0208719
0.0208052
0.0207412
0.0206791
0.0206195
0.0205627
0.0205085
0.0204559
0.0204053
0.0203567
0.0203102
0.0202652
0.0202217
0.0201796
0.0201401
0.0201034
0.0200704
0.0200397
0.020011
0.0199806
0.0199477
0.0199093
0.01987
0.0198295
0.0197843
0.0197354
0.0196863
0.0196422
0.0196046
0.0195662
0.0550551
0.0434621
0.0430705
0.0433159
0.0434025
0.0434555
0.0434582
0.0434251
0.0433668
0.0433088
0.0432564
0.0432076
0.0431588
0.0431037
0.0430388
0.0429645
0.0428831
0.042797
0.0427071
0.0426127
0.0425131
0.0424076
0.0422962
0.0421787
0.0420554
0.0419257
0.041788
0.0416404
0.0414808
0.0413076
0.0411187
0.0409116
0.0406836
0.0404318
0.0401537
0.0398468
0.039509
0.0391386
0.0387346
0.0382967
0.0378255
0.0373231
0.0367932
0.03624
0.0356709
0.0350964
0.0345245
0.0339612
0.0334167
0.0328935
0.0323873
0.0318916
0.0313991
0.0309095
0.0304207
0.0299325
0.0294485
0.0289724
0.0285013
0.0280273
0.0275474
0.0270684
0.0266051
0.026164
0.0257413
0.0253335
0.0249419
0.0245708
0.0242248
0.0239084
0.0236202
0.0233608
0.0231299
0.0229222
0.0227335
0.0225591
0.0224006
0.0222522
0.022117
0.0219882
0.0218676
0.0217523
0.0216437
0.0215412
0.0214453
0.0213545
0.0212675
0.0211833
0.0211013
0.0210231
0.020949
0.0208789
0.0208119
0.0207475
0.0206853
0.0206259
0.0205691
0.0205147
0.0204619
0.020411
0.020362
0.0203151
0.0202697
0.020226
0.0201836
0.0201436
0.0201063
0.0200727
0.0200415
0.0200124
0.0199816
0.0199484
0.0199095
0.0198695
0.0198279
0.0197817
0.0197317
0.0196813
0.0196356
0.0195973
0.0195577
0.0550635
0.0434563
0.0430545
0.0433029
0.0433925
0.043447
0.0434507
0.0434185
0.0433612
0.0433042
0.0432527
0.0432044
0.0431559
0.0431009
0.0430358
0.0429612
0.0428794
0.0427932
0.0427031
0.0426087
0.0425091
0.0424037
0.0422921
0.0421745
0.0420509
0.0419208
0.0417826
0.0416342
0.0414739
0.0412997
0.0411097
0.0409013
0.0406717
0.0404181
0.0401378
0.0398286
0.0394883
0.0391154
0.0387092
0.0382698
0.0377985
0.037298
0.0367719
0.0362252
0.0356654
0.0351012
0.0345387
0.03399
0.0334638
0.0329552
0.0324602
0.0319717
0.0314852
0.0310036
0.0305239
0.0300426
0.0295573
0.0290703
0.0285908
0.0281239
0.0276628
0.0271984
0.0267304
0.0262684
0.0258264
0.0254104
0.0250191
0.0246508
0.0243063
0.0239873
0.0236959
0.0234317
0.023193
0.0229774
0.0227815
0.0226007
0.0224366
0.0222837
0.0221457
0.0220148
0.0218932
0.0217765
0.0216663
0.0215619
0.0214636
0.0213702
0.0212801
0.0211938
0.0211109
0.0210323
0.0209577
0.0208869
0.0208191
0.0207545
0.0206925
0.0206333
0.0205763
0.0205216
0.0204686
0.0204178
0.0203686
0.0203215
0.020276
0.0202323
0.0201898
0.0201496
0.0201119
0.0200779
0.0200467
0.0200181
0.0199881
0.0199558
0.0199177
0.0198783
0.0198372
0.0197911
0.0197412
0.0196913
0.0196451
0.0196064
0.0195661
0.0550713
0.0434508
0.0430383
0.0432896
0.0433824
0.0434382
0.043443
0.0434118
0.0433554
0.0432995
0.0432489
0.0432012
0.043153
0.0430979
0.0430326
0.0429578
0.0428757
0.0427892
0.042699
0.0426046
0.0425051
0.0423996
0.042288
0.0421703
0.0420464
0.0419159
0.0417771
0.0416281
0.041467
0.0412919
0.0411007
0.040891
0.0406598
0.0404044
0.0401221
0.0398105
0.0394678
0.0390927
0.0386847
0.0382443
0.0377736
0.0372754
0.0367538
0.036214
0.0356627
0.0351072
0.0345583
0.0340282
0.0335149
0.0330126
0.0325213
0.032036
0.0315549
0.031079
0.0306067
0.0301368
0.0296666
0.0291911
0.0287088
0.0282261
0.0277551
0.0272985
0.0268479
0.0263984
0.0259531
0.0255197
0.0251071
0.0247215
0.0243656
0.0240386
0.023741
0.023473
0.0232286
0.0230068
0.0228066
0.0226235
0.0224575
0.0223023
0.0221612
0.0220268
0.0219022
0.0217832
0.0216714
0.0215651
0.0214645
0.021369
0.021278
0.0211913
0.0211089
0.0210306
0.0209556
0.0208838
0.020815
0.0207496
0.0206871
0.0206274
0.0205695
0.0205139
0.0204605
0.0204094
0.0203599
0.0203124
0.0202667
0.0202228
0.0201803
0.0201398
0.0201019
0.0200678
0.0200366
0.0200082
0.0199784
0.0199462
0.0199081
0.0198686
0.0198273
0.0197809
0.0197307
0.019681
0.0196351
0.019597
0.0195577
0.0550787
0.0434455
0.0430221
0.0432762
0.0433722
0.0434294
0.0434352
0.043405
0.0433496
0.0432948
0.0432451
0.043198
0.04315
0.043095
0.0430295
0.0429543
0.042872
0.0427853
0.0426949
0.0426005
0.042501
0.0423956
0.042284
0.0421661
0.0420419
0.0419109
0.0417716
0.041622
0.04146
0.041284
0.0410918
0.0408807
0.040648
0.0403908
0.0401064
0.0397926
0.0394477
0.0390705
0.038661
0.0382202
0.0377505
0.0372553
0.0367386
0.0362056
0.0356626
0.035118
0.0345854
0.0340674
0.0335587
0.033063
0.0325805
0.032107
0.0316356
0.0311643
0.0306929
0.0302218
0.0297537
0.0292899
0.0288259
0.0283554
0.027878
0.0274022
0.0269403
0.0264954
0.0260629
0.0256402
0.0252296
0.0248359
0.0244649
0.0241229
0.0238098
0.0235242
0.0232699
0.0230435
0.0228388
0.0226505
0.0224789
0.0223196
0.0221752
0.0220393
0.0219156
0.0217986
0.0216895
0.0215845
0.0214838
0.0213876
0.021296
0.0212088
0.0211255
0.0210456
0.0209683
0.0208943
0.0208238
0.0207574
0.0206939
0.0206332
0.0205745
0.0205187
0.0204655
0.0204149
0.0203657
0.0203185
0.020273
0.0202292
0.0201869
0.0201467
0.0201092
0.0200754
0.0200446
0.0200164
0.0199867
0.0199544
0.019916
0.0198759
0.0198336
0.0197862
0.0197347
0.0196838
0.0196374
0.0195995
0.019561
0.0550855
0.0434405
0.0430058
0.0432626
0.0433618
0.0434203
0.0434273
0.043398
0.0433438
0.04329
0.0432412
0.0431947
0.043147
0.0430919
0.0430262
0.0429508
0.0428681
0.0427812
0.0426908
0.0425963
0.0424968
0.0423915
0.0422798
0.0421618
0.0420374
0.041906
0.0417662
0.0416159
0.0414531
0.0412762
0.0410828
0.0408705
0.0406362
0.0403772
0.0400909
0.0397749
0.0394279
0.039049
0.0386384
0.0381977
0.0377295
0.0372376
0.0367259
0.0361994
0.0356654
0.0351344
0.0346138
0.0341021
0.033603
0.0331225
0.0326542
0.0321927
0.0317288
0.031264
0.0307991
0.0303309
0.0298584
0.0293855
0.0289191
0.0284605
0.0280023
0.0275373
0.027067
0.0266016
0.0261534
0.0257269
0.02532
0.0249313
0.0245629
0.024218
0.0238997
0.0236081
0.0233441
0.0231069
0.0228923
0.0226968
0.0225201
0.0223562
0.0222076
0.022067
0.0219382
0.021816
0.0217018
0.0215928
0.0214893
0.0213908
0.0212975
0.021209
0.0211243
0.021043
0.0209645
0.0208899
0.0208196
0.0207534
0.0206902
0.0206296
0.0205716
0.0205164
0.0204639
0.0204135
0.0203643
0.0203169
0.020271
0.020227
0.0201845
0.0201441
0.0201064
0.0200722
0.0200412
0.0200127
0.0199829
0.0199508
0.0199129
0.0198732
0.0198317
0.019785
0.0197339
0.0196825
0.0196357
0.0195969
0.019557
0.0550918
0.0434357
0.0429893
0.0432488
0.0433513
0.0434111
0.0434192
0.043391
0.0433378
0.0432852
0.0432373
0.0431914
0.0431439
0.0430889
0.0430229
0.0429472
0.0428643
0.0427771
0.0426866
0.042592
0.0424926
0.0423873
0.0422757
0.0421575
0.0420329
0.0419011
0.0417607
0.0416098
0.0414462
0.0412683
0.0410739
0.0408602
0.0406245
0.0403638
0.0400755
0.0397575
0.0394086
0.0390282
0.0386169
0.0381766
0.0377105
0.037222
0.0367152
0.0361955
0.035672
0.0351528
0.0346409
0.0341402
0.0336584
0.0331903
0.0327272
0.0322669
0.0318055
0.0313463
0.0308901
0.030434
0.0299744
0.0295079
0.0290345
0.028562
0.0280995
0.0276462
0.0271939
0.026739
0.0262852
0.0258403
0.0254132
0.0250098
0.0246326
0.0242815
0.0239576
0.023664
0.023393
0.0231438
0.0229196
0.022718
0.0225367
0.0223695
0.0222174
0.0220733
0.0219414
0.0218167
0.0217025
0.021595
0.0214944
0.0213982
0.0213067
0.0212191
0.0211348
0.021054
0.0209763
0.0209025
0.0208325
0.0207661
0.0207026
0.0206419
0.0205838
0.0205284
0.020475
0.0204234
0.020373
0.0203243
0.020277
0.0202317
0.0201883
0.0201472
0.0201087
0.0200738
0.0200419
0.0200128
0.0199824
0.0199498
0.0199113
0.0198709
0.0198287
0.0197818
0.0197301
0.0196782
0.0196309
0.0195919
0.0195523
0.0550971
0.0434311
0.0429728
0.0432349
0.0433405
0.0434017
0.043411
0.0433838
0.0433318
0.0432804
0.0432334
0.0431881
0.0431408
0.0430857
0.0430196
0.0429435
0.0428603
0.042773
0.0426823
0.0425877
0.0424884
0.0423831
0.0422715
0.0421533
0.0420284
0.0418962
0.0417553
0.0416036
0.0414393
0.0412605
0.0410649
0.04085
0.0406128
0.0403503
0.0400602
0.0397404
0.0393898
0.0390082
0.0385965
0.0381571
0.0376932
0.0372084
0.0367071
0.0361958
0.0356818
0.035172
0.0346711
0.0341862
0.0337161
0.0332502
0.03279
0.0323351
0.0318822
0.0314284
0.0309742
0.0305202
0.0300675
0.0296152
0.0291587
0.0286936
0.0282214
0.027751
0.027292
0.0268451
0.0264056
0.0259718
0.025546
0.0251332
0.0247396
0.0243726
0.0240338
0.0237222
0.0234412
0.023191
0.022968
0.0227636
0.0225773
0.022405
0.022249
0.0221021
0.0219685
0.021842
0.021726
0.0216159
0.0215121
0.0214126
0.0213174
0.0212267
0.0211403
0.0210582
0.0209796
0.0209046
0.0208329
0.0207648
0.0206998
0.0206382
0.0205793
0.0205232
0.0204688
0.0204165
0.0203657
0.0203169
0.0202694
0.020224
0.0201809
0.0201403
0.0201025
0.0200679
0.0200363
0.0200077
0.0199783
0.0199472
0.0199099
0.0198707
0.0198293
0.0197828
0.0197313
0.0196796
0.0196323
0.0195931
0.0195534
0.0551021
0.0434268
0.0429563
0.0432207
0.0433297
0.0433921
0.0434027
0.0433765
0.0433258
0.0432755
0.0432294
0.0431847
0.0431377
0.0430826
0.0430161
0.0429398
0.0428563
0.0427688
0.0426779
0.0425834
0.042484
0.0423789
0.0422673
0.042149
0.0420239
0.0418913
0.0417498
0.0415975
0.0414324
0.0412526
0.041056
0.0408397
0.040601
0.0403369
0.0400451
0.0397236
0.0393715
0.038989
0.0385773
0.0381391
0.0376776
0.0371968
0.0367014
0.036198
0.0356934
0.0351942
0.0347071
0.0342341
0.0337676
0.0333071
0.032859
0.0324181
0.0319767
0.0315296
0.0310796
0.030626
0.0301684
0.0297107
0.0292571
0.0288068
0.0283526
0.0278896
0.0274201
0.0269541
0.0265023
0.0260678
0.0256482
0.0252425
0.0248529
0.0244836
0.0241389
0.0238192
0.0235282
0.0232651
0.0230252
0.0228077
0.0226134
0.0224354
0.0222747
0.0221232
0.0219847
0.0218532
0.0217319
0.0216172
0.0215107
0.0214102
0.0213153
0.0212252
0.0211399
0.0210584
0.0209795
0.0209034
0.0208301
0.0207601
0.0206935
0.0206304
0.0205703
0.020513
0.0204582
0.0204063
0.020357
0.0203098
0.020264
0.0202201
0.0201784
0.020139
0.0201018
0.0200673
0.0200352
0.0200061
0.0199765
0.019945
0.0199073
0.0198672
0.0198248
0.0197777
0.0197257
0.0196737
0.0196257
0.0195866
0.0195476
0.0551059
0.0434227
0.0429397
0.0432064
0.0433186
0.0433823
0.0433942
0.0433691
0.0433196
0.0432705
0.0432254
0.0431812
0.0431345
0.0430793
0.0430126
0.042936
0.0428523
0.0427645
0.0426735
0.042579
0.0424797
0.0423746
0.0422631
0.0421447
0.0420193
0.0418864
0.0417444
0.0415914
0.0414255
0.0412448
0.041047
0.0408295
0.0405893
0.0403236
0.0400301
0.0397071
0.0393538
0.0389706
0.0385591
0.0381223
0.0376635
0.0371867
0.0366971
0.0362022
0.0357077
0.0352204
0.0347451
0.0342788
0.0338191
0.0333732
0.0329369
0.032501
0.0320626
0.0316205
0.0311789
0.0307363
0.0302883
0.0298323
0.0293701
0.028909
0.0284553
0.0280063
0.0275545
0.0270974
0.0266387
0.0261861
0.025748
0.0253296
0.0249335
0.0245598
0.0242103
0.0238892
0.0235921
0.0233156
0.0230643
0.0228392
0.0226393
0.0224568
0.0222928
0.0221394
0.0220006
0.0218692
0.0217489
0.0216351
0.0215295
0.0214291
0.0213337
0.0212429
0.0211561
0.0210731
0.0209923
0.0209148
0.0208404
0.0207697
0.0207027
0.0206392
0.0205788
0.0205212
0.0204665
0.020415
0.020366
0.0203189
0.0202728
0.0202283
0.0201857
0.0201453
0.0201072
0.020072
0.0200397
0.0200105
0.0199813
0.0199505
0.0199135
0.0198742
0.0198324
0.0197857
0.0197338
0.019682
0.0196335
0.019594
0.0195546
0.0551093
0.0434189
0.0429231
0.043192
0.0433074
0.0433724
0.0433855
0.0433616
0.0433134
0.0432655
0.0432213
0.0431777
0.0431312
0.043076
0.0430091
0.0429321
0.0428481
0.0427601
0.0426691
0.0425745
0.0424752
0.0423702
0.0422588
0.0421404
0.0420148
0.0418814
0.0417389
0.0415853
0.0414186
0.0412369
0.041038
0.0408192
0.0405776
0.0403104
0.0400153
0.0396908
0.0393365
0.0389528
0.0385419
0.0381067
0.0376509
0.0371787
0.0366962
0.0362092
0.035725
0.0352492
0.0347829
0.0343245
0.033878
0.0334433
0.0330079
0.0325728
0.0321383
0.0317014
0.0312637
0.0308264
0.0303885
0.0299475
0.0294994
0.0290415
0.0285766
0.0281132
0.0276583
0.0272113
0.0267678
0.0263266
0.0258896
0.0254618
0.0250494
0.0246594
0.0242953
0.0239576
0.0236483
0.023372
0.0231283
0.0229022
0.0226954
0.0225061
0.022336
0.0221774
0.0220335
0.0218964
0.0217693
0.0216491
0.021538
0.0214333
0.0213354
0.0212426
0.0211542
0.0210698
0.0209892
0.0209127
0.02084
0.0207712
0.0207061
0.0206437
0.0205832
0.0205249
0.020469
0.0204156
0.0203641
0.0203143
0.0202657
0.0202189
0.0201741
0.0201319
0.0200926
0.0200568
0.0200243
0.0199952
0.019966
0.0199351
0.0198981
0.0198586
0.0198168
0.0197702
0.0197181
0.0196661
0.0196171
0.0195773
0.0195373
0.0551114
0.0434153
0.0429066
0.0431773
0.0432959
0.0433622
0.0433767
0.0433539
0.0433071
0.0432605
0.0432172
0.0431742
0.0431279
0.0430726
0.0430054
0.0429282
0.0428439
0.0427557
0.0426646
0.0425699
0.0424708
0.0423659
0.0422545
0.0421361
0.0420103
0.0418765
0.0417335
0.0415792
0.0414117
0.041229
0.041029
0.0408089
0.0405659
0.0402972
0.0400007
0.0396749
0.0393197
0.0389358
0.0385257
0.0380924
0.0376398
0.0371728
0.0366972
0.0362188
0.035745
0.0352792
0.0348218
0.0343747
0.0339394
0.0335073
0.0330757
0.0326515
0.032229
0.0318005
0.0313662
0.0309283
0.030487
0.0300448
0.0296039
0.029162
0.0287133
0.0282545
0.0277883
0.027324
0.0268707
0.0264307
0.0260017
0.0255826
0.0251756
0.0247848
0.0244151
0.024069
0.0237494
0.0234556
0.0231853
0.0229442
0.0227276
0.0225314
0.0223554
0.0221923
0.0220446
0.0219044
0.0217758
0.0216554
0.0215464
0.0214443
0.0213485
0.0212558
0.0211658
0.0210798
0.0209991
0.0209225
0.0208486
0.0207778
0.0207099
0.0206448
0.0205817
0.0205212
0.0204635
0.0204088
0.0203568
0.0203074
0.02026
0.0202144
0.0201705
0.020129
0.0200906
0.0200556
0.0200237
0.0199947
0.0199651
0.0199335
0.0198959
0.0198553
0.0198123
0.0197649
0.0197119
0.0196593
0.0196096
0.0195699
0.0195306
0.0551134
0.043412
0.0428901
0.0431625
0.0432842
0.0433518
0.0433678
0.0433462
0.0433008
0.0432554
0.0432131
0.0431707
0.0431245
0.0430691
0.0430017
0.0429242
0.0428397
0.0427513
0.04266
0.0425653
0.0424662
0.0423614
0.0422502
0.0421317
0.0420057
0.0418716
0.041728
0.041573
0.0414047
0.0412211
0.04102
0.0407986
0.0405542
0.0402841
0.0399862
0.0396593
0.0393033
0.0389195
0.0385102
0.038079
0.0376299
0.0371681
0.0367
0.0362312
0.0357671
0.0353108
0.0348637
0.0344276
0.0339988
0.0335717
0.0331533
0.0327394
0.0323225
0.0318995
0.0314727
0.0310433
0.0306081
0.0301645
0.0297151
0.0292661
0.0288215
0.0283779
0.0279287
0.0274722
0.0270119
0.0265549
0.0261087
0.0256785
0.0252665
0.0248731
0.0244998
0.0241515
0.0238294
0.0235275
0.0232478
0.0229993
0.0227765
0.0225746
0.0223937
0.0222274
0.0220781
0.0219364
0.0218063
0.0216831
0.021569
0.0214608
0.0213581
0.02126
0.0211666
0.0210785
0.0209963
0.0209182
0.0208423
0.0207695
0.0206999
0.0206336
0.0205703
0.0205104
0.0204534
0.0203993
0.0203477
0.0202989
0.0202526
0.0202078
0.0201639
0.0201216
0.020082
0.020046
0.0200137
0.0199844
0.0199549
0.0199237
0.0198866
0.0198464
0.0198034
0.019756
0.0197025
0.019649
0.0195986
0.0195575
0.0195162
0.0551134
0.0434089
0.0428736
0.0431474
0.0432723
0.0433413
0.0433588
0.0433384
0.0432945
0.0432503
0.043209
0.0431671
0.0431211
0.0430656
0.0429979
0.0429201
0.0428353
0.0427468
0.0426554
0.0425607
0.0424616
0.042357
0.0422458
0.0421274
0.0420012
0.0418667
0.0417225
0.0415669
0.0413978
0.0412133
0.041011
0.0407884
0.0405426
0.0402711
0.0399719
0.0396439
0.0392873
0.0389037
0.0384957
0.0380668
0.0376217
0.0371658
0.0367053
0.0362456
0.0357912
0.0353447
0.0349079
0.0344804
0.0340575
0.0336405
0.0332309
0.032817
0.032401
0.0319826
0.0315611
0.0311393
0.0307157
0.0302862
0.0298476
0.0293987
0.028943
0.0284878
0.028038
0.0275926
0.0271479
0.0267026
0.0262583
0.0258195
0.0253922
0.0249829
0.0245954
0.0242315
0.0238951
0.0235951
0.0233239
0.0230688
0.0228356
0.0226236
0.0224337
0.0222596
0.0221031
0.0219551
0.0218194
0.0216906
0.021572
0.0214606
0.0213576
0.0212608
0.0211705
0.0210857
0.0210053
0.0209282
0.0208527
0.0207797
0.0207097
0.0206433
0.0205806
0.0205213
0.0204645
0.02041
0.0203572
0.0203067
0.0202584
0.0202118
0.0201661
0.020122
0.0200807
0.0200434
0.0200103
0.0199806
0.0199507
0.0199191
0.0198817
0.019841
0.0197977
0.0197502
0.0196966
0.0196432
0.0195932
0.0195535
0.0195143
0.0551125
0.043406
0.0428573
0.0431322
0.0432602
0.0433306
0.0433496
0.0433305
0.0432881
0.0432452
0.0432048
0.0431634
0.0431176
0.043062
0.0429941
0.042916
0.042831
0.0427422
0.0426507
0.042556
0.042457
0.0423524
0.0422414
0.042123
0.0419967
0.0418618
0.0417171
0.0415608
0.0413909
0.0412054
0.041002
0.0407781
0.040531
0.0402581
0.0399576
0.0396287
0.0392717
0.0388885
0.0384819
0.0380559
0.0376154
0.037166
0.0367129
0.0362623
0.0358173
0.0353807
0.0349535
0.0345332
0.0341182
0.0337105
0.0333028
0.0328932
0.0324868
0.0320774
0.0316597
0.031238
0.0308136
0.0303868
0.0299584
0.0295255
0.0290839
0.0286313
0.0281706
0.0277098
0.0272568
0.0268136
0.0263781
0.0259493
0.0255289
0.0251206
0.0247291
0.0243581
0.0240086
0.0236792
0.0233808
0.0231149
0.022874
0.0226554
0.0224602
0.0222822
0.0221241
0.021976
0.0218419
0.021714
0.0215957
0.0214833
0.0213781
0.0212785
0.0211858
0.0210991
0.0210169
0.0209389
0.0208641
0.0207913
0.0207202
0.0206521
0.0205871
0.0205254
0.0204662
0.0204097
0.0203552
0.0203031
0.0202528
0.0202049
0.0201587
0.0201147
0.0200734
0.0200357
0.0200028
0.019974
0.0199458
0.0199161
0.0198801
0.0198404
0.0197977
0.0197501
0.0196964
0.0196425
0.0195917
0.0195505
0.0195093
0.0551103
0.0434033
0.042841
0.0431169
0.0432479
0.0433197
0.0433404
0.0433226
0.0432817
0.04324
0.0432006
0.0431597
0.0431141
0.0430583
0.0429901
0.0429118
0.0428265
0.0427376
0.042646
0.0425512
0.0424522
0.0423478
0.042237
0.0421186
0.0419921
0.0418569
0.0417117
0.0415547
0.041384
0.0411975
0.0409931
0.040768
0.0405195
0.0402453
0.0399436
0.0396138
0.0392566
0.0388739
0.0384691
0.0380463
0.0376107
0.0371679
0.0367229
0.036281
0.0358455
0.0354185
0.0349996
0.0345868
0.0341811
0.0337806
0.0333787
0.0329813
0.0325842
0.0321814
0.0317707
0.0313552
0.0309337
0.0305042
0.0300688
0.0296324
0.0291975
0.0287604
0.0283158
0.0278624
0.0274033
0.0269446
0.0264932
0.0260538
0.025629
0.0252193
0.0248256
0.0244524
0.0241048
0.0237798
0.0234754
0.0231993
0.0229495
0.0227227
0.0225189
0.0223332
0.0221675
0.0220124
0.0218704
0.0217352
0.0216098
0.0214913
0.0213814
0.0212789
0.0211858
0.021099
0.0210157
0.0209346
0.0208559
0.0207809
0.0207087
0.0206399
0.020574
0.0205113
0.0204515
0.0203948
0.0203403
0.020288
0.0202379
0.0201908
0.0201462
0.0201034
0.0200625
0.0200248
0.0199912
0.0199615
0.0199326
0.019902
0.0198649
0.0198238
0.0197799
0.019732
0.0196783
0.0196246
0.0195736
0.0195324
0.019492
0.055107
0.0434006
0.042825
0.0431014
0.0432353
0.0433087
0.043331
0.0433146
0.0432752
0.0432348
0.0431963
0.043156
0.0431105
0.0430546
0.0429861
0.0429075
0.042822
0.0427329
0.0426412
0.0425464
0.0424475
0.0423432
0.0422325
0.0421142
0.0419876
0.041852
0.0417062
0.0415486
0.041377
0.0411897
0.0409841
0.0407578
0.040508
0.0402325
0.0399296
0.0395991
0.0392418
0.0388601
0.0384573
0.0380379
0.0376072
0.0371714
0.0367348
0.0363019
0.0358756
0.0354575
0.0350465
0.0346428
0.0342468
0.0338526
0.0334588
0.0330669
0.0326698
0.0322695
0.0318654
0.0314583
0.0310482
0.030631
0.0302031
0.0297648
0.0293197
0.0288737
0.0284302
0.0279882
0.0275446
0.0270982
0.0266501
0.0262041
0.0257657
0.0253408
0.0249334
0.0245455
0.0241812
0.023852
0.0235475
0.0232644
0.0230046
0.0227679
0.0225543
0.0223607
0.0221878
0.0220277
0.0218835
0.0217474
0.0216235
0.0215067
0.0213997
0.0212994
0.0212053
0.0211154
0.0210276
0.0209422
0.020859
0.0207826
0.0207113
0.0206436
0.0205788
0.0205169
0.0204581
0.0204023
0.0203486
0.0202967
0.0202463
0.0201981
0.0201517
0.0201067
0.0200643
0.0200257
0.0199915
0.0199612
0.0199317
0.0199009
0.0198639
0.0198228
0.0197788
0.0197306
0.0196759
0.0196209
0.0195687
0.0195262
0.0194839
0.0551026
0.0433978
0.0428092
0.0430858
0.0432227
0.0432976
0.0433216
0.0433065
0.0432687
0.0432296
0.043192
0.0431522
0.0431068
0.0430507
0.042982
0.0429031
0.0428174
0.0427281
0.0426363
0.0425415
0.0424426
0.0423385
0.0422279
0.0421097
0.041983
0.0418471
0.0417008
0.0415425
0.0413702
0.0411819
0.0409752
0.0407477
0.0404966
0.0402198
0.0399159
0.0395848
0.0392277
0.038847
0.0384467
0.0380313
0.0376067
0.0371774
0.0367489
0.0363247
0.0359074
0.0354976
0.0350953
0.0347013
0.0343121
0.033922
0.0335339
0.0331444
0.032752
0.0323593
0.031961
0.0315555
0.0311474
0.0307361
0.03032
0.029897
0.0294639
0.0290194
0.028566
0.0281104
0.0276594
0.0272151
0.0267759
0.0263406
0.0259105
0.0254887
0.0250794
0.0246866
0.0243115
0.0239541
0.0236279
0.0233336
0.0230668
0.0228244
0.0226053
0.0224076
0.022231
0.0220686
0.0219223
0.0217822
0.0216517
0.0215278
0.0214139
0.0213073
0.0212075
0.021113
0.0210249
0.0209441
0.0208697
0.0207969
0.0207251
0.020656
0.0205894
0.0205259
0.0204654
0.0204078
0.0203521
0.0202983
0.0202451
0.0201931
0.0201419
0.0200933
0.0200493
0.0200096
0.0199746
0.0199434
0.0199136
0.019883
0.0198465
0.0198061
0.0197629
0.0197153
0.0196607
0.0196054
0.0195527
0.0195101
0.0194685
0.0550969
0.0433949
0.0427937
0.0430702
0.04321
0.0432864
0.0433122
0.0432984
0.0432622
0.0432243
0.0431877
0.0431484
0.043103
0.0430468
0.0429778
0.0428987
0.0428128
0.0427233
0.0426314
0.0425365
0.0424377
0.0423337
0.0422233
0.0421052
0.0419785
0.0418423
0.0416955
0.0415364
0.0413633
0.0411741
0.0409664
0.0407376
0.0404853
0.0402072
0.0399024
0.0395708
0.0392141
0.0388349
0.0384373
0.0380265
0.0376076
0.0371852
0.0367647
0.0363493
0.0359405
0.0355393
0.0351463
0.03476
0.0343749
0.0339914
0.0336116
0.0332298
0.032848
0.0324648
0.0320734
0.0316724
0.0312654
0.0308511
0.0304305
0.0300072
0.0295825
0.0291533
0.0287153
0.0282671
0.0278115
0.0273538
0.0268997
0.0264539
0.0260191
0.0255962
0.0251857
0.0247913
0.0244182
0.0240679
0.0237388
0.023434
0.0231544
0.0228993
0.0226674
0.0224578
0.0222696
0.0220979
0.0219431
0.0217958
0.0216608
0.0215345
0.0214213
0.0213156
0.0212174
0.0211245
0.0210372
0.0209543
0.0208732
0.0207938
0.0207175
0.0206457
0.0205777
0.0205134
0.0204518
0.0203926
0.020336
0.0202826
0.0202319
0.0201838
0.0201375
0.020093
0.0200506
0.0200112
0.0199755
0.0199435
0.0199127
0.0198811
0.019844
0.0198032
0.0197601
0.0197127
0.0196579
0.0196022
0.0195483
0.0195047
0.0194614
0.0550898
0.0433918
0.0427786
0.0430545
0.0431971
0.0432752
0.0433026
0.0432903
0.0432556
0.0432191
0.0431834
0.0431445
0.0430992
0.0430428
0.0429736
0.0428942
0.0428081
0.0427185
0.0426264
0.0425315
0.0424327
0.0423289
0.0422187
0.0421007
0.0419739
0.0418374
0.0416901
0.0415304
0.0413564
0.0411663
0.0409576
0.0407276
0.0404741
0.0401949
0.0398892
0.0395574
0.0392012
0.0388238