/*--------------------------------*- C++ -*----------------------------------*\
| =========                 |                                                 |
| \\      /  F ield         | OpenFOAM: The Open Source CFD Toolbox           |
|  \\    /   O peration     | Version:  2412                                  |
|   \\  /    A nd           | Website:  www.openfoam.com                      |
|    \\/     M anipulation  |                                                 |
\*---------------------------------------------------------------------------*/
FoamFile
{
    version     2.0;
    format      ascii;
    arch        "LSB;label=32;scalar=64";
    class       volScalarField;
    location    "0.112";
    object      T;
}
// * * * * * * * * * * * * * * * * * * * * * * * * * * * * * * * * * * * * * //

dimensions      [0 0 0 1 0 0 0];

internalField   nonuniform List<scalar> 
9859
(
223.23
223.255
223.267
223.281
223.29
223.301
223.312
223.335
223.37
223.417
223.458
223.479
223.475
223.459
223.425
223.384
223.353
223.337
223.33
223.327
223.325
223.322
223.318
223.314
223.309
223.304
223.298
223.292
223.284
223.276
223.268
223.259
223.251
223.243
223.237
223.232
223.227
223.222
223.217
223.216
223.22
223.229
223.25
223.291
223.364
223.477
223.629
223.813
224.016
224.221
224.414
224.586
224.728
224.836
224.9
224.923
224.921
224.877
224.795
224.685
224.552
224.402
224.247
224.101
223.974
223.873
223.797
223.744
223.707
223.228
223.253
223.265
223.279
223.288
223.299
223.311
223.333
223.368
223.416
223.457
223.478
223.475
223.459
223.425
223.384
223.353
223.336
223.328
223.325
223.322
223.319
223.315
223.311
223.305
223.299
223.293
223.286
223.278
223.27
223.26
223.251
223.242
223.233
223.226
223.219
223.213
223.205
223.197
223.192
223.191
223.197
223.212
223.245
223.308
223.408
223.549
223.723
223.918
224.117
224.306
224.475
224.617
224.725
224.791
224.816
224.816
224.775
224.694
224.584
224.453
224.308
224.158
224.017
223.892
223.794
223.721
223.669
223.632
223.607
223.588
223.573
223.555
223.541
223.534
223.906
223.951
223.983
224.004
224.012
224.009
223.99
223.96
223.932
223.906
223.887
223.879
223.878
223.891
223.92
223.96
224.009
224.064
224.124
224.187
224.25
224.309
224.365
224.412
224.457
224.498
224.534
224.568
224.605
224.645
224.694
224.754
224.828
224.929
225.049
225.207
225.321
223.226
223.25
223.263
223.277
223.286
223.297
223.309
223.331
223.366
223.414
223.457
223.478
223.475
223.459
223.425
223.384
223.352
223.335
223.327
223.323
223.32
223.317
223.312
223.307
223.301
223.295
223.288
223.28
223.272
223.263
223.253
223.243
223.232
223.223
223.215
223.207
223.199
223.189
223.178
223.168
223.163
223.164
223.174
223.2
223.252
223.34
223.468
223.631
223.816
224.008
224.192
224.359
224.501
224.61
224.677
224.704
224.705
224.668
224.59
224.481
224.351
224.21
224.067
223.929
223.808
223.712
223.641
223.59
223.555
223.531
223.512
223.496
223.478
223.464
223.458
223.458
223.477
223.507
223.548
223.599
223.658
223.72
223.781
223.836
223.882
223.915
223.938
223.947
223.946
223.929
223.9
223.874
223.849
223.832
223.825
223.824
223.838
223.866
223.906
223.954
224.008
224.067
224.13
224.192
224.251
224.307
224.355
224.4
224.441
224.477
224.511
224.548
224.588
224.634
224.692
224.763
224.858
224.972
225.119
225.205
223.224
223.248
223.261
223.274
223.283
223.294
223.306
223.329
223.365
223.413
223.456
223.478
223.475
223.459
223.425
223.383
223.352
223.334
223.325
223.321
223.318
223.314
223.309
223.303
223.296
223.29
223.282
223.275
223.266
223.256
223.245
223.234
223.223
223.213
223.203
223.193
223.184
223.172
223.159
223.145
223.135
223.132
223.136
223.155
223.197
223.272
223.386
223.537
223.712
223.896
224.075
224.239
224.379
224.488
224.558
224.586
224.588
224.553
224.479
224.374
224.247
224.11
223.972
223.837
223.72
223.626
223.557
223.508
223.474
223.45
223.432
223.416
223.398
223.384
223.378
223.379
223.398
223.429
223.47
223.523
223.583
223.645
223.708
223.764
223.811
223.846
223.869
223.88
223.88
223.866
223.838
223.814
223.792
223.776
223.77
223.77
223.783
223.811
223.85
223.898
223.951
224.009
224.072
224.134
224.193
224.248
224.296
224.341
224.383
224.419
224.453
224.489
224.528
224.572
224.628
224.694
224.784
224.891
225.027
225.088
223.221
223.246
223.258
223.272
223.281
223.292
223.304
223.327
223.363
223.411
223.455
223.477
223.474
223.459
223.425
223.383
223.351
223.333
223.324
223.319
223.315
223.311
223.306
223.299
223.292
223.285
223.277
223.269
223.259
223.249
223.237
223.225
223.213
223.202
223.191
223.18
223.169
223.156
223.141
223.123
223.108
223.099
223.099
223.111
223.143
223.204
223.305
223.442
223.606
223.78
223.953
224.113
224.251
224.361
224.432
224.462
224.465
224.433
224.362
224.262
224.139
224.007
223.872
223.742
223.628
223.537
223.469
223.422
223.389
223.365
223.347
223.332
223.314
223.3
223.294
223.296
223.316
223.348
223.39
223.444
223.505
223.568
223.632
223.69
223.738
223.774
223.799
223.812
223.813
223.801
223.776
223.753
223.733
223.719
223.714
223.714
223.728
223.755
223.793
223.84
223.892
223.95
224.012
224.074
224.132
224.188
224.236
224.281
224.323
224.36
224.393
224.429
224.467
224.508
224.561
224.623
224.707
224.805
224.928
224.972
224.471
223.219
223.243
223.256
223.27
223.279
223.29
223.302
223.325
223.361
223.41
223.454
223.476
223.474
223.459
223.425
223.383
223.35
223.332
223.322
223.317
223.313
223.308
223.302
223.296
223.288
223.28
223.271
223.262
223.252
223.241
223.229
223.216
223.203
223.191
223.179
223.166
223.154
223.139
223.122
223.101
223.082
223.067
223.061
223.068
223.091
223.14
223.224
223.347
223.498
223.662
223.828
223.983
224.118
224.228
224.301
224.333
224.338
224.309
224.241
224.144
224.026
223.899
223.769
223.643
223.532
223.444
223.378
223.331
223.299
223.276
223.258
223.243
223.226
223.213
223.207
223.21
223.231
223.264
223.308
223.363
223.424
223.489
223.553
223.612
223.662
223.7
223.727
223.741
223.744
223.734
223.712
223.691
223.673
223.661
223.656
223.657
223.672
223.698
223.735
223.78
223.832
223.889
223.95
224.011
224.07
224.125
224.175
224.22
224.261
224.298
224.332
224.366
224.404
224.441
224.492
224.55
224.627
224.716
224.82
224.855
224.296
223.216
223.241
223.253
223.267
223.276
223.287
223.299
223.322
223.359
223.408
223.453
223.476
223.474
223.459
223.425
223.383
223.35
223.33
223.321
223.315
223.311
223.306
223.299
223.292
223.283
223.275
223.266
223.256
223.245
223.233
223.22
223.206
223.193
223.179
223.166
223.152
223.138
223.121
223.102
223.08
223.056
223.035
223.024
223.024
223.04
223.076
223.146
223.253
223.389
223.542
223.699
223.848
223.981
224.089
224.163
224.198
224.205
224.179
224.115
224.022
223.908
223.786
223.661
223.539
223.431
223.346
223.281
223.236
223.204
223.182
223.165
223.149
223.133
223.121
223.115
223.121
223.142
223.177
223.222
223.278
223.341
223.407
223.472
223.532
223.584
223.624
223.652
223.668
223.672
223.666
223.646
223.628
223.612
223.602
223.598
223.599
223.614
223.64
223.675
223.72
223.77
223.826
223.886
223.948
224.006
224.062
224.112
224.157
224.199
224.236
224.269
224.302
224.339
224.374
224.421
224.475
224.546
224.625
224.706
224.734
224.12
223.214
223.238
223.251
223.264
223.273
223.285
223.297
223.32
223.356
223.406
223.451
223.475
223.473
223.458
223.425
223.382
223.349
223.329
223.319
223.313
223.308
223.303
223.296
223.288
223.279
223.27
223.26
223.25
223.238
223.225
223.211
223.197
223.182
223.167
223.153
223.138
223.122
223.104
223.083
223.058
223.031
223.005
222.987
222.981
222.989
223.015
223.07
223.16
223.281
223.421
223.568
223.71
223.838
223.945
224.02
224.057
224.065
224.043
223.984
223.895
223.785
223.668
223.548
223.43
223.326
223.243
223.18
223.135
223.104
223.083
223.066
223.051
223.036
223.025
223.02
223.027
223.051
223.087
223.134
223.191
223.255
223.321
223.387
223.449
223.503
223.545
223.575
223.593
223.598
223.595
223.579
223.563
223.55
223.541
223.537
223.541
223.555
223.58
223.615
223.658
223.707
223.762
223.821
223.882
223.941
223.997
224.048
224.094
224.135
224.172
224.206
224.238
224.273
224.306
224.349
224.399
224.463
224.533
224.588
224.603
223.943
223.211
223.235
223.248
223.262
223.271
223.282
223.294
223.317
223.354
223.404
223.45
223.474
223.473
223.458
223.425
223.382
223.348
223.328
223.318
223.311
223.306
223.3
223.292
223.284
223.274
223.265
223.254
223.243
223.23
223.217
223.202
223.187
223.171
223.155
223.139
223.123
223.105
223.086
223.063
223.036
223.006
222.976
222.952
222.939
222.94
222.957
222.997
223.07
223.174
223.3
223.436
223.569
223.692
223.796
223.871
223.91
223.92
223.901
223.846
223.762
223.657
223.545
223.429
223.316
223.215
223.134
223.074
223.03
222.999
222.978
222.961
222.947
222.934
222.925
222.921
222.931
222.956
222.995
223.043
223.101
223.166
223.233
223.3
223.363
223.418
223.462
223.495
223.516
223.522
223.522
223.509
223.497
223.486
223.478
223.476
223.481
223.496
223.52
223.553
223.596
223.644
223.697
223.755
223.816
223.875
223.931
223.983
224.029
224.071
224.108
224.141
224.172
224.207
224.237
224.277
224.323
224.379
224.438
224.474
224.46
223.763
223.208
223.232
223.245
223.259
223.268
223.279
223.291
223.315
223.352
223.402
223.448
223.473
223.472
223.458
223.424
223.382
223.347
223.327
223.316
223.309
223.303
223.297
223.289
223.28
223.27
223.26
223.248
223.236
223.223
223.208
223.193
223.176
223.159
223.142
223.125
223.107
223.088
223.067
223.042
223.014
222.981
222.947
222.917
222.898
222.891
222.9
222.928
222.984
223.07
223.181
223.302
223.426
223.542
223.642
223.717
223.758
223.768
223.753
223.702
223.623
223.523
223.416
223.305
223.196
223.099
223.021
222.962
222.919
222.889
222.868
222.852
222.839
222.827
222.82
222.819
222.831
222.859
222.899
222.948
223.008
223.074
223.142
223.21
223.274
223.33
223.377
223.412
223.435
223.445
223.446
223.438
223.428
223.42
223.415
223.413
223.42
223.435
223.458
223.491
223.532
223.579
223.632
223.689
223.749
223.807
223.864
223.917
223.963
224.005
224.042
224.075
224.105
224.139
224.168
224.203
224.245
224.295
224.342
224.365
224.306
223.58
223.205
223.229
223.242
223.255
223.265
223.276
223.288
223.312
223.349
223.4
223.447
223.472
223.471
223.457
223.424
223.381
223.346
223.325
223.314
223.307
223.301
223.294
223.285
223.276
223.265
223.254
223.242
223.23
223.215
223.2
223.183
223.166
223.148
223.129
223.111
223.092
223.071
223.048
223.021
222.991
222.956
222.919
222.884
222.857
222.844
222.844
222.861
222.901
222.97
223.063
223.17
223.282
223.391
223.485
223.558
223.599
223.612
223.599
223.553
223.478
223.383
223.281
223.175
223.071
222.978
222.902
222.845
222.803
222.774
222.753
222.738
222.726
222.717
222.712
222.713
222.729
222.759
222.801
222.852
222.913
222.979
223.048
223.116
223.181
223.239
223.288
223.325
223.352
223.365
223.369
223.365
223.358
223.353
223.349
223.35
223.358
223.373
223.396
223.428
223.469
223.515
223.567
223.623
223.682
223.74
223.797
223.851
223.897
223.939
223.976
224.009
224.038
224.071
224.098
224.129
224.167
224.209
224.242
224.258
224.145
223.394
223.202
223.226
223.238
223.252
223.261
223.273
223.285
223.309
223.346
223.398
223.445
223.47
223.47
223.457
223.424
223.38
223.345
223.324
223.312
223.305
223.298
223.291
223.282
223.272
223.261
223.249
223.236
223.223
223.207
223.191
223.173
223.155
223.135
223.116
223.096
223.075
223.053
223.028
223
222.967
222.931
222.891
222.852
222.818
222.798
222.79
222.796
222.823
222.874
222.95
223.04
223.14
223.238
223.326
223.395
223.437
223.449
223.44
223.397
223.327
223.237
223.141
223.04
222.941
222.851
222.778
222.724
222.682
222.654
222.634
222.62
222.61
222.603
222.6
222.606
222.624
222.657
222.701
222.753
222.815
222.882
222.951
223.02
223.086
223.145
223.196
223.237
223.266
223.283
223.29
223.29
223.286
223.284
223.283
223.286
223.295
223.31
223.334
223.366
223.406
223.452
223.503
223.557
223.616
223.672
223.73
223.784
223.83
223.872
223.909
223.941
223.969
224.001
224.026
224.054
224.087
224.121
224.142
224.144
223.982
223.207
223.199
223.223
223.235
223.249
223.258
223.269
223.282
223.306
223.344
223.395
223.443
223.469
223.469
223.456
223.423
223.38
223.344
223.322
223.31
223.302
223.295
223.288
223.278
223.268
223.256
223.244
223.23
223.215
223.199
223.182
223.163
223.143
223.123
223.102
223.081
223.059
223.035
223.008
222.978
222.943
222.905
222.862
222.82
222.781
222.752
222.736
222.733
222.747
222.783
222.84
222.914
222.999
223.085
223.165
223.23
223.27
223.283
223.275
223.237
223.171
223.086
222.995
222.9
222.805
222.72
222.65
222.598
222.558
222.531
222.513
222.5
222.491
222.487
222.488
222.497
222.519
222.554
222.6
222.654
222.716
222.784
222.853
222.922
222.989
223.049
223.102
223.145
223.178
223.199
223.209
223.213
223.213
223.214
223.216
223.221
223.231
223.248
223.272
223.304
223.344
223.389
223.44
223.494
223.551
223.606
223.663
223.717
223.763
223.804
223.841
223.873
223.9
223.929
223.952
223.977
224.005
224.03
224.042
224.023
223.82
223.022
223.195
223.219
223.231
223.245
223.254
223.266
223.279
223.302
223.341
223.393
223.441
223.468
223.468
223.455
223.422
223.379
223.343
223.32
223.308
223.299
223.292
223.284
223.274
223.263
223.251
223.238
223.223
223.208
223.191
223.172
223.152
223.132
223.11
223.088
223.066
223.042
223.016
222.988
222.955
222.919
222.878
222.834
222.788
222.745
222.709
222.685
222.673
222.674
222.696
222.736
222.794
222.862
222.935
223.006
223.064
223.101
223.113
223.107
223.072
223.011
222.931
222.845
222.755
222.666
222.585
222.519
222.469
222.431
222.406
222.389
222.378
222.372
222.37
222.375
222.389
222.414
222.451
222.499
222.554
222.617
222.685
222.754
222.824
222.89
222.952
223.007
223.053
223.089
223.114
223.128
223.135
223.139
223.144
223.148
223.156
223.169
223.186
223.211
223.244
223.284
223.33
223.38
223.432
223.488
223.543
223.598
223.651
223.696
223.736
223.772
223.803
223.829
223.856
223.876
223.897
223.92
223.936
223.939
223.893
223.656
222.836
223.191
223.215
223.227
223.241
223.25
223.262
223.275
223.299
223.338
223.39
223.438
223.466
223.467
223.454
223.422
223.378
223.341
223.318
223.305
223.297
223.289
223.28
223.27
223.259
223.246
223.232
223.217
223.2
223.182
223.163
223.142
223.12
223.097
223.074
223.05
223.024
222.997
222.966
222.932
222.894
222.851
222.805
222.757
222.71
222.668
222.635
222.614
222.606
222.612
222.639
222.679
222.731
222.789
222.848
222.899
222.931
222.943
222.937
222.904
222.847
222.771
222.691
222.606
222.524
222.447
222.386
222.34
222.304
222.281
222.266
222.257
222.253
222.256
222.265
222.283
222.311
222.351
222.401
222.457
222.52
222.587
222.656
222.726
222.793
222.855
222.912
222.96
222.999
223.028
223.046
223.058
223.066
223.074
223.081
223.092
223.107
223.127
223.153
223.187
223.227
223.273
223.323
223.375
223.429
223.482
223.536
223.586
223.63
223.669
223.703
223.732
223.757
223.781
223.798
223.815
223.832
223.84
223.83
223.757
223.492
222.651
223.187
223.211
223.223
223.237
223.246
223.258
223.271
223.296
223.334
223.387
223.436
223.464
223.466
223.453
223.421
223.377
223.34
223.316
223.303
223.294
223.285
223.277
223.266
223.254
223.24
223.226
223.21
223.192
223.173
223.153
223.131
223.107
223.083
223.059
223.033
223.006
222.977
222.945
222.909
222.868
222.823
222.775
222.725
222.674
222.628
222.588
222.558
222.541
222.535
222.546
222.572
222.607
222.651
222.696
222.736
222.763
222.771
222.766
222.735
222.682
222.611
222.536
222.457
222.38
222.31
222.252
222.211
222.179
222.158
222.146
222.139
222.138
222.145
222.159
222.181
222.212
222.254
222.306
222.362
222.425
222.493
222.561
222.63
222.697
222.76
222.818
222.868
222.91
222.943
222.965
222.981
222.993
223.005
223.016
223.03
223.047
223.07
223.098
223.133
223.175
223.221
223.271
223.322
223.374
223.426
223.477
223.524
223.566
223.602
223.635
223.662
223.686
223.705
223.719
223.731
223.74
223.741
223.715
223.618
223.325
222.464
223.183
223.207
223.219
223.233
223.242
223.254
223.267
223.292
223.331
223.384
223.433
223.463
223.465
223.452
223.42
223.375
223.338
223.314
223.3
223.29
223.282
223.272
223.261
223.249
223.234
223.219
223.202
223.184
223.164
223.142
223.119
223.095
223.069
223.043
223.016
222.987
222.956
222.922
222.884
222.842
222.795
222.745
222.692
222.639
222.588
222.543
222.506
222.478
222.462
222.458
222.469
222.491
222.518
222.55
222.579
222.598
222.604
222.596
222.566
222.516
222.45
222.38
222.308
222.238
222.174
222.122
222.085
222.057
222.04
222.031
222.027
222.03
222.041
222.059
222.085
222.119
222.164
222.216
222.273
222.336
222.403
222.471
222.539
222.605
222.669
222.728
222.78
222.825
222.861
222.887
222.908
222.923
222.939
222.954
222.971
222.992
223.017
223.048
223.084
223.127
223.174
223.224
223.274
223.325
223.374
223.422
223.465
223.505
223.538
223.568
223.593
223.614
223.629
223.639
223.646
223.649
223.639
223.595
223.477
223.156
222.277
223.179
223.202
223.214
223.228
223.238
223.25
223.263
223.288
223.328
223.381
223.431
223.461
223.463
223.451
223.419
223.374
223.336
223.311
223.296
223.286
223.277
223.268
223.256
223.243
223.228
223.212
223.194
223.175
223.154
223.132
223.107
223.081
223.054
223.027
222.998
222.967
222.935
222.899
222.859
222.814
222.766
222.714
222.659
222.603
222.549
222.499
222.455
222.419
222.392
222.376
222.372
222.381
222.396
222.413
222.43
222.441
222.441
222.431
222.401
222.354
222.292
222.228
222.162
222.099
222.042
221.996
221.965
221.942
221.929
221.923
221.922
221.929
221.944
221.967
221.997
222.035
222.081
222.134
222.192
222.254
222.32
222.387
222.454
222.52
222.584
222.643
222.697
222.744
222.783
222.813
222.837
222.856
222.876
222.895
222.916
222.94
222.969
223.003
223.042
223.086
223.133
223.183
223.233
223.281
223.328
223.372
223.412
223.448
223.478
223.505
223.527
223.545
223.555
223.561
223.564
223.558
223.534
223.474
223.335
222.984
222.09
223.174
223.198
223.21
223.223
223.233
223.245
223.259
223.284
223.324
223.378
223.428
223.459
223.461
223.449
223.417
223.372
223.334
223.308
223.293
223.282
223.273
223.263
223.251
223.237
223.222
223.205
223.186
223.166
223.144
223.12
223.094
223.067
223.039
223.01
222.979
222.947
222.913
222.875
222.833
222.787
222.736
222.682
222.625
222.567
222.51
222.455
222.405
222.362
222.327
222.299
222.282
222.276
222.279
222.286
222.292
222.293
222.287
222.272
222.241
222.196
222.139
222.081
222.022
221.966
221.917
221.878
221.853
221.835
221.827
221.824
221.828
221.839
221.858
221.885
221.919
221.959
222.007
222.061
222.119
222.181
222.246
222.312
222.378
222.442
222.506
222.565
222.62
222.669
222.711
222.745
222.772
222.795
222.819
222.842
222.867
222.895
222.927
222.964
223.005
223.051
223.099
223.149
223.198
223.245
223.289
223.329
223.364
223.397
223.423
223.447
223.466
223.479
223.485
223.487
223.483
223.47
223.43
223.356
223.193
222.814
221.902
223.169
223.193
223.205
223.219
223.228
223.241
223.254
223.28
223.32
223.374
223.425
223.456
223.459
223.448
223.416
223.37
223.331
223.305
223.289
223.278
223.268
223.257
223.245
223.231
223.214
223.197
223.177
223.156
223.133
223.108
223.081
223.053
223.023
222.992
222.96
222.926
222.89
222.85
222.806
222.758
222.706
222.65
222.591
222.53
222.47
222.412
222.357
222.307
222.264
222.227
222.199
222.18
222.17
222.166
222.163
222.156
222.143
222.123
222.091
222.047
221.994
221.942
221.891
221.842
221.801
221.77
221.751
221.74
221.736
221.737
221.745
221.76
221.783
221.813
221.85
221.894
221.944
221.998
222.056
222.118
222.182
222.246
222.311
222.375
222.438
222.497
222.553
222.603
222.646
222.683
222.714
222.741
222.768
222.795
222.824
222.856
222.892
222.932
222.976
223.024
223.072
223.122
223.17
223.215
223.257
223.292
223.324
223.353
223.374
223.395
223.41
223.42
223.42
223.419
223.408
223.384
223.33
223.242
223.054
222.645
221.72
223.164
223.187
223.199
223.213
223.223
223.236
223.25
223.275
223.316
223.371
223.422
223.454
223.457
223.446
223.414
223.368
223.328
223.301
223.284
223.273
223.262
223.251
223.238
223.223
223.206
223.188
223.168
223.146
223.121
223.095
223.067
223.037
223.006
222.974
222.94
222.904
222.865
222.824
222.778
222.728
222.674
222.616
222.556
222.493
222.43
222.368
222.309
222.253
222.204
222.159
222.121
222.092
222.069
222.054
222.042
222.029
222.012
221.987
221.951
221.909
221.859
221.813
221.77
221.729
221.697
221.674
221.661
221.655
221.655
221.661
221.674
221.693
221.719
221.753
221.793
221.839
221.89
221.945
222.004
222.065
222.128
222.192
222.255
222.318
222.379
222.438
222.494
222.545
222.59
222.629
222.663
222.694
222.725
222.755
222.788
222.824
222.864
222.907
222.954
223.003
223.052
223.102
223.149
223.192
223.231
223.262
223.29
223.315
223.333
223.35
223.36
223.367
223.361
223.357
223.337
223.302
223.237
223.135
222.922
222.484
221.546
223.158
223.181
223.194
223.208
223.218
223.231
223.245
223.271
223.311
223.367
223.418
223.451
223.455
223.444
223.412
223.365
223.325
223.297
223.279
223.267
223.256
223.244
223.231
223.216
223.198
223.179
223.157
223.134
223.109
223.082
223.052
223.021
222.988
222.954
222.918
222.88
222.84
222.796
222.749
222.697
222.642
222.582
222.519
222.454
222.389
222.324
222.261
222.201
222.145
222.094
222.048
222.01
221.978
221.952
221.931
221.91
221.889
221.862
221.827
221.785
221.738
221.698
221.661
221.629
221.604
221.589
221.583
221.583
221.588
221.598
221.614
221.636
221.665
221.702
221.745
221.793
221.846
221.902
221.96
222.021
222.084
222.147
222.21
222.271
222.332
222.391
222.446
222.497
222.543
222.584
222.62
222.654
222.688
222.723
222.759
222.799
222.842
222.888
222.937
222.987
223.038
223.087
223.133
223.174
223.21
223.238
223.263
223.285
223.298
223.311
223.317
223.321
223.31
223.301
223.271
223.23
223.154
223.035
222.799
222.332
221.38
223.152
223.175
223.188
223.202
223.212
223.225
223.24
223.266
223.307
223.362
223.414
223.448
223.452
223.441
223.409
223.362
223.321
223.292
223.274
223.261
223.249
223.237
223.223
223.207
223.188
223.168
223.146
223.122
223.095
223.067
223.036
223.003
222.969
222.933
222.895
222.856
222.813
222.768
222.718
222.665
222.607
222.546
222.481
222.414
222.347
222.279
222.213
222.148
222.088
222.031
221.979
221.933
221.893
221.859
221.83
221.804
221.776
221.747
221.713
221.673
221.632
221.597
221.568
221.543
221.526
221.519
221.518
221.522
221.531
221.545
221.565
221.589
221.622
221.661
221.706
221.756
221.81
221.867
221.926
221.987
222.049
222.112
222.173
222.234
222.294
222.352
222.407
222.458
222.505
222.548
222.586
222.623
222.66
222.698
222.737
222.78
222.825
222.874
222.926
222.977
223.028
223.076
223.121
223.16
223.193
223.219
223.241
223.259
223.27
223.28
223.281
223.281
223.265
223.251
223.215
223.165
223.079
222.944
222.685
222.195
221.231
223.146
223.169
223.182
223.196
223.206
223.22
223.234
223.261
223.302
223.358
223.41
223.445
223.45
223.439
223.406
223.359
223.317
223.287
223.268
223.254
223.242
223.229
223.214
223.197
223.178
223.157
223.133
223.108
223.08
223.051
223.018
222.984
222.948
222.91
222.871
222.829
222.785
222.737
222.686
222.631
222.571
222.508
222.442
222.373
222.303
222.233
222.163
222.095
222.03
221.97
221.911
221.86
221.814
221.774
221.739
221.707
221.676
221.644
221.609
221.572
221.537
221.51
221.488
221.469
221.459
221.458
221.463
221.472
221.485
221.502
221.524
221.552
221.587
221.628
221.675
221.726
221.781
221.838
221.898
221.959
222.021
222.084
222.145
222.205
222.264
222.322
222.377
222.429
222.476
222.52
222.56
222.599
222.638
222.678
222.72
222.766
222.814
222.864
222.917
222.969
223.019
223.067
223.111
223.148
223.179
223.203
223.223
223.238
223.246
223.252
223.251
223.245
223.227
223.208
223.168
223.109
223.013
222.861
222.58
222.07
221.104
223.139
223.162
223.175
223.189
223.2
223.213
223.228
223.255
223.297
223.354
223.406
223.442
223.446
223.436
223.403
223.356
223.312
223.281
223.261
223.246
223.233
223.22
223.204
223.187
223.166
223.144
223.12
223.093
223.064
223.033
222.999
222.963
222.926
222.886
222.845
222.801
222.755
222.705
222.652
222.594
222.533
222.468
222.4
222.33
222.258
222.185
222.113
222.042
221.973
221.909
221.846
221.79
221.74
221.695
221.656
221.62
221.586
221.553
221.519
221.484
221.454
221.434
221.418
221.407
221.404
221.408
221.416
221.429
221.445
221.464
221.489
221.519
221.557
221.601
221.649
221.701
221.758
221.816
221.876
221.937
221.999
222.061
222.122
222.182
222.241
222.298
222.352
222.404
222.452
222.497
222.539
222.58
222.622
222.664
222.709
222.756
222.807
222.858
222.91
222.962
223.012
223.06
223.102
223.138
223.167
223.189
223.206
223.219
223.225
223.229
223.226
223.215
223.196
223.173
223.128
223.057
222.954
222.784
222.483
221.953
220.982
223.132
223.155
223.168
223.182
223.193
223.207
223.222
223.249
223.291
223.349
223.402
223.438
223.443
223.433
223.4
223.352
223.307
223.275
223.254
223.238
223.224
223.21
223.193
223.175
223.154
223.13
223.105
223.077
223.046
223.013
222.978
222.941
222.901
222.86
222.816
222.771
222.722
222.671
222.615
222.556
222.493
222.426
222.356
222.284
222.211
222.136
222.061
221.987
221.916
221.848
221.782
221.722
221.668
221.621
221.578
221.54
221.504
221.471
221.438
221.407
221.383
221.368
221.358
221.353
221.356
221.365
221.376
221.391
221.409
221.431
221.458
221.491
221.532
221.577
221.628
221.681
221.739
221.797
221.857
221.919
221.981
222.043
222.104
222.163
222.221
222.277
222.332
222.384
222.432
222.478
222.522
222.565
222.609
222.653
222.699
222.747
222.799
222.852
222.905
222.957
223.007
223.054
223.095
223.13
223.158
223.179
223.195
223.205
223.21
223.212
223.207
223.192
223.172
223.142
223.093
223.012
222.899
222.713
222.398
221.852
220.878
223.124
223.147
223.16
223.175
223.186
223.2
223.216
223.243
223.286
223.344
223.398
223.434
223.44
223.429
223.396
223.347
223.301
223.268
223.245
223.229
223.214
223.199
223.181
223.162
223.139
223.115
223.088
223.059
223.027
222.992
222.955
222.916
222.875
222.831
222.786
222.738
222.687
222.634
222.576
222.515
222.45
222.381
222.31
222.236
222.161
222.084
222.008
221.932
221.857
221.787
221.719
221.656
221.6
221.55
221.506
221.466
221.43
221.397
221.366
221.339
221.321
221.312
221.306
221.306
221.314
221.326
221.341
221.359
221.379
221.404
221.433
221.468
221.51
221.558
221.61
221.665
221.724
221.783
221.843
221.905
221.968
222.029
222.089
222.148
222.205
222.261
222.315
222.366
222.415
222.462
222.507
222.552
222.597
222.643
222.691
222.742
222.794
222.848
222.901
222.953
223.003
223.049
223.09
223.124
223.151
223.17
223.184
223.192
223.196
223.196
223.191
223.173
223.151
223.115
223.06
222.971
222.849
222.645
222.31
221.747
220.778
223.116
223.139
223.152
223.167
223.178
223.193
223.209
223.237
223.28
223.339
223.393
223.43
223.435
223.425
223.392
223.342
223.295
223.26
223.236
223.218
223.202
223.186
223.168
223.147
223.124
223.098
223.07
223.039
223.005
222.969
222.93
222.889
222.846
222.8
222.752
222.702
222.65
222.594
222.534
222.471
222.404
222.334
222.26
222.185
222.108
222.03
221.952
221.874
221.798
221.725
221.656
221.591
221.533
221.482
221.437
221.397
221.361
221.329
221.301
221.279
221.267
221.263
221.261
221.267
221.279
221.295
221.311
221.332
221.354
221.38
221.412
221.449
221.493
221.542
221.596
221.652
221.711
221.771
221.831
221.893
221.955
222.016
222.076
222.134
222.191
222.247
222.301
222.353
222.402
222.45
222.496
222.542
222.589
222.636
222.686
222.737
222.79
222.844
222.898
222.95
223
223.045
223.085
223.118
223.144
223.162
223.175
223.183
223.186
223.184
223.177
223.156
223.133
223.091
223.029
222.931
222.8
222.581
222.226
221.652
220.687
223.107
223.13
223.143
223.159
223.17
223.185
223.201
223.23
223.274
223.333
223.388
223.425
223.431
223.421
223.387
223.336
223.287
223.251
223.226
223.207
223.19
223.172
223.153
223.131
223.107
223.079
223.049
223.017
222.981
222.943
222.902
222.859
222.814
222.766
222.716
222.664
222.609
222.551
222.489
222.424
222.355
222.283
222.208
222.131
222.052
221.973
221.893
221.815
221.737
221.663
221.593
221.527
221.469
221.417
221.372
221.332
221.298
221.268
221.243
221.226
221.22
221.22
221.224
221.234
221.249
221.267
221.287
221.309
221.332
221.362
221.395
221.435
221.48
221.531
221.585
221.643
221.702
221.762
221.823
221.885
221.947
222.008
222.068
222.125
222.181
222.236
222.29
222.341
222.391
222.44
222.487
222.534
222.581
222.63
222.681
222.733
222.787
222.842
222.895
222.947
222.996
223.041
223.08
223.112
223.137
223.155
223.167
223.174
223.176
223.173
223.164
223.141
223.115
223.067
222.999
222.894
222.751
222.518
222.146
221.56
220.603
223.098
223.121
223.134
223.15
223.162
223.177
223.193
223.223
223.267
223.327
223.382
223.419
223.426
223.416
223.381
223.329
223.279
223.241
223.215
223.194
223.176
223.157
223.137
223.114
223.088
223.059
223.026
222.992
222.955
222.914
222.872
222.826
222.779
222.729
222.676
222.622
222.564
222.504
222.44
222.373
222.302
222.228
222.152
222.073
221.993
221.913
221.832
221.752
221.674
221.599
221.529
221.463
221.405
221.354
221.31
221.272
221.239
221.212
221.192
221.181
221.18
221.183
221.192
221.206
221.224
221.244
221.266
221.29
221.315
221.345
221.381
221.422
221.47
221.521
221.577
221.635
221.695
221.755
221.817
221.879
221.94
222.001
222.06
222.117
222.172
222.227
222.28
222.331
222.381
222.429
222.478
222.526
222.575
222.625
222.677
222.73
222.784
222.839
222.892
222.944
222.992
223.036
223.074
223.106
223.13
223.147
223.159
223.164
223.166
223.162
223.151
223.126
223.096
223.044
222.968
222.858
222.702
222.457
222.07
221.475
220.525
223.088
223.111
223.125
223.14
223.152
223.168
223.185
223.215
223.26
223.32
223.376
223.413
223.42
223.41
223.375
223.322
223.27
223.231
223.202
223.18
223.16
223.14
223.119
223.094
223.066
223.035
223.001
222.965
222.925
222.883
222.838
222.79
222.74
222.688
222.633
222.575
222.516
222.453
222.387
222.318
222.245
222.17
222.091
222.011
221.93
221.849
221.768
221.688
221.609
221.534
221.465
221.4
221.343
221.293
221.251
221.215
221.185
221.162
221.147
221.142
221.145
221.152
221.165
221.183
221.203
221.225
221.248
221.273
221.3
221.333
221.37
221.414
221.462
221.515
221.572
221.63
221.69
221.751
221.812
221.874
221.935
221.995
222.053
222.109
222.164
222.218
222.27
222.322
222.372
222.421
222.47
222.52
222.57
222.621
222.673
222.727
222.782
222.837
222.889
222.941
222.988
223.031
223.068
223.098
223.123
223.139
223.15
223.154
223.155
223.15
223.137
223.11
223.077
223.021
222.937
222.821
222.653
222.394
221.995