/*--------------------------------*- C++ -*----------------------------------*\
| =========                 |                                                 |
| \\      /  F ield         | OpenFOAM: The Open Source CFD Toolbox           |
|  \\    /   O peration     | Version:  2412                                  |
|   \\  /    A nd           | Website:  www.openfoam.com                      |
|    \\/     M anipulation  |                                                 |
\*---------------------------------------------------------------------------*/
FoamFile
{
    version     2.0;
    format      ascii;
    arch        "LSB;label=32;scalar=64";
    class       volScalarField;
    location    "0.068";
    object      rho;
}
// * * * * * * * * * * * * * * * * * * * * * * * * * * * * * * * * * * * * * //

dimensions      [1 -3 0 0 0 0 0];

internalField   nonuniform List<scalar> 
9922
(
0.0580624
0.0435928
0.0433635
0.0435009
0.043517
0.0435405
0.0435147
0.0434619
0.0433895
0.0432955
0.0431864
0.0430688
0.0429471
0.0428258
0.0427094
0.0426
0.0425016
0.0424136
0.0423352
0.0422639
0.0421972
0.0421318
0.0420648
0.0419936
0.0419161
0.0418312
0.0417388
0.0416395
0.0415342
0.0414236
0.0413083
0.0411886
0.0410645
0.0409356
0.0408015
0.0406612
0.0405139
0.0403588
0.0401953
0.0400227
0.0398403
0.0396474
0.0394434
0.0392277
0.0389997
0.0387586
0.0385035
0.0382335
0.0379471
0.0376418
0.0373137
0.0369615
0.0365874
0.0361666
0.0355609
0.0343098
0.0325925
0.0310491
0.0300175
0.0293246
0.0287799
0.0282968
0.0278461
0.0274291
0.0270467
0.0266956
0.0263821
0.0261013
0.0258457
0.0256117
0.0253977
0.0252004
0.0250169
0.0248435
0.0246784
0.0245223
0.0243759
0.0242389
0.0241103
0.0239878
0.0238722
0.0237621
0.0236579
0.0235581
0.0234633
0.0233728
0.0232864
0.0232037
0.0231248
0.0230491
0.0229768
0.0229076
0.0228417
0.0227783
0.0227175
0.0226595
0.0226044
0.0225517
0.0225002
0.0224497
0.0224005
0.0223532
0.0223074
0.022263
0.0222199
0.0221793
0.0221417
0.0221077
0.0220762
0.0220464
0.0220151
0.0219814
0.0219434
0.0219038
0.0218632
0.02182
0.0217749
0.0217302
0.0216889
0.0216523
0.0216127
0.0580812
0.0435847
0.0433463
0.0434879
0.0435064
0.043532
0.0435081
0.0434571
0.0433859
0.0432928
0.0431844
0.0430676
0.0429464
0.0428256
0.0427096
0.0426006
0.0425023
0.0424143
0.0423357
0.0422642
0.042197
0.0421312
0.0420637
0.0419918
0.0419136
0.041828
0.0417349
0.041635
0.041529
0.0414177
0.0413017
0.0411812
0.0410564
0.0409268
0.0407919
0.0406508
0.0405026
0.0403464
0.0401816
0.0400074
0.039823
0.0396276
0.0394205
0.039201
0.0389681
0.0387209
0.0384582
0.0381785
0.0378795
0.0375574
0.0372081
0.036831
0.036418
0.0358977
0.0350415
0.0336541
0.0321048
0.0308607
0.0300017
0.0293706
0.0288366
0.0283529
0.027911
0.027498
0.0271123
0.0267614
0.0264379
0.0261438
0.0258772
0.0256338
0.0254125
0.0252093
0.0250214
0.0248497
0.02469
0.024539
0.0243962
0.0242595
0.0241303
0.0240074
0.023892
0.0237817
0.0236767
0.0235751
0.0234775
0.0233841
0.0232964
0.0232133
0.0231342
0.023058
0.0229848
0.0229145
0.0228468
0.0227814
0.0227184
0.0226582
0.0226005
0.022545
0.0224919
0.0224418
0.0223948
0.0223503
0.0223069
0.0222646
0.0222238
0.0221855
0.0221501
0.0221179
0.022088
0.0220598
0.0220299
0.0219975
0.0219605
0.0219215
0.0218812
0.0218379
0.0217922
0.0217472
0.0217056
0.0216693
0.0216297
0.0581
0.0435771
0.0433289
0.0434748
0.0434956
0.0435234
0.0435015
0.0434523
0.0433822
0.04329
0.0431824
0.0430663
0.0429458
0.0428254
0.0427098
0.0426011
0.0425031
0.0424151
0.0423363
0.0422645
0.0421969
0.0421306
0.0420625
0.04199
0.0419111
0.0418248
0.0417311
0.0416304
0.0415237
0.0414117
0.041295
0.0411738
0.0410483
0.0409179
0.0407823
0.0406403
0.0404912
0.040334
0.0401679
0.0399921
0.0398057
0.0396078
0.0393976
0.0391742
0.0389365
0.0386832
0.0384128
0.0381231
0.037811
0.0374716
0.0371011
0.0366972
0.0362356
0.0356015
0.0345298
0.0331544
0.0318113
0.0307789
0.0300311
0.0294312
0.0289024
0.0284183
0.0279647
0.0275506
0.0271697
0.0268176
0.0264933
0.0261953
0.0259235
0.0256758
0.0254475
0.0252368
0.025041
0.0248599
0.0246941
0.0245405
0.0243958
0.0242594
0.0241316
0.0240097
0.0238938
0.023782
0.0236758
0.0235739
0.0234777
0.0233862
0.0233003
0.0232186
0.0231402
0.0230646
0.022992
0.0229224
0.0228557
0.0227916
0.0227303
0.0226714
0.0226138
0.0225573
0.0225024
0.0224502
0.0224007
0.0223533
0.0223069
0.0222619
0.0222192
0.0221795
0.0221431
0.0221102
0.0220798
0.0220512
0.0220214
0.0219895
0.021953
0.0219151
0.0218762
0.0218341
0.0217894
0.0217448
0.0217039
0.0216685
0.0216304
0.0581187
0.0435699
0.0433113
0.0434614
0.0434846
0.0435146
0.0434947
0.0434474
0.0433784
0.0432872
0.0431804
0.043065
0.0429451
0.0428252
0.0427101
0.0426017
0.0425039
0.0424159
0.042337
0.0422649
0.0421969
0.04213
0.0420613
0.0419882
0.0419086
0.0418216
0.0417271
0.0416258
0.0415184
0.0414057
0.0412883
0.0411665
0.0410402
0.0409091
0.0407726
0.0406299
0.0404798
0.0403215
0.0401542
0.0399768
0.0397884
0.039588
0.0393747
0.0391474
0.0389049
0.0386454
0.0383672
0.0380674
0.0377419
0.0373852
0.0369928
0.0365556
0.0360268
0.0352585
0.0341151
0.0328081
0.0316423
0.0307518
0.0300698
0.0294995
0.0289826
0.0284967
0.0280411
0.0276115
0.0272175
0.0268581
0.0265319
0.0262333
0.0259597
0.0257107
0.0254821
0.0252717
0.0250756
0.0248914
0.0247175
0.0245556
0.024405
0.0242638
0.0241325
0.0240091
0.0238932
0.0237818
0.0236754
0.0235729
0.0234762
0.0233846
0.0232985
0.0232157
0.0231361
0.0230591
0.0229853
0.0229146
0.022847
0.0227825
0.0227212
0.0226628
0.0226067
0.0225531
0.0225021
0.0224537
0.0224072
0.0223622
0.0223177
0.0222741
0.0222322
0.0221929
0.0221565
0.0221232
0.0220919
0.0220625
0.0220317
0.0219986
0.021961
0.0219218
0.0218815
0.0218384
0.0217925
0.0217468
0.0217048
0.0216689
0.0216312
0.0581372
0.0435633
0.0432934
0.0434478
0.0434734
0.0435056
0.0434879
0.0434424
0.0433746
0.0432842
0.0431783
0.0430637
0.0429444
0.0428251
0.0427103
0.0426024
0.0425047
0.0424168
0.0423377
0.0422653
0.0421968
0.0421294
0.0420601
0.0419863
0.0419061
0.0418184
0.0417232
0.0416212
0.0415131
0.0413997
0.0412816
0.0411591
0.0410321
0.0409002
0.040763
0.0406194
0.0404684
0.0403091
0.0401404
0.0399614
0.0397711
0.0395683
0.0393519
0.0391207
0.0388732
0.0386075
0.0383214
0.0380113
0.0376722
0.0372985
0.0368843
0.0364112
0.0358068
0.0349096
0.0337611
0.0325671
0.0315514
0.0307571
0.0301161
0.0295579
0.0290505
0.028577
0.0281267
0.0277007
0.0272985
0.0269243
0.0265806
0.0262698
0.0259879
0.0257302
0.0254965
0.0252838
0.0250886
0.0249089
0.0247407
0.0245822
0.0244322
0.0242896
0.0241563
0.0240313
0.0239141
0.0238012
0.0236936
0.0235906
0.023494
0.0234021
0.0233144
0.0232297
0.0231485
0.0230708
0.0229966
0.0229254
0.0228571
0.0227916
0.0227286
0.0226677
0.0226088
0.0225525
0.022499
0.022448
0.0223994
0.0223527
0.0223076
0.0222647
0.0222241
0.0221862
0.022151
0.0221188
0.0220888
0.0220608
0.0220315
0.0220003
0.0219643
0.0219267
0.0218878
0.0218455
0.0218004
0.0217553
0.0217135
0.0216773
0.0216393
0.0581556
0.0435572
0.0432753
0.043434
0.0434621
0.0434965
0.0434809
0.0434373
0.0433705
0.0432811
0.0431762
0.0430624
0.0429437
0.0428249
0.0427106
0.0426031
0.0425056
0.0424177
0.0423385
0.0422657
0.0421968
0.0421289
0.0420589
0.0419844
0.0419035
0.0418151
0.0417192
0.0416165
0.0415077
0.0413937
0.0412749
0.0411517
0.041024
0.0408914
0.0407533
0.0406089
0.040457
0.0402966
0.0401267
0.0399461
0.0397538
0.0395486
0.0393291
0.039094
0.0388416
0.0385697
0.0382755
0.037955
0.0376024
0.0372116
0.0367736
0.0362599
0.0355781
0.034611
0.0334931
0.0324148
0.0315144
0.0307872
0.0301736
0.029624
0.029116
0.0286399
0.0281946
0.0277739
0.0273763
0.0270034
0.0266561
0.0263349
0.0260411
0.0257745
0.0255308
0.0253081
0.0251037
0.0249166
0.0247442
0.0245853
0.0244372
0.0242974
0.0241651
0.0240382
0.0239172
0.0238007
0.0236913
0.0235879
0.0234911
0.023398
0.0233086
0.0232225
0.0231414
0.0230645
0.0229916
0.0229217
0.0228551
0.0227915
0.0227304
0.0226718
0.0226157
0.022562
0.02251
0.0224595
0.0224102
0.0223622
0.0223157
0.0222714
0.0222294
0.0221899
0.022153
0.0221192
0.0220877
0.0220584
0.0220279
0.0219956
0.0219584
0.0219197
0.0218796
0.0218365
0.0217906
0.0217452
0.021703
0.0216665
0.0216281
0.0581737
0.0435517
0.0432569
0.0434201
0.0434507
0.0434872
0.0434738
0.043432
0.0433663
0.043278
0.043174
0.043061
0.042943
0.0428247
0.042711
0.0426038
0.0425066
0.0424187
0.0423393
0.0422662
0.0421969
0.0421283
0.0420577
0.0419825
0.0419009
0.0418118
0.0417152
0.0416118
0.0415024
0.0413876
0.0412682
0.0411443
0.0410158
0.0408825
0.0407437
0.0405984
0.0404456
0.0402841
0.0401129
0.0399308
0.0397366
0.0395289
0.0393064
0.0390674
0.03881
0.0385318
0.0382295
0.0378985
0.0375325
0.0371246
0.0366619
0.0361026
0.0353436
0.0343615
0.0332982
0.0323206
0.0315044
0.0308321
0.0302461
0.0297078
0.0292021
0.0287223
0.0282644
0.0278353
0.0274363
0.0270637
0.026717
0.0263958
0.0260998
0.0258287
0.0255808
0.0253538
0.0251442
0.0249499
0.0247682
0.0246
0.0244439
0.0242986
0.0241632
0.0240354
0.023916
0.0238026
0.0236963
0.0235945
0.0234973
0.0234031
0.0233126
0.0232263
0.0231454
0.0230685
0.0229948
0.0229236
0.0228552
0.0227892
0.0227257
0.0226649
0.0226077
0.0225536
0.0225019
0.0224524
0.0224046
0.0223587
0.0223146
0.0222723
0.0222319
0.0221935
0.0221576
0.0221248
0.0220945
0.0220662
0.0220368
0.0220053
0.0219688
0.0219304
0.0218904
0.0218471
0.0218008
0.0217552
0.0217125
0.0216761
0.0216375
0.0581917
0.0435466
0.0432383
0.0434059
0.0434391
0.0434777
0.0434664
0.0434265
0.0433619
0.0432747
0.0431718
0.0430596
0.0429423
0.0428246
0.0427113
0.0426045
0.0425076
0.0424197
0.0423402
0.0422668
0.0421969
0.0421278
0.0420565
0.0419806
0.0418983
0.0418084
0.0417112
0.0416071
0.041497
0.0413816
0.0412615
0.0411369
0.0410078
0.0408737
0.0407341
0.0405879
0.0404341
0.0402716
0.0400991
0.0399155
0.0397193
0.0395092
0.0392837
0.0390408
0.0387785
0.038494
0.0381836
0.0378421
0.0374629
0.0370379
0.036549
0.0359407
0.0351213
0.0341504
0.0331591
0.0322697
0.0315187
0.0308793
0.0303116
0.0297887
0.0292948
0.028821
0.0283656
0.0279266
0.02751
0.0271228
0.0267655
0.0264369
0.026135
0.0258593
0.0256083
0.0253799
0.0251709
0.0249791
0.0248001
0.0246327
0.0244743
0.0243247
0.0241857
0.0240571
0.023938
0.0238235
0.0237142
0.0236092
0.0235097
0.0234139
0.0233228
0.0232362
0.0231551
0.0230779
0.023004
0.022933
0.022865
0.0227994
0.022736
0.0226752
0.0226168
0.0225605
0.0225061
0.0224539
0.0224039
0.022356
0.0223101
0.0222661
0.0222241
0.0221842
0.0221471
0.0221134
0.0220826
0.0220543
0.0220252
0.0219943
0.0219584
0.021921
0.021882
0.0218394
0.0217934
0.0217477
0.0217051
0.0216688
0.0216306
0.0582093
0.0435422
0.0432194
0.0433916
0.0434274
0.043468
0.0434588
0.0434207
0.0433573
0.0432713
0.0431695
0.0430582
0.0429415
0.0428244
0.0427116
0.0426053
0.0425087
0.0424209
0.0423411
0.0422674
0.042197
0.0421273
0.0420553
0.0419787
0.0418956
0.0418051
0.0417071
0.0416024
0.0414916
0.0413755
0.0412548
0.0411295
0.0409997
0.0408649
0.0407245
0.0405774
0.0404227
0.0402591
0.0400853
0.0399001
0.0397021
0.0394896
0.0392609
0.0390142
0.038747
0.0384562
0.0381377
0.0377858
0.0373937
0.0369517
0.0364345
0.0357777
0.0349324
0.0339882
0.0330644
0.0322474
0.0315457
0.0309333
0.0303751
0.0298541
0.0293644
0.0289
0.0284535
0.0280238
0.0276107
0.0272171
0.0268472
0.0265042
0.0261894
0.0259016
0.0256396
0.0254017
0.0251854
0.0249887
0.0248086
0.0246433
0.0244888
0.0243426
0.0242036
0.0240706
0.0239447
0.0238236
0.0237104
0.0236035
0.0235034
0.0234076
0.0233168
0.0232304
0.0231488
0.0230706
0.0229958
0.0229239
0.0228551
0.0227891
0.0227265
0.0226675
0.0226112
0.0225571
0.0225052
0.0224558
0.0224081
0.0223619
0.0223171
0.0222739
0.0222321
0.0221921
0.0221545
0.0221202
0.0220888
0.0220597
0.0220297
0.0219977
0.0219608
0.0219223
0.0218824
0.0218392
0.0217924
0.0217462
0.0217031
0.0216672
0.0216303
0.0582267
0.0435383
0.0432003
0.0433771
0.0434155
0.043458
0.0434508
0.0434146
0.0433526
0.0432679
0.0431672
0.0430567
0.0429407
0.0428242
0.042712
0.0426062
0.0425098
0.042422
0.0423422
0.0422681
0.0421972
0.0421268
0.0420541
0.0419767
0.0418929
0.0418016
0.041703
0.0415976
0.0414861
0.0413694
0.041248
0.0411222
0.0409916
0.0408561
0.0407149
0.040567
0.0404113
0.0402465
0.0400715
0.0398848
0.0396848
0.0394699
0.0392383
0.0389877
0.0387156
0.0384186
0.038092
0.03773
0.0373254
0.0368657
0.0363171
0.0356174
0.0347678
0.0338645
0.0330081
0.0322507
0.0315907
0.0310005
0.0304556
0.029941
0.0294486
0.0289761
0.0285248
0.0280948
0.0276864
0.0272985
0.0269315
0.0265867
0.0262663
0.0259714
0.0257014
0.025455
0.0252294
0.0250225
0.0248315
0.0246559
0.024494
0.0243437
0.0242029
0.0240688
0.0239447
0.0238287
0.0237212
0.0236179
0.0235191
0.0234232
0.0233314
0.0232433
0.0231599
0.0230801
0.0230041
0.0229313
0.0228609
0.0227933
0.022729
0.0226677
0.0226087
0.0225516
0.0224975
0.0224462
0.0223974
0.0223506
0.0223058
0.0222629
0.0222215
0.0221822
0.0221455
0.0221122
0.022082
0.0220543
0.0220255
0.0219949
0.0219592
0.0219219
0.0218829
0.0218403
0.0217938
0.0217477
0.0217044
0.0216678
0.0216301
0.0582437
0.0435351
0.0431809
0.0433625
0.0434036
0.0434478
0.0434426
0.0434084
0.0433477
0.0432643
0.0431648
0.0430552
0.0429398
0.042824
0.0427124
0.0426071
0.042511
0.0424233
0.0423433
0.0422689
0.0421974
0.0421263
0.0420529
0.0419748
0.0418902
0.0417982
0.0416988
0.0415927
0.0414806
0.0413633
0.0412413
0.0411148
0.0409836
0.0408473
0.0407053
0.0405565
0.0403999
0.040234
0.0400577
0.0398694
0.0396675
0.0394503
0.0392156
0.0389612
0.0386843
0.038381
0.0380466
0.0376748
0.0372578
0.0367788
0.0361982
0.0354711
0.0346358
0.0337791
0.0329802
0.0322708
0.0316439
0.0310762
0.0305452
0.03004
0.0295549
0.0290843
0.0286253
0.0281817
0.0277594
0.0273623
0.0269909
0.0266442
0.0263215
0.0260233
0.0257495
0.0254994
0.0252714
0.0250634
0.0248715
0.0246932
0.0245255
0.0243683
0.0242235
0.0240899
0.0239671
0.023849
0.0237359
0.0236273
0.0235241
0.0234249
0.0233306
0.0232407
0.0231563
0.0230765
0.0230012
0.0229293
0.0228606
0.0227951
0.022733
0.0226737
0.0226161
0.0225606
0.0225071
0.0224556
0.0224058
0.0223578
0.0223113
0.0222665
0.0222233
0.0221822
0.0221439
0.0221091
0.0220776
0.0220486
0.0220187
0.0219868
0.0219501
0.0219116
0.0218714
0.0218282
0.0217813
0.0217349
0.021691
0.0216541
0.0216167
0.0582604
0.0435325
0.0431614
0.0433477
0.0433915
0.0434374
0.0434342
0.043402
0.0433428
0.0432608
0.0431624
0.0430536
0.042939
0.0428238
0.0427129
0.042608
0.0425122
0.0424247
0.0423445
0.0422697
0.0421977
0.0421259
0.0420517
0.0419728
0.0418874
0.0417946
0.0416946
0.0415879
0.0414751
0.0413572
0.0412346
0.0411075
0.0409756
0.0408386
0.0406958
0.0405461
0.0403885
0.0402215
0.0400439
0.0398541
0.0396503
0.0394306
0.0391929
0.0389348
0.038653
0.0383437
0.0380015
0.0376203
0.0371906
0.036691
0.036082
0.0353433
0.0345291
0.0337182
0.0329693
0.0322979
0.031693
0.0311366
0.0306152
0.0301195
0.0296434
0.0291828
0.0287335
0.028294
0.027867
0.0274576
0.0270706
0.0267093
0.0263745
0.0260662
0.0257838
0.0255263
0.0252922
0.0250803
0.0248873
0.0247114
0.0245477
0.0243937
0.0242483
0.0241084
0.0239752
0.0238487
0.0237323
0.0236231
0.0235208
0.0234229
0.0233303
0.023242
0.0231586
0.023079
0.0230028
0.0229294
0.0228588
0.0227913
0.0227269
0.0226652
0.0226067
0.0225516
0.0224992
0.0224489
0.0224003
0.0223537
0.0223088
0.0222654
0.0222234
0.0221833
0.022146
0.022112
0.0220813
0.0220531
0.0220241
0.0219931
0.0219569
0.0219185
0.0218784
0.0218354
0.0217884
0.0217422
0.021698
0.0216608
0.0216221
0.0582767
0.0435305
0.0431417
0.0433328
0.0433793
0.0434266
0.0434256
0.0433956
0.0433378
0.0432571
0.0431598
0.043052
0.0429382
0.0428237
0.0427134
0.042609
0.0425135
0.0424261
0.0423458
0.0422706
0.042198
0.0421255
0.0420505
0.0419708
0.0418846
0.0417911
0.0416904
0.041583
0.0414696
0.0413511
0.0412279
0.0411001
0.0409676
0.0408299
0.0406863
0.0405357
0.0403771
0.040209
0.0400301
0.0398387
0.039633
0.0394109
0.0391703
0.0389084
0.0386219
0.0383065
0.0379569
0.0375664
0.0371234
0.0366034
0.035973
0.0352356
0.0344494
0.0336813
0.0329732
0.0323341
0.0317527
0.0312111
0.0306954
0.0302
0.0297229
0.029262
0.0288156
0.0283835
0.0279648
0.0275606
0.0271735
0.0268068
0.0264633
0.0261444
0.0258507
0.0255823
0.0253376
0.025115
0.0249114
0.0247255
0.0245549
0.0243976
0.0242506
0.0241105
0.0239826
0.0238626
0.0237499
0.0236413
0.0235384
0.0234399
0.0233464
0.0232569
0.0231715
0.0230897
0.0230117
0.0229375
0.0228671
0.0228002
0.0227354
0.0226722
0.0226116
0.0225544
0.0224998
0.0224472
0.0223968
0.0223485
0.0223019
0.0222568
0.0222134
0.022172
0.0221335
0.0220986
0.0220672
0.0220388
0.0220101
0.0219796
0.0219438
0.021906
0.0218665
0.0218237
0.0217765
0.0217301
0.0216855
0.0216485
0.0216107
0.0582926
0.043529
0.0431218
0.0433178
0.043367
0.0434156
0.0434169
0.0433891
0.0433327
0.0432533
0.0431572
0.0430504
0.0429374
0.0428236
0.0427139
0.04261
0.0425149
0.0424276
0.0423472
0.0422716
0.0421984
0.0421251
0.0420493
0.0419687
0.0418817
0.0417875
0.0416861
0.041578
0.0414641
0.041345
0.0412212
0.0410928
0.0409597
0.0408212
0.0406768
0.0405254
0.0403658
0.0401966
0.0400163
0.0398233
0.0396157
0.0393913
0.0391477
0.0388821
0.0385909
0.0382696
0.0379128
0.037513
0.0370563
0.0365177
0.0358739
0.0351448
0.0343881
0.0336618
0.0329941
0.0323863
0.0318262
0.0312989
0.0307951
0.0303079
0.0298323
0.0293662
0.0289099
0.0284671
0.0280422
0.0276369
0.0272513
0.0268858
0.0265413
0.0262195
0.0259213
0.0256472
0.0253968
0.0251689
0.0249603
0.0247686
0.0245896
0.0244233
0.02427
0.0241288
0.0240007
0.0238756
0.0237566
0.0236431
0.0235374
0.0234371
0.0233422
0.0232507
0.0231633
0.0230795
0.0230002
0.0229253
0.0228551
0.0227885
0.0227247
0.0226638
0.0226063
0.0225518
0.0224992
0.0224489
0.0224004
0.0223539
0.0223083
0.0222638
0.0222203
0.0221788
0.0221399
0.0221043
0.0220721
0.0220428
0.0220133
0.0219821
0.0219457
0.0219072
0.0218669
0.0218236
0.0217758
0.0217289
0.0216839
0.0216476
0.0216108
0.0583081
0.0435282
0.0431019
0.0433027
0.0433545
0.0434045
0.0434082
0.0433825
0.0433276
0.0432495
0.0431546
0.0430487
0.0429366
0.0428236
0.0427145
0.0426111
0.0425163
0.0424291
0.0423486
0.0422726
0.0421988
0.0421247
0.0420481
0.0419667
0.0418788
0.0417838
0.0416817
0.041573
0.0414585
0.0413388
0.0412145
0.0410855
0.0409517
0.0408126
0.0406674
0.0405151
0.0403545
0.0401841
0.0400026
0.039808
0.0395984
0.0393717
0.0391251
0.0388558
0.03856
0.0382331
0.0378692
0.0374601
0.0369901
0.0364356
0.0357857
0.0350724
0.0343506
0.0336632
0.0330272
0.0324416
0.0318961
0.0313802
0.0308843
0.030405
0.0299388
0.0294817
0.0290301
0.0285843
0.0281485
0.0277286
0.0273294
0.0269531
0.0266006
0.0262723
0.0259681
0.0256878
0.0254312
0.025198
0.0249864
0.0247951
0.024619
0.0244553
0.0243009
0.0241507
0.0240067
0.0238757
0.0237581
0.0236482
0.0235459
0.023447
0.0233513
0.0232583
0.0231693
0.023085
0.023006
0.0229318
0.0228609
0.0227925
0.0227262
0.022663
0.0226029
0.0225453
0.02249
0.0224373
0.0223876
0.0223405
0.0222949
0.0222507
0.0222081
0.0221677
0.0221301
0.0220958
0.0220648
0.0220368
0.0220086
0.0219789
0.0219437
0.0219062
0.0218664
0.0218231
0.021775
0.0217275
0.0216817
0.0216444
0.0216068
0.0583231
0.0435284
0.0430819
0.0432875
0.0433417
0.0433932
0.0433995
0.0433758
0.0433224
0.0432455
0.0431518
0.043047
0.0429359
0.0428237
0.0427152
0.0426123
0.0425178
0.0424307
0.04235
0.0422737
0.0421992
0.0421244
0.0420468
0.0419646
0.0418759
0.0417802
0.0416774
0.041568
0.0414529
0.0413327
0.0412078
0.0410783
0.0409439
0.0408041
0.0406581
0.0405049
0.0403433
0.0401718
0.0399888
0.0397927
0.0395812
0.0393521
0.0391026
0.0388297
0.0385294
0.0381969
0.0378262
0.0374078
0.0369251
0.0363586
0.0357108
0.0350187
0.0343289
0.0336732
0.0330627
0.0324945
0.0319608
0.0314518
0.030962
0.0304873
0.0300245
0.0295725
0.0291295
0.0286934
0.028265
0.0278469
0.0274429
0.0270568
0.0266919
0.0263506
0.0260342
0.0257431
0.0254767
0.0252341
0.0250135
0.0248135
0.0246309
0.0244639
0.02431
0.0241661
0.0240311
0.0239019
0.0237824
0.0236679
0.0235592
0.0234544
0.0233545
0.023259
0.0231696
0.023086
0.0230087
0.0229355
0.0228649
0.0227967
0.0227315
0.0226697
0.0226103
0.0225529
0.0224971
0.0224437
0.0223927
0.0223436
0.0222959
0.0222499
0.0222058
0.0221641
0.0221253
0.0220898
0.0220575
0.0220281
0.0219987
0.0219677
0.0219314
0.0218925
0.0218516
0.0218076
0.0217591
0.0217113
0.021665
0.0216274
0.0215908
0.0583376
0.0435293
0.0430617
0.0432721
0.0433287
0.0433819
0.0433907
0.043369
0.0433171
0.0432415
0.043149
0.0430453
0.0429351
0.0428237
0.0427159
0.0426135
0.0425193
0.0424323
0.0423515
0.0422748
0.0421997
0.042124
0.0420456
0.0419625
0.041873
0.0417765
0.041673
0.041563
0.0414473
0.0413265
0.0412011
0.041071
0.040936
0.0407956
0.0406488
0.0404947
0.0403321
0.0401594
0.0399752
0.0397774
0.039564
0.0393325
0.0390802
0.0388037
0.038499
0.0381613
0.0377839
0.0373563
0.0368623
0.0362893
0.0356501
0.0349817
0.0343214
0.0336912
0.0331023
0.0325535
0.0320378
0.0315441
0.0310628
0.0305911
0.0301272
0.0296703
0.0292208
0.0287815
0.0283545
0.0279409
0.0275415
0.0271578
0.0267923
0.0264472
0.0261247
0.025826
0.0255513
0.0253007
0.0250724
0.0248646
0.0246727
0.024495
0.0243297
0.0241777
0.0240404
0.0239088
0.0237846
0.0236653
0.0235542
0.0234492
0.0233512
0.0232582
0.0231711
0.0230891
0.0230115
0.0229361
0.0228623
0.0227908
0.0227232
0.0226592
0.0225982
0.0225399
0.0224846
0.0224325
0.0223826
0.0223347
0.0222884
0.022244
0.0222016
0.0221615
0.022124
0.0220895
0.0220578
0.0220288
0.0219995
0.0219686
0.0219321
0.0218927
0.0218513
0.0218069
0.0217576
0.0217091
0.0216619
0.0216234
0.0215848
0.0583516
0.043531
0.0430413
0.0432564
0.0433155
0.0433704
0.0433819
0.043362
0.0433117
0.0432373
0.0431461
0.0430436
0.0429344
0.0428238
0.0427166
0.0426147
0.0425209
0.042434
0.0423531
0.0422759
0.0422002
0.0421237
0.0420444
0.0419604
0.04187
0.0417727
0.0416685
0.0415579
0.0414416
0.0413203
0.0411944
0.0410638
0.0409282
0.0407871
0.0406396
0.0404847
0.040321
0.0401472
0.0399616
0.0397622
0.0395469
0.0393131
0.039058
0.038778
0.0384691
0.0381263
0.0377423
0.037306
0.0368031
0.036229
0.0356021
0.0349555
0.0343204
0.0337177
0.0331555
0.0326284
0.0321269
0.0316414
0.0311675
0.0307039
0.0302469
0.0297939
0.0293431
0.0288958
0.0284569
0.0280317
0.0276236
0.0272346
0.0268657
0.0265178
0.0261913
0.025887
0.0256055
0.0253477
0.0251132
0.0249015
0.0247085
0.0245322
0.0243673
0.0242089
0.0240613
0.0239244
0.0237998
0.0236825
0.0235737
0.0234694
0.0233708
0.0232768
0.0231882
0.023104
0.023023
0.0229448
0.0228694
0.0227974
0.0227284
0.0226621
0.0225984
0.022538
0.0224808
0.0224266
0.0223741
0.0223233
0.0222745
0.022228
0.0221839
0.022142
0.022103
0.0220672
0.0220347
0.022005
0.0219757
0.0219451
0.0219091
0.02187
0.0218287
0.0217841
0.0217344
0.0216855
0.0216378
0.0215989
0.0215605
0.058365
0.0435334
0.0430208
0.0432406
0.0433022
0.0433589
0.043373
0.0433548
0.043306
0.0432331
0.0431432
0.0430419
0.0429337
0.0428238
0.0427173
0.042616
0.0425225
0.0424358
0.0423547
0.0422771
0.0422007
0.0421235
0.0420433
0.0419583
0.0418671
0.0417689
0.041664
0.0415528
0.041436
0.0413141
0.0411877
0.0410566
0.0409205
0.0407787
0.0406305
0.0404747
0.04031
0.040135
0.039948
0.0397471
0.0395299
0.0392939
0.0390359
0.0387526
0.0384397
0.0380919
0.0377016
0.0372577
0.0367496
0.0361788
0.0355657
0.0349409
0.0343329
0.0337576
0.0332134
0.0326966
0.032201
0.0317213
0.0312528
0.0307946
0.0303445
0.0299004
0.0294595
0.0290207
0.0285855
0.0281574
0.0277405
0.0273388
0.0269562
0.0265956
0.0262581
0.0259441
0.0256538
0.0253875
0.0251449
0.0249253
0.0247254
0.0245448
0.0243801
0.024229
0.0240872
0.0239509
0.0238228
0.0236996
0.0235834
0.0234727
0.02337
0.0232734
0.0231829
0.0230961
0.0230119
0.0229308
0.0228544
0.0227831
0.0227164
0.022653
0.0225923
0.0225346
0.0224796
0.0224269
0.0223755
0.0223258
0.0222778
0.0222318
0.0221874
0.0221447
0.0221042
0.0220668
0.0220327
0.0220017
0.0219714
0.02194
0.0219035
0.0218637
0.021822
0.0217775
0.0217278
0.0216788
0.0216306
0.0215924
0.0215542
0.0583778
0.0435364
0.043
0.0432246
0.0432887
0.0433472
0.0433638
0.0433472
0.0433002
0.0432287
0.0431402
0.0430401
0.0429329
0.0428239
0.0427181
0.0426174
0.0425242
0.0424377
0.0423564
0.0422784
0.0422014
0.0421233
0.0420421
0.0419562
0.0418641
0.0417651
0.0416595
0.0415477
0.0414303
0.0413079
0.041181
0.0410494
0.0409128
0.0407704
0.0406214
0.0404648
0.0402991
0.040123
0.0399347
0.0397321
0.0395131
0.0392748
0.0390142
0.0387277
0.038411
0.0380584
0.0376622
0.0372121
0.0367016
0.036137
0.0355402
0.0349395
0.0343558
0.0337987
0.0332677
0.0327623
0.0322783
0.031809
0.031348
0.0308932
0.0304426
0.0299964
0.029555
0.0291193
0.0286904
0.0282696
0.0278582
0.0274587
0.0270741
0.0267076
0.0263618
0.0260387
0.0257392
0.0254642
0.025213
0.0249847
0.0247756
0.024584
0.024406
0.0242423
0.0240923
0.0239526
0.0238223
0.0236983
0.023584
0.023477
0.0233782
0.0232833
0.0231922
0.0231034
0.023017
0.0229346
0.0228581
0.0227866
0.0227183
0.0226523
0.0225886
0.0225278
0.0224697
0.0224139
0.0223608
0.0223105
0.0222632
0.0222182
0.0221742
0.0221315
0.0220911
0.0220539
0.0220205
0.0219904
0.021961
0.0219303
0.0218941
0.0218542
0.0218119
0.0217663
0.0217148
0.0216634
0.0216135
0.021573
0.0215326
0.0583898
0.0435402
0.0429791
0.0432084
0.0432752
0.0433354
0.0433544
0.0433394
0.0432941
0.0432241
0.0431371
0.0430382
0.0429321
0.042824
0.042719
0.0426188
0.0425261
0.0424397
0.0423583
0.0422798
0.0422021
0.0421231
0.042041
0.0419541
0.041861
0.0417613
0.0416549
0.0415425
0.0414246
0.0413017
0.0411743
0.0410423
0.0409051
0.0407621
0.0406125
0.040455
0.0402884
0.0401111
0.0399214
0.0397174
0.0394965
0.0392561
0.0389929
0.0387034
0.038383
0.0380259
0.0376245
0.0371702
0.0366601
0.0361036
0.0355237
0.0349458
0.0343835
0.0338411
0.0333263
0.0328381
0.0323709
0.0319149
0.0314616
0.0310125
0.0305659
0.03012
0.0296738
0.0292297
0.0287918
0.0283642
0.0279498
0.0275499
0.0271659
0.026799
0.0264508
0.0261229
0.0258167
0.0255334
0.0252735
0.0250372
0.0248223
0.0246285
0.0244497
0.0242835
0.0241272
0.0239812
0.023848
0.0237236
0.0236088
0.023498
0.0233932
0.0232931
0.0231988
0.0231081
0.0230218
0.0229405
0.0228654
0.0227948
0.0227269
0.0226612
0.0225975
0.0225365
0.0224775
0.0224204
0.0223652
0.022313
0.0222637
0.0222164
0.0221699
0.0221249
0.0220826
0.0220438
0.0220091
0.0219777
0.0219472
0.0219156
0.021879
0.021839
0.0217971
0.0217518
0.0217008
0.0216503
0.021601
0.021562
0.021524
0.0584012
0.0435446
0.0429581
0.0431921
0.0432615
0.0433235
0.0433447
0.0433312
0.0432877
0.0432194
0.043134
0.0430363
0.0429313
0.0428241
0.0427199
0.0426204
0.0425281
0.0424418
0.0423603
0.0422814
0.0422029
0.042123
0.0420399
0.041952
0.041858
0.0417574
0.0416503
0.0415373
0.0414188
0.0412955
0.0411677
0.0410351
0.0408974
0.0407539
0.0406036
0.0404453
0.0402777
0.0400993
0.0399084
0.0397028
0.0394802
0.0392377
0.0389721
0.0386796
0.0383558
0.0379946
0.0375889
0.0371324
0.0366255
0.0360809
0.0355195
0.0349595
0.034413
0.0338906
0.0333975
0.032924
0.0324631
0.0320092
0.0315597
0.0311167
0.0306778
0.0302407
0.0298031
0.0293642
0.0289261
0.0284923
0.028067
0.0276542
0.027258
0.0268808
0.026524
0.0261882
0.0258743
0.0255831
0.0253149
0.0250702
0.024848
0.0246481
0.024466
0.0243005
0.0241466
0.0240016
0.0238653
0.0237349
0.0236124
0.0234961
0.0233896
0.0232903
0.0231969
0.0231061
0.0230197
0.0229379
0.0228612
0.0227881
0.0227177
0.0226498
0.0225846
0.0225229
0.0224642
0.0224084
0.0223553
0.0223054
0.0222575
0.0222109
0.0221655
0.022122
0.0220812
0.0220437
0.0220098
0.021979
0.0219491
0.0219181
0.021882
0.0218417
0.0217986
0.021752
0.0216996
0.0216475
0.0215964
0.0215549
0.0215138
0.0584113
0.0435498
0.0429371
0.0431757
0.0432478
0.0433114
0.0433349
0.0433229
0.0432812
0.0432145
0.0431306
0.0430344
0.0429305
0.0428243
0.0427209
0.0426221
0.0425302
0.0424441
0.0423624
0.042283
0.0422038
0.042123
0.0420389
0.0419499
0.0418549
0.0417534
0.0416457
0.041532
0.0414131
0.0412893
0.041161
0.041028
0.0408899
0.0407458
0.0405948
0.0404358
0.0402673
0.0400878
0.0398955
0.0396885
0.0394642
0.0392197
0.0389518
0.0386566
0.0383295
0.0379648
0.0375561
0.0370992
0.0365978
0.0360657
0.0355213
0.0349784
0.0344519
0.0339508
0.0334675
0.0329982
0.0325417
0.0320949
0.0316521
0.0312125
0.0307756
0.0303407
0.0299073
0.0294755
0.029046
0.0286202
0.0282
0.0277879
0.0273874
0.0270022
0.0266352
0.0262889
0.0259648
0.0256645
0.0253884
0.0251365
0.0249068
0.0246974
0.0245038
0.0243258
0.0241615
0.0240104
0.0238704
0.0237396
0.0236207
0.0235108
0.0234092
0.0233096
0.0232124
0.0231181
0.02303
0.0229472
0.0228689
0.0227933
0.0227203
0.0226503
0.0225838
0.0225207
0.0224604
0.0224027
0.0223478
0.0222957
0.0222452
0.0221958
0.0221483
0.0221035
0.022062
0.0220239
0.0219897
0.0219588
0.021929
0.0218981
0.0218614
0.0218199
0.0217759
0.0217297
0.0216779
0.0216265
0.0215757
0.0215351
0.0214961
0.0584209
0.0435557
0.042916
0.0431591
0.043234
0.0432992
0.0433249
0.0433143
0.0432745
0.0432095
0.0431272
0.0430324
0.0429297
0.0428245
0.042722
0.0426238
0.0425323
0.0424464
0.0423646
0.0422847
0.0422048
0.042123
0.0420379
0.0419479
0.0418518
0.0417495
0.041641
0.0415267
0.0414073
0.0412831
0.0411544
0.041021
0.0408824
0.0407378
0.0405862
0.0404264
0.040257
0.0400764
0.0398829
0.0396745
0.0394485
0.0392021
0.038932
0.0386343
0.0383043
0.0379368
0.0375264
0.0370713
0.0365771
0.0360572
0.0355282
0.0350041
0.0344974
0.0340082
0.0335319
0.0330746
0.0326322
0.0321991
0.0317659
0.0313318
0.0308973
0.0304608
0.0300226
0.0295846
0.0291501
0.0287224
0.0283036
0.0278949
0.0274977
0.0271138
0.0267456
0.0263954
0.0260651
0.0257566
0.0254714
0.0252098
0.0249708
0.0247542
0.0245557
0.024375
0.0242067
0.024051
0.0239065
0.0237717
0.0236468
0.0235277
0.0234158
0.0233079
0.0232059
0.0231099
0.023022
0.0229393
0.0228607
0.022785
0.0227133
0.0226455
0.0225814
0.0225203
0.0224614
0.0224054
0.0223521
0.0223008
0.0222502
0.0222005
0.0221528
0.0221076
0.0220653
0.0220262
0.0219909
0.0219592
0.0219287
0.0218967
0.0218595
0.0218182
0.0217754
0.0217299
0.0216778
0.0216254
0.0215733
0.0215312
0.0214893
0.0584288
0.0435624
0.0428951
0.0431425
0.04322
0.0432868
0.0433147
0.0433057
0.0432677
0.0432043
0.0431237
0.0430303
0.0429289
0.0428248
0.0427231
0.0426257
0.0425346
0.0424488
0.0423668
0.0422865
0.0422058
0.0421231
0.0420369
0.0419458
0.0418488
0.0417455
0.0416362
0.0415214
0.0414015
0.0412769
0.0411478
0.041014
0.0408749
0.0407298
0.0405776
0.0404171
0.0402469