/*--------------------------------*- C++ -*----------------------------------*\
| =========                 |                                                 |
| \\      /  F ield         | OpenFOAM: The Open Source CFD Toolbox           |
|  \\    /   O peration     | Version:  2412                                  |
|   \\  /    A nd           | Website:  www.openfoam.com                      |
|    \\/     M anipulation  |                                                 |
\*---------------------------------------------------------------------------*/
FoamFile
{
    version     2.0;
    format      ascii;
    arch        "LSB;label=32;scalar=64";
    class       volVectorField;
    location    "0.068";
    object      U;
}
// * * * * * * * * * * * * * * * * * * * * * * * * * * * * * * * * * * * * * //

dimensions      [0 1 -1 0 0 0 0];

internalField   nonuniform List<vector> 
9922
(
(168.694 103.517 0)
(163.057 13.4404 0)
(175.828 3.2299 0)
(186.259 3.50774 0)
(193.588 0.111522 0)
(197.578 -1.4887 0)
(198.816 -3.29576 0)
(199.362 -4.62609 0)
(200.025 -5.65817 0)
(200.8 -6.61458 0)
(201.689 -7.50298 0)
(202.691 -8.3038 0)
(203.675 -9.07031 0)
(204.615 -9.80247 0)
(205.622 -10.4542 0)
(206.563 -11.1119 0)
(207.486 -11.7377 0)
(208.354 -12.3567 0)
(209.187 -12.9468 0)
(209.989 -13.5023 0)
(210.777 -14.0087 0)
(211.565 -14.4608 0)
(212.371 -14.8556 0)
(213.209 -15.1949 0)
(214.093 -15.4825 0)
(215.03 -15.7259 0)
(216.02 -15.9326 0)
(217.063 -16.1124 0)
(218.155 -16.2749 0)
(219.291 -16.4311 0)
(220.469 -16.5906 0)
(221.688 -16.7627 0)
(222.95 -16.9551 0)
(224.257 -17.1756 0)
(225.614 -17.4306 0)
(227.027 -17.7258 0)
(228.501 -18.0665 0)
(230.041 -18.4568 0)
(231.653 -18.9004 0)
(233.343 -19.4009 0)
(235.114 -19.9632 0)
(236.972 -20.5924 0)
(238.92 -21.2931 0)
(240.962 -22.0702 0)
(243.103 -22.9299 0)
(245.347 -23.8787 0)
(247.7 -24.9239 0)
(250.169 -26.0741 0)
(252.763 -27.3393 0)
(255.501 -28.7281 0)
(258.411 -30.2485 0)
(261.507 -31.9212 0)
(264.772 -33.7853 0)
(268.394 -35.8292 0)
(273.493 -37.7916 0)
(284.031 -39.087 0)
(298.672 -38.4072 0)
(311.887 -36.7655 0)
(320.619 -35.873 0)
(326.293 -36.0031 0)
(330.775 -36.6766 0)
(334.801 -37.6375 0)
(338.308 -38.582 0)
(341.632 -39.596 0)
(344.674 -40.6153 0)
(347.332 -41.5194 0)
(349.853 -42.3683 0)
(352.198 -43.1328 0)
(354.297 -43.7893 0)
(356.178 -44.3436 0)
(357.935 -44.8178 0)
(359.595 -45.2504 0)
(361.156 -45.6389 0)
(362.569 -45.9713 0)
(363.869 -46.2159 0)
(365.075 -46.4401 0)
(366.196 -46.6341 0)
(367.278 -46.8259 0)
(368.322 -46.9953 0)
(369.316 -47.1371 0)
(370.259 -47.2888 0)
(371.157 -47.4006 0)
(372.017 -47.5316 0)
(372.851 -47.6045 0)
(373.654 -47.7185 0)
(374.422 -47.7778 0)
(375.132 -47.8881 0)
(375.812 -47.9297 0)
(376.458 -48.0261 0)
(377.092 -48.0583 0)
(377.696 -48.1515 0)
(378.293 -48.1776 0)
(378.865 -48.2629 0)
(379.431 -48.2897 0)
(379.972 -48.3795 0)
(380.507 -48.412 0)
(381.01 -48.4973 0)
(381.489 -48.5262 0)
(381.918 -48.6093 0)
(382.314 -48.6371 0)
(382.669 -48.7037 0)
(383.009 -48.7061 0)
(383.333 -48.7513 0)
(383.665 -48.7638 0)
(383.995 -48.8257 0)
(384.331 -48.8586 0)
(384.652 -48.9172 0)
(384.943 -48.9486 0)
(385.181 -48.9873 0)
(385.354 -49.0097 0)
(385.445 -49.0204 0)
(385.442 -49.0341 0)
(385.37 -49.005 0)
(385.274 -49.0255 0)
(385.259 -48.9978 0)
(385.4 -49.0229 0)
(385.765 -49.043 0)
(386.324 -49.1105 0)
(386.985 -49.1908 0)
(387.656 -49.3015 0)
(388.029 -49.0463 0)
(168.48 103.506 0)
(163.149 13.2229 0)
(175.939 3.12911 0)
(186.356 3.47998 0)
(193.688 0.0945882 0)
(197.661 -1.49498 0)
(198.889 -3.28638 0)
(199.418 -4.61021 0)
(200.07 -5.63816 0)
(200.838 -6.58968 0)
(201.72 -7.47428 0)
(202.717 -8.27187 0)
(203.697 -9.03552 0)
(204.632 -9.76615 0)
(205.635 -10.417 0)
(206.573 -11.0743 0)
(207.494 -11.7001 0)
(208.362 -12.3194 0)
(209.195 -12.9099 0)
(209.999 -13.4653 0)
(210.789 -13.9713 0)
(211.58 -14.4222 0)
(212.389 -14.8151 0)
(213.231 -15.1515 0)
(214.119 -15.4355 0)
(215.06 -15.6747 0)
(216.056 -15.8769 0)
(217.104 -16.0521 0)
(218.2 -16.2098 0)
(219.342 -16.3612 0)
(220.525 -16.5156 0)
(221.751 -16.6823 0)
(223.019 -16.8686 0)
(224.334 -17.0823 0)
(225.699 -17.3295 0)
(227.12 -17.6158 0)
(228.604 -17.9464 0)
(230.156 -18.3255 0)
(231.782 -18.7567 0)
(233.488 -19.2437 0)
(235.28 -19.7913 0)
(237.162 -20.4046 0)
(239.141 -21.0882 0)
(241.221 -21.847 0)
(243.407 -22.6872 0)
(245.709 -23.6153 0)
(248.133 -24.6386 0)
(250.692 -25.7658 0)
(253.402 -27.0064 0)
(256.292 -28.3686 0)
(259.395 -29.8613 0)
(262.717 -31.5072 0)
(266.327 -33.3299 0)
(270.794 -35.2358 0)
(277.994 -36.8538 0)
(289.943 -37.2475 0)
(303.151 -36.1377 0)
(313.651 -34.9046 0)
(320.819 -34.4939 0)
(326.022 -34.8294 0)
(330.351 -35.5745 0)
(334.207 -36.4868 0)
(337.949 -37.5948 0)
(341.273 -38.663 0)
(344.289 -39.6597 0)
(347.122 -40.6367 0)
(349.643 -41.496 0)
(351.917 -42.2744 0)
(354.021 -42.9702 0)
(355.987 -43.5702 0)
(357.799 -44.0831 0)
(359.453 -44.538 0)
(360.978 -44.904 0)
(362.426 -45.2496 0)
(363.781 -45.5391 0)
(365.053 -45.8103 0)
(366.265 -46.0491 0)
(367.391 -46.2532 0)
(368.441 -46.4244 0)
(369.436 -46.5517 0)
(370.384 -46.7016 0)
(371.292 -46.8013 0)
(372.148 -46.9409 0)
(372.958 -47.0087 0)
(373.71 -47.1366 0)
(374.436 -47.1828 0)
(375.131 -47.2974 0)
(375.812 -47.3173 0)
(376.453 -47.4146 0)
(377.081 -47.43 0)
(377.671 -47.5313 0)
(378.255 -47.5451 0)
(378.807 -47.6406 0)
(379.356 -47.6583 0)
(379.876 -47.753 0)
(380.394 -47.7618 0)
(380.888 -47.835 0)
(381.38 -47.838 0)
(381.839 -47.9155 0)
(382.284 -47.9251 0)
(382.697 -47.9953 0)
(383.097 -48.0001 0)
(383.467 -48.0681 0)
(383.833 -48.0893 0)
(384.186 -48.1659 0)
(384.539 -48.1937 0)
(384.869 -48.2538 0)
(385.169 -48.2744 0)
(385.411 -48.3119 0)
(385.587 -48.3227 0)
(385.674 -48.33 0)
(385.665 -48.3302 0)
(385.576 -48.2957 0)
(385.457 -48.3032 0)
(385.41 -48.2677 0)
(385.519 -48.2859 0)
(385.851 -48.3024 0)
(386.388 -48.366 0)
(387.041 -48.4375 0)
(387.708 -48.5405 0)
(388.075 -48.2817 0)
(168.263 103.492 0)
(163.237 13.0005 0)
(176.051 3.02613 0)
(186.454 3.45069 0)
(193.79 0.0763613 0)
(197.747 -1.503 0)
(198.963 -3.27919 0)
(199.474 -4.59501 0)
(200.116 -5.61717 0)
(200.876 -6.56311 0)
(201.751 -7.44396 0)
(202.741 -8.23872 0)
(203.718 -8.99996 0)
(204.649 -9.72928 0)
(205.649 -10.3792 0)
(206.585 -11.0367 0)
(207.505 -11.6629 0)
(208.373 -12.2826 0)
(209.207 -12.8735 0)
(210.012 -13.429 0)
(210.804 -13.9345 0)
(211.598 -14.3844 0)
(212.411 -14.7753 0)
(213.257 -15.1089 0)
(214.15 -15.3892 0)
(215.096 -15.6242 0)
(216.096 -15.822 0)
(217.15 -15.9926 0)
(218.252 -16.1457 0)
(219.399 -16.2924 0)
(220.589 -16.4419 0)
(221.821 -16.6032 0)
(223.097 -16.7837 0)
(224.419 -16.9908 0)
(225.793 -17.2304 0)
(227.223 -17.5081 0)
(228.718 -17.829 0)
(230.282 -18.1972 0)
(231.923 -18.6164 0)
(233.647 -19.0903 0)
(235.461 -19.6236 0)
(237.371 -20.2215 0)
(239.382 -20.8884 0)
(241.501 -21.6293 0)
(243.736 -22.4502 0)
(246.097 -23.3576 0)
(248.597 -24.3587 0)
(251.25 -25.4618 0)
(254.081 -26.6753 0)
(257.128 -28.006 0)
(260.425 -29.4647 0)
(264 -31.078 0)
(268.054 -32.8312 0)
(273.485 -34.4772 0)
(282.567 -35.5769 0)
(294.31 -35.2936 0)
(305.714 -34.1609 0)
(314.488 -33.2951 0)
(320.742 -33.2063 0)
(325.578 -33.679 0)
(329.816 -34.4369 0)
(333.789 -35.4169 0)
(337.342 -36.4607 0)
(340.784 -37.6116 0)
(343.952 -38.7596 0)
(346.808 -39.7933 0)
(349.423 -40.7212 0)
(351.807 -41.5397 0)
(353.961 -42.2411 0)
(355.892 -42.8344 0)
(357.667 -43.3569 0)
(359.32 -43.8304 0)
(360.862 -44.2278 0)
(362.313 -44.5925 0)
(363.696 -44.8838 0)
(364.989 -45.1642 0)
(366.185 -45.3905 0)
(367.32 -45.5963 0)
(368.402 -45.7903 0)
(369.426 -45.9391 0)
(370.39 -46.0989 0)
(371.305 -46.1924 0)
(372.17 -46.3364 0)
(373.002 -46.4098 0)
(373.788 -46.5589 0)
(374.55 -46.606 0)
(375.269 -46.7225 0)
(375.972 -46.7311 0)
(376.624 -46.8341 0)
(377.263 -46.8465 0)
(377.859 -46.9546 0)
(378.449 -46.9627 0)
(379.006 -47.0598 0)
(379.559 -47.0635 0)
(380.08 -47.1476 0)
(380.589 -47.139 0)
(381.05 -47.2085 0)
(381.488 -47.2022 0)
(381.885 -47.2776 0)
(382.275 -47.2758 0)
(382.642 -47.3409 0)
(383.011 -47.3329 0)
(383.357 -47.3975 0)
(383.708 -47.4069 0)
(384.054 -47.4718 0)
(384.406 -47.4788 0)
(384.74 -47.5238 0)
(385.051 -47.5286 0)
(385.306 -47.5603 0)
(385.498 -47.5622 0)
(385.606 -47.5674 0)
(385.619 -47.5618 0)
(385.553 -47.5283 0)
(385.459 -47.5408 0)
(385.44 -47.5093 0)
(385.574 -47.533 0)
(385.931 -47.5609 0)
(386.491 -47.6294 0)
(387.156 -47.7052 0)
(387.822 -47.806 0)
(388.19 -47.5558 0)
(168.041 103.474 0)
(163.326 12.7741 0)
(176.164 2.92096 0)
(186.553 3.41976 0)
(193.893 0.057079 0)
(197.834 -1.51035 0)
(199.038 -3.27079 0)
(199.532 -4.57902 0)
(200.163 -5.5968 0)
(200.916 -6.5377 0)
(201.784 -7.41454 0)
(202.768 -8.20587 0)
(203.74 -8.96411 0)
(204.666 -9.69184 0)
(205.663 -10.3409 0)
(206.595 -10.9979 0)
(207.513 -11.6241 0)
(208.38 -12.2442 0)
(209.215 -12.8354 0)
(210.021 -13.3908 0)
(210.816 -13.8959 0)
(211.613 -14.3446 0)
(212.429 -14.7334 0)
(213.279 -15.0641 0)
(214.176 -15.3407 0)
(215.127 -15.5715 0)
(216.132 -15.7647 0)
(217.19 -15.9306 0)
(218.297 -16.0788 0)
(219.45 -16.2207 0)
(220.646 -16.3649 0)
(221.884 -16.5207 0)
(223.166 -16.695 0)
(224.496 -16.8952 0)
(225.877 -17.127 0)
(227.316 -17.3955 0)
(228.82 -17.706 0)
(230.396 -18.0627 0)
(232.051 -18.469 0)
(233.791 -18.9286 0)
(235.625 -19.4463 0)
(237.559 -20.0271 0)
(239.6 -20.6754 0)
(241.757 -21.396 0)
(244.039 -22.1948 0)
(246.458 -23.0781 0)
(249.029 -24.0526 0)
(251.775 -25.1261 0)
(254.728 -26.3057 0)
(257.934 -27.598 0)
(261.436 -29.0171 0)
(265.312 -30.5806 0)
(269.931 -32.2045 0)
(276.441 -33.4978 0)
(286.268 -34.0236 0)
(297.446 -33.4157 0)
(307.352 -32.422 0)
(314.798 -31.8701 0)
(320.476 -31.9814 0)
(325.251 -32.5745 0)
(329.473 -33.3997 0)
(333.277 -34.3252 0)
(336.921 -35.4072 0)
(340.225 -36.5168 0)
(343.339 -37.6472 0)
(346.281 -38.735 0)
(348.989 -39.7496 0)
(351.438 -40.6502 0)
(353.675 -41.431 0)
(355.746 -42.1366 0)
(357.617 -42.717 0)
(359.32 -43.2073 0)
(360.877 -43.602 0)
(362.303 -43.9543 0)
(363.627 -44.2396 0)
(364.892 -44.5296 0)
(366.093 -44.7665 0)
(367.231 -44.9816 0)
(368.308 -45.1665 0)
(369.329 -45.3077 0)
(370.292 -45.4645 0)
(371.203 -45.5713 0)
(372.063 -45.7306 0)
(372.889 -45.8122 0)
(373.672 -45.9587 0)
(374.438 -45.9929 0)
(375.162 -46.1001 0)
(375.867 -46.1027 0)
(376.517 -46.2095 0)
(377.152 -46.2172 0)
(377.747 -46.3212 0)
(378.339 -46.3214 0)
(378.901 -46.4157 0)
(379.472 -46.4092 0)
(380.02 -46.4854 0)
(380.568 -46.4717 0)
(381.076 -46.5467 0)
(381.573 -46.5455 0)
(382.025 -46.6241 0)
(382.46 -46.6218 0)
(382.852 -46.688 0)
(383.231 -46.6819 0)
(383.576 -46.7458 0)
(383.921 -46.7447 0)
(384.255 -46.7975 0)
(384.592 -46.7912 0)
(384.904 -46.8286 0)
(385.188 -46.827 0)
(385.414 -46.8576 0)
(385.575 -46.8566 0)
(385.647 -46.8618 0)
(385.625 -46.8527 0)
(385.526 -46.8231 0)
(385.401 -46.8312 0)
(385.355 -46.8051 0)
(385.474 -46.8221 0)
(385.821 -46.8446 0)
(386.372 -46.9121 0)
(387.036 -46.9826 0)
(387.705 -47.0756 0)
(388.069 -46.8187 0)
(167.815 103.453 0)
(163.412 12.5425 0)
(176.277 2.8136 0)
(186.654 3.38712 0)
(193.999 0.0363602 0)
(197.922 -1.51926 0)
(199.114 -3.26439 0)
(199.59 -4.56354 0)
(200.211 -5.57542 0)
(200.956 -6.51059 0)
(201.816 -7.38347 0)
(202.793 -8.17177 0)
(203.761 -8.92748 0)
(204.684 -9.65388 0)
(205.677 -10.3021 0)
(206.607 -10.9592 0)
(207.524 -11.5858 0)
(208.391 -12.2062 0)
(209.226 -12.7978 0)
(210.034 -13.3532 0)
(210.832 -13.8578 0)
(211.632 -14.3054 0)
(212.451 -14.6923 0)
(213.306 -15.02 0)
(214.208 -15.2929 0)
(215.163 -15.5195 0)
(216.173 -15.7082 0)
(217.236 -15.8693 0)
(218.349 -16.0128 0)
(219.508 -16.1499 0)
(220.709 -16.2891 0)
(221.954 -16.4394 0)
(223.243 -16.6077 0)
(224.58 -16.8013 0)
(225.97 -17.0253 0)
(227.419 -17.285 0)
(228.934 -17.5856 0)
(230.522 -17.931 0)
(232.191 -18.3248 0)
(233.95 -18.7705 0)
(235.805 -19.273 0)
(237.765 -19.837 0)
(239.839 -20.467 0)
(242.035 -21.1677 0)
(244.366 -21.9446 0)
(246.846 -22.8036 0)
(249.494 -23.7511 0)
(252.338 -24.7936 0)
(255.417 -25.9362 0)
(258.781 -27.1848 0)
(262.483 -28.5523 0)
(266.674 -30.0347 0)
(271.931 -31.4656 0)
(279.609 -32.4213 0)
(289.431 -32.4287 0)
(299.571 -31.6853 0)
(308.154 -30.8872 0)
(314.825 -30.5688 0)
(320.106 -30.8119 0)
(324.659 -31.4256 0)
(328.87 -32.2787 0)
(332.849 -33.3345 0)
(336.461 -34.4074 0)
(339.87 -35.5447 0)
(343.016 -36.6613 0)
(345.894 -37.7338 0)
(348.575 -38.7576 0)
(351.075 -39.7004 0)
(353.359 -40.5391 0)
(355.413 -41.2573 0)
(357.313 -41.8697 0)
(359.079 -42.4081 0)
(360.723 -42.8634 0)
(362.255 -43.2939 0)
(363.664 -43.6328 0)
(364.964 -43.9352 0)
(366.167 -44.1618 0)
(367.293 -44.371 0)
(368.365 -44.5495 0)
(369.391 -44.6993 0)
(370.371 -44.8671 0)
(371.308 -44.9904 0)
(372.19 -45.1502 0)
(373.032 -45.2227 0)
(373.831 -45.3555 0)
(374.608 -45.3883 0)
(375.333 -45.5077 0)
(376.026 -45.5251 0)
(376.662 -45.6354 0)
(377.283 -45.6331 0)
(377.864 -45.7241 0)
(378.44 -45.7133 0)
(378.981 -45.8002 0)
(379.523 -45.788 0)
(380.032 -45.8666 0)
(380.54 -45.859 0)
(381.01 -45.9421 0)
(381.473 -45.9356 0)
(381.905 -45.9948 0)
(382.337 -45.9667 0)
(382.738 -46.0125 0)
(383.139 -45.9933 0)
(383.516 -46.0492 0)
(383.899 -46.0411 0)
(384.269 -46.0899 0)
(384.641 -46.0834 0)
(384.983 -46.1243 0)
(385.298 -46.1266 0)
(385.551 -46.1618 0)
(385.737 -46.1634 0)
(385.833 -46.1719 0)
(385.83 -46.1628 0)
(385.745 -46.1296 0)
(385.629 -46.1412 0)
(385.587 -46.1075 0)
(385.705 -46.1249 0)
(386.054 -46.1446 0)
(386.608 -46.2134 0)
(387.274 -46.2879 0)
(387.948 -46.3834 0)
(388.313 -46.1238 0)
(167.585 103.428 0)
(163.499 12.3069 0)
(176.39 2.70409 0)
(186.757 3.35271 0)
(194.106 0.0144687 0)
(198.012 -1.52762 0)
(199.192 -3.25718 0)
(199.65 -4.54753 0)
(200.26 -5.55476 0)
(200.999 -6.48471 0)
(201.849 -7.35334 0)
(202.821 -8.13799 0)
(203.784 -8.89053 0)
(204.701 -9.61528 0)
(205.69 -10.2626 0)
(206.617 -10.9192 0)
(207.532 -11.5458 0)
(208.398 -12.1665 0)
(209.234 -12.7584 0)
(210.044 -13.3138 0)
(210.843 -13.8178 0)
(211.646 -14.2642 0)
(212.47 -14.649 0)
(213.328 -14.9737 0)
(214.234 -15.2429 0)
(215.194 -15.4651 0)
(216.209 -15.6491 0)
(217.277 -15.8054 0)
(218.395 -15.944 0)
(219.559 -16.0761 0)
(220.766 -16.21 0)
(222.016 -16.3546 0)
(223.312 -16.5167 0)
(224.656 -16.7032 0)
(226.054 -16.9193 0)
(227.512 -17.1697 0)
(229.036 -17.4597 0)
(230.635 -17.7932 0)
(232.318 -18.1734 0)
(234.092 -18.6043 0)
(235.967 -19.0901 0)
(237.951 -19.6359 0)
(240.055 -20.2456 0)
(242.289 -20.924 0)
(244.666 -21.676 0)
(247.204 -22.5074 0)
(249.926 -23.4235 0)
(252.865 -24.4291 0)
(256.067 -25.5282 0)
(259.589 -26.7274 0)
(263.504 -28.0354 0)
(268.044 -29.4054 0)
(273.921 -30.5674 0)
(282.204 -31.1295 0)
(291.808 -30.8508 0)
(301.014 -30.1053 0)
(308.626 -29.4836 0)
(314.647 -29.3465 0)
(319.656 -29.6731 0)
(324.15 -30.3132 0)
(328.282 -31.1656 0)
(332.132 -32.1666 0)
(335.871 -33.3362 0)
(339.337 -34.5503 0)
(342.554 -35.7278 0)
(345.55 -36.8525 0)
(348.289 -37.876 0)
(350.789 -38.811 0)
(353.085 -39.6604 0)
(355.199 -40.4204 0)
(357.12 -41.0752 0)
(358.878 -41.6501 0)
(360.502 -42.1281 0)
(362.027 -42.5591 0)
(363.462 -42.8958 0)
(364.819 -43.223 0)
(366.092 -43.4868 0)
(367.288 -43.7529 0)
(368.4 -43.9714 0)
(369.436 -44.1442 0)
(370.402 -44.2939 0)
(371.31 -44.3919 0)
(372.179 -44.5292 0)
(373.026 -44.5955 0)
(373.834 -44.7225 0)
(374.611 -44.7615 0)
(375.327 -44.8886 0)
(376.014 -44.9167 0)
(376.66 -45.0304 0)
(377.299 -45.0269 0)
(377.903 -45.1145 0)
(378.508 -45.102 0)
(379.081 -45.1866 0)
(379.658 -45.1741 0)
(380.197 -45.2536 0)
(380.729 -45.2451 0)
(381.218 -45.3185 0)
(381.691 -45.2997 0)
(382.114 -45.3531 0)
(382.517 -45.3246 0)
(382.877 -45.3725 0)
(383.232 -45.3521 0)
(383.569 -45.4053 0)
(383.915 -45.3916 0)
(384.255 -45.4351 0)
(384.605 -45.4231 0)
(384.93 -45.4615 0)
(385.228 -45.4599 0)
(385.466 -45.4926 0)
(385.64 -45.4898 0)
(385.726 -45.4953 0)
(385.715 -45.4782 0)
(385.625 -45.4398 0)
(385.507 -45.4377 0)
(385.467 -45.4005 0)
(385.592 -45.4115 0)
(385.95 -45.4245 0)
(386.513 -45.4864 0)
(387.182 -45.5534 0)
(387.857 -45.6488 0)
(388.222 -45.3899 0)
(167.35 103.399 0)
(163.582 12.0661 0)
(176.504 2.59241 0)
(186.861 3.31643 0)
(194.215 -0.00894119 0)
(198.104 -1.53754 0)
(199.271 -3.25182 0)
(199.711 -4.53184 0)
(200.311 -5.53303 0)
(201.041 -6.45711 0)
(201.882 -7.32155 0)
(202.847 -8.10295 0)
(203.806 -8.85282 0)
(204.719 -9.57623 0)
(205.705 -10.2227 0)
(206.629 -10.8793 0)
(207.542 -11.5063 0)
(208.408 -12.1273 0)
(209.245 -12.7194 0)
(210.057 -13.2748 0)
(210.859 -13.7784 0)
(211.665 -14.2236 0)
(212.492 -14.6064 0)
(213.355 -14.9281 0)
(214.266 -15.1935 0)
(215.23 -15.4113 0)
(216.251 -15.5907 0)
(217.324 -15.7422 0)
(218.447 -15.876 0)
(219.616 -16.0032 0)
(220.829 -16.1319 0)
(222.086 -16.271 0)
(223.389 -16.4269 0)
(224.741 -16.6067 0)
(226.147 -16.8149 0)
(227.614 -17.0563 0)
(229.149 -17.336 0)
(230.761 -17.6578 0)
(232.458 -18.0251 0)
(234.25 -18.4413 0)
(236.146 -18.9109 0)
(238.156 -19.4386 0)
(240.292 -20.0285 0)
(242.565 -20.6847 0)
(244.991 -21.412 0)
(247.591 -22.2155 0)
(250.39 -23.0992 0)
(253.429 -24.0665 0)
(256.757 -25.1195 0)
(260.433 -26.2633 0)
(264.564 -27.4931 0)
(269.492 -28.7124 0)
(276.061 -29.5945 0)
(284.522 -29.7986 0)
(293.594 -29.3425 0)
(301.881 -28.6519 0)
(308.772 -28.1801 0)
(314.429 -28.1682 0)
(319.292 -28.574 0)
(323.647 -29.2237 0)
(327.714 -30.0623 0)
(331.578 -31.0705 0)
(335.172 -32.1846 0)
(338.644 -33.3906 0)
(341.953 -34.6378 0)
(345.026 -35.8488 0)
(347.881 -36.9922 0)
(350.499 -38.0262 0)
(352.884 -38.9356 0)
(355.051 -39.7241 0)
(357.02 -40.3923 0)
(358.816 -40.9685 0)
(360.458 -41.4425 0)
(361.968 -41.874 0)
(363.368 -42.2236 0)
(364.689 -42.57 0)
(365.943 -42.8336 0)
(367.134 -43.0901 0)
(368.249 -43.2959 0)
(369.291 -43.4776 0)
(370.271 -43.6379 0)
(371.202 -43.7552 0)
(372.093 -43.8996 0)
(372.952 -43.9742 0)
(373.764 -44.1062 0)
(374.541 -44.1586 0)
(375.263 -44.2947 0)
(375.958 -44.3263 0)
(376.611 -44.4327 0)
(377.251 -44.4236 0)
(377.849 -44.5115 0)
(378.444 -44.5001 0)
(379.003 -44.5841 0)
(379.564 -44.5695 0)
(380.092 -44.6476 0)
(380.625 -44.6286 0)
(381.132 -44.682 0)
(381.643 -44.6467 0)
(382.111 -44.6986 0)
(382.563 -44.6761 0)
(382.971 -44.7313 0)
(383.367 -44.7158 0)
(383.735 -44.7704 0)
(384.11 -44.756 0)
(384.469 -44.7989 0)
(384.834 -44.7863 0)
(385.168 -44.8232 0)
(385.476 -44.8154 0)
(385.72 -44.8417 0)
(385.899 -44.8296 0)
(385.982 -44.8289 0)
(385.964 -44.8024 0)
(385.858 -44.7597 0)
(385.718 -44.7521 0)
(385.654 -44.7113 0)
(385.758 -44.7195 0)
(386.102 -44.7292 0)
(386.657 -44.7876 0)
(387.327 -44.8441 0)
(388.004 -44.9343 0)
(388.371 -44.6739 0)
(167.112 103.366 0)
(163.665 11.8211 0)
(176.619 2.47866 0)
(186.966 3.27816 0)
(194.325 -0.0336145 0)
(198.198 -1.54726 0)
(199.352 -3.24627 0)
(199.775 -4.51598 0)
(200.364 -5.51217 0)
(201.085 -6.43081 0)
(201.918 -7.29072 0)
(202.875 -8.06823 0)
(203.83 -8.81476 0)
(204.737 -9.53644 0)
(205.718 -10.182 0)
(206.639 -10.8381 0)
(207.549 -11.465 0)
(208.415 -12.0862 0)
(209.252 -12.6786 0)
(210.066 -13.2339 0)
(210.871 -13.737 0)
(211.68 -14.1809 0)
(212.511 -14.5615 0)
(213.378 -14.8802 0)
(214.293 -15.1417 0)
(215.262 -15.3552 0)
(216.287 -15.5298 0)
(217.365 -15.6763 0)
(218.493 -15.8052 0)
(219.667 -15.9273 0)
(220.886 -16.0506 0)
(222.148 -16.1838 0)
(223.457 -16.3334 0)
(224.816 -16.506 0)
(226.23 -16.706 0)
(227.706 -16.938 0)
(229.25 -17.2068 0)
(230.873 -17.5164 0)
(232.583 -17.8697 0)
(234.391 -18.2703 0)
(236.306 -18.7223 0)
(238.34 -19.2305 0)
(240.505 -19.7985 0)
(242.815 -20.4301 0)
(245.288 -21.1298 0)
(247.945 -21.9019 0)
(250.819 -22.7488 0)
(253.952 -23.6721 0)
(257.398 -24.6731 0)
(261.227 -25.7538 0)
(265.594 -26.8891 0)
(270.94 -27.9224 0)
(278.011 -28.5182 0)
(286.347 -28.4501 0)
(294.828 -27.9108 0)
(302.387 -27.3001 0)
(308.704 -26.9542 0)
(314.006 -27.0246 0)
(318.737 -27.4631 0)
(323.141 -28.1842 0)
(327.232 -29.0727 0)
(331.052 -30.0519 0)
(334.705 -31.1587 0)
(338.116 -32.3149 0)
(341.336 -33.5182 0)
(344.401 -34.7226 0)
(347.277 -35.879 0)
(349.951 -36.9588 0)
(352.416 -37.9369 0)
(354.675 -38.8068 0)
(356.736 -39.5592 0)
(358.617 -40.2127 0)
(360.337 -40.7557 0)
(361.92 -41.2385 0)
(363.372 -41.6068 0)
(364.714 -41.9458 0)
(365.959 -42.1935 0)
(367.134 -42.4427 0)
(368.249 -42.6454 0)
(369.312 -42.8381 0)
(370.331 -43.0211 0)
(371.312 -43.1716 0)
(372.235 -43.3402 0)
(373.105 -43.425 0)
(373.918 -43.5569 0)
(374.697 -43.6032 0)
(375.428 -43.7276 0)
(376.139 -43.7451 0)
(376.805 -43.8443 0)
(377.456 -43.8347 0)
(378.058 -43.926 0)
(378.657 -43.9126 0)
(379.218 -43.993 0)
(379.774 -43.9728 0)
(380.287 -44.0448 0)
(380.79 -44.016 0)
(381.251 -44.0684 0)
(381.704 -44.0364 0)
(382.116 -44.0957 0)
(382.522 -44.075 0)
(382.899 -44.1301 0)
(383.276 -44.1083 0)
(383.633 -44.152 0)
(384.004 -44.1228 0)
(384.363 -44.1542 0)
(384.732 -44.132 0)
(385.075 -44.1617 0)
(385.397 -44.1431 0)
(385.659 -44.1597 0)
(385.861 -44.1363 0)
(385.971 -44.1299 0)
(385.982 -44.0985 0)
(385.902 -44.0583 0)
(385.788 -44.054 0)
(385.746 -44.0152 0)
(385.868 -44.026 0)
(386.227 -44.0403 0)
(386.795 -44.1021 0)
(387.476 -44.1579 0)
(388.155 -44.2435 0)
(388.521 -43.9829 0)
(166.87 103.328 0)
(163.746 11.571 0)
(176.735 2.36289 0)
(187.073 3.23766 0)
(194.438 -0.0598889 0)
(198.293 -1.55833 0)
(199.435 -3.24252 0)
(199.841 -4.50017 0)
(200.418 -5.49009 0)
(201.129 -6.40275 0)
(201.952 -7.25822 0)
(202.903 -8.03225 0)
(203.854 -8.77594 0)
(204.756 -9.49626 0)
(205.733 -10.1409 0)
(206.651 -10.797 0)
(207.56 -11.4242 0)
(208.424 -12.0456 0)
(209.262 -12.6382 0)
(210.078 -13.1935 0)
(210.886 -13.696 0)
(211.699 -14.1387 0)
(212.534 -14.5173 0)
(213.406 -14.8329 0)
(214.325 -15.0905 0)
(215.299 -15.2996 0)
(216.329 -15.4695 0)
(217.412 -15.6111 0)
(218.545 -15.7351 0)
(219.725 -15.8521 0)
(220.949 -15.9701 0)
(222.218 -16.0976 0)
(223.534 -16.2409 0)
(224.9 -16.4066 0)
(226.323 -16.5986 0)
(227.808 -16.8214 0)
(229.363 -17.0797 0)
(230.998 -17.3772 0)
(232.723 -17.7169 0)
(234.547 -18.1022 0)
(236.484 -18.537 0)
(238.543 -19.0259 0)
(240.74 -19.5722 0)
(243.089 -20.1795 0)
(245.61 -20.8515 0)
(248.329 -21.5916 0)
(251.28 -22.4007 0)
(254.51 -23.2787 0)
(258.076 -24.2249 0)
(262.062 -25.2339 0)
(266.677 -26.2513 0)
(272.428 -27.0695 0)
(279.731 -27.3912 0)
(287.84 -27.1422 0)
(295.694 -26.5752 0)
(302.583 -26.0453 0)
(308.466 -25.7925 0)
(313.56 -25.9221 0)
(318.144 -26.3762 0)
(322.389 -27.057 0)
(326.46 -27.9294 0)
(330.384 -28.9857 0)
(334.085 -30.1464 0)
(337.602 -31.3711 0)
(340.902 -32.5728 0)
(343.983 -33.7345 0)
(346.862 -34.8651 0)
(349.541 -35.9456 0)
(352.015 -36.9473 0)
(354.287 -37.8545 0)
(356.367 -38.651 0)
(358.274 -39.3456 0)
(360.028 -39.9257 0)
(361.657 -40.4367 0)
(363.176 -40.8435 0)
(364.601 -41.2362 0)
(365.923 -41.5487 0)
(367.15 -41.8503 0)
(368.293 -42.0923 0)
(369.369 -42.3005 0)
(370.369 -42.4669 0)
(371.293 -42.5679 0)
(372.167 -42.7029 0)
(373.009 -42.7732 0)
(373.812 -42.9089 0)
(374.591 -42.9575 0)
(375.328 -43.0866 0)
(376.046 -43.1032 0)
(376.717 -43.2074 0)
(377.369 -43.2005 0)
(377.974 -43.296 0)
(378.58 -43.2798 0)
(379.156 -43.361 0)
(379.739 -43.3389 0)
(380.291 -43.4101 0)
(380.845 -43.3798 0)
(381.355 -43.4374 0)
(381.848 -43.4129 0)
(382.291 -43.4766 0)
(382.724 -43.4527 0)
(383.115 -43.503 0)
(383.5 -43.4751 0)
(383.856 -43.5154 0)
(384.217 -43.4826 0)
(384.56 -43.5126 0)
(384.908 -43.4859 0)
(385.229 -43.5126 0)
(385.53 -43.4895 0)
(385.771 -43.5039 0)
(385.952 -43.4757 0)
(386.039 -43.4711 0)
(386.026 -43.4393 0)
(385.923 -43.4047 0)
(385.785 -43.3933 0)
(385.723 -43.3574 0)
(385.832 -43.3596 0)
(386.182 -43.3692 0)
(386.746 -43.4289 0)
(387.428 -43.4774 0)
(388.109 -43.5521 0)
(388.473 -43.287 0)
(166.624 103.286 0)
(163.827 11.3164 0)
(176.85 2.24517 0)
(187.18 3.19482 0)
(194.551 -0.0877573 0)
(198.391 -1.56902 0)
(199.521 -3.23926 0)
(199.909 -4.48446 0)
(200.474 -5.469 0)
(201.175 -6.37602 0)
(201.988 -7.22669 0)
(202.932 -7.99657 0)
(203.878 -8.73673 0)
(204.774 -9.45524 0)
(205.747 -10.0989 0)
(206.661 -10.7545 0)
(207.567 -11.3816 0)
(208.43 -12.0031 0)
(209.269 -12.5959 0)
(210.086 -13.151 0)
(210.897 -13.6529 0)
(211.714 -14.0944 0)
(212.553 -14.4707 0)
(213.429 -14.7833 0)
(214.353 -15.037 0)
(215.332 -15.2415 0)
(216.366 -15.4065 0)
(217.454 -15.5431 0)
(218.592 -15.6622 0)
(219.776 -15.7739 0)
(221.005 -15.8863 0)
(222.28 -16.0079 0)
(223.602 -16.1447 0)
(224.975 -16.3031 0)
(226.405 -16.4867 0)
(227.898 -16.6999 0)
(229.463 -16.947 0)
(231.109 -17.2319 0)
(232.847 -17.5572 0)
(234.687 -17.9261 0)
(236.642 -18.3425 0)
(238.725 -18.8106 0)
(240.95 -19.3334 0)
(243.335 -19.914 0)
(245.902 -20.5555 0)
(248.677 -21.2601 0)
(251.701 -22.0271 0)
(255.022 -22.8547 0)
(258.7 -23.7396 0)
(262.846 -24.6668 0)
(267.726 -25.5494 0)
(273.826 -26.1497 0)
(281.15 -26.2385 0)
(288.897 -25.871 0)
(296.218 -25.3133 0)
(302.669 -24.8521 0)
(308.22 -24.6731 0)
(313.1 -24.8434 0)
(317.579 -25.2993 0)
(321.801 -25.977 0)
(325.781 -26.8272 0)
(329.578 -27.8274 0)
(333.281 -28.97 0)
(336.843 -30.2126 0)
(340.247 -31.5122 0)
(343.451 -32.7963 0)
(346.428 -33.9983 0)
(349.184 -35.1045 0)
(351.73 -36.1206 0)
(354.067 -37.0415 0)
(356.199 -37.8546 0)
(358.137 -38.5665 0)
(359.898 -39.1701 0)
(361.509 -39.7022 0)
(362.996 -40.1355 0)
(364.396 -40.5357 0)
(365.718 -40.8441 0)
(366.968 -41.1416 0)
(368.135 -41.3936 0)
(369.215 -41.5953 0)
(370.222 -41.7817 0)
(371.178 -41.9044 0)
(372.103 -42.0588 0)
(372.996 -42.1342 0)
(373.838 -42.2824 0)
(374.646 -42.3365 0)
(375.403 -42.4814 0)
(376.129 -42.5068 0)
(376.799 -42.6216 0)
(377.447 -42.6106 0)
(378.046 -42.7003 0)
(378.636 -42.675 0)
(379.186 -42.7572 0)
(379.737 -42.7357 0)
(380.259 -42.8123 0)
(380.783 -42.784 0)
(381.265 -42.8481 0)
(381.742 -42.8224 0)
(382.182 -42.875 0)
(382.623 -42.8331 0)
(383.031 -42.869 0)
(383.444 -42.8291 0)
(383.83 -42.8632 0)
(384.227 -42.828 0)
(384.604 -42.8601 0)
(384.989 -42.8346 0)
(385.344 -42.8642 0)
(385.675 -42.8408 0)
(385.94 -42.8541 0)
(386.144 -42.8211 0)
(386.249 -42.8168 0)
(386.253 -42.7814 0)
(386.163 -42.7455 0)
(386.036 -42.7338 0)
(385.979 -42.6964 0)
(386.089 -42.6971 0)
(386.442 -42.7047 0)
(387.009 -42.7644 0)
(387.695 -42.8191 0)
(388.384 -42.8967 0)
(388.752 -42.6258 0)
(166.374 103.239 0)
(163.905 11.057 0)
(176.966 2.12546 0)
(187.29 3.1495 0)
(194.667 -0.117367 0)
(198.491 -1.58047 0)
(199.609 -3.23757 0)
(199.979 -4.46838 0)
(200.531 -5.4465 0)
(201.221 -6.34748 0)
(202.024 -7.19345 0)
(202.961 -7.9596 0)
(203.903 -8.69677 0)
(204.794 -9.4139 0)
(205.762 -10.0567 0)
(206.673 -10.7121 0)
(207.577 -11.3394 0)
(208.439 -11.961 0)
(209.279 -12.5539 0)
(210.098 -13.1089 0)
(210.912 -13.6103 0)
(211.733 -14.0505 0)
(212.576 -14.4247 0)
(213.457 -14.7342 0)
(214.386 -14.9839 0)
(215.369 -15.184 0)
(216.409 -15.3441 0)
(217.502 -15.4758 0)
(218.644 -15.5898 0)
(219.834 -15.6963 0)
(221.069 -15.8033 0)
(222.349 -15.9191 0)
(223.678 -16.0494 0)
(225.058 -16.2006 0)
(226.497 -16.3761 0)
(227.999 -16.5798 0)
(229.575 -16.8162 0)
(231.233 -17.0887 0)
(232.985 -17.3998 0)
(234.842 -17.7527 0)
(236.818 -18.1509 0)
(238.926 -18.5984 0)
(241.183 -19.0978 0)
(243.606 -19.6518 0)
(246.22 -20.2627 0)
(249.056 -20.9312 0)
(252.154 -21.6551 0)
(255.567 -22.4307 0)
(259.363 -23.2511 0)
(263.677 -24.0859 0)
(268.814 -24.8114 0)
(275.142 -25.1921 0)
(282.374 -25.0974 0)
(289.746 -24.653 0)
(296.559 -24.1135 0)
(302.566 -23.7117 0)
(307.865 -23.5854 0)
(312.653 -23.8022 0)
(317.084 -24.2906 0)
(321.241 -24.9645 0)
(325.215 -25.8043 0)
(329.022 -26.7784 0)
(332.64 -27.8637 0)
(336.122 -29.0603 0)
(339.476 -30.3214 0)
(342.697 -31.5997 0)
(345.76 -32.8604 0)
(348.623 -34.0665 0)
(351.264 -35.1823 0)
(353.69 -36.1916 0)
(355.906 -37.0814 0)
(357.926 -37.8551 0)
(359.764 -38.5052 0)
(361.443 -39.0588 0)
(362.975 -39.4936 0)
(364.382 -39.8779 0)
(365.68 -40.1775 0)
(366.907 -40.4684 0)
(368.07 -40.718 0)
(369.18 -40.9277 0)
(370.255 -41.1532 0)
(371.287 -41.3178 0)
(372.238 -41.5123 0)
(373.122 -41.5873 0)
(373.943 -41.729 0)
(374.731 -41.7658 0)
(375.469 -41.9051 0)
(376.183 -41.9212 0)
(376.851 -42.036 0)
(377.509 -42.0165 0)
(378.128 -42.1008 0)
(378.749 -42.0696 0)
(379.331 -42.1504 0)
(379.916 -42.1221 0)
(380.465 -42.1919 0)
(381.007 -42.1622 0)
(381.494 -42.2279 0)
(381.963 -42.1935 0)
(382.385 -42.2385 0)
(382.798 -42.1941 0)
(383.172 -42.237 0)
(383.545 -42.2004 0)
(383.894 -42.2387 0)
(384.254 -42.2052 0)
(384.601 -42.2415 0)
(384.96 -42.218 0)
(385.295 -42.2514 0)
(385.612 -42.2279 0)
(385.868 -42.2411 0)
(386.068 -42.203 0)
(386.171 -42.1957 0)
(386.177 -42.1502 0)
(386.089 -42.111 0)
(385.962 -42.0837 0)
(385.904 -42.047 0)
(386.014 -42.0369 0)
(386.37 -42.0351 0)
(386.94 -42.0868 0)
(387.63 -42.1334 0)
(388.323 -42.2068 0)
(388.691 -41.9353 0)
(166.121 103.188 0)
(163.983 10.7931 0)
(177.082 2.00386 0)
(187.4 3.10166 0)
(194.784 -0.148653 0)
(198.594 -1.59171 0)
(199.699 -3.23682 0)
(200.05 -4.45255 0)
(200.589 -5.42505 0)
(201.269 -6.32029 0)
(202.062 -7.16118 0)
(202.992 -7.92291 0)
(203.928 -8.65633 0)
(204.813 -9.37157 0)
(205.776 -10.0134 0)
(206.683 -10.6682 0)
(207.583 -11.2954 0)
(208.445 -11.917 0)
(209.285 -12.51 0)
(210.106 -13.0647 0)
(210.923 -13.5655 0)
(211.747 -14.0043 0)
(212.595 -14.3764 0)
(213.48 -14.6826 0)
(214.414 -14.9284 0)
(215.402 -15.1239 0)
(216.446 -15.2791 0)
(217.543 -15.4056 0)
(218.691 -15.5145 0)
(219.885 -15.6156 0)
(221.125 -15.717 0)
(222.41 -15.8267 0)
(223.745 -15.9503 0)
(225.132 -16.094 0)
(226.578 -16.2609 0)
(228.089 -16.4548 0)
(229.674 -16.6798 0)
(231.343 -16.9393 0)
(233.108 -17.2355 0)
(234.981 -17.5713 0)
(236.975 -17.9501 0)
(239.106 -18.3756 0)
(241.39 -18.8499 0)
(243.849 -19.3751 0)
(246.507 -19.9525 0)
(249.398 -20.5816 0)
(252.565 -21.2584 0)
(256.062 -21.9774 0)
(259.968 -22.7263 0)
(264.45 -23.4556 0)
(269.826 -24.0153 0)
(276.273 -24.2033 0)
(283.321 -23.9734 0)
(290.273 -23.4837 0)
(296.658 -22.9703 0)
(302.338 -22.6207 0)
(307.393 -22.5311 0)
(312 -22.744 0)
(316.341 -23.2172 0)
(320.508 -23.9076 0)
(324.499 -24.7708 0)
(328.338 -25.7733 0)
(332.04 -26.8933 0)
(335.57 -28.063 0)
(338.932 -29.2668 0)
(342.123 -30.4962 0)
(345.142 -31.7266 0)
(347.991 -32.9259 0)
(350.66 -34.0602 0)
(353.135 -35.1083 0)