/*--------------------------------*- C++ -*----------------------------------*\
| =========                 |                                                 |
| \\      /  F ield         | OpenFOAM: The Open Source CFD Toolbox           |
|  \\    /   O peration     | Version:  2406                                  |
|   \\  /    A nd           | Website:  www.openfoam.com                      |
|    \\/     M anipulation  |                                                 |
\*---------------------------------------------------------------------------*/
FoamFile
{
    version     2.0;
    format      ascii;
    arch        "LSB;label=32;scalar=64";
    class       volScalarField;
    location    "0.05";
    object      p;
}
// * * * * * * * * * * * * * * * * * * * * * * * * * * * * * * * * * * * * * //

dimensions      [1 -1 -2 0 0 0 0];

internalField   nonuniform List<scalar> 
78650
(
3603.35
2881
2842.59
2835.36
2825.64
2816.44
2806.55
2797.72
2790.49
2784.47
2779.35
2774.49
2769.64
2764.86
2760.31
2756.17
2752.4
2748.88
2745.44
2741.94
2738.3
2734.51
2730.62
2726.66
2722.68
2718.71
2714.82
2711.07
2707.51
2704.21
2701.22
2698.56
2696.24
2694.24
2692.53
2691.08
2689.83
2688.74
2687.77
2686.88
2686.04
2685.22
2684.39
2683.52
2682.59
2681.58
2680.46
2679.21
2677.81
2676.23
2674.45
2672.43
2670.12
2667.51
2664.56
2661.23
2657.47
2653.19
2648.37
2642.94
2636.86
2630.09
2622.54
2614.15
2604.85
2594.54
2583.14
2570.59
2556.81
2541.79
2525.42
2507.61
2488.26
2467.25
2444.55
2420.19
2394.09
2366.22
2336.67
2305.34
2272.18
2237.2
2200.43
2162.13
2122.26
2080.76
2037.71
1993.69
1949.07
1904.33
1858.87
1813.75
1770.43
1727.99
1686.19
1643.86
1602.84
1564.06
1526.08
1488.34
1450.7
1412.69
1377.4
1348.22
1323.71
1301.75
1279.56
1257.15
1236.58
1217.63
1201.1
1185.59
1171.07
1157.51
1144.77
1132.93
1121.76
1111.23
1101.14
1091.64
1074.17
3574.99
2875.27
2843.78
2836.6
2826.74
2817.42
2807.6
2798.88
2791.57
2785.6
2780.66
2776.12
2771.67
2767.23
2762.92
2758.89
2755.2
2751.8
2748.53
2745.26
2741.86
2738.28
2734.55
2730.74
2726.9
2723.09
2719.36
2715.79
2712.42
2709.31
2706.51
2704.04
2701.91
2700.1
2698.59
2697.35
2696.33
2695.49
2694.77
2694.16
2693.62
2693.12
2692.62
2692.11
2691.56
2690.95
2690.25
2689.45
2688.52
2687.45
2686.19
2684.74
2683.03
2681.06
2678.78
2676.18
2673.18
2669.74
2665.8
2661.31
2656.23
2650.52
2644.12
2636.95
2628.95
2620.02
2610.1
2599.13
2587.01
2573.71
2559.1
2543.1
2525.68
2506.73
2486.23
2464.14
2440.33
2414.75
2387.37
2357.98
2326.61
2293.4
2258.46
2222.05
2183.93
2144.39
2103.45
2061.06
2017.47
1972.84
1928.83
1884.99
1841.57
1797.34
1754.28
1711.32
1668.92
1628.32
1589.68
1552.07
1516.26
1480.58
1445.3
1411.33
1378.62
1348.35
1321.26
1295.66
1272.1
1249.84
1229.23
1210.05
1192.15
1175.51
1160.02
1145.71
1132.84
1121.42
1111.47
1103.11
1085.68
3549.9
2867.02
2843.65
2836.69
2826.68
2817.42
2807.69
2799.01
2791.73
2785.88
2781.09
2776.87
2772.91
2768.94
2765.01
2761.24
2757.72
2754.47
2751.38
2748.36
2745.23
2741.92
2738.41
2734.78
2731.09
2727.43
2723.87
2720.47
2717.29
2714.38
2711.78
2709.51
2707.59
2706.01
2704.73
2703.72
2702.94
2702.36
2701.92
2701.59
2701.35
2701.17
2701.01
2700.85
2700.68
2700.46
2700.18
2699.83
2699.38
2698.79
2698.06
2697.16
2696.04
2694.69
2693.08
2691.18
2688.93
2686.29
2683.2
2679.62
2675.5
2670.82
2665.5
2659.48
2652.71
2645.09
2636.56
2627.04
2616.45
2604.75
2591.85
2577.67
2562.18
2545.23
2526.77
2506.75
2485.07
2461.71
2436.64
2409.73
2381.07
2350.75
2318.76
2285.05
2249.4
2212.12
2173.15
2132.73
2090.96
2047.35
2003.28
1958.15
1913.6
1867.43
1821.4
1776.73
1732.11
1688.41
1646.45
1606.01
1567.72
1531.37
1495.73
1462.26
1428.7
1396.61
1366.83
1338.2
1312.32
1287.69
1265.12
1244.09
1224.61
1206.35
1188.92
1172.21
1156.27
1141.42
1128.43
1116.77
1093.77
3528.43
2858.73
2842.26
2835.86
2825.75
2816.63
2807.19
2798.67
2791.5
2785.68
2780.96
2776.93
2773.25
2769.72
2766.27
2762.9
2759.71
2756.7
2753.85
2751.1
2748.31
2745.34
2742.14
2738.75
2735.26
2731.76
2728.37
2725.15
2722.15
2719.44
2717.04
2714.98
2713.28
2711.92
2710.88
2710.12
2709.59
2709.27
2709.12
2709.09
2709.15
2709.28
2709.46
2709.65
2709.84
2710.01
2710.14
2710.21
2710.21
2710.1
2709.87
2709.51
2708.97
2708.21
2707.24
2706.01
2704.49
2702.62
2700.36
2697.66
2694.48
2690.79
2686.53
2681.65
2676.09
2669.77
2662.62
2654.57
2645.54
2635.5
2624.34
2612
2598.38
2583.39
2566.99
2549.15
2529.73
2508.67
2485.88
2461.19
2434.72
2406.48
2376.37
2344.34
2310.32
2274.75
2237.56
2199.07
2158.89
2117.23
2074.46
2030.52
1986.35
1942.56
1897.9
1853.48
1808.53
1763.49
1718.88
1674.63
1631.03
1589.82
1549.82
1512.15
1477.22
1443.45
1412.74
1382.63
1354.31
1327.43
1302.38
1279.02
1257.36
1237.12
1218.41
1201.25
1185.48
1170.96
1158.13
1146.91
1126.46
3506.53
2850.33
2839.34
2833.65
2823.36
2814.58
2805.71
2797.73
2790.8
2785.05
2780.44
2776.6
2773.13
2769.83
2766.65
2763.67
2760.9
2758.26
2755.77
2753.36
2750.94
2748.38
2745.59
2742.55
2739.33
2736.05
2732.84
2729.81
2727.01
2724.5
2722.31
2720.48
2719
2717.89
2717.1
2716.6
2716.35
2716.32
2716.46
2716.73
2717.1
2717.56
2718.07
2718.62
2719.18
2719.74
2720.28
2720.78
2721.22
2721.59
2721.86
2722.01
2722.04
2721.88
2721.53
2720.97
2720.15
2719.04
2717.59
2715.74
2713.47
2710.73
2707.49
2703.7
2699.29
2694.2
2688.36
2681.69
2674.13
2665.63
2656.09
2645.44
2633.64
2620.58
2606.23
2590.46
2573.14
2554.22
2533.65
2511.37
2487.5
2461.91
2434.42
2404.97
2373.64
2340.6
2305.69
2269.12
2230.49
2190.51
2149.22
2106.94
2063.48
2019.19
1974.2
1929.62
1884.68
1839.21
1794.98
1750.69
1706.9
1663.19
1620
1577.55
1538.03
1499.48
1463.42
1429.13
1396.8
1366.7
1338.38
1311.7
1286.41
1262.38
1239.93
1219.36
1200.91
1183.58
1167.59
1153.77
1124.75
3485.16
2843.51
2835.21
2830.37
2819.61
2811.02
2802.83
2795.51
2789.02
2783.55
2779.13
2775.53
2772.41
2769.46
2766.56
2763.8
2761.25
2758.97
2756.92
2754.96
2753
2750.93
2748.63
2746.04
2743.2
2740.21
2737.25
2734.43
2731.85
2729.55
2727.59
2725.98
2724.75
2723.87
2723.34
2723.11
2723.15
2723.42
2723.85
2724.43
2725.12
2725.91
2726.77
2727.68
2728.61
2729.55
2730.49
2731.4
2732.29
2733.12
2733.88
2734.54
2735.1
2735.52
2735.77
2735.85
2735.72
2735.34
2734.67
2733.65
2732.26
2730.46
2728.2
2725.47
2722.2
2718.32
2713.77
2708.48
2702.39
2695.45
2687.55
2678.66
2668.71
2657.58
2645.2
2631.48
2616.32
2599.73
2581.65
2562
2540.74
2517.63
2492.53
2465.54
2436.78
2406.22
2373.69
2339.35
2303.09
2265.43
2225.71
2184.35
2141.66
2097.73
2053.34
2008.08
1963.09
1916.45
1871.18
1825.98
1781.89
1739.03
1697.18
1655.47
1615.38
1574.87
1535.55
1497.86
1462.28
1429.3
1398.43
1369.03
1341.12
1314.67
1290.13
1267.32
1246.48
1226.44
1208.12
1191.1
1155.95
3467.45
2841.31
2831.34
2827.04
2815.68
2806.2
2797.8
2791.07
2785.51
2780.77
2776.73
2773.35
2770.55
2768.12
2765.78
2763.42
2761.12
2759.05
2757.26
2755.74
2754.3
2752.76
2751.02
2749
2746.66
2744.09
2741.45
2738.92
2736.59
2734.54
2732.82
2731.46
2730.48
2729.87
2729.62
2729.68
2730.03
2730.58
2731.32
2732.23
2733.26
2734.39
2735.61
2736.87
2738.18
2739.51
2740.86
2742.2
2743.52
2744.81
2746.05
2747.23
2748.33
2749.31
2750.16
2750.86
2751.39
2751.71
2751.81
2751.6
2751.08
2750.19
2748.88
2747.17
2744.97
2742.23
2738.91
2734.92
2730.2
2724.71
2718.36
2711.1
2702.85
2693.52
2683.05
2671.39
2658.43
2644.14
2628.41
2611.08
2592.09
2571.26
2548.6
2524.28
2498.24
2470.29
2440.29
2408.38
2374.6
2339.26
2301.77
2262.75
2221.99
2180.28
2137.75
2093.75
2049.07
2002.1
1954.93
1908.22
1861.38
1815.58
1770.85
1726.74
1684.43
1642.9
1601.81
1562.17
1523.73
1487.46
1453.29
1420.45
1389.13
1359.7
1332.89
1308.09
1285.17
1263.8
1245.06
1229.4
1200.73
3454.61
2844.56
2826.61
2822.24
2811.38
2801.66
2793.19
2786.74
2781.71
2777.48
2773.74
2770.49
2767.86
2765.77
2763.96
2762.18
2760.38
2758.65
2757.11
2755.88
2754.85
2753.84
2752.7
2751.31
2749.59
2747.56
2745.37
2743.2
2741.18
2739.42
2737.98
2736.89
2736.18
2735.86
2735.89
2736.27
2736.88
2737.75
2738.82
2740.05
2741.42
2742.9
2744.47
2746.1
2747.79
2749.51
2751.25
2753.01
2754.77
2756.51
2758.22
2759.9
2761.51
2763.05
2764.48
2765.79
2766.98
2767.98
2768.78
2769.35
2769.63
2769.65
2769.27
2768.56
2767.42
2765.8
2763.68
2760.97
2757.62
2753.59
2748.78
2743.16
2736.64
2729.14
2720.63
2710.99
2700.14
2688
2674.45
2659.4
2642.8
2624.57
2604.76
2583.36
2560.16
2534.97
2507.82
2478.9
2448.17
2415.53
2380.46
2343.56
2304.71
2264.78
2223.34
2180.69
2136.52
2091.41
2044.83
1998.04
1950.64
1903.27
1855.73
1807.97
1761.74
1717.46
1673.34
1630.89
1588.39
1547.95
1509.78
1473.75
1439.24
1406.26
1375.27
1346.18
1319
1292.6
1267.78
1246.44
1204.33
3442.84
2849.44
2824.4
2820.18
2810.53
2800.85
2792.06
2785.16
2779.84
2775.6
2771.94
2768.68
2765.89
2763.68
2761.95
2760.46
2759.04
2757.69
2756.52
2755.61
2754.94
2754.37
2753.76
2752.98
2751.91
2750.5
2748.85
2747.14
2745.52
2744.1
2742.98
2742.19
2741.8
2741.77
2742.13
2742.79
2743.73
2744.93
2746.33
2747.91
2749.62
2751.46
2753.39
2755.4
2757.47
2759.59
2761.74
2763.92
2766.11
2768.3
2770.49
2772.66
2774.79
2776.87
2778.87
2780.78
2782.59
2784.27
2785.79
2787.11
2788.19
2789.01
2789.55
2789.77
2789.66
2789.11
2788.14
2786.63
2784.56
2781.88
2778.5
2774.41
2769.51
2763.73
2757.02
2749.29
2740.45
2730.45
2719.17
2706.57
2692.58
2677.11
2660.14
2641.51
2620.97
2598.49
2574.18
2548.04
2519.87
2489.55
2457.04
2422.91
2387.03
2349.69
2310.29
2269.49
2227.23
2183.69
2139.29
2093.59
2047.71
2000.93
1954.29
1906.54
1860.18
1815.32
1770.41
1726.14
1681.44
1637.47
1596.07
1557.25
1520.56
1484.94
1450.76
1417.83
1388.24
1360.36
1334.51
1310.71
1262.03
3428.64
2855.84
2825.94
2821.11
2811.74
2801.91
2792.73
2785.33
2779.7
2775.38
2771.76
2768.45
2765.52
2763.11
2761.21
2759.61
2758.18
2756.91
2755.92
2755.28
2754.91
2754.67
2754.47
2754.2
2753.71
2752.92
2751.87
2750.71
2749.56
2748.55
2747.79
2747.35
2747.28
2747.58
2748.25
2749.24
2750.52
2752.05
2753.79
2755.72
2757.79
2759.98
2762.28
2764.66
2767.12
2769.62
2772.17
2774.76
2777.38
2780.02
2782.67
2785.31
2787.95
2790.55
2793.1
2795.59
2798.01
2800.33
2802.53
2804.57
2806.43
2808.08
2809.48
2810.6
2811.42
2811.92
2812.06
2811.74
2810.96
2809.64
2807.67
2805.1
2801.8
2797.73
2792.82
2786.98
2780.16
2772.28
2763.22
2752.94
2741.35
2728.33
2713.8
2697.62
2679.64
2659.95
2638.62
2615.47
2590.31
2563.14
2534
2503.09
2469.99
2434.75
2397.16
2358.14
2317.36
2275.23
2231.42
2186.31
2140.17
2092.08
2043.84
1994.99
1946.63
1899.51
1853.24
1807.45
1762.33
1716.41
1672.19
1629.72
1589.46
1550.74
1513.37
1476.46
1442.43
1411.67
1385.01
1361.97
1318.62
3409.22
2862.74
2830.89
2824.85
2815.74
2806.23
2796.36
2787.72
2781.2
2776.5
2772.76
2769.38
2766.27
2763.61
2761.44
2759.63
2758.04
2756.69
2755.7
2755.14
2754.96
2754.93
2755.02
2755.12
2755.11
2754.87
2754.41
2753.83
2753.21
2752.68
2752.35
2752.28
2752.58
2753.21
2754.22
2755.56
2757.19
2759.08
2761.18
2763.47
2765.9
2768.47
2771.14
2773.9
2776.74
2779.64
2782.6
2785.6
2788.65
2791.73
2794.83
2797.95
2801.08
2804.2
2807.29
2810.35
2813.36
2816.3
2819.16
2821.91
2824.51
2826.94
2829.17
2831.18
2832.94
2834.41
2835.55
2836.33
2836.71
2836.7
2836.05
2834.91
2833.1
2830.61
2827.38
2823.32
2818.4
2812.53
2805.61
2797.58
2788.35
2777.8
2765.87
2752.45
2737.47
2720.97
2702.8
2682.72
2660.64
2636.71
2611
2583.41
2553.42
2521.19
2486.92
2451.25
2413.61
2374.34
2333.09
2290.31
2245.72
2199.64
2152.39
2105.16
2056.24
2006.32
1956.01
1906.38
1858.74
1809.6
1761.65
1714.31
1669.52
1626.88
1586.45
1546.21
1506.67
1468.47
1433.48
1403.22
1344.71
3383.37
2868.99
2838.07
2830.8
2821.66
2812.5
2802.8
2793.46
2785.96
2780.49
2776.36
2772.77
2769.35
2766.1
2763.2
2760.71
2758.65
2757.03
2755.9
2755.32
2755.21
2755.32
2755.62
2756.01
2756.35
2756.54
2756.59
2756.55
2756.49
2756.48
2756.61
2756.98
2757.65
2758.65
2760.02
2761.72
2763.71
2765.96
2768.43
2771.09
2773.9
2776.83
2779.87
2783.01
2786.24
2789.53
2792.88
2796.29
2799.76
2803.26
2806.81
2810.38
2813.98
2817.6
2821.21
2824.82
2828.39
2831.93
2835.42
2838.84
2842.15
2845.33
2848.35
2851.19
2853.84
2856.26
2858.43
2860.29
2861.78
2862.9
2863.6
2863.84
2863.53
2862.62
2861.07
2858.73
2855.67
2851.74
2846.88
2841.03
2834.07
2825.91
2816.52
2805.76
2793.61
2780
2764.73
2747.63
2728.78
2708.23
2685.84
2661.26
2634.18
2605.01
2574.05
2541.45
2506.58
2469.79
2430.79
2390.03
2347.26
2303.18
2258.26
2212.36
2165.35
2115.91
2066.49
2017.99
1970.78
1922.99
1874.78
1826.33
1779.09
1733.78
1691.07
1648.96
1609.02
1569.84
1532.88
1499.92
1437.73
3350.6
2874.38
2846.96
2838.56
2828.87
2820.04
2810.9
2801.75
2793.48
2786.94
2782.12
2778.33
2774.87
2771.33
2767.72
2764.26
2761.24
2758.84
2757.19
2756.31
2756.1
2756.23
2756.61
2757.14
2757.71
2758.21
2758.64
2759.03
2759.45
2759.95
2760.57
2761.39
2762.48
2763.89
2765.62
2767.69
2770.05
2772.67
2775.52
2778.55
2781.73
2785.05
2788.47
2792
2795.61
2799.29
2803.04
2806.86
2810.73
2814.67
2818.65
2822.67
2826.74
2830.84
2834.96
2839.09
2843.22
2847.33
2851.43
2855.49
2859.47
2863.37
2867.15
2870.8
2874.29
2877.6
2880.71
2883.57
2886.15
2888.41
2890.3
2891.77
2892.79
2893.3
2893.36
2892.64
2891.34
2889.26
2886.35
2882.58
2877.83
2872.03
2865.12
2856.99
2847.57
2836.74
2824.31
2810.21
2794.5
2777.07
2757.71
2736.24
2712.65
2687.3
2660.11
2630.87
2599.19
2565.39
2529.21
2491.12
2450.94
2409.22
2365.63
2320.51
2273.59
2224.87
2174.71
2124.13
2073.69
2024.06
1971.69
1920.07
1867.69
1818.21
1771.84
1725
1681.86
1640.58
1601.5
1567.4
1496.5
3309.74
2876.22
2855.6
2847.11
2837.33
2828.3
2819.73
2811.4
2803.19
2795.99
2790.36
2786.09
2782.5
2778.83
2774.74
2770.37
2766.24
2762.82
2760.36
2758.9
2758.31
2758.29
2758.54
2759.03
2759.63
2760.26
2760.89
2761.56
2762.35
2763.26
2764.33
2765.6
2767.12
2768.92
2771.04
2773.47
2776.2
2779.19
2782.41
2785.82
2789.38
2793.08
2796.88
2800.79
2804.78
2808.84
2812.98
2817.19
2821.46
2825.8
2830.2
2834.65
2839.16
2843.72
2848.33
2852.96
2857.61
2862.27
2866.94
2871.6
2876.23
2880.8
2885.3
2889.7
2893.99
2898.15
2902.15
2905.97
2909.56
2912.9
2915.94
2918.66
2921.01
2922.9
2924.33
2925.24
2925.6
2925.34
2924.31
2922.55
2919.88
2916.31
2911.72
2906.03
2899.18
2891.03
2881.48
2870.51
2858.08
2843.99
2828.08
2810.35
2790.84
2769.55
2746.11
2720.39
2692.36
2662.27
2629.91
2595.75
2559.57
2521.34
2480.57
2438.09
2394.14
2348.85
2301.78
2253.09
2203.8
2154.12
2104.1
2053.79
2000.55
1947.08
1894.91
1844.21
1795.54
1747.67
1700.5
1656.14
1570.76
3264.03
2871.24
2858.66
2852.86
2844.93
2836.22
2828.32
2820.76
2813.18
2806.04
2799.96
2795.18
2791.37
2787.69
2783.49
2778.61
2773.53
2769.01
2765.57
2763.33
2762.14
2761.74
2761.74
2762
2762.46
2763.02
2763.67
2764.45
2765.43
2766.63
2768.05
2769.7
2771.61
2773.8
2776.29
2779.09
2782.18
2785.53
2789.11
2792.89
2796.83
2800.9
2805.08
2809.36
2813.73
2818.17
2822.69
2827.28
2831.95
2836.68
2841.49
2846.36
2851.3
2856.31
2861.37
2866.49
2871.64
2876.83
2882.05
2887.28
2892.51
2897.73
2902.91
2908.02
2913.06
2918.02
2922.86
2927.57
2932.11
2936.45
2940.56
2944.4
2947.94
2951.13
2953.94
2956.29
2958.14
2959.46
2960.19
2960.35
2959.66
2958.25
2955.93
2952.58
2948.26
2942.77
2936.08
2928.13
2918.77
2907.8
2895.19
2880.94
2864.97
2847.04
2826.81
2804.39
2779.92
2753.54
2725.01
2694.51
2661.58
2626.08
2587.86
2547.99
2506.73
2463.96
2418.67
2370.94
2321.49
2271.57
2221.66
2170.64
2119.14
2065.3
2012.04
1960.01
1910.7
1863.58
1820.29
1781.76
1708.51
3221.35
2857.99
2855.49
2853.8
2847.06
2840.32
2834.49
2828.54
2822.13
2815.55
2809.47
2804.4
2800.39
2796.85
2792.91
2788.04
2782.44
2777
2772.58
2769.5
2767.62
2766.66
2766.31
2766.28
2766.43
2766.77
2767.27
2767.98
2768.98
2770.3
2771.92
2773.85
2776.09
2778.62
2781.46
2784.6
2788.03
2791.72
2795.65
2799.77
2804.07
2808.5
2813.04
2817.68
2822.42
2827.23
2832.11
2837.07
2842.11
2847.23
2852.42
2857.69
2863.04
2868.46
2873.96
2879.52
2885.15
2890.83
2896.55
2902.32
2908.12
2913.93
2919.73
2925.52
2931.26
2936.95
2942.58
2948.12
2953.54
2958.82
2963.93
2968.84
2973.51
2977.91
2982
2985.73
2989.07
2991.96
2994.32
2996.13
2997.33
2997.88
2997.76
2996.62
2994.7
2991.72
2987.69
2982.5
2976
2968.09
2958.73
2947.86
2935.32
2920.88
2904.4
2886.04
2865.88
2843.84
2819.57
2793.04
2763.89
2732.38
2698.54
2662.79
2625.02
2585.26
2542.95
2498.27
2451.27
2403.03
2353.93
2304.2
2252.85
2199.82
2145.12
2092.27
2033.31
1978.44
1924.12
1873.47
1781.18
3190.63
2843
2844.87
2848.5
2845.6
2840.66
2835.66
2832.03
2828.48
2823.63
2818.31
2813.22
2808.94
2805.4
2801.85
2797.44
2791.94
2786.06
2780.88
2777.03
2774.49
2772.96
2772.12
2771.72
2771.57
2771.58
2771.8
2772.3
2773.18
2774.47
2776.15
2778.23
2780.68
2783.48
2786.61
2790.06
2793.8
2797.81
2802.05
2806.5
2811.12
2815.89
2820.77
2825.76
2830.84
2836
2841.24
2846.55
2851.95
2857.43
2862.99
2868.64
2874.37
2880.2
2886.11
2892.1
2898.17
2904.31
2910.52
2916.79
2923.12
2929.49
2935.89
2942.29
2948.69
2955.07
2961.43
2967.74
2973.98
2980.12
2986.15
2992.03
2997.74
3003.24
3008.5
3013.48
3018.14
3022.43
3026.33
3029.77
3032.7
3035.03
3036.75
3037.78
3038.11
3037.51
3036.01
3033.49
3029.75
3024.87
3018.7
3011.15
3002.07
2991.33
2978.87
2964.71
2948.7
2930.65
2910.33
2887.73
2862.75
2835.77
2806.52
2774.83
2740.46
2703.96
2665.43
2624.9
2581.9
2536.87
2490.04
2442.23
2393.25
2342.97
2291.01
2237.49
2183.88
2131.71
2078.25
2031.94
1949.15
3174.05
2827.51
2830.34
2837.73
2839.16
2838.12
2834.95
2832.47
2830.62
2828.56
2825.3
2821.15
2816.87
2813.23
2809.92
2806.08
2801.12
2795.35
2789.77
2785.32
2782.22
2780.21
2778.92
2778.13
2777.62
2777.35
2777.29
2777.46
2778.09
2779.25
2780.86
2782.95
2785.51
2788.48
2791.83
2795.53
2799.54
2803.83
2808.36
2813.1
2818.02
2823.09
2828.29
2833.59
2838.99
2844.48
2850.05
2855.7
2861.43
2867.25
2873.16
2879.16
2885.25
2891.45
2897.74
2904.13
2910.61
2917.18
2923.83
2930.57
2937.38
2944.26
2951.19
2958.17
2965.16
2972.18
2979.2
2986.21
2993.2
3000.13
3007
3013.78
3020.44
3026.96
3033.3
3039.44
3045.33
3050.94
3056.23
3061.15
3065.67
3069.73
3073.28
3076.22
3078.51
3080.08
3080.89
3080.99
3079.86
3077.88
3074.7
3070.22
3064.42
3057.14
3048.33
3037.83
3025.43
3011.02
2994.57
2976.1
2955.51
2932.9
2907.83
2880.12
2849.66
2817.1
2782.58
2745.96
2706.68
2664.73
2620.22
2574.07
2526.14
2476.86
2425.38
2372.28
2316.84
2263.31
2203.34
2148.03
2056.64
3171.95
2823.17
2818.84
2823.73
2826.81
2829.56
2830.44
2830.8
2830.6
2830.18
2829.55
2827.58
2824.13
2820.42
2817.03
2813.56
2809.31
2804.1
2798.61
2793.84
2790.3
2787.9
2786.25
2785.12
2784.28
2783.72
2783.38
2783.32
2783.61
2784.57
2786.05
2788.05
2790.62
2793.67
2797.18
2801.07
2805.3
2809.83
2814.61
2819.6
2824.78
2830.13
2835.6
2841.2
2846.89
2852.67
2858.54
2864.5
2870.54
2876.68
2882.91
2889.24
2895.67
2902.21
2908.86
2915.61
2922.48
2929.44
2936.51
2943.68
2950.94
2958.29
2965.72
2973.22
2980.77
2988.36
2995.99
3003.65
3011.32
3018.98
3026.62
3034.21
3041.73
3049.16
3056.48
3063.66
3070.65
3077.44
3083.99
3090.26
3096.21
3101.8
3106.97
3111.68
3115.87
3119.47
3122.38
3124.6
3126.02
3126.62
3126.28
3124.68
3122.03
3118.03
3112.69
3105.81
3097.24
3086.95
3074.93
3061.11
3045.25
3027.25
3006.8
2984
2958.68
2931.11
2901.09
2868.72
2833.78
2796.19
2756.04
2713.73
2669.38
2623.63
2575.86
2526.93
2475.97
2424.23
2370.46
2317.45
2230.72
3175.49
2826.14
2811.1
2811.69
2812.48
2816.26
2820.71
2824.96
2827.99
2829.8
2830.86
2831.31
2830.02
2826.97
2823.51
2820.1
2816.37
2811.89
2806.85
2802.08
2798.29
2795.59
2793.69
2792.32
2791.26
2790.46
2789.89
2789.65
2789.7
2790.39
2791.73
2793.58
2796.08
2799.14
2802.71
2806.74
2811.14
2815.86
2820.84
2826.06
2831.46
2837.04
2842.76
2848.6
2854.55
2860.6
2866.74
2872.97
2879.29
2885.72
2892.24
2898.87
2905.61
2912.47
2919.44
2926.53
2933.75
2941.07
2948.51
2956.07
2963.74
2971.51
2979.39
2987.36
2995.4
3003.52
3011.7
3019.93
3028.21
3036.52
3044.84
3053.16
3061.46
3069.71
3077.91
3086.02
3094.01
3101.86
3109.54
3117.02
3124.27
3131.24
3137.9
3144.19
3150.07
3155.48
3160.38
3164.69
3168.34
3171.23
3173.32
3174.52
3174.88
3173.97
3172
3168.67
3163.81
3157.52
3149.58
3139.89
3128.19
3114.38
3098.33
3080.17
3059.59
3036.52
3010.68
2982.44
2951.75
2918.58
2882.88
2844.52
2803.87
2761.07
2716.04
2669.19
2619.42
2568.79
2513.91
2459.68
2377.61
3180.52
2829.19
2809.92
2805.17
2800.65
2801.55
2806.28
2813.75
2821.26
2827.26
2830.58
2832.77
2833.51
2832.34
2829.39
2825.95
2822.45
2818.6
2814.24
2809.75
2805.88
2802.97
2800.88
2799.37
2798.16
2797.23
2796.5
2796.11
2796.03
2796.46
2797.69
2799.39
2801.8
2804.81
2808.41
2812.5
2817.02
2821.89
2827.05
2832.45
2838.04
2843.82
2849.74
2855.79
2861.96
2868.25
2874.63
2881.11
2887.68
2894.36
2901.15
2908.06
2915.08
2922.22
2929.49
2936.88
2944.41
2952.06
2959.85
2967.76
2975.79
2983.95
2992.23
3000.62
3009.12
3017.7
3026.38
3035.13
3043.96
3052.85
3061.79
3070.76
3079.74
3088.73
3097.7
3106.64
3115.52
3124.31
3132.99
3141.54
3149.93
3158.12
3166.09
3173.79
3181.17
3188.19
3194.81
3200.97
3206.62
3211.68
3216.1
3219.75
3222.62
3224.55
3225.52
3225.6
3224.04
3221.44
3217.21
3211.37
3203.81
3194.44
3183.13
3169.83
3154.22
3136.22
3115.58
3092.62
3067.08
3039.04
3008.27
2974.59
2938.31
2899.22
2858
2814.33
2768.56
2720.84
2670.31
2616.03
2542.57
3185.85
2832.2
2810.67
2802.31
2792.76
2789.62
2791.43
2798.74
2809.79
2820.51
2828.27
2832.74
2835.16
2835.68
2834.18
2831.14
2827.8
2824.4
2820.7
2816.68
2812.89
2809.83
2807.6
2805.99
2804.73
2803.75
2802.95
2802.48
2802.34
2802.65
2803.79
2805.38
2807.7
2810.66
2814.24
2818.37
2822.97
2827.96
2833.26
2838.8
2844.56
2850.49
2856.59
2862.82
2869.18
2875.66
2882.24
2888.94
2895.73
2902.64
2909.67
2916.81
2924.08
2931.48
2939.01
2946.68
2954.49
2962.44
2970.52
2978.75
2987.11
2995.62
3004.25
3013.02
3021.91
3030.91
3040.02
3049.24
3058.55
3067.95
3077.42
3086.96
3096.55
3106.18
3115.83
3125.49
3135.14
3144.75
3154.31
3163.8
3173.18
3182.45
3191.56
3200.49
3209.19
3217.64
3225.78
3233.57
3240.98
3247.93
3254.38
3260.26
3265.49
3269.99
3273.62
3276.44
3278.21
3278.98
3278.52
3276.54
3273.3
3268.38
3261.76
3253.21
3242.56
3229.73
3214.49
3196.86
3176.44
3153.48
3127.63
3099.06
3067.71
3033.49
2996.8
2957.02
2914.82
2869.59
2821.72
2768.61
2698.43
3191.29
2834.64
2811.77
2801.51
2789.05
2781.88
2780.29
2784.19
2795.06
2809.68
2822.63
2830.88
2835.39
2837.27
2837.29
2835.45
2832.53
2829.48
2826.37
2822.9
2819.31
2816.13
2813.76
2812.07
2810.83
2809.85
2809.08
2808.59
2808.46
2808.76
2809.85
2811.42
2813.68
2816.6
2820.16
2824.32
2828.97
2834.05
2839.45
2845.12
2851
2857.07
2863.3
2869.68
2876.2
2882.84
2889.6
2896.47
2903.45
2910.56
2917.78
2925.14
2932.63
2940.25
2948.02
2955.93
2963.99
2972.19
2980.55
2989.05
2997.7
3006.51
3015.46
3024.56
3033.8
3043.16
3052.66
3062.27
3072.01
3081.86
3091.8
3101.84
3111.96
3122.14
3132.39
3142.68
3152.99
3163.32
3173.64
3183.93
3194.18
3204.37
3214.47
3224.46
3234.3
3243.96
3253.42
3262.63
3271.55
3280.15
3288.36
3296.14
3303.43
3310.16
3316.27
3321.69
3326.3
3329.98
3332.69
3334.29
3334.84
3333.83
3331.35
3327.15
3321.04
3313.02
3302.78
3290.2
3274.94
3257.21
3236.52
3213.13
3186.64
3157.3
3125.03
3089.5
3051.33
3009.77
2965.68
2915.95
2850.92
3196.67
2836.48
2812.66
2800.43
2787.1
2777.61
2773.17
2773.73
2780.82
2795.69
2813.13
2826.72
2834.17
2837.66
2838.85
2838.42
2836.52
2833.98
2831.35
2828.39
2825.09
2821.87
2819.34
2817.57
2816.33
2815.41
2814.73
2814.3
2814.21
2814.63
2815.71
2817.34
2819.59
2822.52
2826.07
2830.24
2834.94
2840.08
2845.57
2851.34
2857.32
2863.5
2869.85
2876.35
2882.99
2889.77
2896.67
2903.69
2910.84
2918.11
2925.51
2933.05
2940.73
2948.55
2956.52
2964.64
2972.92
2981.36
2989.95
2998.7
3007.61
3016.68
3025.91
3035.3
3044.84
3054.52
3064.35
3074.32
3084.42
3094.65
3105.01
3115.47
3126.04
3136.71
3147.46
3158.29
3169.18
3180.11
3191.08
3202.06
3213.05
3224.02
3234.96
3245.84
3256.64
3267.34
3277.91
3288.32
3298.54
3308.52
3318.25
3327.66
3336.72
3345.36
3353.54
3361.19
3368.24
3374.6
3380.2
3384.87
3388.6
3391.22
3392.7
3393.03
3391.48
3388.6
3383.78
3376.89
3367.81
3356.39
3342.19
3325.28
3305.08
3281.96
3255.24
3225.01
3191.05
3152.69
3111.13
3063.3
3000.89
3201.69
2836.05
2812.71
2799.72
2786
2775.54
2769.17
2767.35
2770.3
2781.79
2800.82
2819.33
2831.41
2837.17
2839.5
2840.16
2839.49
2837.76
2835.69
2833.25
2830.27
2827.05
2824.36
2822.49
2821.26
2820.43
2819.85
2819.55
2819.56
2820.18
2821.32
2823.07
2825.38
2828.35
2831.94
2836.13
2840.87
2846.07
2851.63
2857.48
2863.55
2869.82
2876.26
2882.85
2889.59
2896.48
2903.49
2910.64
2917.92
2925.33
2932.88
2940.57
2948.41
2956.4
2964.55
2972.86
2981.33
2989.96
2998.76
3007.72
3016.85
3026.15
3035.62
3045.26
3055.07
3065.03
3075.14
3085.41
3095.83
3106.4
3117.1
3127.94
3138.89
3149.97
3161.15
3172.44
3183.81
3195.26
3206.77
3218.33
3229.94
3241.57
3253.21
3264.85
3276.46
3288.03
3299.53
3310.94
3322.23
3333.39
3344.37
3355.14
3365.68
3375.92
3385.84
3395.37
3404.47
3413.08
3421.13
3428.54
3435.22
3441.1
3446.01
3449.97
3452.68
3454.12
3454.31
3452.26
3448.73
3442.85
3434.46
3423.59
3409.58
3392.75
3372.2
3348.42
3320.01
3286.81
3249.16
3204.51
3145.72
3207.92
2835.97
2811.37
2798.92
2785.41
2774.75
2767.42
2764
2764.41
2770.95
2787.76
2809.42
2826.38
2835.47
2839.35
2841.04
2841.52
2840.89
2839.44
2837.46
2834.82
2831.67
2828.84
2826.88
2825.65
2824.92
2824.47
2824.34
2824.53
2825.35
2826.64
2828.55
2830.97
2834.03
2837.68
2841.93
2846.71
2851.97
2857.59
2863.5
2869.64
2875.98
2882.5
2889.17
2895.99
2902.96
2910.08
2917.32
2924.71
2932.23
2939.91
2947.73
2955.71
2963.85
2972.15
2980.61
2989.25
2998.05
3007.03
3016.17
3025.5
3035
3044.68
3054.54
3064.57
3074.77
3085.13
3095.66
3106.35
3117.21
3128.21
3139.36
3150.65
3162.07
3173.62
3185.29
3197.08
3208.96
3220.93
3232.98
3245.11
3257.29
3269.52
3281.78
3294.07
3306.35
3318.62
3330.86
3343.04
3355.15
3367.17
3379.06
3390.8
3402.36
3413.71
3424.8
3435.6
3446.06
3456.13
3465.74
3474.84
3483.34
3491.19
3498.25
3504.45
3509.55
3513.65
3516.35
3517.78
3517.81
3515.32
3511.39
3504.66
3495.36
3482.79
3467.13
3446.36
3420.66
3387.79
3347.66
3292.35
3213.92
2834.02
2809.56
2797.98
2785.37
2775.03
2766.82
2762.58
2761.4
2764.05
2776.33
2798.3
2819.48
2832.52
2838.67
2841.54
2842.92
2843.15
2842.49
2841.01
2838.71
2835.7
2832.81
2830.79
2829.59
2828.98
2828.68
2828.7
2829.17
2830.17
2831.65
2833.75
2836.32
2839.5
2843.24
2847.56
2852.41
2857.71
2863.39
2869.36
2875.57
2881.96
2888.54
2895.27
2902.16
2909.2
2916.38
2923.71
2931.19
2938.81
2946.59
2954.52
2962.62
2970.89
2979.32
2987.92
2996.7
3005.66
3014.79
3024.1
3033.59
3043.27
3053.14
3063.18
3073.41
3083.82
3094.41
3105.16
3116.09
3127.19
3138.46
3149.88
3161.45
3173.17
3185.04
3197.04
3209.18
3221.43
3233.79
3246.26
3258.81
3271.46
3284.18
3296.97
3309.81
3322.69
3335.59
3348.51
3361.42
3374.31
3387.17
3399.97
3412.69
3425.31
3437.81
3450.15
3462.31
3474.25
3485.93
3497.32
3508.35
3518.99
3529.18
3538.86
3547.97
3556.41
3564.09
3570.89
3576.57
3581.22
3584.32
3586.02
3586.1
3583.24
3578.64
3571.08
3559.62
3544.05
3520.04
3490.94
3446.34
3219.34
2831.1
2806.96
2796.51
2785.01
2775.28
2767.06
2762.09
2759.98
2760.37
2767.86
2787.54
2811.37
2828.37
2837.31
2841.52
2843.86
2844.82
2844.81
2843.91
2841.98
2839.17
2836.32
2834.29
2833.18
2832.66
2832.52
2832.75
2833.48
2834.68
2836.39
2838.68
2841.43
2844.76
2848.61
2853.03
2857.95
2863.32
2869.06
2875.08
2881.34
2887.78
2894.4
2901.18
2908.12
2915.21
2922.45
2929.85
2937.39
2945.09
2952.95
2960.98
2969.18
2977.55
2986.1
2994.82
3003.72
3012.81
3022.07
3031.53
3041.17
3051.01
3061.03
3071.25
3081.66
3092.25
3103.02
3113.98
3125.12
3136.44
3147.93
3159.58
3171.41
3183.39
3195.53
3207.82
3220.25
3232.82
3245.51
3258.33
3271.26
3284.3
3297.43
3310.66
3323.97
3337.34
3350.77
3364.25
3377.77
3391.3
3404.85
3418.38
3431.9
3445.37
3458.79
3472.13
3485.37
3498.48
3511.45
3524.23
3536.81
3549.13
3561.17
3572.87
3584.19
3595.06
3605.42
3615.18
3624.25
3632.54
3639.92
3646.15
3651.39
3654.9
3657.04
3657.38
3654.85
3649.49
3637.6
3622.85
3595.73
3223.77
2827.87
2803.63
2794.2
2783.76
2774.89
2766.95
2761.62
2758.95
2758.64
2762.39
2778.37
2803.02
2823.52
2835.36
2841.23
2844.44
2846.09
2846.55
2846.1
2844.6
2842.09
2839.37
2837.4
2836.42
2836.04
2836.05
2836.54
2837.48
2838.87
2840.82
2843.31
2846.25
2849.74
2853.74
2858.26
2863.27
2868.71
2874.51
2880.58
2886.87
2893.36
2900.02
2906.84
2913.82
2920.96
2928.26
2935.7
2943.31
2951.08
2959.02
2967.13
2975.42
2983.88
2992.53
3001.36
3010.37
3019.57
3028.96
3038.54
3048.32
3058.3
3068.47
3078.84
3089.4
3100.16
3111.11
3122.24
3133.57
3145.08
3156.78
3168.65
3180.69
3192.91
3205.29
3217.83
3230.53
3243.38
3256.37
3269.49
3282.74
3296.12
3309.61
3323.21
3336.91
3350.7
3364.58
3378.53
3392.53
3406.6
3420.7
3434.84
3448.99
3463.15
3477.3
3491.42
3505.5
3519.52
3533.47
3547.32
3561.05
3574.62
3588.02
3601.21
3614.16
3626.83
3639.18
3651.17
3662.73
3673.82
3684.33
3694.2
3703.27
3711.41
3718.42
3724.33
3728.78
3731.35
3731.36
3727.63
3720.21
3227.14
2824.36
2800.06
2791.5
2782.04
2774.17
2766.79
2761.24
2758.15
2757.41
2759.07
2771.17
2795.33
2818.52
2833.14
2840.76
2844.77
2846.93
2847.75
2847.67
2846.63
2844.48
2842
2840.2
2839.39
2839.16
2839.34
2840.09
2841.22
2842.82
2845
2847.7
2850.84
2854.51
2858.66
2863.3
2868.4
2873.91
2879.76
2885.87
2892.19
2898.71
2905.39
2912.24
2919.25
2926.42
2933.76
2941.25
2948.91
2956.73
2964.73
2972.92
2981.28
2989.84
2998.57
3007.5
3016.61
3025.91
3035.41
3045.11
3055.01
3065.11
3075.41
3085.92
3096.63
3107.53
3118.63
3129.93
3141.42
3153.11
3164.99
3177.05
3189.29
3201.71
3214.31
3227.07
3240.01
3253.1
3266.35
3279.74
3293.28
3306.95
3320.75
3334.67
3348.72
3362.87
3377.11
3391.45
3405.87
3420.37
3434.93
3449.54
3464.2
3478.89
3493.6
3508.33
3523.04
3537.74
3552.41
3567.03
3581.57
3596.03
3610.38
3624.59
3638.66
3652.53
3666.2
3679.6
3692.69
3705.43
3717.74
3729.61
3740.87
3751.57
3761.42
3770.46
3778.39
3785.03
3790.36
3792.83
3795.95
3229.53
2821.24
2796.36
2788.51
2779.93
2773.02
2766.27
2760.73
2757.44
2756.29
2756.98
2765.93
2788.84
2813.88
2830.88
2840.12
2844.8
2847.34
2848.52
2848.74
2848.09
2846.38
2844.25
2842.74
2842.09
2842.02
2842.43
2843.4
2844.71
2846.53
2848.92
2851.82
2855.16
2859.01
2863.3
2868.07
2873.27
2878.86
2884.76
2890.91
2897.27
2903.81
2910.52
2917.39
2924.43
2931.63
2938.99
2946.52
2954.22
2962.09
2970.15
2978.39
2986.83
2995.45
3004.26
3013.27
3022.47
3031.87