/*--------------------------------*- C++ -*----------------------------------*\
| =========                 |                                                 |
| \\      /  F ield         | OpenFOAM: The Open Source CFD Toolbox           |
|  \\    /   O peration     | Version:  2412                                  |
|   \\  /    A nd           | Website:  www.openfoam.com                      |
|    \\/     M anipulation  |                                                 |
\*---------------------------------------------------------------------------*/
FoamFile
{
    version     2.0;
    format      ascii;
    arch        "LSB;label=32;scalar=64";
    class       volScalarField;
    location    "0.05";
    object      rho;
}
// * * * * * * * * * * * * * * * * * * * * * * * * * * * * * * * * * * * * * //

dimensions      [1 -3 0 0 0 0 0];

internalField   nonuniform List<scalar> 
78650
(
0.042133
0.0421334
0.0421399
0.0421826
0.042282
0.0423756
0.0424034
0.0423964
0.0423109
0.042164
0.0420297
0.0419238
0.0418325
0.0417444
0.0416683
0.0416291
0.0416244
0.0416427
0.0416782
0.0417021
0.0417092
0.0417067
0.0416931
0.0416743
0.0416564
0.0416393
0.041622
0.0416045
0.0415877
0.0415718
0.0415564
0.0415403
0.0415219
0.0415
0.0414748
0.0414474
0.0414187
0.0413894
0.0413601
0.0413311
0.0413027
0.0412751
0.0412485
0.0412231
0.0411991
0.0411765
0.0411552
0.0411354
0.041117
0.0411002
0.0410848
0.0410706
0.0410575
0.0410453
0.0410339
0.0410231
0.0410129
0.0410029
0.0409929
0.0409827
0.0409719
0.0409605
0.0409479
0.0409337
0.0409177
0.0408991
0.0408776
0.0408525
0.0408236
0.0407905
0.0407524
0.0407084
0.0406577
0.0405992
0.0405321
0.0404556
0.0403687
0.0402704
0.0401592
0.040034
0.0398932
0.0397352
0.0395582
0.0393606
0.0391409
0.0388977
0.0386304
0.0383359
0.0380123
0.0376548
0.0372671
0.036843
0.0363876
0.0358854
0.035353
0.0347813
0.0341591
0.0334954
0.032782
0.0320538
0.031311
0.0305417
0.0297692
0.0289736
0.028177
0.0273657
0.0265711
0.0258308
0.0251105
0.024434
0.0237891
0.0231882
0.022631
0.0221085
0.021627
0.0211528
0.0207076
0.0202745
0.0198896
0.0195494
0.0189682
0.042133
0.0421332
0.0421371
0.0421691
0.0422607
0.0423646
0.0424057
0.0424082
0.0423454
0.0422069
0.0420674
0.0419584
0.0418689
0.0417832
0.0417029
0.0416522
0.04164
0.0416513
0.0416848
0.0417149
0.0417266
0.0417269
0.0417176
0.0417002
0.0416826
0.041666
0.0416496
0.0416332
0.0416174
0.0416028
0.0415889
0.0415745
0.0415578
0.0415377
0.0415142
0.0414885
0.0414616
0.041434
0.0414064
0.041379
0.0413521
0.041326
0.0413009
0.0412771
0.0412548
0.0412339
0.0412146
0.0411967
0.0411804
0.0411657
0.0411526
0.0411408
0.0411302
0.0411206
0.0411119
0.0411041
0.0410969
0.0410902
0.0410837
0.0410772
0.0410704
0.0410632
0.0410551
0.0410459
0.0410351
0.0410223
0.0410069
0.0409885
0.0409667
0.0409412
0.0409113
0.0408764
0.0408355
0.0407878
0.0407323
0.0406684
0.0405951
0.0405114
0.0404163
0.0403084
0.0401863
0.0400485
0.0398936
0.0397198
0.0395259
0.03931
0.0390706
0.038804
0.0385089
0.0381827
0.0378284
0.0374398
0.0370185
0.0365521
0.0360559
0.0355134
0.0349384
0.034324
0.0336719
0.0329812
0.0322359
0.0314601
0.0306808
0.0298751
0.0290628
0.0282579
0.0274326
0.0266422
0.0258744
0.025131
0.0244312
0.0237745
0.0231565
0.0225912
0.0220901
0.0216168
0.0211822
0.0207282
0.0202704
0.0198388
0.0191348
0.042133
0.0421331
0.0421353
0.0421578
0.0422384
0.0423492
0.042406
0.042419
0.0423762
0.042249
0.0421051
0.041993
0.0419054
0.0418236
0.0417418
0.0416806
0.0416593
0.0416643
0.0416916
0.0417255
0.0417434
0.0417468
0.0417414
0.0417265
0.0417093
0.0416932
0.0416779
0.0416626
0.0416481
0.0416349
0.0416226
0.0416098
0.0415949
0.0415765
0.0415547
0.0415307
0.0415055
0.0414797
0.0414538
0.041428
0.0414027
0.041378
0.0413544
0.0413322
0.0413114
0.0412923
0.0412748
0.0412589
0.0412447
0.0412322
0.0412213
0.0412119
0.0412038
0.0411969
0.041191
0.0411861
0.041182
0.0411785
0.0411755
0.0411727
0.0411699
0.0411668
0.0411633
0.0411589
0.0411533
0.0411461
0.0411367
0.0411248
0.0411099
0.0410918
0.04107
0.0410437
0.0410123
0.0409748
0.0409304
0.0408783
0.0408178
0.040748
0.0406677
0.0405759
0.0404712
0.0403522
0.0402176
0.0400656
0.0398946
0.0397026
0.0394886
0.0392501
0.0389867
0.0386955
0.038376
0.0380214
0.0376326
0.0372041
0.036748
0.0362498
0.0357193
0.0351408
0.0345116
0.033848
0.033142
0.0324216
0.0316633
0.0308934
0.0300711
0.0292746
0.0284453
0.0276105
0.0268105
0.0260001
0.0252171
0.0244571
0.0237228
0.0230429
0.0224449
0.0219108
0.0214528
0.0210089
0.02058
0.0201707
0.0194514
0.042133
0.0421331
0.0421342
0.042149
0.0422159
0.0423295
0.0424042
0.0424287
0.0424015
0.0422898
0.0421449
0.0420299
0.0419432
0.0418655
0.041785
0.0417155
0.0416823
0.0416806
0.0416992
0.0417341
0.0417591
0.0417664
0.0417641
0.0417526
0.0417366
0.0417213
0.041707
0.0416932
0.0416801
0.0416683
0.0416576
0.0416466
0.0416334
0.0416168
0.0415968
0.0415745
0.041551
0.041527
0.0415028
0.0414786
0.0414548
0.0414317
0.0414095
0.0413887
0.0413695
0.041352
0.0413362
0.0413222
0.04131
0.0412995
0.0412908
0.0412837
0.0412781
0.0412737
0.0412706
0.0412685
0.0412674
0.0412672
0.0412675
0.0412683
0.0412692
0.0412702
0.041271
0.0412712
0.0412706
0.0412687
0.0412652
0.0412596
0.0412513
0.0412403
0.0412261
0.0412081
0.0411857
0.041158
0.0411242
0.0410837
0.0410356
0.0409791
0.0409134
0.0408374
0.0407499
0.0406495
0.0405349
0.0404044
0.0402567
0.04009
0.0399031
0.0396936
0.0394601
0.0391993
0.0389106
0.0385891
0.0382368
0.0378492
0.0374306
0.0369667
0.0364676
0.0359194
0.0353393
0.0347194
0.0340534
0.0333465
0.0325666
0.0317977
0.0309832
0.030149
0.029341
0.0285052
0.0277023
0.026912
0.0261282
0.0253713
0.0246185
0.0238989
0.0231934
0.0225119
0.0218771
0.0212954
0.0208025
0.0203644
0.0196081
0.042133
0.0421331
0.0421336
0.0421425
0.0421945
0.0423055
0.0423986
0.0424358
0.042419
0.0423297
0.0421883
0.0420697
0.0419823
0.0419084
0.0418315
0.0417569
0.0417105
0.0417002
0.0417105
0.0417419
0.0417729
0.0417853
0.0417858
0.0417785
0.0417648
0.0417504
0.0417373
0.0417251
0.0417135
0.0417033
0.0416942
0.041685
0.0416737
0.0416589
0.0416406
0.04162
0.0415982
0.041576
0.0415535
0.041531
0.0415088
0.0414871
0.0414664
0.041447
0.0414293
0.0414134
0.0413994
0.0413871
0.0413768
0.0413684
0.0413619
0.0413571
0.0413539
0.0413521
0.0413517
0.0413524
0.0413543
0.0413572
0.0413609
0.0413651
0.0413699
0.0413749
0.0413798
0.0413846
0.0413888
0.0413922
0.0413941
0.0413946
0.0413928
0.0413888
0.0413821
0.041372
0.0413583
0.04134
0.0413163
0.0412867
0.0412503
0.0412066
0.0411545
0.0410933
0.0410216
0.0409384
0.0408423
0.040732
0.040606
0.0404625
0.0403001
0.0401167
0.0399114
0.0396817
0.0394261
0.03914
0.0388243
0.038475
0.0380937
0.0376701
0.0372131
0.0367111
0.036176
0.0355916
0.0349603
0.0342926
0.0335645
0.0327928
0.0320102
0.031156
0.030313
0.0294253
0.02853
0.0276676
0.0268255
0.0260245
0.0252616
0.0245579
0.0238737
0.0232314
0.0226177
0.0219828
0.0213644
0.0207908
0.0198254
0.042133
0.042133
0.0421333
0.0421381
0.0421754
0.0422775
0.042387
0.0424386
0.0424319
0.0423686
0.0422355
0.0421125
0.0420229
0.041952
0.0418802
0.0418041
0.0417453
0.0417238
0.0417261
0.0417489
0.0417833
0.0418031
0.0418074
0.0418039
0.0417935
0.0417808
0.041769
0.0417584
0.0417486
0.0417399
0.0417325
0.0417251
0.0417157
0.0417027
0.0416862
0.0416674
0.0416474
0.0416268
0.0416061
0.0415853
0.0415646
0.0415445
0.0415253
0.0415074
0.0414911
0.0414767
0.0414643
0.0414538
0.0414453
0.0414389
0.0414344
0.0414319
0.0414311
0.0414318
0.0414341
0.0414375
0.0414423
0.0414482
0.0414551
0.0414628
0.0414712
0.04148
0.0414891
0.0414982
0.0415072
0.0415156
0.041523
0.0415291
0.0415336
0.041536
0.0415365
0.041534
0.0415287
0.0415195
0.0415055
0.0414864
0.0414613
0.0414299
0.0413911
0.0413442
0.041288
0.0412217
0.041144
0.0410536
0.040949
0.0408285
0.0406908
0.0405341
0.0403573
0.0401571
0.0399321
0.0396792
0.0393995
0.0390878
0.0387431
0.0383572
0.0379373
0.0374751
0.0369794
0.0364355
0.0358519
0.0352224
0.034551
0.0338212
0.0330733
0.0322752
0.031441
0.0305968
0.0297191
0.0288132
0.027914
0.0270145
0.026114
0.0252508
0.0244172
0.023645
0.0229854
0.0223809
0.0218316
0.02132
0.020377
0.042133
0.042133
0.0421331
0.0421355
0.0421599
0.0422472
0.0423677
0.0424378
0.0424421
0.0424042
0.0422843
0.0421574
0.0420652
0.0419961
0.0419298
0.0418553
0.0417873
0.0417513
0.0417453
0.041758
0.0417915
0.0418196
0.0418293
0.0418291
0.0418229
0.0418126
0.0418022
0.0417933
0.0417853
0.0417784
0.0417727
0.041767
0.0417594
0.0417483
0.0417337
0.0417166
0.0416983
0.0416795
0.0416605
0.0416413
0.0416223
0.0416038
0.041586
0.0415695
0.0415547
0.0415418
0.041531
0.0415222
0.0415155
0.041511
0.0415086
0.0415083
0.0415099
0.0415132
0.0415179
0.0415241
0.0415318
0.0415407
0.0415508
0.0415619
0.0415739
0.0415865
0.0415997
0.0416131
0.0416266
0.0416398
0.0416525
0.0416643
0.0416749
0.0416837
0.0416908
0.0416958
0.0416982
0.0416977
0.0416932
0.0416842
0.0416699
0.04165
0.0416236
0.0415901
0.0415484
0.0414977
0.0414369
0.0413646
0.0412798
0.0411807
0.0410661
0.0409341
0.0407834
0.0406118
0.0404184
0.0402
0.0399555
0.0396793
0.0393712
0.0390271
0.0386524
0.0382374
0.0377844
0.0372802
0.0367341
0.0361372
0.0354944
0.0348114
0.0340593
0.0332775
0.0324229
0.0315723
0.0307167
0.0298495
0.0289657
0.0281092
0.0272301
0.0263664
0.0255138
0.024657
0.0238067
0.0229719
0.0222274
0.0215931
0.0204605
0.042133
0.042133
0.0421331
0.0421341
0.0421484
0.0422172
0.0423402
0.0424322
0.0424512
0.0424326
0.0423324
0.0422057
0.0421103
0.0420408
0.0419785
0.0419075
0.0418346
0.0417842
0.0417684
0.0417725
0.0417991
0.0418333
0.0418513
0.0418552
0.0418528
0.0418457
0.0418372
0.0418299
0.0418237
0.0418186
0.0418145
0.0418105
0.0418047
0.0417956
0.0417828
0.0417674
0.0417509
0.0417338
0.0417165
0.041699
0.0416816
0.0416646
0.0416484
0.0416334
0.04162
0.0416087
0.0415994
0.0415923
0.0415874
0.0415847
0.0415843
0.0415862
0.04159
0.0415956
0.0416029
0.0416118
0.0416222
0.0416341
0.0416473
0.0416617
0.0416771
0.0416934
0.0417104
0.041728
0.0417459
0.0417639
0.0417816
0.0417988
0.0418151
0.0418302
0.041844
0.041856
0.0418659
0.0418732
0.0418775
0.0418783
0.0418745
0.0418659
0.0418516
0.041831
0.0418034
0.0417679
0.0417236
0.0416693
0.0416039
0.0415259
0.0414339
0.0413262
0.0412016
0.041058
0.0408939
0.0407063
0.0404941
0.0402533
0.0399841
0.0396822
0.0393486
0.0389735
0.0385603
0.0381014
0.0376065
0.0370673
0.0364817
0.035843
0.0351527
0.0344136
0.0335993
0.0327315
0.0318159
0.0309052
0.0299388
0.0289898
0.0280648
0.027135
0.0262634
0.0254473
0.0246549
0.02389
0.0230989
0.0223565
0.0209899
0.042133
0.042133
0.042133
0.0421334
0.0421409
0.0421901
0.0423069
0.0424195
0.0424569
0.0424524
0.0423792
0.042258
0.0421573
0.0420844
0.0420244
0.0419585
0.0418853
0.0418245
0.0417966
0.0417934
0.0418095
0.0418452
0.0418729
0.041883
0.0418837
0.0418802
0.041874
0.0418683
0.041864
0.0418607
0.0418582
0.0418557
0.0418515
0.0418442
0.0418332
0.0418197
0.0418049
0.0417895
0.0417738
0.041758
0.0417422
0.0417267
0.0417121
0.0416985
0.0416867
0.0416768
0.0416691
0.0416637
0.0416605
0.0416597
0.0416614
0.0416652
0.0416712
0.0416792
0.041689
0.0417006
0.0417138
0.0417285
0.0417448
0.0417624
0.0417813
0.0418012
0.041822
0.0418436
0.0418658
0.0418883
0.041911
0.0419335
0.0419554
0.0419764
0.0419965
0.0420153
0.0420326
0.0420479
0.0420605
0.0420699
0.0420759
0.0420779
0.042075
0.0420668
0.0420525
0.042031
0.0420018
0.0419638
0.0419162
0.0418574
0.0417864
0.0417014
0.0416011
0.0414837
0.0413481
0.0411917
0.0410134
0.0408088
0.0405776
0.0403151
0.0400214
0.0396888
0.0393208
0.0389108
0.0384629
0.0379658
0.03742
0.0368232
0.0361756
0.0354791
0.0347378
0.0339415
0.0330991
0.0322189
0.0313044
0.0303252
0.0293909
0.0283828
0.0273842
0.0263917
0.0254268
0.0245433
0.0237514
0.0230467
0.0216979
0.042133
0.042133
0.042133
0.0421332
0.0421365
0.0421681
0.0422697
0.0423977
0.0424574
0.0424675
0.0424225
0.0423116
0.0422039
0.0421264
0.0420681
0.0420084
0.0419389
0.0418725
0.0418319
0.0418204
0.041827
0.0418576
0.0418926
0.0419115
0.0419163
0.0419158
0.0419125
0.0419086
0.0419059
0.0419044
0.0419033
0.0419021
0.0418995
0.0418939
0.0418847
0.041873
0.0418598
0.0418461
0.0418321
0.0418178
0.0418036
0.0417898
0.0417766
0.0417646
0.0417543
0.0417459
0.0417399
0.0417361
0.0417347
0.0417358
0.0417393
0.0417451
0.0417533
0.0417635
0.0417757
0.0417898
0.0418057
0.0418233
0.0418425
0.0418632
0.0418853
0.0419087
0.0419332
0.0419587
0.041985
0.0420119
0.0420392
0.0420667
0.042094
0.0421208
0.0421469
0.0421722
0.0421963
0.042219
0.0422397
0.042258
0.0422733
0.0422849
0.0422927
0.0422961
0.0422948
0.0422872
0.0422731
0.0422508
0.0422205
0.0421805
0.0421299
0.0420668
0.0419903
0.0418983
0.0417899
0.0416624
0.0415145
0.041343
0.0411475
0.0409234
0.0406696
0.0403795
0.0400564
0.0396937
0.039293
0.0388432
0.0383459
0.0377982
0.0371981
0.0365451
0.0358318
0.0350626
0.0342414
0.0333248
0.0324235
0.0314558
0.0304833
0.029506
0.0284976
0.0275132
0.0264837
0.0254865
0.0245134
0.0236427
0.021999
0.042133
0.042133
0.042133
0.0421331
0.0421344
0.0421522
0.0422325
0.0423669
0.0424522
0.0424814
0.0424575
0.0423614
0.0422495
0.0421686
0.0421115
0.0420575
0.0419937
0.0419261
0.0418752
0.041854
0.0418533
0.0418729
0.0419104
0.0419394
0.0419509
0.041953
0.0419522
0.0419501
0.0419491
0.0419492
0.0419497
0.0419496
0.0419482
0.0419442
0.0419369
0.0419269
0.0419154
0.0419032
0.0418908
0.0418781
0.0418655
0.0418532
0.0418416
0.0418312
0.0418224
0.0418156
0.0418111
0.0418091
0.0418095
0.0418124
0.0418177
0.0418255
0.0418358
0.0418483
0.0418629
0.0418795
0.041898
0.0419183
0.0419404
0.0419642
0.0419895
0.0420163
0.0420443
0.0420736
0.0421039
0.0421351
0.0421669
0.0421992
0.0422317
0.042264
0.0422959
0.0423274
0.0423582
0.0423879
0.0424163
0.0424427
0.0424668
0.0424881
0.0425062
0.0425202
0.0425299
0.0425348
0.0425351
0.0425276
0.0425134
0.0424904
0.0424583
0.0424155
0.0423609
0.0422927
0.0422099
0.0421104
0.0419931
0.0418551
0.0416949
0.041508
0.0412935
0.0410469
0.0407703
0.0404556
0.0401026
0.0397026
0.0392593
0.0387681
0.0382261
0.0376329
0.0369798
0.036267
0.0354922
0.0346612
0.0337511
0.0327997
0.0317635
0.0307557
0.0296848
0.0286714
0.0276155
0.0266112
0.0256251
0.0247179
0.0229262
0.042133
0.042133
0.042133
0.042133
0.0421335
0.0421423
0.042199
0.0423282
0.0424417
0.0424894
0.0424789
0.042408
0.0422976
0.0422131
0.0421552
0.0421055
0.042048
0.0419832
0.0419266
0.0418947
0.0418869
0.0418959
0.0419287
0.0419652
0.0419854
0.0419914
0.0419924
0.0419923
0.0419927
0.0419946
0.0419966
0.0419975
0.0419971
0.0419946
0.0419891
0.0419809
0.041971
0.0419604
0.0419495
0.0419384
0.0419273
0.0419165
0.0419065
0.0418977
0.0418905
0.0418852
0.0418824
0.041882
0.0418845
0.0418891
0.0418963
0.041906
0.0419183
0.041933
0.0419499
0.0419689
0.0419899
0.0420129
0.0420377
0.0420644
0.0420928
0.0421228
0.0421543
0.0421871
0.0422212
0.0422564
0.0422926
0.0423294
0.0423668
0.0424043
0.0424418
0.0424791
0.0425162
0.0425526
0.0425882
0.0426224
0.0426549
0.0426851
0.0427127
0.0427374
0.0427586
0.0427753
0.0427875
0.0427945
0.0427961
0.0427898
0.0427759
0.0427525
0.0427189
0.0426733
0.0426149
0.0425416
0.0424524
0.0423445
0.0422166
0.0420652
0.0418897
0.0416855
0.041452
0.041181
0.0408736
0.0405236
0.0401342
0.0396979
0.03921
0.0386654
0.0380585
0.0373978
0.036675
0.0358905
0.0350394
0.0341358
0.0331542
0.0321176
0.0310511
0.0299797
0.0288529
0.0277477
0.0266677
0.0256909
0.0238614
0.042133
0.042133
0.042133
0.042133
0.0421332
0.0421369
0.0421724
0.0422852
0.0424211
0.0424907
0.0424926
0.0424502
0.0423474
0.0422584
0.0421983
0.0421519
0.0421012
0.0420418
0.0419839
0.0419427
0.0419266
0.0419274
0.0419486
0.0419872
0.0420168
0.0420292
0.0420326
0.0420339
0.0420357
0.042039
0.0420428
0.0420451
0.0420457
0.0420444
0.0420407
0.0420344
0.0420262
0.0420171
0.0420077
0.041998
0.0419885
0.0419793
0.0419709
0.0419637
0.041958
0.0419544
0.0419531
0.0419547
0.0419587
0.0419653
0.0419744
0.0419861
0.0420005
0.0420173
0.0420364
0.0420578
0.0420812
0.0421068
0.0421343
0.0421638
0.0421952
0.0422283
0.0422631
0.0422995
0.0423373
0.0423764
0.0424166
0.0424579
0.0424999
0.0425425
0.0425853
0.0426282
0.0426711
0.042714
0.0427564
0.0427979
0.0428382
0.0428768
0.0429135
0.0429478
0.0429792
0.0430074
0.0430319
0.0430516
0.0430661
0.0430749
0.0430777
0.0430723
0.0430583
0.043034
0.0429983
0.0429497
0.0428873
0.0428088
0.0427129
0.0425961
0.0424574
0.0422922
0.0420998
0.0418736
0.0416151
0.0413179
0.0409825
0.0405992
0.0401654
0.0396774
0.0391295
0.0385252
0.0378555
0.0371274
0.0363278
0.0354496
0.0345204
0.033488
0.0324246
0.0312926
0.0301455
0.0289738
0.0278005
0.0267055
0.0245648
0.042133
0.042133
0.042133
0.042133
0.0421331
0.0421345
0.042154
0.0422428
0.0423883
0.0424855
0.0425039
0.0424843
0.0423953
0.0423028
0.0422412
0.0421977
0.0421534
0.0421
0.0420434
0.0419962
0.04197
0.0419635
0.041973
0.0420068
0.042044
0.0420644
0.0420715
0.0420744
0.0420775
0.0420823
0.0420878
0.0420919
0.0420936
0.0420934
0.0420913
0.0420868
0.0420804
0.0420728
0.0420647
0.0420566
0.0420485
0.0420409
0.0420341
0.0420286
0.0420246
0.0420226
0.0420231
0.0420263
0.0420321
0.0420406
0.0420516
0.0420653
0.0420817
0.0421006
0.0421219
0.0421455
0.0421714
0.0421994
0.0422295
0.0422617
0.0422959
0.042332
0.0423699
0.0424096
0.0424508
0.0424936
0.0425377
0.0425831
0.0426295
0.0426768
0.0427246
0.0427728
0.0428213
0.0428701
0.0429188
0.0429672
0.0430149
0.0430614
0.0431066
0.0431499
0.0431912
0.0432299
0.0432656
0.0432978
0.0433259
0.043349
0.0433664
0.0433777
0.0433821
0.0433782
0.0433641
0.043339
0.0433013
0.0432496
0.0431825
0.0430974
0.0429931
0.0428657
0.042714
0.0425325
0.0423219
0.0420751
0.0417916
0.0414621
0.0410864
0.0406595
0.0401782
0.0396425
0.0390394
0.0383715
0.0376269
0.036814
0.0359287
0.0349739
0.0339399
0.0327829
0.031635
0.0304299
0.0292244
0.0281144
0.0260459
0.042133
0.042133
0.042133
0.042133
0.042133
0.0421335
0.042143
0.0422058
0.0423472
0.0424721
0.0425129
0.0425065
0.0424385
0.0423475
0.0422847
0.0422427
0.042203
0.0421545
0.0421003
0.0420506
0.0420161
0.0420023
0.0420036
0.0420263
0.0420662
0.0420959
0.0421089
0.0421141
0.0421182
0.0421242
0.0421312
0.042137
0.0421404
0.0421415
0.0421407
0.0421379
0.0421331
0.0421269
0.0421202
0.0421135
0.042107
0.042101
0.0420959
0.042092
0.0420898
0.0420894
0.0420917
0.0420966
0.0421042
0.0421145
0.0421275
0.0421431
0.0421615
0.0421825
0.042206
0.0422318
0.04226
0.0422904
0.042323
0.0423578
0.0423947
0.0424337
0.0424746
0.0425174
0.042562
0.0426083
0.0426562
0.0427055
0.0427561
0.0428078
0.0428603
0.0429136
0.0429674
0.0430218
0.0430765
0.0431313
0.0431858
0.0432397
0.0432928
0.0433446
0.0433949
0.0434433
0.0434895
0.0435329
0.0435729
0.0436091
0.0436409
0.0436675
0.0436877
0.0437011
0.0437069
0.0437042
0.04369
0.0436642
0.0436245
0.0435697
0.0434979
0.0434059
0.0432924
0.0431526
0.0429864
0.0427863
0.0425519
0.0422752
0.0419575
0.0415919
0.0411743
0.0407
0.0401573
0.039548
0.0388607
0.0381063
0.0372755
0.0363601
0.0353621
0.0342666
0.0331147
0.0318579
0.0305259
0.0292845
0.0269085
0.042133
0.042133
0.042133
0.042133
0.042133
0.0421332
0.0421372
0.0421771
0.0423027
0.0424501
0.0425148
0.0425209
0.0424778
0.0423927
0.0423269
0.0422845
0.0422481
0.0422041
0.0421535
0.0421045
0.0420656
0.0420441
0.0420392
0.0420503
0.0420866
0.0421241
0.0421445
0.042153
0.0421585
0.0421652
0.0421736
0.042181
0.0421862
0.0421888
0.0421892
0.0421878
0.0421843
0.0421793
0.0421739
0.0421686
0.0421636
0.0421592
0.0421558
0.0421536
0.042153
0.0421546
0.0421584
0.0421651
0.0421745
0.0421867
0.0422016
0.0422192
0.0422395
0.0422626
0.0422882
0.0423162
0.0423466
0.0423793
0.0424142
0.0424515
0.042491
0.0425327
0.0425765
0.0426222
0.04267
0.0427196
0.0427709
0.0428238
0.0428783
0.0429342
0.0429912
0.0430491
0.0431078
0.0431674
0.0432276
0.0432884
0.0433493
0.04341
0.0434704
0.04353
0.0435887
0.0436461
0.043702
0.0437559
0.0438073
0.0438557
0.0439007
0.0439415
0.0439776
0.0440081
0.0440315
0.0440473
0.0440548
0.0440537
0.0440392
0.0440126
0.0439701
0.043911
0.0438331
0.0437327
0.0436088
0.0434546
0.0432703
0.0430486
0.0427901
0.0424859
0.0421319
0.0417208
0.0412453
0.0407074
0.0400968
0.0394157
0.0386475
0.0377992
0.0368631
0.0358474
0.0347141
0.0335814
0.0322409
0.0310431
0.0287515
0.042133
0.042133
0.042133
0.042133
0.042133
0.0421331
0.0421346
0.0421575
0.0422597
0.0424194
0.0425093
0.0425343
0.0425114
0.0424345
0.042365
0.042322
0.0422892
0.0422502
0.0422038
0.0421572
0.042117
0.0420895
0.0420789
0.0420817
0.042108
0.0421494
0.0421782
0.0421917
0.0421991
0.0422066
0.0422159
0.0422248
0.0422314
0.0422354
0.042237
0.0422364
0.042234
0.04223
0.0422256
0.0422216
0.0422181
0.0422153
0.0422136
0.0422131
0.0422144
0.0422176
0.0422231
0.0422315
0.0422428
0.0422568
0.0422736
0.0422931
0.0423154
0.0423404
0.0423681
0.0423982
0.0424308
0.0424657
0.042503
0.0425427
0.0425846
0.0426289
0.0426754
0.042724
0.0427747
0.0428274
0.042882
0.0429385
0.0429966
0.0430564
0.0431175
0.0431798
0.0432432
0.0433077
0.0433731
0.0434394
0.0435062
0.0435733
0.0436404
0.0437073
0.0437737
0.0438394
0.0439041
0.0439675
0.0440292
0.0440887
0.0441455
0.0441992
0.0442492
0.0442947
0.0443351
0.0443693
0.0443958
0.0444143
0.0444236
0.0444242
0.0444095
0.0443818
0.0443367
0.0442728
0.044188
0.0440772
0.0439402
0.0437697
0.0435654
0.0433174
0.0430232
0.0426755
0.0422705
0.0418069
0.0412719
0.0406623
0.0399614
0.0391796
0.0383011
0.0373311
0.0362508
0.0350725
0.033704
0.0324024
0.0300568
0.042133
0.042133
0.042133
0.042133
0.042133
0.042133
0.0421336
0.0421456
0.0422223
0.0423822
0.0425001
0.0425459
0.0425341
0.04247
0.0424002
0.0423573
0.0423282
0.0422944
0.0422521
0.042208
0.0421685
0.0421377
0.0421216
0.0421189
0.0421339
0.042174
0.042211
0.0422309
0.042241
0.0422493
0.0422591
0.042269
0.0422767
0.0422818
0.0422843
0.0422843
0.0422825
0.0422792
0.0422756
0.0422726
0.0422704
0.0422692
0.0422692
0.0422705
0.0422734
0.0422783
0.0422856
0.0422957
0.0423087
0.0423246
0.0423432
0.0423646
0.0423888
0.0424158
0.0424455
0.0424777
0.0425123
0.0425494
0.0425889
0.0426309
0.0426752
0.0427219
0.0427709
0.0428222
0.0428757
0.0429313
0.042989
0.0430486
0.0431102
0.0431735
0.0432385
0.0433049
0.0433725
0.0434415
0.0435116
0.0435829
0.0436551
0.043728
0.0438013
0.0438748
0.0439483
0.0440216
0.0440944
0.0441666
0.0442377
0.0443073
0.0443751
0.0444407
0.0445035
0.044563
0.0446185
0.044669
0.044714
0.0447524
0.0447824
0.0448039
0.0448153
0.0448169
0.0448021
0.0447725
0.0447238
0.0446535
0.0445603
0.0444376
0.0442847
0.0440924
0.0438602
0.0435804
0.0432494
0.0428596
0.0423978
0.0418625
0.0412448
0.0405501
0.039753
0.0388546
0.0378373
0.0367221
0.0354751
0.0341987
0.031919
0.042133
0.042133
0.042133
0.042133
0.042133
0.042133
0.0421332
0.0421391
0.0421929
0.0423427
0.042488
0.0425514
0.0425483
0.0425012
0.0424336
0.0423911
0.0423653
0.0423361
0.0422974
0.0422558
0.042218
0.0421868
0.0421669
0.0421602
0.042167
0.0422006
0.0422433
0.0422704
0.0422841
0.0422934
0.0423034
0.0423139
0.0423224
0.0423282
0.0423311
0.0423314
0.0423297
0.0423267
0.0423237
0.0423215
0.0423206
0.042321
0.0423225
0.0423254
0.04233
0.0423366
0.0423456
0.0423574
0.0423721
0.0423898
0.0424102
0.0424335
0.0424595
0.0424884
0.04252
0.0425542
0.0425909
0.0426301
0.0426718
0.0427159
0.0427624
0.0428115
0.0428629
0.0429167
0.0429728
0.0430312
0.0430917
0.0431544
0.0432191
0.0432858
0.0433543
0.0434245
0.0434962
0.0435693
0.0436439
0.0437198
0.043797
0.0438752
0.0439542
0.0440338
0.0441137
0.0441939
0.0442741
0.0443542
0.0444338
0.0445126
0.0445903
0.0446664
0.0447407
0.0448126
0.0448816
0.0449469
0.0450079
0.0450637
0.0451134
0.0451564
0.0451901
0.0452148
0.0452283
0.0452307
0.0452155
0.0451832
0.0451302
0.0450523
0.0449483
0.0448103
0.0446382
0.0444222
0.0441583
0.0438366
0.043449
0.0429932
0.0424555
0.0418335
0.0411085
0.0402869
0.0393369
0.0382774
0.037076
0.0358045
0.0337171
0.042133
0.042133
0.042133
0.042133
0.042133
0.042133
0.0421331
0.0421359
0.042172
0.0423052
0.0424702
0.0425532
0.0425586
0.0425279
0.0424648
0.0424229
0.0423996
0.0423746
0.0423395
0.0423004
0.0422652
0.0422357
0.0422139
0.0422045
0.0422065
0.0422307
0.0422753
0.0423096
0.0423277
0.0423385
0.0423486
0.0423592
0.0423681
0.042374
0.0423769
0.0423771
0.0423755
0.0423727
0.04237
0.0423686
0.0423689
0.0423706
0.0423735
0.042378
0.0423843
0.0423925
0.0424032
0.0424166
0.042433
0.0424524
0.0424747
0.0424997
0.0425275
0.0425583
0.0425918
0.0426279
0.0426665
0.0427077
0.0427514
0.0427976
0.0428463
0.0428975
0.0429512
0.0430073
0.0430659
0.0431268
0.0431901
0.0432555
0.0433232
0.0433929
0.0434647
0.0435383
0.0436137
0.0436906
0.0437692
0.0438494
0.0439311
0.0440141
0.0440982
0.0441832
0.044269
0.0443554
0.0444422
0.0445294
0.0446167
0.0447038
0.0447903
0.044876
0.0449606
0.0450438
0.0451249
0.0452035
0.045279
0.0453505
0.0454176
0.045479
0.0455341
0.0455818
0.0456196
0.0456474
0.045663
0.0456662
0.0456502
0.0456143
0.0455551
0.0454671
0.0453496
0.0451922
0.0449925
0.0447406
0.0444314
0.0440582
0.0436069
0.0430737
0.0424426
0.0417085
0.04084
0.0398552
0.0386852
0.037447
0.0354738
0.042133
0.042133
0.042133
0.042133
0.042133
0.042133
0.0421331
0.0421344
0.0421583
0.0422728
0.0424485
0.0425514
0.0425678
0.04255
0.0424929
0.0424515
0.0424304
0.0424096
0.0423788
0.0423426
0.0423102
0.0422832
0.0422616
0.04225
0.0422486
0.0422645
0.0423071
0.0423476
0.0423705
0.0423831
0.0423931
0.0424033
0.042412
0.0424179
0.0424206
0.0424207
0.0424191
0.0424165
0.0424144
0.0424136
0.042415
0.0424179
0.0424223
0.0424282
0.0424361
0.0424459
0.0424582
0.0424732
0.0424912
0.0425123
0.0425363
0.042563
0.0425926
0.0426251
0.0426604
0.0426984
0.0427389
0.042782
0.0428276
0.0428758
0.0429265
0.0429798
0.0430357
0.043094
0.0431549
0.0432182
0.0432839
0.043352
0.0434223
0.0434949
0.0435697
0.0436465
0.0437252
0.0438057
0.0438879
0.043972
0.0440578
0.0441452
0.044234
0.044324
0.0444151
0.0445071
0.0445999
0.0446935
0.0447876
0.0448821
0.0449766
0.0450708
0.0451646
0.0452577
0.0453496
0.0454399
0.0455281
0.0456136
0.0456958
0.0457739
0.0458472
0.0459147
0.0459754
0.0460281
0.0460701
0.046101
0.0461185
0.0461219
0.0461039
0.0460633
0.0459966
0.045896
0.0457604
0.0455793
0.0453483
0.0450561
0.04469
0.0442453
0.0437078
0.0430675
0.0423018
0.0413981
0.0403251
0.0391257
0.0373452
0.042133
0.042133
0.042133
0.042133
0.042133
0.042133
0.0421331
0.0421338
0.0421498
0.0422471
0.0424267
0.0425475
0.0425769
0.0425673
0.0425163
0.0424765
0.0424583
0.0424422
0.0424161
0.0423829
0.0423528
0.0423282
0.0423076
0.0422946
0.0422907
0.0423008
0.0423387
0.0423834
0.0424109
0.0424252
0.0424352
0.0424446
0.0424529
0.0424586
0.0424612
0.0424614
0.0424599
0.0424577
0.0424562
0.0424565
0.0424588
0.0424629
0.0424687
0.0424761
0.0424854
0.0424968
0.0425106
0.0425271
0.0425468
0.0425695
0.0425951
0.0426235
0.0426548
0.0426891
0.0427261
0.0427658
0.0428081
0.0428531
0.0429006
0.0429506
0.0430033
0.0430585
0.0431164
0.0431768
0.0432398
0.0433053
0.0433734
0.0434438
0.0435167
0.0435919
0.0436694
0.0437491
0.0438309
0.0439145
0.0440001
0.0440877
0.0441772
0.0442685
0.0443615
0.0444559
0.0445517
0.0446487
0.0447469
0.0448461
0.0449463
0.0450473
0.0451488
0.0452506
0.0453525
0.0454543
0.0455557
0.0456563
0.0457558
0.0458535
0.0459491
0.046042
0.0461315
0.0462167
0.0462969
0.046371
0.0464376
0.0464958
0.0465422
0.0465766
0.046596
0.0465996
0.0465789
0.0465314
0.0464531
0.0463353
0.0461739
0.0459562
0.0456734
0.0453175
0.04487
0.044319
0.0436384
0.0427985
0.0418004
0.0405955
0.0389812
0.042133
0.042133
0.042133
0.042133
0.042133
0.042133
0.042133
0.0421335
0.0421447
0.0422283
0.0424078
0.0425436
0.0425854
0.0425796
0.0425356
0.0424989
0.0424843
0.0424728
0.0424514
0.0424208
0.0423923
0.0423697
0.0423506
0.0423371
0.0423315
0.0423382
0.0423707
0.0424171
0.0424484
0.0424642
0.0424739
0.0424823
0.0424898
0.0424951
0.0424977
0.0424982
0.0424972
0.0424958
0.0424952
0.0424965
0.0425
0.0425054
0.0425125
0.0425214
0.0425322
0.0425451
0.0425604
0.0425784
0.0425996
0.0426239
0.0426511
0.0426811
0.0427141
0.04275
0.0427887
0.0428301
0.0428742
0.0429208
0.0429701
0.0430219
0.0430764
0.0431335
0.0431933
0.0432556
0.0433206
0.0433882
0.0434584
0.0435311
0.0436063
0.0436839
0.0437639
0.0438462
0.0439307
0.0440173
0.0441059
0.0441967
0.0442895
0.0443843
0.044481
0.0445794
0.0446794
0.0447809
0.0448839
0.0449882
0.0450938
0.0452005
0.0453082
0.0454167
0.0455257
0.0456352
0.0457449
0.0458546
0.0459638
0.0460722
0.0461795
0.0462851
0.0463886
0.0464892
0.0465864
0.0466792
0.0467667
0.0468478
0.0469209
0.046985
0.047036
0.0470734
0.047094
0.0470969
0.0470713
0.0470156
0.0469227
0.0467835
0.04659
0.046331
0.0459874
0.0455499
0.0449825
0.0442563
0.043363
0.0422304
0.0407149
0.042133
0.042133
0.042133
0.042133
0.042133
0.042133
0.042133
0.0421333
0.042142
0.0422159
0.0423937
0.0425418
0.0425926
0.042589
0.0425517
0.0425195
0.042509
0.0425017
0.0424844
0.0424558
0.0424285
0.0424075
0.0423903
0.0423773
0.0423712
0.0423758
0.0424037
0.0424498
0.0424834
0.0425001
0.042509
0.0425161
0.0425225
0.0425272
0.0425299
0.0425308
0.0425305
0.0425301
0.0425307
0.0425333
0.0425382
0.0425451
0.0425537
0.042564
0.0425763
0.0425906
0.0426074
0.0426269
0.0426496
0.0426755
0.0427043
0.042736
0.0427705
0.042808
0.0428483
0.0428914
0.0429371
0.0429854
0.0430363
0.0430899
0.0431461
0.043205
0.0432665
0.0433307
0.0433976
0.0434671
0.0435392
0.043614
0.0436913
0.0437711
0.0438534
0.0439382
0.0440252
0.0441144
0.0442058
0.0442994
0.0443953
0.0444933
0.0445933
0.0446952
0.044799
0.0449044
0.0450116
0.0451203
0.0452307
0.0453425
0.0454556
0.0455699
0.0456852
0.0458014
0.0459183
0.0460358
0.0461535
0.0462711
0.0463885
0.0465051
0.0466206
0.0467345
0.0468464
0.0469554
0.047061
0.047162
0.0472577
0.0473465
0.0474268
0.0474974
0.0475533
0.047595
0.0476174
0.0476196
0.0475874
0.0475197
0.0474048
0.0472345
0.0469914
0.0466645
0.0462053
0.0455833
0.0447624
0.0436963
0.0422655
0.042133
0.042133
0.042133
0.042133
0.042133
0.042133
0.042133
0.0421333
0.0421409
0.0422092
0.0423854
0.0425423
0.0425987
0.0425968
0.0425658
0.042539
0.0425325
0.0425285
0.0425144
0.0424876
0.0424615
0.0424423
0.0424272
0.0424156
0.0424098
0.0424136
0.0424381
0.0424823
0.0425164
0.0425331
0.0425408
0.042546
0.0425509
0.0425549
0.0425575
0.0425589
0.0425596
0.0425604
0.0425624
0.0425665
0.0425731
0.0425816
0.0425918
0.0426037
0.0426175
0.0426334
0.0426516