/*--------------------------------*- C++ -*----------------------------------*\
| =========                 |                                                 |
| \\      /  F ield         | OpenFOAM: The Open Source CFD Toolbox           |
|  \\    /   O peration     | Version:  2412                                  |
|   \\  /    A nd           | Website:  www.openfoam.com                      |
|    \\/     M anipulation  |                                                 |
\*---------------------------------------------------------------------------*/
FoamFile
{
    version     2.0;
    format      ascii;
    arch        "LSB;label=32;scalar=64";
    class       volVectorField;
    location    "0.05";
    object      U;
}
// * * * * * * * * * * * * * * * * * * * * * * * * * * * * * * * * * * * * * //

dimensions      [0 1 -1 0 0 0 0];

internalField   nonuniform List<vector> 
78650
(
(210 2.02592e-05 0)
(209.998 0.000492942 0)
(209.952 0.0133599 0)
(209.657 0.12133 0)
(208.983 0.411898 0)
(208.39 0.70995 0)
(208.135 0.864111 0)
(208.237 0.946263 0)
(208.839 0.772843 0)
(209.842 0.43917 0)
(210.786 0.173498 0)
(211.593 0.124487 0)
(212.311 0.179201 0)
(213.012 0.288557 0)
(213.641 0.4285 0)
(214.013 0.646796 0)
(214.141 0.917279 0)
(214.1 1.21897 0)
(213.921 1.56669 0)
(213.834 1.89828 0)
(213.881 2.21193 0)
(213.983 2.54259 0)
(214.161 2.86109 0)
(214.371 3.19285 0)
(214.578 3.55664 0)
(214.783 3.94929 0)
(214.992 4.36488 0)
(215.197 4.80064 0)
(215.391 5.25847 0)
(215.575 5.74112 0)
(215.754 6.24924 0)
(215.937 6.77881 0)
(216.132 7.32156 0)
(216.343 7.87045 0)
(216.567 8.42464 0)
(216.796 8.98795 0)
(217.025 9.56467 0)
(217.249 10.1577 0)
(217.464 10.7686 0)
(217.669 11.3989 0)
(217.862 12.0498 0)
(218.04 12.7231 0)
(218.202 13.4207 0)
(218.347 14.1448 0)
(218.475 14.8968 0)
(218.583 15.6779 0)
(218.674 16.4887 0)
(218.748 17.3298 0)
(218.801 18.202 0)
(218.835 19.1055 0)
(218.851 20.0406 0)
(218.85 21.0075 0)
(218.833 22.0057 0)
(218.801 23.035 0)
(218.753 24.0958 0)
(218.692 25.1886 0)
(218.619 26.3142 0)
(218.534 27.473 0)
(218.44 28.6659 0)
(218.339 29.8935 0)
(218.233 31.156 0)
(218.125 32.4543 0)
(218.019 33.7895 0)
(217.915 35.1626 0)
(217.818 36.5743 0)
(217.731 38.0258 0)
(217.659 39.5186 0)
(217.606 41.0539 0)
(217.571 42.6324 0)
(217.569 44.2563 0)
(217.601 45.9252 0)
(217.67 47.6396 0)
(217.793 49.4028 0)
(217.964 51.2153 0)
(218.196 53.0799 0)
(218.499 54.9968 0)
(218.873 56.9652 0)
(219.348 58.9849 0)
(219.914 61.0534 0)
(220.613 63.1709 0)
(221.428 65.3357 0)
(222.395 67.5465 0)
(223.516 69.7991 0)
(224.805 72.0904 0)
(226.294 74.4164 0)
(227.978 76.7734 0)
(229.915 79.1435 0)
(232.061 81.5292 0)
(234.537 83.8952 0)
(237.223 86.2599 0)
(240.336 88.5219 0)
(243.628 90.7817 0)
(247.448 92.8482 0)
(251.422 94.9716 0)
(256.084 96.8073 0)
(261.098 98.5205 0)
(266.402 99.8413 0)
(272.018 101.015 0)
(278.053 101.942 0)
(284.866 102.619 0)
(291.767 102.784 0)
(299.011 102.561 0)
(306.487 101.868 0)
(313.737 101.007 0)
(321.214 99.9194 0)
(328.589 98.4811 0)
(335.537 96.9237 0)
(342.985 94.7763 0)
(349.577 92.723 0)
(356.428 90.1137 0)
(362.677 87.5579 0)
(369.216 84.5423 0)
(374.828 81.9826 0)
(380.085 79.3736 0)
(384.151 76.6899 0)
(386.245 74.6834 0)
(387.864 72.4306 0)
(389.941 71.5185 0)
(395.191 70.1806 0)
(403.698 69.0815 0)
(406.679 73.8524 0)
(210 4.60508e-06 0)
(209.999 0.000211279 0)
(209.971 0.00734575 0)
(209.748 0.0828552 0)
(209.122 0.33714 0)
(208.452 0.65677 0)
(208.104 0.847091 0)
(208.152 0.930721 0)
(208.604 0.821987 0)
(209.546 0.522568 0)
(210.514 0.252872 0)
(211.334 0.19405 0)
(212.032 0.240218 0)
(212.708 0.346927 0)
(213.364 0.47409 0)
(213.822 0.663201 0)
(213.994 0.926346 0)
(214.009 1.20171 0)
(213.843 1.53793 0)
(213.708 1.87809 0)
(213.715 2.20347 0)
(213.796 2.53386 0)
(213.935 2.86114 0)
(214.131 3.19306 0)
(214.331 3.55504 0)
(214.527 3.94688 0)
(214.725 4.3616 0)
(214.918 4.79537 0)
(215.1 5.24946 0)
(215.271 5.72732 0)
(215.434 6.23025 0)
(215.6 6.75434 0)
(215.778 7.29152 0)
(215.972 7.83459 0)
(216.179 8.38244 0)
(216.392 8.93919 0)
(216.604 9.50926 0)
(216.811 10.0954 0)
(217.01 10.699 0)
(217.199 11.3212 0)
(217.376 11.9633 0)
(217.538 12.6267 0)
(217.685 13.3136 0)
(217.813 14.026 0)
(217.922 14.7656 0)
(218.012 15.5336 0)
(218.084 16.3306 0)
(218.137 17.1573 0)
(218.17 18.0144 0)
(218.182 18.9022 0)
(218.176 19.8212 0)
(218.152 20.7715 0)
(218.111 21.7524 0)
(218.053 22.7639 0)
(217.979 23.8064 0)
(217.891 24.8804 0)
(217.788 25.9866 0)
(217.673 27.1254 0)
(217.546 28.2975 0)
(217.411 29.5041 0)
(217.267 30.7452 0)
(217.119 32.0215 0)
(216.97 33.3342 0)
(216.82 34.6846 0)
(216.673 36.0729 0)
(216.532 37.5009 0)
(216.403 38.9699 0)
(216.287 40.481 0)
(216.184 42.0349 0)
(216.109 43.6349 0)
(216.06 45.2804 0)
(216.042 46.9716 0)
(216.071 48.7124 0)
(216.139 50.5029 0)
(216.261 52.3468 0)
(216.443 54.245 0)
(216.686 56.1974 0)
(217.016 58.2056 0)
(217.426 60.2675 0)
(217.953 62.3838 0)
(218.583 64.5518 0)
(219.354 66.7734 0)
(220.263 69.0485 0)
(221.325 71.3768 0)
(222.567 73.7539 0)
(223.988 76.1717 0)
(225.648 78.6138 0)
(227.511 81.0794 0)
(229.684 83.543 0)
(232.053 86.0226 0)
(234.817 88.4592 0)
(237.769 90.9181 0)
(241.243 93.2499 0)
(244.872 95.6019 0)
(249.04 97.6388 0)
(253.25 99.712 0)
(258.128 101.533 0)
(263.44 103.129 0)
(269.174 104.406 0)
(275.129 105.491 0)
(281.372 106.323 0)
(287.914 106.823 0)
(295.191 106.988 0)
(302.658 106.583 0)
(310.003 105.813 0)
(318.336 104.347 0)
(325.681 102.746 0)
(333.741 100.662 0)
(341.02 98.5554 0)
(348.102 96.2901 0)
(354.771 94.0651 0)
(361.419 91.6403 0)
(367.311 89.4989 0)
(373.209 86.9187 0)
(377.739 84.3669 0)
(380.719 81.8936 0)
(382.878 79.1987 0)
(385.156 77.793 0)
(390.351 76.321 0)
(399.333 75.0976 0)
(403.323 79.4193 0)
(210 1.87613e-06 0)
(209.999 8.47338e-05 0)
(209.984 0.00363263 0)
(209.826 0.0527819 0)
(209.272 0.264865 0)
(208.545 0.595342 0)
(208.09 0.823997 0)
(208.082 0.903413 0)
(208.387 0.851557 0)
(209.244 0.606271 0)
(210.231 0.334997 0)
(211.066 0.258018 0)
(211.747 0.2896 0)
(212.391 0.392096 0)
(213.055 0.513791 0)
(213.591 0.675338 0)
(213.827 0.924761 0)
(213.887 1.18386 0)
(213.763 1.51113 0)
(213.594 1.86264 0)
(213.551 2.20032 0)
(213.61 2.52675 0)
(213.712 2.86371 0)
(213.885 3.19767 0)
(214.077 3.55716 0)
(214.265 3.94595 0)
(214.451 4.35723 0)
(214.631 4.78737 0)
(214.801 5.23699 0)
(214.958 5.70983 0)
(215.106 6.20734 0)
(215.255 6.72552 0)
(215.415 7.25652 0)
(215.592 7.79286 0)
(215.782 8.33336 0)
(215.979 8.88254 0)
(216.174 9.44501 0)
(216.365 10.0233 0)
(216.548 10.6188 0)
(216.721 11.2324 0)
(216.882 11.8651 0)
(217.029 12.5186 0)
(217.16 13.1948 0)
(217.272 13.8958 0)
(217.364 14.6232 0)
(217.436 15.3786 0)
(217.489 16.1626 0)
(217.522 16.9757 0)
(217.533 17.8187 0)
(217.524 18.6922 0)
(217.494 19.5966 0)
(217.447 20.5319 0)
(217.381 21.4976 0)
(217.297 22.4935 0)
(217.196 23.5201 0)
(217.078 24.5778 0)
(216.945 25.6674 0)
(216.798 26.7893 0)
(216.637 27.9438 0)
(216.465 29.1324 0)
(216.284 30.3551 0)
(216.095 31.6125 0)
(215.902 32.9055 0)
(215.705 34.2361 0)
(215.508 35.6041 0)
(215.314 37.0111 0)
(215.127 38.4586 0)
(214.949 39.9482 0)
(214.78 41.4797 0)
(214.634 43.0571 0)
(214.507 44.6799 0)
(214.406 46.3481 0)
(214.345 48.0659 0)
(214.316 49.833 0)
(214.334 51.6535 0)
(214.404 53.5284 0)
(214.525 55.458 0)
(214.723 57.4447 0)
(214.988 59.4859 0)
(215.358 61.5837 0)
(215.819 63.7357 0)
(216.405 65.9451 0)
(217.113 68.2112 0)
(217.956 70.5325 0)
(218.961 72.9051 0)
(220.129 75.3246 0)
(221.508 77.7855 0)
(223.068 80.2906 0)
(224.905 82.8235 0)
(226.926 85.3878 0)
(229.313 87.9349 0)
(231.877 90.4993 0)
(234.904 92.9955 0)
(238.083 95.5391 0)
(241.877 97.9196 0)
(245.85 100.34 0)
(250.468 102.414 0)
(255.321 104.498 0)
(260.713 106.265 0)
(266.483 107.757 0)
(272.675 108.93 0)
(279.161 109.818 0)
(285.579 110.537 0)
(292.587 110.9 0)
(299.258 110.91 0)
(306.998 110.43 0)
(314.349 109.652 0)
(321.922 108.475 0)
(329.737 106.815 0)
(336.847 105.019 0)
(344.022 103.041 0)
(351.112 100.793 0)
(357.31 98.788 0)
(364.134 96.04 0)
(369.345 93.4238 0)
(373.31 90.6245 0)
(376.325 87.4669 0)
(379.016 85.5797 0)
(384.543 84.0557 0)
(394.407 82.5066 0)
(398.338 87.3654 0)
(210 5.35488e-07 0)
(210 2.78225e-05 0)
(209.992 0.00161133 0)
(209.887 0.0308663 0)
(209.423 0.196029 0)
(208.663 0.521135 0)
(208.096 0.781633 0)
(208.027 0.865002 0)
(208.197 0.871285 0)
(208.95 0.702504 0)
(209.941 0.429544 0)
(210.791 0.324666 0)
(211.459 0.337464 0)
(212.068 0.435513 0)
(212.72 0.557444 0)
(213.313 0.698654 0)
(213.637 0.920871 0)
(213.732 1.18123 0)
(213.673 1.48734 0)
(213.495 1.83753 0)
(213.394 2.18409 0)
(213.422 2.51371 0)
(213.495 2.85897 0)
(213.636 3.19879 0)
(213.816 3.55571 0)
(213.995 3.94074 0)
(214.168 4.34846 0)
(214.334 4.77476 0)
(214.49 5.21912 0)
(214.632 5.68581 0)
(214.765 6.17675 0)
(214.897 6.6882 0)
(215.04 7.21261 0)
(215.199 7.74213 0)
(215.373 8.27554 0)
(215.552 8.81761 0)
(215.731 9.37296 0)
(215.905 9.94396 0)
(216.071 10.5316 0)
(216.228 11.1367 0)
(216.373 11.7602 0)
(216.504 12.4036 0)
(216.618 13.0687 0)
(216.715 13.7578 0)
(216.79 14.4726 0)
(216.844 15.2146 0)
(216.879 15.9846 0)
(216.893 16.783 0)
(216.884 17.6106 0)
(216.854 18.4682 0)
(216.803 19.3561 0)
(216.733 20.2742 0)
(216.645 21.222 0)
(216.536 22.1997 0)
(216.409 23.2075 0)
(216.265 24.2457 0)
(216.104 25.3152 0)
(215.927 26.4159 0)
(215.736 27.5487 0)
(215.531 28.7156 0)
(215.315 29.9159 0)
(215.089 31.1502 0)
(214.856 32.4195 0)
(214.616 33.7263 0)
(214.373 35.0693 0)
(214.13 36.4505 0)
(213.889 37.8713 0)
(213.652 39.3345 0)
(213.423 40.8387 0)
(213.209 42.3886 0)
(213.008 43.9842 0)
(212.828 45.6248 0)
(212.68 47.3151 0)
(212.557 49.0546 0)
(212.476 50.8478 0)
(212.435 52.6962 0)
(212.437 54.6007 0)
(212.503 56.5649 0)
(212.625 58.5866 0)
(212.838 60.6697 0)
(213.128 62.8113 0)
(213.529 65.0152 0)
(214.038 67.2807 0)
(214.67 69.6087 0)
(215.446 72 0)
(216.368 74.4537 0)
(217.481 76.9648 0)
(218.76 79.5272 0)
(220.299 82.1246 0)
(222.013 84.7606 0)
(224.063 87.4148 0)
(226.287 90.1118 0)
(228.946 92.7733 0)
(231.768 95.4422 0)
(235.123 97.9644 0)
(238.571 100.524 0)
(242.656 102.849 0)
(246.841 105.218 0)
(251.709 107.324 0)
(257.051 109.382 0)
(262.931 111.066 0)
(269.431 112.54 0)
(275.951 113.511 0)
(283.202 114.277 0)
(290.419 114.586 0)
(297.48 114.783 0)
(305.424 114.454 0)
(312.426 113.998 0)
(320.529 112.81 0)
(327.954 111.503 0)
(335.312 109.932 0)
(343.006 107.847 0)
(349.624 106.029 0)
(357.315 103.426 0)
(363.303 101.154 0)
(368.47 98.3482 0)
(372.071 95.2014 0)
(374.835 92.6858 0)
(380.081 91.0147 0)
(391.08 89.3246 0)
(395.16 95.5208 0)
(210 1.59863e-07 0)
(210 7.59013e-06 0)
(209.996 0.000621664 0)
(209.933 0.0163114 0)
(209.569 0.135192 0)
(208.817 0.436142 0)
(208.139 0.722707 0)
(207.984 0.830273 0)
(208.039 0.890988 0)
(208.661 0.788706 0)
(209.626 0.513743 0)
(210.493 0.379195 0)
(211.159 0.372541 0)
(211.737 0.465729 0)
(212.361 0.589258 0)
(212.987 0.718297 0)
(213.411 0.911786 0)
(213.552 1.17721 0)
(213.556 1.46333 0)
(213.401 1.80821 0)
(213.249 2.16945 0)
(213.231 2.51314 0)
(213.282 2.85807 0)
(213.386 3.20094 0)
(213.545 3.55522 0)
(213.714 3.93499 0)
(213.875 4.33704 0)
(214.025 4.75787 0)
(214.166 5.19611 0)
(214.293 5.65615 0)
(214.409 6.14002 0)
(214.525 6.64422 0)
(214.649 7.16142 0)
(214.79 7.68343 0)
(214.947 8.20911 0)
(215.11 8.74338 0)
(215.272 9.29081 0)
(215.428 9.85364 0)
(215.578 10.4326 0)
(215.718 11.0283 0)
(215.847 11.6417 0)
(215.962 12.2741 0)
(216.061 12.9276 0)
(216.141 13.6043 0)
(216.2 14.306 0)
(216.238 15.0345 0)
(216.255 15.7904 0)
(216.249 16.5741 0)
(216.219 17.3867 0)
(216.168 18.2288 0)
(216.096 19.1008 0)
(216.003 20.0025 0)
(215.89 20.9338 0)
(215.756 21.8946 0)
(215.602 22.8843 0)
(215.43 23.9045 0)
(215.239 24.956 0)
(215.032 26.0383 0)
(214.808 27.1527 0)
(214.569 28.2994 0)
(214.315 29.4792 0)
(214.05 30.6929 0)
(213.775 31.9414 0)
(213.492 33.225 0)
(213.202 34.5456 0)
(212.908 35.9038 0)
(212.614 37.3007 0)
(212.318 38.7409 0)
(212.028 40.2194 0)
(211.748 41.7419 0)
(211.475 43.3113 0)
(211.218 44.9248 0)
(210.987 46.5879 0)
(210.775 48.3 0)
(210.599 50.0645 0)
(210.455 51.8839 0)
(210.346 53.7587 0)
(210.292 55.6936 0)
(210.283 57.6861 0)
(210.354 59.7409 0)
(210.489 61.8546 0)
(210.723 64.0322 0)
(211.05 66.273 0)
(211.485 68.5793 0)
(212.046 70.9527 0)
(212.735 73.3913 0)
(213.59 75.8922 0)
(214.593 78.4534 0)
(215.824 81.0717 0)
(217.211 83.7486 0)
(218.906 86.4646 0)
(220.759 89.2214 0)
(223.007 91.9782 0)
(225.411 94.782 0)
(228.329 97.5532 0)
(231.407 100.387 0)
(235.137 103.054 0)
(238.996 105.749 0)
(243.476 108.107 0)
(248.086 110.431 0)
(253.278 112.53 0)
(258.912 114.462 0)
(265.142 116.114 0)
(271.704 117.433 0)
(279.134 118.496 0)
(286.236 118.985 0)
(294.532 119.135 0)
(302.394 118.671 0)
(310.625 117.895 0)
(319.238 116.577 0)
(326.835 115.275 0)
(335.436 113.196 0)
(342.73 111.388 0)
(350.884 108.969 0)
(357.497 106.823 0)
(363.345 103.971 0)
(367.257 101.003 0)
(370.418 98.5601 0)
(376.069 96.787 0)
(387.086 95.3566 0)
(391.331 101.566 0)
(210 2.96198e-08 0)
(210 1.32685e-06 0)
(209.998 0.000201856 0)
(209.964 0.00761891 0)
(209.7 0.085194 0)
(208.999 0.344147 0)
(208.22 0.649724 0)
(207.957 0.80133 0)
(207.918 0.89964 0)
(208.379 0.852673 0)
(209.294 0.594977 0)
(210.181 0.439655 0)
(210.853 0.410283 0)
(211.407 0.494415 0)
(211.991 0.620018 0)
(212.622 0.747709 0)
(213.131 0.917605 0)
(213.344 1.17534 0)
(213.4 1.45072 0)
(213.306 1.78676 0)
(213.123 2.1552 0)
(213.043 2.50758 0)
(213.066 2.84726 0)
(213.136 3.19689 0)
(213.267 3.5508 0)
(213.421 3.9241 0)
(213.569 4.31914 0)
(213.704 4.73382 0)
(213.829 5.16582 0)
(213.94 5.61881 0)
(214.04 6.09483 0)
(214.137 6.591 0)
(214.243 7.10029 0)
(214.366 7.61442 0)
(214.504 8.13231 0)
(214.65 8.6588 0)
(214.795 9.1984 0)
(214.934 9.75315 0)
(215.067 10.3236 0)
(215.19 10.9099 0)
(215.302 11.5131 0)
(215.4 12.1345 0)
(215.483 12.776 0)
(215.547 13.4399 0)
(215.59 14.1281 0)
(215.61 14.8423 0)
(215.61 15.5834 0)
(215.585 16.3516 0)
(215.536 17.148 0)
(215.465 17.9734 0)
(215.372 18.8282 0)
(215.258 19.7117 0)
(215.122 20.6234 0)
(214.965 21.5633 0)
(214.785 22.5347 0)
(214.586 23.535 0)
(214.369 24.5646 0)
(214.134 25.6247 0)
(213.88 26.7156 0)
(213.61 27.8387 0)
(213.324 28.9943 0)
(213.023 30.1831 0)
(212.71 31.4057 0)
(212.387 32.6634 0)
(212.053 33.9569 0)
(211.713 35.2877 0)
(211.368 36.6574 0)
(211.022 38.0656 0)
(210.675 39.5148 0)
(210.333 41.0066 0)
(209.99 42.5474 0)
(209.663 44.1284 0)
(209.351 45.7579 0)
(209.053 47.438 0)
(208.786 49.1698 0)
(208.541 50.9574 0)
(208.325 52.8 0)
(208.152 54.7038 0)
(208.015 56.6665 0)
(207.944 58.6944 0)
(207.923 60.7839 0)
(207.989 62.9415 0)
(208.133 65.1663 0)
(208.371 67.4612 0)
(208.72 69.8287 0)
(209.182 72.2688 0)
(209.79 74.7823 0)
(210.53 77.3664 0)
(211.476 80.0179 0)
(212.567 82.7321 0)
(213.937 85.503 0)
(215.453 88.3356 0)
(217.333 91.2054 0)
(219.368 94.1241 0)
(221.865 97.0233 0)
(224.496 99.9635 0)
(227.705 102.816 0)
(231.027 105.73 0)
(235.057 108.462 0)
(239.285 111.227 0)
(244.149 113.707 0)
(249.382 116.102 0)
(255.137 118.19 0)
(261.209 119.981 0)
(267.846 121.595 0)
(274.674 122.903 0)
(281.87 123.846 0)
(289.753 124.357 0)
(297.181 124.497 0)
(306 124.094 0)
(313.665 123.396 0)
(322.145 122.159 0)
(330.177 120.811 0)
(338.42 118.997 0)
(345.915 117.026 0)
(352.74 114.227 0)
(357.438 111.053 0)
(361.02 108.212 0)
(366.843 106.343 0)
(378.941 104.576 0)
(383.138 111.444 0)
(210 4.85401e-09 0)
(210 -2.37408e-08 0)
(209.999 5.04903e-05 0)
(209.982 0.00305678 0)
(209.809 0.0482235 0)
(209.201 0.25275 0)
(208.361 0.568001 0)
(207.942 0.774662 0)
(207.823 0.874859 0)
(208.12 0.887096 0)
(208.951 0.673556 0)
(209.85 0.501649 0)
(210.533 0.438663 0)
(211.073 0.507166 0)
(211.615 0.633733 0)
(212.226 0.76866 0)
(212.792 0.924658 0)
(213.11 1.16383 0)
(213.208 1.45869 0)
(213.191 1.76986 0)
(213.012 2.13518 0)
(212.864 2.49625 0)
(212.843 2.83925 0)
(212.887 3.18977 0)
(212.982 3.54072 0)
(213.116 3.90784 0)
(213.25 4.29583 0)
(213.369 4.70285 0)
(213.477 5.12719 0)
(213.572 5.57225 0)
(213.655 6.04002 0)
(213.734 6.52784 0)
(213.822 7.02876 0)
(213.925 7.53468 0)
(214.045 8.04448 0)
(214.174 8.56281 0)
(214.301 9.09408 0)
(214.424 9.64019 0)
(214.538 10.2013 0)
(214.644 10.7776 0)
(214.739 11.3698 0)
(214.821 11.9792 0)
(214.887 12.608 0)
(214.936 13.2581 0)
(214.962 13.9319 0)
(214.966 14.6312 0)
(214.949 15.3568 0)
(214.905 16.1091 0)
(214.836 16.8893 0)
(214.744 17.6984 0)
(214.631 18.5359 0)
(214.498 19.3988 0)
(214.336 20.2935 0)
(214.152 21.2172 0)
(213.947 22.1687 0)
(213.722 23.149 0)
(213.477 24.1586 0)
(213.211 25.1981 0)
(212.926 26.2683 0)
(212.622 27.3699 0)
(212.301 28.5034 0)
(211.963 29.6694 0)
(211.61 30.8687 0)
(211.245 32.102 0)
(210.867 33.3705 0)
(210.48 34.6755 0)
(210.085 36.0179 0)
(209.684 37.3996 0)
(209.279 38.8214 0)
(208.873 40.2861 0)
(208.47 41.7924 0)
(208.073 43.3435 0)
(207.684 44.9422 0)
(207.301 46.5929 0)
(206.947 48.2882 0)
(206.605 50.0415 0)
(206.29 51.848 0)
(206.008 53.7162 0)
(205.753 55.6422 0)
(205.554 57.6332 0)
(205.394 59.6852 0)
(205.31 61.8052 0)
(205.289 63.9921 0)
(205.351 66.2496 0)
(205.507 68.5813 0)
(205.76 70.9882 0)
(206.138 73.4727 0)
(206.629 76.0327 0)
(207.297 78.6716 0)
(208.088 81.3864 0)
(209.126 84.177 0)
(210.294 87.0356 0)
(211.792 89.9532 0)
(213.428 92.9402 0)
(215.481 95.9709 0)
(217.678 99.0719 0)
(220.429 102.141 0)
(223.309 105.253 0)
(226.857 108.24 0)
(230.549 111.292 0)
(234.935 114.149 0)
(239.608 116.965 0)
(244.871 119.565 0)
(250.726 121.976 0)
(257.012 123.966 0)
(264.041 125.798 0)
(270.982 127.143 0)
(278.911 128.241 0)
(286.273 128.952 0)
(294.535 129.238 0)
(302.759 129.055 0)
(310.632 128.584 0)
(319.419 127.642 0)
(327.526 126.435 0)
(335.808 124.739 0)
(343.512 122.325 0)
(348.955 119.592 0)
(353.453 116.805 0)
(359.746 115.003 0)
(373.018 113.31 0)
(377.158 121.545 0)
(210 -2.44675e-10 0)
(210 -1.19177e-07 0)
(210 7.31772e-06 0)
(209.992 0.00100989 0)
(209.89 0.0238963 0)
(209.406 0.17046 0)
(208.544 0.471207 0)
(207.959 0.72942 0)
(207.748 0.832729 0)
(207.908 0.898583 0)
(208.615 0.754833 0)
(209.501 0.564051 0)
(210.2 0.461168 0)
(210.739 0.520007 0)
(211.247 0.65366 0)
(211.821 0.802166 0)
(212.41 0.954127 0)
(212.826 1.17426 0)
(212.986 1.4661 0)
(213.031 1.75959 0)
(212.901 2.1114 0)
(212.703 2.47851 0)
(212.614 2.82667 0)
(212.63 3.16778 0)
(212.693 3.52242 0)
(212.8 3.88412 0)
(212.917 4.26363 0)
(213.021 4.66254 0)
(213.112 5.08007 0)
(213.188 5.51779 0)
(213.255 5.97703 0)
(213.317 6.45563 0)
(213.386 6.94745 0)
(213.47 7.44495 0)
(213.571 7.94665 0)
(213.681 8.45671 0)
(213.791 8.97938 0)
(213.896 9.51641 0)
(213.994 10.0678 0)
(214.082 10.6335 0)
(214.16 11.2142 0)
(214.225 11.8112 0)
(214.274 12.4267 0)
(214.306 13.0628 0)
(214.315 13.7218 0)
(214.303 14.4057 0)
(214.268 15.1152 0)
(214.205 15.851 0)
(214.117 16.6145 0)
(214.007 17.406 0)
(213.878 18.221 0)
(213.718 19.0687 0)
(213.534 19.9435 0)
(213.328 20.8455 0)
(213.1 21.7756 0)
(212.849 22.734 0)
(212.577 23.721 0)
(212.285 24.737 0)
(211.971 25.7827 0)
(211.638 26.8588 0)
(211.285 27.9661 0)
(210.914 29.1052 0)
(210.526 30.2768 0)
(210.122 31.4816 0)
(209.705 32.7209 0)
(209.274 33.9958 0)
(208.833 35.3075 0)
(208.383 36.6569 0)
(207.926 38.0455 0)
(207.464 39.4752 0)
(206.999 40.9483 0)
(206.533 42.4661 0)
(206.071 44.0298 0)
(205.619 45.6384 0)
(205.181 47.2972 0)
(204.741 49.0177 0)
(204.331 50.7829 0)
(203.941 52.6108 0)
(203.572 54.4982 0)
(203.246 56.4518 0)
(202.948 58.4687 0)
(202.713 60.5554 0)
(202.526 62.711 0)
(202.41 64.9402 0)
(202.371 67.2471 0)
(202.417 69.633 0)
(202.569 72.1019 0)
(202.818 74.6528 0)
(203.221 77.2902 0)
(203.734 80.0069 0)
(204.47 82.8081 0)
(205.32 85.6868 0)
(206.466 88.6475 0)
(207.734 91.6815 0)
(209.383 94.7663 0)
(211.164 97.9063 0)
(213.441 101.059 0)
(215.834 104.281 0)
(218.848 107.471 0)
(221.986 110.731 0)
(225.805 113.87 0)
(229.859 117.018 0)
(234.533 119.973 0)
(239.617 122.83 0)
(245.316 125.544 0)
(251.581 128.01 0)
(258.448 130.14 0)
(265.783 131.931 0)
(273.82 133.222 0)
(281.736 133.987 0)
(291.125 134.301 0)
(299.391 134.167 0)
(309.184 133.433 0)
(317.866 132.534 0)
(327.32 130.931 0)
(335.75 128.889 0)
(342.102 126.264 0)
(347.223 123.377 0)
(353.554 121.556 0)
(366.828 120.056 0)
(370.968 128.226 0)
(210 -3.32954e-10 0)
(210 -5.32838e-08 0)
(210 -1.01969e-06 0)
(209.997 0.000251989 0)
(209.943 0.0100766 0)
(209.593 0.102962 0)
(208.773 0.368688 0)
(208.035 0.662198 0)
(207.689 0.787602 0)
(207.753 0.904642 0)
(208.29 0.812905 0)
(209.129 0.608681 0)
(209.854 0.476543 0)
(210.409 0.535468 0)
(210.892 0.676566 0)
(211.418 0.835768 0)
(211.996 0.988607 0)
(212.483 1.18602 0)
(212.734 1.45702 0)
(212.818 1.76247 0)
(212.771 2.08463 0)
(212.555 2.4464 0)
(212.391 2.79707 0)
(212.359 3.13942 0)
(212.398 3.48937 0)
(212.474 3.8485 0)
(212.571 4.22166 0)
(212.66 4.61165 0)
(212.733 5.02033 0)
(212.792 5.44947 0)
(212.841 5.90001 0)
(212.887 6.36951 0)
(212.937 6.85237 0)
(213.002 7.34149 0)
(213.084 7.83504 0)
(213.176 8.33674 0)
(213.269 8.85064 0)
(213.357 9.37836 0)
(213.437 9.91977 0)
(213.508 10.4746 0)
(213.568 11.0433 0)
(213.616 11.6273 0)
(213.648 12.2288 0)
(213.662 12.8499 0)
(213.655 13.4932 0)
(213.627 14.1606 0)
(213.574 14.8532 0)
(213.491 15.5719 0)
(213.385 16.3181 0)
(213.261 17.0877 0)
(213.107 17.8879 0)
(212.925 18.7154 0)
(212.72 19.57 0)
(212.49 20.4521 0)
(212.237 21.3616 0)
(211.96 22.2989 0)
(211.661 23.264 0)
(211.34 24.2575 0)
(210.997 25.2801 0)
(210.632 26.3327 0)
(210.245 27.4157 0)
(209.839 28.5299 0)
(209.413 29.6758 0)
(208.97 30.8542 0)
(208.511 32.066 0)
(208.036 33.3126 0)
(207.548 34.595 0)
(207.047 35.9144 0)
(206.537 37.2721 0)
(206.018 38.67 0)
(205.492 40.1092 0)
(204.962 41.5917 0)
(204.431 43.1191 0)
(203.903 44.6942 0)
(203.378 46.3191 0)
(202.864 47.9916 0)
(202.363 49.7187 0)
(201.869 51.5067 0)
(201.393 53.3516 0)
(200.953 55.2573 0)
(200.529 57.2283 0)
(200.161 59.2675 0)
(199.827 61.376 0)
(199.554 63.5564 0)
(199.343 65.8139 0)
(199.204 68.1503 0)
(199.151 70.5711 0)
(199.179 73.0761 0)
(199.337 75.6727 0)
(199.585 78.3563 0)
(200.021 81.139 0)
(200.551 84.0093 0)
(201.344 86.9774 0)
(202.246 90.0295 0)
(203.49 93.1731 0)
(204.856 96.4097 0)
(206.672 99.72 0)
(208.605 103.119 0)
(211.119 106.536 0)
(213.756 110.018 0)
(217.059 113.422 0)
(220.56 116.859 0)
(224.721 120.193 0)
(229.273 123.475 0)
(234.334 126.564 0)
(239.949 129.488 0)
(246.153 132.18 0)
(252.659 134.545 0)
(260.172 136.785 0)
(267.402 138.418 0)
(275.964 139.811 0)
(284.041 140.762 0)
(292.852 141.1 0)
(301.715 141.157 0)
(311.005 140.677 0)
(319.895 139.444 0)
(326.958 137.407 0)
(333.028 134.569 0)
(339.693 132.705 0)
(354.146 130.824 0)
(357.969 140.03 0)
(210 -1.45814e-10 0)
(210 -1.78918e-08 0)
(210 -1.16278e-06 0)
(209.999 3.45973e-05 0)
(209.975 0.00345657 0)
(209.748 0.0544106 0)
(209.029 0.264352 0)
(208.169 0.573834 0)
(207.657 0.764006 0)
(207.646 0.862363 0)
(207.989 0.829239 0)
(208.746 0.653493 0)
(209.503 0.516368 0)
(210.086 0.570085 0)
(210.551 0.7066 0)
(211.022 0.866937 0)
(211.561 1.02135 0)
(212.085 1.20042 0)
(212.429 1.45131 0)
(212.563 1.75715 0)
(212.59 2.05379 0)
(212.408 2.39906 0)
(212.184 2.75236 0)
(212.082 3.09811 0)
(212.092 3.44276 0)
(212.142 3.80168 0)
(212.213 4.16756 0)
(212.287 4.54989 0)
(212.34 4.95287 0)
(212.381 5.37596 0)
(212.414 5.81877 0)
(212.444 6.27865 0)
(212.476 6.75151 0)
(212.522 7.23135 0)
(212.585 7.71627 0)
(212.659 8.20915 0)
(212.735 8.71355 0)
(212.805 9.23094 0)
(212.868 9.76113 0)
(212.921 10.3038 0)
(212.965 10.8594 0)
(212.995 11.4295 0)
(213.01 12.0163 0)
(213.007 12.622 0)
(212.983 13.2493 0)
(212.938 13.8999 0)
(212.865 14.5751 0)
(212.763 15.2766 0)
(212.643 16.0021 0)
(212.498 16.7544 0)
(212.323 17.535 0)
(212.122 18.3419 0)
(211.895 19.1756 0)
(211.643 20.036 0)
(211.366 20.923 0)
(211.066 21.8368 0)
(210.742 22.7778 0)
(210.394 23.7464 0)
(210.024 24.7431 0)
(209.63 25.7688 0)
(209.214 26.824 0)
(208.776 27.9094 0)
(208.318 29.0256 0)
(207.84 30.1734 0)
(207.344 31.3537 0)
(206.829 32.5678 0)
(206.299 33.8167 0)
(205.753 35.1016 0)
(205.194 36.4236 0)
(204.624 37.7845 0)
(204.043 39.186 0)
(203.453 40.63 0)
(202.857 42.1177 0)
(202.258 43.6511 0)
(201.66 45.2321 0)
(201.064 46.8643 0)
(200.47 48.5497 0)
(199.886 50.2899 0)
(199.315 52.0868 0)
(198.762 53.9457 0)
(198.208 55.8769 0)
(197.709 57.8657 0)
(197.224 59.9294 0)
(196.797 62.0655 0)
(196.411 64.2818 0)
(196.086 66.5784 0)
(195.829 68.9612 0)
(195.641 71.4311 0)
(195.56 73.9968 0)
(195.555 76.6524 0)
(195.712 79.4111 0)
(195.95 82.2583 0)
(196.421 85.2152 0)
(196.979 88.2654 0)
(197.839 91.4256 0)
(198.8 94.6796 0)
(200.159 98.0283 0)
(201.614 101.469 0)
(203.596 104.975 0)
(205.684 108.562 0)
(208.418 112.161 0)
(211.328 115.846 0)
(214.911 119.507 0)
(218.857 123.184 0)
(223.424 126.76 0)
(228.543 130.203 0)
(234.187 133.526 0)
(240.547 136.664 0)
(247.489 139.388 0)
(255.147 141.57 0)
(263.075 143.4 0)
(272.174 144.915 0)
(280.322 145.926 0)
(290.358 146.566 0)
(299.112 146.94 0)
(309.359 146.3 0)
(317.189 144.921 0)
(324.204 142.301 0)
(331.082 140.871 0)
(346.006 139.713 0)
(349.147 150.81 0)
(210 -3.53993e-11 0)
(210 -4.95841e-09 0)
(210 -4.32734e-07 0)
(210 -6.13672e-06 0)
(209.99 0.000882977 0)
(209.861 0.0243771 0)
(209.288 0.171117 0)
(208.366 0.472084 0)
(207.676 0.707848 0)
(207.583 0.794641 0)
(207.737 0.820296 0)
(208.373 0.716443 0)
(209.148 0.572483 0)
(209.761 0.599552 0)
(210.213 0.721536 0)
(210.633 0.87964 0)
(211.119 1.03912 0)
(211.646 1.21021 0)
(212.065 1.4407 0)
(212.273 1.72798 0)
(212.342 2.02132 0)
(212.244 2.33974 0)
(211.998 2.68575 0)
(211.818 3.0319 0)
(211.775 3.37789 0)
(211.805 3.72989 0)
(211.851 4.09633 0)
(211.905 4.47291 0)
(211.941 4.86774 0)
(211.964 5.28157 0)
(211.98 5.71734 0)
(211.994 6.1694 0)
(212.01 6.63323 0)
(212.037 7.10494 0)
(212.081 7.58192 0)
(212.136 8.06639 0)
(212.194 8.5615 0)
(212.248 9.06861 0)
(212.293 9.58756 0)
(212.329 10.118 0)
(212.354 10.6605 0)
(212.367 11.2164 0)
(212.364 11.7879 0)
(212.344 12.3776 0)
(212.304 12.988 0)
(212.241 13.6209 0)
(212.148 14.2784 0)
(212.031 14.9603 0)
(211.896 15.6648 0)
(211.728 16.3999 0)
(211.533 17.1597 0)
(211.312 17.9459 0)
(211.064 18.7582 0)
(210.79 19.5966 0)
(210.49 20.4611 0)
(210.165 21.352 0)
(209.815 22.2694 0)
(209.441 23.2137 0)
(209.042 24.1854 0)
(208.619 25.1852 0)
(208.172 26.2139 0)
(207.701 27.2722 0)
(207.208 28.3604 0)
(206.693 29.4794 0)
(206.158 30.63 0)
(205.603 31.8134 0)
(205.028 33.0305 0)
(204.436 34.2827 0)
(203.828 35.5709 0)
(203.206 36.8968 0)
(202.569 38.2619 0)
(201.92 39.668 0)
(201.26 41.1167 0)
(200.594 42.6099 0)
(199.922 44.1492 0)
(199.248 45.7371 0)
(198.574 47.3758 0)
(197.901 49.0693 0)
(197.232 50.8203 0)
(196.572 52.6315 0)
(195.927 54.4995 0)
(195.309 56.4344 0)
(194.681 58.4506 0)
(194.119 60.5224 0)
(193.578 62.6767 0)
(193.092 64.9108 0)
(192.655 67.2312 0)
(192.275 69.6385 0)
(191.978 72.1423 0)
(191.742 74.7385 0)
(191.638 77.4443 0)
(191.593 80.2466 0)
(191.746 83.1717 0)
(191.967 86.1951 0)
(192.454 89.3433 0)
(193.028 92.5929 0)
(193.953 95.9642 0)
(194.965 99.435 0)
(196.456 103.005 0)
(198.04 106.667 0)
(200.222 110.403 0)
(202.532 114.242 0)
(205.489 118.094 0)
(208.717 121.979 0)
(212.54 125.845 0)
(216.87 129.709 0)
(221.723 133.508 0)
(227.222 137.077 0)
(233.348 140.54 0)
(240.24 143.814 0)
(247.497 146.527 0)
(256.1 149.261 0)
(264.564 151.1 0)
(274.553 152.687 0)
(283.867 153.605 0)
(294.984 153.91 0)
(303.872 153.242 0)
(311.84 151.115 0)
(319.06 149.647 0)
(334.024 148.41 0)
(337.236 158.619 0)
(210 -1.43288e-11 0)
(210 -1.2209e-09 0)
(210 -1.25965e-07 0)
(210 -6.21831e-06 0)
(209.997 0.000117896 0)
(209.933 0.00885931 0)
(209.525 0.0974868 0)
(208.62 0.359437 0)
(207.761 0.619129 0)
(207.541 0.739523 0)
(207.537 0.814497 0)
(208.025 0.770544 0)
(208.788 0.619738 0)
(209.427 0.615993 0)
(209.877 0.726129 0)
(210.254 0.882337 0)
(210.684 1.04619 0)
(211.187 1.21333 0)
(211.649 1.42394 0)
(211.939 1.68854 0)
(212.04 1.9859 0)
(212.028 2.27609 0)
(211.812 2.60729 0)
(211.569 2.95686 0)
(211.457 3.30849 0)
(211.452 3.66306 0)
(211.483 4.02294 0)
(211.513 4.39591 0)
(211.534 4.78245 0)
(211.537 5.1925 0)
(211.534 5.62039 0)
(211.534 6.06133 0)
(211.536 6.51504 0)
(211.546 6.9759 0)
(211.57 7.44339 0)
(211.607 7.91846 0)
(211.648 8.40294 0)
(211.684 8.8981 0)
(211.713 9.40409 0)
(211.732 9.92077 0)
(211.74 10.4486 0)
(211.735 10.9894 0)
(211.715 11.5451 0)
(211.677 12.1185 0)
(211.62 12.7117 0)
(211.538 13.3267 0)
(211.426 13.9657 0)
(211.3 14.6245 0)
(211.139 15.3146 0)
(210.952 16.0278 0)
(210.738 16.7668 0)
(210.497 17.5313 0)
(210.229 18.3213 0)
(209.934 19.1368 0)
(209.612 19.9776 0)
(209.264 20.844 0)
(208.89 21.736 0)
(208.491 22.6541 0)
(208.067 23.5987 0)
(207.617 24.5704 0)
(207.142 25.5699 0)
(206.642 26.5979 0)
(206.118 27.6549 0)
(205.571 28.7417 0)
(205.001 29.8589 0)
(204.41 31.0077 0)
(203.797 32.1892 0)
(203.164 33.4045 0)
(202.512 34.6547 0)
(201.843 35.9413 0)
(201.157 37.2656 0)
(200.455 38.6297 0)
(199.738 40.0349 0)
(199.009 41.4833 0)
(198.27 42.9764 0)
(197.525 44.5168 0)
(196.773 46.1066 0)
(196.017 47.749 0)
(195.259 49.4467 0)
(194.502 51.2032 0)
(193.75 53.0218 0)
(193.003 54.9062 0)
(192.274 56.852 0)
(191.573 58.8718 0)
(190.866 60.9762 0)
(190.219 63.1506 0)
(189.601 65.4121 0)
(189.031 67.7627 0)
(188.524 70.211 0)
(188.065 72.7536 0)
(187.713 75.4064 0)
(187.407 78.1549 0)
(187.271 81.0287 0)
(187.184 84.0016 0)
(187.328 87.1115 0)
(187.538 90.3294 0)
(188.055 93.6892 0)
(188.642 97.1608 0)
(189.652 100.776 0)
(190.731 104.515 0)
(192.351 108.389 0)
(194.072 112.38 0)
(196.424 116.443 0)
(199 120.6 0)
(202.212 124.804 0)
(205.881 129.034 0)
(210.1 133.239 0)
(215.003 137.327 0)
(220.401 141.323 0)
(226.487 145.151 0)
(233.359 148.789 0)
(240.608 151.789 0)
(249.072 154.785 0)
(257.535 157.123 0)
(266.93 159.362 0)
(277.028 160.967 0)
(286.27 161.754 0)
(294.609 160.713 0)
(301.846 159.958 0)
(317.636 159.07 0)
(320.158 170.779 0)
(210 1.71934e-12 0)
(210 -2.77955e-10 0)
(210 -3.12492e-08 0)
(210 -2.43195e-06 0)
(209.999 -2.76721e-05 0)
(209.972 0.00237873 0)