/*--------------------------------*- C++ -*----------------------------------*\
| =========                 |                                                 |
| \\      /  F ield         | OpenFOAM: The Open Source CFD Toolbox           |
|  \\    /   O peration     | Version:  2412                                  |
|   \\  /    A nd           | Website:  www.openfoam.com                      |
|    \\/     M anipulation  |                                                 |
\*---------------------------------------------------------------------------*/
FoamFile
{
    version     2.0;
    format      ascii;
    arch        "LSB;label=32;scalar=64";
    class       volScalarField;
    location    "0.096";
    object      T;
}
// * * * * * * * * * * * * * * * * * * * * * * * * * * * * * * * * * * * * * //

dimensions      [0 0 0 1 0 0 0];

internalField   nonuniform List<scalar> 
78650
(
237.745
226.26
225.718
225.462
225.149
224.866
224.63
224.439
224.289
224.161
224.045
223.927
223.8
223.66
223.524
223.405
223.313
223.251
223.207
223.172
223.137
223.093
223.036
222.963
222.877
222.781
222.679
222.577
222.478
222.384
222.297
222.216
222.138
222.065
221.996
221.93
221.87
221.814
221.763
221.716
221.674
221.634
221.597
221.562
221.53
221.499
221.471
221.445
221.422
221.401
221.383
221.368
221.354
221.343
221.334
221.325
221.318
221.311
221.305
221.299
221.292
221.285
221.275
221.263
221.249
221.231
221.209
221.18
221.146
221.104
221.053
220.992
220.918
220.831
220.729
220.608
220.469
220.307
220.12
219.905
219.659
219.379
219.061
218.702
218.296
217.84
217.327
216.756
216.122
215.419
214.631
213.765
212.819
211.804
210.676
209.454
208.118
206.692
205.172
203.537
201.81
199.982
198.114
196.219
194.315
192.408
190.415
188.517
186.661
184.787
182.955
181.228
179.586
178.073
176.759
175.567
174.558
173.735
173.26
173.097
171.884
236.953
226.115
225.746
225.488
225.168
224.876
224.633
224.44
224.29
224.167
224.058
223.952
223.834
223.701
223.566
223.442
223.343
223.271
223.221
223.183
223.148
223.108
223.057
222.992
222.913
222.822
222.724
222.623
222.524
222.432
222.345
222.265
222.19
222.119
222.052
221.989
221.931
221.878
221.831
221.787
221.748
221.712
221.679
221.648
221.62
221.594
221.57
221.549
221.531
221.515
221.502
221.492
221.484
221.479
221.475
221.473
221.472
221.472
221.474
221.475
221.477
221.478
221.478
221.477
221.473
221.466
221.456
221.442
221.421
221.395
221.361
221.318
221.264
221.199
221.12
221.025
220.914
220.782
220.629
220.45
220.244
220.007
219.737
219.428
219.078
218.681
218.233
217.731
217.166
216.535
215.83
215.056
214.207
213.276
212.232
211.106
209.875
208.568
207.163
205.657
204.059
202.356
200.566
198.714
196.753
194.81
192.8
190.757
188.801
186.909
185.11
183.423
181.74
180.109
178.556
177.155
175.963
174.912
174.123
173.652
171.98
236.186
226.046
225.721
225.486
225.164
224.872
224.629
224.435
224.286
224.165
224.06
223.963
223.858
223.736
223.607
223.482
223.375
223.295
223.237
223.195
223.159
223.122
223.076
223.019
222.947
222.863
222.769
222.67
222.572
222.48
222.395
222.316
222.242
222.173
222.109
222.049
221.994
221.944
221.899
221.859
221.823
221.791
221.762
221.736
221.712
221.69
221.671
221.655
221.641
221.631
221.623
221.618
221.616
221.616
221.619
221.623
221.629
221.636
221.644
221.654
221.664
221.674
221.683
221.691
221.698
221.702
221.704
221.703
221.697
221.685
221.668
221.642
221.608
221.563
221.507
221.436
221.351
221.248
221.126
220.981
220.811
220.614
220.386
220.124
219.824
219.481
219.092
218.653
218.158
217.602
216.981
216.293
215.527
214.671
213.714
212.677
211.541
210.328
208.999
207.57
206.039
204.393
202.642
200.858
198.981
197.034
195.095
193.059
191.072
189.052
187.013
185.064
183.224
181.553
179.958
178.503
177.293
176.278
175.516
174.982
173.125
235.465
225.954
225.675
225.461
225.156
224.865
224.621
224.424
224.275
224.156
224.056
223.964
223.868
223.76
223.641
223.52
223.41
223.321
223.255
223.207
223.169
223.134
223.094
223.043
222.98
222.903
222.814
222.719
222.623
222.531
222.447
222.368
222.296
222.229
222.167
222.11
222.058
222.011
221.97
221.933
221.9
221.872
221.847
221.825
221.805
221.788
221.773
221.762
221.753
221.747
221.745
221.745
221.749
221.754
221.763
221.773
221.786
221.799
221.815
221.832
221.85
221.868
221.886
221.904
221.921
221.936
221.95
221.96
221.967
221.97
221.968
221.96
221.944
221.919
221.883
221.836
221.776
221.7
221.608
221.496
221.362
221.203
221.017
220.801
220.551
220.263
219.933
219.558
219.129
218.645
218.099
217.489
216.802
216.035
215.184
214.262
213.246
212.143
210.917
209.598
208.165
206.62
204.966
203.179
201.363
199.392
197.457
195.457
193.401
191.372
189.335
187.294
185.203
183.163
181.263
179.53
178.106
176.947
176.157
175.715
173.946
234.676
225.871
225.635
225.445
225.153
224.86
224.608
224.405
224.253
224.137
224.044
223.959
223.869
223.771
223.664
223.552
223.444
223.35
223.275
223.22
223.179
223.145
223.109
223.065
223.011
222.942
222.86
222.769
222.675
222.585
222.501
222.424
222.353
222.287
222.228
222.173
222.124
222.081
222.042
222.008
221.98
221.955
221.934
221.916
221.901
221.888
221.878
221.871
221.867
221.867
221.869
221.875
221.884
221.895
221.909
221.926
221.945
221.965
221.988
222.012
222.037
222.064
222.091
222.118
222.145
222.171
222.195
222.218
222.238
222.255
222.267
222.274
222.276
222.27
222.255
222.23
222.193
222.144
222.079
221.997
221.896
221.773
221.626
221.451
221.247
221.008
220.731
220.413
220.047
219.631
219.161
218.632
218.033
217.362
216.617
215.798
214.877
213.862
212.731
211.515
210.185
208.759
207.233
205.578
203.832
201.949
199.943
197.955
195.816
193.715
191.602
189.554
187.587
185.599
183.608
181.734
180.002
178.492
177.296
176.466
174.067
233.835
225.829
225.603
225.426
225.148
224.855
224.595
224.383
224.225
224.107
224.019
223.943
223.863
223.773
223.676
223.575
223.473
223.377
223.296
223.234
223.188
223.153
223.121
223.084
223.038
222.979
222.906
222.82
222.73
222.641
222.558
222.482
222.412
222.348
222.291
222.239
222.192
222.152
222.117
222.087
222.061
222.04
222.023
222.009
221.999
221.99
221.985
221.983
221.984
221.989
221.996
222.007
222.021
222.038
222.058
222.081
222.106
222.133
222.162
222.193
222.227
222.261
222.297
222.333
222.369
222.405
222.44
222.474
222.506
222.536
222.563
222.585
222.603
222.615
222.619
222.615
222.601
222.577
222.538
222.486
222.416
222.328
222.218
222.085
221.924
221.734
221.51
221.249
220.946
220.598
220.199
219.742
219.221
218.635
217.977
217.24
216.404
215.479
214.452
213.341
212.116
210.796
209.36
207.812
206.128
204.349
202.425
200.487
198.404
196.257
194.153
191.877
189.657
187.529
185.457
183.571
181.885
180.439
179.282
178.405
175.85
232.92
225.784
225.576
225.415
225.15
224.855
224.585
224.361
224.191
224.067
223.979
223.91
223.842
223.764
223.678
223.586
223.492
223.4
223.316
223.248
223.198
223.161
223.131
223.1
223.062
223.013
222.949
222.871
222.785
222.698
222.617
222.542
222.474
222.412
222.356
222.306
222.263
222.225
222.193
222.167
222.145
222.128
222.115
222.105
222.099
222.095
222.095
222.097
222.103
222.112
222.125
222.141
222.161
222.184
222.209
222.238
222.269
222.303
222.339
222.377
222.418
222.46
222.504
222.548
222.594
222.639
222.685
222.731
222.775
222.817
222.857
222.895
222.928
222.957
222.979
222.994
223.002
223
222.987
222.962
222.922
222.866
222.79
222.694
222.574
222.428
222.252
222.043
221.797
221.509
221.175
220.791
220.351
219.853
219.287
218.645
217.918
217.111
216.211
215.222
214.119
212.916
211.581
210.134
208.568
206.876
205.087
203.133
201.165
198.996
196.886
194.638
192.355
190
187.682
185.37
183.275
181.511
180.216
179.384
176.861
231.937
225.736
225.562
225.404
225.154
224.857
224.578
224.342
224.16
224.025
223.931
223.863
223.804
223.741
223.669
223.587
223.5
223.413
223.33
223.258
223.203
223.164
223.136
223.111
223.082
223.043
222.99
222.921
222.841
222.758
222.678
222.605
222.538
222.477
222.423
222.376
222.335
222.301
222.272
222.249
222.231
222.218
222.209
222.204
222.202
222.203
222.207
222.214
222.224
222.238
222.256
222.278
222.303
222.331
222.362
222.397
222.435
222.475
222.517
222.562
222.61
222.66
222.711
222.764
222.818
222.873
222.929
222.985
223.041
223.095
223.148
223.199
223.248
223.292
223.332
223.367
223.394
223.413
223.424
223.425
223.414
223.388
223.346
223.286
223.205
223.102
222.973
222.815
222.624
222.396
222.127
221.813
221.449
221.03
220.546
219.993
219.365
218.663
217.87
216.986
215.991
214.896
213.675
212.349
210.895
209.324
207.631
205.788
203.857
201.757
199.543
197.381
195.18
192.938
190.637
188.424
186.124
184.116
182.36
181.029
177.722
230.883
225.627
225.539
225.409
225.171
224.869
224.58
224.332
224.136
223.987
223.88
223.806
223.75
223.7
223.645
223.577
223.498
223.414
223.332
223.26
223.202
223.162
223.135
223.114
223.093
223.067
223.027
222.969
222.896
222.817
222.74
222.669
222.604
222.545
222.493
222.447
222.409
222.377
222.352
222.333
222.319
222.31
222.305
222.304
222.306
222.312
222.32
222.332
222.347
222.366
222.389
222.416
222.446
222.48
222.517
222.558
222.601
222.648
222.697
222.748
222.803
222.86
222.92
222.981
223.044
223.108
223.173
223.239
223.306
223.372
223.437
223.501
223.564
223.624
223.68
223.732
223.779
223.819
223.852
223.876
223.89
223.893
223.882
223.856
223.811
223.746
223.659
223.547
223.406
223.233
223.024
222.775
222.481
222.138
221.736
221.274
220.745
220.145
219.457
218.68
217.798
216.818
215.721
214.521
213.189
211.737
210.151
208.438
206.563
204.584
202.414
200.179
197.808
195.47
193.009
190.705
188.454
186.446
184.822
183.58
180.3
229.784
225.477
225.493
225.409
225.196
224.891
224.587
224.329
224.121
223.957
223.834
223.749
223.689
223.642
223.598
223.547
223.483
223.408
223.328
223.254
223.194
223.154
223.129
223.111
223.096
223.08
223.055
223.01
222.948
222.876
222.803
222.734
222.672
222.615
222.565
222.521
222.484
222.455
222.433
222.418
222.408
222.403
222.402
222.405
222.412
222.422
222.435
222.452
222.472
222.495
222.523
222.555
222.59
222.63
222.673
222.719
222.769
222.821
222.877
222.935
222.996
223.06
223.127
223.196
223.267
223.34
223.414
223.49
223.567
223.644
223.721
223.798
223.874
223.948
224.02
224.089
224.154
224.213
224.267
224.314
224.352
224.381
224.399
224.405
224.395
224.369
224.323
224.255
224.162
224.042
223.889
223.702
223.474
223.202
222.879
222.502
222.064
221.56
220.974
220.308
219.548
218.697
217.738
216.674
215.479
214.162
212.699
211.108
209.385
207.5
205.491
203.309
201.028
198.577
196.08
193.342
190.886
188.455
186.393
184.851
181.009
228.725
225.252
225.404
225.386
225.222
224.928
224.607
224.334
224.116
223.939
223.801
223.701
223.628
223.576
223.537
223.498
223.45
223.387
223.313
223.239
223.177
223.136
223.114
223.101
223.092
223.083
223.071
223.043
222.995
222.932
222.864
222.798
222.739
222.685
222.637
222.595
222.561
222.534
222.515
222.502
222.497
222.496
222.5
222.508
222.519
222.533
222.551
222.572
222.597
222.625
222.658
222.695
222.735
222.78
222.828
222.88
222.936
222.995
223.056
223.121
223.189
223.26
223.334
223.411
223.49
223.571
223.654
223.739
223.826
223.914
224.002
224.091
224.179
224.267
224.354
224.438
224.52
224.598
224.671
224.739
224.8
224.854
224.898
224.932
224.953
224.961
224.952
224.925
224.877
224.804
224.704
224.573
224.408
224.204
223.957
223.662
223.311
222.899
222.414
221.857
221.213
220.483
219.648
218.708
217.639
216.449
215.115
213.653
212.039
210.281
208.375
206.302
204.121
201.754
199.488
196.907
194.372
192.05
189.835
187.986
183.564
227.759
224.951
225.271
225.32
225.225
224.961
224.642
224.352
224.121
223.935
223.788
223.672
223.581
223.516
223.471
223.435
223.396
223.346
223.282
223.213
223.153
223.112
223.09
223.082
223.079
223.078
223.076
223.063
223.033
222.983
222.922
222.862
222.806
222.755
222.71
222.671
222.638
222.614
222.597
222.588
222.585
222.59
222.598
222.61
222.626
222.645
222.667
222.693
222.722
222.755
222.793
222.834
222.88
222.93
222.984
223.041
223.102
223.167
223.235
223.306
223.38
223.458
223.539
223.623
223.709
223.798
223.89
223.984
224.08
224.177
224.276
224.376
224.477
224.577
224.677
224.777
224.874
224.969
225.06
225.148
225.231
225.308
225.377
225.439
225.49
225.528
225.554
225.565
225.56
225.532
225.483
225.405
225.298
225.157
224.978
224.756
224.484
224.158
223.77
223.317
222.786
222.175
221.465
220.654
219.725
218.681
217.501
216.193
214.725
213.104
211.311
209.351
207.21
204.924
202.429
199.788
197.031
194.5
192.294
190.606
186.436
226.9
224.58
225.045
225.205
225.184
224.991
224.699
224.398
224.146
223.946
223.791
223.664
223.563
223.486
223.429
223.386
223.345
223.298
223.239
223.174
223.115
223.074
223.054
223.05
223.054
223.064
223.071
223.071
223.057
223.024
222.975
222.922
222.87
222.824
222.782
222.746
222.716
222.693
222.679
222.672
222.673
222.682
222.695
222.711
222.732
222.756
222.783
222.813
222.847
222.885
222.927
222.973
223.024
223.079
223.138
223.201
223.268
223.338
223.412
223.489
223.569
223.653
223.741
223.832
223.926
224.023
224.122
224.224
224.329
224.436
224.545
224.656
224.767
224.88
224.993
225.106
225.218
225.329
225.437
225.543
225.645
225.744
225.836
225.922
226
226.069
226.126
226.17
226.2
226.214
226.211
226.183
226.131
226.048
225.933
225.782
225.587
225.347
225.052
224.699
224.275
223.775
223.184
222.502
221.713
220.815
219.788
218.631
217.319
215.858
214.222
212.426
210.468
208.333
205.981
203.455
200.7
198.078
195.452
193.204
188.21
226.19
224.142
224.685
225.016
225.097
224.998
224.748
224.462
224.203
223.989
223.817
223.678
223.568
223.485
223.422
223.372
223.326
223.276
223.216
223.149
223.087
223.041
223.019
223.016
223.024
223.04
223.06
223.069
223.069
223.054
223.021
222.977
222.931
222.89
222.852
222.819
222.792
222.773
222.761
222.757
222.761
222.773
222.791
222.812
222.837
222.866
222.898
222.933
222.971
223.013
223.06
223.111
223.166
223.226
223.29
223.358
223.43
223.506
223.586
223.669
223.755
223.845
223.939
224.037
224.138
224.242
224.349
224.459
224.572
224.688
224.806
224.926
225.049
225.172
225.297
225.423
225.549
225.674
225.798
225.921
226.042
226.159
226.273
226.383
226.486
226.582
226.669
226.746
226.811
226.862
226.898
226.916
226.916
226.887
226.832
226.744
226.62
226.455
226.244
225.98
225.652
225.259
224.786
224.232
223.581
222.827
221.95
220.943
219.786
218.485
217.008
215.366
213.524
211.505
209.303
206.869
204.225
201.574
198.971
196.891
192.296
225.687
223.716
224.192
224.695
224.933
224.936
224.77
224.522
224.274
224.059
223.879
223.73
223.607
223.51
223.437
223.379
223.33
223.278
223.215
223.145
223.079
223.025
222.995
222.987
222.994
223.012
223.038
223.061
223.072
223.071
223.055
223.024
222.988
222.952
222.919
222.891
222.867
222.851
222.841
222.839
222.847
222.863
222.884
222.91
222.94
222.974
223.011
223.05
223.093
223.14
223.191
223.247
223.307
223.371
223.44
223.513
223.59
223.672
223.757
223.845
223.938
224.034
224.133
224.237
224.345
224.456
224.57
224.688
224.809
224.933
225.06
225.189
225.321
225.455
225.591
225.729
225.867
226.006
226.145
226.284
226.421
226.557
226.69
226.82
226.946
227.066
227.18
227.286
227.383
227.469
227.543
227.6
227.641
227.663
227.665
227.636
227.579
227.485
227.352
227.173
226.94
226.65
226.291
225.86
225.338
224.72
223.986
223.133
222.142
221.01
219.707
218.242
216.571
214.71
212.635
210.358
207.961
205.191
202.385
199.919
194.685
225.415
223.383
223.685
224.218
224.642
224.778
224.732
224.546
224.323
224.125
223.953
223.805
223.675
223.567
223.483
223.417
223.36
223.301
223.232
223.156
223.084
223.025
222.988
222.974
222.975
222.989
223.016
223.048
223.072
223.082
223.08
223.064
223.038
223.01
222.983
222.96
222.94
222.927
222.92
222.921
222.932
222.951
222.976
223.006
223.041
223.08
223.121
223.166
223.213
223.265
223.32
223.38
223.445
223.514
223.587
223.665
223.747
223.834
223.924
224.018
224.116
224.217
224.323
224.433
224.546
224.664
224.785
224.909
225.038
225.169
225.305
225.443
225.584
225.727
225.873
226.022
226.172
226.323
226.476
226.628
226.781
226.933
227.084
227.233
227.38
227.523
227.661
227.794
227.919
228.037
228.145
228.241
228.324
228.389
228.436
228.462
228.467
228.438
228.376
228.275
228.128
227.933
227.677
227.357
226.955
226.467
225.879
225.183
224.362
223.405
222.287
221.006
219.523
217.853
215.957
213.845
211.511
209.028
206.293
203.995
199.286
225.297
223.204
223.349
223.716
224.204
224.5
224.58
224.515
224.339
224.154
224.005
223.879
223.764
223.66
223.567
223.488
223.417
223.347
223.272
223.191
223.112
223.042
222.995
222.973
222.97
222.979
223.002
223.036
223.069
223.091
223.099
223.096
223.083
223.064
223.043
223.025
223.01
223.001
222.997
223.001
223.014
223.037
223.066
223.1
223.14
223.183
223.229
223.279
223.331
223.386
223.446
223.511
223.579
223.653
223.731
223.813
223.9
223.991
224.087
224.186
224.289
224.396
224.507
224.622
224.742
224.865
224.993
225.124
225.259
225.398
225.541
225.687
225.836
225.989
226.144
226.302
226.463
226.626
226.79
226.956
227.123
227.29
227.457
227.623
227.789
227.952
228.112
228.269
228.42
228.566
228.704
228.834
228.953
229.059
229.151
229.225
229.278
229.309
229.315
229.286
229.22
229.111
228.949
228.732
228.445
228.084
227.634
227.087
226.422
225.629
224.685
223.582
222.29
220.81
219.099
217.159
214.964
212.539
209.962
207.281
202.359
225.29
223.189
223.22
223.339
223.683
224.069
224.304
224.362
224.296
224.155
224.016
223.907
223.825
223.751
223.671
223.592
223.51
223.427
223.341
223.251
223.162
223.083
223.022
222.987
222.977
222.981
222.998
223.03
223.069
223.1
223.118
223.124
223.122
223.113
223.1
223.088
223.078
223.072
223.071
223.079
223.095
223.12
223.153
223.192
223.235
223.283
223.334
223.388
223.445
223.505
223.569
223.638
223.711
223.788
223.871
223.958
224.049
224.145
224.245
224.349
224.457
224.569
224.685
224.805
224.93
225.06
225.193
225.33
225.472
225.617
225.767
225.92
226.077
226.238
226.402
226.569
226.74
226.913
227.088
227.266
227.445
227.626
227.807
227.989
228.171
228.353
228.533
228.711
228.885
229.056
229.222
229.382
229.534
229.677
229.808
229.926
230.028
230.11
230.17
230.205
230.214
230.182
230.11
229.988
229.808
229.566
229.245
228.838
228.326
227.697
226.933
226.023
224.939
223.671
222.175
220.46
218.491
216.353
213.955
211.541
207.099
225.309
223.232
223.185
223.154
223.264
223.553
223.883
224.088
224.149
224.106
223.996
223.906
223.838
223.787
223.742
223.686
223.614
223.532
223.438
223.34
223.242
223.151
223.076
223.024
223
222.996
223.006
223.033
223.072
223.111
223.138
223.153
223.159
223.159
223.154
223.147
223.142
223.14
223.144
223.155
223.174
223.202
223.238
223.281
223.328
223.381
223.436
223.495
223.556
223.621
223.689
223.761
223.838
223.92
224.007
224.098
224.194
224.294
224.398
224.507
224.619
224.736
224.857
224.982
225.112
225.247
225.386
225.529
225.676
225.828
225.984
226.144
226.308
226.476
226.648
226.824
227.003
227.185
227.371
227.559
227.749
227.942
228.136
228.333
228.53
228.728
228.925
229.122
229.317
229.51
229.701
229.887
230.068
230.242
230.408
230.565
230.709
230.839
230.952
231.043
231.11
231.149
231.159
231.125
231.045
230.909
230.706
230.428
230.057
229.584
228.988
228.255
227.357
226.281
224.996
223.49
221.719
219.721
217.39
214.97
210.923
225.319
223.298
223.191
223.072
223.035
223.125
223.389
223.689
223.892
223.961
223.934
223.879
223.828
223.791
223.756
223.722
223.684
223.625
223.542
223.445
223.342
223.243
223.155
223.087
223.045
223.03
223.031
223.048
223.083
223.126
223.159
223.182
223.195
223.202
223.204
223.204
223.204
223.206
223.214
223.228
223.25
223.282
223.321
223.367
223.419
223.475
223.535
223.598
223.664
223.733
223.805
223.881
223.962
224.048
224.139
224.234
224.334
224.438
224.546
224.659
224.776
224.897
225.023
225.153
225.287
225.427
225.571
225.719
225.872
226.029
226.191
226.357
226.527
226.702
226.881
227.064
227.251
227.442
227.636
227.834
228.035
228.238
228.444
228.653
228.863
229.075
229.289
229.502
229.716
229.928
230.14
230.35
230.556
230.759
230.955
231.146
231.327
231.498
231.656
231.799
231.923
232.024
232.098
232.142
232.152
232.112
232.018
231.858
231.622
231.298
230.868
230.316
229.617
228.756
227.698
226.418
224.893
223.107
221.06
218.731
215.206
225.314
223.373
223.235
223.049
222.917
222.865
222.96
223.225
223.525
223.727
223.802
223.807
223.79
223.769
223.746
223.722
223.693
223.657
223.611
223.536
223.446
223.349
223.254
223.173
223.113
223.081
223.073
223.08
223.106
223.148
223.186
223.213
223.233
223.246
223.254
223.259
223.264
223.27
223.281
223.299
223.325
223.36
223.402
223.452
223.507
223.567
223.631
223.699
223.768
223.841
223.917
223.997
224.082
224.172
224.266
224.365
224.469
224.577
224.689
224.806
224.927
225.052
225.182
225.316
225.455
225.599
225.748
225.901
226.058
226.221
226.388
226.56
226.736
226.917
227.102
227.292
227.486
227.685
227.887
228.093
228.303
228.516
228.732
228.951
229.174
229.399
229.625
229.854
230.083
230.313
230.543
230.773
231.002
231.228
231.452
231.671
231.885
232.092
232.289
232.476
232.649
232.805
232.942
233.052
233.133
233.18
233.19
233.142
233.034
232.849
232.574
232.19
231.675
231.009
230.159
229.107
227.817
226.251
224.432
222.224
219.086
225.303
223.438
223.298
223.064
222.862
222.711
222.678
222.809
223.102
223.404
223.598
223.682
223.711
223.717
223.71
223.697
223.679
223.654
223.622
223.583
223.522
223.445
223.357
223.271
223.198
223.15
223.129
223.129
223.144
223.18
223.219
223.249
223.273
223.291
223.304
223.314
223.322
223.333
223.347
223.369
223.398
223.436
223.482
223.535
223.593
223.657
223.725
223.796
223.87
223.946
224.026
224.11
224.199
224.292
224.39
224.493
224.6
224.712
224.828
224.948
225.073
225.202
225.336
225.474
225.617
225.765
225.918
226.075
226.237
226.404
226.576
226.753
226.935
227.121
227.312
227.508
227.708
227.913
228.122
228.336
228.554
228.775
229
229.229
229.462
229.697
229.936
230.177
230.42
230.665
230.911
231.159
231.407
231.654
231.901
232.145
232.387
232.624
232.856
233.08
233.295
233.499
233.688
233.858
234.009
234.129
234.218
234.267
234.273
234.209
234.073
233.838
233.498
233.02
232.374
231.538
230.461
229.121
227.533
225.556
222.764
225.294
223.486
223.358
223.086
222.838
222.615
222.499
222.516
222.705
223.033
223.328
223.505
223.59
223.625
223.639
223.642
223.64
223.632
223.614
223.591
223.556
223.509
223.444
223.368
223.29
223.23
223.197
223.189
223.196
223.223
223.26
223.291
223.316
223.338
223.355
223.368
223.38
223.394
223.412
223.436
223.469
223.51
223.559
223.615
223.677
223.745
223.816
223.891
223.968
224.048
224.131
224.219
224.311
224.408
224.509
224.615
224.726
224.841
224.961
225.085
225.213
225.346
225.483
225.624
225.771
225.923
226.08
226.241
226.407
226.578
226.755
226.936
227.122
227.314
227.51
227.711
227.917
228.128
228.343
228.563
228.788
229.017
229.25
229.487
229.728
229.974
230.222
230.475
230.73
230.987
231.247
231.51
231.774
232.039
232.305
232.571
232.836
233.099
233.36
233.616
233.867
234.11
234.344
234.566
234.772
234.959
235.123
235.253
235.348
235.396
235.399
235.31
235.145
234.857
234.438
233.854
233.04
231.966
230.587
228.802
226.27
225.293
223.519
223.392
223.099
222.817
222.554
222.374
222.314
222.397
222.673
223.023
223.286
223.433
223.503
223.538
223.558
223.575
223.585
223.589
223.582
223.564
223.536
223.5
223.446
223.378
223.315
223.272
223.257
223.258
223.276
223.309
223.337
223.363
223.386
223.406
223.423
223.438
223.454
223.475
223.503
223.539
223.583
223.636
223.695
223.76
223.83
223.905
223.983
224.064
224.147
224.234
224.325
224.42
224.52
224.625
224.734
224.848
224.967
225.09
225.217
225.348
225.484
225.624
225.769
225.919
226.075
226.235
226.4
226.57
226.745
226.925
227.11
227.301
227.496
227.697
227.903
228.114
228.33
228.551
228.777
229.007
229.243
229.483
229.727
229.976
230.229
230.487
230.748
231.014
231.282
231.554
231.829
232.107
232.387
232.669
232.953
233.238
233.523
233.808
234.091
234.371
234.648
234.919
235.184
235.438
235.68
235.905
236.11
236.29
236.43
236.533
236.581
236.574
236.449
236.223
235.838
235.254
234.439
233.293
231.768
229.488
225.312
223.542
223.395
223.091
222.785
222.5
222.283
222.177
222.187
222.365
222.712
223.044
223.256
223.362
223.415
223.452
223.488
223.521
223.546
223.559
223.557
223.542
223.524
223.497
223.45
223.394
223.348
223.327
223.324
223.335
223.363
223.388
223.413
223.437
223.459
223.478
223.495
223.513
223.537
223.567
223.607
223.655
223.71
223.773
223.841
223.914
223.992
224.073
224.157
224.243
224.333
224.427
224.525
224.628
224.736
224.849
224.966
225.087
225.213
225.343
225.478
225.617
225.76
225.908
226.061
226.219
226.383
226.551
226.725
226.903
227.087
227.276
227.47
227.669
227.874
228.084
228.299
228.52
228.746
228.976
229.212
229.453
229.699
229.95
230.205
230.466
230.731
231
231.274
231.552
231.833
232.119
232.409
232.701
232.997
233.296
233.597
233.901
234.205
234.51
234.816
235.12
235.422
235.721
236.015
236.302
236.579
236.843
237.091
237.315
237.511
237.66
237.767
237.805
237.763
237.594
237.283
236.764
235.882
234.671
232.617
225.343
223.543
223.382
223.059
222.741
222.449
222.214
222.075
222.039
222.132
222.429
222.798
223.068
223.212
223.284
223.335
223.388
223.443
223.488
223.523
223.538
223.537
223.53
223.521
223.499
223.459
223.418
223.396
223.391
223.397
223.42
223.442
223.465
223.489
223.512
223.533
223.552
223.572
223.598
223.632
223.674
223.725
223.784
223.85
223.92
223.996
224.077
224.161
224.247
224.337
224.429
224.526
224.627
224.734
224.844
224.96
225.08
225.204
225.333
225.465
225.603
225.744
225.89
226.041
226.197
226.358
226.525
226.696
226.872
227.054
227.241
227.433
227.631
227.834
228.042
228.256
228.475
228.699
228.929
229.165
229.405
229.651
229.902
230.158
230.419
230.686
230.957
231.234
231.515
231.8
232.09
232.385
232.684
232.988
233.295
233.606
233.921
234.239
234.56
234.884
235.209
235.536
235.864
236.191
236.517
236.841
237.159
237.472
237.774
238.064
238.335
238.584
238.799
238.964
239.069
239.095
239.022
238.769
238.184
237.373
235.621
225.386
223.529
223.351
223.004
222.682
222.396
222.159
221.999
221.932
221.968
222.188
222.557
222.877
223.063
223.156
223.219
223.285
223.357
223.422
223.474
223.506
223.523
223.527
223.529
223.526
223.507
223.478
223.459
223.454
223.459
223.477
223.496
223.518
223.542
223.566
223.587
223.608
223.63
223.658
223.695
223.74
223.795
223.857
223.925
223.998
224.077
224.16
224.246
224.335
224.427
224.523
224.622
224.726
224.835
224.949
225.067
225.19
225.317
225.448
225.583
225.723
225.867
226.015
226.169
226.328
226.491
226.661
226.835
227.014
227.198
227.388
227.583
227.784
227.99
228.201
228.419
228.641
228.869
229.103
229.342
229.587
229.837
230.093
230.353
230.62
230.891
231.169
231.451
231.739
232.031
232.328
232.631
232.938
233.251
233.568
233.89
234.216
234.546
234.881
235.219
235.561
235.906
236.254
236.604
236.956
237.309
237.661
238.011
238.358
238.7
239.032
239.353
239.653
239.927
240.15
240.314
240.429
240.458
240.209
239.819
238.612
225.442
223.495
223.292
222.924
222.608
222.337
222.11
221.939
221.851
221.85
221.99
222.332
222.69
222.919
223.038
223.113
223.187
223.27
223.35
223.417
223.466
223.499
223.518
223.53
223.538
223.537
223.525
223.513
223.511
223.518
223.533
223.55
223.571
223.595
223.619
223.642
223.663
223.688
223.718
223.757
223.806
223.863
223.928
223.999
224.075
224.156
224.241
224.33
224.421
224.515
224.613
224.715
224.822
224.934
225.05
225.171
225.296
225.425
225.559
225.696
225.838
225.985
226.136
226.292
226.453
226.619
226.791
226.967
227.149
227.336
227.528
227.726
227.93
228.139
228.353
228.574
228.799
229.031
229.268
229.511
229.759
230.013
230.273
230.538
230.809
231.085
231.367
231.655
231.948
232.247
232.55
232.859
233.174
233.494
233.819
234.15
234.486
234.827
235.173
235.524
235.879
236.239
236.604
236.972
237.345
237.72
238.099
238.479
238.861
239.242
239.621
239.995
240.361
240.716
241.044
241.342
241.589
241.802
241.91
241.8
241.313
225.5
223.44
223.202
222.827
222.525
222.274
222.063
221.889
221.783
221.756
221.834
222.126
222.507
222.781
222.93
223.019
223.098
223.186
223.277
223.357
223.421
223.469
223.503
223.526
223.543
223.555
223.558
223.557
223.561
223.57
223.585
223.602
223.623
223.647
223.672
223.696
223.718
223.744
223.777
223.819
223.87
223.931
223.999
224.072
224.15
224.233
224.321
224.411
224.505
224.601
224.701
224.806
224.915
225.029
225.148
225.271
225.398
225.53
225.665
225.805
225.949
226.098
226.251
226.409
226.573
226.741
226.915
227.094
227.278
227.468
227.663
227.864
228.07
228.281
228.499
228.722
228.951
229.185
229.426
229.672
229.924
230.181
230.445
230.714
230.989
231.269
231.556
231.849
232.147
232.451
232.76
233.075
233.396
233.723
234.056
234.394
234.738
235.088
235.443
235.805
236.171
236.544
236.922
237.305
237.693
238.087
238.486
238.889
239.296
239.707
240.12
240.534
240.948
241.358
241.758
242.145
242.504
242.845
243.155
243.323
243.401
225.546
223.366
223.097
222.724
222.439
222.209
222.015
221.843
221.724
221.674
221.708
221.943
222.332
222.648
222.83
222.936
223.022
223.112
223.206
223.296
223.374
223.436
223.484
223.518
223.543
223.564
223.58
223.591
223.602
223.616
223.632
223.65
223.673
223.699
223.725
223.749
223.772
223.8
223.835
223.879
223.934
223.998
224.068
224.143
224.224
224.309
224.398
224.49
224.585
224.683
224.786
224.893
225.004
225.121
225.242
225.367
225.496
225.63
225.768
225.91
226.056
226.206
226.362
226.522
226.688
226.858
227.035
227.216
227.402
227.594
227.791
227.994
228.203
228.417
228.637
228.863
229.094
229.332
229.575
229.824
230.079
230.341
230.607
230.88
231.159
231.443
231.734
232.031
232.334
232.643
232.957
233.278
233.604
233.937
234.276
234.621
234.972
235.33
235.693
236.063
236.439
236.822
237.21
237.605
238.006
238.414
238.827
239.247
239.672
240.103
240.539
240.978
241.422
241.866
242.308
242.743
243.163
243.58
243.967
244.27
244.574
225.574
223.277
222.985
222.622
222.356
222.144
221.965
221.798
221.666
221.597
221.606
221.782
222.165
222.522
222.74
222.865
222.959
223.05
223.145
223.24
223.328
223.403
223.463
223.507
223.54
223.568
223.594
223.616
223.635
223.654
223.674
223.695
223.721
223.749
223.776
223.8
223.825
223.855
223.892
223.939
223.997
224.063
224.135
224.213
224.295
224.382
224.473
224.567
224.663
224.763
224.867
224.977
225.09
225.209
225.332
225.459
225.591
225.726