/*--------------------------------*- C++ -*----------------------------------*\
| =========                 |                                                 |
| \\      /  F ield         | OpenFOAM: The Open Source CFD Toolbox           |
|  \\    /   O peration     | Version:  2412                                  |
|   \\  /    A nd           | Website:  www.openfoam.com                      |
|    \\/     M anipulation  |                                                 |
\*---------------------------------------------------------------------------*/
FoamFile
{
    version     2.0;
    format      ascii;
    arch        "LSB;label=32;scalar=64";
    class       volScalarField;
    location    "0.068";
    object      rho;
}
// * * * * * * * * * * * * * * * * * * * * * * * * * * * * * * * * * * * * * //

dimensions      [1 -3 0 0 0 0 0];

internalField   nonuniform List<scalar> 
9859
(
0.0421201
0.0421265
0.0421317
0.042139
0.0421444
0.0421499
0.0421537
0.0421573
0.0421604
0.0421631
0.0421658
0.0421674
0.0421694
0.0421705
0.0421723
0.0421733
0.0421751
0.0421756
0.0421766
0.0421761
0.0421758
0.0421749
0.0421748
0.0421743
0.042175
0.0421738
0.0421714
0.0421657
0.0421549
0.0421362
0.0421107
0.042078
0.0420434
0.0420109
0.0419997
0.0419467
0.0419407
0.0419636
0.0419851
0.0420149
0.0420412
0.0420633
0.0420815
0.0420909
0.0421052
0.0421073
0.0421097
0.0421103
0.0421095
0.0421086
0.0421064
0.0421037
0.0421005
0.0420961
0.0420913
0.0420861
0.0420807
0.0420755
0.0420704
0.0420657
0.0420609
0.0420556
0.0420499
0.0420436
0.0420356
0.0420267
0.0420145
0.0419998
0.0419825
0.0421199
0.0421262
0.0421314
0.0421386
0.042144
0.0421495
0.0421532
0.0421568
0.0421599
0.0421626
0.0421652
0.0421669
0.0421688
0.0421699
0.0421717
0.0421728
0.0421746
0.0421751
0.0421761
0.0421756
0.0421753
0.0421745
0.0421745
0.0421741
0.0421748
0.0421738
0.0421714
0.0421656
0.0421546
0.0421355
0.0421097
0.0420766
0.0420417
0.0420092
0.0419972
0.0419427
0.0419391
0.0419617
0.041984
0.0420143
0.0420409
0.042063
0.042081
0.0420903
0.0421048
0.0421066
0.0421091
0.0421097
0.0421087
0.0421077
0.0421055
0.0421028
0.0420996
0.0420952
0.0420903
0.0420852
0.0420798
0.0420745
0.0420694
0.0420647
0.0420599
0.0420547
0.0420492
0.0420433
0.0420354
0.0420269
0.0420155
0.0420019
0.0419859
0.0419672
0.0419452
0.041922
0.0419003
0.0418791
0.0418582
0.0417009
0.0416837
0.0416707
0.0416611
0.0416501
0.0416377
0.0416318
0.0416283
0.0416237
0.0416209
0.0416201
0.041619
0.04162
0.0416196
0.0416159
0.0416096
0.0415991
0.0415839
0.0415651
0.0415446
0.0415238
0.0415066
0.0414964
0.0414948
0.0415018
0.0415182
0.0415448
0.0415745
0.0416154
0.0416641
0.0417161
0.0417741
0.0418326
0.0419063
0.0419829
0.04206
0.0421177
0.0421196
0.0421259
0.042131
0.0421382
0.0421435
0.042149
0.0421527
0.0421563
0.0421593
0.042162
0.0421647
0.0421663
0.0421682
0.0421694
0.0421712
0.0421722
0.042174
0.0421746
0.0421755
0.0421751
0.0421748
0.0421741
0.0421741
0.0421738
0.0421746
0.0421737
0.0421714
0.0421655
0.0421543
0.0421349
0.0421087
0.0420752
0.0420398
0.0420074
0.0419943
0.0419388
0.0419374
0.0419597
0.0419828
0.0420137
0.0420407
0.0420627
0.0420805
0.0420897
0.0421044
0.0421058
0.0421084
0.042109
0.042108
0.0421069
0.0421046
0.0421018
0.0420986
0.0420942
0.0420894
0.0420842
0.0420788
0.0420735
0.0420684
0.0420637
0.042059
0.0420538
0.0420485
0.0420429
0.0420352
0.0420271
0.0420163
0.0420034
0.0419885
0.0419715
0.0419515
0.041929
0.041907
0.0418855
0.0418638
0.0418435
0.0418252
0.0418076
0.0417909
0.0417735
0.0417578
0.0417452
0.0417312
0.0417154
0.0416988
0.0416832
0.0416716
0.0416636
0.0416547
0.0416459
0.0416404
0.0416361
0.0416344
0.041633
0.0416327
0.0416326
0.0416329
0.04163
0.0416242
0.0416136
0.0415988
0.0415809
0.0415614
0.0415417
0.0415259
0.0415169
0.0415161
0.0415236
0.0415402
0.0415667
0.0415962
0.0416363
0.0416835
0.0417337
0.0417901
0.0418466
0.0419185
0.0419919
0.0420637
0.0421111
0.0421194
0.0421255
0.0421306
0.0421377
0.0421431
0.0421485
0.0421522
0.0421557
0.0421588
0.0421614
0.0421641
0.0421657
0.0421676
0.0421687
0.0421706
0.0421716
0.0421734
0.042174
0.042175
0.0421746
0.0421743
0.0421736
0.0421737
0.0421735
0.0421744
0.0421736
0.0421713
0.0421653
0.0421539
0.0421342
0.0421076
0.0420738
0.0420379
0.0420055
0.041991
0.0419349
0.0419356
0.0419576
0.0419817
0.0420132
0.0420405
0.0420623
0.0420798
0.0420891
0.0421039
0.042105
0.0421076
0.0421082
0.0421071
0.0421059
0.0421036
0.0421008
0.0420977
0.0420932
0.0420883
0.0420832
0.0420778
0.0420725
0.0420674
0.0420627
0.042058
0.0420529
0.0420477
0.0420425
0.042035
0.0420272
0.042017
0.0420045
0.0419901
0.0419743
0.041957
0.0419372
0.0419159
0.0418944
0.041873
0.0418521
0.041834
0.0418184
0.0418027
0.0417859
0.041768
0.0417528
0.0417399
0.0417263
0.0417124
0.0416979
0.0416844
0.041675
0.0416683
0.0416602
0.0416537
0.0416498
0.0416479
0.0416465
0.0416468
0.0416468
0.0416469
0.041645
0.041639
0.0416285
0.0416144
0.0415972
0.0415787
0.0415602
0.0415458
0.0415381
0.041538
0.041546
0.0415628
0.0415891
0.0416182
0.0416575
0.041703
0.0417515
0.0418061
0.0418603
0.04193
0.0420001
0.0420668
0.0421044
0.0421191
0.0421252
0.0421302
0.0421373
0.0421426
0.042148
0.0421517
0.0421552
0.0421582
0.0421608
0.0421635
0.0421651
0.042167
0.0421681
0.0421699
0.042171
0.0421728
0.0421734
0.0421744
0.042174
0.0421738
0.0421731
0.0421733
0.0421732
0.0421741
0.0421735
0.0421712
0.0421651
0.0421535
0.0421334
0.0421066
0.0420724
0.042036
0.0420034
0.0419874
0.041931
0.0419336
0.0419553
0.0419805
0.0420128
0.0420404
0.042062
0.0420791
0.0420884
0.0421034
0.0421042
0.0421069
0.0421074
0.0421062
0.042105
0.0421026
0.0420997
0.0420966
0.0420922
0.0420873
0.0420821
0.0420768
0.0420715
0.0420664
0.0420617
0.042057
0.042052
0.042047
0.042042
0.0420348
0.0420273
0.0420177
0.0420057
0.0419916
0.0419763
0.0419605
0.0419433
0.041924
0.0419039
0.0418844
0.0418649
0.0418465
0.04183
0.0418138
0.0417984
0.0417821
0.0417654
0.0417507
0.041737
0.041724
0.0417118
0.0416991
0.0416876
0.0416799
0.0416738
0.0416683
0.0416645
0.0416621
0.0416611
0.0416613
0.0416619
0.0416619
0.04166
0.0416542
0.0416442
0.0416305
0.0416141
0.0415965
0.0415793
0.0415663
0.0415599
0.0415606
0.041569
0.0415859
0.0416119
0.0416406
0.0416789
0.0417229
0.0417694
0.0418221
0.0418738
0.0419408
0.0420075
0.0420689
0.0420982
0.0418816
0.0421189
0.0421248
0.0421298
0.0421368
0.0421421
0.0421475
0.0421511
0.0421546
0.0421576
0.0421602
0.0421628
0.0421644
0.0421663
0.0421674
0.0421692
0.0421703
0.0421722
0.0421727
0.0421737
0.0421734
0.0421732
0.0421726
0.0421728
0.0421728
0.0421739
0.0421734
0.0421711
0.0421649
0.0421531
0.0421326
0.0421055
0.042071
0.0420342
0.042001
0.0419834
0.0419272
0.0419314
0.041953
0.0419792
0.0420123
0.0420403
0.0420618
0.0420781
0.0420878
0.0421029
0.0421033
0.0421061
0.0421065
0.0421053
0.0421039
0.0421015
0.0420986
0.0420955
0.0420911
0.0420862
0.0420811
0.0420757
0.0420705
0.0420654
0.0420607
0.042056
0.0420511
0.0420464
0.0420415
0.0420345
0.0420273
0.0420184
0.0420072
0.0419939
0.041979
0.0419635
0.0419472
0.0419298
0.0419116
0.0418938
0.0418762
0.0418585
0.0418412
0.0418248
0.0418101
0.0417962
0.0417812
0.0417656
0.0417506
0.0417367
0.0417248
0.0417138
0.0417027
0.0416938
0.041688
0.0416835
0.0416797
0.0416773
0.0416766
0.0416765
0.0416772
0.0416774
0.0416755
0.04167
0.0416605
0.0416473
0.0416316
0.041615
0.0415991
0.0415875
0.0415824
0.0415838
0.0415926
0.0416096
0.0416353
0.0416635
0.0417007
0.041743
0.0417877
0.0418384
0.0418873
0.0419512
0.0420138
0.0420697
0.0420919
0.0418545
0.0421186
0.0421245
0.0421294
0.0421364
0.0421416
0.042147
0.0421505
0.042154
0.042157
0.0421596
0.0421622
0.0421637
0.0421656
0.0421667
0.0421685
0.0421696
0.0421714
0.042172
0.042173
0.0421727
0.0421726
0.042172
0.0421724
0.0421725
0.0421736
0.0421732
0.042171
0.0421646
0.0421525
0.0421318
0.0421044
0.0420696
0.0420323
0.0419983
0.041979
0.0419234
0.0419291
0.0419506
0.041978
0.0420119
0.0420402
0.0420616
0.0420768
0.0420872
0.0421022
0.0421023
0.0421052
0.0421056
0.0421043
0.0421029
0.0421004
0.0420975
0.0420944
0.0420899
0.042085
0.0420799
0.0420746
0.0420694
0.0420644
0.0420596
0.0420551
0.0420502
0.0420457
0.0420409
0.0420343
0.0420274
0.042019
0.0420089
0.0419969
0.041983
0.0419678
0.0419515
0.0419351
0.0419183
0.0419011
0.0418844
0.0418681
0.0418519
0.0418365
0.0418219
0.0418085
0.0417952
0.0417808
0.0417661
0.0417518
0.041739
0.0417284
0.0417188
0.0417103
0.0417038
0.0416991
0.0416954
0.0416934
0.0416925
0.0416926
0.0416931
0.0416934
0.0416916
0.0416865
0.0416773
0.0416647
0.0416498
0.0416342
0.0416197
0.0416095
0.0416057
0.0416078
0.041617
0.0416341
0.0416594
0.041687
0.041723
0.0417636
0.0418064
0.0418551
0.041901
0.0419615
0.0420196
0.0420697
0.0420846
0.0418276
0.0421184
0.0421241
0.042129
0.0421359
0.042141
0.0421464
0.0421499
0.0421533
0.0421563
0.0421589
0.0421615
0.042163
0.0421648
0.0421659
0.0421678
0.0421689
0.0421707
0.0421713
0.0421723
0.042172
0.0421719
0.0421714
0.0421718
0.0421721
0.0421733
0.042173
0.0421708
0.0421642
0.042152
0.0421309
0.0421032
0.0420682
0.0420304
0.0419953
0.0419743
0.0419196
0.0419266
0.0419481
0.0419768
0.0420116
0.0420403
0.0420614
0.0420753
0.0420867
0.0421015
0.0421014
0.0421043
0.0421045
0.0421032
0.0421017
0.0420992
0.0420963
0.0420932
0.0420887
0.0420839
0.0420788
0.0420735
0.0420683
0.0420633
0.0420586
0.0420541
0.0420494
0.0420449
0.0420402
0.042034
0.0420275
0.0420196
0.0420102
0.0419991
0.0419865
0.0419726
0.0419573
0.0419414
0.0419255
0.041909
0.0418927
0.0418775
0.0418628
0.0418487
0.0418346
0.0418208
0.0418078
0.0417946
0.0417811
0.0417676
0.041755
0.0417439
0.0417347
0.0417272
0.0417206
0.0417157
0.0417122
0.0417103
0.0417094
0.0417095
0.0417099
0.0417102
0.0417086
0.0417036
0.0416949
0.0416828
0.0416687
0.0416541
0.041641
0.0416324
0.0416298
0.0416327
0.0416423
0.0416594
0.0416842
0.0417111
0.0417459
0.0417847
0.0418256
0.0418722
0.0419151
0.0419721
0.0420252
0.0420686
0.0420753
0.0418017
0.0421181
0.0421237
0.0421285
0.0421354
0.0421404
0.0421458
0.0421493
0.0421527
0.0421556
0.0421582
0.0421607
0.0421623
0.0421641
0.0421651
0.0421669
0.0421681
0.0421699
0.0421705
0.0421715
0.0421713
0.0421712
0.0421708
0.0421713
0.0421716
0.0421729
0.0421728
0.0421705
0.0421638
0.0421514
0.04213
0.0421019
0.0420666
0.0420286
0.0419922
0.0419693
0.0419159
0.041924
0.0419457
0.0419757
0.0420113
0.0420404
0.0420612
0.0420736
0.0420861
0.0421007
0.0421003
0.0421033
0.0421034
0.0421021
0.0421005
0.042098
0.042095
0.0420919
0.0420875
0.0420826
0.0420775
0.0420723
0.0420672
0.0420622
0.0420575
0.0420531
0.0420485
0.0420442
0.0420396
0.0420337
0.0420276
0.04202
0.0420112
0.0420007
0.0419889
0.0419764
0.0419629
0.0419482
0.0419331
0.0419179
0.0419026
0.041888
0.0418742
0.0418607
0.0418475
0.0418344
0.0418214
0.0418086
0.0417958
0.0417833
0.0417715
0.0417608
0.0417515
0.0417442
0.0417382
0.0417335
0.0417301
0.0417282
0.0417273
0.0417273
0.0417277
0.0417278
0.0417262
0.0417214
0.0417132
0.0417017
0.0416885
0.041675
0.0416633
0.0416562
0.0416547
0.0416584
0.0416685
0.0416857
0.04171
0.041736
0.0417694
0.0418065
0.0418455
0.0418899
0.0419297
0.041983
0.042031
0.042068
0.0420635
0.0417763
0.0421179
0.0421234
0.042128
0.0421348
0.0421399
0.0421451
0.0421486
0.042152
0.0421549
0.0421574
0.0421599
0.0421615
0.0421632
0.0421643
0.0421661
0.0421672
0.042169
0.0421696
0.0421707
0.0421705
0.0421705
0.0421701
0.0421707
0.0421711
0.0421725
0.0421724
0.0421701
0.0421634
0.0421508
0.042129
0.0421004
0.0420649
0.0420267
0.0419891
0.041964
0.0419122
0.0419214
0.0419432
0.0419746
0.042011
0.0420404
0.042061
0.0420717
0.0420857
0.0420998
0.0420993
0.0421022
0.0421023
0.0421008
0.0420992
0.0420967
0.0420937
0.0420905
0.0420861
0.0420813
0.0420763
0.0420711
0.042066
0.0420611
0.0420564
0.0420521
0.0420477
0.0420434
0.0420389
0.0420334
0.0420277
0.0420205
0.0420122
0.0420023
0.0419912
0.0419795
0.0419673
0.041954
0.0419402
0.0419263
0.0419124
0.0418986
0.0418853
0.0418725
0.0418602
0.0418482
0.0418361
0.0418237
0.0418114
0.0417994
0.0417884
0.0417785
0.0417695
0.0417623
0.0417567
0.0417523
0.0417491
0.0417471
0.0417462
0.0417461
0.0417464
0.0417464
0.0417447
0.0417402
0.0417324
0.0417216
0.0417093
0.0416969
0.0416867
0.0416811
0.0416807
0.0416852
0.0416957
0.0417129
0.0417367
0.0417619
0.0417938
0.041829
0.0418661
0.0419084
0.041945
0.0419943
0.0420367
0.0420673
0.0420495
0.0417519
0.0421176
0.042123
0.0421276
0.0421343
0.0421392
0.0421445
0.0421479
0.0421513
0.0421541
0.0421567
0.0421591
0.0421606
0.0421624
0.0421634
0.0421652
0.0421663
0.0421681
0.0421687
0.0421698
0.0421696
0.0421697
0.0421694
0.04217
0.0421706
0.042172
0.0421721
0.0421697
0.0421628
0.0421501
0.0421279
0.0420989
0.0420629
0.0420246
0.041986
0.0419585
0.0419086
0.0419186
0.0419407
0.0419735
0.0420107
0.0420405
0.0420609
0.0420698
0.0420853
0.0420987
0.0420982
0.0421011
0.042101
0.0420995
0.0420978
0.0420953
0.0420922
0.0420891
0.0420848
0.04208
0.042075
0.0420699
0.0420649
0.04206
0.0420554
0.0420512
0.0420469
0.0420426
0.0420382
0.0420331
0.0420277
0.042021
0.0420132
0.0420042
0.0419939
0.0419829
0.0419714
0.0419593
0.0419468
0.0419339
0.041921
0.0419084
0.0418961
0.0418842
0.0418727
0.0418617
0.0418506
0.0418392
0.0418276
0.0418163
0.0418058
0.0417967
0.0417884
0.0417816
0.0417763
0.0417721
0.0417691
0.0417672
0.0417663
0.041766
0.0417661
0.0417659
0.0417642
0.0417598
0.0417525
0.0417425
0.0417312
0.0417199
0.0417112
0.0417071
0.0417078
0.0417132
0.0417241
0.0417414
0.0417647
0.0417888
0.0418191
0.0418525
0.0418874
0.0419275
0.0419608
0.0420061
0.0420427
0.0420673
0.042034
0.0417278
0.0421174
0.0421226
0.0421271
0.0421337
0.0421386
0.0421438
0.0421472
0.0421505
0.0421534
0.0421559
0.0421583
0.0421597
0.0421614
0.0421625
0.0421642
0.0421653
0.0421671
0.0421678
0.0421689
0.0421687
0.0421688
0.0421686
0.0421693
0.04217
0.0421715
0.0421716
0.0421693
0.0421623
0.0421494
0.0421269
0.0420974
0.0420607
0.0420221
0.041983
0.0419527
0.0419051
0.0419158
0.0419383
0.0419724
0.0420103
0.0420404
0.0420608
0.042068
0.0420848
0.0420975
0.0420971
0.0420998
0.0420996
0.0420981
0.0420964
0.0420938
0.0420908
0.0420876
0.0420833
0.0420786
0.0420737
0.0420687
0.0420637
0.0420589
0.0420544
0.0420502
0.0420461
0.0420419
0.0420375
0.0420329
0.0420277
0.0420214
0.042014
0.0420059
0.0419966
0.0419864
0.0419757
0.0419645
0.041953
0.0419412
0.0419293
0.0419178
0.0419066
0.0418957
0.0418852
0.041875
0.0418648
0.0418544
0.0418439
0.0418336
0.041824
0.0418155
0.0418079
0.0418018
0.0417969
0.041793
0.0417902
0.0417884
0.0417875
0.0417872
0.0417871
0.0417866
0.0417848
0.0417806
0.0417738
0.0417647
0.0417544
0.0417444
0.0417371
0.0417345
0.0417363
0.0417425
0.0417538
0.0417712
0.0417938
0.0418169
0.0418455
0.0418769
0.0419096
0.0419474
0.0419774
0.0420183
0.0420488
0.042067
0.0420178
0.0417043
0.0421171
0.0421222
0.0421266
0.0421331
0.042138
0.0421431
0.0421465
0.0421497
0.0421526
0.042155
0.0421574
0.0421588
0.0421605
0.0421615
0.0421632
0.0421643
0.0421661
0.0421668
0.0421679
0.0421678
0.0421679
0.0421678
0.0421686
0.0421694
0.0421709
0.042171
0.0421687
0.0421616
0.0421487
0.0421258
0.0420958
0.0420584
0.0420194
0.0419798
0.0419469
0.0419019
0.0419131
0.041936
0.0419713
0.0420099
0.0420403
0.0420608
0.0420664
0.0420844
0.0420961
0.042096
0.0420985
0.0420982
0.0420966
0.0420948
0.0420922
0.0420892
0.042086
0.0420818
0.0420772
0.0420723
0.0420674
0.0420625
0.0420578
0.0420534
0.0420493
0.0420454
0.0420412
0.0420369
0.0420326
0.0420277
0.0420217
0.0420149
0.0420073
0.0419989
0.0419897
0.0419799
0.0419696
0.0419591
0.0419483
0.0419374
0.0419268
0.0419166
0.0419068
0.0418973
0.0418881
0.0418789
0.0418696
0.0418601
0.0418509
0.0418424
0.0418349
0.041828
0.0418227
0.0418183
0.0418149
0.0418124
0.0418108
0.0418099
0.0418094
0.0418091
0.0418085
0.0418065
0.0418026
0.0417964
0.0417881
0.041779
0.0417704
0.0417646
0.0417633
0.0417663
0.0417732
0.0417849
0.0418024
0.0418244
0.0418463
0.0418732
0.0419025
0.0419326
0.0419679
0.0419947
0.0420311
0.0420553
0.0420662
0.0420014
0.0416811
0.0421169
0.0421218
0.0421261
0.0421325
0.0421373
0.0421424
0.0421457
0.0421489
0.0421517
0.0421541
0.0421565
0.0421579
0.0421595
0.0421604
0.0421621
0.0421632
0.042165
0.0421657
0.0421668
0.0421668
0.042167
0.0421669
0.0421678
0.0421686
0.0421702
0.0421704
0.0421681
0.0421609
0.0421479
0.0421248
0.0420943
0.042056
0.0420164
0.0419763
0.0419413
0.0418989
0.0419105
0.0419339
0.0419703
0.0420094
0.0420401
0.042061
0.0420649
0.042084
0.0420946
0.0420947
0.0420971
0.0420966
0.0420949
0.0420931
0.0420906
0.0420876
0.0420844
0.0420802
0.0420757
0.0420709
0.042066
0.0420612
0.0420566
0.0420523
0.0420484
0.0420446
0.0420405
0.0420364
0.0420324
0.0420276
0.0420221
0.0420156
0.0420085
0.0420009
0.0419926
0.0419837
0.0419744
0.0419648
0.041955
0.0419451
0.0419355
0.0419262
0.0419173
0.0419089
0.0419008
0.0418926
0.0418844
0.0418762
0.0418682
0.0418608
0.0418545
0.0418486
0.0418441
0.0418405
0.0418376
0.0418355
0.0418342
0.0418334
0.0418329
0.0418324
0.0418316
0.0418296
0.0418259
0.0418204
0.0418131
0.0418053
0.0417981
0.0417939
0.0417938
0.041798
0.0418057
0.0418177
0.0418351
0.0418564
0.0418771
0.0419022
0.0419293
0.0419564
0.0419891
0.0420127
0.0420444
0.0420624
0.0420647
0.0419855
0.0416586
0.0421167
0.0421214
0.0421256
0.0421319
0.0421366
0.0421417
0.0421449
0.0421481
0.0421508
0.0421532
0.0421555
0.0421568
0.0421584
0.0421593
0.042161
0.0421621
0.0421639
0.0421645
0.0421657
0.0421657
0.0421659
0.042166
0.0421669
0.0421679
0.0421694
0.0421697
0.0421675
0.0421602
0.042147
0.0421238
0.0420928
0.0420534
0.0420132
0.0419723
0.0419361
0.0418964
0.0419081
0.0419322
0.0419695
0.0420089
0.0420398
0.0420613
0.0420634
0.0420835
0.042093
0.0420935
0.0420956
0.042095
0.0420932
0.0420914
0.0420888
0.0420859
0.0420827
0.0420786
0.0420741
0.0420694
0.0420646
0.0420599
0.0420554
0.0420513
0.0420475
0.0420438
0.0420399
0.042036
0.0420322
0.0420275
0.0420224
0.0420164
0.0420098
0.0420028
0.0419954
0.0419874
0.0419789
0.0419702
0.0419612
0.0419523
0.0419436
0.0419352
0.0419273
0.0419199
0.0419128
0.0419057
0.0418988
0.0418918
0.0418851
0.0418791
0.041874
0.0418694
0.0418659
0.0418631
0.0418609
0.0418594
0.0418585
0.0418579
0.0418574
0.0418569
0.0418559
0.0418539
0.0418505
0.0418458
0.0418397
0.0418333
0.0418277
0.0418251
0.0418263
0.0418317
0.04184
0.0418523
0.0418695
0.0418901
0.0419095
0.0419326
0.0419573
0.0419813
0.042011
0.0420314
0.0420582
0.0420706
0.0420624
0.0419701
0.0416369
0.0421165
0.042121
0.0421251
0.0421313
0.0421359
0.0421409
0.0421441
0.0421472
0.0421499
0.0421523
0.0421545
0.0421558
0.0421573
0.0421582
0.0421598
0.0421608
0.0421626
0.0421633
0.0421645
0.0421646
0.0421649
0.042165
0.042166
0.042167
0.0421686
0.042169
0.0421667
0.0421594
0.0421462
0.0421227
0.0420913
0.0420508
0.0420096
0.041968
0.0419312
0.0418942
0.0419059
0.0419306
0.0419688
0.0420084
0.0420394
0.0420618
0.0420622
0.0420828
0.0420914
0.0420922
0.042094
0.0420932
0.0420914
0.0420896
0.042087
0.0420841
0.0420809
0.0420769
0.0420725
0.0420679
0.0420632
0.0420587
0.0420543
0.0420504
0.0420467
0.042043
0.0420392
0.0420356
0.042032
0.0420275
0.0420227
0.0420172
0.0420111
0.0420047
0.0419981
0.041991
0.0419833
0.0419754
0.0419672
0.041959
0.0419511
0.0419436
0.0419366
0.0419301
0.041924
0.0419181
0.0419124
0.0419067
0.0419014
0.0418968
0.0418932
0.0418899
0.0418877
0.041886
0.0418846
0.0418838
0.0418834
0.0418832
0.0418829
0.0418824
0.0418813
0.0418795
0.0418766
0.0418728
0.041868
0.0418632
0.0418594
0.0418583
0.041861
0.0418675
0.0418764
0.0418888
0.0419057
0.0419254
0.0419435
0.0419646
0.0419867
0.0420076
0.0420337
0.042051
0.0420723
0.0420796
0.0420598
0.0419558
0.0416162
0.0421163
0.0421206
0.0421246
0.0421307
0.0421352
0.0421401
0.0421432
0.0421464
0.042149
0.0421513
0.0421535
0.0421547
0.0421561
0.0421569
0.0421586
0.0421595
0.0421613
0.042162
0.0421633
0.0421634
0.0421638
0.042164
0.042165
0.0421661
0.0421677
0.0421682
0.0421659
0.0421585
0.0421453
0.0421217
0.0420897
0.0420481
0.0420053
0.0419639
0.0419269
0.0418925
0.0419042
0.0419294
0.0419683
0.042008
0.042039
0.0420622
0.0420616
0.0420818
0.0420897
0.0420908
0.0420923
0.0420914
0.0420895
0.0420876
0.0420851
0.0420823
0.0420791
0.0420751
0.0420709
0.0420664
0.0420618
0.0420574
0.0420533
0.0420495
0.0420459
0.0420424
0.0420387
0.0420353
0.0420318
0.0420276
0.042023
0.0420178
0.0420123
0.0420065
0.0420006
0.0419943
0.0419875
0.0419803
0.0419729
0.0419654
0.0419582
0.0419515
0.0419453
0.0419396
0.0419344
0.0419296
0.0419251
0.0419208
0.0419169
0.0419138
0.0419116
0.0419099
0.0419091
0.0419086
0.0419083
0.0419084
0.0419087
0.0419089
0.0419089
0.0419086
0.0419077
0.0419062
0.0419039
0.0419012
0.041898
0.0418949
0.041893
0.0418935
0.0418979
0.0419054
0.0419149
0.0419275
0.0419439
0.0419625
0.0419793
0.041998
0.0420173
0.0420352
0.0420574
0.0420716
0.042087
0.0420889
0.0420572
0.0419422
0.0415968
0.0421162
0.0421203
0.0421241
0.04213
0.0421344
0.0421393
0.0421424
0.0421454
0.042148
0.0421503
0.0421524
0.0421535
0.0421549
0.0421556
0.0421572
0.0421582
0.04216
0.0421607
0.042162
0.0421621
0.0421626
0.0421629
0.042164
0.0421651
0.0421668
0.0421673
0.0421651
0.0421577
0.0421444
0.0421205
0.042088
0.0420454
0.0420001
0.0419599
0.0419228
0.0418912
0.0419029
0.0419287
0.041968
0.0420076
0.0420386
0.0420624
0.0420618
0.0420805
0.042088
0.0420893
0.0420905
0.0420895
0.0420876
0.0420856
0.0420832
0.0420804
0.0420772
0.0420733
0.0420692
0.0420648
0.0420604
0.0420562
0.0420523
0.0420486
0.0420452
0.0420418
0.0420384
0.0420351
0.0420317
0.0420277
0.0420235
0.0420186
0.0420134
0.0420082
0.0420028
0.0419973
0.0419913
0.041985
0.0419783
0.0419715
0.0419649
0.0419588
0.0419533
0.0419484
0.0419441
0.0419403
0.0419369
0.0419338
0.0419313
0.0419297
0.0419291
0.041929
0.0419296
0.0419306
0.0419314
0.0419326
0.0419338
0.0419348
0.0419354
0.0419354
0.0419349
0.0419338
0.0419324
0.041931
0.0419295
0.0419283
0.0419284
0.0419308
0.0419368
0.0419455
0.0419555
0.0419681
0.0419839
0.0420011
0.0420168
0.0420331
0.0420495
0.0420645
0.0420821
0.0420931
0.0421027
0.0420983
0.0420551
0.0419292
0.0415788
0.042116
0.0421199
0.0421236
0.0421294
0.0421337
0.0421385
0.0421415
0.0421445
0.042147
0.0421492
0.0421512
0.0421523
0.0421536
0.0421543
0.0421558
0.0421568
0.0421585
0.0421593
0.0421606
0.0421608
0.0421613
0.0421617
0.0421629
0.0421641
0.0421657
0.0421664
0.0421642
0.0421567
0.0421433
0.0421191
0.0420863
0.0420431
0.0419942
0.0419562
0.0419189
0.0418904
0.0419021
0.0419284
0.041968
0.0420075
0.0420383
0.0420621
0.0420624
0.0420792
0.0420863
0.0420876
0.0420885
0.0420874
0.0420855
0.0420835
0.0420812
0.0420784
0.0420752
0.0420714
0.0420674
0.0420632
0.0420591
0.0420551
0.0420513
0.0420478
0.0420445
0.0420413
0.0420381
0.042035
0.0420316
0.0420278
0.0420239
0.0420195
0.0420148
0.04201
0.0420053
0.0420002
0.0419949
0.0419893
0.0419833
0.0419772
0.0419712
0.0419657
0.0419608
0.0419566
0.0419531
0.0419501
0.0419477
0.0419457
0.0419446
0.0419444
0.0419452
0.0419467
0.041949
0.0419514
0.0419536
0.041956
0.0419583
0.0419603
0.0419616
0.0419622
0.0419623
0.041962
0.0419616
0.0419617
0.0419622
0.0419631
0.0419653
0.0419698
0.0419776
0.0419873
0.041998
0.0420105
0.0420255
0.0420413
0.0420556
0.0420693
0.0420826
0.0420948
0.0421083
0.0421156
0.0421193
0.0421073
0.0420536
0.0419167
0.0415622
0.0421159
0.0421196
0.0421231
0.0421288
0.042133
0.0421377
0.0421406
0.0421436
0.042146
0.0421481
0.04215
0.042151
0.0421522
0.0421529
0.0421544
0.0421553
0.042157
0.0421578
0.0421592
0.0421594
0.04216
0.0421605
0.0421617
0.042163
0.0421647
0.0421655
0.0421633
0.0421557
0.0421421
0.0421176
0.0420844
0.0420409
0.0419882
0.0419524
0.0419152
0.0418899
0.0419017
0.0419288
0.0419682
0.0420073
0.0420382
0.0420619
0.0420627
0.0420777
0.0420846
0.0420858
0.0420864
0.0420853
0.0420833
0.0420814
0.0420791
0.0420764
0.0420732
0.0420695
0.0420657
0.0420617
0.0420577
0.042054
0.0420505
0.0420471
0.042044
0.042041
0.042038
0.042035
0.0420316
0.042028
0.0420245
0.0420205
0.0420163
0.0420118
0.0420075
0.042003
0.0419982
0.0419933
0.041988
0.0419825
0.0419771
0.0419721
0.0419678
0.0419642
0.0419613
0.0419591
0.0419575
0.0419566
0.0419566
0.0419577
0.0419599
0.0419629
0.0419667
0.0419706
0.0419743
0.0419781
0.0419817
0.0419848
0.0419871
0.0419886
0.0419895
0.0419903
0.0419913
0.0419932
0.0419956
0.0419988
0.0420032
0.0420099
0.0420196
0.0420305
0.0420417
0.0420542
0.0420683
0.0420826
0.0420954
0.042107
0.0421172
0.0421262
0.0421357
0.0421391
0.0421363
0.0421162
0.0420527
0.0419049
0.0415472
0.0421159
0.0421193
0.0421226
0.0421282
0.0421322
0.0421369
0.0421397
0.0421426
0.0421449
0.042147
0.0421488
0.0421497
0.0421508
0.0421514
0.0421528
0.0421537
0.0421555
0.0421563
0.0421576
0.042158
0.0421587
0.0421592
0.0421604
0.0421618
0.0421636
0.0421645
0.0421623
0.0421547
0.0421408
0.0421159
0.042082
0.0420377
0.0419839
0.0419484
0.0419117
0.0418897
0.0419019
0.0419295
0.0419686
0.0420072
0.0420385
0.0420621
0.0420625
0.0420763
0.0420827
0.0420839
0.0420842
0.042083
0.0420811
0.0420792
0.042077
0.0420743
0.0420712
0.0420676
0.0420639
0.0420601
0.0420564
0.0420529
0.0420497
0.0420466
0.0420437
0.0420409
0.042038
0.042035
0.0420316
0.0420284
0.0420251
0.0420215
0.0420178
0.0420139
0.04201
0.042006
0.0420016
0.0419971
0.0419922
0.0419873
0.0419825
0.0419781
0.0419743
0.0419713
0.041969
0.0419674
0.0419665
0.0419664
0.0419674
0.0419696
0.041973
0.0419775
0.0419826
0.041988
0.0419932
0.0419984
0.0420033
0.0420077
0.0420113
0.0420139
0.042016
0.0420181
0.0420207
0.0420245
0.0420292
0.0420346
0.0420414
0.0420505
0.0420619
0.0420741
0.0420859
0.0420982
0.0421115
0.0421244
0.0421354
0.0421447
0.0421517
0.0421584
0.042164
0.0421633
0.0421536
0.042125
0.0420524
0.0418939
0.0415334
0.0421159
0.042119
0.0421222
0.0421276
0.0421315
0.0421361
0.0421388
0.0421416
0.0421438
0.0421458
0.0421475
0.0421483
0.0421494
0.0421498
0.0421512
0.042152
0.0421538
0.0421546
0.0421561
0.0421565
0.0421572
0.0421577
0.042159
0.0421605
0.0421624
0.0421634
0.0421613
0.0421535
0.0421393
0.0421139
0.0420795
0.0420343
0.04198
0.0419446
0.0419086
0.0418898
0.0419024
0.0419306
0.0419692
0.0420073
0.0420393
0.0420609
0.0420625
0.0420748
0.0420808
0.0420819
0.042082
0.0420807
0.0420788
0.042077
0.0420748
0.0420722
0.0420692
0.0420658
0.0420622
0.0420587
0.0420552
0.042052
0.042049
0.0420462
0.0420435
0.0420408
0.0420381
0.0420351
0.0420319
0.0420289
0.0420259
0.0420227
0.0420194
0.0420161
0.0420126
0.0420089
0.0420051
0.0420008
0.0419964
0.0419919
0.0419875
0.0419837
0.0419804
0.0419778
0.041976
0.041975
0.0419747
0.0419753
0.0419771
0.0419802
0.0419846
0.0419902
0.0419966
0.0420033
0.0420099
0.0420166
0.042023
0.0420287
0.0420337
0.0420376
0.0420411
0.0420448
0.0420493
0.0420551
0.042062
0.0420697
0.0420789
0.0420901
0.0421034
0.0421169
0.0421294
0.0421416
0.042154
0.0421655
0.0421751
0.0421825
0.0421868
0.0421907
0.0421924
0.0421872
0.0421704
0.0421337
0.0420521
0.0418839
0.0415213
0.0421159
0.0421188
0.0421218
0.042127
0.0421308
0.0421353
0.0421379
0.0421406
0.0421427
0.0421446
0.0421462
0.0421469
0.0421478
0.0421482
0.0421495
0.0421503
0.0421521
0.0421529
0.0421544
0.0421548
0.0421557
0.0421562
0.0421576
0.0421592
0.0421612
0.0421624
0.0421602
0.0421522
0.0421376
0.0421117
0.0420767
0.0420306
0.0419766
0.0419412
0.0419061
0.0418901
0.0419034
0.0419322
0.0419702
0.0420078
0.0420401
0.0420592
0.0420627
0.0420734
0.0420788
0.0420797
0.0420795
0.0420783
0.0420764
0.0420747
0.0420726
0.0420701
0.0420672
0.042064
0.0420606
0.0420573
0.0420541
0.0420512
0.0420484
0.0420459
0.0420434
0.0420409
0.0420383
0.0420354
0.0420324
0.0420296
0.0420267
0.0420239
0.042021
0.0420182
0.0420152
0.0420121
0.0420089
0.0420046
0.0420003
0.0419961
0.0419922
0.0419887
0.0419859
0.0419838
0.0419825
0.041982
0.0419822
0.0419833
0.0419858
0.0419897
0.0419949
0.0420014
0.0420088
0.0420166
0.0420245
0.0420324
0.0420401
0.0420472
0.0420537
0.0420591
0.0420642
0.0420697
0.0420761
0.042084
0.0420931
0.042103
0.0421145
0.0421279
0.0421428
0.0421574
0.0421705
0.0421827
0.0421945
0.042205
0.042213
0.0422181
0.0422202
0.0422219
0.0422199
0.0422101
0.0421869
0.0421416
0.0420509
0.041874
0.0415111
0.042116
0.0421186
0.0421215
0.0421264
0.0421302
0.0421345
0.0421371
0.0421396
0.0421416
0.0421434
0.0421449
0.0421454
0.0421463
0.0421465
0.0421478
0.0421485
0.0421503
0.0421511
0.0421526
0.0421531
0.042154
0.0421546
0.042156
0.0421578
0.04216
0.0421612
0.042159
0.0421508
0.0421357
0.0421093
0.0420735
0.0420266
0.0419739
0.0419383
0.0419043
0.0418912
0.0419051
0.0419343
0.0419716
0.0420084
0.0420405
0.0420581
0.0420628
0.0420718
0.0420766
0.0420774
0.0420771
0.0420758
0.0420741
0.0420724
0.0420704
0.042068
0.0420652
0.0420622
0.0420591
0.0420561
0.0420532
0.0420505
0.042048
0.0420457
0.0420435
0.0420412
0.0420387
0.0420359
0.0420331
0.0420306
0.0420279
0.0420253
0.0420228
0.0420205
0.042018
0.0420153
0.0420121
0.0420085
0.0420045
0.0420005
0.0419967
0.0419935
0.0419911
0.0419893
0.0419884
0.0419884
0.0419891
0.0419908
0.0419938
0.0419982
0.0420041
0.0420112
0.0420193
0.042028
0.0420369
0.0420461
0.0420549
0.0420632
0.0420711
0.0420781
0.0420849
0.0420921
0.0421005
0.0421104
0.0421215
0.0421335
0.042147
0.0421623
0.0421787
0.0421945
0.0422084
0.0422206
0.0422317
0.0422413
0.0422485
0.0422522
0.0422525
0.0422512
0.042245
0.0422311
0.0422008
0.0421478
0.0420484
0.041863
0.0415008
0.0421161
0.0421185
0.0421212
0.0421259
0.0421295
0.0421338
0.0421362
0.0421387
0.0421405
0.0421421
0.0421435
0.0421439
0.0421446
0.0421448
0.042146
0.0421467
0.0421485
0.0421493
0.0421508
0.0421513
0.0421523
0.0421529
0.0421544
0.0421564
0.0421587
0.04216
0.0421578
0.0421492
0.0421337
0.0421067
0.0420701
0.0420225
0.0419716
0.0419358
0.0419034
0.0418929
0.0419074
0.041937
0.0419736
0.0420097
0.0420407
0.0420569
0.0420625
0.04207
0.0420743
0.042075
0.0420745
0.0420733
0.0420717
0.0420701
0.0420682
0.0420659
0.0420634
0.0420606
0.0420578
0.042055
0.0420524
0.0420499
0.0420476
0.0420456
0.0420436
0.0420415
0.0420392
0.0420367
0.0420342
0.0420318
0.0420293
0.0420271
0.042025
0.042023
0.0420208
0.0420184
0.0420157
0.0420127
0.0420092
0.0420053
0.0420016
0.0419984
0.0419959
0.0419945
0.041994
0.0419942
0.0419953
0.0419975
0.0420009
0.0420058
0.0420121
0.0420198
0.0420284
0.0420377
0.0420474
0.0420574
0.0420671
0.0420767
0.0420859
0.0420943
0.0421027
0.0421117
0.0421219