/*--------------------------------*- C++ -*----------------------------------*\
| =========                 |                                                 |
| \\      /  F ield         | OpenFOAM: The Open Source CFD Toolbox           |
|  \\    /   O peration     | Version:  2412                                  |
|   \\  /    A nd           | Website:  www.openfoam.com                      |
|    \\/     M anipulation  |                                                 |
\*---------------------------------------------------------------------------*/
FoamFile
{
    version     2.0;
    format      ascii;
    arch        "LSB;label=32;scalar=64";
    class       volVectorField;
    location    "0.108";
    object      U;
}
// * * * * * * * * * * * * * * * * * * * * * * * * * * * * * * * * * * * * * //

dimensions      [0 1 -1 0 0 0 0];

internalField   nonuniform List<vector> 
9922
(
(180.51 114.832 0)
(167.369 16.6166 0)
(175.194 4.95801 0)
(183.355 3.56679 0)
(189.519 -1.72766 0)
(195.917 -3.4891 0)
(200.562 -4.95616 0)
(203.952 -5.70468 0)
(206.102 -6.84269 0)
(207.484 -7.69245 0)
(207.979 -8.71311 0)
(208.656 -9.50348 0)
(209.196 -10.2755 0)
(209.751 -10.9674 0)
(210.334 -11.5927 0)
(210.961 -12.1463 0)
(211.619 -12.6359 0)
(212.305 -13.0633 0)
(213.015 -13.4348 0)
(213.747 -13.7596 0)
(214.5 -14.0475 0)
(215.277 -14.3094 0)
(216.079 -14.5537 0)
(216.908 -14.7871 0)
(217.765 -15.0141 0)
(218.653 -15.2386 0)
(219.575 -15.4631 0)
(220.534 -15.6907 0)
(221.537 -15.9251 0)
(222.589 -16.17 0)
(223.694 -16.4288 0)
(224.857 -16.704 0)
(226.082 -16.9992 0)
(227.374 -17.3174 0)
(228.737 -17.6617 0)
(230.174 -18.0345 0)
(231.69 -18.439 0)
(233.289 -18.8788 0)
(234.975 -19.3576 0)
(236.752 -19.879 0)
(238.626 -20.4466 0)
(240.603 -21.0643 0)
(242.69 -21.7375 0)
(244.894 -22.4721 0)
(247.222 -23.2741 0)
(249.684 -24.1485 0)
(252.289 -25.0997 0)
(255.052 -26.1318 0)
(257.991 -27.2493 0)
(261.135 -28.4551 0)
(264.523 -29.7523 0)
(268.218 -31.1392 0)
(272.364 -32.5937 0)
(277.22 -34.0589 0)
(283.104 -35.3743 0)
(290.281 -36.3775 0)
(297.916 -36.9259 0)
(305.092 -37.181 0)
(311.394 -37.4081 0)
(316.8 -37.7528 0)
(321.462 -38.229 0)
(325.596 -38.795 0)
(329.264 -39.429 0)
(332.497 -40.0666 0)
(335.496 -40.6828 0)
(338.2 -41.2697 0)
(340.601 -41.7992 0)
(342.843 -42.2861 0)
(344.939 -42.74 0)
(346.857 -43.1614 0)
(348.614 -43.5541 0)
(350.243 -43.8828 0)
(351.757 -44.227 0)
(353.148 -44.447 0)
(354.438 -44.7309 0)
(355.655 -44.8613 0)
(356.802 -45.1163 0)
(357.889 -45.2063 0)
(358.903 -45.4506 0)
(359.884 -45.5249 0)
(360.811 -45.7524 0)
(361.709 -45.8136 0)
(362.55 -46.022 0)
(363.37 -46.0696 0)
(364.146 -46.2448 0)
(364.909 -46.2699 0)
(365.624 -46.4163 0)
(366.329 -46.4397 0)
(366.991 -46.5769 0)
(367.638 -46.6054 0)
(368.234 -46.7289 0)
(368.807 -46.7473 0)
(369.359 -46.8546 0)
(369.904 -46.8859 0)
(370.415 -46.9922 0)
(370.908 -47.0203 0)
(371.368 -47.1077 0)
(371.814 -47.1367 0)
(372.231 -47.2199 0)
(372.634 -47.251 0)
(373.013 -47.3191 0)
(373.381 -47.3455 0)
(373.733 -47.4067 0)
(374.083 -47.4394 0)
(374.428 -47.4968 0)
(374.77 -47.5348 0)
(375.095 -47.5865 0)
(375.392 -47.6256 0)
(375.644 -47.6654 0)
(375.839 -47.696 0)
(375.964 -47.714 0)
(376.008 -47.7304 0)
(375.986 -47.7231 0)
(375.94 -47.7362 0)
(375.949 -47.7434 0)
(376.094 -47.7635 0)
(376.422 -47.8108 0)
(376.924 -47.8718 0)
(377.512 -47.9655 0)
(378.115 -48.0784 0)
(378.453 -47.8405 0)
(180.256 114.926 0)
(167.384 16.4864 0)
(175.318 4.91389 0)
(183.478 3.54094 0)
(189.624 -1.78178 0)
(195.974 -3.51451 0)
(200.601 -4.94565 0)
(203.99 -5.69262 0)
(206.136 -6.83338 0)
(207.513 -7.67994 0)
(208.005 -8.69698 0)
(208.676 -9.48603 0)
(209.213 -10.2557 0)
(209.766 -10.9459 0)
(210.348 -11.5694 0)
(210.975 -12.1215 0)
(211.634 -12.6093 0)
(212.322 -13.0352 0)
(213.034 -13.4051 0)
(213.768 -13.728 0)
(214.524 -14.0139 0)
(215.303 -14.2736 0)
(216.107 -14.5154 0)
(216.938 -14.7461 0)
(217.797 -14.97 0)
(218.687 -15.1911 0)
(219.611 -15.4118 0)
(220.573 -15.6349 0)
(221.579 -15.8642 0)
(222.633 -16.1035 0)
(223.741 -16.356 0)
(224.908 -16.6241 0)
(226.138 -16.9115 0)
(227.436 -17.221 0)
(228.805 -17.5557 0)
(230.251 -17.918 0)
(231.777 -18.3112 0)
(233.388 -18.7385 0)
(235.088 -19.2038 0)
(236.883 -19.7103 0)
(238.778 -20.2617 0)
(240.78 -20.8615 0)
(242.896 -21.515 0)
(245.135 -22.2278 0)
(247.505 -23.006 0)
(250.018 -23.8542 0)
(252.687 -24.7767 0)
(255.529 -25.7772 0)
(258.567 -26.8589 0)
(261.836 -28.0235 0)
(265.383 -29.272 0)
(269.297 -30.5951 0)
(273.749 -31.9522 0)
(278.952 -33.264 0)
(285.052 -34.3581 0)
(292.164 -35.1593 0)
(299.331 -35.6112 0)
(305.961 -35.8773 0)
(311.836 -36.1729 0)
(316.976 -36.5908 0)
(321.513 -37.1243 0)
(325.511 -37.7396 0)
(329.142 -38.4101 0)
(332.486 -39.1227 0)
(335.45 -39.8009 0)
(338.143 -40.4316 0)
(340.643 -41.0285 0)
(342.9 -41.5712 0)
(344.951 -42.0581 0)
(346.858 -42.5125 0)
(348.621 -42.9256 0)
(350.227 -43.2535 0)
(351.688 -43.5729 0)
(353.048 -43.7842 0)
(354.342 -44.0706 0)
(355.583 -44.209 0)
(356.76 -44.4731 0)
(357.881 -44.5792 0)
(358.94 -44.8282 0)
(359.961 -44.9047 0)
(360.924 -45.1339 0)
(361.854 -45.2046 0)
(362.726 -45.419 0)
(363.569 -45.4698 0)
(364.357 -45.6438 0)
(365.118 -45.6737 0)
(365.82 -45.8221 0)
(366.497 -45.8486 0)
(367.128 -45.9806 0)
(367.752 -46.0059 0)
(368.361 -46.1218 0)
(368.994 -46.1556 0)
(369.579 -46.2674 0)
(370.12 -46.3016 0)
(370.623 -46.3958 0)
(371.114 -46.4257 0)
(371.576 -46.504 0)
(372.025 -46.5363 0)
(372.449 -46.6075 0)
(372.858 -46.6392 0)
(373.243 -46.697 0)
(373.614 -46.7288 0)
(373.969 -46.783 0)
(374.32 -46.8195 0)
(374.665 -46.8688 0)
(375.007 -46.9074 0)
(375.333 -46.9509 0)
(375.63 -46.9887 0)
(375.883 -47.0208 0)
(376.079 -47.0481 0)
(376.206 -47.0569 0)
(376.251 -47.0695 0)
(376.227 -47.052 0)
(376.175 -47.064 0)
(376.179 -47.0585 0)
(376.314 -47.0789 0)
(376.629 -47.1163 0)
(377.119 -47.1721 0)
(377.704 -47.2513 0)
(378.307 -47.3569 0)
(378.645 -47.1157 0)
(179.995 115.019 0)
(167.393 16.353 0)
(175.445 4.86484 0)
(183.604 3.50674 0)
(189.732 -1.84118 0)
(196.032 -3.5394 0)
(200.642 -4.93546 0)
(204.03 -5.68129 0)
(206.172 -6.82539 0)
(207.544 -7.66877 0)
(208.033 -8.68225 0)
(208.699 -9.46996 0)
(209.232 -10.2374 0)
(209.783 -10.9256 0)
(210.364 -11.5472 0)
(210.991 -12.0975 0)
(211.652 -12.5837 0)
(212.342 -13.008 0)
(213.056 -13.3761 0)
(213.793 -13.6973 0)
(214.551 -13.9811 0)
(215.333 -14.2386 0)
(216.139 -14.4779 0)
(216.972 -14.7059 0)
(217.834 -14.9268 0)
(218.726 -15.1445 0)
(219.652 -15.3614 0)
(220.617 -15.5802 0)
(221.625 -15.8046 0)
(222.683 -16.0383 0)
(223.795 -16.2846 0)
(224.966 -16.5459 0)
(226.202 -16.8255 0)
(227.505 -17.1265 0)
(228.882 -17.4518 0)
(230.337 -17.8039 0)
(231.874 -18.1859 0)
(233.498 -18.6011 0)
(235.214 -19.0531 0)
(237.028 -19.5452 0)
(238.945 -20.0806 0)
(240.973 -20.6629 0)
(243.12 -21.297 0)
(245.396 -21.9884 0)
(247.811 -22.7428 0)
(250.378 -23.5648 0)
(253.112 -24.4582 0)
(256.035 -25.4259 0)
(259.175 -26.4699 0)
(262.57 -27.5903 0)
(266.28 -28.7843 0)
(270.41 -30.032 0)
(275.132 -31.2754 0)
(280.571 -32.4273 0)
(286.785 -33.3296 0)
(293.639 -33.9554 0)
(300.356 -34.3435 0)
(306.552 -34.6353 0)
(312.08 -34.9825 0)
(317.023 -35.4538 0)
(321.424 -36.0388 0)
(325.443 -36.7359 0)
(329.066 -37.4876 0)
(332.317 -38.2236 0)
(335.329 -38.9683 0)
(338.054 -39.6529 0)
(340.497 -40.2523 0)
(342.747 -40.8095 0)
(344.824 -41.3177 0)
(346.721 -41.7737 0)
(348.471 -42.1871 0)
(350.113 -42.5358 0)
(351.65 -42.8774 0)
(353.087 -43.0989 0)
(354.436 -43.3952 0)
(355.71 -43.5611 0)
(356.913 -43.8655 0)
(358.052 -44.0095 0)
(359.12 -44.2832 0)
(360.133 -44.3684 0)
(361.076 -44.594 0)
(361.98 -44.6522 0)
(362.833 -44.8486 0)
(363.665 -44.8835 0)
(364.45 -45.0453 0)
(365.215 -45.0748 0)
(365.932 -45.2253 0)
(366.633 -45.2597 0)
(367.296 -45.3919 0)
(367.942 -45.4244 0)
(368.529 -45.544 0)
(369.057 -45.5741 0)
(369.551 -45.6679 0)
(370.063 -45.6887 0)
(370.56 -45.7683 0)
(371.047 -45.7972 0)
(371.509 -45.8706 0)
(371.956 -45.9025 0)
(372.382 -45.9619 0)
(372.792 -45.9865 0)
(373.18 -46.0344 0)
(373.552 -46.0631 0)
(373.908 -46.1113 0)
(374.259 -46.145 0)
(374.604 -46.1908 0)
(374.945 -46.2268 0)
(375.271 -46.2676 0)
(375.57 -46.3018 0)
(375.826 -46.3302 0)
(376.028 -46.351 0)
(376.165 -46.353 0)
(376.223 -46.359 0)
(376.217 -46.3364 0)
(376.185 -46.3483 0)
(376.211 -46.3377 0)
(376.366 -46.3607 0)
(376.703 -46.3998 0)
(377.215 -46.4612 0)
(377.812 -46.5356 0)
(378.412 -46.6336 0)
(378.747 -46.3976 0)
(179.729 115.111 0)
(167.394 16.2171 0)
(175.574 4.81002 0)
(183.733 3.46211 0)
(189.842 -1.90606 0)
(196.091 -3.56345 0)
(200.683 -4.92568 0)
(204.07 -5.66984 0)
(206.208 -6.81666 0)
(207.574 -7.65627 0)
(208.061 -8.6658 0)
(208.72 -9.45212 0)
(209.25 -10.2172 0)
(209.798 -10.9034 0)
(210.379 -11.5232 0)
(211.005 -12.0717 0)
(211.667 -12.5562 0)
(212.359 -12.9789 0)
(213.076 -13.3453 0)
(213.815 -13.6646 0)
(214.576 -13.9464 0)
(215.359 -14.2016 0)
(216.168 -14.4384 0)
(217.003 -14.6636 0)
(217.866 -14.8815 0)
(218.76 -15.0958 0)
(219.688 -15.3087 0)
(220.655 -15.523 0)
(221.666 -15.7423 0)
(222.726 -15.9703 0)
(223.841 -16.2102 0)
(225.017 -16.4642 0)
(226.256 -16.7359 0)
(227.565 -17.0279 0)
(228.948 -17.3434 0)
(230.411 -17.6847 0)
(231.957 -18.0547 0)
(233.593 -18.4569 0)
(235.323 -18.8947 0)
(237.153 -19.3712 0)
(239.09 -19.8895 0)
(241.142 -20.4529 0)
(243.317 -21.0659 0)
(245.627 -21.7338 0)
(248.083 -22.4621 0)
(250.699 -23.2549 0)
(253.495 -24.1156 0)
(256.494 -25.046 0)
(259.727 -26.0467 0)
(263.238 -27.1156 0)
(267.096 -28.2447 0)
(271.416 -29.4023 0)
(276.343 -30.5226 0)
(281.921 -31.5218 0)
(288.164 -32.2694 0)
(294.719 -32.7719 0)
(301.073 -33.1202 0)
(306.926 -33.4392 0)
(312.233 -33.8368 0)
(316.981 -34.3616 0)
(321.287 -35.01 0)
(325.163 -35.7215 0)
(328.72 -36.481 0)
(332.02 -37.2691 0)
(334.997 -38.0216 0)
(337.733 -38.7322 0)
(340.264 -39.388 0)
(342.557 -39.9782 0)
(344.651 -40.5062 0)
(346.609 -40.9849 0)
(348.444 -41.4226 0)
(350.152 -41.8034 0)
(351.737 -42.1988 0)
(353.198 -42.4881 0)
(354.557 -42.8448 0)
(355.813 -43.0322 0)
(356.977 -43.3209 0)
(358.068 -43.423 0)
(359.089 -43.6624 0)
(360.07 -43.7315 0)
(361 -43.9636 0)
(361.907 -44.0327 0)
(362.77 -44.2358 0)
(363.61 -44.2778 0)
(364.398 -44.4488 0)
(365.159 -44.4896 0)
(365.873 -44.6455 0)
(366.573 -44.676 0)
(367.243 -44.7913 0)
(367.909 -44.8016 0)
(368.543 -44.8904 0)
(369.168 -44.913 0)
(369.738 -45.0277 0)
(370.274 -45.0658 0)
(370.773 -45.1496 0)
(371.256 -45.1766 0)
(371.71 -45.2481 0)
(372.152 -45.2723 0)
(372.571 -45.3279 0)
(372.978 -45.3462 0)
(373.36 -45.3945 0)
(373.73 -45.4166 0)
(374.081 -45.4647 0)
(374.428 -45.4917 0)
(374.765 -45.5401 0)
(375.097 -45.5701 0)
(375.412 -45.6128 0)
(375.698 -45.64 0)
(375.94 -45.6692 0)
(376.128 -45.6836 0)
(376.245 -45.6877 0)
(376.282 -45.6885 0)
(376.253 -45.6698 0)
(376.2 -45.6762 0)
(376.209 -45.6671 0)
(376.354 -45.6839 0)
(376.681 -45.7154 0)
(377.178 -45.7771 0)
(377.77 -45.8442 0)
(378.374 -45.9313 0)
(378.707 -45.6877 0)
(179.456 115.201 0)
(167.388 16.078 0)
(175.707 4.74882 0)
(183.866 3.40565 0)
(189.954 -1.97646 0)
(196.151 -3.58642 0)
(200.725 -4.91644 0)
(204.112 -5.65925 0)
(206.245 -6.80927 0)
(207.606 -7.64511 0)
(208.09 -8.65076 0)
(208.743 -9.43569 0)
(209.27 -10.1984 0)
(209.816 -10.8825 0)
(210.395 -11.5002 0)
(211.022 -12.0469 0)
(211.685 -12.5296 0)
(212.379 -12.9505 0)
(213.098 -13.3152 0)
(213.84 -13.6326 0)
(214.603 -13.9125 0)
(215.389 -14.1654 0)
(216.2 -14.3997 0)
(217.037 -14.6221 0)
(217.902 -14.837 0)
(218.798 -15.0479 0)
(219.729 -15.257 0)
(220.698 -15.4668 0)
(221.711 -15.6811 0)
(222.775 -15.9034 0)
(223.894 -16.137 0)
(225.074 -16.384 0)
(226.318 -16.6478 0)
(227.633 -16.9312 0)
(229.024 -17.237 0)
(230.494 -17.5676 0)
(232.051 -17.926 0)
(233.699 -18.3154 0)
(235.443 -18.7392 0)
(237.291 -19.2004 0)
(239.25 -19.7018 0)
(241.327 -20.2466 0)
(243.532 -20.8388 0)
(245.877 -21.4834 0)
(248.376 -22.1855 0)
(251.044 -22.949 0)
(253.902 -23.7763 0)
(256.977 -24.6681 0)
(260.303 -25.6236 0)
(263.928 -26.6377 0)
(267.929 -27.6951 0)
(272.42 -28.7545 0)
(277.494 -29.7485 0)
(283.129 -30.5986 0)
(289.294 -31.211 0)
(295.565 -31.6241 0)
(301.562 -31.9475 0)
(307.113 -32.2859 0)
(312.172 -32.7175 0)
(316.765 -33.2758 0)
(320.938 -33.9298 0)
(324.825 -34.6617 0)
(328.419 -35.4495 0)
(331.704 -36.2534 0)
(334.767 -37.0505 0)
(337.569 -37.8083 0)
(340.112 -38.5007 0)
(342.461 -39.1361 0)
(344.633 -39.7226 0)
(346.624 -40.2624 0)
(348.46 -40.7586 0)
(350.161 -41.1879 0)
(351.736 -41.6044 0)
(353.17 -41.8832 0)
(354.487 -42.2158 0)
(355.707 -42.3796 0)
(356.876 -42.6724 0)
(358.004 -42.7726 0)
(359.081 -43.0202 0)
(360.116 -43.0974 0)
(361.099 -43.3365 0)
(362.047 -43.4097 0)
(362.941 -43.6256 0)
(363.799 -43.6805 0)
(364.593 -43.8629 0)
(365.354 -43.9017 0)
(366.065 -44.0533 0)
(366.756 -44.0749 0)
(367.402 -44.1923 0)
(368.028 -44.2092 0)
(368.615 -44.3208 0)
(369.206 -44.3409 0)
(369.782 -44.4305 0)
(370.338 -44.4465 0)
(370.848 -44.5293 0)
(371.341 -44.5499 0)
(371.805 -44.626 0)
(372.258 -44.6424 0)
(372.685 -44.7017 0)
(373.101 -44.7123 0)
(373.489 -44.7654 0)
(373.866 -44.7787 0)
(374.223 -44.8311 0)
(374.575 -44.8501 0)
(374.916 -44.9041 0)
(375.254 -44.9259 0)
(375.574 -44.9711 0)
(375.869 -44.9876 0)
(376.119 -45.0169 0)
(376.315 -45.0223 0)
(376.44 -45.0301 0)
(376.486 -45.0257 0)
(376.464 -45.0101 0)
(376.419 -45.0166 0)
(376.433 -45.0078 0)
(376.58 -45.0238 0)
(376.915 -45.051 0)
(377.42 -45.1138 0)
(378.018 -45.1818 0)
(378.625 -45.2668 0)
(378.958 -45.0224 0)
(179.177 115.289 0)
(167.373 15.9357 0)
(175.842 4.67942 0)
(184 3.3346 0)
(190.068 -2.05199 0)
(196.212 -3.6081 0)
(200.767 -4.90765 0)
(204.154 -5.6487 0)
(206.283 -6.80113 0)
(207.637 -7.63261 0)
(208.118 -8.63398 0)
(208.765 -9.41747 0)
(209.289 -10.1777 0)
(209.832 -10.8596 0)
(210.409 -11.4753 0)
(211.036 -12.0202 0)
(211.7 -12.501 0)
(212.396 -12.9202 0)
(213.118 -13.2832 0)
(213.861 -13.5987 0)
(214.627 -13.8765 0)
(215.415 -14.1271 0)
(216.228 -14.3589 0)
(217.067 -14.5786 0)
(217.934 -14.7903 0)
(218.832 -14.9978 0)
(219.765 -15.2029 0)
(220.736 -15.4082 0)
(221.751 -15.6172 0)
(222.817 -15.8338 0)
(223.94 -16.0608 0)
(225.123 -16.3005 0)
(226.372 -16.5561 0)
(227.691 -16.8304 0)
(229.087 -17.126 0)
(230.565 -17.4454 0)
(232.13 -17.7915 0)
(233.788 -18.1674 0)
(235.546 -18.5763 0)
(237.409 -19.0211 0)
(239.386 -19.5044 0)
(241.485 -20.0291 0)
(243.717 -20.5988 0)
(246.094 -21.2182 0)
(248.631 -21.8919 0)
(251.346 -22.6231 0)
(254.26 -23.4135 0)
(257.403 -24.2627 0)
(260.811 -25.1679 0)
(264.537 -26.12 0)
(268.66 -27.0975 0)
(273.276 -28.0538 0)
(278.426 -28.9268 0)
(284.054 -29.6442 0)
(290.082 -30.1475 0)
(296.086 -30.4998 0)
(301.824 -30.814 0)
(307.15 -31.1694 0)
(312.026 -31.6157 0)
(316.52 -32.1797 0)
(320.71 -32.8533 0)
(324.574 -33.6123 0)
(328.166 -34.4349 0)
(331.521 -35.3053 0)
(334.587 -36.1572 0)
(337.406 -36.9671 0)
(340.009 -37.7288 0)
(342.378 -38.4195 0)
(344.535 -39.036 0)
(346.519 -39.589 0)
(348.345 -40.0769 0)
(350.027 -40.4881 0)
(351.584 -40.8888 0)
(353.043 -41.172 0)
(354.427 -41.5249 0)
(355.729 -41.6941 0)
(356.967 -42.0023 0)
(358.138 -42.1351 0)
(359.245 -42.4476 0)
(360.285 -42.5648 0)
(361.257 -42.8186 0)
(362.182 -42.8708 0)
(363.047 -43.0692 0)
(363.881 -43.1023 0)
(364.665 -43.2777 0)
(365.431 -43.3048 0)
(366.159 -43.4549 0)
(366.88 -43.4716 0)
(367.558 -43.5973 0)
(368.216 -43.6181 0)
(368.814 -43.7395 0)
(369.363 -43.7508 0)
(369.866 -43.838 0)
(370.379 -43.8401 0)
(370.869 -43.9265 0)
(371.349 -43.9409 0)
(371.803 -44.0223 0)
(372.249 -44.0289 0)
(372.669 -44.0915 0)
(373.081 -44.0921 0)
(373.465 -44.1471 0)
(373.84 -44.1483 0)
(374.191 -44.2028 0)
(374.54 -44.2128 0)
(374.875 -44.2705 0)
(375.21 -44.2846 0)
(375.526 -44.3311 0)
(375.819 -44.3373 0)
(376.063 -44.3657 0)
(376.256 -44.3633 0)
(376.374 -44.375 0)
(376.414 -44.3632 0)
(376.384 -44.3501 0)
(376.332 -44.3449 0)
(376.341 -44.3381 0)
(376.488 -44.3467 0)
(376.826 -44.3666 0)
(377.333 -44.4207 0)
(377.933 -44.4789 0)
(378.541 -44.561 0)
(378.874 -44.3151 0)
(178.892 115.375 0)
(167.35 15.7901 0)
(175.981 4.60113 0)
(184.137 3.24777 0)
(190.184 -2.13288 0)
(196.275 -3.62818 0)
(200.811 -4.89955 0)
(204.198 -5.63916 0)
(206.321 -6.79438 0)
(207.67 -7.62146 0)
(208.149 -8.61864 0)
(208.789 -9.40068 0)
(209.309 -10.1585 0)
(209.85 -10.8381 0)
(210.426 -11.4516 0)
(211.053 -11.9944 0)
(211.719 -12.4733 0)
(212.416 -12.8907 0)
(213.14 -13.2519 0)
(213.887 -13.5656 0)
(214.655 -13.8413 0)
(215.445 -14.0896 0)
(216.26 -14.3189 0)
(217.101 -14.5357 0)
(217.97 -14.7445 0)
(218.87 -14.9484 0)
(219.805 -15.1496 0)
(220.778 -15.3504 0)
(221.796 -15.5544 0)
(222.866 -15.7652 0)
(223.991 -15.9857 0)
(225.178 -16.2183 0)
(226.432 -16.4659 0)
(227.758 -16.7312 0)
(229.16 -17.0169 0)
(230.646 -17.3253 0)
(232.22 -17.6593 0)
(233.889 -18.0217 0)
(235.66 -18.416 0)
(237.54 -18.8446 0)
(239.537 -19.31 0)
(241.66 -19.8148 0)
(243.919 -20.3622 0)
(246.33 -20.9564 0)
(248.906 -21.6016 0)
(251.668 -22.3002 0)
(254.639 -23.0532 0)
(257.849 -23.8586 0)
(261.337 -24.7114 0)
(265.16 -25.5983 0)
(269.393 -26.4925 0)
(274.1 -27.346 0)
(279.284 -28.1023 0)
(284.871 -28.6969 0)
(290.713 -29.1049 0)
(296.497 -29.4107 0)
(302 -29.7076 0)
(307.144 -30.0671 0)
(311.919 -30.5357 0)
(316.348 -31.1398 0)
(320.445 -31.8445 0)
(324.286 -32.6478 0)
(327.861 -33.5087 0)
(331.165 -34.3837 0)
(334.255 -35.2685 0)
(337.104 -36.1094 0)
(339.702 -36.8783 0)
(342.086 -37.5832 0)
(344.274 -38.2152 0)
(346.281 -38.7803 0)
(348.138 -39.2799 0)
(349.879 -39.712 0)
(351.518 -40.1311 0)
(353.052 -40.4487 0)
(354.491 -40.8576 0)
(355.816 -41.0977 0)
(357.062 -41.4683 0)
(358.203 -41.6036 0)
(359.254 -41.8854 0)
(360.24 -41.9442 0)
(361.174 -42.1754 0)
(362.09 -42.2253 0)
(362.964 -42.4449 0)
(363.811 -42.4925 0)
(364.609 -42.6845 0)
(365.384 -42.7134 0)
(366.112 -42.8681 0)
(366.826 -42.8772 0)
(367.496 -43.0038 0)
(368.161 -43.0102 0)
(368.801 -43.1183 0)
(369.442 -43.1202 0)
(370.03 -43.226 0)
(370.581 -43.2342 0)
(371.087 -43.3293 0)
(371.58 -43.3381 0)
(372.041 -43.4224 0)
(372.495 -43.4236 0)
(372.917 -43.4925 0)
(373.331 -43.4888 0)
(373.715 -43.5465 0)
(374.092 -43.5414 0)
(374.444 -43.5964 0)
(374.795 -43.5965 0)
(375.133 -43.6482 0)
(375.475 -43.6489 0)
(375.794 -43.6874 0)
(376.093 -43.6831 0)
(376.337 -43.7088 0)
(376.528 -43.7025 0)
(376.639 -43.7153 0)
(376.668 -43.6975 0)
(376.623 -43.6832 0)
(376.553 -43.6712 0)
(376.542 -43.6622 0)
(376.672 -43.6652 0)
(376.997 -43.6811 0)
(377.497 -43.7321 0)
(378.097 -43.7817 0)
(378.708 -43.8609 0)
(379.042 -43.6145 0)
(178.601 115.459 0)
(167.318 15.6407 0)
(176.122 4.5131 0)
(184.275 3.14529 0)
(190.301 -2.21814 0)
(196.338 -3.64661 0)
(200.856 -4.89196 0)
(204.242 -5.62981 0)
(206.361 -6.78689 0)
(207.702 -7.60898 0)
(208.178 -8.60156 0)
(208.811 -9.38208 0)
(209.328 -10.1373 0)
(209.866 -10.8146 0)
(210.441 -11.4258 0)
(211.067 -11.9666 0)
(211.734 -12.4436 0)
(212.434 -12.8592 0)
(213.16 -13.2186 0)
(213.909 -13.5304 0)
(214.679 -13.804 0)
(215.472 -14.0501 0)
(216.288 -14.2768 0)
(217.131 -14.4908 0)
(218.002 -14.6964 0)
(218.904 -14.8968 0)
(219.84 -15.0939 0)
(220.815 -15.2901 0)
(221.836 -15.4889 0)
(222.907 -15.6937 0)
(224.036 -15.9076 0)
(225.226 -16.1327 0)
(226.484 -16.372 0)
(227.814 -16.628 0)
(229.222 -16.9033 0)
(230.713 -17.2002 0)
(232.295 -17.5214 0)
(233.974 -17.8698 0)
(235.756 -18.2485 0)
(237.65 -18.6599 0)
(239.663 -19.1062 0)
(241.806 -19.5897 0)
(244.09 -20.1132 0)
(246.53 -20.6804 0)
(249.141 -21.2948 0)
(251.944 -21.9584 0)
(254.964 -22.6707 0)
(258.231 -23.4288 0)
(261.789 -24.2247 0)
(265.692 -25.0418 0)
(270.001 -25.85 0)
(274.756 -26.6023 0)
(279.936 -27.2493 0)
(285.465 -27.741 0)
(291.147 -28.0746 0)
(296.72 -28.3392 0)
(302.058 -28.6265 0)
(307.041 -29.0052 0)
(311.664 -29.4913 0)
(315.972 -30.0997 0)
(320.016 -30.8185 0)
(323.787 -31.6089 0)
(327.334 -32.4629 0)
(330.677 -33.3584 0)
(333.773 -34.2487 0)
(336.656 -35.1117 0)
(339.334 -35.923 0)
(341.794 -36.6667 0)
(344.05 -37.3351 0)
(346.137 -37.9437 0)
(348.07 -38.4914 0)
(349.862 -38.9877 0)
(351.525 -39.4675 0)
(353.058 -39.8533 0)
(354.483 -40.2793 0)
(355.773 -40.5014 0)
(356.97 -40.8405 0)
(358.086 -40.954 0)
(359.159 -41.2416 0)
(360.2 -41.2973 0)
(361.195 -41.5391 0)
(362.164 -41.599 0)
(363.087 -41.8335 0)
(363.976 -41.8888 0)
(364.8 -42.0943 0)
(365.589 -42.124 0)
(366.32 -42.2847 0)
(367.027 -42.2898 0)
(367.675 -42.4199 0)
(368.302 -42.4223 0)
(368.88 -42.5431 0)
(369.448 -42.5485 0)
(369.987 -42.6514 0)
(370.527 -42.6453 0)
(371.03 -42.7313 0)
(371.529 -42.7244 0)
(371.995 -42.8008 0)
(372.454 -42.7942 0)
(372.881 -42.864 0)
(373.3 -42.8561 0)
(373.687 -42.914 0)
(374.067 -42.9051 0)
(374.42 -42.9596 0)
(374.775 -42.9518 0)
(375.117 -42.9956 0)
(375.466 -42.9851 0)
(375.795 -43.0159 0)
(376.105 -43.0044 0)
(376.361 -43.0292 0)
(376.565 -43.0218 0)
(376.689 -43.0371 0)
(376.733 -43.0173 0)
(376.699 -43.006 0)
(376.639 -42.992 0)
(376.636 -42.9821 0)
(376.773 -42.9812 0)
(377.106 -42.9995 0)
(377.618 -43.0523 0)
(378.226 -43.1022 0)
(378.837 -43.1788 0)
(379.169 -42.9332 0)
(178.304 115.54 0)
(167.277 15.4882 0)
(176.265 4.41531 0)
(184.416 3.02806 0)
(190.42 -2.30724 0)
(196.402 -3.66312 0)
(200.902 -4.88516 0)
(204.288 -5.62162 0)
(206.401 -6.78084 0)
(207.736 -7.59788 0)
(208.209 -8.58594 0)
(208.836 -9.36494 0)
(209.349 -10.1176 0)
(209.884 -10.7924 0)
(210.458 -11.4011 0)
(211.085 -11.9398 0)
(211.753 -12.4147 0)
(212.454 -12.8285 0)
(213.183 -13.186 0)
(213.934 -13.4959 0)
(214.707 -13.7674 0)
(215.501 -14.0112 0)
(216.32 -14.2353 0)
(217.164 -14.4466 0)
(218.037 -14.649 0)
(218.941 -14.8459 0)
(219.879 -15.039 0)
(220.857 -15.2307 0)
(221.88 -15.4242 0)
(222.955 -15.6232 0)
(224.086 -15.8306 0)
(225.281 -16.0483 0)
(226.543 -16.2794 0)
(227.878 -16.5262 0)
(229.293 -16.7914 0)
(230.791 -17.077 0)
(232.382 -17.3856 0)
(234.07 -17.72 0)
(235.865 -18.0833 0)
(237.774 -18.4777 0)
(239.805 -18.9051 0)
(241.969 -19.3674 0)
(244.278 -19.8672 0)
(246.747 -20.4073 0)
(249.393 -20.9909 0)
(252.238 -21.619 0)
(255.306 -22.2902 0)
(258.632 -22.9999 0)
(262.256 -23.7376 0)
(266.23 -24.4834 0)
(270.598 -25.205 0)
(275.384 -25.8577 0)
(280.553 -26.4001 0)
(286.002 -26.8008 0)
(291.51 -27.0715 0)
(296.89 -27.3014 0)
(301.997 -27.5818 0)
(306.786 -27.961 0)
(311.283 -28.4439 0)
(315.521 -29.0465 0)
(319.516 -29.7494 0)
(323.318 -30.5387 0)
(326.908 -31.4015 0)
(330.272 -32.3082 0)
(333.442 -33.2358 0)
(336.391 -34.1433 0)
(339.109 -35.0013 0)
(341.621 -35.8046 0)
(343.933 -36.5486 0)
(346.05 -37.2311 0)
(347.99 -37.8325 0)
(349.779 -38.3596 0)
(351.426 -38.8188 0)
(352.938 -39.1831 0)
(354.336 -39.5717 0)
(355.648 -39.797 0)
(356.914 -40.1498 0)
(358.111 -40.2768 0)
(359.25 -40.5869 0)
(360.321 -40.6968 0)
(361.346 -41.0055 0)
(362.308 -41.0761 0)
(363.196 -41.2884 0)
(364.045 -41.3061 0)
(364.844 -41.4949 0)
(365.624 -41.5129 0)
(366.359 -41.6755 0)
(367.08 -41.6809 0)
(367.759 -41.8172 0)
(368.429 -41.8189 0)
(369.057 -41.9411 0)
(369.669 -41.945 0)
(370.225 -42.0505 0)
(370.758 -42.0411 0)
(371.245 -42.1239 0)
(371.725 -42.109 0)
(372.176 -42.1828 0)
(372.621 -42.173 0)
(373.036 -42.2422 0)
(373.445 -42.2311 0)
(373.822 -42.2901 0)
(374.192 -42.2801 0)
(374.537 -42.3325 0)
(374.887 -42.3181 0)
(375.227 -42.3556 0)
(375.573 -42.3398 0)
(375.896 -42.3697 0)
(376.199 -42.3595 0)
(376.446 -42.388 0)
(376.639 -42.3812 0)
(376.753 -42.3999 0)
(376.783 -42.3799 0)
(376.732 -42.3742 0)
(376.653 -42.3534 0)
(376.631 -42.345 0)
(376.756 -42.3338 0)
(377.081 -42.348 0)
(377.59 -42.3964 0)
(378.199 -42.4371 0)
(378.808 -42.5025 0)
(379.137 -42.255 0)
(178.001 115.618 0)
(167.228 15.3326 0)
(176.412 4.30878 0)
(184.559 2.89786 0)
(190.54 -2.39919 0)
(196.466 -3.67776 0)
(200.949 -4.87894 0)
(204.335 -5.61374 0)
(206.442 -6.7741 0)
(207.769 -7.58545 0)
(208.24 -8.56857 0)
(208.86 -9.34596 0)
(209.369 -10.0959 0)
(209.9 -10.7682 0)
(210.473 -11.3744 0)
(211.099 -11.9109 0)
(211.768 -12.3838 0)
(212.471 -12.7956 0)
(213.202 -13.1513 0)
(213.956 -13.4593 0)
(214.731 -13.7287 0)
(215.528 -13.9702 0)
(216.348 -14.1917 0)
(217.194 -14.4001 0)
(218.068 -14.5994 0)
(218.974 -14.7927 0)
(219.914 -14.9817 0)
(220.894 -15.1687 0)
(221.919 -15.3569 0)
(222.995 -15.5499 0)
(224.13 -15.7505 0)
(225.327 -15.9606 0)
(226.593 -16.1832 0)
(227.933 -16.4206 0)
(229.352 -16.6752 0)
(230.856 -16.9489 0)
(232.453 -17.2444 0)
(234.15 -17.5642 0)
(235.955 -17.9113 0)
(237.875 -18.2877 0)
(239.921 -18.6951 0)
(242.103 -19.135 0)
(244.433 -19.6094 0)
(246.928 -20.1209 0)
(249.604 -20.6716 0)
(252.483 -21.262 0)
(255.593 -21.8896 0)
(258.967 -22.5479 0)
(262.643 -23.2244 0)
(266.666 -23.8967 0)
(271.07 -24.5319 0)
(275.862 -25.0899 0)
(280.988 -25.5382 0)
(286.324 -25.8599 0)
(291.668 -26.0816 0)
(296.854 -26.2858 0)
(301.805 -26.5566 0)
(306.495 -26.9263 0)
(310.935 -27.3974 0)
(315.149 -27.9921 0)
(319.159 -28.7115 0)
(322.942 -29.5266 0)
(326.524 -30.4204 0)
(329.918 -31.376 0)
(333.093 -32.3407 0)
(336.059 -33.2868 0)
(338.82 -34.1939 0)
(341.359 -35.0344 0)
(343.682 -35.7957 0)
(345.807 -36.4764 0)
(347.752 -37.0668 0)
(349.547 -37.5801 0)
(351.215 -38.0355 0)
(352.781 -38.4121 0)
(354.261 -38.8165 0)
(355.649 -39.0907 0)
(356.968 -39.5005 0)
(358.179 -39.7041 0)
(359.324 -40.059 0)
(360.368 -40.1591 0)
(361.321 -40.4078 0)
(362.233 -40.4262 0)
(363.107 -40.6421 0)
(363.967 -40.6811 0)
(364.786 -40.8895 0)
(365.581 -40.9211 0)
(366.324 -41.0959 0)
(367.044 -41.1074 0)
(367.716 -41.2477 0)
(368.378 -41.2424 0)
(369 -41.3543 0)
(369.623 -41.3412 0)
(370.211 -41.4369 0)
(370.791 -41.4235 0)
(371.324 -41.5093 0)
(371.84 -41.4962 0)
(372.311 -41.5732 0)
(372.771 -41.5637 0)
(373.198 -41.6329 0)
(373.616 -41.6213 0)
(374.001 -41.6822 0)
(374.379 -41.6708 0)
(374.733 -41.7183 0)
(375.092 -41.6975 0)
(375.438 -41.7298 0)
(375.793 -41.712 0)
(376.124 -41.7434 0)
(376.434 -41.7361 0)
(376.689 -41.7663 0)
(376.889 -41.7568 0)
(377.008 -41.7732 0)
(377.045 -41.7465 0)
(376.999 -41.7347 0)
(376.925 -41.7066 0)
(376.903 -41.6911 0)
(377.025 -41.6749 0)
(377.35 -41.6887 0)
(377.86 -41.7354 0)
(378.471 -41.7866 0)
(379.087 -41.8595 0)
(379.42 -41.6053 0)
(177.693 115.692 0)
(167.168 15.1753 0)
(176.562 4.19361 0)
(184.704 2.75466 0)
(190.661 -2.4925 0)
(196.532 -3.69036 0)
(200.997 -4.87361 0)
(204.383 -5.60717 0)
(206.484 -6.76885 0)
(207.804 -7.57441 0)
(208.272 -8.55268 0)
(208.885 -9.32849 0)
(209.39 -10.0757 0)
(209.919 -10.7453 0)
(210.49 -11.3489 0)
(211.117 -11.883 0)
(211.787 -12.3537 0)
(212.492 -12.7636 0)
(213.225 -13.1173 0)
(213.981 -13.4233 0)
(214.759 -13.6907 0)
(215.557 -13.9298 0)
(216.38 -14.1488 0)
(217.227 -14.3544 0)
(218.104 -14.5504 0)
(219.011 -14.7401 0)
(219.953 -14.925 0)
(220.935 -15.1074 0)
(221.962 -15.2904 0)
(223.042 -15.4775 0)
(224.179 -15.6713 0)
(225.38 -15.874 0)
(226.651 -16.0881 0)
(227.995 -16.3162 0)
(229.42 -16.5603 0)
(230.931 -16.8224 0)
(232.536 -17.105 0)
(234.242 -17.4104 0)
(236.057 -17.7414 0)
(237.991 -18.0999 0)
(240.053 -18.4874 0)
(242.253 -18.9049 0)
(244.606 -19.3542 0)
(247.126 -19.837 0)
(249.833 -20.3548 0)
(252.748 -20.9073 0)
(255.899 -21.4906 0)
(259.319 -22.0969 0)
(263.042 -22.7114 0)
(267.107 -23.3098 0)
(271.536 -23.8602 0)
(276.318 -24.3283 0)
(281.383 -24.6897 0)
(286.597 -24.9409 0)
(291.779 -25.117 0)
(296.808 -25.2951 0)
(301.626 -25.5437 0)
(306.226 -25.9048 0)
(310.601 -26.3896 0)
(314.758 -27.0103 0)
(318.697 -27.7382 0)
(322.448 -28.5596 0)
(326.007 -29.4511 0)
(329.368 -30.3869 0)
(332.555 -31.3518 0)
(335.547 -32.3057 0)
(338.329 -33.2188 0)
(340.908 -34.0784 0)
(343.287 -34.8664 0)
(345.474 -35.5753 0)
(347.491 -36.1992 0)
(349.366 -36.7482 0)
(351.117 -37.253 0)
(352.744 -37.6935 0)
(354.26 -38.166 0)
(355.651 -38.5138 0)
(356.956 -38.9256 0)
(358.135 -39.1018 0)
(359.234 -39.4123 0)
(360.274 -39.4839 0)
(361.28 -39.7295 0)
(362.265 -39.7732 0)
(363.208 -40.0267 0)
(364.117 -40.0997 0)
(364.967 -40.3228 0)
(365.777 -40.3532 0)
(366.531 -40.5232 0)
(367.261 -40.5249 0)
(367.937 -40.6588 0)
(368.594 -40.652 0)
(369.195 -40.7683 0)
(369.777 -40.756 0)
(370.316 -40.8534 0)
(370.848 -40.8398 0)
(371.347 -40.9246 0)
(371.841 -40.9099 0)
(372.297 -40.9867 0)
(372.749 -40.9758 0)
(373.17 -41.0416 0)
(373.585 -41.0308 0)
(373.966 -41.0936 0)
(374.343 -41.0819 0)
(374.697 -41.1214 0)
(375.057 -41.0945 0)
(375.403 -41.1205 0)
(375.757 -41.1018 0)
(376.087 -41.1344 0)
(376.397 -41.1314 0)
(376.655 -41.161 0)
(376.86 -41.1479 0)
(376.983 -41.1566 0)
(377.025 -41.1199 0)
(376.98 -41.0998 0)
(376.905 -41.0602 0)
(376.882 -41.0437 0)
(377.007 -41.0227 0)
(377.336 -41.0311 0)
(377.848 -41.0725 0)
(378.462 -41.1174 0)
(379.082 -41.1883 0)
(379.416 -40.9338 0)
(177.38 115.762 0)
(167.098 15.0171 0)
(176.714 4.07182 0)
(184.852 2.5979 0)
(190.783 -2.58652 0)
(196.598 -3.70092 0)
(201.046 -4.86901 0)
(204.432 -5.60105 0)
(206.526 -6.76293 0)
(207.839 -7.56204 0)
(208.304 -8.53504 0)
(208.909 -9.30915 0)
(209.41 -10.0535 0)
(209.936 -10.7203 0)
(210.505 -11.3212 0)
(211.131 -11.8529 0)
(211.803 -12.3214 0)
(212.51 -12.7293 0)
(213.245 -13.0812 0)
(214.003 -13.3852 0)
(214.783 -13.6505 0)
(215.584 -13.8873 0)
(216.407 -14.1037 0)
(217.257 -14.3064 0)
(218.134 -14.4992 0)
(219.043 -14.6852 0)
(219.987 -14.8659 0)
(220.971 -15.0436 0)
(222 -15.2212 0)
(223.082 -15.4022 0)
(224.221 -15.5891 0)
(225.425 -15.784 0)
(226.699 -15.9894 0)
(228.047 -16.2078 0)
(229.477 -16.4412 0)
(230.993 -16.6912 0)
(232.604 -16.9603 0)
(234.317 -17.2507 0)
(236.141 -17.5649 0)
(238.085 -17.9048 0)
(240.159 -18.2713 0)
(242.375 -18.6654 0)
(244.745 -19.0882 0)
(247.287 -19.5408 0)
(250.019 -20.024 0)
(252.963 -20.5366 0)
(256.147 -21.0737 0)
(259.601 -21.626 0)
(263.358 -22.1769 0)
(267.446 -22.7015 0)
(271.876 -23.1704 0)
(276.623 -23.5541 0)
(281.615 -23.8363 0)
(286.718 -24.0271 0)
(291.769 -24.1659 0)
(296.665 -24.3177 0)
(301.382 -24.554 0)
(305.876 -24.9251 0)
(310.133 -25.4023 0)
(314.185 -25.9909 0)
(318.069 -26.6945 0)
(321.785 -27.4899 0)
(325.35 -28.3669 0)
(328.761 -29.3068 0)
(331.982 -30.2748 0)
(335.021 -31.2437 0)
(337.877 -32.1878 0)
(340.537 -33.0857 0)
(342.998 -33.921 0)
(345.27 -34.6952 0)
(347.357 -35.396 0)
(349.275 -36.0304 0)