/*--------------------------------*- C++ -*----------------------------------*\
| =========                 |                                                 |
| \\      /  F ield         | OpenFOAM: The Open Source CFD Toolbox           |
|  \\    /   O peration     | Version:  2412                                  |
|   \\  /    A nd           | Website:  www.openfoam.com                      |
|    \\/     M anipulation  |                                                 |
\*---------------------------------------------------------------------------*/
FoamFile
{
    version     2.0;
    format      ascii;
    arch        "LSB;label=32;scalar=64";
    class       volScalarField;
    location    "0.06";
    object      p;
}
// * * * * * * * * * * * * * * * * * * * * * * * * * * * * * * * * * * * * * //

dimensions      [1 -1 -2 0 0 0 0];

internalField   nonuniform List<scalar> 
78650
(
2800.47
2806.11
2809.65
2809.26
2803.47
2790.94
2778.14
2768.78
2763.03
2761.9
2765.35
2774.67
2788.95
2803.73
2815.39
2823.15
2828.15
2831.32
2833.15
2833.91
2833.6
2832.1
2829.06
2824.62
2819.12
2812.98
2806.63
2800.22
2793.99
2788.09
2782.55
2777.31
2772.26
2767.33
2762.55
2757.97
2753.63
2749.52
2745.6
2741.85
2738.26
2734.83
2731.57
2728.5
2725.6
2722.86
2720.28
2717.86
2715.63
2713.57
2711.69
2709.96
2708.36
2706.87
2705.48
2704.15
2702.88
2701.65
2700.45
2699.26
2698.05
2696.8
2695.46
2693.98
2692.35
2690.55
2688.53
2686.25
2683.64
2680.65
2677.23
2673.29
2668.78
2663.63
2657.78
2651.15
2643.65
2635.17
2625.58
2614.77
2602.62
2588.99
2573.73
2556.68
2537.67
2516.59
2493.27
2467.59
2439.23
2408.3
2374.63
2338.59
2299.28
2257.35
2211.57
2163.11
2111.37
2056.3
1999.64
1940.95
1880.8
1817.24
1753.75
1686.77
1622.35
1558.26
1497.33
1441.84
1388.17
1339.91
1293.53
1249.47
1208.41
1171.48
1138.39
1107.18
1079.68
1053.23
1031.71
1014.56
978.032
2798.34
2805.23
2809.67
2810.12
2806.21
2794.45
2780.11
2769.33
2762.51
2759.13
2759.19
2763.02
2772.98
2786.41
2799.22
2809.31
2816.63
2821.8
2825.47
2827.68
2828.48
2828.02
2826.09
2822.51
2817.66
2812.06
2806.15
2800.01
2793.91
2788.08
2782.61
2777.5
2772.72
2768.12
2763.64
2759.29
2755.15
2751.25
2747.57
2744.06
2740.72
2737.53
2734.51
2731.67
2729.01
2726.51
2724.17
2722
2720.01
2718.2
2716.57
2715.11
2713.79
2712.59
2711.5
2710.49
2709.54
2708.65
2707.8
2706.99
2706.18
2705.34
2704.45
2703.45
2702.32
2701.04
2699.59
2697.92
2695.98
2693.7
2691.04
2687.94
2684.32
2680.13
2675.31
2669.8
2663.51
2656.33
2648.17
2638.89
2628.4
2616.58
2603.26
2588.28
2571.45
2552.65
2531.7
2508.52
2482.9
2454.93
2424.32
2391.11
2354.51
2314.95
2271.45
2225.81
2176.98
2125.47
2071.17
2013.73
1955.63
1893.88
1833.4
1768.87
1705.02
1641.49
1576.08
1515.51
1455.64
1398.7
1347.52
1299.05
1253.38
1211.36
1173.71
1139.1
1107.87
1078.61
1053.3
1031.91
991.125
2796.4
2803.84
2809.44
2811.08
2808.61
2798.54
2783.86
2771.32
2763.13
2758.67
2757.17
2758.15
2762.86
2772.05
2783.19
2793.77
2802.56
2809.52
2814.93
2819.04
2821.35
2822.09
2821.33
2818.97
2815.07
2810.21
2804.89
2799.24
2793.47
2787.84
2782.49
2777.47
2772.81
2768.48
2764.37
2760.36
2756.48
2752.8
2749.36
2746.12
2743.05
2740.11
2737.35
2734.76
2732.35
2730.1
2728.01
2726.09
2724.36
2722.82
2721.45
2720.26
2719.23
2718.33
2717.54
2716.85
2716.24
2715.7
2715.21
2714.76
2714.35
2713.93
2713.48
2712.95
2712.32
2711.58
2710.69
2709.62
2708.32
2706.74
2704.83
2702.53
2699.77
2696.51
2692.68
2688.23
2683.08
2677.14
2670.31
2662.47
2653.53
2643.34
2631.79
2618.73
2603.96
2587.38
2568.81
2548.17
2525.27
2500.09
2472.26
2441.65
2407.71
2370.97
2331.12
2289.28
2243.84
2195.45
2143.33
2087.76
2029.67
1969.11
1906.67
1844.11
1778.69
1716.84
1651.01
1586.23
1525.04
1461.7
1403.49
1349.68
1298.76
1252.6
1210.06
1171.27
1136.74
1103.36
1073.05
1046.57
997.216
2794.64
2802.13
2808.97
2811.73
2810.26
2802.6
2788.77
2775.3
2765.27
2759.24
2756.88
2756.88
2758.7
2763.78
2771.21
2779.5
2787.83
2795.57
2802.31
2808.05
2812.14
2814.25
2814.63
2813.59
2810.96
2807.07
2802.52
2797.58
2792.38
2787.15
2782.07
2777.24
2772.71
2768.52
2764.65
2761.04
2757.54
2754.16
2750.96
2747.99
2745.2
2742.55
2740.07
2737.74
2735.6
2733.62
2731.8
2730.14
2728.67
2727.39
2726.3
2725.39
2724.64
2724.04
2723.56
2723.19
2722.91
2722.71
2722.57
2722.49
2722.46
2722.46
2722.44
2722.37
2722.23
2721.99
2721.65
2721.16
2720.48
2719.57
2718.38
2716.85
2714.92
2712.56
2709.69
2706.27
2702.23
2697.49
2691.97
2685.54
2678.12
2669.58
2659.82
2648.69
2636.03
2621.68
2605.47
2587.27
2566.9
2544.29
2519.11
2491.35
2460.65
2427.35
2391.01
2352.1
2309.32
2263.67
2213.82
2160.96
2104.8
2045.79
1982.55
1920.48
1854.53
1788.98
1724.7
1657.2
1595.12
1531.02
1467.73
1408.63
1350.81
1297.86
1248.78
1205.08
1167.62
1135.3
1106.44
1079.45
1023.06
2793.14
2800.19
2808.11
2811.93
2811.36
2806.19
2793.96
2780.51
2769.29
2761.42
2757.49
2756.75
2757.75
2760.65
2765.11
2770.14
2775.68
2781.96
2788.55
2794.92
2800.42
2804.22
2805.9
2806.03
2804.89
2802.3
2798.73
2794.67
2790.23
2785.6
2781
2776.54
2772.3
2768.32
2764.64
2761.27
2758.18
2755.21
2752.34
2749.66
2747.16
2744.82
2742.64
2740.62
2738.76
2737.07
2735.53
2734.16
2732.97
2731.97
2731.16
2730.53
2730.08
2729.78
2729.63
2729.58
2729.63
2729.78
2730
2730.29
2730.65
2731.05
2731.46
2731.85
2732.18
2732.45
2732.63
2732.71
2732.65
2732.38
2731.89
2731.12
2730
2728.5
2726.55
2724.11
2721.13
2717.53
2713.24
2708.14
2702.15
2695.14
2687.03
2677.68
2666.94
2654.64
2640.62
2624.78
2606.96
2587.08
2564.83
2540.14
2512.68
2482.68
2449.66
2413.72
2373.74
2330.64
2283.42
2233.7
2180.52
2124.01
2064.9
2001.22
1937.15
1868.16
1803.06
1734.51
1666.94
1602.78
1537.85
1476.79
1415.38
1356.52
1300.95
1247.48
1199.54
1156.17
1122.41
1096.47
1041.36
2791.96
2798.09
2806.7
2811.88
2812.16
2809.15
2798.79
2785.92
2774.5
2765.43
2759.55
2757.44
2757.78
2759.73
2763
2766.26
2769.1
2772.46
2776.75
2782.01
2787.62
2792.41
2795.52
2796.83
2796.88
2795.71
2793.36
2790.32
2786.79
2782.99
2779.07
2775.17
2771.36
2767.72
2764.33
2761.2
2758.36
2755.79
2753.37
2751.06
2748.89
2746.88
2745.02
2743.33
2741.8
2740.42
2739.19
2738.12
2737.22
2736.51
2735.99
2735.65
2735.52
2735.52
2735.69
2735.97
2736.36
2736.85
2737.43
2738.09
2738.83
2739.63
2740.46
2741.3
2742.11
2742.87
2743.58
2744.2
2744.72
2745.08
2745.25
2745.21
2744.87
2744.21
2743.16
2741.68
2739.72
2737.21
2734.12
2730.32
2725.73
2720.24
2713.76
2706.19
2697.36
2687.15
2675.38
2661.94
2646.63
2629.33
2609.77
2587.92
2563.55
2536.65
2506.61
2473.41
2436.5
2396.72
2353.31
2307.33
2257.56
2204.69
2148.29
2087.03
2025.14
1957.24
1887.56
1817.6
1745.61
1676.87
1607.85
1541.5
1479.64
1419.5
1362.83
1309.68
1258.56
1209.62
1162.43
1122.74
1048.35
2791.12
2796.02
2804.78
2811.48
2812.87
2811.38
2803.07
2791.07
2780.01
2770.63
2763.33
2759.3
2758.51
2759.62
2762.44
2765.47
2767.67
2769.34
2771.07
2773.6
2777.02
2780.78
2784.13
2786.24
2787.11
2787.05
2786.08
2784.27
2781.86
2779.04
2775.96
2772.77
2769.57
2766.46
2763.51
2760.76
2758.21
2755.91
2753.91
2752.08
2750.32
2748.66
2747.16
2745.82
2744.64
2743.61
2742.72
2741.97
2741.39
2740.99
2740.79
2740.77
2740.95
2741.29
2741.77
2742.39
2743.13
2743.97
2744.92
2745.95
2747.08
2748.28
2749.53
2750.81
2752.08
2753.34
2754.55
2755.72
2756.82
2757.8
2758.62
2759.25
2759.66
2759.8
2759.62
2759.07
2758.11
2756.63
2754.66
2752.08
2748.8
2744.73
2739.77
2733.82
2726.77
2718.47
2708.77
2697.53
2684.56
2669.8
2653.01
2634.16
2612.9
2589.12
2562.32
2532.61
2499.62
2463.84
2424.6
2382.34
2335.67
2285.52
2231.35
2174.22
2113.29
2049.61
1980.9
1911.43
1838.31
1765.55
1692.24
1617.21
1546.21
1478.46
1413.47
1356.29
1303.92
1257.63
1215.31
1176.6
1097.76
2790.57
2794.13
2802.44
2810.59
2813.35
2812.92
2806.96
2796.07
2785.28
2775.94
2768.03
2762.41
2760.2
2760.35
2762.4
2765.46
2767.67
2769.05
2770.18
2771.38
2772.59
2774.03
2775.55
2776.59
2777.14
2777.39
2777.31
2776.65
2775.39
2773.67
2771.6
2769.3
2766.88
2764.43
2762.05
2759.79
2757.67
2755.7
2753.98
2752.59
2751.35
2750.12
2748.99
2748.04
2747.24
2746.59
2746.07
2745.68
2745.45
2745.38
2745.51
2745.83
2746.32
2746.98
2747.8
2748.77
2749.86
2751.07
2752.37
2753.79
2755.29
2756.89
2758.56
2760.27
2762.01
2763.74
2765.45
2767.15
2768.8
2770.37
2771.83
2773.15
2774.27
2775.17
2775.8
2776.11
2776.13
2775.68
2774.82
2773.41
2771.41
2768.72
2765.25
2760.92
2755.62
2749.22
2741.56
2732.52
2721.93
2709.69
2695.56
2679.46
2661.08
2640.32
2616.8
2590.6
2561.41
2529.41
2493.77
2454.64
2411.09
2364.11
2312.69
2257.98
2199.69
2137.66
2072.18
2004.06
1933.02
1860.2
1788.69
1712.58
1637.73
1562.85
1488.09
1416.84
1351.37
1291.23
1242.1
1203.85
1124.35
2790.26
2792.58
2799.85
2809.08
2813.44
2814.11
2810.49
2800.9
2790.12
2780.85
2772.91
2766.48
2762.84
2762.05
2763.08
2765.88
2768.26
2769.61
2770.49
2771.27
2771.99
2772.51
2772.43
2771.67
2770.57
2769.55
2768.76
2768.14
2767.48
2766.67
2765.64
2764.38
2762.9
2761.29
2759.65
2758.06
2756.51
2755.03
2753.69
2752.65
2751.87
2751.18
2750.5
2749.95
2749.56
2749.32
2749.2
2749.2
2749.35
2749.64
2750.11
2750.77
2751.61
2752.62
2753.8
2755.12
2756.57
2758.14
2759.82
2761.62
2763.51
2765.51
2767.59
2769.74
2771.93
2774.13
2776.34
2778.56
2780.75
2782.9
2784.97
2786.93
2788.76
2790.41
2791.85
2793
2793.86
2794.4
2794.58
2794.29
2793.51
2792.12
2790.03
2787.18
2783.47
2778.81
2773.05
2766.06
2757.68
2747.8
2736.22
2722.86
2707.44
2689.85
2669.77
2647.21
2621.73
2593.27
2561.04
2525.24
2485.32
2442.03
2394.51
2343.39
2287.71
2228.42
2165.28
2096.68
2026.29
1951.38
1878.28
1802.72
1727.45
1654.41
1579.76
1509.18
1438.82
1372.1
1307.24
1252.11
1147.18
2790.1
2791.44
2797.23
2806.91
2813.11
2815.26
2813.32
2805.31
2794.68
2785.51
2777.78
2771.07
2766.29
2764.55
2764.76
2766.85
2769.46
2770.96
2771.63
2772.09
2772.49
2772.54
2772.06
2770.77
2768.79
2766.42
2764.1
2762.18
2760.75
2759.73
2759.03
2758.42
2757.76
2757.01
2756.21
2755.4
2754.55
2753.68
2752.92
2752.33
2751.94
2751.69
2751.58
2751.5
2751.56
2751.75
2752.05
2752.47
2753.01
2753.69
2754.53
2755.56
2756.76
2758.13
2759.67
2761.35
2763.17
2765.12
2767.18
2769.35
2771.64
2774.03
2776.52
2779.1
2781.73
2784.4
2787.09
2789.8
2792.53
2795.23
2797.9
2800.49
2802.99
2805.35
2807.54
2809.52
2811.27
2812.73
2813.86
2814.63
2814.98
2814.89
2814.17
2812.81
2810.65
2807.7
2803.78
2798.79
2792.57
2785
2775.9
2765.17
2752.54
2737.92
2721.02
2701.79
2679.73
2654.74
2626.27
2594.62
2559.35
2520.73
2477.87
2431.22
2379.83
2324.19
2263.58
2198.88
2130.69
2056.44
1977.25
1898.76
1815.29
1734.54
1655.5
1578.92
1506.16
1440.11
1380.26
1327.27
1220.57
2790.03
2790.7
2794.84
2804.17
2812.41
2815.97
2815.09
2809.34
2799.33
2790.19
2782.61
2775.87
2770.37
2767.59
2767.2
2768.44
2771.09
2773.02
2773.77
2774
2774
2773.55
2772.66
2771.03
2768.7
2765.91
2763.01
2760.21
2757.64
2755.57
2754.08
2753.09
2752.44
2752.01
2751.75
2751.59
2751.46
2751.31
2751.24
2751.33
2751.48
2751.7
2752.07
2752.55
2753.09
2753.74
2754.5
2755.38
2756.36
2757.47
2758.72
2760.14
2761.73
2763.48
2765.4
2767.46
2769.66
2771.99
2774.44
2777
2779.68
2782.47
2785.38
2788.38
2791.45
2794.58
2797.75
2800.95
2804.19
2807.44
2810.68
2813.88
2817.02
2820.06
2822.99
2825.75
2828.32
2830.66
2832.75
2834.54
2835.95
2836.94
2837.47
2837.52
2836.83
2835.46
2833.23
2830.08
2825.85
2820.45
2813.69
2805.49
2795.6
2783.95
2770.23
2754.34
2735.82
2714.61
2690.26
2663
2632.25
2598.07
2559.58
2516.94
2469.45
2417.9
2361.37
2300.58
2235.2
2166.35
2092.22
2015.52
1932.97
1845.22
1761.7
1670.85
1584.73
1503.2
1429.8
1369.89
1248.64
2790.01
2790.3
2792.91
2801.08
2810.96
2816.15
2816.25
2812.92
2804.05
2794.89
2787.37
2780.79
2774.91
2771.13
2770.08
2770.66
2773
2775.4
2776.48
2776.69
2776.51
2775.73
2774.29
2772.13
2769.36
2766.28
2763.09
2759.92
2756.93
2754.31
2752.11
2750.41
2749.2
2748.41
2748.03
2747.99
2748.16
2748.46
2748.94
2749.64
2750.45
2751.23
2752.08
2753.05
2754.12
2755.3
2756.58
2757.95
2759.4
2760.96
2762.64
2764.48
2766.47
2768.62
2770.92
2773.37
2775.96
2778.68
2781.52
2784.47
2787.54
2790.74
2794.04
2797.46
2800.97
2804.55
2808.18
2811.86
2815.59
2819.36
2823.15
2826.93
2830.69
2834.39
2838.01
2841.51
2844.87
2848.06
2851.04
2853.79
2856.25
2858.39
2860.1
2861.35
2862.09
2862.28
2861.71
2860.37
2858.07
2854.74
2850.22
2844.41
2837.11
2828.21
2817.45
2804.7
2789.6
2772.1
2751.78
2728.68
2702.11
2671.99
2637.57
2599.04
2555.81
2508.33
2455.74
2398.56
2335.87
2268.69
2197.61
2120.29
2042.37
1958.84
1875.39
1790.79
1700.82
1618.67
1534.15
1459.03
1313.04
2790
2790.11
2791.56
2797.98
2808.55
2815.79
2817.23
2815.75
2808.48
2799.48
2792.08
2785.79
2779.83
2775.16
2773.23
2773.24
2774.86
2777.58
2779.27
2779.7
2779.55
2778.69
2776.92
2774.3
2771.05
2767.48
2763.84
2760.36
2757.1
2754.16
2751.65
2749.63
2748.07
2746.89
2746.15
2745.88
2745.96
2746.27
2746.9
2747.9
2749.15
2750.47
2751.84
2753.32
2754.9
2756.57
2758.34
2760.19
2762.11
2764.13
2766.26
2768.52
2770.94
2773.5
2776.21
2779.06
2782.05
2785.17
2788.4
2791.76
2795.23
2798.82
2802.54
2806.37
2810.31
2814.33
2818.41
2822.57
2826.79
2831.07
2835.39
2839.73
2844.07
2848.4
2852.68
2856.89
2861
2864.99
2868.82
2872.47
2875.9
2879.06
2881.9
2884.38
2886.39
2887.88
2888.81
2889.12
2888.63
2887.26
2884.85
2881.29
2876.46
2870.22
2862.35
2852.72
2841
2827.12
2810.65
2791.47
2768.92
2743.01
2713.19
2679.61
2641.62
2599.31
2551.91
2499.63
2441.36
2377.81
2308.61
2234.48
2153.7
2067.93
1975.92
1889.07
1792.45
1706.2
1624.37
1553.3
1410.74
2790
2790.04
2790.73
2795.26
2805.48
2814.8
2817.99
2817.58
2812.41
2804.04
2796.79
2790.74
2784.87
2779.57
2776.54
2775.93
2776.8
2779.46
2781.85
2782.69
2782.67
2781.95
2780.1
2777.22
2773.62
2769.65
2765.6
2761.66
2757.97
2754.67
2751.89
2749.63
2747.85
2746.52
2745.61
2745.18
2745.12
2745.33
2745.9
2746.96
2748.38
2749.99
2751.75
2753.63
2755.6
2757.68
2759.87
2762.16
2764.54
2767.01
2769.58
2772.28
2775.12
2778.1
2781.23
2784.49
2787.89
2791.41
2795.04
2798.79
2802.67
2806.66
2810.77
2815.01
2819.36
2823.81
2828.35
2832.95
2837.64
2842.4
2847.23
2852.1
2857.01
2861.92
2866.84
2871.72
2876.54
2881.28
2885.91
2890.41
2894.75
2898.9
2902.8
2906.41
2909.66
2912.51
2914.87
2916.66
2917.82
2918.29
2917.93
2916.53
2914.04
2910.26
2905.07
2898.32
2889.76
2879.27
2866.43
2851.11
2832.75
2811.44
2786.64
2758.33
2725.8
2688.97
2647.08
2600.16
2547.36
2489.44
2425.23
2355.52
2279.78
2198
2110.96
2017.05
1919.85
1815.46
1714.85
1626.51
1457.04
2790
2790.01
2790.3
2793.14
2802.13
2813.08
2818.12
2818.81
2815.86
2808.51
2801.25
2795.32
2789.72
2784.15
2780.16
2778.83
2779.08
2781.18
2784.07
2785.51
2785.71
2785.17
2783.41
2780.46
2776.7
2772.5
2768.17
2763.9
2759.83
2756.1
2752.88
2750.24
2748.22
2746.72
2745.67
2745.11
2744.98
2745.13
2745.64
2746.68
2748.17
2749.91
2751.85
2753.98
2756.26
2758.69
2761.25
2763.95
2766.74
2769.64
2772.64
2775.76
2779.03
2782.43
2785.97
2789.65
2793.45
2797.38
2801.42
2805.57
2809.84
2814.23
2818.75
2823.39
2828.15
2833.03
2837.99
2843.04
2848.18
2853.41
2858.73
2864.12
2869.56
2875.04
2880.55
2886.06
2891.55
2897
2902.39
2907.69
2912.88
2917.94
2922.82
2927.47
2931.86
2935.91
2939.58
2942.82
2945.52
2947.59
2948.96
2949.56
2949.32
2947.9
2945.32
2941.3
2935.75
2928.47
2919.14
2907.6
2893.41
2876.58
2856.49
2833
2805.38
2773.46
2736.55
2694.66
2647.02
2593.88
2534.2
2468.96
2397.24
2319.08
2234.95
2144.34
2052.57
1955.97
1856.07
1765.1
1586.83
2790
2790
2790.11
2791.69
2798.86
2810.59
2817.66
2820.04
2818.59
2812.51
2805.27
2799.5
2794.34
2788.89
2784.25
2782.04
2781.77
2783.05
2786.08
2788.18
2788.69
2788.29
2786.64
2783.73
2779.95
2775.66
2771.19
2766.74
2762.46
2758.44
2754.85
2751.82
2749.43
2747.63
2746.35
2745.59
2745.34
2745.42
2745.84
2746.8
2748.3
2750.1
2752.19
2754.51
2757.03
2759.73
2762.62
2765.65
2768.82
2772.1
2775.5
2779.02
2782.69
2786.5
2790.45
2794.53
2798.74
2803.07
2807.51
2812.06
2816.73
2821.51
2826.42
2831.45
2836.61
2841.89
2847.27
2852.75
2858.33
2864
2869.78
2875.65
2881.6
2887.61
2893.67
2899.78
2905.89
2912.01
2918.1
2924.15
2930.13
2936.04
2941.83
2947.47
2952.91
2958.11
2963.01
2967.57
2971.71
2975.38
2978.48
2980.86
2982.48
2983.26
2983.16
2981.69
2978.99
2974.67
2968.65
2960.7
2950.46
2937.82
2922.12
2903.26
2880.53
2853.83
2822.53
2786.51
2744.95
2697.75
2643.95
2584.07
2516.74
2442.42
2360.19
2270.85
2172.92
2075.92
1963.9
1870.14
1697.78
2790
2790
2790.04
2790.82
2796.02
2807.54
2816.92
2820.91
2820.33
2815.91
2809.04
2803.45
2798.74
2793.64
2788.66
2785.59
2784.77
2785.37
2788.09
2790.74
2791.6
2791.3
2789.76
2786.91
2783.17
2778.89
2774.38
2769.85
2765.48
2761.33
2757.53
2754.22
2751.51
2749.41
2747.87
2746.87
2746.41
2746.36
2746.62
2747.46
2748.9
2750.7
2752.86
2755.33
2758.02
2760.94
2764.07
2767.38
2770.86
2774.48
2778.22
2782.12
2786.16
2790.35
2794.69
2799.16
2803.76
2808.48
2813.31
2818.26
2823.31
2828.48
2833.77
2839.19
2844.74
2850.41
2856.2
2862.09
2868.09
2874.2
2880.42
2886.75
2893.18
2899.69
2906.28
2912.94
2919.65
2926.38
2933.13
2939.87
2946.6
2953.29
2959.91
2966.45
2972.86
2979.1
2985.12
2990.88
2996.32
3001.4
3006.03
3010.13
3013.62
3016.32
3018.21
3019.16
3019.22
3017.71
3014.87
3010.24
3003.67
2994.92
2983.47
2969.26
2951.64
2930.55
2905.28
2875.56
2840.61
2800.15
2753.21
2699.94
2639.27
2571.66
2495.35
2411.47
2318.64
2223.87
2111.15
2003.09
1810.74
2790
2790
2790.01
2790.37
2793.82
2804.27
2815.71
2821.28
2821.42
2818.77
2812.62
2807.19
2802.84
2798.17
2793.15
2789.43
2788.08
2788.24
2790.3
2793.25
2794.47
2794.27
2792.8
2789.96
2786.24
2782.01
2777.51
2772.99
2768.61
2764.44
2760.56
2757.1
2754.19
2751.89
2750.14
2748.96
2748.28
2748.11
2748.23
2748.9
2750.22
2751.94
2754.08
2756.59
2759.38
2762.43
2765.73
2769.25
2772.97
2776.86
2780.91
2785.11
2789.49
2794.03
2798.72
2803.56
2808.53
2813.63
2818.84
2824.16
2829.59
2835.14
2840.8
2846.59
2852.52
2858.57
2864.74
2871.03
2877.42
2883.94
2890.58
2897.34
2904.22
2911.2
2918.28
2925.45
2932.69
2940
2947.35
2954.74
2962.15
2969.56
2976.95
2984.32
2991.61
2998.81
3005.86
3012.73
3019.38
3025.76
3031.8
3037.45
3042.59
3047.18
3051.1
3054.16
3056.36
3057.53
3057.67
3056.14
3053.05
3047.97
3040.65
3030.95
3018.28
3002.48
2982.75
2958.77
2929.74
2895.27
2854.45
2807.19
2752.54
2690.75
2620.13
2541.43
2453.57
2358.58
2256.08
2153.92
1978.2
2790
2790
2790
2790.16
2792.3
2801.18
2813.85
2821.19
2822.38
2821.08
2815.87
2810.6
2806.54
2802.34
2797.54
2793.51
2791.67
2791.49
2792.87
2795.77
2797.26
2797.15
2795.65
2792.74
2789.01
2784.83
2780.4
2775.94
2771.62
2767.51
2763.64
2760.14
2757.14
2754.72
2752.85
2751.54
2750.73
2750.43
2750.46
2750.98
2752.17
2753.77
2755.84
2758.32
2761.14
2764.25
2767.66
2771.32
2775.22
2779.32
2783.61
2788.08
2792.74
2797.59
2802.6
2807.77
2813.09
2818.54
2824.11
2829.79
2835.58
2841.49
2847.52
2853.67
2859.95
2866.36
2872.91
2879.57
2886.34
2893.24
2900.28
2907.45
2914.75
2922.17
2929.71
2937.36
2945.11
2952.95
2960.86
2968.84
2976.88
2984.95
2993.05
3001.16
3009.27
3017.33
3025.32
3033.19
3040.91
3048.46
3055.77
3062.79
3069.44
3075.67
3081.36
3086.45
3090.84
3094.3
3096.82
3098.19
3098.41
3096.78
3093.38
3087.81
3079.64
3068.65
3054.08
3035.73
3012.76
2984.83
2951.06
2911.08
2863.76
2809.04
2745.51
2673.31
2589.55
2496.93
2391.44
2281.42
2105.62
2790
2790
2790
2790.07
2791.34
2798.53
2811.6
2820.78
2823.37
2822.77
2818.61
2813.64
2809.89
2806.21
2801.79
2797.69
2795.44
2794.93
2795.74
2798.26
2799.85
2799.75
2798.15
2795.11
2791.35
2787.23
2782.89
2778.54
2774.34
2770.35
2766.57
2763.12
2760.12
2757.66
2755.75
2754.37
2753.49
2753.11
2753.09
2753.55
2754.63
2756.11
2758.1
2760.52
2763.31
2766.44
2769.9
2773.65
2777.67
2781.93
2786.41
2791.09
2795.98
2801.09
2806.38
2811.85
2817.48
2823.26
2829.16
2835.18
2841.31
2847.56
2853.92
2860.42
2867.04
2873.8
2880.69
2887.7
2894.84
2902.1
2909.51
2917.06
2924.75
2932.58
2940.54
2948.62
2956.84
2965.16
2973.59
2982.1
2990.71
2999.38
3008.12
3016.91
3025.74
3034.59
3043.41
3052.19
3060.9
3069.49
3077.94
3086.21
3094.23
3101.93
3109.25
3116.11
3122.41
3128.06
3132.97
3136.85
3139.69
3141.26
3141.54
3139.76
3135.9
3129.51
3120.14
3107.57
3091
3070.04
3043.76
3011.58
2972.29
2925.52
2870.03
2805.17
2729.37
2644.53
2545.89
2442.2
2279.08
2790
2790
2790
2790.03
2790.78
2796.42
2809.3
2820.21
2824.11
2823.95
2820.88
2816.41
2812.99
2809.78
2805.78
2801.76
2799.21
2798.39
2798.75
2800.64
2802.11
2801.95
2800.19
2797
2793.19
2789.12
2784.88
2780.66
2776.63
2772.81
2769.2
2765.87
2762.95
2760.53
2758.64
2757.26
2756.38
2755.96
2755.93
2756.38
2757.41
2758.82
2760.73
2763.1
2765.85
2768.97
2772.44
2776.24
2780.34
2784.71
2789.33
2794.17
2799.26
2804.58
2810.11
2815.84
2821.75
2827.81
2834.02
2840.35
2846.8
2853.36
2860.05
2866.86
2873.81
2880.89
2888.11
2895.46
2902.93
2910.53
2918.28
2926.19
2934.24
2942.45
2950.79
2959.29
2967.92
2976.69
2985.58
2994.59
3003.71
3012.94
3022.26
3031.66
3041.15
3050.69
3060.28
3069.87
3079.44
3088.97
3098.44
3107.8
3117.02
3126.03
3134.78
3143.21
3151.23
3158.77
3165.73
3171.99
3177.43
3181.75
3184.91
3186.65
3186.93
3184.87
3180.5
3173.24
3162.52
3147.81
3128.18
3102.94
3070.94
3031.77
2984.05
2926.88
2858.76
2778.25
2684.71
2578.92
2428.84
2790
2790
2790
2790.01
2790.47
2794.88
2807.22
2819.57
2824.54
2824.91
2822.81
2818.93
2815.85
2813.05
2809.43
2805.59
2802.87
2801.77
2801.75
2802.86
2804.03
2803.74
2801.75
2798.39
2794.53
2790.5
2786.35
2782.27
2778.43
2774.82
2771.41
2768.27
2765.5
2763.19
2761.39
2760.06
2759.24
2758.83
2758.83
2759.35
2760.37
2761.76
2763.63
2765.95
2768.68
2771.78
2775.25
2779.08
2783.23
2787.68
2792.39
2797.37
2802.61
2808.1
2813.84
2819.79
2825.94
2832.26
2838.73
2845.34
2852.08
2858.94
2865.92
2873.04
2880.28
2887.67
2895.19
2902.84
2910.63
2918.55
2926.62
2934.85
2943.24
2951.79
2960.49
2969.36
2978.37
2987.55
2996.86
3006.31
3015.9
3025.62
3035.45
3045.41
3055.47
3065.64
3075.89
3086.19
3096.54
3106.9
3117.26
3127.59
3137.87
3148.04
3158.05
3167.86
3177.4
3186.62
3195.41
3203.71
3211.38
3218.28
3224.31
3229.08
3232.61
3234.52
3234.78
3232.32
3227.08
3218.23
3205.26
3187.38
3163.55
3132.99
3093.98
3045.7
2985.98
2912.73
2827.08
2723.41
2584.77
2790
2790
2790
2790.01
2790.3
2793.81
2805.51
2818.94
2824.79
2825.83
2824.48
2821.2
2818.45
2815.99
2812.73
2809.13
2806.39
2805.01
2804.63
2804.97
2805.65
2805.14
2802.86
2799.31
2795.37
2791.35
2787.29
2783.36
2779.72
2776.34
2773.18
2770.26
2767.7
2765.56
2763.91
2762.68
2761.95
2761.62
2761.68
2762.32
2763.38
2764.8
2766.68
2768.99
2771.7
2774.8
2778.27
2782.11
2786.3
2790.8
2795.6
2800.67
2806.03
2811.67
2817.57
2823.72
2830.07
2836.62
2843.33
2850.19
2857.19
2864.32
2871.57
2878.96
2886.48
2894.14
2901.94
2909.88
2917.96
2926.17
2934.53
2943.06
2951.76
2960.62
2969.65
2978.85
2988.22
2997.75
3007.44
3017.29
3027.3
3037.46
3047.76
3058.2
3068.78
3079.5
3090.34
3101.28
3112.31
3123.4
3134.55
3145.73
3156.93
3168.1
3179.21
3190.22
3201.09
3211.75
3222.14
3232.21
3241.84
3250.95
3259.38
3267
3273.66
3278.92
3282.76
3284.77
3284.93
3281.77
3275.59
3265.01
3249.57
3228.05
3199.01
3161.38
3111.75
3047.88
2969.23
2870.15
2738.12
2790
2790
2790
2790
2790.22
2793.15
2804.26
2818.37
2825.1
2826.75
2825.92
2823.18
2820.77
2818.62
2815.73
2812.41
2809.74
2808.09
2807.25
2806.93
2806.91
2806.07
2803.49
2799.77
2795.71
2791.71
2787.78
2784.01
2780.56
2777.41
2774.5
2771.84
2769.51
2767.6
2766.13
2765.08
2764.46
2764.24
2764.43
2765.21
2766.35
2767.86
2769.79
2772.12
2774.84
2777.95
2781.43
2785.29
2789.51
2794.06
2798.92
2804.08
2809.54
2815.3
2821.35
2827.65
2834.18
2840.93
2847.85
2854.94
2862.17
2869.53
2877.03
2884.67
2892.44
2900.36
2908.42
2916.62
2924.96
2933.44
2942.07
2950.87
2959.85
2969
2978.33
2987.83
2997.51
3007.37
3017.4
3027.61
3037.99
3048.54
3059.25
3070.13
3081.17
3092.37
3103.73
3115.23
3126.85
3138.58
3150.41
3162.33
3174.32
3186.36
3198.43
3210.47
3222.47
3234.38
3246.16
3257.75
3269.07
3280.08
3290.62
3300.62
3309.91
3318.31
3325.69
3331.47
3335.74
3337.89
3337.95
3333.75
3325.94
3312.39
3292.53
3264.54
3224.72
3170.98
3099.83
3007.66
2883.16
2790
2790
2790
2790
2790.19
2792.81
2803.51
2818.03
2825.63
2827.62
2827.08
2824.85
2822.83
2821.02
2818.48
2815.46
2812.87
2810.92
2809.52
2808.53
2807.72
2806.45
2803.62
2799.72
2795.57
2791.6
2787.8
2784.24
2781.01
2778.1
2775.44
2773.04
2770.96
2769.3
2768.04
2767.21
2766.73
2766.65
2767.03
2767.96
2769.22
2770.85
2772.87
2775.27
2778.03
2781.17
2784.68
2788.57
2792.82
2797.42
2802.34
2807.56
2813.11
2818.98
2825.15
2831.59
2838.28
2845.19
2852.3
2859.58
2867.01
2874.59
2882.31
2890.18
2898.18
2906.33
2914.62
2923.06
2931.64
2940.36
2949.24
2958.29
2967.52
2976.93
2986.52
2996.29
3006.26
3016.41
3026.75
3037.28
3047.99
3058.88
3069.96
3081.22
3092.67
3104.3
3116.11
3128.09
3140.23
3152.52
3164.94
3177.5
3190.18
3202.97
3215.85
3228.79
3241.76
3254.74
3267.69
3280.58
3293.35
3305.96
3318.3
3330.33
3341.88
3352.89
3363.16
3372.47
3380.67
3387.03
3391.72
3393.83
3393.2
3387.39
3377.28
3360.34
3333.99
3294.71
3233.98
3150.99
3031.58
2790
2790
2790
2790
2790.18
2792.73
2803.32
2818.01
2826.28
2828.43
2828.07
2826.35
2824.73
2823.26
2821.04
2818.26
2815.64
2813.32
2811.26
2809.56
2808.08
2806.37
2803.21
2799.08
2794.9
2791.08
2787.5
2784.17
2781.17
2778.5
2776.09
2773.94
2772.12
2770.71
2769.69
2769.07
2768.78
2768.85
2769.46
2770.53
2771.95
2773.75
2775.89
2778.37
2781.21
2784.4
2787.95
2791.89
2796.19
2800.84
2805.81
2811.11
2816.74
2822.7
2828.98
2835.54
2842.37
2849.43
2856.71
2864.16
2871.78
2879.55
2887.47
2895.53
2903.74
2912.1
2920.6
2929.26
2938.05
2946.99
2956.1
2965.38
2974.84
2984.49
2994.32
3004.34
3014.56
3024.98
3035.59
3046.41
3057.41
3068.62
3080.03
3091.63
3103.44
3115.45
3127.66
3140.07
3152.66
3165.43
3178.38
3191.49
3204.77
3218.21
3231.79
3245.49
3259.29
3273.18
3287.13
3301.12
3315.11
3329.07
3342.93
3356.66
3370.14
3383.33
3396.05
3408.22
3419.61
3429.99
3439.11
3446.2
3451.38
3453.55
3452.49
3445.42
3431.62
3406.42
3359.45
3293.42
3180.35
2790
2790
2790
2790
2790.18
2792.8
2803.6
2818.43
2826.96
2829.21
2829
2827.77
2826.54
2825.39
2823.42
2820.71
2817.89
2815.07
2812.32
2809.96
2807.95
2805.54
2802.05
2797.92
2793.9
2790.28
2786.94
2783.85
2781.11
2778.69
2776.52
2774.61
2773.05
2771.89
2771.13
2770.71
2770.61
2770.9
2771.71
2772.94
2774.55
2776.51
2778.79
2781.39
2784.32
2787.58
2791.2
2795.2
2799.56
2804.27
2809.31
2814.68
2820.39
2826.45
2832.83
2839.5
2846.45
2853.65
2861.07
2868.68
2876.46
2884.4
2892.49
2900.74
2909.14
2917.68
2926.38
2935.23
2944.22
2953.36
2962.67
2972.15
2981.83
2991.69
3001.74
3011.99
3022.44
3033.1
3043.96
3055.03
3066.31
3077.8
3089.5
3101.41
3113.54
3125.88
3138.45
3151.24
3164.23
3177.43
3190.83
3204.43
3218.23
3232.23
3246.42
3260.78
3275.3
3289.96
3304.77
3319.69
3334.72
3349.81
3364.95
3380.09
3395.19
3410.17
3424.96
3439.48
3453.55
3467.13
3479.9
3491.66
3501.89
3509.79
3515.22
3516.97
3514.33
3502.68
3474.6
3433.03
3342.67
2790
2790
2790
2790
2790.21
2793.11
2804.42
2819.28
2827.69
2829.97
2829.95
2829.19
2828.32
2827.42
2825.54
2822.66
2819.44
2816.04
2812.68
2809.73
2806.94
2804.01
2800.43
2796.45
2792.64
2789.25
2786.15
2783.34
2780.87
2778.71
2776.79
2775.13
2773.82
2772.9
2772.38
2772.16
2772.25
2772.8
2773.8
2775.21
2777.01
2779.15
2781.59
2784.32
2787.36
2790.71
2794.41
2798.48
2802.91
2807.68
2812.8
2818.25
2824.05
2830.2
2836.68
2843.46
2850.53
2857.85
2865.4
2873.15
2881.07
2889.17
2897.42
2905.83
2914.4
2923.12
2931.99
2941.01
2950.18
2959.5
2968.99
2978.67
2988.54
2998.6
3008.85
3019.31
3029.97
3040.85
3051.94
3063.25
3074.77
3086.52
3098.49
3110.67
3123.09
3135.74
3148.63
3161.76
3175.11
3188.7
3202.5
3216.53
3230.79
3245.28
3260
3274.93
3290.07
3305.41
3320.95
3336.67
3352.58
3368.64
3384.85
3401.18
3417.61
3434.09
3450.58
3467.02
3483.34
3499.46
3515.15
3530.37
3544.69
3558.03
3569.62
3578.86
3585.34
3586.74
3577.24
3555.81
3504.26
2790
2790
2790
2790.01
2790.28
2793.7
2805.7
2820.42
2828.47
2830.77
2830.97
2830.62
2830.07
2829.28
2827.23
2823.91
2820.18
2816.22
2812.33
2808.41
2805.13
2802.04
2798.52
2794.72
2791.14
2788.01
2785.2
2782.69
2780.52
2778.64
2776.97
2775.55
2774.48
2773.82
2773.5
2773.48
2773.8
2774.56
2775.73
2777.34
2779.34
2781.66
2784.26
2787.14
2790.3
2793.76
2797.55
2801.7
2806.21
2811.07
2816.26
2821.79
2827.68
2833.93
2840.5
2847.39
2854.57
2862.01
2869.68
2877.55
2885.62
2893.85
2902.25
2910.81
2919.53
2928.4
2937.43
2946.61
2955.94
2965.43
2975.1
2984.95
2994.99
3005.23
3015.68
3026.32
3037.19
3048.27
3059.58
3071.1
3082.85
3094.84
3107.05
3119.5
3132.19
3145.12
3158.31
3171.75
3185.43
3199.37
3213.54
3227.97
3242.65
3257.58
3272.78
3288.22
3303.91
3319.84
3336.02
3352.44
3369.1
3385.99
3403.11
3420.43
3437.97
3455.68
3473.55
3491.54
3509.63
3527.76
3545.84
3563.79
3581.39
3598.62
3614.91
3630.32
3643.5
3654.21
3660.3
3656.17
3643.37
2790
2790
2790
2790.01
2790.41
2794.57
2807.39
2821.8
2829.32
2831.67
2832.11
2832.05
2831.73
2830.81
2828.26
2824.39
2820.17
2815.53
2810.65
2806.27
2802.88
2799.76
2796.36
2792.79
2789.49
2786.64
2784.14
2781.95
2780.1
2778.5
2777.1
2775.93
2775.11
2774.67
2774.55
2774.72
2775.27
2776.22
2777.57
2779.36
2781.55
2784.04
2786.81
2789.83
2793.11
2796.69
2800.59
2804.84
2809.44
2814.38
2819.66
2825.29
2831.28
2837.62
2844.3
2851.29
2858.57
2866.11
2873.9
2881.89
2890.07
2898.44
2906.97
2915.66
2924.52
2933.53
2942.7
2952.03
2961.51
2971.15
2980.97
2990.99
3001.2
3011.61
3022.22
3033.05
3044.1
3055.37
3066.87
3078.6
3090.56
3102.76
3115.2
3127.89
3140.83
3154.02
3167.48
3181.2
3195.19
3209.44
3223.95
3238.73
3253.78
3269.11
3284.73
3300.63
3316.8
3333.26
3349.99
3367.01
3384.32
3401.91
3419.79
3437.95
3456.4
3475.11
3494.1
3513.32
3532.79
3552.45
3572.32
3592.28
3612.26
3632.17
3651.74
3671.01
3689.08
3706.39
3720.31
3728.66
3737.87
2790
2790
2790
2790.02
2790.63
2795.79
2809.43
2823.36
2830.29
2832.7
2833.33
2833.44
2833.13
2831.76
2828.56
2824.2
2819.11
2813.43
2807.98
2803.65
2800.36
2797.32
2794.06
2790.73
2787.72
2785.18
2783.01
2781.16
2779.63
2778.31
2777.18
2776.27
2775.7
2775.47
2775.53
2775.92
2776.68
2777.79
2779.32
2781.31
2783.67
2786.33
2789.25
2792.41
2795.82
2799.51
2803.52
2807.87
2812.57
2817.6
2822.98
2828.71
2834.8
2841.24
2848.02
2855.11
2862.5
2870.15
2878.04
2886.14
2894.44
2902.91
2911.56
2920.38
2929.36
2938.5
2947.8
2957.26
2966.88
2976.66
2986.63
2996.79
3007.15
3017.72
3028.5
3039.49