/*--------------------------------*- C++ -*----------------------------------*\
| =========                 |                                                 |
| \\      /  F ield         | OpenFOAM: The Open Source CFD Toolbox           |
|  \\    /   O peration     | Version:  2412                                  |
|   \\  /    A nd           | Website:  www.openfoam.com                      |
|    \\/     M anipulation  |                                                 |
\*---------------------------------------------------------------------------*/
FoamFile
{
    version     2.0;
    format      ascii;
    arch        "LSB;label=32;scalar=64";
    class       volVectorField;
    location    "0.06";
    object      U;
}
// * * * * * * * * * * * * * * * * * * * * * * * * * * * * * * * * * * * * * //

dimensions      [0 1 -1 0 0 0 0];

internalField   nonuniform List<vector> 
78650
(
(209.267 0.414491 0)
(208.786 0.449911 0)
(208.569 0.600404 0)
(208.649 0.719699 0)
(209.097 0.642891 0)
(210.014 0.373081 0)
(210.967 0.0538737 0)
(211.708 -0.117954 0)
(212.232 -0.159421 0)
(212.406 -0.154279 0)
(212.248 -0.145719 0)
(211.656 -0.168419 0)
(210.699 -0.213283 0)
(209.713 -0.293417 0)
(208.966 -0.389445 0)
(208.497 -0.445999 0)
(208.251 -0.461232 0)
(208.137 -0.42389 0)
(208.122 -0.329642 0)
(208.198 -0.193077 0)
(208.329 -0.024888 0)
(208.541 0.136097 0)
(208.849 0.288248 0)
(209.252 0.414221 0)
(209.71 0.536293 0)
(210.203 0.650722 0)
(210.702 0.793844 0)
(211.212 0.959234 0)
(211.711 1.15079 0)
(212.185 1.37244 0)
(212.63 1.6256 0)
(213.049 1.91091 0)
(213.452 2.23003 0)
(213.843 2.58514 0)
(214.218 2.9758 0)
(214.577 3.40016 0)
(214.915 3.85932 0)
(215.234 4.35534 0)
(215.535 4.88863 0)
(215.82 5.46008 0)
(216.09 6.06928 0)
(216.344 6.71456 0)
(216.578 7.39622 0)
(216.792 8.11368 0)
(216.987 8.866 0)
(217.164 9.65206 0)
(217.32 10.4716 0)
(217.456 11.3251 0)
(217.57 12.2123 0)
(217.663 13.1332 0)
(217.734 14.0876 0)
(217.786 15.0753 0)
(217.819 16.096 0)
(217.833 17.1496 0)
(217.832 18.236 0)
(217.815 19.3547 0)
(217.786 20.5059 0)
(217.745 21.69 0)
(217.693 22.908 0)
(217.632 24.1605 0)
(217.564 25.4479 0)
(217.492 26.7702 0)
(217.42 28.1279 0)
(217.348 29.5223 0)
(217.281 30.9547 0)
(217.219 32.4265 0)
(217.169 33.9385 0)
(217.134 35.491 0)
(217.12 37.0847 0)
(217.128 38.721 0)
(217.172 40.4027 0)
(217.247 42.1304 0)
(217.362 43.9049 0)
(217.532 45.7279 0)
(217.75 47.5988 0)
(218.04 49.5204 0)
(218.404 51.4926 0)
(218.843 53.5153 0)
(219.389 55.5892 0)
(220.029 57.7118 0)
(220.805 59.8818 0)
(221.705 62.0967 0)
(222.762 64.3549 0)
(223.989 66.6525 0)
(225.391 68.9848 0)
(227.01 71.3417 0)
(228.83 73.7191 0)
(230.929 76.0869 0)
(233.237 78.4434 0)
(235.902 80.7448 0)
(238.772 83.0646 0)
(242.105 85.3056 0)
(245.61 87.5757 0)
(249.658 89.5762 0)
(253.881 91.5615 0)
(258.699 93.1937 0)
(263.783 94.7362 0)
(269.268 96.0424 0)
(274.981 97.1016 0)
(281.598 97.8029 0)
(288.54 98.1315 0)
(295.229 98.16 0)
(301.723 97.9601 0)
(308.9 97.3156 0)
(315.963 96.3894 0)
(323.034 95.1456 0)
(329.798 93.7115 0)
(336.342 91.9161 0)
(342.708 89.8478 0)
(349.059 87.5027 0)
(355.081 85.2345 0)
(361.554 82.568 0)
(366.908 80.3173 0)
(372.401 77.783 0)
(376.26 75.4557 0)
(378.629 73.41 0)
(380.534 71.2344 0)
(382.779 70.0038 0)
(387.32 69.0306 0)
(395.067 67.8605 0)
(397.867 72.0035 0)
(209.416 0.319982 0)
(208.857 0.399463 0)
(208.554 0.593544 0)
(208.578 0.701664 0)
(208.881 0.676792 0)
(209.744 0.485362 0)
(210.796 0.199886 0)
(211.659 0.0405811 0)
(212.225 -0.0410371 0)
(212.571 0.0218837 0)
(212.67 0.10389 0)
(212.476 0.195773 0)
(211.83 0.238013 0)
(210.922 0.216743 0)
(210.067 0.141062 0)
(209.454 0.0392447 0)
(209.058 -0.0352797 0)
(208.81 -0.0489495 0)
(208.644 0.00495497 0)
(208.584 0.118418 0)
(208.641 0.25049 0)
(208.768 0.394815 0)
(208.991 0.527578 0)
(209.327 0.633918 0)
(209.729 0.739242 0)
(210.179 0.841693 0)
(210.647 0.973873 0)
(211.135 1.13111 0)
(211.623 1.31533 0)
(212.091 1.53301 0)
(212.531 1.78208 0)
(212.936 2.05978 0)
(213.312 2.36691 0)
(213.67 2.70818 0)
(214.017 3.08662 0)
(214.355 3.49937 0)
(214.671 3.94826 0)
(214.967 4.43309 0)
(215.245 4.95375 0)
(215.504 5.51209 0)
(215.749 6.10772 0)
(215.978 6.73902 0)
(216.188 7.40614 0)
(216.378 8.1082 0)
(216.549 8.84448 0)
(216.702 9.61411 0)
(216.834 10.4169 0)
(216.945 11.2531 0)
(217.034 12.1225 0)
(217.102 13.0252 0)
(217.147 13.9609 0)
(217.173 14.9295 0)
(217.178 15.9305 0)
(217.165 16.964 0)
(217.134 18.0299 0)
(217.087 19.1277 0)
(217.025 20.2576 0)
(216.951 21.4199 0)
(216.865 22.6154 0)
(216.767 23.8449 0)
(216.66 25.1089 0)
(216.547 26.4075 0)
(216.43 27.7413 0)
(216.312 29.1111 0)
(216.195 30.5184 0)
(216.08 31.9647 0)
(215.972 33.4511 0)
(215.876 34.9783 0)
(215.794 36.5464 0)
(215.73 38.1571 0)
(215.695 39.8135 0)
(215.686 41.516 0)
(215.708 43.2662 0)
(215.778 45.0662 0)
(215.888 46.9153 0)
(216.06 48.8171 0)
(216.296 50.7717 0)
(216.596 52.7799 0)
(216.99 54.8436 0)
(217.465 56.9611 0)
(218.064 59.1332 0)
(218.769 61.358 0)
(219.618 63.6354 0)
(220.619 65.9611 0)
(221.781 68.3298 0)
(223.145 70.7349 0)
(224.699 73.1739 0)
(226.516 75.628 0)
(228.535 78.1025 0)
(230.894 80.5724 0)
(233.454 83.0772 0)
(236.437 85.518 0)
(239.59 87.9455 0)
(243.266 90.153 0)
(247.054 92.3715 0)
(251.394 94.2912 0)
(255.87 96.2457 0)
(260.95 97.9165 0)
(266.558 99.4261 0)
(272.411 100.517 0)
(278.297 101.431 0)
(284.817 102.065 0)
(291.553 102.342 0)
(299.089 102.21 0)
(306.166 101.697 0)
(313.684 100.686 0)
(320.899 99.4859 0)
(328.015 97.98 0)
(334.917 96.2427 0)
(341.407 94.4121 0)
(347.714 92.3986 0)
(354.057 90.0051 0)
(359.657 87.9043 0)
(365.731 85.3729 0)
(370.482 83.0199 0)
(373.963 80.6832 0)
(376.491 78.0723 0)
(378.658 76.2409 0)
(383.135 74.7522 0)
(391.578 73.4357 0)
(395.011 78.0426 0)
(209.55 0.23478 0)
(208.964 0.355386 0)
(208.558 0.573379 0)
(208.52 0.665696 0)
(208.686 0.690007 0)
(209.419 0.567224 0)
(210.503 0.31088 0)
(211.487 0.16462 0)
(212.167 0.0877769 0)
(212.571 0.115399 0)
(212.771 0.247451 0)
(212.815 0.378964 0)
(212.54 0.53187 0)
(211.923 0.637437 0)
(211.185 0.649947 0)
(210.512 0.582495 0)
(209.967 0.501353 0)
(209.551 0.451591 0)
(209.248 0.468029 0)
(209.063 0.526912 0)
(209.018 0.615046 0)
(209.088 0.71506 0)
(209.221 0.82172 0)
(209.466 0.899377 0)
(209.802 0.980504 0)
(210.2 1.06484 0)
(210.625 1.17363 0)
(211.073 1.31213 0)
(211.532 1.48105 0)
(211.981 1.6858 0)
(212.405 1.92343 0)
(212.801 2.19365 0)
(213.167 2.49366 0)
(213.502 2.81899 0)
(213.819 3.17783 0)
(214.128 3.57437 0)
(214.421 4.01068 0)
(214.696 4.48365 0)
(214.953 4.99183 0)
(215.188 5.53699 0)
(215.409 6.11895 0)
(215.614 6.73684 0)
(215.8 7.39066 0)
(215.966 8.07937 0)
(216.114 8.80217 0)
(216.243 9.55806 0)
(216.35 10.3466 0)
(216.437 11.1679 0)
(216.501 12.0221 0)
(216.542 12.909 0)
(216.561 13.8284 0)
(216.559 14.7803 0)
(216.536 15.7645 0)
(216.493 16.7805 0)
(216.432 17.8288 0)
(216.353 18.9085 0)
(216.258 20.0199 0)
(216.149 21.1633 0)
(216.026 22.3394 0)
(215.89 23.549 0)
(215.744 24.7926 0)
(215.588 26.0705 0)
(215.426 27.3832 0)
(215.261 28.7312 0)
(215.094 30.1163 0)
(214.926 31.5396 0)
(214.76 33.0027 0)
(214.602 34.5064 0)
(214.454 36.051 0)
(214.32 37.6373 0)
(214.21 39.2692 0)
(214.118 40.9468 0)
(214.054 42.6719 0)
(214.029 44.4471 0)
(214.037 46.2714 0)
(214.099 48.1488 0)
(214.215 50.0792 0)
(214.387 52.0638 0)
(214.641 54.1054 0)
(214.965 56.2022 0)
(215.398 58.3561 0)
(215.925 60.5644 0)
(216.58 62.8278 0)
(217.37 65.144 0)
(218.303 67.5112 0)
(219.415 69.9273 0)
(220.696 72.3902 0)
(222.209 74.8882 0)
(223.904 77.4241 0)
(225.907 79.9767 0)
(228.094 82.5571 0)
(230.67 85.0892 0)
(233.416 87.6104 0)
(236.653 90.0221 0)
(240.05 92.4981 0)
(244.088 94.7875 0)
(248.294 97.1264 0)
(253.066 99.1059 0)
(258.009 101.017 0)
(263.447 102.638 0)
(269.473 104.048 0)
(275.821 105.041 0)
(282.402 105.713 0)
(288.959 106.099 0)
(296.166 106.153 0)
(303.129 105.842 0)
(310.964 105.007 0)
(318.009 104 0)
(325.77 102.433 0)
(332.684 100.815 0)
(339.517 98.9693 0)
(346.22 96.8392 0)
(352.155 94.9823 0)
(358.461 92.6597 0)
(363.482 90.4168 0)
(367.354 88.0049 0)
(370.286 85.2865 0)
(373.034 83.5866 0)
(378.451 82.18 0)
(387.793 80.7614 0)
(391.545 85.5347 0)
(209.671 0.161684 0)
(209.089 0.302898 0)
(208.591 0.537572 0)
(208.476 0.636474 0)
(208.534 0.701494 0)
(209.108 0.635596 0)
(210.126 0.389834 0)
(211.171 0.239464 0)
(211.982 0.182182 0)
(212.508 0.214111 0)
(212.759 0.323482 0)
(212.865 0.476955 0)
(212.813 0.675043 0)
(212.494 0.878907 0)
(212.011 1.02603 0)
(211.484 1.07356 0)
(210.97 1.03856 0)
(210.515 0.982143 0)
(210.132 0.964775 0)
(209.827 0.982425 0)
(209.638 1.03466 0)
(209.58 1.10884 0)
(209.642 1.17431 0)
(209.775 1.23028 0)
(210.007 1.28305 0)
(210.328 1.34365 0)
(210.694 1.42281 0)
(211.087 1.53901 0)
(211.504 1.68965 0)
(211.921 1.87894 0)
(212.323 2.10483 0)
(212.702 2.36422 0)
(213.053 2.6528 0)
(213.378 2.9721 0)
(213.67 3.31665 0)
(213.94 3.69612 0)
(214.197 4.11532 0)
(214.445 4.57326 0)
(214.676 5.06817 0)
(214.885 5.59903 0)
(215.079 6.1651 0)
(215.256 6.76657 0)
(215.415 7.40339 0)
(215.554 8.07466 0)
(215.677 8.77962 0)
(215.779 9.51733 0)
(215.861 10.2873 0)
(215.922 11.0898 0)
(215.961 11.9248 0)
(215.977 12.7921 0)
(215.969 13.6916 0)
(215.94 14.623 0)
(215.89 15.5862 0)
(215.82 16.5805 0)
(215.729 17.6074 0)
(215.62 18.6649 0)
(215.494 19.7538 0)
(215.353 20.8743 0)
(215.196 22.0268 0)
(215.025 23.2122 0)
(214.842 24.4311 0)
(214.647 25.6839 0)
(214.444 26.9712 0)
(214.234 28.2931 0)
(214.02 29.6515 0)
(213.803 31.0476 0)
(213.584 32.4826 0)
(213.369 33.9579 0)
(213.158 35.4744 0)
(212.958 37.0318 0)
(212.775 38.6347 0)
(212.606 40.2834 0)
(212.459 41.979 0)
(212.342 43.7254 0)
(212.25 45.5212 0)
(212.206 47.3712 0)
(212.204 49.2753 0)
(212.249 51.2352 0)
(212.365 53.255 0)
(212.538 55.3331 0)
(212.807 57.4733 0)
(213.155 59.6729 0)
(213.618 61.9349 0)
(214.198 64.2585 0)
(214.905 66.643 0)
(215.772 69.0867 0)
(216.792 71.5858 0)
(218.026 74.1317 0)
(219.434 76.7235 0)
(221.127 79.3457 0)
(222.993 82.0041 0)
(225.22 84.6531 0)
(227.621 87.3249 0)
(230.491 89.9475 0)
(233.528 92.6113 0)
(237.121 95.1298 0)
(240.816 97.6959 0)
(245.147 99.9722 0)
(249.646 102.257 0)
(254.774 104.212 0)
(260.269 105.993 0)
(266.054 107.42 0)
(272.68 108.74 0)
(278.945 109.581 0)
(286.494 110.198 0)
(293.111 110.47 0)
(300.995 110.281 0)
(308.389 109.753 0)
(315.842 108.88 0)
(323.728 107.474 0)
(330.918 105.916 0)
(338.317 103.916 0)
(345.1 102.02 0)
(352.383 99.5569 0)
(358.272 97.3052 0)
(363.543 94.3867 0)
(366.651 91.6443 0)
(368.802 89.5226 0)
(373.231 88.4602 0)
(383.331 87.1036 0)
(387.037 93.1462 0)
(209.776 0.103602 0)
(209.234 0.245709 0)
(208.659 0.489174 0)
(208.452 0.617394 0)
(208.428 0.70988 0)
(208.832 0.683079 0)
(209.735 0.455306 0)
(210.767 0.288807 0)
(211.655 0.229562 0)
(212.316 0.284541 0)
(212.702 0.388482 0)
(212.831 0.54093 0)
(212.842 0.740855 0)
(212.691 0.978864 0)
(212.417 1.22039 0)
(212.116 1.40259 0)
(211.779 1.49266 0)
(211.399 1.52046 0)
(210.999 1.5254 0)
(210.618 1.53263 0)
(210.317 1.55955 0)
(210.14 1.59605 0)
(210.103 1.61872 0)
(210.156 1.63645 0)
(210.293 1.64701 0)
(210.527 1.67286 0)
(210.828 1.7163 0)
(211.16 1.80331 0)
(211.517 1.92683 0)
(211.882 2.08978 0)
(212.244 2.29171 0)
(212.593 2.53003 0)
(212.924 2.80155 0)
(213.229 3.10423 0)
(213.508 3.44061 0)
(213.756 3.80706 0)
(213.98 4.2039 0)
(214.194 4.64 0)
(214.396 5.1184 0)
(214.58 5.63453 0)
(214.749 6.18476 0)
(214.898 6.7695 0)
(215.03 7.38945 0)
(215.144 8.04466 0)
(215.24 8.73407 0)
(215.315 9.45604 0)
(215.37 10.2095 0)
(215.405 10.9947 0)
(215.417 11.8118 0)
(215.406 12.6609 0)
(215.371 13.5419 0)
(215.315 14.4542 0)
(215.236 15.399 0)
(215.136 16.3737 0)
(215.014 17.3809 0)
(214.873 18.4176 0)
(214.714 19.486 0)
(214.538 20.586 0)
(214.346 21.7172 0)
(214.138 22.8806 0)
(213.915 24.0771 0)
(213.679 25.3071 0)
(213.433 26.5707 0)
(213.178 27.8686 0)
(212.916 29.2023 0)
(212.648 30.573 0)
(212.376 31.982 0)
(212.103 33.4312 0)
(211.83 34.9218 0)
(211.565 36.4508 0)
(211.311 38.0244 0)
(211.065 39.6447 0)
(210.838 41.3108 0)
(210.633 43.0278 0)
(210.448 44.7938 0)
(210.303 46.6136 0)
(210.192 48.4872 0)
(210.121 50.4159 0)
(210.109 52.4051 0)
(210.145 54.4526 0)
(210.264 56.5635 0)
(210.45 58.7344 0)
(210.738 60.9698 0)
(211.126 63.2685 0)
(211.624 65.6307 0)
(212.263 68.0563 0)
(213.037 70.5434 0)
(214 73.0909 0)
(215.112 75.7004 0)
(216.476 78.3633 0)
(217.998 81.0751 0)
(219.854 83.8074 0)
(221.876 86.5875 0)
(224.325 89.3813 0)
(226.946 92.2358 0)
(230.101 95.0009 0)
(233.41 97.7801 0)
(237.359 100.323 0)
(241.422 102.904 0)
(246.096 105.169 0)
(250.998 107.428 0)
(256.529 109.421 0)
(262.444 111.161 0)
(268.827 112.523 0)
(275.487 113.602 0)
(282.795 114.338 0)
(289.741 114.722 0)
(297.861 114.736 0)
(305.06 114.408 0)
(312.915 113.611 0)
(320.554 112.534 0)
(327.883 111.18 0)
(335.232 109.577 0)
(342.64 107.578 0)
(348.917 105.77 0)
(355.177 103.254 0)
(359.541 100.408 0)
(363.189 97.7954 0)
(368.868 95.4948 0)
(379.283 93.7564 0)
(383.264 99.3498 0)
(209.859 0.0607646 0)
(209.389 0.185107 0)
(208.76 0.429775 0)
(208.438 0.60095 0)
(208.35 0.693303 0)
(208.604 0.710174 0)
(209.376 0.527085 0)
(210.352 0.347604 0)
(211.244 0.260524 0)
(211.989 0.309174 0)
(212.517 0.423053 0)
(212.755 0.597232 0)
(212.8 0.778802 0)
(212.715 1.03001 0)
(212.526 1.30017 0)
(212.352 1.5572 0)
(212.199 1.76391 0)
(212.019 1.91541 0)
(211.765 2.01045 0)
(211.467 2.06842 0)
(211.157 2.1092 0)
(210.906 2.12716 0)
(210.769 2.12268 0)
(210.743 2.09807 0)
(210.787 2.07642 0)
(210.909 2.06464 0)
(211.11 2.07455 0)
(211.355 2.12974 0)
(211.636 2.22368 0)
(211.94 2.35899 0)
(212.253 2.53564 0)
(212.562 2.75091 0)
(212.857 3.00129 0)
(213.13 3.28631 0)
(213.381 3.60531 0)
(213.606 3.95803 0)
(213.809 4.34428 0)
(213.984 4.75609 0)
(214.143 5.21117 0)
(214.294 5.70864 0)
(214.432 6.242 0)
(214.551 6.80837 0)
(214.652 7.40779 0)
(214.734 8.04165 0)
(214.801 8.70977 0)
(214.847 9.41074 0)
(214.874 10.1434 0)
(214.881 10.9079 0)
(214.865 11.7042 0)
(214.827 12.5317 0)
(214.764 13.3913 0)
(214.68 14.281 0)
(214.572 15.2031 0)
(214.445 16.1518 0)
(214.294 17.1354 0)
(214.122 18.1494 0)
(213.931 19.1936 0)
(213.723 20.268 0)
(213.498 21.3734 0)
(213.256 22.5104 0)
(212.997 23.68 0)
(212.724 24.8825 0)
(212.437 26.1184 0)
(212.14 27.3881 0)
(211.834 28.6926 0)
(211.519 30.0336 0)
(211.196 31.4128 0)
(210.869 32.8309 0)
(210.541 34.2881 0)
(210.215 35.786 0)
(209.894 37.3273 0)
(209.574 38.9168 0)
(209.272 40.5476 0)
(208.983 42.2297 0)
(208.708 43.9617 0)
(208.465 45.7478 0)
(208.247 47.5888 0)
(208.062 49.4847 0)
(207.924 51.4425 0)
(207.824 53.4602 0)
(207.794 55.5445 0)
(207.817 57.692 0)
(207.929 59.9084 0)
(208.125 62.193 0)
(208.417 64.5472 0)
(208.832 66.9735 0)
(209.365 69.4715 0)
(210.063 72.0418 0)
(210.897 74.6801 0)
(211.961 77.378 0)
(213.173 80.1311 0)
(214.693 82.9345 0)
(216.365 85.8056 0)
(218.423 88.7036 0)
(220.637 91.6314 0)
(223.327 94.4943 0)
(226.154 97.3789 0)
(229.581 100.155 0)
(233.128 103.007 0)
(237.383 105.649 0)
(241.819 108.32 0)
(246.868 110.66 0)
(252.311 112.937 0)
(258.352 114.915 0)
(264.519 116.482 0)
(271.724 117.954 0)
(278.671 118.81 0)
(286.242 119.468 0)
(294.572 119.618 0)
(301.803 119.428 0)
(310.722 118.635 0)
(318.039 117.781 0)
(326.524 116.178 0)
(333.742 114.727 0)
(340.673 113.145 0)
(347.011 111.182 0)
(351.396 108.666 0)
(354.813 106.332 0)
(360.368 104.705 0)
(371.511 102.947 0)
(375.327 109.306 0)
(209.919 0.03212 0)
(209.544 0.129074 0)
(208.901 0.36306 0)
(208.45 0.569569 0)
(208.287 0.661611 0)
(208.428 0.723003 0)
(209.057 0.602038 0)
(209.957 0.412661 0)
(210.813 0.284994 0)
(211.579 0.315053 0)
(212.207 0.432139 0)
(212.585 0.605648 0)
(212.701 0.820711 0)
(212.668 1.04464 0)
(212.519 1.33076 0)
(212.353 1.61343 0)
(212.246 1.86037 0)
(212.185 2.07626 0)
(212.106 2.26859 0)
(211.993 2.44192 0)
(211.813 2.57748 0)
(211.612 2.6467 0)
(211.443 2.6619 0)
(211.34 2.62884 0)
(211.319 2.56984 0)
(211.34 2.52933 0)
(211.439 2.49938 0)
(211.605 2.51118 0)
(211.814 2.56493 0)
(212.05 2.66297 0)
(212.3 2.80399 0)
(212.552 2.98599 0)
(212.798 3.20678 0)
(213.033 3.46583 0)
(213.249 3.76132 0)
(213.447 4.09416 0)
(213.624 4.45992 0)
(213.783 4.86321 0)
(213.906 5.28856 0)
(214.017 5.76076 0)
(214.12 6.2749 0)
(214.209 6.82254 0)
(214.28 7.40279 0)
(214.332 8.01755 0)
(214.368 8.6667 0)
(214.384 9.34826 0)
(214.38 10.0606 0)
(214.358 10.804 0)
(214.313 11.5791 0)
(214.246 12.385 0)
(214.154 13.2233 0)
(214.042 14.0886 0)
(213.904 14.9883 0)
(213.744 15.9195 0)
(213.562 16.8801 0)
(213.358 17.8707 0)
(213.135 18.8915 0)
(212.892 19.9426 0)
(212.631 21.0242 0)
(212.352 22.1369 0)
(212.056 23.2816 0)
(211.742 24.4588 0)
(211.414 25.6688 0)
(211.073 26.912 0)
(210.72 28.1893 0)
(210.357 29.5022 0)
(209.984 30.8523 0)
(209.603 32.2406 0)
(209.216 33.6685 0)
(208.827 35.1368 0)
(208.439 36.6474 0)
(208.055 38.1998 0)
(207.678 39.7986 0)
(207.306 41.4481 0)
(206.945 43.1462 0)
(206.61 44.8936 0)
(206.289 46.6985 0)
(206.001 48.5564 0)
(205.747 50.4765 0)
(205.523 52.4554 0)
(205.359 54.5008 0)
(205.235 56.6089 0)
(205.19 58.7863 0)
(205.213 61.0322 0)
(205.319 63.3492 0)
(205.529 65.7408 0)
(205.84 68.2066 0)
(206.292 70.7489 0)
(206.861 73.3651 0)
(207.63 76.0576 0)
(208.527 78.824 0)
(209.697 81.6646 0)
(211 84.5777 0)
(212.651 87.541 0)
(214.448 90.5591 0)
(216.696 93.5902 0)
(219.109 96.6853 0)
(222.104 99.7447 0)
(225.255 102.865 0)
(229.063 105.828 0)
(233.012 108.847 0)
(237.652 111.59 0)
(242.502 114.292 0)
(247.946 116.709 0)
(253.986 118.97 0)
(260.162 120.736 0)
(267.444 122.423 0)
(274.072 123.478 0)
(282.208 124.445 0)
(289.819 124.87 0)
(297.781 124.853 0)
(306.241 124.344 0)
(314.456 123.51 0)
(323.742 121.871 0)
(331.327 120.237 0)
(339.994 117.457 0)
(345.226 114.863 0)
(349.216 112.102 0)
(354.598 111.022 0)
(366.704 109.95 0)
(370.198 118.474 0)
(209.958 0.0149802 0)
(209.685 0.0809045 0)
(209.068 0.287315 0)
(208.503 0.520912 0)
(208.237 0.62912 0)
(208.3 0.731052 0)
(208.768 0.658861 0)
(209.578 0.471316 0)
(210.403 0.320958 0)
(211.158 0.34023 0)
(211.824 0.450003 0)
(212.317 0.613885 0)
(212.528 0.837459 0)
(212.572 1.0616 0)
(212.471 1.33172 0)
(212.3 1.62599 0)
(212.187 1.88947 0)
(212.129 2.12067 0)
(212.091 2.35177 0)
(212.078 2.58908 0)
(212.052 2.80457 0)
(212.017 2.97032 0)
(211.959 3.08318 0)
(211.923 3.1085 0)
(211.91 3.07771 0)
(211.922 3.02737 0)
(211.958 2.98053 0)
(212.038 2.95166 0)
(212.155 2.96684 0)
(212.299 3.02689 0)
(212.468 3.13156 0)
(212.65 3.28105 0)
(212.836 3.47245 0)
(213.017 3.70328 0)
(213.187 3.97261 0)
(213.342 4.27983 0)
(213.485 4.62436 0)
(213.607 5.00092 0)
(213.712 5.41839 0)
(213.778 5.859 0)
(213.834 6.34828 0)
(213.885 6.87397 0)
(213.922 7.43025 0)
(213.94 8.01918 0)
(213.941 8.64265 0)
(213.923 9.29945 0)
(213.887 9.98871 0)
(213.833 10.7088 0)
(213.756 11.4609 0)
(213.66 12.2413 0)
(213.539 13.0533 0)
(213.395 13.8983 0)
(213.227 14.7724 0)
(213.038 15.6759 0)
(212.826 16.6095 0)
(212.592 17.5734 0)
(212.337 18.5673 0)
(212.061 19.591 0)
(211.767 20.6447 0)
(211.454 21.7288 0)
(211.122 22.8442 0)
(210.772 23.9914 0)
(210.406 25.171 0)
(210.024 26.3833 0)
(209.629 27.629 0)
(209.221 28.9095 0)
(208.801 30.2264 0)
(208.369 31.5807 0)
(207.93 32.9735 0)
(207.484 34.4059 0)
(207.036 35.8796 0)
(206.585 37.3969 0)
(206.135 38.9598 0)
(205.688 40.5693 0)
(205.251 42.226 0)
(204.829 43.9334 0)
(204.404 45.7048 0)
(204.015 47.5193 0)
(203.646 49.398 0)
(203.302 51.3371 0)
(203.004 53.3445 0)
(202.734 55.4169 0)
(202.531 57.5608 0)
(202.379 59.7756 0)
(202.3 62.0649 0)
(202.305 64.4332 0)
(202.397 66.8805 0)
(202.61 69.4117 0)
(202.924 72.0241 0)
(203.413 74.7227 0)
(204.015 77.5007 0)
(204.861 80.3631 0)
(205.826 83.3013 0)
(207.109 86.3074 0)
(208.529 89.3769 0)
(210.358 92.4937 0)
(212.335 95.6873 0)
(214.824 98.8983 0)
(217.453 102.18 0)
(220.705 105.391 0)
(224.117 108.658 0)
(228.23 111.751 0)
(232.571 114.889 0)
(237.613 117.733 0)
(242.972 120.486 0)
(249.008 123.011 0)
(255.535 125.237 0)
(262.698 126.956 0)
(269.819 128.397 0)
(278.175 129.683 0)
(285.562 130.43 0)
(294.105 130.554 0)
(301.732 130.656 0)
(310.654 129.988 0)
(318.328 129.228 0)
(327.637 127.465 0)
(334.171 125.281 0)
(339.732 122.391 0)
(346.146 119.955 0)
(358.579 117.963 0)
(362.372 125.115 0)
(209.981 0.00603428 0)
(209.802 0.0447707 0)
(209.258 0.209977 0)
(208.603 0.455477 0)
(208.209 0.614058 0)
(208.208 0.701864 0)
(208.506 0.679939 0)
(209.209 0.526865 0)
(210.02 0.378486 0)
(210.763 0.387856 0)
(211.423 0.481059 0)
(211.969 0.624219 0)
(212.294 0.823214 0)
(212.391 1.07269 0)
(212.382 1.32526 0)
(212.222 1.62349 0)
(212.086 1.90642 0)
(212.032 2.16379 0)
(212.01 2.40827 0)
(212.006 2.64233 0)
(212.004 2.87647 0)
(212.04 3.09651 0)
(212.081 3.28631 0)
(212.166 3.38788 0)
(212.264 3.43771 0)
(212.349 3.45116 0)
(212.413 3.43601 0)
(212.467 3.41387 0)
(212.529 3.41167 0)
(212.6 3.43847 0)
(212.688 3.50295 0)
(212.791 3.61068 0)
(212.907 3.76075 0)
(213.027 3.95227 0)
(213.144 4.18567 0)
(213.252 4.46125 0)
(213.351 4.77574 0)
(213.439 5.12706 0)
(213.505 5.51456 0)
(213.553 5.94962 0)
(213.567 6.40285 0)
(213.575 6.90151 0)
(213.575 7.43709 0)
(213.561 8.00483 0)
(213.527 8.60515 0)
(213.474 9.23742 0)
(213.403 9.90201 0)
(213.317 10.5943 0)
(213.209 11.321 0)
(213.08 12.0792 0)
(212.928 12.8678 0)
(212.753 13.6863 0)
(212.554 14.5352 0)
(212.333 15.4142 0)
(212.088 16.323 0)
(211.821 17.2614 0)
(211.532 18.2294 0)
(211.222 19.2268 0)
(210.892 20.2538 0)
(210.543 21.3107 0)
(210.173 22.3983 0)
(209.785 23.5174 0)
(209.377 24.6683 0)
(208.953 25.8513 0)
(208.514 27.0672 0)
(208.059 28.3169 0)
(207.591 29.602 0)
(207.109 30.9237 0)
(206.615 32.2834 0)
(206.111 33.6819 0)
(205.601 35.1207 0)
(205.086 36.6011 0)
(204.568 38.1255 0)
(204.048 39.6963 0)
(203.531 41.3159 0)
(203.018 42.9869 0)
(202.516 44.7059 0)
(202.03 46.4803 0)
(201.551 48.3177 0)
(201.096 50.2111 0)
(200.677 52.1678 0)
(200.275 54.1918 0)
(199.933 56.286 0)
(199.626 58.4515 0)
(199.382 60.6902 0)
(199.206 63.008 0)
(199.103 65.4057 0)
(199.097 67.8895 0)
(199.176 70.4579 0)
(199.401 73.1199 0)
(199.719 75.8689 0)
(200.248 78.7159 0)
(200.877 81.647 0)
(201.791 84.6722 0)
(202.823 87.7896 0)
(204.216 91.0052 0)
(205.744 94.3197 0)
(207.744 97.6825 0)
(209.889 101.104 0)
(212.615 104.5 0)
(215.495 107.952 0)
(219.046 111.309 0)
(222.79 114.714 0)
(227.251 117.938 0)
(231.999 121.185 0)
(237.415 124.117 0)
(243.314 126.958 0)
(249.947 129.543 0)
(257.018 131.58 0)
(264.747 133.452 0)
(273.217 134.883 0)
(281.359 135.652 0)
(290.203 136.117 0)
(298.773 136.222 0)
(307.504 135.858 0)
(315.688 135.074 0)
(322.518 133.732 0)
(328.049 131.573 0)
(333.946 130.104 0)
(347.214 128.099 0)
(350.652 136.652 0)
(209.992 0.00204213 0)
(209.889 0.0211859 0)
(209.452 0.138969 0)
(208.747 0.377468 0)
(208.217 0.573537 0)
(208.15 0.647486 0)
(208.286 0.677624 0)
(208.86 0.594826 0)
(209.652 0.45264 0)
(210.386 0.442246 0)
(211.025 0.515804 0)
(211.583 0.640957 0)
(211.992 0.815537 0)
(212.158 1.05749 0)
(212.213 1.30038 0)
(212.104 1.59677 0)
(211.943 1.8942 0)
(211.868 2.16623 0)
(211.854 2.42657 0)
(211.877 2.68383 0)
(211.904 2.93764 0)
(211.948 3.16605 0)
(212.007 3.35042 0)
(212.118 3.48975 0)
(212.276 3.59556 0)
(212.452 3.66844 0)
(212.62 3.72014 0)
(212.76 3.76271 0)
(212.866 3.80038 0)
(212.944 3.84145 0)
(213.003 3.90125 0)
(213.056 3.98816 0)
(213.109 4.1079 0)
(213.163 4.26517 0)
(213.213 4.46374 0)
(213.256 4.70487 0)
(213.294 4.98545 0)
(213.326 5.30356 0)
(213.346 5.66225 0)
(213.347 6.06347 0)
(213.34 6.51043 0)
(213.301 6.96731 0)
(213.253 7.47031 0)
(213.199 8.00799 0)
(213.127 8.57944 0)
(213.037 9.18565 0)
(212.93 9.82407 0)
(212.806 10.4943 0)
(212.664 11.1941 0)
(212.501 11.924 0)
(212.317 12.6841 0)
(212.11 13.4748 0)
(211.88 14.2955 0)
(211.626 15.1458 0)
(211.35 16.0256 0)
(211.051 16.9348 0)
(210.729 17.8733 0)
(210.386 18.841 0)
(210.023 19.8377 0)
(209.639 20.8638 0)
(209.235 21.9199 0)
(208.81 23.0066 0)
(208.366 24.1245 0)
(207.903 25.274 0)
(207.423 26.4556 0)
(206.927 27.6701 0)
(206.414 28.9191 0)
(205.885 30.2038 0)
(205.342 31.5255 0)
(204.786 32.8852 0)
(204.221 34.2841 0)
(203.646 35.724 0)
(203.063 37.207 0)
(202.475 38.7349 0)
(201.884 40.31 0)
(201.293 41.9342 0)
(200.704 43.6109 0)
(200.12 45.3419 0)
(199.547 47.128 0)
(198.989 48.9723 0)
(198.451 50.8806 0)
(197.913 52.8629 0)
(197.432 54.9052 0)
(196.967 57.0247 0)
(196.561 59.2182 0)
(196.202 61.4944 0)
(195.904 63.8523 0)
(195.684 66.2991 0)
(195.533 68.8337 0)
(195.505 71.4666 0)
(195.555 74.1896 0)
(195.79 77.0171 0)
(196.108 79.9341 0)
(196.68 82.9613 0)
(197.348 86.0849 0)
(198.336 89.3137 0)
(199.437 92.6292 0)
(200.96 96.019 0)
(202.608 99.4892 0)
(204.796 103.013 0)
(207.138 106.625 0)
(210.113 110.239 0)
(213.294 113.931 0)
(217.183 117.528 0)
(221.326 121.174 0)
(226.201 124.603 0)
(231.434 127.956 0)
(237.353 131.036 0)
(243.929 133.985 0)
(250.742 136.293 0)
(258.79 138.758 0)
(266.691 140.417 0)
(275.664 141.72 0)
(284.948 142.422 0)
(294.894 142.437 0)
(304.599 141.682 0)
(312.933 140.235 0)
(320.242 137.656 0)
(326.707 136.466 0)
(340.45 135.72 0)
(343.356 146.551 0)
(209.997 0.000559423 0)
(209.945 0.00830705 0)
(209.63 0.0813598 0)
(208.938 0.290706 0)
(208.278 0.50509 0)
(208.109 0.603576 0)
(208.114 0.676399 0)
(208.54 0.651095 0)
(209.285 0.514622 0)
(210.013 0.483269 0)
(210.632 0.542771 0)
(211.18 0.659649 0)
(211.64 0.81217 0)
(211.898 1.02449 0)
(211.981 1.27403 0)
(211.949 1.54296 0)
(211.777 1.8399 0)
(211.66 2.12417 0)
(211.635 2.39962 0)
(211.668 2.67442 0)
(211.709 2.95737 0)
(211.786 3.20298 0)
(211.881 3.41168 0)
(212.009 3.56487 0)
(212.172 3.66812 0)
(212.363 3.75185 0)
(212.564 3.8375 0)
(212.76 3.9284 0)
(212.938 4.01565 0)
(213.082 4.10611 0)
(213.183 4.20495 0)
(213.248 4.31249 0)
(213.285 4.43507 0)
(213.302 4.57997 0)
(213.304 4.75466 0)
(213.293 4.96401 0)
(213.276 5.20901 0)
(213.253 5.48947 0)
(213.221 5.81051 0)
(213.176 6.17629 0)
(213.116 6.58193 0)
(213.055 7.03306 0)
(212.964 7.50043 0)
(212.865 8.0117 0)
(212.753 8.55658 0)
(212.624 9.13385 0)
(212.479 9.74221 0)
(212.317 10.381 0)
(212.138 11.0509 0)
(211.941 11.7517 0)
(211.722 12.4835 0)
(211.48 13.2459 0)
(211.216 14.0383 0)
(210.929 14.8603 0)
(210.619 15.7116 0)
(210.287 16.5919 0)
(209.931 17.5013 0)
(209.554 18.4396 0)
(209.155 19.4066 0)
(208.735 20.4025 0)
(208.294 21.4279 0)
(207.832 22.4834 0)
(207.348 23.5697 0)
(206.845 24.687 0)
(206.322 25.8357 0)
(205.781 27.0167 0)
(205.223 28.2311 0)
(204.646 29.4802 0)
(204.053 30.7655 0)
(203.444 32.0878 0)
(202.821 33.4483 0)
(202.187 34.8484 0)
(201.541 36.2903 0)
(200.886 37.7757 0)
(200.224 39.3071 0)
(199.556 40.8863 0)
(198.885 42.5153 0)
(198.216 44.1964 0)
(197.549 45.9332 0)
(196.889 47.7287 0)
(196.237 49.5859 0)
(195.603 51.5021 0)
(194.997 53.4875 0)
(194.382 55.5566 0)
(193.835 57.6832 0)
(193.313 59.8947 0)
(192.846 62.188 0)
(192.435 64.5707 0)
(192.081 67.0421 0)
(191.824 69.6139 0)
(191.626 72.2795 0)
(191.58 75.0585 0)
(191.596 77.9343 0)
(191.831 80.9344 0)
(192.141 84.0373 0)
(192.732 87.2663 0)
(193.421 90.5992 0)
(194.487 94.0492 0)
(195.667 97.6046 0)
(197.342 101.263 0)
(199.156 105.028 0)
(201.558 108.854 0)
(204.154 112.772 0)
(207.412 116.675 0)
(210.931 120.649 0)
(215.195 124.501 0)
(219.793 128.381 0)
(225.15 131.99 0)
(230.933 135.511 0)
(237.52 138.753 0)
(244.477 141.528 0)
(252.373 144.234 0)
(260.509 146.269 0)
(268.697 147.913 0)
(278.443 149.405 0)
(287.447 150.097 0)
(296.547 149.921 0)
(305.084 148.573 0)
(312.359 147.182 0)
(326.361 145.875 0)
(329.385 155.297 0)
(209.999 0.000115138 0)
(209.977 0.00252867 0)
(209.776 0.0409058 0)
(209.161 0.203485 0)
(208.398 0.423069 0)
(208.082 0.576009 0)
(207.992 0.654154 0)
(208.255 0.671249 0)
(208.922 0.560773 0)
(209.642 0.520883 0)
(210.245 0.566725 0)
(210.771 0.674549 0)
(211.256 0.811361 0)
(211.598 0.997994 0)
(211.723 1.24132 0)
(211.746 1.48665 0)
(211.593 1.77247 0)
(211.429 2.06708 0)
(211.373 2.35515 0)
(211.4 2.64193 0)
(211.446 2.93356 0)
(211.54 3.20026 0)
(211.665 3.42528 0)
(211.823 3.59794 0)
(212.016 3.72458 0)
(212.226 3.82459 0)
(212.438 3.91285 0)
(212.644 4.00091 0)
(212.84 4.10404 0)
(213.015 4.22636 0)
(213.157 4.35721 0)
(213.264 4.49903 0)
(213.334 4.65343 0)
(213.371 4.82097 0)
(213.375 5.00625 0)
(213.35 5.21308 0)
(213.304 5.44556 0)
(213.243 5.70442 0)
(213.163 5.99733 0)
(213.064 6.33158 0)
(212.952 6.70501 0)
(212.832 7.11184 0)
(212.709 7.56225 0)
(212.563 8.03965 0)
(212.406 8.54968 0)
(212.234 9.09264 0)
(212.048 9.66821 0)
(211.845 10.2757 0)
(211.628 10.9143 0)
(211.392 11.5839 0)
(211.137 12.2844 0)
(210.861 13.0155 0)
(210.562 13.7768 0)
(210.241 14.5678 0)
(209.897 15.3881 0)
(209.531 16.2372 0)
(209.142 17.1151 0)
(208.731 18.0214 0)
(208.298 18.9561 0)
(207.843 19.9191 0)
(207.368 20.9108 0)
(206.87 21.9319 0)
(206.351 22.983 0)
(205.81 24.0643 0)
(205.249 25.1764 0)
(204.668 26.3198 0)
(204.068 27.4956 0)
(203.449 28.7051 0)
(202.81 29.9496 0)
(202.153 31.23 0)
(201.479 32.5477 0)
(200.791 33.9038 0)
(200.088 35.3002 0)
(199.372 36.739 0)
(198.643 38.2223 0)
(197.905 39.752 0)
(197.159 41.3305 0)
(196.407 42.9598 0)
(195.653 44.6428 0)
(194.897 46.3823 0)
(194.144 48.1822 0)
(193.397 50.0464 0)
(192.656 51.9788 0)
(191.933 53.9751 0)
(191.24 56.0475 0)
(190.545 58.2068 0)
(189.909 60.4394 0)
(189.308 62.7614 0)
(188.754 65.1749 0)
(188.274 67.6904 0)
(187.84 70.3017 0)
(187.532 73.0277 0)
(187.27 75.8508 0)
(187.197 78.8033 0)
(187.181 81.8586 0)
(187.411 85.0503 0)
(187.716 88.3521 0)
(188.348 91.798 0)
(189.065 95.3655 0)
(190.22 99.0752 0)
(191.484 102.905 0)
(193.285 106.846 0)
(195.256 110.898 0)
(197.849 115.006 0)
(200.696 119.206 0)
(204.255 123.392 0)
(208.143 127.664 0)
(212.858 131.804 0)
(218.019 135.928 0)
(223.951 139.797 0)
(230.58 143.584 0)
(237.956 146.98 0)
(246.25 149.992 0)
(254.741 152.163 0)
(264.449 154.401 0)
(274.167 156.034 0)
(282.835 156.671 0)
(290.719 156.213 0)
(297.387 156.014 0)
(311.909 155.4 0)
(314.029 166.647 0)
(210 1.38369e-05 0)
(209.991 0.000496169 0)
(209.879 0.017006 0)
(209.39 0.1268 0)
(208.583 0.338294 0)
(208.082 0.534481 0)