/*--------------------------------*- C++ -*----------------------------------*\
| =========                 |                                                 |
| \\      /  F ield         | OpenFOAM: The Open Source CFD Toolbox           |
|  \\    /   O peration     | Version:  2412                                  |
|   \\  /    A nd           | Website:  www.openfoam.com                      |
|    \\/     M anipulation  |                                                 |
\*---------------------------------------------------------------------------*/
FoamFile
{
    version     2.0;
    format      ascii;
    arch        "LSB;label=32;scalar=64";
    class       volVectorField;
    location    "0.027";
    object      U;
}
// * * * * * * * * * * * * * * * * * * * * * * * * * * * * * * * * * * * * * //

dimensions      [0 1 -1 0 0 0 0];

internalField   nonuniform List<vector> 
9831
(
(256.443 38.4612 0)
(240.4 -1.97233 0)
(256.884 38.9845 0)
(240.735 -1.9972 0)
(231.592 -4.01293 0)
(226.493 -5.28271 0)
(224.562 -6.01699 0)
(223.257 -6.31106 0)
(222.029 -6.40808 0)
(220.666 -6.52223 0)
(218.933 -6.94766 0)
(216.867 -7.71758 0)
(214.877 -8.40852 0)
(213.198 -8.69794 0)
(211.779 -8.57452 0)
(210.557 -8.28035 0)
(209.346 -8.05718 0)
(208.189 -7.88642 0)
(207.205 -7.63322 0)
(206.445 -7.24542 0)
(205.805 -6.82932 0)
(205.212 -6.4835 0)
(204.652 -6.23024 0)
(204.098 -6.07056 0)
(203.578 -5.98441 0)
(203.12 -5.94073 0)
(202.712 -5.93288 0)
(202.325 -5.97327 0)
(201.941 -6.04997 0)
(201.563 -6.15864 0)
(201.181 -6.27496 0)
(200.798 -6.4022 0)
(200.409 -6.53481 0)
(200.007 -6.66154 0)
(199.603 -6.80876 0)
(199.181 -6.93437 0)
(198.767 -7.06583 0)
(198.338 -7.16293 0)
(197.903 -7.27684 0)
(197.455 -7.3996 0)
(197.006 -7.54581 0)
(196.557 -7.68269 0)
(196.113 -7.80536 0)
(195.67 -7.91326 0)
(195.231 -8.0224 0)
(194.796 -8.14121 0)
(194.37 -8.27251 0)
(193.954 -8.40697 0)
(193.55 -8.54076 0)
(193.157 -8.66884 0)
(192.779 -8.79474 0)
(192.419 -8.91412 0)
(257.359 39.5024 0)
(241.069 -1.99989 0)
(231.797 -4.05034 0)
(226.603 -5.33207 0)
(224.63 -6.06884 0)
(223.311 -6.35821 0)
(222.075 -6.45348 0)
(220.701 -6.57357 0)
(218.955 -7.01189 0)
(216.886 -7.78868 0)
(214.902 -8.47444 0)
(213.227 -8.7559 0)
(211.811 -8.6267 0)
(210.588 -8.33152 0)
(209.376 -8.1093 0)
(208.222 -7.93484 0)
(207.243 -7.67402 0)
(206.482 -7.28099 0)
(205.838 -6.86264 0)
(205.24 -6.51602 0)
(204.676 -6.26193 0)
(204.118 -6.10055 0)
(203.596 -6.01171 0)
(203.137 -5.96547 0)
(202.727 -5.95615 0)
(202.336 -5.99634 0)
(201.951 -6.0731 0)
(201.572 -6.18236 0)
(201.19 -6.29929 0)
(200.806 -6.42818 0)
(200.417 -6.56169 0)
(200.016 -6.69081 0)
(199.612 -6.83958 0)
(199.192 -6.96716 0)
(198.777 -7.10045 0)
(198.348 -7.19937 0)
(197.914 -7.31594 0)
(197.466 -7.44079 0)
(197.018 -7.58913 0)
(196.57 -7.72743 0)
(196.126 -7.85195 0)
(195.684 -7.96153 0)
(195.244 -8.07232 0)
(194.81 -8.1924 0)
(194.385 -8.32473 0)
(193.97 -8.46014 0)
(193.567 -8.59476 0)
(193.174 -8.72345 0)
(192.798 -8.84945 0)
(192.44 -8.96829 0)
(192.104 -9.0819 0)
(191.79 -9.18761 0)
(257.786 40.0041 0)
(241.397 -2.02547 0)
(231.996 -4.09989 0)
(226.712 -5.38011 0)
(224.701 -6.11821 0)
(223.367 -6.40348 0)
(222.122 -6.49737 0)
(220.736 -6.62367 0)
(218.976 -7.07492 0)
(216.9 -7.85868 0)
(214.92 -8.53946 0)
(213.25 -8.813 0)
(211.838 -8.67815 0)
(210.614 -8.38201 0)
(209.402 -8.16074 0)
(208.251 -7.9827 0)
(207.277 -7.71457 0)
(206.516 -7.31646 0)
(205.87 -6.89589 0)
(205.267 -6.54844 0)
(204.698 -6.29355 0)
(204.137 -6.1305 0)
(203.613 -6.03904 0)
(203.152 -5.99026 0)
(202.74 -5.97946 0)
(202.348 -6.01937 0)
(201.961 -6.09615 0)
(201.581 -6.20598 0)
(201.198 -6.3236 0)
(200.814 -6.45416 0)
(200.425 -6.58863 0)
(200.024 -6.72018 0)
(199.62 -6.8705 0)
(199.201 -7.00009 0)
(198.787 -7.13521 0)
(198.358 -7.23599 0)
(197.924 -7.35526 0)
(197.475 -7.48222 0)
(197.028 -7.63275 0)
(196.58 -7.77251 0)
(196.137 -7.89897 0)
(195.694 -8.01027 0)
(195.255 -8.12275 0)
(194.821 -8.24414 0)
(194.396 -8.37757 0)
(193.982 -8.51397 0)
(193.579 -8.64951 0)
(193.188 -8.77887 0)
(192.813 -8.90505 0)
(192.455 -9.02343 0)
(192.121 -9.13597 0)
(191.808 -9.24002 0)
(191.52 -9.34118 0)
(191.257 -9.43916 0)
(258.241 40.4995 0)
(241.725 -2.02816 0)
(232.195 -4.13757 0)
(226.817 -5.42873 0)
(224.766 -6.1685 0)
(223.418 -6.44884 0)
(222.164 -6.54102 0)
(220.767 -6.67328 0)
(218.995 -7.1369 0)
(216.918 -7.92675 0)
(214.944 -8.60235 0)
(213.277 -8.86833 0)
(211.869 -8.72821 0)
(210.643 -8.43131 0)
(209.431 -8.21087 0)
(208.283 -8.0291 0)
(207.313 -7.7538 0)
(206.552 -7.35098 0)
(205.902 -6.92847 0)
(205.294 -6.58037 0)
(204.721 -6.3247 0)
(204.157 -6.15995 0)
(203.631 -6.06587 0)
(203.169 -6.01464 0)
(202.754 -6.0025 0)
(202.36 -6.04222 0)
(201.971 -6.11906 0)
(201.59 -6.22941 0)
(201.206 -6.34765 0)
(200.823 -6.47977 0)
(200.434 -6.61517 0)
(200.034 -6.74909 0)
(199.63 -6.90089 0)
(199.211 -7.03252 0)
(198.798 -7.16944 0)
(198.369 -7.27213 0)
(197.935 -7.39408 0)
(197.486 -7.52313 0)
(197.04 -7.67579 0)
(196.592 -7.81698 0)
(196.15 -7.94534 0)
(195.708 -8.05834 0)
(195.269 -8.17248 0)
(194.835 -8.29514 0)
(194.411 -8.42962 0)
(193.998 -8.56697 0)
(193.596 -8.70332 0)
(193.205 -8.83323 0)
(192.831 -8.95944 0)
(192.475 -9.07728 0)
(192.142 -9.1887 0)
(191.829 -9.29109 0)
(191.542 -9.39004 0)
(191.278 -9.48512 0)
(191.043 -9.57996 0)
(190.837 -9.67186 0)
(190.662 -9.76217 0)
(190.52 -9.84705 0)
(190.414 -9.92712 0)
(190.343 -10.0002 0)
(190.319 -10.0742 0)
(190.319 -10.1392 0)
(190.351 -10.1934 0)
(190.422 -10.2372 0)
(190.53 -10.2691 0)
(190.672 -10.2924 0)
(190.846 -10.3055 0)
(191.05 -10.3089 0)
(191.284 -10.3016 0)
(191.545 -10.2838 0)
(191.831 -10.2552 0)
(192.141 -10.2157 0)
(192.472 -10.1667 0)
(192.821 -10.1059 0)
(193.188 -10.0381 0)
(193.569 -9.95675 0)
(193.964 -9.87219 0)
(194.368 -9.77191 0)
(194.784 -9.67313 0)
(195.202 -9.55576 0)
(195.632 -9.44537 0)
(196.057 -9.3133 0)
(196.493 -9.19385 0)
(196.92 -9.04974 0)
(197.356 -8.92345 0)
(197.776 -8.77024 0)
(198.207 -8.63893 0)
(198.618 -8.47961 0)
(199.039 -8.34494 0)
(199.437 -8.18242 0)
(199.845 -8.04599 0)
(200.228 -7.88283 0)
(200.62 -7.74608 0)
(200.987 -7.58435 0)
(201.361 -7.44851 0)
(201.709 -7.28984 0)
(202.064 -7.15605 0)
(202.392 -7.00179 0)
(202.726 -6.87112 0)
(203.035 -6.72242 0)
(203.35 -6.59583 0)
(203.641 -6.45349 0)
(203.936 -6.33166 0)
(204.208 -6.1961 0)
(204.483 -6.07949 0)
(204.736 -5.95084 0)
(204.992 -5.83976 0)
(205.227 -5.71818 0)
(205.466 -5.61309 0)
(205.689 -5.4992 0)
(205.917 -5.40053 0)
(206.131 -5.29466 0)
(206.345 -5.20222 0)
(206.541 -5.10405 0)
(206.729 -5.01744 0)
(206.887 -4.92587 0)
(207.022 -4.84362 0)
(207.115 -4.75164 0)
(207.138 -4.68047 0)
(258.653 40.9797 0)
(242.046 -2.0547 0)
(232.386 -4.18674 0)
(226.921 -5.47594 0)
(224.834 -6.2164 0)
(223.471 -6.49242 0)
(222.208 -6.58325 0)
(220.799 -6.72172 0)
(219.015 -7.19771 0)
(216.932 -7.99379 0)
(214.961 -8.66441 0)
(213.299 -8.92287 0)
(211.895 -8.77759 0)
(210.668 -8.47998 0)
(209.456 -8.26038 0)
(208.312 -8.07499 0)
(207.346 -7.79282 0)
(206.585 -7.38541 0)
(205.932 -6.96098 0)
(205.32 -6.61222 0)
(204.742 -6.35578 0)
(204.176 -6.18938 0)
(203.648 -6.09273 0)
(203.184 -6.03909 0)
(202.767 -6.02559 0)
(202.371 -6.06504 0)
(201.981 -6.14192 0)
(201.599 -6.25277 0)
(201.214 -6.37171 0)
(200.831 -6.5054 0)
(200.442 -6.64178 0)
(200.042 -6.77812 0)
(199.639 -6.93139 0)
(199.22 -7.06511 0)
(198.807 -7.20384 0)
(198.378 -7.30849 0)
(197.945 -7.43314 0)
(197.496 -7.56431 0)
(197.05 -7.71915 0)
(196.603 -7.86183 0)
(196.161 -7.99217 0)
(195.718 -8.1069 0)
(195.28 -8.22275 0)
(194.847 -8.34671 0)
(194.423 -8.48232 0)
(194.01 -8.62067 0)
(193.608 -8.75791 0)
(193.219 -8.88843 0)
(192.846 -9.01476 0)
(192.491 -9.13214 0)
(192.158 -9.24255 0)
(191.846 -9.34337 0)
(191.558 -9.44016 0)
(191.295 -9.53233 0)
(191.059 -9.62351 0)
(190.852 -9.71094 0)
(190.678 -9.79591 0)
(190.535 -9.87453 0)
(190.427 -9.94805 0)
(190.356 -10.0134 0)
(190.332 -10.0788 0)
(190.33 -10.1354 0)
(190.358 -10.1789 0)
(190.426 -10.2121 0)
(190.531 -10.2318 0)
(190.669 -10.2427 0)
(190.839 -10.2428 0)
(191.038 -10.2325 0)
(191.266 -10.2109 0)
(191.519 -10.1782 0)
(191.798 -10.1344 0)
(192.099 -10.0792 0)
(192.42 -10.0142 0)
(192.76 -9.93732 0)
(193.117 -9.8529 0)
(193.486 -9.75532 0)
(193.871 -9.65383 0)
(194.263 -9.53731 0)
(194.667 -9.42142 0)
(195.073 -9.28807 0)
(195.49 -9.16062 0)
(195.903 -9.01305 0)
(196.327 -8.87679 0)
(196.74 -8.71779 0)
(197.164 -8.57514 0)
(197.571 -8.4077 0)
(197.989 -8.26068 0)
(198.387 -8.08782 0)
(198.795 -7.93824 0)
(199.18 -7.76292 0)
(199.575 -7.61245 0)
(199.946 -7.43723 0)
(200.326 -7.28737 0)
(200.68 -7.11433 0)
(201.043 -6.96631 0)
(201.378 -6.79709 0)
(201.721 -6.65204 0)
(202.037 -6.48798 0)
(202.361 -6.34696 0)
(202.659 -6.18919 0)
(202.963 -6.05309 0)
(203.243 -5.9024 0)
(203.529 -5.77186 0)
(203.79 -5.62863 0)
(204.056 -5.50406 0)
(204.3 -5.36838 0)
(204.546 -5.25005 0)
(204.772 -5.12207 0)
(205.004 -5.01036 0)
(205.219 -4.89063 0)
(205.439 -4.78587 0)
(205.645 -4.67466 0)
(205.852 -4.57667 0)
(206.041 -4.47371 0)
(206.221 -4.38199 0)
(206.371 -4.28602 0)
(206.497 -4.19843 0)
(206.584 -4.10267 0)
(206.6 -4.02898 0)
(206.672 -3.93166 0)
(206.705 -3.98656 0)
(259.091 41.454 0)
(242.366 -2.05693 0)
(232.579 -4.22488 0)
(227.021 -5.52379 0)
(224.895 -6.26516 0)
(223.519 -6.53608 0)
(222.248 -6.62525 0)
(220.828 -6.76967 0)
(219.032 -7.25749 0)
(216.948 -8.05896 0)
(214.984 -8.72447 0)
(213.326 -8.97577 0)
(211.924 -8.82567 0)
(210.695 -8.52754 0)
(209.484 -8.30864 0)
(208.344 -8.11948 0)
(207.382 -7.8306 0)
(206.62 -7.41896 0)
(205.963 -6.99286 0)
(205.346 -6.64357 0)
(204.765 -6.3864 0)
(204.196 -6.21832 0)
(203.666 -6.11911 0)
(203.2 -6.06314 0)
(202.781 -6.04842 0)
(202.383 -6.08769 0)
(201.991 -6.16463 0)
(201.608 -6.27592 0)
(201.223 -6.39551 0)
(200.84 -6.53067 0)
(200.451 -6.668 0)
(200.052 -6.8067 0)
(199.649 -6.96139 0)
(199.231 -7.09722 0)
(198.818 -7.23772 0)
(198.389 -7.34437 0)
(197.956 -7.4717 0)
(197.508 -7.60498 0)
(197.062 -7.76194 0)
(196.616 -7.90608 0)
(196.174 -8.03837 0)
(195.732 -8.15479 0)
(195.294 -8.27233 0)
(194.861 -8.39756 0)
(194.438 -8.53424 0)
(194.026 -8.67354 0)
(193.625 -8.81157 0)
(193.237 -8.94259 0)
(192.865 -9.06893 0)
(192.51 -9.18578 0)
(192.178 -9.29516 0)
(191.866 -9.39443 0)
(191.578 -9.48912 0)
(191.313 -9.57847 0)
(191.077 -9.66608 0)
(190.869 -9.74905 0)
(190.693 -9.82904 0)
(190.549 -9.9018 0)
(190.44 -9.96842 0)
(190.367 -10.0266 0)
(190.34 -10.083 0)
(190.335 -10.1306 0)
(190.36 -10.1653 0)
(190.424 -10.1876 0)
(190.525 -10.195 0)
(190.658 -10.194 0)
(190.821 -10.1816 0)
(191.014 -10.1579 0)
(191.235 -10.1223 0)
(191.481 -10.0749 0)
(191.752 -10.016 0)
(192.044 -9.94523 0)
(192.357 -9.86415 0)
(192.688 -9.77102 0)
(193.035 -9.66988 0)
(193.394 -9.55593 0)
(193.768 -9.43742 0)
(194.148 -9.30461 0)
(194.541 -9.17165 0)
(194.935 -9.02235 0)
(195.34 -8.87801 0)
(195.74 -8.71505 0)
(196.151 -8.56225 0)
(196.551 -8.38854 0)
(196.961 -8.22987 0)
(197.355 -8.04845 0)
(197.76 -7.88612 0)
(198.144 -7.70004 0)
(198.539 -7.53597 0)
(198.91 -7.34819 0)
(199.293 -7.18413 0)
(199.649 -6.99723 0)
(200.017 -6.83469 0)
(200.357 -6.65076 0)
(200.708 -6.49101 0)
(201.03 -6.31168 0)
(201.362 -6.15584 0)
(201.666 -5.98245 0)
(201.978 -5.83156 0)
(202.264 -5.66521 0)
(202.557 -5.5201 0)
(202.826 -5.36155 0)
(203.101 -5.22281 0)
(203.352 -5.07242 0)
(203.608 -4.94041 0)
(203.841 -4.79823 0)
(204.079 -4.67317 0)
(204.295 -4.53932 0)
(204.518 -4.42152 0)
(204.724 -4.29648 0)
(204.936 -4.18617 0)
(205.134 -4.07016 0)
(205.334 -3.96716 0)
(205.515 -3.85993 0)
(205.687 -3.76365 0)
(205.828 -3.66398 0)
(205.942 -3.57143 0)
(206.024 -3.47239 0)
(206.034 -3.39657 0)
(206.102 -3.29632 0)
(206.133 -3.34383 0)
(259.489 41.913 0)
(242.68 -2.08435 0)
(232.764 -4.2741 0)
(227.121 -5.57018 0)
(224.959 -6.31161 0)
(223.569 -6.57805 0)
(222.289 -6.6659 0)
(220.857 -6.81652 0)
(219.049 -7.31617 0)
(216.96 -8.12318 0)
(215 -8.78375 0)
(213.347 -9.02794 0)
(211.949 -8.87314 0)
(210.719 -8.57451 0)
(209.508 -8.35631 0)
(208.372 -8.16351 0)
(207.414 -7.86821 0)
(206.652 -7.45243 0)
(205.992 -7.02468 0)
(205.371 -6.67485 0)
(204.786 -6.41695 0)
(204.214 -6.24724 0)
(203.683 -6.14553 0)
(203.216 -6.08728 0)
(202.795 -6.0713 0)
(202.394 -6.11034 0)
(202.001 -6.18731 0)
(201.617 -6.29905 0)
(201.231 -6.41933 0)
(200.848 -6.55597 0)
(200.459 -6.69433 0)
(200.061 -6.83541 0)
(199.658 -6.99152 0)
(199.24 -7.12951 0)
(198.828 -7.27179 0)
(198.399 -7.3805 0)
(197.966 -7.51053 0)
(197.518 -7.64596 0)
(197.073 -7.80508 0)
(196.626 -7.95075 0)
(196.185 -8.08506 0)
(195.743 -8.20322 0)
(195.305 -8.32248 0)
(194.873 -8.44902 0)
(194.45 -8.58685 0)
(194.038 -8.72715 0)
(193.638 -8.86605 0)
(193.25 -8.99763 0)
(192.879 -9.12405 0)
(192.525 -9.24047 0)
(192.193 -9.34892 0)
(191.881 -9.44672 0)
(191.592 -9.53932 0)
(191.328 -9.62577 0)
(191.091 -9.70978 0)
(190.882 -9.78835 0)
(190.705 -9.86311 0)
(190.56 -9.92983 0)
(190.449 -9.98988 0)
(190.374 -10.041 0)
(190.345 -10.088 0)
(190.336 -10.1267 0)
(190.357 -10.1526 0)
(190.417 -10.1636 0)
(190.514 -10.159 0)
(190.642 -10.1462 0)
(190.8 -10.1212 0)
(190.986 -10.0841 0)
(191.198 -10.0346 0)
(191.436 -9.97283 0)
(191.698 -9.89914 0)
(191.98 -9.81329 0)
(192.282 -9.71681 0)
(192.601 -9.60826 0)
(192.936 -9.49123 0)
(193.283 -9.36169 0)
(193.644 -9.22697 0)
(194.012 -9.07861 0)
(194.391 -8.92933 0)
(194.771 -8.76477 0)
(195.163 -8.60422 0)
(195.549 -8.42644 0)
(195.946 -8.25772 0)
(196.332 -8.0698 0)
(196.729 -7.89567 0)
(197.108 -7.70071 0)
(197.499 -7.52355 0)
(197.869 -7.32466 0)
(198.251 -7.14654 0)
(198.608 -6.94669 0)
(198.977 -6.76943 0)
(199.32 -6.57122 0)
(199.675 -6.39637 0)
(200.003 -6.20188 0)
(200.341 -6.03073 0)
(200.65 -5.84158 0)
(200.97 -5.67525 0)
(201.262 -5.49279 0)
(201.563 -5.33226 0)
(201.837 -5.15756 0)
(202.12 -5.00363 0)
(202.378 -4.8374 0)
(202.643 -4.6906 0)
(202.884 -4.53317 0)
(203.131 -4.39382 0)
(203.354 -4.24522 0)
(203.583 -4.1135 0)
(203.79 -3.97383 0)
(204.005 -3.84999 0)
(204.203 -3.7197 0)
(204.408 -3.6039 0)
(204.598 -3.48315 0)
(204.79 -3.37526 0)
(204.964 -3.26386 0)
(205.129 -3.16323 0)
(205.262 -3.06029 0)
(205.363 -2.96294 0)
(205.442 -2.86094 0)
(205.447 -2.78338 0)
(205.513 -2.68087 0)
(205.543 -2.72113 0)
(259.912 42.3661 0)
(242.994 -2.08623 0)
(232.95 -4.3127 0)
(227.218 -5.61731 0)
(225.018 -6.35888 0)
(223.614 -6.62007 0)
(222.326 -6.70634 0)
(220.884 -6.8629 0)
(219.065 -7.37384 0)
(216.976 -8.18559 0)
(215.021 -8.84113 0)
(213.372 -9.07858 0)
(211.977 -8.9194 0)
(210.746 -8.62044 0)
(209.535 -8.40279 0)
(208.403 -8.20621 0)
(207.449 -7.90464 0)
(206.686 -7.48507 0)
(206.023 -7.0559 0)
(205.396 -6.70566 0)
(204.808 -6.44705 0)
(204.234 -6.27567 0)
(203.701 -6.17149 0)
(203.232 -6.11103 0)
(202.809 -6.09394 0)
(202.406 -6.13281 0)
(202.011 -6.20985 0)
(201.626 -6.32197 0)
(201.24 -6.44291 0)
(200.857 -6.58091 0)
(200.468 -6.72028 0)
(200.07 -6.86369 0)
(199.668 -7.02117 0)
(199.251 -7.16134 0)
(198.839 -7.30536 0)
(198.41 -7.41617 0)
(197.978 -7.54887 0)
(197.53 -7.68643 0)
(197.086 -7.84766 0)
(196.639 -7.99482 0)
(196.198 -8.13112 0)
(195.757 -8.25097 0)
(195.319 -8.37194 0)
(194.888 -8.49975 0)
(194.466 -8.63869 0)
(194.055 -8.77994 0)
(193.655 -8.91961 0)
(193.268 -9.05166 0)
(192.898 -9.17809 0)
(192.544 -9.29405 0)
(192.212 -9.40156 0)
(191.899 -9.49792 0)
(191.61 -9.5885 0)
(191.344 -9.67224 0)
(191.106 -9.75273 0)
(190.896 -9.82696 0)
(190.717 -9.8968 0)
(190.57 -9.95786 0)
(190.456 -10.0113 0)
(190.38 -10.0558 0)
(190.346 -10.0932 0)
(190.334 -10.1237 0)
(190.349 -10.1402 0)
(190.404 -10.1405 0)
(190.496 -10.1245 0)
(190.617 -10.1007 0)
(190.767 -10.0634 0)
(190.945 -10.0132 0)
(191.15 -9.95005 0)
(191.379 -9.87406 0)
(191.631 -9.78567 0)
(191.903 -9.68468 0)
(192.195 -9.57262 0)
(192.504 -9.44838 0)
(192.828 -9.31523 0)
(193.163 -9.16986 0)
(193.512 -9.01877 0)
(193.867 -8.85474 0)
(194.233 -8.68913 0)
(194.6 -8.50928 0)
(194.978 -8.33265 0)
(195.35 -8.14015 0)
(195.733 -7.95576 0)
(196.104 -7.75381 0)
(196.487 -7.56456 0)
(196.852 -7.35633 0)
(197.229 -7.16474 0)
(197.584 -6.95337 0)
(197.952 -6.76164 0)
(198.294 -6.55008 0)
(198.65 -6.36008 0)
(198.979 -6.15095 0)
(199.321 -5.96426 0)
(199.635 -5.75962 0)
(199.96 -5.57753 0)
(200.256 -5.37901 0)
(200.564 -5.20266 0)
(200.843 -5.01158 0)
(201.132 -4.84191 0)
(201.394 -4.65932 0)
(201.666 -4.49706 0)
(201.913 -4.32364 0)
(202.167 -4.16929 0)
(202.398 -4.00533 0)
(202.634 -3.85915 0)
(202.847 -3.70465 0)
(203.067 -3.56678 0)
(203.265 -3.42181 0)
(203.471 -3.29242 0)
(203.661 -3.15734 0)
(203.858 -3.03653 0)
(204.04 -2.91147 0)
(204.225 -2.79909 0)
(204.392 -2.68382 0)
(204.549 -2.57924 0)
(204.675 -2.47357 0)
(204.757 -2.37149 0)
(204.835 -2.26691 0)
(204.837 -2.1876 0)
(204.902 -2.08218 0)
(204.933 -2.11634 0)
(260.295 42.8041 0)
(243.302 -2.11504 0)
(233.13 -4.3617 0)
(227.314 -5.66292 0)
(225.079 -6.40391 0)
(223.661 -6.6605 0)
(222.364 -6.74552 0)
(220.911 -6.90823 0)
(219.08 -7.43047 0)
(216.987 -8.24711 0)
(215.037 -8.89779 0)
(213.392 -9.12854 0)
(212.001 -8.96509 0)
(210.769 -8.66583 0)
(209.559 -8.44873 0)
(208.43 -8.24848 0)
(207.48 -7.94092 0)
(206.717 -7.51765 0)
(206.051 -7.08707 0)
(205.42 -6.73639 0)
(204.828 -6.47708 0)
(204.252 -6.3041 0)
(203.718 -6.1975 0)
(203.248 -6.13488 0)
(202.822 -6.11664 0)
(202.418 -6.1553 0)
(202.021 -6.23237 0)
(201.635 -6.34488 0)
(201.248 -6.46652 0)
(200.865 -6.60591 0)
(200.476 -6.74635 0)
(200.079 -6.8921 0)
(199.677 -7.05096 0)
(199.261 -7.19337 0)
(198.849 -7.33913 0)
(198.421 -7.45211 0)
(197.988 -7.5875 0)
(197.54 -7.72723 0)
(197.096 -7.89063 0)
(196.65 -8.03934 0)
(196.209 -8.17769 0)
(195.768 -8.29928 0)
(195.331 -8.422 0)
(194.9 -8.55113 0)
(194.479 -8.69126 0)
(194.067 -8.83351 0)
(193.668 -8.97403 0)
(193.282 -9.1066 0)
(192.911 -9.23312 0)
(192.558 -9.34869 0)
(192.225 -9.45536 0)
(191.912 -9.55033 0)
(191.622 -9.6389 0)
(191.356 -9.71977 0)
(191.117 -9.79677 0)
(190.905 -9.8667 0)
(190.725 -9.93153 0)
(190.576 -9.98688 0)
(190.46 -10.0336 0)
(190.381 -10.0721 0)
(190.343 -10.0995 0)
(190.327 -10.1212 0)
(190.337 -10.1285 0)
(190.387 -10.118 0)
(190.473 -10.0912 0)
(190.588 -10.0559 0)
(190.731 -10.0061 0)
(190.901 -9.94296 0)
(191.096 -9.86641 0)
(191.315 -9.77653 0)
(191.556 -9.67395 0)
(191.817 -9.55851 0)
(192.097 -9.43177 0)
(192.392 -9.2928 0)
(192.703 -9.14457 0)
(193.025 -8.98433 0)
(193.359 -8.81789 0)
(193.7 -8.63907 0)
(194.052 -8.45801 0)
(194.404 -8.26366 0)
(194.767 -8.07171 0)
(195.124 -7.86513 0)
(195.492 -7.66573 0)
(195.849 -7.45029 0)
(196.216 -7.24649 0)
(196.566 -7.02545 0)
(196.929 -6.81993 0)
(197.269 -6.59647 0)
(197.623 -6.39155 0)
(197.951 -6.16866 0)
(198.293 -5.96629 0)
(198.607 -5.74657 0)
(198.936 -5.54836 0)
(199.236 -5.33387 0)
(199.548 -5.14114 0)
(199.832 -4.9335 0)
(200.127 -4.74734 0)
(200.394 -4.54785 0)
(200.672 -4.36919 0)
(200.922 -4.17886 0)
(201.183 -4.00837 0)
(201.419 -3.82784 0)
(201.663 -3.66598 0)
(201.883 -3.49551 0)
(202.111 -3.34248 0)
(202.314 -3.18203 0)
(202.525 -3.03792 0)
(202.715 -2.88751 0)
(202.913 -2.75242 0)
(203.095 -2.61237 0)
(203.284 -2.48635 0)
(203.46 -2.35672 0)
(203.638 -2.23963 0)
(203.797 -2.12009 0)
(203.949 -2.01156 0)
(204.068 -1.90236 0)
(204.129 -1.79553 0)
(204.209 -1.6885 0)
(204.21 -1.60485 0)
(204.274 -1.49669 0)
(204.305 -1.5257 0)
(260.703 43.2374 0)
(243.61 -2.11681 0)
(233.311 -4.40046 0)
(227.406 -5.70932 0)
(225.134 -6.44971 0)
(223.704 -6.70096 0)
(222.399 -6.78449 0)
(220.935 -6.95312 0)
(219.094 -7.48613 0)
(217.001 -8.30692 0)
(215.057 -8.95265 0)
(213.417 -9.17705 0)
(212.028 -9.00964 0)
(210.795 -8.71023 0)
(209.585 -8.49354 0)
(208.46 -8.28947 0)
(207.514 -7.97608 0)
(206.75 -7.54944 0)
(206.08 -7.11769 0)
(205.445 -6.76668 0)
(204.849 -6.50667 0)
(204.271 -6.33203 0)
(203.736 -6.22305 0)
(203.264 -6.15835 0)
(202.836 -6.1391 0)
(202.43 -6.17761 0)
(202.032 -6.25474 0)
(201.645 -6.36758 0)
(201.257 -6.48988 0)
(200.874 -6.63057 0)
(200.485 -6.77206 0)
(200.089 -6.92009 0)
(199.687 -7.08029 0)
(199.272 -7.22494 0)
(198.861 -7.37242 0)
(198.432 -7.4876 0)
(198 -7.62565 0)
(197.552 -7.76753 0)
(197.109 -7.93304 0)
(196.663 -8.08326 0)
(196.223 -8.22364 0)
(195.782 -8.34692 0)
(195.346 -8.47137 0)
(194.916 -8.60179 0)
(194.495 -8.74307 0)
(194.084 -8.88628 0)
(193.686 -9.02757 0)
(193.299 -9.16059 0)
(192.929 -9.28714 0)
(192.576 -9.40232 0)
(192.243 -9.50816 0)
(191.929 -9.60178 0)
(191.638 -9.68844 0)
(191.37 -9.76669 0)
(191.13 -9.84028 0)
(190.916 -9.90607 0)
(190.733 -9.96605 0)
(190.581 -10.016 0)
(190.462 -10.056 0)
(190.381 -10.0891 0)
(190.337 -10.1075 0)
(190.315 -10.1202 0)
(190.321 -10.1178 0)
(190.364 -10.0971 0)
(190.442 -10.0609 0)
(190.55 -10.0144 0)
(190.684 -9.95248 0)
(190.844 -9.87678 0)
(191.03 -9.78707 0)
(191.239 -9.68348 0)
(191.469 -9.5667 0)
(191.719 -9.43666 0)
(191.987 -9.29492 0)
(192.271 -9.1408 0)
(192.569 -8.97711 0)
(192.877 -8.80162 0)
(193.199 -8.61956 0)
(193.525 -8.42571 0)
(193.863 -8.22913 0)
(194.201 -8.02017 0)
(194.549 -7.81297 0)
(194.891 -7.59238 0)
(195.245 -7.37819 0)
(195.585 -7.14943 0)
(195.938 -6.93143 0)
(196.273 -6.69784 0)
(196.62 -6.4788 0)
(196.945 -6.24358 0)
(197.284 -6.02592 0)
(197.597 -5.79206 0)
(197.925 -5.57779 0)
(198.225 -5.34787 0)
(198.54 -5.13861 0)
(198.825 -4.9147 0)
(199.125 -4.71179 0)
(199.395 -4.49547 0)
(199.677 -4.29997 0)
(199.931 -4.09252 0)
(200.197 -3.90533 0)
(200.436 -3.70772 0)
(200.686 -3.52949 0)
(200.91 -3.34235 0)
(201.144 -3.17347 0)
(201.353 -2.997 0)
(201.57 -2.83765 0)
(201.764 -2.67178 0)
(201.965 -2.52197 0)
(202.146 -2.36671 0)
(202.335 -2.22648 0)
(202.509 -2.08206 0)
(202.69 -1.95142 0)
(202.858 -1.81782 0)
(203.029 -1.69661 0)
(203.181 -1.57336 0)
(203.325 -1.46182 0)
(203.437 -1.34861 0)
(203.478 -1.23911 0)
(203.558 -1.12972 0)
(203.556 -1.04359 0)
(203.618 -0.933585 0)
(203.646 -0.956883 0)
(261.072 43.6548 0)
(243.912 -2.14701 0)
(233.486 -4.44928 0)
(227.499 -5.75417 0)
(225.192 -6.49337 0)
(223.748 -6.7399 0)
(222.435 -6.82226 0)
(220.96 -6.99702 0)
(219.107 -7.54083 0)
(217.011 -8.36591 0)
(215.071 -9.00683 0)
(213.436 -9.22491 0)
(212.051 -9.05366 0)
(210.817 -8.75414 0)
(209.608 -8.53784 0)
(208.486 -8.33007 0)
(207.545 -8.01109 0)
(206.78 -7.58118 0)
(206.107 -7.14826 0)
(205.469 -6.79691 0)
(204.869 -6.53622 0)
(204.29 -6.35999 0)
(203.753 -6.24866 0)
(203.279 -6.18193 0)
(202.85 -6.16165 0)
(202.441 -6.19997 0)
(202.042 -6.27713 0)
(201.654 -6.39031 0)
(201.266 -6.51331 0)
(200.883 -6.6553 0)
(200.494 -6.7979 0)
(200.098 -6.94823 0)
(199.696 -7.10978 0)
(199.282 -7.25673 0)
(198.871 -7.40593 0)
(198.443 -7.52338 0)
(198.011 -7.66412 0)
(197.563 -7.8082 0)
(197.12 -7.97586 0)
(196.674 -8.12766 0)
(196.235 -8.27011 0)
(195.794 -8.39514 0)
(195.359 -8.52139 0)
(194.929 -8.65315 0)
(194.508 -8.79565 0)
(194.097 -8.93987 0)
(193.698 -9.08198 0)
(193.312 -9.21551 0)
(192.942 -9.34216 0)
(192.589 -9.45702 0)
(192.255 -9.56211 0)
(191.941 -9.65444 0)
(191.649 -9.73913 0)
(191.38 -9.8147 0)
(191.138 -9.88493 0)
(190.923 -9.94657 0)
(190.737 -10.0016 0)
(190.582 -10.0462 0)
(190.46 -10.0794 0)
(190.376 -10.107 0)
(190.326 -10.1169 0)
(190.299 -10.1193 0)
(190.301 -10.1082 0)
(190.336 -10.0772 0)
(190.407 -10.0314 0)
(190.508 -9.97325 0)
(190.633 -9.89923 0)
(190.784 -9.81112 0)
(190.959 -9.70851 0)
(191.157 -9.59164 0)
(191.375 -9.4613 0)
(191.612 -9.31755 0)
(191.867 -9.16188 0)
(192.136 -8.9938 0)
(192.419 -8.81589 0)
(192.713 -8.62634 0)
(193.019 -8.42984 0)
(193.33 -8.22201 0)
(193.652 -8.01094 0)
(193.974 -7.78828 0)
(194.306 -7.5667 0)
(194.633 -7.33283 0)
(194.97 -7.10455 0)
(195.295 -6.86307 0)
(195.632 -6.63143 0)
(195.951 -6.38577 0)
(196.283 -6.1537 0)
(196.592 -5.90712 0)
(196.916 -5.67713 0)
(197.214 -5.43265 0)
(197.527 -5.20681 0)
(197.813 -4.967 0)
(198.114 -4.74699 0)
(198.386 -4.5139 0)
(198.672 -4.30104 0)
(198.928 -4.07623 0)
(199.199 -3.87157 0)
(199.44 -3.65628 0)
(199.694 -3.46068 0)
(199.921 -3.25586 0)
(200.16 -3.06991 0)
(200.373 -2.87614 0)
(200.597 -2.70021 0)
(200.796 -2.51766 0)
(201.004 -2.35185 0)
(201.188 -2.1804 0)
(201.381 -2.02469 0)
(201.553 -1.86431 0)
(201.734 -1.71868 0)
(201.9 -1.56956 0)
(202.075 -1.43396 0)
(202.235 -1.296 0)
(202.399 -1.17025 0)
(202.545 -1.04293 0)
(202.683 -0.927752 0)
(202.787 -0.809634 0)
(202.815 -0.697765 0)
(202.892 -0.585288 0)
(202.887 -0.497011 0)
(202.945 -0.384655 0)
(202.972 -0.401724 0)
(261.47 44.0684 0)
(244.216 -2.14869 0)
(233.662 -4.48854 0)
(227.588 -5.79986 0)
(225.245 -6.53775 0)
(223.788 -6.77886 0)
(222.467 -6.85984 0)
(220.982 -7.04051 0)
(219.12 -7.5946 0)
(217.024 -8.42329 0)
(215.091 -9.05933 0)
(213.459 -9.2714 0)
(212.077 -9.0966 0)
(210.842 -8.79712 0)
(209.633 -8.58108 0)
(208.515 -8.36947 0)
(207.577 -8.04506 0)
(206.812 -7.61217 0)
(206.135 -7.17831 0)
(205.493 -6.82672 0)
(204.89 -6.56532 0)
(204.309 -6.38745 0)
(203.771 -6.27382 0)
(203.295 -6.20515 0)
(202.864 -6.18395 0)
(202.453 -6.22216 0)
(202.052 -6.29936 0)
(201.664 -6.41282 0)
(201.275 -6.53649 0)
(200.892 -6.6797 0)
(200.503 -6.82341 0)
(200.108 -6.97597 0)
(199.707 -7.13884 0)
(199.293 -7.28808 0)
(198.883 -7.43897 0)
(198.455 -7.55873 0)
(198.023 -7.70212 0)
(197.575 -7.84838 0)
(197.133 -8.01813 0)
(196.688 -8.17147 0)
(196.249 -8.31595 0)
(195.809 -8.44269 0)
(195.375 -8.57071 0)
(194.945 -8.7038 0)
(194.524 -8.84751 0)
(194.114 -8.99269 0)
(193.715 -9.13556 0)
(193.329 -9.26953 0)
(192.959 -9.39625 0)
(192.606 -9.51081 0)
(192.271 -9.61516 0)
(191.956 -9.70628 0)
(191.663 -9.78914 0)
(191.393 -9.86221 0)
(191.148 -9.92919 0)
(190.931 -9.98693 0)
(190.742 -10.0373 0)
(190.584 -10.0768 0)
(190.457 -10.1037 0)
(190.369 -10.1257 0)
(190.314 -10.1282 0)
(190.281 -10.1211 0)
(190.277 -10.1009 0)
(190.302 -10.0598 0)
(190.365 -10.0051 0)
(190.457 -9.93628 0)
(190.572 -9.85072 0)
(190.713 -9.75062 0)
(190.877 -9.6354 0)
(191.063 -9.50546 0)
(191.269 -9.36152 0)
(191.494 -9.2038 0)
(191.736 -9.03376 0)
(191.991 -8.85115 0)
(192.261 -8.65845 0)
(192.541 -8.4543 0)
(192.832 -8.24296 0)
(193.128 -8.02077 0)
(193.435 -7.795 0)
(193.741 -7.55845 0)
(194.057 -7.32249 0)
(194.368 -7.07535 0)
(194.689 -6.83316 0)
(194.998 -6.57912 0)
(195.319 -6.33417 0)
(195.622 -6.07671 0)
(195.938 -5.83201 0)
(196.231 -5.57441 0)
(196.54 -5.33253 0)
(196.822 -5.0778 0)
(197.121 -4.84087 0)
(197.392 -4.59157 0)
(197.678 -4.36127 0)
(197.935 -4.11942 0)
(198.208 -3.89708 0)
(198.451 -3.66422 0)
(198.708 -3.45087 0)
(198.937 -3.2282 0)
(199.179 -3.02466 0)
(199.393 -2.81311 0)
(199.621 -2.61995 0)
(199.823 -2.42005 0)
(200.036 -2.23757 0)
(200.224 -2.04946 0)
(200.422 -1.87774 0)
(200.596 -1.70128 0)
(200.779 -1.54026 0)
(200.942 -1.37539 0)
(201.115 -1.22498 0)
(201.273 -1.07184 0)
(201.439 -0.931928 0)
(201.592 -0.790318 0)
(201.749 -0.660701 0)
(201.887 -0.530176 0)
(202.017 -0.411666 0)
(202.113 -0.289481 0)
(202.13 -0.17629 0)
(202.203 -0.0607985 0)
(202.193 0.0285827 0)
(202.246 0.142911 0)
(202.271 0.131701 0)
(261.824 44.465 0)
(244.513 -2.18027 0)
(233.832 -4.53745 0)
(227.677 -5.84397 0)
(225.3 -6.58006 0)
(223.83 -6.81639 0)
(222.501 -6.8963 0)
(221.005 -7.08306 0)
(219.132 -7.64748 0)
(217.033 -8.47993 0)
(215.104 -9.11118 0)
(213.478 -9.31727 0)
(212.1 -9.13903 0)
(210.864 -8.83965 0)
(209.655 -8.62387 0)
(208.541 -8.40853 0)
(207.607 -8.07889 0)
(206.841 -7.64311 0)
(206.162 -7.20832 0)
(205.516 -6.85649 0)
(204.91 -6.59442 0)
(204.327 -6.41496 0)
(203.788 -6.29906 0)
(203.311 -6.22849 0)
(202.877 -6.20636 0)
(202.465 -6.2444 0)
(202.062 -6.32163 0)
(201.673 -6.43538 0)
(201.284 -6.55975 0)
(200.901 -6.70419 0)
(200.512 -6.84907 0)
(200.118 -7.00386 0)
(199.716 -7.16807 0)
(199.303 -7.31966 0)
(198.893 -7.47225 0)
(198.465 -7.59439 0)
(198.034 -7.74048 0)
(197.586 -7.88895 0)
(197.145 -8.06083 0)
(196.7 -8.21576 0)
(196.261 -8.36235 0)
(195.822 -8.49085 0)
(195.388 -8.62071 0)
(194.958 -8.7552 0)
(194.537 -8.90017 0)
(194.126 -9.04636 0)
(193.728 -9.19003 0)
(193.341 -9.32451 0)
(192.971 -9.45136 0)
(192.618 -9.56567 0)
(192.283 -9.66937 0)
(191.967 -9.75931 0)
(191.672 -9.84038 0)
(191.4 -9.91091 0)
(191.154 -9.97464 0)
(190.934 -10.0285 0)
(190.742 -10.0741 0)
(190.58 -10.1085 0)
(190.45 -10.1293 0)
(190.357 -10.1453 0)
(190.296 -10.1404 0)
(190.259 -10.122 0)
(190.247 -10.096 0)
(190.265 -10.0434 0)
(190.319 -9.97898 0)
(190.402 -9.89939 0)
(190.508 -9.80239 0)
(190.638 -9.69041 0)
(190.791 -9.56286 0)
(190.964 -9.42032 0)
(191.157 -9.26355 0)
(191.368 -9.09292 0)
(191.595 -8.90979 0)
(191.835 -8.71408 0)
(192.089 -8.50809 0)
(192.352 -8.29076 0)
(192.626 -8.06594 0)
(192.906 -7.83064 0)
(193.196 -7.59137 0)
(193.485 -7.34197 0)
(193.785 -7.09262 0)
(194.078 -6.83303 0)
(194.382 -6.57772 0)
(194.675 -6.31174 0)
(194.979 -6.0541 0)
(195.265 -5.78532 0)
(195.565 -5.52848 0)
(195.843 -5.26026 0)
(196.135 -5.0069 0)
(196.402 -4.74224 0)
(196.686 -4.49453 0)
(196.942 -4.236 0)
(197.214 -3.99566 0)
(197.457 -3.74525 0)
(197.716 -3.51361 0)
(197.945 -3.27283 0)
(198.19 -3.05091 0)
(198.405 -2.82095 0)
(198.636 -2.60952 0)
(198.838 -2.39125 0)
(199.055 -2.19084 0)
(199.245 -1.98475 0)
(199.448 -1.79561 0)
(199.626 -1.60178 0)
(199.814 -1.42395 0)
(199.979 -1.24222 0)
(200.154 -1.07558 0)
(200.308 -0.905872 0)
(200.473 -0.750283 0)
(200.623 -0.592668 0)
(200.782 -0.447956 0)
(200.928 -0.30216 0)
(201.078 -0.168095 0)
(201.21 -0.0338346 0)
(201.333 0.0889661 0)
(201.423 0.215399 0)
(201.432 0.330837 0)
(201.5 0.450115 0)
(201.485 0.541214 0)
(201.533 0.658161 0)
(201.555 0.653128 0)
(262.212 44.8602 0)
(244.812 -2.18189 0)
(234.004 -4.57719 0)
(227.763 -5.88895 0)
(225.35 -6.62305 0)
(223.869 -6.85393 0)
(222.531 -6.93256 0)
(221.025 -7.1252 0)
(219.144 -7.69946 0)
(217.046 -8.53503 0)
(215.122 -9.16147 0)
(213.499 -9.36186 0)
(212.125 -9.18044 0)
(210.888 -8.88128 0)
(209.68 -8.66566 0)
(208.569 -8.44647 0)
(207.638 -8.11174 0)
(206.872 -7.67335 0)
(206.189 -7.23783 0)
(205.539 -6.88585 0)
(204.931 -6.62308 0)
(204.346 -6.44198 0)
(203.806 -6.32385 0)
(203.327 -6.25147 0)
(202.891 -6.22853 0)
(202.477 -6.26647 0)
(202.073 -6.34373 0)
(201.683 -6.45772 0)
(201.293 -6.58276 0)
(200.91 -6.72836 0)
(200.521 -6.8744 0)
(200.128 -7.03135 0)
(199.727 -7.19689 0)