/*--------------------------------*- C++ -*----------------------------------*\
| =========                 |                                                 |
| \\      /  F ield         | OpenFOAM: The Open Source CFD Toolbox           |
|  \\    /   O peration     | Version:  2412                                  |
|   \\  /    A nd           | Website:  www.openfoam.com                      |
|    \\/     M anipulation  |                                                 |
\*---------------------------------------------------------------------------*/
FoamFile
{
    version     2.0;
    format      ascii;
    arch        "LSB;label=32;scalar=64";
    class       volScalarField;
    location    "0.103";
    object      T;
}
// * * * * * * * * * * * * * * * * * * * * * * * * * * * * * * * * * * * * * //

dimensions      [0 0 0 1 0 0 0];

internalField   nonuniform List<scalar> 
78650
(
241.209
225.958
225.254
225.054
224.793
224.576
224.38
224.199
224.025
223.863
223.716
223.595
223.505
223.443
223.396
223.354
223.306
223.242
223.158
223.056
222.945
222.836
222.734
222.642
222.559
222.482
222.411
222.346
222.287
222.234
222.184
222.135
222.089
222.044
222.003
221.965
221.929
221.895
221.862
221.83
221.799
221.768
221.739
221.71
221.682
221.657
221.633
221.612
221.592
221.573
221.555
221.539
221.525
221.512
221.5
221.49
221.481
221.473
221.465
221.456
221.447
221.436
221.425
221.41
221.394
221.374
221.349
221.318
221.282
221.237
221.183
221.119
221.043
220.953
220.848
220.725
220.583
220.419
220.23
220.014
219.767
219.485
219.166
218.804
218.394
217.934
217.417
216.843
216.203
215.496
214.71
213.845
212.891
211.861
210.722
209.501
208.174
206.752
205.236
203.592
201.85
200.029
198.183
196.267
194.268
192.301
190.403
188.493
186.699
184.877
183.079
181.324
179.66
178.179
176.874
175.686
174.688
173.881
173.38
173.164
171.804
240.435
225.93
225.27
225.065
224.813
224.597
224.402
224.223
224.054
223.894
223.745
223.617
223.519
223.449
223.398
223.356
223.313
223.257
223.181
223.085
222.978
222.87
222.768
222.676
222.593
222.517
222.447
222.383
222.327
222.275
222.227
222.182
222.138
222.096
222.057
222.021
221.988
221.957
221.928
221.9
221.872
221.846
221.82
221.796
221.773
221.751
221.732
221.715
221.7
221.687
221.675
221.664
221.656
221.648
221.643
221.639
221.637
221.636
221.635
221.634
221.633
221.631
221.629
221.625
221.619
221.61
221.598
221.581
221.558
221.529
221.492
221.446
221.39
221.322
221.24
221.144
221.029
220.895
220.74
220.56
220.352
220.114
219.842
219.531
219.178
218.779
218.328
217.821
217.253
216.619
215.914
215.138
214.279
213.339
212.292
211.162
209.921
208.593
207.16
205.619
203.958
202.214
200.397
198.549
196.69
194.754
192.834
190.815
188.898
187.015
185.16
183.405
181.646
179.975
178.444
177.041
175.847
174.844
174.144
173.745
172.227
239.662
225.763
225.269
225.067
224.821
224.61
224.419
224.246
224.083
223.927
223.777
223.643
223.536
223.457
223.401
223.357
223.317
223.268
223.201
223.113
223.011
222.905
222.803
222.711
222.628
222.553
222.484
222.422
222.366
222.317
222.272
222.229
222.188
222.149
222.113
222.08
222.049
222.021
221.995
221.97
221.947
221.925
221.903
221.883
221.864
221.847
221.833
221.821
221.811
221.802
221.796
221.791
221.788
221.786
221.787
221.79
221.794
221.8
221.806
221.814
221.821
221.828
221.835
221.841
221.845
221.847
221.847
221.843
221.835
221.821
221.801
221.772
221.735
221.687
221.628
221.556
221.468
221.363
221.238
221.091
220.92
220.722
220.492
220.228
219.926
219.581
219.188
218.745
218.246
217.687
217.061
216.368
215.594
214.74
213.79
212.761
211.63
210.42
209.097
207.669
206.142
204.496
202.771
200.942
199.056
197.057
195.105
193.061
190.973
189.047
187.057
185.193
183.374
181.609
179.961
178.479
177.199
176.125
175.29
174.681
172.733
238.953
225.675
225.272
225.073
224.829
224.617
224.434
224.269
224.111
223.959
223.811
223.674
223.558
223.469
223.404
223.358
223.32
223.277
223.219
223.141
223.045
222.941
222.84
222.747
222.665
222.591
222.523
222.462
222.408
222.36
222.317
222.277
222.239
222.203
222.17
222.14
222.112
222.087
222.064
222.043
222.024
222.005
221.988
221.972
221.958
221.945
221.935
221.928
221.922
221.919
221.918
221.918
221.921
221.926
221.932
221.941
221.952
221.964
221.978
221.993
222.008
222.024
222.039
222.055
222.069
222.082
222.093
222.102
222.107
222.108
222.102
222.091
222.072
222.044
222.006
221.957
221.894
221.816
221.721
221.607
221.472
221.312
221.125
220.907
220.654
220.364
220.031
219.652
219.22
218.733
218.184
217.571
216.884
216.122
215.273
214.345
213.315
212.196
210.956
209.623
208.176
206.619
204.958
203.178
201.337
199.394
197.395
195.46
193.353
191.324
189.255
187.185
185.209
183.225
181.324
179.627
178.202
177.099
176.382
175.975
174.108
238.181
225.59
225.261
225.073
224.831
224.62
224.439
224.283
224.136
223.991
223.847
223.709
223.585
223.485
223.412
223.361
223.322
223.284
223.235
223.166
223.078
222.979
222.879
222.786
222.704
222.63
222.563
222.503
222.45
222.405
222.364
222.327
222.293
222.26
222.229
222.202
222.177
222.156
222.136
222.118
222.103
222.088
222.075
222.064
222.053
222.045
222.04
222.037
222.037
222.039
222.043
222.049
222.057
222.067
222.08
222.095
222.112
222.131
222.152
222.174
222.197
222.221
222.246
222.27
222.294
222.318
222.34
222.361
222.379
222.393
222.403
222.407
222.406
222.397
222.38
222.352
222.313
222.261
222.194
222.11
222.007
221.883
221.734
221.558
221.351
221.11
220.831
220.51
220.141
219.723
219.248
218.714
218.11
217.435
216.68
215.846
214.912
213.89
212.756
211.537
210.202
208.759
207.202
205.524
203.738
201.9
199.933
197.946
195.884
193.757
191.743
189.654
187.663
185.645
183.627
181.656
179.801
178.167
177.017
176.351
174.209
237.359
225.556
225.237
225.054
224.817
224.607
224.431
224.284
224.153
224.023
223.887
223.75
223.621
223.509
223.424
223.365
223.325
223.29
223.248
223.19
223.111
223.018
222.92
222.828
222.745
222.672
222.606
222.547
222.495
222.451
222.413
222.379
222.347
222.318
222.291
222.266
222.245
222.227
222.21
222.196
222.184
222.174
222.165
222.158
222.152
222.148
222.147
222.149
222.154
222.161
222.17
222.181
222.195
222.211
222.229
222.25
222.274
222.3
222.327
222.357
222.388
222.42
222.452
222.486
222.519
222.553
222.586
222.618
222.648
222.676
222.7
222.72
222.734
222.743
222.745
222.739
222.722
222.695
222.655
222.6
222.528
222.439
222.327
222.192
222.03
221.838
221.612
221.348
221.042
220.691
220.286
219.825
219.302
218.715
218.055
217.318
216.488
215.571
214.551
213.444
212.218
210.885
209.428
207.856
206.174
204.372
202.465
200.417
198.391
196.177
194.01
191.791
189.611
187.591
185.611
183.838
182.134
180.62
179.173
178.062
175.291
236.468
225.556
225.207
225.012
224.781
224.577
224.411
224.277
224.158
224.047
223.927
223.798
223.665
223.543
223.443
223.374
223.329
223.295
223.26
223.212
223.144
223.058
222.964
222.871
222.789
222.716
222.65
222.592
222.542
222.499
222.463
222.432
222.404
222.378
222.354
222.333
222.315
222.3
222.287
222.277
222.268
222.262
222.257
222.254
222.253
222.254
222.257
222.264
222.273
222.285
222.3
222.316
222.335
222.357
222.381
222.408
222.438
222.47
222.505
222.542
222.58
222.62
222.661
222.703
222.746
222.789
222.833
222.876
222.918
222.958
222.996
223.03
223.061
223.087
223.106
223.119
223.124
223.12
223.105
223.078
223.035
222.977
222.901
222.803
222.681
222.533
222.355
222.144
221.895
221.604
221.268
220.881
220.439
219.937
219.364
218.718
217.985
217.171
216.263
215.265
214.148
212.928
211.586
210.138
208.57
206.873
205.076
203.133
201.159
199.009
196.789
194.552
192.166
189.851
187.489
185.289
183.353
181.812
180.703
179.938
177.306
235.517
225.53
225.168
224.965
224.737
224.539
224.382
224.258
224.151
224.053
223.956
223.844
223.716
223.587
223.474
223.391
223.337
223.302
223.271
223.231
223.174
223.098
223.009
222.918
222.835
222.762
222.697
222.64
222.59
222.549
222.515
222.486
222.461
222.439
222.419
222.401
222.387
222.376
222.367
222.36
222.355
222.352
222.352
222.353
222.356
222.362
222.369
222.381
222.395
222.412
222.432
222.454
222.478
222.505
222.535
222.568
222.604
222.643
222.684
222.727
222.773
222.82
222.869
222.92
222.972
223.024
223.078
223.132
223.185
223.237
223.288
223.337
223.382
223.424
223.461
223.493
223.518
223.535
223.543
223.543
223.529
223.502
223.458
223.396
223.314
223.209
223.078
222.918
222.724
222.494
222.222
221.904
221.534
221.109
220.621
220.066
219.436
218.733
217.939
217.053
216.056
214.962
213.747
212.42
210.958
209.375
207.675
205.856
203.875
201.838
199.648
197.501
195.242
192.965
190.585
188.173
185.802
183.597
181.891
180.765
177.686
234.498
225.597
225.166
224.927
224.687
224.488
224.335
224.22
224.129
224.046
223.964
223.875
223.765
223.638
223.515
223.417
223.351
223.311
223.282
223.249
223.203
223.138
223.056
222.967
222.884
222.81
222.746
222.689
222.641
222.601
222.568
222.542
222.521
222.502
222.485
222.471
222.461
222.453
222.448
222.445
222.444
222.445
222.449
222.454
222.462
222.471
222.484
222.5
222.519
222.541
222.566
222.593
222.623
222.656
222.691
222.73
222.772
222.816
222.864
222.915
222.967
223.022
223.079
223.138
223.198
223.26
223.323
223.387
223.451
223.515
223.578
223.64
223.7
223.757
223.811
223.86
223.904
223.942
223.973
223.994
224.006
224.008
223.995
223.967
223.921
223.855
223.766
223.651
223.508
223.333
223.121
222.869
222.572
222.226
221.823
221.36
220.828
220.223
219.528
218.743
217.856
216.874
215.775
214.557
213.2
211.727
210.122
208.382
206.494
204.49
202.327
200.062
197.78
195.465
193.171
190.973
188.766
186.769
184.839
183.276
179.539
233.411
225.578
225.205
224.917
224.648
224.438
224.283
224.171
224.09
224.025
223.96
223.885
223.797
223.683
223.56
223.452
223.374
223.325
223.294
223.267
223.23
223.176
223.104
223.019
222.936
222.862
222.797
222.74
222.692
222.654
222.623
222.599
222.581
222.565
222.553
222.543
222.536
222.532
222.531
222.532
222.535
222.54
222.547
222.557
222.569
222.583
222.6
222.62
222.644
222.671
222.701
222.734
222.769
222.807
222.848
222.892
222.94
222.991
223.045
223.102
223.161
223.223
223.288
223.354
223.423
223.493
223.566
223.639
223.714
223.789
223.864
223.938
224.012
224.083
224.152
224.218
224.281
224.338
224.389
224.434
224.47
224.497
224.513
224.518
224.507
224.478
224.43
224.361
224.266
224.143
223.989
223.799
223.569
223.293
222.965
222.584
222.139
221.628
221.036
220.366
219.607
218.756
217.792
216.716
215.513
214.194
212.733
211.143
209.41
207.498
205.481
203.222
200.892
198.349
195.815
193.172
190.732
188.621
186.923
185.666
182.148
232.269
225.543
225.201
224.904
224.622
224.394
224.227
224.111
224.035
223.984
223.937
223.879
223.804
223.709
223.598
223.489
223.403
223.345
223.309
223.283
223.253
223.211
223.15
223.073
222.991
222.916
222.85
222.793
222.746
222.708
222.679
222.658
222.642
222.63
222.621
222.615
222.612
222.612
222.615
222.62
222.627
222.636
222.647
222.661
222.677
222.696
222.717
222.742
222.771
222.802
222.837
222.875
222.916
222.959
223.005
223.055
223.109
223.165
223.226
223.289
223.355
223.424
223.496
223.57
223.647
223.725
223.806
223.889
223.974
224.059
224.146
224.232
224.318
224.403
224.487
224.569
224.648
224.724
224.795
224.86
224.919
224.972
225.014
225.046
225.065
225.072
225.062
225.032
224.982
224.907
224.805
224.672
224.503
224.297
224.046
223.748
223.394
222.979
222.493
221.935
221.291
220.557
219.715
218.768
217.702
216.518
215.19
213.728
212.113
210.354
208.441
206.386
204.232
201.839
199.438
196.688
193.974
191.388
189.039
187.241
182.939
231.085
225.463
225.207
224.91
224.619
224.373
224.188
224.057
223.973
223.924
223.891
223.855
223.797
223.714
223.614
223.515
223.429
223.367
223.328
223.301
223.277
223.245
223.196
223.127
223.049
222.973
222.906
222.848
222.801
222.763
222.736
222.716
222.703
222.695
222.689
222.687
222.688
222.692
222.7
222.709
222.72
222.733
222.749
222.767
222.787
222.81
222.835
222.864
222.897
222.934
222.974
223.017
223.062
223.111
223.163
223.218
223.277
223.339
223.405
223.475
223.547
223.623
223.702
223.783
223.867
223.954
224.043
224.135
224.229
224.324
224.421
224.519
224.617
224.715
224.813
224.909
225.004
225.096
225.186
225.271
225.352
225.427
225.495
225.554
225.604
225.641
225.665
225.674
225.667
225.638
225.586
225.506
225.397
225.254
225.072
224.847
224.571
224.242
223.849
223.392
222.854
222.234
221.516
220.702
219.773
218.722
217.529
216.2
214.711
213.076
211.279
209.316
207.187
204.936
202.49
200.04
197.41
195.077
192.711
190.711
186.013
229.896
225.275
225.172
224.934
224.639
224.375
224.167
224.014
223.913
223.857
223.828
223.805
223.768
223.702
223.612
223.519
223.439
223.38
223.341
223.316
223.297
223.275
223.239
223.181
223.107
223.032
222.963
222.905
222.857
222.82
222.793
222.776
222.765
222.76
222.758
222.76
222.764
222.773
222.784
222.798
222.814
222.831
222.85
222.872
222.897
222.923
222.953
222.987
223.024
223.065
223.11
223.157
223.208
223.262
223.319
223.379
223.444
223.512
223.583
223.659
223.738
223.82
223.905
223.994
224.085
224.179
224.277
224.377
224.48
224.584
224.691
224.799
224.909
225.019
225.13
225.24
225.35
225.458
225.564
225.668
225.768
225.864
225.955
226.039
226.116
226.183
226.239
226.281
226.309
226.321
226.316
226.286
226.232
226.146
226.029
225.874
225.676
225.432
225.134
224.776
224.346
223.841
223.249
222.567
221.775
220.866
219.825
218.657
217.34
215.874
214.221
212.398
210.397
208.197
205.763
203.267
200.399
197.667
195.239
193.442
189.16
228.776
225.044
225.092
224.945
224.662
224.38
224.153
223.981
223.862
223.79
223.755
223.736
223.712
223.666
223.594
223.511
223.437
223.38
223.343
223.32
223.307
223.296
223.275
223.232
223.167
223.093
223.023
222.963
222.914
222.876
222.85
222.835
222.826
222.824
222.827
222.832
222.84
222.853
222.868
222.887
222.907
222.928
222.952
222.978
223.006
223.037
223.071
223.108
223.15
223.195
223.245
223.297
223.353
223.412
223.474
223.539
223.608
223.682
223.759
223.84
223.925
224.013
224.105
224.2
224.298
224.4
224.505
224.613
224.724
224.837
224.953
225.071
225.191
225.313
225.435
225.558
225.682
225.805
225.927
226.048
226.166
226.282
226.394
226.501
226.603
226.697
226.783
226.858
226.922
226.971
227.005
227.021
227.019
226.988
226.931
226.84
226.713
226.545
226.33
226.063
225.732
225.335
224.86
224.301
223.641
222.877
221.997
220.996
219.85
218.554
217.078
215.441
213.618
211.617
209.431
206.948
204.447
201.558
198.734
196.284
191.077
227.813
224.762
224.953
224.897
224.661
224.379
224.143
223.96
223.827
223.738
223.687
223.659
223.636
223.605
223.552
223.484
223.418
223.368
223.335
223.316
223.307
223.303
223.295
223.271
223.222
223.155
223.085
223.022
222.971
222.933
222.907
222.893
222.887
222.888
222.895
222.904
222.915
222.931
222.951
222.974
222.998
223.024
223.052
223.083
223.115
223.15
223.188
223.229
223.274
223.324
223.378
223.435
223.496
223.559
223.626
223.696
223.771
223.849
223.932
224.018
224.109
224.203
224.3
224.402
224.507
224.615
224.727
224.842
224.961
225.083
225.208
225.336
225.466
225.597
225.731
225.866
226.002
226.139
226.275
226.412
226.547
226.681
226.812
226.94
227.065
227.184
227.296
227.4
227.495
227.58
227.651
227.707
227.746
227.766
227.766
227.734
227.675
227.578
227.441
227.258
227.021
226.728
226.365
225.927
225.399
224.778
224.047
223.194
222.195
221.048
219.731
218.255
216.571
214.694
212.62
210.346
207.859
205.386
202.725
200.518
195.616
227.019
224.429
224.723
224.756
224.628
224.376
224.137
223.947
223.809
223.709
223.639
223.592
223.557
223.526
223.486
223.435
223.383
223.342
223.316
223.302
223.296
223.3
223.302
223.295
223.267
223.214
223.147
223.083
223.03
222.99
222.964
222.951
222.947
222.95
222.962
222.974
222.989
223.009
223.033
223.06
223.089
223.12
223.152
223.186
223.223
223.262
223.303
223.348
223.397
223.451
223.509
223.571
223.636
223.704
223.776
223.851
223.93
224.013
224.1
224.192
224.288
224.388
224.491
224.598
224.709
224.824
224.943
225.065
225.191
225.321
225.454
225.59
225.729
225.87
226.014
226.16
226.308
226.457
226.607
226.758
226.908
227.058
227.207
227.355
227.5
227.642
227.779
227.91
228.034
228.15
228.255
228.35
228.431
228.494
228.539
228.563
228.565
228.533
228.469
228.364
228.215
228.017
227.756
227.43
227.023
226.531
225.938
225.229
224.392
223.421
222.292
220.997
219.499
217.813
215.893
213.741
211.349
208.788
205.938
203.475
198.526
226.412
224.037
224.392
224.545
224.534
224.371
224.147
223.955
223.808
223.699
223.616
223.551
223.498
223.454
223.411
223.367
223.326
223.296
223.278
223.272
223.276
223.289
223.301
223.303
223.293
223.26
223.204
223.142
223.087
223.046
223.02
223.007
223.004
223.011
223.027
223.043
223.062
223.086
223.113
223.144
223.178
223.213
223.249
223.287
223.328
223.371
223.417
223.465
223.518
223.576
223.637
223.703
223.773
223.846
223.922
224.001
224.085
224.173
224.265
224.362
224.462
224.567
224.676
224.789
224.906
225.027
225.152
225.281
225.414
225.55
225.691
225.835
225.982
226.133
226.286
226.442
226.601
226.761
226.923
227.087
227.252
227.417
227.582
227.747
227.911
228.072
228.231
228.386
228.536
228.68
228.816
228.944
229.061
229.166
229.256
229.327
229.379
229.407
229.411
229.379
229.31
229.196
229.031
228.808
228.518
228.154
227.7
227.146
226.481
225.691
224.752
223.655
222.37
220.901
219.203
217.28
215.109
212.707
210.145
207.563
202.649
226.017
223.66
223.968
224.245
224.358
224.318
224.147
223.968
223.817
223.702
223.613
223.539
223.47
223.406
223.347
223.297
223.257
223.233
223.224
223.225
223.238
223.259
223.286
223.301
223.303
223.29
223.252
223.197
223.142
223.1
223.074
223.062
223.06
223.07
223.09
223.11
223.133
223.16
223.192
223.227
223.265
223.304
223.344
223.387
223.432
223.479
223.528
223.58
223.637
223.698
223.763
223.833
223.907
223.984
224.064
224.148
224.236
224.328
224.425
224.526
224.632
224.742
224.856
224.974
225.096
225.223
225.353
225.488
225.627
225.771
225.918
226.07
226.225
226.383
226.545
226.71
226.879
227.049
227.223
227.398
227.575
227.754
227.934
228.114
228.295
228.475
228.653
228.83
229.003
229.172
229.337
229.495
229.645
229.786
229.915
230.031
230.131
230.211
230.269
230.301
230.307
230.272
230.197
230.072
229.889
229.642
229.315
228.902
228.386
227.751
226.977
226.053
224.952
223.664
222.15
220.422
218.437
216.271
213.841
211.427
207.03
225.828
223.357
223.544
223.86
224.099
224.173
224.116
223.98
223.842
223.726
223.63
223.546
223.467
223.39
223.317
223.252
223.197
223.164
223.155
223.161
223.182
223.215
223.257
223.291
223.303
223.3
223.281
223.242
223.193
223.151
223.125
223.113
223.113
223.127
223.151
223.175
223.202
223.233
223.268
223.307
223.349
223.392
223.437
223.484
223.532
223.583
223.636
223.692
223.752
223.816
223.886
223.959
224.037
224.118
224.202
224.29
224.383
224.479
224.58
224.686
224.796
224.91
225.029
225.152
225.279
225.411
225.547
225.688
225.833
225.982
226.136
226.294
226.456
226.622
226.792
226.966
227.143
227.323
227.506
227.692
227.881
228.072
228.264
228.459
228.654
228.851
229.047
229.243
229.437
229.628
229.817
230.001
230.18
230.353
230.517
230.672
230.814
230.942
231.053
231.141
231.206
231.243
231.25
231.212
231.127
230.985
230.776
230.492
230.117
229.637
229.035
228.295
227.392
226.311
225.021
223.505
221.717
219.699
217.341
214.9
210.835
225.764
223.152
223.223
223.439
223.745
223.945
224.008
223.963
223.856
223.754
223.658
223.566
223.479
223.397
223.319
223.244
223.177
223.123
223.097
223.096
223.115
223.155
223.209
223.261
223.29
223.298
223.293
223.272
223.235
223.197
223.173
223.162
223.164
223.182
223.209
223.237
223.268
223.303
223.342
223.385
223.431
223.479
223.527
223.578
223.63
223.685
223.742
223.801
223.864
223.932
224.005
224.082
224.163
224.248
224.336
224.429
224.525
224.625
224.73
224.84
224.954
225.073
225.196
225.324
225.456
225.592
225.733
225.879
226.029
226.184
226.344
226.508
226.677
226.85
227.027
227.208
227.393
227.581
227.774
227.969
228.168
228.369
228.574
228.78
228.989
229.2
229.412
229.624
229.836
230.048
230.258
230.466
230.671
230.871
231.067
231.255
231.435
231.604
231.76
231.9
232.022
232.12
232.192
232.232
232.24
232.196
232.098
231.936
231.697
231.368
230.936
230.38
229.677
228.811
227.749
226.467
224.944
223.166
221.123
218.801
215.23
225.797
223.053
223.027
223.084
223.325
223.618
223.818
223.876
223.841
223.768
223.683
223.599
223.505
223.414
223.329
223.252
223.181
223.117
223.071
223.052
223.058
223.089
223.149
223.217
223.265
223.289
223.293
223.285
223.264
223.235
223.214
223.207
223.211
223.234
223.264
223.297
223.333
223.371
223.414
223.461
223.511
223.562
223.615
223.669
223.725
223.784
223.844
223.907
223.973
224.044
224.12
224.201
224.286
224.374
224.466
224.562
224.662
224.766
224.874
224.988
225.106
225.229
225.356
225.488
225.625
225.766
225.911
226.062
226.217
226.377
226.542
226.712
226.886
227.065
227.249
227.436
227.628
227.825
228.025
228.229
228.437
228.648
228.863
229.08
229.301
229.524
229.75
229.977
230.205
230.434
230.663
230.891
231.118
231.343
231.565
231.783
231.995
232.2
232.395
232.58
232.75
232.904
233.039
233.146
233.224
233.267
233.274
233.22
233.107
232.914
232.633
232.24
231.717
231.042
230.181
229.115
227.809
226.224
224.385
222.167
219.014
225.876
223.044
222.907
222.835
222.937
223.22
223.537
223.721
223.775
223.752
223.685
223.613
223.533
223.446
223.356
223.27
223.191
223.122
223.068
223.037
223.027
223.041
223.089
223.162
223.227
223.266
223.284
223.287
223.28
223.264
223.251
223.247
223.257
223.283
223.317
223.354
223.394
223.437
223.483
223.534
223.588
223.643
223.7
223.758
223.817
223.879
223.943
224.009
224.079
224.153
224.232
224.316
224.404
224.496
224.592
224.691
224.794
224.902
225.014
225.131
225.253
225.38
225.511
225.647
225.787
225.932
226.082
226.237
226.396
226.561
226.731
226.906
227.085
227.27
227.459
227.653
227.851
228.054
228.261
228.473
228.689
228.909
229.132
229.359
229.59
229.825
230.062
230.302
230.544
230.787
231.032
231.278
231.525
231.771
232.016
232.258
232.498
232.734
232.964
233.186
233.399
233.6
233.787
233.956
234.103
234.22
234.306
234.35
234.354
234.283
234.145
233.906
233.562
233.078
232.427
231.586
230.505
229.162
227.57
225.58
222.77
225.954
223.061
222.83
222.669
222.66
222.831
223.178
223.49
223.652
223.691
223.663
223.607
223.54
223.472
223.394
223.307
223.22
223.14
223.075
223.034
223.019
223.02
223.049
223.111
223.181
223.235
223.267
223.281
223.285
223.282
223.278
223.282
223.299
223.329
223.367
223.409
223.454
223.5
223.551
223.605
223.662
223.722
223.782
223.843
223.906
223.971
224.038
224.108
224.181
224.258
224.34
224.427
224.519
224.614
224.712
224.815
224.921
225.032
225.148
225.268
225.394
225.524
225.658
225.798
225.942
226.091
226.245
226.403
226.567
226.736
226.91
227.089
227.274
227.463
227.657
227.856
228.061
228.269
228.483
228.701
228.924
229.151
229.383
229.618
229.858
230.102
230.349
230.6
230.854
231.111
231.37
231.631
231.893
232.157
232.422
232.686
232.949
233.211
233.47
233.724
233.973
234.215
234.446
234.666
234.87
235.054
235.215
235.34
235.432
235.476
235.474
235.379
235.209
234.914
234.489
233.897
233.072
231.985
230.595
228.801
226.257
226.009
223.066
222.782
222.549
222.462
222.527
222.808
223.187
223.464
223.583
223.601
223.575
223.528
223.477
223.423
223.351
223.266
223.177
223.097
223.043
223.017
223.015
223.033
223.081
223.144
223.203
223.244
223.269
223.283
223.291
223.299
223.312
223.336
223.372
223.415
223.462
223.511
223.562
223.616
223.674
223.735
223.798
223.861
223.926
223.992
224.061
224.131
224.204
224.28
224.36
224.445
224.535
224.629
224.727
224.829
224.935
225.044
225.158
225.277
225.4
225.529
225.662
225.8
225.943
226.091
226.243
226.4
226.562
226.73
226.903
227.081
227.264
227.452
227.646
227.845
228.049
228.258
228.472
228.691
228.915
229.144
229.378
229.616
229.859
230.107
230.359
230.615
230.875
231.139
231.407
231.678
231.951
232.228
232.507
232.788
233.07
233.353
233.637
233.92
234.201
234.48
234.755
235.024
235.287
235.538
235.778
236
236.202
236.378
236.515
236.613
236.658
236.644
236.514
236.28
235.889
235.296
234.472
233.317
231.782
229.49
226.043
223.065
222.754
222.467
222.325
222.316
222.481
222.852
223.22
223.432
223.504
223.51
223.492
223.463
223.431
223.383
223.316
223.231
223.141
223.068
223.027
223.017
223.026
223.062
223.119
223.177
223.223
223.256
223.279
223.296
223.314
223.336
223.369
223.412
223.461
223.513
223.566
223.621
223.679
223.741
223.805
223.871
223.938
224.006
224.075
224.147
224.22
224.295
224.375
224.458
224.546
224.639
224.736
224.837
224.941
225.05
225.162
225.279
225.401
225.527
225.659
225.795
225.936
226.082
226.232
226.388
226.549
226.714
226.885
227.061
227.243
227.43
227.622
227.819
228.022
228.231
228.444
228.663
228.887
229.116
229.35
229.589
229.834
230.083
230.337
230.596
230.86
231.128
231.401
231.678
231.958
232.243
232.531
232.823
233.117
233.415
233.714
234.016
234.319
234.623
234.926
235.229
235.529
235.827
236.118
236.403
236.677
236.939
237.183
237.404
237.595
237.741
237.843
237.877
237.828
237.656
237.336
236.808
235.915
234.691
232.623
226.048
223.049
222.729
222.408
222.225
222.165
222.24
222.539
222.943
223.24
223.376
223.42
223.43
223.43
223.421
223.396
223.352
223.285
223.199
223.113
223.051
223.027
223.028
223.054
223.103
223.158
223.207
223.245
223.275
223.3
223.326
223.358
223.399
223.449
223.505
223.562
223.619
223.679
223.74
223.806
223.874
223.943
224.013
224.084
224.156
224.23
224.306
224.384
224.466
224.552
224.643
224.739
224.839
224.943
225.05
225.161
225.276
225.395
225.52
225.649
225.783
225.922
226.066
226.215
226.368
226.527
226.69
226.859
227.033
227.212
227.397
227.587
227.783
227.984
228.191
228.403
228.62
228.843
229.071
229.305
229.544
229.788
230.037
230.292
230.552
230.817
231.087
231.362
231.642
231.927
232.216
232.51
232.808
233.11
233.416
233.726
234.04
234.357
234.676
234.998
235.322
235.647
235.973
236.299
236.623
236.944
237.261
237.571
237.871
238.158
238.425
238.67
238.881
239.042
239.142
239.163
239.078
238.818
238.223
237.403
235.635
226.029
223.013
222.693
222.359
222.149
222.056
222.074
222.274
222.663
223.021
223.223
223.309
223.351
223.379
223.395
223.395
223.368
223.326
223.258
223.171
223.091
223.048
223.039
223.052
223.095
223.147
223.197
223.239
223.273
223.305
223.338
223.378
223.428
223.485
223.546
223.608
223.671
223.734
223.8
223.869
223.94
224.012
224.085
224.158
224.233
224.31
224.388
224.47
224.554
224.643
224.737
224.836
224.938
225.044
225.154
225.267
225.385
225.507
225.634
225.766
225.903
226.044
226.191
226.342
226.498
226.66
226.826
226.997
227.174
227.356
227.544
227.737
227.936
228.14
228.35
228.566
228.787
229.013
229.245
229.483
229.726
229.974
230.228
230.488
230.753
231.023
231.299
231.581
231.867
232.159
232.455
232.757
233.063
233.374
233.69
234.011
234.336
234.665
234.998
235.335
235.676
236.019
236.366
236.714
237.064
237.415
237.765
238.114
238.459
238.798
239.126
239.444
239.74
240.01
240.229
240.39
240.495
240.517
240.261
239.864
238.638
225.994
222.958
222.639
222.309
222.087
221.968
221.95
222.064
222.404
222.796
223.055
223.186
223.259
223.314
223.358
223.379
223.374
223.348
223.303
223.228
223.141
223.079
223.057
223.06
223.092
223.143
223.194
223.238
223.277
223.314
223.353
223.4
223.457
223.52
223.587
223.654
223.72
223.788
223.858
223.93
224.004
224.079
224.154
224.231
224.308
224.387
224.468
224.552
224.639
224.731
224.828
224.929
225.034
225.142
225.254
225.37
225.49
225.614
225.744
225.878
226.017
226.162
226.311
226.464
226.623
226.787
226.955
227.129
227.309
227.494
227.684
227.88
228.082
228.289
228.502
228.721
228.945
229.175
229.41
229.652
229.899
230.151
230.409
230.673
230.943
231.218
231.499
231.785
232.078
232.375
232.678
232.986
233.3
233.619
233.943
234.273
234.607
234.947
235.292
235.641
235.995
236.354
236.717
237.084
237.455
237.829
238.206
238.584
238.964
239.343
239.719
240.091
240.454
240.805
241.13
241.424
241.664
241.872
241.975
241.856
241.356
225.935
222.884
222.568
222.252
222.029
221.89
221.844
221.901
222.177
222.578
222.884
223.056
223.161
223.241
223.31
223.353
223.368
223.357
223.33
223.274
223.192
223.117
223.081
223.076
223.096
223.145
223.197
223.243
223.285
223.326
223.371
223.424
223.487
223.556
223.627
223.698
223.769
223.84
223.914
223.989
224.066
224.144
224.222
224.3
224.38
224.461
224.545
224.631
224.721
224.815
224.915
225.018
225.125
225.236
225.35
225.468
225.591
225.717
225.849
225.986
226.127
226.274
226.425
226.581
226.742
226.908
227.08
227.256
227.438
227.625
227.818
228.017
228.221
228.431
228.647
228.869
229.096
229.329
229.568
229.813
230.063
230.319
230.581
230.849
231.123
231.403
231.688
231.98
232.277
232.58
232.889
233.203
233.523
233.849
234.18
234.518
234.861
235.209
235.564
235.924
236.289
236.66
237.037
237.419
237.806
238.198
238.596
238.997
239.403
239.811
240.223
240.634
241.045
241.453
241.85
242.233
242.589
242.924
243.231
243.394
243.466
225.852
222.796
222.478
222.183
221.967
221.815
221.748
221.772
221.983
222.375
222.718
222.929
223.061
223.164
223.255
223.32
223.353
223.356
223.34
223.303
223.234
223.157
223.11
223.099
223.108
223.152
223.205
223.254
223.298
223.342
223.392
223.451
223.519
223.593
223.667
223.742
223.816
223.891
223.968
224.047
224.127
224.206
224.286
224.367
224.449
224.533
224.618
224.707
224.799
224.896
224.998
225.104
225.214
225.326
225.443
225.563
225.687
225.816
225.95
226.089
226.233
226.381
226.535
226.693
226.856
227.024
227.198
227.377
227.561
227.751
227.946
228.147
228.354
228.567
228.785
229.01
229.24
229.476
229.718
229.965
230.219
230.479
230.744
231.016
231.294
231.577
231.867
232.163
232.465
232.773
233.086
233.406
233.732
234.064
234.402
234.746
235.096
235.452
235.815
236.184
236.559
236.94
237.327
237.721
238.121
238.527
238.939
239.357
239.781
240.211
240.645
241.082
241.524
241.966
242.406
242.838
243.255
243.67
244.055
244.354
244.655
225.738
222.699
222.382
222.11
221.904
221.742
221.658
221.664
221.819
222.195
222.566
222.809
222.967
223.089
223.196
223.281
223.331
223.347
223.341
223.313
223.262
223.193
223.142
223.126
223.13
223.166
223.219
223.269
223.315
223.362
223.416
223.48
223.553
223.63
223.708
223.785
223.863
223.942
224.022
224.103
224.185
224.267
224.349
224.432
224.516
224.601
224.689
224.779
224.874
224.974
225.078
225.186
225.298
225.412
225.531
225.653