/*--------------------------------*- C++ -*----------------------------------*\
| =========                 |                                                 |
| \\      /  F ield         | OpenFOAM: The Open Source CFD Toolbox           |
|  \\    /   O peration     | Version:  2412                                  |
|   \\  /    A nd           | Website:  www.openfoam.com                      |
|    \\/     M anipulation  |                                                 |
\*---------------------------------------------------------------------------*/
FoamFile
{
    version     2.0;
    format      ascii;
    arch        "LSB;label=32;scalar=64";
    class       volScalarField;
    location    "0.057";
    object      T;
}
// * * * * * * * * * * * * * * * * * * * * * * * * * * * * * * * * * * * * * //

dimensions      [0 0 0 1 0 0 0];

internalField   nonuniform List<scalar> 
9763
(
234.017
235.295
233.986
235.389
233.959
235.431
233.926
235.437
233.88
235.387
233.792
235.254
233.663
235.07
233.522
234.897
233.403
234.751
233.299
234.601
233.197
234.441
233.103
234.298
233.021
234.17
232.944
234.047
232.867
233.932
232.79
233.82
232.712
233.709
232.628
233.594
232.538
233.476
232.439
233.354
232.334
233.226
232.223
233.091
232.109
232.949
231.991
232.8
231.872
232.644
231.75
232.482
231.627
232.315
231.503
232.143
231.378
231.965
231.251
231.783
231.124
231.596
230.994
231.406
230.863
231.213
230.726
231.02
230.581
230.829
230.424
230.641
230.258
230.451
230.087
230.256
229.912
230.056
229.734
229.848
229.634
229.415
229.192
244.992
224.955
226.564
226.985
226.743
226.526
226.317
226.189
226.097
226.041
225.995
225.958
225.914
225.853
225.762
225.63
225.452
225.233
224.985
224.72
224.447
224.174
223.904
223.641
223.384
223.132
222.884
222.644
222.411
222.189
221.981
221.789
221.615
221.458
221.319
221.197
221.092
221.005
220.937
220.886
220.853
220.837
220.832
220.843
220.871
220.913
220.966
221.027
221.096
221.174
221.261
221.359
221.482
221.642
221.847
222.113
222.426
222.771
223.139
223.522
223.893
224.242
224.572
224.89
225.207
225.521
225.824
226.114
226.393
226.668
226.946
227.231
227.518
227.794
228.045
228.269
228.474
228.669
228.866
229.076
229.304
229.546
229.798
230.054
230.309
230.559
230.804
231.046
231.281
231.507
231.723
231.929
232.124
232.311
232.487
232.653
232.808
232.951
233.08
233.194
233.294
233.382
233.468
233.556
233.644
233.734
233.829
233.934
234.052
234.188
234.338
234.499
234.656
234.804
234.939
235.04
235.084
235.081
235.024
234.986
234.775
244.871
224.962
226.552
226.975
226.735
226.521
226.312
226.185
226.094
226.038
225.993
225.955
225.911
225.85
225.759
225.626
225.448
225.23
224.982
224.717
224.444
224.171
223.902
223.638
223.38
223.127
222.879
222.637
222.402
222.177
221.966
221.771
221.593
221.433
221.291
221.165
221.057
220.966
220.894
220.84
220.804
220.785
220.779
220.787
220.813
220.853
220.905
220.966
221.034
221.111
221.196
221.295
221.413
221.577
221.78
222.04
222.35
222.69
223.05
223.427
223.799
224.152
224.488
224.813
225.132
225.446
225.748
226.033
226.303
226.567
226.837
227.119
227.414
227.706
227.974
228.205
228.408
228.594
228.771
228.947
229.134
229.339
229.567
229.816
230.08
230.352
230.624
230.889
231.143
231.383
231.61
231.824
232.024
232.213
232.391
232.558
232.713
232.857
232.989
233.111
233.223
233.326
233.422
233.514
233.605
233.697
233.793
233.903
234.03
234.177
234.34
234.517
234.696
234.865
235.011
235.127
235.213
235.267
235.293
235.303
235.296
244.832
224.959
226.541
226.968
226.729
226.515
226.308
226.181
226.09
226.035
225.99
225.953
225.908
225.847
225.756
225.623
225.445
225.226
224.978
224.714
224.442
224.169
223.899
223.636
223.377
223.123
222.874
222.63
222.393
222.166
221.952
221.753
221.572
221.408
221.261
221.132
221.019
220.925
220.849
220.792
220.753
220.732
220.723
220.729
220.752
220.79
220.841
220.9
220.968
221.045
221.129
221.225
221.339
221.503
221.705
221.965
222.271
222.604
222.958
223.329
223.7
224.056
224.396
224.725
225.046
225.361
225.664
225.947
226.211
226.466
226.723
226.994
227.281
227.573
227.854
228.11
228.342
228.549
228.73
228.896
229.058
229.227
229.41
229.609
229.825
230.052
230.284
230.515
230.739
230.954
231.16
231.36
231.552
231.737
231.914
232.082
232.239
232.384
232.518
232.639
232.75
232.851
232.945
233.033
233.118
233.204
233.296
233.399
233.518
233.656
233.815
233.992
234.18
234.366
234.537
234.682
234.796
234.878
234.931
234.964
234.984
244.837
224.955
226.532
226.961
226.722
226.51
226.303
226.177
226.087
226.032
225.988
225.951
225.906
225.844
225.752
225.62
225.441
225.223
224.975
224.711
224.439
224.166
223.897
223.633
223.374
223.119
222.869
222.623
222.385
222.155
221.938
221.736
221.551
221.383
221.233
221.099
220.984
220.885
220.806
220.746
220.703
220.679
220.668
220.671
220.692
220.728
220.777
220.836
220.903
220.979
221.062
221.158
221.267
221.431
221.633
221.893
222.196
222.524
222.874
223.243
223.614
223.971
224.31
224.639
224.96
225.274
225.578
225.862
226.125
226.376
226.624
226.88
227.148
227.427
227.709
227.984
228.247
228.486
228.693
228.869
229.027
229.179
229.335
229.498
229.668
229.846
230.028
230.212
230.397
230.58
230.76
230.936
231.109
231.277
231.44
231.597
231.747
231.89
232.023
232.145
232.257
232.36
232.454
232.542
232.626
232.71
232.798
232.895
233.007
233.137
233.288
233.46
233.647
233.839
234.02
234.178
234.303
234.392
234.45
234.486
234.506
244.806
224.951
226.523
226.954
226.715
226.505
226.299
226.173
226.084
226.03
225.986
225.948
225.903
225.841
225.749
225.616
225.438
225.22
224.972
224.708
224.437
224.164
223.895
223.631
223.371
223.116
222.864
222.617
222.377
222.145
221.925
221.719
221.531
221.359
221.205
221.068
220.949
220.847
220.764
220.7
220.655
220.627
220.614
220.615
220.632
220.667
220.715
220.772
220.839
220.914
220.997
221.092
221.197
221.36
221.56
221.82
222.123
222.452
222.803
223.17
223.538
223.891
224.225
224.551
224.872
225.185
225.489
225.774
226.039
226.29
226.531
226.774
227.021
227.28
227.549
227.829
228.111
228.378
228.614
228.814
228.985
229.138
229.284
229.429
229.574
229.721
229.869
230.019
230.168
230.319
230.467
230.615
230.764
230.913
231.061
231.207
231.349
231.486
231.616
231.737
231.848
231.95
232.044
232.131
232.214
232.297
232.384
232.48
232.589
232.716
232.865
233.037
233.226
233.422
233.61
233.774
233.903
233.994
234.052
234.086
234.105
244.8
224.947
226.514
226.947
226.708
226.5
226.295
226.17
226.081
226.028
225.983
225.946
225.901
225.839
225.746
225.613
225.435
225.216
224.969
224.706
224.434
224.162
223.893
223.628
223.369
223.112
222.859
222.611
222.369
222.135
221.912
221.703
221.511
221.336
221.178
221.038
220.914
220.809
220.722
220.654
220.606
220.575
220.56
220.559
220.573
220.606
220.652
220.709
220.774
220.849
220.933
221.027
221.13
221.289
221.487
221.746
222.052
222.384
222.737
223.102
223.466
223.816
224.146
224.466
224.784
225.095
225.398
225.686
225.955
226.208
226.446
226.677
226.904
227.139
227.391
227.664
227.954
228.242
228.507
228.737
228.932
229.096
229.24
229.374
229.505
229.634
229.762
229.89
230.017
230.145
230.273
230.4
230.531
230.665
230.8
230.936
231.071
231.203
231.33
231.45
231.561
231.664
231.757
231.844
231.926
232.008
232.094
232.189
232.297
232.425
232.576
232.75
232.942
233.143
233.335
233.504
233.634
233.726
233.783
233.812
233.818
244.785
224.943
226.505
226.94
226.701
226.494
226.29
226.166
226.079
226.025
225.981
225.944
225.898
225.836
225.743
225.61
225.431
225.213
224.966
224.703
224.432
224.16
223.891
223.626
223.366
223.109
222.855
222.605
222.361
222.125
221.899
221.687
221.491
221.313
221.151
221.007
220.879
220.77
220.679
220.608
220.557
220.523
220.505
220.501
220.513
220.544
220.588
220.643
220.708
220.783
220.867
220.961
221.062
221.218
221.413
221.671
221.977
222.31
222.662
223.026
223.389
223.739
224.065
224.377
224.688
224.995
225.295
225.586
225.862
226.12
226.361
226.586
226.797
227.01
227.239
227.493
227.779
228.076
228.357
228.61
228.827
229.011
229.169
229.307
229.435
229.556
229.675
229.792
229.908
230.025
230.142
230.259
230.381
230.506
230.635
230.765
230.895
231.024
231.149
231.268
231.379
231.482
231.575
231.662
231.745
231.828
231.916
232.012
232.124
232.256
232.412
232.591
232.789
232.996
233.194
233.366
233.498
233.587
233.642
233.676
233.695
244.775
224.939
226.495
226.933
226.694
226.489
226.286
226.163
226.076
226.023
225.979
225.942
225.896
225.833
225.74
225.606
225.428
225.21
224.963
224.7
224.43
224.158
223.889
223.624
223.363
223.105
222.85
222.599
222.353
222.115
221.886
221.671
221.472
221.289
221.124
220.975
220.844
220.731
220.636
220.561
220.506
220.469
220.449
220.442
220.451
220.48
220.523
220.576
220.64
220.715
220.799
220.893
220.994
221.148
221.341
221.594
221.897
222.23
222.579
222.944
223.305
223.653
223.979
224.287
224.591
224.891
225.187
225.478
225.762
226.029
226.278
226.504
226.707
226.9
227.103
227.329
227.589
227.874
228.158
228.427
228.669
228.879
229.057
229.211
229.346
229.47
229.587
229.701
229.814
229.928
230.041
230.155
230.273
230.394
230.517
230.643
230.77
230.896
231.018
231.136
231.245
231.346
231.439
231.525
231.608
231.691
231.779
231.877
231.992
232.129
232.29
232.476
232.68
232.891
233.093
233.269
233.402
233.489
233.538
233.567
233.593
244.762
224.934
226.485
226.925
226.687
226.484
226.282
226.159
226.073
226.02
225.976
225.939
225.893
225.83
225.737
225.603
225.424
225.206
224.96
224.697
224.427
224.155
223.886
223.622
223.36
223.102
222.846
222.593
222.345
222.104
221.873
221.655
221.452
221.265
221.096
220.943
220.808
220.69
220.592
220.513
220.454
220.414
220.391
220.381
220.388
220.414
220.455
220.507
220.57
220.644
220.729
220.823
220.925
221.077
221.265
221.514
221.813
222.143
222.488
222.849
223.209
223.557
223.886
224.197
224.494
224.787
225.075
225.361
225.648
225.925
226.186
226.421
226.625
226.807
226.989
227.184
227.409
227.666
227.938
228.211
228.468
228.696
228.895
229.068
229.22
229.356
229.484
229.606
229.725
229.842
229.958
230.075
230.192
230.311
230.431
230.553
230.675
230.797
230.915
231.029
231.134
231.231
231.32
231.402
231.481
231.56
231.646
231.743
231.857
231.995
232.159
232.349
232.557
232.771
232.975
233.151
233.286
233.374
233.42
233.44
233.434
244.75
224.929
226.475
226.918
226.679
226.478
226.277
226.155
226.069
226.018
225.974
225.937
225.891
225.828
225.734
225.599
225.421
225.203
224.957
224.695
224.425
224.153
223.884
223.619
223.358
223.098
222.841
222.587
222.338
222.094
221.86
221.638
221.431
221.241
221.067
220.911
220.771
220.649
220.547
220.464
220.401
220.357
220.331
220.319
220.323
220.346
220.385
220.435
220.497
220.571
220.656
220.75
220.852
221.005
221.19
221.436
221.731
222.058
222.397
222.752
223.109
223.457
223.791
224.105
224.402
224.689
224.967
225.243
225.524
225.808
226.083
226.335
226.552
226.733
226.901
227.068
227.254
227.471
227.711
227.969
228.228
228.471
228.69
228.884
229.057
229.214
229.36
229.498
229.63
229.757
229.881
230.003
230.123
230.243
230.362
230.482
230.602
230.72
230.835
230.944
231.046
231.138
231.223
231.301
231.376
231.452
231.534
231.629
231.742
231.881
232.047
232.239
232.451
232.668
232.874
233.05
233.184
233.272
233.318
233.338
233.331
244.739
224.924
226.464
226.91
226.672
226.473
226.273
226.151
226.066
226.015
225.972
225.934
225.888
225.825
225.731
225.596
225.417
225.199
224.954
224.692
224.422
224.151
223.882
223.617
223.355
223.095
222.837
222.581
222.33
222.084
221.847
221.622
221.411
221.216
221.039
220.878
220.734
220.608
220.5
220.413
220.347
220.299
220.27
220.255
220.256
220.276
220.313
220.362
220.423
220.495
220.58
220.674
220.777
220.93
221.114
221.36
221.651
221.976
222.312
222.659
223.013
223.358
223.694
224.012
224.313
224.599
224.867
225.131
225.4
225.681
225.963
226.23
226.466
226.659
226.823
226.975
227.13
227.306
227.509
227.735
227.979
228.223
228.453
228.665
228.857
229.034
229.201
229.36
229.513
229.659
229.798
229.931
230.059
230.183
230.303
230.423
230.54
230.654
230.764
230.868
230.965
231.053
231.133
231.206
231.278
231.35
231.429
231.521
231.632
231.769
231.935
232.129
232.343
232.563
232.771
232.949
233.084
233.173
233.22
233.236
233.236
244.728
224.918
226.454
226.902
226.664
226.467
226.268
226.147
226.063
226.012
225.969
225.932
225.886
225.822
225.727
225.592
225.413
225.196
224.95
224.689
224.42
224.149
223.88
223.615
223.352
223.091
222.832
222.575
222.322
222.074
221.834
221.605
221.391
221.192
221.01
220.845
220.696
220.566
220.454
220.362
220.291
220.24
220.207
220.19
220.188
220.204
220.239
220.287
220.346
220.418
220.503
220.597
220.7
220.852
221.034
221.282
221.575
221.901
222.235
222.575
222.926
223.268
223.603
223.922
224.227
224.513
224.777
225.028
225.281
225.549
225.829
226.109
226.365
226.58
226.753
226.9
227.036
227.178
227.339
227.525
227.737
227.964
228.193
228.415
228.626
228.825
229.013
229.191
229.362
229.526
229.683
229.831
229.971
230.103
230.229
230.35
230.466
230.578
230.683
230.781
230.871
230.952
231.026
231.095
231.161
231.228
231.301
231.387
231.492
231.622
231.782
231.971
232.182
232.401
232.611
232.792
232.931
233.023
233.073
233.093
233.096
244.717
224.913
226.443
226.894
226.657
226.461
226.263
226.144
226.06
226.01
225.967
225.93
225.883
225.819
225.724
225.589
225.409
225.192
224.947
224.686
224.417
224.147
223.878
223.612
223.35
223.088
222.827
222.569
222.314
222.064
221.821
221.589
221.37
221.167
220.981
220.811
220.659
220.523
220.407
220.31
220.235
220.18
220.143
220.124
220.119
220.132
220.164
220.21
220.268
220.34
220.424
220.517
220.62
220.772
220.952
221.2
221.498
221.827
222.161
222.498
222.849
223.189
223.518
223.832
224.137
224.425
224.69
224.935
225.173
225.423
225.692
225.974
226.243
226.48
226.672
226.825
226.956
227.077
227.203
227.348
227.519
227.716
227.93
228.151
228.373
228.59
228.798
228.994
229.18
229.355
229.521
229.678
229.827
229.968
230.1
230.225
230.342
230.452
230.553
230.646
230.729
230.805
230.872
230.935
230.995
231.057
231.124
231.202
231.299
231.419
231.569
231.748
231.951
232.165
232.373
232.556
232.699
232.795
232.85
232.873
232.878
244.707
224.908
226.432
226.886
226.649
226.456
226.259
226.14
226.057
226.007
225.965
225.927
225.881
225.816
225.721
225.585
225.406
225.188
224.944
224.683
224.415
224.144
223.876
223.61
223.347
223.084
222.823
222.563
222.306
222.054
221.808
221.573
221.35
221.143
220.952
220.778
220.621
220.481
220.359
220.258
220.178
220.119
220.079
220.056
220.048
220.058
220.088
220.133
220.189
220.259
220.344
220.437
220.54
220.689
220.867
221.113
221.411
221.743
222.081
222.421
222.776
223.115
223.438
223.745
224.047
224.336
224.605
224.849
225.077
225.31
225.56
225.83
226.102
226.356
226.572
226.743
226.879
226.992
227.092
227.201
227.332
227.492
227.679
227.886
228.106
228.33
228.549
228.759
228.958
229.145
229.32
229.482
229.634
229.775
229.907
230.03
230.145
230.252
230.35
230.439
230.518
230.59
230.653
230.712
230.768
230.825
230.886
230.957
231.045
231.154
231.291
231.457
231.648
231.853
232.056
232.237
232.381
232.481
232.538
232.564
232.572
244.697
224.903
226.421
226.878
226.641
226.45
226.254
226.136
226.054
226.005
225.962
225.925
225.878
225.813
225.717
225.581
225.402
225.185
224.94
224.68
224.412
224.142
223.874
223.608
223.344
223.081
222.818
222.557
222.299
222.044
221.795
221.556
221.33
221.118
220.923
220.744
220.582
220.438
220.311
220.205
220.121
220.057
220.013
219.987
219.976
219.984
220.011
220.054
220.109
220.178
220.262
220.355
220.459
220.605
220.779
221.019
221.313
221.644
221.985
222.333
222.694
223.038
223.358
223.66
223.955
224.24
224.514
224.761
224.988
225.209
225.44
225.69
225.952
226.213
226.448
226.641
226.79
226.904
226.995
227.08
227.18
227.304
227.459
227.643
227.85
228.066
228.284
228.494
228.695
228.885
229.062
229.228
229.382
229.524
229.655
229.776
229.889
229.993
230.088
230.175
230.253
230.322
230.384
230.44
230.493
230.546
230.602
230.667
230.746
230.846
230.971
231.124
231.303
231.499
231.694
231.872
232.015
232.116
232.176
232.204
232.215
244.689
224.897
226.41
226.87
226.634
226.444
226.249
226.132
226.051
226.002
225.96
225.923
225.875
225.81
225.714
225.577
225.398
225.181
224.937
224.677
224.41
224.14
223.871
223.606
223.342
223.078
222.814
222.552
222.291
222.034
221.783
221.54
221.31
221.094
220.894
220.711
220.544
220.395
220.263
220.152
220.063
219.995
219.947
219.917
219.904
219.908
219.933
219.973
220.027
220.095
220.178
220.272
220.377
220.52
220.69
220.923
221.209
221.534
221.875
222.229
222.598
222.951
223.273
223.571
223.856
224.137
224.415
224.67
224.904
225.12
225.335
225.561
225.802
226.054
226.299
226.513
226.682
226.806
226.9
226.978
227.061
227.163
227.291
227.448
227.628
227.822
228.02
228.216
228.407
228.589
228.761
228.922
229.072
229.212
229.343
229.466
229.579
229.684
229.78
229.867
229.943
230.011
230.071
230.125
230.175
230.225
230.277
230.337
230.41
230.502
230.618
230.762
230.931
231.119
231.31
231.485
231.627
231.729
231.791
231.822
231.834
244.68
224.892
226.399
226.862
226.626
226.438
226.245
226.128
226.048
226
225.958
225.92
225.873
225.807
225.71
225.574
225.394
225.177
224.934
224.674
224.407
224.138
223.869
223.603
223.339
223.074
222.81
222.546
222.284
222.025
221.77
221.524
221.29
221.07
220.866
220.678
220.506
220.352
220.215
220.099
220.004
219.932
219.88
219.846
219.83
219.832
219.853
219.892
219.944
220.011
220.093
220.187
220.294
220.434
220.603
220.829
221.106
221.422
221.759
222.114
222.486
222.849
223.177
223.476
223.755
224.031
224.309
224.57
224.813
225.031
225.238
225.444
225.662
225.894
226.135
226.362
226.55
226.693
226.802
226.892
226.979
227.074
227.186
227.317
227.464
227.623
227.788
227.955
228.121
228.284
228.441
228.592
228.735
228.871
228.999
229.119
229.232
229.337
229.433
229.521
229.598
229.667
229.727
229.781
229.83
229.878
229.928
229.986
230.055
230.142
230.253
230.392
230.558
230.744
230.935
231.112
231.258
231.363
231.428
231.46
231.473
244.672
224.886
226.388
226.853
226.618
226.432
226.24
226.124
226.044
225.997
225.955
225.918
225.87
225.804
225.707
225.57
225.39
225.173
224.93
224.671
224.405
224.135
223.867
223.601
223.336
223.071
222.805
222.54
222.276
222.015
221.758
221.509
221.271
221.046
220.837
220.644
220.468
220.308
220.167
220.045
219.946
219.868
219.812
219.774
219.755
219.754
219.772
219.809
219.86
219.925
220.007
220.1
220.209
220.346
220.515
220.738
221.013
221.325
221.657
222.005
222.37
222.736
223.071
223.375
223.652
223.923
224.196
224.463
224.715
224.941
225.145
225.337
225.533
225.741
225.967
226.194
226.398
226.567
226.705
226.821
226.928
227.03
227.134
227.243
227.358
227.479
227.606
227.737
227.87
228.005
228.139
228.271
228.4
228.526
228.646
228.761
228.871
228.975
229.072
229.161
229.242
229.315
229.379
229.437
229.489
229.54
229.592
229.65
229.719
229.807
229.918
230.059
230.228
230.42
230.619
230.806
230.961
231.072
231.14
231.172
231.184
244.666
224.881
226.377
226.845
226.61
226.426
226.235
226.12
226.041
225.994
225.953
225.915
225.868
225.801
225.704
225.566
225.386
225.169
224.927
224.668
224.402
224.133
223.865
223.599
223.334
223.068
222.801
222.535
222.269
222.006
221.746
221.493
221.251
221.022
220.809
220.611
220.43
220.265
220.118
219.991
219.886
219.804
219.743
219.702
219.68
219.675
219.689
219.724
219.774
219.839
219.919
220.012
220.123
220.257
220.428
220.652
220.93
221.245
221.574
221.912
222.262
222.623
222.962
223.27
223.55
223.817
224.084
224.352
224.61
224.844
225.052
225.237
225.415
225.6
225.804
226.021
226.235
226.43
226.603
226.752
226.885
227.001
227.105
227.2
227.293
227.385
227.48
227.578
227.678
227.781
227.887
227.995
228.104
228.212
228.32
228.426
228.53
228.632
228.73
228.825
228.913
228.994
229.068
229.134
229.195
229.253
229.312
229.376
229.451
229.545
229.664
229.814
229.994
230.201
230.416
230.619
230.787
230.907
230.977
231.009
231.018
244.658
224.875
226.365
226.836
226.602
226.42
226.23
226.116
226.038
225.992
225.951
225.913
225.865
225.798
225.7
225.562
225.382
225.166
224.923
224.665
224.399
224.131
223.863
223.597
223.331
223.065
222.797
222.529
222.262
221.996
221.734
221.478
221.232
220.999
220.78
220.578
220.392
220.222
220.07
219.937
219.827
219.739
219.674
219.628
219.603
219.594
219.606
219.639
219.687
219.75
219.829
219.922
220.034
220.166
220.34
220.568
220.852
221.175
221.507
221.837
222.171
222.52
222.858
223.171
223.453
223.718
223.977
224.242
224.501
224.744
224.958
225.142
225.308
225.471
225.65
225.849
226.065
226.281
226.49
226.676
226.835
226.966
227.076
227.167
227.25
227.326
227.4
227.475
227.551
227.629
227.71
227.794
227.882
227.971
228.064
228.159
228.257
228.358
228.459
228.56
228.657
228.75
228.836
228.914
228.987
229.055
229.124
229.197
229.282
229.386
229.516
229.68
229.876
230.1
230.332
230.551
230.732
230.858
230.931
230.962
230.971
244.658
224.869
226.353
226.827
226.594
226.414
226.225
226.112
226.035
225.989
225.948
225.911
225.862
225.795
225.697
225.558
225.378
225.162
224.92
224.662
224.397
224.129
223.861
223.595
223.329
223.062
222.793
222.524
222.255
221.987
221.722
221.463
221.213
220.975
220.752
220.545
220.353
220.178
220.021
219.883
219.767
219.674
219.603
219.554
219.525
219.513
219.521
219.551
219.598
219.66
219.739
219.832
219.945
220.075
220.249
220.478
220.767
221.1
221.439
221.768
222.093
222.43
222.768
223.081
223.364
223.625
223.877
224.137
224.394
224.644
224.865
225.052
225.21
225.355
225.508
225.686
225.894
226.125
226.361
226.58
226.764
226.911
227.028
227.127
227.211
227.284
227.351
227.415
227.478
227.541
227.607
227.674
227.745
227.82
227.901
227.989
228.084
228.186
228.291
228.399
228.507
228.61
228.706
228.794
228.876
228.952
229.028
229.11
229.202
229.314
229.453
229.627
229.836
230.072
230.316
230.544
230.73
230.861
230.935
230.967
230.976
244.647
224.863
226.341
226.819
226.585
226.408
226.22
226.107
226.032
225.986
225.946
225.908
225.86
225.792
225.693
225.554
225.374
225.158
224.916
224.659
224.394
224.126
223.859
223.593
223.327
223.059
222.789
222.518
222.248
221.978
221.71
221.448
221.194
220.952
220.724
220.512
220.315
220.135
219.972
219.828
219.706
219.608
219.532
219.478
219.445
219.43
219.435
219.462
219.508
219.569
219.646
219.739
219.853
219.984
220.157
220.383
220.668
221.005
221.353
221.688
222.016
222.35
222.688
223.004
223.286
223.542
223.787
224.039
224.294
224.546
224.774
224.967
225.122
225.253
225.381
225.534
225.727
225.959
226.212
226.453
226.658
226.824
226.956
227.065
227.159
227.241
227.314
227.379
227.44
227.499
227.558
227.618
227.68
227.75
227.828
227.916
228.012
228.117
228.228
228.342
228.454
228.562
228.662
228.753
228.836
228.914
228.992
229.074
229.169
229.283
229.427
229.606
229.821
230.065
230.317
230.552
230.743
230.874
230.948
230.98
230.985
244.648
224.857
226.329
226.81
226.577
226.402
226.215
226.103
226.028
225.984
225.943
225.906
225.857
225.789
225.689
225.55
225.37
225.154
224.913
224.656
224.392
224.124
223.857
223.591
223.324
223.056
222.785
222.513
222.241
221.969
221.699
221.433
221.175
220.929
220.696
220.479
220.277
220.092
219.923
219.773
219.646
219.541
219.46
219.402
219.364
219.346
219.348
219.372
219.415
219.475
219.551
219.644
219.759
219.892
220.065
220.285
220.558
220.886
221.236
221.583
221.926
222.269
222.614
222.933
223.217
223.465
223.702
223.948
224.199
224.452
224.686
224.887
225.043
225.165
225.272
225.399
225.57
225.793
226.047
226.297
226.516
226.697
226.847
226.972
227.08
227.176
227.263
227.342
227.413
227.477
227.538
227.598
227.662
227.734
227.814
227.904
228.004
228.112
228.225
228.341
228.454
228.561
228.659
228.748
228.828
228.902
228.976
229.055
229.147
229.26
229.402
229.582
229.799
230.046
230.302
230.54
230.734
230.866
230.938
230.967
230.966
244.638
224.851
226.317
226.801
226.569
226.395
226.21
226.099
226.025
225.981
225.941
225.903
225.854
225.786
225.686
225.547
225.366
225.15
224.909
224.653
224.389
224.122
223.855
223.589
223.322
223.053
222.781
222.508
222.234
221.96
221.688
221.419
221.157
220.906
220.669
220.446
220.239
220.048
219.874
219.718
219.584
219.474
219.388
219.324
219.282
219.261
219.26
219.279
219.321
219.379
219.454
219.547
219.663
219.798
219.971
220.187
220.448
220.76
221.102
221.457
221.817
222.178
222.534
222.861
223.148
223.391
223.623
223.861
224.109
224.361
224.601
224.811
224.973
225.091
225.183
225.286
225.431
225.631
225.871
226.117
226.34
226.533
226.698
226.841
226.966
227.079
227.181
227.277
227.365
227.446
227.52
227.591
227.664
227.743
227.833
227.93
228.036
228.148
228.262
228.375
228.482
228.581
228.67
228.751
228.825
228.892
228.959
229.031
229.116
229.223
229.36
229.533
229.746
229.988
230.241
230.478
230.672
230.803
230.875
230.903
230.902
244.64
224.845
226.305
226.792
226.56
226.389
226.205
226.095
226.022
225.978
225.939
225.901
225.852
225.783
225.682
225.543
225.362
225.146
224.906
224.65
224.387
224.12
223.853
223.587
223.32
223.05
222.777
222.503
222.227
221.951
221.676
221.404
221.139
220.883
220.641
220.413
220.201
220.005
219.825
219.663
219.523
219.406
219.314
219.245
219.199
219.175
219.17
219.185
219.225
219.282
219.355
219.448
219.563
219.702
219.876
220.093
220.347
220.646
220.978
221.33
221.696
222.071
222.441
222.78
223.073
223.317
223.545
223.775
224.02
224.269
224.514
224.733
224.907
225.028
225.115
225.2
225.317
225.485
225.697
225.925
226.142
226.341
226.519
226.675
226.815
226.944
227.064
227.177
227.281
227.378
227.47
227.561
227.654
227.751
227.851
227.958
228.069
228.181
228.29
228.396
228.496
228.588
228.668
228.738
228.799
228.855
228.91
228.971
229.044
229.138
229.261
229.422
229.622
229.854
230.101
230.335
230.528
230.662
230.735
230.765
230.762
244.633
224.839
226.292
226.782
226.552
226.383
226.2
226.091
226.018
225.976
225.936
225.898
225.849
225.779
225.679
225.539
225.358
225.142
224.902
224.647
224.384
224.118
223.851
223.585
223.317
223.047
222.773
222.497
222.22
221.943
221.665
221.39
221.121
220.861
220.614
220.381
220.163
219.961
219.775
219.608
219.461
219.338
219.24
219.166
219.115
219.087
219.078
219.09
219.127
219.182
219.255
219.346
219.46
219.601
219.778
220.003
220.262
220.562
220.887
221.229
221.584
221.957
222.333
222.684
222.988
223.24
223.465
223.69
223.929
224.173
224.422
224.652
224.842
224.974
225.063
225.139
225.233
225.366
225.539
225.735
225.934
226.131
226.318
226.487
226.639
226.779
226.912
227.04
227.161
227.278
227.39
227.503
227.616
227.732
227.848
227.963
228.076
228.185
228.288
228.383
228.468
228.541
228.603
228.655
228.701
228.743
228.786
228.835
228.896
228.977
229.087
229.234
229.419
229.639
229.877
230.107
230.301
230.438
230.515
230.548
230.542
244.635
224.833
226.28
226.773
226.543
226.376
226.194
226.086
226.015
225.973
225.934
225.896
225.846
225.776
225.675
225.535
225.354
225.138
224.899
224.644
224.382
224.115
223.849
223.583
223.315
223.044
222.769
222.492
222.214
221.934
221.654
221.376
221.103
220.839
220.586
220.348
220.125
219.917
219.726
219.552
219.398
219.269
219.164
219.084
219.029
218.996
218.984
218.993
219.027
219.081
219.152
219.243
219.354
219.497
219.675
219.91
220.188
220.504
220.832
221.165
221.497
221.849
222.217
222.574
222.891
223.156
223.384
223.605
223.836
224.074
224.322
224.561
224.77
224.921
225.023
225.099
225.178
225.279
225.41
225.564
225.733
225.918
226.106
226.284
226.447
226.598
226.74
226.875
227.006
227.136
227.267
227.401
227.534
227.667
227.792
227.909
228.016
228.113
228.2
228.278
228.345
228.402
228.449
228.489
228.525
228.559
228.595
228.637
228.69
228.762
228.861
228.995
229.167
229.374
229.602
229.826
230.019
230.158
230.238
230.273
230.264
244.63
224.828
226.267
226.763
226.535
226.369
226.189
226.082
226.012
225.97
225.931
225.893
225.844
225.773
225.672
225.531
225.349
225.134
224.895
224.641
224.379
224.113
223.847
223.581
223.313
223.041
222.766
222.487
222.207
221.926
221.643
221.362
221.085
220.817
220.559
220.316
220.087
219.874
219.676
219.496
219.336
219.199
219.088
219.002
218.941
218.904
218.888
218.894
218.925
218.977
219.047
219.137
219.247
219.389
219.568
219.81
220.108
220.45
220.796
221.128
221.438
221.756
222.101
222.456
222.787
223.069
223.303
223.522
223.741
223.97
224.212
224.458
224.686
224.864
224.988
225.073
225.147
225.225
225.317
225.426
225.557
225.717
225.898
226.077
226.248
226.408
226.557
226.699
226.835
226.971
227.109
227.25
227.391
227.527
227.653
227.766
227.866
227.953
228.028
228.094
228.149
228.196
228.236
228.271
228.302
228.333
228.366
228.403
228.452
228.517
228.607
228.73
228.89
229.085
229.301
229.518
229.707
229.846
229.928
229.965
229.952
244.632
224.822
226.253
226.754
226.526
226.363
226.184
226.078
226.008
225.967
225.929
225.891
225.841
225.77
225.668
225.527
225.345
225.13
224.891
224.638
224.376
224.111
223.845
223.579
223.311
223.038
222.762
222.482
222.201
221.917
221.632
221.348
221.068
220.795
220.532
220.283
220.049
219.83
219.626
219.439
219.273
219.129
219.011
218.918
218.852
218.81
218.79
218.793
218.821
218.871
218.94
219.029
219.139
219.281
219.458
219.702
220.01
220.375
220.753
221.098
221.396
221.683
221.997
222.341
222.681
222.981
223.224
223.443
223.651
223.867
224.099
224.345
224.586
224.795
224.949
225.054
225.13
225.196
225.26
225.331
225.421
225.548
225.706
225.877
226.049
226.215
226.371
226.518
226.657
226.795
226.935
227.075
227.211
227.339
227.454
227.556
227.645
227.723
227.792
227.852
227.904
227.949
227.988
228.021
228.051
228.08
228.11
228.145
228.188
228.247
228.33
228.443
228.59
228.772
228.976
229.184
229.367
229.504
229.587
229.626
229.609
244.632
224.816
226.24
226.744
226.517
226.356
226.179
226.074
226.005
225.964
225.926
225.888
225.838
225.767
225.664
225.522
225.341
225.126
224.888
224.635
224.374
224.109
223.843
223.576
223.308
223.036
222.758
222.478
222.194
221.909
221.622
221.334
221.05
220.773
220.506
220.251
220.011
219.786
219.576
219.383
219.209
219.058
218.933
218.834
218.761
218.713
218.69
218.69
218.713
218.763
218.831
218.919
219.03
219.172
219.348
219.586
219.891
220.263
220.67
221.044
221.352
221.624
221.912
222.238
222.581
222.895
223.149
223.37
223.568
223.77
223.988
224.225
224.471
224.706
224.894
225.029
225.12
225.182
225.232
225.277
225.335
225.423
225.548
225.698
225.858
226.023
226.182
226.332
226.474
226.611
226.748
226.881
227.008
227.123
227.225