/*--------------------------------*- C++ -*----------------------------------*\
| =========                 |                                                 |
| \\      /  F ield         | OpenFOAM: The Open Source CFD Toolbox           |
|  \\    /   O peration     | Version:  2412                                  |
|   \\  /    A nd           | Website:  www.openfoam.com                      |
|    \\/     M anipulation  |                                                 |
\*---------------------------------------------------------------------------*/
FoamFile
{
    version     2.0;
    format      ascii;
    arch        "LSB;label=32;scalar=64";
    class       volVectorField;
    location    "0.057";
    object      U;
}
// * * * * * * * * * * * * * * * * * * * * * * * * * * * * * * * * * * * * * //

dimensions      [0 1 -1 0 0 0 0];

internalField   nonuniform List<vector> 
9763
(
(156.162 -27.5779 0)
(146.949 -30.262 0)
(156.132 -27.6964 0)
(145.864 -30.6843 0)
(156.176 -27.7912 0)
(145.639 -30.6821 0)
(156.372 -27.7988 0)
(145.696 -30.6479 0)
(156.807 -27.9058 0)
(146.004 -30.6363 0)
(157.488 -27.9761 0)
(146.64 -30.8075 0)
(158.279 -28.2006 0)
(147.551 -31.0846 0)
(159.111 -28.375 0)
(148.585 -31.3285 0)
(159.886 -28.5469 0)
(149.614 -31.4588 0)
(160.59 -28.641 0)
(150.57 -31.6601 0)
(161.204 -28.8163 0)
(151.466 -31.9055 0)
(161.778 -28.9378 0)
(152.338 -32.103 0)
(162.315 -29.0818 0)
(153.188 -32.3111 0)
(162.846 -29.1914 0)
(154.038 -32.4994 0)
(163.366 -29.3378 0)
(154.882 -32.7086 0)
(163.896 -29.4541 0)
(155.721 -32.9038 0)
(164.424 -29.5974 0)
(156.546 -33.1012 0)
(164.962 -29.718 0)
(157.36 -33.2965 0)
(165.501 -29.8638 0)
(158.17 -33.4924 0)
(166.052 -29.9909 0)
(158.987 -33.693 0)
(166.611 -30.141 0)
(159.82 -33.8931 0)
(167.191 -30.2784 0)
(160.674 -34.1028 0)
(167.787 -30.4353 0)
(161.557 -34.3122 0)
(168.403 -30.5827 0)
(162.472 -34.5332 0)
(169.032 -30.7443 0)
(163.423 -34.7542 0)
(169.673 -30.8983 0)
(164.409 -34.9873 0)
(170.318 -31.061 0)
(165.43 -35.2205 0)
(170.964 -31.217 0)
(166.478 -35.4645 0)
(171.606 -31.3777 0)
(167.553 -35.7086 0)
(172.246 -31.5333 0)
(168.644 -35.9598 0)
(172.885 -31.692 0)
(169.747 -36.2082 0)
(173.533 -31.8478 0)
(170.851 -36.4553 0)
(174.2 -32.0067 0)
(171.948 -36.6919 0)
(174.901 -32.1646 0)
(173.03 -36.9164 0)
(175.648 -32.3262 0)
(174.099 -37.1246 0)
(176.447 -32.4884 0)
(175.161 -37.3166 0)
(177.29 -32.6579 0)
(176.23 -37.4891 0)
(178.17 -32.8288 0)
(177.315 -37.6507 0)
(179.078 -33.0037 0)
(178.418 -37.7985 0)
(180.009 -33.1792 0)
(179.535 -37.9415 0)
(180.66 -38.0726 0)
(181.789 -38.2022 0)
(182.92 -38.3177 0)
(171.565 88.9899 0)
(161.231 17.1866 0)
(173.584 4.76583 0)
(185.794 2.41395 0)
(192.479 -1.49177 0)
(195.792 -3.49127 0)
(196.447 -5.2901 0)
(197.488 -6.35321 0)
(198.159 -7.3731 0)
(198.705 -8.31636 0)
(199.277 -9.13623 0)
(199.84 -9.86732 0)
(200.378 -10.5424 0)
(200.953 -11.1434 0)
(201.589 -11.6983 0)
(202.324 -12.2198 0)
(203.164 -12.7358 0)
(204.1 -13.2609 0)
(205.101 -13.8115 0)
(206.135 -14.3952 0)
(207.178 -15.0189 0)
(208.216 -15.6829 0)
(209.245 -16.3797 0)
(210.26 -17.1037 0)
(211.262 -17.8514 0)
(212.245 -18.6215 0)
(213.205 -19.4092 0)
(214.142 -20.2084 0)
(215.051 -21.0137 0)
(215.927 -21.8197 0)
(216.759 -22.6217 0)
(217.54 -23.4167 0)
(218.264 -24.2049 0)
(218.925 -24.9891 0)
(219.521 -25.7731 0)
(220.048 -26.56 0)
(220.503 -27.35 0)
(220.884 -28.1396 0)
(221.188 -28.9253 0)
(221.419 -29.7019 0)
(221.578 -30.4654 0)
(221.665 -31.2188 0)
(221.69 -31.9675 0)
(221.643 -32.7014 0)
(221.536 -33.398 0)
(221.378 -34.0657 0)
(221.173 -34.7081 0)
(220.918 -35.326 0)
(220.61 -35.9124 0)
(220.256 -36.4624 0)
(219.899 -36.9869 0)
(219.593 -37.5021 0)
(219.227 -38.0128 0)
(218.657 -38.4926 0)
(217.689 -38.7746 0)
(216.395 -38.9951 0)
(214.84 -39.1638 0)
(213.125 -39.2937 0)
(211.399 -39.4985 0)
(209.722 -39.6629 0)
(208.117 -39.853 0)
(206.554 -40.012 0)
(205.02 -40.201 0)
(203.523 -40.3264 0)
(202.075 -40.525 0)
(200.663 -40.6297 0)
(199.279 -40.7976 0)
(197.896 -40.9486 0)
(196.537 -41.0874 0)
(195.217 -41.2099 0)
(193.937 -41.2895 0)
(192.692 -41.3734 0)
(191.452 -41.4442 0)
(190.177 -41.5487 0)
(188.837 -41.693 0)
(187.454 -41.8673 0)
(186.086 -42.0226 0)
(184.776 -42.1253 0)
(183.543 -42.1461 0)
(182.384 -42.1261 0)
(181.274 -42.0557 0)
(180.177 -41.9899 0)
(179.06 -41.9135 0)
(177.891 -41.8647 0)
(176.657 -41.8334 0)
(175.361 -41.8413 0)
(174.029 -41.8809 0)
(172.709 -41.968 0)
(171.418 -42.0623 0)
(170.154 -42.1547 0)
(168.92 -42.2364 0)
(167.722 -42.3104 0)
(166.569 -42.3751 0)
(165.467 -42.4408 0)
(164.418 -42.5021 0)
(163.426 -42.5743 0)
(162.489 -42.6467 0)
(161.604 -42.736 0)
(160.766 -42.8281 0)
(159.967 -42.9351 0)
(159.194 -43.0445 0)
(158.435 -43.1568 0)
(157.669 -43.2672 0)
(156.877 -43.362 0)
(156.045 -43.4504 0)
(155.168 -43.5227 0)
(154.256 -43.5927 0)
(153.321 -43.6466 0)
(152.378 -43.7043 0)
(151.45 -43.7596 0)
(150.554 -43.825 0)
(149.699 -43.9201 0)
(148.892 -44.0536 0)
(148.161 -44.2481 0)
(147.531 -44.4814 0)
(147.021 -44.7788 0)
(146.68 -45.2128 0)
(146.555 -45.7508 0)
(146.537 -46.2855 0)
(146.582 -46.8711 0)
(146.417 -47.0203 0)
(171.677 89.4573 0)
(161.289 17.3496 0)
(173.594 4.70341 0)
(185.817 2.41128 0)
(192.507 -1.49255 0)
(195.818 -3.48153 0)
(196.47 -5.2783 0)
(197.507 -6.34187 0)
(198.176 -7.36139 0)
(198.72 -8.30404 0)
(199.29 -9.12448 0)
(199.852 -9.85447 0)
(200.391 -10.5281 0)
(200.967 -11.127 0)
(201.605 -11.6789 0)
(202.342 -12.1964 0)
(203.184 -12.7079 0)
(204.121 -13.2283 0)
(205.123 -13.7743 0)
(206.158 -14.3536 0)
(207.202 -14.973 0)
(208.241 -15.6328 0)
(209.271 -16.3253 0)
(210.289 -17.0451 0)
(211.295 -17.7885 0)
(212.282 -18.5544 0)
(213.248 -19.338 0)
(214.192 -20.1333 0)
(215.11 -20.9353 0)
(215.995 -21.7393 0)
(216.839 -22.5406 0)
(217.633 -23.336 0)
(218.369 -24.1257 0)
(219.044 -24.9119 0)
(219.654 -25.6981 0)
(220.195 -26.4874 0)
(220.664 -27.2802 0)
(221.059 -28.0738 0)
(221.377 -28.8637 0)
(221.621 -29.6456 0)
(221.792 -30.4156 0)
(221.89 -31.1756 0)
(221.926 -31.9259 0)
(221.89 -32.6728 0)
(221.792 -33.3794 0)
(221.642 -34.0561 0)
(221.443 -34.7082 0)
(221.194 -35.338 0)
(220.891 -35.9389 0)
(220.542 -36.5024 0)
(220.185 -37.0315 0)
(219.888 -37.5511 0)
(219.522 -38.0578 0)
(218.971 -38.5367 0)
(218.013 -38.8412 0)
(216.731 -39.0923 0)
(215.189 -39.2648 0)
(213.5 -39.4068 0)
(211.787 -39.6222 0)
(210.102 -39.816 0)
(208.495 -40.0068 0)
(206.946 -40.1942 0)
(205.442 -40.3706 0)
(203.983 -40.5181 0)
(202.555 -40.7166 0)
(201.147 -40.8167 0)
(199.759 -41.0315 0)
(198.358 -41.1947 0)
(196.98 -41.3959 0)
(195.646 -41.532 0)
(194.383 -41.6172 0)
(193.181 -41.669 0)
(191.996 -41.7061 0)
(190.773 -41.8212 0)
(189.466 -42.0373 0)
(188.076 -42.3229 0)
(186.666 -42.6046 0)
(185.3 -42.8048 0)
(184.025 -42.9235 0)
(182.835 -42.9687 0)
(181.715 -42.9466 0)
(180.64 -42.8888 0)
(179.587 -42.7953 0)
(178.525 -42.71 0)
(177.427 -42.6509 0)
(176.278 -42.6628 0)
(175.08 -42.7502 0)
(173.85 -42.9132 0)
(172.602 -43.1169 0)
(171.352 -43.3432 0)
(170.115 -43.576 0)
(168.903 -43.8105 0)
(167.729 -44.0419 0)
(166.601 -44.2719 0)
(165.528 -44.4948 0)
(164.516 -44.7195 0)
(163.563 -44.9362 0)
(162.674 -45.1592 0)
(161.84 -45.3738 0)
(161.059 -45.5941 0)
(160.313 -45.8031 0)
(159.592 -46.0102 0)
(158.873 -46.199 0)
(158.141 -46.3713 0)
(157.384 -46.5299 0)
(156.586 -46.645 0)
(155.749 -46.7568 0)
(154.888 -46.8374 0)
(154.019 -46.9092 0)
(153.164 -46.9714 0)
(152.346 -47.0353 0)
(151.59 -47.1096 0)
(150.917 -47.1976 0)
(150.34 -47.3157 0)
(149.866 -47.4574 0)
(149.502 -47.6235 0)
(149.25 -47.806 0)
(149.106 -48.0033 0)
(149.03 -48.1832 0)
(149.034 -48.3805 0)
(149.123 -48.5273 0)
(171.794 89.6143 0)
(161.307 17.3443 0)
(173.635 4.69226 0)
(185.845 2.42069 0)
(192.535 -1.47742 0)
(195.845 -3.47133 0)
(196.493 -5.26924 0)
(197.527 -6.33358 0)
(198.195 -7.35242 0)
(198.736 -8.29497 0)
(199.305 -9.11541 0)
(199.868 -9.84437 0)
(200.407 -10.5168 0)
(200.984 -11.1135 0)
(201.623 -11.6622 0)
(202.361 -12.1755 0)
(203.203 -12.6821 0)
(204.141 -13.1976 0)
(205.143 -13.739 0)
(206.178 -14.3142 0)
(207.223 -14.93 0)
(208.264 -15.5864 0)
(209.296 -16.2758 0)
(210.317 -16.9926 0)
(211.327 -17.7331 0)
(212.319 -18.4965 0)
(213.292 -19.2776 0)
(214.243 -20.0711 0)
(215.171 -20.8719 0)
(216.068 -21.6756 0)
(216.925 -22.4779 0)
(217.733 -23.2753 0)
(218.484 -24.0678 0)
(219.175 -24.8576 0)
(219.8 -25.6482 0)
(220.357 -26.4427 0)
(220.842 -27.2419 0)
(221.253 -28.043 0)
(221.586 -28.8416 0)
(221.843 -29.6326 0)
(222.025 -30.4128 0)
(222.134 -31.1834 0)
(222.181 -31.9418 0)
(222.153 -32.7024 0)
(222.061 -33.4218 0)
(221.915 -34.1092 0)
(221.72 -34.7706 0)
(221.474 -35.4095 0)
(221.171 -36.0207 0)
(220.821 -36.5957 0)
(220.462 -37.134 0)
(220.172 -37.6619 0)
(219.811 -38.1583 0)
(219.277 -38.6382 0)
(218.32 -38.9589 0)
(217.03 -39.2363 0)
(215.481 -39.4357 0)
(213.812 -39.6154 0)
(212.127 -39.8191 0)
(210.449 -39.9859 0)
(208.832 -40.1841 0)
(207.275 -40.4072 0)
(205.784 -40.6167 0)
(204.346 -40.8276 0)
(202.945 -40.9969 0)
(201.56 -41.1164 0)
(200.183 -41.3125 0)
(198.792 -41.4477 0)
(197.406 -41.6836 0)
(196.042 -41.8325 0)
(194.743 -41.9714 0)
(193.525 -42.0415 0)
(192.365 -42.0973 0)
(191.208 -42.1821 0)
(190.004 -42.3462 0)
(188.724 -42.5926 0)
(187.375 -42.9015 0)
(185.989 -43.1752 0)
(184.624 -43.4069 0)
(183.32 -43.5435 0)
(182.099 -43.6174 0)
(180.954 -43.6346 0)
(179.873 -43.6176 0)
(178.835 -43.5915 0)
(177.819 -43.5712 0)
(176.801 -43.5784 0)
(175.765 -43.615 0)
(174.704 -43.6914 0)
(173.621 -43.8104 0)
(172.522 -43.9806 0)
(171.416 -44.2015 0)
(170.308 -44.4662 0)
(169.205 -44.7631 0)
(168.118 -45.0755 0)
(167.058 -45.3892 0)
(166.04 -45.6998 0)
(165.073 -45.9943 0)
(164.168 -46.2826 0)
(163.32 -46.551 0)
(162.528 -46.8139 0)
(161.774 -47.0529 0)
(161.048 -47.2833 0)
(160.327 -47.4805 0)
(159.6 -47.6656 0)
(158.844 -47.8067 0)
(158.052 -47.9252 0)
(157.222 -48.0058 0)
(156.362 -48.0655 0)
(155.486 -48.0938 0)
(154.62 -48.1125 0)
(153.793 -48.1171 0)
(153.032 -48.1306 0)
(152.357 -48.146 0)
(151.773 -48.1842 0)
(151.28 -48.2324 0)
(150.874 -48.3077 0)
(150.552 -48.3924 0)
(150.312 -48.4963 0)
(150.141 -48.598 0)
(150.057 -48.739 0)
(150.07 -48.8979 0)
(171.893 89.7342 0)
(161.326 17.3228 0)
(173.673 4.68669 0)
(185.87 2.43038 0)
(192.563 -1.46898 0)
(195.87 -3.46109 0)
(196.515 -5.25841 0)
(197.545 -6.32308 0)
(198.211 -7.34161 0)
(198.75 -8.28378 0)
(199.317 -9.10456 0)
(199.88 -9.83259 0)
(200.419 -10.5039 0)
(200.998 -11.0989 0)
(201.638 -11.645 0)
(202.377 -12.1548 0)
(203.221 -12.6573 0)
(204.16 -13.1684 0)
(205.163 -13.7057 0)
(206.199 -14.2771 0)
(207.244 -14.8894 0)
(208.285 -15.5424 0)
(209.319 -16.2286 0)
(210.342 -16.9422 0)
(211.355 -17.6796 0)
(212.351 -18.44 0)
(213.33 -19.2183 0)
(214.288 -20.009 0)
(215.223 -20.8074 0)
(216.129 -21.6095 0)
(216.997 -22.4109 0)
(217.817 -23.2084 0)
(218.582 -24.0016 0)
(219.287 -24.7926 0)
(219.926 -25.5847 0)
(220.498 -26.381 0)
(220.998 -27.1827 0)
(221.423 -27.9872 0)
(221.771 -28.7899 0)
(222.043 -29.586 0)
(222.238 -30.3722 0)
(222.36 -31.1491 0)
(222.418 -31.9126 0)
(222.402 -32.6814 0)
(222.32 -33.4127 0)
(222.183 -34.1099 0)
(221.996 -34.7804 0)
(221.756 -35.4269 0)
(221.458 -36.0456 0)
(221.112 -36.6315 0)
(220.752 -37.1862 0)
(220.464 -37.7371 0)
(220.099 -38.2387 0)
(219.586 -38.7153 0)
(218.648 -39.0261 0)
(217.373 -39.2921 0)
(215.834 -39.5174 0)
(214.169 -39.7739 0)
(212.486 -39.9953 0)
(210.822 -40.0984 0)
(209.219 -40.2701 0)
(207.676 -40.4868 0)
(206.2 -40.7539 0)
(204.776 -41.0183 0)
(203.387 -41.1781 0)
(202.024 -41.3453 0)
(200.659 -41.5133 0)
(199.278 -41.658 0)
(197.901 -41.8952 0)
(196.535 -42.043 0)
(195.234 -42.2149 0)
(194.006 -42.2994 0)
(192.846 -42.3881 0)
(191.711 -42.4747 0)
(190.562 -42.6265 0)
(189.366 -42.8148 0)
(188.1 -43.077 0)
(186.761 -43.3591 0)
(185.383 -43.6713 0)
(184.016 -43.9067 0)
(182.733 -44.0891 0)
(181.547 -44.1855 0)
(180.447 -44.2529 0)
(179.4 -44.2964 0)
(178.383 -44.351 0)
(177.383 -44.4253 0)
(176.391 -44.5258 0)
(175.406 -44.6577 0)
(174.422 -44.8158 0)
(173.44 -45.0031 0)
(172.456 -45.2053 0)
(171.473 -45.4281 0)
(170.493 -45.6636 0)
(169.521 -45.9099 0)
(168.559 -46.1634 0)
(167.618 -46.4262 0)
(166.704 -46.6903 0)
(165.828 -46.9588 0)
(164.992 -47.2198 0)
(164.199 -47.4779 0)
(163.439 -47.7183 0)
(162.704 -47.9491 0)
(161.976 -48.1497 0)
(161.241 -48.3316 0)
(160.479 -48.4724 0)
(159.682 -48.5912 0)
(158.845 -48.6651 0)
(157.97 -48.7161 0)
(157.073 -48.7302 0)
(156.177 -48.7305 0)
(155.312 -48.7107 0)
(154.51 -48.6976 0)
(153.798 -48.6838 0)
(153.188 -48.695 0)
(152.684 -48.7154 0)
(152.275 -48.7664 0)
(151.95 -48.8266 0)
(151.7 -48.9139 0)
(151.514 -49.0087 0)
(151.407 -49.1488 0)
(151.395 -49.3213 0)
(171.966 89.8402 0)
(161.345 17.2956 0)
(173.71 4.68105 0)
(185.895 2.43619 0)
(192.59 -1.4591 0)
(195.895 -3.45179 0)
(196.537 -5.24998 0)
(197.564 -6.31535 0)
(198.228 -7.33334 0)
(198.766 -8.27535 0)
(199.331 -9.09618 0)
(199.894 -9.82325 0)
(200.434 -10.4933 0)
(201.013 -11.0864 0)
(201.655 -11.6296 0)
(202.395 -12.1355 0)
(203.239 -12.6336 0)
(204.178 -13.1402 0)
(205.181 -13.6733 0)
(206.217 -14.241 0)
(207.264 -14.8499 0)
(208.306 -15.4998 0)
(209.341 -16.183 0)
(210.367 -16.8937 0)
(211.383 -17.6285 0)
(212.385 -18.3863 0)
(213.369 -19.1622 0)
(214.334 -19.9509 0)
(215.278 -20.7479 0)
(216.195 -21.5494 0)
(217.075 -22.3514 0)
(217.909 -23.1504 0)
(218.688 -23.9461 0)
(219.407 -24.7402 0)
(220.061 -25.5362 0)
(220.648 -26.3372 0)
(221.164 -27.1444 0)
(221.605 -27.9556 0)
(221.967 -28.766 0)
(222.251 -29.5704 0)
(222.459 -30.3657 0)
(222.591 -31.1517 0)
(222.659 -31.9243 0)
(222.652 -32.7017 0)
(222.578 -33.4467 0)
(222.446 -34.1546 0)
(222.262 -34.8359 0)
(222.025 -35.492 0)
(221.73 -36.1164 0)
(221.387 -36.7029 0)
(221.025 -37.259 0)
(220.736 -37.826 0)
(220.362 -38.3508 0)
(219.857 -38.8654 0)
(218.932 -39.2068 0)
(217.679 -39.4445 0)
(216.163 -39.6502 0)
(214.499 -39.9555 0)
(212.789 -40.2074 0)
(211.12 -40.3098 0)
(209.538 -40.4588 0)
(208.024 -40.6272 0)
(206.564 -40.9377 0)
(205.135 -41.2241 0)
(203.746 -41.4136 0)
(202.397 -41.6099 0)
(201.05 -41.7641 0)
(199.691 -41.9405 0)
(198.323 -42.1788 0)
(196.952 -42.3603 0)
(195.635 -42.5602 0)
(194.393 -42.6655 0)
(193.237 -42.7697 0)
(192.135 -42.853 0)
(191.043 -42.9827 0)
(189.918 -43.1353 0)
(188.739 -43.3496 0)
(187.47 -43.6116 0)
(186.114 -43.936 0)
(184.704 -44.2322 0)
(183.333 -44.507 0)
(182.059 -44.6789 0)
(180.915 -44.8241 0)
(179.874 -44.9196 0)
(178.907 -45.0238 0)
(177.974 -45.1329 0)
(177.055 -45.2677 0)
(176.139 -45.4294 0)
(175.222 -45.6073 0)
(174.307 -45.8152 0)
(173.389 -46.0193 0)
(172.473 -46.2431 0)
(171.566 -46.4681 0)
(170.671 -46.6968 0)
(169.788 -46.9231 0)
(168.92 -47.1502 0)
(168.071 -47.3748 0)
(167.25 -47.6008 0)
(166.457 -47.8233 0)
(165.695 -48.0466 0)
(164.957 -48.2615 0)
(164.235 -48.4713 0)
(163.515 -48.6637 0)
(162.783 -48.8394 0)
(162.024 -48.9865 0)
(161.226 -49.1073 0)
(160.381 -49.1913 0)
(159.494 -49.2472 0)
(158.575 -49.2671 0)
(157.646 -49.2697 0)
(156.739 -49.2483 0)
(155.889 -49.2324 0)
(155.128 -49.2104 0)
(154.475 -49.2154 0)
(153.939 -49.2251 0)
(153.51 -49.2669 0)
(153.176 -49.3131 0)
(152.926 -49.3857 0)
(152.749 -49.4642 0)
(152.656 -49.5904 0)
(152.642 -49.7393 0)
(172.04 89.9539 0)
(161.364 17.2661 0)
(173.748 4.6752 0)
(185.921 2.44442 0)
(192.617 -1.45092 0)
(195.919 -3.44205 0)
(196.558 -5.23967 0)
(197.581 -6.30544 0)
(198.243 -7.32312 0)
(198.779 -8.26479 0)
(199.342 -9.08594 0)
(199.906 -9.81213 0)
(200.446 -10.4812 0)
(201.026 -11.0725 0)
(201.669 -11.6133 0)
(202.411 -12.1159 0)
(203.257 -12.61 0)
(204.197 -13.1126 0)
(205.2 -13.6417 0)
(206.237 -14.2058 0)
(207.283 -14.8114 0)
(208.326 -15.4581 0)
(209.363 -16.1382 0)
(210.391 -16.8458 0)
(211.41 -17.5775 0)
(212.415 -18.3325 0)
(213.404 -19.1055 0)
(214.375 -19.8915 0)
(215.327 -20.686 0)
(216.252 -21.4857 0)
(217.143 -22.2867 0)
(217.988 -23.0857 0)
(218.781 -23.8819 0)
(219.513 -24.6772 0)
(220.182 -25.4746 0)
(220.783 -26.2775 0)
(221.314 -27.0872 0)
(221.769 -27.9018 0)
(222.147 -28.7165 0)
(222.445 -29.5261 0)
(222.666 -30.3274 0)
(222.811 -31.1195 0)
(222.889 -31.9005 0)
(222.895 -32.6809 0)
(222.832 -33.4395 0)
(222.708 -34.1564 0)
(222.532 -34.8473 0)
(222.3 -35.5149 0)
(222.009 -36.1504 0)
(221.667 -36.7433 0)
(221.305 -37.2999 0)
(221.022 -37.8703 0)
(220.651 -38.4071 0)
(220.16 -38.9568 0)
(219.238 -39.3433 0)
(217.989 -39.5835 0)
(216.505 -39.7679 0)
(214.874 -40.0726 0)
(213.16 -40.3255 0)
(211.476 -40.4462 0)
(209.885 -40.5901 0)
(208.387 -40.7264 0)
(206.952 -41.0544 0)
(205.524 -41.3342 0)
(204.139 -41.5613 0)
(202.797 -41.7733 0)
(201.468 -41.9166 0)
(200.144 -42.1151 0)
(198.807 -42.3336 0)
(197.465 -42.555 0)
(196.152 -42.7886 0)
(194.89 -42.9477 0)
(193.706 -43.0955 0)
(192.597 -43.1968 0)
(191.535 -43.3043 0)
(190.47 -43.3877 0)
(189.369 -43.5151 0)
(188.185 -43.699 0)
(186.9 -43.9957 0)
(185.527 -44.318 0)
(184.137 -44.6943 0)
(182.788 -44.9889 0)
(181.558 -45.2525 0)
(180.449 -45.4265 0)
(179.456 -45.5962 0)
(178.537 -45.7352 0)
(177.666 -45.885 0)
(176.814 -46.0414 0)
(175.967 -46.2037 0)
(175.122 -46.3955 0)
(174.266 -46.5729 0)
(173.408 -46.7761 0)
(172.552 -46.9749 0)
(171.703 -47.1809 0)
(170.863 -47.3812 0)
(170.037 -47.5827 0)
(169.23 -47.7787 0)
(168.448 -47.976 0)
(167.694 -48.1675 0)
(166.968 -48.3609 0)
(166.263 -48.5468 0)
(165.572 -48.7316 0)
(164.881 -48.9029 0)
(164.176 -49.0651 0)
(163.44 -49.2042 0)
(162.661 -49.3236 0)
(161.832 -49.4113 0)
(160.953 -49.4748 0)
(160.033 -49.5059 0)
(159.093 -49.521 0)
(158.163 -49.5136 0)
(157.279 -49.512 0)
(156.477 -49.5024 0)
(155.78 -49.522 0)
(155.202 -49.5413 0)
(154.738 -49.5985 0)
(154.372 -49.6525 0)
(154.095 -49.7383 0)
(153.899 -49.8197 0)
(153.817 -49.9631 0)
(153.84 -50.0967 0)
(172.104 90.065 0)
(161.382 17.2266 0)
(173.786 4.66988 0)
(185.947 2.45085 0)
(192.644 -1.44135 0)
(195.944 -3.43291 0)
(196.581 -5.23131 0)
(197.6 -6.29775 0)
(198.26 -7.31494 0)
(198.794 -8.25641 0)
(199.356 -9.07763 0)
(199.92 -9.80287 0)
(200.461 -10.4707 0)
(201.042 -11.0602 0)
(201.685 -11.5981 0)
(202.428 -12.0969 0)
(203.275 -12.5868 0)
(204.215 -13.0849 0)
(205.218 -13.61 0)
(206.255 -14.1704 0)
(207.302 -14.7726 0)
(208.347 -15.4163 0)
(209.385 -16.0934 0)
(210.415 -16.7982 0)
(211.438 -17.5271 0)
(212.448 -18.2794 0)
(213.442 -19.0501 0)
(214.42 -19.8338 0)
(215.381 -20.6267 0)
(216.317 -21.4256 0)
(217.219 -22.2269 0)
(218.078 -23.0271 0)
(218.884 -23.8256 0)
(219.632 -24.6238 0)
(220.316 -25.4248 0)
(220.932 -26.232 0)
(221.478 -27.0469 0)
(221.949 -27.8677 0)
(222.342 -28.6897 0)
(222.654 -29.5075 0)
(222.888 -30.3174 0)
(223.045 -31.1181 0)
(223.131 -31.9098 0)
(223.148 -32.6951 0)
(223.093 -33.4683 0)
(222.975 -34.1956 0)
(222.804 -34.8955 0)
(222.576 -35.5734 0)
(222.285 -36.2203 0)
(221.942 -36.8224 0)
(221.58 -37.383 0)
(221.299 -37.9518 0)
(220.932 -38.4841 0)
(220.457 -39.0484 0)
(219.541 -39.4717 0)
(218.285 -39.7452 0)
(216.817 -39.9657 0)
(215.22 -40.2549 0)
(213.52 -40.4633 0)
(211.826 -40.6108 0)
(210.216 -40.7623 0)
(208.719 -40.9239 0)
(207.3 -41.2481 0)
(205.888 -41.4874 0)
(204.51 -41.7544 0)
(203.165 -41.965 0)
(201.845 -42.126 0)
(200.542 -42.3463 0)
(199.239 -42.5509 0)
(197.929 -42.8107 0)
(196.634 -43.059 0)
(195.366 -43.2637 0)
(194.158 -43.4495 0)
(193.025 -43.5858 0)
(191.963 -43.7082 0)
(190.929 -43.7856 0)
(189.893 -43.8836 0)
(188.807 -44.0024 0)
(187.625 -44.2175 0)
(186.335 -44.4891 0)
(184.986 -44.8504 0)
(183.625 -45.1973 0)
(182.337 -45.5611 0)
(181.152 -45.8285 0)
(180.101 -46.0789 0)
(179.145 -46.2638 0)
(178.266 -46.446 0)
(177.428 -46.6078 0)
(176.615 -46.7651 0)
(175.811 -46.9314 0)
(175.002 -47.0795 0)
(174.192 -47.246 0)
(173.379 -47.4034 0)
(172.568 -47.5699 0)
(171.761 -47.7297 0)
(170.966 -47.8934 0)
(170.188 -48.0528 0)
(169.433 -48.2168 0)
(168.705 -48.3772 0)
(168.006 -48.5434 0)
(167.327 -48.7044 0)
(166.663 -48.8685 0)
(165.997 -49.0216 0)
(165.317 -49.1698 0)
(164.605 -49.2975 0)
(163.848 -49.4096 0)
(163.035 -49.4928 0)
(162.167 -49.5551 0)
(161.252 -49.5884 0)
(160.309 -49.6076 0)
(159.369 -49.6094 0)
(158.464 -49.6165 0)
(157.631 -49.622 0)
(156.899 -49.6543 0)
(156.283 -49.6915 0)
(155.784 -49.7671 0)
(155.388 -49.8415 0)
(155.081 -49.9531 0)
(154.841 -50.0522 0)
(154.692 -50.1983 0)
(154.69 -50.3854 0)
(172.174 90.1677 0)
(161.401 17.1876 0)
(173.825 4.66455 0)
(185.973 2.45793 0)
(192.673 -1.43314 0)
(195.97 -3.42316 0)
(196.602 -5.22095 0)
(197.618 -6.28787 0)
(198.276 -7.30473 0)
(198.807 -8.24583 0)
(199.367 -9.06736 0)
(199.931 -9.79171 0)
(200.473 -10.4585 0)
(201.055 -11.0461 0)
(201.7 -11.5816 0)
(202.444 -12.0771 0)
(203.292 -12.563 0)
(204.233 -13.0571 0)
(205.237 -13.5782 0)
(206.274 -14.135 0)
(207.322 -14.7338 0)
(208.367 -15.3742 0)
(209.406 -16.0481 0)
(210.439 -16.7497 0)
(211.464 -17.4755 0)
(212.478 -18.2248 0)
(213.477 -18.9924 0)
(214.462 -19.7733 0)
(215.429 -20.5635 0)
(216.374 -21.3604 0)
(217.287 -22.1604 0)
(218.158 -22.9603 0)
(218.978 -23.7592 0)
(219.74 -24.5584 0)
(220.438 -25.3609 0)
(221.07 -26.17 0)
(221.632 -26.9874 0)
(222.119 -27.8117 0)
(222.527 -28.6383 0)
(222.855 -29.4616 0)
(223.103 -30.2778 0)
(223.273 -31.0854 0)
(223.371 -31.8848 0)
(223.402 -32.675 0)
(223.357 -33.4606 0)
(223.248 -34.1992 0)
(223.085 -34.9088 0)
(222.863 -35.5963 0)
(222.578 -36.2541 0)
(222.237 -36.8674 0)
(221.872 -37.437 0)
(221.591 -38.0082 0)
(221.225 -38.5351 0)
(220.772 -39.102 0)
(219.874 -39.5447 0)
(218.63 -39.842 0)
(217.179 -40.1081 0)
(215.601 -40.3793 0)
(213.91 -40.5429 0)
(212.222 -40.7159 0)
(210.599 -40.8744 0)
(209.103 -41.0835 0)
(207.688 -41.3896 0)
(206.288 -41.5919 0)
(204.927 -41.8882 0)
(203.58 -42.0791 0)
(202.272 -42.2641 0)
(200.989 -42.476 0)
(199.719 -42.6708 0)
(198.453 -42.9395 0)
(197.179 -43.2198 0)
(195.912 -43.488 0)
(194.68 -43.7283 0)
(193.522 -43.9063 0)
(192.459 -44.0446 0)
(191.45 -44.1125 0)
(190.46 -44.1755 0)
(189.445 -44.236 0)
(188.362 -44.3773 0)
(187.187 -44.5954 0)
(185.925 -44.9184 0)
(184.611 -45.2916 0)
(183.309 -45.7218 0)
(182.054 -46.0979 0)
(180.916 -46.451 0)
(179.888 -46.7028 0)
(178.969 -46.9314 0)
(178.115 -47.1077 0)
(177.306 -47.2722 0)
(176.517 -47.4195 0)
(175.737 -47.5508 0)
(174.957 -47.6894 0)
(174.176 -47.8177 0)
(173.395 -47.9497 0)
(172.617 -48.0766 0)
(171.85 -48.2075 0)
(171.098 -48.3362 0)
(170.371 -48.4726 0)
(169.671 -48.608 0)
(169 -48.7535 0)
(168.352 -48.8963 0)
(167.719 -49.0464 0)
(167.086 -49.1868 0)
(166.438 -49.3254 0)
(165.757 -49.4435 0)
(165.029 -49.5482 0)
(164.242 -49.6236 0)
(163.395 -49.6797 0)
(162.497 -49.7075 0)
(161.566 -49.7226 0)
(160.631 -49.7237 0)
(159.725 -49.7291 0)
(158.884 -49.7413 0)
(158.135 -49.7741 0)
(157.497 -49.8256 0)
(156.976 -49.9045 0)
(156.565 -49.9998 0)
(156.249 -50.1222 0)
(156.005 -50.2555 0)
(155.826 -50.4228 0)
(155.729 -50.6515 0)
(172.238 90.2692 0)
(161.422 17.1529 0)
(173.864 4.65906 0)
(186 2.46424 0)
(192.701 -1.42362 0)
(195.996 -3.41392 0)
(196.625 -5.21239 0)
(197.638 -6.27998 0)
(198.293 -7.29638 0)
(198.823 -8.23723 0)
(199.381 -9.05883 0)
(199.946 -9.78221 0)
(200.488 -10.4478 0)
(201.071 -11.0335 0)
(201.717 -11.5661 0)
(202.462 -12.0577 0)
(203.311 -12.5393 0)
(204.252 -13.0289 0)
(205.256 -13.5458 0)
(206.293 -14.0989 0)
(207.342 -14.6943 0)
(208.388 -15.3315 0)
(209.429 -16.0023 0)
(210.463 -16.7009 0)
(211.492 -17.4239 0)
(212.511 -18.1703 0)
(213.516 -18.9354 0)
(214.507 -19.7138 0)
(215.484 -20.5021 0)
(216.439 -21.2979 0)
(217.365 -22.0978 0)
(218.249 -22.8988 0)
(219.084 -23.6997 0)
(219.861 -24.5017 0)
(220.576 -25.3077 0)
(221.224 -26.1209 0)
(221.802 -26.9433 0)
(222.306 -27.7738 0)
(222.73 -28.6077 0)
(223.073 -29.4391 0)
(223.335 -30.2641 0)
(223.518 -31.0809 0)
(223.627 -31.8904 0)
(223.669 -32.6873 0)
(223.633 -33.4862 0)
(223.531 -34.2376 0)
(223.373 -34.9574 0)
(223.156 -35.6551 0)
(222.874 -36.3242 0)
(222.532 -36.9502 0)
(222.162 -37.5322 0)
(221.876 -38.1077 0)
(221.514 -38.6286 0)
(221.085 -39.1895 0)
(220.207 -39.6307 0)
(218.977 -39.9395 0)
(217.53 -40.2669 0)
(215.953 -40.5392 0)
(214.279 -40.6766 0)
(212.609 -40.8712 0)
(210.989 -41.0145 0)
(209.48 -41.3024 0)
(208.053 -41.5814 0)
(206.666 -41.7917 0)
(205.319 -42.0954 0)
(203.976 -42.2665 0)
(202.67 -42.5005 0)
(201.399 -42.6822 0)
(200.164 -42.8796 0)
(198.944 -43.1174 0)
(197.708 -43.3989 0)
(196.455 -43.7049 0)
(195.197 -43.9984 0)
(193.987 -44.2363 0)
(192.879 -44.4247 0)
(191.867 -44.5171 0)
(190.912 -44.5932 0)
(189.972 -44.6326 0)
(188.998 -44.7316 0)
(187.962 -44.884 0)
(186.841 -45.1048 0)
(185.637 -45.4218 0)
(184.388 -45.8292 0)
(183.129 -46.249 0)
(181.923 -46.6891 0)
(180.791 -47.041 0)
(179.776 -47.3465 0)
(178.857 -47.5628 0)
(178.018 -47.7489 0)
(177.224 -47.8888 0)
(176.457 -48.0188 0)
(175.704 -48.1273 0)
(174.956 -48.2273 0)
(174.211 -48.3185 0)
(173.469 -48.4054 0)
(172.737 -48.4932 0)
(172.021 -48.581 0)
(171.329 -48.6787 0)
(170.667 -48.7796 0)
(170.036 -48.8957 0)
(169.43 -49.0137 0)
(168.843 -49.1444 0)
(168.258 -49.2688 0)
(167.661 -49.3957 0)
(167.031 -49.5035 0)
(166.354 -49.6005 0)
(165.617 -49.6682 0)
(164.819 -49.7188 0)
(163.966 -49.741 0)
(163.078 -49.7536 0)
(162.182 -49.7532 0)
(161.31 -49.7616 0)
(160.497 -49.7785 0)
(159.766 -49.8206 0)
(159.137 -49.8832 0)
(158.618 -49.9758 0)
(158.207 -50.0872 0)
(157.899 -50.2264 0)
(157.68 -50.375 0)
(157.608 -50.6267 0)
(157.41 -50.7395 0)
(172.304 90.369 0)
(161.444 17.12 0)
(173.904 4.6533 0)
(186.028 2.47099 0)
(192.73 -1.41528 0)
(196.022 -3.40407 0)
(196.647 -5.2019 0)
(197.656 -6.27 0)
(198.309 -7.28606 0)
(198.837 -8.22652 0)
(199.393 -9.04842 0)
(199.958 -9.77088 0)
(200.501 -10.4353 0)
(201.084 -11.0192 0)
(201.732 -11.5492 0)
(202.479 -12.0375 0)
(203.329 -12.5151 0)
(204.271 -13.0006 0)
(205.276 -13.5134 0)
(206.313 -14.0627 0)
(207.362 -14.6546 0)
(208.408 -15.2886 0)
(209.451 -15.956 0)
(210.487 -16.6513 0)
(211.519 -17.371 0)
(212.541 -18.1142 0)
(213.552 -18.8761 0)
(214.549 -19.6514 0)
(215.533 -20.4368 0)
(216.498 -21.2301 0)
(217.434 -22.0286 0)
(218.331 -22.829 0)
(219.179 -23.6301 0)
(219.972 -24.4331 0)
(220.702 -25.2405 0)
(221.366 -26.0556 0)
(221.961 -26.8806 0)
(222.482 -27.7146 0)
(222.923 -28.5531 0)
(223.283 -29.3905 0)
(223.56 -30.2222 0)
(223.759 -31.0465 0)
(223.88 -31.8636 0)
(223.936 -32.6678 0)
(223.912 -33.4763 0)
(223.821 -34.2407 0)
(223.671 -34.9704 0)
(223.461 -35.6771 0)
(223.185 -36.3563 0)
(222.847 -36.9964 0)
(222.475 -37.5975 0)
(222.181 -38.1904 0)
(221.815 -38.7212 0)
(221.408 -39.2831 0)
(220.55 -39.7071 0)
(219.344 -39.9897 0)
(217.916 -40.3443 0)
(216.329 -40.6273 0)
(214.654 -40.7832 0)
(213.008 -40.9945 0)
(211.415 -41.1047 0)
(209.917 -41.4471 0)
(208.469 -41.6883 0)
(207.087 -41.9492 0)
(205.747 -42.2416 0)
(204.412 -42.4181 0)
(203.115 -42.6867 0)
(201.846 -42.8425 0)
(200.633 -43.046 0)
(199.447 -43.2436 0)
(198.258 -43.4934 0)
(197.038 -43.8145 0)
(195.784 -44.1443 0)
(194.543 -44.4514 0)
(193.384 -44.7014 0)
(192.336 -44.8404 0)
(191.382 -44.9442 0)
(190.476 -44.9946 0)
(189.581 -45.0657 0)
(188.654 -45.1865 0)
(187.664 -45.352 0)
(186.596 -45.5969 0)
(185.453 -45.9227 0)
(184.259 -46.3084 0)
(183.061 -46.7432 0)
(181.887 -47.1586 0)
(180.787 -47.5548 0)
(179.766 -47.855 0)
(178.844 -48.1012 0)
(177.997 -48.2719 0)
(177.209 -48.4126 0)
(176.453 -48.5164 0)
(175.715 -48.606 0)
(174.988 -48.6779 0)
(174.271 -48.7433 0)
(173.567 -48.805 0)
(172.883 -48.866 0)
(172.227 -48.9357 0)
(171.603 -49.0099 0)
(171.013 -49.1006 0)
(170.452 -49.1955 0)
(169.912 -49.3053 0)
(169.376 -49.4106 0)
(168.829 -49.5198 0)
(168.249 -49.6107 0)
(167.623 -49.6917 0)
(166.936 -49.744 0)
(166.188 -49.7803 0)
(165.386 -49.7904 0)
(164.55 -49.7925 0)
(163.707 -49.788 0)
(162.891 -49.793 0)
(162.13 -49.818 0)
(161.45 -49.8645 0)
(160.862 -49.9466 0)
(160.372 -50.0486 0)
(159.981 -50.185 0)
(159.682 -50.3345 0)
(159.481 -50.5155 0)
(159.428 -50.7746 0)
(159.249 -50.9058 0)
(172.367 90.4697 0)
(161.467 17.0866 0)
(173.945 4.64723 0)
(186.056 2.47729 0)
(192.759 -1.40576 0)
(196.049 -3.39475 0)
(196.671 -5.19319 0)
(197.676 -6.26197 0)
(198.327 -7.2776 0)
(198.853 -8.21774 0)
(199.408 -9.03972 0)
(199.972 -9.76119 0)
(200.516 -10.4244 0)
(201.1 -11.0063 0)
(201.749 -11.5334 0)
(202.497 -12.0178 0)
(203.348 -12.491 0)
(204.291 -12.972 0)
(205.295 -13.4807 0)
(206.333 -14.0261 0)
(207.382 -14.6145 0)
(208.429 -15.2452 0)
(209.473 -15.9095 0)
(210.512 -16.6017 0)
(211.548 -17.3183 0)
(212.574 -18.0586 0)
(213.591 -18.8177 0)
(214.596 -19.5904 0)
(215.588 -20.3736 0)
(216.563 -21.1654 0)
(217.512 -21.9635 0)
(218.423 -22.7647 0)
(219.287 -23.5676 0)
(220.095 -24.3731 0)
(220.842 -25.1838 0)
(221.524 -26.003 0)
(222.136 -26.8328 0)
(222.675 -27.6729 0)
(223.133 -28.5187 0)
(223.51 -29.3644 0)
(223.803 -30.205 0)
(224.015 -31.0388 0)
(224.149 -31.8655 0)
(224.215 -32.679 0)
(224.202 -33.4968 0)
(224.119 -34.276 0)
(223.975 -35.0166 0)
(223.771 -35.7332 0)
(223.5 -36.4211 0)
(223.164 -37.0689 0)
(222.791 -37.6812 0)
(222.487 -38.2909 0)
(222.113 -38.8466 0)
(221.717 -39.4363 0)
(220.872 -39.8645 0)
(219.698 -40.1169 0)
(218.293 -40.4436 0)
(216.699 -40.7224 0)
(215.017 -40.9298 0)
(213.38 -41.1777 0)
(211.824 -41.2959 0)
(210.339 -41.6234 0)
(208.884 -41.8158 0)
(207.498 -42.1515 0)
(206.151 -42.4289 0)
(204.823 -42.6598 0)
(203.528 -42.9366 0)
(202.261 -43.0962 0)
(201.062 -43.311 0)
(199.909 -43.4592 0)
(198.777 -43.6749 0)
(197.611 -43.9571 0)
(196.381 -44.2946 0)
(195.117 -44.649 0)
(193.888 -44.9625 0)
(192.769 -45.1682 0)
(191.782 -45.315 0)
(190.888 -45.4041 0)
(190.048 -45.4867 0)
(189.215 -45.5864 0)
(188.341 -45.7238 0)
(187.398 -45.9116 0)
(186.377 -46.1575 0)
(185.289 -46.459 0)
(184.161 -46.8052 0)
(183.02 -47.1705 0)
(181.906 -47.5561 0)
(180.835 -47.9075 0)
(179.834 -48.2284 0)
(178.902 -48.4737 0)
(178.04 -48.6652 0)
(177.233 -48.7982 0)
(176.47 -48.8971 0)
(175.737 -48.9684 0)
(175.027 -49.0235 0)
(174.339 -49.0711 0)
(173.677 -49.1151 0)
(173.047 -49.1669 0)
(172.453 -49.2241 0)
(171.897 -49.2981 0)
(171.373 -49.3783 0)
(170.872 -49.4732 0)
(170.377 -49.5654 0)
(169.871 -49.6609 0)
(169.333 -49.7397 0)
(168.747 -49.8083 0)
(168.103 -49.8501 0)
(167.398 -49.8773 0)
(166.643 -49.8813 0)