/*--------------------------------*- C++ -*----------------------------------*\
| =========                 |                                                 |
| \\      /  F ield         | OpenFOAM: The Open Source CFD Toolbox           |
|  \\    /   O peration     | Version:  2412                                  |
|   \\  /    A nd           | Website:  www.openfoam.com                      |
|    \\/     M anipulation  |                                                 |
\*---------------------------------------------------------------------------*/
FoamFile
{
    version     2.0;
    format      ascii;
    arch        "LSB;label=32;scalar=64";
    class       volScalarField;
    location    "0.024";
    object      p;
}
// * * * * * * * * * * * * * * * * * * * * * * * * * * * * * * * * * * * * * //

dimensions      [1 -1 -2 0 0 0 0];

internalField   nonuniform List<scalar> 
9922
(
3582.93
2962.51
2961.6
2967.19
2966.26
2963.61
2959.35
2953.39
2937.8
2906.63
2858.89
2799.97
2742.65
2703.19
2683.14
2676.11
2675.22
2676.86
2678.72
2679.1
2677.33
2673.2
2667.83
2662.01
2656.1
2650.06
2643.52
2636.04
2627.54
2618.33
2608.62
2598.29
2587.21
2575.34
2562.65
2549.08
2534.52
2518.87
2502.06
2484.08
2464.97
2444.68
2423.01
2399.76
2374.78
2348
2319.31
2288.59
2255.71
2220.46
2182.61
2141.86
2098
2051.19
2000.85
1949.84
1895.84
1844.15
1793.48
1745.01
1699.36
1656.73
1617.45
1582.14
1550.72
1522.85
1497.82
1474.97
1453.83
1434.36
1416.7
1400.54
1385.41
1370.88
1356.72
1343.07
1330.08
1317.7
1306.04
1294.93
1284.47
1274.57
1265.37
1256.72
1248.72
1241.26
1234.37
1227.92
1221.89
1216.21
1210.91
1205.92
1201.22
1196.75
1192.5
1188.47
1184.63
1180.97
1177.49
1174.14
1170.87
1167.67
1164.48
1161.39
1158.38
1155.52
1152.78
1150.18
1147.67
1145.29
1142.99
1140.84
1138.75
1136.8
1134.98
1133.17
1131.49
1129.8
1128.27
1126.71
1124.34
3580.8
2961.98
2961.08
2966.67
2965.82
2963.2
2958.86
2952.8
2937.23
2906.24
2858.83
2800.32
2742.87
2703.09
2682.82
2675.67
2674.72
2676.38
2678.37
2678.86
2677.22
2673.18
2667.77
2661.89
2655.95
2649.9
2643.38
2635.91
2627.41
2618.2
2608.47
2598.1
2586.98
2575.06
2562.33
2548.7
2534.07
2518.34
2501.43
2483.35
2464.11
2443.66
2421.8
2398.31
2373.05
2345.95
2316.9
2285.77
2252.42
2216.64
2178.19
2136.85
2092.46
2045.09
1995.36
1943.98
1892.47
1841.34
1792.39
1745.13
1700.14
1658.06
1619.5
1584.51
1552.77
1523.87
1497.61
1473.96
1452.98
1434.36
1417.35
1401.16
1385.62
1370.77
1356.55
1342.86
1329.76
1317.19
1305.17
1293.57
1282.64
1272.41
1263.07
1254.46
1246.62
1239.39
1232.82
1226.72
1221.05
1215.7
1210.68
1205.92
1201.38
1197.02
1192.83
1188.79
1184.88
1181.06
1177.28
1173.58
1169.98
1166.57
1163.37
1160.36
1157.5
1154.77
1152.13
1149.61
1147.13
1144.77
1142.46
1140.27
1138.12
1136.07
1134.17
1132.3
1130.57
1128.83
1127.25
1125.67
1123.34
3578.57
2961.46
2960.57
2966.15
2965.37
2962.78
2958.35
2952.19
2936.62
2905.81
2858.74
2800.68
2743.15
2703.04
2682.54
2675.23
2674.22
2675.89
2678
2678.61
2677.1
2673.16
2667.72
2661.77
2655.8
2649.75
2643.23
2635.78
2627.29
2618.08
2608.33
2597.92
2586.75
2574.8
2562.03
2548.34
2533.64
2517.83
2500.84
2482.65
2463.29
2442.69
2420.64
2396.93
2371.42
2344.02
2314.65
2283.15
2249.38
2213.14
2174.22
2132.43
2087.78
2040.13
1991.32
1940.09
1890.63
1840.18
1791.01
1743.89
1699.59
1658.61
1620.86
1585.88
1553.51
1524.03
1497.75
1474.61
1454.12
1435.29
1417.32
1400.18
1383.99
1368.77
1354.3
1340.43
1327.18
1314.43
1302.37
1291
1280.57
1270.94
1262.17
1254
1246.47
1239.47
1233.04
1227.01
1221.28
1215.82
1210.62
1205.68
1200.95
1196.44
1192.11
1187.94
1183.9
1180.01
1176.34
1172.9
1169.62
1166.49
1163.51
1160.61
1157.75
1154.96
1152.26
1149.68
1147.19
1144.85
1142.6
1140.47
1138.37
1136.39
1134.53
1132.69
1130.98
1129.28
1127.7
1126.08
1123.65
3576.2
2960.98
2960.08
2965.64
2964.93
2962.35
2957.83
2951.55
2935.98
2905.34
2858.63
2801.04
2743.48
2703.04
2682.27
2674.79
2673.7
2675.37
2677.61
2678.33
2676.97
2673.15
2667.68
2661.66
2655.65
2649.6
2643.09
2635.65
2627.18
2617.97
2608.19
2597.74
2586.54
2574.55
2561.74
2548
2533.23
2517.34
2500.27
2481.99
2462.52
2441.77
2419.55
2395.64
2369.89
2342.23
2312.56
2280.74
2246.61
2209.99
2170.71
2128.67
2083.98
2036.93
1987.97
1938.82
1888.88
1839.68
1791.24
1744.8
1701.05
1660.13
1622.18
1587.22
1555.29
1526.44
1500.37
1476.69
1454.97
1434.83
1416.35
1399.51
1383.75
1368.6
1353.91
1339.75
1326.35
1313.68
1301.91
1290.81
1280.53
1270.84
1261.84
1253.4
1245.62
1238.44
1231.88
1225.77
1220.04
1214.62
1209.5
1204.65
1200.09
1195.76
1191.61
1187.59
1183.72
1180.07
1176.59
1173.21
1169.8
1166.38
1162.97
1159.69
1156.55
1153.62
1150.85
1148.23
1145.74
1143.41
1141.17
1139.06
1136.99
1135.05
1133.21
1131.39
1129.69
1128
1126.42
1124.82
1122.4
3573.73
2960.51
2959.6
2965.13
2964.48
2961.92
2957.3
2950.88
2935.29
2904.82
2858.47
2801.42
2743.85
2703.09
2682
2674.33
2673.16
2674.83
2677.19
2678.03
2676.83
2673.15
2667.65
2661.56
2655.51
2649.45
2642.95
2635.53
2627.08
2617.87
2608.05
2597.57
2586.33
2574.32
2561.47
2547.67
2532.83
2516.88
2499.73
2481.37
2461.79
2440.91
2418.53
2394.43
2368.48
2340.58
2310.66
2278.56
2244.13
2207.22
2167.71
2125.61
2081.06
2034.62
1985.87
1937.64
1887.68
1839.64
1792.84
1747.61
1704.64
1664.15
1626.25
1591.31
1559.2
1529.7
1502.59
1477.72
1455.06
1435.13
1417.46
1400.71
1384.46
1368.75
1353.71
1339.39
1325.85
1312.93
1300.78
1289.25
1278.62
1268.78
1259.88
1251.73
1244.36
1237.59
1231.39
1225.58
1220.11
1214.88
1209.86
1205.05
1200.43
1195.96
1191.59
1187.37
1183.31
1179.45
1175.74
1172.17
1168.75
1165.5
1162.35
1159.33
1156.42
1153.63
1150.95
1148.4
1145.95
1143.64
1141.39
1139.26
1137.17
1135.21
1133.36
1131.54
1129.83
1128.16
1126.62
1125.1
1122.79
3571.11
2960.08
2959.13
2964.62
2964.03
2961.48
2956.75
2950.18
2934.55
2904.26
2858.28
2801.8
2744.28
2703.19
2681.75
2673.86
2672.59
2674.25
2676.74
2677.71
2676.67
2673.15
2667.64
2661.47
2655.37
2649.3
2642.81
2635.41
2626.98
2617.76
2607.92
2597.4
2586.14
2574.1
2561.21
2547.36
2532.47
2516.45
2499.23
2480.79
2461.12
2440.12
2417.59
2393.32
2367.18
2339.09
2308.94
2276.6
2241.94
2204.83
2165.21
2123.1
2078.66
2032.18
1984.83
1935.89
1888.05
1840.35
1793.8
1749.05
1706.62
1666.82
1629.61
1594.65
1561.93
1531.6
1503.91
1479.03
1456.94
1437.05
1418.46
1400.46
1383.24
1367.02
1351.74
1337.24
1323.57
1310.63
1298.68
1287.58
1277.55
1268.28
1259.85
1252
1244.74
1237.91
1231.51
1225.47
1219.76
1214.32
1209.11
1204.11
1199.31
1194.73
1190.36
1186.22
1182.28
1178.5
1174.84
1171.3
1167.9
1164.64
1161.56
1158.61
1155.74
1152.97
1150.31
1147.8
1145.39
1143.14
1140.94
1138.88
1136.86
1134.97
1133.18
1131.43
1129.75
1128.1
1126.57
1125.04
1122.76
3568.39
2959.66
2958.68
2964.11
2963.58
2961.04
2956.19
2949.45
2933.77
2903.64
2858.05
2802.18
2744.76
2703.35
2681.51
2673.38
2672
2673.66
2676.26
2677.36
2676.5
2673.15
2667.64
2661.39
2655.23
2649.14
2642.67
2635.3
2626.89
2617.67
2607.79
2597.24
2585.97
2573.9
2560.98
2547.07
2532.12
2516.05
2498.77
2480.26
2460.5
2439.39
2416.73
2392.31
2366.01
2337.74
2307.41
2274.9
2240.07
2202.84
2163.18
2121.12
2076.87
2030.6
1984.13
1936.09
1889.3
1841.99
1795.84
1751.53
1709.36
1669.47
1632.02
1597.01
1564.38
1534.32
1506.98
1482.13
1459.34
1438.01
1418.12
1399.82
1382.99
1367.22
1351.98
1337.37
1323.61
1310.7
1298.83
1287.75
1277.55
1267.99
1259.21
1251.09
1243.64
1236.7
1230.31
1224.37
1218.85
1213.63
1208.65
1203.85
1199.27
1194.9
1190.71
1186.67
1182.73
1178.92
1175.2
1171.59
1168.06
1164.61
1161.25
1158.06
1155.05
1152.19
1149.47
1146.89
1144.41
1142.07
1139.79
1137.66
1135.56
1133.62
1131.81
1130.07
1128.41
1126.8
1125.25
1123.72
1121.44
3565.48
2959.28
2958.25
2963.62
2963.13
2960.59
2955.62
2948.69
2932.95
2902.98
2857.78
2802.57
2745.29
2703.56
2681.32
2672.92
2671.42
2673.05
2675.77
2676.99
2676.31
2673.16
2667.65
2661.31
2655.09
2648.98
2642.53
2635.19
2626.81
2617.57
2607.66
2597.1
2585.81
2573.72
2560.76
2546.81
2531.81
2515.69
2498.35
2479.77
2459.93
2438.73
2415.95
2391.41
2364.97
2336.57
2306.09
2273.44
2238.5
2201.22
2161.6
2119.69
2075.84
2030.56
1983.88
1938.13
1890.77
1844.82
1799.94
1756.43
1714.71
1674.99
1637.42
1602.24
1569.51
1539.16
1511.11
1485.12
1460.97
1438.81
1419.23
1401.37
1384.27
1367.48
1351.49
1336.53
1322.58
1309.45
1297.34
1286.03
1275.81
1266.44
1258.06
1250.38
1243.33
1236.71
1230.55
1224.74
1219.22
1213.89
1208.67
1203.64
1198.81
1194.22
1189.85
1185.66
1181.6
1177.69
1173.91
1170.3
1166.86
1163.61
1160.49
1157.51
1154.64
1151.9
1149.24
1146.68
1144.17
1141.79
1139.46
1137.28
1135.14
1133.15
1131.29
1129.51
1127.78
1126.13
1124.53
1122.94
1120.56
3562.45
2958.92
2957.83
2963.13
2962.69
2960.13
2955.03
2947.9
2932.07
2902.25
2857.47
2802.96
2745.87
2703.84
2681.18
2672.49
2670.86
2672.44
2675.25
2676.61
2676.12
2673.17
2667.67
2661.24
2654.95
2648.82
2642.38
2635.08
2626.72
2617.48
2607.54
2596.97
2585.66
2573.56
2560.56
2546.57
2531.53
2515.36
2497.98
2479.34
2459.43
2438.14
2415.27
2390.62
2364.07
2335.56
2304.97
2272.23
2237.25
2199.99
2160.48
2118.87
2075.58
2031.08
1985.23
1939.36
1892.75
1847.49
1802.99
1759.95
1718.78
1679.67
1642.59
1607.46
1574.27
1543.19
1514.23
1487.46
1463.09
1441.32
1421.38
1402.35
1383.99
1366.4
1350.31
1335.3
1321.32
1308.28
1296.46
1285.56
1275.79
1266.76
1258.48
1250.69
1243.38
1236.52
1230.07
1223.98
1218.2
1212.67
1207.37
1202.32
1197.49
1192.86
1188.43
1184.2
1180.12
1176.2
1172.4
1168.76
1165.26
1161.88
1158.63
1155.53
1152.6
1149.82
1147.15
1144.57
1142.06
1139.69
1137.36
1135.18
1133.05
1131.07
1129.21
1127.41
1125.67
1124.02
1122.4
1120.8
1118.47
3559.23
2958.58
2957.44
2962.65
2962.25
2959.66
2954.42
2947.07
2931.14
2901.48
2857.11
2803.35
2746.51
2704.2
2681.1
2672.09
2670.31
2671.82
2674.7
2676.22
2675.92
2673.18
2667.69
2661.18
2654.82
2648.66
2642.24
2634.98
2626.64
2617.38
2607.43
2596.85
2585.54
2573.41
2560.38
2546.36
2531.28
2515.07
2497.65
2478.96
2458.99
2437.63
2414.68
2389.94
2363.31
2334.71
2304.06
2271.27
2236.29
2199.12
2159.79
2118.5
2075.62
2031.31
1986.84
1940.22
1895.24
1849.81
1805.74
1763.12
1722.21
1683.17
1646.11
1610.96
1577.69
1546.46
1517.52
1491.08
1466.73
1444.03
1422.35
1402.16
1383.77
1367.13
1351.16
1335.96
1321.83
1308.63
1296.63
1285.47
1275.38
1266.04
1257.52
1249.64
1242.44
1235.76
1229.53
1223.64
1218.07
1212.75
1207.62
1202.67
1197.85
1193.19
1188.68
1184.37
1180.25
1176.31
1172.51
1168.85
1165.3
1161.88
1158.58
1155.44
1152.45
1149.61
1146.87
1144.24
1141.69
1139.29
1136.96
1134.79
1132.65
1130.66
1128.79
1126.99
1125.29
1123.7
1122.1
1120.58
1118.25
3555.88
2958.28
2957.07
2962.18
2961.81
2959.19
2953.8
2946.21
2930.16
2900.63
2856.71
2803.74
2747.2
2704.63
2681.07
2671.71
2669.77
2671.19
2674.12
2675.83
2675.71
2673.17
2667.72
2661.12
2654.68
2648.5
2642.1
2634.87
2626.56
2617.29
2607.33
2596.75
2585.43
2573.29
2560.22
2546.17
2531.07
2514.83
2497.36
2478.63
2458.61
2437.2
2414.18
2389.38
2362.69
2334.04
2303.35
2270.56
2235.64
2198.59
2159.51
2118.58
2075.97
2032.02
1987.84
1942.89
1898.09
1853.95
1810.86
1768.93
1728.37
1689.35
1652.02
1616.6
1583.19
1551.84
1522.73
1495.6
1470.19
1446.12
1423.84
1403.68
1384.94
1367.1
1350.28
1334.73
1320.43
1307.18
1295.23
1284.24
1274.5
1265.54
1257.45
1249.95
1242.96
1236.31
1229.93
1223.81
1217.96
1212.36
1206.98
1201.84
1196.95
1192.3
1187.88
1183.66
1179.55
1175.55
1171.65
1167.88
1164.26
1160.81
1157.51
1154.38
1151.41
1148.58
1145.86
1143.26
1140.78
1138.46
1136.22
1134.13
1132.04
1130.07
1128.17
1126.34
1124.56
1122.84
1121.16
1119.56
1117.2
3552.31
2958
2956.73
2961.73
2961.37
2958.7
2953.15
2945.3
2929.12
2899.73
2856.27
2804.13
2747.95
2705.16
2681.09
2671.34
2669.22
2670.53
2673.48
2675.43
2675.5
2673.13
2667.74
2661.09
2654.56
2648.34
2641.95
2634.76
2626.47
2617.21
2607.25
2596.66
2585.34
2573.18
2560.09
2546.01
2530.89
2514.63
2497.12
2478.36
2458.3
2436.84
2413.78
2388.94
2362.2
2333.51
2302.83
2270.09
2235.25
2198.41
2159.63
2119.01
2076.94
2033.84
1989.79
1946.62
1901.79
1858.8
1816.19
1774.68
1734.56
1695.95
1658.92
1623.51
1589.79
1557.9
1527.78
1499.35
1472.98
1448.67
1426.84
1406.04
1386.21
1367.48
1350.52
1334.9
1320.58
1307.44
1295.67
1284.81
1275.04
1265.93
1257.59
1249.8
1242.47
1235.54
1228.98
1222.8
1216.97
1211.41
1206.07
1200.93
1195.92
1191.07
1186.43
1182.03
1177.79
1173.73
1169.82
1166.1
1162.56
1159.2
1156
1152.95
1150.02
1147.21
1144.5
1141.9
1139.43
1137.11
1134.86
1132.76
1130.66
1128.68
1126.81
1125.02
1123.27
1121.61
1119.98
1118.43
1116.21
3548.61
2957.76
2956.41
2961.28
2960.95
2958.21
2952.49
2944.36
2928.01
2898.76
2855.77
2804.52
2748.77
2705.77
2681.18
2670.97
2668.65
2669.85
2672.8
2675.01
2675.27
2673.06
2667.78
2661.07
2654.44
2648.19
2641.81
2634.66
2626.39
2617.13
2607.17
2596.6
2585.28
2573.09
2559.98
2545.89
2530.76
2514.47
2496.94
2478.14
2458.06
2436.56
2413.46
2388.59
2361.86
2333.18
2302.5
2269.81
2235.18
2198.57
2160.05
2119.87
2078.49
2036.23
1993.43
1949.49
1906.06
1862.53
1820.09
1778.9
1739.05
1700.66
1663.81
1628.49
1594.66
1562.51
1531.95
1503.43
1476.84
1452.22
1428.86
1406.87
1386.82
1368.64
1351.47
1335.5
1320.86
1307.42
1295.32
1284.2
1274.27
1265.15
1256.98
1249.38
1242.29
1235.58
1229.27
1223.26
1217.46
1211.85
1206.42
1201.21
1196.14
1191.22
1186.44
1181.93
1177.67
1173.63
1169.81
1166.18
1162.71
1159.41
1156.25
1153.22
1150.28
1147.44
1144.71
1142.11
1139.63
1137.29
1135.03
1132.91
1130.8
1128.82
1126.94
1125.12
1123.33
1121.66
1119.97
1118.35
1116
3544.66
2957.53
2956.11
2960.85
2960.52
2957.71
2951.8
2943.36
2926.84
2897.72
2855.24
2804.92
2749.66
2706.48
2681.34
2670.62
2668.07
2669.14
2672.07
2674.55
2675
2672.97
2667.84
2661.07
2654.34
2648.03
2641.66
2634.55
2626.31
2617.06
2607.12
2596.55
2585.23
2573.02
2559.9
2545.8
2530.65
2514.35
2496.79
2477.97
2457.86
2436.36
2413.26
2388.38
2361.61
2332.92
2302.35
2269.85
2235.36
2198.97
2160.8
2121.11
2080.21
2038.42
1996.4
1952.54
1909.72
1866.79
1825.25
1784.67
1745.14
1706.77
1669.73
1634.19
1600.22
1567.88
1537.59
1509.13
1482.07
1456.31
1431.41
1408.78
1387.92
1368.57
1350.89
1334.78
1320.12
1306.83
1295
1284.28
1274.8
1265.95
1257.78
1250.02
1242.72
1235.79
1229.17
1222.83
1216.7
1210.82
1205.22
1199.92
1194.92
1190.23
1185.82
1181.63
1177.46
1173.38
1169.4
1165.58
1161.9
1158.39
1155.06
1151.9
1148.86
1145.95
1143.19
1140.59
1138.09
1135.73
1133.41
1131.22
1129.05
1127.01
1125.06
1123.2
1121.39
1119.72
1118.03
1116.42
1114.09
3540.59
2957.35
2955.84
2960.44
2960.11
2957.2
2951.09
2942.32
2925.6
2896.6
2854.65
2805.31
2750.62
2707.29
2681.57
2670.3
2667.5
2668.42
2671.32
2674.05
2674.69
2672.87
2667.9
2661.09
2654.25
2647.89
2641.52
2634.45
2626.23
2617
2607.08
2596.53
2585.2
2572.98
2559.85
2545.74
2530.59
2514.28
2496.71
2477.88
2457.76
2436.23
2413.11
2388.22
2361.51
2332.93
2302.44
2270.06
2235.76
2199.66
2161.88
2122.63
2082.14
2040.68
1998.68
1956.75
1913.7
1872.63
1831.96
1791.93
1752.81
1714.73
1677.83
1642.24
1608.03
1575.3
1544.18
1514.41
1486.41
1459.9
1435.49
1412.48
1390.95
1371.06
1352.91
1336.54
1321.73
1308.32
1296.31
1285.28
1275.3
1265.93
1257.34
1249.36
1242.06
1235.21
1228.67
1222.37
1216.32
1210.53
1204.97
1199.65
1194.52
1189.57
1184.76
1180.1
1175.64
1171.45
1167.46
1163.68
1160.1
1156.73
1153.54
1150.49
1147.55
1144.73
1142.05
1139.5
1137.03
1134.65
1132.3
1130.1
1127.93
1125.91
1124
1122.19
1120.43
1118.83
1117.19
1115.68
1113.42
3536.24
2957.18
2955.6
2960.04
2959.71
2956.68
2950.35
2941.22
2924.28
2895.41
2854.02
2805.71
2751.64
2708.18
2681.9
2670.03
2666.94
2667.7
2670.53
2673.52
2674.34
2672.75
2667.99
2661.14
2654.18
2647.74
2641.38
2634.34
2626.16
2616.95
2607.06
2596.52
2585.18
2572.95
2559.81
2545.71
2530.55
2514.22
2496.64
2477.8
2457.68
2436.17
2413.08
2388.23
2361.56
2333.04
2302.67
2270.45
2236.4
2200.62
2163.23
2124.45
2084.5
2043.63
2002.23
1961.05
1919.14
1878.11
1837.6
1797.83
1758.95
1721.12
1684.44
1648.91
1614.6
1581.61
1549.58
1519.08
1490.29
1463.27
1438.15
1414.2
1391.96
1371.88
1353.61
1337.02
1321.94
1308.29
1296.02
1284.81
1274.81
1265.63
1257.5
1249.95
1242.89
1236.01
1229.23
1222.68
1216.42
1210.46
1204.78
1199.37
1194.18
1189.15
1184.13
1179.3
1174.96
1170.93
1167.14
1163.52
1160.04
1156.69
1153.43
1150.28
1147.22
1144.3
1141.53
1138.89
1136.33
1133.86
1131.44
1129.17
1126.94
1124.85
1122.87
1121
1119.16
1117.44
1115.71
1114.06
1111.66
3531.77
2957.06
2955.39
2959.67
2959.31
2956.15
2949.58
2940.06
2922.87
2894.12
2853.33
2806.08
2752.71
2709.18
2682.31
2669.81
2666.4
2666.97
2669.71
2672.96
2673.96
2672.61
2668.09
2661.22
2654.12
2647.61
2641.24
2634.23
2626.09
2616.92
2607.05
2596.52
2585.18
2572.95
2559.81
2545.71
2530.57
2514.24
2496.65
2477.82
2457.7
2436.2
2413.13
2388.32
2361.71
2333.29
2303.08
2271.05
2237.26
2201.81
2164.86
2126.6
2087.33
2047.33
2006.77
1965.18
1924.6
1883.25
1843.01
1803.59
1764.97
1727.25
1690.55
1654.96
1620.53
1587.31
1555.6
1525.37
1496.32
1468.51
1441.51
1416.68
1394.08
1373.45
1354.64
1337.73
1322.6
1309.1
1297.05
1286.07
1276.24
1267.04
1258.63
1250.59
1242.93
1235.56
1228.44
1221.65
1215.29
1209.26
1203.54
1198.07
1192.87
1187.95
1183.39
1179.11
1174.88
1170.73
1166.63
1162.67
1158.84
1155.16
1151.63
1148.27
1145.11
1142.15
1139.37
1136.71
1134.16
1131.71
1129.33
1127.1
1124.92
1122.89
1121
1119.22
1117.46
1115.82
1114.13
1112.59
1110.36
3527
2956.95
2955.19
2959.3
2958.93
2955.61
2948.78
2938.84
2921.39
2892.75
2852.57
2806.44
2753.84
2710.28
2682.83
2669.65
2665.86
2666.22
2668.87
2672.36
2673.56
2672.45
2668.21
2661.32
2654.08
2647.48
2641.1
2634.13
2626.02
2616.9
2607.07
2596.55
2585.2
2572.97
2559.83
2545.75
2530.6
2514.27
2496.7
2477.87
2457.77
2436.3
2413.26
2388.51
2361.99
2333.7
2303.65
2271.84
2238.34
2203.25
2166.76
2129.06
2090.32
2050.8
2010.75
1970.3
1929.33
1889.42
1850.15
1811.34
1773.14
1735.67
1699.05
1663.44
1628.84
1595.36
1563.34
1532.3
1502.6
1474.17
1447.03
1421.68
1398.34
1376.97
1357.62
1340.32
1324.86
1311
1298.52
1287.06
1276.75
1267.14
1258.47
1250.33
1242.81
1235.55
1228.62
1222
1215.7
1209.67
1203.89
1198.38
1193.1
1188.03
1183.03
1178.06
1173.28
1168.81
1164.62
1160.75
1157.14
1153.74
1150.48
1147.38
1144.42
1141.6
1138.88
1136.25
1133.71
1131.28
1128.93
1126.72
1124.56
1122.55
1120.63
1118.79
1116.94
1115.21
1113.42
1111.72
1109.26
3522.08
2956.87
2955.03
2958.96
2958.56
2955.06
2947.95
2937.56
2919.81
2891.29
2851.76
2806.77
2755.01
2711.48
2683.45
2669.55
2665.32
2665.45
2667.98
2671.72
2673.12
2672.28
2668.32
2661.45
2654.07
2647.37
2640.96
2634.02
2625.97
2616.9
2607.09
2596.57
2585.23
2573.01
2559.89
2545.81
2530.67
2514.34
2496.78
2477.97
2457.9
2436.46
2413.47
2388.81
2362.4
2334.25
2304.39
2272.83
2239.62
2204.95
2168.95
2131.72
2093.36
2054.1
2014.56
1975.37
1934.94
1895.82
1857.18
1818.81
1780.93
1743.73
1707.32
1671.71
1637.02
1603.22
1569.95
1537.89
1507.22
1478.18
1451.04
1425.1
1400.52
1378.22
1358.44
1340.94
1325.29
1311.27
1298.7
1287.3
1277.24
1267.98
1259.56
1251.39
1243.49
1235.84
1228.57
1221.65
1215.1
1208.87
1202.94
1197.28
1191.81
1186.54
1181.46
1176.76
1172.41
1168.28
1164.39
1160.7
1157.13
1153.62
1150.16
1146.84
1143.65
1140.59
1137.63
1134.78
1132.06
1129.49
1127.05
1124.77
1122.55
1120.46
1118.47
1116.56
1114.69
1112.99
1111.22
1109.57
1107.25
3516.82
2956.8
2954.89
2958.64
2958.21
2954.49
2947.07
2936.21
2918.15
2889.75
2850.89
2807.09
2756.25
2712.79
2684.19
2669.53
2664.77
2664.64
2667.07
2671.03
2672.66
2672.08
2668.42
2661.58
2654.08
2647.27
2640.83
2633.92
2625.92
2616.9
2607.12
2596.61
2585.28
2573.06
2559.96
2545.9
2530.77
2514.45
2496.91
2478.13
2458.09
2436.71
2413.78
2389.21
2362.93
2334.95
2305.29
2273.98
2241.13
2206.88
2171.33
2134.57
2096.73
2058.15
2019.1
1979.92
1941.14
1901.85
1863.3
1825.15
1787.48
1750.45
1714.14
1678.53
1643.74
1609.67
1576.47
1544.37
1513.29
1483.31
1454.72
1427.99
1403.43
1381.41
1361.52
1343.68
1327.76
1313.62
1301.01
1289.53
1279.16
1269.3
1260.08
1251.23
1242.97
1235.27
1228.08
1221.19
1214.66
1208.46
1202.54
1196.84
1191.37
1186.2
1181.39
1176.8
1172.26
1167.85
1163.56
1159.43
1155.41
1151.6
1148.06
1144.77
1141.69
1138.76
1135.91
1133.16
1130.53
1128.05
1125.68
1123.47
1121.29
1119.25
1117.33
1115.54
1113.76
1112.13
1110.38
1108.76
1106.37
3511.39
2956.77
2954.78
2958.34
2957.87
2953.91
2946.16
2934.79
2916.4
2888.11
2849.96
2807.39
2757.53
2714.21
2685.05
2669.56
2664.23
2663.83
2666.12
2670.27
2672.17
2671.86
2668.5
2661.72
2654.1
2647.18
2640.7
2633.81
2625.88
2616.91
2607.15
2596.66
2585.33
2573.14
2560.06
2546.01
2530.89
2514.59
2497.08
2478.34
2458.36
2437.03
2414.19
2389.73
2363.59
2335.79
2306.36
2275.34
2242.85
2209.02
2173.92
2137.7
2100.55
2062.65
2024.15
1985.56
1947.12
1908.6
1870.53
1832.82
1795.55
1758.77
1722.59
1687.13
1652.2
1618.11
1585.16
1552.72
1521.26
1490.77
1461.22
1433.7
1408.74
1385.85
1365.03
1346.51
1330.09
1315.46
1302.33
1290.34
1279.49
1269.3
1260.17
1251.71
1243.92
1236.28
1228.87
1221.79
1215.11
1208.76
1202.62
1196.71
1191.01
1185.55
1180.26
1175.18
1170.39
1165.94
1161.77
1157.81
1154.1
1150.66
1147.46
1144.39
1141.39
1138.43
1135.49
1132.64
1129.89
1127.28
1124.76
1122.38
1120.06
1117.87
1115.82
1113.92
1112.01
1110.26
1108.43
1106.72
1104.29
3505.6
2956.75
2954.7
2958.06
2957.55
2953.32
2945.19
2933.29
2914.55
2886.39
2848.97
2807.66
2758.88
2715.75
2686.03
2669.7
2663.74
2663.03
2665.16
2669.44
2671.66
2671.62
2668.53
2661.87
2654.15
2647.1
2640.58
2633.72
2625.84
2616.93
2607.19
2596.7
2585.41
2573.25
2560.19
2546.16
2531.04
2514.78
2497.3
2478.61
2458.69
2437.44
2414.7
2390.36
2364.37
2336.77
2307.58
2276.87
2244.76
2211.36
2176.75
2141.07
2104.4
2066.97
2029.36
1991.8
1953.5
1915.89
1878.57
1841.42
1804.53
1768.05
1732.05
1696.58
1661.64
1627.16
1592.88
1559.46
1527.14
1496.4
1467.21
1439.37
1412.98
1388.57
1366.94
1348.04
1331.41
1316.65
1303.51
1291.66
1281.08
1271.12
1261.97
1253.01
1244.34
1236.03
1228.32
1221.08
1214.28
1207.73
1201.41
1195.39
1189.74
1184.42
1179.36
1174.59
1170.15
1165.97
1161.87
1157.83
1153.9
1150.13
1146.46
1142.95
1139.57
1136.33
1133.27
1130.38
1127.66
1125.07
1122.57
1120.23
1117.97
1115.87
1113.91
1112.07
1110.22
1108.54
1106.75
1105.15
1102.8
3499.6
2956.75
2954.64
2957.81
2957.25
2952.7
2944.16
2931.71
2912.6
2884.56
2847.92
2807.9
2760.26
2717.4
2687.17
2669.94
2663.28
2662.24
2664.18
2668.54
2671.13
2671.35
2668.52
2662.04
2654.23
2647.04
2640.46
2633.62
2625.81
2616.95
2607.22
2596.76
2585.49
2573.37
2560.35
2546.33
2531.23
2515
2497.57
2478.94
2459.1
2437.94
2415.31
2391.1
2365.28
2337.88
2308.97
2278.59
2246.87
2213.91
2179.79
2144.55
2108.29
2071.42
2034.34
1997.25
1960.31
1922.53
1885.48
1848.69
1812.05
1775.78
1739.92
1704.38
1669.41
1634.56
1600.01
1566.24
1533.28
1501.44
1471.47
1443.3
1416.83
1393.04
1371.73
1352.63
1335.53
1320.28
1306.69
1294.34
1283.08
1272.33
1262.32
1252.72
1244.04
1236.12
1228.84
1221.77
1214.8
1208.08
1201.67
1195.68
1190.09
1184.74
1179.52
1174.5
1169.71
1165.09
1160.52
1156.09
1151.93
1148.14
1144.69
1141.44
1138.29
1135.23
1132.35
1129.62
1127.01
1124.5
1122.05
1119.74
1117.44
1115.23
1113.09
1111.04
1109.01
1107.15
1105.24
1103.49
1100.94
3493.25
2956.76
2954.61
2957.59
2956.98
2952.07
2943.08
2930.04
2910.54
2882.63
2846.79
2808.11
2761.69
2719.16
2688.44
2670.31
2662.87
2661.47
2663.19
2667.56
2670.53
2671.02
2668.49
2662.23
2654.36
2647.02
2640.36
2633.53
2625.78
2616.96
2607.25
2596.82
2585.6
2573.52
2560.53
2546.53
2531.46
2515.27
2497.9
2479.34
2459.58
2438.52
2416.01
2391.95
2366.31
2339.15
2310.51
2280.48
2249.17
2216.65
2182.97
2148.19
2112.53
2076.27
2039.57
2002.88
1966.65
1929.47
1892.76
1856.3
1819.99
1783.98
1748.33
1713.06
1677.89
1643.32
1609.45
1575.65
1542.45
1509.89
1478.31
1448.98
1422.62
1398.65
1376.58
1356.43
1338.34
1322.35
1308.18
1295.37
1283.72
1272.77
1262.95
1253.75
1245.43
1237.3
1229.3
1221.63
1214.25
1207.23
1200.72
1194.64
1188.89
1183.39
1178.08
1173.05
1168.27
1163.7
1159.34
1155.28
1151.55
1148.03
1144.57
1141.03
1137.49
1134.16
1131.07
1128.15
1125.36
1122.71
1120.17
1117.77
1115.39
1113.14
1111.04
1109.13
1107.25
1105.54
1103.75
1102.12
1099.79
3486.62
2956.78
2954.6
2957.39
2956.72
2951.41
2941.92
2928.27
2908.37
2880.6
2845.6
2808.28
2763.16
2721.05
2689.88
2670.79
2662.49
2660.69
2662.18
2666.52
2669.87
2670.63
2668.42
2662.46
2654.53
2647.01
2640.25
2633.44
2625.75
2616.97
2607.29
2596.89
2585.72
2573.69
2560.73
2546.76
2531.73
2515.59
2498.29
2479.81
2460.14
2439.19
2416.81
2392.9
2367.46
2340.54
2312.21
2282.55
2251.64
2219.55
2186.31
2152.06
2117.03
2081.41
2045.48
2009.45
1973.34
1937.47
1901.39
1865.49
1829.62
1793.93
1758.51
1723.35
1688.22
1653.21
1618.13
1583.56
1549.87
1517.51
1486.3
1456.61
1428.82
1403.01
1379.86
1359.27
1341.15
1325.21
1311.04
1298.14
1286.34
1275.19
1264.92
1255.03
1245.86
1237.09
1228.89
1221.12
1213.76
1206.84
1200.45
1194.47
1188.8
1183.4
1178.27
1173.39
1168.66
1164.11
1159.79
1155.67
1151.6
1147.52
1143.39
1139.5
1136.06
1132.96
1130.08
1127.29
1124.61
1122.06
1119.62
1117.33
1115.11
1113.04
1111.09
1109.22
1107.28
1105.48
1103.54
1101.75
1099.17
3479.63
2956.79
2954.61
2957.21
2956.48
2950.73
2940.68
2926.38
2906.08
2878.47
2844.35
2808.45
2764.69
2723.05
2691.47
2671.43
2662.19
2659.93
2661.14
2665.39
2669.14
2670.2
2668.32
2662.7
2654.74
2647.02
2640.15
2633.35
2625.73
2616.98
2607.33
2596.97
2585.87
2573.89
2560.97
2547.03
2532.05
2515.97
2498.74
2480.34
2460.78
2439.95
2417.7
2393.96
2368.73
2342.07
2314.07
2284.78
2254.27
2222.6
2189.82
2156.1
2121.63
2086.64
2051.42
2016.12
1980.71
1945.05
1909.31
1873.75
1838.18
1802.74
1767.43
1732.15
1697.19
1661.58
1625.9
1590.78
1556.32
1523.13
1491.91
1462.41
1434.38
1408.38
1385.12
1364.75
1346.39
1329.71
1314.55
1300.71
1288.06
1276.26
1265.5
1255.45
1246.61
1238.05
1229.75
1221.72
1214.27
1207.35
1200.84
1194.62
1188.67
1183.02
1177.65
1172.52
1167.55
1162.82
1158.41
1154.23
1150.17
1146.29
1142.71
1139.44
1136.32
1133.2
1130.14
1127.16
1124.29
1121.55
1118.93
1116.49
1114.12
1111.86
1109.68
1107.62
1105.53
1103.69
1101.71
1099.93
1097.44
3472.29
2956.8
2954.63
2957.06
2956.26
2950.03
2939.36
2924.38
2903.66
2876.23
2843.05
2808.6
2766.28
2725.18
2693.24
2672.21
2661.96
2659.18
2660.09
2664.18
2668.34
2669.71
2668.2
2662.95
2654.98
2647.05
2640.05
2633.27
2625.7
2616.99
2607.37
2597.07
2586.03
2574.11
2561.23
2547.34
2532.41
2516.4
2499.25
2480.95
2461.5
2440.78
2418.68
2395.12
2370.11
2343.74
2316.08
2287.16
2257.05
2225.8
2193.49
2160.27
2126.33
2091.88
2057.22
2022.55
1987.76
1952.24
1916.76
1881.48
1846.25
1811.07
1775.98
1740.91
1705.68
1670.76
1636.01
1600.99
1566.22
1531.84
1498.8
1468.15
1440.31
1415.23
1391.84
1369.88
1350.04
1332.35
1316.54
1302.36
1289.69
1278.11
1267.66
1257.54
1247.85
1238.39
1229.44
1221.16
1213.78
1206.87
1200.22
1193.82
1187.75
1182.06
1176.71
1171.61
1166.71
1162.11
1157.78
1153.61
1149.53
1145.58
1141.86
1138.35
1134.88
1131.52
1128.32
1125.3
1122.46
1119.8
1117.29
1114.93
1112.61
1110.37
1108.27
1106.35
1104.43
1102.73
1100.86
1099.18
1096.74
3464.57
2956.78
2954.64
2956.91
2956.03
2949.3
2937.95
2922.24
2901.1
2873.9
2841.71
2808.74
2767.91
2727.42
2695.16
2673.17
2661.86
2658.46
2659.03
2662.9
2667.46
2669.18
2668.02
2663.2
2655.25
2647.13
2640
2633.2
2625.67
2617
2607.43
2597.19
2586.22
2574.36
2561.53
2547.69
2532.82
2516.89
2499.82
2481.63
2462.29
2441.7
2419.75
2396.38
2371.62
2345.55
2318.23
2289.68
2259.97
2229.14
2197.28
2164.57
2131.19
2097.43
2063.48
2029.2
1994.72
1960.46
1925.69
1890.94
1856.18
1821.37
1786.6
1751.74
1716.4
1681.09
1645.47
1610.04
1575.27
1541.41
1508.39
1477.06
1448.14
1421.61
1397.34
1374.79
1354.77
1337.02
1321.05
1306.53
1293.26
1280.85
1269.31
1258.23
1247.87
1238.4
1230.21
1222.47
1214.96
1207.71
1200.75
1194.18
1188.07
1182.34
1176.94
1171.78
1166.83
1162.14
1157.66
1153.34
1149.08
1144.99
1141.15
1137.53
1134.09
1130.84
1127.79
1124.88
1122.12
1119.49
1116.89
1114.35
1111.81
1109.37
1107.1
1105.03
1102.92
1101.02
1098.97
1097.13
1094.54
3456.44
2956.73
2954.64
2956.76
2955.79
2948.55
2936.45
2919.96
2898.4
2871.46
2840.31
2808.85
2769.58
2729.76
2697.26
2674.31
2661.84
2657.75
2657.95
2661.56
2666.5
2668.59
2667.81
2663.43
2655.56
2647.25
2639.98
2633.15
2625.65
2617.02
2607.5
2597.33
2586.42
2574.62
2561.85
2548.07
2533.29
2517.43
2500.45
2482.36
2463.15
2442.7
2420.91
2397.76
2373.25
2347.49
2320.51
2292.35
2263.02
2232.6
2201.2
2169
2136.28
2103.26
2069.89
2036.12
2002.35
1968.78
1934.42
1900.07
1865.64
1831.1
1796.43
1761.56
1726.63
1690.33
1653.82
1617.75
1582.32
1548.28
1515.91
1485.06
1455.75
1427.86
1402.9
1381.25
1361.04
1342.28
1325.01
1309.28
1295
1281.94
1270.14
1259.28
1249.66
1240.45
1231.64
1223.03
1214.73
1206.92
1199.73
1193.07
1186.9
1181.1
1175.6
1170.34
1165.29
1160.45
1155.8
1151.42
1147.4
1143.7
1140.05
1136.41
1132.85
1129.48
1126.27
1123.21
1120.28
1117.43
1114.61
1111.9
1109.34
1106.95
1104.81
1102.85
1100.83
1099
1097
1095.25
1092.76
3447.9
2956.64
2954.66
2956.59
2955.51
2947.76
2934.85
2917.52
2895.55
2868.92
2838.87
2808.95
2771.27
2732.19
2699.5
2675.64
2661.97
2657.07
2656.85
2660.19
2665.43
2667.95
2667.54
2663.63
2655.9
2647.43
2639.99
2633.09
2625.61
2617.04
2607.59
2597.49
2586.65
2574.91
2562.2
2548.5
2533.8
2518.03
2501.14
2483.17
2464.08
2443.78
2422.17
2399.24
2375.01
2349.56
2322.93
2295.12
2266.19
2236.18
2205.24
2173.61
2141.52
2109.02
2076.13
2043.15
2009.98
1976.36
1942.28
1908.19
1874.05
1839.76
1805.23
1770.45
1735.41
1700.25
1664.65
1628.6
1592.58
1557.03
1523.2
1491.59
1462.19
1435.43
1410.31
1386.73
1365.38
1345.85
1328.07
1312.21
1298.05
1285.09
1273.15
1261.82
1251.22
1241.07
1231.57
1222.67
1214.52
1206.9
1200
1193.57
1187.39
1181.48
1175.86
1170.51
1165.34
1160.33
1155.49
1150.95
1146.71
1142.67
1138.68
1134.83
1131.25
1127.95
1124.83
1121.82
1118.92
1116.08
1113.33
1110.81
1108.42
1106.09
1103.85
1101.7
1099.49
1097.48
1095.34
1093.41
1090.62
3438.86
2956.51
2954.72
2956.53
2955.17
2946.9
2933.13
2914.92
2892.54
2866.27
2837.39
2809.01
2772.97
2734.68
2701.91
2677.18
2662.28
2656.42
2655.77
2658.77
2664.23
2667.26
2667.25
2663.77
2656.28
2647.68
2640.03
2633.04
2625.59
2617.09
2607.71
2597.67
2586.89
2575.21
2562.58
2548.97
2534.35
2518.67
2501.89
2484.03
2465.08
2444.94
2423.53
2400.84
2376.88
2351.75
2325.46
2298.02
2269.47
2239.89
2209.44
2178.36
2146.77
2114.76
2082.6
2050.37
2017.7
1984.72