/*--------------------------------*- C++ -*----------------------------------*\
| =========                 |                                                 |
| \\      /  F ield         | OpenFOAM: The Open Source CFD Toolbox           |
|  \\    /   O peration     | Version:  2412                                  |
|   \\  /    A nd           | Website:  www.openfoam.com                      |
|    \\/     M anipulation  |                                                 |
\*---------------------------------------------------------------------------*/
FoamFile
{
    version     2.0;
    format      ascii;
    arch        "LSB;label=32;scalar=64";
    class       volScalarField;
    location    "0.046";
    object      p;
}
// * * * * * * * * * * * * * * * * * * * * * * * * * * * * * * * * * * * * * //

dimensions      [1 -1 -2 0 0 0 0];

internalField   nonuniform List<scalar> 
9816
(
2913.58
2913.75
2913.8
2913.7
2913.51
2913.21
2912.8
2912.28
2911.67
2910.97
2910.21
2909.37
2908.47
2907.52
2906.52
2905.47
2904.37
2903.24
2902.01
2900.91
2899.65
2898.45
2897.17
2895.85
2894.48
2893.07
2891.6
2890.07
2888.46
2887.07
2885.42
2884.05
2882.56
2881.43
2879.74
2878.49
2877.33
2876.57
2874.56
2873.78
2872.9
2869.81
2841.98
2841.28
2840.58
2839.82
2839.08
2838.34
2837.59
2836.83
2836.06
2835.3
2834.54
2833.79
2833.03
2832.3
2831.56
2830.86
2830.15
2829.48
2828.81
2828.15
2827.51
2826.88
2826.29
2825.7
2825.21
2824.69
2824.3
2823.87
2823.65
2823.3
2823.06
2822.52
2822.2
2821.55
2821.22
2820.88
2820.81
2819.31
2819.99
2821.59
2819.98
2817.47
2814.05
2813.73
2813.4
2813.06
2812.7
2812.35
2811.98
2811.63
2811.27
2810.92
2810.58
2810.26
2809.95
2809.66
2809.38
2809.11
2808.85
2808.6
2808.37
2808.15
2807.94
2807.76
2807.58
2807.43
2807.27
2807.17
2807.02
2806.88
2806.68
2806.48
2806.31
2806.11
2806.02
2805.67
2806
2806.13
2804.8
2804.61
2806.94
2807.4
2805.42
2803.96
2799.57
2799.6
2799.62
2799.64
2799.65
2799.66
2799.67
2799.68
2799.69
2799.7
2799.7
2799.7
2799.69
2799.69
2799.64
2799.67
2799.64
2799.63
2799.61
2799.6
2799.58
2799.55
2799.54
2799.49
2799.48
2799.42
2799.41
2799.35
2799.36
2799.31
2799.35
2799.33
2799.51
2799.5
2799.16
2799.77
2800.63
2799.22
2798.11
2798.98
2800.19
2800.52
2793.99
2794.35
2794.68
2795.01
2795.31
2795.6
2795.87
2796.13
2796.37
2796.61
2796.82
2797.03
2797.21
2797.41
2797.55
2797.76
2797.91
2798.06
2798.19
2798.33
2798.45
2798.57
2798.69
2798.79
2798.9
2798.99
2799.1
2799.17
2799.27
2799.37
2799.42
2799.48
2799.59
2799.51
2799.14
2800.08
2800.67
2799.14
2798.18
2799.18
2800.6
2801.07
2792.62
2793.13
2793.62
2794.07
2794.5
2794.9
2795.28
2795.64
2795.98
2796.29
2796.58
2796.87
2797.1
2797.39
2797.63
2797.85
2798.06
2798.26
2798.45
2798.63
2798.8
2798.97
2799.11
2799.26
2799.38
2799.52
2799.63
2799.75
2799.84
2799.93
2800.03
2800.17
2800.21
2800.06
2800.34
2801.14
2800.48
2799.44
2800.08
2801.34
2801.76
2801.42
2792.7
2793.28
2793.81
2794.34
2794.82
2795.3
2795.72
2796.14
2796.52
2796.89
2797.23
2797.56
2797.86
2798.15
2798.42
2798.67
2798.91
2799.14
2799.36
2799.56
2799.74
2799.95
2800.09
2800.29
2800.41
2800.61
2800.7
2800.89
2800.97
2801.13
2801.22
2801.35
2801.46
2801.44
2801.34
2801.99
2802.36
2801.35
2800.84
2801.67
2802.62
2802.93
2793.41
2794
2794.55
2795.08
2795.57
2796.04
2796.48
2796.9
2797.29
2797.66
2798
2798.33
2798.64
2798.93
2799.21
2799.47
2799.72
2799.96
2800.19
2800.39
2800.59
2800.79
2800.95
2801.15
2801.28
2801.49
2801.58
2801.79
2801.86
2802.06
2802.13
2802.29
2802.33
2802.43
2802.69
2802.73
2802.37
2802.68
2803.44
2803.31
2802.63
2802.54
2794.69
2795.26
2795.81
2796.32
2796.8
2797.26
2797.69
2798.1
2798.49
2798.86
2799.21
2799.54
2799.86
2800.16
2800.44
2800.72
2800.98
2801.22
2801.47
2801.69
2801.88
2802.11
2802.25
2802.48
2802.58
2802.81
2802.87
2803.09
2803.14
2803.33
2803.39
2803.53
2803.61
2803.74
2803.84
2803.8
2804
2804.3
2803.99
2803.74
2804.3
2804.83
2795.86
2796.43
2796.97
2797.48
2797.96
2798.42
2798.85
2799.24
2799.61
2799.94
2800.26
2800.55
2800.83
2801.09
2801.34
2801.57
2801.79
2802
2802.2
2802.39
2802.56
2802.74
2802.91
2803.08
2803.25
2803.38
2803.57
2803.66
2803.85
2803.91
2804.1
2804.13
2804.32
2804.35
2804.5
2804.54
2804.69
2804.6
2804.77
2805.16
2804.97
2804.55
2796.84
2797.36
2797.85
2798.31
2798.75
2799.15
2799.53
2799.9
2800.25
2800.58
2800.9
2801.2
2801.48
2801.76
2802.01
2802.25
2802.47
2802.69
2802.89
2803.08
2803.27
2803.42
2803.61
2803.72
2803.9
2804.01
2804.18
2804.28
2804.43
2804.53
2804.66
2804.76
2804.85
2804.97
2805.02
2805.15
2805.19
2805.3
2805.29
2805.49
2805.59
2805.37
2797.64
2798.14
2798.62
2799.07
2799.5
2799.9
2800.28
2800.64
2800.98
2801.3
2801.61
2801.9
2802.17
2802.43
2802.68
2802.91
2803.13
2803.34
2803.54
2803.72
2803.91
2804.08
2804.22
2804.39
2804.5
2804.67
2804.76
2804.92
2804.99
2805.15
2805.2
2805.35
2805.4
2805.53
2805.58
2805.68
2805.74
2805.81
2805.88
2805.93
2806.02
2806.03
2798.12
2798.6
2799.05
2799.48
2799.89
2800.28
2800.64
2800.99
2801.32
2801.62
2801.92
2802.19
2802.47
2802.72
2802.97
2803.19
2803.41
2803.62
2803.81
2804
2804.18
2804.34
2804.5
2804.64
2804.78
2804.91
2805.03
2805.15
2805.26
2805.35
2805.46
2805.54
2805.64
2805.7
2805.8
2805.84
2805.94
2805.97
2806.07
2806.09
2806.18
2806.2
2798.34
2798.78
2799.2
2799.59
2799.97
2800.32
2800.66
2800.97
2801.28
2801.56
2801.83
2802.09
2802.34
2802.57
2802.8
2803.01
2803.22
2803.41
2803.6
2803.78
2803.95
2804.11
2804.27
2804.41
2804.55
2804.68
2804.81
2804.92
2805.03
2805.14
2805.23
2805.33
2805.42
2805.5
2805.58
2805.66
2805.72
2805.79
2805.86
2805.91
2805.98
2806.02
2798.52
2798.95
2799.36
2799.76
2800.13
2800.49
2800.83
2801.15
2801.46
2801.76
2802.04
2802.3
2802.55
2802.78
2803
2803.2
2803.4
2803.58
2803.75
2803.9
2804.05
2804.18
2804.32
2804.44
2804.54
2804.66
2804.75
2804.88
2804.96
2805.09
2805.15
2805.28
2805.33
2805.44
2805.49
2805.58
2805.63
2805.71
2805.77
2805.82
2805.88
2805.93
2798.66
2799.08
2799.49
2799.87
2800.22
2800.56
2800.87
2801.16
2801.44
2801.69
2801.93
2802.16
2802.38
2802.58
2802.78
2802.97
2803.15
2803.32
2803.48
2803.64
2803.79
2803.94
2804.08
2804.22
2804.35
2804.46
2804.58
2804.68
2804.76
2804.86
2804.94
2805.05
2805.12
2805.23
2805.28
2805.39
2805.43
2805.52
2805.57
2805.64
2805.69
2805.75
2798.57
2798.96
2799.34
2799.69
2800.02
2800.33
2800.63
2800.92
2801.19
2801.45
2801.7
2801.93
2802.15
2802.37
2802.57
2802.76
2802.94
2803.12
2803.28
2803.44
2803.59
2803.73
2803.87
2803.99
2804.12
2804.24
2804.34
2804.46
2804.55
2804.65
2804.72
2804.81
2804.88
2804.96
2805.03
2805.1
2805.17
2805.23
2805.3
2805.35
2805.41
2805.47
2798.41
2798.8
2799.16
2799.5
2799.83
2800.14
2800.44
2800.72
2800.99
2801.24
2801.48
2801.71
2801.93
2802.14
2802.33
2802.52
2802.7
2802.87
2803.03
2803.18
2803.32
2803.46
2803.59
2803.72
2803.84
2803.95
2804.06
2804.16
2804.26
2804.35
2804.44
2804.52
2804.6
2804.66
2804.75
2804.79
2804.88
2804.91
2805
2805.02
2805.11
2805.12
2798.13
2798.5
2798.86
2799.19
2799.51
2799.82
2800.11
2800.39
2800.65
2800.9
2801.14
2801.37
2801.59
2801.79
2801.99
2802.17
2802.35
2802.52
2802.69
2802.84
2802.99
2803.13
2803.26
2803.39
2803.51
2803.63
2803.73
2803.84
2803.94
2804.03
2804.12
2804.2
2804.29
2804.35
2804.44
2804.49
2804.57
2804.6
2804.68
2804.71
2804.78
2804.81
2797.75
2798.11
2798.45
2798.77
2799.09
2799.38
2799.66
2799.93
2800.18
2800.42
2800.65
2800.87
2801.08
2801.28
2801.47
2801.65
2801.82
2801.99
2802.14
2802.29
2802.44
2802.57
2802.7
2802.83
2802.94
2803.06
2803.16
2803.27
2803.37
2803.46
2803.55
2803.63
2803.72
2803.79
2803.87
2803.93
2804
2804.05
2804.12
2804.16
2804.22
2804.26
2797.38
2797.73
2798.07
2798.39
2798.69
2798.98
2799.25
2799.51
2799.76
2799.99
2800.22
2800.43
2800.64
2800.83
2801.02
2801.2
2801.37
2801.53
2801.69
2801.83
2801.98
2802.11
2802.24
2802.36
2802.48
2802.59
2802.69
2802.79
2802.89
2802.97
2803.06
2803.14
2803.23
2803.3
2803.37
2803.44
2803.51
2803.57
2803.62
2803.68
2803.73
2803.79
2797.09
2797.44
2797.78
2798.1
2798.4
2798.7
2798.97
2799.24
2799.49
2799.73
2799.96
2800.18
2800.39
2800.58
2800.76
2800.93
2801.1
2801.25
2801.39
2801.53
2801.66
2801.78
2801.89
2802
2802.11
2802.2
2802.3
2802.39
2802.47
2802.55
2802.62
2802.7
2802.76
2802.84
2802.89
2802.96
2803.01
2803.08
2803.12
2803.19
2803.23
2803.29
2796.86
2797.21
2797.54
2797.85
2798.14
2798.42
2798.68
2798.93
2799.17
2799.39
2799.6
2799.8
2799.99
2800.18
2800.35
2800.51
2800.67
2800.82
2800.97
2801.11
2801.24
2801.36
2801.48
2801.6
2801.71
2801.81
2801.91
2802
2802.09
2802.17
2802.25
2802.33
2802.4
2802.48
2802.53
2802.6
2802.65
2802.72
2802.76
2802.82
2802.86
2802.92
2796.55
2796.89
2797.2
2797.5
2797.79
2798.06
2798.32
2798.56
2798.8
2799.02
2799.23
2799.43
2799.63
2799.81
2799.98
2800.15
2800.31
2800.46
2800.6
2800.74
2800.87
2801
2801.12
2801.23
2801.34
2801.44
2801.54
2801.63
2801.72
2801.8
2801.88
2801.96
2802.03
2802.1
2802.16
2802.24
2802.28
2802.35
2802.39
2802.45
2802.49
2802.55
2796.21
2796.54
2796.85
2797.15
2797.43
2797.7
2797.96
2798.2
2798.44
2798.66
2798.87
2799.07
2799.26
2799.45
2799.62
2799.79
2799.94
2800.1
2800.24
2800.37
2800.5
2800.63
2800.75
2800.86
2800.96
2801.07
2801.16
2801.25
2801.34
2801.43
2801.51
2801.58
2801.65
2801.72
2801.79
2801.85
2801.91
2801.97
2802.02
2802.07
2802.13
2802.17
2795.82
2796.15
2796.46
2796.75
2797.03
2797.3
2797.56
2797.8
2798.03
2798.25
2798.46
2798.66
2798.85
2799.03
2799.2
2799.37
2799.53
2799.68
2799.82
2799.96
2800.09
2800.21
2800.33
2800.44
2800.55
2800.65
2800.75
2800.84
2800.93
2801.02
2801.1
2801.17
2801.25
2801.32
2801.38
2801.45
2801.51
2801.57
2801.62
2801.68
2801.73
2801.78
2795.43
2795.75
2796.05
2796.34
2796.62
2796.88
2797.13
2797.37
2797.59
2797.81
2798.02
2798.21
2798.4
2798.58
2798.74
2798.91
2799.06
2799.21
2799.35
2799.48
2799.61
2799.73
2799.84
2799.95
2800.06
2800.16
2800.25
2800.34
2800.43
2800.51
2800.59
2800.67
2800.74
2800.81
2800.87
2800.93
2800.99
2801.05
2801.1
2801.15
2801.2
2801.24
2795.02
2795.33
2795.63
2795.91
2796.18
2796.44
2796.68
2796.92
2797.14
2797.35
2797.55
2797.74
2797.92
2798.09
2798.26
2798.42
2798.57
2798.71
2798.84
2798.97
2799.1
2799.21
2799.33
2799.43
2799.53
2799.63
2799.72
2799.8
2799.89
2799.97
2800.04
2800.11
2800.18
2800.25
2800.3
2800.36
2800.42
2800.47
2800.52
2800.57
2800.61
2800.66
2794.61
2794.91
2795.2
2795.48
2795.75
2796
2796.23
2796.46
2796.68
2796.88
2797.08
2797.26
2797.44
2797.61
2797.77
2797.92
2798.06
2798.2
2798.33
2798.46
2798.58
2798.69
2798.79
2798.9
2798.99
2799.08
2799.17
2799.25
2799.33
2799.41
2799.48
2799.55
2799.61
2799.67
2799.73
2799.79
2799.84
2799.89
2799.93
2799.98
2800.02
2800.06
2794.18
2794.48
2794.76
2795.03
2795.28
2795.52
2795.75
2795.97
2796.18
2796.38
2796.57
2796.75
2796.92
2797.09
2797.24
2797.39
2797.53
2797.66
2797.79
2797.91
2798.03
2798.14
2798.24
2798.34
2798.44
2798.53
2798.62
2798.7
2798.78
2798.85
2798.92
2798.99
2799.05
2799.11
2799.17
2799.22
2799.28
2799.32
2799.38
2799.42
2799.47
2799.5
2793.75
2794.04
2794.31
2794.57
2794.81
2795.04
2795.27
2795.48
2795.68
2795.87
2796.05
2796.23
2796.39
2796.55
2796.7
2796.84
2796.98
2797.1
2797.23
2797.34
2797.46
2797.56
2797.66
2797.76
2797.85
2797.94
2798.02
2798.1
2798.18
2798.25
2798.32
2798.38
2798.44
2798.5
2798.56
2798.61
2798.66
2798.7
2798.76
2798.79
2798.85
2798.88
2793.36
2793.63
2793.89
2794.14
2794.37
2794.59
2794.8
2795
2795.19
2795.38
2795.55
2795.71
2795.87
2796.02
2796.16
2796.3
2796.42
2796.55
2796.66
2796.77
2796.88
2796.97
2797.08
2797.17
2797.26
2797.34
2797.42
2797.49
2797.57
2797.64
2797.7
2797.76
2797.82
2797.87
2797.93
2797.98
2798.04
2798.07
2798.13
2798.16
2798.21
2798.25
2793.01
2793.27
2793.51
2793.75
2793.97
2794.18
2794.39
2794.58
2794.76
2794.93
2795.1
2795.26
2795.41
2795.55
2795.68
2795.81
2795.94
2796.05
2796.16
2796.26
2796.37
2796.47
2796.56
2796.65
2796.73
2796.81
2796.88
2796.96
2797.02
2797.09
2797.15
2797.21
2797.27
2797.32
2797.37
2797.42
2797.47
2797.52
2797.56
2797.6
2797.64
2797.69
2792.7
2792.94
2793.18
2793.41
2793.63
2793.83
2794.03
2794.21
2794.39
2794.56
2794.72
2794.87
2795.02
2795.15
2795.28
2795.41
2795.53
2795.64
2795.75
2795.85
2795.95
2796.04
2796.13
2796.22
2796.3
2796.37
2796.45
2796.51
2796.58
2796.64
2796.7
2796.76
2796.82
2796.87
2796.91
2796.96
2797.01
2797.05
2797.09
2797.13
2797.17
2797.21
2792.44
2792.68
2792.91
2793.13
2793.34
2793.53
2793.73
2793.9
2794.08
2794.24
2794.4
2794.55
2794.69
2794.82
2794.95
2795.07
2795.18
2795.29
2795.4
2795.5
2795.59
2795.69
2795.77
2795.86
2795.93
2796.01
2796.08
2796.14
2796.21
2796.27
2796.33
2796.39
2796.44
2796.49
2796.53
2796.58
2796.62
2796.66
2796.7
2796.73
2796.78
2796.8
2792.24
2792.47
2792.69
2792.9
2793.1
2793.29
2793.48
2793.65
2793.82
2793.98
2794.13
2794.27
2794.4
2794.53
2794.66
2794.77
2794.89
2794.99
2795.09
2795.19
2795.28
2795.37
2795.45
2795.53
2795.61
2795.68
2795.75
2795.81
2795.87
2795.93
2795.99
2796.04
2796.09
2796.14
2796.19
2796.23
2796.27
2796.31
2796.35
2796.38
2796.42
2796.45
2792.11
2792.33
2792.54
2792.74
2792.94
2793.12
2793.3
2793.47
2793.62
2793.78
2793.92
2794.06
2794.19
2794.31
2794.43
2794.54
2794.65
2794.75
2794.85
2794.94
2795.03
2795.11
2795.19
2795.27
2795.34
2795.41
2795.47
2795.54
2795.59
2795.65
2795.7
2795.76
2795.81
2795.85
2795.9
2795.94
2795.98
2796.01
2796.05
2796.09
2796.12
2796.16
2792.05
2792.26
2792.47
2792.66
2792.85
2793.02
2793.19
2793.35
2793.5
2793.64
2793.78
2793.91
2794.03
2794.15
2794.26
2794.37
2794.47
2794.57
2794.66
2794.75
2794.83
2794.91
2794.99
2795.06
2795.13
2795.2
2795.26
2795.32
2795.37
2795.43
2795.48
2795.53
2795.58
2795.62
2795.66
2795.7
2795.74
2795.78
2795.81
2795.85
2795.88
2795.91
2792.05
2792.26
2792.45
2792.64
2792.81
2792.98
2793.14
2793.29
2793.44
2793.58
2793.71
2793.83
2793.95
2794.06
2794.17
2794.27
2794.37
2794.46
2794.55
2794.64
2794.72
2794.79
2794.87
2794.93
2795
2795.06
2795.12
2795.18
2795.23
2795.29
2795.33
2795.38
2795.43
2795.47
2795.51
2795.55
2795.58
2795.62
2795.65
2795.69
2795.71
2795.75
2792.07
2792.27
2792.45
2792.63
2792.8
2792.96
2793.12
2793.26
2793.4
2793.54
2793.66
2793.78
2793.9
2794.01
2794.11
2794.21
2794.3
2794.39
2794.48
2794.56
2794.64
2794.71
2794.78
2794.85
2794.91
2794.97
2795.03
2795.08
2795.14
2795.19
2795.23
2795.28
2795.32
2795.36
2795.4
2795.44
2795.47
2795.51
2795.54
2795.57
2795.6
2795.63
2792.05
2792.24
2792.42
2792.59
2792.75
2792.9
2793.05
2793.19
2793.33
2793.45
2793.58
2793.69
2793.8
2793.91
2794.01
2794.1
2794.19
2794.28
2794.36
2794.44
2794.52
2794.59
2794.66
2794.72
2794.79
2794.85
2794.9
2794.96
2795.01
2795.05
2795.1
2795.14
2795.18
2795.23
2795.27
2795.3
2795.34
2795.37
2795.4
2795.43
2795.46
2795.49
2791.97
2792.15
2792.32
2792.48
2792.64
2792.78
2792.92
2793.06
2793.18
2793.3
2793.42
2793.53
2793.64
2793.74
2793.83
2793.92
2794.01
2794.09
2794.17
2794.24
2794.31
2794.38
2794.45
2794.51
2794.57
2794.63
2794.68
2794.73
2794.78
2794.83
2794.87
2794.91
2794.95
2794.99
2795.03
2795.06
2795.09
2795.13
2795.16
2795.18
2795.21
2795.24
2791.87
2792.04
2792.2
2792.36
2792.5
2792.64
2792.78
2792.9
2793.03
2793.14
2793.25
2793.35
2793.45
2793.54
2793.63
2793.72
2793.8
2793.87
2793.94
2794.01
2794.07
2794.14
2794.2
2794.26
2794.31
2794.37
2794.42
2794.46
2794.51
2794.55
2794.59
2794.63
2794.66
2794.7
2794.74
2794.77
2794.8
2794.83
2794.85
2794.88
2794.91
2794.93
2791.71
2791.86
2792.01
2792.15
2792.28
2792.41
2792.53
2792.65
2792.76
2792.86
2792.97
2793.06
2793.16
2793.25
2793.33
2793.41
2793.49
2793.56
2793.63
2793.7
2793.76
2793.83
2793.89
2793.94
2794
2794.05
2794.1
2794.15
2794.19
2794.23
2794.27
2794.31
2794.35
2794.38
2794.42
2794.45
2794.48
2794.51
2794.54
2794.56
2794.59
2794.62
2791.53
2791.68
2791.82
2791.96
2792.1
2792.22
2792.34
2792.46
2792.57
2792.68
2792.78
2792.88
2792.97
2793.06
2793.14
2793.22
2793.3
2793.37
2793.44
2793.5
2793.56
2793.62
2793.68
2793.73
2793.78
2793.83
2793.88
2793.92
2793.96
2794
2794.04
2794.07
2794.11
2794.14
2794.17
2794.19
2794.23
2794.25
2794.28
2794.3
2794.33
2794.35
2791.4
2791.54
2791.68
2791.81
2791.94
2792.06
2792.17
2792.28
2792.38
2792.48
2792.57
2792.66
2792.74
2792.82
2792.9
2792.97
2793.04
2793.11
2793.17
2793.23
2793.29
2793.34
2793.4
2793.45
2793.5
2793.54
2793.58
2793.63
2793.67
2793.7
2793.74
2793.77
2793.81
2793.84
2793.87
2793.89
2793.92
2793.95
2793.97
2794
2794.02
2794.04
2791.3
2791.43
2791.56
2791.68
2791.8
2791.91
2792.01
2792.11
2792.21
2792.3
2792.39
2792.47
2792.55
2792.63
2792.7
2792.77
2792.84
2792.9
2792.96
2793.02
2793.08
2793.13
2793.18
2793.23
2793.27
2793.32
2793.36
2793.4
2793.44
2793.48
2793.51
2793.55
2793.58
2793.61
2793.64
2793.66
2793.69
2793.71
2793.74
2793.76
2793.78
2793.81
2791.08
2791.21
2791.33
2791.45
2791.56
2791.67
2791.77
2791.88
2791.97
2792.07
2792.16
2792.24
2792.33
2792.4
2792.48
2792.55
2792.62
2792.68
2792.74
2792.8
2792.86
2792.91
2792.96
2793.01
2793.05
2793.09
2793.13
2793.17
2793.21
2793.24
2793.28
2793.31
2793.34
2793.37
2793.39
2793.42
2793.44
2793.47
2793.49
2793.51
2793.53
2793.55
2790.86
2790.99
2791.12
2791.24
2791.36
2791.47
2791.58
2791.68
2791.77
2791.86
2791.95
2792.03
2792.1
2792.17
2792.24
2792.3
2792.36
2792.41
2792.46
2792.51
2792.56
2792.6
2792.64
2792.68
2792.71
2792.75
2792.78
2792.81
2792.84
2792.87
2792.9
2792.92
2792.95
2792.97
2792.99
2793.01
2793.03
2793.05
2793.07
2793.09
2793.1
2793.12
2790.49
2790.61
2790.72
2790.82
2790.92
2791.01
2791.09
2791.16
2791.24
2791.3
2791.37
2791.42
2791.48
2791.53
2791.58
2791.63
2791.68
2791.72
2791.76
2791.81
2791.85
2791.88
2791.92
2791.96
2791.99
2792.02
2792.06
2792.09
2792.12
2792.14
2792.17
2792.2
2792.22
2792.25
2792.27
2792.29
2792.31
2792.33
2792.35
2792.37
2792.39
2792.41
2790.08
2790.16
2790.25
2790.32
2790.39
2790.45
2790.51
2790.56
2790.61
2790.66
2790.7
2790.74
2790.78
2790.82
2790.86
2790.9
2790.94
2790.98
2791.01
2791.04
2791.08
2791.11
2791.14
2791.17
2791.2
2791.23
2791.25
2791.28
2791.3
2791.33
2791.35
2791.38
2791.4
2791.42
2791.44
2791.46
2791.47
2791.49
2791.51
2791.53
2791.54
2791.56
2789.43
2789.5
2789.57
2789.63
2789.69
2789.75
2789.8
2789.85
2789.9
2789.95
2789.99
2790.03
2790.07
2790.11
2790.14
2790.17
2790.21
2790.23
2790.26
2790.29
2790.31
2790.34
2790.36
2790.38
2790.4
2790.42
2790.44
2790.46
2790.47
2790.49
2790.5
2790.52
2790.53
2790.54
2790.56
2790.57
2790.58
2790.59
2790.6
2790.61
2790.62
2790.63
2788.9
2788.94
2788.97
2789
2789.03
2789.05
2789.07
2789.09
2789.1
2789.11
2789.12
2789.13
2789.14
2789.15
2789.16
2789.17
2789.18
2789.19
2789.2
2789.21
2789.22
2789.22
2789.23
2789.24
2789.25
2789.25
2789.26
2789.27
2789.27
2789.28
2789.28
2789.28
2789.29
2789.29
2789.3
2789.3
2789.3
2789.3
2789.3
2789.31
2789.31
2789.31
2788.52
2788.53
2788.54
2788.55
2788.56
2788.57
2788.59
2788.6
2788.61
2788.62
2788.64
2788.65
2788.67
2788.68
2788.7
2788.71
2788.73
2788.74
2788.75
2788.76
2788.77
2788.78
2788.79
2788.79
2788.8
2788.8
2788.81
2788.81
2788.81
2788.81
2788.81
2788.81
2788.81
2788.81
2788.81
2788.81
2788.81
2788.81
2788.81
2788.81
2788.81
2788.81
2788.38
2788.39
2788.4
2788.41
2788.42
2788.43
2788.44
2788.45
2788.47
2788.48
2788.49
2788.5
2788.51
2788.52
2788.53
2788.54
2788.54
2788.53
2788.53
2788.52
2788.52
2788.51
2788.5
2788.49
2788.48
2788.47
2788.45
2788.44
2788.43
2788.42
2788.41
2788.4
2788.38
2788.37
2788.36
2788.35
2788.34
2788.34
2788.33
2788.32
2788.31
2788.3
2788.59
2788.6
2788.59
2788.59
2788.58
2788.57
2788.57
2788.56
2788.56
2788.56
2788.55
2788.54
2788.54
2788.53
2788.52
2788.51
2788.49
2788.48
2788.46
2788.45
2788.44
2788.42
2788.41
2788.4
2788.39
2788.38
2788.37
2788.36
2788.35
2788.34
2788.33
2788.32
2788.32
2788.31
2788.3
2788.3
2788.29
2788.28
2788.28
2788.27
2788.27
2788.26
2789.03
2789.02
2789.01
2789
2788.99
2788.98
2788.98
2788.98
2788.98
2788.98
2788.99
2788.99
2788.99
2788.99
2788.99
2788.99
2788.99
2788.99
2788.99
2788.99
2789
2789
2789
2789
2789.01
2789.01
2789.01
2789.01
2789.01
2789.01
2789.01
2789
2789
2789
2789
2788.99
2788.99
2788.99
2788.98
2788.98
2788.98
2788.97
2789.75
2789.77
2789.8
2789.82
2789.85
2789.87
2789.9
2789.92
2789.94
2789.95
2789.96
2789.97
2789.97
2789.97
2789.96
2789.96
2789.96
2789.95
2789.95
2789.94
2789.94
2789.93
2789.93
2789.92
2789.92
2789.91
2789.9
2789.9
2789.89
2789.89
2789.88
2789.87
2789.87
2789.86
2789.86
2789.85
2789.85
2789.84
2789.83
2789.83
2789.82
2789.82
2790.73
2790.79
2790.84
2790.89
2790.93
2790.97
2791
2791.02
2791.04
2791.05
2791.05
2791.06
2791.05
2791.05
2791.05
2791.04
2791.04
2791.03
2791.03
2791.02
2791.02
2791.02
2791.02
2791.01
2791.01
2791.01
2791.01
2791.01
2791.01
2791.01
2791.02
2791.02
2791.02
2791.02
2791.02
2791.02
2791.03
2791.03
2791.03
2791.03
2791.03
2791.04
2791.76
2791.82
2791.88
2791.93
2791.98
2792.02
2792.05
2792.08
2792.11
2792.13
2792.15
2792.17
2792.18
2792.2
2792.21
2792.22
2792.23
2792.25
2792.26
2792.27
2792.28
2792.29
2792.3
2792.31
2792.33
2792.33
2792.34
2792.36
2792.36
2792.37
2792.38
2792.39
2792.4
2792.41
2792.41
2792.42
2792.43
2792.44
2792.44
2792.45
2792.46
2792.46
2792.76
2792.82
2792.88
2792.94
2792.99
2793.04
2793.09
2793.14
2793.18
2793.22
2793.26
2793.29
2793.33
2793.36
2793.39
2793.42
2793.45
2793.48
2793.5
2793.53
2793.55
2793.58
2793.59
2793.61
2793.64
2793.65
2793.66
2793.69
2793.69
2793.71
2793.73
2793.73
2793.75
2793.76
2793.77
2793.78
2793.79
2793.8
2793.81
2793.82
2793.82
2793.83
2793.75
2793.81
2793.88
2793.94
2794
2794.06
2794.12
2794.17
2794.23
2794.28
2794.33
2794.38
2794.42
2794.46
2794.51
2794.55
2794.58
2794.62
2794.65
2794.68
2794.71
2794.74
2794.77
2794.79
2794.82
2794.84
2794.86
2794.88
2794.9
2794.92
2794.93
2794.95
2794.96
2794.98
2794.99
2795.01
2795.02
2795.03
2795.04
2795.05
2795.06
2795.07
2794.67
2794.75
2794.82
2794.89
2794.96
2795.03
2795.09
2795.15
2795.21
2795.27
2795.32
2795.37
2795.42
2795.47
2795.52
2795.56
2795.6
2795.64
2795.68
2795.71
2795.75
2795.78
2795.81
2795.84
2795.87
2795.89
2795.92
2795.94
2795.96
2795.98
2796
2796.02
2796.04
2796.05
2796.07
2796.09
2796.1
2796.11
2796.13
2796.14
2796.15
2796.16
2795.52
2795.61
2795.69
2795.76
2795.84
2795.91
2795.98
2796.04
2796.1
2796.16
2796.22
2796.27
2796.33
2796.38
2796.43
2796.47
2796.51
2796.56
2796.59
2796.63
2796.67
2796.7
2796.73
2796.76
2796.79
2796.82
2796.85
2796.87
2796.9
2796.92
2796.94
2796.96
2796.98
2797
2797.02
2797.03
2797.05
2797.06
2797.08
2797.09
2797.1
2797.12
2796.28
2796.37
2796.45
2796.53
2796.61
2796.68
2796.76
2796.82
2796.89
2796.95
2797.01
2797.07
2797.12
2797.17
2797.22
2797.27
2797.31
2797.36
2797.4
2797.44
2797.47
2797.51
2797.54
2797.57
2797.6
2797.63
2797.66
2797.69
2797.71
2797.74
2797.76
2797.78
2797.8
2797.82
2797.84
2797.86
2797.87
2797.89
2797.9
2797.92
2797.93
2797.95
2796.94
2797.03
2797.12
2797.2
2797.28
2797.36
2797.43
2797.5
2797.57
2797.64
2797.7
2797.76
2797.81
2797.86
2797.91
2797.96
2798.01
2798.05
2798.09
2798.13
2798.17
2798.21
2798.24
2798.27
2798.31
2798.34
2798.36
2798.39
2798.42
2798.44
2798.46
2798.49
2798.51
2798.53
2798.55
2798.56
2798.58
2798.6
2798.61
2798.63
2798.64
2798.66
2797.51
2797.61
2797.7
2797.78
2797.86
2797.94
2798.02
2798.09
2798.16
2798.22
2798.28
2798.34
2798.4
2798.45
2798.5
2798.55
2798.6
2798.64
2798.69
2798.73
2798.76
2798.8
2798.84
2798.87
2798.9
2798.93
2798.96
2798.99
2799.01
2799.04
2799.06
2799.08
2799.11
2799.13
2799.15
2799.16
2799.18
2799.2
2799.21
2799.23
2799.25
2799.26
2798.01
2798.11
2798.2
2798.29
2798.37
2798.45
2798.52
2798.6
2798.66
2798.73
2798.79
2798.85
2798.91
2798.96
2799.01
2799.06
2799.11
2799.15
2799.2
2799.24
2799.28
2799.31
2799.35
2799.38
2799.41
2799.44
2799.47
2799.5
2799.53
2799.55
2799.57
2799.6
2799.62
2799.64
2799.66
2799.68
2799.69
2799.71
2799.73
2799.74
2799.76
2799.77
2798.46
2798.56
2798.65
2798.74
2798.82
2798.9
2798.97
2799.04
2799.11
2799.18
2799.24
2799.3
2799.36
2799.41
2799.46
2799.51
2799.56
2799.6
2799.64
2799.69
2799.72
2799.76
2799.79
2799.83
2799.86
2799.89
2799.92
2799.95
2799.97
2800
2800.02
2800.04
2800.06
2800.08
2800.1
2800.12
2800.14
2800.16
2800.17
2800.19
2800.2
2800.22
2798.87
2798.97
2799.06
2799.14
2799.23
2799.31
2799.38
2799.45
2799.52
2799.58
2799.65
2799.71
2799.76
2799.82
2799.87
2799.92
2799.96
2800.01
2800.05
2800.09
2800.13
2800.16
2800.2
2800.23
2800.26
2800.29
2800.32
2800.35
2800.37
2800.4
2800.42
2800.44
2800.46
2800.49
2800.5
2800.52
2800.54
2800.56
2800.57
2800.59
2800.6
2800.62
2799.25
2799.34
2799.43
2799.52
2799.6
2799.68
2799.75
2799.82
2799.89
2799.95
2800.02
2800.07
2800.13
2800.18
2800.23
2800.28
2800.33
2800.37
2800.41
2800.45
2800.49
2800.53
2800.56
2800.59
2800.63
2800.66
2800.68
2800.71
2800.74
2800.76
2800.78
2800.81
2800.83
2800.85
2800.87
2800.88
2800.9
2800.92
2800.93
2800.95
2800.96
2800.98
2799.58
2799.67
2799.76
2799.85
2799.93
2800
2800.08
2800.15
2800.21
2800.28
2800.34
2800.4
2800.45
2800.5
2800.55
2800.6
2800.65
2800.69
2800.73
2800.77
2800.81
2800.84
2800.88
2800.91
2800.94
2800.97
2801
2801.03
2801.05
2801.07
2801.1
2801.12
2801.14
2801.16
2801.18
2801.2
2801.21
2801.23
2801.25
2801.26
2801.28
2801.29
2799.86
2799.95
2800.04
2800.12
2800.2
2800.27
2800.35
2800.42
2800.48
2800.54
2800.6
2800.66
2800.72
2800.77
2800.82
2800.86
2800.91
2800.95
2800.99
2801.03
2801.07
2801.11
2801.14
2801.17
2801.2
2801.23
2801.26
2801.28
2801.31
2801.33
2801.36
2801.38
2801.4
2801.42
2801.44
2801.46
2801.47
2801.49
2801.5
2801.52
2801.53
2801.55
2800.1
2800.19
2800.27
2800.36
2800.43
2800.51
2800.58
2800.65
2800.71
2800.77
2800.83
2800.89
2800.94
2800.99
2801.04
2801.09
2801.13
2801.18
2801.22
2801.25
2801.29
2801.33
2801.36
2801.39
2801.42
2801.45
2801.48
2801.5
2801.53
2801.55
2801.57
2801.6
2801.62
2801.63
2801.65
2801.67
2801.69
2801.7
2801.72
2801.73
2801.75
2801.76
2800.35
2800.44
2800.52
2800.6
2800.68
2800.75
2800.82
2800.88
2800.95
2801.01
2801.07
2801.12
2801.17
2801.22
2801.27
2801.32
2801.36
2801.4
2801.44
2801.48
2801.52
2801.55
2801.58
2801.62
2801.65
2801.67
2801.7
2801.73
2801.75
2801.77
2801.8
2801.82
2801.84
2801.86
2801.87
2801.89
2801.91
2801.92
2801.94
2801.95
2801.97
2801.98
2800.64
2800.72
2800.8
2800.88
2800.96
2801.03
2801.1
2801.16
2801.22
2801.28
2801.34
2801.39
2801.45
2801.5
2801.54
2801.59
2801.63
2801.67
2801.71
2801.75
2801.78
2801.82
2801.85
2801.88
2801.91
2801.94
2801.96
2801.99
2802.01
2802.04
2802.06
2802.08
2802.1
2802.12
2802.14
2802.15
2802.17
2802.19
2802.2
2802.21
2802.23
2802.24
2800.95
2801.04
2801.12
2801.2
2801.27
2801.34
2801.41
2801.47
2801.53
2801.59
2801.65
2801.7
2801.75
2801.8
2801.85
2801.89
2801.94
2801.98
2802.01
2802.05
2802.09
2802.12
2802.15
2802.18
2802.21
2802.24
2802.26
2802.29
2802.31
2802.33
2802.36
2802.38
2802.4
2802.41
2802.43
2802.45
2802.47
2802.48
2802.5
2802.51
2802.52
2802.54
2801.26
2801.35
2801.43
2801.5
2801.57
2801.64
2801.71
2801.77
2801.83
2801.89
2801.95
2802
2802.05
2802.1
2802.14
2802.19
2802.23
2802.27
2802.31
2802.34
2802.38
2802.41
2802.44
2802.47
2802.5
2802.53
2802.55
2802.58
2802.6
2802.62
2802.64
2802.66
2802.68
2802.7
2802.72
2802.74
2802.75
2802.77
2802.78
2802.79
2802.81
2802.82
2801.53
2801.62
2801.69
2801.77
2801.84
2801.91
2801.97
2802.04
2802.1
2802.15
2802.21
2802.26
2802.31
2802.35
2802.4
2802.44
2802.48
2802.52
2802.56
2802.59
2802.63
2802.66
2802.69
2802.72
2802.75
2802.77
2802.8
2802.82
2802.84
2802.87
2802.89
2802.91
2802.93
2802.94
2802.96
2802.98
2802.99
2803.01
2803.02
2803.03
2803.05
2803.06
2801.78
2801.86
2801.94
2802.01
2802.08
2802.14
2802.21
2802.27
2802.33
2802.38
2802.44
2802.49
2802.53
2802.58
2802.62
2802.66
2802.7
2802.74
2802.78
2802.81
2802.84
2802.88
2802.91
2802.93
2802.96
2802.99
2803.01
2803.03
2803.05
2803.08
2803.1
2803.11
2803.13
2803.15
2803.17
2803.18
2803.2
2803.21
2803.22
2803.24
2803.25
2803.26
2802.04
2802.11
2802.19
2802.26
2802.33
2802.39
2802.45
2802.51
2802.57
2802.62
2802.67
2802.72
2802.77
2802.81
2802.86
2802.9
2802.93
2802.97
2803
2803.04
2803.07
2803.1
2803.13
2803.15
2803.18
2803.2
2803.23
2803.25
2803.27
2803.29
2803.31
2803.33
2803.35
2803.36
2803.38
2803.39
2803.41
2803.42
2803.43
2803.45
2803.46
2803.47
2802.32
2802.4
2802.47
2802.54
2802.61
2802.67
2802.73
2802.79
2802.84
2802.89
2802.94
2802.99
2803.03
2803.08
2803.12
2803.16
2803.19
2803.23
2803.26
2803.29
2803.32
2803.35
2803.38
2803.41
2803.43
2803.45
2803.48
2803.5
2803.52
2803.54
2803.56
2803.57
2803.59
2803.61
2803.62
2803.63
2803.65
2803.66
2803.67
2803.68
2803.7
2803.71
2802.61
2802.68
2802.75
2802.82
2802.89
2802.95
2803.01
2803.06
2803.12
2803.17
2803.22
2803.26
2803.31
2803.35
2803.39
2803.42
2803.46
2803.49
2803.53
2803.56
2803.59
2803.61
2803.64
2803.66
2803.69
2803.71
2803.73
2803.75
2803.77
2803.79
2803.81
2803.83
2803.84
2803.86
2803.87
2803.88
2803.9
2803.91
2803.92
2803.93
2803.94
2803.96
2802.84
2802.91
2802.98
2803.05
2803.12
2803.18
2803.23
2803.29
2803.34
2803.39
2803.44
2803.48
2803.53
2803.57
2803.61
2803.64
2803.68
2803.71
2803.74
2803.77
2803.8
2803.83
2803.85
2803.88
2803.9
2803.92
2803.94
2803.96
2803.98
2804
2804.02
2804.03
2804.05
2804.07
2804.08
2804.09
2804.11
2804.12
2804.13
2804.14
2804.15
2804.16
2802.99
2803.07
2803.14
2803.2
2803.27
2803.33
2803.38
2803.44
2803.49
2803.54
2803.59
2803.63
2803.67
2803.71
2803.75
2803.79
2803.82
2803.85
2803.89
2803.91
2803.94
2803.97
2803.99
2804.02
2804.04
2804.06
2804.08
2804.1
2804.12
2804.14
2804.16
2804.17
2804.19
2804.2
2804.22
2804.23
2804.24
2804.25
2804.26
2804.28
2804.29
2804.3
2803.1
2803.17
2803.24
2803.31
2803.37
2803.43
2803.48
2803.54
2803.59
2803.64
2803.68
2803.73
2803.77
2803.81
2803.84
2803.88
2803.91
2803.94
2803.98
2804
2804.03
2804.06
2804.08
2804.11
2804.13
2804.15
2804.17
2804.19
2804.21
2804.23
2804.24
2804.26
2804.27
2804.29
2804.3
2804.31
2804.33
2804.34
2804.35
2804.36
2804.37
2804.38
2803.21
2803.28
2803.34
2803.41
2803.47
2803.52
2803.58
2803.63
2803.68
2803.73
2803.77
2803.81
2803.86
2803.89
2803.93
2803.96
2804
2804.03
2804.06
2804.09
2804.11
2804.14
2804.16
2804.19
2804.21
2804.23
2804.25
2804.27
2804.29
2804.3
2804.32
2804.33
2804.35
2804.36
2804.38
2804.39
2804.4
2804.41
2804.42
2804.43
2804.44
2804.45
2803.34
2803.41
2803.47
2803.54
2803.59
2803.65
2803.7
2803.75
2803.8
2803.84
2803.89
2803.93
2803.96
2804
2804.04
2804.07
2804.1
2804.13
2804.16
2804.19
2804.21
2804.24
2804.26
2804.28
2804.3
2804.32
2804.34
2804.36
2804.38
2804.39
2804.41
2804.42
2804.44
2804.45
2804.47
2804.48
2804.49
2804.5
2804.51
2804.52