/*--------------------------------*- C++ -*----------------------------------*\
| =========                 |                                                 |
| \\      /  F ield         | OpenFOAM: The Open Source CFD Toolbox           |
|  \\    /   O peration     | Version:  2412                                  |
|   \\  /    A nd           | Website:  www.openfoam.com                      |
|    \\/     M anipulation  |                                                 |
\*---------------------------------------------------------------------------*/
FoamFile
{
    version     2.0;
    format      ascii;
    arch        "LSB;label=32;scalar=64";
    class       volScalarField;
    location    "0.114";
    object      rho;
}
// * * * * * * * * * * * * * * * * * * * * * * * * * * * * * * * * * * * * * //

dimensions      [1 -3 0 0 0 0 0];

internalField   nonuniform List<scalar> 
9816
(
0.0439804
0.0439841
0.0439864
0.0439877
0.0439878
0.0439866
0.0439848
0.0439819
0.0439782
0.0439736
0.0439682
0.043962
0.0439551
0.0439476
0.0439396
0.0439311
0.0439222
0.0439124
0.0439044
0.0438952
0.0438871
0.0438788
0.043871
0.0438631
0.0438554
0.0438469
0.0438374
0.0438255
0.0438113
0.043795
0.0437764
0.0437521
0.0437167
0.0436697
0.0436085
0.0435395
0.0434605
0.0433799
0.0432914
0.0432067
0.0431177
0.043048
0.0432503
0.0432407
0.0432307
0.0432204
0.0432102
0.0431995
0.0431891
0.0431786
0.043168
0.0431573
0.0431467
0.043136
0.0431255
0.043115
0.0431052
0.0430957
0.0430877
0.0430804
0.0430743
0.043069
0.0430641
0.0430592
0.0430532
0.0430455
0.0430369
0.043026
0.0430105
0.0429829
0.0429421
0.0428857
0.042819
0.0427434
0.0426666
0.0425899
0.0425192
0.0424532
0.0423968
0.0423498
0.0423164
0.0422936
0.0422817
0.0422719
0.0429192
0.0429105
0.0429021
0.0428937
0.0428856
0.0428776
0.0428699
0.0428623
0.0428548
0.0428474
0.0428403
0.0428335
0.0428273
0.0428216
0.0428169
0.042813
0.0428097
0.0428067
0.0428035
0.0427993
0.0427941
0.042788
0.0427808
0.0427677
0.0427482
0.0427173
0.042676
0.0426218
0.0425589
0.0424868
0.0424113
0.0423337
0.0422625
0.042206
0.0421593
0.0421176
0.042102
0.0421018
0.0420974
0.0420886
0.042086
0.0420882
0.0427245
0.0427181
0.0427124
0.0427064
0.0427006
0.0426948
0.0426891
0.0426834
0.0426779
0.0426725
0.0426676
0.0426631
0.0426594
0.0426563
0.0426539
0.042652
0.04265
0.0426472
0.0426434
0.0426387
0.0426329
0.0426245
0.0426112
0.0425899
0.0425583
0.0425139
0.0424569
0.0423888
0.0423136
0.0422358
0.0421597
0.0420969
0.0420521
0.0420101
0.0419831
0.0419828
0.0419856
0.0419821
0.0419749
0.041972
0.0419744
0.0419828
0.0425974
0.0425923
0.0425877
0.0425831
0.0425786
0.0425743
0.04257
0.0425658
0.0425619
0.0425583
0.0425551
0.0425527
0.0425508
0.0425497
0.0425488
0.0425477
0.0425457
0.0425428
0.0425393
0.042535
0.0425281
0.0425168
0.0424982
0.0424699
0.0424296
0.0423766
0.0423121
0.0422385
0.0421623
0.0420899
0.042024
0.0419753
0.0419525
0.0419315
0.0419107
0.0419074
0.041911
0.0419157
0.0419176
0.0419189
0.0419191
0.0419219
0.0425127
0.0425094
0.0425061
0.0425028
0.0424996
0.0424963
0.0424932
0.0424902
0.0424874
0.042485
0.0424834
0.0424821
0.0424813
0.0424806
0.0424799
0.0424784
0.0424762
0.0424735
0.0424697
0.0424639
0.042454
0.0424382
0.0424137
0.0423785
0.0423311
0.0422723
0.0422034
0.0421303
0.0420594
0.0419965
0.0419428
0.0419136
0.0419011
0.0418837
0.0418689
0.0418686
0.0418717
0.0418763
0.0418789
0.0418796
0.0418793
0.0418808
0.0424543
0.0424513
0.0424484
0.0424454
0.0424425
0.0424398
0.0424371
0.0424348
0.0424328
0.0424311
0.0424303
0.0424295
0.0424288
0.042428
0.0424267
0.0424248
0.0424226
0.0424195
0.0424144
0.0424061
0.0423922
0.0423708
0.0423395
0.0422972
0.0422434
0.0421803
0.0421111
0.0420426
0.0419815
0.0419289
0.0418881
0.0418705
0.0418634
0.0418502
0.0418386
0.0418377
0.0418395
0.0418436
0.0418467
0.0418481
0.0418493
0.041851
0.0424034
0.0424013
0.0423993
0.0423974
0.0423955
0.0423937
0.042392
0.0423905
0.0423894
0.0423886
0.042388
0.0423875
0.0423869
0.0423858
0.0423843
0.0423825
0.04238
0.042376
0.0423693
0.0423583
0.0423408
0.0423147
0.0422784
0.0422311
0.0421742
0.0421103
0.0420443
0.0419825
0.0419288
0.0418832
0.0418573
0.0418476
0.0418344
0.041821
0.0418188
0.0418195
0.0418233
0.0418254
0.0418253
0.0418246
0.0418244
0.0418262
0.0423705
0.0423689
0.0423672
0.0423656
0.0423639
0.0423624
0.0423612
0.0423602
0.0423594
0.0423589
0.0423585
0.0423579
0.0423571
0.0423558
0.0423543
0.0423524
0.0423497
0.042345
0.0423373
0.0423245
0.0423052
0.0422769
0.0422391
0.0421909
0.0421343
0.0420716
0.042008
0.041949
0.0419004
0.0418607
0.0418335
0.0418235
0.041819
0.0418098
0.0418025
0.0418019
0.0418031
0.0418063
0.0418085
0.0418095
0.0418103
0.041812
0.0423388
0.0423372
0.042336
0.0423347
0.0423336
0.0423325
0.0423316
0.042331
0.0423305
0.0423302
0.04233
0.0423296
0.0423288
0.0423278
0.0423266
0.0423249
0.0423221
0.0423174
0.0423094
0.0422965
0.0422768
0.0422488
0.0422111
0.0421642
0.0421094
0.0420502
0.0419901
0.0419344
0.0418873
0.0418514
0.0418227
0.0418058
0.0418019
0.0418002
0.0417938
0.0417879
0.0417872
0.041788
0.0417909
0.0417937
0.0417958
0.0417978
0.0423127
0.0423119
0.0423111
0.0423102
0.0423094
0.0423087
0.0423081
0.0423079
0.0423077
0.0423078
0.0423077
0.0423077
0.0423071
0.0423064
0.0423055
0.042304
0.0423015
0.0422969
0.0422892
0.0422769
0.0422584
0.042232
0.042197
0.0421533
0.0421024
0.0420468
0.0419903
0.0419367
0.0418899
0.0418511
0.0418227
0.0418058
0.0417949
0.0417855
0.0417826
0.0417842
0.0417854
0.0417845
0.0417819
0.041781
0.0417812
0.0417833
0.0422889
0.0422881
0.0422873
0.0422865
0.0422859
0.0422855
0.0422852
0.0422853
0.0422853
0.0422855
0.0422856
0.0422855
0.0422851
0.0422845
0.0422838
0.0422823
0.0422799
0.0422753
0.0422679
0.0422557
0.042238
0.0422128
0.0421801
0.042139
0.0420915
0.042039
0.0419853
0.0419332
0.041887
0.041848
0.0418175
0.0417982
0.0417884
0.0417788
0.0417716
0.0417713
0.0417738
0.041775
0.0417744
0.0417718
0.0417705
0.0417703
0.0422649
0.0422645
0.042264
0.0422636
0.0422632
0.0422629
0.0422627
0.0422627
0.0422628
0.0422629
0.042263
0.0422628
0.0422624
0.0422618
0.0422609
0.0422593
0.0422565
0.0422516
0.0422434
0.0422309
0.0422124
0.0421872
0.0421543
0.0421143
0.042068
0.0420177
0.0419661
0.0419165
0.041872
0.041834
0.0418047
0.0417861
0.0417745
0.0417636
0.0417584
0.0417599
0.041762
0.0417617
0.0417591
0.0417554
0.0417551
0.0417558
0.0422402
0.0422399
0.0422396
0.0422393
0.0422391
0.0422392
0.0422393
0.0422395
0.0422398
0.04224
0.0422401
0.0422399
0.0422397
0.0422393
0.0422383
0.0422366
0.0422331
0.0422275
0.0422181
0.0422044
0.0421843
0.0421581
0.042124
0.0420839
0.0420377
0.0419887
0.0419389
0.0418916
0.0418492
0.0418142
0.0417882
0.0417681
0.0417548
0.0417509
0.0417505
0.0417472
0.0417421
0.0417408
0.0417407
0.0417423
0.0417445
0.0417456
0.0422151
0.0422149
0.0422147
0.0422145
0.0422144
0.0422144
0.0422145
0.0422146
0.0422147
0.0422148
0.0422148
0.0422147
0.0422145
0.042214
0.042213
0.0422107
0.0422069
0.0422001
0.04219
0.0421745
0.0421536
0.0421256
0.0420913
0.0420501
0.0420048
0.0419562
0.0419083
0.0418627
0.0418234
0.0417906
0.0417651
0.041748
0.0417399
0.0417332
0.041727
0.0417254
0.0417267
0.0417282
0.0417278
0.0417266
0.0417251
0.0417242
0.0421888
0.0421888
0.0421888
0.0421888
0.0421888
0.042189
0.0421891
0.0421893
0.0421894
0.0421895
0.0421895
0.0421893
0.0421891
0.0421885
0.0421872
0.0421845
0.04218
0.0421726
0.0421612
0.042145
0.0421226
0.0420939
0.0420586
0.0420175
0.0419723
0.0419249
0.0418784
0.0418347
0.0417972
0.041766
0.0417419
0.0417266
0.0417192
0.041712
0.0417062
0.0417054
0.0417072
0.0417089
0.0417081
0.0417064
0.0417045
0.0417038
0.0421627
0.0421627
0.0421628
0.0421629
0.042163
0.0421631
0.0421633
0.0421634
0.0421634
0.0421634
0.0421634
0.0421633
0.0421629
0.0421622
0.0421606
0.0421578
0.0421529
0.0421451
0.0421333
0.0421166
0.042094
0.0420652
0.0420302
0.0419898
0.0419458
0.0418999
0.041855
0.0418131
0.0417769
0.0417465
0.0417232
0.0417081
0.0416996
0.0416916
0.0416868
0.0416872
0.0416892
0.0416894
0.0416879
0.0416851
0.0416841
0.0416841
0.0421381
0.0421382
0.0421382
0.0421383
0.0421384
0.0421386
0.0421387
0.0421388
0.0421389
0.0421388
0.0421389
0.0421387
0.0421384
0.0421374
0.0421359
0.0421327
0.0421277
0.0421197
0.0421079
0.0420913
0.0420692
0.0420413
0.0420073
0.0419686
0.0419259
0.0418818
0.0418381
0.0417974
0.0417612
0.041731
0.0417076
0.0416917
0.0416804
0.0416719
0.0416691
0.0416701
0.0416702
0.0416678
0.0416653
0.0416646
0.0416645
0.0416657
0.042115
0.042115
0.0421151
0.0421151
0.0421152
0.0421153
0.0421153
0.0421152
0.0421153
0.0421149
0.0421147
0.0421143
0.0421137
0.0421127
0.0421109
0.0421079
0.0421029
0.0420953
0.0420839
0.0420682
0.042047
0.0420204
0.0419881
0.0419512
0.0419103
0.0418679
0.0418252
0.0417852
0.041749
0.0417185
0.0416939
0.0416769
0.0416649
0.0416558
0.0416516
0.0416521
0.0416528
0.0416508
0.0416479
0.0416469
0.0416467
0.0416476
0.042093
0.0420929
0.0420928
0.0420926
0.0420926
0.0420923
0.0420922
0.042092
0.0420919
0.0420917
0.0420915
0.0420913
0.0420907
0.0420897
0.0420879
0.0420848
0.0420798
0.0420722
0.0420611
0.0420459
0.0420256
0.0420002
0.0419692
0.0419337
0.0418942
0.0418531
0.0418113
0.0417719
0.041736
0.0417054
0.0416804
0.0416627
0.0416501
0.0416407
0.0416358
0.0416358
0.0416364
0.0416346
0.0416317
0.0416305
0.0416304
0.0416311
0.0420715
0.0420712
0.042071
0.0420708
0.0420706
0.0420705
0.0420704
0.0420702
0.04207
0.0420697
0.0420694
0.042069
0.0420683
0.0420671
0.042065
0.0420617
0.0420563
0.0420484
0.042037
0.0420215
0.0420011
0.0419757
0.0419451
0.0419102
0.0418717
0.0418314
0.041791
0.0417526
0.0417178
0.0416882
0.0416641
0.0416461
0.0416344
0.0416275
0.0416214
0.041618
0.0416184
0.0416196
0.0416194
0.0416179
0.0416155
0.0416149
0.0420518
0.0420514
0.042051
0.0420507
0.0420504
0.0420501
0.0420499
0.0420496
0.0420492
0.0420488
0.0420484
0.0420478
0.0420468
0.0420453
0.0420429
0.0420389
0.0420329
0.0420241
0.0420118
0.0419952
0.0419737
0.0419472
0.0419159
0.0418804
0.041842
0.0418025
0.0417634
0.0417269
0.0416942
0.0416668
0.0416451
0.0416295
0.0416177
0.0416104
0.0416083
0.0416078
0.0416055
0.0416027
0.0416021
0.041602
0.0416028
0.0416035
0.0420318
0.0420312
0.0420307
0.0420303
0.0420299
0.0420296
0.0420292
0.0420289
0.0420284
0.042028
0.0420274
0.0420267
0.0420256
0.0420238
0.0420209
0.0420163
0.0420095
0.0419997
0.0419862
0.0419683
0.0419457
0.041918
0.0418859
0.0418499
0.0418117
0.0417726
0.0417348
0.0416998
0.0416693
0.0416443
0.0416249
0.0416103
0.0416013
0.0415976
0.0415946
0.0415909
0.0415892
0.0415895
0.0415902
0.0415907
0.0415901
0.0415888
0.0420127
0.0420121
0.0420116
0.0420112
0.0420109
0.0420105
0.0420101
0.0420096
0.0420091
0.0420085
0.0420079
0.0420069
0.0420056
0.0420034
0.042
0.0419948
0.0419873
0.0419765
0.0419621
0.041943
0.0419195
0.0418908
0.0418581
0.0418217
0.0417837
0.0417452
0.0417085
0.0416748
0.041646
0.0416225
0.0416046
0.0415912
0.0415842
0.0415812
0.0415775
0.0415739
0.0415733
0.041574
0.041575
0.0415749
0.0415739
0.0415723
0.0419944
0.0419938
0.0419932
0.0419927
0.0419922
0.0419917
0.0419912
0.0419906
0.0419899
0.0419892
0.0419884
0.0419873
0.0419858
0.0419833
0.0419797
0.0419741
0.0419662
0.041955
0.0419401
0.0419208
0.0418969
0.0418684
0.0418358
0.0418003
0.0417629
0.0417257
0.04169
0.0416578
0.0416297
0.041607
0.0415896
0.0415773
0.0415683
0.0415638
0.0415625
0.0415609
0.0415584
0.0415573
0.0415571
0.0415574
0.0415579
0.0415578
0.0419762
0.0419755
0.0419749
0.0419744
0.0419739
0.0419734
0.0419729
0.0419724
0.0419717
0.0419711
0.0419703
0.0419692
0.0419677
0.0419654
0.0419618
0.0419564
0.0419487
0.0419379
0.0419235
0.041905
0.041882
0.0418546
0.0418234
0.0417892
0.0417532
0.0417169
0.0416819
0.0416496
0.0416212
0.0415976
0.0415791
0.0415651
0.0415554
0.0415506
0.0415476
0.0415441
0.0415423
0.0415427
0.0415434
0.0415434
0.0415425
0.0415412
0.0419584
0.0419578
0.0419572
0.0419567
0.0419563
0.0419558
0.0419555
0.0419548
0.0419542
0.0419536
0.0419528
0.0419518
0.0419504
0.0419482
0.0419449
0.04194
0.0419329
0.0419231
0.04191
0.0418931
0.0418721
0.041847
0.0418181
0.0417859
0.0417517
0.0417163
0.0416815
0.0416483
0.0416185
0.0415925
0.0415714
0.0415552
0.041544
0.0415359
0.0415302
0.0415282
0.0415284
0.0415276
0.0415256
0.0415244
0.0415238
0.0415238
0.0419402
0.0419396
0.0419391
0.0419386
0.0419382
0.0419378
0.0419374
0.0419367
0.0419361
0.0419354
0.0419348
0.0419339
0.0419326
0.0419307
0.0419279
0.0419238
0.0419179
0.0419096
0.0418985
0.0418839
0.0418656
0.0418434
0.0418173
0.0417876
0.0417551
0.0417209
0.0416861
0.0416521
0.0416203
0.0415918
0.0415675
0.0415478
0.0415335
0.0415227
0.0415147
0.0415114
0.0415115
0.0415105
0.0415076
0.0415058
0.0415053
0.0415057
0.0419215
0.041921
0.0419206
0.0419201
0.0419197
0.0419194
0.041919
0.0419184
0.0419179
0.0419173
0.0419167
0.0419159
0.0419149
0.0419134
0.0419112
0.0419079
0.0419032
0.0418965
0.0418874
0.0418754
0.0418598
0.0418407
0.0418175
0.0417908
0.0417606
0.0417279
0.0416936
0.0416592
0.0416256
0.0415945
0.0415668
0.0415434
0.0415243
0.0415104
0.0415011
0.0414943
0.0414897
0.0414888
0.0414894
0.0414887
0.0414866
0.0414848
0.0419018
0.0419013
0.0419009
0.0419004
0.0419001
0.0418997
0.0418994
0.0418989
0.0418984
0.0418979
0.0418973
0.0418967
0.0418959
0.0418947
0.041893
0.0418905
0.0418869
0.0418816
0.0418743
0.0418645
0.0418516
0.0418354
0.0418153
0.0417915
0.0417641
0.0417336
0.0417007
0.0416666
0.0416324
0.0415993
0.0415687
0.0415414
0.0415183
0.0414999
0.0414864
0.0414758
0.0414689
0.0414668
0.0414662
0.0414638
0.0414611
0.0414606
0.0418812
0.0418806
0.0418801
0.0418797
0.0418793
0.041879
0.0418786
0.0418782
0.0418778
0.0418773
0.0418767
0.0418762
0.0418755
0.0418746
0.0418733
0.0418714
0.0418685
0.0418644
0.0418586
0.0418507
0.0418401
0.0418265
0.0418095
0.0417888
0.0417645
0.0417369
0.0417065
0.0416739
0.0416404
0.0416068
0.0415745
0.0415444
0.0415176
0.0414945
0.0414756
0.0414609
0.0414509
0.0414438
0.0414381
0.0414359
0.0414365
0.0414361
0.0418594
0.0418588
0.0418583
0.0418579
0.0418575
0.0418572
0.0418568
0.0418565
0.041856
0.0418556
0.041855
0.0418545
0.0418539
0.0418531
0.041852
0.0418505
0.0418483
0.041845
0.0418405
0.0418341
0.0418256
0.0418144
0.0418003
0.041783
0.0417622
0.0417381
0.041711
0.0416814
0.0416499
0.0416174
0.0415851
0.0415536
0.0415243
0.0414976
0.0414743
0.0414545
0.0414383
0.0414264
0.0414177
0.0414102
0.0414061
0.0414058
0.0418363
0.0418356
0.0418349
0.0418344
0.0418339
0.0418335
0.041833
0.0418327
0.0418322
0.0418318
0.0418311
0.0418305
0.0418299
0.0418292
0.0418283
0.0418271
0.0418253
0.0418228
0.0418192
0.0418143
0.0418077
0.0417989
0.0417877
0.0417737
0.0417567
0.0417367
0.0417137
0.041688
0.0416599
0.0416301
0.0415992
0.0415681
0.0415376
0.0415085
0.0414815
0.0414573
0.0414361
0.0414183
0.0414041
0.0413926
0.0413835
0.0413774
0.0418131
0.0418122
0.0418114
0.0418106
0.04181
0.0418094
0.0418088
0.0418083
0.0418078
0.0418073
0.0418066
0.0418059
0.0418052
0.0418045
0.0418036
0.0418026
0.0418011
0.0417991
0.0417963
0.0417925
0.0417873
0.0417806
0.041772
0.0417611
0.0417477
0.0417316
0.0417128
0.0416912
0.0416671
0.0416407
0.0416124
0.0415828
0.0415526
0.0415224
0.0414932
0.0414654
0.0414399
0.0414171
0.0413973
0.0413805
0.0413666
0.0413551
0.0417903
0.0417893
0.0417883
0.0417875
0.0417868
0.0417862
0.0417856
0.0417851
0.0417846
0.041784
0.0417834
0.0417827
0.041782
0.0417813
0.0417805
0.0417797
0.0417785
0.0417769
0.0417748
0.0417719
0.0417681
0.041763
0.0417564
0.041748
0.0417374
0.0417245
0.041709
0.0416906
0.0416694
0.0416456
0.0416194
0.0415913
0.0415616
0.0415312
0.0415007
0.0414709
0.0414424
0.0414161
0.0413923
0.0413712
0.0413529
0.0413372
0.0417686
0.0417674
0.0417662
0.0417652
0.0417643
0.0417634
0.0417626
0.0417619
0.0417612
0.0417605
0.0417598
0.0417591
0.0417584
0.0417576
0.0417568
0.0417559
0.0417549
0.0417537
0.041752
0.0417498
0.0417467
0.0417426
0.0417373
0.0417302
0.041721
0.0417097
0.0416958
0.0416789
0.041659
0.0416361
0.0416105
0.0415826
0.0415529
0.0415221
0.0414909
0.0414599
0.0414298
0.0414015
0.0413754
0.0413519
0.041331
0.0413128
0.0417486
0.0417471
0.0417457
0.0417444
0.0417432
0.0417422
0.0417412
0.0417403
0.0417394
0.0417386
0.0417378
0.041737
0.0417362
0.0417351
0.0417342
0.0417332
0.0417322
0.0417309
0.0417293
0.041727
0.0417239
0.0417197
0.0417139
0.0417062
0.0416961
0.0416836
0.0416684
0.0416502
0.0416291
0.0416053
0.0415789
0.0415505
0.0415204
0.0414891
0.0414575
0.0414261
0.0413957
0.0413671
0.0413407
0.041317
0.0412959
0.0412775
0.0417311
0.0417293
0.0417276
0.0417261
0.0417246
0.0417234
0.0417222
0.041721
0.04172
0.041719
0.041718
0.0417168
0.0417157
0.0417146
0.0417134
0.0417122
0.0417109
0.0417093
0.0417071
0.041704
0.0416996
0.0416937
0.041686
0.0416762
0.0416642
0.04165
0.041633
0.0416134
0.0415908
0.0415657
0.0415381
0.0415085
0.0414775
0.0414457
0.0414137
0.0413824
0.0413524
0.0413245
0.041299
0.0412763
0.0412563
0.041239
0.0417155
0.0417135
0.0417116
0.0417099
0.0417083
0.0417068
0.0417055
0.0417042
0.041703
0.0417017
0.0417005
0.0416993
0.041698
0.0416966
0.0416953
0.0416938
0.0416919
0.0416893
0.0416856
0.0416806
0.041674
0.0416658
0.0416557
0.0416433
0.0416284
0.0416107
0.0415901
0.0415668
0.0415407
0.0415123
0.0414818
0.0414499
0.0414173
0.0413846
0.0413527
0.0413222
0.0412938
0.0412681
0.0412454
0.0412256
0.0412089
0.0411947
0.0417014
0.0416993
0.0416973
0.0416955
0.0416938
0.0416922
0.0416908
0.0416894
0.041688
0.0416866
0.0416851
0.0416836
0.0416821
0.0416805
0.0416787
0.0416763
0.0416729
0.0416684
0.0416624
0.0416549
0.0416454
0.0416336
0.0416192
0.0416019
0.0415816
0.0415582
0.0415318
0.0415027
0.0414714
0.0414383
0.0414042
0.0413699
0.0413362
0.0413038
0.0412735
0.0412459
0.0412214
0.0412001
0.0411824
0.0411683
0.0411566
0.041147
0.0416884
0.0416863
0.0416843
0.0416825
0.0416808
0.0416791
0.0416776
0.041676
0.0416744
0.0416729
0.041671
0.0416692
0.0416674
0.041665
0.0416619
0.0416576
0.041652
0.0416448
0.0416356
0.0416239
0.0416094
0.0415918
0.0415708
0.0415462
0.0415183
0.0414873
0.0414536
0.0414181
0.0413814
0.0413446
0.0413085
0.0412741
0.0412422
0.0412135
0.0411882
0.0411666
0.0411489
0.0411354
0.041125
0.0411162
0.0411107
0.0411091
0.0416766
0.0416745
0.0416725
0.0416706
0.0416688
0.041667
0.0416653
0.0416635
0.0416614
0.0416594
0.0416572
0.0416548
0.0416517
0.0416477
0.0416423
0.0416354
0.0416264
0.0416148
0.0416002
0.0415821
0.0415602
0.0415342
0.0415045
0.041471
0.0414346
0.0413959
0.0413561
0.0413162
0.0412774
0.0412408
0.0412074
0.0411778
0.0411525
0.0411315
0.0411151
0.0411027
0.0410929
0.0410865
0.0410845
0.0410831
0.0410799
0.0410771
0.0416652
0.0416629
0.0416608
0.0416587
0.0416566
0.0416546
0.0416525
0.0416502
0.0416478
0.0416454
0.0416424
0.0416386
0.0416335
0.0416269
0.0416182
0.0416069
0.0415923
0.0415739
0.0415513
0.0415243
0.0414928
0.0414571
0.041418
0.0413763
0.0413333
0.0412902
0.0412487
0.0412099
0.041175
0.0411446
0.0411195
0.0410994
0.0410837
0.0410725
0.0410663
0.0410624
0.0410577
0.0410546
0.0410544
0.0410547
0.041055
0.041054
0.0416558
0.0416532
0.0416507
0.0416483
0.0416458
0.0416432
0.0416405
0.0416378
0.0416348
0.0416311
0.0416262
0.04162
0.0416118
0.0416008
0.0415865
0.0415681
0.0415452
0.0415174
0.0414846
0.0414472
0.0414057
0.0413613
0.0413152
0.0412693
0.0412249
0.0411838
0.0411471
0.041116
0.0410905
0.0410704
0.0410563
0.0410476
0.0410406
0.0410349
0.0410333
0.0410337
0.0410339
0.0410324
0.0410299
0.0410279
0.0410266
0.0410262
0.0416504
0.0416473
0.0416442
0.0416411
0.0416378
0.0416344
0.0416309
0.0416271
0.0416224
0.0416165
0.0416088
0.0415984
0.0415846
0.0415666
0.0415439
0.0415158
0.0414822
0.0414434
0.0414
0.0413531
0.0413042
0.0412552
0.0412079
0.0411641
0.0411252
0.0410923
0.041066
0.0410467
0.0410318
0.0410207
0.0410165
0.0410161
0.0410137
0.0410096
0.0410068
0.0410054
0.0410052
0.0410058
0.0410063
0.0410062
0.0410055
0.0410041
0.041651
0.0416472
0.0416432
0.0416392
0.0416351
0.041631
0.0416265
0.0416211
0.041614
0.0416045
0.0415917
0.0415748
0.0415528
0.0415253
0.0414916
0.0414522
0.0414072
0.0413581
0.0413064
0.0412541
0.0412033
0.041156
0.041114
0.0410785
0.0410506
0.0410293
0.0410126
0.0410027
0.041
0.0409974
0.0409927
0.0409889
0.0409873
0.0409865
0.0409869
0.0409873
0.0409872
0.0409864
0.040985
0.0409836
0.0409826
0.0409825
0.0416549
0.0416502
0.0416454
0.0416405
0.0416355
0.0416302
0.0416239
0.0416157
0.0416048
0.0415899
0.0415702
0.0415446
0.0415125
0.0414737
0.0414286
0.0413781
0.041324
0.0412682
0.0412133
0.0411616
0.0411152
0.0410755
0.0410442
0.0410199
0.0410009
0.04099
0.0409865
0.0409827
0.0409771
0.0409734
0.0409716
0.0409711
0.0409716
0.040972
0.0409716
0.0409706
0.040969
0.0409675
0.0409668
0.0409669
0.0409676
0.0409693
0.0416647
0.0416589
0.0416529
0.041647
0.0416409
0.0416338
0.0416248
0.0416125
0.0415961
0.041574
0.0415456
0.0415097
0.0414667
0.0414166
0.0413613
0.0413026
0.0412432
0.0411859
0.0411333
0.0410877
0.0410504
0.0410205
0.0409982
0.0409856
0.0409786
0.0409709
0.0409648
0.0409628
0.040962
0.0409621
0.0409619
0.0409606
0.0409586
0.0409567
0.0409553
0.0409548
0.0409551
0.040956
0.0409578
0.0409602
0.0409631
0.0409662
0.0416801
0.0416733
0.0416664
0.0416594
0.0416518
0.0416422
0.0416296
0.0416124
0.0415893
0.0415591
0.041521
0.0414749
0.0414213
0.0413622
0.0412996
0.0412369
0.041177
0.0411229
0.0410768
0.041039
0.0410101
0.040992
0.0409803
0.040969
0.040962
0.0409602
0.0409601
0.0409595
0.0409578
0.0409551
0.0409524
0.0409503
0.0409493
0.0409494
0.0409502
0.0409519
0.0409542
0.0409568
0.0409594
0.0409619
0.0409645
0.0409672
0.0416996
0.0416919
0.0416842
0.0416763
0.0416665
0.0416542
0.0416371
0.0416144
0.0415839
0.0415455
0.041498
0.0414431
0.0413813
0.0413162
0.0412502
0.0411876
0.0411306
0.041082
0.0410428
0.0410148
0.0409951
0.0409792
0.0409704
0.0409679
0.0409659
0.0409629
0.0409589
0.0409558
0.0409538
0.0409528
0.0409526
0.0409531
0.0409538
0.040955
0.040956
0.0409573
0.040959
0.0409612
0.0409639
0.0409672
0.0409708
0.0409749
0.0417221
0.0417138
0.0417054
0.0416959
0.0416839
0.0416679
0.0416461
0.041617
0.0415794
0.0415327
0.0414777
0.0414153
0.0413486
0.0412804
0.0412146
0.0411542
0.0411026
0.0410599
0.0410271
0.041006
0.0409922
0.0409795
0.0409719
0.0409694
0.0409685
0.0409671
0.0409647
0.0409618
0.0409593
0.0409578
0.0409575
0.0409582
0.0409599
0.0409623
0.0409653
0.0409684
0.0409717
0.0409751
0.0409786
0.0409822
0.040986
0.0409899
0.0417467
0.0417377
0.0417283
0.0417167
0.0417019
0.0416814
0.0416543
0.0416184
0.0415737
0.0415197
0.0414581
0.0413907
0.0413212
0.0412525
0.0411887
0.0411327
0.041086
0.0410485
0.0410225
0.0410066
0.0409929
0.0409821
0.0409781
0.0409763
0.0409753
0.0409735
0.0409709
0.0409684
0.0409665
0.040966
0.0409666
0.0409685
0.0409715
0.0409752
0.0409794
0.0409837
0.0409879
0.0409919
0.0409958
0.0409995
0.0410032
0.0410069
0.0417726
0.041763
0.0417518
0.0417377
0.0417186
0.0416932
0.0416593
0.0416166
0.0415642
0.0415039
0.0414366
0.0413662
0.0412955
0.0412286
0.0411681
0.0411166
0.0410754
0.0410453
0.0410224
0.0410056
0.0409969
0.0409927
0.0409886
0.0409843
0.0409809
0.0409784
0.0409771
0.040977
0.0409779
0.0409794
0.0409815
0.040984
0.0409871
0.0409907
0.0409948
0.0409992
0.0410039
0.0410086
0.0410134
0.0410181
0.0410226
0.041027
0.0417993
0.0417882
0.0417746
0.0417565
0.0417323
0.0416999
0.0416587
0.0416078
0.0415484
0.0414814
0.0414102
0.0413377
0.0412679
0.0412039
0.0411487
0.0411031
0.041067
0.0410414
0.0410256
0.0410132
0.0410032
0.0409983
0.0409955
0.0409938
0.0409921
0.0409908
0.0409898
0.0409895
0.0409903
0.0409924
0.0409956
0.041
0.041005
0.0410104
0.041016
0.0410215
0.0410267
0.0410315
0.0410358
0.0410398
0.0410435
0.041047
0.0418254
0.0418119
0.0417943
0.0417706
0.0417391
0.0416985
0.0416483
0.0415889
0.0415215
0.0414492
0.0413748
0.0413025
0.0412353
0.0411764
0.0411273
0.0410896
0.0410616
0.0410397
0.0410255
0.041019
0.0410146
0.0410108
0.0410065
0.041003
0.0410015
0.0410013
0.0410025
0.0410048
0.0410082
0.0410123
0.0410169
0.0410219
0.0410272
0.0410326
0.041038
0.0410433
0.0410484
0.0410533
0.0410579
0.0410621
0.0410661
0.0410699
0.041849
0.0418312
0.0418075
0.0417758
0.041735
0.0416842
0.0416238
0.041555
0.0414806
0.0414038
0.0413287
0.0412587
0.0411971
0.041146
0.0411051
0.0410736
0.0410541
0.0410422
0.0410319
0.0410237
0.0410196
0.041017
0.0410157
0.0410154
0.0410158
0.041017
0.0410188
0.0410219
0.041026
0.0410312
0.0410372
0.0410438
0.0410505
0.0410571
0.0410634
0.0410693
0.0410745
0.0410792
0.0410833
0.0410869
0.0410901
0.041093
0.0418666
0.0418421
0.0418094
0.0417674
0.041715
0.0416524
0.0415808
0.0415032
0.0414229
0.0413445
0.0412716
0.0412079
0.041154
0.0411115
0.0410822
0.0410622
0.0410454
0.0410353
0.0410304
0.041028
0.0410262
0.0410243
0.0410233
0.0410231
0.0410245
0.0410276
0.0410323
0.0410385
0.0410456
0.0410533
0.041061
0.0410684
0.0410753
0.0410815
0.041087
0.0410919
0.0410962
0.0411001
0.0411035
0.0411067
0.0411098
0.0411127
0.0418735
0.0418393
0.0417953
0.04174
0.0416739
0.0415983
0.0415163
0.0414316
0.041349
0.0412726
0.0412057
0.0411504
0.0411094
0.0410783
0.0410544
0.0410413
0.0410359
0.0410315
0.0410271
0.0410232
0.0410214
0.0410209
0.0410227
0.0410266
0.0410322
0.0410393
0.0410472
0.0410554
0.0410636
0.0410715
0.041079
0.041086
0.0410924
0.0410984
0.0411038
0.0411088
0.0411133
0.0411175
0.0411213
0.0411249
0.0411282
0.0411314
0.0418655
0.0418187
0.0417598
0.041689
0.0416082
0.0415204
0.0414301
0.0413424
0.0412619
0.0411919
0.0411342
0.0410925
0.0410623
0.0410395
0.0410261
0.0410199
0.0410171
0.0410141
0.0410113
0.0410101
0.0410106
0.0410128
0.0410178
0.0410248
0.0410339
0.0410439
0.0410545
0.0410647
0.0410743
0.041083
0.0410908
0.0410978
0.041104
0.0411095
0.0411145
0.041119
0.0411232
0.041127
0.0411306
0.0411339
0.0411371
0.0411403
0.0418389
0.0417757
0.0416994
0.0416123
0.0415177
0.041421
0.0413269
0.0412411
0.0411685
0.0411093
0.0410632
0.0410329
0.041016
0.0410031
0.0409952
0.0409896
0.0409863
0.0409851
0.0409865
0.0409895
0.0409945
0.0410016
0.04101
0.04102
0.0410307
0.0410419
0.0410533
0.0410642
0.0410746
0.0410841
0.0410928
0.0411004
0.0411072
0.041113
0.0411181
0.0411226
0.0411265
0.04113
0.0411331
0.041136
0.0411387
0.0411413
0.04179
0.041708
0.041614
0.0415121
0.0414078
0.041307
0.0412159
0.0411384
0.0410753
0.0410306
0.0410024
0.0409816
0.0409675
0.0409608
0.0409575
0.0409562
0.0409556
0.0409569
0.0409604
0.040965
0.0409727
0.0409829
0.0409948
0.0410084
0.0410223
0.0410364
0.0410497
0.0410618
0.0410727
0.041082
0.04109
0.0410967
0.0411024
0.0411073
0.0411115
0.0411152
0.0411185
0.0411217
0.0411246
0.0411275
0.0411304
0.0411334
0.0417189
0.0416186
0.0415097
0.0413981
0.0412901
0.0411925
0.0411114
0.0410474
0.0409959
0.0409652
0.0409522
0.0409416
0.0409314
0.0409247
0.0409207
0.0409202
0.0409232
0.040929
0.0409374
0.0409474
0.0409585
0.0409711
0.0409843
0.0409981
0.041012
0.0410256
0.0410385
0.0410507
0.0410617
0.0410717
0.0410804
0.041088
0.0410944
0.0410997
0.0411042
0.041108
0.0411113
0.0411142
0.0411168
0.0411192
0.0411216
0.0411241
0.0416314
0.0415167
0.0413987
0.0412846
0.0411821
0.0410951
0.0410247
0.0409766
0.0409487
0.0409266
0.0409108
0.0409039
0.0409011
0.0409007
0.0409007
0.0409024
0.0409059
0.0409107
0.0409192
0.0409305
0.0409441
0.0409598
0.0409763
0.040993
0.0410089
0.0410234
0.0410363
0.0410474
0.0410568
0.0410648
0.0410715
0.0410772
0.0410821
0.0410864
0.0410903
0.0410939
0.0410973
0.0411006
0.0411038
0.041107
0.0411103
0.0411137
0.0415363
0.0414137
0.0412943
0.0411866
0.0410939
0.04102
0.0409705
0.0409384
0.0409115
0.0408968
0.0408918
0.0408915
0.0408903
0.0408884
0.0408876
0.0408891
0.0408932
0.0409011
0.0409129
0.0409276
0.0409445
0.0409621
0.0409794
0.0409955
0.0410098
0.0410223
0.041033
0.0410422
0.0410501
0.0410569
0.041063
0.0410685
0.0410735
0.0410784
0.041083
0.0410875
0.0410918
0.041096
0.0411001
0.0411041
0.041108
0.0411119
0.0414424
0.0413193
0.0412069
0.0411093
0.0410307
0.0409765
0.0409407
0.0409107
0.0408942
0.0408894
0.0408893
0.0408875
0.0408845
0.0408827
0.0408829
0.0408863
0.0408939
0.0409055
0.0409202
0.0409371
0.0409547
0.0409718
0.0409876
0.0410017
0.041014
0.0410248
0.0410341
0.0410424
0.0410497
0.0410564
0.0410626
0.0410684
0.041074
0.0410793
0.0410844
0.0410893
0.0410939
0.0410984
0.0411026
0.0411066
0.0411105
0.0411142
0.0413554
0.0412397
0.0411391
0.0410556
0.0409936
0.0409551
0.0409272
0.0409054
0.0408971
0.0408941
0.040893
0.0408916
0.0408912
0.0408926
0.0408962
0.0409034
0.0409145
0.0409283
0.0409444
0.0409613
0.0409781
0.0409941
0.0410086
0.0410215
0.0410329
0.0410428
0.0410515
0.0410592
0.0410661
0.0410725
0.0410784
0.0410839
0.0410892
0.0410942
0.041099
0.0411036
0.0411079
0.0411121
0.041116
0.0411197
0.0411233
0.0411268
0.041278
0.0411736
0.0410892
0.0410232
0.0409772
0.0409483
0.0409302
0.0409182
0.0409124
0.0409098
0.0409086
0.040909
0.0409113
0.0409149
0.0409219
0.040931
0.0409433
0.0409573
0.040973
0.040989
0.041005
0.0410202
0.0410342
0.0410469
0.0410583
0.0410683
0.0410772
0.041085
0.041092
0.0410984
0.0411041
0.0411095
0.0411144
0.0411191
0.0411235
0.0411277
0.0411316
0.0411354
0.041139
0.0411425
0.0411459
0.0411492
0.0412116
0.041125
0.0410578
0.0410094
0.0409777
0.0409581
0.0409471
0.04094
0.0409367
0.0409341
0.0409332
0.0409344
0.0409377
0.0409441
0.0409528
0.0409647
0.0409779
0.040993
0.0410083
0.041024
0.0410389
0.0410532
0.0410662
0.0410781
0.0410888
0.0410984
0.0411068
0.0411145
0.0411212
0.0411274
0.041133
0.0411381
0.0411428
0.0411472
0.0411514
0.0411554
0.0411591
0.0411627
0.0411662
0.0411695
0.0411728
0.041176
0.0411621
0.0410947
0.0410458
0.0410131
0.0409923
0.0409798
0.0409718
0.040968
0.0409652
0.040964
0.0409649
0.0409681
0.0409743
0.0409831
0.040995
0.0410084
0.0410235
0.0410389
0.0410544
0.0410692
0.0410832
0.0410961
0.0411079
0.0411184
0.0411279
0.0411364
0.041144
0.0411508
0.041157
0.0411627
0.0411679
0.0411727
0.0411772
0.0411815
0.0411855
0.0411894
0.041193
0.0411965
0.0411999
0.0412031
0.0412063
0.0412095
0.0411317
0.0410848
0.0410525
0.0410315
0.041018
0.04101
0.0410058
0.0410028
0.0410017
0.0410033
0.0410069
0.0410142
0.0410237
0.0410365
0.0410506
0.0410662
0.0410819
0.0410975
0.0411123
0.041126
0.0411386
0.0411499
0.04116
0.0411689
0.041177
0.0411842
0.0411907
0.0411966
0.041202
0.0412071
0.0412118
0.0412163
0.0412205
0.0412245
0.0412283
0.041232
0.0412355
0.0412389
0.0412421
0.0412452
0.0412482
0.0412512
0.0411258
0.0410942