/*--------------------------------*- C++ -*----------------------------------*\
| =========                 |                                                 |
| \\      /  F ield         | OpenFOAM: The Open Source CFD Toolbox           |
|  \\    /   O peration     | Version:  2412                                  |
|   \\  /    A nd           | Website:  www.openfoam.com                      |
|    \\/     M anipulation  |                                                 |
\*---------------------------------------------------------------------------*/
FoamFile
{
    version     2.0;
    format      ascii;
    arch        "LSB;label=32;scalar=64";
    class       volScalarField;
    location    "0.037";
    object      p;
}
// * * * * * * * * * * * * * * * * * * * * * * * * * * * * * * * * * * * * * //

dimensions      [1 -1 -2 0 0 0 0];

internalField   nonuniform List<scalar> 
9763
(
2859.7
2921.89
2860.57
2919.77
2861.17
2918.32
2861.25
2915.89
2860.05
2914.56
2858.86
2912.67
2858.54
2910.91
2858.86
2908.91
2858.51
2907.03
2857.64
2905
2857.07
2902.87
2856.7
2900.69
2856.14
2898.44
2855.51
2896.12
2854.89
2893.71
2854.25
2891.21
2853.56
2888.65
2852.83
2885.99
2852.08
2883.28
2851.28
2880.47
2850.45
2877.6
2849.56
2874.62
2848.64
2871.58
2847.66
2868.42
2846.65
2865.19
2845.58
2861.83
2844.48
2858.38
2843.33
2854.82
2842.13
2851.17
2840.87
2847.42
2839.54
2843.6
2838.12
2839.71
2836.62
2835.76
2834.99
2831.74
2833.26
2827.66
2831.39
2823.52
2829.36
2819.34
2827.21
2815.11
2824.9
2810.84
2822.44
2806.54
2802.19
2797.78
2793.28
3900.37
2974.45
2951.95
2938.42
2930.29
2927.84
2926.67
2923.72
2918.41
2911.4
2903.9
2896.24
2888.11
2879.48
2870.67
2861.69
2852.55
2843.1
2833.07
2822.15
2810.06
2796.66
2781.97
2766.1
2749.22
2731.51
2713.28
2695.13
2677.95
2662.46
2648.84
2636.92
2626.54
2617.66
2610.33
2604.49
2599.99
2596.61
2594.12
2592.46
2591.48
2591.13
2591.67
2593.15
2595.35
2598.08
2601.23
2604.79
2608.8
2613.27
2618.11
2623.19
2628.57
2633.93
2640.17
2644.84
2650.65
2656.17
2662.07
2668.18
2674.13
2680.02
2685.75
2691.35
2697.1
2702.87
2708.63
2714.28
2719.91
2725.3
2730.75
2736.05
2741.43
2746.78
2752.14
2757.51
2762.69
2767.74
2772.77
2777.79
2782.8
2787.81
2792.78
2797.68
2802.46
2807.11
2811.71
2816.19
2820.58
2824.79
2828.89
2832.69
2836.32
2839.79
2843.16
2846.43
2849.6
2852.66
2855.57
2858.34
2860.96
2863.36
2865.63
2867.59
2869.43
2870.95
2872.3
2873.38
2874.18
2874.84
2875.2
2875.36
2875.2
2874.79
2874.02
2872.79
2871.03
2868.79
2866.06
2865.29
2856.91
3899.98
2974.44
2951.3
2937.97
2929.96
2927.59
2926.46
2923.54
2918.25
2911.23
2903.73
2896.06
2887.92
2879.28
2870.46
2861.47
2852.3
2842.82
2832.75
2821.78
2809.62
2796.14
2781.34
2765.36
2748.35
2730.51
2712.15
2693.88
2676.62
2661.08
2647.43
2635.5
2625.09
2616.16
2608.75
2602.8
2598.16
2594.63
2592.01
2590.19
2589.05
2588.55
2588.89
2590.17
2592.25
2594.88
2597.93
2601.38
2605.29
2609.64
2614.37
2619.4
2624.73
2630.12
2636.25
2641.09
2646.88
2652.54
2658.43
2664.49
2670.37
2676.09
2681.72
2687.16
2692.84
2698.5
2704.26
2709.93
2715.64
2721.08
2726.49
2731.64
2736.81
2741.93
2747.16
2752.52
2757.77
2763
2768.15
2773.24
2778.2
2783.1
2787.91
2792.63
2797.24
2801.72
2806.13
2810.4
2814.57
2818.57
2822.41
2826.04
2829.51
2832.82
2836.01
2839.05
2841.99
2844.79
2847.46
2850
2852.4
2854.63
2856.76
2858.67
2860.53
2862.14
2863.69
2865.09
2866.23
2867.34
2868.19
2869.01
2869.6
2870.13
2870.5
2870.79
2870.96
2871.04
2871.12
2871.28
2871.11
3899.68
2974.36
2950.77
2937.68
2929.67
2927.35
2926.25
2923.37
2918.09
2911.07
2903.57
2895.88
2887.74
2879.09
2870.26
2861.25
2852.06
2842.55
2832.45
2821.42
2809.19
2795.63
2780.72
2764.63
2747.5
2729.54
2711.05
2692.66
2675.32
2659.73
2646.06
2634.1
2623.66
2614.67
2607.16
2601.08
2596.3
2592.61
2589.83
2587.85
2586.53
2585.89
2586.01
2587.07
2589.01
2591.54
2594.49
2597.83
2601.62
2605.85
2610.47
2615.41
2620.65
2626.04
2632.02
2636.92
2642.65
2648.28
2654.07
2660.03
2665.84
2671.52
2677.07
2682.43
2688.02
2693.46
2699.01
2704.53
2710.12
2715.52
2720.88
2725.94
2730.97
2735.93
2740.95
2746.11
2751.13
2756.19
2761.17
2766.12
2770.9
2775.62
2780.19
2784.62
2788.9
2793.06
2797.11
2801.01
2804.8
2808.46
2811.99
2815.36
2818.6
2821.71
2824.69
2827.54
2830.26
2832.85
2835.29
2837.59
2839.74
2841.74
2843.61
2845.31
2846.93
2848.34
2849.7
2850.93
2851.95
2852.97
2853.79
2854.6
2855.24
2855.85
2856.33
2856.77
2857.13
2857.46
2857.76
2858.1
2858.62
3899.12
2974.21
2950.23
2937.34
2929.38
2927.12
2926.06
2923.2
2917.94
2910.92
2903.41
2895.72
2887.56
2878.91
2870.07
2861.05
2851.84
2842.3
2832.16
2821.08
2808.79
2795.14
2780.14
2763.93
2746.69
2728.61
2710
2691.51
2674.09
2658.46
2644.77
2632.79
2622.31
2613.26
2605.66
2599.46
2594.53
2590.68
2587.74
2585.59
2584.1
2583.31
2583.25
2584.06
2585.85
2588.26
2591.12
2594.36
2598.03
2602.14
2606.64
2611.49
2616.65
2622.04
2627.89
2632.87
2638.52
2644.08
2649.83
2655.71
2661.44
2667.04
2672.51
2677.8
2683.36
2688.71
2694.06
2699.33
2704.66
2709.93
2715.24
2720.24
2725.15
2729.99
2734.87
2739.92
2744.72
2749.51
2754.14
2758.75
2763.19
2767.62
2771.88
2776
2779.98
2783.82
2787.52
2791.07
2794.49
2797.77
2800.91
2803.92
2806.8
2809.56
2812.18
2814.68
2817.06
2819.32
2821.46
2823.48
2825.37
2827.15
2828.81
2830.36
2831.83
2833.14
2834.4
2835.56
2836.57
2837.55
2838.4
2839.24
2839.96
2840.66
2841.27
2841.86
2842.4
2842.91
2843.39
2843.85
2844.44
3898.8
2974.2
2949.7
2937
2929.1
2926.9
2925.87
2923.04
2917.79
2910.77
2903.25
2895.56
2887.4
2878.74
2869.88
2860.85
2851.63
2842.06
2831.88
2820.76
2808.4
2794.67
2779.57
2763.26
2745.91
2727.71
2708.99
2690.4
2672.92
2657.24
2643.52
2631.53
2621.02
2611.91
2604.21
2597.89
2592.82
2588.8
2585.71
2583.39
2581.73
2580.79
2580.53
2581.12
2582.73
2585.03
2587.79
2590.94
2594.51
2598.5
2602.89
2607.64
2612.7
2618.06
2623.76
2628.81
2634.43
2639.99
2645.72
2651.51
2657.14
2662.62
2667.95
2673.14
2678.54
2683.71
2688.95
2694.18
2699.45
2704.69
2709.9
2714.81
2719.62
2724.28
2728.91
2733.65
2738.1
2742.59
2746.91
2751.24
2755.45
2759.71
2763.81
2767.76
2771.53
2775.14
2778.56
2781.8
2784.9
2787.87
2790.7
2793.42
2795.99
2798.45
2800.76
2802.95
2805
2806.93
2808.73
2810.42
2811.98
2813.44
2814.8
2816.07
2817.25
2818.33
2819.4
2820.37
2821.21
2822.09
2822.84
2823.62
2824.3
2824.97
2825.59
2826.2
2826.76
2827.31
2827.82
2828.28
2828.91
3898.51
2974.11
2949.16
2936.66
2928.82
2926.67
2925.68
2922.88
2917.64
2910.62
2903.1
2895.4
2887.23
2878.56
2869.7
2860.66
2851.41
2841.83
2831.61
2820.44
2808.02
2794.21
2779.02
2762.61
2745.14
2726.83
2707.99
2689.31
2671.77
2656.06
2642.32
2630.31
2619.77
2610.59
2602.81
2596.36
2591.14
2586.97
2583.71
2581.22
2579.41
2578.3
2577.86
2578.25
2579.66
2581.83
2584.49
2587.55
2591.01
2594.89
2599.17
2603.81
2608.77
2614.1
2619.65
2624.8
2630.37
2635.93
2641.64
2647.35
2652.84
2658.17
2663.31
2668.38
2673.67
2678.79
2683.98
2689.17
2694.42
2699.68
2704.83
2709.61
2714.15
2718.53
2722.95
2727.49
2731.76
2736.06
2740.17
2744.3
2748.33
2752.4
2756.3
2760.03
2763.59
2766.97
2770.13
2773.11
2775.93
2778.61
2781.15
2783.57
2785.85
2788.03
2790.08
2792.02
2793.84
2795.54
2797.12
2798.59
2799.94
2801.2
2802.36
2803.44
2804.41
2805.35
2806.19
2806.95
2807.66
2808.32
2808.93
2809.5
2810.02
2810.53
2810.99
2811.45
2811.88
2812.31
2812.71
2812.98
2812.84
3898.36
2974.11
2948.61
2936.32
2928.53
2926.45
2925.49
2922.71
2917.49
2910.48
2902.94
2895.24
2887.07
2878.39
2869.52
2860.46
2851.2
2841.59
2831.34
2820.11
2807.63
2793.75
2778.47
2761.95
2744.37
2725.95
2707
2688.23
2670.62
2654.87
2641.11
2629.09
2618.52
2609.28
2601.4
2594.83
2589.45
2585.12
2581.69
2579.03
2577.05
2575.76
2575.16
2575.35
2576.53
2578.56
2581.11
2584.08
2587.44
2591.21
2595.37
2599.89
2604.74
2610.03
2615.43
2620.69
2626.23
2631.78
2637.42
2643
2648.32
2653.54
2658.58
2663.61
2668.82
2673.9
2679.02
2684.11
2689.19
2694.33
2699.34
2704.06
2708.44
2712.65
2716.86
2721.16
2725.24
2729.38
2733.32
2737.26
2741.12
2745.02
2748.73
2752.26
2755.64
2758.81
2761.79
2764.6
2767.26
2769.78
2772.17
2774.43
2776.56
2778.57
2780.47
2782.25
2783.93
2785.49
2786.95
2788.3
2789.55
2790.71
2791.78
2792.77
2793.67
2794.53
2795.31
2795.99
2796.66
2797.26
2797.83
2798.35
2798.84
2799.31
2799.73
2800.15
2800.54
2800.96
2801.38
2801.84
2802.35
3897.83
2974.02
2948.05
2935.97
2928.24
2926.22
2925.3
2922.55
2917.34
2910.32
2902.79
2895.08
2886.9
2878.22
2869.33
2860.27
2850.98
2841.34
2831.06
2819.78
2807.24
2793.28
2777.9
2761.28
2743.6
2725.06
2706
2687.14
2669.47
2653.68
2639.91
2627.87
2617.26
2607.96
2599.98
2593.29
2587.76
2583.25
2579.65
2576.82
2574.66
2573.18
2572.43
2572.44
2573.35
2575.22
2577.66
2580.53
2583.79
2587.45
2591.5
2595.9
2600.64
2605.87
2611.12
2616.51
2621.95
2627.45
2633.05
2638.51
2643.7
2648.86
2653.85
2658.85
2663.93
2668.86
2673.85
2678.83
2683.74
2688.77
2693.67
2698.34
2702.63
2706.74
2710.8
2714.87
2718.73
2722.64
2726.37
2730.11
2733.76
2737.46
2740.95
2744.26
2747.43
2750.4
2753.18
2755.82
2758.28
2760.62
2762.84
2764.94
2766.92
2768.8
2770.58
2772.25
2773.83
2775.31
2776.69
2777.98
2779.18
2780.3
2781.34
2782.29
2783.16
2783.99
2784.74
2785.39
2786.02
2786.57
2787.1
2787.56
2788
2788.39
2788.75
2789.08
2789.37
2789.66
2789.96
2790.39
2791.4
3897.74
2973.96
2947.47
2935.61
2927.95
2925.98
2925.1
2922.38
2917.19
2910.17
2902.63
2894.91
2886.73
2878.04
2869.15
2860.07
2850.77
2841.1
2830.77
2819.45
2806.84
2792.8
2777.34
2760.61
2742.81
2724.16
2704.99
2686.04
2668.31
2652.49
2638.69
2626.64
2616
2606.63
2598.55
2591.72
2586.04
2581.36
2577.57
2574.55
2572.21
2570.53
2569.62
2569.42
2570.1
2571.79
2574.1
2576.85
2580.01
2583.56
2587.5
2591.78
2596.41
2601.56
2606.64
2612.15
2617.49
2622.95
2628.47
2633.81
2638.89
2643.95
2648.86
2653.87
2658.9
2663.73
2668.53
2673.34
2678.11
2683.04
2687.76
2692.29
2696.47
2700.5
2704.42
2708.24
2711.84
2715.47
2718.99
2722.54
2726.04
2729.55
2732.82
2735.91
2738.86
2741.63
2744.25
2746.75
2749.07
2751.27
2753.35
2755.31
2757.13
2758.84
2760.45
2761.96
2763.35
2764.65
2765.85
2766.97
2768.01
2768.96
2769.85
2770.65
2771.41
2772.09
2772.69
2773.24
2773.73
2774.16
2774.55
2774.87
2775.16
2775.4
2775.61
2775.78
2775.92
2776.02
2776.09
2776.14
2776.17
3897.44
2973.83
2946.89
2935.24
2927.65
2925.75
2924.9
2922.21
2917.03
2910.02
2902.47
2894.75
2886.56
2877.86
2868.96
2859.87
2850.55
2840.85
2830.49
2819.11
2806.44
2792.32
2776.76
2759.92
2742.01
2723.24
2703.96
2684.93
2667.14
2651.28
2637.47
2625.41
2614.73
2605.3
2597.12
2590.15
2584.3
2579.44
2575.46
2572.25
2569.72
2567.86
2566.75
2566.35
2566.81
2568.29
2570.47
2573.1
2576.14
2579.59
2583.41
2587.57
2592.1
2597.16
2602.09
2607.73
2612.94
2618.34
2623.7
2628.84
2633.84
2638.86
2643.73
2648.76
2653.78
2658.6
2663.26
2667.82
2672.25
2676.95
2681.53
2686.01
2690.13
2694.11
2697.95
2701.61
2705.03
2708.4
2711.67
2714.94
2718.17
2721.4
2724.44
2727.32
2730.04
2732.6
2735.02
2737.37
2739.54
2741.58
2743.48
2745.29
2746.97
2748.53
2749.99
2751.34
2752.58
2753.7
2754.75
2755.71
2756.58
2757.38
2758.11
2758.78
2759.38
2759.93
2760.43
2760.85
2761.24
2761.56
2761.86
2762.09
2762.3
2762.45
2762.59
2762.68
2762.75
2762.79
2762.8
2762.77
2762.7
3897.16
2973.75
2946.29
2934.87
2927.35
2925.51
2924.7
2922.03
2916.87
2909.86
2902.3
2894.58
2886.38
2877.68
2868.77
2859.67
2850.33
2840.6
2830.2
2818.78
2806.04
2791.84
2776.18
2759.23
2741.21
2722.32
2702.93
2683.81
2665.96
2650.08
2636.25
2624.17
2613.46
2603.97
2595.68
2588.57
2582.55
2577.5
2573.32
2569.91
2567.18
2565.12
2563.8
2563.21
2563.47
2564.71
2566.73
2569.24
2572.16
2575.5
2579.21
2583.26
2587.68
2592.64
2597.42
2603.14
2608.18
2613.55
2618.78
2623.79
2628.7
2633.65
2638.51
2643.51
2648.43
2653.15
2657.69
2662.11
2666.31
2670.74
2675.05
2679.45
2683.58
2687.52
2691.24
2694.63
2697.77
2700.83
2703.86
2706.92
2709.97
2712.99
2715.9
2718.61
2721.15
2723.56
2725.87
2728.05
2730.07
2731.96
2733.71
2735.37
2736.9
2738.33
2739.65
2740.84
2741.94
2742.94
2743.84
2744.66
2745.4
2746.07
2746.68
2747.23
2747.74
2748.18
2748.59
2748.94
2749.26
2749.53
2749.76
2749.95
2750.12
2750.25
2750.36
2750.43
2750.49
2750.51
2750.52
2750.5
2750.42
3896.89
2973.62
2945.7
2934.49
2927.04
2925.26
2924.49
2921.86
2916.71
2909.7
2902.14
2894.41
2886.21
2877.5
2868.58
2859.47
2850.1
2840.36
2829.92
2818.44
2805.63
2791.35
2775.59
2758.54
2740.39
2721.39
2701.9
2682.69
2664.79
2648.88
2635.03
2622.93
2612.2
2602.64
2594.24
2586.99
2580.8
2575.56
2571.18
2567.56
2564.62
2562.35
2560.81
2560.06
2560.11
2561.07
2562.93
2565.31
2568.12
2571.34
2574.95
2578.89
2583.2
2588.04
2592.68
2598.46
2603.34
2608.71
2613.81
2618.73
2623.53
2628.33
2633.09
2638.05
2642.94
2647.61
2652.07
2656.34
2660.37
2664.57
2668.59
2672.74
2676.7
2680.59
2684.25
2687.48
2690.46
2693.3
2696.1
2698.94
2701.77
2704.54
2707.3
2709.8
2712.15
2714.44
2716.57
2718.57
2720.42
2722.16
2723.77
2725.27
2726.68
2727.99
2729.19
2730.29
2731.3
2732.22
2733.05
2733.8
2734.47
2735.08
2735.64
2736.13
2736.59
2737
2737.38
2737.7
2738
2738.25
2738.48
2738.67
2738.84
2738.98
2739.1
2739.19
2739.27
2739.33
2739.38
2739.41
2739.4
3896.78
2973.54
2945.09
2934.11
2926.73
2925.02
2924.29
2921.68
2916.55
2909.55
2901.98
2894.24
2886.03
2877.32
2868.39
2859.26
2849.88
2840.11
2829.63
2818.1
2805.23
2790.86
2775.01
2757.84
2739.58
2720.46
2700.86
2681.58
2663.63
2647.68
2633.81
2621.7
2610.94
2601.31
2592.81
2585.42
2579.05
2573.61
2569.02
2565.18
2562.03
2559.54
2557.78
2556.85
2556.67
2557.36
2559.04
2561.3
2563.98
2567.08
2570.59
2574.43
2578.64
2583.35
2587.87
2593.67
2598.41
2603.76
2608.73
2613.55
2618.25
2622.98
2627.64
2632.49
2637.34
2642
2646.41
2650.43
2654.21
2658.15
2662.01
2665.97
2669.77
2673.5
2677.01
2680.1
2682.97
2685.66
2688.27
2690.89
2693.48
2696
2698.54
2700.86
2703.05
2705.2
2707.2
2709.1
2710.83
2712.47
2713.97
2715.37
2716.68
2717.89
2719
2720.02
2720.95
2721.79
2722.56
2723.25
2723.88
2724.44
2724.96
2725.42
2725.86
2726.24
2726.6
2726.92
2727.21
2727.47
2727.7
2727.9
2728.09
2728.25
2728.4
2728.53
2728.64
2728.74
2728.84
2728.92
2728.98
3896.33
2973.4
2944.48
2933.72
2926.42
2924.77
2924.08
2921.5
2916.39
2909.39
2901.81
2894.07
2885.86
2877.13
2868.2
2859.06
2849.66
2839.86
2829.34
2817.76
2804.82
2790.37
2774.42
2757.14
2738.77
2719.53
2699.83
2680.47
2662.47
2646.49
2632.61
2620.48
2609.69
2600
2591.39
2583.85
2577.31
2571.67
2566.86
2562.8
2559.43
2556.72
2554.74
2553.6
2553.19
2553.66
2555.11
2557.23
2559.78
2562.77
2566.18
2569.92
2574.04
2578.61
2583.04
2588.85
2593.41
2598.71
2603.54
2608.3
2612.93
2617.63
2622.22
2626.95
2631.58
2636.13
2640.55
2644.48
2648.1
2651.75
2655.42
2659.18
2662.86
2666.45
2669.8
2672.71
2675.43
2677.98
2680.4
2682.84
2685.22
2687.54
2689.82
2691.95
2693.99
2695.95
2697.81
2699.56
2701.18
2702.7
2704.11
2705.43
2706.66
2707.79
2708.84
2709.8
2710.68
2711.49
2712.22
2712.89
2713.49
2714.04
2714.55
2715.01
2715.44
2715.83
2716.2
2716.53
2716.84
2717.12
2717.37
2717.61
2717.83
2718.03
2718.21
2718.39
2718.55
2718.7
2718.84
2718.98
2719.13
3896.2
2973.28
2943.87
2933.33
2926.11
2924.52
2923.87
2921.33
2916.23
2909.23
2901.64
2893.9
2885.68
2876.95
2868.01
2858.85
2849.44
2839.61
2829.06
2817.42
2804.41
2789.88
2773.83
2756.45
2737.95
2718.6
2698.8
2679.37
2661.32
2645.31
2631.41
2619.27
2608.45
2598.69
2589.98
2582.29
2575.57
2569.73
2564.7
2560.41
2556.81
2553.87
2551.66
2550.27
2549.66
2549.91
2551.11
2553.08
2555.5
2558.37
2561.67
2565.32
2569.36
2573.8
2578.16
2583.94
2588.34
2593.6
2598.29
2602.98
2607.59
2612.2
2616.64
2621.32
2625.85
2630.3
2634.63
2638.45
2642.02
2645.46
2648.89
2652.29
2655.74
2659.13
2662.38
2665.18
2667.8
2670.21
2672.48
2674.75
2676.97
2679.13
2681.17
2683.08
2684.94
2686.75
2688.46
2690.1
2691.63
2693.08
2694.42
2695.69
2696.85
2697.92
2698.9
2699.81
2700.63
2701.39
2702.08
2702.71
2703.29
2703.81
2704.3
2704.75
2705.18
2705.57
2705.94
2706.28
2706.59
2706.89
2707.17
2707.43
2707.67
2707.9
2708.12
2708.33
2708.53
2708.72
2708.9
2709.09
2709.31
3896.1
2973.13
2943.25
2932.93
2925.79
2924.27
2923.66
2921.14
2916.06
2909.06
2901.48
2893.73
2885.5
2876.77
2867.82
2858.65
2849.21
2839.36
2828.77
2817.07
2804
2789.38
2773.24
2755.75
2737.14
2717.67
2697.77
2678.27
2660.19
2644.15
2630.24
2618.07
2607.22
2597.41
2588.58
2580.75
2573.85
2567.81
2562.55
2558.02
2554.19
2551.02
2548.57
2546.92
2546.13
2546.16
2547.07
2548.87
2551.17
2553.9
2557.09
2560.65
2564.61
2568.95
2573.25
2578.98
2583.24
2588.47
2593.01
2597.59
2602.14
2606.73
2611.11
2615.73
2620.12
2624.57
2628.78
2632.39
2635.8
2639.1
2642.39
2645.54
2648.76
2651.93
2655.03
2657.71
2660.27
2662.59
2664.71
2666.83
2668.88
2670.86
2672.67
2674.37
2676.04
2677.62
2679.13
2680.6
2682.01
2683.36
2684.63
2685.84
2686.95
2687.98
2688.92
2689.78
2690.57
2691.29
2691.95
2692.56
2693.11
2693.62
2694.1
2694.54
2694.96
2695.35
2695.73
2696.08
2696.41
2696.72
2697.01
2697.29
2697.55
2697.81
2698.05
2698.29
2698.52
2698.74
2698.96
2699.18
2699.45
3896.02
2972.97
2942.62
2932.53
2925.47
2924.02
2923.45
2920.96
2915.9
2908.9
2901.31
2893.55
2885.33
2876.59
2867.63
2858.45
2848.99
2839.11
2828.48
2816.73
2803.59
2788.89
2772.65
2755.06
2736.33
2716.75
2696.75
2677.19
2659.06
2643
2629.07
2616.88
2606
2596.12
2587.2
2579.22
2572.14
2565.88
2560.4
2555.64
2551.56
2548.15
2545.45
2543.54
2542.55
2542.33
2542.97
2544.58
2546.75
2549.35
2552.41
2555.87
2559.77
2564.01
2568.27
2573.96
2578.04
2583.17
2587.62
2592.23
2596.75
2601.25
2605.63
2610.21
2614.38
2618.71
2622.81
2626.38
2629.7
2632.8
2635.86
2638.8
2641.87
2644.87
2647.81
2650.26
2652.62
2654.76
2656.75
2658.72
2660.64
2662.46
2664.14
2665.66
2667.18
2668.57
2669.92
2671.22
2672.49
2673.73
2674.92
2676.05
2677.08
2678.05
2678.93
2679.75
2680.48
2681.17
2681.79
2682.37
2682.9
2683.39
2683.85
2684.28
2684.7
2685.09
2685.47
2685.82
2686.16
2686.48
2686.79
2687.08
2687.35
2687.62
2687.88
2688.13
2688.37
2688.61
2688.85
2689.09
2689.38
3895.8
2972.8
2941.99
2932.12
2925.15
2923.77
2923.24
2920.78
2915.73
2908.74
2901.14
2893.38
2885.15
2876.4
2867.44
2858.24
2848.77
2838.86
2828.19
2816.39
2803.18
2788.4
2772.07
2754.36
2735.52
2715.83
2695.74
2676.11
2657.95
2641.87
2627.91
2615.71
2604.8
2594.86
2585.83
2577.71
2570.44
2563.98
2558.26
2553.26
2548.94
2545.28
2542.32
2540.16
2538.92
2538.46
2538.87
2540.25
2542.27
2544.73
2547.67
2551.02
2554.84
2559.01
2563.21
2568.84
2572.78
2577.85
2582.24
2586.9
2591.4
2595.83
2600.1
2604.64
2608.72
2612.92
2616.8
2620.36
2623.69
2626.68
2629.43
2632.06
2634.93
2637.8
2640.62
2642.97
2645.17
2647.09
2648.92
2650.69
2652.44
2654.06
2655.56
2656.99
2658.32
2659.57
2660.76
2661.91
2663.03
2664.14
2665.21
2666.24
2667.18
2668.06
2668.86
2669.61
2670.29
2670.92
2671.5
2672.04
2672.55
2673.02
2673.47
2673.9
2674.32
2674.71
2675.1
2675.47
2675.82
2676.15
2676.47
2676.78
2677.07
2677.35
2677.62
2677.89
2678.14
2678.4
2678.65
2678.9
2679.21
3895.71
2972.62
2941.35
2931.7
2924.82
2923.51
2923.02
2920.6
2915.56
2908.57
2900.97
2893.21
2884.97
2876.22
2867.25
2858.04
2848.55
2838.61
2827.9
2816.05
2802.77
2787.91
2771.49
2753.67
2734.71
2714.91
2694.73
2675.05
2656.85
2640.75
2626.77
2614.55
2603.6
2593.6
2584.48
2576.2
2568.75
2562.08
2556.13
2550.87
2546.3
2542.39
2539.18
2536.75
2535.22
2534.55
2534.73
2535.85
2537.72
2540.04
2542.83
2546.06
2549.8
2553.9
2558.07
2563.65
2567.47
2572.5
2576.88
2581.51
2585.96
2590.44
2594.68
2599.14
2603.1
2607.17
2610.82
2614.28
2617.54
2620.49
2623.07
2625.48
2628.15
2630.84
2633.47
2635.67
2637.7
2639.44
2641.08
2642.67
2644.21
2645.64
2647.01
2648.3
2649.51
2650.65
2651.73
2652.75
2653.74
2654.72
2655.66
2656.56
2657.38
2658.16
2658.86
2659.51
2660.11
2660.67
2661.19
2661.68
2662.14
2662.58
2663
2663.41
2663.81
2664.2
2664.58
2664.95
2665.3
2665.63
2665.96
2666.27
2666.56
2666.85
2667.12
2667.39
2667.65
2667.9
2668.16
2668.41
2668.72
3895.64
2972.42
2940.71
2931.29
2924.5
2923.26
2922.8
2920.41
2915.39
2908.41
2900.8
2893.03
2884.79
2876.04
2867.06
2857.84
2848.33
2838.37
2827.61
2815.71
2802.36
2787.43
2770.9
2752.98
2733.91
2713.99
2693.73
2674
2655.77
2639.65
2625.65
2613.4
2602.42
2592.37
2583.14
2574.72
2567.08
2560.19
2554
2548.5
2543.67
2539.51
2536.03
2533.32
2531.5
2530.64
2530.58
2531.4
2533.11
2535.3
2537.93
2541.03
2544.67
2548.71
2552.85
2558.38
2562.09
2567.07
2571.43
2576.09
2580.54
2585.07
2589.31
2593.72
2597.43
2601.26
2604.79
2608.22
2611.38
2614.21
2616.63
2618.95
2621.51
2624.05
2626.43
2628.42
2630.25
2631.83
2633.32
2634.7
2636.05
2637.31
2638.52
2639.66
2640.76
2641.76
2642.71
2643.59
2644.45
2645.29
2646.1
2646.86
2647.56
2648.23
2648.82
2649.39
2649.9
2650.39
2650.83
2651.27
2651.67
2652.07
2652.45
2652.82
2653.2
2653.57
2653.94
2654.29
2654.63
2654.96
2655.28
2655.58
2655.87
2656.16
2656.42
2656.69
2656.93
2657.18
2657.43
2657.68
2657.98
3895.64
2972.2
2940.07
2930.86
2924.16
2923
2922.59
2920.22
2915.22
2908.24
2900.63
2892.86
2884.61
2875.86
2866.87
2857.64
2848.12
2838.12
2827.33
2815.37
2801.96
2786.94
2770.32
2752.29
2733.11
2713.08
2692.74
2672.95
2654.7
2638.56
2624.54
2612.27
2601.25
2591.13
2581.8
2573.24
2565.42
2558.31
2551.88
2546.12
2541.03
2536.6
2532.85
2529.86
2527.76
2526.66
2526.35
2526.91
2528.42
2530.47
2532.96
2535.92
2539.44
2543.41
2547.52
2552.99
2556.66
2561.61
2565.96
2570.64
2575.14
2579.69
2583.83
2588.15
2591.68
2595.32
2598.7
2602.1
2605.23
2607.93
2610.15
2612.33
2614.75
2617.16
2619.32
2621.12
2622.78
2624.21
2625.57
2626.81
2628
2629.08
2630.11
2631.08
2632.01
2632.88
2633.69
2634.45
2635.19
2635.91
2636.58
2637.22
2637.8
2638.35
2638.84
2639.3
2639.73
2640.13
2640.5
2640.86
2641.2
2641.53
2641.86
2642.18
2642.51
2642.83
2643.16
2643.47
2643.79
2644.08
2644.38
2644.66
2644.93
2645.2
2645.45
2645.69
2645.93
2646.16
2646.4
2646.64
2646.92
3895.59
2971.98
2939.41
2930.43
2923.83
2922.73
2922.37
2920.04
2915.05
2908.08
2900.46
2892.69
2884.44
2875.67
2866.68
2857.44
2847.9
2837.88
2827.05
2815.03
2801.55
2786.45
2769.74
2751.6
2732.3
2712.17
2691.75
2671.92
2653.65
2637.48
2623.45
2611.15
2600.09
2589.92
2580.49
2571.78
2563.77
2556.45
2549.77
2543.75
2538.39
2533.68
2529.67
2526.4
2524.03
2522.63
2522.08
2522.41
2523.68
2525.6
2527.94
2530.75
2534.15
2538.03
2542.1
2547.5
2551.15
2556.09
2560.47
2565.13
2569.62
2574.18
2578.31
2582.48
2585.81
2589.32
2592.54
2595.83
2598.94
2601.61
2603.82
2605.83
2608.01
2610.24
2612.17
2613.86
2615.39
2616.72
2617.98
2619.09
2620.13
2621.03
2621.86
2622.62
2623.35
2624.03
2624.69
2625.32
2625.93
2626.53
2627.07
2627.58
2628.03
2628.46
2628.84
2629.2
2629.53
2629.85
2630.15
2630.43
2630.7
2630.97
2631.22
2631.47
2631.74
2632
2632.27
2632.52
2632.79
2633.03
2633.29
2633.52
2633.76
2633.99
2634.21
2634.43
2634.64
2634.85
2635.06
2635.29
2635.54
3895.69
2971.73
2938.75
2930
2923.49
2922.47
2922.15
2919.85
2914.88
2907.91
2900.29
2892.51
2884.26
2875.49
2866.49
2857.24
2847.68
2837.64
2826.76
2814.69
2801.14
2785.96
2769.16
2750.92
2731.51
2711.27
2690.76
2670.89
2652.6
2636.42
2622.37
2610.04
2598.95
2588.71
2579.19
2570.33
2562.14
2554.59
2547.66
2541.37
2535.73
2530.75
2526.46
2522.91
2520.24
2518.53
2517.77
2517.87
2518.87
2520.65
2522.85
2525.51
2528.77
2532.55
2536.59
2541.91
2545.55
2550.49
2554.9
2559.58
2564.07
2568.58
2572.73
2576.74
2579.86
2583.22
2586.34
2589.56
2592.56
2595.2
2597.47
2599.43
2601.41
2603.43
2605.06
2606.59
2608.02
2609.28
2610.48
2611.46
2612.36
2613.1
2613.74
2614.27
2614.77
2615.26
2615.75
2616.25
2616.74
2617.21
2617.61
2617.98
2618.3
2618.6
2618.85
2619.11
2619.34
2619.57
2619.78
2619.98
2620.17
2620.36
2620.53
2620.71
2620.89
2621.08
2621.27
2621.46
2621.65
2621.83
2622.02
2622.2
2622.38
2622.56
2622.74
2622.92
2623.09
2623.26
2623.44
2623.64
2623.87
3895.65
2971.48
2938.09
2929.56
2923.15
2922.21
2921.92
2919.65
2914.7
2907.74
2900.12
2892.34
2884.08
2875.31
2866.3
2857.04
2847.46
2837.39
2826.47
2814.35
2800.73
2785.47
2768.58
2750.23
2730.71
2710.37
2689.79
2669.87
2651.57
2635.38
2621.3
2608.95
2597.81
2587.52
2577.89
2568.9
2560.51
2552.74
2545.57
2539
2533.07
2527.81
2523.24
2519.41
2516.43
2514.41
2513.43
2513.28
2514
2515.62
2517.71
2520.23
2523.36
2527.01
2530.99
2536.21
2539.84
2544.79
2549.25
2553.95
2558.5
2562.89
2566.99
2570.86
2573.96
2577.18
2580.16
2583.31
2586.23
2588.79
2591.02
2592.97
2594.85
2596.74
2598.19
2599.58
2600.87
2602.01
2603.13
2603.99
2604.77
2605.37
2605.81
2606.13
2606.4
2606.69
2606.99
2607.32
2607.65
2607.96
2608.21
2608.43
2608.6
2608.75
2608.86
2608.99
2609.1
2609.22
2609.33
2609.45
2609.55
2609.65
2609.74
2609.83
2609.93
2610.03
2610.15
2610.25
2610.36
2610.47
2610.59
2610.7
2610.82
2610.93
2611.06
2611.18
2611.31
2611.44
2611.56
2611.69
2611.9
3895.81
2971.2
2937.41
2929.11
2922.81
2921.94
2921.7
2919.46
2914.53
2907.57
2899.95
2892.16
2883.9
2875.12
2866.11
2856.84
2847.25
2837.15
2826.19
2814.01
2800.32
2784.99
2768
2749.55
2729.91
2709.47
2688.81
2668.87
2650.55
2634.35
2620.25
2607.87
2596.69
2586.33
2576.61
2567.47
2558.9
2550.9
2543.47
2536.62
2530.4
2524.84
2519.98
2515.86
2512.58
2510.26
2509.01
2508.61
2509.08
2510.51
2512.49
2514.88
2517.88
2521.38
2525.31
2530.42
2534.05
2539.04
2543.54
2548.23
2552.78
2557.08
2561.18
2564.93
2568.1
2571.26
2574.09
2577.04
2579.96
2582.53
2584.67
2586.54
2588.31
2590.06
2591.46
2592.8
2593.93
2594.9
2595.81
2596.53
2597.19
2597.67
2597.96
2598.11
2598.2
2598.29
2598.4
2598.56
2598.7
2598.85
2598.93
2598.99
2599
2598.99
2598.96
2598.94
2598.91
2598.9
2598.89
2598.89
2598.89
2598.89
2598.88
2598.88
2598.88
2598.89
2598.91
2598.92
2598.94
2598.97
2599
2599.03
2599.08
2599.13
2599.19
2599.24
2599.32
2599.41
2599.51
2599.63
2599.67
3895.83
2970.91
2936.73
2928.66
2922.46
2921.67
2921.47
2919.27
2914.35
2907.4
2899.77
2891.98
2883.72
2874.94
2865.92
2856.64
2847.03
2836.9
2825.9
2813.66
2799.91
2784.5
2767.42
2748.86
2729.11
2708.57
2687.84
2667.87
2649.54
2633.34
2619.22
2606.8
2595.58
2585.16
2575.35
2566.06
2557.3
2549.07
2541.38
2534.25
2527.72
2521.86
2516.7
2512.29
2508.7
2506.09
2504.53
2503.87
2504.13
2505.34
2507.21
2509.48
2512.36
2515.7
2519.55
2524.54
2528.18
2533.16
2537.67
2542.45
2547
2551.14
2555.3
2558.99
2562.19
2565.35
2568.12
2570.83
2573.69
2576.31
2578.38
2580.21
2581.84
2583.46
2584.83
2586.13
2587.16
2587.97
2588.66
2589.19
2589.69
2590.04
2590.22
2590.24
2590.17
2590.09
2590
2589.95
2589.9
2589.84
2589.75
2589.63
2589.47
2589.3
2589.1
2588.93
2588.74
2588.59
2588.44
2588.31
2588.18
2588.06
2587.94
2587.82
2587.72
2587.62
2587.54
2587.46
2587.38
2587.31
2587.25
2587.21
2587.17
2587.15
2587.13
2587.12
2587.14
2587.17
2587.28
2587.47
2587.24
3896.03
2970.61
2936.05
2928.2
2922.11
2921.39
2921.24
2919.07
2914.18
2907.23
2899.6
2891.8
2883.54
2874.75
2865.73
2856.44
2846.81
2836.65
2825.61
2813.32
2799.5
2784.01
2766.84
2748.18
2728.32
2707.67
2686.88
2666.88
2648.55
2632.33
2618.19
2605.74
2594.48
2584
2574.08
2564.66
2555.71
2547.25
2539.3
2531.88
2525.04
2518.86
2513.39
2508.67
2504.78
2501.84
2499.94
2499.09
2499.11
2500.05
2501.82
2504
2506.76
2509.96
2513.71
2518.58
2522.23
2527.22
2531.75
2536.61
2541.16
2545.15
2549.33
2553.05
2556.35
2559.46
2562.14
2564.71
2567.48
2570
2572.09
2573.96
2575.52
2577.02
2578.32
2579.52
2580.44
2581.08
2581.6
2581.98
2582.32
2582.52
2582.58
2582.49
2582.3
2582.07
2581.81
2581.56
2581.31
2581.05
2580.76
2580.46
2580.13
2579.79
2579.42
2579.07
2578.72
2578.4
2578.08
2577.79
2577.5
2577.24
2576.98
2576.73
2576.49
2576.27
2576.07
2575.87
2575.68
2575.51
2575.34
2575.2
2575.05
2574.94
2574.82
2574.74
2574.66
2574.62
2574.68
2574.89
2574.41
3896.14
2970.29
2935.35
2927.73
2921.76
2921.12
2921.01
2918.87
2914
2907.06
2899.42
2891.62
2883.36
2874.57
2865.54
2856.24
2846.59
2836.41
2825.33
2812.98
2799.09
2783.52
2766.26
2747.49
2727.52
2706.78
2685.92
2665.89
2647.56
2631.34
2617.18
2604.7
2593.39
2582.84
2572.84
2563.27
2554.13
2545.44
2537.22
2529.51
2522.36
2515.85
2510.06
2505.03
2500.82
2497.55
2495.33
2494.24
2494
2494.69
2496.33
2498.43
2501.09
2504.16
2507.81
2512.53
2516.21
2521.21
2525.76
2530.62
2535.12
2539.13
2543.36
2547.07
2550.52
2553.56
2556.09
2558.62
2561.38
2563.76
2565.82
2567.77
2569.38
2570.82
2571.99
2572.99
2573.74
2574.23
2574.62
2574.88
2575.06
2575.12
2575.07
2574.87
2574.56
2574.18
2573.77
2573.34
2572.9
2572.45
2571.98
2571.49
2570.98
2570.46
2569.92
2569.39
2568.86
2568.35
2567.85
2567.39
2566.93
2566.49
2566.07
2565.66
2565.27
2564.91
2564.57
2564.24
2563.92
2563.63
2563.34
2563.09
2562.83
2562.62
2562.39
2562.21
2562.03
2561.92
2561.92
2562.12
2561.39
3896.35
2969.96
2934.65
2927.26
2921.4
2920.84
2920.78
2918.67
2913.81
2906.88
2899.25
2891.44
2883.17
2874.38
2865.35
2856.04
2846.38
2836.16
2825.04
2812.63
2798.68
2783.03
2765.68
2746.81
2726.73
2705.89
2684.97
2664.92
2646.59
2630.36
2616.19
2603.66
2592.3
2581.69
2571.6
2561.89
2552.56
2543.64
2535.15
2527.14
2519.66
2512.82
2506.69
2501.33
2496.8
2493.19
2490.66
2489.27
2488.78
2489.23
2490.7
2492.75
2495.33
2498.29
2501.83
2506.43
2510.1
2515.09
2519.7
2524.59
2529.03
2533.08
2537.37
2541.04
2544.59
2547.62
2550.03
2552.58
2555.34
2557.67
2559.76
2561.68
2563.29
2564.71
2565.75
2566.56
2567.12
2567.5
2567.81
2567.96
2568
2567.92
2567.74
2567.4
2566.96
2566.42
2565.85
2565.25
2564.64
2564.01
2563.36
2562.69
2562.01
2561.3
2560.58
2559.87
2559.15
2558.46
2557.77
2557.12
2556.47
2555.86
2555.25
2554.67
2554.12
2553.58
2553.09
2552.6
2552.15
2551.71
2551.29
2550.91
2550.53
2550.2
2549.86
2549.58
2549.29
2549.09
2549.01
2549.2
2548.24
3896.57
2969.62
2933.94
2926.78
2921.04
2920.55
2920.54
2918.47
2913.63
2906.71
2899.07
2891.26
2882.99
2874.2
2865.16
2855.84
2846.16
2835.92
2824.75
2812.29
2798.26
2782.53
2765.09
2746.12
2725.93
2704.99
2684.02
2663.95
2645.62
2629.4
2615.2
2602.64
2591.23
2580.56
2570.36
2560.52
2551
2541.85
2533.09
2524.78
2516.98
2509.78
2503.3
2497.6
2492.74
2488.79
2485.93
2484.21
2483.46
2483.69
2484.96
2486.95
2489.47
2492.35
2495.78
2500.24
2503.9
2508.88
2513.55
2518.5
2522.93
2527
2531.27
2534.98
2538.64
2541.66
2543.99
2546.55
2549.29
2551.65
2553.83
2555.75
2557.31
2558.64
2559.58
2560.23
2560.66
2560.98
2561.25
2561.32
2561.24
2561.02
2560.7
2560.21
2559.61
2558.89
2558.13
2557.36
2556.58
2555.78
2554.96
2554.12
2553.26
2552.38
2551.47
2550.57
2549.66
2548.77
2547.89
2547.04
2546.2
2545.39
2544.6
2543.83
2543.08