/*--------------------------------*- C++ -*----------------------------------*\
| =========                 |                                                 |
| \\      /  F ield         | OpenFOAM: The Open Source CFD Toolbox           |
|  \\    /   O peration     | Version:  2412                                  |
|   \\  /    A nd           | Website:  www.openfoam.com                      |
|    \\/     M anipulation  |                                                 |
\*---------------------------------------------------------------------------*/
FoamFile
{
    version     2.0;
    format      ascii;
    arch        "LSB;label=32;scalar=64";
    class       volScalarField;
    location    "0.057";
    object      rho;
}
// * * * * * * * * * * * * * * * * * * * * * * * * * * * * * * * * * * * * * //

dimensions      [1 -3 0 0 0 0 0];

internalField   nonuniform List<scalar> 
9771
(
0.0280072
0.0374002
0.0390798
0.0395376
0.0397598
0.0398922
0.0400002
0.0400984
0.0401968
0.0403004
0.0279654
0.0373426
0.0390713
0.0395355
0.039758
0.0398906
0.0399988
0.0400968
0.0401951
0.0402985
0.0279241
0.0372818
0.0390633
0.0395335
0.0397562
0.0398891
0.0399974
0.0400953
0.0401934
0.0402965
0.0278863
0.0372192
0.0390557
0.0395316
0.0397544
0.0398876
0.039996
0.0400938
0.0401916
0.0402946
0.0278548
0.0371517
0.0390484
0.0395297
0.0397527
0.0398861
0.0399946
0.0400923
0.0401899
0.0402926
0.0278263
0.0370801
0.0390417
0.0395277
0.0397509
0.0398846
0.0399933
0.0400908
0.0401882
0.0402907
0.0278008
0.0370026
0.0390354
0.0395258
0.0397491
0.0398831
0.0399919
0.0400892
0.0401864
0.0402887
0.0403968
0.0405073
0.0406148
0.0407157
0.0408077
0.0408893
0.0409598
0.0410201
0.0410733
0.041123
0.0411707
0.0412162
0.0412599
0.0413045
0.0413523
0.0414041
0.0414605
0.0415233
0.0415951
0.0416773
0.0417688
0.0418669
0.0277737
0.0369184
0.0390299
0.0395239
0.0397474
0.0398816
0.0399905
0.0400877
0.0401847
0.0402867
0.0403947
0.040505
0.0406124
0.0407133
0.0408054
0.0408869
0.0409574
0.0410177
0.0410709
0.0411205
0.0411682
0.0412136
0.0412572
0.0413017
0.0413494
0.0414012
0.0414576
0.0415207
0.041593
0.0416759
0.0417682
0.0418669
0.0419683
0.0420699
0.0421698
0.0422665
0.0423591
0.0424473
0.0277514
0.0368279
0.0390248
0.039522
0.0397456
0.0398801
0.0399891
0.0400862
0.0401829
0.0402847
0.0403924
0.0405027
0.0406101
0.040711
0.040803
0.0408846
0.040955
0.0410153
0.0410684
0.041118
0.0411656
0.0412109
0.0412544
0.0412988
0.0413465
0.0413982
0.0414547
0.0415181
0.0415909
0.0416746
0.0417675
0.0418668
0.0419683
0.0420699
0.0421699
0.0422664
0.0423588
0.0424468
0.0425302
0.0277259
0.0367346
0.0390211
0.0395201
0.0397439
0.0398787
0.0399877
0.0400847
0.0401811
0.0402827
0.0403902
0.0405003
0.0406077
0.0407086
0.0408006
0.0408822
0.0409526
0.0410129
0.041066
0.0411155
0.041163
0.0412082
0.0412517
0.041296
0.0413436
0.0413953
0.0414519
0.0415155
0.041589
0.0416734
0.041767
0.0418668
0.0419682
0.0420699
0.04217
0.0422663
0.0423586
0.0424462
0.0425293
0.0277132
0.0366636
0.0390186
0.0395184
0.0397422
0.0398772
0.0399864
0.0400832
0.0401795
0.0402808
0.0403881
0.040498
0.0406053
0.0407061
0.0407982
0.0408798
0.0409502
0.0410104
0.0410635
0.041113
0.0411604
0.0412055
0.0412489
0.0412932
0.0413407
0.0413924
0.0414491
0.0415131
0.0415871
0.0416724
0.0417665
0.0418666
0.0419681
0.04207
0.0421701
0.0422662
0.0423583
0.0424457
0.0425284
0.0247975
0.0366311
0.0391429
0.0394903
0.0397038
0.0398489
0.039962
0.0400575
0.040151
0.0402491
0.0403537
0.0404621
0.0405689
0.0406703
0.0407632
0.0408456
0.0409167
0.0409774
0.0410309
0.0410805
0.0411279
0.0411729
0.0412165
0.0412613
0.0413101
0.0413642
0.0414251
0.0414951
0.0415761
0.0416676
0.0417661
0.0418681
0.0419713
0.0420732
0.0421718
0.0422657
0.0423548
0.0424388
0.0425179
0.0425925
0.0426632
0.0427302
0.0427938
0.0428539
0.0429109
0.0429655
0.0430179
0.0430685
0.0431173
0.0431647
0.043211
0.0432565
0.0433009
0.0433438
0.0433852
0.0434255
0.0434651
0.0435042
0.0435423
0.043579
0.0436142
0.0436482
0.0436813
0.0437135
0.0437444
0.0437738
0.0438015
0.043827
0.0438505
0.0438723
0.043893
0.0439132
0.0439325
0.0439507
0.0439674
0.0439823
0.0439954
0.0440067
0.0440159
0.0283764
0.0385937
0.0393899
0.0394605
0.0396395
0.0398005
0.039918
0.0400103
0.0400983
0.0401904
0.0402897
0.0403948
0.0405008
0.0406028
0.040697
0.0407807
0.0408528
0.0409145
0.0409686
0.0410186
0.0410659
0.0411109
0.0411549
0.0412012
0.041253
0.0413127
0.0413829
0.0414656
0.04156
0.0416622
0.0417683
0.0418751
0.04198
0.0420808
0.0421757
0.0422651
0.0423482
0.0424253
0.0424969
0.0425638
0.0426263
0.0426846
0.0427388
0.0427894
0.042837
0.0428819
0.0429242
0.0429642
0.0430024
0.0430393
0.0430745
0.0431071
0.0431368
0.0431645
0.0431912
0.0432174
0.0432419
0.0432633
0.0432812
0.0432964
0.0433106
0.0433249
0.0433393
0.0433527
0.0433643
0.0433734
0.0433798
0.0433834
0.0433848
0.0433848
0.0433844
0.0433844
0.0433846
0.0433843
0.0433828
0.0433803
0.0433768
0.0433726
0.0433678
0.0309957
0.0391544
0.039506
0.0394661
0.039621
0.039778
0.0398916
0.0399788
0.0400604
0.0401443
0.0402351
0.0403331
0.0404347
0.0405346
0.0406283
0.0407124
0.0407853
0.040848
0.0409033
0.0409541
0.0410023
0.0410485
0.0410948
0.0411452
0.0412042
0.0412755
0.0413611
0.0414587
0.0415644
0.0416744
0.0417854
0.0418933
0.0419956
0.042091
0.0421796
0.0422607
0.0423346
0.0424023
0.0424647
0.0425225
0.0425756
0.0426245
0.0426695
0.0427115
0.0427509
0.0427874
0.0428209
0.0428522
0.0428822
0.0429109
0.0429366
0.0429584
0.0429771
0.0429946
0.0430128
0.0430307
0.0430463
0.0430578
0.0430657
0.0430713
0.0430764
0.0430816
0.0430872
0.0430923
0.0430965
0.0430992
0.0431004
0.0430999
0.0430974
0.0430935
0.043089
0.0430845
0.0430803
0.0430763
0.043072
0.0430675
0.0430629
0.0430583
0.0430537
0.0322466
0.0388416
0.0394274
0.0394592
0.039625
0.0397656
0.0398739
0.0399575
0.0400336
0.0401095
0.0401908
0.0402797
0.040374
0.0404693
0.0405602
0.0406431
0.0407159
0.0407792
0.0408354
0.0408875
0.0409373
0.0409862
0.0410371
0.0410957
0.0411675
0.0412557
0.041357
0.0414669
0.0415816
0.0416962
0.0418066
0.0419102
0.0420058
0.0420929
0.0421717
0.0422427
0.0423073
0.0423664
0.0424207
0.0424702
0.042515
0.0425557
0.0425932
0.0426283
0.0426607
0.0426899
0.0427158
0.04274
0.0427633
0.0427853
0.0428042
0.0428194
0.0428318
0.0428434
0.0428554
0.0428673
0.0428774
0.0428848
0.0428896
0.0428926
0.0428948
0.0428967
0.0428985
0.0429002
0.0429014
0.0429021
0.0429021
0.0429013
0.0428995
0.042897
0.0428941
0.0428909
0.0428877
0.0428847
0.0428816
0.0428786
0.0428755
0.0428724
0.0428693
0.0336348
0.0385964
0.0393028
0.0393892
0.039599
0.0397441
0.0398573
0.0399421
0.0400153
0.0400845
0.0401565
0.040235
0.04032
0.040408
0.0404939
0.0405738
0.0406454
0.0407087
0.0407658
0.0408194
0.040872
0.0409257
0.0409852
0.0410573
0.0411471
0.0412525
0.0413676
0.0414879
0.0416073
0.0417212
0.0418267
0.0419229
0.0420095
0.0420873
0.0421566
0.0422187
0.0422749
0.042326
0.0423726
0.0424147
0.0424523
0.0424863
0.0425178
0.0425475
0.0425748
0.0425988
0.0426195
0.0426385
0.0426568
0.0426742
0.0426893
0.0427015
0.0427115
0.0427203
0.0427286
0.0427366
0.0427438
0.0427496
0.042754
0.042757
0.0427592
0.0427607
0.0427618
0.0427625
0.042763
0.0427632
0.0427632
0.0427628
0.0427621
0.0427611
0.0427598
0.0427582
0.0427566
0.0427549
0.0427532
0.0427515
0.0427498
0.042748
0.0427462
0.0348264
0.0384008
0.0391296
0.0392945
0.0395539
0.0397112
0.0398374
0.0399284
0.0400014
0.0400662
0.0401304
0.040199
0.0402736
0.0403525
0.0404313
0.0405064
0.0405753
0.0406377
0.0406953
0.0407511
0.040808
0.0408699
0.040943
0.0410335
0.0411423
0.041263
0.04139
0.041516
0.0416353
0.0417447
0.0418428
0.0419301
0.0420075
0.042076
0.0421367
0.0421908
0.0422395
0.0422836
0.0423236
0.0423595
0.0423913
0.0424199
0.0424465
0.0424718
0.0424952
0.0425158
0.0425333
0.0425488
0.0425634
0.0425773
0.04259
0.042601
0.0426102
0.0426179
0.0426246
0.0426306
0.0426362
0.0426412
0.0426454
0.0426488
0.0426514
0.0426534
0.0426548
0.0426557
0.0426563
0.0426567
0.0426568
0.0426568
0.0426567
0.0426563
0.0426558
0.0426552
0.0426545
0.0426537
0.0426529
0.042652
0.0426511
0.0426502
0.0426492
0.0358314
0.0382966
0.0389443
0.0392428
0.0395191
0.039677
0.0398159
0.0399155
0.03999
0.0400521
0.0401101
0.0401698
0.0402344
0.0403033
0.0403737
0.0404424
0.0405072
0.0405678
0.0406258
0.0406844
0.040748
0.0408222
0.0409138
0.0410251
0.0411509
0.0412851
0.0414192
0.0415462
0.0416617
0.0417642
0.041854
0.0419323
0.0420011
0.0420612
0.0421141
0.0421612
0.0422036
0.0422421
0.0422769
0.042308
0.0423355
0.0423601
0.0423828
0.0424045
0.0424248
0.0424431
0.0424588
0.0424723
0.0424844
0.0424958
0.0425067
0.0425166
0.0425252
0.0425326
0.0425388
0.0425442
0.0425491
0.0425536
0.0425577
0.0425613
0.0425643
0.0425668
0.0425689
0.0425705
0.0425717
0.0425726
0.0425733
0.0425737
0.042574
0.0425741
0.0425741
0.0425741
0.0425739
0.0425737
0.0425733
0.042573
0.0425726
0.0425721
0.0425715
0.0366432
0.0382897
0.0387574
0.0392225
0.0394694
0.039642
0.0397961
0.0399032
0.0399799
0.0400406
0.0400941
0.0401465
0.0402016
0.0402605
0.0403216
0.040383
0.0404428
0.0405008
0.0405592
0.0406218
0.0406952
0.0407866
0.0408998
0.0410301
0.0411712
0.0413144
0.041451
0.0415751
0.0416843
0.0417788
0.04186
0.0419303
0.0419912
0.0420441
0.0420906
0.0421318
0.042169
0.0422029
0.0422336
0.0422611
0.0422856
0.0423074
0.0423273
0.0423461
0.042364
0.0423807
0.0423954
0.0424081
0.0424192
0.0424292
0.0424386
0.0424475
0.0424555
0.0424625
0.0424687
0.042474
0.0424787
0.042483
0.042487
0.0424906
0.0424938
0.0424966
0.0424991
0.0425012
0.042503
0.0425046
0.0425058
0.0425069
0.0425078
0.0425085
0.042509
0.0425094
0.0425098
0.0425101
0.0425103
0.0425103
0.0425103
0.0425103
0.0425106
0.0372703
0.0383599
0.0386974
0.0392131
0.0394244
0.0396173
0.0397822
0.0398941
0.0399721
0.0400312
0.0400808
0.040127
0.0401737
0.0402231
0.0402751
0.0403288
0.0403831
0.0404384
0.0404976
0.0405664
0.0406537
0.0407659
0.0408999
0.0410472
0.0412
0.0413475
0.041482
0.0416001
0.0417013
0.0417873
0.0418605
0.0419235
0.0419776
0.0420247
0.0420661
0.042103
0.0421364
0.0421668
0.0421945
0.0422195
0.0422419
0.0422619
0.0422799
0.0422967
0.0423126
0.0423278
0.0423417
0.0423541
0.0423649
0.0423745
0.0423833
0.0423914
0.0423989
0.0424058
0.0424118
0.0424172
0.0424221
0.0424264
0.0424303
0.0424339
0.0424372
0.0424402
0.0424429
0.0424454
0.0424476
0.0424496
0.0424513
0.0424529
0.0424543
0.0424555
0.0424566
0.0424574
0.0424584
0.0424591
0.0424596
0.04246
0.0424606
0.042461
0.0424616
0.0377556
0.038452
0.0386923
0.0392047
0.0394072
0.0396101
0.0397737
0.0398875
0.0399669
0.0400247
0.0400704
0.0401109
0.04015
0.0401905
0.0402336
0.0402798
0.0403288
0.040382
0.0404435
0.0405216
0.0406272
0.0407608
0.0409132
0.0410751
0.0412342
0.0413806
0.0415091
0.0416189
0.0417113
0.0417893
0.0418557
0.0419124
0.0419615
0.0420044
0.0420422
0.0420759
0.0421065
0.0421344
0.04216
0.0421832
0.0422042
0.042223
0.0422399
0.0422554
0.0422699
0.0422837
0.0422967
0.0423086
0.0423194
0.0423289
0.0423375
0.0423454
0.0423526
0.0423593
0.0423653
0.0423708
0.0423757
0.0423802
0.0423842
0.0423879
0.0423913
0.0423944
0.0423973
0.0423999
0.0424023
0.0424046
0.0424067
0.0424085
0.0424103
0.0424118
0.0424133
0.0424146
0.0424158
0.0424168
0.0424178
0.0424185
0.0424194
0.0424202
0.0424212
0.0381207
0.038559
0.0387433
0.0392437
0.0394142
0.0396135
0.0397705
0.0398849
0.0399649
0.040021
0.0400632
0.0400981
0.0401299
0.040162
0.0401968
0.040236
0.0402805
0.0403327
0.0403991
0.0404913
0.0406178
0.0407707
0.0409396
0.0411103
0.0412698
0.0414103
0.04153
0.0416304
0.0417145
0.0417858
0.0418464
0.0418986
0.041944
0.0419839
0.0420193
0.0420509
0.0420795
0.0421057
0.0421297
0.0421517
0.0421717
0.0421898
0.0422062
0.042221
0.0422346
0.0422473
0.0422593
0.0422706
0.0422809
0.0422904
0.0422989
0.0423068
0.042314
0.0423207
0.0423267
0.0423323
0.0423373
0.0423419
0.0423461
0.0423499
0.0423534
0.0423567
0.0423597
0.0423625
0.0423651
0.0423675
0.0423697
0.0423717
0.0423736
0.0423754
0.042377
0.0423784
0.0423798
0.042381
0.0423821
0.0423832
0.0423842
0.0423851
0.0423861
0.0384002
0.0386609
0.0387971
0.0392828
0.0394292
0.0396247
0.039774
0.0398887
0.039968
0.0400208
0.0400592
0.0400885
0.0401133
0.0401374
0.0401644
0.0401973
0.0402382
0.0402916
0.040367
0.0404785
0.0406249
0.0407956
0.0409759
0.0411489
0.0413029
0.0414341
0.0415438
0.0416354
0.0417126
0.0417783
0.0418346
0.0418834
0.0419262
0.041964
0.0419976
0.0420278
0.0420552
0.0420801
0.0421031
0.0421243
0.0421436
0.0421613
0.0421773
0.0421918
0.0422051
0.0422172
0.0422285
0.0422391
0.0422489
0.042258
0.0422663
0.042274
0.0422811
0.0422877
0.0422938
0.0422994
0.0423045
0.0423093
0.0423136
0.0423177
0.0423214
0.0423249
0.0423281
0.0423311
0.0423338
0.0423363
0.0423387
0.0423408
0.0423428
0.0423447
0.0423464
0.042348
0.0423495
0.0423509
0.0423522
0.0423535
0.0423548
0.042356
0.0423571
0.0386152
0.0387564
0.0388638
0.0393362
0.039458
0.039643
0.0397804
0.039894
0.0399736
0.0400243
0.0400587
0.0400828
0.0401009
0.0401173
0.0401368
0.0401639
0.0402027
0.0402603
0.0403507
0.0404825
0.0406483
0.0408334
0.0410183
0.0411867
0.0413312
0.0414516
0.0415517
0.0416356
0.0417072
0.0417684
0.0418213
0.0418675
0.0419083
0.0419446
0.0419771
0.0420065
0.042033
0.0420572
0.0420795
0.0421
0.0421189
0.0421363
0.0421521
0.0421666
0.0421797
0.0421917
0.0422027
0.0422129
0.0422223
0.0422311
0.0422392
0.0422466
0.0422536
0.0422599
0.0422658
0.0422712
0.0422763
0.042281
0.0422854
0.0422894
0.0422932
0.0422968
0.0423001
0.0423031
0.042306
0.0423086
0.0423111
0.0423133
0.0423155
0.0423175
0.0423195
0.0423213
0.042323
0.0423246
0.0423261
0.0423275
0.042329
0.0423304
0.0423317
0.0387806
0.0388406
0.0389348
0.0393913
0.0394921
0.0396633
0.0397873
0.0398989
0.0399791
0.0400293
0.040061
0.0400803
0.0400922
0.0401016
0.0401142
0.0401363
0.0401748
0.0402413
0.0403505
0.0405033
0.0406871
0.04088
0.0410621
0.041221
0.0413539
0.0414637
0.0415553
0.0416329
0.0416994
0.041757
0.0418072
0.0418515
0.0418908
0.0419261
0.0419579
0.0419867
0.0420128
0.0420366
0.0420584
0.0420786
0.0420971
0.0421142
0.0421299
0.0421442
0.0421573
0.0421692
0.0421802
0.0421902
0.0421995
0.0422081
0.042216
0.0422234
0.0422301
0.0422364
0.0422422
0.0422475
0.0422525
0.0422571
0.0422614
0.0422654
0.0422691
0.0422725
0.0422757
0.0422787
0.0422815
0.0422841
0.0422866
0.0422889
0.0422912
0.0422933
0.0422953
0.0422972
0.042299
0.0423007
0.0423023
0.0423039
0.0423053
0.0423069
0.0423083
0.0389142
0.0389167
0.0390053
0.0394419
0.0395294
0.0396857
0.0397948
0.0399019
0.0399826
0.0400338
0.0400642
0.0400799
0.0400869
0.0400905
0.0400972
0.0401153
0.0401565
0.0402366
0.0403669
0.0405412
0.0407371
0.0409304
0.0411039
0.0412505
0.0413716
0.0414718
0.0415561
0.0416282
0.0416905
0.0417451
0.0417932
0.0418359
0.0418741
0.0419086
0.04194
0.0419684
0.0419943
0.0420179
0.0420396
0.0420594
0.0420777
0.0420946
0.04211
0.0421242
0.0421372
0.0421491
0.04216
0.04217
0.0421793
0.0421877
0.0421956
0.0422028
0.0422095
0.0422157
0.0422214
0.0422267
0.0422317
0.0422363
0.0422406
0.0422446
0.0422483
0.0422517
0.042255
0.0422579
0.0422608
0.0422634
0.0422659
0.0422682
0.0422705
0.0422726
0.0422745
0.0422764
0.0422782
0.0422798
0.0422814
0.0422828
0.0422846
0.042286
0.0422877
0.0390181
0.0389881
0.0390799
0.0394802
0.0395727
0.0397107
0.0398034
0.0399034
0.0399836
0.0400363
0.0400666
0.0400802
0.0400839
0.0400834
0.0400859
0.0401025
0.0401504
0.0402478
0.0404011
0.0405923
0.0407933
0.0409804
0.0411417
0.0412754
0.0413857
0.0414774
0.0415553
0.0416226
0.0416814
0.0417333
0.0417796
0.041821
0.0418584
0.0418924
0.0419233
0.0419516
0.0419774
0.042001
0.0420225
0.0420423
0.0420604
0.042077
0.0420923
0.0421063
0.0421191
0.0421309
0.0421418
0.0421517
0.0421609
0.0421693
0.0421771
0.0421843
0.0421909
0.042197
0.0422027
0.0422081
0.042213
0.0422176
0.0422219
0.042226
0.0422297
0.0422333
0.0422366
0.0422397
0.0422426
0.0422453
0.0422479
0.0422504
0.0422527
0.042255
0.0422571
0.042259
0.0422608
0.0422624
0.0422643
0.0422659
0.0422675
0.0422691
0.0422708
0.0391052
0.0390593
0.039161
0.039495
0.0396157
0.0397331
0.0398134
0.0399049
0.0399828
0.0400366
0.0400673
0.0400797
0.0400818
0.0400794
0.0400806
0.0400993
0.0401582
0.0402767
0.0404509
0.0406525
0.0408511
0.0410272
0.0411749
0.0412964
0.041397
0.0414815
0.0415539
0.041617
0.0416726
0.0417223
0.0417669
0.0418073
0.0418439
0.0418774
0.041908
0.0419361
0.0419619
0.0419854
0.0420069
0.0420266
0.0420446
0.0420611
0.0420762
0.0420901
0.0421028
0.0421145
0.0421252
0.0421351
0.0421442
0.0421526
0.0421603
0.0421675
0.0421742
0.0421803
0.0421861
0.0421915
0.0421965
0.0422012
0.0422056
0.0422097
0.0422136
0.0422172
0.0422206
0.0422238
0.0422269
0.0422297
0.0422324
0.042235
0.0422373
0.0422398
0.042242
0.0422439
0.042246
0.0422479
0.0422498
0.0422516
0.0422533
0.0422552
0.042257
0.0391793
0.039128
0.0392462
0.0395059
0.0396458
0.0397466
0.0398231
0.0399069
0.0399812
0.0400353
0.040066
0.0400785
0.0400802
0.0400773
0.0400796
0.0401057
0.0401825
0.0403244
0.0405139
0.0407175
0.0409072
0.0410696
0.0412038
0.0413144
0.0414067
0.0414849
0.0415524
0.0416118
0.0416647
0.0417123
0.0417555
0.0417948
0.0418308
0.0418637
0.041894
0.0419218
0.0419474
0.0419708
0.0419923
0.0420119
0.0420298
0.0420463
0.0420613
0.0420751
0.0420878
0.0420994
0.0421101
0.0421199
0.042129
0.0421374
0.0421452
0.0421525
0.0421592
0.0421654
0.0421713
0.0421768
0.042182
0.0421868
0.0421914
0.0421957
0.0421997
0.0422035
0.0422071
0.0422105
0.0422137
0.0422167
0.0422196
0.0422223
0.0422247
0.0422273
0.0422295
0.0422315
0.0422337
0.0422355
0.0422375
0.0422393
0.0422411
0.0422429
0.0422447
0.039244
0.0391944
0.0393252
0.039519
0.0396685
0.0397564
0.039833
0.0399096
0.0399795
0.040033
0.0400637
0.0400767
0.0400789
0.0400765
0.0400827
0.0401227
0.0402243
0.0403887
0.0405865
0.040784
0.0409598
0.0411073
0.041229
0.04133
0.0414151
0.0414879
0.0415513
0.0416075
0.041658
0.0417038
0.0417456
0.0417839
0.0418191
0.0418514
0.0418812
0.0419085
0.0419338
0.0419569
0.0419782
0.0419977
0.0420156
0.042032
0.042047
0.0420608
0.0420735
0.0420852
0.0420959
0.0421059
0.0421151
0.0421236
0.0421316
0.042139
0.0421459
0.0421523
0.0421584
0.0421641
0.0421694
0.0421744
0.0421791
0.0421836
0.0421877
0.0421917
0.0421955
0.0421991
0.0422026
0.0422058
0.0422089
0.0422118
0.0422146
0.0422173
0.0422198
0.0422221
0.0422243
0.0422264
0.0422285
0.0422304
0.0422324
0.0422344
0.0422365
0.0393002
0.0392513
0.039393
0.039535
0.0396894
0.0397655
0.0398428
0.0399129
0.0399783
0.0400305
0.0400611
0.0400744
0.0400777
0.040077
0.0400908
0.0401523
0.0402822
0.0404654
0.0406645
0.0408498
0.0410089
0.0411413
0.0412513
0.0413438
0.0414227
0.0414909
0.0415508
0.0416043
0.0416527
0.0416969
0.0417375
0.0417747
0.0418089
0.0418404
0.0418695
0.0418962
0.0419209
0.0419437
0.0419646
0.0419839
0.0420016
0.042018
0.042033
0.0420469
0.0420597
0.0420715
0.0420824
0.0420926
0.042102
0.0421108
0.042119
0.0421267
0.0421338
0.0421406
0.042147
0.0421529
0.0421585
0.0421637
0.0421686
0.0421734
0.0421778
0.0421821
0.0421861
0.0421898
0.0421934
0.0421967
0.0421999
0.042203
0.042206
0.0422088
0.0422115
0.0422141
0.0422165
0.0422188
0.042221
0.0422232
0.0422255
0.0422277
0.0422299
0.0393497
0.0393084
0.0394495
0.039553
0.0397095
0.0397748
0.0398526
0.0399167
0.0399781
0.0400283
0.0400586
0.0400722
0.0400771
0.0400799
0.0401061
0.0401953
0.0403534
0.0405493
0.0407435
0.0409134
0.041055
0.0411725
0.0412716
0.0413563
0.0414298
0.041494
0.041551
0.0416023
0.041649
0.0416918
0.041731
0.0417671
0.0418003
0.0418308
0.041859
0.0418849
0.0419089
0.041931
0.0419515
0.0419704
0.041988
0.0420042
0.0420192
0.0420332
0.0420461
0.0420581
0.0420693
0.0420798
0.0420895
0.0420986
0.0421071
0.0421151
0.0421227
0.0421298
0.0421364
0.0421427
0.0421486
0.0421542
0.0421595
0.0421645
0.0421692
0.0421737
0.0421779
0.0421818
0.0421856
0.0421891
0.0421925
0.0421958
0.0421989
0.042202
0.0422048
0.0422074
0.04221
0.0422123
0.0422146
0.0422169
0.0422192
0.0422215
0.0422237
0.0393926
0.0393566
0.0394953
0.0395712
0.0397282
0.0397856
0.0398629
0.0399214
0.0399788
0.0400265
0.0400566
0.0400705
0.040077
0.0400863
0.0401316
0.040252
0.0404341
0.0406358
0.0408202
0.0409736
0.0410984
0.041202
0.0412907
0.0413681
0.0414366
0.0414974
0.041552
0.0416015
0.0416467
0.0416881
0.0417261
0.0417609
0.041793
0.0418224
0.0418496
0.0418746
0.0418977
0.0419192
0.0419391
0.0419576
0.0419749
0.0419909
0.0420059
0.0420199
0.042033
0.0420452
0.0420566
0.0420673
0.0420774
0.0420869
0.0420958
0.0421041
0.042112
0.0421194
0.0421264
0.0421331
0.0421393
0.0421453
0.0421509
0.0421561
0.0421612
0.0421659
0.0421703
0.0421746
0.0421786
0.0421824
0.042186
0.0421895
0.0421927
0.0421957
0.0421985
0.0422012
0.0422036
0.042206
0.0422083
0.0422106
0.0422132
0.0422156
0.0422181
0.0394306
0.0393999
0.0395329
0.0395895
0.0397454
0.039797
0.039873
0.0399265
0.0399804
0.0400252
0.0400555
0.0400697
0.0400783
0.0400979
0.0401692
0.0403212
0.0405206
0.040721
0.0408926
0.0410297
0.0411394
0.0412305
0.0413095
0.0413799
0.0414435
0.0415012
0.0415537
0.0416016
0.0416453
0.0416855
0.0417223
0.041756
0.0417869
0.0418152
0.0418413
0.0418654
0.0418877
0.0419084
0.0419277
0.0419458
0.0419626
0.0419785
0.0419934
0.0420073
0.0420205
0.0420328
0.0420445
0.0420555
0.0420658
0.0420756
0.0420849
0.0420936
0.0421018
0.0421096
0.0421169
0.0421239
0.0421305
0.0421367
0.0421426
0.0421481
0.0421534
0.0421584
0.0421631
0.0421676
0.0421718
0.0421759
0.0421797
0.0421833
0.0421867
0.0421899
0.0421929
0.0421957
0.0421984
0.0422009
0.0422037
0.0422062
0.0422088
0.0422114
0.0422139
0.0394647
0.0394389
0.0395641
0.0396087
0.0397615
0.0398079
0.0398811
0.0399313
0.0399823
0.0400243
0.0400553
0.0400704
0.0400823
0.0401173
0.0402198
0.0404004
0.0406093
0.0408026
0.0409595
0.0410816
0.0411782
0.0412583
0.0413285
0.041392
0.0414508
0.0415053
0.0415557
0.0416021
0.0416446
0.0416836
0.0417193
0.0417519
0.0417817
0.041809
0.0418341
0.0418573
0.0418788
0.0418989
0.0419176
0.0419352
0.0419517
0.0419673
0.041982
0.0419959
0.0420091
0.0420216
0.0420334
0.0420446
0.0420552
0.0420652
0.0420748
0.0420838
0.0420923
0.0421004
0.042108
0.0421153
0.0421221
0.0421286
0.0421348
0.0421406
0.0421461
0.0421512
0.0421562
0.0421609
0.0421653
0.0421695
0.0421735
0.0421773
0.0421808
0.0421842
0.0421874
0.0421903
0.0421933
0.042196
0.0421988
0.0422015
0.0422042
0.0422069
0.0422094
0.0394959
0.0394741
0.0395907
0.0396281
0.0397757
0.0398181
0.0398876
0.0399349
0.0399834
0.0400233
0.0400556
0.0400726
0.0400902
0.0401472
0.0402833
0.0404864
0.0406971
0.040879
0.0410209
0.0411294
0.0412148
0.0412856
0.0413478
0.041405
0.0414589
0.0415099
0.041558
0.0416028
0.0416441
0.041682
0.0417166
0.0417483
0.0417772
0.0418036
0.0418279
0.0418504
0.0418712
0.0418906
0.0419089
0.041926
0.0419422
0.0419575
0.0419721
0.041986
0.0419991
0.0420117
0.0420236
0.042035
0.0420458
0.042056
0.0420658
0.042075
0.0420838
0.0420921
0.0421
0.0421075
0.0421146
0.0421214
0.0421277
0.0421337
0.0421394
0.0421448
0.0421498
0.0421547
0.0421592
0.0421636
0.0421677
0.0421716
0.0421752
0.0421786
0.042182
0.0421851
0.0421881
0.042191
0.0421938
0.0421966
0.0421993
0.042202
0.0422046
0.0395251
0.0395064
0.0396137
0.0396468
0.0397874
0.0398279
0.039893
0.0399376
0.0399836
0.0400218
0.0400562
0.0400764
0.0401032
0.0401889
0.0403581
0.0405763
0.0407821
0.04095
0.041077
0.0411733
0.0412491
0.041312
0.0413674
0.0414187
0.0414677
0.0415151
0.0415606
0.0416035
0.0416435
0.0416803
0.0417141
0.0417449
0.0417731
0.0417989
0.0418225
0.0418444
0.0418648
0.0418838
0.0419016
0.0419184
0.0419344
0.0419496
0.041964
0.0419778
0.0419909
0.0420035
0.0420155
0.0420269
0.0420379
0.0420483
0.0420582
0.0420676
0.0420766
0.0420851
0.0420932
0.0421009
0.0421081
0.042115
0.0421215
0.0421277
0.0421336
0.0421391
0.0421443
0.0421493
0.042154
0.0421583
0.0421627
0.0421666
0.0421705
0.0421741
0.0421775
0.0421808
0.0421838
0.0421867
0.0421895
0.0421922
0.042195
0.0421977
0.0422003
0.0395527
0.0395359
0.039634
0.0396641
0.0397964
0.0398368
0.0398975
0.0399393
0.0399828
0.0400199
0.0400569
0.0400814
0.0401236
0.0402422
0.0404414
0.0406669
0.0408631
0.0410156
0.0411284
0.0412137
0.0412811
0.0413374
0.0413869
0.0414329
0.0414775
0.0415211
0.0415637
0.0416045
0.0416429
0.0416786
0.0417115
0.0417417
0.0417693
0.0417946
0.0418179
0.0418394
0.0418594
0.0418782
0.0418958
0.0419124
0.0419282
0.0419432
0.0419576
0.0419713
0.0419845
0.0419971
0.0420091
0.0420206
0.0420316
0.0420421
0.0420522
0.0420617
0.0420708
0.0420794
0.0420876
0.0420954
0.0421028
0.0421098
0.0421164
0.0421227
0.0421287
0.0421344
0.0421397
0.0421448
0.0421496
0.0421542
0.0421585
0.0421626
0.0421665
0.0421701
0.0421735
0.0421767
0.0421797
0.0421825
0.0421852
0.0421878
0.0421905
0.0421932
0.0421958
0.0395785
0.0395628
0.0396521
0.0396804
0.0398032
0.0398446
0.0399012
0.0399404
0.0399809
0.0400178
0.040058
0.0400875
0.0401531
0.0403067
0.0405302
0.040756
0.0409393
0.0410762
0.0411756
0.0412509
0.0413109
0.0413613
0.0414059
0.0414475
0.041488
0.041528
0.0415675
0.0416059
0.0416426
0.0416771
0.0417091
0.0417387
0.0417659
0.041791
0.041814
0.0418354
0.0418553
0.041874
0.0418916
0.0419082
0.041924
0.041939
0.0419533
0.041967
0.0419802
0.0419927
0.0420047
0.0420162
0.0420272
0.0420377
0.0420477
0.0420572
0.0420663
0.042075
0.0420832
0.042091
0.0420984
0.0421055
0.0421122
0.0421185
0.0421245
0.0421302
0.0421356
0.0421407
0.0421455
0.04215
0.0421543
0.0421583
0.0421622
0.0421658
0.0421692
0.0421724
0.0421754
0.0421783
0.042181
0.0421838
0.0421865
0.0421892
0.0421918
0.0396023
0.039587
0.0396686
0.0396958
0.0398081
0.0398509
0.0399039
0.0399408
0.0399783
0.0400153
0.04006
0.0400959
0.0401921
0.0403808
0.0406213
0.0408418
0.0410106
0.0411323
0.0412193
0.0412853
0.0413385
0.0413838
0.0414243
0.0414623
0.0414992
0.0415359
0.0415724
0.0416083
0.041643
0.0416761
0.0417072
0.0417361
0.041763
0.041788
0.041811
0.0418325
0.0418525
0.0418713
0.041889
0.0419057
0.0419215
0.0419366
0.041951
0.0419647
0.0419778
0.0419903
0.0420023
0.0420137
0.0420246
0.042035
0.0420449
0.0420544
0.0420634
0.0420719
0.0420801
0.0420878
0.0420952
0.0421021
0.0421087
0.042115
0.0421209
0.0421265
0.0421319
0.0421369
0.0421417
0.0421462
0.0421505
0.0421546
0.0421585
0.0421622
0.0421656
0.0421689
0.0421721
0.0421751
0.0421779
0.0421807
0.0421835
0.0421864
0.0421891
0.0396241
0.0396085
0.0396837
0.0397105
0.0398115
0.0398555
0.0399054
0.0399403
0.0399748
0.0400126
0.0400629
0.0401089
0.0402405
0.0404615
0.040712
0.040923
0.0410768
0.0411843
0.0412599
0.0413173
0.0413641
0.0414048
0.0414419
0.0414769
0.0415111
0.041545
0.0415786
0.0416119
0.0416444
0.0416759
0.041706
0.0417344
0.0417611
0.041786
0.0418092
0.0418309
0.0418511
0.0418701
0.041888
0.0419049
0.0419209
0.041936
0.0419504
0.0419642
0.0419772
0.0419897
0.0420016
0.0420129
0.0420236
0.0420339
0.0420437
0.0420529
0.0420617
0.0420701
0.0420781
0.0420857
0.0420929
0.0420997
0.0421061
0.0421123
0.0421181
0.0421236
0.0421289
0.0421338
0.0421386
0.0421431
0.0421474
0.0421514
0.0421553
0.042159
0.0421624
0.0421657
0.0421689
0.0421718
0.0421747
0.0421775
0.0421803
0.0421831
0.0421859
0.0396438
0.0396278
0.0396978
0.0397247
0.0398141
0.0398586
0.039906
0.0399391
0.0399711
0.0400103
0.0400657
0.0401289
0.040298
0.040546
0.0407996
0.0409988
0.0411378
0.0412324
0.0412978
0.0413474
0.0413884
0.0414249
0.0414589
0.0414916
0.0415236
0.041555
0.0415862
0.041617
0.0416474
0.0416771
0.041706
0.0417337
0.0417601
0.0417849
0.0418083
0.0418302
0.0418507
0.04187
0.0418881
0.0419053
0.0419214
0.0419367
0.0419512
0.0419649
0.0419779
0.0419903
0.0420021
0.0420132
0.0420238
0.0420339
0.0420435
0.0420526
0.0420612
0.0420695
0.0420772
0.0420846
0.0420916
0.0420982
0.0421045
0.0421105
0.0421162
0.0421216
0.0421267
0.0421316
0.0421362
0.0421406
0.0421448
0.0421489
0.0421527
0.0421563
0.0421598
0.0421631
0.0421662
0.0421691
0.042172
0.0421747
0.0421775
0.0421802
0.042183
0.0396612
0.0396452
0.039711
0.039738
0.0398159
0.0398603
0.0399056
0.0399373
0.0399675
0.0400087
0.0400694
0.0401571
0.0403637
0.0406316
0.0408824
0.0410684
0.0411937
0.0412769
0.0413335
0.0413762
0.0414118
0.0414445
0.0414758
0.0415065
0.0415367
0.0415662
0.0415951
0.0416237
0.041652
0.0416799
0.0417074
0.0417342
0.0417601
0.0417847
0.0418082
0.0418303
0.0418512
0.0418709
0.0418894
0.0419068
0.0419232
0.0419387
0.0419532
0.041967
0.0419799
0.0419922
0.0420038
0.0420147
0.0420251
0.042035
0.0420443
0.0420532
0.0420616
0.0420695
0.0420771
0.0420843
0.0420911
0.0420975
0.0421037
0.0421095
0.0421151
0.0421203
0.0421253
0.0421301
0.0421346
0.0421389
0.0421431
0.042147
0.0421508
0.0421543
0.0421577
0.0421609
0.042164
0.0421669
0.0421696
0.0421724
0.0421751
0.0421778
0.0421806
0.0396765
0.0396608
0.0397227
0.0397502
0.0398177
0.0398614
0.0399043
0.0399349
0.0399643
0.0400085
0.0400751
0.0401942
0.0404355
0.0407159
0.040959
0.0411314
0.0412446
0.0413182
0.0413675
0.0414043
0.0414353
0.0414644
0.0414932
0.041522
0.0415505
0.0415783
0.0416053
0.0416319
0.0416582
0.0416844
0.0417105
0.0417363
0.0417615
0.0417859
0.0418094
0.0418317
0.0418529
0.0418729
0.0418918
0.0419094
0.041926
0.0419416
0.0419562
0.0419699
0.0419828
0.0419949
0.0420063
0.0420171
0.0420273
0.0420369
0.042046
0.0420546
0.0420628
0.0420705
0.0420778
0.0420847
0.0420913
0.0420976
0.0421036
0.0421092
0.0421147
0.0421198
0.0421247
0.0421293
0.0421337
0.0421379
0.042142
0.0421458
0.0421494
0.0421529
0.0421562
0.0421593
0.0421622
0.042165
0.0421677
0.0421703
0.0421729
0.0421756
0.0421783
0.03969
0.0396748
0.0397328
0.0397611
0.0398198
0.0398622
0.0399028
0.0399323
0.0399618
0.0400107
0.0400839
0.04024
0.0405113
0.040797
0.0410289
0.0411879
0.0412906
0.0413566
0.0414002
0.0414324
0.0414595
0.0414853
0.0415115
0.0415383
0.0415651
0.0415913
0.0416167
0.0416415
0.041666
0.0416905
0.0417151
0.0417397
0.0417641
0.041788
0.0418113
0.0418336
0.041855
0.0418752
0.0418943
0.0419122
0.041929
0.0419448
0.0419595
0.0419732
0.0419861
0.0419981
0.0420094
0.0420201
0.04203
0.0420394
0.0420483
0.0420567
0.0420646
0.042072
0.0420791
0.0420859
0.0420923
0.0420983
0.0421041
0.0421096
0.0421149
0.0421198
0.0421246
0.0421291
0.0421334
0.0421375
0.0421414
0.0421451
0.0421487
0.042152
0.0421552
0.0421582
0.042161
0.0421637
0.0421663
0.0421689
0.0421714
0.0421742
0.0421768
0.0397022
0.0396874
0.0397416
0.0397708
0.0398216
0.0398626
0.0399009
0.0399296
0.0399604