/*--------------------------------*- C++ -*----------------------------------*\
| =========                 |                                                 |
| \\      /  F ield         | OpenFOAM: The Open Source CFD Toolbox           |
|  \\    /   O peration     | Version:  2412                                  |
|   \\  /    A nd           | Website:  www.openfoam.com                      |
|    \\/     M anipulation  |                                                 |
\*---------------------------------------------------------------------------*/
FoamFile
{
    version     2.0;
    format      ascii;
    arch        "LSB;label=32;scalar=64";
    class       volScalarField;
    location    "0.018";
    object      T;
}
// * * * * * * * * * * * * * * * * * * * * * * * * * * * * * * * * * * * * * //

dimensions      [0 0 0 1 0 0 0];

internalField   nonuniform List<scalar> 
9857
(
223
223
223
223
223
223
223
223
223
223
223
223
223
223
223
223
223
223
223
223
223
223
223
223
223
223
223
223.002
223
223
223
223
223
223
223
223
223
223
223
223
223
223
223
223
223
223
223
223
223
223
223
223
223.004
223
223
223
223
223
223
223
223
223
223
223
223
223
223
223
223
223
223
223
223
223
223
223
223
223.007
223
223
223
223
223
223
223
223
223
223
223
223
223
223
223
223
223
223
223
223
223
223
223
223
223.014
223
223
223
223
223
223
223
223
223
223
223
223
223
223
223
223
223
223
223
223
223
223
223
223.001
223.028
223
223
223
223
223
223
223
223
223
223
223
223
223
223
223
223
223
223
223
223
223
223
223
223.002
223.051
223
223
223
223
223
223
223
223
223
223
223
223
223
223
223
223
223
223
223
223
223
223
223
223.005
223.088
223.583
223
223
223
223
223
223
223
223
223
223
223
223
223
223
223
223
223
223
223
223
223
223
223
223.01
223.144
223.772
223
223
223
223
223
223
223
223
223
223
223
223
223
223
223
223
223
223
223
223
223
223
223.001
223.019
223.224
223.982
225.043
223
223
223
223
223
223
223
223
223
223
223
223
223
223
223
223
223
223
223
223
223
223
223.001
223.035
223.33
224.204
225.218
223
223
223
223
223
223
223
223
223
223
223
223
223
223
223
223
223
223
223
223
223
223
223.003
223.062
223.464
224.429
225.363
225.759
223
223
223
223
223
223
223
223
223
223
223
223
223
223
223
223
223
223
223
223
223
223
223.006
223.103
223.625
224.646
225.48
225.775
223
223
223
223
223
223
223
223
223
223
223
223
223
223
223
223
223
223
223
223
223
223
223.012
223.162
223.808
224.848
225.564
225.781
225.742
225.481
225.117
224.823
224.65
224.588
224.69
225.174
225.844
226.241
226.343
226.308
226.25
226.248
226.328
226.488
226.636
226.731
226.793
226.846
226.906
226.978
227.06
227.147
227.239
227.342
227.461
227.597
227.744
227.895
228.046
228.195
223
223
223
223
223
223
223
223
223
223
223
223
223
223
223
223
223
223
223
223
223
223.001
223.022
223.242
224.006
225.028
225.623
225.775
225.701
225.384
225.016
224.75
224.621
224.593
224.783
225.375
226
226.289
226.341
226.297
226.249
226.268
226.371
226.529
226.66
226.742
226.8
226.854
226.917
226.991
227.074
227.161
227.253
227.358
227.48
227.618
227.765
227.916
228.066
228.214
223
223
223
223
223
223
223
223
223
223
223
223
223
223
223
223
223
223
223
223
223
223.002
223.039
223.345
224.211
225.181
225.662
225.756
225.644
225.289
224.923
224.686
224.592
224.613
224.92
225.576
226.118
226.32
226.331
226.283
226.251
226.29
226.415
226.566
226.679
226.752
226.807
226.862
226.927
227.003
227.086
227.173
227.266
227.373
227.498
227.637
227.786
227.936
228.084
228.229
223
223
223
223
223
223
223
223
223
223
223
223
223
223
223
223
223
223
223
223
223
223.003
223.065
223.472
224.415
225.311
225.685
225.728
225.568
225.192
224.843
224.64
224.572
224.654
225.092
225.766
226.203
226.335
226.318
226.269
226.257
226.314
226.453
226.596
226.695
226.76
226.814
226.87
226.936
227.014
227.097
227.185
227.279
227.388
227.515
227.656
227.804
227.953
228.099
228.243
223
223
223
223
223
223
223
223
223
223
223
223
223
223
223
223
223
223
223
223
223
223.006
223.104
223.62
224.611
225.413
225.696
225.693
225.477
225.092
224.772
224.609
224.567
224.727
225.28
225.926
226.258
226.339
226.309
226.264
226.268
226.342
226.485
226.618
226.706
226.767
226.82
226.876
226.945
227.023
227.108
227.196
227.292
227.403
227.532
227.674
227.821
227.968
228.112
228.254
223
223
223
223
223
223
223
223
223
223
223
223
223
223
223
223
223
223
223
223
223
223.012
223.158
223.785
224.793
225.488
225.699
225.655
225.377
224.99
224.708
224.587
224.581
224.839
225.471
226.053
226.293
226.334
226.3
226.264
226.283
226.375
226.515
226.634
226.715
226.772
226.825
226.882
226.952
227.032
227.117
227.206
227.304
227.418
227.549
227.69
227.836
227.981
228.123
228.262
223
223
223
223
223
223
223
223
223
223
223
223
223
223
223
223
223
223
223
223
223.001
223.021
223.23
223.962
224.953
225.541
225.69
225.612
225.274
224.893
224.654
224.567
224.614
224.989
225.653
226.145
226.312
226.324
226.29
226.267
226.3
226.406
226.541
226.648
226.721
226.776
226.829
226.888
226.959
227.04
227.126
227.217
227.317
227.433
227.564
227.705
227.849
227.992
228.132
228.269
223
223
223
223
223
223
223
223
223
223
223
223
223
223
223
223
223
223
223
223
223.001
223.035
223.32
224.145
225.094
225.577
225.67
225.554
225.175
224.807
224.613
224.557
224.671
225.165
225.819
226.21
226.32
226.312
226.281
226.271
226.319
226.434
226.562
226.659
226.727
226.78
226.832
226.892
226.965
227.048
227.135
227.227
227.33
227.447
227.578
227.718
227.86
228.001
228.138
228.273
223
223
223
223
223
223
223
223
223
223
223
223
223
223
223
223
223
223
223
223
223.003
223.057
223.429
224.327
225.211
225.598
225.644
225.478
225.078
224.735
224.584
224.559
224.759
225.346
225.954
226.253
226.322
226.304
226.275
226.279
226.338
226.459
226.579
226.667
226.731
226.783
226.835
226.896
226.97
227.055
227.144
227.238
227.342
227.461
227.591
227.729
227.869
228.007
228.142
228.275
223
223
223
223
223
223
223
223
223
223
223
223
223
223
223
223
223
223
223
223
223.005
223.088
223.555
224.502
225.307
225.605
225.609
225.389
224.982
224.676
224.563
224.578
224.881
225.522
226.059
226.277
226.319
226.297
226.273
226.287
226.359
226.48
226.592
226.673
226.734
226.785
226.837
226.899
226.975
227.062
227.153
227.249
227.355
227.473
227.603
227.739
227.876
228.012
228.144
228.275
223
223
223
223
223
223
223
223
223
223
223
223
223
223
223
223
223
223
223
223
223.009
223.131
223.696
224.666
225.38
225.607
225.571
225.289
224.89
224.631
224.548
224.617
225.032
225.683
226.135
226.291
226.312
226.291
226.273
226.297
226.38
226.498
226.602
226.678
226.736
226.786
226.839
226.901
226.98
227.069
227.162
227.26
227.367
227.485
227.613
227.747
227.881
228.014
228.145
228.273
223
223
223
223
223
223
223
223
223
223
223
223
223
223
223
223
223
223
223
223
223.015
223.187
223.847
224.815
225.432
225.6
225.528
225.187
224.805
224.598
224.543
224.681
225.197
225.826
226.189
226.295
226.302
226.285
226.275
226.308
226.399
226.514
226.61
226.682
226.738
226.787
226.84
226.904
226.985
227.077
227.172
227.272
227.379
227.496
227.622
227.753
227.885
228.015
228.143
228.269
223
223
223
223
223
223
223
223
223
223
223
223
223
223
223
223
223
223
223
223.001
223.025
223.257
224.004
224.946
225.469
225.583
225.474
225.089
224.729
224.573
224.552
224.773
225.362
225.941
226.225
226.296
226.293
226.28
226.278
226.318
226.415
226.526
226.616
226.685
226.739
226.787
226.84
226.906
226.99
227.085
227.183
227.283
227.389
227.505
227.629
227.757
227.886
228.014
228.139
228.263
223
223
223
223
223
223
223
223
223
223
223
223
223
223
223
223
223
223
223
223.002
223.04
223.341
224.162
225.06
225.491
225.559
225.405
224.996
224.667
224.553
224.575
224.893
225.52
226.029
226.246
226.294
226.287
226.276
226.281
226.329
226.429
226.536
226.621
226.687
226.739
226.786
226.84
226.909
226.997
227.094
227.193
227.293
227.399
227.513
227.634
227.76
227.887
228.011
228.134
228.255
223
223
223
223
223
223
223
223
223
223
223
223
223
223
223
223
223
223
223
223.003
223.061
223.439
224.317
225.154
225.503
225.529
225.323
224.91
224.622
224.54
224.616
225.034
225.662
226.093
226.258
226.29
226.282
226.273
226.284
226.341
226.441
226.544
226.625
226.688
226.739
226.785
226.839
226.912
227.004
227.103
227.203
227.303
227.408
227.52
227.639
227.761
227.885
228.007
228.127
228.246
223
223
223
223
223
223
223
223
223
223
223
223
223
223
223
223
223
223
223
223.005
223.089
223.549
224.466
225.231
225.505
225.491
225.233
224.83
224.591
224.536
224.679
225.186
225.788
226.14
226.262
226.284
226.277
226.27
226.287
226.351
226.452
226.55
226.628
226.689
226.738
226.783
226.839
226.916
227.011
227.113
227.213
227.312
227.415
227.525
227.641
227.761
227.882
228.001
228.119
228.236
223
223
223
223
223
223
223
223
223
223
223
223
223
223
223
223
223
223
223
223.009
223.126
223.669
224.604
225.289
225.503
225.451
225.137
224.757
224.57
224.545
224.764
225.333
225.889
226.173
226.264
226.278
226.272
226.268
226.289
226.36
226.461
226.556
226.631
226.689
226.736
226.782
226.84
226.92
227.019
227.122
227.223
227.321
227.422
227.529
227.642
227.76
227.878
227.994
228.11
228.224
223
223
223
223
223
223
223
223
223
223
223
223
223
223
223
223
223
223
223
223.014
223.172
223.797
224.731
225.332
225.491
225.406
225.042
224.693
224.555
224.569
224.872
225.473
225.968
226.194
226.263
226.272
226.267
226.265
226.291
226.368
226.47
226.561
226.633
226.689
226.734
226.78
226.841
226.925
227.028
227.132
227.231
227.328
227.427
227.532
227.643
227.757
227.872
227.986
228.099
228.211
228.324
228.436
228.547
228.658
228.771
228.887
229.006
229.128
229.251
229.374
229.496
229.619
229.74
229.861
229.98
230.097
230.211
230.323
230.43
230.533
230.63
230.722
230.808
230.886
230.957
231.02
231.075
231.122
231.159
231.188
231.207
231.218
231.221
231.215
231.199
231.177
231.146
231.109
231.065
223
223
223
223
223
223
223
223
223
223
223
223
223
223
223
223
223
223
223.001
223.021
223.229
223.929
224.843
225.363
225.472
225.35
224.956
224.642
224.544
224.608
224.998
225.599
226.028
226.207
226.26
226.266
226.262
226.262
226.294
226.375
226.477
226.566
226.635
226.688
226.732
226.778
226.842
226.932
227.037
227.141
227.239
227.334
227.43
227.533
227.642
227.753
227.866
227.977
228.087
228.197
228.307
228.417
228.526
228.634
228.744
228.857
228.973
229.091
229.21
229.329
229.447
229.564
229.68
229.795
229.909
230.02
230.128
230.233
230.334
230.43
230.52
230.605
230.683
230.754
230.817
230.873
230.92
230.959
230.99
231.011
231.024
231.029
231.026
231.013
230.993
230.965
230.93
230.889
230.841
230.788
230.729
230.667
230.599
230.53
230.457
230.383
230.306
230.228
230.149
223
223
223
223
223
223
223
223
223
223
223
223
223
223
223
223
223
223
223.001
223.032
223.296
224.061
224.942
225.381
225.448
225.282
224.878
224.606
224.541
224.663
225.134
225.711
226.071
226.214
226.256
226.26
226.257
226.26
226.296
226.383
226.484
226.57
226.636
226.686
226.729
226.777
226.845
226.938
227.045
227.149
227.246
227.338
227.433
227.534
227.639
227.748
227.858
227.966
228.075
228.182
228.29
228.397
228.503
228.609
228.716
228.826
228.939
229.053
229.168
229.282
229.396
229.508
229.619
229.728
229.836
229.941
230.043
230.142
230.236
230.324
230.408
230.485
230.556
230.62
230.676
230.724
230.764
230.796
230.819
230.834
230.841
230.84
230.83
230.812
230.787
230.755
230.715
230.67
230.619
230.564
230.502
230.438
230.369
230.299
230.224
230.15
230.073
229.995
229.917
229.837
229.757
229.678
229.599
229.522
229.447
229.376
229.309
229.246
229.184
229.117
229.022
223
223
223
223
223
223
223
223
223
223
223
223
223
223
223
223
223
223
223.002
223.047
223.373
224.192
225.025
225.39
225.419
225.207
224.809
224.581
224.546
224.735
225.266
225.805
226.104
226.216
226.251
226.254
226.251
226.257
226.3
226.392
226.492
226.574
226.636
226.685
226.727
226.777
226.849
226.946
227.054
227.157
227.251
227.342
227.435
227.533
227.636
227.742
227.849
227.955
228.061
228.167
228.272
228.377
228.48
228.583
228.687
228.794
228.903
229.014
229.124
229.234
229.343
229.45
229.556
229.66
229.762
229.861
229.957
230.049
230.136
230.218
230.295
230.365
230.428
230.485
230.534
230.575
230.608
230.633
230.649
230.658
230.659
230.651
230.636
230.613
230.583
230.546
230.503
230.454
230.4
230.342
230.278
230.213
230.141
230.07
229.995
229.92
229.843
229.765
229.687
229.607
229.528
229.45
229.371
229.295
229.222
229.152
229.086
229.024
228.963
228.898
228.805
223
223
223
223
223
223
223
223
223
223
223
223
223
223
223
223
223
223
223.003
223.067
223.459
224.319
225.095
225.391
225.382
225.127
224.749
224.568
224.563
224.825
225.39
225.879
226.126
226.216
226.245
226.248
226.245
226.255
226.305
226.4
226.498
226.577
226.636
226.683
226.725
226.777
226.853
226.954
227.062
227.164
227.256
227.344
227.435
227.531
227.632
227.735
227.839
227.943
228.047
228.15
228.253
228.355
228.455
228.555
228.657
228.761
228.867
228.973
229.08
229.185
229.289
229.391
229.492
229.59
229.686
229.779
229.869
229.954
230.035
230.11
230.18
230.243
230.299
230.349
230.39
230.425
230.451
230.469
230.479
230.482
230.477
230.463
230.442
230.414
230.38
230.339
230.292
230.24
230.183
230.122
230.056
229.989
229.916
229.844
229.769
229.693
229.616
229.538
229.46
229.381
229.302
229.224
229.147
229.072
228.999
228.931
228.866
228.805
228.745
228.681
228.59
223
223
223
223
223
223
223
223
223
223
223
223
223
223
223
223
223
223
223.005
223.092
223.553
224.439
225.15
225.389
225.343
225.044
224.697
224.559
224.594
224.931
225.502
225.936
226.14
226.215
226.239
226.242
226.24
226.254
226.311
226.409
226.504
226.578
226.635
226.68
226.723
226.779
226.858
226.961
227.07
227.169
227.26
227.346
227.435
227.529
227.627
227.728
227.829
227.93
228.032
228.133
228.233
228.332
228.43
228.527
228.626
228.727
228.829
228.932
229.034
229.135
229.234
229.331
229.426
229.519
229.609
229.697
229.78
229.859
229.933
230.001
230.064
230.12
230.17
230.212
230.247
230.274
230.294
230.305
230.31
230.307
230.295
230.276
230.25
230.217
230.178
230.134
230.083
230.028
229.969
229.906
229.837
229.768
229.695
229.621
229.545
229.469
229.392
229.313
229.235
229.157
229.078
229.001
228.924
228.85
228.778
228.71
228.647
228.586
228.527
228.464
228.374
223
223
223
223
223
223
223
223
223
223
223
223
223
223
223
223
223
223
223.008
223.123
223.653
224.551
225.192
225.38
225.302
224.964
224.656
224.556
224.638
225.048
225.604
225.978
226.148
226.213
226.234
226.236
226.236
226.254
226.317
226.417
226.508
226.579
226.633
226.678
226.722
226.78
226.864
226.969
227.077
227.174
227.262
227.347
227.434
227.525
227.621
227.719
227.818
227.917
228.016
228.115
228.213
228.309
228.404
228.498
228.594
228.691
228.79
228.889
228.987
229.083
229.177
229.269
229.359
229.447
229.531
229.612
229.689
229.762
229.83
229.891
229.947
229.997
230.039
230.075
230.103
230.124
230.136
230.142
230.141
230.131
230.114
230.09
230.059
230.022
229.979
229.93
229.877
229.819
229.756
229.691
229.621
229.55
229.475
229.401
229.324
229.247
229.17
229.091
229.013
228.935
228.857
228.78
228.704
228.631
228.56
228.493
228.43
228.37
228.311
228.248
228.159
223
223
223
223
223
223
223
223
223
223
223
223
223
223
223
223
223
223
223.013
223.161
223.757
224.652
225.224
225.363
225.257
224.892
224.624
224.558
224.694
225.164
225.691
226.01
226.152
226.21
226.229
226.231
226.232
226.254
226.323
226.423
226.512
226.579
226.631
226.675
226.721
226.783
226.871
226.977
227.083
227.178
227.264
227.347
227.432
227.521
227.615
227.71
227.807
227.903
227.999
228.096
228.191
228.285
228.377
228.468
228.561
228.655
228.751
228.846
228.939
229.031
229.12
229.207
229.291
229.373
229.452
229.527
229.598
229.665
229.726
229.781
229.83
229.873
229.909
229.938
229.959
229.973
229.98
229.98
229.972
229.956
229.934
229.905
229.87
229.828
229.781
229.729
229.672
229.612
229.547
229.479
229.407
229.335
229.259
229.184
229.107
229.029
228.951
228.872
228.794
228.716
228.638
228.562
228.486
228.413
228.343
228.276
228.214
228.155
228.096
228.034
227.946
223
223
223
223
223
223
223
223
223
223
223
223
223
223
223
223
223
223.001
223.018
223.206
223.864
224.744
225.245
225.342
225.202
224.83
224.602
224.567
224.764
225.275
225.762
226.033
226.154
226.207
226.224
226.225
226.228
226.254
226.328
226.429
226.514
226.578
226.628
226.672
226.721
226.787
226.877
226.984
227.088
227.181
227.264
227.346
227.429
227.517
227.608
227.701
227.795
227.888
227.983
228.077
228.169
228.26
228.349
228.438
228.528
228.619
228.71
228.801
228.89
228.977
229.061
229.143
229.223
229.299
229.372
229.441
229.506
229.566
229.621
229.67
229.712
229.748
229.778
229.8
229.815
229.823
229.824
229.818
229.803
229.783
229.755
229.721
229.682
229.636
229.586
229.53
229.47
229.407
229.339
229.27
229.196
229.122
229.045
228.969
228.891
228.813
228.735
228.656
228.578
228.5
228.422
228.346
228.271
228.198
228.128
228.062
228
227.942
227.884
227.822
227.735
223
223
223
223
223
223
223
223
223
223
223
223
223
223
223
223
223
223.001
223.026
223.258
223.971
224.823
225.258
225.319
225.142
224.776
224.59
224.588
224.846
225.375
225.819
226.05
226.156
226.204
226.219
226.22
226.224
226.255
226.334
226.434
226.516
226.576
226.625
226.67
226.721
226.791
226.884
226.99
227.092
227.182
227.265
227.344
227.426
227.512
227.6
227.691
227.782
227.874
227.965
228.057
228.147
228.235
228.321
228.407
228.494
228.581
228.669
228.756
228.841
228.923
229.002
229.079
229.153
229.224
229.291
229.355
229.413
229.467
229.516
229.558
229.594
229.624
229.647
229.662
229.671
229.674
229.669
229.656
229.636
229.611
229.578
229.54
229.496
229.446
229.392
229.333
229.27
229.205
229.135
229.063
228.988
228.913
228.835
228.757
228.679
228.6
228.522
228.442
228.364
228.286
228.208
228.132
228.057
227.985
227.916
227.85
227.789
227.73
227.673
227.611
227.524
223
223
223
223
223
223
223
223
223
223
223
223
223
223
223
223
223
223.001
223.037
223.316
224.077
224.894
225.263
225.29
225.079
224.732
224.583
224.618
224.938
225.467
225.863
226.061
226.156
226.201
226.214
226.214
226.219
226.256
226.339
226.438
226.516
226.574
226.622
226.669
226.723
226.795
226.89
226.996
227.095
227.183
227.264
227.342
227.422
227.506
227.592
227.681
227.769
227.858
227.948
228.037
228.124
228.209
228.293
228.375
228.459
228.543
228.627
228.71
228.79
228.868
228.943
229.014
229.083
229.148
229.21
229.267
229.32
229.368
229.41
229.446
229.475
229.499
229.515
229.525
229.528
229.524
229.513
229.495
229.47
229.439
229.402
229.359
229.311
229.258
229.2
229.139
229.073
229.005
228.932
228.859
228.782
228.706
228.627
228.549
228.47
228.39
228.311
228.232
228.153
228.075
227.998
227.922
227.847
227.775
227.706
227.641
227.58
227.522
227.464
227.403
227.317
223
223
223
223
223
223
223
223
223
223
223
223
223
223
223
223
223
223.002
223.05
223.381
224.181
224.953
225.263
225.256
225.017
224.697
224.582
224.656
225.035
225.548
225.896
226.069
226.156
226.198
226.209
226.208
226.215
226.257
226.344
226.442
226.516
226.572
226.62
226.668
226.725
226.8
226.897
227.001
227.098
227.184
227.262
227.339
227.418
227.5
227.584
227.67
227.756
227.843
227.93
228.016
228.101
228.183
228.263
228.343
228.424
228.504
228.585
228.663
228.739
228.812
228.882
228.949
229.012
229.072
229.128
229.18
229.226
229.268
229.304
229.334
229.357
229.374
229.384
229.388
229.386
229.376
229.359
229.335
229.306
229.27
229.228
229.181
229.129
229.072
229.011
228.947
228.878
228.808
228.733
228.658
228.58
228.502
228.422
228.343
228.263
228.183
228.103
228.024
227.945
227.867
227.789
227.713
227.639
227.567
227.498
227.434
227.372
227.315
227.258
227.196
227.111
223
223
223
223
223
223
223
223
223
223
223
223
223
223
223
223
223
223.003
223.066
223.451
224.28
225.002
225.26
225.222
224.955
224.671
224.585
224.703
225.132
225.619
225.922
226.074
226.155
226.194
226.203
226.202
226.212
226.259
226.35
226.444
226.516
226.57
226.618
226.667
226.727
226.806
226.902
227.005
227.1
227.183
227.26
227.336
227.413
227.493
227.575
227.659
227.743
227.827
227.911
227.995
228.077
228.157
228.234
228.311
228.388
228.465
228.542
228.616
228.688
228.756
228.821
228.883
228.941
228.995
229.046
229.091
229.132
229.168
229.197
229.221
229.238
229.249
229.254
229.252
229.243
229.227
229.205
229.177
229.142
229.102
229.056
229.005
228.949
228.889
228.824
228.757
228.686
228.613
228.537
228.46
228.38
228.301
228.22
228.14
228.06
227.978
227.899
227.819
227.74
227.662
227.584
227.508
227.434
227.362
227.294
227.229
227.169
227.111
227.054
226.992
226.907
223
223
223
223
223
223
223
223
223
223
223
223
223
223
223
223
223
223.005
223.086
223.526
224.373
225.04
225.253
225.187
224.896
224.65
224.594
224.76
225.223
225.678
225.942
226.077
226.153
226.19
226.197
226.196
226.209
226.262
226.355
226.447
226.515
226.567
226.616
226.668
226.73
226.811
226.908
227.008
227.1
227.182
227.258
227.332
227.408
227.486
227.567
227.648
227.729
227.811
227.893
227.974
228.053
228.13
228.204
228.278
228.352
228.425
228.498
228.569
228.636
228.7
228.76
228.817
228.87
228.919
228.963
229.003
229.038
229.068
229.091
229.109
229.12
229.126
229.125
229.117
229.102
229.081
229.053
229.02
228.98
228.935
228.885
228.83
228.771
228.707
228.64
228.57
228.496
228.421
228.343
228.265
228.183
228.103
228.022
227.94
227.859
227.778
227.697
227.617
227.538
227.46
227.382
227.306
227.232
227.16
227.092
227.028
226.967
226.909
226.852
226.791
226.707
223
223
223
223
223
223
223
223
223
223
223
223
223
223
223
223
223
223.007
223.11
223.605
224.46
225.07
225.24
225.151
224.843
224.637
224.611
224.825
225.307
225.726
225.957
226.079
226.151
226.185
226.191
226.191
226.207
226.265
226.36
226.448
226.513
226.565
226.615
226.668
226.734
226.816
226.912
227.011
227.101
227.181
227.255
227.327
227.402
227.479
227.557
227.636
227.715
227.794
227.874
227.953
228.029
228.103
228.174
228.245
228.315
228.385
228.454
228.521
228.584
228.643
228.698
228.75
228.798
228.841
228.88
228.915
228.944
228.967
228.985
228.997
229.003
229.003
228.995
228.981
228.961
228.935
228.902
228.864
228.82
228.771
228.717
228.658
228.595
228.528
228.458
228.386
228.31
228.233
228.152
228.072
227.99
227.908
227.826
227.744
227.662
227.58
227.499
227.419
227.339
227.261
227.183
227.107
227.033
226.962
226.894
226.83
226.769
226.712
226.655
226.594
226.509
223
223
223
223
223
223
223
223
223
223
223
223
223
223
223
223
223
223.01
223.139
223.686
224.539
225.092
225.223
225.113
224.798
224.628
224.635
224.896
225.382
225.764
225.969
226.081
226.149
226.181
226.186
226.186
226.205
226.269
226.364
226.449
226.511
226.563
226.614
226.67
226.737
226.82
226.916
227.013
227.101
227.179
227.251
227.323
227.396
227.472
227.548
227.625
227.701
227.778
227.855
227.931
228.005
228.075
228.144
228.211
228.278
228.345
228.41
228.472
228.531
228.586
228.636
228.683
228.726
228.764
228.797
228.826
228.85
228.868
228.88
228.886
228.886
228.88
228.866
228.847
228.822
228.79
228.753
228.71
228.662
228.608
228.55
228.488
228.422
228.352
228.279
228.204
228.126
228.047
227.964
227.883
227.8
227.717
227.634
227.55
227.468
227.385
227.304
227.224
227.144
227.065
226.987
226.911
226.837
226.766
226.698
226.634
226.574
226.517
226.46
226.399
226.315
223
223
223
223
223
223
223
223
223
223
223
223
223
223
223
223
223
223.014
223.171
223.768
224.611
225.108
225.204
225.071
224.762
224.624
224.664
224.974
225.45
225.794
225.977
226.082
226.147
226.176
226.18
226.181
226.204
226.272
226.368
226.449
226.509
226.561
226.613
226.672
226.741
226.825
226.919
227.014
227.1
227.176
227.247
227.318
227.39
227.464
227.539
227.613
227.687
227.762
227.836
227.91
227.98
228.048
228.113
228.178
228.242
228.305
228.366
228.424
228.478
228.528
228.574
228.616
228.653
228.686
228.714
228.738
228.756
228.768
228.774
228.775
228.769
228.757
228.738
228.714
228.683
228.647
228.605
228.557
228.505
228.447
228.386
228.32
228.25
228.178
228.102
228.025
227.945
227.864
227.78
227.697
227.612
227.528
227.444
227.36
227.277
227.194
227.112
227.032
226.951
226.873
226.795
226.719
226.646
226.575
226.507
226.443
226.383
226.326
226.27
226.209
226.126
223
223
223
223
223
222.999
222.999
222.999
223
223
223
223
223
223
223
223
223.001
223.019
223.208
223.85
224.675
225.118
225.183
225.027
224.735
224.624
224.697
225.052
225.51
225.818
225.982
226.082
226.145
226.172
226.174
226.176
226.203
226.276
226.371
226.449
226.507
226.559
226.613
226.674
226.744
226.828
226.922
227.015
227.099
227.173
227.243
227.313
227.384
227.456
227.529
227.601
227.673
227.745
227.818
227.888
227.956
228.02
228.083
228.144
228.205
228.264
228.321
228.375
228.425
228.471
228.512
228.549
228.581
228.609
228.632
228.65
228.662
228.669
228.67
228.665
228.653
228.636
228.612
228.582
228.547
228.505
228.459
228.407
228.35
228.289
228.224
228.155
228.082
228.007
227.929
227.849
227.766
227.684
227.598
227.514
227.428
227.343
227.259
227.174
227.09
227.007
226.924
226.844
226.763
226.684
226.607
226.531
226.457
226.386
226.319
226.255
226.195
226.138
226.082
226.022
225.937
223
223
223
222.998
222.995
222.993
222.993
222.996
222.999
223
223
223
223
223
223
223
223.001
223.025
223.249
223.932
224.733
225.122
225.16
224.985
224.714
224.628
224.736
225.129
225.563
225.836
225.986
226.082
226.143
226.167
226.168
226.172
226.202
226.279
226.373
226.448
226.505
226.557
226.614
226.676
226.748
226.832
226.924
227.015
227.097
227.17
227.239
227.307
227.377
227.448
227.519
227.589
227.659
227.729
227.799
227.867
227.931
227.993
228.052
228.11
228.168
228.224
228.277
228.327
228.372
228.413
228.45
228.482
228.509
228.532
228.549
228.561
228.568
228.57
228.566
228.555
228.538
228.515
228.486
228.451
228.411
228.365
228.314
228.258
228.198
228.133
228.064
227.992
227.916
227.838
227.758
227.676
227.591
227.507
227.42
227.335
227.248
227.162
227.076
226.99
226.906
226.822
226.74
226.659
226.578
226.499
226.422
226.346
226.273
226.202
226.135
226.072
226.012
225.955
225.899
225.839
225.756
223
222.999
222.995
222.983
222.973
222.971
222.98
222.991
222.998
223
223
223
223
223
223
223
223.001
223.033
223.293
224.012
224.783
225.122
225.135
224.944
224.699
224.636
224.781
225.2
225.608
225.85
225.988
226.082
226.14
226.162
226.162
226.167
226.202
226.283
226.375
226.447
226.503
226.556
226.615
226.679
226.751
226.835
226.926
227.015
227.095
227.166
227.234
227.301
227.37
227.44
227.51
227.578
227.645
227.713
227.78
227.845
227.907
227.965
228.022
228.077
228.131
228.183
228.232
228.278
228.319
228.356
228.388
228.415
228.437
228.455
228.467
228.474
228.476
228.472
228.462
228.446
228.424
228.396
228.362
228.323
228.277
228.227
228.172
228.112
228.047
227.979
227.907
227.832
227.753
227.673
227.59
227.506
227.419
227.333
227.245
227.158
227.071
226.984
226.898
226.811
226.727
226.642
226.559
226.478
226.397
226.318
226.241
226.165
226.092
226.021
225.954
225.891
225.832
225.776
225.72
225.661
225.578
222.999
222.988
222.959
222.928
222.917
222.932
222.961
222.984
222.995
222.999
223
223
223
223
223
223
223.002
223.042
223.341
224.09
224.826
225.12
225.108
224.905
224.689
224.649
224.832
225.265
225.645
225.862
225.99
226.082
226.138
226.156
226.156
226.163
226.202
226.286
226.376
226.445
226.501
226.555
226.616
226.682
226.755
226.837
226.927
227.014
227.092
227.162
227.229
227.295
227.364
227.432
227.5
227.566
227.631
227.696
227.761
227.823
227.882
227.938
227.991
228.043
228.094
228.142
228.188
228.23
228.267
228.299
228.326
228.348
228.366
228.378
228.385
228.387
228.384
228.374
228.359
228.338
228.311
228.278
228.239
228.195
228.145
228.09
228.031
227.967
227.899
227.827
227.752
227.674
227.593
227.51
227.425
227.339
227.251
227.163
227.074
226.986
226.897
226.809
226.722
226.635
226.55
226.465
226.382
226.301
226.22
226.141
226.064
225.988
225.915
225.845
225.779
225.716
225.657
225.601
225.545
225.485
225.402
222.986
222.927
222.86
222.825
222.836
222.883
222.936
222.973
222.991
222.998
223
223
223
223
223
223
223.002
223.053
223.393
224.165
224.862
225.116
225.082
224.868
224.684
224.667
224.885
225.324
225.675
225.87
225.992
226.081
226.134
226.151
226.15
226.159
226.203
226.289
226.377
226.444
226.499
226.555
226.618
226.685
226.758
226.839
226.927
227.012
227.089
227.158
227.224
227.289
227.357
227.424
227.49
227.554
227.617
227.68
227.742
227.802
227.858
227.911
227.961
228.009
228.057
228.102
228.144
228.181
228.214
228.242
228.264
228.282
228.294
228.302
228.304
228.301
228.292
228.278
228.257
228.231
228.199
228.161
228.118
228.069
228.015
227.956
227.893
227.825
227.753
227.678
227.6
227.519
227.436
227.351
227.263
227.175
227.085
226.996
226.906
226.816
226.727
226.638
226.551
226.463
226.377
226.293
226.209
226.128
226.047
225.968
225.89
225.815
225.742
225.672
225.606
225.544
225.485
225.429
225.374
225.315
225.234
222.921
222.788
222.707
222.696
222.745
222.831
222.907
222.958
222.985
222.996
223
223
223
223
223
223
223.003
223.067
223.447
224.236
224.892
225.109
225.056
224.834
224.681
224.69
224.942
225.377
225.699
225.877
225.993
226.08
226.131
226.146
226.145
226.156
226.204
226.292
226.378
226.443
226.498
226.555
226.62
226.687
226.76
226.841
226.927
227.011
227.086
227.154
227.219
227.283
227.349
227.415
227.48
227.542
227.604
227.664
227.724
227.781
227.834
227.883
227.93
227.976
228.02
228.061
228.099
228.133
228.162
228.185
228.203
228.216
228.224
228.226
228.224
228.215
228.201
228.182
228.156
228.125
228.088
228.046
227.998
227.944
227.886
227.823
227.756
227.685
227.61
227.532
227.45
227.367
227.281
227.194
227.104
227.015
226.923
226.833
226.741
226.651
226.561
226.471
226.383
226.294
226.208
226.123
226.04
225.958
225.877
225.799
225.721
225.646
225.574
225.504
225.439
225.377
225.318
225.263
225.208
225.149
225.069
222.761
222.601
222.538
222.565
222.658
222.775
222.872
222.938
222.976
222.994
222.999
223
223
223
223
223
223.005
223.082
223.503
224.302
224.915
225.1
225.032
224.806
224.681
224.716
225.002
225.423
225.718
225.882
225.994
226.08
226.128
226.14
226.139
226.153
226.205
226.295
226.378
226.441
226.496
226.555
226.621
226.69
226.762
226.842
226.927
227.009
227.083
227.15
227.213
227.277
227.342
227.407
227.47
227.531
227.59
227.648
227.705
227.759
227.81
227.856
227.9
227.943
227.983
228.021
228.056
228.085
228.11
228.129
228.142
228.15
228.154
228.152
228.144
228.131
228.112
228.087
228.057
228.021
227.979
227.932
227.879
227.822