/*--------------------------------*- C++ -*----------------------------------*\
| =========                 |                                                 |
| \\      /  F ield         | OpenFOAM: The Open Source CFD Toolbox           |
|  \\    /   O peration     | Version:  2412                                  |
|   \\  /    A nd           | Website:  www.openfoam.com                      |
|    \\/     M anipulation  |                                                 |
\*---------------------------------------------------------------------------*/
FoamFile
{
    version     2.0;
    format      ascii;
    arch        "LSB;label=32;scalar=64";
    class       volScalarField;
    location    "0.109";
    object      T;
}
// * * * * * * * * * * * * * * * * * * * * * * * * * * * * * * * * * * * * * //

dimensions      [0 0 0 1 0 0 0];

internalField   nonuniform List<scalar> 
9816
(
227.101
227.11
227.116
227.119
227.12
227.118
227.114
227.108
227.1
227.091
227.08
227.067
227.053
227.037
227.021
227.003
226.983
226.96
226.94
226.914
226.887
226.857
226.824
226.787
226.749
226.711
226.678
226.652
226.637
226.633
226.641
226.681
226.768
226.919
227.13
227.402
227.708
228.051
228.4
228.771
229.123
229.454
225.487
225.466
225.444
225.421
225.397
225.373
225.349
225.325
225.301
225.278
225.256
225.234
225.213
225.191
225.171
225.147
225.122
225.091
225.057
225.018
224.978
224.941
224.91
224.891
224.886
224.888
224.921
225.008
225.177
225.416
225.723
226.064
226.429
226.786
227.129
227.434
227.704
227.92
228.082
228.178
228.22
228.196
224.757
224.738
224.719
224.7
224.682
224.663
224.648
224.632
224.617
224.603
224.589
224.575
224.562
224.546
224.528
224.507
224.484
224.461
224.441
224.427
224.421
224.423
224.434
224.47
224.541
224.663
224.838
225.071
225.356
225.686
226.046
226.412
226.752
227.045
227.285
227.438
227.5
227.543
227.57
227.575
227.554
227.503
224.308
224.294
224.281
224.267
224.255
224.243
224.232
224.222
224.212
224.202
224.192
224.18
224.166
224.15
224.131
224.112
224.095
224.083
224.078
224.079
224.086
224.107
224.157
224.246
224.39
224.595
224.864
225.188
225.553
225.93
226.283
226.592
226.843
226.995
227.061
227.113
227.146
227.15
227.134
227.101
227.057
227.002
224.019
224.008
223.998
223.988
223.978
223.97
223.962
223.954
223.946
223.938
223.928
223.916
223.902
223.886
223.87
223.856
223.848
223.845
223.845
223.851
223.87
223.915
223.996
224.13
224.323
224.586
224.906
225.271
225.647
226.01
226.311
226.529
226.691
226.779
226.791
226.79
226.799
226.805
226.803
226.786
226.75
226.698
223.816
223.808
223.801
223.795
223.788
223.783
223.777
223.772
223.766
223.758
223.749
223.738
223.725
223.712
223.701
223.694
223.691
223.691
223.697
223.712
223.747
223.813
223.924
224.09
224.321
224.613
224.954
225.321
225.68
225.994
226.236
226.414
226.512
226.536
226.549
226.57
226.586
226.589
226.58
226.557
226.524
226.482
223.67
223.664
223.658
223.653
223.648
223.644
223.64
223.636
223.63
223.623
223.614
223.604
223.594
223.584
223.578
223.576
223.576
223.58
223.592
223.62
223.671
223.761
223.899
224.095
224.348
224.657
224.998
225.349
225.671
225.941
226.148
226.276
226.326
226.36
226.393
226.407
226.41
226.397
226.385
226.373
226.356
226.332
223.554
223.551
223.548
223.545
223.543
223.541
223.539
223.535
223.531
223.525
223.517
223.509
223.502
223.497
223.495
223.495
223.499
223.508
223.531
223.573
223.647
223.76
223.923
224.141
224.413
224.726
225.058
225.381
225.669
225.903
226.061
226.154
226.219
226.255
226.262
226.256
226.255
226.259
226.26
226.257
226.247
226.224
223.476
223.473
223.471
223.469
223.467
223.465
223.463
223.459
223.454
223.449
223.443
223.437
223.433
223.432
223.432
223.434
223.441
223.458
223.49
223.547
223.638
223.773
223.958
224.195
224.477
224.789
225.106
225.405
225.662
225.856
225.988
226.08
226.125
226.131
226.135
226.147
226.159
226.167
226.167
226.159
226.141
226.115
223.417
223.416
223.415
223.414
223.413
223.411
223.409
223.406
223.402
223.397
223.393
223.389
223.387
223.387
223.388
223.393
223.404
223.426
223.466
223.533
223.636
223.782
223.976
224.218
224.499
224.802
225.106
225.386
225.627
225.806
225.922
226.001
226.049
226.061
226.058
226.065
226.073
226.081
226.085
226.082
226.07
226.049
223.377
223.376
223.376
223.375
223.374
223.373
223.371
223.368
223.364
223.361
223.358
223.356
223.355
223.356
223.358
223.364
223.378
223.403
223.448
223.519
223.625
223.773
223.967
224.204
224.475
224.765
225.053
225.319
225.548
225.726
225.844
225.923
225.974
225.994
225.992
225.994
226.001
226.009
226.014
226.014
226.005
225.989
223.351
223.351
223.351
223.351
223.35
223.349
223.347
223.345
223.342
223.34
223.338
223.337
223.337
223.338
223.34
223.347
223.361
223.387
223.431
223.5
223.603
223.745
223.928
224.153
224.409
224.686
224.962
225.222
225.449
225.631
225.76
225.849
225.906
225.927
225.928
225.935
225.945
225.955
225.957
225.954
225.946
225.933
223.331
223.332
223.332
223.332
223.333
223.332
223.331
223.329
223.327
223.325
223.324
223.323
223.323
223.324
223.326
223.333
223.346
223.371
223.413
223.479
223.575
223.709
223.88
224.09
224.33
224.592
224.857
225.111
225.338
225.526
225.668
225.764
225.83
225.866
225.875
225.876
225.883
225.891
225.897
225.898
225.894
225.885
223.317
223.317
223.317
223.317
223.317
223.316
223.315
223.314
223.313
223.311
223.311
223.311
223.311
223.312
223.316
223.323
223.337
223.364
223.406
223.472
223.565
223.693
223.857
224.055
224.283
224.53
224.784
225.029
225.251
225.438
225.586
225.689
225.753
225.794
225.818
225.825
225.823
225.824
225.829
225.833
225.835
225.833
223.297
223.298
223.299
223.299
223.3
223.3
223.299
223.298
223.297
223.297
223.297
223.297
223.297
223.299
223.303
223.311
223.328
223.356
223.401
223.469
223.565
223.693
223.856
224.05
224.272
224.51
224.755
224.989
225.202
225.381
225.524
225.623
225.685
225.726
225.751
225.757
225.755
225.757
225.762
225.767
225.77
225.768
223.282
223.283
223.285
223.286
223.286
223.287
223.287
223.287
223.287
223.287
223.287
223.288
223.29
223.293
223.299
223.31
223.329
223.36
223.409
223.48
223.58
223.71
223.875
224.068
224.288
224.521
224.758
224.981
225.183
225.352
225.483
225.574
225.637
225.675
225.688
225.691
225.697
225.705
225.712
225.714
225.712
225.707
223.266
223.267
223.269
223.27
223.271
223.271
223.272
223.272
223.272
223.273
223.274
223.275
223.278
223.283
223.29
223.303
223.325
223.359
223.411
223.487
223.59
223.724
223.89
224.082
224.298
224.525
224.753
224.968
225.16
225.32
225.445
225.53
225.586
225.623
225.642
225.645
225.645
225.649
225.655
225.66
225.661
225.66
223.246
223.247
223.249
223.25
223.251
223.252
223.253
223.253
223.254
223.255
223.256
223.259
223.262
223.267
223.276
223.29
223.314
223.35
223.405
223.482
223.586
223.719
223.883
224.073
224.283
224.503
224.723
224.93
225.115
225.27
225.391
225.48
225.538
225.569
225.586
225.6
225.607
225.608
225.606
225.607
225.608
225.61
223.224
223.226
223.228
223.229
223.23
223.231
223.232
223.233
223.233
223.234
223.236
223.239
223.243
223.248
223.257
223.272
223.296
223.332
223.387
223.462
223.563
223.691
223.847
224.028
224.229
224.44
224.652
224.854
225.038
225.193
225.32
225.414
225.479
225.52
225.548
225.561
225.564
225.564
225.568
225.572
225.576
225.578
223.201
223.204
223.206
223.208
223.209
223.211
223.212
223.213
223.213
223.215
223.217
223.219
223.223
223.228
223.237
223.25
223.273
223.306
223.355
223.423
223.515
223.631
223.775
223.941
224.129
224.327
224.532
224.73
224.915
225.079
225.217
225.327
225.408
225.462
225.498
225.52
225.528
225.528
225.531
225.536
225.542
225.545
223.176
223.178
223.18
223.182
223.183
223.184
223.185
223.185
223.186
223.187
223.188
223.191
223.195
223.2
223.207
223.22
223.238
223.267
223.308
223.366
223.444
223.545
223.668
223.817
223.985
224.17
224.364
224.561
224.751
224.927
225.082
225.212
225.315
225.39
225.439
225.471
225.493
225.501
225.501
225.503
225.508
225.514
223.144
223.147
223.149
223.151
223.153
223.154
223.155
223.156
223.157
223.158
223.159
223.162
223.165
223.17
223.176
223.186
223.2
223.223
223.255
223.302
223.365
223.449
223.553
223.68
223.829
223.999
224.182
224.375
224.568
224.755
224.927
225.078
225.204
225.303
225.374
225.42
225.452
225.471
225.477
225.476
225.48
225.487
223.113
223.115
223.118
223.12
223.122
223.123
223.124
223.125
223.126
223.127
223.128
223.13
223.133
223.136
223.142
223.149
223.161
223.178
223.203
223.24
223.291
223.359
223.447
223.557
223.689
223.841
224.012
224.197
224.389
224.58
224.765
224.933
225.081
225.203
225.3
225.367
225.409
225.438
225.456
225.462
225.46
225.464
223.081
223.083
223.086
223.088
223.089
223.09
223.091
223.092
223.093
223.093
223.094
223.096
223.098
223.101
223.105
223.111
223.12
223.134
223.154
223.184
223.225
223.281
223.356
223.451
223.567
223.704
223.861
224.034
224.219
224.408
224.597
224.776
224.94
225.083
225.201
225.293
225.362
225.406
225.428
225.442
225.456
225.463
223.05
223.052
223.054
223.056
223.057
223.058
223.058
223.059
223.059
223.06
223.06
223.061
223.063
223.065
223.069
223.074
223.081
223.092
223.109
223.133
223.168
223.214
223.277
223.357
223.458
223.578
223.718
223.876
224.049
224.23
224.415
224.596
224.769
224.926
225.064
225.181
225.273
225.343
225.394
225.428
225.442
225.452
223.021
223.023
223.025
223.026
223.027
223.027
223.028
223.028
223.028
223.028
223.028
223.029
223.03
223.032
223.035
223.039
223.045
223.054
223.067
223.087
223.115
223.152
223.203
223.269
223.353
223.453
223.574
223.711
223.865
224.03
224.205
224.381
224.555
224.721
224.874
225.01
225.127
225.223
225.3
225.36
225.406
225.436
222.993
222.994
222.995
222.996
222.996
222.997
222.997
222.997
222.997
222.996
222.996
222.997
222.998
222.999
223.001
223.004
223.009
223.016
223.026
223.041
223.063
223.092
223.132
223.183
223.248
223.328
223.425
223.539
223.668
223.811
223.966
224.129
224.298
224.465
224.628
224.782
224.922
225.047
225.154
225.245
225.319
225.38
222.969
222.969
222.97
222.97
222.97
222.97
222.97
222.97
222.97
222.969
222.969
222.968
222.968
222.969
222.97
222.972
222.975
222.981
222.988
223
223.015
223.037
223.066
223.105
223.154
223.215
223.291
223.383
223.488
223.608
223.742
223.89
224.048
224.213
224.38
224.546
224.704
224.852
224.987
225.106
225.209
225.298
222.945
222.946
222.946
222.946
222.946
222.946
222.945
222.945
222.944
222.944
222.943
222.942
222.942
222.942
222.943
222.944
222.947
222.95
222.956
222.964
222.976
222.992
223.014
223.043
223.082
223.134
223.198
223.275
223.369
223.479
223.605
223.746
223.899
224.062
224.231
224.401
224.569
224.729
224.879
225.015
225.136
225.242
222.922
222.922
222.922
222.921
222.921
222.92
222.919
222.918
222.917
222.916
222.915
222.914
222.914
222.914
222.914
222.914
222.915
222.918
222.922
222.928
222.938
222.951
222.971
222.998
223.034
223.081
223.143
223.22
223.314
223.425
223.552
223.694
223.849
224.015
224.186
224.36
224.532
224.697
224.851
224.992
225.119
225.231
222.898
222.897
222.897
222.896
222.895
222.894
222.893
222.892
222.89
222.889
222.887
222.886
222.885
222.885
222.885
222.885
222.886
222.888
222.892
222.9
222.91
222.927
222.95
222.982
223.025
223.078
223.146
223.229
223.328
223.443
223.575
223.722
223.881
224.051
224.226
224.402
224.575
224.74
224.894
225.034
225.159
225.269
222.873
222.872
222.871
222.87
222.869
222.867
222.866
222.864
222.862
222.86
222.859
222.858
222.857
222.857
222.857
222.857
222.859
222.863
222.869
222.88
222.897
222.92
222.951
222.992
223.043
223.108
223.188
223.285
223.399
223.529
223.676
223.837
224.008
224.186
224.367
224.546
224.718
224.878
225.025
225.155
225.27
225.369
222.847
222.846
222.844
222.843
222.841
222.839
222.837
222.835
222.833
222.832
222.831
222.83
222.829
222.829
222.83
222.832
222.836
222.843
222.855
222.873
222.898
222.932
222.975
223.032
223.103
223.19
223.296
223.419
223.561
223.719
223.891
224.073
224.261
224.449
224.633
224.808
224.97
225.114
225.24
225.348
225.438
225.512
222.818
222.817
222.815
222.814
222.812
222.81
222.807
222.805
222.804
222.802
222.802
222.801
222.801
222.802
222.805
222.81
222.819
222.833
222.853
222.882
222.921
222.972
223.039
223.122
223.225
223.349
223.492
223.655
223.834
224.027
224.227
224.429
224.627
224.815
224.989
225.145
225.28
225.393
225.485
225.559
225.613
225.654
222.788
222.786
222.784
222.782
222.78
222.778
222.776
222.774
222.773
222.773
222.772
222.773
222.774
222.777
222.784
222.795
222.812
222.837
222.871
222.918
222.981
223.061
223.163
223.287
223.434
223.603
223.793
223.998
224.214
224.433
224.649
224.854
225.042
225.209
225.351
225.467
225.56
225.627
225.673
225.707
225.732
225.744
222.756
222.754
222.752
222.75
222.747
222.745
222.744
222.743
222.742
222.742
222.742
222.744
222.749
222.757
222.771
222.793
222.823
222.866
222.924
223.001
223.1
223.223
223.372
223.546
223.744
223.962
224.193
224.429
224.663
224.885
225.088
225.266
225.415
225.534
225.626
225.688
225.727
225.754
225.773
225.781
225.78
225.782
222.72
222.718
222.715
222.713
222.711
222.709
222.708
222.708
222.708
222.709
222.712
222.718
222.73
222.748
222.775
222.814
222.868
222.941
223.036
223.157
223.306
223.483
223.687
223.913
224.156
224.407
224.657
224.894
225.112
225.301
225.457
225.581
225.672
225.73
225.768
225.795
225.808
225.81
225.81
225.813
225.818
225.825
222.68
222.677
222.675
222.673
222.672
222.671
222.671
222.672
222.674
222.678
222.686
222.701
222.725
222.76
222.809
222.877
222.968
223.086
223.233
223.411
223.619
223.852
224.105
224.368
224.632
224.884
225.115
225.316
225.482
225.611
225.702
225.762
225.804
225.827
225.832
225.833
225.839
225.846
225.853
225.859
225.861
225.861
222.637
222.635
222.633
222.632
222.632
222.632
222.633
222.635
222.641
222.651
222.67
222.699
222.743
222.804
222.889
223.002
223.145
223.322
223.531
223.77
224.032
224.307
224.585
224.852
225.098
225.312
225.489
225.625
225.723
225.792
225.831
225.844
225.854
225.866
225.876
225.881
225.883
225.883
225.882
225.882
225.883
225.885
222.592
222.59
222.589
222.588
222.588
222.589
222.592
222.599
222.611
222.633
222.668
222.72
222.794
222.896
223.03
223.2
223.407
223.648
223.917
224.204
224.498
224.784
225.049
225.281
225.475
225.624
225.73
225.804
225.853
225.873
225.879
225.887
225.897
225.906
225.911
225.913
225.913
225.911
225.908
225.907
225.906
225.906
222.544
222.543
222.542
222.542
222.543
222.545
222.552
222.566
222.59
222.628
222.686
222.77
222.886
223.039
223.233
223.467
223.737
224.034
224.344
224.652
224.944
225.203
225.423
225.596
225.72
225.803
225.862
225.894
225.902
225.907
225.914
225.922
225.931
225.936
225.938
225.937
225.933
225.928
225.925
225.921
225.918
225.913
222.494
222.493
222.493
222.493
222.496
222.502
222.515
222.538
222.577
222.638
222.728
222.852
223.019
223.23
223.485
223.778
224.097
224.427
224.749
225.047
225.305
225.513
225.671
225.786
225.854
225.885
225.909
225.929
225.941
225.945
225.946
225.945
225.945
225.945
225.947
225.948
225.948
225.946
225.941
225.932
225.92
225.906
222.443
222.442
222.442
222.443
222.448
222.459
222.481
222.519
222.578
222.668
222.795
222.966
223.185
223.452
223.76
224.096
224.442
224.779
225.087
225.349
225.56
225.715
225.812
225.874
225.918
225.94
225.946
225.949
225.952
225.956
225.962
225.967
225.969
225.969
225.965
225.958
225.949
225.939
225.927
225.913
225.898
225.881
222.389
222.389
222.389
222.393
222.402
222.42
222.454
222.509
222.595
222.718
222.887
223.106
223.376
223.69
224.035
224.394
224.745
225.066
225.343
225.561
225.719
225.83
225.901
225.932
225.945
225.958
225.97
225.98
225.984
225.985
225.982
225.978
225.974
225.97
225.965
225.958
225.948
225.935
225.919
225.9
225.878
225.853
222.336
222.336
222.337
222.344
222.359
222.388
222.438
222.517
222.633
222.795
223.008
223.273
223.586
223.935
224.303
224.666
225.004
225.295
225.532
225.71
225.83
225.9
225.949
225.979
225.991
225.995
225.996
225.997
225.999
226.001
226.002
226
225.994
225.985
225.971
225.954
225.934
225.912
225.888
225.863
225.838
225.813
222.283
222.284
222.289
222.301
222.326
222.37
222.443
222.551
222.704
222.908
223.166
223.475
223.824
224.197
224.57
224.923
225.234
225.49
225.686
225.83
225.92
225.964
225.995
226.017
226.03
226.034
226.032
226.029
226.025
226.023
226.019
226.014
226.005
225.991
225.971
225.947
225.92
225.891
225.861
225.831
225.802
225.775
222.235
222.238
222.247
222.269
222.31
222.377
222.478
222.624
222.821
223.074
223.379
223.728
224.105
224.487
224.853
225.181
225.457
225.67
225.824
225.935
226.003
226.032
226.049
226.059
226.066
226.07
226.07
226.067
226.06
226.051
226.039
226.023
226.003
225.98
225.954
225.925
225.895
225.864
225.833
225.803
225.774
225.746
222.193
222.201
222.221
222.259
222.323
222.421
222.563
222.758
223.009
223.315
223.667
224.05
224.442
224.82
225.161
225.451
225.679
225.849
225.964
226.035
226.077
226.101
226.111
226.114
226.114
226.111
226.107
226.1
226.089
226.073
226.052
226.027
225.997
225.964
225.93
225.895
225.861
225.828
225.798
225.769
225.742
225.716
222.16
222.179
222.217
222.28
222.378
222.522
222.72
222.976
223.29
223.651
224.045
224.448
224.839
225.19
225.491
225.727
225.903
226.021
226.096
226.139
226.161
226.17
226.172
226.171
226.167
226.159
226.148
226.132
226.109
226.081
226.049
226.013
225.975
225.936
225.898
225.861
225.827
225.795
225.766
225.739
225.714
225.69
222.144
222.182
222.246
222.348
222.498
222.704
222.973
223.301
223.68
224.09
224.51
224.913
225.275
225.581
225.82
225.995
226.111
226.184
226.222
226.24
226.246
226.247
226.244
226.237
226.226
226.208
226.184
226.152
226.116
226.075
226.033
225.99
225.947
225.907
225.869
225.834
225.802
225.772
225.746
225.721
225.698
225.675
222.154
222.223
222.331
222.491
222.712
222.999
223.349
223.751
224.184
224.626
225.043
225.417
225.725
225.963
226.131
226.241
226.305
226.337
226.35
226.353
226.351
226.345
226.334
226.315
226.289
226.254
226.213
226.168
226.121
226.073
226.026
225.981
225.939
225.9
225.865
225.832
225.802
225.774
225.748
225.724
225.702
225.679
222.209
222.327
222.502
222.742
223.054
223.432
223.865
224.327
224.794
225.231
225.616
225.927
226.163
226.322
226.422
226.475
226.499
226.505
226.505
226.5
226.489
226.469
226.44
226.401
226.355
226.302
226.247
226.191
226.136
226.084
226.036
225.992
225.951
225.914
225.88
225.849
225.82
225.794
225.77
225.746
225.724
225.702
222.335
222.529
222.795
223.138
223.552
224.02
224.52
225.016
225.477
225.874
226.19
226.422
226.574
226.662
226.704
226.72
226.722
226.719
226.708
226.691
226.659
226.616
226.561
226.499
226.432
226.364
226.297
226.234
226.177
226.124
226.077
226.034
225.996
225.961
225.929
225.9
225.872
225.847
225.823
225.8
225.778
225.756
222.567
222.863
223.244
223.699
224.212
224.754
225.284
225.773
226.184
226.507
226.731
226.875
226.954
226.991
227.001
226.999
226.99
226.974
226.945
226.903
226.845
226.775
226.696
226.614
226.532
226.453
226.381
226.316
226.258
226.207
226.162
226.122
226.086
226.054
226.024
225.996
225.97
225.945
225.922
225.899
225.877
225.855
222.937
223.358
223.86
224.422
225.009
225.578
226.095
226.52
226.846
227.072
227.209
227.273
227.3
227.306
227.304
227.296
227.275
227.237
227.18
227.105
227.018
226.922
226.826
226.732
226.646
226.568
226.499
226.439
226.386
226.339
226.297
226.259
226.225
226.192
226.162
226.133
226.105
226.079
226.055
226.031
226.008
225.985
223.454
224.002
224.612
225.245
225.853
226.396
226.841
227.168
227.378
227.513
227.58
227.602
227.601
227.593
227.575
227.547
227.502
227.436
227.352
227.254
227.148
227.041
226.938
226.844
226.76
226.687
226.623
226.569
226.521
226.479
226.442
226.407
226.375
226.344
226.314
226.286
226.258
226.232
226.206
226.181
226.156
226.132
224.099
224.75
225.422
226.066
226.629
227.081
227.421
227.636
227.747
227.803
227.826
227.832
227.825
227.806
227.771
227.71
227.631
227.533
227.424
227.312
227.204
227.102
227.009
226.926
226.853
226.789
226.731
226.68
226.634
226.593
226.554
226.518
226.484
226.452
226.422
226.393
226.365
226.339
226.314
226.289
226.266
226.243
224.829
225.532
226.202
226.782
227.245
227.587
227.79
227.89
227.95
227.977
227.983
227.974
227.948
227.907
227.846
227.765
227.666
227.557
227.444
227.333
227.227
227.129
227.041
226.963
226.894
226.833
226.779
226.731
226.688
226.648
226.612
226.577
226.545
226.514
226.485
226.457
226.43
226.403
226.378
226.354
226.331
226.307
225.581
226.274
226.869
227.335
227.685
227.898
227.974
228.013
228.039
228.06
228.065
228.047
228.004
227.943
227.86
227.761
227.653
227.542
227.432
227.327
227.23
227.139
227.058
226.984
226.917
226.858
226.804
226.755
226.711
226.67
226.633
226.598
226.566
226.535
226.507
226.48
226.454
226.43
226.406
226.383
226.361
226.339
226.29
226.897
227.379
227.732
227.936
228.016
228.067
228.096
228.11
228.107
228.085
228.045
227.992
227.919
227.829
227.727
227.617
227.505
227.396
227.293
227.198
227.112
227.034
226.965
226.902
226.846
226.795
226.749
226.706
226.667
226.63
226.596
226.564
226.534
226.505
226.478
226.453
226.429
226.405
226.383
226.36
226.338
226.898
227.384
227.736
227.946
228.045
228.099
228.124
228.13
228.123
228.1
228.062
228.013
227.948
227.86
227.76
227.647
227.531
227.417
227.308
227.208
227.117
227.037
226.967
226.904
226.849
226.799
226.753
226.711
226.671
226.634
226.598
226.564
226.532
226.501
226.471
226.443
226.416
226.39
226.365
226.341
226.318
226.295
227.378
227.72
227.935
228.046
228.102
228.125
228.132
228.125
228.101
228.063
228.011
227.941
227.85
227.744
227.628
227.507
227.388
227.276
227.174
227.083
227.002
226.932
226.871
226.816
226.766
226.721
226.678
226.637
226.598
226.561
226.525
226.49
226.456
226.424
226.393
226.363
226.335
226.309
226.284
226.26
226.237
226.214
227.7
227.909
228.023
228.079
228.098
228.107
228.098
228.071
228.026
227.965
227.885
227.786
227.673
227.551
227.428
227.308
227.196
227.095
227.005
226.926
226.857
226.796
226.741
226.691
226.644
226.6
226.557
226.517
226.477
226.44
226.403
226.368
226.335
226.303
226.273
226.245
226.218
226.193
226.169
226.146
226.124
226.103
227.86
227.971
228.021
228.04
228.043
228.027
227.993
227.94
227.866
227.775
227.664
227.543
227.417
227.293
227.175
227.067
226.97
226.884
226.808
226.741
226.68
226.625
226.574
226.526
226.48
226.437
226.395
226.354
226.316
226.279
226.244
226.211
226.18
226.15
226.122
226.096
226.071
226.047
226.025
226.004
225.983
225.963
227.887
227.929
227.947
227.939
227.91
227.862
227.798
227.709
227.604
227.484
227.357
227.229
227.106
226.992
226.889
226.798
226.718
226.646
226.582
226.524
226.47
226.42
226.372
226.327
226.283
226.241
226.201
226.163
226.126
226.092
226.059
226.028
225.999
225.971
225.945
225.92
225.897
225.875
225.854
225.834
225.814
225.795
227.804
227.811
227.793
227.751
227.69
227.605
227.503
227.382
227.254
227.122
226.995
226.875
226.768
226.672
226.587
226.512
226.446
226.386
226.331
226.279
226.23
226.184
226.139
226.096
226.055
226.016
225.978
225.943
225.909
225.877
225.847
225.818
225.791
225.765
225.741
225.718
225.696
225.675
225.656
225.637
225.618
225.6
227.646
227.609
227.549
227.469
227.366
227.247
227.118
226.984
226.853
226.729
226.617
226.516
226.428
226.35
226.281
226.219
226.162
226.11
226.06
226.013
225.968
225.924
225.882
225.842
225.804
225.767
225.732
225.699
225.668
225.638
225.61
225.583
225.558
225.534
225.511
225.49
225.469
225.45
225.431
225.413
225.395
225.378
227.394
227.314
227.209
227.089
226.956
226.821
226.687
226.561
226.445
226.342
226.25
226.17
226.099
226.035
225.977
225.923
225.872
225.824
225.778
225.733
225.691
225.649
225.61
225.572
225.536
225.502
225.469
225.438
225.409
225.381
225.355
225.33
225.306
225.283
225.261
225.241
225.221
225.202
225.184
225.167
225.15
225.134
227.048
226.923
226.785
226.646
226.51
226.381
226.264
226.159
226.066
225.983
225.91
225.845
225.785
225.73
225.678
225.628
225.58
225.534
225.49
225.447
225.406
225.367
225.33
225.294
225.26
225.227
225.197
225.167
225.14
225.113
225.088
225.064
225.041
225.019
224.998
224.978
224.959
224.941
224.923
224.907
224.89
224.874
226.621
226.476
226.335
226.204
226.085
225.979
225.885
225.802
225.728
225.661
225.6
225.543
225.489
225.437
225.387
225.339
225.293
225.248
225.204
225.163
225.123
225.086
225.05
225.015
224.983
224.952
224.922
224.894
224.867
224.841
224.816
224.793
224.77
224.749
224.729
224.709
224.69
224.673
224.656
224.639
224.623
224.607
226.18
226.043
225.921
225.813
225.718
225.635
225.56
225.492
225.43
225.371
225.315
225.261
225.209
225.158
225.109
225.062
225.016
224.972
224.93
224.889
224.851
224.814
224.779
224.746
224.714
224.684
224.655
224.627
224.6
224.575
224.551
224.527
224.505
224.484
224.464
224.445
224.426
224.409
224.392
224.376
224.36
224.344
225.789
225.676
225.579
225.493
225.417
225.348
225.284
225.223
225.165
225.109
225.054
225
224.948
224.898
224.849
224.802
224.757
224.714
224.673
224.634
224.596
224.56
224.526
224.493
224.462
224.432
224.403
224.376
224.349
224.324
224.301
224.278
224.256
224.235
224.215
224.196
224.178
224.161
224.144
224.128
224.113
224.097
225.479
225.389
225.31
225.238
225.171
225.108
225.047
224.987
224.929
224.873
224.818
224.764
224.712
224.662
224.614
224.568
224.524
224.482
224.441
224.403
224.366
224.331
224.297
224.265
224.234
224.204
224.176
224.149
224.123
224.098
224.075
224.052
224.031
224.01
223.991
223.972
223.954
223.937
223.921
223.906
223.89
223.875
225.244
225.168
225.097
225.03
224.965
224.902
224.84
224.779
224.72
224.663
224.608
224.554
224.503
224.454
224.406
224.361
224.318
224.277
224.237
224.2
224.163
224.129
224.095
224.064
224.033
224.004
223.977
223.95
223.925
223.901
223.878
223.856
223.835
223.815
223.796
223.778
223.761
223.745
223.729
223.714
223.699
223.685
225.065
224.992
224.923
224.855
224.789
224.724
224.66
224.598
224.539
224.481
224.426
224.373
224.323
224.274
224.228
224.184
224.142
224.101
224.062
224.025
223.99
223.956
223.924
223.893
223.864
223.836
223.809
223.783
223.759
223.736
223.714
223.693
223.673
223.654
223.636
223.619
223.603
223.587
223.572
223.558
223.544
223.53
224.922
224.848
224.776
224.706
224.637
224.57
224.506
224.444
224.384
224.327
224.272
224.22
224.17
224.123
224.078
224.034
223.993
223.953
223.916
223.88
223.846
223.813
223.782
223.752
223.724
223.697
223.672
223.648
223.625
223.603
223.582
223.562
223.543
223.525
223.508
223.492
223.477
223.462
223.448
223.435
223.422
223.409
224.801
224.724
224.65
224.577
224.506
224.439
224.374
224.312
224.253
224.197
224.143
224.092
224.043
223.997
223.953
223.911
223.87
223.832
223.796
223.761
223.729
223.697
223.668
223.64
223.613
223.588
223.563
223.541
223.519
223.498
223.479
223.46
223.443
223.426
223.41
223.395
223.381
223.367
223.354
223.342
223.33
223.318
224.695
224.616
224.539
224.464
224.393
224.326
224.261
224.2
224.142
224.087
224.035
223.985
223.937
223.892
223.849
223.809
223.77
223.733
223.699
223.666
223.635
223.605
223.577
223.551
223.526
223.502
223.479
223.458
223.438
223.418
223.4
223.383
223.367
223.351
223.336
223.322
223.309
223.297
223.285
223.273
223.262
223.251
224.601
224.52
224.442
224.367
224.296
224.229
224.166
224.105
224.048
223.994
223.943
223.894
223.848
223.805
223.764
223.725
223.688
223.653
223.62
223.589
223.559
223.532
223.505
223.48
223.457
223.435
223.414
223.394
223.375
223.357
223.34
223.324
223.309
223.294
223.281
223.268
223.255
223.244
223.233
223.222
223.212
223.201
224.517
224.435
224.356
224.282
224.211
224.145
224.082
224.023
223.967
223.915
223.865
223.818
223.774
223.732
223.692
223.655
223.62
223.587
223.556
223.526
223.499
223.472
223.448
223.424
223.402
223.381
223.362
223.343
223.326
223.309
223.293
223.278
223.264
223.251
223.238
223.226
223.215
223.204
223.194
223.184
223.175
223.165
224.438
224.356
224.278
224.205
224.136
224.07
224.009
223.951
223.897
223.846
223.798
223.753
223.71
223.67
223.632
223.597
223.564
223.532
223.503
223.475
223.449
223.424
223.401
223.379
223.359
223.339
223.321
223.304
223.287
223.272
223.258
223.244
223.231
223.219
223.208
223.197
223.187
223.177
223.168
223.159
223.151
223.142
224.363
224.282
224.205
224.133
224.065
224.002
223.942
223.886
223.834
223.785
223.738
223.695
223.654
223.616
223.58
223.547
223.516
223.486
223.458
223.432
223.408
223.385
223.364
223.344
223.325
223.307
223.291
223.275
223.26
223.247
223.233
223.221
223.21
223.199
223.188
223.179
223.17
223.161
223.153
223.145
223.137
223.13
224.288
224.208
224.134
224.063
223.998
223.937
223.879
223.826
223.775
223.728
223.684
223.643
223.605
223.569
223.536
223.504
223.475
223.448
223.422
223.399
223.376
223.356
223.336
223.318
223.301
223.285
223.27
223.256
223.243
223.23
223.218
223.207
223.196
223.186
223.177
223.168
223.16
223.152
223.145
223.137
223.13
223.124
224.21
224.134
224.062
223.994
223.932
223.873
223.819
223.768
223.72
223.676
223.635
223.597
223.561
223.528
223.498
223.469
223.443
223.418
223.395
223.373
223.353
223.334
223.316
223.3
223.284
223.27
223.256
223.243
223.231
223.22
223.209
223.198
223.189
223.18
223.171
223.163
223.155
223.148
223.141
223.135
223.128
223.122
224.131
224.058
223.99
223.926
223.867
223.812
223.761
223.714
223.67
223.629
223.592
223.557
223.525
223.495
223.467
223.441
223.417
223.394
223.373
223.354
223.335
223.318
223.302
223.287
223.273
223.259
223.247
223.235
223.224
223.214
223.204
223.195
223.186
223.178
223.17
223.163
223.156
223.149
223.143
223.137
223.132
223.126
224.051
223.982
223.918
223.859
223.804
223.754
223.707
223.664
223.624
223.588
223.554
223.523
223.493
223.466
223.441
223.418
223.396
223.376
223.357
223.339
223.322
223.306
223.292
223.278
223.265
223.254
223.242
223.232
223.222
223.213
223.204
223.196
223.188
223.181
223.174
223.168
223.162
223.156
223.151
223.146
223.141
223.136
223.972
223.909
223.85
223.796
223.746
223.701
223.659
223.621
223.585
223.552
223.522
223.494
223.468
223.443
223.421
223.4
223.38
223.362
223.344
223.329
223.314
223.3
223.287
223.275
223.264
223.253
223.243
223.234
223.225
223.217
223.21
223.203
223.196
223.19
223.184
223.179
223.174
223.169
223.164
223.16
223.156
223.151
223.9
223.842
223.789
223.74
223.696
223.655
223.618
223.584
223.552
223.523
223.495
223.47
223.447
223.425
223.405
223.386
223.368
223.352
223.337
223.323
223.31
223.298
223.287
223.276
223.266
223.257
223.249
223.241
223.233
223.226
223.22
223.214
223.208
223.202
223.197
223.193