/*--------------------------------*- C++ -*----------------------------------*\
| =========                 |                                                 |
| \\      /  F ield         | OpenFOAM: The Open Source CFD Toolbox           |
|  \\    /   O peration     | Version:  2412                                  |
|   \\  /    A nd           | Website:  www.openfoam.com                      |
|    \\/     M anipulation  |                                                 |
\*---------------------------------------------------------------------------*/
FoamFile
{
    version     2.0;
    format      ascii;
    arch        "LSB;label=32;scalar=64";
    class       volScalarField;
    location    "0.082";
    object      p;
}
// * * * * * * * * * * * * * * * * * * * * * * * * * * * * * * * * * * * * * //

dimensions      [1 -1 -2 0 0 0 0];

internalField   nonuniform List<scalar> 
9922
(
4476.85
2855.1
2860.97
2881.62
2881.07
2877.14
2869.6
2863.61
2857.53
2851.52
2845.67
2839.97
2834.18
2828.11
2821.54
2814.4
2806.74
2798.71
2790.45
2782.05
2773.52
2764.85
2756.04
2747.08
2737.97
2728.7
2719.23
2709.55
2699.66
2689.52
2679.1
2668.36
2657.26
2645.77
2633.85
2621.46
2608.55
2595.05
2580.96
2566.24
2550.87
2534.79
2517.94
2500.27
2481.78
2462.45
2442.33
2421.44
2399.81
2377.43
2354.33
2330.54
2306.17
2281.27
2255.83
2230.03
2204.71
2180.69
2154.61
2105.96
1977.49
1814.9
1710.05
1652.23
1612.47
1579.15
1549.95
1524.01
1500.71
1479.69
1460.97
1443.75
1428.18
1413.74
1400.3
1387.64
1375.94
1364.94
1354.59
1344.8
1335.57
1326.82
1318.58
1310.73
1303.23
1296.09
1289.32
1282.87
1276.75
1270.86
1265.27
1259.96
1254.95
1250.13
1245.49
1240.99
1236.64
1232.41
1228.31
1224.34
1220.57
1217.02
1213.7
1210.55
1207.57
1204.72
1201.99
1199.39
1196.88
1194.49
1192.17
1189.98
1187.84
1185.82
1183.88
1182.02
1180.22
1178.53
1176.81
1175.16
1172.78
4480.46
2854.37
2859.76
2880.6
2880.25
2876.51
2869.09
2863.17
2857.15
2851.19
2845.38
2839.71
2833.96
2827.93
2821.4
2814.3
2806.67
2798.65
2790.4
2782
2773.46
2764.78
2755.96
2746.99
2737.87
2728.58
2719.1
2709.41
2699.5
2689.34
2678.9
2668.14
2657
2645.47
2633.51
2621.07
2608.09
2594.51
2580.3
2565.46
2549.93
2533.67
2516.6
2498.67
2479.84
2460.1
2439.47
2417.95
2395.55
2372.24
2347.99
2322.81
2296.68
2269.51
2241.22
2212.02
2182.03
2147.99
2096.3
1989.38
1861.29
1761.97
1697.26
1650.36
1611.99
1579.17
1549.97
1523.79
1500.68
1479.94
1461.03
1443.92
1428.23
1413.81
1400.34
1387.75
1375.79
1364.57
1353.97
1344
1334.72
1326.11
1317.94
1310.11
1302.67
1295.61
1288.9
1282.47
1276.3
1270.45
1264.92
1259.62
1254.52
1249.57
1244.77
1240.12
1235.68
1231.47
1227.53
1223.85
1220.42
1217.17
1214.06
1211.06
1208.16
1205.37
1202.67
1200.08
1197.57
1195.18
1192.84
1190.62
1188.43
1186.37
1184.41
1182.55
1180.74
1179.07
1177.36
1175.76
1173.38
4484.1
2853.69
2858.55
2879.58
2879.42
2875.87
2868.58
2862.74
2856.77
2850.85
2845.07
2839.45
2833.74
2827.75
2821.27
2814.21
2806.6
2798.6
2790.35
2781.94
2773.4
2764.71
2755.88
2746.9
2737.77
2728.47
2718.97
2709.27
2699.34
2689.17
2678.71
2667.92
2656.76
2645.19
2633.19
2620.69
2607.64
2593.98
2579.67
2564.7
2549.01
2532.57
2515.29
2497.1
2477.95
2457.81
2436.67
2414.52
2391.36
2367.11
2341.71
2315.09
2287.12
2257.64
2226.47
2193.32
2155.68
2104.62
2021.19
1915.1
1819.21
1747.45
1693.28
1649.67
1612.2
1579.11
1550.3
1524.82
1501.53
1480.39
1461.47
1444.36
1428.57
1413.77
1400.12
1387.28
1375.36
1364.18
1353.7
1343.85
1334.57
1325.78
1317.43
1309.5
1301.98
1294.85
1288.04
1281.6
1275.5
1269.65
1264.06
1258.66
1253.47
1248.54
1243.91
1239.57
1235.49
1231.62
1227.91
1224.3
1220.79
1217.4
1214.12
1210.95
1207.91
1204.99
1202.19
1199.52
1196.96
1194.54
1192.19
1190
1187.85
1185.85
1183.94
1182.12
1180.33
1178.64
1176.93
1175.33
1173
4487.75
2853.05
2857.35
2878.54
2878.57
2875.22
2868.05
2862.29
2856.38
2850.51
2844.76
2839.18
2833.51
2827.57
2821.13
2814.1
2806.52
2798.55
2790.31
2781.89
2773.34
2764.64
2755.8
2746.81
2737.67
2728.36
2718.85
2709.13
2699.19
2689
2678.52
2667.71
2656.52
2644.92
2632.87
2620.33
2607.22
2593.48
2579.07
2563.96
2548.13
2531.5
2514.01
2495.57
2476.11
2455.58
2433.95
2411.2
2387.27
2362.09
2335.54
2307.46
2277.66
2245.85
2211.52
2172.94
2124.94
2058.43
1968.58
1878.38
1802.17
1741.36
1692.18
1649.56
1612.67
1580.51
1551.54
1525.39
1501.94
1480.8
1461.54
1444.07
1428.01
1413.23
1399.57
1386.97
1375.22
1364.17
1353.8
1344
1334.65
1325.78
1317.41
1309.49
1301.99
1294.87
1288.11
1281.59
1275.27
1269.23
1263.53
1258.18
1253.17
1248.47
1244.03
1239.73
1235.48
1231.3
1227.21
1223.27
1219.51
1215.96
1212.58
1209.37
1206.32
1203.42
1200.66
1198.03
1195.5
1193.11
1190.78
1188.6
1186.46
1184.47
1182.57
1180.76
1178.98
1177.32
1175.62
1174.03
1171.81
4491.42
2852.47
2856.15
2877.5
2877.72
2874.57
2867.52
2861.84
2855.98
2850.15
2844.45
2838.9
2833.28
2827.38
2820.98
2814
2806.45
2798.49
2790.26
2781.85
2773.28
2764.58
2755.72
2746.72
2737.57
2728.25
2718.73
2709
2699.04
2688.83
2678.34
2667.51
2656.29
2644.66
2632.57
2619.98
2606.8
2592.99
2578.48
2563.25
2547.27
2530.47
2512.76
2494.07
2474.31
2453.41
2431.31
2407.96
2383.3
2357.2
2329.5
2299.98
2268.33
2234.1
2196.06
2151.05
2093.66
2019.25
1936.83
1859.58
1793.75
1739.13
1691.9
1651.04
1614.45
1581.58
1552.42
1526.33
1502.65
1481.05
1461.68
1444.03
1428.12
1413.57
1400.17
1387.49
1375.61
1364.43
1353.82
1343.64
1334.06
1325.06
1316.66
1308.73
1301.23
1294.13
1287.41
1281.04
1274.97
1269.18
1263.63
1258.31
1253.2
1248.26
1243.44
1238.73
1234.19
1229.91
1225.93
1222.22
1218.75
1215.46
1212.29
1209.26
1206.36
1203.58
1200.9
1198.32
1195.83
1193.47
1191.16
1189.01
1186.89
1184.91
1183.02
1181.23
1179.47
1177.86
1176.17
1174.61
1172.29
4495.11
2851.94
2854.96
2876.45
2876.85
2873.9
2866.99
2861.37
2855.57
2849.79
2844.13
2838.62
2833.04
2827.19
2820.84
2813.89
2806.38
2798.44
2790.21
2781.8
2773.23
2764.51
2755.64
2746.63
2737.47
2728.14
2718.61
2708.87
2698.9
2688.67
2678.16
2667.31
2656.07
2644.41
2632.28
2619.64
2606.41
2592.52
2577.92
2562.57
2546.44
2529.46
2511.55
2492.62
2472.56
2451.29
2428.74
2404.82
2379.45
2352.46
2323.64
2292.68
2259.18
2222.35
2180.25
2129.56
2067.29
1992.76
1917.82
1849.19
1789.83
1738.24
1693.03
1652.35
1616.1
1583.74
1554.41
1527.81
1504.05
1482.64
1463.17
1445.51
1429.37
1414.41
1400.56
1387.43
1375.25
1363.91
1353.36
1343.32
1333.71
1324.72
1316.3
1308.3
1300.71
1293.52
1286.7
1280.22
1274.11
1268.27
1262.59
1257.1
1251.83
1246.85
1242.18
1237.85
1233.82
1229.98
1226.3
1222.73
1219.26
1215.89
1212.63
1209.49
1206.48
1203.57
1200.78
1198.11
1195.53
1193.1
1190.73
1188.52
1186.35
1184.32
1182.39
1180.55
1178.75
1177.06
1175.33
1173.72
1171.42
4498.8
2851.47
2853.78
2875.39
2875.98
2873.22
2866.44
2860.9
2855.16
2849.43
2843.8
2838.33
2832.8
2826.99
2820.69
2813.79
2806.3
2798.38
2790.17
2781.75
2773.17
2764.45
2755.57
2746.55
2737.38
2728.03
2718.49
2708.74
2698.76
2688.52
2677.99
2667.12
2655.86
2644.17
2632
2619.32
2606.03
2592.07
2577.38
2561.92
2545.64
2528.49
2510.37
2491.2
2470.85
2449.23
2426.24
2401.77
2375.71
2347.85
2317.92
2285.55
2250.18
2210.69
2164.88
2110.38
2046.31
1975.24
1905.97
1843.19
1787.61
1738.28
1694.03
1654.61
1618.84
1586.26
1556.97
1530.58
1506.53
1484.68
1464.79
1446.69
1430.01
1414.46
1400.02
1386.82
1374.86
1363.65
1353.08
1343.06
1333.81
1325.07
1316.7
1308.7
1301.13
1293.92
1287.07
1280.46
1274.07
1267.94
1262.13
1256.68
1251.63
1246.94
1242.53
1238.29
1234.12
1230.01
1225.97
1222.05
1218.28
1214.67
1211.25
1208.02
1204.95
1202.01
1199.21
1196.54
1193.99
1191.59
1189.27
1187.1
1184.97
1182.99
1181.1
1179.32
1177.56
1175.95
1174.25
1172.7
1170.56
4502.51
2851.05
2852.61
2874.33
2875.09
2872.54
2865.88
2860.42
2854.73
2849.05
2843.46
2838.04
2832.55
2826.79
2820.54
2813.68
2806.23
2798.33
2790.12
2781.7
2773.12
2764.38
2755.49
2746.46
2737.28
2727.93
2718.38
2708.62
2698.62
2688.37
2677.83
2666.94
2655.66
2643.94
2631.74
2619.01
2605.67
2591.65
2576.87
2561.29
2544.88
2527.55
2509.24
2489.82
2469.19
2447.23
2423.81
2398.82
2372.09
2343.38
2312.38
2278.62
2241.41
2199.39
2150.55
2093.77
2029.54
1962.69
1898.63
1839.98
1787.25
1739.81
1697.16
1657.8
1621.88
1589.39
1559.79
1532.91
1508.48
1486.25
1465.82
1447.11
1430.12
1414.7
1400.81
1388.04
1376.11
1364.75
1354.01
1343.74
1333.91
1324.52
1315.78
1307.66
1300.03
1292.78
1285.95
1279.56
1273.56
1267.86
1262.34
1256.95
1251.77
1246.78
1241.95
1237.28
1232.8
1228.53
1224.51
1220.72
1217.15
1213.79
1210.61
1207.6
1204.69
1201.89
1199.21
1196.66
1194.22
1191.91
1189.66
1187.56
1185.48
1183.55
1181.7
1179.94
1178.19
1176.6
1174.9
1173.33
1171.02
4506.22
2850.7
2851.45
2873.27
2874.19
2871.84
2865.32
2859.93
2854.3
2848.66
2843.12
2837.74
2832.3
2826.59
2820.38
2813.56
2806.15
2798.28
2790.08
2781.66
2773.07
2764.32
2755.42
2746.38
2737.19
2727.83
2718.27
2708.5
2698.49
2688.23
2677.67
2666.77
2655.47
2643.72
2631.49
2618.71
2605.33
2591.24
2576.38
2560.7
2544.15
2526.66
2508.14
2488.48
2467.57
2445.27
2421.44
2395.94
2368.56
2339.04
2307
2271.92
2232.98
2188.79
2137.93
2080.53
2017.58
1954.43
1894.2
1839.07
1788.74
1743.02
1700.67
1661.76
1625.68
1592.43
1562.26
1534.94
1510.1
1487.45
1467.06
1448.64
1431.92
1416.53
1402.32
1388.98
1376.47
1364.65
1353.65
1343.32
1333.63
1324.35
1315.82
1307.76
1300.05
1292.69
1285.75
1279.22
1273.01
1266.97
1261.17
1255.61
1250.31
1245.3
1240.6
1236.24
1232.18
1228.35
1224.67
1221.09
1217.62
1214.3
1211.1
1208.02
1205.03
1202.15
1199.4
1196.77
1194.25
1191.84
1189.51
1187.32
1185.16
1183.14
1181.21
1179.37
1177.54
1175.85
1174.09
1172.5
1170.24
4509.94
2850.4
2850.3
2872.2
2873.29
2871.14
2864.75
2859.43
2853.86
2848.27
2842.77
2837.44
2832.04
2826.38
2820.22
2813.45
2806.07
2798.22
2790.03
2781.61
2773.01
2764.26
2755.35
2746.3
2737.1
2727.73
2718.16
2708.38
2698.37
2688.09
2677.52
2666.61
2655.28
2643.51
2631.25
2618.43
2605
2590.86
2575.92
2560.14
2543.46
2525.8
2507.09
2487.2
2466.01
2443.38
2419.15
2393.14
2365.15
2334.85
2301.83
2265.52
2225.01
2179.14
2127.3
2070.37
2009.39
1949.42
1892.47
1839.51
1790.95
1745.96
1704.32
1665.4
1629.4
1596.33
1565.85
1537.91
1512.8
1490.18
1469.76
1451.17
1433.95
1417.79
1402.66
1388.63
1375.85
1364.04
1353.13
1342.86
1333.33
1324.56
1316.15
1307.97
1300.19
1292.86
1285.98
1279.46
1273.17
1266.95
1260.88
1255.33
1250.25
1245.46
1240.96
1236.66
1232.5
1228.44
1224.45
1220.57
1216.82
1213.27
1209.87
1206.62
1203.49
1200.53
1197.73
1195.08
1192.54
1190.14
1187.81
1185.62
1183.47
1181.46
1179.56
1177.78
1176.02
1174.41
1172.7
1171.14
1168.99
4513.65
2850.17
2849.17
2871.13
2872.38
2870.44
2864.18
2858.93
2853.41
2847.88
2842.41
2837.13
2831.78
2826.17
2820.06
2813.33
2805.99
2798.17
2789.99
2781.57
2772.96
2764.19
2755.28
2746.22
2737.01
2727.63
2718.06
2708.27
2698.25
2687.96
2677.38
2666.45
2655.11
2643.32
2631.02
2618.17
2604.69
2590.49
2575.49
2559.61
2542.81
2525
2506.09
2485.97
2464.51
2441.56
2416.93
2390.45
2361.85
2330.82
2296.9
2259.47
2217.7
2170.78
2118.8
2062.79
2004.01
1946.5
1891.75
1840.72
1793.22
1749.07
1707.78
1669.44
1633.83
1600.74
1570.34
1542.48
1516.91
1493.64
1472.37
1452.83
1434.85
1418.26
1403.1
1389.29
1376.85
1365.31
1354.48
1344.13
1334.27
1324.66
1315.56
1307.12
1299.3
1291.96
1285
1278.34
1272.05
1266.19
1260.75
1255.57
1250.42
1245.33
1240.39
1235.64
1231.11
1226.81
1222.73
1218.87
1215.26
1211.86
1208.61
1205.47
1202.49
1199.67
1197.01
1194.48
1192.06
1189.75
1187.5
1185.39
1183.3
1181.35
1179.51
1177.76
1176.02
1174.43
1172.72
1171.17
1168.9
4517.36
2850.01
2848.05
2870.06
2871.46
2869.73
2863.6
2858.42
2852.95
2847.47
2842.05
2836.81
2831.51
2825.95
2819.89
2813.21
2805.91
2798.11
2789.95
2781.53
2772.91
2764.13
2755.21
2746.14
2736.92
2727.54
2717.96
2708.17
2698.13
2687.84
2677.25
2666.3
2654.95
2643.13
2630.81
2617.93
2604.4
2590.15
2575.08
2559.12
2542.2
2524.24
2505.15
2484.81
2463.09
2439.81
2414.81
2387.87
2358.72
2327.01
2292.27
2253.89
2211.18
2163.71
2111.91
2056.84
2000.27
1944.97
1892.1
1842.62
1796.57
1753.47
1713.02
1674.63
1638.66
1605.43
1574.64
1546.29
1520.22
1496.35
1474.47
1454.38
1436.29
1419.98
1405.16
1391.29
1378.43
1366.31
1354.95
1344.26
1334.32
1324.98
1316.17
1307.86
1300.1
1292.72
1285.56
1278.63
1272.07
1265.89
1260.06
1254.46
1248.98
1243.79
1238.93
1234.42
1230.23
1226.28
1222.52
1218.92
1215.47
1212.13
1208.86
1205.71
1202.69
1199.84
1197.11
1194.47
1191.94
1189.5
1187.13
1184.9
1182.7
1180.63
1178.66
1176.8
1174.93
1173.21
1171.39
1169.73
1167.38
4521.07
2849.91
2846.95
2868.99
2870.53
2869.01
2863.02
2857.9
2852.49
2847.06
2841.69
2836.49
2831.23
2825.72
2819.72
2813.09
2805.83
2798.06
2789.9
2781.48
2772.86
2764.07
2755.14
2746.06
2736.84
2727.45
2717.86
2708.06
2698.03
2687.72
2677.12
2666.17
2654.8
2642.96
2630.61
2617.7
2604.13
2589.83
2574.7
2558.66
2541.63
2523.54
2504.27
2483.72
2461.75
2438.17
2412.81
2385.43
2355.76
2323.45
2288.01
2248.89
2205.58
2157.92
2106.54
2052.47
1997.89
1944.67
1893.97
1846.47
1801.69
1759.21
1718.68
1680.37
1644.13
1610.08
1578.56
1549.52
1522.92
1498.65
1476.74
1457.03
1439.15
1422.56
1407.07
1392.41
1378.76
1366.07
1354.49
1343.74
1333.75
1324.38
1315.73
1307.55
1299.77
1292.31
1285.15
1278.32
1271.88
1265.79
1259.87
1254.06
1248.72
1243.83
1239.23
1234.83
1230.55
1226.42
1222.4
1218.55
1214.8
1211.16
1207.64
1204.29
1201.13
1198.14
1195.27
1192.51
1189.86
1187.33
1184.9
1182.63
1180.42
1178.35
1176.4
1174.59
1172.79
1171.17
1169.43
1167.86
1165.72
4524.76
2849.88
2845.87
2867.93
2869.61
2868.29
2862.43
2857.37
2852.02
2846.64
2841.31
2836.16
2830.95
2825.49
2819.54
2812.96
2805.75
2798
2789.86
2781.44
2772.81
2764.02
2755.07
2745.99
2736.76
2727.36
2717.77
2707.97
2697.92
2687.61
2677
2666.04
2654.66
2642.81
2630.43
2617.48
2603.88
2589.54
2574.35
2558.23
2541.11
2522.89
2503.47
2482.72
2460.5
2436.64
2410.94
2383.17
2353.04
2320.2
2284.18
2244.51
2200.86
2153.29
2102.56
2049.84
1997.14
1945.9
1896.92
1850.37
1806.07
1763.79
1723.64
1685.45
1649.43
1615.65
1583.94
1554.4
1527.32
1502.66
1480.31
1460
1441.39
1424.1
1407.98
1392.96
1379.33
1366.93
1355.68
1345.07
1334.97
1325.3
1316.24
1307.67
1299.53
1291.75
1284.4
1277.45
1270.93
1264.81
1259.16
1253.94
1248.9
1243.84
1238.81
1233.91
1229.22
1224.81
1220.67
1216.79
1213.07
1209.49
1206.07
1202.86
1199.84
1196.96
1194.2
1191.54
1189
1186.6
1184.29
1182.14
1180.05
1178.09
1176.23
1174.48
1172.72
1171.12
1169.39
1167.84
1165.54
4528.44
2849.93
2844.81
2866.88
2868.68
2867.56
2861.84
2856.84
2851.54
2846.22
2840.93
2835.83
2830.67
2825.26
2819.36
2812.83
2805.66
2797.95
2789.82
2781.4
2772.77
2763.96
2755.01
2745.92
2736.68
2727.28
2717.69
2707.88
2697.83
2687.51
2676.89
2665.92
2654.53
2642.66
2630.27
2617.29
2603.65
2589.26
2574.02
2557.84
2540.63
2522.29
2502.73
2481.8
2459.37
2435.25
2409.24
2381.11
2350.58
2317.29
2280.83
2240.8
2197.03
2149.78
2099.89
2048.55
1997.49
1947.9
1900.01
1854.14
1810.32
1768.57
1728.74
1690.91
1655.19
1621.54
1590.01
1560.5
1532.94
1507.58
1484.33
1462.99
1443.38
1425.58
1409.47
1394.8
1381.38
1368.85
1357.17
1346.08
1335.63
1325.88
1316.83
1308.25
1300.14
1292.39
1285.09
1278.13
1271.55
1265.33
1259.46
1253.71
1247.98
1242.5
1237.42
1232.73
1228.38
1224.32
1220.47
1216.78
1213.19
1209.69
1206.35
1203.19
1200.16
1197.23
1194.4
1191.67
1189.06
1186.57
1184.16
1181.89
1179.67
1177.57
1175.56
1173.65
1171.74
1170
1168.14
1166.48
1164.14
4532.1
2850.04
2843.77
2865.84
2867.75
2866.82
2861.24
2856.31
2851.06
2845.79
2840.55
2835.49
2830.37
2825.02
2819.17
2812.7
2805.57
2797.89
2789.78
2781.36
2772.72
2763.91
2754.95
2745.85
2736.61
2727.2
2717.61
2707.79
2697.74
2687.42
2676.79
2665.81
2654.41
2642.53
2630.12
2617.11
2603.44
2589.01
2573.72
2557.48
2540.19
2521.76
2502.06
2480.98
2458.35
2433.99
2407.71
2379.28
2348.4
2314.75
2277.95
2237.72
2194.05
2147.33
2098.36
2048.28
1998.6
1950.24
1903.4
1858.66
1816.08
1775.2
1735.84
1697.86
1661.56
1627.45
1595.38
1565.33
1537.29
1511.35
1487.63
1466.03
1446.34
1428.42
1412.06
1396.92
1382.79
1369.56
1357.24
1345.79
1335.21
1325.42
1316.25
1307.57
1299.4
1291.73
1284.46
1277.45
1270.79
1264.48
1258.47
1252.68
1247.29
1242.34
1237.67
1233.12
1228.74
1224.49
1220.38
1216.38
1212.52
1208.81
1205.3
1201.96
1198.75
1195.64
1192.67
1189.85
1187.16
1184.61
1182.17
1179.89
1177.67
1175.59
1173.64
1171.81
1169.99
1168.36
1166.59
1165.01
1162.87
4535.74
2850.22
2842.75
2864.81
2866.82
2866.08
2860.64
2855.76
2850.57
2845.35
2840.15
2835.14
2830.07
2824.77
2818.98
2812.56
2805.48
2797.83
2789.74
2781.32
2772.68
2763.86
2754.89
2745.78
2736.54
2727.13
2717.53
2707.71
2697.65
2687.33
2676.7
2665.71
2654.31
2642.42
2629.98
2616.95
2603.25
2588.78
2573.45
2557.16
2539.8
2521.28
2501.47
2480.25
2457.44
2432.89
2406.37
2377.67
2346.51
2312.58
2275.57
2235.3
2191.88
2145.69
2097.55
2048.69
2000.46
1953.58
1908.27
1864.74
1822.72
1782.03
1742.65
1704.79
1668.43
1633.62
1600.84
1570.11
1541.5
1515.02
1490.8
1468.86
1449.07
1430.83
1413.83
1397.95
1383.29
1369.9
1357.76
1346.75
1336.54
1326.78
1317.43
1308.58
1300.19
1292.2
1284.6
1277.36
1270.61
1264.32
1258.42
1252.84
1247.55
1242.27
1237.09
1232.08
1227.35
1222.86
1218.62
1214.59
1210.78
1207.21
1203.86
1200.64
1197.55
1194.58
1191.78
1189.12
1186.6
1184.19
1181.88
1179.7
1177.58
1175.58
1173.7
1171.92
1170.13
1168.5
1166.71
1165.1
1162.78
4539.35
2850.48
2841.76
2863.8
2865.89
2865.34
2860.04
2855.22
2850.07
2844.91
2839.75
2834.78
2829.77
2824.51
2818.78
2812.42
2805.39
2797.77
2789.7
2781.29
2772.64
2763.81
2754.83
2745.72
2736.47
2727.06
2717.45
2707.63
2697.57
2687.25
2676.61
2665.62
2654.21
2642.31
2629.86
2616.81
2603.08
2588.58
2573.21
2556.87
2539.45
2520.86
2500.95
2479.61
2456.66
2431.92
2405.21
2376.29
2344.9
2310.77
2273.66
2233.47
2190.33
2144.73
2097.64
2050.11
2003.27
1957.69
1913.37
1870.16
1828.21
1787.6
1748.46
1710.8
1674.86
1640.65
1608.02
1577.08
1548.03
1521.01
1496.09
1473.18
1452.12
1432.98
1415.58
1399.74
1385.31
1372.02
1359.8
1348.44
1337.59
1327.19
1317.44
1308.49
1300.15
1292.29
1284.82
1277.71
1270.97
1264.49
1258.25
1252.2
1246.4
1240.9
1235.85
1231.13
1226.72
1222.5
1218.48
1214.61
1210.96
1207.49
1204.15
1200.89
1197.75
1194.75
1191.89
1189.14
1186.5
1183.94
1181.48
1179.14
1176.85
1174.69
1172.65
1170.74
1168.82
1167.07
1165.18
1163.49
1161.12
4542.92
2850.83
2840.8
2862.8
2864.96
2864.59
2859.43
2854.66
2849.57
2844.46
2839.35
2834.42
2829.45
2824.25
2818.57
2812.27
2805.29
2797.71
2789.66
2781.26
2772.6
2763.77
2754.78
2745.66
2736.41
2726.99
2717.38
2707.56
2697.5
2687.17
2676.54
2665.55
2654.13
2642.23
2629.76
2616.69
2602.93
2588.4
2573
2556.61
2539.15
2520.49
2500.5
2479.05
2455.98
2431.1
2404.22
2375.13
2343.57
2309.33
2272.21
2232.17
2189.43
2144.58
2098.52
2052.28
2006.6
1961.98
1918.12
1875.27
1833.96
1794.09
1755.4
1717.9
1681.89
1647.59
1615.06
1584.11
1554.7
1527.13
1501.57
1478.11
1456.61
1436.94
1419.12
1402.85
1387.84
1373.89
1360.9
1348.75
1337.32
1326.79
1317.14
1308.2
1299.69
1291.6
1283.96
1276.79
1269.99
1263.43
1257.22
1251.45
1246.16
1241.14
1236.31
1231.57
1226.98
1222.51
1218.21
1214.09
1210.21
1206.47
1202.85
1199.35
1196.06
1192.94
1189.98
1187.14
1184.43
1181.86
1179.42
1177.12
1174.89
1172.8
1170.86
1169.06
1167.25
1165.62
1163.81
1162.23
1160.06
4546.46
2851.25
2839.88
2861.82
2864.03
2863.84
2858.82
2854.1
2849.06
2844
2838.93
2834.05
2829.13
2823.98
2818.36
2812.11
2805.19
2797.65
2789.62
2781.23
2772.57
2763.72
2754.73
2745.61
2736.35
2726.93
2717.32
2707.5
2697.44
2687.11
2676.48
2665.48
2654.07
2642.16
2629.69
2616.6
2602.81
2588.25
2572.81
2556.39
2538.88
2520.17
2500.12
2478.58
2455.41
2430.42
2403.4
2374.17
2342.51
2308.22
2271.17
2231.34
2189.08
2145.06
2100.06
2054.84
2010.12
1966.32
1923.44
1881.85
1841.62
1802.35
1763.91
1726.34
1689.76
1654.72
1621.39
1589.79
1559.91
1531.79
1505.66
1481.69
1459.94
1440.03
1421.6
1404.53
1388.88
1374.49
1361.35
1349.32
1338.36
1328.3
1318.77
1309.7
1300.95
1292.69
1284.91
1277.58
1270.58
1263.97
1257.77
1251.93
1246.3
1240.8
1235.47
1230.33
1225.45
1220.82
1216.51
1212.47
1208.68
1205.01
1201.5
1198.17
1195.07
1192.12
1189.29
1186.55
1183.95
1181.49
1179.14
1176.92
1174.75
1172.68
1170.71
1168.85
1166.95
1165.23
1163.31
1161.61
1159.15
4549.95
2851.75
2838.98
2860.85
2863.1
2863.09
2858.21
2853.54
2848.55
2843.53
2838.51
2833.68
2828.8
2823.7
2818.14
2811.96
2805.08
2797.59
2789.59
2781.2
2772.54
2763.69
2754.68
2745.55
2736.29
2726.87
2717.26
2707.44
2697.39
2687.06
2676.42
2665.43
2654.01
2642.1
2629.62
2616.52
2602.72
2588.13
2572.67
2556.21
2538.66
2519.9
2499.79
2478.19
2454.94
2429.86
2402.75
2373.43
2341.72
2307.45
2270.5
2230.99
2189.35
2146.11
2102.02
2057.8
2014.19
1971.51
1929.83
1888.93
1848.77
1809.44
1771.02
1733.72
1697.58
1662.44
1628.74
1596.65
1566.24
1537.6
1510.9
1486.17
1463.44
1442.7
1423.82
1406.61
1391.01
1376.7
1363.66
1351.54
1340.22
1329.55
1319.38
1309.76
1300.77
1292.5
1284.74
1277.29
1270.11
1263.31
1256.93
1250.88
1245.16
1239.74
1234.63
1229.79
1225.19
1220.8
1216.68
1212.76
1208.96
1205.25
1201.71
1198.37
1195.19
1192.09
1189.07
1186.12
1183.3
1180.6
1178
1175.54
1173.17
1170.9
1168.77
1166.78
1164.78
1163
1161.05
1159.35
1156.97
4553.4
2852.33
2838.12
2859.91
2862.17
2862.33
2857.59
2852.97
2848.02
2843.06
2838.08
2833.29
2828.47
2823.42
2817.92
2811.79
2804.98
2797.53
2789.55
2781.17
2772.51
2763.65
2754.64
2745.51
2736.24
2726.82
2717.21
2707.4
2697.34
2687.01
2676.38
2665.39
2653.98
2642.06
2629.58
2616.47
2602.66
2588.05
2572.55
2556.06
2538.48
2519.69
2499.54
2477.89
2454.58
2429.42
2402.24
2372.88
2341.16
2306.94
2270.2
2231.15
2190.08
2147.61
2104.48
2061.48
2019.02
1977.26
1936.15
1895.25
1855.15
1816.1
1778
1740.82
1704.89
1670.45
1637.21
1605.2
1574.52
1545.43
1518.19
1492.92
1469.56
1448.14
1428.64
1410.84
1394.59
1379.59
1365.75
1352.8
1340.76
1329.56
1319.17
1309.62
1300.78
1292.35
1284.3
1276.66
1269.56
1263.03
1257
1251.24
1245.67
1240.29
1235.12
1230.11
1225.27
1220.64
1216.23
1211.99
1207.85
1203.88
1200.19
1196.72
1193.37
1190.13
1187.01
1184.06
1181.29
1178.68
1176.2
1173.88
1171.66
1169.55
1167.59
1165.76
1163.89
1162.21
1160.32
1158.71
1156.42
4556.79
2852.99
2837.3
2858.99
2861.25
2861.58
2856.97
2852.4
2847.49
2842.58
2837.65
2832.9
2828.12
2823.13
2817.69
2811.63
2804.87
2797.46
2789.51
2781.15
2772.49
2763.62
2754.61
2745.46
2736.19
2726.77
2717.17
2707.36
2697.3
2686.98
2676.35
2665.36
2653.95
2642.03
2629.55
2616.43
2602.6
2587.98
2572.47
2555.97
2538.36
2519.53
2499.34
2477.65
2454.29
2429.11
2401.92
2372.55
2340.85
2306.77
2270.34
2231.68
2191.22
2149.61
2107.6
2065.64
2023.9
1982.66
1941.82
1901.6
1862.54
1824.42
1786.87
1749.86
1713.57
1678.43
1644.83
1612.6
1581.64
1552.12
1524.29
1498.39
1474.56
1452.58
1432.26
1413.55
1396.46
1380.82
1366.52
1353.38
1341.37
1330.4
1320.35
1311.04
1302.09
1293.43
1285.25
1277.65
1270.66
1264.06
1257.63
1251.3
1245.2
1239.39
1233.93
1228.75
1223.84
1219.22
1214.86
1210.64
1206.6
1202.86
1199.39
1196.07
1192.83
1189.71
1186.78
1184.02
1181.4
1178.88
1176.42
1174.07
1171.76
1169.52
1167.36
1165.32
1163.22
1161.34
1159.27
1157.5
1154.99
4560.12
2853.74
2836.53
2858.09
2860.33
2860.83
2856.35
2851.82
2846.95
2842.08
2837.2
2832.5
2827.77
2822.83
2817.45
2811.45
2804.76
2797.4
2789.48
2781.13
2772.47
2763.6
2754.57
2745.43
2736.15
2726.73
2717.13
2707.33
2697.28
2686.96
2676.33
2665.35
2653.94
2642.03
2629.55
2616.44
2602.61
2587.97
2572.43
2555.89
2538.26
2519.42
2499.23
2477.52
2454.14
2428.92
2401.69
2372.34
2340.79
2306.91
2270.76
2232.57
2192.83
2152.19
2111.14
2069.91
2028.85
1988.38
1948.64
1909.63
1871.15
1833.2
1795.73
1758.82
1722.5
1687.01
1652.6
1619.62
1588.1
1558.08
1529.71
1503.19
1478.64
1455.99
1435.18
1416.17
1398.92
1383.26
1369.08
1356.04
1343.95
1332.66
1321.88
1311.5
1301.77
1292.84
1284.72
1277.3
1270.34
1263.54
1256.83
1250.36
1244.36
1238.83
1233.69
1228.79
1224.1
1219.6
1215.25
1211.01
1207
1203.26
1199.66
1196.08
1192.59
1189.28
1186.17
1183.2
1180.35
1177.59
1174.91
1172.34
1169.85
1167.46
1165.24
1163.19
1161.16
1159.41
1157.47
1155.8
1153.52
4563.38
2854.57
2835.79
2857.21
2859.42
2860.09
2855.72
2851.24
2846.4
2841.59
2836.75
2832.09
2827.42
2822.53
2817.21
2811.28
2804.64
2797.34
2789.45
2781.11
2772.45
2763.57
2754.54
2745.39
2736.12
2726.7
2717.11
2707.31
2697.26
2686.95
2676.33
2665.35
2653.95
2642.05
2629.57
2616.46
2602.63
2587.99
2572.44
2555.9
2538.25
2519.38
2499.16
2477.43
2454.05
2428.85
2401.69
2372.41
2340.96
2307.29
2271.51
2233.89
2194.93
2155.15
2114.84
2074.41
2034.36
1994.86
1955.96
1917.27
1878.62
1840.56
1803.15
1766.45
1730.68
1695.72
1661.71
1628.72
1596.89
1566.42
1537.6
1510.57
1485.39
1462.21
1441
1421.5
1403.62
1387.25
1372.33
1358.6
1345.93
1334.26
1323.19
1312.64
1302.72
1293.56
1285.32
1277.89
1270.9
1263.98
1257.22
1250.77
1244.81
1239.2
1233.89
1228.73
1223.76
1218.94
1214.3
1209.85
1205.74
1201.86
1198.03
1194.26
1190.73
1187.51
1184.51
1181.67
1178.97
1176.38
1173.88
1171.5
1169.21
1167.04
1165.02
1163.15
1161.25
1159.53
1157.59
1155.87
1153.39
4566.57
2855.5
2835.1
2856.36
2858.52
2859.35
2855.09
2850.65
2845.85
2841.08
2836.28
2831.68
2827.05
2822.22
2816.96
2811.1
2804.53
2797.27
2789.41
2781.09
2772.43
2763.55
2754.52
2745.36
2736.09
2726.67
2717.09
2707.29
2697.26
2686.95
2676.34
2665.37
2653.97
2642.07
2629.61
2616.51
2602.68
2588.04
2572.49
2555.94
2538.29
2519.41
2499.19
2477.47
2454.1
2428.92
2401.81
2372.63
2341.33
2307.95
2272.6
2235.6
2197.41
2158.37
2118.89
2079.51
2040.39
2001.45
1962.77
1924.09
1885.9
1848.62
1811.88
1775.42
1739.48
1704.55
1670.74
1637.87
1605.94
1575.15
1545.83
1518.22
1492.47
1468.53
1446.31
1425.73
1406.84
1389.57
1373.92
1359.65
1346.6
1334.67
1323.62
1313.47
1303.87
1295.03
1286.91
1279.13
1271.49
1263.87
1256.6
1249.86
1243.78
1238.12
1232.76
1227.56
1222.6
1217.81
1213.29
1209.07
1205.17
1201.4
1197.67
1194.11
1190.85
1187.81
1184.89
1182.02
1179.23
1176.51
1173.86
1171.3
1168.82
1166.43
1164.2
1162.15
1160.06
1158.2
1156.16
1154.35
1151.82
4569.66
2856.51
2834.45
2855.54
2857.63
2858.61
2854.46
2850.06
2845.29
2840.56
2835.81
2831.25
2826.67
2821.9
2816.71
2810.91
2804.41
2797.2
2789.38
2781.07
2772.42
2763.54
2754.5
2745.34
2736.07
2726.65
2717.07
2707.29
2697.26
2686.97
2676.36
2665.4
2654.01
2642.12
2629.67
2616.58
2602.76
2588.13
2572.58
2556.03
2538.38
2519.5
2499.29
2477.58
2454.23
2429.11
2402.07
2373.03
2341.95
2308.89
2274.03
2237.68
2200.18
2161.94
2123.44
2084.89
2046.23
2007.7
1969.56
1931.97
1894.96
1858.3
1821.85
1785.59
1749.59
1714.02
1679.31
1645.8
1613.44
1582.25
1552.41
1524.2
1497.88
1473.26
1450.29
1429.08
1409.74
1392.16
1376.41
1362.03
1348.77
1336.46
1324.95
1314.31
1304.46
1295.41
1286.82
1278.49
1270.48
1262.9
1256.05
1249.88
1244.25
1238.73
1233.35
1228.09
1223.08
1218.25
1213.73
1209.47
1205.38
1201.32
1197.38
1193.71
1190.27
1186.95
1183.69
1180.51
1177.47
1174.57
1171.82
1169.23
1166.78
1164.45
1162.34
1160.4
1158.45
1156.71
1154.75
1153.07
1150.73
4572.71
2857.62
2833.86
2854.74
2856.75
2857.87
2853.82
2849.46
2844.72
2840.04
2835.34
2830.82
2826.29
2821.57
2816.44
2810.71
2804.28
2797.13
2789.35
2781.06
2772.42
2763.53
2754.48
2745.32
2736.05
2726.64
2717.06
2707.29
2697.28
2686.99
2676.4
2665.45
2654.07
2642.19
2629.75
2616.67
2602.87
2588.25
2572.72
2556.18
2538.53
2519.66
2499.46
2477.78
2454.48
2429.43
2402.5
2373.62
2342.8
2310.13
2275.8
2240.07
2203.3
2165.93
2128.23
2090.22
2052.16
2014.51
1977.33
1940.6
1903.72
1866.88
1830.4
1794.27
1758.57
1723.44
1688.8
1654.97
1622.17
1590.52
1560.19
1531.45
1504.46
1479.45
1456.44
1435.14
1415.44
1397.33
1380.96
1365.92
1352.14
1339.36
1327.54
1316.73
1306.55
1296.87
1287.45
1278.9
1271.06
1263.83
1257.2
1250.9
1244.78
1238.71
1232.87
1227.27
1221.99
1216.97
1212.32
1207.91
1203.59
1199.36
1195.47
1191.97
1188.68
1185.44
1182.31
1179.32
1176.5
1173.82
1171.28
1168.88
1166.56
1164.29
1162.15
1160.14
1158.06
1156.18
1154.1
1152.28
1149.65
4575.6
2858.82
2833.31
2853.98
2855.88
2857.14
2853.19
2848.87
2844.15
2839.52
2834.86
2830.38
2825.9
2821.23
2816.16
2810.51
2804.15
2797.06
2789.32
2781.05
2772.41
2763.52
2754.47
2745.3
2736.03
2726.63
2717.07
2707.31
2697.31
2687.04
2676.45
2665.51
2654.15
2642.28
2629.86
2616.8
2603.02
2588.42
2572.9
2556.37
2538.74
2519.89
2499.72
2478.08
2454.84
2429.88
2403.09
2374.42
2343.91
2311.66
2277.86
2242.78
2206.77
2170.16
2133.07
2095.77
2058.73
2021.94
1985.23
1948.51
1911.55
1874.99
1838.94
1803.11
1767.64
1732.75
1698.75
1665.38
1632.61
1600.72
1570.03
1540.81
1513.17
1487.4
1463.46
1441.15
1420.49
1401.47
1384.16
1368.3
1354
1340.66
1328.42
1317.23
1306.86
1297.3
1288.41
1279.81
1271.57
1264.01
1257.08
1250.42
1243.94
1237.64
1231.75
1226.22
1221.09
1216.27
1211.79
1207.44
1203.18
1199.13
1195.49
1192.12
1188.77
1185.39
1182.14
1179.03
1176.04
1173.14
1170.33
1167.68
1165.12
1162.62
1160.29
1158.12
1155.88
1153.89
1151.71
1149.86
1147.26
4578.47
2860.12
2832.81
2853.24
2855.02
2856.42
2852.55
2848.27
2843.58
2838.99
2834.37
2829.94
2825.5
2820.88
2815.88
2810.3
2804.01
2796.98
2789.29
2781.05
2772.42
2763.53
2754.47
2745.3
2736.03
2726.63
2717.08
2707.33
2697.35
2687.09
2676.53
2665.6
2654.25
2642.4
2629.99
2616.95
2603.19
2588.62
2573.13
2556.63
2539.02
2520.2
2500.06
2478.48
2455.32
2430.48
2403.86
2375.43
2345.26
2313.46
2280.21
2245.79
2210.49
2174.53
2138.18
2101.84
2065.53
2028.98
1992.46
1956.14
1920.22
1884.72
1849.34
1813.87
1778.37
1743.18
1708.55
1674.74
1641.73
1609.56
1578.47
1548.76
1520.72
1494.18
1469.08
1445.71
1424.24
1404.57
1386.62
1370.26
1355.57
1342.42
1330.65
1319.47
1308.79
1298.66
1288.84
1279.61
1271.54
1264.46
1257.67
1250.86
1244.22
1237.93
1232.13
1226.68
1221.53
1216.62
1211.9
1207.24
1202.75
1198.56
1194.66
1190.85
1187.04
1183.36
1179.95
1176.8
1173.84
1171.04
1168.38
1165.88
1163.45
1161.1
1158.9
1156.85
1154.72
1152.82
1150.66
1148.85
1146.25
4581.12
2861.53
2832.37
2852.54
2854.17
2855.69
2851.91
2847.67
2843
2838.45
2833.88
2829.49
2825.09
2820.53
2815.59
2810.08
2803.86
2796.9
2789.25
2781.04
2772.42
2763.54
2754.48
2745.31
2736.03
2726.65
2717.11
2707.37
2697.41
2687.17
2676.62
2665.71
2654.37
2642.54
2630.15
2617.13
2603.4
2588.86
2573.4
2556.93
2539.36
2520.58
2500.5
2478.98
2455.93
2431.23
2404.81
2376.67
2346.87
2315.53
2282.85
2249.06
2214.41
2179.16
2143.68
2108.06
2072.1
2036.07
2000.4
1965.12
1930.07