/*--------------------------------*- C++ -*----------------------------------*\
| =========                 |                                                 |
| \\      /  F ield         | OpenFOAM: The Open Source CFD Toolbox           |
|  \\    /   O peration     | Version:  2412                                  |
|   \\  /    A nd           | Website:  www.openfoam.com                      |
|    \\/     M anipulation  |                                                 |
\*---------------------------------------------------------------------------*/
FoamFile
{
    version     2.0;
    format      ascii;
    arch        "LSB;label=32;scalar=64";
    class       volVectorField;
    location    "0.029";
    object      U;
}
// * * * * * * * * * * * * * * * * * * * * * * * * * * * * * * * * * * * * * //

dimensions      [0 1 -1 0 0 0 0];

internalField   nonuniform List<vector> 
9771
(
(282.798 60.6797 0)
(261.995 -3.85408 0)
(241.961 -6.86816 0)
(231.958 -7.62578 0)
(228.078 -8.24561 0)
(225.79 -8.59344 0)
(223.553 -9.3013 0)
(221.226 -10.3426 0)
(219.157 -11.2444 0)
(217.476 -11.7434 0)
(283.285 60.7022 0)
(262.231 -3.89122 0)
(242.009 -6.89814 0)
(231.984 -7.64815 0)
(228.096 -8.26525 0)
(225.802 -8.61336 0)
(223.562 -9.32404 0)
(221.235 -10.3665 0)
(219.167 -11.2669 0)
(217.487 -11.7642 0)
(283.794 60.7165 0)
(262.426 -3.96584 0)
(242.049 -6.93272 0)
(232.014 -7.66779 0)
(228.117 -8.28331 0)
(225.816 -8.6326 0)
(223.571 -9.34633 0)
(221.241 -10.3902 0)
(219.174 -11.2893 0)
(217.495 -11.7848 0)
(284.338 60.7222 0)
(262.658 -3.99987 0)
(242.094 -6.96144 0)
(232.039 -7.68968 0)
(228.134 -8.30253 0)
(225.828 -8.65209 0)
(223.58 -9.36854 0)
(221.25 -10.4135 0)
(219.183 -11.3112 0)
(217.506 -11.8051 0)
(284.94 60.7167 0)
(262.843 -4.07772 0)
(242.132 -6.99604 0)
(232.069 -7.70876 0)
(228.155 -8.32042 0)
(225.843 -8.6713 0)
(223.589 -9.3908 0)
(221.257 -10.4372 0)
(219.19 -11.3337 0)
(217.514 -11.8258 0)
(285.616 60.7002 0)
(263.071 -4.11736 0)
(242.176 -7.02392 0)
(232.094 -7.73074 0)
(228.172 -8.33979 0)
(225.855 -8.69098 0)
(223.599 -9.41326 0)
(221.266 -10.4608 0)
(219.2 -11.3559 0)
(217.525 -11.8465 0)
(286.397 60.6633 0)
(263.248 -4.19356 0)
(242.211 -7.05916 0)
(232.125 -7.74951 0)
(228.194 -8.35779 0)
(225.87 -8.71045 0)
(223.608 -9.43587 0)
(221.273 -10.4849 0)
(219.208 -11.3787 0)
(217.534 -11.8676 0)
(216.158 -12.0259 0)
(214.961 -11.9895 0)
(213.868 -11.9086 0)
(212.884 -11.7601 0)
(212.031 -11.444 0)
(211.205 -11.0717 0)
(210.358 -10.7291 0)
(209.519 -10.4158 0)
(208.722 -10.1139 0)
(207.968 -9.82224 0)
(207.257 -9.54418 0)
(206.561 -9.29915 0)
(205.882 -9.08691 0)
(205.233 -8.90736 0)
(204.622 -8.7545 0)
(204.042 -8.64163 0)
(203.494 -8.57478 0)
(202.976 -8.56817 0)
(202.486 -8.60251 0)
(202.023 -8.68279 0)
(201.579 -8.79796 0)
(201.156 -8.9593 0)
(287.334 60.5925 0)
(263.46 -4.24279 0)
(242.254 -7.08614 0)
(232.15 -7.77167 0)
(228.211 -8.37732 0)
(225.882 -8.73037 0)
(223.618 -9.45866 0)
(221.282 -10.5089 0)
(219.218 -11.4014 0)
(217.545 -11.8886 0)
(216.171 -12.0462 0)
(214.976 -12.0102 0)
(213.885 -11.9304 0)
(212.904 -11.7823 0)
(212.052 -11.4668 0)
(211.228 -11.0963 0)
(210.382 -10.7556 0)
(209.545 -10.444 0)
(208.748 -10.1431 0)
(207.996 -9.85239 0)
(207.285 -9.57523 0)
(206.59 -9.33091 0)
(205.913 -9.11909 0)
(205.265 -8.93982 0)
(204.655 -8.78713 0)
(204.075 -8.67416 0)
(203.527 -8.60695 0)
(203.01 -8.59984 0)
(202.52 -8.63381 0)
(202.058 -8.71376 0)
(201.615 -8.82853 0)
(201.194 -8.98988 0)
(200.792 -9.18435 0)
(200.4 -9.39488 0)
(200.028 -9.6324 0)
(199.651 -9.88107 0)
(199.294 -10.1685 0)
(198.93 -10.4614 0)
(288.516 60.4899 0)
(263.617 -4.31824 0)
(242.286 -7.12214 0)
(232.18 -7.79014 0)
(228.233 -8.39546 0)
(225.897 -8.75009 0)
(223.628 -9.48156 0)
(221.29 -10.5333 0)
(219.226 -11.4245 0)
(217.554 -11.91 0)
(216.182 -12.0668 0)
(214.99 -12.0313 0)
(213.901 -11.9526 0)
(212.922 -11.8047 0)
(212.073 -11.49 0)
(211.25 -11.1212 0)
(210.405 -10.7825 0)
(209.569 -10.4725 0)
(208.773 -10.1728 0)
(208.022 -9.88311 0)
(207.312 -9.60695 0)
(206.618 -9.36345 0)
(205.941 -9.15217 0)
(205.294 -8.97329 0)
(204.685 -8.82092 0)
(204.106 -8.70794 0)
(203.558 -8.64038 0)
(203.042 -8.63285 0)
(202.552 -8.66659 0)
(202.091 -8.74637 0)
(201.649 -8.86091 0)
(201.229 -9.0224 0)
(200.829 -9.21667 0)
(200.439 -9.42816 0)
(200.07 -9.66603 0)
(199.695 -9.9156 0)
(199.341 -10.2039 0)
(198.98 -10.4984 0)
(198.633 -10.8063 0)
(290.051 60.287 0)
(263.794 -4.37449 0)
(242.33 -7.14745 0)
(232.204 -7.81295 0)
(228.249 -8.41571 0)
(225.909 -8.77043 0)
(223.638 -9.50465 0)
(221.299 -10.5574 0)
(219.236 -11.4472 0)
(217.566 -11.9311 0)
(216.195 -12.0871 0)
(215.005 -12.0522 0)
(213.918 -11.9745 0)
(212.942 -11.827 0)
(212.095 -11.5131 0)
(211.273 -11.1461 0)
(210.43 -10.8094 0)
(209.594 -10.501 0)
(208.8 -10.2023 0)
(208.049 -9.9137 0)
(207.341 -9.63847 0)
(206.648 -9.3957 0)
(205.972 -9.18485 0)
(205.326 -9.00627 0)
(204.718 -8.85412 0)
(204.14 -8.74109 0)
(203.593 -8.67318 0)
(203.076 -8.66512 0)
(202.588 -8.69845 0)
(202.128 -8.77784 0)
(201.687 -8.89194 0)
(201.268 -9.05336 0)
(200.87 -9.24738 0)
(200.482 -9.45953 0)
(200.114 -9.69781 0)
(199.742 -9.94834 0)
(199.391 -10.2376 0)
(199.032 -10.5333 0)
(198.69 -10.8427 0)
(291.825 60.3356 0)
(263.853 -4.56369 0)
(242.356 -7.19187 0)
(232.235 -7.82928 0)
(228.271 -8.43084 0)
(225.924 -8.78829 0)
(223.648 -9.52657 0)
(221.307 -10.5822 0)
(219.244 -11.4714 0)
(217.575 -11.9536 0)
(216.206 -12.1088 0)
(215.018 -12.0742 0)
(213.934 -11.9979 0)
(212.96 -11.8507 0)
(212.115 -11.537 0)
(211.295 -11.1718 0)
(210.452 -10.8372 0)
(209.618 -10.5306 0)
(208.825 -10.2329 0)
(208.075 -9.94527 0)
(207.368 -9.67102 0)
(206.675 -9.42912 0)
(206.001 -9.2188 0)
(205.356 -9.04056 0)
(204.748 -8.88865 0)
(204.171 -8.77553 0)
(203.625 -8.70719 0)
(203.109 -8.69876 0)
(202.621 -8.73196 0)
(202.162 -8.81116 0)
(201.722 -8.92499 0)
(201.305 -9.08662 0)
(200.908 -9.28034 0)
(200.523 -9.49356 0)
(200.157 -9.732 0)
(199.788 -9.9834 0)
(199.44 -10.2737 0)
(199.083 -10.5714 0)
(198.744 -10.8842 0)
(293.883 47.2692 0)
(262.679 -8.27209 0)
(243.234 -8.26963 0)
(232.993 -8.48171 0)
(228.76 -8.9838 0)
(226.238 -9.31064 0)
(223.858 -10.0724 0)
(221.49 -11.1105 0)
(219.43 -11.9351 0)
(217.771 -12.3543 0)
(216.418 -12.4692 0)
(215.248 -12.4214 0)
(214.184 -12.3437 0)
(213.23 -12.1866 0)
(212.4 -11.8698 0)
(211.589 -11.5175 0)
(210.756 -11.1985 0)
(209.93 -10.904 0)
(209.147 -10.6117 0)
(208.404 -10.3285 0)
(207.704 -10.0577 0)
(207.021 -9.81697 0)
(206.356 -9.60516 0)
(205.718 -9.42435 0)
(205.119 -9.26894 0)
(204.547 -9.15141 0)
(204.005 -9.07551 0)
(203.494 -9.05853 0)
(203.012 -9.08416 0)
(202.56 -9.15638 0)
(202.129 -9.26383 0)
(201.725 -9.42072 0)
(201.339 -9.61037 0)
(200.972 -9.82766 0)
(200.622 -10.0676 0)
(200.274 -10.3261 0)
(199.948 -10.6197 0)
(199.62 -10.9281 0)
(199.314 -11.2562 0)
(199 -11.5763 0)
(198.701 -11.9004 0)
(198.399 -12.2186 0)
(198.11 -12.5456 0)
(197.82 -12.8789 0)
(197.535 -13.2252 0)
(197.248 -13.5796 0)
(196.96 -13.9416 0)
(196.669 -14.3074 0)
(196.376 -14.6775 0)
(196.081 -15.0505 0)
(195.786 -15.4276 0)
(195.491 -15.8079 0)
(195.197 -16.1924 0)
(194.905 -16.5807 0)
(194.615 -16.9739 0)
(194.327 -17.3716 0)
(194.045 -17.7748 0)
(193.768 -18.1827 0)
(193.496 -18.5951 0)
(193.232 -19.0109 0)
(192.977 -19.4296 0)
(192.729 -19.85 0)
(192.491 -20.2725 0)
(192.264 -20.6968 0)
(192.051 -21.1231 0)
(191.851 -21.5518 0)
(191.667 -21.9828 0)
(191.498 -22.4153 0)
(191.344 -22.8482 0)
(191.206 -23.2809 0)
(191.083 -23.7136 0)
(190.975 -24.1465 0)
(190.882 -24.5788 0)
(190.804 -25.0093 0)
(190.739 -25.4359 0)
(190.692 -25.858 0)
(190.655 -26.275 0)
(190.649 -26.6907 0)
(190.633 -27.0982 0)
(266.178 31.2609 0)
(255.203 -11.905 0)
(244.082 -9.95289 0)
(234.393 -9.75746 0)
(229.592 -10.1771 0)
(226.733 -10.4116 0)
(224.16 -11.1948 0)
(221.732 -12.1579 0)
(219.689 -12.8312 0)
(218.077 -13.1187 0)
(216.778 -13.1508 0)
(215.659 -13.0757 0)
(214.642 -12.9892 0)
(213.735 -12.8121 0)
(212.937 -12.4972 0)
(212.146 -12.1719 0)
(211.333 -11.8797 0)
(210.522 -11.6071 0)
(209.753 -11.3273 0)
(209.02 -11.0549 0)
(208.33 -10.7918 0)
(207.663 -10.5529 0)
(207.012 -10.3394 0)
(206.386 -10.155 0)
(205.796 -9.99683 0)
(205.236 -9.87418 0)
(204.705 -9.78564 0)
(204.203 -9.75179 0)
(203.734 -9.76119 0)
(203.3 -9.81841 0)
(202.889 -9.91051 0)
(202.512 -10.0522 0)
(202.157 -10.2293 0)
(201.83 -10.4434 0)
(201.518 -10.6804 0)
(201.222 -10.9421 0)
(200.943 -11.2311 0)
(200.675 -11.5444 0)
(200.432 -11.88 0)
(200.192 -12.2165 0)
(199.976 -12.5574 0)
(199.758 -12.8933 0)
(199.556 -13.2396 0)
(199.35 -13.5929 0)
(199.156 -13.9623 0)
(198.962 -14.3404 0)
(198.782 -14.7281 0)
(198.605 -15.1192 0)
(198.44 -15.5142 0)
(198.283 -15.9102 0)
(198.14 -16.308 0)
(198.004 -16.7064 0)
(197.882 -17.1065 0)
(197.769 -17.5074 0)
(197.668 -17.9092 0)
(197.578 -18.3112 0)
(197.502 -18.7129 0)
(197.438 -19.1129 0)
(197.397 -19.5109 0)
(197.361 -19.9052 0)
(197.335 -20.2893 0)
(197.329 -20.6713 0)
(197.335 -21.0496 0)
(197.354 -21.4239 0)
(197.388 -21.7935 0)
(197.435 -22.1585 0)
(197.497 -22.5191 0)
(197.573 -22.874 0)
(197.662 -23.2213 0)
(197.764 -23.5597 0)
(197.875 -23.8908 0)
(198.002 -24.2141 0)
(198.132 -24.5318 0)
(198.281 -24.8385 0)
(198.427 -25.1386 0)
(198.596 -25.4244 0)
(198.762 -25.7042 0)
(198.949 -25.9687 0)
(199.126 -26.2262 0)
(250.639 15.9429 0)
(251.039 -15.2176 0)
(244.433 -11.5063 0)
(235.356 -11.1155 0)
(230.163 -11.411 0)
(227.089 -11.5662 0)
(224.409 -12.3586 0)
(221.99 -13.2122 0)
(219.993 -13.72 0)
(218.424 -13.871 0)
(217.164 -13.8192 0)
(216.074 -13.7149 0)
(215.091 -13.6111 0)
(214.217 -13.4114 0)
(213.435 -13.1054 0)
(212.66 -12.8086 0)
(211.876 -12.5383 0)
(211.092 -12.2848 0)
(210.347 -12.0195 0)
(209.632 -11.7603 0)
(208.963 -11.5056 0)
(208.322 -11.2682 0)
(207.7 -11.0523 0)
(207.095 -10.8659 0)
(206.526 -10.7058 0)
(205.982 -10.5816 0)
(205.47 -10.4847 0)
(204.987 -10.4314 0)
(204.538 -10.4208 0)
(204.128 -10.459 0)
(203.741 -10.53 0)
(203.392 -10.6499 0)
(203.068 -10.807 0)
(202.778 -11.0056 0)
(202.508 -11.2323 0)
(202.263 -11.4859 0)
(202.036 -11.7604 0)
(201.831 -12.0587 0)
(201.65 -12.3762 0)
(201.487 -12.7041 0)
(201.347 -13.0404 0)
(201.209 -13.3809 0)
(201.089 -13.7327 0)
(200.967 -14.0909 0)
(200.865 -14.4588 0)
(200.766 -14.8305 0)
(200.686 -15.2075 0)
(200.613 -15.5844 0)
(200.56 -15.9635 0)
(200.512 -16.3384 0)
(200.481 -16.7072 0)
(200.463 -17.0727 0)
(200.46 -17.4355 0)
(200.467 -17.795 0)
(200.488 -18.1509 0)
(200.519 -18.5028 0)
(200.564 -18.8503 0)
(200.619 -19.1927 0)
(200.695 -19.5267 0)
(200.772 -19.8507 0)
(200.852 -20.1649 0)
(200.949 -20.4698 0)
(201.054 -20.7667 0)
(201.166 -21.0549 0)
(201.286 -21.3345 0)
(201.417 -21.6049 0)
(201.554 -21.867 0)
(201.701 -22.1189 0)
(201.85 -22.3618 0)
(202.01 -22.5916 0)
(202.167 -22.8142 0)
(202.337 -23.0225 0)
(202.497 -23.2262 0)
(202.67 -23.414 0)
(202.832 -23.5966 0)
(203.005 -23.7626 0)
(203.167 -23.9221 0)
(203.332 -24.066 0)
(203.482 -24.203 0)
(240.527 3.38881 0)
(247.283 -18.1871 0)
(243.778 -12.9942 0)
(235.887 -12.4254 0)
(230.526 -12.6118 0)
(227.291 -12.7509 0)
(224.586 -13.5358 0)
(222.222 -14.2519 0)
(220.289 -14.5916 0)
(218.769 -14.6076 0)
(217.544 -14.4776 0)
(216.473 -14.3444 0)
(215.517 -14.2145 0)
(214.671 -13.9905 0)
(213.9 -13.6962 0)
(213.14 -13.4267 0)
(212.389 -13.1738 0)
(211.637 -12.9361 0)
(210.92 -12.6863 0)
(210.228 -12.4414 0)
(209.581 -12.1957 0)
(208.971 -11.9606 0)
(208.379 -11.744 0)
(207.801 -11.5565 0)
(207.255 -11.3943 0)
(206.733 -11.268 0)
(206.253 -11.1627 0)
(205.794 -11.0912 0)
(205.372 -11.0592 0)
(204.991 -11.0777 0)
(204.631 -11.1252 0)
(204.313 -11.2191 0)
(204.022 -11.3465 0)
(203.77 -11.5156 0)
(203.544 -11.719 0)
(203.35 -11.951 0)
(203.176 -12.2012 0)
(203.03 -12.4695 0)
(202.906 -12.7538 0)
(202.805 -13.0546 0)
(202.724 -13.3687 0)
(202.654 -13.6943 0)
(202.602 -14.0286 0)
(202.559 -14.366 0)
(202.533 -14.7157 0)
(202.51 -15.0589 0)
(202.511 -15.4068 0)
(202.515 -15.7529 0)
(202.542 -16.0948 0)
(202.57 -16.4285 0)
(202.613 -16.7539 0)
(202.667 -17.0721 0)
(202.735 -17.384 0)
(202.809 -17.69 0)
(202.896 -17.9895 0)
(202.989 -18.2826 0)
(203.096 -18.5678 0)
(203.206 -18.8462 0)
(203.334 -19.1138 0)
(203.462 -19.3709 0)
(203.586 -19.6181 0)
(203.72 -19.8532 0)
(203.858 -20.0781 0)
(203.997 -20.2922 0)
(204.137 -20.4958 0)
(204.28 -20.6879 0)
(204.421 -20.8697 0)
(204.564 -21.039 0)
(204.7 -21.199 0)
(204.84 -21.3448 0)
(204.968 -21.4833 0)
(205.098 -21.6081 0)
(205.216 -21.7262 0)
(205.332 -21.8326 0)
(205.438 -21.9318 0)
(205.54 -22.0214 0)
(205.636 -22.1039 0)
(205.726 -22.1788 0)
(205.81 -22.2469 0)
(233.234 -6.24211 0)
(243.833 -21.0494 0)
(242.444 -14.7618 0)
(236.156 -13.6244 0)
(230.735 -13.7602 0)
(227.348 -13.9412 0)
(224.675 -14.6946 0)
(222.417 -15.2614 0)
(220.568 -15.4362 0)
(219.115 -15.3248 0)
(217.922 -15.1277 0)
(216.867 -14.9668 0)
(215.933 -14.8032 0)
(215.111 -14.5543 0)
(214.351 -14.2704 0)
(213.607 -14.0238 0)
(212.888 -13.7849 0)
(212.17 -13.5602 0)
(211.483 -13.325 0)
(210.819 -13.0934 0)
(210.2 -12.8568 0)
(209.622 -12.6253 0)
(209.063 -12.4104 0)
(208.516 -12.2213 0)
(207.995 -12.0565 0)
(207.503 -11.9205 0)
(207.045 -11.8117 0)
(206.626 -11.7226 0)
(206.237 -11.6705 0)
(205.887 -11.6627 0)
(205.557 -11.6859 0)
(205.269 -11.7487 0)
(205.008 -11.8411 0)
(204.791 -11.9718 0)
(204.604 -12.1391 0)
(204.453 -12.3368 0)
(204.328 -12.5537 0)
(204.232 -12.7849 0)
(204.154 -13.0311 0)
(204.101 -13.2946 0)
(204.065 -13.5751 0)
(204.05 -13.8694 0)
(204.048 -14.1724 0)
(204.055 -14.4784 0)
(204.082 -14.783 0)
(204.116 -15.091 0)
(204.171 -15.4012 0)
(204.229 -15.7094 0)
(204.307 -16.0108 0)
(204.384 -16.3033 0)
(204.472 -16.5855 0)
(204.566 -16.8592 0)
(204.671 -17.1238 0)
(204.777 -17.381 0)
(204.894 -17.629 0)
(205.01 -17.8694 0)
(205.138 -18.0987 0)
(205.265 -18.3195 0)
(205.4 -18.5287 0)
(205.537 -18.726 0)
(205.663 -18.9136 0)
(205.789 -19.089 0)
(205.917 -19.2525 0)
(206.037 -19.406 0)
(206.154 -19.5486 0)
(206.267 -19.6812 0)
(206.374 -19.8056 0)
(206.482 -19.9193 0)
(206.576 -20.0275 0)
(206.676 -20.1249 0)
(206.76 -20.2185 0)
(206.85 -20.3026 0)
(206.924 -20.3841 0)
(207.004 -20.4575 0)
(207.068 -20.5294 0)
(207.142 -20.5949 0)
(207.207 -20.6598 0)
(207.278 -20.7198 0)
(207.342 -20.7793 0)
(227.825 -13.2363 0)
(240.499 -23.4697 0)
(240.97 -16.6239 0)
(236.113 -14.7863 0)
(230.796 -14.8676 0)
(227.277 -15.1036 0)
(224.703 -15.8102 0)
(222.574 -16.2265 0)
(220.827 -16.2439 0)
(219.452 -16.0198 0)
(218.286 -15.7699 0)
(217.243 -15.5817 0)
(216.329 -15.3794 0)
(215.528 -15.107 0)
(214.781 -14.8294 0)
(214.055 -14.5983 0)
(213.366 -14.3708 0)
(212.684 -14.1573 0)
(212.03 -13.935 0)
(211.397 -13.7143 0)
(210.807 -13.4865 0)
(210.262 -13.26 0)
(209.739 -13.0482 0)
(209.226 -12.8572 0)
(208.738 -12.6873 0)
(208.277 -12.5403 0)
(207.85 -12.4195 0)
(207.463 -12.3226 0)
(207.104 -12.2525 0)
(206.784 -12.2139 0)
(206.485 -12.2115 0)
(206.233 -12.2382 0)
(206.007 -12.2943 0)
(205.82 -12.381 0)
(205.666 -12.5021 0)
(205.548 -12.6541 0)
(205.459 -12.8289 0)
(205.399 -13.0191 0)
(205.359 -13.2252 0)
(205.342 -13.4499 0)
(205.342 -13.6919 0)
(205.365 -13.9433 0)
(205.393 -14.2099 0)
(205.435 -14.4692 0)
(205.495 -14.7317 0)
(205.566 -14.9969 0)
(205.651 -15.2628 0)
(205.739 -15.5271 0)
(205.845 -15.7844 0)
(205.948 -16.0346 0)
(206.06 -16.2749 0)
(206.17 -16.5071 0)
(206.291 -16.7287 0)
(206.406 -16.9429 0)
(206.53 -17.146 0)
(206.646 -17.3416 0)
(206.771 -17.5254 0)
(206.89 -17.7005 0)
(207.011 -17.8652 0)
(207.131 -18.0197 0)
(207.242 -18.1652 0)
(207.344 -18.3025 0)
(207.449 -18.4307 0)
(207.549 -18.5516 0)
(207.641 -18.6671 0)
(207.74 -18.7742 0)
(207.822 -18.88 0)
(207.919 -18.9759 0)
(207.995 -19.0733 0)
(208.088 -19.1605 0)
(208.16 -19.2507 0)
(208.249 -19.3312 0)
(208.318 -19.4157 0)
(208.404 -19.4914 0)
(208.474 -19.5718 0)
(208.559 -19.6452 0)
(208.637 -19.722 0)
(208.724 -19.7943 0)
(208.807 -19.8678 0)
(223.321 -18.0271 0)
(237.446 -25.8776 0)
(239.884 -18.2188 0)
(235.779 -15.9087 0)
(230.742 -15.9373 0)
(227.16 -16.2205 0)
(224.678 -16.8671 0)
(222.689 -17.138 0)
(221.064 -17.0086 0)
(219.769 -16.6911 0)
(218.631 -16.4024 0)
(217.604 -16.1856 0)
(216.711 -15.9431 0)
(215.928 -15.6506 0)
(215.197 -15.3748 0)
(214.491 -15.1508 0)
(213.832 -14.9311 0)
(213.183 -14.7271 0)
(212.562 -14.5156 0)
(211.963 -14.3034 0)
(211.402 -14.0836 0)
(210.891 -13.8629 0)
(210.403 -13.6542 0)
(209.929 -13.4614 0)
(209.475 -13.2855 0)
(209.047 -13.1276 0)
(208.652 -12.9918 0)
(208.296 -12.8794 0)
(207.971 -12.7904 0)
(207.675 -12.7243 0)
(207.412 -12.6885 0)
(207.184 -12.689 0)
(206.991 -12.7099 0)
(206.834 -12.7528 0)
(206.707 -12.8243 0)
(206.614 -12.924 0)
(206.55 -13.0495 0)
(206.515 -13.1942 0)
(206.502 -13.3577 0)
(206.512 -13.541 0)
(206.537 -13.7386 0)
(206.578 -13.9432 0)
(206.627 -14.1664 0)
(206.693 -14.3823 0)
(206.77 -14.6004 0)
(206.858 -14.8194 0)
(206.955 -15.0386 0)
(207.057 -15.257 0)
(207.17 -15.4703 0)
(207.282 -15.6788 0)
(207.401 -15.8795 0)
(207.513 -16.0747 0)
(207.633 -16.2602 0)
(207.746 -16.4402 0)
(207.865 -16.61 0)
(207.975 -16.7744 0)
(208.09 -16.9292 0)
(208.201 -17.0779 0)
(208.312 -17.2194 0)
(208.421 -17.3543 0)
(208.524 -17.4841 0)
(208.625 -17.6081 0)
(208.718 -17.7299 0)
(208.823 -17.843 0)
(208.909 -17.9589 0)
(209.016 -18.0633 0)
(209.098 -18.1738 0)
(209.204 -18.2713 0)
(209.285 -18.3764 0)
(209.39 -18.4682 0)
(209.472 -18.5678 0)
(209.574 -18.6551 0)
(209.66 -18.7492 0)
(209.76 -18.8332 0)
(209.852 -18.9213 0)
(209.952 -19.0024 0)
(210.049 -19.0841 0)
(210.149 -19.161 0)
(210.247 -19.2358 0)
(219.915 -21.2846 0)
(234.41 -27.5832 0)
(239.038 -19.7957 0)
(235.404 -17.1071 0)
(230.628 -17.007 0)
(227.006 -17.2878 0)
(224.625 -17.8601 0)
(222.765 -17.9887 0)
(221.282 -17.7293 0)
(220.057 -17.3401 0)
(218.947 -17.0222 0)
(217.944 -16.7731 0)
(217.076 -16.4926 0)
(216.308 -16.1843 0)
(215.594 -15.9072 0)
(214.911 -15.6831 0)
(214.282 -15.4666 0)
(213.666 -15.2692 0)
(213.079 -15.0661 0)
(212.513 -14.8603 0)
(211.984 -14.6474 0)
(211.506 -14.4323 0)
(211.054 -14.2262 0)
(210.618 -14.0312 0)
(210.201 -13.8491 0)
(209.807 -13.6804 0)
(209.444 -13.529 0)
(209.115 -13.3965 0)
(208.816 -13.2842 0)
(208.549 -13.1941 0)
(208.316 -13.1319 0)
(208.117 -13.0996 0)
(207.951 -13.0873 0)
(207.817 -13.0905 0)
(207.713 -13.1144 0)
(207.639 -13.1628 0)
(207.592 -13.2371 0)
(207.571 -13.3329 0)
(207.576 -13.4498 0)
(207.6 -13.5859 0)
(207.635 -13.7355 0)
(207.685 -13.8941 0)
(207.748 -14.0709 0)
(207.826 -14.2478 0)
(207.911 -14.4247 0)
(208.004 -14.6018 0)
(208.104 -14.7796 0)
(208.208 -14.9577 0)
(208.319 -15.1339 0)
(208.431 -15.3081 0)
(208.548 -15.4774 0)
(208.657 -15.645 0)
(208.774 -15.8055 0)
(208.884 -15.9638 0)
(209.001 -16.1148 0)
(209.111 -16.2633 0)
(209.225 -16.4064 0)
(209.339 -16.5449 0)
(209.448 -16.6814 0)
(209.566 -16.8105 0)
(209.669 -16.9409 0)
(209.786 -17.0604 0)
(209.878 -17.1857 0)
(209.996 -17.2953 0)
(210.085 -17.4135 0)
(210.202 -17.5143 0)
(210.291 -17.6245 0)
(210.404 -17.7175 0)
(210.495 -17.8188 0)
(210.603 -17.9047 0)
(210.695 -17.9961 0)
(210.798 -18.0752 0)
(210.89 -18.1563 0)
(210.986 -18.2282 0)
(211.077 -18.2986 0)
(211.167 -18.3623 0)
(211.254 -18.4223 0)
(211.336 -18.477 0)
(211.414 -18.527 0)
(217.55 -23.4984 0)
(231.513 -28.4884 0)
(237.779 -21.1138 0)
(234.791 -18.293 0)
(230.413 -18.0459 0)
(226.831 -18.3107 0)
(224.548 -18.7912 0)
(222.806 -18.7725 0)
(221.473 -18.4066 0)
(220.309 -17.9687 0)
(219.232 -17.6257 0)
(218.261 -17.3403 0)
(217.42 -17.0253 0)
(216.668 -16.7055 0)
(215.972 -16.4254 0)
(215.314 -16.1968 0)
(214.715 -15.9789 0)
(214.133 -15.7839 0)
(213.578 -15.5864 0)
(213.046 -15.3853 0)
(212.548 -15.1781 0)
(212.103 -14.9679 0)
(211.685 -14.7634 0)
(211.288 -14.5658 0)
(210.907 -14.3767 0)
(210.548 -14.1971 0)
(210.216 -14.0298 0)
(209.912 -13.8761 0)
(209.637 -13.7397 0)
(209.396 -13.6259 0)
(209.19 -13.5393 0)
(209.018 -13.4762 0)
(208.876 -13.4317 0)
(208.763 -13.4001 0)
(208.676 -13.3817 0)
(208.616 -13.3829 0)
(208.58 -13.4057 0)
(208.568 -13.4523 0)
(208.578 -13.5211 0)
(208.607 -13.6093 0)
(208.646 -13.7145 0)
(208.699 -13.8311 0)
(208.771 -13.9584 0)
(208.849 -14.1062 0)
(208.939 -14.2471 0)
(209.033 -14.3914 0)
(209.132 -14.537 0)
(209.236 -14.6845 0)
(209.343 -14.833 0)
(209.453 -14.9825 0)
(209.569 -15.1295 0)
(209.678 -15.2776 0)
(209.792 -15.4216 0)
(209.905 -15.5646 0)
(210.021 -15.7042 0)
(210.14 -15.8397 0)
(210.252 -15.9753 0)
(210.376 -16.1014 0)
(210.484 -16.2316 0)
(210.61 -16.3471 0)
(210.712 -16.4693 0)
(210.833 -16.5727 0)
(210.922 -16.685 0)
(211.035 -16.7767 0)
(211.122 -16.8767 0)
(211.228 -16.958 0)
(211.313 -17.0453 0)
(211.41 -17.1175 0)
(211.493 -17.1921 0)
(211.58 -17.2554 0)
(211.657 -17.3178 0)
(211.734 -17.3723 0)
(211.803 -17.4236 0)
(211.869 -17.4695 0)
(211.929 -17.5111 0)
(211.985 -17.5486 0)
(212.036 -17.582 0)
(212.083 -17.612 0)
(212.125 -17.6387 0)
(215.991 -24.9606 0)
(229.003 -28.9361 0)
(236.349 -22.2922 0)
(234.038 -19.4671 0)
(230.127 -19.0371 0)
(226.631 -19.2892 0)
(224.455 -19.6635 0)
(222.827 -19.4911 0)
(221.624 -19.0405 0)
(220.52 -18.5757 0)
(219.483 -18.2093 0)
(218.552 -17.8848 0)
(217.742 -17.5392 0)
(217.008 -17.2108 0)
(216.331 -16.9268 0)
(215.697 -16.6918 0)
(215.13 -16.4693 0)
(214.584 -16.2721 0)
(214.06 -16.0774 0)
(213.561 -15.8792 0)
(213.094 -15.6758 0)
(212.681 -15.4696 0)
(212.296 -15.2655 0)
(211.934 -15.0646 0)
(211.588 -14.868 0)
(211.262 -14.6778 0)
(210.959 -14.4953 0)
(210.68 -14.3219 0)
(210.429 -14.1632 0)
(210.211 -14.0261 0)
(210.029 -13.9133 0)
(209.877 -13.8201 0)
(209.755 -13.7448 0)
(209.661 -13.6817 0)
(209.591 -13.63 0)
(209.543 -13.5929 0)
(209.515 -13.5704 0)
(209.508 -13.5691 0)
(209.519 -13.5914 0)
(209.548 -13.635 0)
(209.589 -13.6991 0)
(209.642 -13.7803 0)
(209.712 -13.8696 0)
(209.795 -13.9719 0)
(209.883 -14.0927 0)
(209.976 -14.2088 0)
(210.075 -14.3281 0)
(210.178 -14.4506 0)
(210.285 -14.5749 0)
(210.392 -14.7021 0)
(210.505 -14.8277 0)
(210.616 -14.954 0)
(210.726 -15.0789 0)
(210.841 -15.1993 0)
(210.95 -15.3205 0)
(211.07 -15.4313 0)
(211.172 -15.547 0)
(211.292 -15.6467 0)
(211.388 -15.7534 0)
(211.502 -15.8415 0)
(211.59 -15.9364 0)
(211.692 -16.0127 0)
(211.764 -16.0948 0)
(211.852 -16.1609 0)
(211.92 -16.2303 0)
(211.998 -16.288 0)
(212.063 -16.3459 0)
(212.131 -16.3962 0)
(212.191 -16.4444 0)
(212.248 -16.4876 0)
(212.3 -16.5278 0)
(212.349 -16.5645 0)
(212.393 -16.5983 0)
(212.433 -16.6294 0)
(212.47 -16.6583 0)
(212.505 -16.6851 0)
(212.537 -16.7103 0)
(212.568 -16.734 0)
(212.597 -16.7567 0)
(214.976 -25.8986 0)
(226.81 -29.0354 0)
(234.658 -23.1718 0)
(233.145 -20.5732 0)
(229.768 -19.9685 0)
(226.396 -20.2157 0)
(224.316 -20.4684 0)
(222.833 -20.1528 0)
(221.729 -19.634 0)
(220.687 -19.1563 0)
(219.701 -18.7684 0)
(218.815 -18.4059 0)
(218.039 -18.0336 0)
(217.325 -17.6972 0)
(216.669 -17.4085 0)
(216.06 -17.1665 0)
(215.525 -16.938 0)
(215.015 -16.7353 0)
(214.524 -16.5406 0)
(214.056 -16.3433 0)
(213.621 -16.1418 0)
(213.237 -15.9379 0)
(212.883 -15.7331 0)
(212.554 -15.5277 0)
(212.239 -15.3229 0)
(211.945 -15.1225 0)
(211.67 -14.9267 0)
(211.415 -14.7372 0)
(211.187 -14.5592 0)
(210.992 -14.3991 0)
(210.827 -14.2584 0)
(210.692 -14.1353 0)
(210.587 -14.0294 0)
(210.507 -13.9357 0)
(210.451 -13.8557 0)
(210.415 -13.7878 0)
(210.397 -13.7338 0)
(210.394 -13.6933 0)
(210.406 -13.672 0)
(210.434 -13.6713 0)
(210.474 -13.6938 0)
(210.527 -13.7374 0)
(210.595 -13.7913 0)
(210.672 -13.857 0)
(210.762 -13.9306 0)
(210.851 -14.0257 0)
(210.949 -14.1172 0)
(211.048 -14.213 0)
(211.152 -14.3085 0)
(211.254 -14.4069 0)
(211.359 -14.5043 0)
(211.464 -14.5995 0)
(211.562 -14.6963 0)
(211.666 -14.7847 0)
(211.758 -14.8773 0)
(211.861 -14.9567 0)
(211.945 -15.0427 0)
(212.042 -15.1138 0)
(212.118 -15.1912 0)
(212.207 -15.2547 0)
(212.276 -15.3226 0)
(212.352 -15.3793 0)
(212.408 -15.4387 0)
(212.473 -15.49 0)
(212.526 -15.5422 0)
(212.584 -15.5895 0)
(212.636 -15.6361 0)
(212.689 -15.6799 0)
(212.738 -15.7227 0)
(212.786 -15.7633 0)
(212.832 -15.803 0)
(212.876 -15.841 0)
(212.918 -15.8785 0)
(212.959 -15.9144 0)
(212.998 -15.9504 0)
(213.038 -15.9849 0)
(213.076 -16.0198 0)
(213.116 -16.0534 0)
(213.155 -16.0876 0)
(214.36 -26.4642 0)
(224.955 -28.9252 0)
(232.964 -23.8856 0)
(232.324 -21.5978 0)
(229.283 -20.8473 0)
(226.109 -21.0781 0)
(224.141 -21.197 0)
(222.816 -20.7642 0)
(221.793 -20.1916 0)
(220.814 -19.7058 0)
(219.886 -19.2985 0)
(219.049 -18.9031 0)
(218.308 -18.508 0)
(217.619 -18.163 0)
(216.985 -17.8683 0)
(216.402 -17.6188 0)
(215.897 -17.3841 0)
(215.426 -17.1745 0)
(214.967 -16.9774 0)
(214.53 -16.779 0)
(214.125 -16.577 0)
(213.771 -16.3736 0)
(213.444 -16.1666 0)
(213.144 -15.9559 0)
(212.859 -15.7423 0)
(212.595 -15.5323 0)
(212.347 -15.3252 0)
(212.118 -15.1229 0)
(211.912 -14.9282 0)
(211.735 -14.7459 0)
(211.585 -14.5783 0)
(211.463 -14.4271 0)
(211.37 -14.2922 0)
(211.301 -14.1696 0)
(211.257 -14.0617 0)
(211.23 -13.9652 0)
(211.221 -13.8836 0)
(211.224 -13.8126 0)
(211.238 -13.7557 0)
(211.264 -13.7131 0)
(211.302 -13.6905 0)
(211.352 -13.6898 0)
(211.414 -13.7031 0)
(211.485 -13.7292 0)
(211.564 -13.7617 0)
(211.648 -13.8081 0)
(211.738 -13.8646 0)
(211.828 -13.9347 0)
(211.921 -13.9982 0)
(212.012 -14.0654 0)
(212.104 -14.1329 0)
(212.194 -14.1985 0)
(212.277 -14.2679 0)
(212.363 -14.3309 0)
(212.438 -14.4 0)
(212.522 -14.4596 0)
(212.591 -14.5264 0)
(212.672 -14.5836 0)
(212.739 -14.6472 0)
(212.815 -14.7028 0)
(212.878 -14.763 0)
(212.946 -14.8173 0)
(213.003 -14.8747 0)
(213.063 -14.9284 0)
(213.117 -14.9837 0)
(213.174 -15.0367 0)
(213.228 -15.0904 0)
(213.284 -15.1422 0)
(213.338 -15.1947 0)
(213.393 -15.2451 0)
(213.444 -15.296 0)
(213.498 -15.3448 0)
(213.548 -15.3941 0)
(213.599 -15.4412 0)
(213.648 -15.4887 0)
(213.699 -15.5341 0)
(213.749 -15.5798 0)
(213.801 -15.6236 0)
(213.852 -15.6674 0)
(214.011 -26.7965 0)
(223.411 -28.7173 0)
(231.341 -24.4469 0)
(231.473 -22.5282 0)
(228.706 -21.6878 0)
(225.766 -21.8703 0)
(223.911 -21.8385 0)
(222.756 -21.319 0)
(221.818 -20.7136 0)
(220.906 -20.2217 0)
(220.04 -19.7968 0)
(219.254 -19.3752 0)
(218.551 -18.9619 0)
(217.89 -18.6075 0)
(217.28 -18.3054 0)
(216.722 -18.0477 0)
(216.247 -17.8066 0)
(215.815 -17.5899 0)
(215.389 -17.3888 0)
(214.981 -17.1876 0)
(214.605 -16.9834 0)
(214.278 -16.7785 0)
(213.977 -16.5678 0)
(213.703 -16.3507 0)
(213.445 -16.1285 0)
(213.209 -15.9094 0)
(212.988 -15.6925 0)
(212.785 -15.4798 0)
(212.601 -15.2706 0)
(212.44 -15.0679 0)
(212.303 -14.8757 0)
(212.193 -14.698 0)
(212.11 -14.5357 0)
(212.05 -14.3858 0)
(212.012 -14.2495 0)
(211.991 -14.1239 0)
(211.986 -14.0132 0)
(211.992 -13.9131 0)
(212.01 -13.8268 0)
(212.035 -13.7507 0)
(212.069 -13.6892 0)
(212.113 -13.6445 0)
(212.165 -13.6161 0)
(212.226 -13.6037 0)
(212.292 -13.5988 0)
(212.363 -13.6064 0)
(212.439 -13.623 0)
(212.518 -13.6537 0)
(212.601 -13.6965 0)
(212.683 -13.7458 0)
(212.764 -13.7941 0)
(212.845 -13.8449 0)
(212.921 -13.9003 0)
(212.999 -13.9547 0)
(213.07 -14.0159 0)
(213.148 -14.0729 0)
(213.218 -14.1375 0)
(213.296 -14.1968 0)
(213.366 -14.2626 0)
(213.442 -14.3237 0)
(213.51 -14.3894 0)
(213.58 -14.4513 0)
(213.643 -14.5161 0)
(213.707 -14.5778 0)
(213.766 -14.6411 0)
(213.827 -14.7013 0)
(213.886 -14.7624 0)
(213.947 -14.8201 0)
(214.005 -14.8781 0)
(214.065 -14.9327 0)
(214.122 -14.9871 0)
(214.18 -15.0382 0)
(214.235 -15.0885 0)
(214.29 -15.1359 0)
(214.343 -15.182 0)
(214.396 -15.2255 0)
(214.448 -15.2675 0)
(214.501 -15.3071 0)
(214.553 -15.3449 0)
(213.861 -26.9612 0)
(222.13 -28.4656 0)
(229.83 -24.8903 0)
(230.573 -23.3659 0)
(228.072 -22.4888 0)
(225.396 -22.5932 0)
(223.655 -22.4001 0)
(222.648 -21.8142 0)
(221.804 -21.1958 0)
(220.963 -20.7016 0)
(220.163 -20.2618 0)
(219.43 -19.8209 0)
(218.765 -19.3941 0)
(218.134 -19.0302 0)
(217.551 -18.7197 0)
(217.019 -18.4528 0)
(216.574 -18.2047 0)
(216.18 -17.981 0)
(215.786 -17.7746 0)
(215.406 -17.5696 0)
(215.058 -17.3621 0)
(214.758 -17.1544 0)
(214.48 -16.9389 0)
(214.229 -16.7154 0)
(213.997 -16.4849 0)
(213.788 -16.2568 0)
(213.594 -16.0304 0)
(213.414 -15.8078 0)
(213.25 -15.5864 0)
(213.105 -15.3676 0)
(212.981 -15.1553 0)
(212.881 -14.9543 0)
(212.805 -14.7667 0)
(212.752 -14.591 0)
(212.718 -14.428 0)
(212.7 -14.2755 0)
(212.696 -14.137 0)
(212.703 -14.0099 0)
(212.721 -13.8978 0)
(212.746 -13.796 0)
(212.779 -13.7078 0)
(212.818 -13.6318 0)
(212.863 -13.5708 0)
(212.915 -13.5265 0)
(212.972 -13.4933 0)
(213.034 -13.475 0)
(213.099 -13.4637 0)
(213.167 -13.4691 0)
(213.241 -13.4863 0)
(213.318 -13.5177 0)
(213.399 -13.5607 0)
(213.478 -13.613 0)
(213.556 -13.6653 0)
(213.635 -13.7198 0)
(213.709 -13.7812 0)
(213.789 -13.8398 0)
(213.862 -13.906 0)
(213.941 -13.967 0)
(214.014 -14.0337 0)
(214.091 -14.0949 0)
(214.162 -14.1593 0)
(214.233 -14.2189 0)
(214.297 -14.2798 0)
(214.362 -14.3362 0)
(214.42 -14.3929 0)
(214.48 -14.4452 0)
(214.536 -14.4971 0)
(214.593 -14.5448 0)
(214.647 -14.5915 0)
(214.701 -14.6346 0)
(214.753 -14.676 0)
(214.802 -14.7143 0)
(214.849 -14.7507 0)
(214.894 -14.7845 0)
(214.937 -14.8162 0)
(214.979 -14.8457 0)
(215.018 -14.8731 0)
(215.056 -14.8986 0)
(215.093 -14.9222 0)
(213.824 -27.0055 0)
(221.076 -28.1669 0)
(228.446 -25.2423 0)
(229.643 -24.1154 0)
(227.422 -23.2492 0)
(225.026 -23.2488 0)
(223.409 -22.8976 0)
(222.511 -22.2574 0)
(221.755 -21.6369 0)
(220.986 -21.1433 0)
(220.255 -20.6923 0)
(219.576 -20.2385 0)
(218.953 -19.8029 0)
(218.354 -19.4307 0)
(217.798 -19.1116 0)
(217.294 -18.8344 0)
(216.877 -18.5782 0)
(216.521 -18.3475 0)
(216.159 -18.1346 0)
(215.806 -17.925 0)
(215.484 -17.7142 0)
(215.207 -17.5029 0)
(214.951 -17.2822 0)
(214.723 -17.0531 0)
(214.515 -16.8157 0)
(214.332 -16.5785 0)
(214.162 -16.3414 0)
(214.006 -16.1079 0)
(213.862 -15.8749 0)
(213.733 -15.6432 0)
(213.622 -15.4152 0)
(213.53 -15.1948 0)
(213.461 -14.9851 0)
(213.411 -14.7864 0)
(213.38 -14.5997 0)
(213.363 -14.424 0)
(213.36 -14.2622 0)
(213.368 -14.1129 0)
(213.385 -13.9797 0)
(213.41 -13.8591 0)
(213.443 -13.7534 0)
(213.481 -13.6598 0)
(213.525 -13.5803 0)
(213.573 -13.515 0)
(213.626 -13.4625 0)
(213.683 -13.4246 0)
(213.743 -13.3962 0)
(213.807 -13.382 0)