/*--------------------------------*- C++ -*----------------------------------*\
| =========                 |                                                 |
| \\      /  F ield         | OpenFOAM: The Open Source CFD Toolbox           |
|  \\    /   O peration     | Version:  2412                                  |
|   \\  /    A nd           | Website:  www.openfoam.com                      |
|    \\/     M anipulation  |                                                 |
\*---------------------------------------------------------------------------*/
FoamFile
{
    version     2.0;
    format      ascii;
    arch        "LSB;label=32;scalar=64";
    class       volScalarField;
    location    "0.01";
    object      rho;
}
// * * * * * * * * * * * * * * * * * * * * * * * * * * * * * * * * * * * * * //

dimensions      [1 -3 0 0 0 0 0];

internalField   nonuniform List<scalar> 
9857
(
0.042133
0.042133
0.042133
0.042133
0.042133
0.042133
0.042133
0.042133
0.042133
0.042133
0.042133
0.042133
0.042133
0.042133
0.042133
0.042133
0.042133
0.042133
0.042133
0.042133
0.042133
0.042133
0.042133
0.042133
0.042133
0.042133
0.042133
0.042133
0.042133
0.042133
0.042133
0.042133
0.042133
0.042133
0.042133
0.042133
0.042133
0.042133
0.042133
0.042133
0.042133
0.042133
0.042133
0.042133
0.042133
0.042133
0.042133
0.042133
0.042133
0.042133
0.042133
0.042133
0.042133
0.042133
0.042133
0.042133
0.042133
0.042133
0.042133
0.042133
0.042133
0.042133
0.042133
0.042133
0.042133
0.042133
0.042133
0.042133
0.042133
0.042133
0.042133
0.042133
0.042133
0.042133
0.042133
0.042133
0.042133
0.042133
0.042133
0.042133
0.042133
0.042133
0.042133
0.042133
0.042133
0.042133
0.042133
0.042133
0.042133
0.042133
0.042133
0.042133
0.042133
0.042133
0.042133
0.042133
0.042133
0.042133
0.042133
0.042133
0.042133
0.042133
0.042133
0.042133
0.042133
0.042133
0.042133
0.042133
0.042133
0.042133
0.042133
0.042133
0.042133
0.042133
0.042133
0.042133
0.042133
0.042133
0.042133
0.042133
0.042133
0.042133
0.042133
0.042133
0.042133
0.042133
0.042133
0.042133
0.042133
0.042133
0.042133
0.042133
0.042133
0.042133
0.042133
0.042133
0.042133
0.042133
0.042133
0.042133
0.042133
0.042133
0.042133
0.042133
0.042133
0.042133
0.042133
0.042133
0.042133
0.042133
0.042133
0.042133
0.042133
0.042133
0.042133
0.042133
0.042133
0.042133
0.042133
0.042133
0.042133
0.042133
0.042133
0.042133
0.042133
0.042133
0.042133
0.042133
0.042133
0.042133
0.042133
0.042133
0.042133
0.042133
0.042133
0.042133
0.042133
0.042133
0.042133
0.042133
0.042133
0.042133
0.042133
0.042133
0.042133
0.042133
0.042133
0.042133
0.042133
0.042133
0.042133
0.042133
0.042133
0.042133
0.042133
0.042133
0.042133
0.042133
0.042133
0.042133
0.042133
0.042133
0.042133
0.042133
0.042133
0.042133
0.042133
0.042133
0.042133
0.042133
0.042133
0.042133
0.042133
0.042133
0.042133
0.042133
0.042133
0.042133
0.042133
0.042133
0.042133
0.042133
0.042133
0.042133
0.042133
0.042133
0.042133
0.042133
0.042133
0.042133
0.042133
0.042133
0.042133
0.042133
0.042133
0.042133
0.042133
0.042133
0.042133
0.042133
0.042133
0.042133
0.042133
0.042133
0.042133
0.042133
0.042133
0.042133
0.042133
0.042133
0.042133
0.042133
0.042133
0.042133
0.042133
0.042133
0.042133
0.042133
0.042133
0.042133
0.042133
0.042133
0.042133
0.042133
0.042133
0.042133
0.042133
0.042133
0.042133
0.042133
0.042133
0.042133
0.042133
0.042133
0.042133
0.042133
0.042133
0.042133
0.042133
0.042133
0.042133
0.042133
0.042133
0.042133
0.042133
0.042133
0.042133
0.042133
0.042133
0.042133
0.042133
0.042133
0.042133
0.042133
0.042133
0.042133
0.042133
0.042133
0.042133
0.042133
0.042133
0.042133
0.042133
0.042133
0.042133
0.042133
0.042133
0.042133
0.042133
0.042133
0.042133
0.042133
0.042133
0.042133
0.042133
0.042133
0.042133
0.042133
0.042133
0.042133
0.042133
0.042133
0.042133
0.042133
0.042133
0.042133
0.042133
0.042133
0.042133
0.042133
0.042133
0.042133
0.042133
0.042133
0.042133
0.042133
0.042133
0.042133
0.042133
0.042133
0.042133
0.042133
0.042133
0.042133
0.042133
0.042133
0.042133
0.0421331
0.0421378
0.0422144
0.0426203
0.0433744
0.0439501
0.0441424
0.0441563
0.0440887
0.0439766
0.0438805
0.0438009
0.0437314
0.0436708
0.0436185
0.0435735
0.0435355
0.0435043
0.0434795
0.0434612
0.0434492
0.0434428
0.0434418
0.0434477
0.0434602
0.0434775
0.0434985
0.0435251
0.042133
0.042133
0.042133
0.042133
0.042133
0.042133
0.042133
0.042133
0.042133
0.042133
0.042133
0.042133
0.042133
0.042133
0.042133
0.042133
0.042133
0.042133
0.042133
0.042133
0.042133
0.042133
0.042133
0.042133
0.042133
0.042133
0.042133
0.042133
0.042133
0.042133
0.042133
0.042133
0.0421333
0.0421422
0.0422597
0.0427557
0.0435147
0.0440078
0.044147
0.0441368
0.0440503
0.04394
0.0438507
0.0437736
0.0437036
0.0436419
0.0435895
0.0435452
0.0435084
0.0434781
0.0434539
0.0434361
0.0434244
0.0434184
0.0434178
0.0434243
0.0434371
0.0434545
0.0434759
0.0435036
0.042133
0.042133
0.042133
0.042133
0.042133
0.042133
0.042133
0.042133
0.042133
0.042133
0.042133
0.042133
0.042133
0.042133
0.042133
0.042133
0.042133
0.042133
0.042133
0.042133
0.042133
0.042133
0.042133
0.042133
0.042133
0.042133
0.042133
0.042133
0.042133
0.042133
0.042133
0.042133
0.0421336
0.04215
0.0423208
0.0429007
0.0436382
0.044047
0.0441464
0.044119
0.0440121
0.0439023
0.043818
0.0437444
0.0436756
0.0436138
0.0435609
0.0435169
0.0434808
0.0434512
0.0434279
0.0434107
0.0433994
0.0433937
0.0433935
0.0434005
0.0434134
0.043431
0.0434532
0.0434823
0.042133
0.042133
0.042133
0.042133
0.042133
0.042133
0.042133
0.042133
0.042133
0.042133
0.042133
0.042133
0.042133
0.042133
0.042133
0.042133
0.042133
0.042133
0.042133
0.042133
0.042133
0.042133
0.042133
0.042133
0.042133
0.042133
0.042133
0.042133
0.042133
0.042133
0.042133
0.0421331
0.0421342
0.0421628
0.0423987
0.0430493
0.0437432
0.0440729
0.0441387
0.0440983
0.0439779
0.0438669
0.0437842
0.0437129
0.0436464
0.0435856
0.0435327
0.0434888
0.0434529
0.0434239
0.0434012
0.0433847
0.043374
0.0433687
0.0433689
0.0433763
0.0433894
0.0434074
0.0434309
0.0434608
0.042133
0.042133
0.042133
0.042133
0.042133
0.042133
0.042133
0.042133
0.042133
0.042133
0.042133
0.042133
0.042133
0.042133
0.042133
0.042133
0.042133
0.042133
0.042133
0.042133
0.042133
0.042133
0.042133
0.042133
0.042133
0.042133
0.042133
0.042133
0.042133
0.042133
0.042133
0.0421331
0.0421354
0.0421825
0.0424933
0.0431957
0.0438299
0.0440891
0.0441248
0.0440697
0.0439454
0.0438352
0.0437515
0.0436803
0.0436156
0.0435567
0.0435044
0.0434609
0.0434252
0.0433964
0.0433742
0.0433583
0.0433482
0.0433434
0.0433439
0.0433519
0.0433651
0.043384
0.0434087
0.043438
0.042133
0.042133
0.042133
0.042133
0.042133
0.042133
0.042133
0.042133
0.042133
0.042133
0.042133
0.042133
0.042133
0.042133
0.042133
0.042133
0.042133
0.042133
0.042133
0.042133
0.042133
0.042133
0.042133
0.042133
0.042133
0.042133
0.042133
0.042133
0.042133
0.042133
0.042133
0.0421331
0.0421376
0.0422114
0.0426028
0.0433348
0.0438992
0.0440968
0.0441076
0.0440355
0.0439114
0.0438052
0.0437207
0.0436481
0.0435839
0.0435268
0.0434757
0.043433
0.0433975
0.0433689
0.043347
0.0433315
0.043322
0.0433176
0.0433185
0.043327
0.0433408
0.043361
0.0433861
0.0434121
0.042133
0.042133
0.042133
0.042133
0.042133
0.042133
0.042133
0.042133
0.042133
0.042133
0.042133
0.042133
0.042133
0.042133
0.042133
0.042133
0.042133
0.042133
0.042133
0.042133
0.042133
0.042133
0.042133
0.042133
0.042133
0.042133
0.042133
0.042133
0.042133
0.042133
0.042133
0.0421333
0.0421415
0.0422515
0.0427241
0.0434627
0.0439516
0.0440987
0.0440885
0.0439979
0.0438758
0.0437747
0.0436909
0.043617
0.0435523
0.0434963
0.0434465
0.0434049
0.0433698
0.0433414
0.0433197
0.0433045
0.0432954
0.0432914
0.0432927
0.0433019
0.0433168
0.0433381
0.0433616
0.0433818
0.042133
0.042133
0.042133
0.042133
0.042133
0.042133
0.042133
0.042133
0.042133
0.042133
0.042133
0.042133
0.042133
0.042133
0.042133
0.042133
0.042133
0.042133
0.042133
0.042133
0.042133
0.042133
0.042133
0.042133
0.042133
0.042133
0.042133
0.042133
0.042133
0.042133
0.042133
0.0421335
0.042148
0.0423043
0.0428533
0.0435761
0.0439881
0.0440966
0.0440701
0.0439593
0.0438387
0.043743
0.043661
0.0435868
0.0435215
0.0434657
0.0434169
0.0433764
0.0433419
0.0433138
0.0432924
0.0432775
0.0432687
0.0432649
0.0432667
0.0432768
0.043293
0.0433142
0.0433335
0.0433474
0.042133
0.042133
0.042133
0.042133
0.042133
0.042133
0.042133
0.042133
0.042133
0.042133
0.042133
0.042133
0.042133
0.042133
0.042133
0.042133
0.042133
0.042133
0.042133
0.042133
0.042133
0.042133
0.042133
0.042133
0.042133
0.042133
0.042133
0.042133
0.042133
0.042133
0.0421331
0.042134
0.0421584
0.0423706
0.0429856
0.0436736
0.0440129
0.0440882
0.0440495
0.043923
0.0438023
0.0437099
0.0436302
0.0435568
0.0434915
0.0434353
0.0433873
0.0433476
0.0433138
0.0432862
0.0432651
0.0432504
0.0432418
0.0432383
0.0432408
0.0432521
0.0432691
0.0432879
0.0433013
0.0433123
0.042133
0.042133
0.042133
0.042133
0.042133
0.042133
0.042133
0.042133
0.042133
0.042133
0.042133
0.042133
0.042133
0.042133
0.042133
0.042133
0.042133
0.042133
0.042133
0.042133
0.042133
0.042133
0.042133
0.042133
0.042133
0.042133
0.042133
0.042133
0.042133
0.042133
0.0421331
0.0421348
0.0421739
0.0424504
0.0431167
0.0437555
0.044029
0.0440744
0.0440225
0.043889
0.0437685
0.0436767
0.0435985
0.0435265
0.0434619
0.0434052
0.0433578
0.0433186
0.0432854
0.0432584
0.0432377
0.0432234
0.043215
0.0432117
0.0432151
0.0432277
0.043244
0.0432581
0.0432664
0.0432855
0.042133
0.042133
0.042133
0.042133
0.042133
0.042133
0.042133
0.042133
0.042133
0.042133
0.042133
0.042133
0.042133
0.042133
0.042133
0.042133
0.042133
0.042133
0.042133
0.042133
0.042133
0.042133
0.042133
0.042133
0.042133
0.042133
0.042133
0.042133
0.042133
0.042133
0.0421331
0.0421364
0.0421962
0.0425423
0.0432425
0.0438223
0.044037
0.0440582
0.0439899
0.0438548
0.0437367
0.0436445
0.0435663
0.0434956
0.0434323
0.0433755
0.0433285
0.0432896
0.0432568
0.0432304
0.0432103
0.0431962
0.0431881
0.0431854
0.0431899
0.0432029
0.0432162
0.0432249
0.0432341
0.0432743
0.042133
0.042133
0.042133
0.042133
0.042133
0.042133
0.042133
0.042133
0.042133
0.042133
0.042133
0.042133
0.042133
0.042133
0.042133
0.042133
0.042133
0.042133
0.042133
0.042133
0.042133
0.042133
0.042133
0.042133
0.042133
0.042133
0.042133
0.042133
0.042133
0.042133
0.0421332
0.042139
0.0422266
0.0426445
0.04336
0.043875
0.044039
0.0440392
0.0439541
0.0438198
0.0437057
0.0436134
0.0435345
0.0434644
0.0434025
0.0433459
0.0432995
0.0432607
0.0432282
0.0432023
0.0431826
0.043169
0.0431615
0.0431596
0.043165
0.0431766
0.0431851
0.0431904
0.0432145
0.043296
0.042133
0.042133
0.042133
0.042133
0.042133
0.042133
0.042133
0.042133
0.042133
0.042133
0.042133
0.042133
0.042133
0.042133
0.042133
0.042133
0.042133
0.042133
0.042133
0.042133
0.042133
0.042133
0.042133
0.042133
0.042133
0.042133
0.042133
0.042133
0.042133
0.042133
0.0421333
0.0421433
0.0422664
0.0427541
0.0434665
0.0439138
0.0440382
0.0440201
0.0439156
0.0437836
0.0436746
0.043583
0.0435034
0.0434332
0.0433724
0.0433165
0.0432707
0.0432319
0.0431997
0.0431741
0.0431548
0.0431417
0.0431351
0.0431342
0.0431397
0.0431478
0.0431513
0.0431624
0.043214
0.0433897
0.042133
0.042133
0.042133
0.042133
0.042133
0.042133
0.042133
0.042133
0.042133
0.042133
0.042133
0.042133
0.042133
0.042133
0.042133
0.042133
0.042133
0.042133
0.042133
0.042133
0.042133
0.042133
0.042133
0.042133
0.042133
0.042133
0.042133
0.042133
0.042133
0.042133
0.0421336
0.04215
0.0423164
0.0428679
0.0435604
0.0439409
0.0440331
0.044001
0.0438772
0.0437467
0.0436427
0.0435528
0.0434729
0.0434025
0.043342
0.043287
0.043242
0.0432034
0.0431713
0.0431459
0.043127
0.0431148
0.0431092
0.0431088
0.0431127
0.0431162
0.0431185
0.0431492
0.0432598
0.0435923
0.042133
0.042133
0.042133
0.042133
0.042133
0.042133
0.042133
0.042133
0.042133
0.042133
0.042133
0.042133
0.042133
0.042133
0.042133
0.042133
0.042133
0.042133
0.042133
0.042133
0.042133
0.042133
0.042133
0.042133
0.042133
0.042133
0.042133
0.042133
0.042133
0.0421331
0.042134
0.0421599
0.0423767
0.0429826
0.0436413
0.0439595
0.0440223
0.0439794
0.0438411
0.0437107
0.0436101
0.0435223
0.0434429
0.0433723
0.0433117
0.0432577
0.0432133
0.043175
0.0431431
0.0431178
0.0430995
0.0430885
0.0430835
0.0430823
0.0430833
0.0430828
0.0430962
0.0431637
0.0434003
0.0438831
0.042133
0.042133
0.042133
0.042133
0.042133
0.042133
0.042133
0.042133
0.042133
0.042133
0.042133
0.042133
0.042133
0.042133
0.042133
0.042133
0.042133
0.042133
0.042133
0.042133
0.042133
0.042133
0.042133
0.042133
0.042133
0.042133
0.042133
0.042133
0.042133
0.0421331
0.0421349
0.042174
0.042447
0.0430951
0.0437096
0.043971
0.0440086
0.0439518
0.0438069
0.0436767
0.0435774
0.0434912
0.0434129
0.0433426
0.0432816
0.0432285
0.0431846
0.0431467
0.043115
0.04309
0.0430727
0.0430627
0.0430574
0.043054
0.0430514
0.0430535
0.0430906
0.0432416
0.0436461
0.0441914
0.042133
0.042133
0.042133
0.042133
0.042133
0.042133
0.042133
0.042133
0.042133
0.042133
0.042133
0.042133
0.042133
0.042133
0.042133
0.042133
0.042133
0.042133
0.042133
0.042133
0.042133
0.042133
0.042133
0.042133
0.042133
0.042133
0.042133
0.042133
0.042133
0.0421331
0.0421362
0.0421933
0.0425262
0.0432029
0.0437659
0.0439759
0.043993
0.0439201
0.0437728
0.0436446
0.0435454
0.0434599
0.0433828
0.0433132
0.0432519
0.0431995
0.043156
0.0431183
0.043087
0.0430628
0.0430465
0.0430368
0.04303
0.0430239
0.0430197
0.0430376
0.0431222
0.0434231
0.0439523
0.0444403
0.042133
0.042133
0.042133
0.042133
0.042133
0.042133
0.042133
0.042133
0.042133
0.042133
0.042133
0.042133
0.042133
0.042133
0.042133
0.042133
0.042133
0.042133
0.042133
0.042133
0.042133
0.042133
0.042133
0.042133
0.042133
0.042133
0.042133
0.042133
0.042133
0.0421332
0.0421383
0.0422186
0.0426128
0.0433038
0.043811
0.0439765
0.043975
0.0438859
0.0437386
0.0436135
0.0435143
0.0434288
0.0433526
0.043284
0.0432224
0.0431708
0.0431274
0.0430901
0.0430594
0.0430363
0.0430207
0.0430101
0.0430007
0.0429929
0.0429956
0.0430409
0.0432346
0.0436972
0.0442414
0.044597
0.0447479
0.0448116
0.0448465
0.0448882
0.0449463
0.0450148
0.045083
0.0451435
0.0451942
0.0452352
0.045267
0.0452901
0.0453057
0.0453157
0.0453222
0.0453272
0.0453315
0.0453359
0.0453408
0.0453455
0.0453486
0.0453493
0.0453473
0.0453423
0.045336
0.0453298
0.0453236
0.0453167
0.045308
0.0452969
0.045283
0.0452661
0.045246
0.0452228
0.0451966
0.0451675
0.0451356
0.0451012
0.0450639
0.042133
0.042133
0.042133
0.042133
0.042133
0.042133
0.042133
0.042133
0.042133
0.042133
0.042133
0.042133
0.042133
0.042133
0.042133
0.042133
0.042133
0.042133
0.042133
0.042133
0.042133
0.042133
0.042133
0.042133
0.042133
0.042133
0.042133
0.042133
0.042133
0.0421333
0.0421416
0.0422507
0.0427049
0.043396
0.0438451
0.0439748
0.0439568
0.0438491
0.0437038
0.0435829
0.043484
0.0433981
0.0433224
0.0432549
0.0431932
0.0431422
0.043099
0.0430621
0.0430323
0.0430103
0.0429946
0.0429819
0.0429704
0.0429638
0.0429847
0.043091
0.0434487
0.0440044
0.0444548
0.0446708
0.0447513
0.0447877
0.0448188
0.0448652
0.0449268
0.0449936
0.0450561
0.0451096
0.0451533
0.0451879
0.045214
0.0452323
0.0452441
0.0452512
0.0452556
0.0452587
0.0452613
0.0452639
0.045267
0.0452698
0.0452712
0.0452703
0.0452659
0.0452586
0.04525
0.0452412
0.0452321
0.0452222
0.0452105
0.0451965
0.0451798
0.0451602
0.0451377
0.0451123
0.0450841
0.0450532
0.0450195
0.0449838
0.0449452
0.0449055
0.0448632
0.0448208
0.0447764
0.0447318
0.0446862
0.0446402
0.0445942
0.0445476
0.0445015
0.042133
0.042133
0.042133
0.042133
0.042133
0.042133
0.042133
0.042133
0.042133
0.042133
0.042133
0.042133
0.042133
0.042133
0.042133
0.042133
0.042133
0.042133
0.042133
0.042133
0.042133
0.042133
0.042133
0.042133
0.042133
0.042133
0.042133
0.042133
0.042133
0.0421334
0.0421465
0.0422901
0.0428003
0.0434785
0.0438698
0.0439697
0.0439385
0.0438119
0.0436684
0.0435522
0.0434543
0.043368
0.0432924
0.0432258
0.0431643
0.0431138
0.0430707
0.0430344
0.0430058
0.0429845
0.0429676
0.0429523
0.0429408
0.0429444
0.042997
0.0432317
0.0437369
0.0442689
0.0445777
0.0446926
0.0447363
0.0447587
0.0447925
0.0448438
0.0449062
0.0449692
0.0450255
0.0450724
0.0451098
0.0451385
0.0451595
0.0451736
0.0451821
0.0451867
0.0451892
0.0451904
0.0451911
0.045192
0.0451933
0.0451942
0.0451938
0.0451908
0.0451843
0.0451749
0.0451639
0.0451524
0.0451405
0.0451276
0.0451131
0.0450963
0.045077
0.0450548
0.04503
0.0450025
0.0449724
0.0449398
0.0449046
0.0448676
0.0448278
0.0447872
0.0447441
0.0447012
0.0446565
0.0446117
0.0445662
0.0445202
0.0444744
0.0444282
0.0443825
0.0443374
0.0442928
0.044249
0.0442058
0.044163
0.0441208
0.0440788
0.0440372
0.0439961
0.0439553
0.0439135
0.0438602
0.042133
0.042133
0.042133
0.042133
0.042133
0.042133
0.042133
0.042133
0.042133
0.042133
0.042133
0.042133
0.042133
0.042133
0.042133
0.042133
0.042133
0.042133
0.042133
0.042133
0.042133
0.042133
0.042133
0.042133
0.042133
0.042133
0.042133
0.042133
0.0421331
0.0421337
0.0421535
0.042337
0.0428968
0.0435509
0.0438874
0.0439603
0.0439186
0.0437759
0.0436334
0.0435212
0.0434248
0.0433384
0.0432627
0.0431967
0.0431359
0.0430856
0.0430427
0.0430073
0.0429798
0.0429582
0.0429392
0.0429228
0.0429147
0.0429379
0.0430666
0.0434674
0.0440332
0.0444487
0.0446276
0.0446883
0.0447079
0.0447303
0.0447688
0.0448227
0.0448831
0.0449412
0.0449917
0.0450324
0.045064
0.0450877
0.0451042
0.0451146
0.0451202
0.0451228
0.0451234
0.0451226
0.0451214
0.0451207
0.0451202
0.0451192
0.0451167
0.0451116
0.0451031
0.0450915
0.0450781
0.045064
0.0450492
0.0450336
0.0450163
0.0449968
0.0449749
0.0449503
0.0449233
0.0448938
0.0448618
0.0448276
0.0447909
0.0447526
0.0447116
0.0446702
0.0446264
0.044583
0.0445381
0.0444931
0.0444477
0.0444016
0.0443561
0.0443102
0.0442649
0.0442203
0.0441762
0.044133
0.0440905
0.0440485
0.0440069
0.0439657
0.0439249
0.0438845
0.0438445
0.0438037
0.0437517
0.042133
0.042133
0.042133
0.042133
0.042133
0.042133
0.042133
0.042133
0.042133
0.042133
0.042133
0.042133
0.042133
0.042133
0.042133
0.042133
0.042133
0.042133
0.042133
0.042133
0.042133
0.042133
0.042133
0.042133
0.042133
0.042133
0.042133
0.042133
0.0421331
0.0421342
0.0421631
0.0423912
0.0429923
0.0436135
0.0438991
0.043948
0.0438947
0.0437421
0.0435997
0.0434901
0.0433954
0.0433093
0.0432336
0.0431677
0.0431076
0.0430576
0.0430151
0.0429807
0.0429537
0.0429308
0.0429096
0.0428949
0.0428993
0.0429582
0.0432273
0.0437593
0.0442726
0.0445448
0.0446363
0.0446648
0.0446787
0.044704
0.0447463
0.0448003
0.0448573
0.0449102
0.0449549
0.0449902
0.0450167
0.0450357
0.0450483
0.0450555
0.0450587
0.0450594
0.0450579
0.0450549
0.0450521
0.0450498
0.0450474
0.0450444
0.0450398
0.0450326
0.045022
0.0450083
0.0449925
0.0449758
0.0449583
0.0449399
0.0449199
0.0448978
0.0448734
0.0448466
0.0448174
0.044786
0.0447522
0.0447165
0.0446783
0.0446389
0.0445969
0.0445547
0.0445104
0.0444666
0.0444214
0.0443762
0.0443308
0.0442848
0.0442394
0.0441939
0.0441488
0.0441046
0.0440611
0.0440184
0.0439765
0.0439351
0.0438942
0.0438536
0.0438135
0.0437738
0.0437344
0.0436947
0.0436438
0.042133
0.042133
0.042133
0.042133
0.042133
0.042133
0.042133
0.042133
0.042133
0.042133
0.042133
0.042133
0.042133
0.042133
0.042133
0.042133
0.042133
0.042133
0.042133
0.042133
0.042133
0.042133
0.042133
0.042133
0.042133
0.042133
0.042133
0.042133
0.0421331
0.042135
0.042176
0.0424521
0.0430849
0.0436667
0.0439053
0.0439345
0.0438668
0.043709
0.0435676
0.0434593
0.0433658
0.0432805
0.0432049
0.0431389
0.0430795
0.0430299
0.0429882
0.0429546
0.0429271
0.0429019
0.0428809
0.0428715
0.0428964
0.043043
0.0434733
0.0440403
0.0444259
0.0445794
0.0446258
0.0446355
0.0446503
0.0446798
0.0447238
0.0447759
0.0448287
0.0448765
0.0449159
0.0449461
0.0449681
0.0449832
0.0449923
0.0449967
0.044998
0.0449968
0.0449929
0.0449881
0.0449838
0.0449797
0.0449754
0.0449703
0.0449636
0.0449543
0.0449416
0.0449257
0.0449076
0.0448883
0.0448682
0.044847
0.0448243
0.0447998
0.0447731
0.0447441
0.0447128
0.0446794
0.0446439
0.0446066
0.0445671
0.0445266
0.0444836
0.0444408
0.044396
0.0443517
0.0443063
0.0442609
0.0442154
0.0441695
0.0441242
0.0440789
0.0440341
0.0439903
0.0439472
0.043905
0.0438636
0.0438227
0.0437824
0.0437424
0.0437028
0.0436637
0.0436249
0.0435859
0.0435359
0.042133
0.042133
0.042133
0.042133
0.042133
0.042133
0.042133
0.042133
0.042133
0.042133
0.042133
0.042133
0.042133
0.042133
0.042133
0.042133
0.042133
0.042133
0.042133
0.042133
0.042133
0.042133
0.042133
0.042133
0.042133
0.042133
0.042133
0.042133
0.0421331
0.0421362
0.0421926
0.0425189
0.0431733
0.043711
0.0439071
0.0439192
0.0438364
0.0436762
0.0435368
0.0434291
0.0433364
0.0432519
0.0431766
0.0431104
0.0430516
0.0430027
0.042962
0.0429286
0.0428993
0.0428723
0.0428545
0.042859
0.0429225
0.0432154
0.0437616
0.0442575
0.044502
0.0445803
0.0445986
0.0446067
0.044624
0.0446564
0.0447002
0.0447492
0.0447975
0.0448404
0.044875
0.0449007
0.0449188
0.0449303
0.0449363
0.0449385
0.0449381
0.0449345
0.0449284
0.0449221
0.0449161
0.0449103
0.044904
0.0448967
0.0448878
0.0448764
0.0448617
0.0448436
0.0448232
0.0448014
0.0447786
0.0447548
0.0447296
0.0447026
0.0446736
0.0446425
0.0446092
0.0445741
0.0445369
0.0444983
0.0444574
0.0444159
0.0443721
0.0443286
0.0442834
0.0442386
0.044193
0.0441473
0.0441018
0.0440558
0.0440106
0.0439656
0.0439211
0.0438776
0.0438349
0.0437931
0.0437521
0.0437117
0.0436718
0.0436323
0.0435932
0.0435545
0.043516
0.0434777
0.0434281
0.042133
0.042133
0.042133
0.042133
0.042133
0.042133
0.042133
0.042133
0.042133
0.042133
0.042133
0.042133
0.042133
0.042133
0.042133
0.042133
0.042133
0.042133
0.042133
0.042133
0.042133
0.042133
0.042133
0.042133
0.042133
0.042133
0.042133
0.042133
0.0421331
0.0421379
0.0422136
0.0425905
0.0432561
0.043747
0.043906
0.0439021
0.0438041
0.0436435
0.043507
0.0433995
0.0433071
0.0432234
0.0431487
0.0430821
0.043024
0.0429761
0.0429362
0.0429021
0.0428705
0.0428443
0.0428329
0.0428584
0.0430155
0.0434633
0.0440277
0.0443924
0.0445266
0.0445632
0.0445689
0.0445784
0.0445993
0.0446331
0.0446751
0.0447203
0.0447642
0.0448024
0.0448326
0.0448545
0.044869
0.0448774
0.044881
0.0448815
0.044879
0.0448729
0.0448652
0.0448573
0.0448496
0.0448418
0.0448336
0.0448241
0.0448129
0.0447993
0.0447826
0.0447624
0.0447397
0.0447154
0.0446901
0.0446638
0.0446361
0.0446067
0.0445755
0.0445423
0.0445071
0.0444703
0.0444315
0.0443915
0.0443494
0.0443068
0.0442622
0.0442181
0.0441724
0.0441272
0.0440813
0.0440353
0.0439897
0.0439438
0.0438986
0.0438538
0.0438096
0.0437663
0.043724
0.0436825
0.0436419
0.0436018
0.0435623
0.0435232
0.0434846
0.0434463
0.0434081
0.0433706
0.0433217
0.042133
0.042133
0.042133
0.042133
0.042133
0.042133
0.042133
0.042133
0.042133
0.042133
0.042133
0.042133
0.042133
0.042133
0.042133
0.042133
0.042133
0.042133
0.042133
0.042133
0.042133
0.042133
0.042133
0.042133
0.042133
0.042133
0.042133
0.042133
0.0421332
0.0421404
0.0422392
0.0426657
0.0433325
0.043775
0.0439033
0.043885
0.0437697
0.0436108
0.0434777
0.0433706
0.0432783
0.0431951
0.0431209
0.0430542
0.0429969
0.04295
0.0429104
0.0428745
0.042841
0.0428192
0.042822
0.0428868
0.0431906
0.0437436
0.044228
0.0444559
0.0445244
0.0445347
0.0445391
0.0445513
0.0445749
0.0446087
0.0446482
0.0446896
0.0447291
0.044763
0.0447892
0.0448076
0.0448192
0.0448249
0.0448266
0.0448253
0.0448203
0.0448123
0.044803
0.0447934
0.0447838
0.0447742
0.0447639
0.0447522
0.0447388
0.044723
0.0447042
0.044682
0.044657
0.0446304
0.0446026
0.0445738
0.0445436
0.044512
0.0444786
0.0444435
0.0444065
0.0443681
0.0443279
0.0442865
0.0442432
0.0441997
0.0441542
0.0441094
0.0440633
0.0440176
0.0439715
0.0439253
0.0438796
0.0438338
0.0437886
0.043744
0.0436999
0.0436569
0.0436147
0.0435735
0.0435332
0.0434934
0.0434543
0.0434155
0.0433772
0.0433394
0.0433015
0.0432645
0.0432161
0.042133
0.042133
0.042133
0.042133
0.042133
0.042133
0.042133
0.042133
0.042133
0.042133
0.042133
0.042133
0.042133
0.042133
0.042133
0.042133
0.042133
0.042133
0.042133
0.042133
0.042133
0.042133
0.042133
0.042133
0.042133
0.042133
0.042133
0.042133
0.0421333
0.042144
0.0422697
0.0427432
0.0434015
0.0437957
0.043898
0.0438677
0.0437348
0.0435777
0.0434488
0.0433423
0.0432498
0.043167
0.0430934
0.0430267
0.0429705
0.0429244
0.0428841
0.0428458
0.0428136
0.0427989
0.0428225
0.0429802
0.0434335
0.0439974
0.044351
0.0444743
0.0445038
0.0445059
0.0445101
0.044525
0.0445503
0.0445832
0.0446199
0.0446576
0.044693
0.0447228
0.0447454
0.0447607
0.0447696
0.0447731
0.0447734
0.0447701
0.0447629
0.0447532
0.0447422
0.0447308
0.0447194
0.0447078
0.0446954
0.0446816
0.0446658
0.0446478
0.0446269
0.0446027
0.0445756
0.0445466
0.0445164
0.0444852
0.0444527
0.0444188
0.0443834
0.0443463
0.0443077
0.0442676
0.044226
0.0441834
0.0441389
0.0440945
0.0440482
0.0440027
0.0439561
0.0439099
0.0438636
0.0438172
0.0437714
0.0437255
0.0436804
0.0436359
0.043592
0.0435491
0.0435072
0.0434661
0.043426
0.0433865
0.0433477
0.0433092
0.0432713
0.0432337
0.043196
0.0431595
0.0431113
0.042133
0.042133
0.042133
0.042133
0.042133
0.042133
0.042133
0.042133
0.042133
0.042133
0.042133
0.042133
0.042133
0.042133
0.042133
0.042133
0.042133
0.042133
0.042133
0.042133
0.042133
0.042133
0.042133
0.042133
0.042133
0.042133
0.042133
0.042133
0.0421335
0.0421488
0.0423053
0.0428215
0.0434634
0.0438112
0.0438896
0.0438495
0.0437006
0.0435448
0.0434199
0.0433145
0.0432218
0.0431391
0.0430662
0.0429997
0.0429446
0.0428988
0.0428567
0.0428166
0.0427896
0.0427885
0.0428493
0.0431497
0.0437041
0.0441874
0.044408
0.0444702
0.0444753
0.0444767
0.0444823
0.0444991
0.0445249
0.0445563
0.0445902
0.0446245
0.0446561
0.0446822
0.0447015
0.0447141
0.0447206
0.0447227
0.0447212
0.0447157
0.0447066
0.0446954
0.0446827
0.0446694
0.044656
0.0446424
0.0446279
0.0446119
0.0445939
0.0445736
0.0445506
0.0445244
0.0444952
0.044464
0.0444315
0.044398
0.0443633
0.0443273
0.0442898
0.0442509
0.0442106
0.0441691
0.0441261
0.0440823
0.0440367
0.0439914
0.0439444
0.0438983
0.0438512
0.0438046
0.043758
0.0437113
0.0436654
0.0436195
0.0435743
0.0435299
0.0434862
0.0434434
0.0434016
0.0433607
0.0433208
0.0432815
0.0432429
0.0432046
0.043167
0.0431297
0.0430923
0.0430563
0.0430088
0.042133
0.042133
0.042133
0.042133
0.042133
0.042133
0.042133
0.042133
0.042133
0.042133
0.042133
0.042133
0.042133
0.042133
0.042133
0.042133
0.042133
0.042133
0.042133
0.042133
0.042133
0.042133
0.042133
0.042133
0.042133
0.042133
0.042133
0.0421331
0.0421338
0.0421552
0.0423458
0.0428994
0.0435178
0.043822
0.0438787
0.0438289
0.043668
0.0435127
0.0433911
0.0432869
0.0431942
0.0431115
0.0430391
0.0429733
0.0429194
0.0428728
0.0428281
0.0427892
0.0427698
0.042789
0.0429359
0.0433815
0.0439483
0.0443041
0.0444236
0.0444476
0.044447
0.0444476
0.0444553
0.0444734
0.0444988
0.0445284
0.0445597
0.0445909
0.044619
0.0446418
0.0446582
0.0446683
0.0446728
0.0446735
0.0446702
0.0446626
0.044652
0.0446391
0.0446245
0.0446093
0.044594
0.0445784
0.0445619
0.0445436
0.0445233
0.0445007
0.0444756
0.0444475
0.0444164
0.044383
0.0443483
0.0443125
0.0442756
0.0442376
0.0441982
0.0441575
0.0441155
0.0440726
0.0440282
0.0439833
0.0439367
0.0438905
0.0438429
0.0437961
0.0437485
0.0437015
0.0436546
0.0436077
0.0435615
0.0435156
0.0434703
0.0434259
0.0433823
0.0433397
0.0432981
0.0432574
0.0432177
0.0431785
0.0431401
0.0431021
0.0430646
0.0430276
0.0429904
0.0429547
0.0429074
0.042133
0.042133
0.042133
0.042133
0.042133
0.042133
0.042133
0.042133
0.042133
0.042133
0.042133
0.042133
0.042133
0.042133
0.042133
0.042133
0.042133
0.042133
0.042133
0.042133
0.042133
0.042133
0.042133
0.042133
0.042133
0.042133
0.042133
0.0421331
0.0421342
0.0421636
0.042391
0.0429757
0.0435655
0.0438288
0.043867
0.0438049
0.0436365
0.0434819
0.0433625
0.0432596
0.043167
0.0430843
0.0430125
0.0429477
0.0428942
0.0428457
0.042799
0.0427656
0.0427588
0.042811
0.0430924
0.0436406
0.0441335
0.0443597
0.0444191
0.0444197
0.044418
0.0444191
0.044429
0.0444477
0.0444719
0.0444996
0.0445286
0.044557
0.0445821
0.044602
0.0446158
0.0446236
0.0446265
0.0446256
0.0446202
0.0446109
0.0445987
0.0445841
0.0445676
0.0445505
0.0445332
0.0445156
0.0444969
0.0444764
0.0444538
0.044429
0.0444018
0.0443718
0.0443388
0.0443034
0.0442665
0.0442286
0.0441897
0.0441497
0.0441085
0.0440661
0.0440225
0.0439782
0.0439325
0.0438867
0.0438391
0.0437922
0.0437439
0.0436965
0.0436485
0.043601
0.0435538
0.0435067
0.0434603
0.0434143
0.043369
0.0433246
0.0432811
0.0432385
0.0431972
0.0431565
0.043117
0.043078
0.0430397
0.0430019
0.0429646
0.0429277
0.0428905
0.0428551
0.0428079
0.042133
0.042133
0.042133
0.042133
0.042133
0.042133
0.042133
0.042133
0.042133
0.042133
0.042133
0.042133
0.042133
0.042133
0.042133
0.042133
0.042133
0.042133
0.042133
0.042133
0.042133
0.042133
0.042133
0.042133
0.042133
0.042133
0.042133
0.0421331
0.0421349
0.0421741
0.0424404
0.0430496
0.0436062
0.0438316
0.0438543
0.0437784
0.0436057
0.0434522
0.0433342
0.0432323
0.0431401
0.0430575
0.0429863
0.0429226
0.0428687
0.0428175
0.042771
0.0427459
0.0427584
0.0428844
0.0433075
0.0438794
0.0442522
0.0443758
0.0443973
0.0443921
0.0443885
0.0443911
0.0444029
0.0444219
0.0444447
0.0444706
0.0444975
0.0445233
0.0445456
0.0445629
0.0445744
0.0445801
0.0445817
0.044579
0.0445715
0.0445607
0.044547
0.0445305
0.0445122
0.0444932
0.0444739
0.0444542
0.0444333
0.0444106
0.0443858
0.0443588
0.0443296
0.0442976
0.0442628
0.0442255
0.0441867
0.0441467
0.0441058
0.0440639
0.044021
0.043977
0.0439319
0.0438862
0.0438392
0.0437924
0.0437439
0.0436962
0.0436474
0.0435994
0.043551
0.0435031
0.0434555
0.0434082
0.0433617
0.0433156
0.0432702
0.0432258
0.0431824
0.04314
0.0430987
0.0430582
0.0430188
0.04298
0.0429419
0.0429043
0.0428672
0.0428305
0.0427935
0.0427585
0.0427118
0.042133
0.042133
0.042133
0.042133
0.042133
0.042133
0.042133
0.042133
0.042133
0.042133
0.042133
0.042133
0.042133
0.042133
0.042133
0.042133
0.042133
0.042133
0.042133
0.042133
0.042133
0.042133
0.042133
0.042133
0.042133
0.042133
0.042133
0.0421331
0.0421357
0.0421871
0.0424935
0.0431201
0.0436411
0.0438318
0.0438402
0.0437504
0.0435752
0.0434236
0.0433064
0.0432053
0.0431135
0.0430313
0.0429607
0.0428977
0.0428423
0.0427886
0.0427471
0.0427334
0.0427737
0.0430214
0.0435524
0.0440639
0.0443107
0.0443729
0.0443703
0.0443627
0.0443595
0.044364