/*--------------------------------*- C++ -*----------------------------------*\
| =========                 |                                                 |
| \\      /  F ield         | OpenFOAM: The Open Source CFD Toolbox           |
|  \\    /   O peration     | Version:  2412                                  |
|   \\  /    A nd           | Website:  www.openfoam.com                      |
|    \\/     M anipulation  |                                                 |
\*---------------------------------------------------------------------------*/
FoamFile
{
    version     2.0;
    format      ascii;
    arch        "LSB;label=32;scalar=64";
    class       volScalarField;
    location    "0.105";
    object      T;
}
// * * * * * * * * * * * * * * * * * * * * * * * * * * * * * * * * * * * * * //

dimensions      [0 0 0 1 0 0 0];

internalField   nonuniform List<scalar> 
9831
(
140.782
206.173
140.536
206.138
218.942
220.106
220.577
220.672
220.829
220.997
221.18
221.369
221.57
221.777
221.979
222.165
222.324
222.453
222.559
222.65
222.736
222.826
222.924
223.029
223.14
223.256
223.375
223.498
223.624
223.75
223.877
224.003
224.126
224.248
224.368
224.485
224.601
224.714
224.826
224.935
225.042
225.146
225.248
225.346
225.441
225.533
225.62
225.704
225.782
225.856
225.925
225.989
140.29
206.11
218.928
220.08
220.552
220.654
220.815
220.987
221.172
221.364
221.567
221.774
221.977
222.162
222.32
222.449
222.555
222.646
222.732
222.823
222.921
223.026
223.138
223.254
223.374
223.497
223.622
223.749
223.876
224.002
224.126
224.247
224.367
224.485
224.6
224.714
224.825
224.935
225.041
225.146
225.247
225.345
225.441
225.532
225.62
225.703
225.782
225.856
225.925
225.988
226.047
226.1
140.038
206.088
218.913
220.055
220.527
220.635
220.801
220.976
221.165
221.36
221.564
221.772
221.975
222.159
222.317
222.445
222.551
222.642
222.729
222.819
222.918
223.023
223.135
223.252
223.372
223.496
223.621
223.748
223.875
224.001
224.125
224.247
224.366
224.484
224.6
224.713
224.825
224.934
225.041
225.145
225.247
225.345
225.44
225.532
225.619
225.702
225.781
225.855
225.924
225.988
226.046
226.099
226.146
226.187
139.793
206.067
218.889
220.031
220.503
220.617
220.788
220.966
221.158
221.355
221.56
221.769
221.972
222.156
222.313
222.442
222.547
222.638
222.725
222.816
222.915
223.021
223.133
223.25
223.371
223.494
223.62
223.747
223.874
224
224.124
224.246
224.365
224.483
224.599
224.713
224.824
224.934
225.04
225.145
225.246
225.344
225.44
225.531
225.619
225.702
225.78
225.854
225.923
225.987
226.046
226.099
226.146
226.187
226.222
226.251
226.273
226.288
226.297
226.298
226.292
226.279
226.26
226.234
226.202
226.163
226.119
226.07
226.015
225.955
225.89
225.822
225.749
225.673
225.595
225.513
225.429
225.344
225.257
225.169
225.08
224.991
224.901
224.812
224.723
224.634
224.546
224.459
224.374
224.289
224.207
224.125
224.046
223.968
223.891
223.817
223.745
223.675
223.606
223.54
223.476
223.414
223.354
223.295
223.239
223.184
223.131
223.08
223.031
222.984
222.939
222.896
222.856
222.818
222.782
222.748
222.715
222.689
222.661
139.544
206.045
218.867
220.009
220.48
220.599
220.774
220.956
221.151
221.35
221.557
221.767
221.97
222.153
222.31
222.438
222.543
222.634
222.721
222.813
222.912
223.019
223.131
223.248
223.369
223.493
223.619
223.746
223.874
223.999
224.123
224.245
224.365
224.482
224.598
224.712
224.824
224.933
225.04
225.144
225.246
225.344
225.439
225.531
225.618
225.701
225.78
225.854
225.923
225.987
226.045
226.099
226.146
226.188
226.223
226.252
226.274
226.29
226.299
226.301
226.295
226.284
226.265
226.241
226.21
226.173
226.131
226.083
226.029
225.971
225.909
225.842
225.772
225.699
225.622
225.543
225.462
225.38
225.295
225.21
225.124
225.038
224.951
224.865
224.779
224.693
224.608
224.525
224.442
224.361
224.281
224.202
224.126
224.051
223.977
223.906
223.836
223.769
223.703
223.639
223.578
223.518
223.46
223.404
223.35
223.297
223.246
223.197
223.15
223.105
223.062
223.021
222.983
222.946
222.912
222.879
222.847
222.822
222.796
222.789
222.734
139.294
206.024
218.849
219.987
220.457
220.582
220.761
220.946
221.143
221.345
221.554
221.764
221.967
222.15
222.306
222.434
222.539
222.63
222.718
222.81
222.909
223.016
223.129
223.246
223.368
223.492
223.618
223.746
223.873
223.999
224.122
224.244
224.364
224.482
224.598
224.712
224.823
224.932
225.039
225.144
225.245
225.344
225.439
225.53
225.618
225.701
225.779
225.853
225.922
225.986
226.045
226.099
226.146
226.188
226.224
226.253
226.276
226.293
226.302
226.305
226.3
226.29
226.273
226.249
226.22
226.184
226.143
226.097
226.046
225.99
225.93
225.865
225.798
225.727
225.653
225.577
225.498
225.419
225.337
225.255
225.172
225.089
225.005
224.922
224.839
224.756
224.675
224.594
224.515
224.436
224.359
224.284
224.21
224.138
224.067
223.999
223.932
223.867
223.804
223.743
223.684
223.626
223.571
223.517
223.465
223.415
223.366
223.319
223.274
223.23
223.189
223.15
223.114
223.079
223.046
223.014
222.982
222.957
222.934
222.935
222.885
139.037
206.005
218.831
219.966
220.434
220.565
220.748
220.936
221.136
221.34
221.551
221.762
221.965
222.148
222.303
222.43
222.535
222.626
222.714
222.807
222.907
223.014
223.127
223.245
223.366
223.49
223.617
223.745
223.872
223.998
224.122
224.243
224.363
224.481
224.597
224.711
224.823
224.932
225.039
225.143
225.245
225.343
225.438
225.53
225.617
225.7
225.779
225.852
225.922
225.986
226.045
226.099
226.147
226.189
226.225
226.255
226.278
226.295
226.306
226.309
226.306
226.296
226.28
226.258
226.23
226.197
226.158
226.113
226.064
226.01
225.952
225.89
225.825
225.757
225.686
225.612
225.537
225.46
225.382
225.303
225.223
225.143
225.062
224.982
224.902
224.823
224.745
224.667
224.591
224.516
224.442
224.37
224.299
224.229
224.162
224.096
224.032
223.97
223.91
223.851
223.794
223.739
223.686
223.635
223.585
223.537
223.49
223.445
223.402
223.361
223.321
223.284
223.249
223.216
223.184
223.153
223.121
223.098
223.079
223.084
223.038
138.794
205.983
218.815
219.945
220.412
220.548
220.736
220.926
221.129
221.336
221.548
221.76
221.962
222.145
222.3
222.427
222.531
222.622
222.711
222.804
222.904
223.011
223.125
223.243
223.365
223.489
223.616
223.744
223.871
223.997
224.121
224.243
224.363
224.481
224.597
224.711
224.822
224.931
225.038
225.143
225.244
225.343
225.438
225.529
225.617
225.7
225.778
225.852
225.921
225.986
226.045
226.099
226.148
226.19
226.227
226.257
226.281
226.299
226.31
226.315
226.312
226.304
226.289
226.269
226.243
226.211
226.173
226.131
226.084
226.032
225.977
225.918
225.855
225.789
225.721
225.651
225.579
225.505
225.43
225.354
225.277
225.2
225.123
225.046
224.97
224.894
224.819
224.745
224.671
224.599
224.529
224.459
224.392
224.325
224.261
224.198
224.136
224.077
224.019
223.963
223.909
223.857
223.806
223.757
223.709
223.663
223.618
223.575
223.534
223.494
223.457
223.422
223.389
223.357
223.325
223.295
223.265
223.244
223.228
223.234
223.189
138.587
205.961
218.799
219.924
220.39
220.532
220.723
220.917
221.123
221.331
221.544
221.757
221.96
222.142
222.297
222.423
222.527
222.618
222.707
222.801
222.901
223.009
223.123
223.241
223.363
223.488
223.615
223.743
223.87
223.996
224.12
224.242
224.362
224.48
224.596
224.71
224.822
224.931
225.038
225.142
225.244
225.342
225.438
225.529
225.616
225.699
225.777
225.852
225.921
225.986
226.045
226.1
226.148
226.192
226.229
226.26
226.284
226.303
226.315
226.321
226.32
226.312
226.299
226.28
226.256
226.226
226.19
226.15
226.105
226.056
226.003
225.947
225.887
225.824
225.759
225.692
225.623
225.552
225.48
225.408
225.334
225.261
225.187
225.114
225.041
224.968
224.896
224.825
224.755
224.687
224.619
224.553
224.488
224.425
224.363
224.303
224.245
224.188
224.133
224.08
224.028
223.978
223.929
223.883
223.837
223.793
223.751
223.71
223.67
223.633
223.597
223.564
223.532
223.501
223.47
223.442
223.414
223.395
223.381
223.389
223.344
138.405
205.956
218.785
219.903
220.369
220.516
220.711
220.907
221.116
221.326
221.541
221.755
221.958
222.139
222.293
222.419
222.523
222.615
222.704
222.798
222.899
223.007
223.121
223.239
223.362
223.487
223.614
223.742
223.869
223.995
224.119
224.241
224.361
224.479
224.596
224.709
224.821
224.93
225.037
225.142
225.243
225.342
225.437
225.529
225.616
225.698
225.777
225.851
225.921
225.986
226.046
226.1
226.15
226.193
226.231
226.262
226.288
226.307
226.32
226.327
226.328
226.322
226.31
226.293
226.27
226.242
226.209
226.171
226.129
226.082
226.032
225.978
225.921
225.862
225.8
225.736
225.67
225.602
225.534
225.465
225.395
225.325
225.255
225.185
225.115
225.046
224.977
224.91
224.843
224.778
224.713
224.65
224.589
224.529
224.47
224.413
224.357
224.303
224.251
224.2
224.151
224.103
224.057
224.012
223.969
223.927
223.887
223.847
223.81
223.774
223.741
223.709
223.678
223.648
223.619
223.592
223.566
223.55
223.538
223.546
223.502
138.255
205.968
218.778
219.88
220.347
220.5
220.699
220.898
221.109
221.322
221.538
221.752
221.955
222.137
222.29
222.416
222.52
222.611
222.701
222.795
222.896
223.005
223.119
223.238
223.36
223.486
223.613
223.741
223.869
223.995
224.119
224.241
224.361
224.479
224.595
224.709
224.821
224.93
225.037
225.141
225.243
225.342
225.437
225.528
225.615
225.698
225.777
225.851
225.921
225.986
226.046
226.101
226.151
226.195
226.233
226.266
226.292
226.312
226.326
226.335
226.337
226.332
226.322
226.307
226.286
226.26
226.229
226.193
226.154
226.11
226.062
226.011
225.958
225.901
225.842
225.782
225.719
225.655
225.59
225.525
225.458
225.392
225.325
225.259
225.192
225.127
225.062
224.998
224.934
224.872
224.811
224.751
224.693
224.636
224.58
224.526
224.473
224.422
224.372
224.324
224.277
224.232
224.188
224.146
224.105
224.065
224.026
223.989
223.954
223.92
223.888
223.858
223.829
223.8
223.771
223.747
223.723
223.71
223.698
223.706
223.663
138.155
205.973
218.769
219.857
220.326
220.484
220.687
220.889
221.102
221.317
221.535
221.75
221.953
222.134
222.287
222.412
222.516
222.608
222.697
222.792
222.894
223.003
223.117
223.236
223.359
223.485
223.612
223.74
223.868
223.994
224.118
224.24
224.36
224.478
224.595
224.709
224.82
224.929
225.036
225.141
225.243
225.341
225.436
225.527
225.615
225.697
225.776
225.851
225.921
225.986
226.047
226.102
226.153
226.197
226.236
226.269
226.297
226.318
226.333
226.343
226.346
226.343
226.335
226.321
226.303
226.279
226.25
226.217
226.18
226.139
226.095
226.047
225.996
225.943
225.888
225.83
225.771
225.711
225.65
225.587
225.525
225.462
225.399
225.336
225.273
225.211
225.15
225.089
225.029
224.97
224.913
224.856
224.801
224.747
224.694
224.643
224.593
224.544
224.497
224.451
224.407
224.364
224.323
224.283
224.244
224.206
224.17
224.134
224.101
224.069
224.039
224.01
223.982
223.954
223.927
223.905
223.884
223.872
223.862
223.869
223.826
138.083
205.992
218.762
219.833
220.304
220.469
220.675
220.879
221.096
221.313
221.532
221.748
221.951
222.131
222.284
222.409
222.513
222.604
222.694
222.789
222.891
223
223.115
223.235
223.358
223.483
223.611
223.739
223.867
223.993
224.117
224.239
224.359
224.478
224.594
224.708
224.82
224.929
225.036
225.14
225.242
225.341
225.436
225.527
225.614
225.697
225.776
225.85
225.921
225.987
226.048
226.104
226.154
226.2
226.239
226.273
226.301
226.324
226.34
226.351
226.356
226.355
226.348
226.337
226.32
226.299
226.273
226.243
226.208
226.17
226.129
226.084
226.037
225.987
225.935
225.881
225.826
225.769
225.711
225.653
225.594
225.535
225.475
225.416
225.357
225.299
225.241
225.184
225.127
225.072
225.017
224.964
224.912
224.861
224.811
224.763
224.716
224.67
224.626
224.582
224.541
224.5
224.461
224.423
224.387
224.351
224.316
224.283
224.252
224.222
224.193
224.166
224.139
224.112
224.087
224.067
224.048
224.037
224.028
224.035
223.993
138.033
206.028
218.769
219.808
220.283
220.454
220.664
220.87
221.089
221.308
221.529
221.745
221.948
222.129
222.281
222.406
222.509
222.601
222.691
222.786
222.889
222.998
223.113
223.233
223.356
223.482
223.61
223.739
223.866
223.992
224.116
224.239
224.359
224.477
224.594
224.708
224.819
224.928
225.035
225.14
225.242
225.34
225.435
225.526
225.613
225.696
225.775
225.85
225.921
225.987
226.049
226.105
226.156
226.202
226.243
226.278
226.307
226.33
226.348
226.361
226.367
226.368
226.363
226.354
226.339
226.32
226.297
226.27
226.238
226.203
226.165
226.123
226.079
226.033
225.985
225.934
225.883
225.83
225.776
225.721
225.666
225.611
225.555
225.5
225.444
225.389
225.335
225.282
225.229
225.177
225.126
225.076
225.027
224.979
224.932
224.886
224.842
224.799
224.757
224.717
224.678
224.64
224.603
224.567
224.533
224.499
224.467
224.435
224.406
224.377
224.35
224.324
224.299
224.274
224.25
224.232
224.215
224.206
224.198
224.204
224.163
138
206.072
218.771
219.784
220.262
220.439
220.652
220.861
221.083
221.304
221.526
221.743
221.946
222.126
222.278
222.402
222.506
222.598
222.688
222.784
222.887
222.996
223.112
223.231
223.355
223.481
223.609
223.738
223.866
223.992
224.116
224.238
224.358
224.477
224.593
224.707
224.819
224.928
225.035
225.139
225.241
225.34
225.435
225.526
225.613
225.696
225.775
225.85
225.921
225.988
226.05
226.107
226.158
226.205
226.246
226.282
226.313
226.337
226.356
226.37
226.379
226.381
226.378
226.371
226.359
226.343
226.322
226.298
226.269
226.237
226.202
226.164
226.124
226.081
226.036
225.99
225.942
225.893
225.842
225.792
225.74
225.689
225.637
225.585
225.534
225.483
225.432
225.382
225.333
225.284
225.237
225.19
225.144
225.1
225.056
225.013
224.972
224.932
224.893
224.855
224.818
224.783
224.748
224.715
224.682
224.651
224.62
224.591
224.563
224.537
224.511
224.486
224.462
224.439
224.417
224.401
224.386
224.379
224.37
224.377
224.335
137.927
206.128
218.772
219.759
220.241
220.425
220.641
220.853
221.076
221.299
221.523
221.741
221.944
222.124
222.275
222.399
222.502
222.594
222.685
222.781
222.884
222.994
223.11
223.23
223.354
223.48
223.608
223.737
223.865
223.991
224.115
224.237
224.358
224.476
224.593
224.706
224.818
224.927
225.034
225.139
225.241
225.339
225.434
225.525
225.612
225.695
225.775
225.85
225.921
225.988
226.051
226.108
226.161
226.208
226.25
226.287
226.319
226.345
226.365
226.381
226.391
226.396
226.395
226.39
226.381
226.367
226.349
226.327
226.302
226.273
226.241
226.207
226.17
226.131
226.09
226.047
226.003
225.958
225.912
225.865
225.818
225.77
225.722
225.675
225.627
225.58
225.533
225.486
225.44
225.395
225.351
225.308
225.265
225.224
225.183
225.143
225.105
225.067
225.031
224.996
224.962
224.929
224.896
224.865
224.835
224.805
224.777
224.75
224.724
224.699
224.675
224.651
224.629
224.607
224.587
224.574
224.56
224.554
224.546
224.551
224.512
137.912
206.199
218.772
219.735
220.22
220.411
220.63
220.844
221.07
221.295
221.52
221.738
221.942
222.121
222.272
222.396
222.499
222.591
222.682
222.778
222.882
222.992
223.108
223.228
223.353
223.479
223.608
223.736
223.864
223.99
224.114
224.237
224.357
224.476
224.592
224.706
224.817
224.927
225.034
225.138
225.24
225.339
225.433
225.524
225.611
225.695
225.774
225.85
225.922
225.989
226.052
226.11
226.163
226.212
226.255
226.293
226.325
226.352
226.374
226.392
226.404
226.411
226.412
226.409
226.403
226.392
226.377
226.358
226.336
226.31
226.282
226.251
226.218
226.183
226.146
226.107
226.067
226.026
225.983
225.941
225.897
225.854
225.81
225.766
225.722
225.679
225.635
225.593
225.551
225.509
225.468
225.428
225.389
225.351
225.313
225.277
225.241
225.206
225.173
225.14
225.108
225.078
225.048
225.019
224.99
224.963
224.937
224.911
224.887
224.864
224.842
224.82
224.799
224.778
224.76
224.749
224.736
224.732
224.724
224.729
224.691
137.918
206.288
218.77
219.712
220.2
220.397
220.619
220.835
221.064
221.291
221.517
221.736
221.939
222.119
222.269
222.393
222.495
222.588
222.679
222.776
222.88
222.99
223.106
223.227
223.351
223.478
223.607
223.736
223.863
223.99
224.114
224.236
224.357
224.475
224.591
224.705
224.817
224.926
225.033
225.138
225.239
225.338
225.433
225.524
225.611
225.694
225.774
225.85
225.922
225.99
226.053
226.112
226.166
226.215
226.259
226.298
226.332
226.361
226.384
226.403
226.417
226.426
226.431
226.43
226.426
226.418
226.406
226.39
226.371
226.35
226.325
226.298
226.268
226.237
226.204
226.169
226.133
226.096
226.058
226.019
225.98
225.94
225.9
225.86
225.82
225.781
225.741
225.702
225.664
225.626
225.589
225.552
225.516
225.481
225.446
225.413
225.38
225.348
225.317
225.287
225.258
225.23
225.202
225.175
225.149
225.124
225.099
225.076
225.054
225.032
225.011
224.991
224.971
224.953
224.937
224.927
224.916
224.913
224.906
224.91
224.874
137.865
206.393
218.768
219.689
220.18
220.384
220.608
220.827
221.057
221.286
221.514
221.734
221.937
222.116
222.266
222.389
222.492
222.585
222.676
222.773
222.878
222.988
223.105
223.226
223.35
223.477
223.606
223.735
223.863
223.989
224.113
224.235
224.356
224.475
224.591
224.705
224.816
224.925
225.032
225.137
225.239
225.337
225.432
225.523
225.61
225.694
225.774
225.85
225.922
225.991
226.055
226.114
226.169
226.219
226.264
226.304
226.339
226.369
226.395
226.415
226.431
226.442
226.449
226.452
226.45
226.444
226.436
226.423
226.408
226.39
226.369
226.345
226.32
226.292
226.263
226.232
226.2
226.167
226.133
226.099
226.064
226.028
225.992
225.957
225.921
225.885
225.85
225.814
225.779
225.745
225.711
225.678
225.645
225.613
225.582
225.552
225.522
225.493
225.465
225.437
225.411
225.385
225.359
225.335
225.311
225.288
225.265
225.244
225.224
225.204
225.184
225.165
225.147
225.131
225.116
225.107
225.098
225.098
225.091
225.095
225.061
137.902
206.52
218.766
219.666
220.16
220.37
220.598
220.818
221.051
221.282
221.511
221.732
221.935
222.114
222.263
222.386
222.489
222.582
222.674
222.771
222.875
222.986
223.103
223.224
223.349
223.476
223.605
223.734
223.862
223.988
224.112
224.235
224.355
224.474
224.59
224.704
224.815
224.925
225.032
225.136
225.238
225.336
225.431
225.522
225.609
225.693
225.773
225.85
225.923
225.992
226.056
226.117
226.172
226.223
226.269
226.31
226.347
226.379
226.406
226.428
226.446
226.46
226.469
226.474
226.475
226.473
226.467
226.458
226.446
226.432
226.414
226.395
226.373
226.35
226.325
226.298
226.27
226.242
226.212
226.182
226.151
226.119
226.088
226.056
226.024
225.992
225.961
225.929
225.898
225.867
225.837
225.807
225.778
225.749
225.721
225.693
225.666
225.64
225.615
225.59
225.566
225.542
225.519
225.497
225.475
225.454
225.434
225.415
225.396
225.378
225.36
225.343
225.326
225.312
225.298
225.291
225.284
225.285
225.279
225.282
225.25
137.965
206.668
218.76
219.644
220.141
220.357
220.588
220.81
221.045
221.278
221.509
221.729
221.933
222.111
222.261
222.383
222.486
222.579
222.671
222.768
222.873
222.985
223.102
223.223
223.348
223.475
223.604
223.733
223.861
223.987
224.112
224.234
224.355
224.473
224.59
224.703
224.815
224.924
225.031
225.136
225.237
225.336
225.43
225.521
225.608
225.693
225.773
225.85
225.924
225.993
226.058
226.119
226.175
226.227
226.274
226.317
226.355
226.388
226.417
226.441
226.461
226.477
226.489
226.497
226.501
226.502
226.499
226.494
226.485
226.474
226.461
226.445
226.428
226.408
226.388
226.365
226.342
226.317
226.292
226.266
226.239
226.212
226.185
226.157
226.129
226.101
226.074
226.046
226.019
225.992
225.965
225.938
225.912
225.887
225.862
225.837
225.814
225.79
225.768
225.745
225.724
225.703
225.682
225.662
225.643
225.624
225.606
225.588
225.571
225.555
225.539
225.523
225.508
225.495
225.483
225.478
225.472
225.474
225.469
225.472
225.442
137.99
206.835
218.755
219.622
220.123
220.345
220.577
220.802
221.039
221.274
221.506
221.727
221.931
222.109
222.258
222.38
222.483
222.576
222.668
222.766
222.871
222.983
223.1
223.222
223.347
223.474
223.603
223.733
223.861
223.987
224.111
224.234
224.354
224.473
224.589
224.703
224.814
224.923
225.03
225.135
225.236
225.335
225.429
225.52
225.608
225.692
225.773
225.85
225.924
225.994
226.06
226.122
226.179
226.232
226.28
226.324
226.363
226.398
226.429
226.455
226.478
226.496
226.51
226.521
226.528
226.532
226.533
226.531
226.526
226.519
226.509
226.498
226.484
226.469
226.453
226.435
226.416
226.395
226.374
226.353
226.33
226.308
226.284
226.261
226.237
226.213
226.19
226.166
226.142
226.119
226.096
226.073
226.05
226.028
226.006
225.984
225.963
225.943
225.923
225.903
225.884
225.866
225.848
225.83
225.813
225.796
225.78
225.764
225.749
225.734
225.719
225.705
225.691
225.681
225.671
225.668
225.664
225.666
225.661
225.664
225.636
138.074
207.023
218.752
219.601
220.104
220.333
220.567
220.794
221.034
221.27
221.503
221.725
221.928
222.106
222.255
222.377
222.48
222.573
222.665
222.764
222.869
222.981
223.098
223.22
223.346
223.474
223.603
223.732
223.86
223.986
224.11
224.233
224.353
224.472
224.588
224.702
224.813
224.922
225.029
225.134
225.235
225.334
225.428
225.519
225.607
225.691
225.773
225.851
225.925
225.995
226.062
226.124
226.182
226.236
226.286
226.331
226.372
226.408
226.441
226.469
226.494
226.515
226.532
226.545
226.556
226.563
226.567
226.568
226.567
226.564
226.559
226.551
226.542
226.531
226.519
226.505
226.49
226.475
226.458
226.441
226.423
226.404
226.385
226.366
226.346
226.327
226.307
226.287
226.267
226.248
226.228
226.209
226.189
226.171
226.152
226.134
226.116
226.098
226.081
226.064
226.048
226.032
226.016
226
225.985
225.971
225.957
225.943
225.93
225.917
225.904
225.891
225.879
225.87
225.862
225.861
225.859
225.861
225.857
225.859
225.834
138.201
207.232
218.748
219.579
220.086
220.321
220.558
220.786
221.028
221.266
221.5
221.722
221.926
222.104
222.252
222.374
222.477
222.57
222.663
222.761
222.867
222.979
223.097
223.219
223.345
223.473
223.602
223.731
223.859
223.985
224.11
224.232
224.353
224.471
224.587
224.701
224.812
224.921
225.028
225.133
225.234
225.333
225.427
225.518
225.606
225.691
225.773
225.851
225.926
225.997
226.064
226.127
226.186
226.241
226.292
226.338
226.381
226.419
226.453
226.484
226.511
226.534
226.554
226.571
226.584
226.595
226.602
226.608
226.61
226.611
226.61
226.606
226.601
226.595
226.587
226.578
226.568
226.556
226.544
226.531
226.518
226.504
226.489
226.474
226.459
226.443
226.427
226.411
226.395
226.379
226.363
226.347
226.332
226.316
226.301
226.285
226.27
226.256
226.241
226.227
226.213
226.199
226.186
226.173
226.16
226.147
226.135
226.124
226.112
226.101
226.089
226.078
226.067
226.061
226.056
226.056
226.055
226.058
226.053
226.055
226.032
138.306
207.459
218.744
219.557
220.068
220.309
220.548
220.779
221.022
221.262
221.497
221.72
221.924
222.102
222.25
222.371
222.474
222.567
222.66
222.759
222.865
222.978
223.095
223.218
223.344
223.472
223.601
223.73
223.858
223.985
224.109
224.231
224.352
224.47
224.586
224.7
224.811
224.92
225.027
225.132
225.233
225.332
225.426
225.517
225.605
225.69
225.772
225.851
225.927
225.998
226.066
226.13
226.19
226.246
226.298
226.346
226.39
226.43
226.466
226.499
226.529
226.554
226.577
226.597
226.613
226.627
226.638
226.647
226.654
226.659
226.661
226.662
226.661
226.659
226.656
226.651
226.645
226.639
226.631
226.623
226.614
226.604
226.594
226.583
226.572
226.56
226.549
226.537
226.525
226.512
226.5
226.488
226.475
226.463
226.451
226.439
226.427
226.415
226.404
226.392
226.381
226.37
226.359
226.348
226.338
226.327
226.317
226.308
226.298
226.288
226.278
226.268
226.26
226.257
226.253
226.255
226.255
226.258
226.253
226.255
226.235
138.476
207.702
218.74
219.535
220.05
220.297
220.539
220.771
221.017
221.258
221.494
221.718
221.922
222.099
222.247
222.368
222.471
222.564
222.658
222.757
222.863
222.976
223.094
223.216
223.342
223.471
223.6
223.729
223.858
223.984
224.108
224.231
224.351
224.47
224.585
224.699
224.81
224.919
225.026
225.131
225.232
225.33
225.425
225.516
225.605
225.69
225.772
225.852
225.927
226
226.068
226.133
226.194
226.251
226.304
226.354
226.399
226.441
226.48
226.515
226.547
226.575
226.601
226.623
226.643
226.661
226.675
226.688
226.699
226.708
226.714
226.72
226.724
226.726
226.727
226.727
226.726
226.723
226.72
226.716
226.712
226.707
226.701
226.694
226.688
226.68
226.673
226.665
226.656
226.648
226.639
226.631
226.622
226.613
226.604
226.595
226.586
226.577
226.568
226.56
226.551
226.542
226.534
226.525
226.517
226.508
226.501
226.493
226.485
226.476
226.468
226.46
226.454
226.454
226.451
226.454
226.454
226.458
226.454
226.456
226.438
138.703
207.961
218.735
219.512
220.033
220.286
220.529
220.764
221.011
221.254
221.492
221.716
221.92
222.097
222.244
222.365
222.468
222.561
222.655
222.755
222.861
222.974
223.092
223.215
223.341
223.47
223.599
223.729
223.857
223.983
224.107
224.23
224.35
224.469
224.585
224.698
224.809
224.918
225.025
225.13
225.231
225.329
225.424
225.515
225.604
225.69
225.772
225.852
225.928
226.001
226.071
226.136
226.198
226.256
226.311
226.362
226.409
226.453
226.493
226.531
226.565
226.596
226.625
226.65
226.674
226.694
226.713
226.729
226.744
226.757
226.768
226.778
226.786
226.793
226.798
226.803
226.806
226.809
226.81
226.811
226.811
226.81
226.809
226.807
226.804
226.801
226.798
226.794
226.789
226.785
226.78
226.775
226.769
226.764
226.758
226.753
226.747
226.741
226.735
226.729
226.723
226.717
226.711
226.705
226.699
226.693
226.687
226.681
226.675
226.668
226.661
226.656
226.653
226.654
226.653
226.656
226.658
226.661
226.658
226.661
226.645
138.948
208.23
218.729
219.489
220.016
220.275
220.52
220.756
221.006
221.25
221.489
221.714
221.918
222.095
222.242
222.363
222.465
222.558
222.652
222.752
222.859
222.972
223.091
223.214
223.34
223.469
223.599
223.728
223.856
223.982
224.107
224.229
224.35
224.468
224.584
224.697
224.808
224.917
225.024
225.129
225.23
225.328
225.423
225.514
225.603
225.689
225.772
225.852
225.929
226.003
226.073
226.139
226.202
226.262
226.317
226.37
226.419
226.465
226.507
226.547
226.584
226.618
226.649
226.678
226.705
226.729
226.752
226.772
226.791
226.808
226.823
226.837
226.85
226.861
226.872
226.881
226.889
226.896
226.902
226.908
226.912
226.916
226.919
226.921
226.923
226.924
226.925
226.925
226.925
226.924
226.923
226.921
226.92
226.917
226.915
226.912
226.91
226.907
226.904
226.9
226.897
226.893
226.89
226.886
226.882
226.878
226.874
226.87
226.865
226.86
226.856
226.853
226.852
226.854
226.853
226.858
226.86
226.864
226.863
226.866
226.852
139.176
208.505
218.724
219.466
220
220.264
220.511
220.749
221.001
221.247
221.486
221.711
221.916
222.092
222.239
222.36
222.462
222.556
222.65
222.75
222.857
222.971
223.09
223.213
223.339
223.468
223.598
223.727
223.855
223.981
224.106
224.228
224.349
224.467
224.582
224.696
224.807
224.916
225.023
225.128
225.229
225.327
225.422
225.513
225.602
225.689
225.772
225.853
225.93
226.004
226.075
226.143
226.207
226.267
226.324
226.378
226.429
226.477
226.522
226.564
226.603
226.64
226.674
226.706
226.736
226.764
226.79
226.815
226.838
226.859
226.879
226.897
226.914
226.93
226.945
226.959
226.972
226.984
226.994
227.004
227.014
227.022
227.029
227.036
227.042
227.048
227.053
227.057
227.061
227.064
227.067
227.069
227.07
227.072
227.073
227.073
227.074
227.074
227.074
227.073
227.073
227.072
227.071
227.069
227.068
227.066
227.064
227.062
227.059
227.056
227.055
227.055
227.055
227.058
227.058
227.063
227.067
227.071
227.072
227.076
227.065
139.485
208.786
218.718
219.443
219.984
220.254
220.502
220.742
220.996
221.243
221.484
221.709
221.913
222.09
222.237
222.357
222.459
222.553
222.648
222.748
222.856
222.969
223.088
223.212
223.338
223.467
223.597
223.726
223.854
223.981
224.105
224.227
224.348
224.466
224.581
224.695
224.806
224.915
225.022
225.126
225.228
225.326
225.42
225.512
225.602
225.688
225.772
225.853
225.931
226.006
226.078
226.146
226.211
226.273
226.331
226.387
226.44
226.489
226.536
226.581
226.623
226.662
226.7
226.735
226.769
226.8
226.83
226.859
226.886
226.911
226.935
226.958
226.98
227.001
227.02
227.039
227.057
227.073
227.089
227.103
227.117
227.13
227.142
227.154
227.164
227.174
227.183
227.191
227.199
227.206
227.213
227.218
227.224
227.228
227.233
227.237
227.24
227.243
227.246
227.248
227.25
227.252
227.253
227.254
227.255
227.255
227.255
227.255
227.254
227.253
227.254
227.256
227.258
227.261
227.262
227.268
227.272
227.277
227.28
227.285
227.277
139.876
209.07
218.712
219.419
219.968
220.243
220.493
220.735
220.99
221.239
221.481
221.707
221.911
222.088
222.234
222.354
222.456
222.55
222.645
222.746
222.854
222.968
223.087
223.21
223.337
223.466
223.596
223.725
223.853
223.98
224.104
224.226
224.347
224.465
224.58
224.693
224.805
224.914
225.021
225.125
225.226
225.324
225.419
225.511
225.601
225.688
225.772
225.854
225.932
226.008
226.08
226.149
226.215
226.278
226.338
226.396
226.45
226.502
226.551
226.598
226.643
226.685
226.726
226.764
226.801
226.837
226.87
226.903
226.934
226.964
226.992
227.02
227.046
227.071
227.096
227.119
227.141
227.162
227.183
227.202
227.221
227.238
227.255
227.271
227.286
227.3
227.313
227.326
227.338
227.349
227.359
227.369
227.377
227.386
227.394
227.401
227.407
227.414
227.419
227.424
227.429
227.433
227.437
227.441
227.444
227.446
227.449
227.45
227.452
227.454
227.456
227.461
227.464
227.47
227.472
227.478
227.482
227.488
227.494
227.5
227.495
140.236
209.351
218.706
219.395
219.952
220.233
220.485
220.728
220.985
221.236
221.478
221.705
221.909
222.085
222.231
222.352
222.454
222.548
222.643
222.744
222.852
222.966
223.085
223.209
223.336
223.465
223.595
223.725
223.853
223.979
224.103
224.225
224.346
224.464
224.579
224.692
224.803
224.913
225.02
225.124
225.225
225.323
225.418
225.51
225.6
225.687
225.772
225.854
225.933
226.01
226.083
226.153
226.22
226.284
226.346
226.405
226.461
226.515
226.566
226.616
226.663
226.708
226.752
226.794
226.835
226.874
226.911
226.948
226.983
227.017
227.05
227.082
227.113
227.143
227.172
227.2
227.228
227.254
227.279
227.303
227.326
227.348
227.37
227.39
227.41
227.428
227.446
227.462
227.478
227.493
227.507
227.521
227.533
227.545
227.556
227.567
227.577
227.586
227.594
227.602
227.61
227.617
227.623
227.629
227.634
227.639
227.643
227.647
227.65
227.654
227.658
227.664
227.669
227.676
227.68
227.687
227.692
227.698
227.705
227.712
227.71
140.632
209.627
218.702
219.371
219.937
220.223
220.476
220.722
220.98
221.232
221.476
221.703
221.907
222.083
222.229
222.349
222.451
222.545
222.641
222.742
222.85
222.964
223.084
223.208
223.335
223.464