/*--------------------------------*- C++ -*----------------------------------*\
| =========                 |                                                 |
| \\      /  F ield         | OpenFOAM: The Open Source CFD Toolbox           |
|  \\    /   O peration     | Version:  2412                                  |
|   \\  /    A nd           | Website:  www.openfoam.com                      |
|    \\/     M anipulation  |                                                 |
\*---------------------------------------------------------------------------*/
FoamFile
{
    version     2.0;
    format      ascii;
    arch        "LSB;label=32;scalar=64";
    class       volScalarField;
    location    "0.093";
    object      rho;
}
// * * * * * * * * * * * * * * * * * * * * * * * * * * * * * * * * * * * * * //

dimensions      [1 -3 0 0 0 0 0];

internalField   nonuniform List<scalar> 
9816
(
0.0439806
0.0439838
0.0439856
0.0439865
0.0439862
0.0439845
0.0439824
0.0439794
0.0439754
0.0439708
0.0439654
0.0439592
0.0439524
0.0439449
0.0439368
0.0439281
0.0439189
0.0439088
0.0439
0.0438903
0.0438811
0.043872
0.0438628
0.0438535
0.043844
0.0438338
0.0438225
0.0438094
0.0437937
0.0437774
0.0437585
0.0437367
0.0437054
0.0436664
0.0436147
0.0435578
0.04349
0.0434227
0.0433469
0.0432771
0.0432023
0.0431455
0.043254
0.0432432
0.0432321
0.0432206
0.0432092
0.0431973
0.0431854
0.0431737
0.0431618
0.0431499
0.0431381
0.0431264
0.0431148
0.0431034
0.0430922
0.0430813
0.0430724
0.0430635
0.0430558
0.043049
0.0430427
0.0430368
0.0430302
0.0430226
0.0430142
0.0430041
0.0429926
0.0429734
0.0429453
0.0429029
0.0428505
0.0427865
0.0427195
0.0426489
0.0425837
0.0425218
0.042471
0.0424283
0.0423997
0.0423794
0.0423688
0.042359
0.0429214
0.0429121
0.042903
0.0428942
0.0428856
0.0428772
0.0428689
0.0428609
0.0428531
0.0428453
0.0428378
0.0428306
0.0428237
0.0428172
0.0428118
0.0428071
0.0428031
0.0427998
0.0427965
0.0427929
0.042788
0.0427821
0.0427752
0.0427665
0.0427529
0.0427327
0.0427027
0.0426628
0.0426123
0.0425537
0.0424893
0.0424222
0.0423562
0.0423008
0.0422599
0.0422205
0.0421969
0.0421964
0.0421963
0.0421911
0.0421826
0.0421823
0.0427307
0.042724
0.0427175
0.0427111
0.0427048
0.0426987
0.0426927
0.0426867
0.0426811
0.0426752
0.0426705
0.0426654
0.0426615
0.0426579
0.0426551
0.0426527
0.0426507
0.0426482
0.0426452
0.0426409
0.042636
0.04263
0.042621
0.0426074
0.0425866
0.0425571
0.0425168
0.0424662
0.042406
0.0423406
0.0422733
0.0422141
0.0421645
0.0421204
0.0420964
0.0420947
0.04209
0.0420784
0.0420692
0.0420695
0.0420724
0.0420799
0.0426088
0.0426036
0.0425993
0.0425948
0.0425907
0.0425865
0.0425825
0.0425786
0.0425748
0.0425711
0.0425677
0.0425646
0.042562
0.0425599
0.0425581
0.0425565
0.0425545
0.0425518
0.0425485
0.0425447
0.0425394
0.042532
0.0425199
0.0425021
0.0424752
0.0424387
0.0423908
0.0423338
0.0422696
0.0422046
0.0421436
0.0420895
0.0420515
0.0420334
0.0420159
0.0419999
0.0419979
0.0419997
0.0420021
0.0420034
0.0420034
0.0420028
0.0425245
0.042521
0.0425175
0.042514
0.0425105
0.042507
0.0425035
0.0425001
0.0424967
0.0424936
0.0424908
0.0424885
0.0424865
0.042485
0.0424835
0.0424819
0.0424797
0.0424771
0.0424741
0.0424705
0.0424648
0.0424562
0.0424424
0.0424218
0.042392
0.0423525
0.0423025
0.0422444
0.0421812
0.0421186
0.0420599
0.0420124
0.0419856
0.0419658
0.0419456
0.0419396
0.0419423
0.0419461
0.0419449
0.0419413
0.041938
0.0419367
0.0424615
0.0424586
0.0424558
0.0424531
0.0424505
0.042448
0.0424456
0.0424434
0.0424414
0.0424397
0.0424384
0.0424375
0.0424369
0.0424364
0.0424357
0.0424346
0.0424331
0.0424313
0.0424292
0.0424257
0.0424207
0.0424118
0.0423985
0.0423777
0.0423487
0.0423094
0.0422608
0.0422039
0.0421427
0.0420816
0.0420255
0.0419805
0.0419459
0.0419184
0.0419054
0.0419051
0.0419014
0.0418933
0.04189
0.0418893
0.0418912
0.0418942
0.0424124
0.0424108
0.0424092
0.0424076
0.042406
0.0424043
0.0424026
0.042401
0.0423995
0.0423983
0.0423972
0.0423965
0.042396
0.0423959
0.042395
0.0423942
0.0423927
0.0423911
0.0423893
0.0423863
0.0423818
0.0423741
0.0423624
0.0423442
0.0423188
0.0422841
0.042241
0.0421899
0.0421336
0.0420755
0.0420194
0.0419699
0.0419281
0.0418954
0.0418758
0.0418668
0.0418573
0.041849
0.0418481
0.0418507
0.0418529
0.0418525
0.0423769
0.0423757
0.0423742
0.0423732
0.0423715
0.0423702
0.0423689
0.0423677
0.0423667
0.0423659
0.0423654
0.0423653
0.0423653
0.0423654
0.0423652
0.0423649
0.0423639
0.0423628
0.0423615
0.0423592
0.0423558
0.0423496
0.0423402
0.0423253
0.0423046
0.0422756
0.0422392
0.0421941
0.0421436
0.0420884
0.0420334
0.0419803
0.041934
0.0418952
0.0418649
0.0418439
0.0418345
0.0418277
0.0418197
0.0418162
0.0418179
0.0418205
0.0423478
0.0423472
0.0423465
0.0423459
0.0423452
0.0423445
0.0423439
0.0423434
0.0423431
0.0423429
0.0423431
0.0423435
0.042344
0.0423446
0.042345
0.0423451
0.0423449
0.0423444
0.0423436
0.0423421
0.0423392
0.0423342
0.0423261
0.0423132
0.0422948
0.0422694
0.0422366
0.0421963
0.0421496
0.042098
0.0420442
0.0419911
0.0419419
0.0418986
0.0418625
0.0418365
0.0418213
0.0418085
0.0417982
0.0417967
0.0417992
0.0417997
0.0423272
0.0423269
0.0423266
0.0423261
0.0423256
0.0423251
0.0423246
0.0423241
0.0423237
0.0423235
0.0423235
0.0423237
0.042324
0.0423243
0.0423244
0.0423242
0.0423238
0.0423231
0.0423221
0.0423204
0.0423173
0.0423118
0.0423032
0.0422899
0.0422713
0.042246
0.042214
0.0421748
0.0421296
0.0420796
0.0420269
0.0419744
0.041925
0.0418809
0.0418431
0.0418155
0.0417974
0.0417821
0.0417722
0.0417723
0.0417745
0.0417727
0.0423065
0.0423063
0.042306
0.0423058
0.0423055
0.0423053
0.0423053
0.0423054
0.0423056
0.042306
0.0423066
0.0423073
0.0423079
0.0423083
0.0423086
0.0423087
0.0423087
0.0423082
0.0423073
0.0423053
0.0423012
0.0422949
0.0422848
0.0422702
0.0422503
0.0422239
0.0421909
0.0421513
0.0421058
0.0420562
0.0420041
0.0419525
0.041904
0.0418608
0.0418239
0.0417968
0.0417792
0.0417643
0.0417543
0.041754
0.041756
0.0417542
0.0422906
0.0422906
0.0422908
0.0422909
0.042291
0.0422911
0.0422914
0.0422917
0.042292
0.0422926
0.0422932
0.0422938
0.0422944
0.0422947
0.042295
0.0422952
0.0422951
0.0422944
0.0422931
0.0422904
0.0422853
0.0422776
0.0422658
0.0422491
0.0422269
0.0421982
0.0421631
0.0421219
0.0420754
0.0420256
0.041974
0.0419236
0.0418767
0.0418354
0.0418004
0.0417751
0.041758
0.0417434
0.0417349
0.0417354
0.041737
0.0417343
0.0422781
0.0422786
0.0422791
0.0422796
0.0422801
0.0422807
0.0422813
0.042282
0.0422827
0.0422834
0.0422841
0.0422847
0.0422851
0.0422855
0.0422857
0.0422857
0.0422852
0.0422844
0.0422822
0.0422787
0.0422725
0.0422635
0.0422498
0.0422313
0.0422068
0.0421761
0.042139
0.0420962
0.0420488
0.0419986
0.0419475
0.041898
0.0418523
0.0418122
0.0417791
0.0417551
0.0417371
0.0417226
0.041717
0.0417185
0.0417179
0.0417129
0.0422676
0.0422682
0.0422687
0.0422691
0.0422696
0.0422702
0.0422707
0.0422713
0.042272
0.0422727
0.0422734
0.0422739
0.0422743
0.0422747
0.0422751
0.0422751
0.0422747
0.0422737
0.0422713
0.0422674
0.0422606
0.0422506
0.0422359
0.0422164
0.0421905
0.0421589
0.0421207
0.0420777
0.0420298
0.04198
0.0419291
0.0418804
0.041835
0.0417958
0.0417624
0.0417374
0.0417207
0.0417081
0.041698
0.0416958
0.0416979
0.0416979
0.0422568
0.0422575
0.0422581
0.0422588
0.0422596
0.0422604
0.0422612
0.0422621
0.042263
0.0422638
0.0422647
0.0422654
0.042266
0.0422665
0.0422669
0.0422669
0.0422663
0.0422652
0.0422624
0.042258
0.0422503
0.0422396
0.0422238
0.0422035
0.0421765
0.0421444
0.0421055
0.0420623
0.0420142
0.0419647
0.0419139
0.0418656
0.0418204
0.0417813
0.0417481
0.0417215
0.0417029
0.041693
0.0416848
0.0416773
0.0416756
0.0416774
0.0422481
0.042249
0.0422499
0.0422508
0.0422517
0.0422527
0.0422538
0.0422548
0.0422558
0.0422567
0.0422577
0.0422585
0.0422593
0.0422598
0.0422601
0.04226
0.0422591
0.0422575
0.042254
0.0422488
0.0422402
0.0422283
0.0422113
0.0421895
0.0421614
0.0421278
0.0420881
0.0420439
0.0419957
0.0419459
0.0418956
0.0418474
0.0418028
0.041764
0.0417312
0.0417046
0.0416864
0.0416768
0.0416681
0.0416604
0.0416593
0.0416613
0.0422397
0.0422407
0.0422417
0.0422427
0.0422437
0.0422448
0.0422459
0.042247
0.042248
0.042249
0.0422499
0.0422507
0.0422513
0.0422517
0.0422518
0.0422512
0.0422501
0.0422474
0.0422432
0.0422361
0.0422262
0.0422116
0.0421927
0.0421676
0.0421372
0.0421005
0.042059
0.0420126
0.0419637
0.0419133
0.0418638
0.0418167
0.041774
0.0417369
0.0417064
0.0416836
0.0416672
0.041654
0.0416471
0.0416468
0.0416466
0.0416431
0.0422327
0.0422338
0.0422349
0.0422361
0.0422372
0.0422384
0.0422396
0.0422407
0.0422419
0.0422429
0.0422438
0.0422444
0.0422449
0.042245
0.0422445
0.0422435
0.0422413
0.0422376
0.0422312
0.042222
0.0422085
0.0421904
0.0421665
0.0421371
0.0421014
0.0420606
0.0420149
0.0419661
0.0419154
0.0418652
0.0418171
0.0417728
0.0417337
0.0417013
0.0416758
0.0416562
0.0416432
0.0416373
0.0416329
0.0416275
0.0416252
0.0416258
0.0422266
0.0422279
0.0422291
0.0422303
0.0422316
0.0422328
0.0422341
0.0422353
0.0422364
0.0422374
0.0422382
0.0422388
0.042239
0.0422387
0.0422379
0.042236
0.0422325
0.0422268
0.0422178
0.0422049
0.042187
0.0421637
0.0421341
0.0420985
0.0420569
0.0420106
0.0419605
0.0419088
0.0418572
0.0418077
0.0417624
0.0417225
0.0416892
0.0416623
0.0416428
0.0416308
0.0416226
0.0416152
0.0416121
0.041613
0.0416141
0.0416131
0.0422208
0.0422222
0.0422236
0.0422249
0.0422263
0.0422277
0.042229
0.0422303
0.0422315
0.0422325
0.0422332
0.0422336
0.0422336
0.0422329
0.0422316
0.0422285
0.0422237
0.0422156
0.0422043
0.0421877
0.0421661
0.0421378
0.0421035
0.0420624
0.0420162
0.0419654
0.0419123
0.0418586
0.0418069
0.0417589
0.0417165
0.0416808
0.0416527
0.0416319
0.0416162
0.0416062
0.041603
0.0416015
0.0415979
0.0415949
0.0415942
0.0415946
0.0422174
0.0422188
0.0422202
0.0422216
0.042223
0.0422243
0.0422255
0.0422267
0.0422276
0.0422284
0.0422288
0.042229
0.0422286
0.0422276
0.0422255
0.0422218
0.0422158
0.0422065
0.0421931
0.0421746
0.0421502
0.0421193
0.042082
0.0420382
0.0419894
0.0419364
0.0418819
0.0418275
0.0417759
0.0417286
0.0416876
0.041654
0.0416284
0.0416086
0.0415949
0.0415895
0.0415876
0.0415835
0.0415793
0.0415786
0.0415792
0.0415806
0.0422127
0.0422141
0.0422156
0.042217
0.0422184
0.0422198
0.0422211
0.0422223
0.0422234
0.0422242
0.0422247
0.0422249
0.0422245
0.0422234
0.042221
0.0422169
0.0422101
0.0422001
0.0421855
0.0421659
0.0421401
0.0421079
0.0420691
0.0420241
0.0419741
0.0419204
0.0418652
0.0418106
0.0417588
0.0417118
0.0416713
0.0416379
0.0416118
0.0415934
0.0415818
0.0415733
0.0415676
0.0415667
0.0415677
0.0415672
0.0415651
0.0415631
0.0422089
0.0422104
0.0422119
0.0422134
0.0422149
0.0422164
0.0422178
0.0422191
0.0422202
0.042221
0.0422215
0.0422216
0.042221
0.0422198
0.0422169
0.0422125
0.0422049
0.0421942
0.0421785
0.042158
0.0421308
0.0420977
0.0420574
0.0420117
0.0419606
0.0419065
0.0418507
0.041796
0.0417439
0.0416971
0.0416564
0.0416229
0.0415964
0.0415783
0.0415663
0.0415566
0.0415511
0.0415513
0.0415526
0.0415514
0.0415483
0.041546
0.0422061
0.0422077
0.0422093
0.0422109
0.0422125
0.042214
0.0422155
0.0422168
0.0422179
0.0422187
0.042219
0.042219
0.0422182
0.0422168
0.0422134
0.0422084
0.0421999
0.0421882
0.042171
0.042149
0.0421199
0.042085
0.0420429
0.0419957
0.0419431
0.0418882
0.0418316
0.0417769
0.0417248
0.0416784
0.041638
0.041605
0.0415795
0.0415619
0.0415488
0.0415394
0.0415366
0.0415374
0.0415365
0.041533
0.0415302
0.0415293
0.0422042
0.0422059
0.0422076
0.0422093
0.0422109
0.0422125
0.0422139
0.0422152
0.0422161
0.0422168
0.042217
0.0422167
0.0422157
0.0422136
0.0422096
0.0422032
0.0421933
0.0421793
0.0421599
0.0421347
0.0421028
0.0420644
0.0420194
0.0419692
0.0419146
0.041858
0.041801
0.0417462
0.0416953
0.0416502
0.0416119
0.0415814
0.0415584
0.041541
0.0415296
0.0415251
0.0415229
0.0415189
0.0415155
0.0415148
0.0415151
0.0415161
0.0422035
0.0422053
0.0422071
0.0422088
0.0422105
0.042212
0.0422134
0.0422146
0.0422154
0.0422159
0.042216
0.0422152
0.0422137
0.0422103
0.042205
0.0421961
0.0421838
0.0421659
0.0421428
0.0421124
0.0420759
0.0420319
0.0419826
0.0419278
0.0418707
0.0418121
0.0417553
0.0417015
0.0416535
0.041612
0.0415781
0.0415515
0.0415328
0.0415201
0.0415102
0.0415046
0.0415041
0.0415041
0.0415022
0.0414995
0.041498
0.0414973
0.0422044
0.0422063
0.0422081
0.0422099
0.0422115
0.042213
0.0422143
0.0422152
0.0422158
0.042216
0.0422154
0.0422141
0.0422112
0.0422063
0.0421982
0.0421866
0.0421695
0.042147
0.0421172
0.0420808
0.0420368
0.0419867
0.0419309
0.0418721
0.0418115
0.0417525
0.0416966
0.0416465
0.0416029
0.0415672
0.0415396
0.0415195
0.0415045
0.041495
0.0414917
0.04149
0.0414864
0.0414833
0.0414824
0.0414822
0.0414831
0.0414839
0.0422062
0.0422081
0.0422099
0.0422116
0.0422132
0.0422146
0.0422157
0.0422164
0.0422167
0.0422163
0.0422152
0.0422127
0.0422081
0.0422008
0.0421893
0.042173
0.0421505
0.042121
0.0420838
0.0420392
0.0419872
0.0419296
0.041868
0.041805
0.041743
0.0416848
0.0416323
0.0415872
0.0415504
0.0415224
0.0415014
0.041486
0.0414781
0.0414758
0.0414723
0.0414675
0.0414655
0.041465
0.0414658
0.0414671
0.0414676
0.041467
0.0422088
0.0422107
0.0422125
0.0422143
0.0422158
0.0422171
0.0422179
0.0422183
0.0422183
0.0422172
0.0422152
0.0422108
0.0422041
0.0421929
0.0421773
0.0421546
0.0421255
0.0420874
0.042042
0.0419879
0.0419282
0.0418634
0.0417973
0.0417318
0.0416705
0.0416152
0.0415681
0.04153
0.0415015
0.0414799
0.0414647
0.0414582
0.041456
0.0414518
0.041447
0.0414456
0.0414454
0.0414465
0.0414479
0.0414481
0.0414473
0.0414458
0.042212
0.0422139
0.0422158
0.0422174
0.0422189
0.0422198
0.0422204
0.0422204
0.0422195
0.0422177
0.0422136
0.0422071
0.0421963
0.0421809
0.0421585
0.0421291
0.0420904
0.0420437
0.0419879
0.0419257
0.0418578
0.0417883
0.0417192
0.0416544
0.0415961
0.0415465
0.0415067
0.0414773
0.041455
0.0414399
0.0414342
0.0414322
0.0414277
0.0414229
0.0414216
0.0414215
0.0414227
0.0414242
0.0414246
0.0414239
0.0414226
0.0414213
0.0422151
0.042217
0.0422187
0.0422202
0.0422213
0.0422219
0.0422218
0.042221
0.0422192
0.0422152
0.0422087
0.0421977
0.042182
0.0421589
0.0421286
0.0420886
0.04204
0.0419819
0.0419167
0.0418456
0.0417726
0.0417
0.0416321
0.041571
0.0415191
0.0414775
0.0414476
0.0414258
0.0414087
0.0414015
0.0414017
0.0414005
0.0413959
0.0413919
0.0413905
0.0413902
0.0413916
0.0413938
0.0413951
0.0413952
0.0413948
0.0413939
0.0422173
0.0422191
0.0422206
0.0422216
0.0422222
0.0422222
0.0422212
0.0422193
0.0422147
0.0422077
0.0421956
0.0421785
0.0421536
0.0421207
0.0420779
0.0420256
0.041964
0.0418944
0.0418198
0.0417428
0.0416674
0.0415965
0.0415336
0.0414806
0.0414392
0.0414075
0.0413845
0.0413726
0.0413678
0.0413617
0.041356
0.0413545
0.0413544
0.0413558
0.0413568
0.0413569
0.0413562
0.0413554
0.0413551
0.0413554
0.0413566
0.041359
0.0422197
0.0422211
0.042222
0.0422225
0.0422222
0.042221
0.0422182
0.0422129
0.042204
0.0421903
0.0421699
0.0421417
0.0421037
0.0420559
0.0419972
0.0419297
0.0418541
0.0417743
0.041693
0.0416145
0.0415419
0.0414783
0.041426
0.0413854
0.0413539
0.0413329
0.0413242
0.0413187
0.041311
0.0413068
0.0413054
0.0413063
0.0413084
0.0413099
0.04131
0.0413095
0.0413091
0.0413095
0.0413108
0.0413135
0.0413178
0.0413233
0.0422209
0.0422218
0.0422221
0.0422216
0.04222
0.0422164
0.0422099
0.0421988
0.0421823
0.0421575
0.042124
0.0420789
0.0420232
0.0419557
0.0418793
0.0417953
0.0417084
0.0416217
0.0415401
0.0414665
0.0414036
0.0413525
0.0413154
0.0412891
0.0412678
0.0412561
0.0412543
0.0412527
0.04125
0.0412471
0.0412456
0.0412455
0.0412467
0.0412491
0.0412519
0.0412552
0.0412589
0.0412628
0.0412672
0.041272
0.0412773
0.0412831
0.0422214
0.0422216
0.0422207
0.0422188
0.0422141
0.0422065
0.0421929
0.0421732
0.0421433
0.0421034
0.0420498
0.0419844
0.0419058
0.0418183
0.0417238
0.041628
0.041535
0.0414496
0.041375
0.041313
0.041266
0.0412328
0.0412073
0.0411905
0.0411849
0.0411826
0.04118
0.0411772
0.0411755
0.0411748
0.0411757
0.0411779
0.0411815
0.041186
0.0411914
0.0411973
0.0412038
0.0412104
0.0412173
0.0412243
0.0412314
0.0412387
0.0422209
0.0422199
0.0422176
0.0422121
0.0422033
0.0421877
0.0421649
0.0421303
0.0420839
0.0420221
0.0419464
0.0418566
0.0417571
0.0416515
0.0415459
0.0414457
0.0413563
0.0412807
0.0412197
0.0411759
0.0411487
0.0411271
0.0411108
0.0411063
0.0411069
0.0411083
0.0411071
0.0411049
0.0411032
0.0411031
0.0411049
0.0411095
0.0411166
0.0411257
0.0411357
0.0411457
0.0411553
0.0411641
0.0411722
0.0411795
0.0411863
0.0411928
0.0422166
0.0422138
0.0422081
0.0421979
0.0421813
0.042155
0.0421173
0.0420646
0.0419964
0.0419113
0.0418121
0.0417017
0.0415866
0.0414726
0.0413665
0.0412731
0.0411981
0.0411413
0.0410969
0.0410697
0.0410615
0.0410551
0.0410456
0.0410404
0.0410375
0.0410388
0.0410425
0.0410466
0.0410507
0.0410553
0.0410609
0.0410675
0.0410757
0.041085
0.0410952
0.041106
0.0411169
0.0411275
0.0411373
0.0411462
0.0411542
0.0411612
0.0422116
0.0422052
0.0421936
0.042175
0.0421458
0.0421039
0.042046
0.0419708
0.0418783
0.0417705
0.0416523
0.0415294
0.0414098
0.0413005
0.0412082
0.0411324
0.0410761
0.0410449
0.041027
0.0410076
0.0409981
0.0409962
0.040999
0.0410021
0.0410032
0.041004
0.0410057
0.0410092
0.0410155
0.0410246
0.0410361
0.0410492
0.0410626
0.0410754
0.0410869
0.0410968
0.0411053
0.0411123
0.0411184
0.0411236
0.0411283
0.0411327
0.0422
0.0421871
0.0421656
0.0421334
0.0420865
0.042023
0.041941
0.0418412
0.0417267
0.0416023
0.041476
0.0413548
0.0412462
0.0411554
0.0410905
0.0410441
0.0410055
0.0409887
0.0409884
0.0409877
0.0409833
0.0409788
0.0409761
0.0409768
0.0409804
0.0409875
0.0409974
0.0410089
0.0410208
0.0410325
0.0410436
0.0410541
0.0410641
0.0410736
0.0410826
0.0410911
0.0410991
0.0411067
0.041114
0.0411209
0.0411275
0.0411338
0.042179
0.0421543
0.0421171
0.0420644
0.0419933
0.0419037
0.0417959
0.0416748
0.0415459
0.0414183
0.0412987
0.0411973
0.0411158
0.0410515
0.041013
0.0409996
0.0409858
0.0409718
0.040968
0.0409675
0.0409703
0.0409738
0.0409766
0.0409797
0.0409834
0.040989
0.0409967
0.0410068
0.0410186
0.0410316
0.041045
0.041058
0.0410701
0.041081
0.0410904
0.0410987
0.0411057
0.041112
0.0411174
0.0411224
0.0411272
0.0411318
0.0421396
0.0420964
0.0420361
0.0419565
0.0418577
0.0417422
0.041615
0.041484
0.041357
0.041243
0.0411507
0.0410803
0.0410238
0.0409955
0.0409902
0.0409835
0.0409727
0.0409644
0.0409629
0.0409646
0.0409692
0.0409748
0.0409802
0.0409859
0.0409922
0.0409997
0.0410087
0.0410193
0.0410312
0.0410441
0.0410573
0.0410702
0.0410823
0.0410931
0.0411027
0.0411108
0.0411176
0.0411233
0.0411282
0.0411324
0.0411363
0.04114
0.0420719
0.0420029
0.0419143
0.0418063
0.0416834
0.0415521
0.0414213
0.0412993
0.0411948
0.041113
0.0410506
0.04101
0.0409941
0.0409857
0.0409757
0.0409682
0.0409665
0.0409679
0.0409709
0.0409748
0.0409794
0.040985
0.040992
0.0410003
0.0410105
0.0410221
0.0410349
0.0410483
0.0410618
0.0410747
0.0410867
0.0410976
0.0411071
0.0411153
0.0411224
0.0411284
0.0411337
0.0411383
0.0411426
0.0411466
0.0411506
0.0411547
0.041966
0.0418684
0.0417525
0.0416244
0.0414923
0.0413645
0.0412512
0.0411575
0.0410892
0.0410399
0.0410073
0.0409933
0.0409876
0.0409818
0.0409768
0.0409759
0.0409771
0.0409801
0.0409858
0.0409936
0.041003
0.0410139
0.0410259
0.0410387
0.0410521
0.0410655
0.0410787
0.0410913
0.0411031
0.0411138
0.0411235
0.041132
0.0411395
0.0411462
0.0411521
0.0411574
0.0411623
0.0411669
0.0411713
0.0411756
0.0411798
0.0411841
0.0418188
0.0416973
0.0415678
0.0414373
0.0413189
0.0412152
0.0411368
0.0410782
0.0410419
0.0410172
0.0410037
0.0409973
0.0409961
0.0409959
0.040996
0.0409976
0.0410033
0.041011
0.0410227
0.0410359
0.0410509
0.0410661
0.0410815
0.041096
0.0411098
0.0411222
0.0411336
0.0411438
0.0411529
0.0411611
0.0411686
0.0411754
0.0411816
0.0411875
0.041193
0.0411982
0.0412032
0.0412079
0.0412125
0.0412169
0.0412212
0.0412255
0.0416392
0.0415105
0.0413899
0.0412806
0.0411947
0.0411283
0.0410842
0.0410542
0.0410371
0.0410275
0.041023
0.0410233
0.0410248
0.0410273
0.0410338
0.0410427
0.0410557
0.0410701
0.0410868
0.0411035
0.0411204
0.0411361
0.0411507
0.0411636
0.0411751
0.0411852
0.0411942
0.0412022
0.0412094
0.0412161
0.0412223
0.0412282
0.0412338
0.0412392
0.0412443
0.0412493
0.0412541
0.0412587
0.041263
0.0412672
0.0412713
0.0412753
0.0414542
0.0413439
0.041254
0.0411832
0.0411339
0.0410998
0.041079
0.0410675
0.0410616
0.0410622
0.0410636
0.0410674
0.0410751
0.0410858
0.0411004
0.0411164
0.0411343
0.041152
0.0411694
0.0411855
0.0412002
0.0412132
0.0412247
0.0412348
0.0412437
0.0412517
0.0412589
0.0412655
0.0412717
0.0412776
0.0412832
0.0412887
0.0412939
0.0412989
0.0413037
0.0413083
0.0413126
0.0413168
0.0413207
0.0413245
0.0413282
0.0413318
0.0413058
0.0412341
0.0411838
0.0411478
0.0411258
0.0411135
0.0411068
0.0411076
0.0411097
0.0411147
0.0411246
0.0411375
0.041154
0.0411716
0.0411904
0.0412087
0.0412263
0.0412424
0.0412569
0.0412696
0.0412808
0.0412906
0.0412992
0.0413069
0.041314
0.0413206
0.0413267
0.0413326
0.0413382
0.0413436
0.0413488
0.0413538
0.0413586
0.0413632
0.0413675
0.0413716
0.0413755
0.0413792
0.0413827
0.041386
0.0413893
0.0413925
0.0412276
0.0411916
0.0411715
0.0411596
0.0411548
0.0411551
0.0411583
0.0411651
0.0411777
0.0411938
0.0412123
0.0412321
0.0412518
0.0412708
0.0412882
0.0413039
0.0413178
0.0413299
0.0413405
0.0413497
0.041358
0.0413654
0.0413723
0.0413787
0.0413848
0.0413906
0.0413962
0.0414015
0.0414067
0.0414116
0.0414163
0.0414208
0.0414251
0.0414291
0.0414329
0.0414365
0.0414399
0.0414432
0.0414462
0.0414492
0.0414521
0.0414549
0.0412116
0.0411997
0.0411986
0.0411995
0.0412036
0.0412147
0.0412301
0.0412495
0.0412707
0.0412923
0.0413133
0.0413327
0.0413501
0.0413654
0.0413786
0.0413901
0.0414
0.0414088
0.0414165
0.0414236
0.0414302
0.0414364
0.0414424
0.0414481
0.0414536
0.0414589
0.041464
0.0414688
0.0414735
0.041478
0.0414822
0.0414862
0.04149
0.0414937
0.0414971
0.0415003
0.0415034
0.0415064
0.0415092
0.0415119
0.0415145
0.0415171
0.0412353
0.0412367
0.0412432
0.0412557
0.0412749
0.0412979
0.041323
0.0413478
0.0413709
0.0413912
0.0414085
0.041423
0.0414352
0.0414455
0.0414545
0.0414626
0.04147
0.041477
0.0414836
0.0414901
0.0414964
0.0415026
0.0415085
0.0415143
0.0415199
0.0415252
0.0415302
0.041535
0.0415394
0.0415436
0.0415475
0.0415511
0.0415545
0.0415576
0.0415606
0.0415634
0.041566
0.0415684
0.0415708
0.041573
0.0415751
0.0415772
0.0412714
0.0412901
0.0413138
0.0413405
0.0413682
0.0413938
0.0414172
0.0414373
0.0414546
0.0414692
0.0414818
0.0414928
0.0415026
0.0415117
0.0415201
0.041528
0.0415355
0.0415425
0.0415492
0.0415554
0.0415612
0.0415666
0.0415717
0.0415764
0.0415808
0.041585
0.0415889
0.0415925
0.041596
0.0415993
0.0416025
0.0416055
0.0416084
0.0416112
0.0416138
0.0416164
0.0416188
0.0416212
0.0416234
0.0416256
0.0416278
0.04163
0.0413385
0.0413669
0.0413975
0.0414258
0.0414517
0.0414735
0.0414922
0.0415079
0.0415215
0.0415335
0.0415443
0.0415541
0.0415631
0.0415715
0.0415791
0.0415862
0.0415926
0.0415986
0.041604
0.041609
0.0416137
0.0416181
0.0416223
0.0416263
0.0416301
0.0416339
0.0416375
0.0416411
0.0416446
0.041648
0.0416514
0.0416547
0.041658
0.0416611
0.0416641
0.0416671
0.04167
0.0416727
0.0416754
0.0416779
0.0416805
0.041683
0.0414113
0.041444
0.0414733
0.0414991
0.0415206
0.0415385
0.0415536
0.0415662
0.0415772
0.0415868
0.0415954
0.0416033
0.0416106
0.0416174
0.0416239
0.0416301
0.041636
0.0416416
0.0416471
0.0416524
0.0416576
0.0416627
0.0416676
0.0416724
0.0416772
0.0416818
0.0416862
0.0416905
0.0416946
0.0416986
0.0417023
0.0417059
0.0417093
0.0417125
0.0417155
0.0417184
0.0417211
0.0417236
0.041726
0.0417282
0.0417304
0.0417326
0.0414814
0.0415121
0.0415378
0.0415589
0.0415755
0.0415888
0.0415995
0.0416087
0.0416169
0.0416246
0.0416321
0.0416396
0.041647
0.0416544
0.0416617
0.0416689
0.0416759
0.0416828
0.0416894
0.0416958
0.0417018
0.0417076
0.041713
0.0417181
0.0417229
0.0417274
0.0417316
0.0417355
0.0417391
0.0417425
0.0417456
0.0417486
0.0417513
0.0417539
0.0417563
0.0417585
0.0417606
0.0417626
0.0417645
0.0417662
0.041768
0.0417697
0.0415431
0.0415669
0.0415853
0.0415994
0.0416108
0.0416206
0.0416296
0.0416385
0.0416475
0.0416567
0.0416661
0.0416754
0.0416845
0.0416933
0.0417016
0.0417094
0.0417167
0.0417234
0.0417296
0.0417352
0.0417404
0.0417452
0.0417496
0.0417537
0.0417575
0.0417611
0.0417644
0.0417676
0.0417705
0.0417734
0.041776
0.0417786
0.0417811
0.0417834
0.0417857
0.0417879
0.04179
0.041792
0.041794
0.0417959
0.0417978
0.0417997
0.0415863
0.0416023
0.041615
0.0416259
0.0416363
0.0416469
0.0416579
0.0416692
0.0416806
0.0416918
0.0417025
0.0417125
0.0417215
0.0417297
0.0417369
0.0417434
0.0417492
0.0417544
0.0417592
0.0417637
0.0417678
0.0417718
0.0417756
0.0417792
0.0417828
0.0417863
0.0417897
0.041793
0.0417963
0.0417994
0.0418026
0.0418057
0.0418086
0.0418116
0.0418144
0.0418172
0.0418199
0.0418224
0.041825
0.0418274
0.0418298
0.0418323
0.0416136
0.041627
0.0416392
0.0416517
0.0416645
0.0416777
0.0416908
0.0417035
0.0417152
0.0417257
0.041735
0.041743
0.04175
0.0417562
0.0417617
0.0417668
0.0417716
0.0417762
0.0417807
0.0417852
0.0417896
0.0417941
0.0417986
0.0418031
0.0418075
0.0418119
0.0418163
0.0418206
0.0418248
0.0418289
0.0418329
0.0418367
0.0418404
0.041844
0.0418474
0.0418506
0.0418538
0.0418567
0.0418595
0.0418622
0.0418648
0.0418673
0.0416408
0.0416555
0.0416696
0.0416835
0.0416968
0.0417095
0.0417212
0.0417318
0.0417413
0.0417498
0.0417574
0.0417643
0.0417706
0.0417767
0.0417825
0.0417883
0.0417939
0.0417996
0.0418053
0.0418109
0.0418165
0.041822
0.0418274
0.0418327
0.0418378
0.0418428
0.0418476
0.0418522
0.0418566
0.0418608
0.0418648
0.0418685
0.0418721
0.0418754
0.0418786
0.0418816
0.0418844
0.041887
0.0418894
0.0418918
0.041894
0.0418962
0.0416718
0.041687
0.0417008
0.0417132
0.0417245
0.0417347
0.0417441
0.0417529
0.0417612
0.0417691
0.0417769
0.0417845
0.041792
0.0417995
0.0418068
0.0418141
0.0418212
0.041828
0.0418347
0.0418411
0.0418471
0.0418529
0.0418583
0.0418635
0.0418683
0.0418729
0.0418771
0.0418811
0.0418849
0.0418884
0.0418917
0.0418947
0.0418977
0.0419004
0.0419029
0.0419054
0.0419077
0.0419098
0.0419119
0.0419138
0.0419157
0.0419176
0.0417
0.0417133
0.0417254
0.0417366
0.0417472
0.0417572
0.0417668
0.041776
0.041785
0.0417937
0.0418022
0.0418106
0.0418188
0.0418267
0.0418344
0.0418417
0.0418488
0.0418555
0.0418618
0.0418678
0.0418734
0.0418787
0.0418836
0.0418883
0.0418927
0.0418968
0.0419006
0.0419042
0.0419077
0.0419109
0.041914
0.0419169
0.0419197
0.0419223
0.0419248
0.0419272
0.0419294
0.0419316
0.0419337
0.0419357
0.0419377
0.0419396
0.0417241
0.0417363
0.041748
0.0417596
0.0417709
0.0417819
0.0417925
0.0418026
0.0418123
0.0418214
0.04183
0.0418381
0.0418458
0.0418531
0.0418601
0.0418667
0.0418729
0.0418789
0.0418846
0.0418901
0.0418953
0.0419003
0.041905
0.0419096
0.041914
0.0419181
0.0419222
0.041926
0.0419297
0.0419332
0.0419366
0.0419398
0.0419429
0.0419458
0.0419486
0.0419513
0.0419539
0.0419563
0.0419587
0.041961
0.0419632
0.0419654
0.0417493
0.0417622
0.0417747
0.041787
0.0417987
0.04181
0.0418204
0.0418301
0.0418391
0.0418475
0.0418553
0.0418627
0.0418698
0.0418766
0.0418832
0.0418896
0.0418958
0.0419018
0.0419076
0.0419133
0.0419187
0.041924
0.0419291
0.041934
0.0419387
0.0419432
0.0419475
0.0419516
0.0419555
0.0419593
0.0419629
0.0419662
0.0419695
0.0419725
0.0419754
0.0419782
0.0419808
0.0419833
0.0419857
0.0419879
0.0419901
0.0419923
0.0417773
0.0417902
0.0418028
0.0418148
0.0418262
0.0418368
0.0418466
0.0418557
0.0418642
0.0418723
0.04188
0.0418874
0.0418945
0.0419015
0.0419083
0.041915
0.0419214
0.0419277
0.0419338
0.0419397
0.0419453
0.0419507
0.0419559
0.0419609
0.0419656
0.0419701
0.0419743
0.0419783
0.0419821
0.0419857
0.0419891
0.0419924
0.0419954
0.0419983
0.042001
0.0420035
0.042006
0.0420082
0.0420104
0.0420125
0.0420145
0.0420164
0.0418065
0.0418186
0.0418304
0.0418416
0.0418524
0.0418627
0.0418724
0.0418816
0.0418904
0.0418988
0.0419069
0.0419147
0.0419223
0.0419296
0.0419366
0.0419433
0.0419498
0.0419559
0.0419619
0.0419675
0.0419728
0.0419779
0.0419828
0.0419874
0.0419917
0.0419958
0.0419997
0.0420034
0.0420069
0.0420102
0.0420134
0.0420163
0.0420191
0.0420218
0.0420243
0.0420267
0.0420289
0.0420311
0.0420331
0.0420351
0.042037
0.0420388
0.0418347
0.0418464
0.0418578
0.0418689
0.0418797
0.04189
0.0419
0.0419094
0.0419185
0.0419272
0.0419355
0.0419434
0.0419509
0.0419581
0.0419649
0.0419714
0.0419776
0.0419834
0.041989
0.0419942
0.0419992
0.042004
0.0420084
0.0420127
0.0420168
0.0420206
0.0420242
0.0420277
0.042031
0.0420341
0.0420371
0.0420399
0.0420426
0.0420451
0.0420475
0.0420498
0.042052
0.0420541
0.0420561
0.0420579
0.0420598
0.0420616
0.0418633
0.0418751
0.0418866
0.0418978
0.0419085
0.0419188
0.0419287
0.041938
0.0419469
0.0419554
0.0419634
0.0419711
0.0419783
0.0419852
0.0419918
0.041998
0.0420039
0.0420095
0.0420149
0.0420199
0.0420247
0.0420293
0.0420336
0.0420377
0.0420416
0.0420453
0.0420489
0.0420522
0.0420554
0.0420584
0.0420612
0.0420639
0.0420665
0.0420689
0.0420712
0.0420734
0.0420755
0.0420774
0.0420793
0.0420811
0.0420828
0.0420845
0.0418921
0.0419044
0.041916
0.0419272
0.0419378
0.0419478
0.0419572
0.0419661
0.0419745
0.0419825
0.0419902
0.0419974
0.0420044
0.042011
0.0420174
0.0420234
0.0420291
0.0420346
0.0420398
0.0420447
0.0420494
0.0420538
0.042058
0.042062
0.0420658
0.0420693
0.0420727
0.0420759
0.0420789
0.0420817
0.0420844
0.0420869
0.0420893
0.0420915
0.0420937
0.0420957
0.0420975
0.0420993
0.042101
0.0421026
0.0421042
0.0421057
0.0419204
0.0419329
0.0419446
0.0419557
0.041966
0.0419756
0.0419846
0.041993
0.042001
0.0420086
0.0420159
0.0420228
0.0420295
0.0420358
0.0420419
0.0420477
0.0420533
0.0420585
0.0420636
0.0420683
0.0420728
0.042077
0.042081
0.0420848
0.0420884
0.0420917
0.0420948
0.0420978
0.0421005
0.0421031
0.0421056
0.0421078
0.04211
0.042112
0.0421139
0.0421157
0.0421173
0.0421189
0.0421204
0.0421218
0.0421232
0.0421245
0.0419472
0.0419594
0.0419709
0.0419816
0.0419916
0.0420009
0.0420096
0.0420178
0.0420255
0.0420329
0.0420399
0.0420467
0.0420531
0.0420592
0.0420651
0.0420706
0.0420759
0.0420809
0.0420856
0.0420901
0.0420943
0.0420982
0.0421019
0.0421053
0.0421086
0.0421116
0.0421144
0.0421171
0.0421195
0.0421218
0.042124
0.042126
0.0421279
0.0421297
0.0421313
0.0421329
0.0421343
0.0421357
0.042137
0.0421382
0.0421394
0.0421405
0.0419717
0.0419835