/*--------------------------------*- C++ -*----------------------------------*\
| =========                 |                                                 |
| \\      /  F ield         | OpenFOAM: The Open Source CFD Toolbox           |
|  \\    /   O peration     | Version:  2412                                  |
|   \\  /    A nd           | Website:  www.openfoam.com                      |
|    \\/     M anipulation  |                                                 |
\*---------------------------------------------------------------------------*/
FoamFile
{
    version     2.0;
    format      ascii;
    arch        "LSB;label=32;scalar=64";
    class       volScalarField;
    location    "0.085";
    object      p;
}
// * * * * * * * * * * * * * * * * * * * * * * * * * * * * * * * * * * * * * //

dimensions      [1 -1 -2 0 0 0 0];

internalField   nonuniform List<scalar> 
9859
(
2801.61
2801.59
2801.28
2800.82
2800.32
2799.54
2798.53
2797.05
2795.21
2792.86
2790.42
2788.1
2785.48
2783.27
2784.4
2785.8
2787.92
2790.14
2791.99
2793.42
2793.96
2795.03
2796.33
2796.4
2796.74
2797
2797.14
2797.34
2797.52
2797.63
2797.75
2797.84
2797.91
2798.03
2798.23
2798.51
2798.88
2799.31
2799.77
2800.2
2800.55
2800.77
2800.85
2800.87
2800.85
2800.8
2800.74
2800.71
2800.71
2800.74
2800.82
2800.94
2801.1
2801.25
2801.4
2801.56
2801.75
2801.95
2802.16
2802.37
2802.52
2802.59
2802.61
2802.69
2802.93
2803.16
2803.17
2803.08
2803.28
2801.77
2801.72
2801.4
2800.93
2800.43
2799.64
2798.63
2797.15
2795.31
2792.95
2790.36
2788.11
2785.51
2783.35
2784.47
2785.88
2788.01
2790.23
2792.09
2793.56
2794.03
2795.16
2796.4
2796.49
2796.82
2797.07
2797.21
2797.42
2797.6
2797.71
2797.83
2797.92
2797.99
2798.12
2798.31
2798.59
2798.96
2799.4
2799.86
2800.28
2800.64
2800.85
2800.94
2800.96
2800.94
2800.89
2800.83
2800.8
2800.8
2800.84
2800.91
2801.04
2801.2
2801.36
2801.51
2801.66
2801.82
2801.98
2802.17
2802.37
2802.56
2802.66
2802.68
2802.75
2802.98
2803.31
2803.45
2803.3
2803.22
2803.45
2803.9
2804.2
2804.3
2804.43
2804.56
2803.71
2803.72
2803.78
2803.9
2804.11
2804.42
2804.71
2804.98
2805.26
2805.67
2805.91
2806
2805.88
2805.61
2805.26
2804.8
2804.25
2803.61
2802.91
2802.07
2801.12
2800.16
2799.08
2797.96
2796.84
2795.82
2794.69
2793.92
2793.03
2792.98
2793.13
2793.76
2795.4
2797.49
2801.63
2806.39
2809.11
2801.94
2801.85
2801.52
2801.04
2800.54
2799.76
2798.73
2797.25
2795.41
2793.06
2790.28
2788.13
2785.54
2783.45
2784.56
2785.97
2788.11
2790.32
2792.2
2793.72
2794.1
2795.3
2796.48
2796.58
2796.91
2797.15
2797.3
2797.5
2797.68
2797.8
2797.91
2798.01
2798.08
2798.2
2798.4
2798.68
2799.05
2799.49
2799.95
2800.37
2800.72
2800.94
2801.03
2801.06
2801.03
2800.98
2800.93
2800.9
2800.9
2800.94
2801.01
2801.14
2801.3
2801.47
2801.63
2801.78
2801.91
2802.02
2802.17
2802.35
2802.54
2802.68
2802.74
2802.79
2802.97
2803.34
2803.61
2803.52
2803.25
2803.22
2803.53
2803.84
2803.99
2804.13
2804.26
2804.46
2804.83
2804.91
2804.32
2803.87
2803.96
2804.08
2803.91
2803.84
2803.85
2803.91
2804.03
2804.24
2804.55
2804.83
2805.11
2805.39
2805.78
2806.01
2806.12
2805.99
2805.71
2805.35
2804.88
2804.33
2803.68
2802.96
2802.12
2801.16
2800.18
2799.08
2797.94
2796.8
2795.75
2794.57
2793.76
2792.86
2792.73
2792.81
2793.35
2794.89
2796.76
2800.65
2804.89
2806.5
2802.11
2801.99
2801.66
2801.17
2800.66
2799.87
2798.84
2797.35
2795.5
2793.16
2790.22
2788.15
2785.58
2783.56
2784.65
2786.07
2788.2
2790.42
2792.31
2793.88
2794.18
2795.44
2796.55
2796.67
2797
2797.24
2797.39
2797.59
2797.77
2797.88
2798.01
2798.1
2798.17
2798.3
2798.49
2798.77
2799.14
2799.58
2800.04
2800.47
2800.82
2801.03
2801.13
2801.16
2801.13
2801.08
2801.03
2801
2801
2801.04
2801.12
2801.25
2801.41
2801.59
2801.77
2801.92
2802.03
2802.1
2802.19
2802.33
2802.51
2802.68
2802.79
2802.84
2802.96
2803.27
2803.64
2803.71
2803.42
2803.21
2803.31
2803.56
2803.77
2803.91
2804.02
2804.19
2804.66
2805.12
2804.9
2804.29
2804.05
2804.12
2804.11
2803.99
2804
2804.06
2804.17
2804.38
2804.68
2804.96
2805.24
2805.53
2805.9
2806.12
2806.23
2806.11
2805.82
2805.44
2804.97
2804.41
2803.75
2803.02
2802.17
2801.2
2800.2
2799.08
2797.92
2796.75
2795.68
2794.44
2793.59
2792.68
2792.47
2792.49
2792.91
2794.35
2796.01
2799.61
2803.29
2803.75
2802.29
2802.13
2801.79
2801.29
2800.79
2799.99
2798.96
2797.46
2795.59
2793.24
2790.2
2788.19
2785.62
2783.68
2784.76
2786.18
2788.31
2790.52
2792.43
2794.05
2794.28
2795.59
2796.63
2796.77
2797.09
2797.33
2797.48
2797.69
2797.86
2797.98
2798.1
2798.19
2798.27
2798.4
2798.59
2798.87
2799.24
2799.68
2800.14
2800.57
2800.91
2801.13
2801.23
2801.27
2801.24
2801.19
2801.14
2801.11
2801.11
2801.15
2801.23
2801.36
2801.53
2801.71
2801.9
2802.07
2802.17
2802.23
2802.28
2802.37
2802.52
2802.7
2802.86
2802.94
2802.98
2803.17
2803.55
2803.83
2803.76
2803.55
2803.47
2803.62
2803.85
2804
2804.1
2804.16
2804.38
2804.8
2805.02
2804.72
2804.36
2804.22
2804.24
2804.17
2804.15
2804.21
2804.33
2804.53
2804.82
2805.1
2805.39
2805.67
2806.03
2806.24
2806.36
2806.23
2805.93
2805.54
2805.07
2804.49
2803.83
2803.08
2802.22
2801.24
2800.21
2799.08
2797.89
2796.7
2795.59
2794.31
2793.42
2792.48
2792.2
2792.14
2792.46
2793.76
2795.24
2798.51
2801.58
2800.86
2775.18
2802.48
2802.29
2801.94
2801.43
2800.92
2800.12
2799.07
2797.57
2795.67
2793.31
2790.22
2788.23
2785.67
2783.82
2784.87
2786.29
2788.42
2790.63
2792.56
2794.23
2794.39
2795.73
2796.72
2796.87
2797.19
2797.42
2797.58
2797.78
2797.96
2798.08
2798.2
2798.29
2798.37
2798.5
2798.7
2798.98
2799.35
2799.79
2800.25
2800.67
2801.01
2801.23
2801.34
2801.38
2801.34
2801.3
2801.25
2801.22
2801.23
2801.27
2801.35
2801.48
2801.65
2801.83
2802.03
2802.22
2802.35
2802.41
2802.46
2802.51
2802.62
2802.79
2802.97
2803.09
2803.11
2803.15
2803.44
2803.89
2804.17
2804.19
2804.07
2804.12
2804.33
2804.48
2804.59
2804.57
2804.4
2804.42
2804.75
2804.88
2804.69
2804.45
2804.37
2804.35
2804.32
2804.37
2804.49
2804.69
2804.98
2805.25
2805.54
2805.82
2806.16
2806.37
2806.48
2806.36
2806.04
2805.65
2805.16
2804.58
2803.91
2803.14
2802.27
2801.28
2800.23
2799.07
2797.87
2796.65
2795.5
2794.17
2793.24
2792.28
2791.91
2791.77
2792
2793.12
2794.43
2797.35
2799.77
2797.86
2770.5
2802.67
2802.45
2802.09
2801.57
2801.05
2800.26
2799.2
2797.69
2795.75
2793.36
2790.24
2788.28
2785.73
2783.97
2785
2786.42
2788.54
2790.75
2792.7
2794.41
2794.53
2795.87
2796.81
2796.98
2797.29
2797.52
2797.69
2797.89
2798.06
2798.19
2798.31
2798.4
2798.48
2798.61
2798.81
2799.09
2799.46
2799.9
2800.36
2800.78
2801.12
2801.34
2801.45
2801.49
2801.46
2801.41
2801.37
2801.34
2801.35
2801.39
2801.47
2801.6
2801.77
2801.95
2802.15
2802.36
2802.53
2802.65
2802.72
2802.76
2802.82
2802.95
2803.13
2803.31
2803.36
2803.32
2803.44
2803.91
2804.49
2804.84
2804.87
2804.88
2804.99
2805.12
2805.24
2805.26
2804.94
2804.55
2804.63
2804.87
2804.87
2804.7
2804.56
2804.52
2804.5
2804.54
2804.66
2804.86
2805.14
2805.41
2805.71
2805.98
2806.31
2806.5
2806.61
2806.5
2806.16
2805.76
2805.26
2804.67
2803.99
2803.21
2802.32
2801.32
2800.24
2799.07
2797.84
2796.59
2795.41
2794.03
2793.04
2792.07
2791.61
2791.38
2791.51
2792.43
2793.6
2796.14
2797.84
2794.77
2765.82
2802.88
2802.62
2802.25
2801.71
2801.2
2800.39
2799.32
2797.81
2795.85
2793.42
2790.26
2788.33
2785.81
2784.13
2785.13
2786.55
2788.66
2790.88
2792.84
2794.59
2794.7
2796.01
2796.9
2797.09
2797.4
2797.63
2797.8
2798
2798.17
2798.3
2798.43
2798.51
2798.6
2798.73
2798.92
2799.21
2799.58
2800.02
2800.48
2800.9
2801.23
2801.46
2801.58
2801.62
2801.58
2801.54
2801.49
2801.47
2801.48
2801.52
2801.6
2801.73
2801.89
2802.07
2802.27
2802.48
2802.7
2802.89
2803.01
2803.08
2803.12
2803.19
2803.33
2803.54
2803.69
2803.68
2803.67
2803.97
2804.58
2805.13
2805.38
2805.42
2805.43
2805.49
2805.57
2805.68
2805.6
2805.24
2804.99
2804.97
2804.97
2804.9
2804.78
2804.71
2804.69
2804.73
2804.84
2805.04
2805.31
2805.57
2805.87
2806.15
2806.46
2806.65
2806.73
2806.64
2806.29
2805.87
2805.37
2804.76
2804.07
2803.28
2802.37
2801.36
2800.26
2799.06
2797.81
2796.53
2795.3
2793.87
2792.85
2791.84
2791.28
2790.97
2791.01
2791.7
2792.73
2794.85
2795.8
2791.58
2761.15
2803.09
2802.79
2802.41
2801.87
2801.34
2800.54
2799.45
2797.93
2795.95
2793.48
2790.3
2788.39
2785.89
2784.3
2785.27
2786.7
2788.8
2791.01
2793
2794.77
2794.9
2796.14
2797
2797.21
2797.51
2797.74
2797.91
2798.11
2798.29
2798.42
2798.54
2798.63
2798.72
2798.85
2799.05
2799.33
2799.71
2800.14
2800.6
2801.02
2801.35
2801.58
2801.71
2801.75
2801.71
2801.67
2801.63
2801.61
2801.61
2801.65
2801.74
2801.87
2802.02
2802.19
2802.38
2802.59
2802.83
2803.06
2803.25
2803.37
2803.42
2803.45
2803.54
2803.74
2803.99
2804.13
2804.11
2804.15
2804.49
2804.95
2805.3
2805.42
2805.41
2805.45
2805.48
2805.58
2805.78
2805.8
2805.51
2805.25
2805.14
2805.08
2804.99
2804.91
2804.9
2804.93
2805.04
2805.23
2805.49
2805.75
2806.05
2806.33
2806.62
2806.8
2806.87
2806.79
2806.43
2805.99
2805.47
2804.86
2804.16
2803.35
2802.43
2801.39
2800.27
2799.05
2797.77
2796.46
2795.18
2793.71
2792.63
2791.6
2790.94
2790.53
2790.47
2790.94
2791.82
2793.49
2793.62
2788.32
2756.51
2803.31
2802.98
2802.58
2802.03
2801.5
2800.69
2799.59
2798.06
2796.05
2793.55
2790.34
2788.47
2785.98
2784.48
2785.43
2786.86
2788.95
2791.16
2793.16
2794.96
2795.12
2796.28
2797.11
2797.33
2797.63
2797.87
2798.04
2798.24
2798.41
2798.55
2798.67
2798.76
2798.84
2798.97
2799.17
2799.46
2799.84
2800.28
2800.73
2801.14
2801.48
2801.71
2801.85
2801.89
2801.84
2801.8
2801.76
2801.75
2801.75
2801.79
2801.88
2802.01
2802.17
2802.33
2802.51
2802.7
2802.91
2803.14
2803.36
2803.55
2803.66
2803.69
2803.72
2803.86
2804.14
2804.45
2804.58
2804.48
2804.42
2804.57
2804.86
2805.08
2805.18
2805.3
2805.36
2805.39
2805.59
2805.83
2805.78
2805.55
2805.41
2805.29
2805.2
2805.13
2805.11
2805.15
2805.24
2805.43
2805.69
2805.94
2806.24
2806.51
2806.79
2806.96
2807.01
2806.93
2806.56
2806.11
2805.59
2804.96
2804.25
2803.42
2802.48
2801.43
2800.28
2799.04
2797.73
2796.39
2795.06
2793.55
2792.42
2791.34
2790.58
2790.08
2789.89
2790.15
2790.86
2792.04
2791.33
2784.93
2751.86
2803.54
2803.17
2802.76
2802.2
2801.65
2800.85
2799.72
2798.2
2796.16
2793.61
2790.4
2788.56
2786.08
2784.68
2785.6
2787.03
2789.11
2791.32
2793.33
2795.16
2795.36
2796.41
2797.22
2797.47
2797.76
2797.99
2798.17
2798.37
2798.55
2798.68
2798.8
2798.89
2798.97
2799.1
2799.3
2799.59
2799.98
2800.41
2800.87
2801.27
2801.61
2801.85
2801.99
2802.03
2801.98
2801.95
2801.91
2801.89
2801.9
2801.94
2802.03
2802.17
2802.32
2802.49
2802.66
2802.83
2803
2803.17
2803.37
2803.59
2803.76
2803.85
2803.88
2803.95
2804.16
2804.51
2804.82
2804.83
2804.63
2804.54
2804.69
2804.96
2805.22
2805.43
2805.59
2805.64
2805.66
2805.76
2805.85
2805.79
2805.68
2805.54
2805.43
2805.37
2805.35
2805.38
2805.47
2805.64
2805.9
2806.15
2806.44
2806.71
2806.97
2807.13
2807.16
2807.09
2806.71
2806.24
2805.7
2805.07
2804.34
2803.49
2802.54
2801.47
2800.28
2799.03
2797.69
2796.32
2794.93
2793.38
2792.18
2791.07
2790.19
2789.62
2789.27
2789.35
2789.84
2790.5
2788.93
2781.44
2747.23
2803.78
2803.37
2802.95
2802.38
2801.82
2801.01
2799.87
2798.34
2796.27
2793.68
2790.47
2788.66
2786.2
2784.89
2785.78
2787.22
2789.29
2791.49
2793.5
2795.39
2795.62
2796.56
2797.34
2797.6
2797.9
2798.13
2798.31
2798.51
2798.68
2798.82
2798.94
2799.03
2799.11
2799.25
2799.44
2799.74
2800.12
2800.56
2801.01
2801.42
2801.76
2802
2802.15
2802.18
2802.14
2802.1
2802.07
2802.05
2802.06
2802.11
2802.2
2802.33
2802.49
2802.67
2802.84
2803
2803.13
2803.24
2803.39
2803.58
2803.78
2803.94
2804.03
2804.08
2804.17
2804.4
2804.76
2805.05
2805.13
2805.13
2805.21
2805.42
2805.68
2805.88
2806.07
2806.19
2806.13
2806.01
2806.02
2806.02
2805.93
2805.81
2805.69
2805.61
2805.59
2805.62
2805.7
2805.87
2806.12
2806.36
2806.65
2806.91
2807.16
2807.31
2807.31
2807.23
2806.87
2806.37
2805.82
2805.17
2804.43
2803.57
2802.6
2801.51
2800.29
2799.01
2797.64
2796.23
2794.78
2793.2
2791.95
2790.78
2789.78
2789.13
2788.59
2788.52
2788.75
2788.89
2786.47
2777.83
2742.59
2804.03
2803.58
2803.15
2802.56
2801.99
2801.18
2800.01
2798.48
2796.4
2793.76
2790.56
2788.76
2786.34
2785.11
2785.98
2787.43
2789.49
2791.67
2793.69
2795.64
2795.87
2796.71
2797.47
2797.75
2798.04
2798.27
2798.45
2798.65
2798.83
2798.97
2799.09
2799.18
2799.26
2799.39
2799.59
2799.89
2800.27
2800.71
2801.16
2801.57
2801.91
2802.17
2802.31
2802.33
2802.3
2802.26
2802.23
2802.22
2802.22
2802.27
2802.36
2802.5
2802.66
2802.85
2803.04
2803.21
2803.34
2803.43
2803.53
2803.67
2803.83
2804.02
2804.2
2804.32
2804.36
2804.42
2804.66
2805.1
2805.55
2805.86
2806
2806.09
2806.2
2806.29
2806.39
2806.52
2806.55
2806.43
2806.33
2806.28
2806.19
2806.07
2805.96
2805.88
2805.85
2805.88
2805.96
2806.12
2806.35
2806.59
2806.87
2807.13
2807.36
2807.49
2807.48
2807.39
2807.03
2806.51
2805.95
2805.28
2804.53
2803.64
2802.65
2801.54
2800.29
2798.99
2797.59
2796.14
2794.63
2793.01
2791.69
2790.47
2789.35
2788.62
2787.88
2787.68
2787.59
2787.17
2783.96
2774.13
2737.99
2804.29
2803.8
2803.35
2802.76
2802.16
2801.35
2800.17
2798.63
2796.53
2793.85
2790.68
2788.87
2786.5
2785.35
2786.19
2787.66
2789.7
2791.88
2793.91
2795.88
2796.11
2796.88
2797.61
2797.91
2798.2
2798.43
2798.61
2798.8
2798.98
2799.13
2799.24
2799.33
2799.42
2799.55
2799.75
2800.05
2800.43
2800.87
2801.32
2801.74
2802.08
2802.34
2802.47
2802.49
2802.46
2802.43
2802.4
2802.39
2802.4
2802.45
2802.55
2802.67
2802.84
2803.03
2803.25
2803.44
2803.6
2803.72
2803.81
2803.9
2804.02
2804.18
2804.4
2804.62
2804.75
2804.79
2804.88
2805.19
2805.65
2806.05
2806.27
2806.34
2806.4
2806.49
2806.55
2806.62
2806.71
2806.74
2806.67
2806.57
2806.48
2806.37
2806.26
2806.17
2806.13
2806.15
2806.23
2806.38
2806.6
2806.83
2807.1
2807.36
2807.57
2807.69
2807.66
2807.54
2807.19
2806.66
2806.07
2805.4
2804.63
2803.72
2802.71
2801.58
2800.3
2798.96
2797.52
2796.03
2794.47
2792.82
2791.42
2790.13
2788.9
2788.07
2787.13
2786.79
2786.36
2785.34
2781.4
2770.34
2733.38
2804.56
2804.03
2803.56
2802.96
2802.34
2801.53
2800.32
2798.79
2796.67
2793.95
2790.81
2789
2786.67
2785.61
2786.43
2787.9
2789.93
2792.12
2794.21
2796.05
2796.35
2797.05
2797.76
2798.07
2798.36
2798.58
2798.77
2798.96
2799.14
2799.29
2799.41
2799.5
2799.59
2799.72
2799.92
2800.22
2800.6
2801.03
2801.49
2801.91
2802.26
2802.51
2802.64
2802.66
2802.64
2802.61
2802.58
2802.57
2802.58
2802.63
2802.73
2802.86
2803.02
2803.22
2803.43
2803.65
2803.85
2804.03
2804.16
2804.26
2804.35
2804.46
2804.63
2804.85
2805.11
2805.29
2805.38
2805.48
2805.67
2805.92
2806.15
2806.33
2806.49
2806.65
2806.77
2806.84
2806.91
2806.97
2806.96
2806.89
2806.79
2806.68
2806.57
2806.48
2806.43
2806.45
2806.52
2806.66
2806.87
2807.1
2807.34
2807.6
2807.79
2807.89
2807.86
2807.69
2807.36
2806.82
2806.21
2805.51
2804.73
2803.8
2802.77
2801.61
2800.31
2798.94
2797.46
2795.92
2794.31
2792.62
2791.13
2789.78
2788.43
2787.47
2786.38
2785.86
2785.08
2783.39
2778.79
2766.46
2728.8
2804.84
2804.27
2803.78
2803.17
2802.53
2801.71
2800.49
2798.95
2796.81
2794.06
2790.98
2789.15
2786.88
2785.9
2786.69
2788.16
2790.18
2792.36
2794.5
2796.25
2796.59
2797.24
2797.92
2798.24
2798.52
2798.75
2798.94
2799.13
2799.32
2799.46
2799.58
2799.67
2799.77
2799.9
2800.1
2800.39
2800.78
2801.21
2801.67
2802.1
2802.45
2802.7
2802.82
2802.84
2802.83
2802.8
2802.78
2802.77
2802.78
2802.83
2802.93
2803.06
2803.21
2803.4
2803.61
2803.83
2804.04
2804.25
2804.43
2804.58
2804.69
2804.77
2804.87
2805.03
2805.27
2805.54
2805.76
2805.86
2805.93
2806.06
2806.28
2806.52
2806.74
2806.94
2807.1
2807.2
2807.25
2807.26
2807.25
2807.21
2807.13
2807.02
2806.91
2806.81
2806.76
2806.76
2806.83
2806.96
2807.15
2807.37
2807.6
2807.85
2808.02
2808.11
2808.06
2807.86
2807.52
2806.98
2806.34
2805.63
2804.83
2803.88
2802.83
2801.64
2800.32
2798.9
2797.38
2795.79
2794.12
2792.42
2790.84
2789.39
2787.95
2786.82
2785.6
2784.84
2783.73
2781.36
2776.11
2762.54
2724.25
2805.13
2804.52
2804
2803.38
2802.72
2801.9
2800.66
2799.11
2796.95
2794.17
2791.18
2789.34
2787.11
2786.22
2786.98
2788.46
2790.46
2792.64
2794.8
2796.45
2796.82
2797.44
2798.1
2798.42
2798.7
2798.93
2799.11
2799.31
2799.5
2799.65
2799.77
2799.86
2799.95
2800.09
2800.29
2800.58
2800.97
2801.41
2801.87
2802.3
2802.65
2802.89
2803.01
2803.04
2803.03
2803.01
2802.98
2802.97
2802.99
2803.04
2803.13
2803.27
2803.42
2803.61
2803.8
2804
2804.2
2804.4
2804.59
2804.77
2804.91
2805.02
2805.12
2805.22
2805.38
2805.62
2805.89
2806.13
2806.33
2806.52
2806.73
2806.93
2807.12
2807.28
2807.43
2807.54
2807.61
2807.6
2807.59
2807.55
2807.48
2807.37
2807.26
2807.17
2807.11
2807.1
2807.16
2807.28
2807.46
2807.66
2807.88
2808.12
2808.27
2808.33
2808.26
2808.04
2807.69
2807.16
2806.49
2805.75
2804.93
2803.96
2802.88
2801.67
2800.32
2798.87
2797.3
2795.67
2793.95
2792.18
2790.51
2789
2787.42
2786.15
2784.83
2783.79
2782.31
2779.27
2773.34
2758.57
2719.72
2805.44
2804.78
2804.24
2803.61
2802.92
2802.1
2800.83
2799.27
2797.09
2794.29
2791.41
2789.55
2787.38
2786.57
2787.31
2788.78
2790.76
2792.94
2795.11
2796.65
2797.06
2797.65
2798.28
2798.61
2798.89
2799.11
2799.3
2799.51
2799.69
2799.84
2799.96
2800.05
2800.15
2800.29
2800.49
2800.79
2801.18
2801.62
2802.08
2802.5
2802.85
2803.09
2803.2
2803.24
2803.24
2803.22
2803.19
2803.19
2803.21
2803.26
2803.36
2803.49
2803.65
2803.83
2804.03
2804.21
2804.38
2804.55
2804.72
2804.9
2805.06
2805.21
2805.36
2805.49
2805.62
2805.79
2806.04
2806.34
2806.65
2806.91
2807.12
2807.29
2807.45
2807.6
2807.74
2807.85
2807.93
2807.95
2807.95
2807.92
2807.85
2807.75
2807.64
2807.55
2807.48
2807.47
2807.51
2807.62
2807.77
2807.97
2808.17
2808.39
2808.53
2808.57
2808.48
2808.23
2807.84
2807.33
2806.64
2805.88
2805.03
2804.05
2802.93
2801.69
2800.32
2798.83
2797.22
2795.53
2793.75
2791.94
2790.17
2788.57
2786.89
2785.44
2784
2782.63
2780.8
2777.17
2770.47
2754.57
2715.29
2805.76
2805.05
2804.48
2803.84
2803.12
2802.3
2801.01
2799.44
2797.24
2794.43
2791.67
2789.79
2787.68
2786.95
2787.66
2789.13
2791.1
2793.28
2795.42
2796.87
2797.31
2797.87
2798.48
2798.81
2799.08
2799.31
2799.5
2799.71
2799.9
2800.05
2800.17
2800.26
2800.36
2800.5
2800.71
2801.01
2801.4
2801.84
2802.3
2802.72
2803.06
2803.29
2803.42
2803.46
2803.47
2803.44
2803.42
2803.41
2803.43
2803.49
2803.58
2803.71
2803.88
2804.08
2804.29
2804.47
2804.63
2804.79
2804.93
2805.08
2805.24
2805.41
2805.61
2805.8
2805.96
2806.13
2806.34
2806.6
2806.89
2807.15
2807.37
2807.56
2807.74
2807.92
2808.07
2808.18
2808.26
2808.31
2808.33
2808.3
2808.24
2808.15
2808.04
2807.95
2807.89
2807.86
2807.9
2807.99
2808.13
2808.3
2808.48
2808.68
2808.81
2808.81
2808.71
2808.43
2808.02
2807.51
2806.8
2806.01
2805.13
2804.12
2802.98
2801.71
2800.31
2798.78
2797.13
2795.4
2793.55
2791.66
2789.8
2788.13
2786.29
2784.74
2783.13
2781.49
2779.16
2775.02
2767.49
2750.53
2710.9
2806.09
2805.33
2804.73
2804.08
2803.33
2802.51
2801.2
2799.62
2797.4
2794.59
2791.95
2790.06
2788.02
2787.36
2788.05
2789.51
2791.47
2793.65
2795.74
2797.09
2797.56
2798.1
2798.69
2799.03
2799.29
2799.51
2799.71
2799.92
2800.11
2800.26
2800.38
2800.48
2800.58
2800.72
2800.94
2801.24
2801.64
2802.08
2802.54
2802.95
2803.29
2803.51
2803.64
2803.7
2803.7
2803.68
2803.66
2803.66
2803.68
2803.74
2803.83
2803.96
2804.13
2804.33
2804.55
2804.75
2804.94
2805.1
2805.24
2805.38
2805.53
2805.69
2805.88
2806.08
2806.3
2806.51
2806.71
2806.94
2807.18
2807.42
2807.65
2807.87
2808.07
2808.26
2808.42
2808.55
2808.64
2808.7
2808.72
2808.71
2808.66
2808.57
2808.47
2808.38
2808.31
2808.28
2808.3
2808.37
2808.49
2808.64
2808.8
2808.98
2809.1
2809.07
2808.94
2808.64
2808.19
2807.68
2806.97
2806.14
2805.24
2804.2
2803.03
2801.74
2800.31
2798.73
2797.04
2795.23
2793.31
2791.38
2789.44
2787.66
2785.71
2784
2782.22
2780.28
2777.45
2772.85
2764.44
2746.5
2706.64
2806.44
2805.62
2804.98
2804.33
2803.55
2802.72
2801.4
2799.8
2797.57
2794.77
2792.26
2790.35
2788.39
2787.8
2788.47
2789.93
2791.87
2794.04
2796.07
2797.32
2797.81
2798.35
2798.92
2799.25
2799.51
2799.73
2799.93
2800.14
2800.33
2800.49
2800.61
2800.71
2800.81
2800.96
2801.18
2801.49
2801.89
2802.33
2802.78
2803.19
2803.52
2803.75
2803.89
2803.95
2803.95
2803.93
2803.91
2803.91
2803.93
2803.99
2804.08
2804.21
2804.39
2804.59
2804.81
2805.02
2805.22
2805.41
2805.58
2805.73
2805.87
2806.02
2806.18
2806.36
2806.58
2806.81
2807.05
2807.28
2807.53
2807.77
2808.01
2808.23
2808.44
2808.63
2808.79
2808.93
2809.03
2809.1
2809.14
2809.14
2809.09
2809.01
2808.92
2808.83
2808.77
2808.73
2808.74
2808.8
2808.89
2809.01
2809.15
2809.3
2809.4
2809.34
2809.18
2808.86
2808.39
2807.85
2807.15
2806.28
2805.34
2804.28
2803.08
2801.76
2800.28
2798.67
2796.93
2795.08
2793.08
2791.05
2789.07
2787.15
2785.08
2783.27
2781.24
2779
2775.66
2770.61
2761.3
2742.43
2702.49
2806.8
2805.92
2805.25
2804.58
2803.78
2802.94
2801.61
2800
2797.75
2794.98
2792.57
2790.67
2788.8
2788.26
2788.91
2790.38
2792.3
2794.44
2796.38
2797.56
2798.08
2798.62
2799.16
2799.48
2799.74
2799.96
2800.16
2800.37
2800.57
2800.72
2800.85
2800.95
2801.06
2801.21
2801.44
2801.76
2802.16
2802.6
2803.05
2803.45
2803.78
2804.01
2804.15
2804.21
2804.22
2804.2
2804.18
2804.18
2804.2
2804.26
2804.35
2804.49
2804.66
2804.86
2805.06
2805.28
2805.49
2805.69
2805.89
2806.05
2806.2
2806.35
2806.5
2806.66
2806.85
2807.09
2807.35
2807.62
2807.89
2808.15
2808.39
2808.6
2808.82
2809.01
2809.18
2809.33
2809.45
2809.53
2809.58
2809.59
2809.55
2809.48
2809.4
2809.31
2809.25
2809.21
2809.2
2809.22
2809.3
2809.4
2809.52
2809.64
2809.72
2809.62
2809.44
2809.08
2808.58
2808.02
2807.32
2806.42
2805.45
2804.36
2803.12
2801.78
2800.27
2798.6
2796.82
2794.88
2792.78
2790.71
2788.69
2786.59
2784.49
2782.48
2780.19
2777.68
2773.87
2768.32
2758.15
2738.32
2698.5
2807.18
2806.22
2805.51
2804.84
2804.01
2803.16
2801.83
2800.2
2797.95
2795.23
2792.92
2791.03
2789.24
2788.76
2789.4
2790.86
2792.75
2794.85
2796.69
2797.8
2798.36
2798.9
2799.4
2799.72
2799.98
2800.2
2800.41
2800.62
2800.81
2800.97
2801.1
2801.2
2801.32
2801.48
2801.71
2802.03
2802.43
2802.87
2803.32
2803.72
2804.05
2804.28
2804.42
2804.49
2804.49
2804.48
2804.47
2804.47
2804.49
2804.54
2804.64
2804.77
2804.95
2805.15
2805.36
2805.57
2805.77
2805.95
2806.14
2806.32
2806.49
2806.66
2806.83
2807
2807.19
2807.42
2807.69
2807.97
2808.25
2808.52
2808.76
2808.98
2809.21
2809.41
2809.59
2809.75
2809.88
2809.98
2810.04
2810.06
2810.04
2809.98
2809.9
2809.82
2809.75
2809.7
2809.68
2809.71
2809.76
2809.82
2809.91
2810
2810.04
2809.92
2809.7
2809.32
2808.8
2808.2
2807.49
2806.57
2805.55
2804.43
2803.17
2801.79
2800.23
2798.52
2796.68
2794.66
2792.52
2790.36
2788.29
2786.06
2783.84
2781.64
2779.16
2776.27
2772.04
2765.92
2754.98
2734.34
2694.39
2807.58
2806.54
2805.79
2805.11
2804.25
2803.39
2802.05
2800.41
2798.17
2795.52
2793.29
2791.41
2789.73
2789.29
2789.93
2791.38
2793.24
2795.28
2797.01
2798.06
2798.65
2799.18
2799.65
2799.97
2800.23
2800.45
2800.66
2800.87
2801.07
2801.23
2801.36
2801.47
2801.6
2801.76
2802
2802.32
2802.73
2803.17
2803.61
2804.01
2804.34
2804.57
2804.71
2804.78
2804.79
2804.78
2804.77
2804.77
2804.79
2804.84
2804.94
2805.08
2805.26
2805.47
2805.68
2805.88
2806.08
2806.27
2806.44
2806.63
2806.8
2806.98
2807.18
2807.38
2807.59
2807.83
2808.08
2808.35
2808.63
2808.9
2809.15
2809.39
2809.62
2809.83
2810.02
2810.19
2810.33
2810.45
2810.53
2810.56
2810.55
2810.5
2810.44
2810.36
2810.28
2810.23
2810.19
2810.18
2810.21
2810.26
2810.31
2810.37
2810.38
2810.23
2809.97
2809.56
2809.01
2808.38
2807.64
2806.72
2805.67
2804.51
2803.21
2801.79
2800.2
2798.42
2796.55
2794.43
2792.21
2790.02
2787.84
2785.49
2783.16
2780.77
2778.07
2774.81
2770.22
2763.48
2751.78
2730.51
2690.92
2807.99
2806.86
2806.07
2805.38
2804.49
2803.63
2802.29
2800.63
2798.41
2795.84
2793.7
2791.83
2790.25
2789.87
2790.5
2791.94
2793.76
2795.71
2797.34
2798.34
2798.95
2799.48
2799.92
2800.23
2800.49
2800.71
2800.92
2801.13
2801.33
2801.5
2801.64
2801.76
2801.89
2802.06
2802.3
2802.63
2803.03
2803.47
2803.92
2804.32
2804.65
2804.88
2805.02
2805.08
2805.1
2805.1
2805.09
2805.09
2805.11
2805.16
2805.26
2805.4
2805.58
2805.78
2806
2806.22
2806.43
2806.63
2806.8
2806.97
2807.15
2807.33
2807.53
2807.74
2807.97
2808.22
2808.48
2808.76
2809.04
2809.32
2809.57
2809.81
2810.05
2810.27
2810.47
2810.65
2810.81
2810.94
2811.03
2811.08
2811.08
2811.05
2810.99
2810.91
2810.85
2810.78
2810.74
2810.72
2810.72
2810.73
2810.75
2810.77
2810.73
2810.55
2810.25
2809.82
2809.24
2808.58
2807.8
2806.87
2805.79
2804.58
2803.25
2801.78
2800.12
2798.3
2796.38
2794.19
2791.94
2789.68
2787.33
2784.9
2782.48
2779.88
2776.97
2773.3
2768.36
2760.97
2748.54
2726.49
2687.12
2808.42
2807.19
2806.36
2805.66
2804.75
2803.87
2802.53
2800.85
2798.67
2796.2
2794.15
2792.3
2790.83
2790.5
2791.13
2792.53
2794.29
2796.16
2797.69
2798.64
2799.26
2799.77
2800.19
2800.51
2800.76
2800.98
2801.2
2801.41
2801.61
2801.79
2801.93
2802.06
2802.2
2802.37
2802.63
2802.95
2803.36
2803.8
2804.25
2804.65
2804.98
2805.21
2805.35
2805.41
2805.44
2805.44
2805.43
2805.43
2805.45
2805.5
2805.6
2805.74
2805.92
2806.12
2806.35
2806.57
2806.77
2806.98
2807.18
2807.36
2807.56
2807.75
2807.93
2808.13
2808.37
2808.63
2808.92
2809.21
2809.49
2809.75
2810.01
2810.27
2810.51
2810.73
2810.95
2811.13
2811.31
2811.45
2811.56
2811.63
2811.64
2811.62
2811.57
2811.51
2811.43
2811.37
2811.31
2811.25
2811.22
2811.21
2811.2
2811.17
2811.09
2810.88
2810.55
2810.09
2809.48
2808.78
2807.96
2807.01
2805.91
2804.66
2803.26
2801.73
2800.05
2798.19
2796.21
2793.97
2791.65
2789.3
2786.79
2784.32
2781.76
2778.95
2775.8
2771.77
2766.49
2758.49
2745.39
2722.88
2683.83
2808.87
2807.52
2806.65
2805.95
2805.01
2804.11
2802.78
2801.08
2798.95
2796.6
2794.64
2792.82
2791.46
2791.18
2791.81
2793.15
2794.85
2796.61
2798.04
2798.95
2799.57
2800.07
2800.48
2800.79
2801.04
2801.26
2801.48
2801.7
2801.91
2802.08
2802.24
2802.37
2802.52
2802.71
2802.96
2803.3
2803.7
2804.15
2804.6
2805
2805.33
2805.55
2805.69
2805.76
2805.79
2805.8
2805.79
2805.78
2805.8
2805.86
2805.95
2806.1
2806.28
2806.48
2806.7
2806.92
2807.14
2807.35
2807.55
2807.73
2807.92
2808.11
2808.31
2808.52
2808.77
2809.04
2809.33
2809.63
2809.93
2810.22
2810.52
2810.8
2811
2811.2
2811.43
2811.63
2811.82
2811.98
2812.1
2812.18
2812.22
2812.21
2812.18
2812.12
2812.05
2811.97
2811.9
2811.84
2811.78
2811.72
2811.67
2811.6
2811.47
2811.22
2810.85
2810.36
2809.72
2808.99
2808.13
2807.14
2806
2804.71
2803.28
2801.71
2799.96
2798.07
2796.02
2793.74
2791.34
2788.89
2786.25
2783.71
2781.01
2778.02
2774.6
2770.24
2764.6
2756.03
2742.25
2719.26
2680.68
2809.35
2807.86
2806.95
2806.24
2805.29
2804.36
2803.03
2801.31
2799.27
2797.03
2795.15
2793.4
2792.13
2791.91
2792.53
2793.81
2795.41
2797.08
2798.42
2799.28
2799.88
2800.38
2800.78
2801.09
2801.33
2801.55
2801.78
2802
2802.21
2802.4
2802.56
2802.7
2802.86
2803.05
2803.32
2803.66
2804.07
2804.52
2804.97
2805.37
2805.69
2805.92
2806.06
2806.14
2806.17
2806.18
2806.16
2806.16
2806.18
2806.24
2806.33
2806.48
2806.65
2806.86
2807.08
2807.31
2807.53
2807.74
2807.94
2808.14
2808.33
2808.53
2808.74
2808.97
2809.23
2809.51
2809.81
2810.12
2810.42
2810.7
2810.95
2811.23
2811.49
2811.72
2811.95
2812.16
2812.37
2812.54
2812.69
2812.8
2812.86
2812.84
2812.82
2812.78
2812.68
2812.61
2812.53
2812.42
2812.32
2812.23
2812.14
2812.03
2811.85
2811.57
2811.17
2810.64
2809.97
2809.2
2808.3
2807.26
2806.09
2804.76
2803.28
2801.66
2799.88
2797.93
2795.81
2793.49
2791.02
2788.46
2785.7
2783.09
2780.23
2777.05
2773.36
2768.7
2762.67
2753.54
2739.17
2715.89
2677.8
2809.84
2808.2
2807.26
2806.53
2805.57
2804.61
2803.3
2801.57
2799.61
2797.49
2795.7
2794.01
2792.85
2792.67
2793.3
2794.49
2796
2797.56
2798.79
2799.61
2800.21
2800.69
2801.09
2801.39
2801.63
2801.85
2802.08
2802.31
2802.53
2802.72
2802.89
2803.04
2803.21
2803.41
2803.69
2804.03
2804.45
2804.91
2805.36
2805.76
2806.08
2806.31
2806.45
2806.54
2806.57
2806.58
2806.57
2806.56
2806.59
2806.64
2806.74
2806.88
2807.05
2807.26
2807.49
2807.72
2807.95
2808.16
2808.36
2808.56
2808.76
2808.96
2809.18
2809.42
2809.68
2809.97
2810.27
2810.58
2810.9
2811.2
2811.5
2811.78
2812.06
2812.32
2812.56
2812.79
2812.99
2813.15
2813.28
2813.38
2813.45
2813.47
2813.47
2813.43
2813.36
2813.26
2813.15
2813.05
2812.93
2812.78
2812.64
2812.47
2812.25
2811.92
2811.48
2810.92
2810.21
2809.41
2808.47
2807.4
2806.18
2804.8
2803.28
2801.61
2799.78
2797.77
2795.59
2793.23
2790.68
2788
2785.15
2782.45
2779.44
2776.08
2772.11
2767.17
2760.76
2751.14
2736.17
2712.63
2675.15
2810.34
2808.54
2807.58
2806.82
2805.85
2804.87
2803.58
2801.85
2800
2797.99
2796.27
2794.66
2793.59
2793.43
2794.08
2795.18
2796.59
2798.04
2799.18
2799.95
2800.54
2801.02
2801.41
2801.7
2801.94
2802.16
2802.39
2802.62
2802.85
2803.05
2803.23
2803.4
2803.58
2803.79
2804.07
2804.42
2804.85
2805.31
2805.77
2806.17
2806.49
2806.72
2806.88
2806.96
2807
2807
2806.99
2806.99
2807.01
2807.07
2807.16
2807.3
2807.48
2807.68
2807.91
2808.15
2808.38
2808.6
2808.81
2809.02
2809.22
2809.43
2809.65
2809.9
2810.17
2810.47
2810.78
2811.1
2811.42
2811.73
2812.02
2812.29
2812.55
2812.81
2813.06
2813.3
2813.53
2813.74
2813.92
2814.05
2814.14
2814.2
2814.19
2814.14
2814.06
2813.96
2813.84
2813.68
2813.52
2813.33
2813.14
2812.93
2812.65
2812.29
2811.81
2811.2
2810.46
2809.62
2808.63
2807.52
2806.26
2804.84
2803.27
2801.55
2799.66
2797.6
2795.36
2792.94
2790.3
2787.53
2784.61
2781.8
2778.64
2775.08
2770.85
2765.62
2758.8
2748.68
2733.27
2709.62
2672.78
2810.87
2808.88
2807.9
2807.12
2806.15
2805.13
2803.87
2802.16
2800.43
2798.5
2796.85
2795.34
2794.36
2794.18
2794.86
2795.88
2797.19
2798.52
2799.57
2800.31
2800.89
2801.36
2801.74
2802.02
2802.26
2802.48
2802.71
2802.95
2803.18
2803.4
2803.59
2803.77
2803.95
2804.18
2804.47
2804.83
2805.27
2805.74
2806.21
2806.61
2806.94
2807.17
2807.32
2807.4
2807.44
2807.45
2807.44
2807.45
2807.47
2807.52
2807.61
2807.75
2807.93
2808.13
2808.36
2808.6
2808.83
2809.06
2809.29
2809.5
2809.71
2809.92
2810.16
2810.41
2810.69
2811
2811.31
2811.64
2811.97
2812.28
2812.58
2812.85
2813.12
2813.39
2813.65
2813.9
2814.15
2814.37
2814.56
2814.71
2814.82
2814.88
2814.89
2814.86
2814.79
2814.67
2814.52
2814.36
2814.15
2813.91
2813.66
2813.39
2813.06
2812.65
2812.13
2811.48
2810.7
2809.82
2808.8
2807.64
2806.34
2804.87
2803.25
2801.47
2799.53
2797.41
2795.11
2792.63
2789.9
2787.05
2784.05
2781.14
2777.84
2774.08
2769.58
2764.1
2756.96
2746.35
2730.54
2706.83
2670.71
2811.4
2809.22
2808.22
2807.41
2806.44
2805.39