/*--------------------------------*- C++ -*----------------------------------*\
| =========                 |                                                 |
| \\      /  F ield         | OpenFOAM: The Open Source CFD Toolbox           |
|  \\    /   O peration     | Version:  2412                                  |
|   \\  /    A nd           | Website:  www.openfoam.com                      |
|    \\/     M anipulation  |                                                 |
\*---------------------------------------------------------------------------*/
FoamFile
{
    version     2.0;
    format      ascii;
    arch        "LSB;label=32;scalar=64";
    class       volScalarField;
    location    "0.032";
    object      rho;
}
// * * * * * * * * * * * * * * * * * * * * * * * * * * * * * * * * * * * * * //

dimensions      [1 -3 0 0 0 0 0];

internalField   nonuniform List<scalar> 
9859
(
0.0408367
0.040845
0.040844
0.0408446
0.0408449
0.040845
0.0408449
0.0408449
0.0408448
0.0408448
0.0408448
0.040844
0.0408396
0.0408296
0.0408166
0.0408045
0.0407957
0.0407905
0.0407884
0.0407881
0.0407927
0.0408106
0.0408357
0.0408576
0.0408725
0.0408811
0.0408851
0.0408863
0.0408857
0.0408817
0.0408739
0.0408664
0.0408612
0.0408578
0.0408558
0.0408551
0.0408555
0.0408557
0.0408546
0.0408517
0.0408465
0.0408406
0.0408362
0.0408339
0.0408337
0.0408354
0.0408378
0.0408402
0.0408429
0.0408469
0.0408548
0.0408677
0.0408833
0.0408987
0.0409133
0.0409275
0.0409428
0.0409603
0.0409794
0.0409981
0.0410148
0.0410298
0.0410444
0.0410596
0.0410749
0.0410888
0.0411006
0.0411109
0.0411209
0.0408826
0.0408914
0.0408903
0.0408908
0.0408912
0.0408913
0.0408912
0.0408911
0.0408911
0.0408911
0.0408911
0.0408903
0.0408859
0.0408758
0.0408627
0.0408505
0.0408417
0.0408366
0.0408344
0.0408341
0.0408387
0.0408567
0.0408818
0.0409036
0.0409186
0.0409271
0.0409311
0.0409323
0.0409317
0.0409277
0.0409198
0.0409123
0.0409071
0.0409036
0.0409016
0.0409008
0.0409012
0.0409013
0.0409002
0.0408972
0.0408919
0.0408859
0.0408815
0.0408792
0.0408791
0.0408809
0.0408833
0.0408858
0.0408885
0.0408925
0.0409003
0.0409131
0.0409284
0.0409435
0.0409575
0.0409711
0.0409856
0.0410024
0.0410208
0.0410385
0.0410542
0.0410681
0.0410816
0.0410957
0.0411098
0.0411225
0.0411331
0.041142
0.0411509
0.0411602
0.0411691
0.0411762
0.0411814
0.0411862
0.0411922
0.0412809
0.0413126
0.0413561
0.0414013
0.0414498
0.0414906
0.0415259
0.0415584
0.0415851
0.0416109
0.0416362
0.0416676
0.0417025
0.0417375
0.0417734
0.0418108
0.0418511
0.0418952
0.041939
0.0419802
0.0420168
0.04205
0.0420819
0.042111
0.0421365
0.0421526
0.042154
0.0421417
0.042116
0.042088
0.0420672
0.0420549
0.0420519
0.0420581
0.0420801
0.0421023
0.0420997
0.040932
0.0409414
0.0409402
0.0409407
0.040941
0.0409411
0.040941
0.040941
0.0409409
0.0409409
0.0409409
0.0409401
0.0409356
0.0409255
0.0409123
0.0409001
0.0408913
0.0408861
0.040884
0.0408836
0.0408883
0.0409063
0.0409314
0.0409532
0.0409681
0.0409767
0.0409806
0.0409818
0.0409812
0.0409771
0.0409692
0.0409617
0.0409565
0.040953
0.0409509
0.0409501
0.0409504
0.0409504
0.0409492
0.0409461
0.0409407
0.0409348
0.0409304
0.0409282
0.0409281
0.0409299
0.0409324
0.040935
0.0409377
0.0409418
0.0409495
0.0409621
0.040977
0.0409916
0.0410051
0.041018
0.0410318
0.0410478
0.0410652
0.041082
0.0410966
0.0411093
0.0411216
0.0411345
0.0411473
0.0411587
0.0411679
0.0411755
0.041183
0.041191
0.0411987
0.0412045
0.0412083
0.0412115
0.0412159
0.0412212
0.041226
0.0412307
0.0412363
0.0412425
0.0412492
0.0412568
0.0412686
0.0412933
0.0413242
0.0413657
0.0414093
0.0414546
0.041493
0.0415254
0.0415569
0.0415842
0.0416127
0.0416415
0.0416754
0.0417121
0.0417497
0.0417897
0.0418291
0.0418719
0.0419156
0.0419574
0.041996
0.0420296
0.0420599
0.0420894
0.0421166
0.0421404
0.0421557
0.042158
0.0421471
0.0421227
0.0420948
0.0420734
0.0420605
0.0420569
0.0420611
0.0420802
0.0420965
0.0420794
0.0409852
0.0409952
0.0409938
0.0409944
0.0409947
0.0409947
0.0409947
0.0409946
0.0409946
0.0409946
0.0409945
0.0409937
0.0409892
0.040979
0.0409658
0.0409536
0.0409447
0.0409395
0.0409373
0.040937
0.0409417
0.0409597
0.0409848
0.0410066
0.0410215
0.0410301
0.041034
0.0410352
0.0410345
0.0410304
0.0410224
0.0410149
0.0410096
0.0410062
0.041004
0.0410032
0.0410034
0.0410034
0.0410021
0.0409989
0.0409935
0.0409875
0.0409832
0.040981
0.040981
0.0409829
0.0409855
0.0409881
0.0409909
0.040995
0.0410026
0.0410149
0.0410294
0.0410436
0.0410564
0.0410685
0.0410815
0.0410966
0.0411131
0.0411288
0.0411422
0.0411536
0.0411646
0.0411761
0.0411875
0.0411976
0.0412053
0.0412114
0.0412174
0.0412241
0.0412304
0.0412349
0.0412373
0.0412389
0.0412414
0.0412451
0.0412485
0.0412517
0.0412557
0.0412602
0.0412651
0.0412717
0.0412823
0.0413065
0.0413366
0.0413759
0.041417
0.0414579
0.041494
0.0415253
0.0415568
0.0415858
0.0416175
0.0416502
0.0416854
0.0417242
0.0417649
0.0418083
0.0418493
0.0418922
0.0419342
0.0419736
0.0420094
0.0420403
0.0420682
0.0420956
0.0421211
0.0421433
0.0421581
0.0421612
0.0421518
0.0421288
0.0421011
0.0420791
0.0420657
0.0420615
0.0420637
0.0420795
0.0420902
0.0420579
0.0410425
0.0410531
0.0410516
0.0410522
0.0410525
0.0410525
0.0410525
0.0410524
0.0410524
0.0410524
0.0410523
0.0410515
0.0410469
0.0410367
0.0410234
0.0410111
0.0410022
0.0409971
0.0409949
0.0409945
0.0409992
0.0410172
0.0410424
0.0410642
0.0410791
0.0410875
0.0410915
0.0410926
0.0410919
0.0410877
0.0410798
0.0410722
0.0410669
0.0410634
0.0410612
0.0410603
0.0410605
0.0410604
0.0410591
0.0410559
0.0410504
0.0410444
0.0410402
0.0410381
0.0410382
0.0410402
0.0410429
0.0410456
0.0410484
0.0410524
0.0410598
0.0410718
0.0410859
0.0410995
0.0411116
0.041123
0.041135
0.0411491
0.0411646
0.0411791
0.0411911
0.0412011
0.0412107
0.0412207
0.0412308
0.0412393
0.0412454
0.04125
0.0412545
0.0412596
0.0412644
0.0412674
0.0412684
0.0412684
0.0412691
0.0412711
0.0412729
0.0412745
0.0412768
0.0412792
0.0412823
0.041288
0.0412972
0.0413204
0.0413504
0.0413849
0.0414223
0.0414603
0.0414954
0.0415261
0.0415592
0.0415914
0.0416261
0.0416611
0.0416982
0.0417405
0.0417842
0.041828
0.0418693
0.0419109
0.0419507
0.0419876
0.0420209
0.0420493
0.0420751
0.0421007
0.0421245
0.0421452
0.0421597
0.0421637
0.0421559
0.0421344
0.0421072
0.0420845
0.0420705
0.0420656
0.0420659
0.0420785
0.0420825
0.0420353
0.0417372
0.0411042
0.0411155
0.0411138
0.0411144
0.0411147
0.0411147
0.0411147
0.0411146
0.0411146
0.0411146
0.0411145
0.0411137
0.0411091
0.0410988
0.0410854
0.0410731
0.0410642
0.041059
0.0410568
0.0410564
0.0410611
0.0410792
0.0411043
0.0411261
0.041141
0.0411495
0.0411534
0.0411545
0.0411538
0.0411495
0.0411415
0.0411339
0.0411286
0.041125
0.0411228
0.0411219
0.041122
0.0411219
0.0411206
0.0411173
0.0411118
0.0411059
0.0411017
0.0410997
0.0410999
0.041102
0.0411048
0.0411076
0.0411104
0.0411144
0.0411216
0.0411332
0.0411468
0.0411597
0.0411711
0.0411815
0.0411925
0.0412056
0.0412199
0.041233
0.0412436
0.0412521
0.0412601
0.0412686
0.0412771
0.041284
0.0412885
0.0412914
0.0412943
0.0412977
0.0413009
0.0413023
0.0413018
0.0413002
0.0412991
0.0412991
0.0412991
0.041299
0.0412995
0.0413
0.0413008
0.0413056
0.0413134
0.0413351
0.0413643
0.0413948
0.041427
0.0414626
0.041498
0.0415303
0.0415656
0.0416001
0.0416374
0.0416738
0.0417139
0.0417581
0.0418036
0.0418477
0.041888
0.0419274
0.0419649
0.0419994
0.0420303
0.0420566
0.0420806
0.0421045
0.042127
0.0421463
0.0421607
0.0421655
0.0421593
0.0421396
0.042113
0.0420897
0.042075
0.0420693
0.0420679
0.0420769
0.0420737
0.0420117
0.0417001
0.0411706
0.0411825
0.0411807
0.0411813
0.0411816
0.0411816
0.0411815
0.0411815
0.0411815
0.0411815
0.0411814
0.0411805
0.0411759
0.0411655
0.0411521
0.0411397
0.0411308
0.0411256
0.0411233
0.041123
0.0411277
0.0411458
0.041171
0.0411928
0.0412076
0.0412161
0.0412199
0.041221
0.0412203
0.041216
0.0412079
0.0412003
0.0411949
0.0411913
0.0411891
0.0411881
0.0411882
0.0411881
0.0411867
0.0411834
0.0411779
0.0411721
0.041168
0.0411662
0.0411665
0.0411687
0.0411717
0.0411745
0.0411774
0.0411813
0.0411882
0.0411993
0.0412123
0.0412245
0.041235
0.0412444
0.0412543
0.0412662
0.0412792
0.0412909
0.0412999
0.0413067
0.0413131
0.0413199
0.0413268
0.041332
0.0413347
0.0413359
0.041337
0.0413388
0.0413402
0.0413399
0.0413377
0.0413345
0.0413315
0.0413294
0.0413277
0.0413258
0.0413244
0.0413226
0.0413211
0.0413248
0.041331
0.0413505
0.041378
0.041403
0.041431
0.041467
0.041504
0.0415381
0.0415759
0.0416133
0.0416506
0.0416893
0.041732
0.041778
0.0418227
0.0418658
0.0419044
0.0419419
0.0419772
0.0420094
0.0420382
0.0420626
0.0420849
0.0421074
0.0421284
0.0421469
0.0421611
0.0421667
0.0421622
0.0421444
0.0421187
0.0420949
0.0420793
0.0420726
0.0420696
0.0420752
0.0420637
0.041987
0.0416619
0.0412419
0.0412545
0.0412526
0.0412531
0.0412534
0.0412534
0.0412534
0.0412533
0.0412533
0.0412533
0.0412533
0.0412524
0.0412477
0.0412372
0.0412237
0.0412113
0.0412023
0.0411971
0.0411949
0.0411945
0.0411992
0.0412174
0.0412426
0.0412644
0.0412792
0.0412876
0.0412915
0.0412926
0.0412918
0.0412874
0.0412793
0.0412716
0.0412662
0.0412626
0.0412603
0.0412593
0.0412593
0.0412592
0.0412579
0.0412545
0.0412491
0.0412434
0.0412395
0.0412378
0.0412383
0.0412407
0.0412438
0.0412467
0.0412496
0.0412533
0.0412599
0.0412705
0.0412828
0.0412941
0.0413036
0.0413118
0.0413205
0.0413311
0.0413427
0.0413529
0.0413602
0.0413652
0.0413698
0.0413749
0.04138
0.0413834
0.0413843
0.0413836
0.0413829
0.0413828
0.0413824
0.0413803
0.0413763
0.0413714
0.0413665
0.0413622
0.0413584
0.0413546
0.0413512
0.0413471
0.0413432
0.0413455
0.0413499
0.0413681
0.0413938
0.0414111
0.0414371
0.0414745
0.0415143
0.0415512
0.0415908
0.0416283
0.0416664
0.0417071
0.0417508
0.0417963
0.0418401
0.0418819
0.0419189
0.0419544
0.0419877
0.0420178
0.0420445
0.0420672
0.0420881
0.0421092
0.0421292
0.0421468
0.0421609
0.0421672
0.0421643
0.0421488
0.0421241
0.0420999
0.0420835
0.0420758
0.042071
0.0420729
0.042053
0.0419614
0.041623
0.0413184
0.0413317
0.0413296
0.0413302
0.0413305
0.0413305
0.0413304
0.0413304
0.0413303
0.0413303
0.0413303
0.0413294
0.0413246
0.0413141
0.0413005
0.041288
0.041279
0.0412738
0.0412715
0.0412712
0.0412759
0.0412942
0.0413194
0.0413412
0.041356
0.0413644
0.0413682
0.0413693
0.0413685
0.041364
0.0413558
0.0413481
0.0413426
0.041339
0.0413366
0.0413356
0.0413357
0.0413355
0.0413342
0.0413309
0.0413256
0.04132
0.0413163
0.0413148
0.0413155
0.0413181
0.0413213
0.0413243
0.0413272
0.0413307
0.0413368
0.0413468
0.0413583
0.0413687
0.0413771
0.041384
0.0413914
0.0414006
0.0414106
0.0414191
0.0414246
0.0414277
0.0414303
0.0414336
0.0414369
0.0414384
0.0414374
0.0414347
0.0414321
0.0414302
0.0414278
0.0414237
0.0414178
0.0414111
0.0414044
0.0413978
0.0413919
0.0413861
0.0413806
0.0413743
0.0413678
0.0413681
0.0413703
0.0413852
0.0414102
0.0414186
0.0414466
0.0414874
0.0415298
0.0415682
0.041608
0.0416458
0.0416838
0.0417256
0.0417691
0.0418132
0.0418554
0.0418958
0.0419314
0.0419653
0.0419968
0.0420249
0.0420496
0.0420707
0.0420904
0.0421104
0.0421292
0.0421461
0.0421601
0.042167
0.0421658
0.0421527
0.0421293
0.0421049
0.0420874
0.0420786
0.0420721
0.0420698
0.0420418
0.041935
0.041583
0.0414003
0.0414142
0.0414119
0.0414126
0.0414129
0.0414129
0.0414128
0.0414128
0.0414128
0.0414128
0.0414127
0.0414118
0.041407
0.0413963
0.0413827
0.0413702
0.0413611
0.0413558
0.0413536
0.0413533
0.041358
0.0413763
0.0414016
0.0414234
0.0414382
0.0414466
0.0414504
0.0414514
0.0414506
0.0414461
0.0414378
0.0414301
0.0414245
0.0414207
0.0414184
0.0414173
0.0414174
0.0414173
0.041416
0.0414128
0.0414076
0.0414022
0.0413988
0.0413975
0.0413984
0.0414012
0.0414046
0.0414077
0.0414104
0.0414136
0.0414193
0.0414285
0.041439
0.0414484
0.0414556
0.0414611
0.0414671
0.0414747
0.0414831
0.0414897
0.0414932
0.0414943
0.0414949
0.0414963
0.0414976
0.0414972
0.0414941
0.0414893
0.0414848
0.0414809
0.0414766
0.0414703
0.0414624
0.0414539
0.0414453
0.0414364
0.041428
0.04142
0.0414122
0.0414034
0.0413939
0.0413916
0.0413917
0.0414056
0.0414256
0.0414291
0.0414613
0.0415055
0.0415495
0.0415886
0.0416275
0.0416648
0.0417027
0.0417446
0.0417855
0.0418279
0.0418689
0.041908
0.0419422
0.0419747
0.0420046
0.0420308
0.0420537
0.0420734
0.0420919
0.0421108
0.0421286
0.0421446
0.0421585
0.0421662
0.0421664
0.0421557
0.0421339
0.0421096
0.0420912
0.0420813
0.0420726
0.0420657
0.0420302
0.0419084
0.0415429
0.0414879
0.0415023
0.0414999
0.0415005
0.0415009
0.0415009
0.0415008
0.0415008
0.0415007
0.0415007
0.0415007
0.0414997
0.0414949
0.0414841
0.0414704
0.0414578
0.0414487
0.0414435
0.0414412
0.0414409
0.0414457
0.041464
0.0414893
0.0415111
0.0415259
0.0415343
0.0415381
0.0415391
0.0415383
0.0415337
0.0415254
0.0415176
0.0415119
0.0415081
0.0415057
0.0415046
0.0415047
0.0415046
0.0415035
0.0415004
0.0414953
0.0414902
0.041487
0.041486
0.0414872
0.0414903
0.0414939
0.0414969
0.0414995
0.0415024
0.0415074
0.0415157
0.0415252
0.0415334
0.0415392
0.0415433
0.0415476
0.0415536
0.0415602
0.0415649
0.0415663
0.0415653
0.0415637
0.041563
0.0415624
0.0415599
0.0415546
0.0415478
0.0415412
0.0415353
0.0415288
0.0415205
0.0415105
0.0414999
0.0414892
0.0414781
0.0414671
0.0414568
0.0414468
0.0414358
0.0414234
0.0414174
0.0414157
0.0414229
0.041441
0.0414441
0.041482
0.0415289
0.0415727
0.0416114
0.0416489
0.041686
0.041721
0.0417616
0.0418005
0.0418412
0.041881
0.041919
0.0419523
0.0419833
0.0420112
0.0420355
0.0420569
0.0420753
0.0420928
0.0421106
0.0421274
0.0421425
0.0421562
0.0421646
0.0421661
0.0421579
0.0421379
0.0421138
0.0420943
0.0420831
0.0420724
0.0420602
0.0420178
0.041882
0.0415026
0.0415811
0.0415961
0.0415935
0.0415942
0.0415946
0.0415946
0.0415945
0.0415945
0.0415944
0.0415944
0.0415944
0.0415934
0.0415885
0.0415776
0.0415638
0.0415512
0.0415421
0.0415368
0.0415345
0.0415342
0.041539
0.0415574
0.0415828
0.0416046
0.0416194
0.0416278
0.0416316
0.0416326
0.0416317
0.0416271
0.0416187
0.0416108
0.041605
0.0416012
0.0415987
0.0415977
0.0415977
0.0415978
0.0415967
0.0415937
0.0415889
0.0415841
0.0415813
0.0415806
0.041582
0.0415854
0.0415891
0.0415922
0.0415946
0.041597
0.0416012
0.0416085
0.0416169
0.0416238
0.0416281
0.0416306
0.0416332
0.0416373
0.0416421
0.0416447
0.0416439
0.0416406
0.0416368
0.0416341
0.0416313
0.0416266
0.0416191
0.0416101
0.0416014
0.0415934
0.0415848
0.0415743
0.0415621
0.0415495
0.0415367
0.0415232
0.0415096
0.0414966
0.0414841
0.0414705
0.0414547
0.0414444
0.0414444
0.0414475
0.0414557
0.0414652
0.0415081
0.0415563
0.0415986
0.0416363
0.0416714
0.0417065
0.0417388
0.0417782
0.0418149
0.0418542
0.041893
0.0419299
0.041962
0.0419914
0.0420173
0.0420396
0.0420594
0.0420766
0.0420932
0.04211
0.0421256
0.0421399
0.0421531
0.042162
0.0421648
0.042159
0.0421407
0.0421175
0.0420971
0.0420842
0.0420713
0.0420535
0.0420036
0.0418566
0.0414625
0.0416803
0.0416956
0.0416929
0.0416937
0.0416941
0.0416941
0.041694
0.041694
0.041694
0.041694
0.0416939
0.0416929
0.0416879
0.041677
0.0416631
0.0416504
0.0416412
0.0416359
0.0416336
0.0416333
0.0416382
0.0416566
0.0416821
0.0417039
0.0417187
0.0417271
0.0417308
0.0417319
0.041731
0.0417263
0.0417178
0.0417098
0.041704
0.0417001
0.0416976
0.0416965
0.0416966
0.0416968
0.0416958
0.041693
0.0416885
0.0416841
0.0416816
0.0416812
0.041683
0.0416867
0.0416905
0.0416935
0.0416956
0.0416975
0.0417008
0.041707
0.0417141
0.0417196
0.0417223
0.041723
0.0417237
0.041726
0.0417287
0.0417292
0.0417261
0.0417203
0.0417143
0.0417094
0.0417044
0.0416974
0.0416877
0.0416765
0.0416656
0.0416555
0.0416447
0.0416319
0.0416175
0.0416026
0.0415877
0.0415718
0.0415555
0.0415398
0.0415247
0.0415085
0.041489
0.0414728
0.0414693
0.0414714
0.041474
0.0414927
0.0415393
0.0415874
0.0416267
0.0416629
0.0416949
0.0417281
0.0417565
0.0417948
0.0418296
0.0418673
0.0419048
0.0419405
0.0419713
0.0419991
0.0420229
0.0420432
0.0420613
0.0420775
0.0420931
0.0421088
0.0421234
0.0421369
0.0421495
0.0421585
0.0421625
0.0421588
0.0421426
0.0421201
0.042099
0.0420845
0.0420692
0.0420455
0.041987
0.0418314
0.0414224
0.0417854
0.0418011
0.0417982
0.0417991
0.0417994
0.0417994
0.0417994
0.0417993
0.0417993
0.0417993
0.0417993
0.0417983
0.0417932
0.0417821
0.0417681
0.0417554
0.0417462
0.0417409
0.0417386
0.0417383
0.0417432
0.0417617
0.0417872
0.0418091
0.0418239
0.0418322
0.041836
0.041837
0.0418361
0.0418314
0.0418228
0.0418148
0.0418088
0.0418048
0.0418023
0.0418013
0.0418014
0.0418017
0.0418009
0.0417983
0.0417941
0.0417902
0.0417881
0.041788
0.0417902
0.0417942
0.0417981
0.041801
0.0418027
0.0418038
0.0418062
0.0418111
0.0418168
0.0418207
0.0418217
0.0418205
0.0418193
0.0418196
0.0418201
0.0418183
0.0418128
0.0418045
0.0417963
0.0417891
0.0417819
0.0417726
0.0417605
0.041747
0.041734
0.0417217
0.0417086
0.0416935
0.0416768
0.0416597
0.0416425
0.0416243
0.0416052
0.0415866
0.0415686
0.0415494
0.0415264
0.0415053
0.0415022
0.0414966
0.0414984
0.0415252
0.0415743
0.0416214
0.0416569
0.0416907
0.0417192
0.0417493
0.0417751
0.0418111
0.0418438
0.0418801
0.0419164
0.0419507
0.0419802
0.0420062
0.042028
0.0420464
0.042063
0.042078
0.0420928
0.0421074
0.042121
0.0421334
0.0421452
0.0421542
0.042159
0.0421573
0.0421432
0.0421219
0.0421002
0.0420838
0.042066
0.0420367
0.0419687
0.0418056
0.0413825
0.0418964
0.0419124
0.0419094
0.0419103
0.0419107
0.0419107
0.0419106
0.0419106
0.0419106
0.0419106
0.0419105
0.0419095
0.0419043
0.0418932
0.0418791
0.0418662
0.041857
0.0418517
0.0418494
0.0418491
0.041854
0.0418727
0.0418982
0.0419201
0.0419349
0.0419433
0.0419471
0.0419481
0.0419472
0.0419423
0.0419337
0.0419256
0.0419196
0.0419155
0.041913
0.0419119
0.0419122
0.0419126
0.041912
0.0419097
0.0419058
0.0419023
0.0419007
0.0419009
0.0419035
0.0419079
0.0419118
0.0419144
0.0419157
0.041916
0.0419172
0.0419207
0.0419248
0.041927
0.0419262
0.0419231
0.0419198
0.041918
0.0419163
0.0419121
0.041904
0.0418933
0.0418826
0.0418732
0.0418637
0.0418521
0.0418376
0.0418218
0.0418066
0.041792
0.0417767
0.0417593
0.0417402
0.0417209
0.0417013
0.0416806
0.0416588
0.0416373
0.0416162
0.0415934
0.0415654
0.041537
0.0415395
0.0415215
0.0415286
0.0415628
0.0416125
0.0416577
0.0416886
0.0417194
0.0417444
0.0417705
0.0417942
0.0418275
0.0418582
0.041893
0.041928
0.0419608
0.0419888
0.042013
0.0420327
0.0420493
0.0420645
0.0420782
0.0420922
0.0421057
0.0421183
0.0421297
0.0421405
0.0421489
0.0421543
0.042154
0.0421421
0.0421222
0.0421005
0.0420822
0.0420615
0.0420269
0.0419495
0.041778
0.0413426
0.0420134
0.0420295
0.0420263
0.0420272
0.0420277
0.0420277
0.0420276
0.0420276
0.0420276
0.0420276
0.0420275
0.0420265
0.0420212
0.04201
0.0419958
0.0419829
0.0419736
0.0419682
0.041966
0.0419657
0.0419707
0.0419894
0.042015
0.0420369
0.0420517
0.0420601
0.0420639
0.0420649
0.042064
0.0420591
0.0420504
0.0420422
0.0420361
0.042032
0.0420294
0.0420285
0.0420288
0.0420293
0.042029
0.042027
0.0420235
0.0420206
0.0420193
0.0420199
0.042023
0.0420276
0.0420314
0.0420338
0.0420345
0.0420338
0.0420336
0.0420356
0.042038
0.0420385
0.0420357
0.0420304
0.0420251
0.0420211
0.0420171
0.0420104
0.0419997
0.0419864
0.0419734
0.0419617
0.0419499
0.0419358
0.041919
0.0419009
0.0418834
0.0418666
0.041849
0.0418292
0.0418079
0.0417863
0.0417644
0.0417413
0.0417168
0.041692
0.0416675
0.0416409
0.0416098
0.0415755
0.0415837
0.0415491
0.0415661
0.0416041
0.041653
0.0416958
0.0417216
0.0417487
0.04177
0.0417916
0.0418137
0.041844
0.0418726
0.0419058
0.0419395
0.0419707
0.0419972
0.0420195
0.0420372
0.0420519
0.0420657
0.0420784
0.0420914
0.0421039
0.0421155
0.0421256
0.0421352
0.042143
0.0421487
0.0421492
0.0421395
0.0421209
0.0420995
0.0420793
0.0420556
0.042016
0.0419305
0.0417487
0.0413029
0.0421361
0.0421522
0.0421488
0.0421498
0.0421503
0.0421503
0.0421503
0.0421502
0.0421502
0.0421502
0.0421502
0.0421491
0.0421438
0.0421324
0.0421181
0.0421051
0.0420958
0.0420904
0.0420882
0.0420879
0.0420929
0.0421117
0.0421373
0.0421593
0.0421742
0.0421825
0.0421863
0.0421874
0.0421864
0.0421815
0.0421727
0.0421644
0.0421582
0.0421541
0.0421516
0.0421507
0.0421511
0.0421519
0.0421517
0.0421501
0.0421471
0.0421446
0.0421438
0.0421448
0.0421483
0.042153
0.0421567
0.0421587
0.0421588
0.0421569
0.0421552
0.0421555
0.0421562
0.0421548
0.0421499
0.0421424
0.0421349
0.0421286
0.0421222
0.0421129
0.0420996
0.0420839
0.0420685
0.0420544
0.0420403
0.0420239
0.0420047
0.0419843
0.0419646
0.0419456
0.0419257
0.0419036
0.0418799
0.0418561
0.0418319
0.0418063
0.041779
0.0417511
0.0417223
0.0416901
0.0416527
0.0416127
0.0416261
0.0415837
0.0416096
0.0416486
0.0416953
0.0417353
0.0417559
0.0417788
0.0417963
0.0418136
0.0418341
0.0418612
0.0418878
0.0419194
0.0419514
0.0419808
0.0420054
0.0420258
0.0420415
0.0420545
0.0420669
0.0420784
0.0420905
0.0421019
0.0421124
0.0421213
0.0421295
0.0421363
0.042142
0.0421429
0.0421349
0.042118
0.0420974
0.0420754
0.0420482
0.0420028
0.0419113
0.0417177
0.0412642
0.0422644
0.0422802
0.0422767
0.0422778
0.0422783
0.0422783
0.0422783
0.0422783
0.0422783
0.0422783
0.0422782
0.0422771
0.0422717
0.0422602
0.0422457
0.0422327
0.0422233
0.042218
0.0422157
0.0422155
0.0422205
0.0422394
0.0422651
0.0422871
0.042302
0.0423104
0.0423142
0.0423152
0.0423143
0.0423093
0.0423004
0.042292
0.0422858
0.0422816
0.0422792
0.0422784
0.042279
0.0422799
0.0422801
0.0422789
0.0422763
0.0422744
0.0422739
0.0422753
0.0422792
0.042284
0.0422874
0.042289
0.0422881
0.0422849
0.0422815
0.04228
0.0422789
0.0422754
0.0422684
0.0422587
0.0422489
0.0422403
0.0422315
0.0422196
0.0422037
0.0421854
0.0421676
0.0421513
0.0421348
0.0421161
0.0420946
0.042072
0.0420501
0.0420289
0.0420067
0.0419823
0.0419564
0.0419303
0.0419039
0.0418759
0.0418461
0.0418146
0.0417814
0.0417446
0.0417024
0.0416602
0.0416687
0.0416255
0.0416571
0.0416961
0.0417395
0.0417761
0.0417923
0.041811
0.0418241
0.0418371
0.0418556
0.0418794
0.0419034
0.0419333
0.0419637
0.041991
0.0420136
0.042032
0.0420457
0.0420571
0.0420681
0.0420784
0.0420895
0.0420998
0.0421091
0.0421166
0.0421234
0.0421291
0.0421344
0.0421353
0.0421284
0.042113
0.0420933
0.0420699
0.0420391
0.0419881
0.0418913
0.0416855
0.0412256
0.0423979
0.0424134
0.0424096
0.0424108
0.0424114
0.0424114
0.0424114
0.0424114
0.0424114
0.0424114
0.0424113
0.0424102
0.0424046
0.042393
0.0423784
0.0423653
0.0423559
0.0423505
0.0423483
0.0423481
0.0423532
0.0423721
0.0423979
0.04242
0.0424349
0.0424433
0.0424471
0.0424481
0.0424472
0.0424421
0.0424331
0.0424247
0.0424184
0.0424143
0.042412
0.0424113
0.0424121
0.0424132
0.0424137
0.0424129
0.0424109
0.0424093
0.0424093
0.042411
0.0424152
0.04242
0.0424231
0.042424
0.0424221
0.0424173
0.0424122
0.0424087
0.0424057
0.0424001
0.0423908
0.0423789
0.0423668
0.0423558
0.0423445
0.0423301
0.0423115
0.0422907
0.0422706
0.042252
0.0422333
0.0422123
0.0421885
0.0421637
0.0421397
0.0421164
0.042092
0.0420654
0.0420373
0.042009
0.0419804
0.0419502
0.0419177
0.0418823
0.0418434
0.0417985
0.0417512
0.0417182
0.0417076
0.0416736
0.0417086
0.0417465
0.0417861
0.0418184
0.0418314
0.0418461
0.0418543
0.0418632
0.0418789
0.0418991
0.0419203
0.0419481
0.0419765
0.0420015
0.0420218
0.0420382
0.04205
0.0420597
0.0420694
0.0420784
0.0420885
0.0420974
0.0421056
0.0421116
0.0421169
0.0421214
0.0421261
0.0421267
0.0421203
0.0421059
0.0420873
0.0420625
0.0420276
0.041972
0.0418692
0.0416524
0.0411877
0.0425362
0.0425513
0.0425473
0.0425484
0.0425491
0.0425492
0.0425491
0.0425491
0.0425491
0.0425491
0.042549
0.0425479
0.0425423
0.0425305
0.0425158
0.0425026
0.0424932
0.0424878
0.0424856
0.0424853
0.0424905
0.0425095
0.0425354
0.0425576
0.0425725
0.0425809
0.0425847
0.0425857
0.0425848
0.0425796
0.0425705
0.042562
0.0425558
0.0425517
0.0425495
0.042549
0.04255
0.0425514
0.0425522
0.0425518
0.0425503
0.0425492
0.0425494
0.0425515
0.0425559
0.0425605
0.0425631
0.0425633
0.0425601
0.0425536
0.0425466
0.0425411
0.042536
0.0425283
0.0425167
0.0425025
0.0424881
0.0424747
0.0424609
0.0424439
0.0424228
0.0423996
0.0423772
0.0423564
0.0423355
0.0423123
0.0422864
0.0422595
0.0422334
0.042208
0.0421815
0.0421528
0.0421226
0.0420923
0.0420617
0.0420293
0.0419942
0.0419549
0.041911
0.0418594
0.0418038
0.0417846
0.0417475
0.0417278
0.0417628
0.0418002
0.0418357
0.0418628
0.0418739
0.041885
0.0418878
0.0418925
0.0419045
0.0419206
0.0419386
0.0419637
0.0419898
0.0420122
0.04203
0.0420443
0.0420542
0.0420624
0.0420707
0.0420785
0.0420872
0.0420949
0.0421019
0.0421063
0.0421101
0.0421134
0.0421172
0.0421171
0.0421106
0.042097
0.0420792
0.0420529
0.0420136
0.0419545
0.0418444
0.0416176
0.0411502
0.042679
0.0426934
0.0426891
0.0426902
0.042691
0.0426911
0.0426911
0.0426911
0.0426911
0.0426911
0.042691
0.0426898
0.0426841
0.0426722
0.0426574
0.0426441
0.0426346
0.0426292
0.042627
0.0426268
0.042632
0.0426511
0.0426771
0.0426993
0.0427142
0.0427227
0.0427265
0.0427275
0.0427265
0.0427213
0.0427121
0.0427036
0.0426973
0.0426934
0.0426913
0.042691
0.0426922
0.0426939
0.0426951
0.0426952
0.0426941
0.0426934
0.0426939
0.0426962
0.0427007
0.0427049
0.0427069
0.0427062
0.0427015
0.0426931
0.0426842
0.0426766
0.0426694
0.0426594
0.0426455
0.042629
0.0426123
0.0425965
0.0425802
0.0425607
0.0425372
0.0425116
0.042487
0.042464
0.042441
0.0424157
0.0423877
0.0423589
0.0423309
0.0423036
0.0422751
0.0422444
0.0422123
0.0421801
0.0421475
0.042113
0.0420753
0.0420312
0.0419813
0.0419217
0.0418589
0.0418541
0.0417921
0.0417869
0.0418203
0.0418576
0.0418893
0.0419097
0.04192
0.0419284
0.0419254
0.0419258
0.041933
0.0419446
0.0419585
0.0419804
0.0420038
0.0420231
0.0420382
0.0420504
0.0420584
0.0420652
0.042072
0.0420785
0.0420859
0.0420921
0.0420978
0.0421006
0.0421028
0.0421049
0.0421077
0.0421065
0.0420994
0.0420862
0.0420686
0.0420404
0.0419975
0.0419346
0.0418167
0.0415815
0.0411109
0.0428256
0.0428392
0.0428347
0.0428357
0.0428365
0.0428367
0.0428367
0.0428367
0.0428367
0.0428367
0.0428366
0.0428354
0.0428296
0.0428175
0.0428026
0.0427892
0.0427797
0.0427742
0.0427721
0.0427719
0.0427772
0.0427964
0.0428225
0.0428447
0.0428597
0.0428681
0.0428719
0.042873
0.042872
0.0428667
0.0428574
0.0428488
0.0428426
0.0428388
0.042837
0.0428369
0.0428383
0.0428404
0.0428419
0.0428424
0.0428418
0.0428414
0.0428421
0.0428446
0.0428489
0.0428525
0.0428539
0.042852
0.0428455
0.0428353
0.0428243
0.0428146
0.0428052
0.0427929
0.0427766
0.0427578
0.0427389
0.0427208
0.0427021
0.0426802
0.0426542
0.0426264
0.0425997
0.0425747
0.0425497
0.0425224
0.0424925
0.0424618
0.042432
0.0424029
0.0423725
0.04234
0.0423061
0.0422722
0.0422379
0.0422014
0.0421611
0.0421125
0.042058
0.0419907
0.0419194
0.0419234
0.0418441
0.0418498
0.0418813
0.0419186
0.0419475
0.0419601
0.0419696
0.0419756
0.0419678
0.0419634
0.041965
0.0419716
0.0419807
0.0419983
0.0420184
0.0420343
0.0420465
0.0420565
0.0420627
0.042068
0.0420734
0.0420785
0.0420844
0.0420891
0.0420935
0.0420946
0.0420951
0.042096
0.0420976
0.0420949
0.042087
0.0420737
0.0420556
0.0420254
0.0419791
0.0419115
0.0417853
0.0415426
0.0410707
0.0429756
0.0429883
0.0429834
0.0429843
0.0429851
0.0429854
0.0429854
0.0429854
0.0429854
0.0429854
0.0429853
0.0429841
0.0429782
0.0429659
0.0429509
0.0429374
0.0429278
0.0429224
0.0429202
0.0429201
0.0429254
0.0429448
0.0429709
0.0429932
0.0430082
0.0430166
0.0430205
0.0430215
0.0430205
0.0430151
0.0430057
0.0429971
0.042991
0.0429874
0.0429858
0.0429859
0.0429877
0.0429901
0.042992
0.0429929
0.0429927
0.0429925
0.0429933
0.0429958
0.0429998
0.0430027
0.0430032
0.0429999
0.0429915
0.0429793
0.0429663
0.0429544
0.0429427
0.0429282
0.0429095
0.0428885
0.0428673
0.0428469
0.0428258
0.0428016
0.0427734
0.0427434
0.0427147
0.0426878
0.0426609
0.0426318
0.0426001
0.0425677
0.0425362
0.0425055
0.0424735
0.0424393
0.0424039
0.0423686
0.0423326
0.0422943
0.042251
0.0421984
0.0421362
0.0420661
0.0419888
0.0419899
0.0419027
0.0419155
0.0419461
0.0419838
0.0420107
0.042015
0.042023
0.0420273
0.0420148
0.0420054
0.0420011
0.0420021
0.0420055
0.0420176
0.0420338
0.0420458
0.0420548
0.0420625
0.042067
0.0420709
0.0420748
0.0420785
0.0420827
0.0420859
0.0420888
0.0420881
0.042087
0.0420867
0.0420868
0.0420826
0.0420734
0.0420595
0.0420403
0.0420079
0.0419578
0.041885
0.0417508
0.0415008
0.0410275
0.0431282
0.0431399
0.0431346
0.0431353
0.0431362
0.0431366
0.0431366
0.0431366
0.0431366
0.0431366
0.0431365
0.0431352
0.0431292
0.0431168
0.0431016
0.0430881
0.0430784
0.043073
0.0430708
0.0430707
0.0430761
0.0430956
0.0431218
0.0431442
0.0431592
0.0431676
0.0431715
0.0431725
0.0431715
0.043166
0.0431566
0.043148
0.043142
0.0431386
0.0431373
0.0431377
0.0431397
0.0431425
0.0431448
0.043146
0.0431462
0.043146
0.0431469
0.0431492
0.0431526
0.0431547
0.0431541
0.0431492
0.0431387
0.0431246
0.0431095
0.0430954
0.0430814
0.0430645
0.0430436
0.0430203
0.042997
0.0429744
0.0429511
0.0429247
0.0428944
0.0428625
0.0428318
0.0428032
0.0427746
0.0427438
0.0427105
0.0426765
0.0426436
0.0426113
0.0425778
0.0425422
0.0425055
0.0424688
0.0424315
0.0423913
0.0423447
0.0422887
0.0422199
0.0421464
0.0420678
0.0420539
0.0419682
0.0419848
0.0420153
0.0420526
0.0420784
0.0420752
0.0420824
0.0420827
0.0420662
0.042052
0.0420417
0.0420367
0.0420339
0.0420389
0.0420502
0.0420577
0.0420633
0.0420687
0.0420714
0.042074
0.0420762
0.0420785
0.042081
0.0420825
0.0420837
0.0420814
0.0420784
0.042077
0.0420754
0.0420695
0.0420588
0.042044
0.0420229
0.041988
0.0419335
0.0418549
0.0417126
0.0414562
0.0409819
0.0432829
0.0432935
0.0432878
0.0432882
0.0432891
0.0432896
0.0432897
0.0432897
0.0432897
0.0432897
0.0432896
0.0432882
0.0432821
0.0432696
0.0432542
0.0432406
0.0432309
0.0432254
0.0432233
0.0432232
0.0432287
0.0432482
0.0432746
0.043297
0.043312
0.0433205
0.0433243
0.0433254
0.0433243
0.0433188
0.0433092
0.0433007
0.0432949
0.0432918
0.0432907
0.0432914
0.0432937
0.0432969
0.0432995
0.0433011
0.0433015
0.0433014
0.043302
0.043304
0.0433066
0.0433078
0.0433059
0.043299
0.0432865
0.0432703
0.0432533
0.0432369
0.0432206
0.0432014
0.0431782
0.0431528
0.0431274
0.0431027
0.0430773
0.0430488
0.0430165
0.0429827
0.0429502
0.0429199
0.0428897
0.0428574
0.0428226
0.0427872
0.042753
0.0427195
0.0426849
0.0426482
0.0426104
0.0425726
0.0425341
0.0424923
0.0424422
0.042384
0.0423087
0.0422312
0.0421538
0.0421174
0.0420402
0.042058
0.0420892
0.042125
0.0421507
0.0421398
0.042147
0.042142
0.0421219
0.0421031
0.0420871
0.0420757
0.0420663
0.0420628
0.0420676