/*--------------------------------*- C++ -*----------------------------------*\
| =========                 |                                                 |
| \\      /  F ield         | OpenFOAM: The Open Source CFD Toolbox           |
|  \\    /   O peration     | Version:  2406                                  |
|   \\  /    A nd           | Website:  www.openfoam.com                      |
|    \\/     M anipulation  |                                                 |
\*---------------------------------------------------------------------------*/
FoamFile
{
    version     2.0;
    format      ascii;
    arch        "LSB;label=32;scalar=64";
    class       volScalarField;
    location    "0.025";
    object      p;
}
// * * * * * * * * * * * * * * * * * * * * * * * * * * * * * * * * * * * * * //

dimensions      [1 -1 -2 0 0 0 0];

internalField   nonuniform List<scalar> 
78650
(
2797.09
2814.71
2835.43
2846.22
2846.61
2842.69
2827.51
2809.83
2794.89
2782.36
2772.6
2765.71
2761.8
2758.89
2755.47
2750.86
2745.54
2740.57
2736.38
2732.66
2729.05
2725.55
2722.21
2719.06
2716.12
2713.42
2710.97
2708.74
2706.74
2704.98
2703.48
2702.24
2701.18
2700.25
2699.4
2698.64
2697.99
2697.41
2696.81
2696.11
2695.3
2694.33
2693.21
2691.92
2690.45
2688.81
2687.03
2685.13
2683.1
2680.92
2678.54
2675.93
2673.03
2669.8
2666.2
2662.21
2657.77
2652.85
2647.38
2641.31
2634.58
2627.13
2618.89
2609.78
2599.74
2588.68
2576.53
2563.2
2548.64
2532.74
2515.43
2496.61
2476.16
2454.06
2430.28
2404.78
2377.57
2348.54
2317.58
2284.77
2250.14
2213.92
2176.18
2136.86
2095.69
2052.83
2008.31
1963.79
1918.38
1872.35
1825.33
1777.55
1732.71
1688.28
1643.56
1599.86
1556.57
1513.61
1474.74
1438.54
1402.95
1370.03
1340.31
1312.13
1285.8
1260.85
1238.32
1216.62
1195.87
1175.8
1157.22
1140.32
1125.34
1111.51
1098.32
1085.78
1074.13
1063.24
1053.82
1045.7
1031.35
2794.92
2810.61
2832.57
2846.06
2847.69
2845.48
2832.51
2815.04
2799.53
2786.41
2776.13
2768.86
2764.87
2762.26
2759.37
2755.29
2750.28
2745.37
2741.18
2737.5
2733.96
2730.52
2727.26
2724.21
2721.4
2718.86
2716.57
2714.52
2712.71
2711.14
2709.84
2708.79
2707.94
2707.22
2706.58
2706.03
2705.6
2705.25
2704.89
2704.47
2703.92
2703.25
2702.44
2701.48
2700.36
2699.09
2697.7
2696.22
2694.63
2692.93
2691.06
2689
2686.7
2684.1
2681.19
2677.92
2674.25
2670.16
2665.57
2660.45
2654.73
2648.37
2641.29
2633.42
2624.67
2615.02
2604.36
2592.65
2579.77
2565.59
2550.05
2533.11
2514.67
2494.71
2473.1
2449.73
2424.6
2397.69
2368.95
2338.41
2306.01
2271.77
2235.75
2198.24
2159.32
2119.3
2077.94
2034.7
1989.64
1943.87
1898.85
1853.36
1807.97
1762.82
1717.22
1671.56
1628.66
1586.75
1545
1504.67
1466.72
1430.64
1394.68
1360.35
1329.2
1300.14
1274.03
1249.08
1225.31
1202.95
1182.27
1163.1
1145.72
1129.56
1114.42
1100.32
1086.9
1074.46
1063.62
1054.3
1035.97
2793.23
2806.52
2828.92
2845.31
2848.65
2847.81
2837.5
2820.46
2804.24
2790.46
2779.72
2772.14
2768.06
2765.71
2763.33
2759.81
2755.14
2750.29
2746.05
2742.4
2738.93
2735.56
2732.39
2729.46
2726.79
2724.41
2722.3
2720.45
2718.83
2717.46
2716.36
2715.5
2714.85
2714.33
2713.9
2713.56
2713.34
2713.22
2713.11
2712.95
2712.68
2712.29
2711.78
2711.15
2710.39
2709.49
2708.5
2707.43
2706.29
2705.05
2703.7
2702.19
2700.46
2698.5
2696.25
2693.68
2690.77
2687.47
2683.75
2679.54
2674.79
2669.46
2663.48
2656.77
2649.28
2640.95
2631.68
2621.42
2610.08
2597.55
2583.78
2568.7
2552.19
2534.19
2514.61
2493.39
2470.55
2446.01
2419.65
2391.42
2361.28
2329.34
2295.79
2260.67
2223.78
2185.22
2144.84
2103.17
2059.92
2016.16
1971.49
1925.69
1879.23
1832.36
1786.82
1741.19
1696.16
1652.24
1609.08
1567.05
1524.5
1485.3
1450
1415.5
1383.1
1351.24
1321.7
1293.21
1266.25
1241.08
1218.31
1196.84
1176.6
1157.18
1138.88
1121.98
1106.06
1091.18
1077.78
1066.09
1043.13
2791.95
2802.56
2824.53
2843.75
2849.37
2850
2842.39
2826.1
2809.1
2794.67
2783.54
2775.66
2771.43
2769.3
2767.39
2764.41
2760.14
2755.35
2751.05
2747.4
2743.99
2740.71
2737.65
2734.85
2732.35
2730.14
2728.22
2726.56
2725.14
2723.96
2723.04
2722.37
2721.91
2721.59
2721.35
2721.21
2721.2
2721.3
2721.44
2721.52
2721.52
2721.42
2721.21
2720.9
2720.48
2719.95
2719.33
2718.66
2717.94
2717.17
2716.3
2715.32
2714.16
2712.79
2711.19
2709.3
2707.12
2704.6
2701.7
2698.38
2694.57
2690.25
2685.35
2679.8
2673.54
2666.51
2658.64
2649.86
2640.11
2629.27
2617.27
2604.02
2589.43
2573.48
2556.04
2537
2516.36
2494.02
2469.92
2444.07
2416.38
2386.81
2355.38
2322.09
2287.03
2250.6
2212.64
2173.23
2132.21
2089.04
2044.15
1998.56
1953.25
1907.28
1861.29
1814.17
1768.04
1722.37
1676.03
1631.72
1589.33
1546.76
1506.95
1468.52
1433.31
1399.38
1367.19
1336.78
1308.79
1282.94
1259.3
1236.96
1215.49
1194.62
1174.83
1156.66
1140.4
1125.25
1111.19
1098.14
1073.99
2791.08
2798.97
2819.49
2841.23
2849.73
2852.03
2846.89
2831.72
2814.08
2799.13
2787.65
2779.46
2775.02
2773.04
2771.53
2769.1
2765.26
2760.57
2756.17
2752.51
2749.17
2746.01
2743.08
2740.45
2738.12
2736.1
2734.38
2732.93
2731.7
2730.7
2729.97
2729.48
2729.22
2729.09
2729.05
2729.09
2729.28
2729.59
2729.97
2730.31
2730.57
2730.74
2730.83
2730.84
2730.77
2730.6
2730.37
2730.1
2729.81
2729.48
2729.1
2728.63
2728.03
2727.26
2726.28
2725.07
2723.59
2721.83
2719.73
2717.27
2714.38
2711.03
2707.17
2702.72
2697.64
2691.85
2685.29
2677.91
2669.63
2660.35
2650
2638.51
2625.78
2611.76
2596.34
2579.43
2561.03
2541.03
2519.35
2495.93
2470.69
2443.62
2414.78
2384.13
2351.67
2317.45
2281.26
2243.38
2203.69
2162.73
2120.54
2076.94
2032.52
1986.12
1939.73
1891.89
1844.65
1799
1753.83
1708.06
1663.45
1618.73
1576.95
1535.01
1493.89
1454.67
1417.22
1382.65
1350.45
1319.5
1289.9
1262.11
1236.49
1213.07
1191.44
1172.13
1155.48
1140.19
1126.15
1113.87
1087.13
2790.54
2795.91
2813.95
2837.66
2849.8
2853.9
2850.66
2837.27
2819.46
2804.07
2792.17
2783.6
2778.85
2776.94
2775.76
2773.82
2770.44
2765.91
2761.43
2757.75
2754.5
2751.49
2748.73
2746.28
2744.15
2742.33
2740.8
2739.54
2738.5
2737.7
2737.13
2736.82
2736.73
2736.78
2736.93
2737.17
2737.54
2738.05
2738.66
2739.26
2739.78
2740.23
2740.61
2740.93
2741.19
2741.38
2741.53
2741.65
2741.77
2741.88
2741.96
2741.99
2741.93
2741.72
2741.36
2740.8
2740.01
2738.97
2737.66
2736.03
2734.02
2731.62
2728.76
2725.39
2721.47
2716.91
2711.66
2705.68
2698.88
2691.18
2682.52
2672.8
2661.93
2649.87
2636.52
2621.76
2605.56
2587.79
2568.4
2547.41
2524.69
2500.15
2473.72
2445.36
2415.12
2383.14
2349.41
2314.15
2277.1
2238.4
2197.73
2155.4
2111.56
2065.94
2019.94
1974.44
1927.43
1879.41
1832.28
1785.52
1740.26
1693.41
1647.83
1605.82
1564.79
1525.67
1487.36
1451.32
1417.59
1385.1
1353.69
1322.94
1294.28
1267.08
1241.47
1217.06
1194.17
1173.09
1154.99
1138.8
1105.01
2790.24
2793.55
2808.27
2832.86
2849.3
2855.34
2853.42
2842.86
2825.38
2809.48
2797.04
2788.04
2782.93
2780.98
2780.01
2778.5
2775.61
2771.32
2766.81
2763.12
2760
2757.16
2754.6
2752.36
2750.44
2748.82
2747.5
2746.43
2745.58
2744.95
2744.54
2744.41
2744.49
2744.73
2745.05
2745.47
2746.03
2746.74
2747.57
2748.42
2749.22
2749.94
2750.61
2751.25
2751.84
2752.38
2752.91
2753.42
2753.95
2754.49
2755.04
2755.56
2756.02
2756.38
2756.61
2756.69
2756.57
2756.24
2755.7
2754.87
2753.72
2752.23
2750.34
2748
2745.17
2741.79
2737.77
2733.1
2727.68
2721.46
2714.36
2706.29
2697.18
2686.98
2675.58
2662.88
2648.85
2633.37
2616.4
2597.89
2577.66
2555.69
2531.97
2506.44
2479.09
2449.86
2418.65
2385.53
2350.43
2313.64
2274.97
2235.03
2193.51
2150.59
2106.39
2060.6
2013.5
1964.94
1917.73
1870.03
1822.45
1775.36
1727.54
1681.98
1636.28
1592.88
1550.06
1509.22
1470.83
1434.37
1400.35
1368.26
1338.84
1311.47
1286.43
1262.16
1238.54
1216.26
1196.97
1180.85
1151.86
2790.09
2791.91
2802.91
2826.8
2847.62
2856.18
2855.54
2848.31
2831.82
2815.38
2802.34
2792.89
2787.31
2785.11
2784.19
2783
2780.65
2776.78
2772.34
2768.68
2765.71
2763.09
2760.74
2758.72
2757.01
2755.59
2754.45
2753.56
2752.88
2752.41
2752.18
2752.19
2752.44
2752.82
2753.32
2753.93
2754.67
2755.58
2756.63
2757.72
2758.78
2759.79
2760.75
2761.69
2762.61
2763.51
2764.39
2765.28
2766.21
2767.17
2768.17
2769.17
2770.14
2771.04
2771.84
2772.52
2773.05
2773.41
2773.58
2773.55
2773.22
2772.63
2771.69
2770.33
2768.59
2766.34
2763.55
2760.18
2756.15
2751.4
2745.87
2739.47
2732.13
2723.79
2714.34
2703.72
2691.85
2678.59
2663.91
2647.77
2630.03
2610.66
2589.56
2566.6
2541.79
2515.12
2486.61
2456.31
2424.15
2390.17
2354.16
2316.36
2276.47
2235.1
2192.09
2147.5
2101.93
2054.96
2008.18
1961.16
1912.9
1864.77
1815.7
1769.23
1722.36
1676.78
1632.08
1586.99
1544.26
1503.73
1465.34
1428.57
1392.67
1358.42
1326.88
1297.05
1268.74
1241.49
1216.24
1194.94
1153.13
2790.03
2790.91
2798.32
2819.83
2844.15
2856.36
2857.37
2853.34
2838.46
2821.66
2808.08
2798.08
2791.83
2789.16
2788.17
2787.25
2785.53
2782.28
2778.07
2774.46
2771.65
2769.24
2767.13
2765.33
2763.82
2762.59
2761.63
2760.91
2760.4
2760.08
2760
2760.16
2760.55
2761.1
2761.76
2762.55
2763.48
2764.59
2765.85
2767.19
2768.52
2769.8
2771.06
2772.31
2773.56
2774.8
2776.05
2777.32
2778.64
2780.02
2781.45
2782.92
2784.39
2785.82
2787.19
2788.47
2789.63
2790.66
2791.53
2792.22
2792.71
2792.94
2792.94
2792.54
2791.82
2790.67
2789.02
2786.87
2784.13
2780.76
2776.69
2771.84
2766.14
2759.55
2751.95
2743.29
2733.49
2722.43
2710.08
2696.37
2681.14
2664.37
2645.99
2625.88
2604.03
2580.36
2554.75
2527.18
2497.59
2466.05
2432.49
2397.14
2359.88
2321.22
2280.51
2238.23
2194.35
2149.29
2102.68
2054.86
2005.8
1957.54
1908
1857.85
1810.67
1763.29
1718.03
1672.04
1627.61
1585.36
1545.33
1507.74
1470.88
1434.76
1401.31
1369.76
1341.18
1313.96
1287.37
1262.29
1213.31
2790.01
2790.37
2794.81
2812.54
2838.81
2855.68
2859.19
2857.24
2845.11
2828.5
2814.35
2803.49
2796.35
2793.05
2791.97
2791.35
2790.34
2787.87
2784.06
2780.52
2777.85
2775.65
2773.75
2772.17
2770.86
2769.8
2768.99
2768.42
2768.05
2767.89
2767.94
2768.25
2768.76
2769.45
2770.28
2771.25
2772.37
2773.68
2775.15
2776.74
2778.33
2779.9
2781.44
2782.99
2784.56
2786.15
2787.75
2789.39
2791.09
2792.87
2794.72
2796.63
2798.58
2800.52
2802.43
2804.28
2806.04
2807.71
2809.26
2810.68
2811.94
2812.98
2813.8
2814.36
2814.61
2814.55
2814.03
2813.09
2811.63
2809.62
2807
2803.68
2799.63
2794.77
2789.01
2782.3
2774.54
2765.62
2755.5
2744.09
2731.3
2717.09
2701.34
2683.92
2664.8
2643.9
2621.16
2596.61
2570.19
2541.84
2511.43
2479.08
2444.69
2408.39
2369.69
2329.41
2287.5
2244.23
2199.2
2152.36
2104.64
2056.48
2008.95
1958.52
1909.21
1858.95
1810.51
1760.43
1711.32
1663
1616.26
1572.73
1530.78
1490.14
1451.61
1415.73
1384.43
1355.69
1330.25
1308.75
1261.18
2790
2790.13
2792.45
2805.62
2831.9
2853.67
2860.18
2860.05
2851.72
2835.88
2820.81
2808.82
2800.83
2796.86
2795.72
2795.39
2795.07
2793.49
2790.25
2786.83
2784.29
2782.28
2780.58
2779.18
2778.04
2777.13
2776.46
2776.01
2775.78
2775.75
2775.95
2776.38
2777.03
2777.87
2778.87
2780.01
2781.33
2782.84
2784.54
2786.37
2788.23
2790.08
2791.91
2793.76
2795.66
2797.58
2799.54
2801.55
2803.62
2805.78
2808.05
2810.39
2812.8
2815.24
2817.67
2820.08
2822.43
2824.72
2826.92
2829.03
2831.02
2832.86
2834.52
2835.96
2837.14
2838.02
2838.58
2838.78
2838.53
2837.79
2836.54
2834.64
2832.11
2828.86
2824.81
2819.94
2814.12
2807.26
2799.34
2790.25
2779.89
2768.22
2755.1
2740.47
2724.28
2706.41
2686.74
2665.26
2641.84
2616.4
2588.94
2559.56
2528.12
2494.65
2459.04
2421.95
2382.95
2342.09
2298.85
2253.92
2207.91
2161.51
2114.51
2065.18
2015.08
1964.45
1914.4
1865.64
1816.07
1767.84
1719.02
1672.85
1628.61
1585.28
1543.17
1501.01
1461.68
1424.18
1389.83
1358.75
1295.69
2790
2790.04
2791.09
2799.77
2823.78
2849.73
2860.24
2862.64
2857.75
2843.32
2827.19
2814.16
2805.5
2800.84
2799.59
2799.5
2799.77
2799.03
2796.52
2793.36
2790.95
2789.11
2787.57
2786.3
2785.29
2784.51
2783.95
2783.61
2783.5
2783.59
2783.94
2784.49
2785.28
2786.27
2787.43
2788.77
2790.29
2792.01
2793.92
2795.99
2798.13
2800.26
2802.38
2804.53
2806.73
2808.98
2811.29
2813.64
2816.07
2818.61
2821.26
2824.01
2826.86
2829.76
2832.7
2835.63
2838.54
2841.41
2844.24
2847.01
2849.7
2852.28
2854.73
2857.01
2859.1
2860.96
2862.54
2863.79
2864.69
2865.18
2865.29
2864.8
2863.8
2862.14
2859.77
2856.68
2852.75
2847.9
2842.08
2835.17
2827.13
2817.89
2807.33
2795.37
2781.95
2766.9
2750.19
2731.8
2711.6
2689.51
2665.52
2639.51
2611.32
2581.09
2548.82
2514.6
2477.86
2439.13
2398.35
2356.13
2312.07
2266.72
2219.99
2171.89
2120.98
2070.24
2018.58
1968.51
1917.97
1868.1
1816.74
1766.91
1720.03
1674.24
1630.88
1587.34
1546.02
1507.59
1473.46
1444.48
1391.14
2790
2790.01
2790.42
2795.44
2815.23
2843.8
2859.65
2865.07
2862.39
2850.16
2833.59
2819.85
2810.46
2805.04
2803.55
2803.66
2804.44
2804.35
2802.73
2799.97
2797.68
2795.97
2794.54
2793.37
2792.45
2791.77
2791.32
2791.09
2791.09
2791.35
2791.82
2792.53
2793.46
2794.61
2795.97
2797.51
2799.25
2801.18
2803.32
2805.63
2808.03
2810.45
2812.85
2815.29
2817.79
2820.37
2823
2825.7
2828.48
2831.38
2834.4
2837.55
2840.82
2844.17
2847.59
2851.03
2854.47
2857.91
2861.33
2864.73
2868.09
2871.38
2874.58
2877.67
2880.61
2883.36
2885.9
2888.19
2890.19
2891.82
2893.08
2893.91
2894.27
2894.14
2893.33
2891.93
2889.76
2886.81
2882.99
2878.22
2872.46
2865.61
2857.55
2848.24
2837.58
2825.46
2811.81
2796.54
2779.5
2760.64
2739.88
2717.08
2692.25
2665.55
2636.79
2605.76
2572.31
2537.18
2500.28
2461.43
2419.85
2376.36
2331.4
2285.33
2237.78
2187.9
2137.5
2086.81
2035.96
1984.76
1931
1876.59
1824.14
1772.91
1723.98
1674.6
1626.4
1579.75
1535.08
1496.43
1422.39
2790
2790
2790.14
2792.67
2807.24
2836.04
2858.12
2866.4
2865.38
2856.63
2840.46
2825.98
2815.57
2809.4
2807.52
2807.76
2809.15
2809.7
2808.8
2806.48
2804.29
2802.68
2801.35
2800.26
2799.42
2798.84
2798.51
2798.41
2798.56
2798.97
2799.61
2800.48
2801.58
2802.89
2804.44
2806.2
2808.16
2810.31
2812.67
2815.21
2817.87
2820.56
2823.25
2825.96
2828.75
2831.62
2834.57
2837.6
2840.71
2843.95
2847.32
2850.84
2854.5
2858.27
2862.13
2866.04
2870
2873.97
2877.95
2881.93
2885.91
2889.87
2893.79
2897.63
2901.37
2904.99
2908.44
2911.7
2914.72
2917.48
2919.93
2922.02
2923.69
2924.91
2925.64
2925.87
2925.43
2924.33
2922.45
2919.67
2916.05
2911.44
2905.77
2898.99
2890.98
2881.63
2870.88
2858.62
2844.73
2829.21
2811.92
2792.73
2771.63
2748.58
2723.31
2695.77
2666.03
2634.54
2600.87
2564.75
2525.73
2484.8
2442.38
2398.88
2353.62
2306.27
2256.82
2206.19
2155.87
2104.38
2053.42
2000.03
1947.53
1895.39
1845.6
1796.17
1749.45
1702.74
1658.28
1617.97
1538.97
2790
2790
2790.04
2791.15
2800.69
2827.12
2854.51
2866.73
2867.54
2862.52
2847.53
2832.15
2820.62
2813.89
2811.54
2811.85
2813.76
2814.93
2814.52
2812.65
2810.57
2809.05
2807.84
2806.85
2806.14
2805.7
2805.53
2805.58
2805.93
2806.5
2807.31
2808.34
2809.6
2811.09
2812.84
2814.82
2817.01
2819.39
2821.96
2824.72
2827.63
2830.59
2833.55
2836.54
2839.6
2842.75
2846
2849.34
2852.77
2856.33
2860.04
2863.91
2867.94
2872.11
2876.39
2880.76
2885.18
2889.66
2894.17
2898.72
2903.29
2907.88
2912.46
2917.02
2921.51
2925.93
2930.24
2934.4
2938.39
2942.17
2945.7
2948.94
2951.86
2954.4
2956.51
2958.15
2959.28
2959.83
2959.86
2958.98
2957.45
2955
2951.62
2947.26
2941.79
2935.14
2927.25
2917.98
2907.24
2894.95
2880.99
2865.22
2847.61
2828.03
2806.36
2782.69
2756.99
2729.21
2698.97
2666.35
2631.24
2594.2
2555.24
2514.72
2472.08
2427.22
2379.67
2330.11
2279.27
2228.39
2176.81
2123.41
2069.55
2013.23
1957.77
1904.56
1852.93
1802.98
1755.95
1713.55
1631.21
2790
2790
2790.01
2790.43
2795.99
2818.04
2848.65
2866.03
2869.64
2867.26
2854.16
2838.18
2825.8
2818.63
2815.67
2815.85
2818.03
2819.83
2819.8
2818.43
2816.5
2815.1
2814.06
2813.25
2812.72
2812.46
2812.45
2812.71
2813.2
2813.94
2814.91
2816.11
2817.53
2819.21
2821.16
2823.37
2825.79
2828.39
2831.17
2834.14
2837.27
2840.48
2843.7
2846.94
2850.26
2853.67
2857.2
2860.83
2864.56
2868.42
2872.43
2876.62
2880.99
2885.52
2890.19
2894.97
2899.85
2904.79
2909.79
2914.86
2919.98
2925.15
2930.35
2935.56
2940.76
2945.92
2951.02
2956.04
2960.93
2965.67
2970.23
2974.57
2978.65
2982.42
2985.86
2988.93
2991.57
2993.69
2995.29
2996.29
2996.66
2996.29
2995.07
2993.01
2989.94
2985.88
2980.68
2974.24
2966.48
2957.33
2946.66
2934.38
2920.4
2904.54
2886.78
2867.16
2845.43
2821.36
2794.89
2766.4
2735.77
2702.89
2667.42
2629.84
2590.12
2548.39
2504.09
2457.63
2409.26
2359.89
2309.89
2258.99
2206.17
2152.4
2096.26
2043.74
1984.48
1929.59
1875.44
1824.51
1728.71
2790
2790
2790
2790.15
2793.04
2809.77
2841.21
2864.33
2871.35
2870.26
2860.13
2844.3
2831.31
2823.47
2819.67
2819.44
2821.67
2824.31
2824.79
2823.89
2822.19
2820.94
2820.1
2819.54
2819.23
2819.15
2819.31
2819.75
2820.39
2821.29
2822.43
2823.79
2825.39
2827.27
2829.43
2831.86
2834.51
2837.32
2840.29
2843.45
2846.78
2850.22
2853.68
2857.16
2860.71
2864.37
2868.15
2872.04
2876.05
2880.19
2884.49
2888.99
2893.67
2898.54
2903.57
2908.74
2914.03
2919.41
2924.88
2930.43
2936.06
2941.77
2947.55
2953.38
2959.23
2965.08
2970.92
2976.72
2982.44
2988.07
2993.56
2998.9
3004.05
3008.96
3013.6
3017.93
3021.93
3025.54
3028.71
3031.36
3033.45
3034.92
3035.73
3035.9
3035.09
3033.48
3030.85
3027.1
3022.24
3016.11
3008.61
2999.66
2989.14
2976.87
2962.86
2947.01
2929.09
2908.98
2886.77
2862.68
2836.37
2807.5
2775.7
2741.59
2705.42
2667.45
2627.23
2584.72
2539.67
2492.75
2444.2
2394.72
2343.96
2291.4
2237.31
2181.03
2125.79
2072.8
2019.8
1973.35
1889.23
2790
2790
2790
2790.05
2791.42
2803.04
2832.95
2861.42
2871.88
2872.34
2865.6
2850.57
2836.88
2827.93
2823.27
2822.59
2824.88
2828.53
2829.69
2829.19
2827.75
2826.66
2826.04
2825.73
2825.64
2825.72
2826.06
2826.65
2827.46
2828.54
2829.86
2831.41
2833.2
2835.28
2837.65
2840.3
2843.15
2846.15
2849.29
2852.61
2856.11
2859.75
2863.43
2867.13
2870.89
2874.77
2878.78
2882.92
2887.17
2891.57
2896.14
2900.9
2905.87
2911.05
2916.41
2921.93
2927.59
2933.37
2939.26
2945.26
2951.36
2957.56
2963.87
2970.25
2976.7
2983.19
2989.7
2996.22
3002.7
3009.14
3015.5
3021.76
3027.89
3033.85
3039.61
3045.14
3050.4
3055.36
3059.97
3064.18
3067.92
3071.17
3073.81
3075.84
3077.18
3077.8
3077.7
3076.44
3074.34
3071.04
3066.54
3060.78
3053.62
3044.93
3034.64
3022.59
3008.65
2992.8
2974.97
2955.08
2932.82
2908.08
2880.66
2850.97
2819.1
2785.26
2749.11
2710.46
2668.9
2624.83
2578.34
2530.4
2480.76
2429.93
2376.99
2322.09
2265.29
2207.86
2148.99
2093.31
1999.15
2790
2790
2790
2790.01
2790.62
2798.13
2824.71
2857.14
2871.4
2874.38
2870.47
2856.55
2841.85
2831.81
2826.57
2825.58
2827.94
2832.65
2834.56
2834.34
2833.16
2832.22
2831.8
2831.71
2831.85
2832.11
2832.64
2833.43
2834.44
2835.71
2837.23
2838.97
2840.95
2843.23
2845.8
2848.64
2851.66
2854.82
2858.1
2861.55
2865.2
2869.01
2872.9
2876.8
2880.75
2884.83
2889.05
2893.4
2897.89
2902.52
2907.33
2912.35
2917.58
2923.04
2928.7
2934.55
2940.56
2946.71
2952.99
2959.39
2965.93
2972.59
2979.38
2986.28
2993.28
3000.35
3007.48
3014.65
3021.83
3029.01
3036.16
3043.26
3050.28
3057.18
3063.95
3070.55
3076.95
3083.13
3089.04
3094.63
3099.86
3104.68
3109.05
3112.92
3116.21
3118.83
3120.79
3121.97
3122.4
3121.8
3120.18
3117.46
3113.43
3108.12
3101.32
3092.92
3082.86
3071.08
3057.38
3041.55
3023.54
3003.43
2981.04
2956.37
2929.17
2899.63
2867.59
2833.06
2795.86
2756.11
2713.96
2669.94
2623.96
2576.74
2527.54
2477.16
2424.76
2371.18
2315.98
2263.23
2174.81
2790
2790
2790
2790
2790.27
2794.9
2817.23
2851.86
2870.54
2876.52
2874.2
2861.47
2846.14
2835.37
2829.85
2828.62
2830.94
2836.62
2839.28
2839.26
2838.35
2837.53
2837.27
2837.45
2837.85
2838.33
2839.1
2840.12
2841.36
2842.83
2844.53
2846.46
2848.63
2851.08
2853.83
2856.82
2859.98
2863.27
2866.67
2870.23
2874.01
2877.98
2882.04
2886.13
2890.27
2894.52
2898.92
2903.48
2908.17
2913.02
2918.05
2923.29
2928.76
2934.47
2940.41
2946.54
2952.86
2959.34
2965.97
2972.75
2979.68
2986.75
2993.97
3001.34
3008.82
3016.42
3024.1
3031.86
3039.67
3047.52
3055.37
3063.22
3071.04
3078.8
3086.48
3094.05
3101.48
3108.76
3115.85
3122.71
3129.28
3135.55
3141.45
3146.95
3152
3156.54
3160.52
3163.85
3166.47
3168.31
3169.29
3169.49
3168.36
3166.28
3162.86
3158
3151.76
3143.91
3134.28
3122.72
3109.26
3093.86
3076.24
3056.18
3033.34
3008
2980.14
2949.95
2917.24
2881.9
2843.92
2803.34
2760.41
2715.53
2668.22
2619.19
2567.01
2514.15
2457.43
2401.57
2316.07
2790
2790
2790
2790
2790.12
2792.93
2811.03
2846.22
2869.7
2878.09
2876.6
2865.63
2850
2838.74
2833.1
2831.67
2833.85
2840.31
2843.7
2843.91
2843.23
2842.59
2842.5
2843
2843.68
2844.42
2845.44
2846.7
2848.13
2849.79
2851.66
2853.75
2856.08
2858.7
2861.59
2864.72
2868
2871.38
2874.89
2878.56
2882.47
2886.58
2890.81
2895.07
2899.37
2903.78
2908.35
2913.08
2917.97
2923.01
2928.24
2933.68
2939.37
2945.31
2951.49
2957.89
2964.49
2971.27
2978.22
2985.34
2992.62
3000.07
3007.68
3015.47
3023.4
3031.47
3039.65
3047.94
3056.32
3064.76
3073.25
3081.78
3090.31
3098.84
3107.33
3115.76
3124.11
3132.36
3140.49
3148.46
3156.24
3163.77
3171.04
3178.01
3184.62
3190.83
3196.59
3201.86
3206.57
3210.64
3213.96
3216.54
3218.22
3219.02
3218.89
3217.25
3214.57
3210.32
3204.55
3197.15
3187.99
3176.92
3163.73
3148.3
3130.4
3110.2
3087.55
3062.6
3035
3004.75
2971.68
2935.7
2897.19
2856.07
2812.75
2767.36
2719.63
2670.59
2617.82
2563.16
2485
2790
2790
2790
2790
2790.06
2791.8
2806.34
2840.9
2868.72
2879.11
2878.3
2869.05
2853.44
2841.94
2836.14
2834.54
2836.54
2843.68
2847.78
2848.35
2847.89
2847.47
2847.65
2848.42
2849.38
2850.35
2851.57
2853.02
2854.61
2856.42
2858.44
2860.67
2863.15
2865.91
2868.95
2872.19
2875.58
2879.08
2882.69
2886.48
2890.51
2894.76
2899.15
2903.57
2908.02
2912.58
2917.3
2922.2
2927.26
2932.48
2937.89
2943.52
2949.4
2955.54
2961.94
2968.58
2975.44
2982.49
2989.73
2997.15
3004.75
3012.53
3020.5
3028.65
3036.98
3045.47
3054.1
3062.85
3071.73
3080.7
3089.75
3098.87
3108.03
3117.23
3126.43
3135.62
3144.78
3153.89
3162.93
3171.88
3180.7
3189.37
3197.84
3206.09
3214.09
3221.78
3229.14
3236.11
3242.65
3248.69
3254.18
3259.04
3263.21
3266.54
3269.05
3270.57
3271.13
3270.42
3268.4
3265.06
3260.04
3253.34
3244.79
3234.32
3221.68
3206.81
3189.39
3169.46
3146.73
3121.39
3093.11
3062.03
3028.24
2991.57
2952.47
2910.33
2865.71
2818.25
2768.06
2713.21
2640.3
2790
2790
2790
2790
2790.03
2791.19
2803.05
2836.45
2867.52
2879.86
2879.65
2871.84
2856.41
2844.82
2838.8
2837.12
2839.05
2846.85
2851.67
2852.64
2852.44
2852.24
2852.69
2853.72
2854.87
2856
2857.35
2858.92
2860.63
2862.55
2864.7
2867.09
2869.72
2872.63
2875.8
2879.17
2882.67
2886.28
2890.01
2893.92
2898.08
2902.48
2907.02
2911.6
2916.19
2920.88
2925.75
2930.79
2936.01
2941.39
2946.96
2952.76
2958.82
2965.15
2971.75
2978.61
2985.69
2992.99
3000.48
3008.17
3016.06
3024.14
3032.42
3040.91
3049.58
3058.44
3067.47
3076.64
3085.95
3095.39
3104.94
3114.57
3124.29
3134.08
3143.91
3153.76
3163.62
3173.48
3183.32
3193.12
3202.85
3212.49
3222
3231.37
3240.56
3249.54
3258.28
3266.73
3274.86
3282.61
3289.95
3296.8
3303.11
3308.81
3313.84
3318.06
3321.43
3323.84
3325.2
3325.56
3324.3
3321.75
3317.54
3311.55
3303.71
3293.68
3281.27
3266.43
3248.93
3228.88
3205.78
3179.89
3150.86
3118.83
3083.94
3045.78
3005.11
2961.2
2914.72
2862.52
2794.05
2790
2790
2790
2790
2790.02
2790.88
2800.96
2833.19
2866.45
2880.4
2880.84
2873.99
2858.79
2847.22
2841.02
2839.36
2841.52
2850.02
2855.48
2856.81
2856.89
2856.92
2857.57
2858.82
2860.08
2861.27
2862.69
2864.32
2866.11
2868.15
2870.44
2872.99
2875.78
2878.85
2882.15
2885.64
2889.25
2892.97
2896.82
2900.87
2905.16
2909.71
2914.4
2919.11
2923.84
2928.66
2933.66
2938.84
2944.2
2949.73
2955.46
2961.41
2967.63
2974.14
2980.92
2987.98
2995.27
3002.79
3010.51
3018.44
3026.58
3034.93
3043.5
3052.27
3061.26
3070.45
3079.82
3089.36
3099.05
3108.89
3118.87
3128.96
3139.15
3149.44
3159.81
3170.24
3180.7
3191.2
3201.72
3212.25
3222.76
3233.23
3243.64
3253.96
3264.17
3274.25
3284.16
3293.88
3303.38
3312.61
3321.54
3330.11
3338.27
3345.98
3353.17
3359.78
3365.72
3370.92
3375.21
3378.62
3380.94
3382.16
3382.34
3380.57
3377.67
3372.75
3365.88
3356.97
3345.7
3332
3315.36
3295.98
3273.18
3247.29
3217.82
3184.61
3147.74
3106.5
3062.18
3011.58
2945.42
2790
2790
2790
2790
2790.02
2790.75
2799.89
2831.32
2866
2880.91
2881.91
2875.51
2860.47
2849.04
2842.85
2841.33
2844.1
2853.38
2859.25
2860.82
2861.13
2861.37
2862.2
2863.64
2864.94
2866.18
2867.63
2869.31
2871.19
2873.34
2875.77
2878.48
2881.43
2884.64
2888.06
2891.65
2895.36
2899.18
2903.15
2907.32
2911.74
2916.42
2921.25
2926.1
2930.95
2935.89
2941.01
2946.33
2951.82
2957.49
2963.36
2969.47
2975.84
2982.51
2989.46
2996.7
3004.18
3011.9
3019.83
3027.98
3036.35
3044.94
3053.75
3062.79
3072.05
3081.52
3091.2
3101.05
3111.09
3121.28
3131.63
3142.11
3152.72
3163.44
3174.27
3185.19
3196.17
3207.22
3218.33
3229.48
3240.65
3251.83
3262.99
3274.11
3285.19
3296.2
3307.1
3317.89
3328.53
3339
3349.26
3359.28
3369.01
3378.42
3387.45
3396.04
3404.16
3411.71
3418.65
3424.88
3430.33
3434.81
3438.38
3440.7
3441.92
3441.87
3439.64
3436.04
3430.19
3422.03
3411.33
3397.93
3381.29
3361.68
3338.3
3311.43
3279.91
3243.45
3202.69
3154.7
3091.8
2790
2790
2790
2790
2790.02
2790.72
2799.66
2830.92
2866.15
2881.59
2882.85
2876.4
2861.42
2850.29
2844.38
2843.19
2846.96
2857.02
2863
2864.58
2865.02
2865.45
2866.49
2868.13
2869.49
2870.8
2872.31
2874.06
2876.03
2878.3
2880.87
2883.71
2886.8
2890.12
2893.63
2897.29
2901.07
2904.97
2909.03
2913.3
2917.85
2922.65
2927.6
2932.56
2937.52
2942.57
2947.81
2953.26
2958.88
2964.69
2970.69
2976.94
2983.46
2990.28
2997.4
3004.8
3012.46
3020.36
3028.48
3036.83
3045.4
3054.21
3063.24
3072.51
3082.02
3091.75
3101.69
3111.83
3122.15
3132.65
3143.32
3154.14
3165.11
3176.21
3187.43
3198.77
3210.2
3221.71
3233.31
3244.98
3256.72
3268.49
3280.28
3292.08
3303.89
3315.66
3327.4
3339.08
3350.68
3362.17
3373.55
3384.76
3395.79
3406.61
3417.16
3427.43
3437.35
3446.87
3455.95
3464.53
3472.51
3479.84
3486.42
3492.14
3496.84
3500.56
3502.96
3504.12
3503.86
3501.34
3497.34
3490.84
3481.71
3469.92
3454.55
3435.92
3411.89
3382.58
3346.18
3301.71
3241.18
2790
2790
2790
2790
2790.02
2790.74
2799.92
2831.69
2867.04
2882.45
2883.61
2876.63
2861.63
2851.1
2845.71
2845.05
2850.22
2860.92
2866.68
2868.08
2868.5
2869.08
2870.4
2872.25
2873.74
2875.17
2876.81
2878.67
2880.76
2883.14
2885.84
2888.79
2891.97
2895.35
2898.91
2902.6
2906.42
2910.36
2914.48
2918.84
2923.49
2928.4
2933.45
2938.5
2943.56
2948.71
2954.07
2959.64
2965.39
2971.33
2977.46
2983.85
2990.51
2997.49
3004.76
3012.33
3020.16
3028.22
3036.52
3045.05
3053.81
3062.81
3072.05
3081.54
3091.26
3101.22
3111.4
3121.78
3132.37
3143.14
3154.09
3165.21
3176.49
3187.91
3199.48
3211.18
3222.99
3234.91
3246.93
3259.05
3271.26
3283.53
3295.86
3308.23
3320.64
3333.06
3345.49
3357.9
3370.29
3382.64
3394.92
3407.13
3419.22
3431.18
3442.98
3454.59
3465.98
3477.11
3487.93
3498.41
3508.49
3518.12
3527.25
3535.82
3543.73
3550.9
3557.2
3562.45
3566.7
3569.48
3571
3570.94
3568.09
3563.63
3556.13
3545.97
3531.51
3512.57
3484.89
3451.11
3400.85
2790
2790
2790
2790
2790.02
2790.86
2800.97
2834.01
2868.85
2883.46
2884.15
2876.24
2861.21
2851.55
2846.92
2846.99
2853.98
2865.05
2870.3
2871.36
2871.65
2872.31
2873.94
2876
2877.68
2879.32
2881.15
2883.18
2885.41
2887.93
2890.73
2893.76
2896.97
2900.36
2903.91
2907.59
2911.39
2915.35
2919.51
2923.94
2928.68
2933.69
2938.82
2943.95
2949.08
2954.33
2959.8
2965.48
2971.36
2977.42
2983.69
2990.21
2997.02
3004.14
3011.57
3019.3
3027.28
3035.51
3043.98
3052.68
3061.61
3070.79
3080.22
3089.9
3099.83
3109.99
3120.39
3131
3141.82
3152.83
3164.03
3175.42
3186.96
3198.68
3210.55
3222.56
3234.7
3246.97
3259.36
3271.86
3284.48
3297.18
3309.97
3322.83
3335.75
3348.72
3361.73
3374.77
3387.82
3400.87
3413.91
3426.92
3439.89
3452.79
3465.6
3478.3
3490.87
3503.28
3515.51
3527.52
3539.28
3550.74
3561.86
3572.59
3582.88
3592.65
3601.84
3610.36
3618.09
3624.97
3630.75
3635.55
3638.82
3640.67
3640.95
3638.47
3634.07
3625.64
3610.44
3591.87
3559.77
2790
2790
2790
2790
2790.03
2791.12
2802.93
2837.57
2871.13
2884.44
2884.44
2875.24
2860.27
2851.72
2848.15
2849.13
2858.24
2869.27
2873.8
2874.47
2874.58
2875.29
2877.19
2879.43
2881.32
2883.19
2885.27
2887.5
2889.91
2892.56
2895.45
2898.5
2901.71
2905.05
2908.54
2912.18
2915.96
2919.92
2924.12
2928.62
2933.45
2938.54
2943.73
2948.92
2954.12
2959.47
2965.05
2970.86
2976.85
2983.03
2989.43
2996.09
3003.04
3010.31
3017.89
3025.77
3033.91
3042.29
3050.91
3059.77
3068.87
3078.23
3087.84
3097.7
3107.81
3118.17
3128.77
3139.59
3150.62
3161.85
3173.29
3184.91
3196.71
3208.68
3220.81
3233.11
3245.54
3258.12
3270.82
3283.67
3296.63
3309.71
3322.89
3336.16
3349.52
3362.95
3376.45
3390.01
3403.61
3417.25
3430.91
3444.59
3458.26
3471.92
3485.55
3499.13
3512.64
3526.07
3539.39
3552.59
3565.63
3578.48
3591.12
3603.51
3615.64
3627.44
3638.88
3649.9
3660.45
3670.47
3679.84
3688.5
3696.27
3702.94
3708.65
3712.7
3715.62
3716.31
3713.55
3707.87
3696.6
2790
2790
2790
2790
2790.05
2791.61
2805.84
2842.22
2873.65
2885.32
2884.47
2873.65
2859.05
2851.75
2849.36
2851.72
2862.91
2873.41
2877.1
2877.39
2877.38
2878.18
2880.29
2882.63
2884.69
2886.8
2889.13
2891.57
2894.15
2896.92
2899.85
2902.89
2906.04
2909.31
2912.73
2916.31
2920.07
2924.03
2928.28
2932.86
2937.78
2942.93
2948.17
2953.41
2958.68
2964.13
2969.82
2975.74
2981.85
2988.16
2994.68
3001.47
3008.57
3015.99
3023.73
3031.75
3040.03
3048.56
3057.33
3066.35
3075.61
3085.13
3094.9
3104.93
3115.22
3125.77
3136.55
3147.55
3158.78
3170.22
3181.86
3193.7
3205.72
3217.93
3230.31
3242.86
3255.56
3268.42
3281.42
3294.57
3307.85
3321.26
3334.79
3348.42
3362.16
3376
3389.92
3403.91
3417.98
3432.1
3446.28
3460.5
3474.75
3489.01
3503.29
3517.55
3531.79
3545.99
3560.14
3574.23
3588.22
3602.11
3615.85
3629.44
3642.86
3656.06
3669.02
3681.68
3694.02
3705.95
3717.44
3728.44
3738.85
3748.62
3757.57
3765.69
3772.7
3778.54
3782.88
3784.49
3786.24
2790
2790
2790
2790
2790.09
2792.43
2809.83
2847.67
2876.13
2885.91
2884.18
2871.6
2857.68
2851.67
2850.54
2854.99
2867.84
2877.32
2880.11
2880.09
2880.07
2881.07
2883.34
2885.71
2887.87
2890.17
2892.69
2895.31
2898.02
2900.87
2903.8
2906.79
2909.86
2913.06
2916.42
2919.97
2923.72
2927.72
2932.04
2936.71
2941.71
2946.92
2952.2
2957.47
2962.82
2968.36
2974.16
2980.19
2986.41
2992.83
2999.47
3006.4
3013.65
3021.22
3029.1
3037.26
3045.69
3054.36
3063.28
3072.44
3081.86
3091.53
3101.47
3111.66
3122.12
3132.83
3143.79
3154.97
3166.38
3178
3189.84
3201.87
3214.09
3226.5
3239.1
3251.87
3264.8
3277.89
3291.15
3304.55
3318.11
3331.81
3345.63
3359.58
3373.64
3387.82