/*--------------------------------*- C++ -*----------------------------------*\
| =========                 |                                                 |
| \\      /  F ield         | OpenFOAM: The Open Source CFD Toolbox           |
|  \\    /   O peration     | Version:  2412                                  |
|   \\  /    A nd           | Website:  www.openfoam.com                      |
|    \\/     M anipulation  |                                                 |
\*---------------------------------------------------------------------------*/
FoamFile
{
    version     2.0;
    format      ascii;
    arch        "LSB;label=32;scalar=64";
    class       volScalarField;
    location    "0.025";
    object      p;
}
// * * * * * * * * * * * * * * * * * * * * * * * * * * * * * * * * * * * * * //

dimensions      [1 -1 -2 0 0 0 0];

internalField   nonuniform List<scalar> 
78650
(
2790
2790
2790
2790
2790
2790
2790
2790
2790
2790
2790
2790
2790
2790
2790
2790.12
2792.08
2802.89
2824.85
2843.94
2849.73
2850.39
2843.36
2827.47
2810.29
2795.89
2785.06
2777.47
2773.17
2770.53
2767.89
2764.51
2760.56
2756.69
2753.14
2749.7
2746.27
2743.01
2740.15
2737.65
2735.39
2733.27
2731.28
2729.43
2727.77
2726.38
2725.25
2724.4
2723.79
2723.32
2722.98
2722.74
2722.63
2722.61
2722.67
2722.75
2722.82
2722.84
2722.82
2722.75
2722.62
2722.39
2722.02
2721.47
2720.72
2719.75
2718.53
2717.05
2715.24
2713.04
2710.4
2707.23
2703.46
2699
2693.77
2687.69
2680.7
2672.7
2663.6
2653.25
2641.54
2628.33
2613.48
2596.86
2578.31
2557.74
2534.93
2509.69
2481.8
2451.36
2418.32
2382.52
2343.22
2301
2255.4
2207.41
2156.25
2099.88
2040.97
1980.05
1919.19
1858
1797.36
1736.96
1676.41
1615.32
1556.87
1498.27
1442.6
1390.66
1340.45
1294.65
1251.95
1214.18
1181.58
1150.86
1123.94
1097.74
1074.22
1054.72
1015.86
2790
2790
2790
2790
2790
2790
2790
2790
2790
2790
2790
2790
2790
2790
2790
2790.06
2791.27
2799.63
2820.38
2841.67
2849.88
2852
2847.1
2832.39
2814.68
2799.65
2788.4
2780.48
2775.98
2773.49
2771.23
2768.28
2764.63
2760.87
2757.37
2753.99
2750.61
2747.37
2744.53
2742.09
2739.93
2737.93
2736.09
2734.38
2732.87
2731.64
2730.67
2730
2729.57
2729.29
2729.14
2729.1
2729.18
2729.38
2729.67
2730
2730.34
2730.64
2730.92
2731.17
2731.38
2731.51
2731.54
2731.42
2731.14
2730.67
2729.97
2729.05
2727.86
2726.33
2724.42
2722.06
2719.16
2715.65
2711.44
2706.47
2700.67
2693.97
2686.27
2677.45
2667.38
2655.95
2643.01
2628.45
2612.09
2593.82
2573.43
2550.77
2525.64
2497.99
2467.64
2434.44
2398
2358.69
2315.87
2270.7
2222.27
2171.59
2117.78
2059.91
1997.89
1934.29
1868.63
1804.79
1742.36
1680.06
1620.28
1562.06
1504.98
1451.48
1397.96
1347.44
1299.77
1255.31
1216.62
1181.74
1151.83
1124.49
1099.79
1077.9
1036.84
2790
2790
2790
2790
2790
2790
2790
2790
2790
2790
2790
2790
2790
2790
2790
2790.03
2790.73
2796.84
2815.58
2838.62
2849.91
2853.48
2850.23
2837.08
2819.17
2803.62
2791.95
2783.68
2778.93
2776.54
2774.61
2772.09
2768.75
2765.1
2761.62
2758.3
2754.98
2751.76
2748.95
2746.57
2744.52
2742.67
2740.98
2739.43
2738.09
2737.01
2736.22
2735.73
2735.49
2735.4
2735.45
2735.6
2735.87
2736.27
2736.79
2737.37
2737.97
2738.56
2739.14
2739.71
2740.25
2740.75
2741.17
2741.47
2741.63
2741.66
2741.48
2741.13
2740.55
2739.67
2738.47
2736.87
2734.81
2732.21
2728.99
2725.07
2720.41
2714.92
2708.53
2701.13
2692.6
2682.82
2671.65
2658.97
2644.63
2628.52
2610.42
2590.21
2567.72
2542.87
2515.4
2485.06
2451.58
2415.28
2375.93
2334.26
2288.84
2240.47
2188.62
2133.93
2076.56
2016.71
1954.02
1888
1821.68
1753.57
1685.46
1621.76
1559.23
1500.92
1445.47
1391.29
1340.49
1292.57
1247.78
1206.88
1171.48
1139.51
1111.74
1087.95
1040.58
2790
2790
2790
2790
2790
2790
2790
2790
2790
2790
2790
2790
2790
2790
2790
2790.01
2790.39
2794.56
2810.6
2834.7
2849.6
2854.77
2852.58
2841.71
2824.07
2808.04
2795.88
2787.17
2782.09
2779.71
2778.07
2775.92
2772.91
2769.38
2765.9
2762.63
2759.38
2756.21
2753.44
2751.13
2749.2
2747.51
2745.99
2744.61
2743.44
2742.53
2741.91
2741.61
2741.53
2741.64
2741.87
2742.2
2742.66
2743.26
2743.99
2744.81
2745.66
2746.53
2747.39
2748.26
2749.13
2749.98
2750.78
2751.49
2752.09
2752.56
2752.9
2753.07
2753.07
2752.82
2752.31
2751.45
2750.19
2748.46
2746.18
2743.29
2739.73
2735.43
2730.33
2724.32
2717.3
2709.16
2699.76
2689
2676.71
2662.78
2647.03
2629.34
2609.5
2587.32
2562.54
2535.06
2504.79
2471.82
2435.64
2396.37
2353.03
2306.93
2256.87
2204.22
2148.78
2089.93
2030.56
1967.88
1905.42
1840.13
1772.99
1706.11
1639.91
1572.92
1511.48
1450.53
1393.72
1342.22
1293.65
1250.08
1210.29
1172.87
1140.39
1112.27
1055.24
2790
2790
2790
2790
2790
2790
2790
2790
2790
2790
2790
2790
2790
2790
2790
2790
2790.19
2792.82
2805.75
2829.82
2848.46
2855.66
2854.37
2846.16
2829.36
2812.89
2800.09
2790.89
2785.43
2783
2781.57
2779.76
2777.06
2773.68
2770.21
2766.99
2763.83
2760.75
2758.03
2755.83
2754.04
2752.51
2751.18
2749.97
2748.99
2748.24
2747.8
2747.67
2747.79
2748.07
2748.47
2748.99
2749.63
2750.42
2751.35
2752.39
2753.5
2754.64
2755.78
2756.95
2758.14
2759.34
2760.5
2761.61
2762.64
2763.57
2764.39
2765.08
2765.63
2765.99
2766.13
2765.99
2765.51
2764.63
2763.25
2761.34
2758.82
2755.65
2751.76
2747.06
2741.46
2734.84
2727.09
2718.09
2707.69
2695.8
2682.23
2666.86
2649.49
2629.97
2608.07
2583.67
2556.59
2526.78
2493.89
2458
2418.34
2375.74
2329.03
2279.62
2226.06
2169.01
2108.48
2044.64
1978.47
1912.61
1847.35
1780.84
1717.39
1650.95
1586.96
1524.64
1461.58
1403.58
1347.44
1296.65
1252.59
1211.39
1176.3
1146.43
1088.55
2790
2790
2790
2790
2790
2790
2790
2790
2790
2790
2790
2790
2790
2790
2790
2790
2790.08
2791.59
2801.27
2824.06
2846.11
2855.98
2855.8
2850.48
2835.05
2818.17
2804.69
2794.96
2789.07
2786.42
2785.06
2783.51
2781.14
2777.97
2774.56
2771.41
2768.39
2765.43
2762.8
2760.71
2759.06
2757.72
2756.57
2755.55
2754.75
2754.16
2753.91
2753.94
2754.23
2754.67
2755.24
2755.94
2756.76
2757.73
2758.85
2760.12
2761.47
2762.86
2764.28
2765.74
2767.24
2768.76
2770.29
2771.78
2773.22
2774.58
2775.87
2777.07
2778.17
2779.11
2779.87
2780.39
2780.64
2780.57
2780.09
2779.15
2777.62
2775.54
2772.82
2769.4
2765.18
2760.07
2753.95
2746.71
2738.22
2728.37
2716.99
2703.97
2689.11
2672.23
2653.1
2631.62
2607.64
2581.02
2551.32
2518.45
2482.02
2442.8
2400
2354.69
2305.15
2252.39
2195.72
2135.35
2069.99
2001.78
1931.58
1859.11
1787.42
1717.66
1648.25
1584
1519.02
1457.28
1397.42
1340.86
1290.03
1243.26
1202.4
1167.95
1100.93
2790
2790
2790
2790
2790
2790
2790
2790
2790
2790
2790
2790
2790
2790
2790
2790
2790.03
2790.81
2797.47
2817.71
2842.3
2855.74
2857.27
2854.32
2840.76
2823.77
2809.69
2799.37
2792.91
2789.85
2788.46
2787.09
2785.09
2782.23
2778.96
2775.92
2773.07
2770.28
2767.76
2765.8
2764.3
2763.15
2762.19
2761.37
2760.74
2760.32
2760.23
2760.43
2760.86
2761.47
2762.21
2763.07
2764.06
2765.21
2766.53
2768.01
2769.59
2771.24
2772.93
2774.67
2776.47
2778.32
2780.19
2782.06
2783.91
2785.7
2787.45
2789.13
2790.75
2792.26
2793.64
2794.83
2795.78
2796.44
2796.77
2796.76
2796.23
2795.21
2793.58
2791.36
2788.42
2784.71
2780.09
2774.49
2767.75
2759.78
2750.43
2739.6
2727.08
2712.73
2696.37
2677.86
2656.92
2633.36
2606.88
2577.54
2545.07
2509.67
2470.38
2427.77
2380.52
2330.41
2276.22
2218.88
2159.17
2095.52
2029.86
1959.6
1886.95
1814.71
1740.06
1668.35
1596.83
1528.27
1462.68
1400.78
1343.91
1292.14
1246.25
1206.23
1124.89
2790
2790
2790
2790
2790
2790
2790
2790
2790
2790
2790
2790
2790
2790
2790
2790
2790.01
2790.37
2794.51
2811.21
2837.04
2854.67
2858.7
2857.24
2846.46
2829.97
2815.28
2804.11
2796.82
2793.16
2791.66
2790.5
2788.95
2786.54
2783.5
2780.62
2777.96
2775.37
2772.98
2771.15
2769.79
2768.83
2768.05
2767.42
2766.95
2766.72
2766.75
2767.11
2767.67
2768.42
2769.32
2770.34
2771.51
2772.83
2774.33
2776.01
2777.82
2779.72
2781.67
2783.69
2785.77
2787.94
2790.15
2792.38
2794.62
2796.83
2799.01
2801.16
2803.28
2805.34
2807.29
2809.11
2810.75
2812.17
2813.28
2814.06
2814.47
2814.49
2813.97
2812.93
2811.23
2808.88
2805.74
2801.74
2796.74
2790.65
2783.33
2774.66
2764.48
2752.63
2738.92
2723.15
2705.13
2684.7
2661.61
2635.77
2606.84
2574.81
2538.93
2499.59
2455.84
2408.99
2357.64
2303.08
2244.25
2181.67
2115.27
2045.5
1974.22
1903.46
1831.44
1759.2
1687.15
1614.25
1544.33
1475.52
1411.07
1352.92
1302.18
1258.83
1174.97
2790
2790
2790
2790
2790
2790
2790
2790
2790
2790
2790
2790
2790
2790
2790
2790
2790
2790.15
2792.45
2805.06
2830.53
2852.38
2859.26
2859.45
2852.13
2836.67
2821.14
2808.84
2800.69
2796.37
2794.77
2793.84
2792.79
2790.93
2788.22
2785.51
2783.07
2780.71
2778.47
2776.75
2775.53
2774.73
2774.14
2773.7
2773.39
2773.29
2773.47
2773.94
2774.63
2775.52
2776.57
2777.75
2779.08
2780.58
2782.26
2784.13
2786.16
2788.3
2790.52
2792.8
2795.18
2797.64
2800.18
2802.78
2805.39
2808.01
2810.62
2813.23
2815.83
2818.41
2820.93
2823.36
2825.65
2827.76
2829.66
2831.28
2832.55
2833.45
2833.95
2834.04
2833.54
2832.47
2830.7
2828.17
2824.77
2820.4
2814.94
2808.28
2800.27
2790.77
2779.61
2766.62
2751.57
2734.28
2714.52
2692.22
2667.07
2638.9
2607.06
2571.87
2532.7
2490.33
2443.44
2393.13
2337.81
2278.44
2214.76
2146.56
2073.9
1996.77
1919.13
1838.6
1762.86
1684.81
1610.84
1538.19
1467.04
1402.12
1343.01
1292.69
1190.32
2790
2790
2790
2790
2790
2790
2790
2790
2790
2790
2790
2790
2790
2790
2790
2790
2790
2790.05
2791.17
2799.78
2823.02
2848.44
2859.09
2861.66
2857.32
2843.45
2827
2813.61
2804.71
2799.7
2797.97
2797.28
2796.66
2795.42
2793.12
2790.62
2788.41
2786.3
2784.22
2782.61
2781.51
2780.85
2780.42
2780.16
2780
2780.02
2780.32
2780.89
2781.69
2782.7
2783.88
2785.21
2786.71
2788.38
2790.24
2792.3
2794.54
2796.92
2799.39
2801.94
2804.59
2807.35
2810.21
2813.15
2816.13
2819.14
2822.16
2825.21
2828.27
2831.35
2834.41
2837.41
2840.33
2843.12
2845.73
2848.13
2850.26
2852.1
2853.56
2854.63
2855.27
2855.45
2855.03
2853.97
2852.14
2849.47
2845.83
2841.14
2835.25
2828.05
2819.35
2808.97
2796.7
2782.39
2765.87
2746.97
2725.29
2700.65
2672.64
2641.53
2606.69
2568.45
2525.56
2478.89
2427.15
2371.94
2312.25
2248.37
2180.82
2108.08
2034.28
1954.23
1875.11
1792.96
1709.58
1633.09
1554.03
1481.54
1414.98
1358
1242.7
2790
2790
2790
2790
2790
2790
2790
2790
2790
2790
2790
2790
2790
2790
2790
2790
2790
2790.02
2790.49
2795.72
2815.12
2842.77
2858.39
2863.73
2861.26
2849.69
2832.93
2818.72
2809.05
2803.29
2801.29
2800.77
2800.51
2799.89
2798.15
2795.93
2793.98
2792.12
2790.21
2788.66
2787.64
2787.08
2786.8
2786.71
2786.7
2786.83
2787.22
2787.87
2788.77
2789.89
2791.21
2792.7
2794.37
2796.21
2798.25
2800.5
2802.95
2805.57
2808.29
2811.11
2814.03
2817.08
2820.25
2823.52
2826.86
2830.25
2833.68
2837.15
2840.66
2844.21
2847.78
2851.35
2854.86
2858.29
2861.6
2864.74
2867.68
2870.36
2872.75
2874.83
2876.53
2877.79
2878.58
2878.86
2878.5
2877.4
2875.47
2872.58
2868.66
2863.58
2857.19
2849.34
2839.84
2828.53
2815.15
2799.52
2781.31
2760.41
2736.5
2709.58
2678.93
2644.61
2605.6
2562.61
2514.66
2462.96
2405.99
2344.57
2278.3
2207.82
2132.96
2053.96
1970.28
1890.87
1807.6
1728.71
1645.39
1566.29
1492.21
1429.88
1313.02
2790
2790
2790
2790
2790
2790
2790
2790
2790
2790
2790
2790
2790
2790
2790
2790
2790
2790
2790.18
2792.97
2807.6
2835.44
2856.76
2864.86
2863.83
2855.55
2839.34
2824.39
2813.72
2807.14
2804.71
2804.3
2804.38
2804.35
2803.3
2801.46
2799.74
2798.1
2796.33
2794.81
2793.84
2793.33
2793.18
2793.24
2793.4
2793.63
2794.1
2794.84
2795.83
2797.06
2798.51
2800.15
2801.98
2804.01
2806.23
2808.67
2811.33
2814.17
2817.14
2820.22
2823.41
2826.74
2830.2
2833.79
2837.48
2841.23
2845.05
2848.92
2852.86
2856.86
2860.92
2865.01
2869.09
2873.12
2877.08
2880.93
2884.63
2888.13
2891.4
2894.41
2897.13
2899.51
2901.48
2902.98
2903.97
2904.38
2904.14
2903.04
2901.05
2898.01
2893.84
2888.36
2881.43
2872.85
2862.42
2849.96
2835.21
2818.05
2798.13
2775.34
2749.01
2719.19
2685.15
2647.39
2604.94
2558.42
2506.48
2450.06
2388
2320.93
2248.52
2171.38
2087.03
2001.51
1912.74
1822.04
1731.95
1645.09
1562.73
1491.06
1347.49
2790
2790
2790
2790
2790
2790
2790
2790
2790
2790
2790
2790
2790
2790
2790
2790
2790
2790
2790.06
2791.36
2801.25
2826.97
2853.21
2865.06
2865.64
2860.9
2846.06
2830.32
2818.49
2811.23
2808.28
2807.91
2808.35
2808.8
2808.33
2806.9
2805.41
2803.98
2802.38
2800.87
2799.91
2799.44
2799.38
2799.63
2799.93
2800.28
2800.85
2801.67
2802.76
2804.11
2805.7
2807.51
2809.52
2811.73
2814.14
2816.78
2819.64
2822.71
2825.93
2829.26
2832.72
2836.32
2840.08
2843.98
2847.99
2852.1
2856.29
2860.56
2864.91
2869.35
2873.87
2878.46
2883.08
2887.69
2892.27
2896.78
2901.19
2905.46
2909.56
2913.45
2917.11
2920.5
2923.57
2926.27
2928.53
2930.27
2931.43
2931.96
2931.8
2930.67
2928.61
2925.34
2920.87
2914.96
2907.44
2898.11
2886.74
2873.18
2857.08
2838.25
2816.13
2790.77
2761.54
2728.65
2691.11
2649.27
2601.91
2549.91
2492.14
2429.56
2361.19
2287.31
2209.37
2124.77
2039.37
1947.2
1857.89
1766.62
1679.55
1601.56
1451.81
2790
2790
2790
2790
2790
2790
2790
2790
2790
2790
2790
2790
2790
2790
2790
2790
2790
2790
2790.02
2790.55
2796.49
2818.16
2847.46
2864.27
2867.51
2865.25
2852.5
2836.31
2823.53
2815.69
2812.09
2811.62
2812.27
2813.13
2813.02
2812.02
2810.78
2809.6
2808.19
2806.73
2805.78
2805.36
2805.38
2805.8
2806.27
2806.76
2807.45
2808.37
2809.56
2811.04
2812.78
2814.77
2816.96
2819.36
2821.96
2824.79
2827.85
2831.13
2834.59
2838.18
2841.9
2845.76
2849.79
2853.99
2858.32
2862.77
2867.32
2871.96
2876.69
2881.54
2886.5
2891.56
2896.68
2901.83
2906.99
2912.12
2917.2
2922.19
2927.07
2931.79
2936.34
2940.69
2944.79
2948.6
2952.07
2955.15
2957.75
2959.77
2961.16
2961.85
2961.86
2960.71
2958.58
2955.1
2950.26
2943.81
2935.59
2925.4
2912.89
2897.87
2879.91
2859.01
2834.51
2806.42
2773.79
2736.81
2694.45
2647.26
2594.06
2535.75
2470.98
2400.16
2322.69
2239.45
2151.83
2056.88
1961.93
1858.57
1762.21
1677.89
1512.53
2790
2790
2790
2790
2790
2790
2790
2790
2790
2790
2790
2790
2790
2790
2790
2790
2790
2790
2790
2790.19
2793.36
2809.93
2840.03
2862.34
2868.98
2868.06
2858.39
2842.55
2829.02
2820.39
2815.92
2815.06
2815.75
2817.1
2817.31
2816.7
2815.76
2814.86
2813.74
2812.39
2811.49
2811.11
2811.19
2811.78
2812.39
2813.02
2813.84
2814.88
2816.2
2817.82
2819.73
2821.89
2824.27
2826.85
2829.64
2832.66
2835.92
2839.42
2843.11
2846.95
2850.92
2855.05
2859.35
2863.82
2868.46
2873.24
2878.13
2883.12
2888.24
2893.48
2898.85
2904.34
2909.94
2915.61
2921.31
2927.03
2932.74
2938.4
2944
2949.49
2954.87
2960.1
2965.16
2969.99
2974.56
2978.83
2982.71
2986.17
2989.11
2991.4
2993.02
2993.89
2993.99
2992.86
2990.63
2986.93
2981.71
2974.72
2965.7
2954.49
2940.73
2924.33
2904.62
2881.52
2854.18
2822.75
2786.36
2745.31
2698.37
2645.99
2587.07
2522.49
2450.91
2372.68
2288.1
2199.22
2102.68
2006.41
1900.77
1806.36
1622.74
2790
2790
2790
2790
2790
2790
2790
2790
2790
2790
2790
2790
2790
2790
2790
2790
2790
2790
2790
2790.06
2791.56
2803.04
2831.57
2859.03
2869.26
2870.07
2863.85
2849.06
2834.71
2824.87
2819.45
2818.12
2818.81
2820.75
2821.4
2821.1
2820.47
2819.89
2819.12
2817.97
2817.12
2816.76
2816.89
2817.62
2818.37
2819.14
2820.09
2821.26
2822.72
2824.49
2826.56
2828.9
2831.46
2834.22
2837.2
2840.41
2843.86
2847.55
2851.46
2855.54
2859.76
2864.14
2868.69
2873.44
2878.36
2883.44
2888.65
2893.99
2899.45
2905.05
2910.81
2916.72
2922.75
2928.89
2935.1
2941.36
2947.65
2953.94
2960.2
2966.41
2972.56
2978.61
2984.55
2990.34
2995.95
3001.33
3006.42
3011.19
3015.54
3019.42
3022.76
3025.4
3027.3
3028.37
3028.57
3027.44
3025.04
3021.06
3015.37
3007.78
2997.95
2985.66
2970.33
2951.87
2929.56
2903.47
2872.69
2837.27
2796.05
2749.35
2696.08
2636.64
2569.45
2495.3
2412.9
2324.41
2229.51
2130.44
2020.5
1925.42
1749.38
2790
2790
2790
2790
2790
2790
2790
2790
2790
2790
2790
2790
2790
2790
2790
2790
2790
2790
2790
2790.02
2790.66
2797.89
2822.88
2854.1
2868.51
2872.13
2868.72
2855.29
2839.93
2828.94
2822.79
2821.03
2821.7
2824.23
2825.46
2825.38
2825.05
2824.78
2824.38
2823.47
2822.69
2822.36
2822.55
2823.4
2824.28
2825.21
2826.3
2827.6
2829.2
2831.12
2833.34
2835.84
2838.56
2841.49
2844.64
2848.02
2851.65
2855.54
2859.65
2863.95
2868.41
2873.02
2877.82
2882.82
2888.01
2893.38
2898.9
2904.55
2910.35
2916.3
2922.41
2928.7
2935.15
2941.73
2948.42
2955.18
2962.01
2968.87
2975.76
2982.63
2989.48
2996.3
3003.05
3009.71
3016.26
3022.64
3028.84
3034.79
3040.43
3045.7
3050.53
3054.87
3058.61
3061.61
3063.8
3065.07
3065.37
3064.26
3061.71
3057.43
3051.18
3042.75
3031.68
3017.9
3000.74
2980.15
2955.16
2925.75
2890.84
2850.52
2803.57
2750.11
2688.9
2620.85
2544.3
2460.62
2367.31
2269.87
2160.89
2056.04
1866.49
2790
2790
2790
2790
2790
2790
2790
2790
2790
2790
2790
2790
2790
2790
2790
2790
2790
2790
2790
2790.01
2790.26
2794.45
2814.75
2847.8
2867.31
2874.1
2872.09
2860.63
2844.8
2832.93
2826.25
2824.03
2824.57
2827.51
2829.45
2829.63
2829.55
2829.55
2829.49
2828.89
2828.24
2827.96
2828.24
2829.23
2830.26
2831.34
2832.57
2834.01
2835.73
2837.78
2840.12
2842.75
2845.61
2848.69
2851.99
2855.53
2859.32
2863.37
2867.67
2872.17
2876.85
2881.68
2886.71
2891.95
2897.39
2903.02
2908.82
2914.77
2920.88
2927.15
2933.59
2940.24
2947.06
2954.05
2961.17
2968.39
2975.71
2983.1
2990.55
2998.03
3005.53
3013.03
3020.53
3027.99
3035.4
3042.71
3049.91
3056.94
3063.77
3070.33
3076.57
3082.42
3087.8
3092.64
3096.84
3100.22
3102.71
3104.17
3104.57
3103.42
3100.65
3095.97
3089.08
3079.86
3067.65
3052.31
3032.91
3009.4
2980.73
2946.83
2906.47
2859.83
2805.78
2744.4
2673.91
2595.15
2506.67
2410.17
2306.5
2200.55
2022.56
2790
2790
2790
2790
2790
2790
2790
2790
2790
2790
2790
2790
2790
2790
2790
2790
2790
2790
2790
2790
2790.1
2792.39
2807.88
2840.75
2865.8
2875.21
2874.28
2865.26
2849.47
2836.98
2829.82
2827.05
2827.31
2830.47
2833.2
2833.83
2834
2834.28
2834.5
2834.24
2833.76
2833.58
2834.02
2835.16
2836.36
2837.6
2838.96
2840.5
2842.33
2844.47
2846.91
2849.63
2852.61
2855.8
2859.23
2862.91
2866.85
2871.05
2875.51
2880.2
2885.07
2890.12
2895.35
2900.81
2906.49
2912.36
2918.42
2924.65
2931.04
2937.61
2944.37
2951.33
2958.51
2965.87
2973.38
2981.04
2988.8
2996.68
3004.65
3012.68
3020.77
3028.91
3037.08
3045.27
3053.46
3061.61
3069.71
3077.72
3085.61
3093.32
3100.8
3108.01
3114.87
3121.33
3127.29
3132.65
3137.33
3141.12
3143.94
3145.63
3146.12
3144.95
3141.91
3136.76
3128.97
3118.37
3104.17
3086.37
3063.88
3036.64
3003.43
2964.22
2917.68
2863.7
2800.82
2728.88
2645.45
2553.44
2449.47
2341.72
2166.35
2790
2790
2790
2790
2790
2790
2790
2790
2790
2790
2790
2790
2790
2790
2790
2790
2790
2790
2790
2790
2790.04
2791.25
2802.58
2833.7
2863.49
2875.74
2875.79
2869.25
2853.97
2841.02
2833.22
2829.83
2829.76
2833.15
2836.75
2837.98
2838.43
2839
2839.51
2839.52
2839.26
2839.22
2839.84
2841.14
2842.51
2843.91
2845.39
2847.04
2848.95
2851.17
2853.69
2856.49
2859.56
2862.86
2866.4
2870.2
2874.26
2878.6
2883.21
2888.06
2893.11
2898.34
2903.77
2909.42
2915.31
2921.41
2927.71
2934.18
2940.84
2947.68
2954.72
2961.98
2969.46
2977.16
2985.04
2993.07
3001.25
3009.56
3017.99
3026.53
3035.15
3043.86
3052.63
3061.48
3070.36
3079.27
3088.18
3097.07
3105.91
3114.65
3123.26
3131.7
3139.9
3147.81
3155.36
3162.48
3169.06
3175
3180.19
3184.41
3187.57
3189.48
3190.05
3188.74
3185.26
3179.4
3170.54
3158.63
3142.6
3122.34
3096.5
3064.86
3025.84
2979.23
2923.75
2859.02
2783.73
2698.59
2599.48
2495.3
2334.13
2790
2790
2790
2790
2790
2790
2790
2790
2790
2790
2790
2790
2790
2790
2790
2790
2790
2790
2790
2790
2790.01
2790.66
2798.8
2827.29
2860.42
2875.74
2877.16
2872.65
2858.12
2844.69
2836.15
2832.29
2832.02
2835.72
2840.23
2842.11
2842.85
2843.67
2844.47
2844.69
2844.59
2844.67
2845.47
2846.94
2848.51
2850.09
2851.71
2853.47
2855.47
2857.78
2860.37
2863.26
2866.42
2869.82
2873.47
2877.38
2881.55
2886.01
2890.74
2895.73
2900.94
2906.33
2911.93
2917.76
2923.84
2930.14
2936.65
2943.35
2950.24
2957.33
2964.63
2972.16
2979.93
2987.93
2996.14
3004.52
3013.07
3021.78
3030.63
3039.61
3048.72
3057.94
3067.26
3076.69
3086.21
3095.79
3105.43
3115.1
3124.78
3134.44
3144.05
3153.56
3162.94
3172.14
3181.1
3189.77
3198.05
3205.86
3213.11
3219.66
3225.42
3230.11
3233.63
3235.77
3236.42
3234.96
3230.99
3224.29
3213.92
3199.71
3180.31
3155.54
3123.84
3085.15
3037.84
2980.98
2912.96
2832.02
2738.17
2630.45
2482.21
2790
2790
2790
2790
2790
2790
2790
2790
2790
2790
2790
2790
2790
2790
2790
2790
2790
2790
2790
2790
2790.01
2790.37
2796.27
2821.94
2857.18
2875.45
2878.5
2875.44
2861.64
2847.65
2838.56
2834.55
2834.28
2838.36
2843.75
2846.23
2847.21
2848.17
2849.17
2849.55
2849.53
2849.71
2850.69
2852.35
2854.15
2855.93
2857.72
2859.61
2861.75
2864.17
2866.88
2869.88
2873.15
2876.66
2880.42
2884.43
2888.71
2893.27
2898.12
2903.23
2908.57
2914.11
2919.86
2925.85
2932.09
2938.57
2945.27
2952.18
2959.28
2966.59
2974.13
2981.9
2989.92
2998.2
3006.7
3015.4
3024.28
3033.34
3042.56
3051.95
3061.48
3071.16
3080.97
3090.91
3100.98
3111.17
3121.44
3131.8
3142.22
3152.69
3163.18
3173.64
3184.06
3194.39
3204.6
3214.62
3224.4
3233.87
3242.93
3251.51
3259.49
3266.72
3273.09
3278.28
3282.18
3284.51
3285.11
3283.23
3278.4
3270.31
3257.92
3241.04
3218.1
3188.78
3151.01
3104.17
3046.03
2974.3
2889.76
2785.96
2646.92
2790
2790
2790
2790
2790
2790
2790
2790
2790
2790
2790
2790
2790
2790
2790
2790
2790
2790
2790
2790
2790
2790.23
2794.68
2817.85
2854.31
2875.2
2879.82
2877.59
2864.35
2849.92
2840.58
2836.71
2836.6
2841.11
2847.31
2850.27
2851.38
2852.34
2853.44
2853.92
2853.98
2854.28
2855.41
2857.28
2859.32
2861.33
2863.31
2865.38
2867.67
2870.26
2873.13
2876.28
2879.69
2883.32
2887.19
2891.31
2895.7
2900.36
2905.31
2910.53
2915.99
2921.65
2927.54
2933.66
2940.05
2946.69
2953.56
2960.64
2967.94
2975.45
2983.19
2991.19
2999.44
3007.96
3016.72
3025.7
3034.88
3044.25
3053.81
3063.55
3073.46
3083.54
3093.78
3104.19
3114.75
3125.46
3136.3
3147.27
3158.34
3169.52
3180.77
3192.07
3203.39
3214.7
3225.98
3237.19
3248.26
3259.16
3269.81
3280.15
3290.07
3299.48
3308.26
3316.24
3323.29
3329
3333.29
3335.84
3336.45
3334.12
3328.39
3318.66
3303.7
3282.92
3254.15
3216.69
3166.84
3102.66
3023.91
2925.51
2794.42
2790
2790
2790
2790
2790
2790
2790
2790
2790
2790
2790
2790
2790
2790
2790
2790
2790
2790
2790
2790
2790
2790.17
2793.76
2815.06
2852.12
2875.17
2881.09
2879.13
2866.27
2851.6
2842.31
2838.77
2838.96
2844
2850.88
2854.13
2855.27
2856.19
2857.3
2857.87
2858
2858.44
2859.73
2861.82
2864.09
2866.32
2868.5
2870.76
2873.25
2876.03
2879.08
2882.4
2885.97
2889.75
2893.75
2897.99
2902.48
2907.25
2912.29
2917.61
2923.18
2928.96
2934.96
2941.21
2947.73
2954.51
2961.53
2968.78
2976.25
2983.94
2991.87
3000.06
3008.52
3017.26
3026.25
3035.48
3044.93
3054.58
3064.43
3074.48
3084.73
3095.17
3105.79
3116.6
3127.59
3138.76
3150.1
3161.59
3173.24
3185.02
3196.94
3208.95
3221.05
3233.22
3245.43
3257.64
3269.84
3281.96
3293.97
3305.82
3317.42
3328.71
3339.57
3349.91
3359.58
3368.38
3376.19
3382.49
3387.24
3389.88
3390.28
3386.92
3379.47
3366.69
3347.33
3320.45
3282.11
3230.25
3160.6
3069.29
2945.72
2790
2790
2790
2790
2790
2790
2790
2790
2790
2790
2790
2790
2790
2790
2790
2790
2790
2790
2790
2790
2790
2790.14
2793.36
2813.58
2851.02
2875.42
2882.16
2880.17
2867.49
2852.79
2843.81
2840.65
2841.26
2846.99
2854.38
2857.78
2858.92
2859.83
2860.96
2861.59
2861.8
2862.37
2863.84
2866.13
2868.6
2871.02
2873.39
2875.84
2878.51
2881.48
2884.72
2888.22
2891.95
2895.87
2900.01
2904.37
2908.99
2913.86
2919.01
2924.43
2930.1
2935.99
2942.1
2948.47
2955.11
2962.02
2969.18
2976.57
2984.19
2992.05
3000.14
3008.51
3017.16
3026.09
3035.3
3044.75
3054.43
3064.32
3074.43
3084.76
3095.31
3106.06
3117.01
3128.18
3139.55
3151.12
3162.89
3174.84
3186.98
3199.3
3211.78
3224.42
3237.19
3250.09
3263.09
3276.18
3289.32
3302.5
3315.66
3328.79
3341.81
3354.69
3367.33
3379.67
3391.59
3402.98
3413.67
3423.42
3432.12
3439.06
3444.25
3446.97
3447.19
3442.58
3433.58
3417.89
3392.53
3354.08
3293.93
3211.96
3092.97
2790
2790
2790
2790
2790
2790
2790
2790
2790
2790
2790
2790
2790
2790
2790
2790
2790
2790
2790
2790
2790
2790.14
2793.31
2813.34
2850.99
2875.93
2883.05
2880.9
2868.07
2853.55
2845.11
2842.27
2843.38
2850.02
2857.76
2861.23
2862.42
2863.41
2864.61
2865.29
2865.57
2866.27
2867.9
2870.38
2873
2875.58
2878.08
2880.67
2883.5
2886.63
2890.03
2893.69
2897.57
2901.65
2905.93
2910.43
2915.18
2920.18
2925.45
2930.98
2936.75
2942.75
2948.97
2955.45
2962.21
2969.24
2976.52
2984.04
2991.81
2999.81
3008.06
3016.59
3025.4
3034.51
3043.91
3053.56
3063.45
3073.56
3083.91
3094.49
3105.29
3116.32
3127.57
3139.05
3150.75
3162.68
3174.83
3187.19
3199.76
3212.54
3225.52
3238.69
3252.04
3265.57
3279.25
3293.08
3307.04
3321.1
3335.25
3349.46
3363.68
3377.9
3392.04
3406.06
3419.88
3433.43
3446.54
3459.12
3470.98
3481.85
3491.55
3499.2
3505.02
3507.81
3507.48
3500.66
3487.61
3463.43
3418.05
3354.26
3243.23
2790
2790
2790
2790
2790
2790
2790
2790
2790
2790
2790
2790
2790
2790
2790
2790
2790
2790
2790
2790
2790
2790.14
2793.45
2814.11
2852.13
2876.88
2883.79
2881.38
2868.12
2853.9
2846.2
2843.69
2845.39
2853.08
2861
2864.49
2865.8
2866.97
2868.28
2869.02
2869.38
2870.22
2872.02
2874.64
2877.37
2880.03
2882.61
2885.29
2888.22
2891.47
2895
2898.79
2902.81
2907.03
2911.46
2916.12
2921.03
2926.17
2931.56
2937.21
2943.11
2949.22
2955.55
2962.14
2969.01
2976.15
2983.55
2991.2
2999.1
3007.23
3015.63
3024.3
3033.28
3042.55
3052.12
3061.95
3072.02
3082.34
3092.89
3103.69
3114.73
3126.01
3137.53
3149.29
3161.29
3173.53
3186.01
3198.72
3211.67
3224.86
3238.28
3251.92
3265.77
3279.84
3294.12
3308.59
3323.24
3338.06
3353.04
3368.17
3383.41
3398.74
3414.13
3429.55
3444.95
3460.28
3475.43
3490.35
3504.86
3518.9
3532.2
3544.43
3555.34
3563.83
3570.21
3572.82
3571.78
3561.06
3534.56
3494.25
3406.1
2790
2790
2790
2790
2790
2790
2790
2790
2790
2790
2790
2790
2790
2790
2790
2790
2790
2790
2790
2790
2790
2790.18
2793.98
2816.17
2854.49
2878.14
2884.3
2881.5
2867.76
2854
2847.1
2845.04
2847.5
2856.22
2864.08
2867.51
2868.98
2870.41
2871.88
2872.71
2873.17
2874.17
2876.16
2878.89
2881.67
2884.35
2886.95
2889.67
2892.68
2896.01
2899.64
2903.55
2907.69
2912.06
2916.65
2921.48
2926.54
2931.83
2937.37
2943.15
2949.16
2955.39
2961.84
2968.54
2975.52
2982.78
2990.29
2998.06
3006.08
3014.35
3022.87
3031.69
3040.81
3050.24
3059.96
3069.96
3080.21
3090.71
3101.45
3112.45
3123.71
3135.22
3146.98
3158.99
3171.26
3183.78
3196.57
3209.6
3222.89
3236.44
3250.24
3264.3
3278.6
3293.15
3307.93
3322.96
3338.21
3353.69
3369.39
3385.3
3401.4
3417.68
3434.13
3450.71
3467.42
3484.22
3501.04
3517.86
3534.57
3551.12
3567.28
3582.99
3597.93
3611.88
3624.32
3634.12
3641.52
3643.52
3635.75
3615.29
3566.35
2790
2790
2790
2790
2790
2790
2790
2790
2790
2790
2790
2790
2790
2790
2790
2790
2790
2790
2790
2790
2790
2790.25
2794.99
2819.41
2857.72
2879.6
2884.61
2881.03
2866.88
2853.94
2847.85
2846.45
2850
2859.57
2867.05
2870.27
2871.88
2873.58
2875.21
2876.14
2876.75
2877.95
2880.14
2882.97
2885.76
2888.42
2891.01
2893.77
2896.83
2900.24
2903.97
2907.98
2912.25
2916.76
2921.51
2926.51
2931.74
2937.19
2942.87
2948.79
2954.93
2961.28
2967.85
2974.66
2981.76
2989.12
2996.75
3004.63
3012.77
3021.16
3029.81
3038.76
3048.02
3057.59
3067.47
3077.62
3088.03
3098.7
3109.62
3120.81
3132.27
3143.99
3155.97
3168.22
3180.74
3193.53
3206.59
3219.92
3233.52
3247.4
3261.55
3275.98
3290.69
3305.67
3320.92
3336.44
3352.22
3368.28
3384.6
3401.18
3418.02
3435.11
3452.44
3470.01
3487.8
3505.8
3523.99
3542.33
3560.78
3579.31
3597.81
3616.23
3634.34
3652.12
3669.05
3685.08
3699.16
3710.54
3717.68
3714.74
3703.63
2790
2790
2790
2790
2790
2790
2790
2790
2790
2790
2790
2790
2790
2790
2790
2790
2790
2790
2790
2790
2790.01
2790.39
2796.6
2823.8
2861.58
2881.18
2884.8
2879.9
2865.42
2853.81
2848.55
2847.99
2853.07
2863.23
2870.04
2872.88
2874.54
2876.44
2878.17
2879.18
2879.95
2881.41
2883.83
2886.75
2889.56
2892.2
2894.81
2897.61
2900.75
2904.25
2908.06
2912.17
2916.55
2921.19
2926.09
2931.25
2936.64
2942.25
2948.07
2954.13
2960.4
2966.87
2973.56
2980.5
2987.7
2995.18
3002.92
3010.92
3019.17
3027.67
3036.45
3045.52
3054.92
3064.63
3074.64
3084.94
3095.5
3106.33
3117.42
3128.79
3140.43
3152.35
3164.53
3177
3189.75
3202.78
3216.09
3229.7
3243.58
3257.76
3272.24
3287.01
3302.07
3317.43
3333.09
3349.05
3365.31
3381.87
3398.73
3415.9
3433.37
3451.15
3469.22
3487.61
3506.29
3525.27
3544.53
3564.08
3583.88
3603.91
3624.14
3644.52
3664.94
3685.34
3705.43
3725.27
3743.96
3761.9
3776.45
3785.53
3795.58
2790
2790
2790
2790
2790
2790
2790
2790
2790
2790
2790
2790
2790
2790
2790
2790
2790
2790
2790
2790
2790.01
2790.65
2798.97
2829.24
2865.73
2882.74
2884.84
2878.17
2863.47
2853.66
2849.35
2849.71
2856.75
2867.12
2873.1
2875.49
2877.14
2879.1
2880.82
2881.84
2882.78
2884.51
2887.2
2890.21
2893.05
2895.7
2898.36
2901.24
2904.48
2908.08
2911.98
2916.18
2920.66
2925.42
2930.45
2935.76
2941.3
2947.05
2953.01
2959.21
2965.6
2972.19
2978.99
2986.04
2993.36
3000.95
3008.8
3016.9
3025.26
3033.87
3042.77
3051.97
3061.5
3071.34
3081.49
3091.92
3102.63
3113.6
3124.86
3136.39
3148.22
3160.32
3172.7
3185.38
3198.34
3211.6
3225.16
3239.01
3253.16
3267.63
3282.4
3297.48
3312.88
3328.59
3344.62
3360.97
3377.65
3394.65
3411.98
3429.65
3447.66
3466.01
3484.7
3503.74
3523.13
3542.87
3562.96
3583.4
3604.17
3625.26
3646.65
3668.27
3690.12
3712.05
3733.94
3755.63
3776.47
3796.59
3813.46
3827.52
3841.22
2790
2790
2790
2790
2790
2790
2790
2790
2790
2790
2790
2790
2790
2790
2790
2790
2790
2790
2790
2790
2790.03
2791.12
2802.27
2835.55
2869.82
2884.16
2884.65
2875.89
2861.28
2853.26
2850.3
2851.81
2860.88
2871.04
2876.18
2878.17
2879.79
2881.75
2883.35
2884.33
2885.44
2887.46
2890.38
2893.48
2896.34
2899.02
2901.75
2904.74
2908.09
2911.78
2915.76
2920.03
2924.59
2929.45
2934.6
2940.04
2945.71
2951.59
2957.69
2964.01
2970.52
2977.23
2984.15
2991.31
2998.74
3006.43
3014.38
3022.59
3031.04
3039.77
3048.78
3058.1
3067.75
3077.72
3087.99
3098.55
3109.39
3120.51
3131.91
3143.6
3155.59
3167.86
3180.43
3193.29
3206.46
3219.93
3233.7
3247.79
3262.18
3276.9
3291.94
3307.31
3323
3339.02
3355.38
3372.08
3389.12
3406.51
3424.24
3442.34
3460.78
3479.6
3498.77
3518.31
3538.22
3558.51
3579.16
3600.17
3621.52
3643.19
3665.16
3687.32
3709.64
3731.98
3754.21
3775.84
3796.58
3816.16
3832.5
3844.66
3854.73
2790
2790
2790
2790
2790
2790
2790
2790
2790
2790
2790
2790
2790
2790
2790
2790
2790
2790
2790
2790
2790.07
2791.92
2806.64
2842.43
2873.49
2885.17
2884.23
2873.22
2859.17
2852.67
2851.19
2854.49
2865.27
2874.76
2879.08
2880.81
2882.46
2884.37
2885.81
2886.73