/*--------------------------------*- C++ -*----------------------------------*\
| =========                 |                                                 |
| \\      /  F ield         | OpenFOAM: The Open Source CFD Toolbox           |
|  \\    /   O peration     | Version:  2412                                  |
|   \\  /    A nd           | Website:  www.openfoam.com                      |
|    \\/     M anipulation  |                                                 |
\*---------------------------------------------------------------------------*/
FoamFile
{
    version     2.0;
    format      ascii;
    arch        "LSB;label=32;scalar=64";
    class       volScalarField;
    location    "0.025";
    object      T;
}
// * * * * * * * * * * * * * * * * * * * * * * * * * * * * * * * * * * * * * //

dimensions      [0 0 0 1 0 0 0];

internalField   nonuniform List<scalar> 
78650
(
223
223
223
223
223
223
223
223
223
223
223
223
223
223
223
223.003
223.049
223.304
223.82
224.266
224.401
224.416
224.253
223.882
223.479
223.14
222.884
222.705
222.603
222.54
222.478
222.397
222.304
222.212
222.127
222.045
221.963
221.885
221.817
221.757
221.703
221.652
221.605
221.56
221.521
221.487
221.46
221.44
221.425
221.414
221.406
221.4
221.398
221.397
221.398
221.4
221.402
221.402
221.402
221.401
221.398
221.392
221.383
221.369
221.351
221.328
221.298
221.263
221.22
221.167
221.104
221.027
220.936
220.828
220.702
220.555
220.385
220.19
219.967
219.714
219.426
219.101
218.735
218.324
217.863
217.347
216.772
216.133
215.427
214.646
213.783
212.834
211.789
210.66
209.425
208.098
206.648
205.087
203.406
201.626
199.754
197.826
195.837
193.791
191.656
189.448
187.291
185.254
183.32
181.464
179.623
177.86
176.126
174.501
173.035
171.678
170.532
169.646
169.173
169.013
167.709
223
223
223
223
223
223
223
223
223
223
223
223
223
223
223
223.001
223.03
223.227
223.715
224.213
224.404
224.454
224.34
223.997
223.582
223.229
222.963
222.776
222.67
222.611
222.557
222.487
222.4
222.311
222.228
222.147
222.067
221.989
221.922
221.863
221.812
221.764
221.72
221.679
221.643
221.613
221.59
221.574
221.564
221.557
221.554
221.553
221.555
221.56
221.566
221.574
221.582
221.589
221.596
221.603
221.608
221.611
221.612
221.608
221.601
221.59
221.573
221.551
221.523
221.487
221.441
221.384
221.314
221.229
221.128
221.009
220.869
220.706
220.519
220.304
220.059
219.779
219.463
219.105
218.702
218.249
217.741
217.174
216.541
215.836
215.057
214.2
213.251
212.213
211.061
209.83
208.492
207.066
205.543
203.869
202.016
200.141
198.226
196.21
194.226
192.12
189.928
187.75
185.615
183.544
181.591
179.726
177.868
176.09
174.453
172.995
171.838
170.88
170.158
169.723
167.997
223
223
223
223
223
223
223
223
223
223
223
223
223
223
223
223.001
223.017
223.162
223.602
224.142
224.405
224.488
224.413
224.106
223.687
223.322
223.047
222.852
222.74
222.683
222.637
222.577
222.498
222.412
222.329
222.25
222.171
222.094
222.027
221.97
221.921
221.877
221.837
221.8
221.768
221.742
221.723
221.711
221.705
221.703
221.705
221.709
221.715
221.725
221.737
221.751
221.765
221.779
221.793
221.807
221.82
221.833
221.842
221.849
221.853
221.853
221.849
221.841
221.827
221.806
221.778
221.74
221.69
221.627
221.55
221.456
221.345
221.212
221.058
220.878
220.672
220.434
220.163
219.854
219.503
219.107
218.661
218.16
217.599
216.974
216.279
215.508
214.651
213.711
212.675
211.555
210.311
208.973
207.513
205.955
204.295
202.487
200.606
198.604
196.562
194.528
192.431
190.215
188.043
185.829
183.671
181.59
179.533
177.571
175.738
174.034
172.618
171.534
170.883
170.621
168.888
223
223
223
223
223
223
223
223
223
223
223
223
223
223
223
223
223.009
223.108
223.486
224.05
224.398
224.518
224.467
224.214
223.802
223.426
223.14
222.934
222.814
222.758
222.719
222.668
222.597
222.513
222.431
222.353
222.276
222.2
222.134
222.079
222.033
221.993
221.957
221.923
221.896
221.874
221.859
221.852
221.85
221.853
221.858
221.866
221.878
221.892
221.909
221.929
221.949
221.969
221.99
222.011
222.033
222.053
222.072
222.089
222.102
222.113
222.121
222.125
222.126
222.12
222.108
222.088
222.058
222.016
221.961
221.893
221.808
221.705
221.582
221.437
221.268
221.072
220.845
220.584
220.286
219.947
219.562
219.128
218.637
218.086
217.47
216.784
216.019
215.172
214.227
213.191
212.047
210.829
209.495
208.057
206.505
204.806
202.942
201.002
198.975
196.896
194.816
192.705
190.592
188.458
186.271
184.138
182.015
179.97
177.985
176.094
174.385
172.903
171.843
171.188
168.965
223
223
223
223
223
223
223
223
223
223
223
223
223
223
223
223
223.004
223.067
223.371
223.936
224.371
224.539
224.509
224.318
223.926
223.54
223.239
223.022
222.893
222.836
222.802
222.759
222.695
222.615
222.533
222.456
222.382
222.308
222.244
222.191
222.148
222.112
222.08
222.052
222.028
222.01
222
221.997
222
222.006
222.016
222.028
222.044
222.063
222.085
222.11
222.136
222.163
222.19
222.218
222.247
222.276
222.304
222.33
222.354
222.376
222.395
222.411
222.425
222.434
222.437
222.434
222.422
222.401
222.368
222.323
222.263
222.188
222.095
221.982
221.848
221.689
221.503
221.287
221.037
220.749
220.421
220.047
219.622
219.144
218.605
218
217.323
216.57
215.732
214.81
213.784
212.668
211.424
210.092
208.635
207.071
205.409
203.575
201.632
199.562
197.342
195.096
192.82
190.584
188.34
186.119
183.958
181.852
179.794
177.912
176.276
174.907
173.804
172.984
170.447
223
223
223
223
223
223
223
223
223
223
223
223
223
223
223
223
223.002
223.038
223.266
223.801
224.316
224.546
224.542
224.418
224.059
223.664
223.347
223.118
222.979
222.917
222.885
222.848
222.792
222.717
222.636
222.562
222.49
222.42
222.357
222.307
222.268
222.236
222.209
222.185
222.166
222.152
222.146
222.146
222.153
222.164
222.177
222.194
222.214
222.237
222.264
222.294
222.326
222.359
222.393
222.427
222.463
222.5
222.536
222.571
222.605
222.637
222.667
222.696
222.722
222.745
222.763
222.775
222.781
222.78
222.768
222.745
222.71
222.661
222.596
222.514
222.414
222.292
222.146
221.973
221.77
221.534
221.261
220.947
220.588
220.178
219.712
219.186
218.595
217.933
217.187
216.356
215.427
214.413
213.29
212.084
210.742
209.283
207.691
205.984
204.154
202.214
200.205
198.028
195.809
193.461
191.132
188.694
186.302
183.872
181.474
179.244
177.325
175.747
174.66
174.056
171.7
223
223
223
223
223
223
223
223
223
223
223
223
223
223
223
223
223.001
223.019
223.176
223.653
224.228
224.541
224.576
224.508
224.192
223.795
223.465
223.222
223.07
222.998
222.965
222.933
222.885
222.818
222.74
222.668
222.601
222.535
222.475
222.428
222.393
222.365
222.343
222.323
222.308
222.298
222.296
222.301
222.311
222.326
222.343
222.364
222.388
222.415
222.447
222.481
222.519
222.558
222.598
222.639
222.682
222.726
222.771
222.815
222.858
222.9
222.942
222.981
223.019
223.055
223.088
223.117
223.139
223.154
223.162
223.162
223.149
223.126
223.087
223.034
222.965
222.877
222.767
222.634
222.474
222.285
222.062
221.803
221.503
221.159
220.764
220.315
219.805
219.229
218.58
217.856
217.04
216.134
215.116
214.001
212.754
211.414
209.943
208.35
206.635
204.738
202.763
200.65
198.53
196.333
194.117
191.797
189.433
187.078
184.606
182.265
180.017
177.998
176.315
175.129
171.886
223
223
223
223
223
223
223
223
223
223
223
223
223
223
223
223
223
223.009
223.107
223.5
224.105
224.516
224.609
224.576
224.325
223.94
223.596
223.334
223.162
223.076
223.041
223.013
222.977
222.92
222.848
222.78
222.717
222.655
222.599
222.555
222.523
222.5
222.482
222.467
222.456
222.45
222.451
222.46
222.473
222.491
222.512
222.536
222.564
222.596
222.632
222.671
222.714
222.759
222.805
222.853
222.902
222.954
223.006
223.059
223.111
223.163
223.214
223.265
223.315
223.364
223.41
223.453
223.492
223.525
223.551
223.569
223.578
223.579
223.567
223.542
223.502
223.447
223.373
223.278
223.16
223.016
222.843
222.638
222.396
222.114
221.787
221.41
220.978
220.486
219.925
219.29
218.57
217.768
216.872
215.888
214.787
213.59
212.248
210.79
209.187
207.452
205.537
203.457
201.215
198.93
196.528
194.13
191.669
189.318
186.9
184.605
182.436
180.518
178.942
177.729
174.37
223
223
223
223
223
223
223
223
223
223
223
223
223
223
223
223
223
223.003
223.058
223.355
223.953
224.462
224.622
224.627
224.457
224.097
223.734
223.445
223.253
223.152
223.114
223.092
223.067
223.023
222.959
222.895
222.838
222.782
222.729
222.688
222.659
222.64
222.626
222.616
222.609
222.606
222.611
222.622
222.638
222.659
222.684
222.712
222.744
222.78
222.819
222.864
222.911
222.962
223.014
223.068
223.124
223.183
223.243
223.304
223.365
223.427
223.488
223.549
223.61
223.67
223.73
223.787
223.841
223.89
223.934
223.972
224.002
224.023
224.035
224.037
224.025
224
223.958
223.899
223.819
223.717
223.588
223.432
223.243
223.019
222.756
222.448
222.09
221.677
221.205
220.667
220.055
219.366
218.583
217.708
216.719
215.633
214.415
213.098
211.644
210.065
208.351
206.482
204.456
202.287
199.968
197.496
194.922
192.255
189.59
186.809
184.234
181.932
180.206
179.066
175.65
223
223
223
223
223
223
223
223
223
223
223
223
223
223
223
223
223
223.001
223.028
223.231
223.777
224.371
224.618
224.678
224.578
224.255
223.871
223.557
223.348
223.23
223.189
223.173
223.159
223.129
223.075
223.016
222.964
222.914
222.865
222.827
222.801
222.785
222.775
222.769
222.765
222.766
222.773
222.787
222.805
222.829
222.857
222.889
222.924
222.964
223.008
223.057
223.109
223.165
223.223
223.283
223.346
223.411
223.479
223.548
223.618
223.688
223.759
223.83
223.901
223.973
224.045
224.116
224.184
224.249
224.31
224.365
224.415
224.457
224.491
224.516
224.531
224.536
224.526
224.501
224.458
224.395
224.311
224.201
224.064
223.895
223.691
223.448
223.16
222.824
222.433
221.981
221.459
220.866
220.189
219.429
218.565
217.6
216.504
215.299
213.95
212.479
210.853
209.084
207.18
205.093
202.925
200.628
198.276
195.778
193.251
190.546
187.854
185.362
183.076
181.317
176.974
223
223
223
223
223
223
223
223
223
223
223
223
223
223
223
223
223
223
223.012
223.135
223.592
224.239
224.602
224.726
224.669
224.4
224.01
223.677
223.45
223.315
223.268
223.255
223.249
223.235
223.194
223.142
223.095
223.052
223.007
222.97
222.946
222.933
222.926
222.924
222.924
222.927
222.936
222.952
222.973
222.999
223.03
223.066
223.105
223.149
223.197
223.25
223.308
223.369
223.433
223.499
223.568
223.64
223.714
223.791
223.869
223.948
224.028
224.109
224.191
224.273
224.357
224.44
224.522
224.602
224.678
224.751
224.819
224.881
224.937
224.985
225.024
225.053
225.071
225.078
225.069
225.044
224.999
224.932
224.841
224.723
224.574
224.392
224.171
223.907
223.594
223.228
222.801
222.309
221.737
221.086
220.339
219.498
218.542
217.482
216.284
214.968
213.495
211.877
210.083
208.12
205.965
203.622
201.113
198.465
195.831
193.173
190.567
188.223
186.131
184.468
180.225
223
223
223
223
223
223
223
223
223
223
223
223
223
223
223
223
223
223
223.004
223.07
223.415
224.068
224.564
224.752
224.729
224.536
224.159
223.81
223.56
223.405
223.348
223.339
223.341
223.34
223.315
223.272
223.231
223.193
223.151
223.115
223.092
223.08
223.077
223.078
223.082
223.087
223.099
223.116
223.139
223.168
223.203
223.241
223.284
223.332
223.385
223.442
223.505
223.571
223.641
223.713
223.788
223.866
223.947
224.031
224.117
224.205
224.293
224.383
224.475
224.568
224.662
224.757
224.852
224.946
225.037
225.126
225.211
225.291
225.367
225.436
225.499
225.554
225.599
225.633
225.656
225.665
225.659
225.634
225.588
225.518
225.422
225.295
225.136
224.938
224.698
224.409
224.066
223.662
223.191
222.651
222.028
221.32
220.504
219.585
218.534
217.37
216.058
214.611
212.998
211.229
209.302
207.183
204.874
202.275
199.536
196.673
193.603
190.766
188.201
186.222
181.267
223
223
223
223
223
223
223
223
223
223
223
223
223
223
223
223
223
223
223.001
223.032
223.265
223.869
224.482
224.757
224.771
224.661
224.316
223.949
223.672
223.501
223.432
223.423
223.434
223.444
223.433
223.4
223.365
223.331
223.293
223.258
223.235
223.224
223.223
223.229
223.236
223.244
223.258
223.277
223.303
223.335
223.372
223.414
223.462
223.514
223.571
223.633
223.7
223.771
223.847
223.925
224.005
224.09
224.178
224.269
224.363
224.458
224.555
224.654
224.755
224.857
224.962
225.068
225.175
225.282
225.387
225.491
225.592
225.69
225.784
225.873
225.957
226.035
226.105
226.167
226.218
226.258
226.284
226.296
226.292
226.266
226.219
226.144
226.042
225.907
225.735
225.521
225.26
224.948
224.574
224.136
223.62
223.023
222.327
221.531
220.613
219.584
218.409
217.098
215.618
213.989
212.187
210.214
208.053
205.703
203.157
200.608
197.716
195.049
192.349
190.048
184.655
223
223
223
223
223
223
223
223
223
223
223
223
223
223
223
223
223
223
223
223.013
223.153
223.663
224.348
224.739
224.814
224.762
224.466
224.089
223.79
223.606
223.522
223.51
223.526
223.546
223.544
223.52
223.491
223.463
223.43
223.396
223.374
223.364
223.364
223.374
223.385
223.397
223.413
223.435
223.463
223.498
223.538
223.585
223.636
223.693
223.754
223.82
223.892
223.969
224.049
224.133
224.22
224.31
224.404
224.502
224.603
224.706
224.811
224.918
225.027
225.139
225.254
225.37
225.488
225.607
225.726
225.843
225.959
226.073
226.184
226.292
226.396
226.495
226.589
226.675
226.754
226.824
226.883
226.928
226.959
226.975
226.975
226.948
226.9
226.821
226.712
226.566
226.379
226.147
225.861
225.517
225.105
224.621
224.049
223.389
222.618
221.74
220.724
219.578
218.268
216.803
215.145
213.314
211.275
209.012
206.515
203.816
200.871
197.926
195.257
193.232
188.422
223
223
223
223
223
223
223
223
223
223
223
223
223
223
223
223
223
223
223
223.005
223.079
223.47
224.175
224.694
224.848
224.827
224.603
224.234
223.918
223.716
223.612
223.591
223.608
223.639
223.644
223.63
223.608
223.587
223.561
223.529
223.508
223.499
223.501
223.515
223.529
223.544
223.563
223.588
223.619
223.657
223.701
223.752
223.808
223.868
223.934
224.005
224.081
224.162
224.248
224.337
224.43
224.526
224.626
224.73
224.838
224.948
225.061
225.176
225.294
225.414
225.538
225.664
225.793
225.923
226.054
226.184
226.314
226.443
226.57
226.695
226.817
226.936
227.051
227.16
227.263
227.359
227.447
227.525
227.591
227.642
227.678
227.697
227.699
227.674
227.624
227.541
227.424
227.267
227.064
226.811
226.498
226.122
225.669
225.137
224.506
223.775
222.92
221.943
220.812
219.533
218.071
216.449
214.627
212.587
210.311
207.756
205.224
202.115
199.08
196.419
190.655
223
223
223
223
223
223
223
223
223
223
223
223
223
223
223
223
223
223
223
223.001
223.037
223.308
223.977
224.617
224.854
224.873
224.729
224.386
224.051
223.821
223.694
223.663
223.679
223.725
223.74
223.733
223.718
223.705
223.687
223.66
223.64
223.632
223.635
223.652
223.669
223.688
223.71
223.737
223.771
223.813
223.862
223.916
223.976
224.04
224.11
224.185
224.266
224.352
224.443
224.537
224.635
224.737
224.842
224.952
225.067
225.184
225.304
225.427
225.552
225.681
225.813
225.948
226.086
226.227
226.369
226.511
226.654
226.796
226.938
227.079
227.218
227.354
227.488
227.619
227.745
227.866
227.98
228.086
228.184
228.27
228.344
228.403
228.445
228.468
228.473
228.448
228.395
228.307
228.18
228.009
227.788
227.512
227.168
226.753
226.247
225.649
224.936
224.108
223.136
222.021
220.733
219.273
217.602
215.726
213.63
211.306
208.72
206.142
203.212
200.847
195.685
223
223
223
223
223
223
223
223
223
223
223
223
223
223
223
223
223
223
223
223
223.016
223.186
223.774
224.502
224.837
224.921
224.842
224.53
224.173
223.916
223.773
223.731
223.747
223.806
223.835
223.833
223.826
223.819
223.81
223.789
223.771
223.763
223.767
223.787
223.808
223.83
223.855
223.886
223.923
223.968
224.02
224.078
224.142
224.21
224.284
224.363
224.447
224.537
224.633
224.732
224.836
224.942
225.053
225.169
225.289
225.413
225.54
225.67
225.802
225.938
226.078
226.222
226.369
226.519
226.671
226.825
226.98
227.135
227.29
227.445
227.599
227.752
227.904
228.053
228.2
228.343
228.481
228.613
228.738
228.855
228.962
229.058
229.141
229.207
229.255
229.283
229.29
229.266
229.21
229.115
228.978
228.792
228.548
228.241
227.855
227.388
226.819
226.147
225.345
224.41
223.309
222.04
220.57
218.903
216.993
214.831
212.396
209.781
206.798
204.038
198.608
223
223
223
223
223
223
223
223
223
223
223
223
223
223
223
223
223
223
223
223
223.006
223.105
223.583
224.356
224.809
224.966
224.92
224.654
224.286
224.01
223.854
223.802
223.814
223.883
223.929
223.933
223.931
223.931
223.93
223.916
223.9
223.894
223.901
223.924
223.948
223.973
224.002
224.035
224.076
224.124
224.178
224.239
224.306
224.378
224.455
224.537
224.625
224.719
224.819
224.923
225.031
225.143
225.259
225.379
225.505
225.635
225.768
225.904
226.043
226.186
226.333
226.485
226.64
226.799
226.961
227.124
227.289
227.456
227.623
227.791
227.959
228.127
228.295
228.462
228.627
228.789
228.949
229.105
229.256
229.401
229.538
229.667
229.785
229.891
229.983
230.057
230.112
230.144
230.153
230.128
230.068
229.965
229.814
229.609
229.337
228.997
228.568
228.046
227.406
226.644
225.728
224.655
223.396
221.948
220.261
218.331
216.137
213.741
211.191
208.591
203.626
223
223
223
223
223
223
223
223
223
223
223
223
223
223
223
223
223
223
223
223
223.002
223.056
223.422
224.191
224.774
224.992
224.971
224.762
224.395
224.104
223.937
223.872
223.878
223.952
224.016
224.031
224.035
224.041
224.047
224.041
224.03
224.025
224.036
224.062
224.09
224.119
224.151
224.187
224.23
224.28
224.336
224.4
224.469
224.543
224.623
224.708
224.8
224.897
225
225.109
225.221
225.337
225.458
225.583
225.714
225.849
225.988
226.13
226.276
226.425
226.579
226.737
226.9
227.066
227.237
227.41
227.585
227.761
227.94
228.12
228.3
228.482
228.664
228.846
229.028
229.208
229.387
229.564
229.738
229.907
230.071
230.229
230.379
230.519
230.649
230.765
230.867
230.95
231.011
231.048
231.059
231.033
230.967
230.856
230.688
230.46
230.153
229.764
229.267
228.659
227.912
227.019
225.947
224.685
223.196
221.48
219.481
217.274
214.748
212.198
207.681
223
223
223
223
223
223
223
223
223
223
223
223
223
223
223
223
223
223
223
223
223.001
223.03
223.297
224.027
224.721
225.004
225.005
224.854
224.5
224.198
224.017
223.937
223.936
224.015
224.099
224.128
224.138
224.152
224.164
224.164
224.158
224.157
224.171
224.202
224.234
224.267
224.301
224.339
224.384
224.436
224.494
224.559
224.63
224.707
224.789
224.877
224.972
225.072
225.178
225.29
225.406
225.526
225.651
225.781
225.916
226.056
226.2
226.348
226.499
226.654
226.814
226.978
227.148
227.322
227.499
227.681
227.864
228.05
228.239
228.429
228.621
228.814
229.009
229.205
229.402
229.598
229.794
229.99
230.183
230.375
230.563
230.746
230.924
231.096
231.259
231.413
231.555
231.683
231.795
231.886
231.954
231.995
232.008
231.981
231.907
231.78
231.586
231.325
230.972
230.526
229.956
229.258
228.392
227.348
226.091
224.599
222.836
220.835
218.503
216.055
212.012
223
223
223
223
223
223
223
223
223
223
223
223
223
223
223
223
223
223
223
223
223
223.016
223.208
223.877
224.649
225.004
225.037
224.933
224.596
224.284
224.085
223.995
223.989
224.075
224.18
224.224
224.242
224.261
224.279
224.284
224.282
224.284
224.303
224.337
224.374
224.41
224.448
224.489
224.536
224.589
224.649
224.716
224.79
224.868
224.953
225.043
225.14
225.243
225.352
225.467
225.586
225.71
225.838
225.972
226.111
226.255
226.404
226.556
226.713
226.873
227.038
227.209
227.384
227.564
227.749
227.937
228.129
228.324
228.521
228.72
228.922
229.127
229.333
229.541
229.751
229.961
230.173
230.384
230.596
230.806
231.015
231.221
231.424
231.622
231.815
232.001
232.179
232.346
232.501
232.641
232.764
232.864
232.939
232.985
232.998
232.966
232.881
232.739
232.521
232.222
231.813
231.288
230.608
229.767
228.727
227.465
225.954
224.163
222.098
219.734
216.162
223
223
223
223
223
223
223
223
223
223
223
223
223
223
223
223
223
223
223
223
223
223.009
223.148
223.752
224.574
224.998
225.068
224.998
224.678
224.353
224.141
224.048
224.041
224.137
224.262
224.32
224.343
224.365
224.389
224.397
224.397
224.401
224.424
224.463
224.505
224.546
224.588
224.632
224.681
224.737
224.8
224.87
224.945
225.026
225.113
225.206
225.305
225.41
225.522
225.639
225.761
225.888
226.02
226.157
226.299
226.447
226.6
226.757
226.918
227.083
227.253
227.428
227.609
227.795
227.986
228.181
228.38
228.581
228.786
228.994
229.205
229.419
229.635
229.854
230.075
230.298
230.523
230.749
230.975
231.202
231.429
231.655
231.879
232.101
232.32
232.534
232.742
232.944
233.137
233.319
233.488
233.641
233.775
233.885
233.968
234.018
234.031
233.993
233.891
233.72
233.454
233.089
232.591
231.949
231.113
230.068
228.768
227.178
225.333
223.087
219.909
223
223
223
223
223
223
223
223
223
223
223
223
223
223
223
223
223
223
223
223
223
223.005
223.111
223.656
224.507
224.992
225.099
225.047
224.741
224.406
224.188
224.098
224.096
224.201
224.345
224.414
224.44
224.463
224.488
224.499
224.501
224.508
224.534
224.577
224.625
224.671
224.717
224.765
224.819
224.878
224.945
225.018
225.096
225.18
225.27
225.365
225.466
225.573
225.687
225.806
225.931
226.061
226.195
226.335
226.481
226.632
226.788
226.949
227.114
227.283
227.458
227.637
227.823
228.014
228.21
228.411
228.616
228.824
229.036
229.251
229.47
229.692
229.917
230.145
230.377
230.61
230.846
231.085
231.325
231.566
231.809
232.052
232.295
232.536
232.777
233.015
233.25
233.481
233.706
233.924
234.133
234.33
234.514
234.682
234.829
234.949
235.037
235.089
235.101
235.05
234.93
234.726
234.413
233.977
233.373
232.587
231.548
230.224
228.607
226.548
223.644
223
223
223
223
223
223
223
223
223
223
223
223
223
223
223
223
223
223
223
223
223
223.004
223.089
223.59
224.456
224.991
225.128
225.083
224.785
224.445
224.229
224.146
224.151
224.268
224.428
224.504
224.53
224.552
224.578
224.591
224.594
224.604
224.634
224.683
224.735
224.787
224.838
224.89
224.948
225.012
225.083
225.159
225.242
225.329
225.421
225.518
225.622
225.731
225.847
225.969
226.096
226.228
226.365
226.507
226.655
226.81
226.969
227.133
227.302
227.475
227.653
227.837
228.026
228.222
228.423
228.629
228.839
229.053
229.271
229.493
229.718
229.948
230.18
230.417
230.657
230.9
231.146
231.395
231.647
231.901
232.156
232.414
232.672
232.932
233.191
233.449
233.707
233.962
234.215
234.463
234.706
234.942
235.168
235.383
235.584
235.766
235.928
236.058
236.156
236.211
236.221
236.154
236.004
235.745
235.348
234.786
233.98
232.902
231.487
229.636
226.985
223
223
223
223
223
223
223
223
223
223
223
223
223
223
223
223
223
223
223
223
223
223.003
223.079
223.556
224.431
224.997
225.153
225.107
224.814
224.473
224.264
224.19
224.204
224.338
224.51
224.589
224.615
224.636
224.663
224.677
224.682
224.696
224.73
224.783
224.84
224.896
224.951
225.007
225.069
225.138
225.213
225.293
225.379
225.47
225.565
225.665
225.771
225.883
226.001
226.125
226.254
226.388
226.527
226.672
226.823
226.98
227.142
227.309
227.481
227.657
227.839
228.026
228.22
228.419
228.624
228.835
229.05
229.269
229.492
229.719
229.951
230.186
230.426
230.669
230.917
231.168
231.423
231.681
231.943
232.207
232.474
232.744
233.016
233.29
233.565
233.841
234.118
234.394
234.67
234.944
235.215
235.482
235.744
235.999
236.245
236.479
236.698
236.897
237.075
237.216
237.321
237.375
237.377
237.275
237.081
236.747
236.226
235.47
234.318
232.731
230.283
223
223
223
223
223
223
223
223
223
223
223
223
223
223
223
223
223
223
223
223
223
223.003
223.078
223.55
224.43
225.009
225.173
225.124
224.827
224.49
224.294
224.228
224.254
224.408
224.588
224.669
224.697
224.72
224.747
224.763
224.77
224.786
224.824
224.881
224.942
225.001
225.059
225.119
225.185
225.257
225.335
225.42
225.509
225.602
225.701
225.804
225.913
226.028
226.148
226.274
226.406
226.542
226.684
226.831
226.984
227.143
227.308
227.477
227.652
227.831
228.016
228.207
228.404
228.607
228.816
229.03
229.249
229.473
229.701
229.933
230.17
230.411
230.656
230.906
231.16
231.418
231.681
231.947
232.217
232.491
232.768
233.048
233.332
233.618
233.907
234.197
234.49
234.784
235.079
235.374
235.669
235.962
236.253
236.541
236.825
237.102
237.369
237.625
237.865
238.085
238.28
238.434
238.55
238.607
238.605
238.474
238.222
237.761
236.912
235.717
233.484
223
223
223
223
223
223
223
223
223
223
223
223
223
223
223
223
223
223
223
223
223
223.003
223.081
223.568
224.457
225.031
225.19
225.135
224.828
224.498
224.319
224.261
224.301
224.479
224.663
224.744
224.775
224.802
224.832
224.85
224.858
224.877
224.919
224.98
225.043
225.104
225.164
225.226
225.293
225.368
225.45
225.537
225.629
225.726
225.828
225.934
226.047
226.165
226.288
226.416
226.55
226.689
226.833
226.982
227.138
227.299
227.466
227.639
227.816
227.998
228.186
228.379
228.579
228.786
228.998
229.216
229.439
229.666
229.898
230.135
230.376
230.622
230.873
231.128
231.388
231.653
231.921
232.195
232.472
232.754
233.039
233.329
233.622
233.919
234.219
234.523
234.829
235.137
235.448
235.762
236.076
236.392
236.707
237.022
237.336
237.648
237.955
238.256
238.548
238.829
239.096
239.34
239.558
239.726
239.848
239.893
239.868
239.668
239.195
238.504
236.813
223
223
223
223
223
223
223
223
223
223
223
223
223
223
223
223
223
223
223
223
223
223.004
223.094
223.616
224.512
225.06
225.202
225.138
224.82
224.501
224.34
224.292
224.35
224.553
224.735
224.815
224.849
224.882
224.916
224.935
224.946
224.969
225.015
225.078
225.142
225.204
225.264
225.327
225.396
225.473
225.556
225.646
225.741
225.841
225.946
226.057
226.173
226.294
226.42
226.551
226.688
226.829
226.975
227.127
227.285
227.448
227.618
227.793
227.972
228.157
228.348
228.544
228.747
228.956
229.172
229.393
229.619
229.85
230.086
230.327
230.572
230.823
231.078
231.339
231.604
231.874
232.148
232.428
232.712
233
233.294
233.591
233.893
234.199
234.509
234.823
235.141
235.462
235.787
236.115
236.446
236.78
237.116
237.454
237.793
238.132
238.472
238.809
239.144
239.474
239.795
240.106
240.401
240.674
240.915
241.104
241.257
241.314
241.196
240.884
239.989
223
223
223
223
223
223
223
223
223
223
223
223
223
223
223
223
223
223
223
223
223
223.006
223.118
223.692
224.587
225.094
225.209
225.127
224.8
224.499
224.358
224.325
224.408
224.63
224.804
224.878
224.916
224.955
224.993
225.014
225.028
225.056
225.107
225.172
225.237
225.298
225.358
225.421
225.492
225.57
225.656
225.748
225.846
225.949
226.058
226.172
226.292
226.416
226.545
226.68
226.819
226.963
227.111
227.265
227.425
227.591
227.763
227.94
228.122
228.309
228.502
228.701
228.907
229.119
229.338
229.562
229.791
230.026
230.265
230.509
230.759
231.013
231.273
231.538
231.808
232.083
232.363
232.648
232.938
233.233
233.533
233.838
234.148
234.462
234.781
235.104
235.432
235.765
236.101
236.442
236.787
237.136
237.489
237.845
238.205
238.567
238.932
239.299
239.666
240.034
240.399
240.762
241.117
241.464
241.791
242.1
242.375
242.612
242.775
242.779
242.62
223
223
223
223
223
223
223
223
223
223
223
223
223
223
223
223
223
223
223
223
223
223.009
223.156
223.795
224.676
225.13
225.214
225.101
224.766
224.496
224.374
224.361
224.479
224.715
224.873
224.939
224.977
225.021
225.061
225.085
225.102
225.136
225.192
225.26
225.324
225.385
225.445
225.51
225.582
225.662
225.75
225.844
225.944
226.05
226.162
226.28
226.403
226.531
226.663
226.801
226.943
227.089
227.24
227.397
227.559
227.728
227.902
228.081
228.265
228.455
228.65
228.852
229.06
229.275
229.496
229.723
229.955
230.193
230.435
230.683
230.936
231.195
231.458
231.728
232.002
232.282
232.566
232.857
233.152
233.453
233.759
234.07
234.387
234.708
235.035
235.367
235.703
236.045
236.392
236.744
237.101
237.463
237.83
238.201
238.577
238.958
239.343
239.732
240.125
240.52
240.918
241.317
241.715
242.111
242.498
242.879
243.238
243.594
243.905
244.124
244.342
223
223
223
223
223
223
223
223
223
223
223
223
223
223
223
223
223
223
223
223
223
223.015
223.212
223.923
224.772
225.166
225.215
225.061
224.721
224.493
224.393
224.401
224.565
224.806
224.944
224.999
225.037
225.083
225.123
225.146
225.168
225.208
225.27
225.339
225.405
225.466
225.527
225.593
225.668
225.75
225.84
225.936
226.038
226.147
226.262
226.383
226.509
226.64
226.776
226.916
227.061
227.21
227.363
227.522
227.687
227.857
228.033
228.215
228.401
228.593
228.791
228.995
229.206
229.423
229.647
229.877
230.112
230.352
230.598
230.849
231.105
231.367
231.635
231.908
232.186
232.47
232.76
233.055
233.355
233.662
233.973
234.29
234.613
234.941
235.275
235.614
235.959
236.309
236.664
237.025
237.392
237.765
238.143
238.526
238.915
239.31
239.71
240.116
240.526
240.94
241.359
241.78
242.205
242.629
243.05
243.465
243.865
244.261
244.61
244.909
245.184
223
223
223
223
223
223
223
223
223
223
223
223
223
223
223
223
223
223
223
223
223.001
223.026
223.29
224.07
224.867
225.199
225.21
225.008
224.67
224.484
224.415
224.45
224.661
224.896
225.015
225.061
225.099
225.144
225.181
225.203
225.229
225.276
225.343
225.415
225.48
225.542
225.605
225.673
225.75
225.835
225.926
226.024
226.128
226.239
226.357
226.481
226.61
226.743
226.882
227.025
227.172
227.323
227.479
227.64
227.807
227.98
228.158
228.342
228.53
228.724
228.924
229.131
229.344
229.564
229.79
230.022
230.26
230.503
230.751
231.005
231.265
231.53
231.801
232.078
232.36
232.648
232.942
233.241
233.546
233.857
234.174
234.496
234.825
235.159
235.498
235.844
236.195
236.552
236.915
237.284
237.659
238.04
238.427
238.819
239.217
239.622
240.032
240.447
240.867
241.292
241.72
242.151
242.583
243.014
243.441
243.854
244.251
244.637
244.973
245.231
245.432
223
223
223
223
223
223
223
223
223
223
223
223
223
223
223
223
223
223
223
223
223.002
223.045
223.393
224.231
224.952
225.222
225.201
224.946
224.621
224.47
224.436
224.512
224.763
224.982
225.082
225.122
225.16
225.204
225.238
225.259
225.289
225.342
225.414
225.486
225.552
225.615
225.68
225.751
225.831
225.918
226.011
226.11
226.215
226.328
226.447
226.574
226.705
226.841
226.982
227.127
227.277
227.431
227.589
227.752
227.921
228.096
228.276
228.462
228.652
228.848
229.05
229.259
229.475
229.697
229.925
230.16
230.4
230.646
230.897
231.154
231.416
231.685
231.959
232.239
232.525
232.817
233.114
233.418
233.727
234.042
234.363
234.69
235.023
235.362
235.707
236.058
236.415
236.777
237.146
237.521
237.902
238.289
238.681
239.08
239.484
239.893
240.308
240.727
241.149
241.575
242.002
242.429
242.853
243.268
243.672
244.057
244.416
244.736
245.001
245.166
245.27
223
223
223
223
223
223
223