/*--------------------------------*- C++ -*----------------------------------*\
| =========                 |                                                 |
| \\      /  F ield         | OpenFOAM: The Open Source CFD Toolbox           |
|  \\    /   O peration     | Version:  2412                                  |
|   \\  /    A nd           | Website:  www.openfoam.com                      |
|    \\/     M anipulation  |                                                 |
\*---------------------------------------------------------------------------*/
FoamFile
{
    version     2.0;
    format      ascii;
    arch        "LSB;label=32;scalar=64";
    class       volVectorField;
    location    "0.039";
    object      U;
}
// * * * * * * * * * * * * * * * * * * * * * * * * * * * * * * * * * * * * * //

dimensions      [0 1 -1 0 0 0 0];

internalField   nonuniform List<vector> 
78650
(
(210 -3.74312e-12 0)
(210 -8.89458e-13 0)
(210 3.36017e-12 0)
(210 4.88415e-10 0)
(210 5.7175e-08 0)
(210 6.9106e-06 0)
(209.997 0.000629451 0)
(209.936 0.0180804 0)
(209.539 0.165014 0)
(208.626 0.572715 0)
(207.723 0.993335 0)
(207.464 1.16695 0)
(207.446 1.27723 0)
(208.072 1.16781 0)
(209.214 0.755232 0)
(210.279 0.477884 0)
(211.031 0.366134 0)
(211.59 0.428065 0)
(212.078 0.565875 0)
(212.587 0.722665 0)
(213.149 0.88553 0)
(213.753 1.08695 0)
(214.382 1.34235 0)
(214.961 1.64668 0)
(215.346 2.00406 0)
(215.502 2.4135 0)
(215.501 2.81516 0)
(215.288 3.28375 0)
(215.082 3.75175 0)
(215.029 4.2045 0)
(215.089 4.65689 0)
(215.226 5.12924 0)
(215.433 5.61843 0)
(215.633 6.13894 0)
(215.798 6.6902 0)
(215.947 7.26435 0)
(216.086 7.85928 0)
(216.223 8.47649 0)
(216.356 9.1201 0)
(216.479 9.79645 0)
(216.597 10.5058 0)
(216.708 11.2483 0)
(216.811 12.0231 0)
(216.902 12.8283 0)
(216.981 13.6628 0)
(217.05 14.5253 0)
(217.106 15.4156 0)
(217.148 16.3338 0)
(217.176 17.2799 0)
(217.188 18.2539 0)
(217.186 19.2562 0)
(217.169 20.2891 0)
(217.135 21.3531 0)
(217.088 22.4471 0)
(217.03 23.5722 0)
(216.964 24.7273 0)
(216.891 25.9135 0)
(216.812 27.1318 0)
(216.729 28.3828 0)
(216.643 29.668 0)
(216.556 30.9882 0)
(216.471 32.3445 0)
(216.389 33.7372 0)
(216.314 35.1659 0)
(216.252 36.6338 0)
(216.201 38.1416 0)
(216.165 39.6906 0)
(216.152 41.2826 0)
(216.159 42.9171 0)
(216.203 44.5965 0)
(216.28 46.3211 0)
(216.397 48.0919 0)
(216.567 49.9111 0)
(216.787 51.7785 0)
(217.078 53.696 0)
(217.434 55.6633 0)
(217.881 57.6819 0)
(218.411 59.7509 0)
(219.051 61.8703 0)
(219.807 64.0386 0)
(220.692 66.2547 0)
(221.727 68.5158 0)
(222.913 70.8179 0)
(224.293 73.151 0)
(225.844 75.5119 0)
(227.643 77.8905 0)
(229.636 80.301 0)
(231.921 82.7218 0)
(234.438 85.1372 0)
(237.279 87.4977 0)
(240.402 89.8253 0)
(243.927 92.0613 0)
(247.751 94.2387 0)
(252.021 96.1859 0)
(256.562 98.0872 0)
(261.6 99.7426 0)
(266.966 101.185 0)
(272.657 102.379 0)
(278.882 103.33 0)
(285.284 103.939 0)
(292.548 104.179 0)
(299.648 103.965 0)
(307.761 103.218 0)
(315.013 102.226 0)
(323.015 100.844 0)
(330.413 99.3558 0)
(337.599 97.8273 0)
(344.906 95.9369 0)
(351.831 93.7633 0)
(357.986 91.6851 0)
(364.267 89.2825 0)
(370.749 86.4986 0)
(377.085 83.606 0)
(382.531 80.9438 0)
(385.965 78.427 0)
(386.98 76.4598 0)
(388.174 73.6652 0)
(390.741 72.3411 0)
(396.302 71.0627 0)
(404.955 69.7996 0)
(408.117 73.9545 0)
(210 1.87758e-13 0)
(210 2.42062e-12 0)
(210 -2.21962e-12 0)
(210 2.07841e-10 0)
(210 2.28379e-08 0)
(210 2.53781e-06 0)
(209.998 0.000275627 0)
(209.962 0.00989229 0)
(209.663 0.112398 0)
(208.813 0.466545 0)
(207.821 0.908947 0)
(207.444 1.13792 0)
(207.348 1.27452 0)
(207.814 1.22684 0)
(208.896 0.852753 0)
(209.991 0.551591 0)
(210.769 0.406942 0)
(211.34 0.455392 0)
(211.817 0.593968 0)
(212.305 0.760581 0)
(212.844 0.932675 0)
(213.421 1.13633 0)
(214.023 1.38935 0)
(214.612 1.6852 0)
(215.067 2.02722 0)
(215.286 2.42239 0)
(215.354 2.80878 0)
(215.212 3.25365 0)
(214.963 3.72367 0)
(214.822 4.17921 0)
(214.831 4.62652 0)
(214.919 5.1035 0)
(215.089 5.59048 0)
(215.284 6.104 0)
(215.447 6.64955 0)
(215.585 7.21906 0)
(215.707 7.80939 0)
(215.826 8.42066 0)
(215.94 9.05752 0)
(216.042 9.726 0)
(216.141 10.4262 0)
(216.233 11.1585 0)
(216.316 11.9225 0)
(216.387 12.7165 0)
(216.446 13.539 0)
(216.494 14.3894 0)
(216.529 15.267 0)
(216.549 16.1715 0)
(216.554 17.1037 0)
(216.543 18.0635 0)
(216.518 19.0502 0)
(216.475 20.0669 0)
(216.416 21.1137 0)
(216.342 22.1898 0)
(216.256 23.2973 0)
(216.16 24.4341 0)
(216.055 25.6014 0)
(215.942 26.8 0)
(215.825 28.0305 0)
(215.702 29.2947 0)
(215.575 30.5933 0)
(215.448 31.9273 0)
(215.32 33.2981 0)
(215.198 34.7039 0)
(215.084 36.1488 0)
(214.977 37.6333 0)
(214.882 39.1581 0)
(214.804 40.7262 0)
(214.742 42.3367 0)
(214.71 43.9925 0)
(214.705 45.6935 0)
(214.734 47.4413 0)
(214.807 49.2384 0)
(214.922 51.0849 0)
(215.1 52.9834 0)
(215.332 54.9335 0)
(215.646 56.9378 0)
(216.031 58.9958 0)
(216.513 61.1094 0)
(217.097 63.2777 0)
(217.795 65.4994 0)
(218.63 67.772 0)
(219.603 70.0941 0)
(220.755 72.4631 0)
(222.063 74.881 0)
(223.6 77.3409 0)
(225.313 79.8414 0)
(227.303 82.352 0)
(229.513 84.8626 0)
(232.037 87.3487 0)
(234.834 89.8217 0)
(237.989 92.2376 0)
(241.423 94.6335 0)
(245.315 96.9045 0)
(249.465 99.1625 0)
(254.103 101.166 0)
(259.027 103.062 0)
(264.432 104.642 0)
(270.144 106 0)
(276.044 107.103 0)
(282.54 107.896 0)
(288.944 108.345 0)
(296.323 108.399 0)
(303.595 107.947 0)
(311.321 107.143 0)
(319.657 105.725 0)
(327.33 104.034 0)
(335.273 102.013 0)
(342.743 99.8152 0)
(349.945 97.3983 0)
(356.885 95.1455 0)
(363.889 92.6564 0)
(369.687 90.578 0)
(374.701 88.4668 0)
(378.704 86.2888 0)
(381.667 84.2936 0)
(384.375 81.5694 0)
(386.926 79.5995 0)
(392.059 77.9781 0)
(401.793 76.4273 0)
(405.812 81.3692 0)
(210 -1.76168e-12 0)
(210 -6.10179e-12 0)
(210 -1.80911e-12 0)
(210 9.05002e-11 0)
(210 7.77765e-09 0)
(210 8.25953e-07 0)
(209.999 0.000104112 0)
(209.979 0.00489993 0)
(209.767 0.0717034 0)
(209.019 0.365299 0)
(207.971 0.817383 0)
(207.43 1.10658 0)
(207.266 1.25016 0)
(207.584 1.26547 0)
(208.571 0.946532 0)
(209.679 0.619363 0)
(210.49 0.431895 0)
(211.082 0.46286 0)
(211.553 0.601885 0)
(212.018 0.780005 0)
(212.535 0.963321 0)
(213.09 1.16904 0)
(213.661 1.41763 0)
(214.235 1.70534 0)
(214.733 2.03115 0)
(215.035 2.40189 0)
(215.151 2.80786 0)
(215.11 3.22231 0)
(214.861 3.68737 0)
(214.637 4.14479 0)
(214.572 4.59798 0)
(214.623 5.06349 0)
(214.742 5.55548 0)
(214.92 6.06479 0)
(215.084 6.60374 0)
(215.215 7.16794 0)
(215.323 7.75373 0)
(215.425 8.35958 0)
(215.518 8.99036 0)
(215.6 9.65137 0)
(215.68 10.3426 0)
(215.752 11.0648 0)
(215.815 11.8181 0)
(215.865 12.6009 0)
(215.904 13.4117 0)
(215.931 14.2501 0)
(215.944 15.1156 0)
(215.943 16.0073 0)
(215.924 16.9264 0)
(215.889 17.873 0)
(215.841 18.8445 0)
(215.773 19.847 0)
(215.687 20.8785 0)
(215.585 21.9404 0)
(215.469 23.0316 0)
(215.342 24.1524 0)
(215.204 25.3031 0)
(215.058 26.4843 0)
(214.904 27.6975 0)
(214.743 28.9436 0)
(214.576 30.2236 0)
(214.406 31.5385 0)
(214.232 32.891 0)
(214.061 34.2762 0)
(213.895 35.6998 0)
(213.732 37.1636 0)
(213.579 38.6668 0)
(213.437 40.2132 0)
(213.307 41.8018 0)
(213.203 43.4352 0)
(213.119 45.1137 0)
(213.063 46.8384 0)
(213.045 48.6126 0)
(213.062 50.4361 0)
(213.133 52.3119 0)
(213.25 54.2394 0)
(213.439 56.2219 0)
(213.69 58.2586 0)
(214.026 60.3522 0)
(214.452 62.5017 0)
(214.979 64.7069 0)
(215.628 66.9676 0)
(216.397 69.2834 0)
(217.326 71.6524 0)
(218.392 74.0732 0)
(219.663 76.5389 0)
(221.091 79.0458 0)
(222.774 81.5785 0)
(224.655 84.1386 0)
(226.825 86.7177 0)
(229.244 89.3238 0)
(232.003 91.9175 0)
(235.045 94.5007 0)
(238.512 97.009 0)
(242.255 99.5284 0)
(246.53 101.833 0)
(251.04 104.105 0)
(256.127 106.087 0)
(261.622 107.883 0)
(267.55 109.331 0)
(273.797 110.567 0)
(280.284 111.451 0)
(286.696 112.162 0)
(293.998 112.376 0)
(300.775 112.317 0)
(308.545 111.788 0)
(316.237 110.76 0)
(323.786 109.432 0)
(331.931 107.658 0)
(339.768 105.503 0)
(347.093 103.228 0)
(354.651 100.49 0)
(360.917 98.0708 0)
(367.439 95.3594 0)
(373.09 92.7014 0)
(377.244 90.0319 0)
(380.02 87.2217 0)
(382.518 85.5999 0)
(388.153 84.1799 0)
(398.534 82.9055 0)
(402.49 88.8328 0)
(210 -4.90367e-12 0)
(210 5.69088e-12 0)
(210 7.52254e-12 0)
(210 2.80335e-11 0)
(210 1.7058e-09 0)
(210 1.97859e-07 0)
(210 3.27908e-05 0)
(209.989 0.00216366 0)
(209.849 0.0419467 0)
(209.223 0.269549 0)
(208.152 0.710024 0)
(207.446 1.05777 0)
(207.194 1.21557 0)
(207.39 1.28473 0)
(208.248 1.03838 0)
(209.351 0.692902 0)
(210.2 0.471275 0)
(210.821 0.494123 0)
(211.291 0.635266 0)
(211.734 0.821614 0)
(212.228 1.0121 0)
(212.762 1.21562 0)
(213.302 1.4558 0)
(213.843 1.73329 0)
(214.354 2.0444 0)
(214.729 2.39895 0)
(214.903 2.80122 0)
(214.946 3.19592 0)
(214.756 3.64484 0)
(214.482 4.10485 0)
(214.325 4.56106 0)
(214.325 5.02165 0)
(214.399 5.51776 0)
(214.543 6.02284 0)
(214.702 6.55395 0)
(214.829 7.11298 0)
(214.926 7.6943 0)
(215.014 8.2942 0)
(215.086 8.91773 0)
(215.149 9.5696 0)
(215.209 10.2507 0)
(215.261 10.9618 0)
(215.302 11.7035 0)
(215.332 12.4743 0)
(215.351 13.2724 0)
(215.357 14.0976 0)
(215.349 14.9494 0)
(215.326 15.8261 0)
(215.286 16.7306 0)
(215.228 17.6611 0)
(215.154 18.619 0)
(215.063 19.604 0)
(214.953 20.618 0)
(214.825 21.6612 0)
(214.682 22.7338 0)
(214.525 23.8354 0)
(214.358 24.9662 0)
(214.179 26.1272 0)
(213.992 27.3191 0)
(213.795 28.5433 0)
(213.592 29.801 0)
(213.381 31.0934 0)
(213.167 32.4197 0)
(212.951 33.7817 0)
(212.736 35.1808 0)
(212.52 36.6207 0)
(212.313 38.0964 0)
(212.111 39.6156 0)
(211.917 41.177 0)
(211.743 42.783 0)
(211.583 44.4348 0)
(211.448 46.1318 0)
(211.341 47.8786 0)
(211.263 49.6748 0)
(211.23 51.5244 0)
(211.234 53.4267 0)
(211.301 55.3859 0)
(211.418 57.4011 0)
(211.61 59.4761 0)
(211.878 61.6112 0)
(212.234 63.8073 0)
(212.695 66.065 0)
(213.263 68.3835 0)
(213.974 70.7625 0)
(214.81 73.2006 0)
(215.834 75.6966 0)
(217.001 78.2494 0)
(218.404 80.8519 0)
(219.987 83.5026 0)
(221.843 86.1872 0)
(223.934 88.8972 0)
(226.337 91.6014 0)
(229.003 94.3075 0)
(232.043 96.9723 0)
(235.337 99.6236 0)
(239.116 102.123 0)
(243.101 104.627 0)
(247.665 106.865 0)
(252.496 109.1 0)
(257.969 111.056 0)
(263.945 112.794 0)
(270.476 114.187 0)
(277.17 115.185 0)
(284.42 115.937 0)
(291.87 116.29 0)
(298.733 116.529 0)
(307.122 116.116 0)
(314.167 115.668 0)
(322.315 114.582 0)
(329.93 113.207 0)
(337.519 111.306 0)
(344.999 109.205 0)
(352.74 106.802 0)
(360.572 104.099 0)
(367.247 101.191 0)
(372.241 97.9614 0)
(375.645 94.3317 0)
(378.341 91.8314 0)
(383.917 90.0234 0)
(394.603 88.5996 0)
(398.92 93.9667 0)
(210 7.83504e-12 0)
(210 1.40278e-11 0)
(210 8.48562e-12 0)
(210 1.51866e-11 0)
(210 1.56996e-10 0)
(210 2.51272e-08 0)
(210 7.87904e-06 0)
(209.995 0.000831551 0)
(209.91 0.0222022 0)
(209.42 0.185704 0)
(208.379 0.593267 0)
(207.514 0.990552 0)
(207.133 1.17822 0)
(207.239 1.29556 0)
(207.924 1.10792 0)
(208.991 0.755505 0)
(209.888 0.504141 0)
(210.55 0.518824 0)
(211.025 0.659782 0)
(211.443 0.850996 0)
(211.908 1.04668 0)
(212.422 1.24616 0)
(212.937 1.47522 0)
(213.441 1.7397 0)
(213.937 2.03791 0)
(214.364 2.37438 0)
(214.614 2.75936 0)
(214.712 3.16089 0)
(214.631 3.58821 0)
(214.354 4.04582 0)
(214.105 4.50461 0)
(214.022 4.97264 0)
(214.061 5.45801 0)
(214.158 5.97075 0)
(214.3 6.49912 0)
(214.424 7.05223 0)
(214.515 7.62721 0)
(214.589 8.221 0)
(214.642 8.83831 0)
(214.686 9.48143 0)
(214.726 10.1529 0)
(214.757 10.8523 0)
(214.776 11.5815 0)
(214.784 12.3393 0)
(214.782 13.124 0)
(214.767 13.9354 0)
(214.737 14.773 0)
(214.691 15.6372 0)
(214.628 16.5271 0)
(214.547 17.4429 0)
(214.449 18.3843 0)
(214.333 19.3531 0)
(214.197 20.3504 0)
(214.042 21.3769 0)
(213.87 22.4324 0)
(213.683 23.5164 0)
(213.483 24.6291 0)
(213.272 25.7713 0)
(213.05 26.9439 0)
(212.817 28.1483 0)
(212.574 29.3854 0)
(212.323 30.6563 0)
(212.064 31.9621 0)
(211.801 33.303 0)
(211.537 34.6802 0)
(211.272 36.0933 0)
(211.009 37.5461 0)
(210.746 39.0418 0)
(210.489 40.5789 0)
(210.247 42.1568 0)
(210.012 43.783 0)
(209.8 45.4526 0)
(209.609 47.1726 0)
(209.441 48.941 0)
(209.31 50.7625 0)
(209.208 52.6362 0)
(209.162 54.5667 0)
(209.155 56.5529 0)
(209.216 58.5993 0)
(209.34 60.7059 0)
(209.54 62.8744 0)
(209.831 65.1056 0)
(210.217 67.3992 0)
(210.727 69.7572 0)
(211.345 72.1792 0)
(212.13 74.6673 0)
(213.036 77.2182 0)
(214.153 79.828 0)
(215.427 82.4928 0)
(216.95 85.2065 0)
(218.68 87.9671 0)
(220.693 90.7595 0)
(222.955 93.5844 0)
(225.571 96.4013 0)
(228.459 99.2096 0)
(231.802 101.931 0)
(235.378 104.677 0)
(239.547 107.233 0)
(243.87 109.807 0)
(248.796 112.077 0)
(254.058 114.289 0)
(259.833 116.166 0)
(266.381 117.887 0)
(272.827 119.071 0)
(280.65 120.168 0)
(287.781 120.485 0)
(296.244 120.618 0)
(304.201 120.272 0)
(312.256 119.609 0)
(320.156 118.72 0)
(328.13 117.34 0)
(335.323 116.108 0)
(343.243 114.333 0)
(350.402 112.452 0)
(356.757 110.327 0)
(362.345 107.612 0)
(366.345 104.32 0)
(369.616 101.624 0)
(375.574 99.6066 0)
(387.433 97.6988 0)
(391.969 103.88 0)
(210 5.2901e-12 0)
(210 9.89513e-14 0)
(210 9.4098e-12 0)
(210 1.45089e-11 0)
(210 -1.13425e-10 0)
(210 -6.92446e-09 0)
(210 9.52055e-07 0)
(209.998 0.000267203 0)
(209.951 0.0103767 0)
(209.596 0.116916 0)
(208.636 0.467528 0)
(207.627 0.90185 0)
(207.088 1.15617 0)
(207.118 1.25795 0)
(207.608 1.15295 0)
(208.614 0.831443 0)
(209.568 0.570556 0)
(210.277 0.569398 0)
(210.759 0.699323 0)
(211.148 0.886206 0)
(211.578 1.08322 0)
(212.07 1.27841 0)
(212.565 1.49626 0)
(213.035 1.74802 0)
(213.496 2.03621 0)
(213.94 2.36002 0)
(214.266 2.73061 0)
(214.418 3.14229 0)
(214.434 3.54788 0)
(214.216 3.99554 0)
(213.914 4.45683 0)
(213.734 4.92596 0)
(213.718 5.40623 0)
(213.773 5.92058 0)
(213.883 6.44116 0)
(213.999 6.98597 0)
(214.085 7.55492 0)
(214.148 8.14246 0)
(214.183 8.75159 0)
(214.212 9.38304 0)
(214.23 10.0433 0)
(214.238 10.7302 0)
(214.235 11.4468 0)
(214.222 12.1906 0)
(214.197 12.9619 0)
(214.16 13.7591 0)
(214.109 14.5818 0)
(214.041 15.4296 0)
(213.956 16.3031 0)
(213.852 17.2022 0)
(213.73 18.127 0)
(213.59 19.0781 0)
(213.429 20.0566 0)
(213.249 21.0635 0)
(213.05 22.0988 0)
(212.835 23.1622 0)
(212.606 24.2537 0)
(212.364 25.374 0)
(212.109 26.524 0)
(211.842 27.705 0)
(211.564 28.918 0)
(211.275 30.164 0)
(210.977 31.4437 0)
(210.672 32.7578 0)
(210.362 34.1074 0)
(210.048 35.4943 0)
(209.731 36.9199 0)
(209.415 38.3851 0)
(209.102 39.8904 0)
(208.797 41.4375 0)
(208.487 43.0375 0)
(208.203 44.6725 0)
(207.929 46.3598 0)
(207.676 48.0958 0)
(207.45 49.8854 0)
(207.246 51.7278 0)
(207.088 53.6276 0)
(206.96 55.5837 0)
(206.89 57.6017 0)
(206.869 59.6819 0)
(206.914 61.8271 0)
(207.035 64.0392 0)
(207.237 66.3188 0)
(207.546 68.669 0)
(207.95 71.0887 0)
(208.502 73.5808 0)
(209.16 76.1406 0)
(210.013 78.7714 0)
(211.004 81.4704 0)
(212.223 84.2348 0)
(213.63 87.0561 0)
(215.299 89.9195 0)
(217.199 92.8215 0)
(219.423 95.7383 0)
(221.91 98.677 0)
(224.813 101.6 0)
(227.97 104.563 0)
(231.678 107.422 0)
(235.58 110.326 0)
(240.142 112.932 0)
(244.865 115.532 0)
(250.231 117.85 0)
(255.972 120.011 0)
(262.138 121.822 0)
(268.846 123.387 0)
(276.114 124.581 0)
(283.399 125.394 0)
(291.878 125.841 0)
(300.049 125.649 0)
(308.611 125.064 0)
(317.915 123.784 0)
(326.231 122.144 0)
(334.875 120.3 0)
(343.468 117.99 0)
(350.623 115.841 0)
(357.281 113.156 0)
(361.682 110.486 0)
(365.079 108.135 0)
(371.015 106.755 0)
(383.613 105.42 0)
(387.755 113.468 0)
(210 1.93649e-12 0)
(210 1.31808e-12 0)
(210 1.73438e-11 0)
(210 5.33483e-12 0)
(210 -7.92834e-11 0)
(210 -6.07552e-09 0)
(210 -2.39254e-07 0)
(209.999 6.56947e-05 0)
(209.976 0.004175 0)
(209.742 0.0662203 0)
(208.914 0.344878 0)
(207.807 0.793674 0)
(207.083 1.10066 0)
(207.027 1.20175 0)
(207.315 1.16504 0)
(208.229 0.921732 0)
(209.232 0.652185 0)
(209.985 0.613466 0)
(210.477 0.721344 0)
(210.841 0.898738 0)
(211.233 1.09735 0)
(211.701 1.29122 0)
(212.181 1.49874 0)
(212.625 1.73604 0)
(213.047 2.01089 0)
(213.478 2.32238 0)
(213.86 2.67766 0)
(214.086 3.0791 0)
(214.165 3.48985 0)
(214.063 3.92163 0)
(213.767 4.38032 0)
(213.488 4.85149 0)
(213.377 5.34026 0)
(213.393 5.84593 0)
(213.459 6.37544 0)
(213.556 6.91493 0)
(213.638 7.47453 0)
(213.688 8.0548 0)
(213.709 8.65583 0)
(213.724 9.2755 0)
(213.719 9.92567 0)
(213.704 10.6005 0)
(213.679 11.3021 0)
(213.644 12.0313 0)
(213.597 12.7874 0)
(213.537 13.5696 0)
(213.462 14.3772 0)
(213.372 15.2098 0)
(213.263 16.0674 0)
(213.135 16.9501 0)
(212.989 17.8577 0)
(212.824 18.791 0)
(212.639 19.751 0)
(212.432 20.739 0)
(212.205 21.7551 0)
(211.961 22.799 0)
(211.701 23.8706 0)
(211.427 24.9704 0)
(211.138 26.0994 0)
(210.835 27.2586 0)
(210.52 28.4491 0)
(210.191 29.672 0)
(209.852 30.9281 0)
(209.502 32.2183 0)
(209.145 33.5433 0)
(208.782 34.9038 0)
(208.414 36.3018 0)
(208.042 37.7393 0)
(207.669 39.218 0)
(207.295 40.74 0)
(206.929 42.3013 0)
(206.571 43.9082 0)
(206.215 45.5674 0)
(205.879 47.27 0)
(205.563 49.0245 0)
(205.263 50.8326 0)
(205.001 52.6973 0)
(204.761 54.6186 0)
(204.571 56.6003 0)
(204.421 58.6435 0)
(204.326 60.7509 0)
(204.294 62.9254 0)
(204.33 65.1675 0)
(204.459 67.481 0)
(204.668 69.8648 0)
(205.005 72.3247 0)
(205.432 74.8578 0)
(206.029 77.4723 0)
(206.739 80.1615 0)
(207.653 82.9257 0)
(208.729 85.759 0)
(210.044 88.6604 0)
(211.568 91.6302 0)
(213.389 94.6553 0)
(215.459 97.7389 0)
(217.911 100.856 0)
(220.624 104.024 0)
(223.837 107.138 0)
(227.27 110.288 0)
(231.368 113.25 0)
(235.641 116.265 0)
(240.614 118.94 0)
(245.87 121.619 0)
(251.794 123.945 0)
(258.003 125.952 0)
(265.025 127.81 0)
(271.901 129.252 0)
(279.653 130.337 0)
(287.361 131.042 0)
(295.27 131.349 0)
(303.856 131.242 0)
(312.433 130.471 0)
(320.849 129.469 0)
(330.64 127.775 0)
(338.842 125.853 0)
(347.468 122.818 0)
(353.257 119.531 0)
(357.768 116.271 0)
(364.127 114.053 0)
(377.108 112.371 0)
(381.478 119.765 0)
(210 -4.57156e-13 0)
(210 1.0575e-11 0)
(210 6.9556e-12 0)
(210 -6.72491e-12 0)
(210 -4.56178e-11 0)
(210 -2.66794e-09 0)
(210 -1.87329e-07 0)
(210 8.78797e-06 0)
(209.99 0.00138658 0)
(209.851 0.0328997 0)
(209.193 0.233058 0)
(208.042 0.662179 0)
(207.126 1.0151 0)
(206.966 1.13664 0)
(207.069 1.17847 0)
(207.847 1.0264 0)
(208.876 0.742364 0)
(209.673 0.659397 0)
(210.184 0.74304 0)
(210.527 0.907458 0)
(210.883 1.10509 0)
(211.322 1.29904 0)
(211.785 1.49984 0)
(212.209 1.72723 0)
(212.596 1.99363 0)
(212.995 2.29955 0)
(213.393 2.64731 0)
(213.692 3.03772 0)
(213.824 3.46321 0)
(213.827 3.87409 0)
(213.605 4.32338 0)
(213.279 4.79708 0)
(213.061 5.28268 0)
(213.006 5.78277 0)
(213.036 6.30395 0)
(213.101 6.83654 0)
(213.17 7.38852 0)
(213.208 7.96202 0)
(213.224 8.54692 0)
(213.219 9.15905 0)
(213.194 9.79567 0)
(213.158 10.4561 0)
(213.111 11.1431 0)
(213.052 11.8568 0)
(212.982 12.597 0)
(212.899 13.3633 0)
(212.801 14.1546 0)
(212.687 14.9705 0)
(212.556 15.8107 0)
(212.405 16.6755 0)
(212.236 17.5647 0)
(212.047 18.4787 0)
(211.837 19.4186 0)
(211.605 20.3856 0)
(211.353 21.3801 0)
(211.081 22.4019 0)
(210.792 23.4507 0)
(210.488 24.527 0)
(210.168 25.6316 0)
(209.833 26.7657 0)
(209.483 27.9302 0)
(209.119 29.1261 0)
(208.741 30.3545 0)
(208.352 31.616 0)
(207.952 32.9114 0)
(207.544 34.2419 0)
(207.128 35.6091 0)
(206.704 37.0145 0)
(206.276 38.4596 0)
(205.845 39.9458 0)
(205.414 41.4756 0)
(204.984 43.0499 0)
(204.561 44.6681 0)
(204.149 46.3337 0)
(203.744 48.0526 0)
(203.349 49.8248 0)
(202.986 51.6487 0)
(202.634 53.5324 0)
(202.329 55.4764 0)
(202.048 57.484 0)
(201.815 59.5564 0)
(201.629 61.698 0)
(201.5 63.9097 0)
(201.446 66.1965 0)
(201.461 68.5576 0)
(201.585 71.0002 0)
(201.783 73.52 0)
(202.134 76.1268 0)
(202.579 78.812 0)
(203.211 81.5826 0)
(203.984 84.4325 0)
(204.973 87.3632 0)
(206.148 90.3704 0)
(207.587 93.4479 0)
(209.248 96.5951 0)
(211.243 99.7919 0)
(213.477 103.035 0)
(216.153 106.269 0)
(219.051 109.546 0)
(222.56 112.746 0)
(226.243 116.034 0)
(230.702 119.1 0)
(235.345 122.208 0)
(240.717 125.02 0)
(246.611 127.815 0)
(253.073 130.135 0)
(260.355 132.198 0)
(267.748 133.737 0)
(276.082 135.099 0)
(283.962 135.958 0)
(292.5 136.554 0)
(301.072 136.498 0)
(309.142 136.294 0)
(318.053 135.523 0)
(326.3 134.592 0)
(334.46 132.655 0)
(340.604 130.246 0)
(345.62 127.334 0)
(352.103 125.211 0)
(366.226 123.065 0)
(370.56 131.414 0)
(210 4.72997e-12 0)
(210 2.18365e-11 0)
(210 -2.30394e-12 0)
(210 -1.39782e-11 0)
(210 -2.85539e-11 0)
(210 -8.97433e-10 0)
(210 -8.13881e-08 0)
(210 -1.80104e-06 0)
(209.996 0.000349802 0)
(209.923 0.0139676 0)
(209.448 0.141667 0)
(208.342 0.51694 0)
(207.248 0.90562 0)
(206.927 1.08369 0)
(206.879 1.18279 0)
(207.471 1.10308 0)
(208.488 0.814791 0)
(209.335 0.694335 0)
(209.877 0.750954 0)
(210.21 0.899214 0)
(210.53 1.0924 0)
(210.934 1.28413 0)
(211.376 1.47588 0)
(211.788 1.69162 0)
(212.152 1.95009 0)
(212.516 2.25243 0)
(212.9 2.59746 0)
(213.246 2.98103 0)
(213.449 3.39752 0)
(213.511 3.82505 0)
(213.414 4.25365 0)
(213.112 4.71958 0)
(212.799 5.20424 0)
(212.636 5.70545 0)
(212.614 6.21915 0)
(212.639 6.75532 0)
(212.688 7.2946 0)
(212.713 7.85668 0)
(212.721 8.4295 0)
(212.698 9.03202 0)
(212.655 9.65452 0)
(212.598 10.3003 0)
(212.529 10.9716 0)
(212.447 11.6693 0)
(212.353 12.3931 0)
(212.246 13.1426 0)
(212.125 13.9168 0)
(211.988 14.7153 0)
(211.833 15.5381 0)
(211.658 16.385 0)
(211.465 17.2559 0)
(211.251 18.151 0)
(211.016 19.0711 0)
(210.759 20.0174 0)
(210.48 20.9908 0)
(210.18 21.991 0)
(209.861 23.0179 0)
(209.525 24.0717 0)
(209.173 25.1532 0)
(208.803 26.2634 0)
(208.418 27.4033 0)
(208.016 28.5739 0)
(207.6 29.7762 0)
(207.168 31.0109 0)
(206.725 32.2789 0)
(206.27 33.5811 0)
(205.805 34.9187 0)
(205.33 36.2935 0)
(204.846 37.7074 0)
(204.356 39.1616 0)
(203.862 40.6571 0)
(203.367 42.1955 0)
(202.872 43.7796 0)
(202.38 45.4113 0)
(201.894 47.0914 0)
(201.421 48.8204 0)
(200.962 50.6041 0)
(200.503 52.4514 0)
(200.091 54.3478 0)
(199.689 56.3108 0)
(199.333 58.3364 0)
(199.01 60.4316 0)
(198.735 62.5953 0)
(198.52 64.8336 0)
(198.361 67.1456 0)
(198.293 69.5396 0)
(198.286 72.0116 0)
(198.41 74.5751 0)
(198.607 77.2214 0)
(198.967 79.9636 0)
(199.44 82.7941 0)
(200.103 85.72 0)
(200.925 88.737 0)
(201.982 91.8451 0)
(203.237 95.039 0)
(204.795 98.3052 0)
(206.586 101.637 0)
(208.781 105.009 0)
(211.211 108.446 0)
(214.186 111.875 0)
(217.349 115.367 0)
(221.226 118.726 0)
(225.232 122.177 0)
(230.045 125.354 0)
(235.053 128.527 0)
(240.834 131.443 0)
(247.208 134.217 0)
(253.991 136.504 0)
(261.873 138.82 0)
(269.75 140.305 0)
(278.776 141.485 0)
(287.846 141.984 0)
(297.318 141.831 0)
(306.915 141.364 0)
(316.93 140.336 0)
(326.125 138.696 0)
(333.282 136.565 0)
(339.075 133.806 0)
(345.57 132.409 0)
(360.078 131.205 0)
(363.615 141.748 0)
(210 1.74735e-12 0)
(210 -5.40213e-12 0)
(210 -1.78757e-11 0)
(210 -2.17558e-11 0)
(210 -1.1909e-11 0)
(210 -2.39455e-10 0)
(210 -2.7043e-08 0)
(210 -1.67902e-06 0)
(209.999 4.9129e-05 0)
(209.965 0.0048504 0)
(209.657 0.0754055 0)
(208.685 0.371866 0)
(207.448 0.776562 0)
(206.901 1.04099 0)
(206.739 1.14046 0)
(207.121 1.13934 0)
(208.085 0.889042 0)
(208.983 0.744291 0)
(209.557 0.756397 0)
(209.887 0.881995 0)
(210.176 1.06914 0)
(210.542 1.26529 0)
(210.958 1.46009 0)
(211.358 1.67371 0)
(211.71 1.92933 0)
(212.048 2.22947 0)
(212.402 2.57171 0)
(212.754 2.94823 0)
(213.019 3.35492 0)
(213.129 3.78797 0)
(213.133 4.2014 0)
(212.926 4.65333 0)
(212.58 5.13594 0)
(212.306 5.62875 0)
(212.19 6.13557 0)
(212.176 6.655 0)
(212.191 7.19416 0)
(212.204 7.7416 0)
(212.199 8.30565 0)
(212.163 8.8916 0)
(212.103 9.49902 0)
(212.027 10.1294 0)
(211.936 10.7845 0)
(211.832 11.4655 0)
(211.714 12.1725 0)
(211.583 12.9047 0)
(211.438 13.6612 0)
(211.277 14.4414 0)
(211.099 15.245 0)
(210.902 16.0724 0)
(210.685 16.9233 0)
(210.448 17.7979 0)
(210.189 18.6968 0)
(209.908 19.621 0)
(209.603 20.5716 0)
(209.276 21.5484 0)
(208.929 22.5512 0)
(208.564 23.58 0)
(208.182 24.6355 0)
(207.781 25.7189 0)
(207.363 26.831 0)
(206.928 27.9727 0)
(206.476 29.1452 0)
(206.007 30.3491 0)
(205.523 31.5854 0)
(205.026 32.8549 0)
(204.517 34.1589 0)
(203.995 35.4989 0)
(203.461 36.8767 0)
(202.917 38.2938 0)
(202.366 39.7515 0)
(201.808 41.2513 0)
(201.247 42.7948 0)
(200.684 44.3841 0)
(200.122 46.0219 0)
(199.563 47.711 0)
(199.009 49.4538 0)
(198.468 51.2472 0)
(197.95 53.0997 0)
(197.42 55.0253 0)
(196.944 57.0006 0)
(196.482 59.0498 0)
(196.062 61.1689 0)
(195.685 63.3652 0)
(195.353 65.637 0)
(195.093 67.9927 0)
(194.882 70.4285 0)
(194.784 72.9593 0)
(194.741 75.5747 0)
(194.843 78.2916 0)
(195.036 81.0995 0)
(195.399 84.0092 0)
(195.897 87.0141 0)
(196.604 90.1191 0)
(197.484 93.3193 0)
(198.633 96.6136 0)
(199.991 100.001 0)
(201.709 103.477 0)
(203.652 107.053 0)
(206.081 110.683 0)
(208.725 114.398 0)
(212.028 118.076 0)
(215.497 121.846 0)
(219.789 125.435 0)
(224.249 129.094 0)
(229.501 132.419 0)
(235.096 135.714 0)
(241.478 138.735 0)
(248.243 141.406 0)
(255.843 143.835 0)
(263.642 145.752 0)
(271.956 147.49 0)
(281.263 148.712 0)
(290.049 149.368 0)
(300.873 149.6 0)
(310.883 148.865 0)
(319.315 146.978 0)
(326.608 144.033 0)
(333.723 142.013 0)
(348.732 140.383 0)
(352.541 150.026 0)
(210 1.25762e-12 0)
(210 -1.54815e-11 0)
(210 -2.2829e-11 0)
(210 -1.42946e-11 0)
(210 -6.20536e-12 0)
(210 -6.97146e-11 0)
(210 -7.46315e-09 0)
(210 -6.07769e-07 0)
(210 -8.20404e-06 0)
(209.986 0.00126309 0)
(209.81 0.0342244 0)
(209.033 0.241012 0)
(207.742 0.638521 0)
(206.929 0.969223 0)
(206.641 1.06785 0)
(206.831 1.13782 0)
(207.683 0.969638 0)
(208.612 0.789417 0)
(209.222 0.736865 0)
(209.565 0.840915 0)
(209.834 1.02668 0)
(210.161 1.23513 0)
(210.543 1.44013 0)
(210.93 1.65374 0)
(211.275 1.90552 0)
(211.596 2.20178 0)
(211.917 2.53949 0)
(212.248 2.90875 0)
(212.537 3.30408 0)
(212.711 3.72046 0)
(212.76 4.15273 0)
(212.684 4.5779 0)
(212.385 5.04534 0)
(212.031 5.5342 0)
(211.798 6.03603 0)
(211.707 6.55036 0)
(211.688 7.0762 0)
(211.681 7.61426 0)
(211.662 8.16547 0)
(211.615 8.73574 0)
(211.541 9.32774 0)
(211.445 9.94254 0)
(211.334 10.5814 0)
(211.207 11.2453 0)
(211.067 11.9347 0)
(210.912 12.6492 0)
(210.743 13.3877 0)
(210.558 14.1497 0)
(210.356 14.9346 0)
(210.135 15.7426 0)
(209.895 16.5735 0)
(209.634 17.4274 0)
(209.351 18.3048 0)
(209.045 19.2069 0)
(208.714 20.1345 0)
(208.36 21.0881 0)
(207.985 22.0671 0)
(207.591 23.0717 0)
(207.177 24.1023 0)
(206.744 25.1598 0)
(206.292 26.2453 0)
(205.821 27.3597 0)
(205.332 28.5038 0)
(204.825 29.6785 0)
(204.3 30.8847 0)
(203.76 32.1233 0)
(203.205 33.3952 0)
(202.635 34.702 0)
(202.05 36.0454 0)
(201.452 37.4269 0)
(200.843 38.8479 0)
(200.224 40.3096 0)
(199.598 41.8139 0)
(198.965 43.3627 0)
(198.329 44.9581 0)
(197.691 46.6022 0)
(197.054 48.2979 0)
(196.422 50.0485 0)
(195.794 51.8571 0)
(195.182 53.7187 0)
(194.592 55.6447 0)
(193.998 57.645 0)
(193.45 59.7043 0)
(192.928 61.8395 0)
(192.445 64.0506 0)
(192.017 66.3446 0)
(191.627 68.7188 0)
(191.329 71.1879 0)
(191.069 73.7421 0)
(190.934 76.4028 0)
(190.862 79.1579 0)
(190.937 82.0242 0)
(191.12 84.9946 0)
(191.482 88.0801 0)
(191.991 91.2762 0)
(192.734 94.5899 0)
(193.662 98.0176 0)
(194.902 101.561 0)
(196.348 105.211 0)
(198.219 108.946 0)
(200.295 112.776 0)
(202.957 116.643 0)
(205.804 120.606 0)
(209.429 124.505 0)
(213.217 128.528 0)
(217.933 132.361 0)
(222.933 136.242 0)
(228.741 139.809 0)
(235.179 143.316 0)
(242.38 146.382 0)
(250.221 149.053 0)
(258.373 151.356 0)
(267.501 153.386 0)
(276.116 154.81 0)
(285.846 155.884 0)
(295.402 156.428 0)
(303.666 155.752 0)
(311.3 153.739 0)
(318.518 152.506 0)
(334.576 151.181 0)
(337.947 162.264 0)
(210 -2.30615e-12 0)
(210 -9.67432e-12 0)
(210 -1.31251e-11 0)
(210 -5.92061e-12 0)
(210 -1.61544e-12 0)
(210 -1.39734e-11 0)
(210 -1.80255e-09 0)
(210 -1.78128e-07 0)
(210 -8.61062e-06 0)
(209.995 0.000178891 0)
(209.907 0.0126291 0)
(209.35 0.138338 0)
(208.101 0.486636 0)
(207.04 0.866956 0)
(206.561 0.991741 0)
(206.621 1.13815 0)
(207.293 1.02967 0)
(208.219 0.814836 0)
(208.878 0.708799 0)
(209.247 0.808327 0)
(209.506 1.00342 0)
(209.796 1.2251 0)
(210.135 1.43698 0)
(210.501 1.64723 0)
(210.84 1.8917 0)
(211.15 2.18087 0)
(211.445 2.51112 0)
(211.741 2.8703 0)
(212.022 3.25192 0)
(212.235 3.65495 0)
(212.326 4.08264 0)
(212.338 4.49931 0)
(212.155 4.9499 0)
(211.792 5.43116 0)
(211.456 5.92283 0)
(211.261 6.42572 0)
(211.182 6.94161 0)
(211.146 7.47004 0)
(211.11 8.01026 0)
(211.053 8.56599 0)
(210.966 9.14193 0)
(210.853 9.74054 0)
(210.722 10.3632 0)
(210.575 11.0105 0)
(210.412 11.6826 0)
(210.234 12.3791 0)
(210.041 13.099 0)
(209.833 13.8418 0)
(209.608 14.6069 0)
(209.364 15.3945 0)
(209.1 16.2045 0)
(208.816 17.0369 0)
(208.51 17.8919 0)
(208.18 18.7706 0)
(207.826 19.6739 0)
(207.447 20.6023 0)
(207.045 21.5556 0)
(206.622 22.5336 0)
(206.18 23.5368 0)
(205.718 24.5659 0)
(205.235 25.622 0)
(204.733 26.7059 0)
(204.21 27.8184 0)
(203.668 28.9606 0)
(203.107 30.1331 0)
(202.528 31.3369 0)
(201.931 32.573 0)
(201.318 33.8426 0)
(200.689 35.1474 0)
(200.042 36.489 0)
(199.381 37.8689 0)
(198.706 39.2882 0)
(198.021 40.7488 0)
(197.324 42.2523 0)
(196.62 43.8013 0)
(195.909 45.3976 0)
(195.193 47.0439 0)
(194.473 48.7427 0)
(193.755 50.4973 0)
(193.041 52.3107 0)
(192.332 54.1863 0)
(191.636 56.1222 0)
(190.963 58.1276 0)
(190.291 60.2105 0)
(189.654 62.3662 0)
(189.057 64.6013 0)
(188.488 66.9199 0)
(187.993 69.3341 0)
(187.522 71.8347 0)
(187.16 74.4432 0)
(186.838 77.1452 0)
(186.645 79.9616 0)
(186.537 82.8834 0)
(186.582 85.9255 0)
(186.75 89.0833 0)
(187.115 92.3689 0)
(187.637 95.7768 0)
(188.425 99.3139 0)
(189.395 102.968 0)
(190.738 106.739 0)
(192.276 110.623 0)
(194.333 114.599 0)
(196.581 118.683 0)
(199.527 122.798 0)
(202.635 127.028 0)
(206.61 131.178 0)
(210.762 135.457 0)
(215.861 139.523 0)
(221.328 143.564 0)
(227.649 147.35 0)
(234.737 151.14 0)
(242.561 154.338 0)
(251.286 157.227 0)
(261.104 159.392 0)
(270.5 160.861 0)
(282.551 162.127 0)
(292.105 162.003 0)
(301.435 160.35 0)
(309.247 159.541 0)
(325.007 159.5 0)
(327.933 171.721 0)
(210 -2.75374e-12 0)
(210 -9.98667e-12 0)
(210 -6.52782e-12 0)
(210 -1.29332e-12 0)
(210 1.701e-11 0)
(210 1.73722e-11 0)
(210 -3.81336e-10 0)
(210 -4.46328e-08 0)