/*--------------------------------*- C++ -*----------------------------------*\
| =========                 |                                                 |
| \\      /  F ield         | OpenFOAM: The Open Source CFD Toolbox           |
|  \\    /   O peration     | Version:  2412                                  |
|   \\  /    A nd           | Website:  www.openfoam.com                      |
|    \\/     M anipulation  |                                                 |
\*---------------------------------------------------------------------------*/
FoamFile
{
    version     2.0;
    format      ascii;
    arch        "LSB;label=32;scalar=64";
    class       volScalarField;
    location    "0.059";
    object      rho;
}
// * * * * * * * * * * * * * * * * * * * * * * * * * * * * * * * * * * * * * //

dimensions      [1 -3 0 0 0 0 0];

internalField   nonuniform List<scalar> 
9859
(
0.0422424
0.042241
0.0422401
0.0422389
0.042238
0.0422362
0.0422343
0.0422317
0.0422297
0.0422277
0.0422266
0.0422256
0.0422245
0.042223
0.0422213
0.0422201
0.0422198
0.0422206
0.0422216
0.0422221
0.0422211
0.0422194
0.0422162
0.0422119
0.0422064
0.0422021
0.0421984
0.0421959
0.0421941
0.0421926
0.0421911
0.0421892
0.0421871
0.0421844
0.0421816
0.0421779
0.0421735
0.0421678
0.042161
0.0421524
0.0421417
0.0421271
0.0421071
0.0420808
0.042049
0.0420176
0.0419995
0.0419815
0.041951
0.0419756
0.0419956
0.0420257
0.042053
0.0420781
0.0421012
0.0421171
0.0421308
0.0421398
0.0421475
0.0421547
0.0421645
0.0421724
0.0421797
0.042187
0.0421938
0.0421999
0.0422055
0.0422111
0.0422168
0.0422427
0.0422413
0.0422404
0.0422391
0.0422382
0.0422363
0.0422344
0.0422318
0.0422298
0.0422278
0.0422267
0.0422257
0.0422246
0.0422231
0.0422214
0.0422202
0.0422198
0.0422207
0.0422217
0.0422223
0.0422212
0.0422196
0.0422163
0.042212
0.0422064
0.042202
0.0421983
0.0421959
0.042194
0.0421925
0.0421911
0.0421892
0.0421871
0.0421844
0.0421816
0.0421779
0.0421736
0.0421679
0.0421611
0.0421526
0.0421418
0.0421267
0.042106
0.0420791
0.0420469
0.0420157
0.0419996
0.0419755
0.0419493
0.0419743
0.0419952
0.0420256
0.0420529
0.042078
0.0421012
0.0421177
0.0421313
0.0421402
0.0421479
0.0421553
0.042165
0.042173
0.0421804
0.0421877
0.0421945
0.0422007
0.0422062
0.0422119
0.0422176
0.0422231
0.0422284
0.0422331
0.0422371
0.0422397
0.0422405
0.0420756
0.0420525
0.0420309
0.0420106
0.0419914
0.0419722
0.0419535
0.0419356
0.0419182
0.0419009
0.0418849
0.0418688
0.041853
0.0418377
0.0418225
0.0418081
0.0417944
0.0417795
0.0417649
0.0417512
0.0417386
0.0417286
0.0417214
0.0417177
0.0417161
0.0417156
0.0417148
0.0417127
0.0417096
0.041704
0.0416962
0.0416925
0.0417002
0.0417267
0.0417687
0.0418306
0.0418825
0.042243
0.0422416
0.0422406
0.0422394
0.0422385
0.0422365
0.0422346
0.042232
0.0422299
0.0422279
0.0422268
0.0422258
0.0422247
0.0422232
0.0422215
0.0422202
0.0422199
0.0422208
0.0422218
0.0422224
0.0422213
0.0422197
0.0422164
0.042212
0.0422064
0.042202
0.0421983
0.0421958
0.042194
0.0421925
0.042191
0.0421892
0.0421871
0.0421845
0.0421816
0.0421779
0.0421736
0.042168
0.0421613
0.0421528
0.0421418
0.0421263
0.0421049
0.0420773
0.0420447
0.0420135
0.0419997
0.0419694
0.0419479
0.0419729
0.0419948
0.0420255
0.0420529
0.0420778
0.0421011
0.0421183
0.0421319
0.0421406
0.0421484
0.042156
0.0421655
0.0421736
0.042181
0.0421882
0.0421949
0.0422012
0.0422069
0.0422125
0.0422183
0.0422239
0.0422292
0.042234
0.0422382
0.0422411
0.042242
0.0422397
0.0422348
0.0422236
0.0422073
0.0421867
0.0421625
0.0421369
0.0421115
0.0420873
0.0420646
0.0420434
0.0420234
0.0420045
0.0419857
0.0419673
0.0419497
0.0419326
0.0419155
0.0418998
0.0418837
0.0418679
0.0418526
0.0418374
0.041823
0.0418094
0.0417947
0.0417803
0.0417669
0.0417548
0.0417451
0.0417382
0.0417347
0.0417333
0.0417327
0.0417317
0.0417296
0.0417266
0.0417215
0.0417143
0.041711
0.0417188
0.0417448
0.0417855
0.0418437
0.0418875
0.0422434
0.0422419
0.0422409
0.0422396
0.0422387
0.0422367
0.0422347
0.0422321
0.04223
0.042228
0.0422269
0.0422259
0.0422248
0.0422233
0.0422216
0.0422203
0.0422199
0.0422209
0.0422219
0.0422225
0.0422214
0.0422198
0.0422165
0.0422121
0.0422064
0.0422019
0.0421982
0.0421957
0.0421939
0.0421924
0.042191
0.0421891
0.0421871
0.0421845
0.0421817
0.042178
0.0421737
0.0421681
0.0421615
0.042153
0.0421418
0.0421257
0.0421037
0.0420754
0.0420424
0.0420111
0.0419994
0.0419632
0.0419465
0.0419714
0.0419943
0.0420254
0.0420529
0.0420777
0.0421009
0.0421189
0.0421324
0.0421409
0.0421488
0.0421566
0.0421659
0.042174
0.0421813
0.0421886
0.0421954
0.0422018
0.0422075
0.0422131
0.0422189
0.0422245
0.0422299
0.0422349
0.0422392
0.0422424
0.0422435
0.042242
0.042238
0.0422282
0.0422133
0.0421944
0.0421716
0.0421472
0.0421228
0.0420994
0.0420772
0.0420564
0.0420368
0.0420181
0.0419998
0.0419817
0.0419644
0.0419476
0.0419307
0.0419151
0.0418991
0.0418834
0.041868
0.0418527
0.0418383
0.0418248
0.0418104
0.0417963
0.0417832
0.0417714
0.041762
0.0417554
0.0417522
0.0417509
0.0417503
0.0417491
0.0417468
0.041744
0.0417393
0.0417326
0.0417296
0.0417376
0.041763
0.041802
0.0418565
0.0418922
0.0422437
0.0422422
0.0422412
0.0422399
0.0422389
0.0422369
0.0422349
0.0422322
0.0422301
0.0422281
0.042227
0.042226
0.0422249
0.0422234
0.0422216
0.0422203
0.04222
0.0422209
0.042222
0.0422226
0.0422216
0.0422199
0.0422166
0.0422121
0.0422064
0.0422019
0.0421981
0.0421956
0.0421938
0.0421923
0.0421909
0.0421891
0.0421871
0.0421845
0.0421817
0.042178
0.0421738
0.0421682
0.0421617
0.0421532
0.0421417
0.0421252
0.0421025
0.0420735
0.0420399
0.0420084
0.0419988
0.041957
0.0419452
0.0419697
0.0419937
0.0420252
0.0420529
0.0420775
0.0421005
0.0421195
0.0421328
0.0421412
0.0421492
0.0421571
0.0421663
0.0421744
0.0421817
0.042189
0.0421958
0.0422023
0.042208
0.0422137
0.0422195
0.0422252
0.0422306
0.0422357
0.0422401
0.0422436
0.0422451
0.0422443
0.0422411
0.0422326
0.0422193
0.042202
0.0421807
0.0421577
0.0421344
0.0421118
0.0420903
0.0420699
0.0420507
0.0420324
0.0420144
0.0419967
0.0419797
0.0419632
0.0419465
0.041931
0.0419151
0.0418993
0.0418839
0.0418687
0.0418542
0.0418409
0.0418266
0.0418128
0.0418
0.0417884
0.0417794
0.041773
0.04177
0.0417689
0.0417684
0.0417672
0.0417647
0.0417619
0.0417574
0.0417512
0.0417485
0.0417565
0.0417811
0.0418182
0.041869
0.0418966
0.0417586
0.0422441
0.0422425
0.0422415
0.0422402
0.0422391
0.0422371
0.042235
0.0422323
0.0422302
0.0422282
0.0422271
0.0422261
0.042225
0.0422234
0.0422217
0.0422204
0.04222
0.042221
0.0422221
0.0422227
0.0422217
0.04222
0.0422166
0.0422122
0.0422064
0.0422018
0.042198
0.0421955
0.0421937
0.0421922
0.0421908
0.0421891
0.042187
0.0421845
0.0421817
0.042178
0.0421738
0.0421684
0.0421619
0.0421533
0.0421416
0.0421245
0.0421013
0.0420716
0.0420374
0.0420056
0.0419977
0.0419509
0.0419439
0.041968
0.041993
0.042025
0.0420528
0.0420774
0.0421
0.04212
0.0421333
0.0421415
0.0421496
0.0421576
0.0421665
0.0421746
0.0421821
0.0421894
0.0421962
0.0422027
0.0422086
0.0422144
0.0422201
0.0422259
0.0422314
0.0422365
0.0422411
0.0422448
0.0422467
0.0422466
0.0422441
0.0422369
0.0422251
0.0422095
0.0421898
0.0421683
0.0421461
0.0421245
0.0421037
0.0420839
0.0420651
0.0420473
0.0420297
0.0420123
0.0419957
0.0419794
0.0419629
0.0419476
0.0419317
0.0419159
0.0419005
0.0418852
0.0418708
0.0418576
0.0418435
0.0418299
0.0418174
0.041806
0.0417972
0.041791
0.0417882
0.0417873
0.0417869
0.0417857
0.041783
0.0417803
0.041776
0.0417702
0.0417676
0.0417756
0.0417995
0.0418345
0.0418812
0.0419006
0.0417465
0.0422444
0.0422428
0.0422418
0.0422404
0.0422394
0.0422373
0.0422352
0.0422325
0.0422303
0.0422283
0.0422272
0.0422262
0.0422251
0.0422235
0.0422218
0.0422204
0.0422201
0.0422211
0.0422221
0.0422229
0.0422218
0.0422201
0.0422167
0.0422122
0.0422064
0.0422017
0.0421979
0.0421954
0.0421935
0.0421921
0.0421907
0.042189
0.042187
0.0421844
0.0421817
0.0421781
0.0421739
0.0421685
0.0421621
0.0421535
0.0421414
0.0421238
0.0421001
0.0420697
0.0420348
0.0420027
0.041996
0.0419449
0.0419425
0.0419661
0.0419923
0.0420247
0.0420528
0.0420774
0.0420994
0.0421205
0.0421336
0.0421418
0.0421501
0.0421581
0.0421668
0.0421749
0.0421824
0.0421897
0.0421966
0.0422032
0.0422091
0.0422149
0.0422207
0.0422265
0.0422321
0.0422372
0.042242
0.042246
0.0422482
0.0422487
0.042247
0.0422411
0.0422307
0.0422169
0.0421989
0.0421789
0.0421581
0.0421374
0.0421175
0.0420984
0.0420802
0.0420628
0.0420456
0.0420286
0.0420123
0.0419963
0.04198
0.0419647
0.0419489
0.0419331
0.0419177
0.0419024
0.0418881
0.041875
0.0418611
0.0418477
0.0418354
0.0418242
0.0418155
0.0418095
0.0418068
0.0418062
0.041806
0.0418048
0.041802
0.0417992
0.0417949
0.0417896
0.0417871
0.0417949
0.041818
0.041851
0.0418932
0.0419036
0.0417339
0.0422448
0.0422432
0.0422421
0.0422407
0.0422396
0.0422375
0.0422353
0.0422326
0.0422304
0.0422284
0.0422273
0.0422263
0.0422252
0.0422236
0.0422218
0.0422205
0.0422201
0.0422211
0.0422222
0.042223
0.0422219
0.0422202
0.0422168
0.0422122
0.0422063
0.0422016
0.0421977
0.0421952
0.0421934
0.042192
0.0421906
0.0421889
0.0421869
0.0421844
0.0421816
0.0421781
0.042174
0.0421687
0.0421623
0.0421536
0.0421412
0.0421231
0.0420988
0.0420677
0.0420321
0.0419998
0.0419936
0.041939
0.0419409
0.0419642
0.0419915
0.0420245
0.0420529
0.0420775
0.0420989
0.0421209
0.042134
0.042142
0.0421505
0.0421584
0.042167
0.0421751
0.0421827
0.0421901
0.042197
0.0422036
0.0422097
0.0422156
0.0422214
0.0422272
0.0422328
0.0422381
0.0422429
0.0422472
0.0422498
0.0422508
0.0422498
0.0422452
0.0422362
0.0422241
0.042208
0.0421895
0.0421701
0.0421506
0.0421317
0.0421133
0.0420957
0.0420788
0.0420622
0.0420455
0.0420296
0.0420138
0.0419977
0.0419826
0.0419669
0.0419511
0.0419356
0.0419204
0.0419061
0.0418931
0.0418795
0.0418663
0.0418541
0.041843
0.0418344
0.0418285
0.0418259
0.0418254
0.0418255
0.0418244
0.0418214
0.0418185
0.0418143
0.0418093
0.0418069
0.0418144
0.0418369
0.0418678
0.0419051
0.0419053
0.0417226
0.0422452
0.0422435
0.0422424
0.042241
0.0422399
0.0422377
0.0422355
0.0422327
0.0422305
0.0422285
0.0422274
0.0422263
0.0422252
0.0422236
0.0422219
0.0422205
0.0422202
0.0422212
0.0422223
0.0422231
0.042222
0.0422203
0.0422168
0.0422122
0.0422063
0.0422015
0.0421976
0.042195
0.0421932
0.0421918
0.0421905
0.0421887
0.0421868
0.0421843
0.0421816
0.0421781
0.0421741
0.0421689
0.0421625
0.0421537
0.0421409
0.0421223
0.0420975
0.0420657
0.0420294
0.041997
0.0419904
0.0419333
0.0419391
0.0419623
0.0419907
0.0420242
0.042053
0.0420777
0.0420983
0.0421214
0.0421342
0.0421422
0.042151
0.0421588
0.0421673
0.0421754
0.042183
0.0421905
0.0421974
0.0422041
0.0422103
0.0422162
0.0422221
0.0422279
0.0422336
0.0422389
0.0422439
0.0422483
0.0422513
0.0422529
0.0422525
0.0422491
0.0422415
0.042231
0.0422168
0.0422001
0.0421821
0.042164
0.0421461
0.0421286
0.0421118
0.0420955
0.0420794
0.0420632
0.0420476
0.0420321
0.0420163
0.0420013
0.0419856
0.0419698
0.0419544
0.0419392
0.041925
0.0419121
0.0418986
0.0418856
0.0418735
0.0418625
0.0418539
0.0418481
0.0418456
0.0418452
0.0418454
0.0418446
0.0418415
0.0418385
0.0418343
0.0418295
0.0418271
0.0418343
0.041856
0.0418849
0.0419174
0.0419063
0.0417125
0.0422456
0.0422439
0.0422427
0.0422413
0.0422401
0.0422379
0.0422356
0.0422328
0.0422306
0.0422286
0.0422274
0.0422264
0.0422253
0.0422237
0.0422219
0.0422206
0.0422202
0.0422212
0.0422223
0.0422232
0.0422221
0.0422203
0.0422169
0.0422122
0.0422062
0.0422014
0.0421974
0.0421948
0.042193
0.0421916
0.0421903
0.0421886
0.0421867
0.0421842
0.0421815
0.0421781
0.0421742
0.042169
0.0421627
0.0421537
0.0421405
0.0421214
0.042096
0.0420638
0.0420266
0.0419942
0.0419863
0.0419278
0.041937
0.0419604
0.0419899
0.042024
0.0420531
0.0420781
0.0420978
0.0421218
0.0421344
0.0421425
0.0421514
0.0421592
0.0421675
0.0421756
0.0421834
0.0421909
0.0421979
0.0422046
0.0422109
0.0422169
0.0422229
0.0422287
0.0422344
0.0422398
0.0422449
0.0422495
0.0422529
0.0422549
0.0422551
0.0422528
0.0422466
0.0422377
0.0422254
0.0422105
0.0421941
0.0421774
0.0421607
0.0421442
0.0421282
0.0421127
0.0420972
0.0420815
0.0420664
0.0420512
0.0420356
0.0420207
0.0420052
0.0419895
0.0419741
0.041959
0.0419449
0.041932
0.0419187
0.0419058
0.0418938
0.0418828
0.0418741
0.0418683
0.0418658
0.0418655
0.0418659
0.0418652
0.0418621
0.041859
0.0418549
0.0418504
0.0418479
0.0418546
0.0418754
0.0419022
0.04193
0.0419064
0.0417041
0.0422461
0.0422443
0.0422431
0.0422415
0.0422404
0.0422381
0.0422358
0.0422329
0.0422307
0.0422286
0.0422275
0.0422265
0.0422253
0.0422237
0.0422219
0.0422206
0.0422202
0.0422212
0.0422224
0.0422232
0.0422221
0.0422204
0.0422169
0.0422122
0.0422061
0.0422012
0.0421972
0.0421946
0.0421927
0.0421913
0.04219
0.0421884
0.0421865
0.0421841
0.0421815
0.0421781
0.0421742
0.0421692
0.0421628
0.0421536
0.04214
0.0421205
0.0420945
0.0420618
0.0420238
0.0419915
0.0419813
0.0419227
0.0419348
0.0419584
0.0419891
0.0420238
0.0420533
0.0420786
0.0420973
0.0421221
0.0421346
0.0421428
0.0421519
0.0421595
0.0421677
0.0421758
0.0421837
0.0421913
0.0421984
0.0422052
0.0422116
0.0422177
0.0422237
0.0422296
0.0422353
0.0422408
0.0422459
0.0422506
0.0422544
0.0422569
0.0422576
0.0422563
0.0422515
0.0422441
0.0422337
0.0422206
0.042206
0.0421907
0.0421753
0.0421601
0.0421451
0.0421304
0.0421156
0.0421005
0.0420858
0.042071
0.0420557
0.0420411
0.0420257
0.0420101
0.0419948
0.0419798
0.0419657
0.0419529
0.0419397
0.0419269
0.041915
0.041904
0.0418952
0.0418894
0.0418868
0.0418865
0.0418869
0.0418864
0.0418833
0.0418802
0.0418762
0.041872
0.0418694
0.0418755
0.041895
0.0419196
0.0419424
0.0419061
0.0416956
0.0422465
0.0422446
0.0422434
0.0422418
0.0422406
0.0422383
0.0422359
0.042233
0.0422307
0.0422287
0.0422276
0.0422265
0.0422254
0.0422237
0.0422219
0.0422206
0.0422202
0.0422212
0.0422224
0.0422233
0.0422222
0.0422204
0.0422169
0.0422121
0.042206
0.0422011
0.042197
0.0421944
0.0421924
0.042191
0.0421898
0.0421881
0.0421863
0.0421839
0.0421814
0.0421781
0.0421743
0.0421693
0.0421629
0.0421535
0.0421395
0.0421195
0.0420928
0.0420597
0.0420211
0.0419889
0.0419753
0.0419179
0.0419323
0.0419563
0.0419883
0.0420237
0.0420536
0.0420793
0.0420968
0.0421226
0.0421347
0.0421432
0.0421524
0.0421598
0.0421679
0.0421761
0.0421841
0.0421917
0.0421989
0.0422058
0.0422123
0.0422185
0.0422246
0.0422305
0.0422363
0.0422418
0.042247
0.0422519
0.0422559
0.042259
0.04226
0.0422597
0.0422562
0.0422502
0.0422415
0.0422305
0.0422176
0.0422039
0.04219
0.042176
0.0421621
0.0421483
0.0421344
0.0421201
0.0421059
0.0420916
0.0420767
0.0420624
0.0420473
0.0420318
0.0420166
0.0420017
0.0419877
0.041975
0.0419619
0.0419491
0.0419373
0.0419262
0.0419174
0.0419115
0.0419087
0.0419082
0.0419086
0.0419082
0.0419051
0.041902
0.0418982
0.0418943
0.0418919
0.0418973
0.0419153
0.0419374
0.0419542
0.0419061
0.041687
0.0422469
0.042245
0.0422437
0.0422421
0.0422408
0.0422385
0.042236
0.0422331
0.0422308
0.0422287
0.0422276
0.0422266
0.0422254
0.0422237
0.0422219
0.0422206
0.0422202
0.0422212
0.0422224
0.0422233
0.0422222
0.0422204
0.0422169
0.0422121
0.0422059
0.0422009
0.0421968
0.0421941
0.0421921
0.0421907
0.0421895
0.0421879
0.042186
0.0421837
0.0421812
0.042178
0.0421743
0.0421694
0.0421629
0.0421533
0.0421388
0.0421183
0.0420909
0.0420576
0.0420184
0.0419865
0.0419685
0.0419132
0.0419298
0.0419543
0.0419876
0.0420236
0.042054
0.0420802
0.0420964
0.0421231
0.0421349
0.0421436
0.0421528
0.0421601
0.0421683
0.0421763
0.0421844
0.0421922
0.0421994
0.0422064
0.0422131
0.0422194
0.0422255
0.0422315
0.0422373
0.0422428
0.0422481
0.0422531
0.0422575
0.0422609
0.0422625
0.0422628
0.0422606
0.042256
0.042249
0.0422398
0.0422288
0.0422168
0.0422044
0.0421918
0.0421792
0.0421665
0.0421536
0.0421401
0.0421266
0.0421128
0.0420984
0.0420845
0.0420698
0.0420545
0.0420396
0.0420248
0.0420109
0.0419982
0.0419853
0.0419725
0.0419607
0.0419496
0.0419407
0.0419346
0.0419316
0.0419309
0.0419312
0.0419308
0.0419278
0.0419247
0.0419211
0.0419174
0.0419153
0.0419201
0.0419363
0.0419555
0.0419649
0.0419073
0.0416787
0.0422474
0.0422454
0.0422441
0.0422424
0.0422411
0.0422386
0.0422362
0.0422332
0.0422308
0.0422288
0.0422277
0.0422266
0.0422254
0.0422238
0.0422219
0.0422206
0.0422202
0.0422212
0.0422224
0.0422233
0.0422222
0.0422204
0.0422168
0.042212
0.0422057
0.0422006
0.0421965
0.0421937
0.0421918
0.0421904
0.0421891
0.0421875
0.0421857
0.0421835
0.0421811
0.042178
0.0421744
0.0421694
0.0421628
0.042153
0.0421382
0.042117
0.0420888
0.0420552
0.0420158
0.0419842
0.0419608
0.0419087
0.041927
0.0419521
0.0419869
0.0420237
0.0420544
0.0420812
0.0420962
0.0421237
0.042135
0.042144
0.0421532
0.0421603
0.0421684
0.0421766
0.0421848
0.0421926
0.0421999
0.0422071
0.0422138
0.0422203
0.0422265
0.0422325
0.0422384
0.0422439
0.0422493
0.0422543
0.0422591
0.0422628
0.0422649
0.0422658
0.0422647
0.0422615
0.0422561
0.0422487
0.0422396
0.0422293
0.0422185
0.0422074
0.0421961
0.0421847
0.0421729
0.0421603
0.0421477
0.0421346
0.0421209
0.0421075
0.0420933
0.0420783
0.0420637
0.0420491
0.0420354
0.0420227
0.0420099
0.0419972
0.0419854
0.0419744
0.0419653
0.0419591
0.0419558
0.0419547
0.0419547
0.0419541
0.0419512
0.0419481
0.0419448
0.0419415
0.0419399
0.0419441
0.0419583
0.0419744
0.0419751
0.0419103
0.0416715
0.0422479
0.0422458
0.0422444
0.0422427
0.0422413
0.0422388
0.0422363
0.0422332
0.0422309
0.0422288
0.0422277
0.0422266
0.0422254
0.0422238
0.0422219
0.0422205
0.0422201
0.0422212
0.0422224
0.0422233
0.0422222
0.0422204
0.0422168
0.0422119
0.0422056
0.0422004
0.0421962
0.0421934
0.0421914
0.0421899
0.0421887
0.0421871
0.0421854
0.0421832
0.0421809
0.0421779
0.0421743
0.0421693
0.0421627
0.0421526
0.0421374
0.0421156
0.0420865
0.0420525
0.0420131
0.0419819
0.0419526
0.0419045
0.0419241
0.04195
0.0419865
0.042024
0.0420551
0.0420823
0.0420961
0.0421244
0.042135
0.0421443
0.0421535
0.0421607
0.0421686
0.0421768
0.0421851
0.0421931
0.0422005
0.0422077
0.0422146
0.0422212
0.0422275
0.0422336
0.0422395
0.0422451
0.0422505
0.0422556
0.0422606
0.0422647
0.0422673
0.0422688
0.0422686
0.0422667
0.0422628
0.042257
0.0422497
0.0422412
0.0422321
0.0422226
0.0422128
0.0422027
0.0421922
0.0421807
0.042169
0.0421568
0.0421439
0.0421312
0.0421176
0.0421032
0.0420889
0.0420747
0.0420612
0.0420486
0.0420359
0.0420233
0.0420116
0.0420006
0.0419915
0.041985
0.0419813
0.0419798
0.0419795
0.0419785
0.0419756
0.0419725
0.0419695
0.0419667
0.0419657
0.0419692
0.0419812
0.0419945
0.0419854
0.0419145
0.0416659
0.0422484
0.0422462
0.0422448
0.042243
0.0422416
0.042239
0.0422364
0.0422333
0.0422309
0.0422288
0.0422277
0.0422266
0.0422254
0.0422237
0.0422219
0.0422204
0.04222
0.0422211
0.0422223
0.0422233
0.0422222
0.0422203
0.0422167
0.0422117
0.0422053
0.0422001
0.0421958
0.042193
0.0421909
0.0421895
0.0421882
0.0421867
0.042185
0.0421829
0.0421806
0.0421777
0.0421742
0.0421692
0.0421625
0.0421522
0.0421367
0.0421142
0.042084
0.0420496
0.0420102
0.0419794
0.0419441
0.0419005
0.0419211
0.041948
0.0419862
0.0420246
0.0420559
0.0420834
0.0420963
0.0421251
0.0421351
0.0421446
0.0421537
0.0421607
0.0421688
0.0421771
0.0421854
0.0421935
0.042201
0.0422083
0.0422153
0.042222
0.0422285
0.0422347
0.0422407
0.0422463
0.0422517
0.042257
0.0422621
0.0422665
0.0422697
0.0422718
0.0422724
0.0422715
0.042269
0.0422647
0.0422593
0.0422526
0.0422451
0.0422372
0.042229
0.0422204
0.0422112
0.042201
0.0421904
0.0421792
0.0421673
0.0421554
0.0421426
0.0421288
0.0421151
0.0421013
0.0420882
0.0420758
0.0420634
0.0420509
0.0420394
0.0420284
0.0420192
0.0420126
0.0420084
0.0420064
0.0420056
0.0420042
0.0420011
0.041998
0.0419955
0.0419931
0.0419928
0.0419958
0.0420056
0.0420158
0.0419967
0.0419196
0.041662
0.0422488
0.0422466
0.0422452
0.0422433
0.0422418
0.0422392
0.0422365
0.0422333
0.0422309
0.0422289
0.0422277
0.0422266
0.0422254
0.0422236
0.0422217
0.0422203
0.0422199
0.0422209
0.0422222
0.0422232
0.0422221
0.0422202
0.0422165
0.0422116
0.0422051
0.0421998
0.0421954
0.0421925
0.0421904
0.042189
0.0421877
0.0421862
0.0421846
0.0421825
0.0421804
0.0421775
0.042174
0.0421689
0.0421621
0.0421517
0.0421359
0.0421127
0.0420815
0.0420463
0.0420073
0.0419763
0.0419356
0.0418968
0.0419181
0.0419462
0.0419862
0.0420253
0.0420569
0.0420845
0.0420968
0.0421257
0.0421352
0.0421449
0.0421539
0.042161
0.0421689
0.0421773
0.0421857
0.0421939
0.0422015
0.0422089
0.042216
0.0422229
0.0422295
0.0422358
0.0422418
0.0422476
0.0422531
0.0422583
0.0422636
0.0422683
0.042272
0.0422748
0.042276
0.0422761
0.0422748
0.0422719
0.0422681
0.0422631
0.0422573
0.0422511
0.0422445
0.0422374
0.0422297
0.0422209
0.0422115
0.0422015
0.0421907
0.0421799
0.042168
0.0421551
0.0421421
0.0421289
0.0421162
0.0421042
0.0420922
0.0420799
0.0420685
0.0420578
0.0420486
0.0420418
0.0420372
0.0420347
0.0420332
0.0420313
0.0420281
0.0420248
0.0420228
0.042021
0.0420213
0.042024
0.0420314
0.0420381
0.0420095
0.0419254
0.0416604
0.0422493
0.0422471
0.0422455
0.0422436
0.0422421
0.0422393
0.0422366
0.0422334
0.0422309
0.0422289
0.0422277
0.0422266
0.0422253
0.0422235
0.0422216
0.0422201
0.0422196
0.0422207
0.042222
0.042223
0.0422219
0.04222
0.0422164
0.0422113
0.0422048
0.0421994
0.042195
0.042192
0.0421899
0.0421884
0.0421872
0.0421857
0.0421841
0.0421821
0.04218
0.0421772
0.0421737
0.0421686
0.0421618
0.0421511
0.0421352
0.0421114
0.0420793
0.0420429
0.0420036
0.0419722
0.0419276
0.0418934
0.041915
0.0419448
0.0419864
0.0420264
0.0420582
0.0420853
0.0420977
0.0421262
0.0421353
0.0421451
0.0421538
0.0421609
0.0421691
0.0421774
0.042186
0.0421942
0.0422019
0.0422094
0.0422167
0.0422237
0.0422305
0.0422369
0.042243
0.0422489
0.0422544
0.0422598
0.0422651
0.04227
0.0422742
0.0422777
0.0422796
0.0422804
0.0422802
0.0422786
0.0422762
0.0422728
0.0422686
0.0422641
0.0422591
0.0422537
0.0422474
0.0422401
0.0422321
0.0422234
0.0422139
0.0422042
0.0421935
0.0421816
0.0421695
0.0421571
0.0421451
0.0421337
0.0421221
0.0421102
0.0420992
0.0420887
0.0420796
0.0420727
0.0420677
0.0420646
0.0420625
0.0420601
0.0420566
0.0420534
0.0420518
0.0420505
0.0420515
0.042054
0.0420589
0.0420611
0.0420247
0.0419326
0.0416613
0.0422498
0.0422475
0.0422459
0.0422439
0.0422423
0.0422395
0.0422367
0.0422334
0.0422309
0.0422288
0.0422276
0.0422265
0.0422252
0.0422233
0.0422214
0.0422198
0.0422194
0.0422205
0.0422218
0.0422229
0.0422217
0.0422198
0.0422161
0.0422111
0.0422044
0.0421989
0.0421944
0.0421914
0.0421892
0.0421877
0.0421865
0.0421851
0.0421835
0.0421816
0.0421796
0.0421769
0.0421734
0.0421682
0.0421613
0.0421506
0.0421345
0.0421103
0.0420775
0.0420396
0.0419989
0.0419671
0.0419205
0.0418907
0.0419125
0.0419438
0.0419869
0.0420277
0.04206
0.0420856
0.042099
0.0421265
0.0421355
0.0421451
0.0421538
0.0421611
0.0421691
0.0421776
0.0421862
0.0421945
0.0422023
0.0422098
0.0422173
0.0422244
0.0422313
0.0422379
0.0422442
0.0422502
0.0422558
0.0422612
0.0422666
0.0422717
0.0422764
0.0422804
0.0422831
0.0422847
0.0422852
0.0422848
0.0422836
0.0422816
0.042279
0.0422761
0.0422728
0.0422689
0.0422642
0.0422584
0.0422518
0.0422445
0.0422364
0.042228
0.0422186
0.0422078
0.0421969
0.0421855
0.0421744
0.0421638
0.0421529
0.0421415
0.0421309
0.0421208
0.042112
0.0421051
0.0420999
0.0420963
0.0420936
0.0420906
0.042087
0.0420837
0.0420827
0.0420819
0.0420835
0.0420857
0.0420877
0.0420848
0.0420421
0.0419414
0.0416647
0.0422503
0.0422479
0.0422462
0.0422442
0.0422425
0.0422396
0.0422367
0.0422334
0.0422309
0.0422287
0.0422275
0.0422263
0.042225
0.0422231
0.0422211
0.0422196
0.0422191
0.0422202
0.0422215
0.0422226
0.0422215
0.0422196
0.0422159
0.0422107
0.042204
0.0421984
0.0421938
0.0421907
0.0421885
0.042187
0.0421858
0.0421844
0.0421829
0.0421811
0.0421792
0.0421764
0.0421729
0.0421678
0.0421608
0.0421501
0.0421339
0.0421093
0.0420759
0.0420359
0.041994
0.0419611
0.0419145
0.0418883
0.0419102
0.0419432
0.0419876
0.0420294
0.0420623
0.0420854
0.0421009
0.0421266
0.0421357
0.0421454
0.0421537
0.0421609
0.0421691
0.0421777
0.0421863
0.0421946
0.0422025
0.0422102
0.0422177
0.0422251
0.0422322
0.0422389
0.0422453
0.0422514
0.0422572
0.0422627
0.0422681
0.0422734
0.0422786
0.0422831
0.0422865
0.0422887
0.0422901
0.0422905
0.0422904
0.0422897
0.0422884
0.042287
0.0422853
0.042283
0.0422798
0.0422755
0.0422703
0.0422645
0.0422579
0.0422509
0.0422428
0.0422333
0.0422237
0.0422136
0.0422036
0.042194
0.042184
0.0421734
0.0421635
0.0421538
0.0421453
0.0421386
0.0421332
0.0421292
0.0421262
0.0421229
0.0421191
0.0421159
0.0421156
0.0421153
0.0421175
0.0421193
0.042118
0.04211
0.0420616
0.0419518
0.0416701
0.0422508
0.0422483
0.0422466
0.0422445
0.0422427
0.0422397
0.0422367
0.0422333
0.0422308
0.0422286
0.0422274
0.0422261
0.0422247
0.0422228
0.0422208
0.0422192
0.0422188
0.0422199
0.0422212
0.0422223
0.0422212
0.0422193
0.0422155
0.0422103
0.0422035
0.0421978
0.0421932
0.0421899
0.0421877
0.0421862
0.042185
0.0421836
0.0421822
0.0421805
0.0421786
0.0421759
0.0421724
0.0421673
0.0421604
0.0421496
0.0421333
0.0421081
0.0420741
0.0420326
0.0419883
0.0419552
0.0419096
0.0418869
0.0419087
0.0419432
0.0419885
0.0420309
0.042065
0.0420857
0.0421028
0.0421266
0.0421357
0.042145
0.0421535
0.0421608
0.0421691
0.0421777
0.0421864
0.0421947
0.0422027
0.0422105
0.0422181
0.0422256
0.0422329
0.0422398
0.0422464
0.0422527
0.0422586
0.0422641
0.0422696
0.0422751
0.0422806
0.0422856
0.0422897
0.0422927
0.0422948
0.0422961
0.0422968
0.0422971
0.042297
0.0422969
0.0422966
0.0422958
0.0422941
0.0422912
0.0422875
0.0422831
0.042278
0.0422723
0.0422656
0.0422577
0.0422495
0.0422407
0.0422321
0.0422237
0.0422147
0.0422051
0.0421959
0.0421869
0.0421789
0.0421726
0.0421674
0.0421633
0.04216
0.0421565
0.0421529
0.0421502
0.0421499
0.0421508
0.0421535
0.0421541
0.0421495
0.042137
0.0420817
0.0419621
0.0416762
0.0422513
0.0422487
0.0422469
0.0422447
0.0422429
0.0422397
0.0422367
0.0422332
0.0422307
0.0422284
0.0422272
0.0422259
0.0422244
0.0422224
0.0422204
0.0422188
0.0422184
0.0422195
0.0422209
0.042222
0.0422209
0.0422189
0.0422151
0.0422098
0.042203
0.0421972
0.0421924
0.0421891
0.0421868
0.0421853
0.0421841
0.0421828
0.0421814
0.0421798
0.042178
0.0421753
0.0421718
0.0421667
0.0421599
0.0421492
0.0421326
0.0421068
0.0420723
0.04203
0.0419811
0.0419499
0.0419057
0.0418861
0.0419078
0.0419438
0.0419896
0.0420326
0.0420676
0.0420873
0.0421043
0.0421265
0.0421361
0.0421449
0.0421532
0.0421607
0.0421689
0.0421776
0.0421863
0.0421947
0.0422028
0.0422107
0.0422184
0.042226
0.0422334
0.0422406
0.0422474
0.0422538
0.0422599
0.0422656
0.0422712
0.0422769
0.0422827
0.042288
0.0422928
0.0422965
0.0422992
0.0423011
0.0423028
0.042304
0.0423049
0.042306
0.0423069
0.0423073
0.0423069
0.0423055
0.0423032
0.0423002
0.0422965
0.0422921
0.0422868
0.0422802
0.0422734
0.0422662
0.042259
0.0422521
0.0422444
0.042236
0.0422278
0.0422196
0.0422122
0.0422063
0.0422014
0.0421975
0.0421942
0.0421908
0.0421878
0.0421859
0.0421855
0.0421878
0.0421911
0.0421895
0.0421824
0.0421656
0.0421025
0.0419719
0.0416816
0.0422518
0.0422491
0.0422473
0.042245
0.042243
0.0422398
0.0422366
0.0422331
0.0422305
0.0422282
0.0422269
0.0422255
0.042224
0.042222
0.04222
0.0422184
0.0422179
0.042219
0.0422204
0.0422216
0.0422204
0.0422184
0.0422146
0.0422093
0.0422024
0.0421965
0.0421916
0.0421882
0.0421858
0.0421842
0.0421831
0.0421818
0.0421806
0.042179
0.0421772
0.0421746
0.0421711
0.0421662
0.0421595
0.0421488
0.0421317
0.0421052
0.0420699
0.042027
0.0419745
0.0419452
0.0419026
0.0418862
0.0419078
0.0419448
0.041991
0.0420343
0.04207
0.0420901
0.0421056
0.0421264
0.0421357
0.0421446
0.042153
0.0421605
0.0421687
0.0421775
0.0421862
0.0421946
0.0422028
0.0422107
0.0422185
0.0422263
0.0422339
0.0422412
0.0422483
0.0422549
0.0422612
0.0422671
0.0422728
0.0422786
0.0422846
0.0422902
0.0422956
0.0423001
0.0423036
0.0423064
0.0423087
0.0423104
0.0423123
0.0423143
0.0423161
0.0423176
0.0423184
0.0423183
0.0423173
0.0423155
0.0423131
0.04231
0.042306
0.0423008
0.0422954
0.0422896
0.042284
0.0422785
0.0422722
0.0422651
0.0422579
0.0422507
0.0422442
0.042239
0.0422348
0.0422313
0.0422282
0.0422251
0.042223
0.0422218
0.0422223
0.0422256
0.0422289
0.0422251
0.0422157
0.0421954
0.0421228
0.0419809
0.0416869
0.0422523
0.0422495
0.0422476
0.0422452
0.0422431
0.0422398
0.0422365
0.0422329
0.0422302
0.0422279
0.0422266
0.0422251
0.0422236
0.0422216
0.0422195
0.0422179
0.0422174
0.0422185
0.0422199
0.042221
0.0422199
0.0422179
0.042214
0.0422086
0.0422016
0.0421956
0.0421906
0.0421871
0.0421847
0.0421831
0.042182
0.0421808
0.0421796
0.0421781
0.0421763
0.0421737
0.0421703
0.0421656
0.042159
0.0421484
0.0421307
0.0421033
0.0420668
0.0420227
0.0419704
0.0419404
0.0419002
0.0418871
0.0419089
0.0419468
0.0419929
0.0420365
0.0420728
0.0420923
0.0421069
0.0421264
0.0421358
0.0421443
0.0421526
0.0421601
0.0421684
0.0421772
0.0421859
0.0421944
0.0422026
0.0422107
0.0422186
0.0422264
0.0422342
0.0422417
0.042249
0.0422559
0.0422624
0.0422685
0.0422744
0.0422804
0.0422865
0.0422925
0.0422982
0.0423033
0.0423076
0.0423112
0.0423141
0.0423167
0.0423192
0.0423219
0.0423246
0.042327
0.0423288
0.0423296
0.0423298
0.0423292
0.042328
0.0423259
0.042323
0.042319
0.0423148
0.0423103
0.0423061
0.042302
0.0422973
0.0422918
0.0422859
0.0422798
0.0422742
0.0422697
0.0422662
0.0422632
0.0422606
0.0422584
0.0422572
0.0422568
0.0422585
0.042263
0.0422646
0.0422591
0.0422488
0.0422226
0.0421422
0.0419889
0.0416905
0.0422527
0.0422498
0.0422478
0.0422453
0.0422431
0.0422397
0.0422363
0.0422326
0.0422299
0.0422276
0.0422261
0.0422247
0.0422231
0.042221
0.0422189
0.0422173
0.0422168
0.0422179
0.0422193
0.0422204
0.0422193
0.0422172
0.0422133
0.0422079
0.0422008
0.0421947
0.0421896
0.042186
0.0421835
0.0421819
0.0421807
0.0421796
0.0421785
0.042177
0.0421753
0.0421727
0.0421694
0.0421649
0.0421584
0.0421477
0.0421294
0.0421012
0.0420636
0.0420179
0.0419666
0.0419355
0.041898
0.0418886
0.041911
0.0419498
0.0419952
0.0420388
0.0420765
0.0420936
0.0421083
0.0421263
0.0421357
0.0421441
0.0421522
0.0421597
0.042168
0.0421768
0.0421855
0.042194
0.0422023
0.0422105
0.0422185
0.0422264
0.0422343
0.0422421
0.0422496
0.0422568
0.0422636
0.0422699
0.042276
0.0422821
0.0422883
0.0422945
0.0423006
0.0423063
0.0423116
0.0423162
0.0423195
0.0423225
0.0423257
0.0423292
0.0423326
0.0423357
0.0423382
0.0423399
0.042341
0.0423413
0.042341
0.0423399
0.042338
0.0423351
0.0423318