/*--------------------------------*- C++ -*----------------------------------*\
| =========                 |                                                 |
| \\      /  F ield         | OpenFOAM: The Open Source CFD Toolbox           |
|  \\    /   O peration     | Version:  2412                                  |
|   \\  /    A nd           | Website:  www.openfoam.com                      |
|    \\/     M anipulation  |                                                 |
\*---------------------------------------------------------------------------*/
FoamFile
{
    version     2.0;
    format      ascii;
    arch        "LSB;label=32;scalar=64";
    class       volScalarField;
    location    "0.065";
    object      T;
}
// * * * * * * * * * * * * * * * * * * * * * * * * * * * * * * * * * * * * * //

dimensions      [0 0 0 1 0 0 0];

internalField   nonuniform List<scalar> 
78650
(
223.804
223.433
223.408
223.258
223.184
223.281
223.513
223.821
224.142
224.432
224.646
224.764
224.803
224.793
224.764
224.723
224.672
224.598
224.492
224.353
224.191
224.022
223.855
223.694
223.542
223.399
223.263
223.132
223.005
222.883
222.768
222.658
222.555
222.457
222.363
222.275
222.191
222.112
222.039
221.97
221.905
221.845
221.787
221.733
221.683
221.635
221.59
221.548
221.508
221.471
221.437
221.405
221.375
221.347
221.321
221.297
221.274
221.252
221.23
221.208
221.186
221.162
221.137
221.11
221.078
221.042
221.001
220.954
220.899
220.836
220.763
220.677
220.579
220.464
220.333
220.184
220.012
219.817
219.594
219.34
219.054
218.731
218.367
217.958
217.501
216.992
216.425
215.796
215.099
214.327
213.473
212.531
211.504
210.392
209.182
207.868
206.435
204.886
203.238
201.523
199.657
197.737
195.77
193.702
191.529
189.417
187.357
185.351
183.47
181.51
179.574
177.708
175.869
174.181
172.706
171.418
170.408
169.656
169.224
169.051
167.745
223.74
223.427
223.411
223.247
223.041
222.997
223.137
223.437
223.811
224.184
224.485
224.673
224.759
224.773
224.761
224.725
224.675
224.605
224.504
224.372
224.214
224.047
223.88
223.718
223.566
223.424
223.29
223.161
223.038
222.92
222.807
222.701
222.6
222.505
222.415
222.33
222.25
222.176
222.106
222.042
221.982
221.926
221.873
221.824
221.778
221.736
221.696
221.659
221.624
221.593
221.564
221.538
221.514
221.492
221.473
221.455
221.44
221.425
221.412
221.398
221.384
221.37
221.355
221.338
221.318
221.294
221.266
221.233
221.195
221.148
221.093
221.027
220.949
220.858
220.752
220.629
220.488
220.325
220.137
219.922
219.677
219.399
219.085
218.73
218.331
217.884
217.385
216.826
216.201
215.501
214.726
213.869
212.932
211.904
210.774
209.556
208.24
206.831
205.294
203.65
201.889
200.055
198.158
196.202
194.116
191.985
189.886
187.717
185.676
183.697
181.714
179.86
178.003
176.178
174.492
172.978
171.756
170.811
170.142
169.752
168.137
223.682
223.426
223.422
223.275
223.021
222.838
222.84
223.025
223.377
223.81
224.217
224.503
224.666
224.727
224.738
224.717
224.676
224.609
224.514
224.388
224.236
224.072
223.906
223.744
223.591
223.449
223.316
223.19
223.071
222.956
222.847
222.744
222.646
222.554
222.468
222.386
222.31
222.24
222.175
222.115
222.059
222.008
221.96
221.916
221.875
221.838
221.803
221.771
221.742
221.716
221.693
221.673
221.655
221.64
221.627
221.616
221.607
221.6
221.595
221.589
221.584
221.58
221.575
221.568
221.56
221.548
221.533
221.514
221.49
221.46
221.421
221.375
221.317
221.248
221.166
221.069
220.955
220.822
220.667
220.488
220.281
220.045
219.775
219.469
219.123
218.731
218.291
217.797
217.244
216.627
215.941
215.18
214.34
213.413
212.391
211.276
210.051
208.736
207.315
205.774
204.149
202.385
200.513
198.586
196.604
194.475
192.407
190.226
187.979
185.922
183.763
181.722
179.777
177.85
176.019
174.355
172.938
171.802
171.061
170.645
168.792
223.616
223.426
223.436
223.322
223.057
222.808
222.674
222.716
222.927
223.315
223.79
224.211
224.489
224.627
224.679
224.687
224.664
224.607
224.519
224.401
224.255
224.096
223.932
223.771
223.618
223.475
223.343
223.219
223.103
222.993
222.887
222.788
222.694
222.605
222.521
222.444
222.371
222.305
222.244
222.188
222.138
222.091
222.048
222.009
221.974
221.941
221.912
221.885
221.862
221.841
221.823
221.809
221.797
221.788
221.781
221.777
221.776
221.776
221.778
221.78
221.784
221.788
221.793
221.797
221.798
221.799
221.796
221.79
221.78
221.766
221.744
221.715
221.677
221.629
221.569
221.496
221.409
221.305
221.182
221.037
220.869
220.673
220.448
220.19
219.895
219.56
219.182
218.755
218.274
217.732
217.125
216.447
215.69
214.845
213.908
212.885
211.768
210.569
209.253
207.835
206.283
204.62
202.83
200.918
199.007
196.935
194.787
192.709
190.457
188.271
186.12
183.939
181.887
179.867
177.897
176.065
174.483
173.153
172.237
171.69
169.652
223.537
223.422
223.451
223.38
223.136
222.842
222.644
222.554
222.617
222.838
223.247
223.744
224.161
224.419
224.556
224.612
224.619
224.589
224.518
224.407
224.269
224.116
223.956
223.797
223.645
223.503
223.371
223.249
223.135
223.028
222.927
222.832
222.742
222.657
222.577
222.502
222.434
222.371
222.314
222.263
222.218
222.176
222.139
222.105
222.074
222.047
222.023
222.002
221.984
221.969
221.957
221.948
221.942
221.939
221.939
221.941
221.946
221.954
221.963
221.974
221.986
221.999
222.013
222.026
222.039
222.05
222.06
222.066
222.07
222.07
222.065
222.053
222.034
222.006
221.967
221.918
221.856
221.779
221.686
221.573
221.439
221.281
221.096
220.882
220.635
220.352
220.029
219.661
219.245
218.773
218.242
217.644
216.975
216.229
215.404
214.496
213.491
212.389
211.166
209.852
208.418
206.87
205.228
203.409
201.477
199.491
197.349
195.223
193.02
190.671
188.473
186.199
183.993
181.866
179.818
177.882
176.133
174.631
173.52
172.805
170.403
223.439
223.413
223.471
223.437
223.24
222.928
222.671
222.53
222.477
222.538
222.76
223.172
223.658
224.061
224.324
224.464
224.528
224.537
224.496
224.403
224.274
224.129
223.975
223.821
223.673
223.532
223.4
223.279
223.167
223.063
222.966
222.876
222.79
222.71
222.634
222.563
222.498
222.439
222.387
222.34
222.299
222.263
222.23
222.202
222.177
222.155
222.136
222.12
222.108
222.098
222.092
222.089
222.089
222.092
222.098
222.107
222.119
222.133
222.15
222.169
222.189
222.21
222.233
222.256
222.279
222.301
222.322
222.341
222.358
222.372
222.382
222.386
222.385
222.376
222.359
222.331
222.293
222.242
222.177
222.095
221.995
221.873
221.729
221.558
221.358
221.125
220.857
220.548
220.196
219.794
219.339
218.822
218.24
217.585
216.852
216.035
215.126
214.126
213.016
211.817
210.489
209.06
207.503
205.835
204.016
202.116
200.102
197.921
195.801
193.462
191.167
188.816
186.436
184.103
181.814
179.699
177.782
176.131
174.861
173.977
171.325
223.33
223.407
223.492
223.48
223.342
223.055
222.755
222.552
222.456
222.435
222.489
222.703
223.09
223.534
223.914
224.187
224.353
224.422
224.422
224.368
224.266
224.131
223.98
223.833
223.692
223.557
223.429
223.31
223.199
223.097
223.004
222.918
222.837
222.762
222.691
222.625
222.564
222.509
222.46
222.418
222.382
222.351
222.324
222.301
222.281
222.265
222.252
222.242
222.235
222.231
222.23
222.233
222.239
222.249
222.261
222.276
222.294
222.316
222.34
222.366
222.394
222.424
222.456
222.488
222.521
222.554
222.586
222.617
222.646
222.674
222.698
222.718
222.733
222.742
222.745
222.739
222.723
222.697
222.659
222.606
222.536
222.448
222.34
222.209
222.051
221.865
221.646
221.392
221.1
220.763
220.377
219.935
219.433
218.866
218.23
217.514
216.71
215.812
214.812
213.718
212.503
211.195
209.752
208.193
206.523
204.674
202.765
200.66
198.523
196.259
193.94
191.625
189.227
186.874
184.45
182.198
180.091
178.32
176.894
175.8
172.618
223.237
223.387
223.493
223.506
223.427
223.187
222.88
222.626
222.476
222.422
222.424
222.482
222.674
223.004
223.39
223.75
224.029
224.201
224.27
224.268
224.216
224.111
223.975
223.835
223.7
223.571
223.45
223.336
223.23
223.132
223.042
222.959
222.883
222.813
222.748
222.686
222.63
222.579
222.535
222.497
222.466
222.44
222.418
222.401
222.387
222.376
222.369
222.365
222.363
222.365
222.371
222.379
222.391
222.406
222.425
222.446
222.471
222.499
222.531
222.564
222.6
222.638
222.678
222.72
222.762
222.805
222.848
222.89
222.932
222.972
223.01
223.046
223.077
223.103
223.124
223.137
223.143
223.141
223.128
223.103
223.063
223.008
222.934
222.842
222.726
222.585
222.416
222.215
221.979
221.704
221.384
221.014
220.592
220.109
219.559
218.933
218.227
217.439
216.561
215.593
214.508
213.326
212.007
210.579
209.006
207.308
205.487
203.501
201.331
199.112
196.723
194.39
191.871
189.418
186.869
184.386
182.067
180.022
178.526
177.559
174.588
223.163
223.344
223.481
223.528
223.486
223.301
223.016
222.747
222.548
222.446
222.421
222.442
222.516
222.675
222.924
223.241
223.568
223.843
224.02
224.087
224.083
224.034
223.943
223.825
223.697
223.571
223.452
223.346
223.25
223.161
223.077
222.999
222.928
222.863
222.803
222.747
222.696
222.65
222.611
222.578
222.551
222.53
222.514
222.502
222.494
222.489
222.487
222.489
222.494
222.501
222.512
222.527
222.545
222.566
222.591
222.619
222.65
222.685
222.723
222.764
222.807
222.853
222.902
222.952
223.004
223.057
223.11
223.163
223.217
223.27
223.321
223.371
223.417
223.46
223.498
223.531
223.557
223.576
223.586
223.587
223.575
223.55
223.509
223.451
223.374
223.274
223.149
222.996
222.813
222.595
222.338
222.038
221.69
221.288
220.825
220.296
219.695
219.016
218.249
217.388
216.417
215.347
214.147
212.841
211.39
209.82
208.114
206.271
204.255
202.158
199.905
197.539
195.132
192.517
189.984
187.408
184.856
182.537
180.454
178.904
174.972
223.104
223.286
223.461
223.538
223.521
223.397
223.147
222.885
222.666
222.515
222.451
222.45
222.493
222.578
222.697
222.863
223.098
223.369
223.613
223.779
223.861
223.879
223.844
223.769
223.665
223.553
223.445
223.346
223.255
223.173
223.1
223.032
222.971
222.912
222.857
222.805
222.76
222.72
222.685
222.657
222.635
222.619
222.609
222.603
222.601
222.602
222.606
222.614
222.624
222.638
222.655
222.675
222.699
222.726
222.757
222.791
222.829
222.87
222.915
222.963
223.014
223.068
223.124
223.183
223.244
223.306
223.369
223.433
223.498
223.562
223.627
223.69
223.751
223.809
223.864
223.914
223.96
224
224.032
224.056
224.071
224.075
224.065
224.041
224.001
223.941
223.859
223.753
223.62
223.457
223.26
223.024
222.744
222.416
222.035
221.591
221.083
220.502
219.84
219.092
218.244
217.298
216.229
215.053
213.732
212.294
210.701
208.968
207.103
205.018
202.869
200.447
198.063
195.47
192.825
190.325
187.748
185.526
183.651
182.11
177.992
223.06
223.222
223.426
223.539
223.544
223.476
223.266
223.018
222.799
222.625
222.519
222.488
222.505
222.568
222.655
222.733
222.823
222.973
223.163
223.356
223.506
223.599
223.633
223.62
223.573
223.503
223.419
223.333
223.249
223.171
223.104
223.047
222.999
222.953
222.907
222.863
222.822
222.787
222.758
222.735
222.719
222.708
222.703
222.703
222.707
222.714
222.725
222.738
222.755
222.775
222.798
222.824
222.854
222.887
222.924
222.964
223.008
223.056
223.108
223.163
223.221
223.282
223.346
223.413
223.483
223.554
223.627
223.701
223.776
223.852
223.929
224.004
224.079
224.152
224.223
224.291
224.354
224.413
224.467
224.514
224.553
224.582
224.6
224.607
224.6
224.577
224.535
224.471
224.384
224.271
224.128
223.953
223.739
223.483
223.18
222.824
222.409
221.928
221.371
220.733
220.004
219.182
218.249
217.212
216.038
214.752
213.314
211.737
209.992
208.092
206.064
203.809
201.34
198.812
196.058
193.121
190.341
187.586
185.387
183.89
179.969
223.031
223.158
223.374
223.53
223.565
223.535
223.371
223.14
222.929
222.753
222.62
222.555
222.548
222.582
222.654
222.723
222.771
222.811
222.87
222.966
223.086
223.214
223.319
223.385
223.407
223.39
223.346
223.285
223.219
223.155
223.097
223.047
223.008
222.976
222.946
222.914
222.882
222.853
222.828
222.811
222.8
222.796
222.797
222.803
222.812
222.825
222.842
222.862
222.885
222.91
222.939
222.972
223.007
223.047
223.09
223.136
223.186
223.24
223.298
223.36
223.425
223.494
223.565
223.64
223.718
223.798
223.88
223.964
224.049
224.136
224.223
224.311
224.399
224.486
224.572
224.655
224.736
224.813
224.887
224.955
225.017
225.071
225.116
225.151
225.175
225.185
225.183
225.16
225.118
225.052
224.961
224.841
224.688
224.498
224.267
223.988
223.657
223.264
222.806
222.275
221.664
220.967
220.167
219.266
218.238
217.093
215.791
214.359
212.761
211.006
209.081
207.003
204.725
202.29
199.842
197.027
194.225
191.576
188.794
186.537
181.405
223.014
223.103
223.309
223.507
223.579
223.573
223.463
223.257
223.053
222.879
222.734
222.641
222.611
222.62
222.674
222.738
222.774
222.796
222.795
222.784
222.79
222.839
222.929
223.029
223.115
223.165
223.181
223.171
223.144
223.109
223.072
223.036
223.004
222.98
222.962
222.949
222.933
222.913
222.896
222.883
222.878
222.879
222.887
222.899
222.915
222.934
222.957
222.983
223.012
223.044
223.079
223.118
223.159
223.205
223.254
223.306
223.362
223.423
223.487
223.556
223.628
223.703
223.782
223.864
223.95
224.039
224.129
224.222
224.317
224.414
224.513
224.612
224.712
224.812
224.912
225.01
225.107
225.201
225.293
225.381
225.464
225.541
225.611
225.672
225.725
225.766
225.794
225.809
225.809
225.786
225.743
225.674
225.578
225.45
225.287
225.082
224.832
224.528
224.167
223.74
223.239
222.657
221.981
221.209
220.316
219.307
218.151
216.869
215.422
213.817
212.021
210.045
207.91
205.529
202.957
200.294
197.36
194.791
192.339
190.353
185.363
223.005
223.06
223.238
223.467
223.579
223.6
223.541
223.367
223.167
222.994
222.846
222.734
222.684
222.679
222.711
222.769
222.801
222.812
222.797
222.752
222.692
222.638
222.633
222.676
222.76
222.856
222.94
222.998
223.022
223.023
223.011
222.998
222.982
222.97
222.963
222.962
222.963
222.962
222.957
222.952
222.952
222.959
222.973
222.992
223.015
223.041
223.07
223.102
223.137
223.176
223.217
223.261
223.309
223.36
223.415
223.473
223.536
223.602
223.672
223.747
223.826
223.908
223.994
224.084
224.177
224.273
224.372
224.474
224.578
224.685
224.793
224.904
225.015
225.127
225.24
225.352
225.464
225.574
225.682
225.788
225.891
225.99
226.083
226.169
226.248
226.319
226.38
226.428
226.463
226.481
226.485
226.464
226.421
226.349
226.247
226.109
225.932
225.71
225.436
225.104
224.707
224.238
223.684
223.041
222.289
221.431
220.443
219.332
218.059
216.637
215.032
213.253
211.267
209.075
206.63
204.085
201.114
198.05
195.228
192.951
187.885
223.002
223.031
223.17
223.411
223.568
223.628
223.6
223.464
223.272
223.102
222.957
222.835
222.763
222.746
222.763
222.815
222.848
222.852
222.824
222.763
222.682
222.595
222.515
222.467
222.473
222.528
222.619
222.72
222.804
222.858
222.887
222.909
222.928
222.942
222.952
222.96
222.972
222.989
223.003
223.013
223.021
223.034
223.054
223.08
223.11
223.143
223.178
223.217
223.259
223.303
223.35
223.401
223.455
223.512
223.573
223.637
223.705
223.777
223.854
223.935
224.02
224.109
224.201
224.298
224.399
224.503
224.61
224.72
224.832
224.948
225.066
225.187
225.309
225.433
225.558
225.683
225.808
225.933
226.057
226.18
226.301
226.419
226.533
226.642
226.745
226.842
226.931
227.011
227.08
227.135
227.175
227.198
227.204
227.185
227.141
227.067
226.959
226.811
226.621
226.378
226.079
225.714
225.275
224.755
224.139
223.427
222.593
221.639
220.533
219.28
217.84
216.232
214.425
212.423
210.202
207.705
205.171
202.243
199.289
196.689
191.01
223.001
223.014
223.111
223.342
223.55
223.644
223.635
223.545
223.371
223.207
223.066
222.939
222.848
222.817
222.824
222.868
222.906
222.91
222.877
222.798
222.7
222.597
222.497
222.409
222.339
222.317
222.346
222.424
222.529
222.636
222.722
222.785
222.837
222.881
222.916
222.942
222.966
222.995
223.026
223.056
223.081
223.103
223.13
223.162
223.199
223.24
223.283
223.328
223.376
223.427
223.48
223.537
223.596
223.659
223.726
223.796
223.87
223.948
224.031
224.118
224.209
224.304
224.403
224.506
224.613
224.725
224.839
224.957
225.078
225.202
225.329
225.459
225.591
225.726
225.861
225.999
226.137
226.275
226.414
226.552
226.689
226.825
226.959
227.089
227.215
227.336
227.451
227.56
227.659
227.749
227.826
227.889
227.936
227.964
227.974
227.956
227.911
227.832
227.716
227.555
227.346
227.08
226.751
226.35
225.865
225.29
224.602
223.799
222.852
221.767
220.505
219.073
217.431
215.592
213.528
211.226
208.677
206.077
203.248
200.89
195.723
223
223.006
223.067
223.269
223.517
223.649
223.659
223.612
223.464
223.307
223.17
223.043
222.939
222.893
222.892
222.924
222.967
222.977
222.944
222.858
222.74
222.618
222.506
222.4
222.308
222.239
222.202
222.213
222.274
222.374
222.489
222.596
222.686
222.764
222.835
222.897
222.946
222.988
223.03
223.076
223.122
223.161
223.198
223.237
223.282
223.33
223.381
223.434
223.488
223.545
223.605
223.668
223.733
223.802
223.874
223.95
224.03
224.114
224.202
224.294
224.391
224.493
224.598
224.707
224.821
224.939
225.061
225.186
225.315
225.447
225.582
225.721
225.863
226.007
226.153
226.302
226.451
226.603
226.754
226.907
227.059
227.212
227.363
227.512
227.658
227.801
227.94
228.073
228.201
228.32
228.431
228.53
228.617
228.687
228.741
228.775
228.788
228.773
228.726
228.642
228.516
228.342
228.113
227.82
227.453
227.004
226.454
225.801
225.019
224.109
223.037
221.804
220.369
218.739
216.865
214.745
212.366
209.743
206.866
204.174
198.928
223
223.002
223.037
223.201
223.467
223.641
223.683
223.663
223.546
223.397
223.267
223.146
223.037
222.975
222.964
222.985
223.025
223.041
223.011
222.925
222.797
222.66
222.53
222.412
222.307
222.218
222.154
222.121
222.123
222.169
222.259
222.376
222.501
222.619
222.726
222.82
222.898
222.962
223.02
223.079
223.141
223.202
223.255
223.305
223.358
223.414
223.473
223.533
223.595
223.659
223.725
223.794
223.865
223.94
224.018
224.099
224.185
224.274
224.368
224.466
224.568
224.675
224.786
224.902
225.022
225.146
225.274
225.406
225.542
225.682
225.825
225.972
226.122
226.275
226.431
226.589
226.75
226.912
227.076
227.242
227.408
227.575
227.742
227.908
228.073
228.235
228.395
228.552
228.705
228.852
228.992
229.124
229.246
229.356
229.453
229.533
229.594
229.633
229.649
229.635
229.585
229.494
229.356
229.163
228.906
228.579
228.165
227.662
227.044
226.309
225.424
224.386
223.158
221.74
220.091
218.21
216.068
213.686
211.13
208.507
203.565
223
223.001
223.02
223.143
223.408
223.627
223.703
223.697
223.613
223.479
223.358
223.246
223.136
223.061
223.039
223.048
223.079
223.096
223.067
222.983
222.854
222.711
222.569
222.436
222.319
222.221
222.14
222.085
222.062
222.067
222.102
222.183
222.3
222.436
222.574
222.7
222.811
222.909
222.994
223.069
223.144
223.221
223.296
223.362
223.425
223.49
223.557
223.626
223.695
223.766
223.839
223.913
223.991
224.071
224.155
224.242
224.333
224.428
224.526
224.63
224.738
224.85
224.967
225.088
225.214
225.345
225.479
225.618
225.76
225.906
226.057
226.211
226.37
226.531
226.696
226.863
227.034
227.207
227.382
227.559
227.738
227.918
228.099
228.28
228.462
228.642
228.821
228.999
229.174
229.345
229.512
229.672
229.825
229.97
230.104
230.225
230.332
230.422
230.491
230.535
230.554
230.541
230.486
230.387
230.233
230.02
229.733
229.367
228.896
228.318
227.599
226.736
225.693
224.463
223.011
221.332
219.381
217.225
214.763
212.3
207.939
223
223
223.01
223.099
223.348
223.605
223.712
223.721
223.669
223.553
223.441
223.339
223.234
223.149
223.115
223.113
223.129
223.142
223.11
223.026
222.898
222.756
222.612
222.472
222.344
222.234
222.145
222.076
222.035
222.023
222.032
222.068
222.143
222.262
222.407
222.558
222.702
222.832
222.945
223.044
223.134
223.226
223.318
223.405
223.483
223.557
223.634
223.712
223.789
223.867
223.947
224.028
224.111
224.197
224.286
224.379
224.475
224.575
224.679
224.788
224.901
225.019
225.141
225.268
225.399
225.535
225.675
225.82
225.968
226.121
226.278
226.44
226.605
226.774
226.947
227.123
227.302
227.484
227.669
227.857
228.047
228.239
228.433
228.628
228.824
229.02
229.216
229.412
229.607
229.8
229.99
230.176
230.357
230.532
230.699
230.857
231.004
231.138
231.257
231.356
231.432
231.482
231.504
231.491
231.43
231.319
231.143
230.898
230.564
230.136
229.583
228.904
228.061
227.047
225.824
224.366
222.639
220.657
218.347
215.881
211.921
223
223
223.005
223.068
223.293
223.578
223.714
223.746
223.716
223.619
223.516
223.423
223.324
223.236
223.19
223.177
223.177
223.18
223.142
223.056
222.928
222.789
222.647
222.508
222.375
222.257
222.158
222.081
222.028
222.003
222
222.014
222.059
222.14
222.261
222.411
222.571
222.725
222.867
222.995
223.11
223.217
223.326
223.431
223.528
223.616
223.703
223.789
223.876
223.962
224.048
224.136
224.225
224.317
224.412
224.51
224.611
224.716
224.825
224.939
225.057
225.18
225.307
225.439
225.575
225.717
225.862
226.012
226.166
226.325
226.488
226.656
226.828
227.004
227.184
227.368
227.555
227.746
227.94
228.137
228.336
228.539
228.744
228.952
229.161
229.371
229.583
229.795
230.007
230.218
230.429
230.637
230.843
231.044
231.24
231.43
231.612
231.785
231.946
232.093
232.223
232.333
232.417
232.472
232.496
232.48
232.408
232.28
232.078
231.799
231.414
230.92
230.275
229.475
228.473
227.253
225.793
224.057
222.059
219.714
216.228
223
223
223.003
223.047
223.247
223.548
223.715
223.769
223.754
223.675
223.581
223.498
223.408
223.321
223.265
223.239
223.224
223.21
223.162
223.072
222.944
222.806
222.668
222.533
222.404
222.284
222.179
222.092
222.031
221.997
221.988
221.992
222.018
222.076
222.169
222.295
222.446
222.612
222.776
222.931
223.071
223.199
223.321
223.444
223.56
223.665
223.763
223.86
223.956
224.05
224.144
224.238
224.334
224.431
224.532
224.635
224.741
224.851
224.965
225.083
225.206
225.334
225.466
225.602
225.744
225.89
226.041
226.196
226.355
226.519
226.688
226.862
227.04
227.222
227.409
227.599
227.794
227.992
228.194
228.399
228.608
228.82
229.035
229.254
229.474
229.697
229.921
230.147
230.374
230.603
230.831
231.059
231.285
231.51
231.731
231.949
232.161
232.367
232.566
232.754
232.93
233.09
233.233
233.353
233.446
233.507
233.532
233.512
233.428
233.28
233.04
232.704
232.233
231.624
230.824
229.82
228.562
227.013
225.207
223.002
219.883
223
223
223.002
223.034
223.211
223.519
223.72
223.788
223.782
223.722
223.639
223.565
223.485
223.402
223.338
223.298
223.265
223.232
223.172
223.076
222.946
222.808
222.675
222.547
222.424
222.308
222.203
222.112
222.042
222
221.986
221.986
222.003
222.045
222.12
222.224
222.356
222.511
222.681
222.852
223.015
223.167
223.308
223.446
223.58
223.703
223.816
223.924
224.029
224.132
224.233
224.335
224.436
224.54
224.645
224.754
224.865
224.98
225.098
225.221
225.349
225.48
225.617
225.758
225.904
226.055
226.211
226.37
226.535
226.704
226.878
227.057
227.24
227.428
227.62
227.817
228.018
228.223
228.432
228.645
228.861
229.082
229.306
229.533
229.764
229.997
230.233
230.471
230.712
230.954
231.198
231.443
231.687
231.932
232.175
232.416
232.655
232.89
233.119
233.343
233.558
233.762
233.954
234.129
234.286
234.417
234.518
234.584
234.608
234.579
234.473
234.289
233.994
233.581
232.997
232.237
231.228
229.945
228.38
226.385
223.569
223
223
223.001
223.026
223.186
223.496
223.726
223.805
223.806
223.762
223.691
223.627
223.557
223.476
223.404
223.348
223.296
223.242
223.17
223.069
222.936
222.799
222.671
222.548
222.433
222.325
222.224
222.135
222.061
222.012
221.991
221.989
222.001
222.036
222.099
222.188
222.302
222.442
222.603
222.777
222.954
223.126
223.288
223.442
223.592
223.733
223.861
223.981
224.096
224.208
224.317
224.426
224.534
224.643
224.754
224.867
224.983
225.103
225.226
225.353
225.484
225.621
225.761
225.907
226.057
226.213
226.373
226.537
226.705
226.879
227.058
227.241
227.43
227.623
227.82
228.022
228.229
228.44
228.655
228.875
229.098
229.326
229.558
229.794
230.033
230.276
230.522
230.771
231.023
231.277
231.534
231.793
232.053
232.315
232.576
232.838
233.098
233.357
233.614
233.867
234.115
234.357
234.59
234.812
235.021
235.213
235.385
235.528
235.638
235.708
235.731
235.689
235.559
235.335
234.971
234.46
233.709
232.691
231.323
229.519
226.933
223
223
223.001
223.023
223.172
223.483
223.732
223.82
223.829
223.797
223.739
223.685
223.622
223.542
223.46
223.384
223.313
223.24
223.155
223.045
222.913
222.78
222.658
222.542
222.434
222.333
222.241
222.157
222.085
222.032
222.004
221.999
222.007
222.037
222.095
222.175
222.276
222.401
222.55
222.719
222.899
223.082
223.262
223.432
223.598
223.755
223.899
224.033
224.158
224.279
224.396
224.511
224.626
224.741
224.857
224.975
225.096
225.22
225.347
225.478
225.614
225.754
225.899
226.049
226.203
226.363
226.526
226.694
226.867
227.045
227.228
227.416
227.609
227.806
228.009
228.216
228.427
228.644
228.865
229.09
229.32
229.554
229.792
230.035
230.282
230.533
230.787
231.046
231.307
231.572
231.841
232.112
232.385
232.661
232.938
233.217
233.496
233.775
234.054
234.332
234.608
234.881
235.149
235.41
235.663
235.906
236.134
236.344
236.533
236.69
236.811
236.885
236.905
236.839
236.661
236.358
235.86
235.138
234.029
232.514
230.14
223
223
223.001
223.022
223.168
223.481
223.74
223.834
223.85
223.829
223.784
223.739
223.68
223.596
223.499
223.404
223.314
223.224
223.124
223.008
222.88
222.753
222.637
222.527
222.428
222.336
222.251
222.175
222.109
222.057
222.026
222.016
222.021
222.046
222.1
222.175
222.268
222.383
222.521
222.68
222.858
223.046
223.236
223.422
223.602
223.773
223.933
224.079
224.216
224.345
224.47
224.593
224.713
224.834
224.955
225.078
225.204
225.332
225.463
225.598
225.738
225.882
226.031
226.184
226.342
226.506
226.673
226.845
227.021
227.203
227.39
227.582
227.779
227.981
228.187
228.399
228.615
228.836
229.062
229.293
229.528
229.768
230.012
230.261
230.515
230.773
231.035
231.301
231.571
231.845
232.123
232.404
232.689
232.977
233.268
233.561
233.855
234.152
234.45
234.749
235.048
235.346
235.643
235.936
236.226
236.51
236.786
237.05
237.301
237.533
237.741
237.912
238.042
238.113
238.122
238.025
237.804
237.39
236.595
235.48
233.335
223
223
223.001
223.023
223.171
223.488
223.753
223.85
223.872
223.861
223.827
223.788
223.728
223.633
223.52
223.406
223.299
223.187
223.077
222.962
222.839
222.719
222.609
222.508
222.416
222.333
222.257
222.189
222.131
222.084
222.053
222.041
222.043
222.064
222.113
222.183
222.271
222.38
222.51
222.661
222.833
223.02
223.217
223.414
223.606
223.79
223.963
224.122
224.27
224.408
224.541
224.67
224.797
224.923
225.049
225.177
225.306
225.438
225.574
225.713
225.856
226.004
226.156
226.313
226.475
226.642
226.813
226.988
227.168
227.353
227.544
227.74
227.94
228.146
228.356
228.572
228.792
229.018
229.248
229.483
229.723
229.968
230.218
230.473
230.732
230.996
231.265
231.538
231.816
232.098
232.384
232.675
232.969
233.267
233.569
233.874
234.182
234.494
234.807
235.124
235.442
235.761
236.081
236.402
236.721
237.039
237.353
237.662
237.963
238.253
238.53
238.787
239.021
239.209
239.353
239.424
239.431
239.257
238.826
238.19
236.596
223
223
223.001
223.025
223.184
223.507
223.77
223.869
223.895
223.893
223.868
223.829
223.761
223.651
223.521
223.39
223.255
223.132
223.02
222.909
222.792
222.679
222.576
222.484
222.401
222.327
222.259
222.2
222.149
222.109
222.082
222.07
222.071
222.09
222.135
222.199
222.282
222.386
222.511
222.657
222.823
223.008
223.207
223.412
223.613
223.808
223.993
224.163
224.321
224.469
224.609
224.744
224.877
225.008
225.139
225.271
225.405
225.541
225.68
225.823
225.97
226.121
226.276
226.437
226.602
226.773
226.947
227.125
227.308
227.497
227.691
227.89
228.094
228.303
228.517
228.737
228.961
229.19
229.425
229.664
229.909
230.158
230.413
230.672
230.937
231.207
231.481
231.761
232.045
232.334
232.628
232.926
233.229
233.536
233.848
234.163
234.483
234.806
235.133
235.464
235.799
236.136
236.476
236.818
237.161
237.506
237.851
238.196
238.538
238.876
239.207
239.529
239.838
240.123
240.381
240.583
240.753
240.828
240.762
240.492
239.682
223
223
223.001
223.031
223.206
223.535
223.792
223.892
223.921
223.922
223.904
223.859
223.776
223.65
223.5
223.34
223.192
223.066
222.957
222.85
222.739
222.634
222.539
222.457
222.383
222.317
222.259
222.208
222.165
222.131
222.11
222.099
222.101
222.121
222.163
222.222
222.301
222.4
222.521
222.663
222.825
223.008
223.208
223.416
223.625
223.83
224.024
224.204
224.371
224.527
224.674
224.815
224.953
225.09
225.225
225.362
225.499
225.639
225.781
225.928
226.078
226.232
226.391
226.555
226.724
226.897
227.074
227.255
227.442
227.634
227.831
228.034
228.241
228.453
228.671
228.893
229.121
229.355
229.593
229.836
230.085
230.338
230.597
230.862
231.132
231.407
231.687
231.972
232.262
232.557
232.858
233.163
233.474
233.789
234.109
234.434
234.763
235.098
235.436
235.78
236.127
236.479
236.835
237.195
237.559
237.926
238.296
238.668
239.042
239.416
239.789
240.16
240.525
240.882
241.224
241.544
241.836
242.085
242.284
242.322
242.206
223
223
223.002
223.041
223.237
223.57
223.819
223.919
223.948
223.949
223.93
223.874
223.772
223.622
223.443
223.267
223.117
222.994
222.89
222.786
222.682
222.586
222.501
222.427
222.363
222.306
222.256
222.213
222.178
222.151
222.135
222.128
222.133
222.155
222.195
222.251
222.325
222.42
222.537
222.676
222.837
223.019
223.218
223.43
223.644
223.855
224.057
224.245
224.42
224.583
224.737
224.884
225.027
225.168
225.308
225.448
225.59
225.733
225.879
226.028
226.182
226.339
226.501
226.668
226.84
227.016
227.196
227.38
227.569
227.764
227.965
228.17
228.381
228.596
228.817
229.043
229.274
229.51
229.752
229.999
230.252
230.509
230.772
231.041
231.315
231.595
231.88
232.17
232.466
232.767
233.074
233.385
233.702
234.025
234.353
234.686
235.024
235.367
235.716
236.07
236.429
236.794
237.163
237.537
237.917
238.301
238.69
239.084
239.481
239.882
240.285
240.691
241.097
241.502
241.899
242.288
242.658
243.024
243.351
243.585
243.82
223
223
223.004
223.055
223.276
223.613
223.852
223.947
223.974
223.971
223.943
223.872
223.742
223.557
223.36
223.181
223.035
222.918
222.818
222.72
222.623
222.537
222.462
222.397
222.342
222.293
222.251
222.216
222.188
222.169
222.157
222.155
222.164
222.19
222.23
222.283
222.353
222.445
222.559
222.696
222.856
223.037
223.237
223.45
223.669
223.885
224.093
224.288
224.47
224.639
224.799
224.951
225.099
225.244
225.387
225.531
225.676
225.822
225.971
226.124
226.281
226.441
226.606
226.776
226.951
227.13
227.312
227.499
227.691
227.889