/*--------------------------------*- C++ -*----------------------------------*\
| =========                 |                                                 |
| \\      /  F ield         | OpenFOAM: The Open Source CFD Toolbox           |
|  \\    /   O peration     | Version:  2412                                  |
|   \\  /    A nd           | Website:  www.openfoam.com                      |
|    \\/     M anipulation  |                                                 |
\*---------------------------------------------------------------------------*/
FoamFile
{
    version     2.0;
    format      ascii;
    arch        "LSB;label=32;scalar=64";
    class       volScalarField;
    location    "0.044";
    object      T;
}
// * * * * * * * * * * * * * * * * * * * * * * * * * * * * * * * * * * * * * //

dimensions      [0 0 0 1 0 0 0];

internalField   nonuniform List<scalar> 
9771
(
183.835
209.668
215.905
217.48
218.191
218.62
218.951
219.228
219.478
219.709
183.698
209.532
215.885
217.473
218.184
218.615
218.946
219.224
219.474
219.705
183.583
209.39
215.865
217.466
218.178
218.61
218.941
219.219
219.47
219.701
183.486
209.243
215.847
217.459
218.172
218.604
218.937
219.215
219.466
219.697
183.413
209.085
215.829
217.452
218.165
218.599
218.932
219.211
219.462
219.693
183.345
208.918
215.813
217.445
218.159
218.594
218.928
219.207
219.458
219.689
183.287
208.739
215.797
217.439
218.152
218.588
218.923
219.202
219.454
219.685
219.9
220.105
220.307
220.506
220.7
220.886
221.063
221.232
221.395
221.555
221.713
221.867
222.017
222.163
222.303
222.439
222.573
222.708
222.844
222.978
223.111
223.24
183.211
208.545
215.782
217.432
218.145
218.583
218.918
219.198
219.45
219.681
219.895
220.101
220.302
220.501
220.695
220.88
221.057
221.226
221.389
221.549
221.706
221.861
222.011
222.156
222.296
222.431
222.565
222.699
222.834
222.968
223.1
223.229
223.353
223.473
223.588
223.701
223.812
223.921
183.167
208.339
215.769
217.425
218.139
218.577
218.914
219.194
219.446
219.676
219.891
220.096
220.297
220.496
220.689
220.875
221.052
221.22
221.383
221.542
221.7
221.854
222.004
222.149
222.288
222.423
222.556
222.691
222.825
222.958
223.089
223.218
223.341
223.46
223.574
223.686
223.796
223.905
224.012
183.093
208.128
215.758
217.418
218.132
218.572
218.909
219.189
219.441
219.672
219.886
220.091
220.292
220.491
220.684
220.869
221.046
221.214
221.376
221.536
221.693
221.847
221.997
222.142
222.281
222.415
222.548
222.682
222.816
222.948
223.079
223.206
223.329
223.447
223.561
223.671
223.781
223.889
223.994
183.109
207.963
215.751
217.411
218.125
218.566
218.904
219.185
219.437
219.668
219.882
220.087
220.288
220.485
220.678
220.864
221.04
221.208
221.37
221.53
221.687
221.841
221.99
222.134
222.273
222.407
222.54
222.673
222.806
222.938
223.068
223.195
223.317
223.434
223.547
223.657
223.766
223.873
223.977
178.177
208.051
215.734
217.193
217.946
218.429
218.795
219.093
219.357
219.593
219.809
220.014
220.214
220.411
220.602
220.786
220.961
221.128
221.291
221.451
221.607
221.759
221.906
222.048
222.185
222.317
222.446
222.576
222.704
222.83
222.953
223.074
223.19
223.301
223.407
223.51
223.611
223.71
223.808
223.902
223.994
224.083
224.169
224.253
224.335
224.414
224.491
224.568
224.643
224.717
224.789
224.861
224.932
225.001
225.07
225.137
225.203
225.268
225.331
225.393
225.453
225.511
225.566
225.619
225.67
225.718
225.763
225.805
225.844
225.88
225.913
225.942
225.968
225.991
226.01
226.026
226.039
226.048
226.054
187.876
211.782
215.661
216.821
217.629
218.176
218.592
218.923
219.207
219.453
219.672
219.878
220.077
220.271
220.459
220.639
220.812
220.978
221.14
221.3
221.455
221.605
221.747
221.885
222.017
222.144
222.268
222.39
222.508
222.622
222.732
222.84
222.944
223.043
223.137
223.227
223.314
223.398
223.479
223.558
223.633
223.705
223.774
223.839
223.901
223.96
224.017
224.07
224.121
224.169
224.215
224.257
224.296
224.333
224.367
224.398
224.425
224.45
224.472
224.49
224.506
224.518
224.527
224.533
224.537
224.538
224.537
224.533
224.527
224.518
224.507
224.494
224.48
224.464
224.446
224.427
224.406
224.385
224.361
197.117
214.002
215.681
216.598
217.369
217.938
218.392
218.757
219.062
219.32
219.545
219.751
219.948
220.138
220.321
220.496
220.664
220.828
220.989
221.147
221.3
221.445
221.583
221.715
221.842
221.965
222.083
222.198
222.306
222.409
222.507
222.601
222.693
222.781
222.863
222.941
223.014
223.083
223.149
223.211
223.269
223.323
223.374
223.421
223.464
223.505
223.542
223.576
223.607
223.635
223.659
223.681
223.699
223.715
223.728
223.738
223.745
223.75
223.753
223.755
223.753
223.75
223.745
223.737
223.728
223.719
223.707
223.695
223.682
223.667
223.652
223.637
223.62
223.603
223.586
223.569
223.551
223.533
223.516
201.687
214.818
215.869
216.497
217.165
217.724
218.203
218.595
218.921
219.191
219.423
219.631
219.826
220.011
220.188
220.357
220.52
220.68
220.839
220.994
221.142
221.281
221.414
221.541
221.663
221.78
221.892
221.998
222.097
222.189
222.275
222.357
222.437
222.513
222.584
222.65
222.71
222.766
222.817
222.864
222.906
222.945
222.979
223.011
223.04
223.066
223.089
223.108
223.124
223.138
223.15
223.16
223.168
223.174
223.178
223.181
223.181
223.18
223.178
223.175
223.171
223.166
223.159
223.152
223.144
223.136
223.126
223.117
223.107
223.097
223.088
223.078
223.068
223.059
223.049
223.04
223.031
223.022
223.014
205.504
215.229
216.04
216.43
217.016
217.542
218.027
218.44
218.784
219.066
219.305
219.517
219.71
219.891
220.061
220.223
220.38
220.536
220.69
220.84
220.982
221.116
221.242
221.364
221.48
221.591
221.696
221.794
221.885
221.967
222.043
222.114
222.182
222.246
222.307
222.361
222.41
222.454
222.494
222.528
222.558
222.585
222.609
222.63
222.649
222.665
222.679
222.691
222.701
222.71
222.717
222.722
222.726
222.729
222.731
222.733
222.733
222.732
222.731
222.73
222.728
222.727
222.725
222.724
222.723
222.722
222.721
222.72
222.72
222.72
222.72
222.721
222.722
222.723
222.724
222.725
222.727
222.729
222.73
208.689
215.393
216.015
216.353
216.918
217.393
217.868
218.292
218.65
218.943
219.19
219.406
219.599
219.775
219.939
220.094
220.245
220.395
220.543
220.686
220.822
220.949
221.069
221.185
221.296
221.4
221.497
221.588
221.671
221.746
221.812
221.873
221.931
221.985
222.035
222.079
222.118
222.153
222.183
222.209
222.231
222.25
222.267
222.282
222.296
222.308
222.32
222.329
222.337
222.344
222.35
222.356
222.362
222.367
222.373
222.379
222.385
222.391
222.397
222.404
222.411
222.419
222.427
222.436
222.445
222.455
222.465
222.474
222.484
222.494
222.504
222.513
222.523
222.531
222.54
222.549
222.557
222.564
222.571
211.258
215.567
215.879
216.261
216.851
217.269
217.726
218.152
218.519
218.822
219.078
219.298
219.492
219.664
219.823
219.971
220.116
220.258
220.399
220.535
220.664
220.784
220.897
221.007
221.111
221.209
221.299
221.382
221.458
221.526
221.586
221.64
221.688
221.733
221.773
221.809
221.84
221.866
221.889
221.91
221.927
221.943
221.957
221.971
221.984
221.997
222.009
222.02
222.031
222.042
222.052
222.063
222.075
222.087
222.101
222.115
222.13
222.147
222.163
222.181
222.199
222.217
222.236
222.255
222.274
222.293
222.311
222.329
222.347
222.365
222.382
222.399
222.415
222.431
222.446
222.461
222.475
222.489
222.503
213.257
215.842
215.792
216.259
216.807
217.171
217.605
218.022
218.393
218.704
218.967
219.191
219.386
219.557
219.711
219.854
219.992
220.127
220.259
220.388
220.508
220.621
220.727
220.83
220.928
221.02
221.104
221.18
221.249
221.311
221.366
221.413
221.455
221.492
221.525
221.553
221.577
221.599
221.618
221.636
221.652
221.668
221.683
221.699
221.715
221.73
221.746
221.762
221.778
221.796
221.814
221.833
221.854
221.877
221.901
221.927
221.954
221.982
222.011
222.041
222.07
222.099
222.129
222.157
222.186
222.213
222.24
222.266
222.292
222.316
222.34
222.363
222.386
222.408
222.429
222.449
222.469
222.487
222.505
214.769
216.194
215.826
216.304
216.763
217.102
217.509
217.906
218.274
218.589
218.857
219.086
219.281
219.451
219.602
219.741
219.873
220.001
220.125
220.245
220.357
220.462
220.562
220.657
220.749
220.835
220.913
220.983
221.046
221.103
221.152
221.195
221.232
221.263
221.29
221.314
221.334
221.353
221.371
221.389
221.407
221.426
221.445
221.464
221.484
221.504
221.525
221.548
221.573
221.6
221.63
221.662
221.696
221.732
221.769
221.809
221.849
221.89
221.931
221.971
222.01
222.048
222.085
222.121
222.157
222.191
222.225
222.257
222.289
222.32
222.35
222.379
222.407
222.433
222.459
222.483
222.506
222.529
222.55
215.917
216.56
215.957
216.401
216.728
217.067
217.441
217.81
218.166
218.479
218.749
218.98
219.177
219.347
219.497
219.632
219.759
219.88
219.996
220.107
220.211
220.309
220.401
220.49
220.575
220.655
220.728
220.793
220.85
220.901
220.946
220.985
221.018
221.047
221.071
221.092
221.112
221.13
221.15
221.17
221.192
221.215
221.238
221.263
221.289
221.316
221.347
221.381
221.419
221.46
221.505
221.552
221.601
221.652
221.703
221.755
221.806
221.856
221.905
221.953
222
222.046
222.091
222.135
222.179
222.22
222.261
222.299
222.336
222.371
222.405
222.437
222.467
222.496
222.523
222.549
222.574
222.598
222.62
216.741
216.902
216.162
216.499
216.736
217.055
217.399
217.737
218.073
218.377
218.645
218.876
219.074
219.244
219.393
219.526
219.649
219.764
219.873
219.976
220.072
220.163
220.248
220.329
220.407
220.482
220.55
220.611
220.663
220.708
220.748
220.784
220.815
220.842
220.867
220.889
220.91
220.931
220.954
220.979
221.005
221.033
221.063
221.095
221.13
221.17
221.215
221.265
221.319
221.377
221.437
221.5
221.563
221.625
221.687
221.748
221.808
221.867
221.926
221.984
222.04
222.094
222.147
222.197
222.244
222.29
222.332
222.373
222.411
222.448
222.482
222.515
222.546
222.575
222.603
222.629
222.654
222.677
222.699
217.328
217.176
216.409
216.652
216.792
217.087
217.384
217.687
217.997
218.285
218.546
218.774
218.971
219.141
219.29
219.423
219.543
219.652
219.754
219.85
219.94
220.023
220.102
220.176
220.248
220.316
220.379
220.436
220.484
220.525
220.561
220.594
220.623
220.651
220.677
220.702
220.728
220.754
220.782
220.812
220.844
220.878
220.917
220.961
221.012
221.069
221.132
221.201
221.272
221.345
221.419
221.493
221.567
221.641
221.715
221.788
221.859
221.927
221.994
222.057
222.117
222.175
222.229
222.28
222.328
222.373
222.416
222.456
222.494
222.53
222.564
222.596
222.626
222.654
222.681
222.707
222.731
222.753
222.775
217.755
217.39
216.672
216.869
216.881
217.126
217.378
217.655
217.939
218.207
218.455
218.676
218.87
219.04
219.189
219.321
219.439
219.545
219.641
219.731
219.814
219.891
219.964
220.032
220.097
220.158
220.216
220.269
220.313
220.352
220.385
220.415
220.444
220.474
220.503
220.533
220.565
220.597
220.63
220.667
220.707
220.753
220.807
220.869
220.94
221.017
221.098
221.182
221.267
221.354
221.442
221.53
221.619
221.705
221.788
221.867
221.943
222.014
222.082
222.146
222.206
222.263
222.316
222.365
222.412
222.456
222.497
222.536
222.573
222.608
222.64
222.671
222.7
222.728
222.754
222.778
222.801
222.823
222.844
218.084
217.572
216.914
217.087
216.996
217.179
217.385
217.637
217.895
218.143
218.375
218.585
218.773
218.941
219.089
219.221
219.338
219.441
219.533
219.617
219.695
219.767
219.834
219.896
219.955
220.01
220.062
220.11
220.152
220.188
220.219
220.249
220.279
220.311
220.345
220.381
220.418
220.456
220.498
220.544
220.599
220.664
220.739
220.823
220.913
221.007
221.104
221.204
221.306
221.409
221.511
221.611
221.706
221.796
221.881
221.961
222.036
222.106
222.172
222.234
222.292
222.346
222.397
222.445
222.49
222.532
222.571
222.608
222.643
222.676
222.707
222.737
222.764
222.791
222.815
222.838
222.86
222.881
222.901
218.341
217.728
217.135
217.284
217.128
217.25
217.401
217.626
217.861
218.09
218.306
218.503
218.682
218.845
218.992
219.123
219.238
219.339
219.428
219.509
219.582
219.649
219.711
219.769
219.822
219.871
219.917
219.959
219.999
220.033
220.065
220.096
220.129
220.164
220.203
220.243
220.287
220.334
220.388
220.452
220.528
220.617
220.714
220.818
220.926
221.039
221.155
221.272
221.388
221.499
221.606
221.707
221.802
221.891
221.975
222.052
222.125
222.193
222.256
222.316
222.371
222.423
222.471
222.516
222.559
222.599
222.636
222.671
222.704
222.735
222.764
222.792
222.818
222.842
222.865
222.887
222.907
222.927
222.945
218.538
217.869
217.332
217.455
217.271
217.336
217.426
217.62
217.832
218.045
218.246
218.429
218.598
218.753
218.897
219.026
219.141
219.241
219.328
219.405
219.475
219.538
219.596
219.649
219.698
219.742
219.781
219.819
219.855
219.889
219.922
219.956
219.993
220.032
220.075
220.121
220.173
220.234
220.308
220.396
220.498
220.609
220.728
220.853
220.983
221.114
221.243
221.368
221.487
221.6
221.706
221.805
221.897
221.984
222.064
222.139
222.208
222.273
222.333
222.39
222.442
222.491
222.537
222.58
222.62
222.657
222.692
222.725
222.756
222.785
222.813
222.839
222.863
222.886
222.907
222.928
222.947
222.965
222.982
218.687
217.994
217.51
217.599
217.414
217.428
217.461
217.62
217.809
218.006
218.193
218.364
218.522
218.668
218.806
218.933
219.046
219.144
219.23
219.305
219.372
219.433
219.487
219.537
219.581
219.621
219.656
219.689
219.722
219.756
219.792
219.829
219.87
219.913
219.961
220.016
220.083
220.165
220.265
220.379
220.505
220.64
220.783
220.928
221.073
221.213
221.347
221.472
221.591
221.701
221.803
221.899
221.988
222.071
222.147
222.218
222.285
222.346
222.403
222.456
222.506
222.552
222.595
222.635
222.673
222.708
222.741
222.772
222.801
222.828
222.853
222.877
222.9
222.922
222.942
222.961
222.979
222.996
223.012
218.801
218.114
217.679
217.702
217.555
217.514
217.504
217.625
217.79
217.972
218.147
218.306
218.453
218.59
218.721
218.843
218.953
219.05
219.135
219.209
219.274
219.333
219.385
219.43
219.471
219.507
219.539
219.57
219.601
219.635
219.673
219.714
219.759
219.808
219.864
219.934
220.023
220.132
220.258
220.398
220.55
220.709
220.87
221.027
221.178
221.319
221.452
221.576
221.691
221.798
221.896
221.988
222.072
222.151
222.223
222.291
222.353
222.411
222.464
222.514
222.56
222.604
222.644
222.682
222.717
222.75
222.781
222.809
222.837
222.862
222.886
222.909
222.93
222.951
222.97
222.988
223.005
223.021
223.036
218.888
218.236
217.851
217.766
217.67
217.582
217.55
217.638
217.775
217.942
218.105
218.254
218.391
218.519
218.641
218.757
218.864
218.959
219.043
219.115
219.18
219.237
219.287
219.33
219.368
219.401
219.431
219.46
219.491
219.526
219.567
219.612
219.661
219.718
219.789
219.881
219.998
220.134
220.287
220.455
220.63
220.805
220.974
221.134
221.284
221.424
221.554
221.674
221.785
221.888
221.982
222.069
222.149
222.223
222.291
222.354
222.412
222.466
222.516
222.563
222.606
222.647
222.684
222.72
222.752
222.783
222.812
222.84
222.865
222.889
222.912
222.934
222.954
222.973
222.991
223.008
223.025
223.04
223.054
218.955
218.352
218.01
217.818
217.753
217.636
217.598
217.657
217.766
217.915
218.066
218.207
218.336
218.455
218.569
218.677
218.779
218.872
218.954
219.025
219.089
219.145
219.194
219.235
219.27
219.302
219.331
219.36
219.392
219.429
219.472
219.521
219.577
219.648
219.742
219.863
220.008
220.173
220.354
220.543
220.731
220.912
221.083
221.242
221.389
221.525
221.65
221.766
221.872
221.969
222.058
222.14
222.216
222.285
222.349
222.408
222.462
222.513
222.56
222.603
222.644
222.682
222.717
222.75
222.781
222.81
222.838
222.863
222.888
222.911
222.932
222.953
222.972
222.991
223.008
223.025
223.04
223.055
223.069
219.003
218.447
218.143
217.877
217.824
217.685
217.646
217.68
217.763
217.892
218.031
218.164
218.285
218.397
218.502
218.604
218.699
218.788
218.868
218.939
219.001
219.056
219.104
219.145
219.178
219.209
219.238
219.269
219.304
219.343
219.389
219.443
219.511
219.604
219.727
219.878
220.054
220.248
220.449
220.649
220.842
221.023
221.191
221.346
221.489
221.62
221.74
221.849
221.95
222.042
222.126
222.203
222.273
222.338
222.398
222.454
222.505
222.552
222.596
222.637
222.675
222.711
222.744
222.775
222.804
222.832
222.858
222.882
222.905
222.927
222.948
222.968
222.986
223.004
223.02
223.036
223.051
223.065
223.079
219.038
218.521
218.249
217.947
217.89
217.736
217.692
217.704
217.764
217.872
217.998
218.124
218.239
218.344
218.442
218.536
218.625
218.709
218.786
218.855
218.917
218.971
219.018
219.058
219.091
219.122
219.152
219.186
219.224
219.267
219.317
219.381
219.469
219.591
219.745
219.929
220.135
220.349
220.561
220.765
220.956
221.134
221.297
221.447
221.584
221.709
221.822
221.926
222.02
222.106
222.185
222.257
222.324
222.385
222.441
222.493
222.541
222.585
222.626
222.665
222.701
222.734
222.766
222.796
222.823
222.85
222.874
222.898
222.92
222.94
222.96
222.979
222.996
223.013
223.029
223.044
223.058
223.071
223.084
219.069
218.589
218.339
218.013
217.949
217.784
217.736
217.728
217.769
217.857
217.968
218.086
218.197
218.296
218.388
218.474
218.557
218.636
218.709
218.776
218.836
218.889
218.935
218.974
219.009
219.04
219.073
219.111
219.152
219.199
219.258
219.339
219.455
219.609
219.798
220.013
220.24
220.465
220.681
220.883
221.07
221.242
221.399
221.542
221.672
221.79
221.897
221.995
222.083
222.164
222.238
222.306
222.368
222.425
222.477
222.526
222.571
222.613
222.652
222.688
222.722
222.754
222.784
222.812
222.839
222.864
222.887
222.91
222.931
222.95
222.969
222.987
223.004
223.02
223.035
223.049
223.063
223.076
223.088
219.099
218.652
218.418
218.075
218.002
217.83
217.774
217.749
217.778
217.846
217.941
218.051
218.156
218.252
218.338
218.418
218.494
218.568
218.637
218.701
218.758
218.809
218.854
218.894
218.93
218.964
219.001
219.042
219.088
219.141
219.215
219.321
219.47
219.66
219.883
220.121
220.36
220.588
220.802
221
221.181
221.346
221.496
221.631
221.754
221.865
221.965
222.056
222.139
222.215
222.284
222.347
222.405
222.459
222.508
222.554
222.597
222.636
222.673
222.708
222.74
222.771
222.799
222.826
222.851
222.875
222.898
222.919
222.939
222.958
222.976
222.993
223.009
223.024
223.039
223.053
223.066
223.079
223.09
219.127
218.711
218.486
218.134
218.048
217.87
217.808
217.77
217.787
217.839
217.918
218.017
218.118
218.21
218.292
218.367
218.437
218.505
218.57
218.63
218.685
218.734
218.777
218.817
218.856
218.892
218.934
218.979
219.03
219.096
219.192
219.331
219.517
219.744
219.992
220.244
220.486
220.713
220.922
221.113
221.287
221.444
221.585
221.713
221.828
221.931
222.025
222.111
222.188
222.259
222.324
222.383
222.438
222.488
222.535
222.578
222.618
222.656
222.691
222.724
222.755
222.784
222.811
222.837
222.861
222.883
222.905
222.925
222.945
222.963
222.98
222.997
223.012
223.027
223.041
223.055
223.068
223.08
223.092
219.153
218.765
218.546
218.189
218.088
217.906
217.839
217.789
217.797
217.834
217.899
217.987
218.082
218.171
218.25
218.32
218.385
218.447
218.507
218.563
218.615
218.662
218.704
218.745
218.786
218.825
218.871
218.921
218.981
219.065
219.191
219.369
219.595
219.851
220.116
220.374
220.615
220.836
221.038
221.221
221.386
221.534
221.667
221.786
221.894
221.991
222.079
222.158
222.231
222.297
222.357
222.413
222.465
222.512
222.557
222.598
222.636
222.672
222.705
222.736
222.766
222.793
222.819
222.844
222.867
222.889
222.91
222.929
222.948
222.966
222.983
222.999
223.014
223.028
223.042
223.055
223.067
223.079
223.09
219.172
218.81
218.596
218.24
218.123
217.938
217.869
217.808
217.806
217.832
217.882
217.959
218.048
218.134
218.21
218.276
218.337
218.395
218.45
218.501
218.549
218.594
218.636
218.677
218.72
218.763
218.813
218.869
218.943
219.053
219.216
219.436
219.698
219.975
220.248
220.505
220.741
220.956
221.149
221.323
221.478
221.617
221.742
221.853
221.953
222.044
222.126
222.2
222.268
222.33
222.387
222.439
222.488
222.533
222.575
222.614
222.65
222.684
222.716
222.746
222.774
222.8
222.825
222.849
222.871
222.892
222.912
222.931
222.949
222.966
222.982
222.998
223.012
223.026
223.04
223.052
223.064
223.075
223.086
219.178
218.843
218.636
218.285
218.155
217.968
217.898
217.826
217.813
217.831
217.869
217.934
218.015
218.098
218.172
218.236
218.293
218.346
218.396
218.444
218.488
218.53
218.572
218.614
218.659
218.705
218.758
218.824
218.918
219.063
219.269
219.53
219.818
220.107
220.382
220.635
220.865
221.07
221.254
221.418
221.564
221.694
221.81
221.914
222.007
222.091
222.167
222.237
222.3
222.359
222.413
222.462
222.508
222.551
222.591
222.628
222.662
222.694
222.725
222.753
222.78
222.805
222.829
222.852
222.873
222.894
222.913
222.931
222.948
222.965
222.98
222.995
223.009
223.023
223.035
223.048
223.059
223.07
223.08
219.174
218.866
218.665
218.325
218.185
217.998
217.927
217.843
217.82
217.83
217.858
217.911
217.985
218.063
218.136
218.198
218.252
218.301
218.347
218.39
218.431
218.471
218.512
218.556
218.602
218.651
218.71
218.79
218.911
219.097
219.348
219.642
219.948
220.243
220.515
220.762
220.982
221.178
221.352
221.506
221.643
221.764
221.872
221.968
222.055
222.134
222.205
222.27
222.33
222.385
222.435
222.482
222.526
222.566
222.604
222.639
222.672
222.703
222.732
222.759
222.785
222.809
222.832
222.854
222.874
222.894
222.912
222.93
222.947
222.962
222.977
222.992
223.005
223.018
223.031
223.042
223.053
223.064
223.074
219.163
218.879
218.684
218.359
218.214
218.029
217.954
217.861
217.828
217.83
217.849
217.892
217.956
218.031
218.101
218.162
218.214
218.26
218.302
218.341
218.379
218.417
218.457
218.502
218.55
218.602
218.669
218.768
218.925
219.157
219.449
219.767
220.083
220.377
220.644
220.882
221.093
221.279
221.443
221.587
221.714
221.827
221.928
222.018
222.099
222.172
222.239
222.3
222.356
222.408
222.455
222.5
222.541
222.579
222.615
222.648
222.68
222.709
222.737
222.763
222.788
222.812
222.834
222.855
222.875
222.894
222.911
222.928
222.945
222.96
222.974
222.988
223.002
223.014
223.026
223.037
223.048
223.058
223.068
219.144
218.879
218.695
218.388
218.244
218.061
217.981
217.879
217.836
217.829
217.841
217.874
217.93
217.999
218.067
218.127
218.178
218.221
218.26
218.295
218.33
218.366
218.407
218.451
218.501
218.557
218.637
218.763
218.963
219.24
219.565
219.899
220.218
220.508
220.767
220.996
221.196
221.372
221.525
221.66
221.778
221.883
221.977
222.061
222.137
222.206
222.269
222.326
222.379
222.428
222.473
222.515
222.554
222.59
222.624
222.657
222.687
222.715
222.742
222.767
222.791
222.814
222.835
222.856
222.875
222.893
222.91
222.927
222.942
222.957
222.971
222.985
222.998
223.01
223.021
223.032
223.043
223.053
223.062
219.119
218.875
218.701
218.413
218.272
218.092
218.007
217.898
217.844
217.828
217.834
217.859
217.907
217.97
218.035
218.094
218.144
218.185
218.22
218.253
218.285
218.32
218.36
218.405
218.457
218.519
218.616
218.778
219.025
219.343
219.692
220.034
220.35
220.634
220.883
221.101
221.291
221.455
221.598
221.724
221.835
221.933
222.02
222.099
222.17
222.235
222.294
222.348
222.398
222.445
222.488
222.528
222.565
222.6
222.633
222.664
222.693
222.72
222.746
222.77
222.793
222.815
222.836
222.856
222.874
222.892
222.909
222.925
222.94
222.955
222.968
222.982
222.994
223.006
223.017
223.028
223.038
223.048
223.057
219.09
218.867
218.703
218.433
218.296
218.124
218.031
217.917
217.851
217.827
217.828
217.846
217.885
217.942
218.004
218.062
218.111
218.151
218.184
218.213
218.243
218.277
218.317
218.363
218.416
218.488
218.61
218.814
219.108
219.46
219.824
220.167
220.478
220.752
220.991
221.197
221.375
221.529
221.663
221.781
221.884
221.976
222.058
222.132
222.199
222.26
222.316
222.368
222.415
222.459
222.501
222.539
222.575
222.608
222.64
222.67
222.698
222.724
222.749
222.773
222.795
222.817
222.837
222.856
222.874
222.891
222.907
222.923
222.938
222.952
222.965
222.978
222.99
223.002
223.013
223.023
223.033
223.043
223.052
219.058
218.856
218.703
218.45
218.315
218.155
218.053
217.936
217.86
217.827
217.822
217.834
217.866
217.916
217.975
218.031
218.08
218.118
218.15
218.177
218.205
218.238
218.277
218.323
218.381
218.466
218.621
218.872
219.208
219.585
219.956
220.297
220.599
220.862
221.089
221.284
221.451
221.595
221.721
221.83
221.927
222.014
222.091
222.161
222.225
222.283
222.336
222.386
222.431
222.474
222.513
222.55
222.584
222.617
222.647
222.676
222.703
222.729
222.753
222.776
222.798
222.818
222.838
222.856
222.874
222.891
222.907
222.922
222.936
222.95
222.963
222.975
222.987
222.998
223.009
223.019
223.029
223.038
223.047
219.025
218.843
218.701
218.465
218.329
218.184
218.074
217.954
217.868
217.827
217.815
217.823
217.849
217.893
217.947
218.001
218.049
218.087
218.118
218.143
218.17
218.202
218.24
218.287
218.35
218.455
218.649
218.948
219.321
219.714
220.086
220.42
220.712
220.963
221.177
221.361
221.518
221.653
221.771
221.875
221.966
222.048
222.122
222.189
222.249
222.305
222.356
222.403
222.447
222.488
222.526
222.562
222.595
222.627
222.656
222.684
222.71
222.735
222.759
222.781
222.802
222.822
222.841
222.859
222.876
222.892
222.907
222.922
222.936
222.949
222.962
222.974
222.985
222.996
223.006
223.016
223.025
223.034
223.043
218.992
218.827
218.697
218.477
218.341
218.21
218.094
217.973
217.877
217.827
217.809
217.813
217.833
217.871
217.92
217.972
218.019
218.057
218.087
218.112
218.138
218.169
218.207
218.255
218.325
218.458
218.696
219.04
219.44
219.842
220.21
220.535
220.814
221.053
221.256
221.429
221.577
221.705
221.817
221.915
222.003
222.081
222.151
222.215
222.274
222.327
222.376
222.422
222.465
222.504
222.541
222.576
222.608
222.639
222.667
222.694
222.72
222.744
222.767
222.788
222.808
222.828
222.846
222.863
222.88
222.895
222.91
222.924
222.938
222.95
222.963
222.974
222.985
222.996
223.006
223.015
223.024
223.033
223.041
218.959
218.81
218.691
218.486
218.35
218.231
218.113
217.992
217.887
217.828
217.804
217.803
217.818
217.85
217.895
217.944
217.99
218.027
218.057
218.083
218.109
218.139
218.177
218.228
218.309
218.474
218.76
219.143
219.562
219.965
220.326
220.64
220.907
221.134
221.327
221.49
221.631
221.753
221.86
221.954
222.038
222.113
222.181
222.243
222.299
222.351
222.399
222.444
222.485
222.523
222.559
222.593
222.624
222.654
222.681
222.707
222.732
222.755
222.777
222.798
222.817
222.836
222.854
222.87
222.886
222.901
222.915
222.929
222.942
222.954
222.966
222.977
222.987
222.997
223.007
223.016
223.025
223.033
223.041
218.925
218.791
218.682
218.491
218.356
218.248
218.129
218.009
217.896
217.83
217.798
217.794
217.804
217.832
217.872
217.918
217.961
217.999
218.029
218.055
218.081
218.112
218.151
218.205
218.303
218.506
218.838
219.252
219.682
220.082
220.434
220.736
220.991
221.208
221.391
221.547
221.682
221.799
221.902
221.993
222.074
222.147
222.213
222.273
222.328
222.378
222.425
222.468
222.508
222.545
222.58
222.612
222.643
222.671
222.698
222.723
222.747
222.769
222.79
222.81
222.828
222.846
222.863
222.879
222.894
222.908
222.922
222.935
222.947
222.959
222.97
222.981
222.991
223
223.009
223.018
223.026
223.034
223.042
218.892
218.77
218.67
218.491
218.361
218.26
218.143
218.025
217.906
217.832
217.793
217.784
217.791
217.814
217.85
217.893
217.934
217.971
218.001
218.028
218.055
218.087
218.127
218.187
218.308
218.553
218.927
219.364
219.797
220.19
220.532
220.823
221.069
221.276
221.452
221.602
221.732
221.845
221.945
222.033
222.112
222.184
222.248
222.306
222.36
222.409
222.454
222.495
222.534
222.57
222.603
222.634
222.663
222.691
222.716
222.74
222.763
222.784
222.804
222.823
222.841
222.858
222.874
222.889
222.903
222.917
222.93
222.942
222.953
222.964
222.975
222.985
222.994
223.004
223.012
223.02
223.028
223.036
223.043
218.859
218.749
218.657
218.489
218.363
218.27
218.153
218.039
217.916
217.835
217.789
217.774
217.779
217.798
217.83
217.869
217.909
217.944
217.975
218.002
218.03
218.063
218.106
218.175
218.324
218.613
219.022
219.474
219.907
220.292
220.624
220.905
221.141
221.341
221.511
221.657
221.783
221.894
221.991
222.077
222.154
222.223
222.286
222.342
222.394
222.441
222.485
222.525
222.562
222.596
222.628
222.657
222.685
222.711
222.735
222.758
222.779
222.8
222.819
222.836
222.853
222.869
222.884
222.898
222.912
222.925
222.937
222.948
222.959
222.97
222.98
222.989
222.998
223.007
223.015
223.023
223.03
223.037
223.044
218.827
218.727
218.641
218.484
218.363
218.275
218.162
218.051
217.925
217.837
217.785
217.765
217.767
217.783
217.811
217.848
217.885
217.919
217.949
217.977
218.006
218.041
218.088
218.169
218.351
218.683
219.121
219.582
220.011
220.388
220.711
220.983
221.213
221.407
221.573
221.715
221.838
221.945
222.04
222.124
222.199
222.266
222.326
222.38
222.43
222.475
222.517
222.555
222.59
222.623
222.653
222.681
222.707
222.732
222.755
222.776
222.796
222.815
222.833
222.85
222.866
222.881
222.895
222.908
222.921
222.933
222.945
222.955
222.966
222.976
222.985
222.994
223.002
223.01
223.017
223.024
223.031
223.038
223.044
218.795
218.704
218.624
218.476
218.362
218.278
218.168
218.059
217.933
217.84
217.782
217.757
217.756
217.768
217.794
217.827
217.863
217.895
217.924
217.953
217.983
218.02
218.071
218.169
218.388
218.76
219.22
219.686
220.111
220.48
220.796
221.062
221.286
221.476
221.638
221.776
221.896
222.001
222.092
222.173
222.245
222.31
222.367
222.42
222.467
222.51
222.55
222.586
222.619
222.65
222.678
222.705
222.73
222.753
222.774
222.794
222.813
222.831
222.847
222.863
222.878
222.892
222.905
222.918
222.93
222.941
222.952
222.962
222.971
222.98
222.989
222.997
223.005
223.012
223.019
223.026
223.033
223.039
223.045
218.764
218.681
218.605
218.466
218.358
218.279
218.172
218.066
217.94
217.841
217.779
217.75
217.745
217.755
217.777
217.808
217.841
217.873
217.901
217.93
217.961
218
218.057
218.174
218.432
218.841
219.319
219.787
220.208
220.573
220.882
221.143
221.363
221.548
221.706
221.841
221.958
222.059
222.147
222.225
222.293
222.355
222.41
222.459
222.504
222.545
222.582
222.616
222.648
222.677
222.704
222.728
222.751
222.772
222.792
222.811
222.829
222.846
222.862
222.877
222.89
222.903
222.916
222.927
222.938
222.949
222.959
222.968
222.977
222.986
222.994
223.002
223.009
223.016
223.022
223.029
223.035
223.04
223.046
218.732
218.657
218.585
218.454
218.354
218.278
218.175
218.071
217.945
217.842
217.777
217.742
217.734
217.742
217.761
217.79
217.822
217.852
217.88
217.908
217.94
217.981
218.044
218.185
218.482
218.923
219.415
219.887
220.306
220.667
220.972
221.229
221.444
221.625
221.779
221.909
222.021
222.118
222.202
222.276
222.342
222.4