/*--------------------------------*- C++ -*----------------------------------*\
| =========                 |                                                 |
| \\      /  F ield         | OpenFOAM: The Open Source CFD Toolbox           |
|  \\    /   O peration     | Version:  2406                                  |
|   \\  /    A nd           | Website:  www.openfoam.com                      |
|    \\/     M anipulation  |                                                 |
\*---------------------------------------------------------------------------*/
FoamFile
{
    version     2.0;
    format      ascii;
    arch        "LSB;label=32;scalar=64";
    class       volScalarField;
    location    "0.004";
    object      T;
}
// * * * * * * * * * * * * * * * * * * * * * * * * * * * * * * * * * * * * * //

dimensions      [0 0 0 1 0 0 0];

internalField   nonuniform List<scalar> 
78650
(
223
223
223
223
223
223
223
223
223
223
223
223
223
223
223
223
223
223
223
223
223
223
223
223
223
223
223
223
223
223
223
223
223
223.005
223.132
224.022
225.997
227.659
228.239
228.346
228.273
228.121
227.944
227.807
227.685
227.576
227.473
227.376
227.285
227.194
227.101
227.007
226.914
226.82
226.727
226.634
226.543
226.451
226.354
226.248
226.133
226.012
225.885
225.75
225.602
225.44
225.257
225.052
224.827
224.589
224.338
224.069
223.774
223.448
223.091
222.705
222.292
221.848
221.372
220.861
220.313
219.727
219.102
218.443
217.747
217.022
216.266
215.486
214.683
213.863
213.03
212.189
211.345
210.503
209.672
208.853
208.056
207.278
206.529
205.805
205.12
204.465
203.851
203.26
202.714
202.195
201.709
201.25
200.819
200.415
200.038
199.684
199.358
199.067
198.827
198.59
198.412
198.25
198.127
198.063
197.752
223
223
223
223
223
223
223
223
223
223
223
223
223
223
223
223
223
223
223
223
223
223
223
223
223
223
223
223
223
223
223
223
223
223.002
223.073
223.722
225.553
227.44
228.245
228.436
228.383
228.243
228.072
227.939
227.823
227.72
227.621
227.53
227.445
227.359
227.271
227.183
227.097
227.013
226.93
226.848
226.768
226.688
226.603
226.51
226.41
226.304
226.193
226.075
225.947
225.805
225.646
225.467
225.268
225.056
224.835
224.598
224.338
224.049
223.73
223.382
223.007
222.603
222.168
221.699
221.192
220.646
220.06
219.437
218.774
218.08
217.347
216.589
215.8
214.989
214.157
213.31
212.453
211.589
210.726
209.865
209.016
208.179
207.363
206.567
205.802
205.065
204.362
203.687
203.048
202.444
201.867
201.337
200.829
200.361
199.911
199.476
199.062
198.671
198.315
197.98
197.715
197.499
197.341
197.236
196.873
223
223
223
223
223
223
223
223
223
223
223
223
223
223
223
223
223
223
223
223
223
223
223
223
223
223
223
223
223
223
223
223
223
223.001
223.038
223.482
225.098
227.153
228.222
228.516
228.478
228.365
228.203
228.071
227.96
227.864
227.772
227.687
227.606
227.524
227.441
227.359
227.281
227.207
227.134
227.063
226.994
226.926
226.853
226.773
226.686
226.595
226.5
226.399
226.289
226.167
226.03
225.875
225.702
225.516
225.322
225.116
224.889
224.635
224.352
224.04
223.703
223.34
222.947
222.521
222.058
221.557
221.015
220.435
219.816
219.161
218.466
217.742
216.981
216.195
215.379
214.541
213.683
212.81
211.927
211.038
210.149
209.265
208.394
207.537
206.701
205.887
205.101
204.349
203.62
202.937
202.275
201.662
201.072
200.511
199.992
199.496
199.03
198.588
198.184
197.798
197.476
197.206
196.994
196.841
196.389
223
223
223
223
223
223
223
223
223
223
223
223
223
223
223
223
223
223
223
223
223
223
223
223
223
223
223
223
223
223
223
223
223
223
223.017
223.295
224.63
226.777
228.149
228.574
228.566
228.491
228.341
228.207
228.101
228.013
227.927
227.846
227.768
227.689
227.61
227.536
227.467
227.403
227.34
227.279
227.221
227.163
227.102
227.035
226.961
226.884
226.805
226.72
226.628
226.526
226.411
226.281
226.134
225.974
225.808
225.633
225.441
225.224
224.978
224.706
224.409
224.087
223.738
223.357
222.941
222.487
221.993
221.459
220.885
220.272
219.619
218.932
218.205
217.449
216.656
215.839
214.993
214.127
213.243
212.344
211.439
210.528
209.622
208.719
207.831
206.954
206.102
205.277
204.478
203.706
202.97
202.249
201.59
200.936
200.332
199.751
199.197
198.689
198.221
197.782
197.41
197.086
196.817
196.601
196.037
223
223
223
223
223
223
223
223
223
223
223
223
223
223
223
223
223
223
223
223
223
223
223
223
223
223
223
223
223
223
223
223
223
223
223.007
223.165
224.19
226.323
227.998
228.609
228.661
228.613
228.479
228.344
228.248
228.168
228.086
228.005
227.929
227.854
227.781
227.715
227.656
227.601
227.548
227.497
227.449
227.402
227.352
227.297
227.236
227.172
227.108
227.04
226.965
226.882
226.788
226.681
226.559
226.425
226.285
226.139
225.979
225.797
225.587
225.352
225.093
224.812
224.505
224.17
223.801
223.396
222.952
222.469
221.946
221.384
220.782
220.144
219.465
218.753
218
217.219
216.401
215.558
214.687
213.795
212.886
211.964
211.035
210.102
209.173
208.252
207.349
206.453
205.589
204.734
203.94
203.147
202.403
201.665
200.963
200.305
199.671
199.083
198.521
198.007
197.566
197.173
196.852
196.602
195.958
223
223
223
223
223
223
223
223
223
223
223
223
223
223
223
223
223
223
223
223
223
223
223
223
223
223
223
223
223
223
223
223
223
223
223.003
223.082
223.799
225.783
227.753
228.623
228.746
228.731
228.623
228.492
228.401
228.325
228.243
228.164
228.091
228.022
227.957
227.899
227.849
227.803
227.759
227.718
227.679
227.641
227.602
227.559
227.51
227.46
227.41
227.358
227.301
227.236
227.162
227.079
226.983
226.875
226.762
226.644
226.517
226.37
226.198
226.001
225.782
225.542
225.28
224.991
224.671
224.316
223.925
223.494
223.025
222.516
221.967
221.379
220.75
220.085
219.378
218.638
217.857
217.047
216.203
215.334
214.439
213.525
212.594
211.651
210.704
209.755
208.811
207.872
206.954
206.056
205.182
204.325
203.486
202.698
201.917
201.18
200.473
199.79
199.165
198.559
198.035
197.564
197.167
196.842
196.073
223
223
223
223
223
223
223
223
223
223
223
223
223
223
223
223
223
223
223
223
223
223
223
223
223
223
223
223
223
223
223
223
223
223
223.001
223.036
223.487
225.197
227.405
228.583
228.821
228.848
228.773
228.647
228.557
228.48
228.399
228.321
228.254
228.192
228.136
228.087
228.045
228.008
227.974
227.941
227.911
227.883
227.854
227.822
227.785
227.748
227.711
227.675
227.634
227.587
227.533
227.472
227.4
227.318
227.229
227.139
227.041
226.927
226.79
226.629
226.447
226.246
226.026
225.782
225.51
225.206
224.867
224.491
224.077
223.625
223.135
222.606
222.037
221.43
220.782
220.096
219.368
218.606
217.803
216.971
216.103
215.21
214.289
213.349
212.396
211.434
210.468
209.499
208.532
207.583
206.638
205.728
204.83
203.972
203.118
202.289
201.514
200.765
200.091
199.376
198.775
198.233
197.778
197.403
196.532
223
223
223
223
223
223
223
223
223
223
223
223
223
223
223
223
223
223
223
223
223
223
223
223
223
223
223
223
223
223
223
223
223
223
223
223.014
223.264
224.607
226.917
228.473
228.895
228.962
228.916
228.801
228.709
228.633
228.554
228.482
228.422
228.369
228.321
228.279
228.246
228.217
228.191
228.167
228.145
228.125
228.105
228.083
228.058
228.033
228.011
227.989
227.965
227.936
227.901
227.861
227.813
227.757
227.694
227.629
227.561
227.48
227.379
227.255
227.111
226.95
226.772
226.573
226.35
226.097
225.811
225.49
225.133
224.74
224.308
223.839
223.33
222.783
222.194
221.565
220.893
220.185
219.432
218.646
217.82
216.963
216.073
215.157
214.219
213.261
212.289
211.305
210.323
209.337
208.361
207.387
206.443
205.507
204.612
203.723
202.875
202.041
201.26
200.471
199.776
199.152
198.616
198.17
197.161
223
223
223
223
223
223
223
223
223
223
223
223
223
223
223
223
223
223
223
223
223
223
223
223
223
223
223
223
223
223
223
223
223
223
223
223.005
223.126
224.071
226.312
228.249
228.93
229.064
229.052
228.961
228.864
228.786
228.711
228.646
228.595
228.55
228.509
228.475
228.449
228.428
228.41
228.394
228.379
228.366
228.355
228.343
228.329
228.316
228.307
228.301
228.293
228.281
228.265
228.245
228.22
228.187
228.149
228.108
228.067
228.016
227.947
227.858
227.749
227.625
227.486
227.331
227.153
226.949
226.715
226.449
226.149
225.814
225.445
225.039
224.596
224.115
223.593
223.033
222.429
221.786
221.097
220.37
219.598
218.792
217.945
217.066
216.153
215.213
214.249
213.269
212.277
211.275
210.267
209.258
208.269
207.281
206.323
205.365
204.439
203.534
202.658
201.834
201.061
200.36
199.749
199.232
198.104
223
223
223
223
223
223
223
223
223
223
223
223
223
223
223
223
223
223
223
223
223
223
223
223
223
223
223
223
223
223
223
223
223
223
223
223.001
223.052
223.638
225.618
227.888
228.921
229.171
229.19
229.114
229.012
228.937
228.872
228.818
228.773
228.734
228.7
228.673
228.654
228.641
228.629
228.619
228.61
228.605
228.602
228.599
228.598
228.598
228.602
228.61
228.618
228.622
228.624
228.624
228.621
228.611
228.597
228.581
228.564
228.543
228.507
228.452
228.379
228.291
228.192
228.078
227.946
227.791
227.609
227.397
227.154
226.878
226.57
226.227
225.848
225.433
224.979
224.485
223.95
223.374
222.752
222.091
221.384
220.638
219.847
219.019
218.151
217.251
216.319
215.361
214.379
213.38
212.37
211.353
210.328
209.307
208.288
207.286
206.294
205.331
204.386
203.567
202.604
201.824
201.123
200.53
199.25
223
223
223
223
223
223
223
223
223
223
223
223
223
223
223
223
223
223
223
223
223
223
223
223
223
223
223
223
223
223
223
223
223
223
223
223
223.018
223.334
224.903
227.37
228.837
229.262
229.312
229.252
229.158
229.094
229.042
228.995
228.954
228.918
228.89
228.87
228.859
228.852
228.846
228.84
228.838
228.839
228.845
228.854
228.864
228.877
228.895
228.917
228.939
228.96
228.978
228.995
229.012
229.025
229.033
229.04
229.046
229.05
229.043
229.021
228.982
228.928
228.864
228.789
228.699
228.59
228.457
228.297
228.108
227.891
227.643
227.363
227.05
226.704
226.322
225.902
225.442
224.942
224.398
223.813
223.18
222.505
221.782
221.018
220.209
219.362
218.475
217.554
216.6
215.621
214.618
213.596
212.56
211.514
210.468
209.424
208.389
207.365
206.361
205.389
204.445
203.611
202.805
202.121
200.712
223
223
223
223
223
223
223
223
223
223
223
223
223
223
223
223
223
223
223
223
223
223
223
223
223
223
223
223
223
223
223
223
223
223
223
223
223.005
223.151
224.249
226.7
228.635
229.323
229.411
229.387
229.318
229.264
229.213
229.165
229.128
229.1
229.08
229.067
229.061
229.058
229.056
229.055
229.06
229.07
229.086
229.106
229.129
229.154
229.184
229.219
229.256
229.291
229.324
229.359
229.395
229.429
229.458
229.486
229.515
229.544
229.564
229.572
229.567
229.546
229.518
229.48
229.431
229.366
229.282
229.172
229.038
228.877
228.687
228.469
228.221
227.942
227.628
227.28
226.894
226.469
226.002
225.493
224.938
224.339
223.693
223.004
222.266
221.487
220.661
219.796
218.89
217.951
216.979
215.981
214.96
213.922
212.869
211.806
210.742
209.674
208.624
207.575
206.594
205.626
204.763
204.012
202.474
223
223
223
223
223
223
223
223
223
223
223
223
223
223
223
223
223
223
223
223
223
223
223
223
223
223
223
223
223
223
223
223
223
223
223
223
223.001
223.059
223.729
225.923
228.278
229.323
229.497
229.533
229.483
229.426
229.371
229.327
229.299
229.282
229.27
229.262
229.258
229.257
229.259
229.266
229.279
229.299
229.325
229.356
229.39
229.427
229.468
229.514
229.564
229.613
229.662
229.712
229.765
229.819
229.869
229.917
229.966
230.017
230.063
230.097
230.12
230.132
230.136
230.132
230.119
230.096
230.056
229.994
229.911
229.802
229.67
229.512
229.327
229.114
228.871
228.596
228.287
227.941
227.555
227.13
226.66
226.147
225.586
224.98
224.324
223.622
222.871
222.077
221.236
220.355
219.431
218.475
217.482
216.463
215.417
214.352
213.27
212.18
211.09
210.013
208.959
207.963
206.994
206.166
204.518
223
223
223
223
223
223
223
223
223
223
223
223
223
223
223
223
223
223
223
223
223
223
223
223
223
223
223
223
223
223
223
223
223
223
223
223
223
223.019
223.373
225.124
227.75
229.245
229.583
229.68
229.636
229.573
229.523
229.493
229.478
229.466
229.455
229.446
229.443
229.448
229.458
229.475
229.498
229.527
229.562
229.603
229.647
229.694
229.745
229.802
229.863
229.927
229.989
230.054
230.124
230.195
230.264
230.33
230.398
230.469
230.539
230.6
230.651
230.692
230.726
230.755
230.778
230.792
230.795
230.779
230.745
230.689
230.61
230.509
230.383
230.234
230.057
229.851
229.615
229.345
229.039
228.694
228.308
227.881
227.407
226.888
226.32
225.705
225.039
224.327
223.565
222.758
221.903
221.008
220.069
219.098
218.089
217.053
215.989
214.904
213.803
212.7
211.609
210.585
209.535
208.633
206.888
223
223
223
223
223
223
223
223
223
223
223
223
223
223
223
223
223
223
223
223
223
223
223
223
223
223
223
223
223
223
223
223
223
223
223
223
223
223.006
223.167
224.402
227.064
229.05
229.653
229.802
229.764
229.712
229.677
229.663
229.653
229.641
229.627
229.618
229.623
229.636
229.657
229.683
229.715
229.752
229.794
229.841
229.894
229.951
230.012
230.079
230.152
230.228
230.305
230.384
230.467
230.555
230.641
230.724
230.808
230.897
230.988
231.074
231.149
231.217
231.278
231.337
231.392
231.441
231.48
231.506
231.517
231.51
231.481
231.435
231.366
231.277
231.165
231.027
230.863
230.669
230.443
230.181
229.882
229.543
229.161
228.734
228.261
227.741
227.169
226.55
225.879
225.159
224.389
223.572
222.705
221.798
220.844
219.855
218.824
217.765
216.677
215.577
214.471
213.377
212.305
211.352
209.562
223
223
223
223
223
223
223
223
223
223
223
223
223
223
223
223
223
223
223
223
223
223
223
223
223
223
223
223
223
223
223
223
223
223
223
223
223
223.001
223.065
223.834
226.274
228.719
229.682
229.896
229.883
229.86
229.84
229.831
229.818
229.8
229.787
229.787
229.802
229.827
229.857
229.89
229.927
229.967
230.014
230.068
230.13
230.197
230.269
230.346
230.43
230.518
230.607
230.697
230.793
230.895
230.997
231.096
231.194
231.299
231.409
231.517
231.618
231.71
231.797
231.882
231.967
232.049
232.125
232.19
232.241
232.277
232.297
232.302
232.287
232.254
232.202
232.128
232.031
231.907
231.756
231.572
231.355
231.101
230.807
230.472
230.093
229.667
229.192
228.67
228.096
227.471
226.794
226.067
225.289
224.463
223.588
222.671
221.704
220.704
219.659
218.595
217.507
216.428
215.344
214.317
212.537
223
223
223
223
223
223
223
223
223
223
223
223
223
223
223
223
223
223
223
223
223
223
223
223
223
223
223
223
223
223
223
223
223
223
223
223
223
223
223.023
223.448
225.469
228.248
229.643
229.972
230.008
230.012
229.996
229.983
229.963
229.946
229.942
229.956
229.983
230.016
230.05
230.085
230.123
230.167
230.22
230.282
230.354
230.432
230.514
230.601
230.694
230.792
230.891
230.993
231.099
231.213
231.329
231.442
231.554
231.673
231.8
231.928
232.051
232.166
232.276
232.386
232.497
232.608
232.716
232.816
232.905
232.982
233.045
233.093
233.128
233.147
233.153
233.138
233.105
233.049
232.97
232.863
232.726
232.557
232.352
232.109
231.825
231.498
231.125
230.706
230.235
229.715
229.143
228.52
227.843
227.114
226.333
225.501
224.617
223.69
222.709
221.703
220.65
219.613
218.517
217.471
215.729
223
223
223
223
223
223
223
223
223
223
223
223
223
223
223
223
223
223
223
223
223
223
223
223
223
223
223
223
223
223
223
223
223
223
223
223
223
223
223.007
223.219
224.741
227.657
229.528
230.026
230.136
230.156
230.137
230.115
230.095
230.089
230.1
230.126
230.161
230.196
230.23
230.264
230.305
230.354
230.415
230.488
230.569
230.657
230.748
230.842
230.942
231.047
231.155
231.266
231.381
231.506
231.635
231.762
231.887
232.018
232.16
232.307
232.451
232.588
232.719
232.851
232.986
233.123
233.259
233.391
233.515
233.628
233.731
233.822
233.901
233.968
234.022
234.061
234.085
234.094
234.079
234.042
233.981
233.89
233.767
233.611
233.417
233.184
232.908
232.588
232.22
231.804
231.336
230.818
230.246
229.621
228.944
228.211
227.428
226.59
225.702
224.772
223.798
222.818
221.784
220.732
219.155
223
223
223
223
223
223
223
223
223
223
223
223
223
223
223
223
223
223
223
223
223
223
223
223
223
223
223
223
223
223
223
223
223
223
223
223
223
223
223.002
223.1
224.156
226.991
229.319
230.064
230.257
230.284
230.255
230.231
230.223
230.233
230.258
230.292
230.327
230.359
230.39
230.426
230.472
230.53
230.601
230.684
230.774
230.869
230.966
231.065
231.169
231.28
231.396
231.514
231.639
231.773
231.914
232.054
232.192
232.336
232.491
232.655
232.817
232.973
233.124
233.275
233.43
233.59
233.752
233.911
234.065
234.211
234.348
234.476
234.595
234.705
234.804
234.893
234.97
235.032
235.079
235.107
235.117
235.101
235.058
234.987
234.881
234.741
234.563
234.344
234.08
233.772
233.414
233.008
232.549
232.038
231.472
230.852
230.179
229.448
228.669
227.834
226.959
226.042
225.084
224.032
222.573
223
223
223
223
223
223
223
223
223
223
223
223
223
223
223
223
223
223
223
223
223
223
223
223
223
223
223
223
223
223
223
223
223
223
223
223
223
223
223.001
223.044
223.735
226.317
229.031
230.088
230.367
230.389
230.357
230.344
230.352
230.377
230.41
230.443
230.474
230.503
230.535
230.576
230.631
230.7
230.781
230.871
230.968
231.067
231.166
231.268
231.375
231.491
231.613
231.74
231.873
232.017
232.169
232.322
232.473
232.628
232.795
232.973
233.152
233.325
233.493
233.661
233.834
234.013
234.196
234.379
234.56
234.735
234.903
235.063
235.217
235.364
235.504
235.636
235.759
235.872
235.972
236.058
236.128
236.178
236.206
236.214
236.187
236.134
236.045
235.918
235.753
235.546
235.293
234.994
234.643
234.243
233.788
233.28
232.715
232.094
231.421
230.692
229.925
229.116
228.274
227.33
226.034
223
223
223
223
223
223
223
223
223
223
223
223
223
223
223
223
223
223
223
223
223
223
223
223
223
223
223
223
223
223
223
223
223
223
223
223
223
223
223
223.02
223.46
225.703
228.695
230.092
230.458
230.474
230.452
230.457
230.481
230.515
230.547
230.576
230.603
230.632
230.669
230.72
230.785
230.864
230.953
231.047
231.145
231.245
231.346
231.449
231.559
231.679
231.808
231.944
232.086
232.239
232.402
232.567
232.73
232.896
233.073
233.263
233.455
233.643
233.826
234.008
234.196
234.39
234.591
234.795
234.998
235.197
235.392
235.581
235.765
235.944
236.118
236.287
236.45
236.607
236.755
236.893
237.019
237.13
237.222
237.296
237.347
237.373
237.376
237.337
237.271
237.165
237.017
236.827
236.59
236.305
235.968
235.582
235.136
234.638
234.082
233.468
232.805
232.089
231.334
230.475
229.297
223
223
223
223
223
223
223
223
223
223
223
223
223
223
223
223
223
223
223
223
223
223
223
223
223
223
223
223
223
223
223
223
223
223
223
223
223
223
223
223.01
223.292
225.193
228.347
230.075
230.527
230.549
230.548
230.57
230.605
230.64
230.668
230.691
230.717
230.75
230.796
230.857
230.933
231.019
231.112
231.207
231.304
231.403
231.504
231.609
231.723
231.849
231.986
232.131
232.283
232.445
232.618
232.794
232.967
233.143
233.328
233.526
233.73
233.929
234.124
234.319
234.518
234.726
234.941
235.162
235.384
235.604
235.82
236.033
236.242
236.448
236.652
236.852
237.05
237.243
237.431
237.613
237.786
237.948
238.098
238.232
238.349
238.443
238.517
238.563
238.583
238.57
238.516
238.428
238.294
238.117
237.89
237.614
237.281
236.899
236.459
235.968
235.428
234.835
234.2
233.463
232.445
223
223
223
223
223
223
223
223
223
223
223
223
223
223
223
223
223
223
223
223
223
223
223
223
223
223
223
223
223
223
223
223
223
223
223
223
223
223
223
223.006
223.195
224.806
228.028
230.044
230.578
230.62
230.643
230.679
230.717
230.75
230.774
230.794
230.821
230.861
230.917
230.989
231.073
231.163
231.256
231.349
231.444
231.541
231.644
231.752
231.871
232.004
232.15
232.304
232.466
232.637
232.817
233.002
233.185
233.367
233.559
233.764
233.975
234.184
234.389
234.593
234.802
235.02
235.247
235.481
235.718
235.955
236.19
236.422
236.652
236.881
237.108
237.334
237.56
237.784
238.005
238.223
238.436
238.642
238.839
239.026
239.2
239.359
239.5
239.621
239.718
239.789
239.83
239.844
239.815
239.751
239.64
239.481
239.271
239.008
238.685
238.312
237.877
237.391
236.853
236.223
235.337
223
223
223
223
223
223
223
223
223
223
223
223
223
223
223
223
223
223
223
223
223
223
223
223
223
223
223
223
223
223
223
223
223
223
223
223
223
223
223
223.004
223.143
224.541
227.773
230.014
230.62
230.689
230.733
230.776
230.816
230.846
230.866
230.886
230.918
230.967
231.033
231.112
231.201
231.292
231.384
231.474
231.566
231.663
231.768
231.881
232.007
232.147
232.302
232.466
232.636
232.813
233.001
233.193
233.382
233.571
233.767
233.976
234.193
234.409
234.621
234.832
235.049
235.275
235.511
235.756
236.005
236.256
236.505
236.754
237
237.247
237.493
237.74
237.987
238.235
238.483
238.73
238.975
239.216
239.452
239.681
239.901
240.11
240.307
240.488
240.652
240.796
240.915
241.008
241.071
241.104
241.104
241.046
240.957
240.812
240.616
240.371
240.062
239.705
239.278
238.772
238.035
223
223
223
223
223
223
223
223
223
223
223
223
223
223
223
223
223
223
223
223
223
223
223
223
223
223
223
223
223
223
223
223
223
223
223
223
223
223
223
223.003
223.12
224.392
227.612
230.005
230.665
230.759
230.814
230.86
230.899
230.927
230.947
230.97
231.008
231.066
231.14
231.225
231.315
231.406
231.495
231.583
231.674
231.772
231.88
231.999
232.132
232.28
232.442
232.614
232.791
232.975
233.167
233.364
233.559
233.751
233.95
234.162
234.383
234.604
234.822
235.039
235.262
235.494
235.738
235.991
236.25
236.511
236.772
237.032
237.292
237.552
237.813
238.076
238.341
238.607
238.875
239.144
239.413
239.681
239.947
240.209
240.466
240.716
240.958
241.19
241.411
241.617
241.806
241.976
242.125
242.245
242.34
242.396
242.42
242.395
242.323
242.202
242.017
241.785
241.463
241.087
240.494
223
223
223
223
223
223
223
223
223
223
223
223
223
223
223
223
223
223
223
223
223
223
223
223
223
223
223
223
223
223
223
223
223
223
223
223
223
223
223
223.002
223.113
224.353
227.571
230.023
230.716
230.826
230.885
230.931
230.97
230.998
231.02
231.046
231.091
231.157
231.236
231.323
231.414
231.504
231.592
231.68
231.771
231.871
231.984
232.108
232.247
232.402
232.571
232.749
232.932
233.119
233.315
233.516
233.714
233.909
234.11
234.323
234.547
234.772
234.995
235.217
235.445
235.683
235.932
236.192
236.458
236.727
236.996
237.266
237.535
237.806
238.078
238.352
238.63
238.91
239.193
239.478
239.764
240.052
240.339
240.625
240.909
241.188
241.463
241.732
241.992
242.244
242.484
242.711
242.923
243.118
243.292
243.439
243.558
243.642
243.696
243.712
243.67
243.584
243.394
243.179
242.731
223
223
223
223
223
223
223
223
223
223
223
223
223
223
223
223
223
223
223
223
223
223
223
223
223
223
223
223
223
223
223
223
223
223
223
223
223
223
223
223.002
223.115
224.372
227.617
230.08
230.777
230.888
230.944
230.991
231.03
231.061
231.085
231.116
231.165
231.235
231.317
231.406
231.497
231.588
231.676
231.765
231.859
231.963
232.079
232.209
232.353
232.513
232.687
232.869
233.055
233.246
233.445
233.648
233.848
234.045
234.247
234.462
234.688
234.916
235.143
235.37
235.602
235.845
236.099
236.363
236.635
236.909
237.185
237.462
237.739
238.017
238.297
238.58
238.866
239.155
239.448
239.745
240.044
240.344
240.646
240.949
241.25
241.55
241.848
242.143
242.433
242.717
242.995
243.266
243.526
243.774
244.009
244.228
244.425
244.597
244.74
244.86
244.963
245.021
245.005
244.974
244.749
223
223
223
223
223
223
223
223
223
223
223
223
223
223
223
223
223
223
223
223
223
223
223
223
223
223
223
223
223
223
223
223
223
223
223
223
223
223
223
223.003
223.131
224.487
227.798
230.192
230.849
230.944
230.994
231.041
231.082
231.115
231.143
231.178
231.23
231.3
231.383
231.473
231.566
231.658
231.749
231.841
231.938
232.046
232.167
232.301
232.449
232.613
232.79
232.975
233.163
233.356
233.556
233.761
233.963
234.161
234.365
234.581
234.81
235.041
235.272
235.502
235.739
235.985
236.243
236.511
236.786
237.066
237.346
237.628
237.91
238.193
238.479
238.767
239.059
239.355
239.655
239.958
240.264
240.573
240.884
241.197
241.509
241.822
242.133
242.442
242.749
243.053
243.352
243.648
243.938
244.22
244.494
244.757
245.006
245.238
245.446
245.635
245.81
245.976
246.134
246.217
246.199
223
223
223
223
223
223
223
223
223
223
223
223
223
223
223
223
223
223
223
223
223
223
223
223
223
223
223
223
223
223
223
223
223
223
223
223
223
223
223
223.004
223.168
224.715
228.083
230.329
230.922
230.997
231.035
231.082
231.125
231.161
231.194
231.232
231.285
231.355
231.438
231.528
231.622
231.717
231.812
231.908
232.01
232.123
232.247
232.383
232.534
232.7
232.879
233.065
233.254
233.448
233.65
233.856
234.059
234.259
234.464
234.684
234.915
235.15
235.384
235.618
235.858
236.108
236.37
236.641
236.919
237.202
237.486
237.77
238.056
238.343
238.632
238.924
239.22
239.52
239.823
240.13
240.44
240.753
241.068
241.385
241.703
242.021
242.339
242.655
242.97
243.282
243.59
243.895
244.196
244.491
244.779
245.062
245.335
245.597
245.843
246.076
246.302
246.534
246.759
246.927
247.067
223
223
223
223
223
223
223
223
223
223
223
223
223
223
223
223
223
223
223
223
223
223
223
223
223
223
223
223
223
223
223
223
223
223
223
223
223
223
223
223.007
223.239
225.054
228.445
230.48
230.992
231.046
231.072
231.116
231.16
231.199
231.236
231.278
231.331
231.401
231.482
231.573
231.668
231.766
231.864
231.966
232.073
232.19
232.317
232.456
232.608
232.775
232.954
233.14
233.33
233.525
233.728
233.934
234.138
234.34
234.548
234.771
235.006
235.244
235.48
235.718
235.961
236.214
236.478
236.753
237.034
237.319
237.605
237.892
238.179
238.468
238.759
239.053
239.35
239.651
239.955
240.264
240.575
240.889
241.205
241.522
241.84
242.158
242.476
242.795
243.113
243.427
243.739
244.044
244.342
244.632
244.913
245.185
245.443
245.686
245.909
246.118
246.319
246.522
246.712
246.855
246.953
223
223
223
223
223
223
223
223
223
223
223
223
223
223
223
223
223
223
223
223
223
223
223
223
223
223
223
223
223
223
223
223
223
223
223
223
223
223
223
223.013
223.357
225.505
228.854
230.63
231.053
231.091
231.104
231.143
231.187
231.229
231.27
231.315
231.37
231.439
231.519
231.609
231.705
231.805
231.907
232.013
232.125
232.246
232.375
232.516
232.669
232.836
233.016
233.202
233.391
233.587
233.792
233.999
234.204
234.407
234.62
234.846
235.084
235.324
235.563
235.803
236.049
236.305
236.572
236.848
237.131
237.417
237.704
237.992
238.28
238.569
238.861
239.155
239.452
239.752
240.056
240.362
240.672
240.984
241.298
241.614
241.93
242.246
242.557
242.863
243.164
243.457
243.745
244.024
244.295
244.558
244.812
245.052
245.275
245.478
245.655
245.812
245.952
246.082
246.181
246.226
246.161
223
223
223
223
223
223
223
223
223
223
223
223
223
223
223
223
223
223
223
223
223
223
223
223
223
223
223
223
223
223
223
223
223
223
223
223
223
223
223
223.025
223.544
226.059
229.274
230.767
231.101
231.128
231.133
231.166
231.209
231.252
231.296
231.345
231.402
231.47
231.549
231.637
231.734
231.835
231.941
232.051
232.167
232.29
232.421
232.563
232.717
232.884
233.063
233.249
233.439
233.636
233.841
234.05
234.255
234.461
234.678
234.908
235.149
235.391
235.631
235.874
236.122
236.381
236.651
236.929
237.212
237.498
237.784
238.071
238.357
238.646
238.936
239.228
239.523
239.822
240.125
240.431
240.739
241.047
241.353
241.656
241.955
242.25
242.539
242.822
243.101
243.373
243.636
243.89
244.13
244.356
244.567
244.759
244.928
245.071
245.187
245.281
245.359
245.4
245.385
245.368
245.233
223
223
223
223
223
223
223
223
223
223
223
223
223
223
223
223
223
223
223
223
223
223
223
223
223
223
223
223
223
223
223
223
223
223
223
223
223
223
223.001
223.05
223.822
226.692
229.675
230.881
231.136
231.154
231.155
231.184
231.224
231.268
231.315
231.367
231.425
231.493
231.571
231.659
231.755
231.858
231.966
232.079
232.198
232.323
232.456
232.599
232.754
232.922
233.101
233.285
233.475
233.673
233.879
234.087
234.292
234.501
234.721
234.956
235.199
235.442
235.684
235.928
236.179
236.44
236.711
236.99
237.273
237.558
237.843
238.128
238.413
238.699
238.986
239.277
239.57
239.864
240.158
240.451
240.744
241.033
241.321
241.607
241.889
242.166
242.437
242.7
242.952
243.194
243.422
243.636
243.834
244.013
244.172
244.307
244.416
244.497
244.551
244.58
244.576
244.546
244.47
244.384
244.19
223
223
223
223
223
223
223
223
223
223
223
223
223
223
223
223
223
223
223
223
223
223
223
223
223
223
223
223
223
223
223
223
223
223
223
223
223
223
223.002
223.099
224.211
227.364
230.036
230.969
231.158
231.169
231.171
231.197
231.235
231.278
231.327
231.382
231.442
231.51
231.587
231.674
231.769
231.872
231.981
232.096
232.217
232.345
232.479
232.624
232.78
232.949
233.127
233.311
233.501
233.7
233.907
234.114
234.321
234.532
234.756
234.993
235.237
235.481
235.724
235.97
236.223
236.485
236.757
237.035
237.317
237.599
237.883
238.166
238.45
238.732
239.014
239.294
239.575
239.854
240.133
240.412
240.691
240.968
241.241
241.508
241.768
242.02
242.263
242.494
242.712
242.916
243.103
243.272
243.422
243.548
243.653
243.729
243.779
243.805
243.8
243.769
243.708
243.631
243.522
243.396
243.179
223
223
223
223
223
223
223
223
223
223
223
223
223
223
223
223
223
223
223
223
223
223
223
223
223
223
223
223
223
223
223
223
223
223
223
223
223
223
223.006
223.187
224.716
228.033
230.343
231.035
231.169
231.174
231.179
231.203
231.24
231.284
231.334
231.39
231.451
231.52
231.597
231.683
231.779
231.882
231.993
232.109
232.231
232.36
232.496
232.641
232.799
232.968
233.145
233.328
233.518
233.717
233.924
234.131
234.338
234.551
234.778
235.018
235.263
235.507
235.75
235.996
236.249
236.512
236.784
237.062
237.343
237.624
237.902
238.176
238.449
238.718
238.987
239.257
239.527
239.797
240.064
240.329
240.59
240.846
241.096
241.338
241.57
241.792
242.002
242.197
242.377
242.539
242.682
242.804
242.905
242.981
243.032
243.061
243.062
243.037
242.985
242.916
242.82
242.715
242.591
242.448
242.222
223
223
223
223
223
223
223
223
223
223
223
223
223
223
223
223
223
223
223
223
223
223
223
223
223
223
223
223
223
223
223
223
223
223
223
223
223
223
223.013
223.336
225.326
228.656
230.59
231.084
231.173
231.174
231.182
231.206
231.242
231.284
231.335
231.393
231.455
231.524
231.602
231.688
231.784
231.888
231.998
232.115
232.238
232.368
232.505
232.652
232.81
232.979
233.156
233.339
233.529
233.729
233.936
234.142
234.35
234.564
234.793
235.034
235.28
235.524
235.767
236.014
236.268
236.531
236.8
237.073
237.346
237.615
237.882
238.148
238.412
238.674
238.935
239.193
239.449
239.703
239.953
240.198
240.437
240.67
240.893
241.107
241.308
241.496
241.669
241.826
241.964
242.083
242.182