/*--------------------------------*- C++ -*----------------------------------*\
| =========                 |                                                 |
| \\      /  F ield         | OpenFOAM: The Open Source CFD Toolbox           |
|  \\    /   O peration     | Version:  2412                                  |
|   \\  /    A nd           | Website:  www.openfoam.com                      |
|    \\/     M anipulation  |                                                 |
\*---------------------------------------------------------------------------*/
FoamFile
{
    version     2.0;
    format      ascii;
    arch        "LSB;label=32;scalar=64";
    class       volScalarField;
    location    "0.014";
    object      rho;
}
// * * * * * * * * * * * * * * * * * * * * * * * * * * * * * * * * * * * * * //

dimensions      [1 -3 0 0 0 0 0];

internalField   nonuniform List<scalar> 
78650
(
0.042133
0.042133
0.042133
0.042133
0.042133
0.042133
0.042133
0.042133
0.042133
0.042133
0.042133
0.042133
0.042133
0.042133
0.042133
0.042133
0.042133
0.042133
0.042133
0.042133
0.042133
0.042133
0.042133
0.042133
0.042133
0.0421331
0.0421339
0.0421531
0.0422933
0.0426537
0.0430295
0.0432123
0.0432266
0.0431993
0.0430797
0.0429403
0.0428242
0.0427232
0.0426278
0.0425341
0.042442
0.0423542
0.0422713
0.042194
0.0421215
0.0420522
0.0419844
0.0419246
0.0418905
0.0418859
0.0419178
0.0419892
0.0420368
0.0420459
0.0420374
0.0420131
0.0419855
0.0419618
0.041943
0.0419284
0.0419172
0.0419077
0.0418964
0.0418817
0.0418634
0.0418439
0.0418267
0.0418136
0.0418049
0.0417978
0.0417875
0.0417702
0.0417434
0.0417077
0.0416641
0.0416129
0.0415537
0.0414853
0.0414067
0.0413171
0.0412152
0.0410998
0.0409692
0.0408218
0.0406561
0.0404697
0.0402616
0.0400291
0.0397718
0.0394864
0.0391716
0.0388217
0.0384405
0.0380241
0.0375803
0.0370955
0.0365775
0.0360204
0.0354309
0.0348044
0.0341513
0.0334785
0.0327998
0.0321169
0.0314452
0.0307623
0.0300827
0.0294169
0.0287611
0.0281391
0.0275432
0.0269844
0.0264523
0.0259742
0.0255765
0.0252169
0.0248854
0.0245317
0.0241882
0.0238804
0.0233454
0.042133
0.042133
0.042133
0.042133
0.042133
0.042133
0.042133
0.042133
0.042133
0.042133
0.042133
0.042133
0.042133
0.042133
0.042133
0.042133
0.042133
0.042133
0.042133
0.042133
0.042133
0.042133
0.042133
0.042133
0.042133
0.042133
0.0421334
0.0421445
0.0422466
0.0425704
0.0429749
0.0432066
0.0432441
0.0432262
0.0431273
0.0429914
0.0428717
0.0427673
0.0426699
0.0425755
0.0424836
0.0423964
0.0423147
0.0422389
0.0421682
0.0421011
0.0420354
0.0419755
0.0419374
0.041929
0.0419547
0.0420275
0.0420866
0.0421023
0.0420974
0.042078
0.0420529
0.0420307
0.0420135
0.0420007
0.0419926
0.0419868
0.0419801
0.0419704
0.0419572
0.0419423
0.0419291
0.0419201
0.0419166
0.0419158
0.0419132
0.041905
0.0418881
0.0418622
0.0418286
0.041788
0.0417404
0.0416846
0.0416198
0.0415451
0.0414595
0.0413618
0.0412505
0.041124
0.0409807
0.0408186
0.0406364
0.0404317
0.0402036
0.0399484
0.0396648
0.0393492
0.0390042
0.0386254
0.0382163
0.0377666
0.0372875
0.0367697
0.0362194
0.0356361
0.0350151
0.034356
0.0336744
0.032968
0.032262
0.0315667
0.0308635
0.0301915
0.0295196
0.0288633
0.0282307
0.0276471
0.0270906
0.0265524
0.0260542
0.0255892
0.0251762
0.0247864
0.0244259
0.0240967
0.0235342
0.042133
0.042133
0.042133
0.042133
0.042133
0.042133
0.042133
0.042133
0.042133
0.042133
0.042133
0.042133
0.042133
0.042133
0.042133
0.042133
0.042133
0.042133
0.042133
0.042133
0.042133
0.042133
0.042133
0.042133
0.042133
0.042133
0.0421332
0.0421392
0.0422095
0.0424871
0.0429074
0.0431907
0.0432546
0.0432504
0.0431745
0.0430439
0.0429194
0.0428107
0.0427112
0.0426166
0.0425254
0.0424393
0.042359
0.0422848
0.0422159
0.0421508
0.0420872
0.0420276
0.0419861
0.041974
0.0419936
0.0420652
0.0421357
0.0421593
0.0421575
0.042143
0.0421207
0.0421
0.0420843
0.0420737
0.0420687
0.0420667
0.0420646
0.0420598
0.0420517
0.0420414
0.0420322
0.0420277
0.0420292
0.0420346
0.0420389
0.0420391
0.042032
0.042016
0.041992
0.0419613
0.0419246
0.0418807
0.0418288
0.041768
0.0416975
0.0416162
0.0415225
0.0414152
0.0412925
0.0411527
0.0409943
0.040815
0.0406138
0.0403875
0.0401353
0.0398542
0.0395448
0.0392018
0.0388266
0.0384118
0.037967
0.0374833
0.0369689
0.0364175
0.0358302
0.03521
0.0345546
0.0338685
0.0331532
0.0324449
0.0317271
0.0310061
0.0303228
0.0296404
0.0289714
0.0283067
0.0276882
0.0271045
0.0265761
0.0260913
0.0256209
0.0251515
0.0246984
0.024284
0.023587
0.042133
0.042133
0.042133
0.042133
0.042133
0.042133
0.042133
0.042133
0.042133
0.042133
0.042133
0.042133
0.042133
0.042133
0.042133
0.042133
0.042133
0.042133
0.042133
0.042133
0.042133
0.042133
0.042133
0.042133
0.042133
0.042133
0.0421331
0.0421361
0.0421809
0.0424058
0.0428247
0.0431612
0.0432617
0.0432761
0.0432215
0.0430982
0.0429677
0.0428543
0.0427536
0.0426597
0.04257
0.0424852
0.0424063
0.0423336
0.0422662
0.0422027
0.0421409
0.0420815
0.0420364
0.04202
0.042033
0.0421001
0.0421814
0.0422159
0.0422181
0.0422078
0.0421882
0.0421694
0.0421553
0.042147
0.042145
0.0421469
0.042149
0.0421488
0.0421458
0.0421402
0.0421351
0.0421343
0.0421401
0.0421515
0.0421631
0.0421703
0.0421718
0.042166
0.0421521
0.042131
0.0421045
0.042072
0.0420326
0.0419854
0.0419296
0.0418643
0.0417882
0.0416999
0.0415979
0.0414804
0.0413461
0.0411926
0.0410189
0.0408221
0.0406014
0.0403533
0.0400765
0.0397653
0.0394208
0.0390384
0.038626
0.0381745
0.0376901
0.0371661
0.0366074
0.0360134
0.0353805
0.0347179
0.0340202
0.0332961
0.0325828
0.0318303
0.0311047
0.0303892
0.0297097
0.029029
0.0283639
0.0277147
0.027069
0.0265101
0.026021
0.0255756
0.0251569
0.0247447
0.0239957
0.042133
0.042133
0.042133
0.042133
0.042133
0.042133
0.042133
0.042133
0.042133
0.042133
0.042133
0.042133
0.042133
0.042133
0.042133
0.042133
0.042133
0.042133
0.042133
0.042133
0.042133
0.042133
0.042133
0.042133
0.042133
0.042133
0.0421331
0.0421344
0.0421607
0.0423313
0.0427302
0.0431154
0.0432637
0.0433008
0.0432646
0.0431516
0.0430157
0.0428983
0.0427973
0.0427049
0.0426166
0.0425332
0.0424557
0.0423843
0.0423181
0.042256
0.0421957
0.0421367
0.0420885
0.0420673
0.0420743
0.0421335
0.0422247
0.042273
0.0422802
0.0422728
0.0422561
0.0422397
0.0422277
0.0422219
0.0422224
0.0422282
0.0422346
0.0422388
0.0422403
0.0422397
0.042239
0.0422419
0.0422516
0.042268
0.0422868
0.0423022
0.042311
0.0423133
0.0423098
0.0422987
0.042282
0.04226
0.0422322
0.0421976
0.0421555
0.0421051
0.0420451
0.0419743
0.0418912
0.0417942
0.0416819
0.0415522
0.041404
0.0412348
0.0410436
0.0408269
0.040583
0.0403074
0.0400019
0.0396629
0.0392937
0.0388845
0.0384404
0.0379542
0.0374296
0.0368652
0.0362601
0.0356148
0.034938
0.0342174
0.0334859
0.0327353
0.0319672
0.0312103
0.0304566
0.0297343
0.0290294
0.0283994
0.0277535
0.0271168
0.0264983
0.0258971
0.0253894
0.0249628
0.0242305
0.042133
0.042133
0.042133
0.042133
0.042133
0.042133
0.042133
0.042133
0.042133
0.042133
0.042133
0.042133
0.042133
0.042133
0.042133
0.042133
0.042133
0.042133
0.042133
0.042133
0.042133
0.042133
0.042133
0.042133
0.042133
0.042133
0.0421331
0.0421336
0.0421475
0.0422669
0.0426246
0.043051
0.0432617
0.043325
0.0433002
0.0432039
0.0430656
0.0429459
0.0428451
0.0427536
0.0426666
0.0425843
0.0425081
0.0424378
0.0423723
0.0423109
0.0422515
0.042193
0.0421421
0.0421155
0.0421162
0.0421656
0.0422647
0.0423288
0.0423426
0.0423378
0.0423246
0.0423112
0.0423017
0.0422983
0.0423011
0.0423099
0.0423206
0.0423298
0.0423359
0.0423397
0.0423434
0.0423499
0.0423629
0.0423837
0.0424089
0.0424322
0.0424494
0.0424595
0.0424635
0.0424629
0.0424562
0.0424448
0.042428
0.0424055
0.0423765
0.0423405
0.0422963
0.0422427
0.0421784
0.0421017
0.0420115
0.0419057
0.0417832
0.0416416
0.0414796
0.0412938
0.0410827
0.0408429
0.0405752
0.0402751
0.0399428
0.0395703
0.039163
0.0387147
0.0382296
0.0377049
0.0371397
0.0365375
0.0358939
0.0352141
0.0344879
0.0337545
0.0329895
0.0322202
0.0314373
0.0306581
0.0298673
0.0291122
0.0284042
0.027736
0.0271166
0.0265066
0.0258834
0.0253251
0.0243611
0.042133
0.042133
0.042133
0.042133
0.042133
0.042133
0.042133
0.042133
0.042133
0.042133
0.042133
0.042133
0.042133
0.042133
0.042133
0.042133
0.042133
0.042133
0.042133
0.042133
0.042133
0.042133
0.042133
0.042133
0.042133
0.042133
0.042133
0.0421332
0.0421398
0.042216
0.0425156
0.0429658
0.0432487
0.0433448
0.0433278
0.0432535
0.0431193
0.0429975
0.0428957
0.0428044
0.0427184
0.0426375
0.0425625
0.0424929
0.0424277
0.0423664
0.0423075
0.0422493
0.0421967
0.0421645
0.0421594
0.0421982
0.042301
0.0423827
0.0424063
0.0424044
0.0423951
0.0423846
0.0423775
0.042376
0.0423815
0.0423929
0.0424078
0.0424219
0.0424329
0.0424411
0.0424485
0.0424586
0.042475
0.0424997
0.0425305
0.0425614
0.0425869
0.0426053
0.0426174
0.0426244
0.0426274
0.0426263
0.04262
0.0426091
0.0425922
0.0425695
0.0425398
0.042502
0.0424548
0.0423967
0.0423266
0.0422427
0.0421436
0.0420273
0.0418925
0.0417364
0.0415578
0.0413535
0.0411228
0.0408602
0.0405654
0.0402321
0.0398651
0.039457
0.0390108
0.0385225
0.0379906
0.0374181
0.0367982
0.0361355
0.035433
0.0346904
0.0339319
0.0331547
0.032375
0.0316204
0.0308585
0.0300796
0.029322
0.0285455
0.0278178
0.0271369
0.0265203
0.0259649
0.0249182
0.042133
0.042133
0.042133
0.042133
0.042133
0.042133
0.042133
0.042133
0.042133
0.042133
0.042133
0.042133
0.042133
0.042133
0.042133
0.042133
0.042133
0.042133
0.042133
0.042133
0.042133
0.042133
0.042133
0.042133
0.042133
0.042133
0.042133
0.0421331
0.0421359
0.0421795
0.0424106
0.0428579
0.0432166
0.0433542
0.0433503
0.0433024
0.0431781
0.043053
0.0429488
0.0428577
0.0427734
0.0426939
0.0426195
0.0425496
0.0424838
0.0424219
0.0423631
0.0423054
0.0422516
0.0422147
0.0422043
0.0422323
0.0423337
0.0424332
0.0424706
0.0424732
0.0424675
0.0424592
0.0424545
0.0424551
0.0424633
0.0424774
0.0424961
0.0425148
0.0425306
0.0425431
0.0425543
0.0425676
0.0425871
0.0426154
0.0426511
0.0426887
0.0427222
0.0427488
0.0427689
0.0427843
0.0427957
0.0428034
0.0428074
0.0428077
0.0428028
0.0427931
0.0427775
0.042755
0.0427245
0.0426846
0.0426343
0.0425719
0.0424961
0.0424049
0.0422973
0.0421706
0.0420234
0.0418524
0.0416557
0.0414286
0.0411715
0.0408797
0.040556
0.0401925
0.0397918
0.0393488
0.0388627
0.0383341
0.0377557
0.037134
0.0364642
0.0357459
0.0349846
0.0341821
0.0333603
0.0325127
0.0317065
0.0308795
0.0301141
0.0293444
0.0285929
0.0278691
0.0271548
0.0265089
0.02538
0.042133
0.042133
0.042133
0.042133
0.042133
0.042133
0.042133
0.042133
0.042133
0.042133
0.042133
0.042133
0.042133
0.042133
0.042133
0.042133
0.042133
0.042133
0.042133
0.042133
0.042133
0.042133
0.042133
0.042133
0.042133
0.042133
0.042133
0.0421331
0.0421341
0.0421563
0.0423184
0.0427331
0.0431569
0.0433527
0.0433757
0.0433484
0.0432369
0.04311
0.0430043
0.0429141
0.0428309
0.0427518
0.0426767
0.0426057
0.0425388
0.0424762
0.0424174
0.0423605
0.0423065
0.042266
0.042251
0.0422691
0.0423633
0.0424793
0.0425352
0.0425448
0.042542
0.0425357
0.0425333
0.0425365
0.0425469
0.0425636
0.0425856
0.0426086
0.0426291
0.042646
0.0426609
0.0426774
0.0426996
0.0427309
0.042771
0.042815
0.0428562
0.0428909
0.0429188
0.0429418
0.0429614
0.0429782
0.0429915
0.0430015
0.0430078
0.0430101
0.0430075
0.0429993
0.0429844
0.0429608
0.0429285
0.0428856
0.0428311
0.0427631
0.0426806
0.042581
0.0424632
0.0423239
0.0421615
0.0419724
0.0417568
0.0415099
0.041232
0.0409149
0.0405609
0.0401634
0.0397225
0.0392368
0.0387006
0.038122
0.0374923
0.0368187
0.0360994
0.0353322
0.0345512
0.0336967
0.0328358
0.0319479
0.0310414
0.0302163
0.0293222
0.0285183
0.0277492
0.0270569
0.0257314
0.042133
0.042133
0.042133
0.042133
0.042133
0.042133
0.042133
0.042133
0.042133
0.042133
0.042133
0.042133
0.042133
0.042133
0.042133
0.042133
0.042133
0.042133
0.042133
0.042133
0.042133
0.042133
0.042133
0.042133
0.042133
0.042133
0.042133
0.042133
0.0421334
0.0421432
0.0422452
0.0425999
0.043067
0.0433406
0.0434003
0.0433847
0.0432942
0.043171
0.0430646
0.0429738
0.0428896
0.0428091
0.0427324
0.0426601
0.0425926
0.0425298
0.0424715
0.0424159
0.0423626
0.0423195
0.0423004
0.0423099
0.042392
0.0425214
0.0425993
0.042619
0.0426187
0.0426147
0.0426138
0.0426195
0.042632
0.042651
0.0426759
0.0427028
0.0427278
0.042749
0.0427678
0.0427873
0.0428119
0.0428458
0.0428896
0.0429391
0.0429876
0.0430302
0.0430658
0.0430963
0.0431235
0.0431484
0.043171
0.0431909
0.0432077
0.043221
0.0432305
0.0432354
0.0432358
0.0432285
0.0432141
0.0431901
0.0431563
0.0431108
0.0430524
0.0429791
0.0428896
0.042781
0.0426518
0.0424985
0.0423206
0.0421128
0.0418745
0.0415987
0.0412874
0.0409338
0.0405386
0.0400993
0.0396115
0.0390786
0.0384885
0.0378509
0.0371621
0.0364256
0.0356409
0.0348233
0.0339498
0.0331177
0.0322367
0.0313954
0.0304595
0.029577
0.0287095
0.0279131
0.0264297
0.042133
0.042133
0.042133
0.042133
0.042133
0.042133
0.042133
0.042133
0.042133
0.042133
0.042133
0.042133
0.042133
0.042133
0.042133
0.042133
0.042133
0.042133
0.042133
0.042133
0.042133
0.042133
0.042133
0.042133
0.042133
0.042133
0.042133
0.042133
0.0421331
0.0421369
0.0421937
0.0424695
0.0429521
0.0433095
0.0434106
0.0434138
0.043352
0.0432371
0.0431274
0.0430324
0.0429456
0.0428637
0.0427862
0.0427135
0.0426461
0.0425836
0.042526
0.0424718
0.0424198
0.0423753
0.0423523
0.042355
0.0424214
0.0425593
0.0426611
0.042695
0.0426983
0.0426965
0.0426966
0.0427039
0.0427184
0.0427396
0.0427669
0.0427972
0.0428265
0.0428522
0.0428748
0.0428973
0.0429243
0.0429602
0.043007
0.0430615
0.0431169
0.0431671
0.0432104
0.0432481
0.0432826
0.0433153
0.0433462
0.0433751
0.0434016
0.0434256
0.0434467
0.0434638
0.0434765
0.043484
0.0434858
0.0434794
0.0434648
0.0434399
0.0434037
0.0433548
0.0432918
0.0432124
0.043115
0.0429962
0.0428549
0.0426864
0.0424902
0.0422604
0.041998
0.0416954
0.0413534
0.0409672
0.0405332
0.0400513
0.0395109
0.0389205
0.0382678
0.0375613
0.0367965
0.0359755
0.0351109
0.0342098
0.0332949
0.0323202
0.031384
0.0304845
0.0296112
0.0288279
0.0273748
0.042133
0.042133
0.042133
0.042133
0.042133
0.042133
0.042133
0.042133
0.042133
0.042133
0.042133
0.042133
0.042133
0.042133
0.042133
0.042133
0.042133
0.042133
0.042133
0.042133
0.042133
0.042133
0.042133
0.042133
0.042133
0.042133
0.042133
0.042133
0.0421331
0.0421343
0.042162
0.0423547
0.0428138
0.0432499
0.0434089
0.0434463
0.0434093
0.0433035
0.0431872
0.0430873
0.0429992
0.0429176
0.0428403
0.0427678
0.0427006
0.0426385
0.0425817
0.0425288
0.0424784
0.0424337
0.0424068
0.042404
0.0424545
0.0425945
0.0427201
0.0427715
0.0427807
0.0427805
0.0427815
0.0427897
0.0428057
0.0428284
0.0428577
0.0428911
0.0429243
0.0429544
0.042981
0.0430066
0.0430358
0.0430734
0.0431225
0.0431812
0.0432429
0.0433006
0.0433514
0.0433962
0.0434375
0.0434774
0.0435161
0.0435535
0.0435892
0.043623
0.0436546
0.0436836
0.0437094
0.0437306
0.0437467
0.0437568
0.0437604
0.0437558
0.0437413
0.0437159
0.0436779
0.0436256
0.0435575
0.0434707
0.0433636
0.0432324
0.0430765
0.0428905
0.0426746
0.0424213
0.0421314
0.0417982
0.0414194
0.0409921
0.0405084
0.0399744
0.0393778
0.0387283
0.0380165
0.0372475
0.0364266
0.0355331
0.0346273
0.0336189
0.032644
0.0315809
0.0305362
0.029586
0.0278375
0.042133
0.042133
0.042133
0.042133
0.042133
0.042133
0.042133
0.042133
0.042133
0.042133
0.042133
0.042133
0.042133
0.042133
0.042133
0.042133
0.042133
0.042133
0.042133
0.042133
0.042133
0.042133
0.042133
0.042133
0.042133
0.042133
0.042133
0.042133
0.042133
0.0421334
0.0421451
0.0422649
0.0426634
0.0431589
0.0434011
0.0434772
0.0434535
0.0433648
0.0432446
0.0431417
0.0430536
0.0429726
0.0428953
0.0428227
0.0427558
0.0426942
0.0426381
0.0425866
0.0425379
0.0424936
0.0424638
0.0424563
0.0424922
0.0426267
0.0427742
0.0428461
0.0428638
0.042866
0.042868
0.0428763
0.0428932
0.042917
0.0429479
0.042984
0.0430211
0.0430555
0.0430862
0.043115
0.0431463
0.0431854
0.0432364
0.0432986
0.043366
0.0434309
0.0434891
0.0435407
0.0435887
0.0436352
0.0436811
0.0437263
0.0437705
0.0438133
0.0438547
0.0438944
0.0439315
0.0439656
0.0439957
0.0440208
0.04404
0.0440526
0.0440578
0.0440544
0.0440398
0.0440135
0.043973
0.0439168
0.043843
0.0437484
0.0436321
0.0434889
0.0433184
0.043113
0.0428732
0.042591
0.0422653
0.0418915
0.0414632
0.0409832
0.0404417
0.0398469
0.0391826
0.0384547
0.0376595
0.0368096
0.0358978
0.0349513
0.0339428
0.0329719
0.0319237
0.0309758
0.0291931
0.042133
0.042133
0.042133
0.042133
0.042133
0.042133
0.042133
0.042133
0.042133
0.042133
0.042133
0.042133
0.042133
0.042133
0.042133
0.042133
0.042133
0.042133
0.042133
0.042133
0.042133
0.042133
0.042133
0.042133
0.042133
0.042133
0.042133
0.042133
0.042133
0.0421331
0.0421374
0.0422033
0.0425163
0.0430375
0.0433812
0.0434972
0.0434852
0.0434199
0.0433035
0.0431992
0.0431099
0.0430277
0.0429501
0.0428778
0.0428115
0.0427509
0.0426958
0.0426455
0.0425984
0.0425549
0.0425227
0.0425114
0.0425346
0.0426573
0.0428229
0.0429178
0.0429465
0.0429521
0.042955
0.042963
0.0429798
0.0430043
0.0430365
0.0430751
0.0431158
0.0431544
0.0431891
0.0432212
0.0432546
0.0432951
0.0433476
0.0434127
0.0434853
0.043557
0.0436224
0.0436808
0.0437349
0.0437875
0.04384
0.0438925
0.0439444
0.0439957
0.0440462
0.0440956
0.0441436
0.0441895
0.0442324
0.0442717
0.0443067
0.0443362
0.0443591
0.0443746
0.0443819
0.0443806
0.0443659
0.0443386
0.0442948
0.0442336
0.044153
0.044049
0.0439203
0.0437605
0.0435697
0.0433401
0.0430714
0.0427573
0.0423936
0.0419794
0.0415035
0.0409689
0.0403608
0.0396883
0.038936
0.0381161
0.0372257
0.036266
0.0352288
0.0341773
0.0329812
0.0319184
0.0299759
0.042133
0.042133
0.042133
0.042133
0.042133
0.042133
0.042133
0.042133
0.042133
0.042133
0.042133
0.042133
0.042133
0.042133
0.042133
0.042133
0.042133
0.042133
0.042133
0.042133
0.042133
0.042133
0.042133
0.042133
0.042133
0.042133
0.042133
0.042133
0.042133
0.0421331
0.0421345
0.0421664
0.0423884
0.0428938
0.0433338
0.0435024
0.0435105
0.0434725
0.0433651
0.0432567
0.0431638
0.0430811
0.0430045
0.0429333
0.0428681
0.0428083
0.0427539
0.0427043
0.0426582
0.0426153
0.0425812
0.0425664
0.0425798
0.0426859
0.0428644
0.0429842
0.0430264
0.0430361
0.0430399
0.0430474
0.043064
0.043089
0.0431224
0.0431632
0.0432074
0.0432501
0.0432889
0.0433243
0.0433602
0.0434022
0.043456
0.0435236
0.0436008
0.043679
0.0437514
0.0438164
0.0438764
0.0439347
0.0439933
0.0440523
0.0441114
0.0441704
0.0442291
0.0442876
0.0443454
0.0444019
0.0444565
0.0445085
0.0445572
0.0446018
0.0446416
0.0446755
0.044702
0.0447205
0.0447299
0.0447303
0.0447153
0.0446866
0.0446399
0.0445736
0.0444857
0.044371
0.0442291
0.0440525
0.043841
0.043587
0.0432874
0.0429371
0.0425257
0.0420561
0.041516
0.0409126
0.04023
0.0394801
0.0386485
0.0377411
0.0367629
0.0357016
0.0345516
0.0334631
0.0314429
0.042133
0.042133
0.042133
0.042133
0.042133
0.042133
0.042133
0.042133
0.042133
0.042133
0.042133
0.042133
0.042133
0.042133
0.042133
0.042133
0.042133
0.042133
0.042133
0.042133
0.042133
0.042133
0.042133
0.042133
0.042133
0.042133
0.042133
0.042133
0.042133
0.042133
0.0421335
0.0421472
0.0422893
0.0427407
0.0432534
0.0434944
0.0435417
0.0435184
0.0434221
0.0433099
0.0432153
0.0431344
0.04306
0.04299
0.042925
0.0428652
0.0428106
0.0427607
0.0427149
0.0426726
0.0426371
0.0426192
0.0426254
0.0427126
0.0428984
0.0430442
0.0431021
0.0431168
0.0431214
0.0431286
0.0431453
0.043171
0.0432054
0.0432482
0.0432953
0.0433419
0.0433847
0.0434237
0.0434621
0.0435058
0.0435609
0.0436306
0.0437118
0.0437961
0.0438754
0.0439467
0.0440124
0.0440759
0.0441399
0.0442049
0.0442706
0.0443366
0.0444029
0.0444695
0.0445362
0.0446025
0.0446678
0.0447315
0.044793
0.0448516
0.0449066
0.0449571
0.0450023
0.0450413
0.0450719
0.0450939
0.0451057
0.0451072
0.0450919
0.0450609
0.0450104
0.0449374
0.0448405
0.0447129
0.0445542
0.0443556
0.0441146
0.0438241
0.0434774
0.043075
0.0426046
0.042069
0.041453
0.0407621
0.0399769
0.039105
0.0381409
0.0370853
0.0359438
0.0348402
0.0328956
0.042133
0.042133
0.042133
0.042133
0.042133
0.042133
0.042133
0.042133
0.042133
0.042133
0.042133
0.042133
0.042133
0.042133
0.042133
0.042133
0.042133
0.042133
0.042133
0.042133
0.042133
0.042133
0.042133
0.042133
0.042133
0.042133
0.042133
0.042133
0.042133
0.042133
0.0421332
0.0421385
0.042221
0.0425923
0.0431474
0.0434773
0.0435675
0.0435519
0.0434716
0.043361
0.0432676
0.0431891
0.0431156
0.0430447
0.0429786
0.0429178
0.0428626
0.0428124
0.0427669
0.0427252
0.0426891
0.0426685
0.0426692
0.0427383
0.0429258
0.0430968
0.0431721
0.0431924
0.0431981
0.0432055
0.0432224
0.043249
0.0432844
0.0433288
0.0433786
0.0434288
0.0434755
0.0435182
0.0435595
0.0436051
0.0436615
0.0437332
0.0438181
0.0439081
0.043994
0.0440717
0.0441427
0.0442112
0.0442802
0.0443506
0.0444222
0.0444946
0.0445678
0.0446418
0.0447166
0.0447917
0.0448665
0.0449407
0.0450136
0.0450847
0.0451533
0.0452187
0.0452802
0.0453368
0.0453877
0.0454319
0.045467
0.0454925
0.0455069
0.0455096
0.0454944
0.045461
0.0454059
0.0453243
0.0452154
0.0450709
0.0448896
0.0446638
0.0443892
0.0440619
0.0436699
0.0432137
0.0426782
0.0420647
0.0413569
0.0405611
0.0396527
0.0386354
0.0375123
0.0363209
0.0343321
0.042133
0.042133
0.042133
0.042133
0.042133
0.042133
0.042133
0.042133
0.042133
0.042133
0.042133
0.042133
0.042133
0.042133
0.042133
0.042133
0.042133
0.042133
0.042133
0.042133
0.042133
0.042133
0.042133
0.042133
0.042133
0.042133
0.042133
0.042133
0.042133
0.042133
0.0421331
0.042135
0.0421791
0.0424623
0.0430249
0.0434485
0.0435793
0.0435754
0.0435174
0.0434145
0.0433219
0.0432422
0.0431665
0.0430936
0.0430262
0.0429651
0.04291
0.0428599
0.0428148
0.0427738
0.0427374
0.0427143
0.0427106
0.0427641
0.0429487
0.0431428
0.0432365
0.043263
0.0432701
0.0432779
0.0432954
0.043323
0.0433594
0.0434051
0.0434573
0.0435108
0.0435614
0.0436078
0.0436521
0.0436997
0.0437576
0.0438311
0.0439194
0.0440147
0.044107
0.0441907
0.044267
0.04434
0.0444135
0.0444887
0.0445657
0.0446439
0.0447233
0.044804
0.044886
0.0449689
0.0450524
0.045136
0.0452192
0.0453015
0.0453825
0.0454614
0.0455377
0.0456106
0.0456793
0.0457427
0.0458
0.0458497
0.0458894
0.0459187
0.0459355
0.0459391
0.0459228
0.0458853
0.0458238
0.0457319
0.0456093
0.045447
0.0452415
0.0449852
0.0446674
0.0442864
0.0438279
0.0432927
0.0426675
0.0419515
0.04112
0.0401945
0.0391085
0.0379893
0.0361525
0.042133
0.042133
0.042133
0.042133
0.042133
0.042133
0.042133
0.042133
0.042133
0.042133
0.042133
0.042133
0.042133
0.042133
0.042133
0.042133
0.042133
0.042133
0.042133
0.042133
0.042133
0.042133
0.042133
0.042133
0.042133
0.042133
0.042133
0.042133
0.042133
0.042133
0.042133
0.0421337
0.042156
0.042359
0.0428964
0.043402
0.0435777
0.0436001
0.0435642
0.0434684
0.0433721
0.0432879
0.0432101
0.0431363
0.0430689
0.0430089
0.0429547
0.0429049
0.04286
0.0428191
0.0427824
0.0427572
0.0427499
0.0427909
0.0429701
0.0431843
0.0432969
0.0433297
0.0433381
0.0433464
0.0433645
0.0433933
0.0434307
0.0434776
0.0435319
0.0435883
0.0436425
0.0436923
0.0437396
0.0437893
0.0438487
0.043924
0.0440155
0.0441159
0.0442143
0.0443039
0.0443851
0.0444624
0.0445399
0.0446195
0.0447013
0.0447847
0.0448697
0.0449564
0.0450448
0.0451348
0.045226
0.0453179
0.0454102
0.0455025
0.0455944
0.0456852
0.0457746
0.0458618
0.0459462
0.046027
0.0461034
0.046174
0.0462379
0.0462937
0.0463387
0.0463719
0.0463913
0.0463955
0.0463778
0.0463352
0.046265
0.0461591
0.0460149
0.0458233
0.0455764
0.0452708
0.0448936
0.0444444
0.0439075
0.0432708
0.0425144
0.0416333
0.0405889
0.0394418
0.0377391
0.042133
0.042133
0.042133
0.042133
0.042133
0.042133
0.042133
0.042133
0.042133
0.042133
0.042133
0.042133
0.042133
0.042133
0.042133
0.042133
0.042133
0.042133
0.042133
0.042133
0.042133
0.042133
0.042133
0.042133
0.042133
0.042133
0.042133
0.042133
0.042133
0.042133
0.042133
0.0421333
0.0421443
0.0422838
0.0427727
0.0433402
0.0435703
0.0436303
0.0436061
0.0435151
0.0434141
0.0433264
0.0432482
0.0431753
0.0431096
0.0430512
0.0429975
0.0429476
0.0429023
0.0428612
0.0428241
0.0427975
0.0427877
0.0428199
0.0429935
0.0432251
0.0433562
0.0433949
0.0434039
0.0434122
0.0434305
0.0434605
0.0434989
0.043547
0.0436032
0.0436624
0.0437197
0.0437727
0.0438225
0.0438742
0.0439351
0.0440121
0.0441067
0.0442119
0.044316
0.0444112
0.0444971
0.0445782
0.0446593
0.0447428
0.0448288
0.0449169
0.0450069
0.0450989
0.045193
0.0452892
0.0453872
0.0454865
0.0455869
0.045688
0.0457894
0.0458908
0.0459917
0.0460916
0.04619
0.0462862
0.0463795
0.0464688
0.0465534
0.0466319
0.0467029
0.0467653
0.0468154
0.0468524
0.0468738
0.0468779
0.0468565
0.0468062
0.046723
0.0465999
0.046431
0.0462097
0.0459219
0.0455652
0.0451212
0.0445826
0.0439347
0.0431511
0.0422278
0.0411156
0.0395831
0.042133
0.042133
0.042133
0.042133
0.042133
0.042133
0.042133
0.042133
0.042133
0.042133
0.042133
0.042133
0.042133
0.042133
0.042133
0.042133
0.042133
0.042133
0.042133
0.042133
0.042133
0.042133
0.042133
0.042133
0.042133
0.042133
0.042133
0.042133
0.042133
0.042133
0.042133
0.0421331
0.0421386
0.0422332
0.0426633
0.0432706
0.0435636
0.043657
0.0436383
0.0435539
0.0434488
0.0433602
0.0432836
0.0432128
0.0431491
0.0430912
0.0430368
0.0429861
0.0429405
0.0428994
0.0428629
0.042836
0.0428251
0.0428522
0.0430223
0.0432691
0.0434169
0.0434607
0.0434691
0.0434763
0.0434942
0.0435249
0.0435644
0.0436138
0.0436721
0.0437337
0.0437937
0.0438493
0.0439012
0.0439545
0.0440168
0.0440957
0.0441933
0.044303
0.0444125
0.0445128
0.0446029
0.0446875
0.0447718
0.0448587
0.0449485
0.0450408
0.0451352
0.0452319
0.045331
0.0454327
0.0455366
0.0456424
0.0457498
0.0458586
0.0459685
0.0460791
0.04619
0.0463009
0.0464114
0.0465209
0.0466289
0.0467346
0.0468372
0.0469357
0.0470292
0.0471163
0.0471952
0.0472644
0.04732
0.0473609
0.047384
0.0473875
0.0473606
0.0473014
0.0472008
0.0470531
0.0468446
0.046573
0.0462175
0.0457743
0.0452144
0.0445119
0.0436682
0.0426238
0.0412242
0.042133
0.042133
0.042133
0.042133
0.042133
0.042133
0.042133
0.042133
0.042133
0.042133
0.042133
0.042133
0.042133
0.042133
0.042133
0.042133
0.042133
0.042133
0.042133
0.042133
0.042133
0.042133
0.042133
0.042133
0.042133
0.042133
0.042133
0.042133
0.042133
0.042133
0.042133
0.0421331
0.042136
0.0422013
0.0425746
0.0432021
0.0435586
0.0436775
0.0436623
0.0435849
0.0434783
0.0433914
0.0433175
0.0432487
0.0431852
0.0431259
0.0430701
0.0430186
0.0429735
0.042934
0.0428996
0.0428737
0.0428629
0.0428886
0.0430588
0.0433195
0.0434807
0.0435285
0.0435349
0.0435397
0.043556
0.043587
0.0436275
0.0436784
0.0437388
0.0438029
0.0438653
0.0439229
0.0439765
0.044031
0.0440946
0.0441754
0.044276
0.04439
0.0445044
0.0446093
0.0447031
0.0447906
0.0448776
0.0449675
0.0450606
0.0451565
0.0452548
0.0453556
0.0454592
0.0455655
0.0456746
0.045786
0.0458996
0.046015
0.0461321
0.0462507
0.0463703
0.0464907
0.0466116
0.0467326
0.0468533
0.046973
0.0470912
0.0472071
0.0473199
0.0474284
0.0475317
0.0476278
0.047715
0.0477917
0.0478526
0.0478969
0.0479205
0.0479219
0.0478836
0.0478081
0.0476779
0.0474931
0.0472314
0.0468919
0.046436
0.045844
0.0450999
0.0441501
0.0428827
0.042133
0.042133
0.042133
0.042133
0.042133
0.042133
0.042133
0.042133
0.042133
0.042133
0.042133
0.042133
0.042133
0.042133
0.042133
0.042133
0.042133
0.042133
0.042133
0.042133
0.042133
0.042133
0.042133
0.042133
0.042133
0.042133
0.042133
0.042133
0.042133
0.042133
0.042133
0.0421331
0.0421349
0.0421822
0.0425089
0.0431429
0.0435552
0.0436929
0.0436807
0.0436099
0.0435049
0.0434209
0.0433494
0.0432807
0.0432152
0.0431535
0.0430961
0.0430445
0.0430013
0.0429651
0.042934
0.0429105
0.0429009
0.0429282
0.043104
0.0433777
0.0435478
0.0435977
0.0436012
0.0436024
0.0436163
0.0436467
0.0436881
0.0437407
0.0438034
0.0438698
0.0439343
0.0439936
0.0440484
0.044104
0.0441689
0.0442517
0.0443556
0.0444737
0.0445924
0.044701
0.0447978
0.0448877
0.0449769
0.0450693
0.0451653
0.0452643
0.045366
0.0454704
0.0455777
0.0456882
0.0458017
0.045918
0.0460368
0.046158
0.0462814
0.0464067
0.0465338
0.0466623
0.0467921
0.0469229
0.0470544
0.047186
0.0473174
0.047448
0.0475772
0.0477041
0.0478281
0.0479474
0.0480611
0.0481673
0.0482635
0.048348
0.0484143
0.0484623
0.0484863
0.0484834
0.0484319
0.0483379
0.0481756
0.0479465
0.0476028
0.047128
0.0464741
0.0456145
0.0444486
0.042133
0.042133
0.042133
0.042133
0.042133
0.042133
0.042133
0.042133
0.042133
0.042133
0.042133
0.042133
0.042133
0.042133
0.042133
0.042133
0.042133
0.042133
0.042133
0.042133
0.042133
0.042133
0.042133
0.042133
0.042133
0.042133
0.042133
0.042133
0.042133
0.042133
0.042133
0.0421331
0.0421343
0.0421716
0.0424653
0.0430989
0.0435542
0.0437054
0.0436964
0.0436309
0.0435293
0.0434478
0.0433771
0.0433067
0.0432383
0.0431742
0.0431157
0.0430649
0.0430243
0.042992
0.0429648
0.0429445
0.0429367
0.0429691
0.043157
0.0434429
0.0436158
0.0436655
0.0436659
0.0436636
0.0436752
0.0437047
0.0437465
0.0438006
0.0438656
0.0439344
0.0440007
0.0440612
0.0441169
0.0441735
0.0442398
0.0443251
0.0444325
0.0445545
0.044677
0.0447885
0.0448875
0.0449791
0.0450701
0.0451646
0.0452631
0.0453648
0.0454694
0.0455768
0.0456875
0.0458014
0.0459188
0.0460393
0.0461627
0.0462887
0.0464174
0.0465486
0.046682
0.0468174
0.0469547
0.0470937
0.0472342
0.0473759
0.0475183
0.0476612
0.0478041
0.0479464
0.0480875
0.0482265
0.0483624
0.0484935
0.0486189
0.048736
0.0488422
0.0489351
0.0490073
0.0490582
0.0490798
0.0490641
0.0489877
0.0488543
0.0486206
0.0482729
0.0477287
0.0469962
0.0459364
0.042133
0.042133
0.042133
0.042133
0.042133
0.042133
0.042133
0.042133
0.042133
0.042133
0.042133
0.042133
0.042133
0.042133
0.042133
0.042133
0.042133
0.042133
0.042133
0.042133
0.042133
0.042133
0.042133
0.042133
0.042133
0.042133
0.042133
0.042133
0.042133
0.042133
0.042133
0.0421331
0.0421341
0.0421674
0.0424431
0.0430761
0.0435579
0.0437164
0.0437111
0.0436484
0.0435498
0.04347
0.0433994
0.0433269
0.043256
0.0431901
0.0431312
0.0430818
0.0430435
0.0430141
0.04299
0.0429728
0.0429676
0.0430088
0.0432163
0.0435129
0.0436814
0.0437281
0.0437264
0.0437214
0.0437315
0.043761
0.0438035
0.043859
0.043926
0.0439966
0.0440642
0.0441256
0.0441819
0.0442394
0.0443077
0.044396
0.0445073
0.0446333
0.0447587
0.0448722
0.0449724
0.0450652
0.0451576
0.0452537
0.0453543
0.0454583
0.0455654
0.0456755
0.045789
0.045906
0.0460267
0.0461508
0.046278
0.0464083
0.0465415
0.0466776
0.0468163
0.0469575
0.0471011
0.0472469
0.047395
0.047545
0.0476966
0.0478497
0.0480038
0.0481588