/*--------------------------------*- C++ -*----------------------------------*\
| =========                 |                                                 |
| \\      /  F ield         | OpenFOAM: The Open Source CFD Toolbox           |
|  \\    /   O peration     | Version:  2412                                  |
|   \\  /    A nd           | Website:  www.openfoam.com                      |
|    \\/     M anipulation  |                                                 |
\*---------------------------------------------------------------------------*/
FoamFile
{
    version     2.0;
    format      ascii;
    arch        "LSB;label=32;scalar=64";
    class       volScalarField;
    location    "0.088";
    object      T;
}
// * * * * * * * * * * * * * * * * * * * * * * * * * * * * * * * * * * * * * //

dimensions      [0 0 0 1 0 0 0];

internalField   nonuniform List<scalar> 
9859
(
223.134
223.208
223.22
223.224
223.233
223.24
223.239
223.246
223.249
223.212
223.225
223.211
223.183
223.155
223.138
223.137
223.136
223.145
223.168
223.168
223.178
223.189
223.198
223.206
223.211
223.215
223.218
223.221
223.224
223.228
223.232
223.235
223.237
223.238
223.24
223.241
223.243
223.246
223.251
223.257
223.262
223.267
223.27
223.272
223.273
223.274
223.276
223.28
223.285
223.293
223.303
223.316
223.334
223.356
223.381
223.408
223.437
223.471
223.511
223.564
223.628
223.698
223.769
223.842
223.927
224.029
224.143
224.262
224.379
223.138
223.21
223.223
223.227
223.237
223.244
223.241
223.25
223.252
223.216
223.227
223.213
223.184
223.155
223.139
223.138
223.136
223.145
223.167
223.168
223.178
223.19
223.198
223.206
223.212
223.215
223.219
223.222
223.225
223.229
223.233
223.236
223.238
223.24
223.241
223.243
223.245
223.248
223.253
223.259
223.264
223.269
223.272
223.273
223.274
223.275
223.276
223.279
223.284
223.29
223.299
223.311
223.326
223.346
223.37
223.396
223.425
223.456
223.492
223.538
223.597
223.665
223.736
223.806
223.883
223.977
224.085
224.202
224.322
224.439
224.565
224.714
224.879
225.047
225.237
227.018
227.083
227.114
227.123
227.109
227.029
226.892
226.735
226.579
226.435
226.31
226.203
226.11
226.027
225.95
225.876
225.805
225.734
225.663
225.59
225.514
225.435
225.354
225.274
225.2
225.126
225.059
225.001
224.953
224.914
224.883
224.861
224.858
224.86
224.899
224.933
224.962
223.143
223.212
223.226
223.231
223.24
223.249
223.244
223.254
223.255
223.219
223.23
223.214
223.184
223.155
223.139
223.14
223.136
223.145
223.166
223.168
223.178
223.19
223.199
223.207
223.213
223.216
223.22
223.223
223.226
223.23
223.234
223.237
223.239
223.241
223.243
223.245
223.247
223.25
223.255
223.261
223.267
223.271
223.274
223.275
223.275
223.276
223.276
223.279
223.283
223.289
223.296
223.306
223.32
223.337
223.359
223.385
223.413
223.443
223.475
223.515
223.567
223.631
223.702
223.772
223.844
223.928
224.028
224.141
224.261
224.382
224.504
224.644
224.809
224.979
225.162
225.38
225.608
225.835
226.072
226.3
226.504
226.677
226.816
226.916
226.98
227.011
227.019
227.005
226.925
226.792
226.64
226.49
226.35
226.227
226.122
226.031
225.95
225.874
225.802
225.731
225.661
225.59
225.517
225.44
225.36
225.278
225.197
225.123
225.048
224.981
224.924
224.876
224.838
224.807
224.786
224.782
224.782
224.815
224.843
224.834
223.147
223.214
223.229
223.234
223.244
223.252
223.247
223.258
223.257
223.223
223.232
223.215
223.184
223.155
223.14
223.141
223.135
223.145
223.165
223.168
223.178
223.19
223.199
223.207
223.213
223.217
223.221
223.224
223.227
223.231
223.235
223.238
223.241
223.243
223.244
223.246
223.249
223.253
223.258
223.264
223.269
223.274
223.276
223.277
223.277
223.277
223.277
223.278
223.282
223.287
223.294
223.303
223.314
223.329
223.349
223.373
223.401
223.43
223.46
223.494
223.538
223.597
223.666
223.737
223.807
223.884
223.974
224.079
224.197
224.321
224.442
224.574
224.733
224.905
225.083
225.289
225.517
225.745
225.979
226.202
226.404
226.575
226.712
226.811
226.874
226.904
226.912
226.898
226.82
226.69
226.543
226.399
226.263
226.143
226.04
225.951
225.871
225.797
225.726
225.656
225.587
225.516
225.442
225.364
225.283
225.201
225.119
225.044
224.968
224.902
224.845
224.798
224.76
224.729
224.708
224.704
224.701
224.728
224.751
224.7
223.152
223.217
223.232
223.238
223.248
223.256
223.25
223.261
223.259
223.226
223.234
223.215
223.183
223.155
223.14
223.142
223.136
223.145
223.164
223.168
223.178
223.191
223.2
223.208
223.214
223.218
223.221
223.225
223.228
223.232
223.236
223.239
223.242
223.244
223.246
223.248
223.251
223.255
223.26
223.267
223.272
223.276
223.279
223.279
223.279
223.278
223.278
223.278
223.281
223.286
223.292
223.3
223.31
223.322
223.339
223.361
223.388
223.417
223.445
223.476
223.513
223.564
223.629
223.701
223.772
223.843
223.924
224.018
224.13
224.254
224.378
224.504
224.653
224.825
225
225.194
225.418
225.649
225.881
226.099
226.298
226.468
226.604
226.702
226.764
226.794
226.802
226.789
226.713
226.587
226.445
226.306
226.174
226.058
225.957
225.869
225.791
225.718
225.648
225.579
225.51
225.44
225.365
225.287
225.205
225.121
225.039
224.963
224.887
224.822
224.765
224.717
224.679
224.648
224.628
224.622
224.616
224.635
224.652
224.564
223.898
223.158
223.219
223.235
223.242
223.252
223.26
223.253
223.265
223.261
223.229
223.235
223.216
223.183
223.155
223.141
223.143
223.137
223.144
223.163
223.168
223.178
223.191
223.201
223.209
223.215
223.218
223.222
223.226
223.229
223.233
223.237
223.241
223.243
223.246
223.248
223.25
223.253
223.257
223.263
223.269
223.274
223.279
223.281
223.282
223.28
223.279
223.279
223.279
223.281
223.285
223.291
223.298
223.307
223.317
223.331
223.35
223.374
223.403
223.431
223.459
223.492
223.534
223.591
223.659
223.731
223.802
223.877
223.961
224.063
224.184
224.311
224.435
224.573
224.739
224.916
225.102
225.317
225.548
225.774
225.99
226.186
226.355
226.49
226.588
226.65
226.68
226.688
226.676
226.603
226.482
226.346
226.212
226.085
225.971
225.872
225.786
225.709
225.637
225.568
225.5
225.432
225.361
225.286
225.207
225.124
225.04
224.957
224.88
224.804
224.739
224.683
224.635
224.596
224.565
224.546
224.537
224.527
224.54
224.542
224.426
223.72
223.164
223.222
223.238
223.247
223.257
223.264
223.256
223.269
223.263
223.231
223.236
223.215
223.182
223.154
223.141
223.144
223.138
223.144
223.162
223.168
223.179
223.191
223.201
223.209
223.215
223.219
223.223
223.227
223.23
223.234
223.238
223.242
223.245
223.247
223.249
223.252
223.255
223.259
223.266
223.272
223.277
223.282
223.284
223.285
223.283
223.281
223.28
223.279
223.281
223.285
223.29
223.296
223.304
223.313
223.324
223.34
223.361
223.387
223.416
223.444
223.473
223.508
223.554
223.615
223.685
223.757
223.83
223.908
224
224.111
224.238
224.364
224.494
224.648
224.827
225.012
225.216
225.439
225.659
225.874
226.068
226.236
226.371
226.469
226.531
226.562
226.571
226.561
226.492
226.376
226.245
226.116
225.993
225.882
225.785
225.701
225.625
225.554
225.486
225.419
225.351
225.28
225.205
225.125
225.041
224.956
224.872
224.795
224.719
224.655
224.599
224.551
224.512
224.48
224.46
224.449
224.436
224.442
224.424
224.286
223.54
223.17
223.225
223.241
223.251
223.261
223.268
223.26
223.273
223.265
223.234
223.237
223.215
223.182
223.154
223.141
223.144
223.139
223.143
223.161
223.168
223.179
223.192
223.202
223.21
223.216
223.22
223.224
223.227
223.231
223.235
223.239
223.243
223.246
223.249
223.251
223.254
223.257
223.262
223.269
223.275
223.28
223.285
223.288
223.288
223.285
223.283
223.281
223.28
223.281
223.284
223.289
223.295
223.303
223.311
223.321
223.333
223.35
223.373
223.4
223.429
223.457
223.486
223.522
223.571
223.634
223.705
223.78
223.858
223.942
224.041
224.16
224.289
224.415
224.557
224.729
224.915
225.11
225.323
225.539
225.75
225.943
226.11
226.245
226.344
226.408
226.44
226.449
226.442
226.377
226.267
226.142
226.019
225.9
225.791
225.696
225.613
225.538
225.469
225.401
225.335
225.267
225.195
225.119
225.039
224.954
224.869
224.785
224.708
224.632
224.568
224.513
224.465
224.426
224.394
224.372
224.358
224.34
224.34
224.3
224.142
223.358
223.177
223.227
223.245
223.255
223.265
223.272
223.263
223.277
223.268
223.236
223.238
223.214
223.181
223.153
223.141
223.145
223.141
223.143
223.16
223.168
223.18
223.192
223.202
223.211
223.217
223.221
223.225
223.228
223.232
223.236
223.241
223.244
223.248
223.25
223.253
223.256
223.259
223.265
223.271
223.278
223.284
223.288
223.291
223.291
223.288
223.286
223.283
223.282
223.281
223.284
223.288
223.294
223.302
223.31
223.319
223.329
223.342
223.36
223.384
223.412
223.44
223.467
223.496
223.533
223.586
223.652
223.727
223.807
223.889
223.977
224.083
224.208
224.335
224.466
224.623
224.805
224.996
225.2
225.414
225.62
225.811
225.977
226.112
226.213
226.279
226.313
226.323
226.318
226.26
226.156
226.037
225.919
225.804
225.698
225.604
225.523
225.45
225.38
225.313
225.247
225.179
225.107
225.03
224.949
224.864
224.779
224.695
224.617
224.543
224.48
224.425
224.378
224.338
224.306
224.281
224.265
224.241
224.231
224.174
223.994
223.175
223.184
223.23
223.248
223.26
223.269
223.276
223.267
223.28
223.27
223.239
223.238
223.213
223.179
223.153
223.14
223.147
223.141
223.142
223.159
223.168
223.18
223.193
223.203
223.211
223.217
223.222
223.226
223.229
223.233
223.238
223.242
223.246
223.249
223.252
223.255
223.258
223.262
223.267
223.274
223.281
223.287
223.292
223.294
223.295
223.292
223.289
223.285
223.283
223.282
223.284
223.288
223.293
223.301
223.31
223.319
223.328
223.339
223.352
223.37
223.394
223.423
223.45
223.476
223.505
223.547
223.604
223.674
223.753
223.836
223.918
224.01
224.123
224.25
224.378
224.518
224.688
224.875
225.073
225.28
225.482
225.67
225.836
225.972
226.075
226.143
226.18
226.192
226.189
226.138
226.042
225.929
225.815
225.705
225.602
225.51
225.43
225.357
225.289
225.222
225.156
225.087
225.014
224.936
224.854
224.768
224.684
224.601
224.523
224.45
224.388
224.335
224.288
224.248
224.214
224.187
224.167
224.138
224.118
224.047
223.841
222.99
223.192
223.233
223.252
223.265
223.274
223.28
223.271
223.284
223.273
223.242
223.238
223.211
223.178
223.152
223.14
223.148
223.142
223.142
223.158
223.168
223.18
223.194
223.204
223.212
223.218
223.223
223.227
223.23
223.234
223.239
223.243
223.247
223.251
223.253
223.256
223.26
223.264
223.27
223.277
223.284
223.29
223.295
223.298
223.299
223.295
223.292
223.288
223.285
223.284
223.284
223.287
223.292
223.3
223.309
223.319
223.329
223.338
223.348
223.36
223.379
223.404
223.433
223.461
223.488
223.521
223.568
223.627
223.698
223.779
223.861
223.944
224.04
224.158
224.286
224.418
224.571
224.751
224.941
225.139
225.337
225.522
225.687
225.825
225.93
226.001
226.041
226.055
226.055
226.012
225.924
225.817
225.709
225.603
225.503
225.413
225.333
225.261
225.193
225.126
225.059
224.989
224.915
224.836
224.753
224.668
224.585
224.503
224.426
224.354
224.294
224.242
224.195
224.154
224.12
224.09
224.066
224.031
224.001
223.917
223.685
222.804
223.201
223.236
223.255
223.269
223.278
223.284
223.275
223.288
223.277
223.245
223.238
223.21
223.177
223.151
223.14
223.15
223.142
223.141
223.157
223.168
223.181
223.194
223.204
223.213
223.219
223.223
223.227
223.231
223.235
223.24
223.245
223.249
223.252
223.255
223.258
223.262
223.267
223.273
223.28
223.287
223.294
223.299
223.302
223.303
223.299
223.296
223.292
223.288
223.286
223.285
223.288
223.292
223.298
223.307
223.317
223.329
223.339
223.347
223.356
223.369
223.388
223.414
223.446
223.476
223.507
223.544
223.59
223.648
223.718
223.8
223.883
223.967
224.067
224.188
224.317
224.458
224.623
224.805
224.993
225.184
225.366
225.53
225.669
225.777
225.852
225.895
225.912
225.915
225.881
225.801
225.701
225.598
225.497
225.4
225.311
225.233
225.161
225.093
225.025
224.957
224.886
224.81
224.73
224.647
224.562
224.48
224.4
224.324
224.256
224.197
224.146
224.099
224.057
224.021
223.989
223.958
223.919
223.881
223.783
223.523
222.618
223.209
223.24
223.259
223.274
223.283
223.288
223.279
223.293
223.28
223.248
223.238
223.209
223.175
223.151
223.141
223.15
223.141
223.14
223.156
223.167
223.181
223.195
223.205
223.213
223.22
223.224
223.228
223.232
223.236
223.241
223.246
223.25
223.254
223.257
223.26
223.264
223.269
223.276
223.283
223.291
223.298
223.303
223.306
223.307
223.304
223.3
223.295
223.291
223.289
223.287
223.289
223.292
223.297
223.304
223.314
223.326
223.338
223.348
223.356
223.365
223.377
223.397
223.425
223.458
223.491
223.525
223.562
223.606
223.663
223.736
223.818
223.899
223.984
224.088
224.211
224.344
224.493
224.663
224.843
225.026
225.203
225.366
225.505
225.616
225.695
225.742
225.763
225.768
225.743
225.673
225.58
225.482
225.386
225.292
225.205
225.127
225.056
224.987
224.919
224.849
224.777
224.699
224.618
224.535
224.451
224.371
224.293
224.22
224.154
224.098
224.047
223.999
223.957
223.919
223.883
223.846
223.804
223.758
223.645
223.359
222.43
223.218
223.244
223.263
223.279
223.287
223.292
223.285
223.297
223.284
223.252
223.238
223.208
223.174
223.15
223.142
223.15
223.141
223.14
223.155
223.167
223.182
223.195
223.205
223.214
223.22
223.225
223.229
223.233
223.238
223.242
223.247
223.252
223.255
223.259
223.262
223.266
223.272
223.278
223.286
223.294
223.302
223.307
223.311
223.312
223.308
223.304
223.3
223.295
223.292
223.29
223.29
223.293
223.297
223.303
223.311
223.322
223.334
223.347
223.357
223.366
223.374
223.386
223.405
223.431
223.463
223.497
223.534
223.573
223.619
223.677
223.749
223.829
223.909
223.996
224.103
224.228
224.365
224.52
224.69
224.864
225.035
225.194
225.334
225.447
225.531
225.582
225.606
225.615
225.598
225.538
225.453
225.361
225.269
225.179
225.094
225.016
224.945
224.875
224.806
224.735
224.661
224.582
224.5
224.417
224.335
224.258
224.183
224.113
224.051
223.996
223.945
223.896
223.853
223.812
223.774
223.731
223.685
223.631
223.502
223.19
222.241
223.227
223.248
223.266
223.283
223.292
223.296
223.29
223.303
223.288
223.256
223.239
223.206
223.172
223.15
223.143
223.15
223.141
223.139
223.154
223.167
223.182
223.195
223.206
223.214
223.221
223.226
223.23
223.234
223.239
223.244
223.249
223.253
223.257
223.26
223.264
223.269
223.274
223.281
223.289
223.297
223.305
223.312
223.315
223.317
223.313
223.309
223.305
223.3
223.296
223.294
223.293
223.295
223.298
223.303
223.309
223.319
223.329
223.342
223.355
223.367
223.375
223.383
223.393
223.41
223.434
223.464
223.5
223.541
223.585
223.631
223.687
223.757
223.833
223.912
224.003
224.112
224.238
224.38
224.535
224.699
224.862
225.018
225.156
225.272
225.359
225.415
225.443
225.454
225.446
225.397
225.32
225.233
225.146
225.06
224.977
224.9
224.828
224.758
224.687
224.615
224.539
224.459
224.377
224.295
224.216
224.143
224.07
224.005
223.946
223.892
223.841
223.792
223.747
223.704
223.662
223.614
223.565
223.5
223.354
223.017
222.052
223.236
223.253
223.27
223.288
223.297
223.3
223.296
223.308
223.292
223.26
223.24
223.205
223.17
223.149
223.144
223.149
223.14
223.139
223.153
223.167
223.182
223.196
223.207
223.215
223.222
223.226
223.231
223.235
223.24
223.245
223.25
223.255
223.259
223.262
223.266
223.271
223.277
223.284
223.292
223.301
223.309
223.316
223.32
223.322
223.319
223.315
223.31
223.305
223.3
223.298
223.296
223.297
223.301
223.305
223.311
223.318
223.326
223.337
223.349
223.362
223.374
223.383
223.39
223.401
223.417
223.441
223.47
223.506
223.548
223.591
223.637
223.692
223.758
223.831
223.91
224.004
224.115
224.242
224.383
224.534
224.688
224.838
224.974
225.09
225.18
225.241
225.274
225.288
225.286
225.248
225.18
225.1
225.017
224.936
224.854
224.778
224.705
224.634
224.562
224.488
224.412
224.332
224.251
224.172
224.097
224.027
223.959
223.897
223.842
223.789
223.737
223.688
223.641
223.596
223.548
223.496
223.443
223.366
223.202
222.841
221.861
223.245
223.258
223.273
223.292
223.301
223.304
223.303
223.314
223.296
223.264
223.24
223.203
223.168
223.148
223.144
223.148
223.139
223.138
223.153
223.167
223.182
223.196
223.207
223.216
223.222
223.227
223.232
223.236
223.241
223.246
223.251
223.256
223.26
223.264
223.269
223.273
223.28
223.287
223.295
223.305
223.314
223.32
223.325
223.327
223.324
223.32
223.316
223.31
223.305
223.302
223.3
223.301
223.303
223.308
223.314
223.32
223.326
223.334
223.344
223.356
223.368
223.381
223.391
223.401
223.413
223.43
223.451
223.477
223.511
223.551
223.593
223.639
223.691
223.753
223.823
223.903
223.998
224.11
224.236
224.373
224.516
224.658
224.79
224.905
224.997
225.062
225.1
225.117
225.12
225.092
225.034
224.96
224.882
224.805
224.727
224.65
224.577
224.505
224.432
224.358
224.281
224.202
224.124
224.048
223.979
223.913
223.85
223.793
223.74
223.689
223.636
223.586
223.537
223.489
223.436
223.381
223.322
223.232
223.048
222.664
221.671
223.255
223.263
223.276
223.296
223.305
223.308
223.309
223.32
223.301
223.268
223.24
223.201
223.166
223.148
223.145
223.146
223.138
223.138
223.152
223.167
223.183
223.197
223.207
223.216
223.223
223.228
223.232
223.237
223.242
223.247
223.253
223.258
223.262
223.266
223.271
223.276
223.282
223.29
223.299
223.308
223.318
223.325
223.33
223.332
223.33
223.326
223.322
223.316
223.311
223.307
223.305
223.304
223.306
223.31
223.317
223.323
223.329
223.335
223.342
223.351
223.362
223.374
223.387
223.399
223.41
223.423
223.438
223.457
223.482
223.514
223.552
223.592
223.634
223.684
223.742
223.81
223.89
223.986
224.096
224.219
224.349
224.481
224.607
224.719
224.812
224.879
224.921
224.942
224.948
224.931
224.881
224.814
224.742
224.669
224.594
224.519
224.446
224.373
224.3
224.226
224.151
224.074
223.999
223.93
223.865
223.804
223.748
223.695
223.644
223.594
223.54
223.491
223.439
223.388
223.329
223.27
223.202
223.099
222.895
222.486
221.482
223.265
223.267
223.278
223.299
223.309
223.312
223.316
223.327
223.305
223.27
223.239
223.199
223.164
223.146
223.144
223.144
223.137
223.137
223.152
223.167
223.183
223.197
223.208
223.216
223.223
223.228
223.233
223.238
223.243
223.248
223.254
223.259
223.264
223.269
223.273
223.278
223.285
223.293
223.302
223.312
223.322
223.329
223.335
223.337
223.336
223.332
223.328
223.323
223.318
223.313
223.31
223.309
223.309
223.312
223.318
223.325
223.332
223.339
223.345
223.352
223.36
223.369
223.38
223.39
223.401
223.412
223.426
223.443
223.463
223.487
223.516
223.55
223.586
223.625
223.672
223.727
223.793
223.873
223.967
224.074
224.19
224.311
224.428
224.536
224.627
224.696
224.741
224.765
224.773
224.764
224.725
224.665
224.598
224.529
224.458
224.385
224.312
224.241
224.168
224.096
224.023
223.951
223.882
223.818
223.759
223.705
223.654
223.604
223.556
223.506
223.453
223.402
223.349
223.294
223.23
223.167
223.087
222.97
222.747
222.311
221.298
223.276
223.271
223.28
223.302
223.313
223.317
223.324
223.333
223.308
223.272
223.237
223.195
223.161
223.145
223.143
223.142
223.136
223.137
223.152
223.167
223.183
223.197
223.208
223.217
223.223
223.229
223.234
223.239
223.244
223.25
223.255
223.261
223.266
223.271
223.275
223.281
223.287
223.296
223.305
223.316
223.326
223.334
223.34
223.342
223.342
223.339
223.335
223.33
223.325
223.321
223.317
223.315
223.314
223.315
223.319
223.326
223.334
223.342
223.349
223.355
223.361
223.368
223.375
223.384
223.393
223.403
223.416
223.431
223.448
223.467
223.489
223.515
223.544
223.576
223.612
223.656
223.709
223.774
223.852
223.943
224.044
224.151
224.259
224.36
224.447
224.516
224.562
224.588
224.599
224.596
224.566
224.513
224.452
224.388
224.322
224.251
224.181
224.111
224.041
223.972
223.903
223.837
223.774
223.717
223.665
223.617
223.571
223.524
223.478
223.428
223.376
223.324
223.269
223.21
223.141
223.07
222.981
222.847
222.605
222.142
221.117
223.286
223.275
223.282
223.304
223.317
223.322
223.331
223.339
223.31
223.272
223.234
223.192
223.158
223.143
223.141
223.139
223.135
223.137
223.151
223.167
223.183
223.197
223.208
223.217
223.224
223.229
223.234
223.239
223.245
223.251
223.257
223.262
223.268
223.273
223.278
223.283
223.29
223.299
223.309
223.32
223.33
223.339
223.345
223.348
223.348
223.345
223.342
223.337
223.332
223.328
223.325
223.322
223.321
223.32
223.323
223.328
223.334
223.342
223.35
223.358
223.364
223.37
223.375
223.382
223.39
223.399
223.409
223.422
223.436
223.452
223.47
223.489
223.511
223.536
223.564
223.597
223.639
223.69
223.753
223.828
223.914
224.007
224.102
224.194
224.276
224.342
224.389
224.416
224.429
224.43
224.408
224.363
224.307
224.249
224.188
224.122
224.054
223.988
223.922
223.857
223.795
223.735
223.68
223.63
223.585
223.543
223.501
223.457
223.411
223.361
223.311
223.256
223.2
223.134
223.061
222.984
222.886
222.734
222.473
221.983
220.95
223.295
223.278
223.283
223.307
223.321
223.328
223.338
223.345
223.31
223.271
223.23
223.187
223.155
223.141
223.139
223.137
223.133
223.137
223.151
223.167
223.183
223.197
223.208
223.217
223.224
223.229
223.235
223.24
223.246
223.252
223.258
223.264
223.27
223.275
223.28
223.286
223.293
223.302
223.312
223.324
223.334
223.343
223.35
223.353
223.354
223.352
223.349
223.345
223.34
223.336
223.333
223.331
223.329
223.329
223.33
223.332
223.337
223.343
223.35
223.358
223.366
223.372
223.378
223.384
223.391
223.399
223.407
223.417
223.428
223.441
223.455
223.471
223.487
223.505
223.527
223.552
223.583
223.622
223.671
223.731
223.801
223.88
223.962
224.043
224.118
224.18
224.225
224.253
224.267
224.27
224.255
224.217
224.168
224.115
224.059
223.999
223.937
223.875
223.815
223.757
223.701
223.65
223.602
223.559
223.52
223.482
223.444
223.401
223.356
223.307
223.256
223.201
223.141
223.068
222.993
222.91
222.801
222.63
222.35
221.833
220.798
223.305
223.281
223.285
223.31
223.326
223.335
223.345
223.348
223.309
223.268
223.225
223.182
223.151
223.138
223.136
223.134
223.132
223.137
223.151
223.168
223.183
223.197
223.208
223.216
223.224
223.229
223.235
223.24
223.246
223.253
223.259
223.266
223.271
223.277
223.282
223.288
223.296
223.305
223.316
223.327
223.338
223.348
223.355
223.359
223.36
223.359
223.356
223.352
223.348
223.344
223.341
223.338
223.337
223.337
223.338
223.34
223.343
223.348
223.353
223.359
223.366
223.373
223.379
223.386
223.392
223.399
223.406
223.415
223.424
223.434
223.446
223.458
223.471
223.484
223.5
223.518
223.541
223.57
223.607
223.653
223.709
223.773
223.842
223.911
223.977
224.033
224.075
224.102
224.116
224.12
224.111
224.08
224.038
223.991
223.941
223.888
223.832
223.777
223.723
223.673
223.625
223.58
223.54
223.503
223.469
223.435
223.398
223.357
223.313
223.264
223.213
223.154
223.09
223.014
222.937
222.846
222.725
222.538
222.239
221.699
220.655
223.315
223.285
223.288
223.313
223.331
223.341
223.35
223.35
223.306
223.264
223.218
223.176
223.147
223.135
223.133
223.131
223.13
223.137
223.151
223.168
223.183
223.196
223.207
223.216
223.223
223.229
223.235
223.241
223.247
223.254
223.26
223.267
223.273
223.278
223.284
223.29
223.298
223.308
223.319
223.331
223.343
223.353
223.36
223.365
223.366
223.366
223.364
223.36
223.357
223.353
223.35
223.347
223.346
223.346
223.347
223.35
223.353
223.357
223.361
223.365
223.369
223.374
223.38
223.386
223.392
223.399
223.406
223.414
223.422
223.431
223.44
223.45
223.46
223.471
223.482
223.496
223.513
223.534
223.561
223.595
223.638
223.687
223.743
223.8
223.855
223.904
223.942
223.967
223.981
223.986
223.98
223.956
223.92
223.88
223.836
223.791
223.742
223.695
223.649
223.606
223.565
223.528
223.494
223.463
223.432
223.4
223.364
223.323
223.279
223.231
223.176
223.116
223.048
222.972
222.891
222.792
222.657
222.455
222.137
221.578
220.537
223.325
223.288
223.291
223.316
223.336
223.345
223.353
223.35
223.302
223.258
223.21
223.168
223.142
223.132
223.13
223.128
223.128
223.136
223.151
223.167
223.183
223.196
223.207
223.216
223.223
223.229
223.235
223.241
223.247
223.254
223.261
223.268
223.274
223.28
223.286
223.293
223.301
223.311
223.323
223.335
223.347
223.357
223.365
223.37
223.372
223.373
223.371
223.369
223.365
223.362
223.359
223.356
223.355
223.355
223.356
223.359
223.362
223.366
223.369
223.373
223.376
223.38
223.384
223.389
223.394
223.4
223.406
223.414
223.422
223.43
223.438
223.446
223.455
223.463
223.473
223.483
223.495
223.51
223.53
223.555
223.587
223.624
223.666
223.712
223.757
223.797
223.829
223.852
223.865
223.87
223.867
223.848
223.818
223.785
223.749
223.71
223.67
223.63
223.592
223.556
223.523
223.492
223.463
223.435
223.406
223.375
223.339
223.298
223.254
223.204
223.147
223.086
223.015
222.937
222.851
222.743
222.596
222.38
222.043
221.464
220.421
223.335
223.291
223.294
223.319
223.339
223.347
223.354
223.346
223.296
223.249
223.201
223.16
223.136
223.127
223.126
223.125
223.126
223.136
223.151
223.167
223.182
223.195
223.206
223.215
223.222
223.229
223.234
223.24
223.247
223.254
223.262
223.269
223.276
223.282
223.288
223.295
223.304
223.314
223.326
223.339
223.351
223.362
223.37
223.376
223.379
223.379
223.379
223.377
223.374
223.371
223.369
223.367
223.365
223.365
223.366
223.368
223.371
223.375
223.378
223.382
223.385
223.388
223.391
223.394
223.398
223.403
223.408
223.415
223.422
223.43
223.438
223.445
223.452
223.46
223.468
223.477
223.486
223.497
223.512
223.53
223.554
223.581
223.612
223.647
223.682
223.713
223.74
223.759
223.77
223.774
223.773
223.759
223.735
223.708
223.678
223.647
223.615
223.584
223.552
223.523
223.495
223.469
223.443
223.417
223.389
223.358
223.322
223.281
223.234
223.183
223.125
223.062
222.988
222.908
222.815
222.698
222.539
222.31
221.958
221.365
220.325
223.345
223.293
223.297
223.32
223.34
223.347
223.353
223.339
223.287
223.239
223.191
223.152
223.129
223.123
223.122
223.121
223.125
223.135
223.15
223.166
223.181
223.194
223.205
223.214
223.222
223.228
223.234
223.24
223.247
223.255
223.262
223.27
223.277
223.283
223.29
223.297
223.306
223.317
223.329
223.343
223.356
223.367
223.375
223.381
223.385
223.386
223.386
223.385
223.383
223.381
223.378
223.377
223.376
223.375
223.376
223.378
223.38
223.384
223.387
223.391
223.394
223.397
223.4
223.403
223.407
223.41
223.414
223.419
223.425
223.431
223.438
223.445
223.452
223.459
223.467
223.474
223.482
223.492
223.503
223.517
223.534
223.555
223.578
223.603
223.63
223.654
223.674
223.689
223.698
223.701
223.701
223.689
223.671
223.65
223.627
223.603
223.578
223.553
223.528
223.504
223.48
223.456
223.432
223.407
223.379
223.347
223.31
223.268
223.22
223.168
223.108
223.042
222.964
222.881
222.781
222.656
222.485
222.244
221.873
221.266
220.237
223.354
223.293
223.299
223.319
223.338
223.344
223.349
223.329
223.274
223.225
223.179
223.142
223.122
223.117
223.117
223.117
223.122
223.134
223.149
223.164
223.179
223.192
223.204
223.213
223.221
223.227
223.233
223.24
223.247
223.254
223.262
223.27
223.278
223.285
223.292
223.3
223.309
223.32
223.333
223.347
223.36
223.371
223.38
223.387
223.391
223.393
223.394
223.393
223.392
223.39
223.388
223.387
223.386
223.386
223.387
223.389
223.392
223.395
223.398
223.401
223.404
223.406
223.409
223.412
223.414
223.417
223.421
223.425
223.43
223.435
223.441
223.447
223.454
223.462
223.468
223.476
223.483
223.489
223.499
223.512
223.526
223.542
223.56
223.578
223.597
223.615
223.63
223.642
223.648
223.651
223.65
223.641
223.627
223.611
223.594
223.575
223.556
223.537
223.517
223.496
223.474
223.452
223.428
223.403
223.374
223.341
223.303
223.259
223.211
223.157
223.094
223.024
222.944
222.855
222.749
222.614
222.433
222.18
221.796
221.176
220.159
223.362
223.292
223.299
223.315
223.334
223.338
223.34
223.313
223.258
223.209
223.165
223.131
223.115
223.111
223.111
223.112
223.119
223.131
223.147
223.162
223.177
223.19
223.202
223.211
223.219
223.226
223.233
223.239
223.246
223.254
223.262
223.27
223.278
223.286
223.293
223.302
223.312
223.323
223.336
223.35
223.364
223.376
223.385
223.392
223.397
223.4
223.401
223.401
223.401
223.4
223.398
223.398
223.397
223.397
223.399
223.401
223.404
223.407
223.409
223.412
223.415
223.417
223.42
223.422
223.424
223.427
223.43
223.434
223.438
223.443
223.448
223.453
223.458
223.463
223.469
223.475
223.482
223.49
223.499
223.51
223.522
223.537
223.552
223.567
223.582
223.595
223.607
223.615
223.62
223.621
223.62
223.612
223.602
223.59
223.576
223.562
223.547
223.531
223.513
223.494
223.474
223.452
223.428
223.402
223.372
223.338
223.299
223.254
223.203
223.147
223.081
223.005
222.923
222.829
222.716
222.572
222.38
222.115
221.715
221.088
220.087
223.369
223.289
223.297
223.309
223.326
223.326
223.326
223.293
223.238
223.189
223.149
223.12
223.106
223.103
223.103
223.106
223.114
223.127
223.143
223.158
223.173
223.187
223.199
223.209
223.218
223.225
223.231
223.238
223.245
223.253
223.261
223.27
223.278
223.286
223.295
223.304
223.314
223.326
223.34
223.354
223.368
223.38
223.39
223.397
223.403
223.406
223.408
223.409
223.41
223.409
223.409
223.408
223.408
223.409
223.41
223.413
223.416
223.419
223.421
223.424
223.427
223.429
223.431
223.434
223.436
223.439
223.442
223.445
223.448
223.452
223.456
223.461
223.466
223.47
223.475
223.481
223.487
223.495
223.503
223.513
223.525
223.537
223.55
223.564
223.576
223.587
223.596
223.603
223.607
223.608
223.606
223.599
223.591
223.581
223.57
223.558
223.545
223.53
223.514
223.496
223.476
223.454
223.43
223.403
223.373
223.336
223.297
223.25
223.197
223.137
223.068
222.989
222.901
222.802
222.682
222.53
222.329
222.053
221.641
221.007
220.023
223.375
223.283
223.291
223.298
223.313
223.31
223.306
223.268
223.214
223.168
223.132
223.106
223.096
223.094
223.095
223.098
223.108
223.122
223.137
223.153
223.169
223.183
223.195
223.206
223.215
223.222
223.229
223.236
223.244
223.252
223.261
223.269
223.278
223.287
223.296
223.305
223.317
223.329
223.343
223.357
223.372
223.384
223.395
223.403
223.409
223.413
223.416
223.417
223.418
223.419
223.419
223.419
223.42
223.421
223.423
223.425
223.428
223.431
223.434
223.437
223.439
223.442
223.444
223.446
223.449
223.451
223.454
223.457
223.461
223.464
223.468
223.473
223.477
223.481
223.486
223.491
223.497
223.503
223.511
223.519
223.529
223.54
223.552
223.564
223.576
223.586
223.594
223.6
223.604
223.605
223.602
223.596
223.589
223.58
223.57
223.559
223.547
223.533
223.517
223.5
223.48
223.458
223.434
223.406
223.374
223.336
223.295
223.246
223.19
223.127
223.055
222.971
222.88
222.775
222.648
222.487
222.275
221.988
221.565
220.931
219.966
223.378
223.274
223.281
223.28
223.294