/*--------------------------------*- C++ -*----------------------------------*\
| =========                 |                                                 |
| \\      /  F ield         | OpenFOAM: The Open Source CFD Toolbox           |
|  \\    /   O peration     | Version:  2412                                  |
|   \\  /    A nd           | Website:  www.openfoam.com                      |
|    \\/     M anipulation  |                                                 |
\*---------------------------------------------------------------------------*/
FoamFile
{
    version     2.0;
    format      ascii;
    arch        "LSB;label=32;scalar=64";
    class       volScalarField;
    location    "0.106";
    object      T;
}
// * * * * * * * * * * * * * * * * * * * * * * * * * * * * * * * * * * * * * //

dimensions      [0 0 0 1 0 0 0];

internalField   nonuniform List<scalar> 
78650
(
242.493
225.853
224.968
224.833
224.637
224.46
224.274
224.094
223.929
223.787
223.674
223.588
223.523
223.467
223.41
223.34
223.25
223.143
223.029
222.918
222.818
222.727
222.645
222.569
222.5
222.437
222.38
222.326
222.276
222.23
222.188
222.15
222.114
222.08
222.046
222.012
221.978
221.943
221.908
221.873
221.839
221.805
221.772
221.738
221.707
221.676
221.647
221.62
221.594
221.57
221.548
221.529
221.511
221.496
221.482
221.47
221.46
221.45
221.44
221.43
221.421
221.41
221.398
221.385
221.368
221.348
221.324
221.294
221.258
221.214
221.16
221.097
221.022
220.933
220.829
220.707
220.565
220.4
220.21
219.993
219.745
219.463
219.143
218.782
218.374
217.916
217.403
216.83
216.188
215.477
214.693
213.835
212.886
211.853
210.71
209.488
208.164
206.747
205.231
203.584
201.866
200.052
198.182
196.257
194.295
192.326
190.341
188.484
186.638
184.868
183.114
181.448
179.829
178.312
176.996
175.779
174.774
173.966
173.389
173.014
171.458
241.712
225.748
225.029
224.871
224.666
224.484
224.299
224.123
223.958
223.812
223.691
223.598
223.527
223.471
223.417
223.355
223.274
223.173
223.062
222.951
222.85
222.759
222.677
222.601
222.533
222.471
222.415
222.364
222.316
222.271
222.231
222.194
222.161
222.13
222.099
222.068
222.037
222.006
221.975
221.945
221.915
221.886
221.857
221.828
221.801
221.775
221.751
221.728
221.707
221.689
221.672
221.658
221.645
221.636
221.628
221.622
221.618
221.615
221.613
221.611
221.609
221.607
221.605
221.601
221.595
221.586
221.574
221.557
221.535
221.507
221.47
221.425
221.37
221.303
221.222
221.126
221.012
220.878
220.722
220.54
220.332
220.093
219.82
219.51
219.158
218.761
218.311
217.805
217.237
216.606
215.905
215.129
214.264
213.318
212.275
211.161
209.936
208.619
207.193
205.659
204.029
202.325
200.539
198.654
196.68
194.741
192.676
190.694
188.702
186.783
184.935
183.124
181.396
179.737
178.238
176.973
175.971
175.193
174.571
174.106
172.415
240.953
225.625
225.064
224.91
224.696
224.506
224.324
224.152
223.988
223.839
223.711
223.609
223.532
223.473
223.422
223.367
223.295
223.202
223.095
222.985
222.883
222.791
222.709
222.634
222.567
222.506
222.452
222.402
222.356
222.313
222.274
222.24
222.209
222.18
222.153
222.126
222.098
222.071
222.044
222.018
221.992
221.967
221.943
221.919
221.896
221.875
221.856
221.838
221.822
221.808
221.797
221.788
221.781
221.777
221.776
221.776
221.778
221.782
221.787
221.793
221.799
221.806
221.812
221.818
221.822
221.825
221.825
221.821
221.813
221.8
221.78
221.752
221.716
221.669
221.611
221.539
221.451
221.346
221.221
221.073
220.901
220.702
220.472
220.208
219.906
219.563
219.172
218.73
218.233
217.676
217.05
216.352
215.572
214.717
213.773
212.75
211.62
210.408
209.083
207.656
206.127
204.471
202.713
200.923
198.999
197.081
195.103
193.064
191.1
189.109
187.186
185.263
183.329
181.435
179.56
177.848
176.472
175.455
174.869
174.729
173.338
240.268
225.52
225.077
224.92
224.713
224.527
224.347
224.178
224.018
223.868
223.734
223.623
223.537
223.474
223.424
223.375
223.313
223.229
223.128
223.02
222.917
222.825
222.742
222.668
222.601
222.542
222.49
222.442
222.398
222.357
222.32
222.288
222.259
222.233
222.208
222.184
222.161
222.137
222.114
222.092
222.071
222.05
222.03
222.011
221.993
221.976
221.962
221.949
221.938
221.93
221.923
221.92
221.919
221.92
221.924
221.931
221.939
221.95
221.961
221.975
221.989
222.004
222.019
222.034
222.048
222.061
222.072
222.081
222.086
222.087
222.083
222.072
222.054
222.026
221.989
221.94
221.878
221.801
221.706
221.591
221.454
221.293
221.105
220.887
220.636
220.346
220.015
219.636
219.206
218.72
218.17
217.553
216.863
216.103
215.259
214.334
213.303
212.185
210.95
209.624
208.186
206.644
204.996
203.246
201.404
199.393
197.451
195.324
193.279
191.197
189.179
187.309
185.48
183.7
181.903
180.097
178.408
176.897
175.767
175.101
173.116
239.521
225.435
225.053
224.907
224.711
224.533
224.364
224.203
224.05
223.901
223.761
223.64
223.544
223.475
223.425
223.38
223.327
223.254
223.161
223.056
222.954
222.86
222.777
222.703
222.637
222.579
222.528
222.483
222.441
222.403
222.368
222.337
222.311
222.287
222.266
222.245
222.225
222.205
222.186
222.168
222.151
222.135
222.12
222.106
222.092
222.08
222.071
222.063
222.057
222.053
222.052
222.054
222.058
222.065
222.075
222.087
222.102
222.119
222.138
222.158
222.18
222.203
222.227
222.251
222.275
222.299
222.321
222.341
222.359
222.374
222.384
222.389
222.388
222.38
222.363
222.336
222.298
222.246
222.179
222.094
221.99
221.865
221.715
221.539
221.333
221.093
220.814
220.494
220.127
219.709
219.235
218.701
218.1
217.432
216.679
215.844
214.909
213.892
212.767
211.554
210.225
208.791
207.253
205.555
203.832
201.917
199.99
197.912
195.761
193.614
191.36
189.185
187.103
185.112
183.299
181.657
180.18
178.927
177.827
176.971
174.64
238.719
225.396
225.023
224.883
224.702
224.533
224.377
224.229
224.082
223.935
223.792
223.661
223.554
223.477
223.424
223.382
223.337
223.275
223.192
223.093
222.992
222.897
222.813
222.74
222.674
222.617
222.568
222.525
222.486
222.45
222.418
222.389
222.365
222.344
222.325
222.308
222.292
222.276
222.261
222.247
222.234
222.223
222.212
222.202
222.194
222.187
222.181
222.179
222.178
222.18
222.184
222.19
222.2
222.212
222.228
222.246
222.267
222.291
222.316
222.344
222.373
222.404
222.436
222.469
222.502
222.535
222.568
222.6
222.63
222.658
222.682
222.702
222.717
222.727
222.729
222.723
222.708
222.681
222.641
222.585
222.513
222.422
222.31
222.175
222.013
221.821
221.596
221.333
221.028
220.677
220.273
219.815
219.293
218.704
218.037
217.293
216.46
215.546
214.528
213.419
212.189
210.859
209.415
207.869
206.196
204.445
202.513
200.589
198.48
196.423
194.248
192.016
189.788
187.482
185.195
183.083
181.215
179.734
178.717
178.053
175.717
237.829
225.356
224.999
224.861
224.689
224.526
224.379
224.245
224.112
223.971
223.826
223.687
223.567
223.48
223.423
223.382
223.344
223.293
223.221
223.13
223.031
222.936
222.852
222.778
222.713
222.656
222.608
222.567
222.531
222.499
222.469
222.443
222.421
222.403
222.388
222.374
222.361
222.349
222.337
222.327
222.319
222.312
222.306
222.301
222.297
222.295
222.295
222.297
222.302
222.308
222.317
222.329
222.344
222.362
222.383
222.408
222.435
222.464
222.497
222.531
222.568
222.606
222.646
222.688
222.73
222.773
222.816
222.859
222.901
222.941
222.979
223.014
223.045
223.071
223.091
223.104
223.11
223.107
223.092
223.065
223.021
222.962
222.884
222.786
222.665
222.517
222.34
222.129
221.88
221.59
221.254
220.868
220.426
219.923
219.35
218.706
217.981
217.176
216.271
215.273
214.159
212.944
211.603
210.154
208.588
206.895
205.055
203.12
201.062
198.915
196.807
194.597
192.436
190.308
188.072
185.865
183.739
181.793
180.32
179.301
176.42
236.88
225.382
224.972
224.83
224.664
224.508
224.368
224.245
224.13
224.004
223.864
223.719
223.587
223.487
223.423
223.381
223.347
223.306
223.246
223.166
223.072
222.978
222.892
222.817
222.753
222.697
222.65
222.611
222.578
222.548
222.522
222.499
222.48
222.465
222.452
222.441
222.432
222.424
222.416
222.41
222.406
222.403
222.402
222.402
222.403
222.406
222.411
222.418
222.427
222.439
222.453
222.471
222.491
222.514
222.541
222.571
222.604
222.64
222.679
222.72
222.763
222.809
222.857
222.907
222.958
223.01
223.063
223.116
223.169
223.222
223.272
223.321
223.367
223.409
223.447
223.479
223.504
223.522
223.53
223.53
223.515
223.487
223.442
223.38
223.298
223.193
223.063
222.903
222.71
222.48
222.208
221.892
221.524
221.1
220.612
220.06
219.431
218.724
217.922
217.028
216.026
214.93
213.719
212.398
210.943
209.368
207.68
205.796
203.872
201.705
199.543
197.233
194.876
192.58
190.35
188.081
186.005
184.077
182.4
181.185
178.222
235.872
225.398
224.955
224.777
224.61
224.463
224.339
224.234
224.133
224.028
223.901
223.758
223.616
223.502
223.426
223.382
223.35
223.316
223.268
223.199
223.113
223.021
222.934
222.859
222.794
222.738
222.693
222.655
222.625
222.599
222.576
222.556
222.54
222.528
222.518
222.511
222.505
222.5
222.497
222.495
222.494
222.496
222.5
222.505
222.511
222.518
222.528
222.54
222.555
222.572
222.591
222.614
222.639
222.668
222.7
222.736
222.775
222.817
222.862
222.91
222.96
223.013
223.069
223.126
223.186
223.247
223.31
223.373
223.437
223.501
223.564
223.626
223.686
223.743
223.797
223.846
223.891
223.93
223.96
223.982
223.994
223.995
223.981
223.952
223.905
223.839
223.751
223.638
223.494
223.319
223.107
222.856
222.559
222.213
221.811
221.348
220.815
220.207
219.513
218.735
217.858
216.884
215.791
214.586
213.248
211.787
210.192
208.481
206.64
204.663
202.486
200.25
197.911
195.414
193.036
190.571
188.173
186.187
184.346
182.885
179.17
234.809
225.363
224.935
224.738
224.558
224.408
224.294
224.204
224.12
224.03
223.927
223.798
223.654
223.528
223.438
223.385
223.352
223.323
223.285
223.229
223.153
223.065
222.979
222.902
222.837
222.781
222.736
222.701
222.673
222.65
222.631
222.615
222.602
222.593
222.586
222.582
222.58
222.579
222.579
222.581
222.585
222.591
222.599
222.609
222.62
222.632
222.647
222.664
222.683
222.706
222.73
222.758
222.788
222.823
222.86
222.901
222.946
222.994
223.045
223.1
223.157
223.217
223.28
223.345
223.413
223.482
223.554
223.627
223.701
223.775
223.85
223.925
223.998
224.07
224.139
224.205
224.268
224.325
224.377
224.423
224.459
224.485
224.5
224.504
224.492
224.464
224.416
224.347
224.253
224.13
223.975
223.785
223.555
223.282
222.956
222.577
222.132
221.621
221.033
220.367
219.607
218.752
217.782
216.701
215.493
214.17
212.708
211.11
209.371
207.501
205.447
203.25
201.007
198.63
196.073
193.713
191.102
188.751
186.857
185.44
181.67
233.689
225.411
224.96
224.713
224.505
224.347
224.234
224.153
224.087
224.017
223.931
223.825
223.695
223.566
223.463
223.396
223.357
223.33
223.3
223.257
223.192
223.11
223.025
222.947
222.88
222.825
222.781
222.747
222.721
222.701
222.686
222.673
222.665
222.659
222.656
222.655
222.656
222.659
222.663
222.669
222.677
222.687
222.699
222.713
222.729
222.747
222.766
222.788
222.813
222.84
222.87
222.902
222.938
222.978
223.021
223.067
223.117
223.171
223.229
223.289
223.353
223.42
223.49
223.563
223.638
223.716
223.796
223.878
223.962
224.047
224.133
224.219
224.305
224.391
224.475
224.557
224.636
224.712
224.783
224.849
224.909
224.96
225.002
225.032
225.051
225.058
225.048
225.019
224.97
224.894
224.792
224.659
224.491
224.286
224.036
223.737
223.382
222.967
222.482
221.924
221.278
220.54
219.696
218.748
217.681
216.498
215.174
213.714
212.096
210.332
208.434
206.329
204.035
201.735
199.247
196.661
194.153
191.652
189.34
187.528
183.416
232.528
225.372
224.997
224.705
224.457
224.277
224.159
224.086
224.037
223.99
223.925
223.834
223.724
223.603
223.496
223.418
223.369
223.34
223.315
223.281
223.228
223.156
223.073
222.995
222.927
222.87
222.826
222.794
222.77
222.753
222.741
222.732
222.727
222.725
222.726
222.729
222.734
222.74
222.748
222.757
222.769
222.783
222.8
222.819
222.839
222.861
222.886
222.913
222.942
222.975
223.009
223.047
223.088
223.133
223.181
223.233
223.288
223.348
223.411
223.478
223.548
223.621
223.698
223.778
223.861
223.946
224.035
224.126
224.219
224.314
224.41
224.507
224.605
224.703
224.801
224.897
224.992
225.085
225.175
225.261
225.341
225.416
225.483
225.542
225.59
225.627
225.651
225.661
225.655
225.626
225.573
225.493
225.384
225.241
225.06
224.835
224.561
224.233
223.843
223.386
222.848
222.229
221.515
220.704
219.781
218.738
217.552
216.232
214.757
213.137
211.344
209.392
207.271
204.907
202.503
199.777
197.126
194.616
192.224
190.26
185.562
231.343
225.301
224.999
224.69
224.418
224.217
224.086
224.01
223.968
223.937
223.895
223.825
223.729
223.623
223.524
223.445
223.39
223.356
223.331
223.303
223.262
223.2
223.123
223.044
222.974
222.916
222.872
222.841
222.819
222.805
222.795
222.791
222.79
222.792
222.797
222.804
222.812
222.822
222.833
222.846
222.862
222.88
222.901
222.924
222.949
222.976
223.005
223.037
223.071
223.108
223.148
223.191
223.237
223.287
223.34
223.397
223.458
223.523
223.592
223.664
223.74
223.82
223.903
223.99
224.08
224.173
224.27
224.369
224.471
224.575
224.681
224.789
224.898
225.008
225.118
225.229
225.338
225.447
225.553
225.657
225.758
225.854
225.944
226.028
226.103
226.169
226.225
226.268
226.297
226.31
226.305
226.274
226.219
226.134
226.017
225.864
225.667
225.424
225.125
224.767
224.337
223.835
223.245
222.564
221.772
220.864
219.822
218.651
217.329
215.869
214.237
212.434
210.442
208.26
205.906
203.384
200.651
198.082
195.661
193.662
188.999
230.162
225.164
224.953
224.681
224.406
224.19
224.039
223.946
223.896
223.869
223.842
223.795
223.719
223.625
223.536
223.463
223.41
223.375
223.35
223.327
223.296
223.245
223.174
223.095
223.023
222.964
222.919
222.888
222.868
222.856
222.85
222.849
222.853
222.858
222.867
222.878
222.89
222.904
222.919
222.935
222.954
222.976
223.001
223.029
223.058
223.09
223.124
223.16
223.199
223.241
223.286
223.333
223.384
223.439
223.497
223.559
223.625
223.695
223.769
223.848
223.93
224.015
224.105
224.198
224.295
224.395
224.499
224.606
224.716
224.829
224.944
225.062
225.182
225.303
225.425
225.548
225.671
225.794
225.916
226.037
226.156
226.272
226.384
226.491
226.591
226.684
226.77
226.846
226.91
226.96
226.994
227.009
227.007
226.976
226.919
226.828
226.702
226.535
226.32
226.053
225.724
225.33
224.856
224.296
223.636
222.87
221.986
220.979
219.826
218.524
217.042
215.398
213.557
211.522
209.273
206.822
204.142
201.354
198.653
196.374
191.44
229.029
224.935
224.881
224.684
224.414
224.184
224.012
223.896
223.828
223.793
223.77
223.74
223.687
223.612
223.533
223.465
223.416
223.383
223.362
223.347
223.327
223.289
223.227
223.15
223.075
223.013
222.966
222.935
222.916
222.907
222.904
222.907
222.914
222.923
222.936
222.952
222.968
222.985
223.004
223.024
223.046
223.072
223.101
223.133
223.167
223.203
223.241
223.281
223.325
223.372
223.421
223.474
223.529
223.589
223.652
223.719
223.789
223.865
223.944
224.028
224.115
224.207
224.302
224.402
224.505
224.612
224.723
224.837
224.955
225.076
225.2
225.327
225.456
225.588
225.721
225.856
225.992
226.128
226.265
226.402
226.537
226.671
226.803
226.93
227.054
227.172
227.283
227.388
227.483
227.569
227.641
227.696
227.735
227.754
227.755
227.724
227.665
227.568
227.432
227.25
227.015
226.723
226.359
225.919
225.391
224.77
224.041
223.192
222.203
221.068
219.761
218.293
216.631
214.784
212.719
210.432
207.979
205.345
202.566
200.159
194.927
228.034
224.675
224.767
224.659
224.417
224.177
223.991
223.858
223.771
223.72
223.689
223.663
223.627
223.573
223.51
223.452
223.409
223.38
223.363
223.355
223.346
223.325
223.277
223.206
223.13
223.063
223.014
222.982
222.965
222.957
222.956
222.964
222.975
222.988
223.005
223.025
223.045
223.066
223.089
223.112
223.138
223.167
223.199
223.235
223.273
223.314
223.356
223.401
223.449
223.5
223.554
223.611
223.671
223.735
223.803
223.875
223.95
224.031
224.115
224.204
224.297
224.393
224.495
224.6
224.709
224.823
224.94
225.061
225.186
225.315
225.447
225.582
225.721
225.862
226.005
226.151
226.298
226.447
226.597
226.748
226.899
227.049
227.198
227.346
227.49
227.63
227.766
227.897
228.022
228.138
228.245
228.339
228.42
228.483
228.528
228.552
228.554
228.522
228.459
228.355
228.206
228.007
227.747
227.423
227.02
226.534
225.946
225.243
224.409
223.437
222.306
221.014
219.522
217.838
215.915
213.781
211.409
208.864
206.14
203.871
199.212
227.237
224.379
224.564
224.55
224.397
224.17
223.974
223.829
223.726
223.657
223.611
223.579
223.549
223.512
223.467
223.422
223.389
223.364
223.354
223.35
223.352
223.347
223.318
223.261
223.187
223.117
223.063
223.029
223.012
223.006
223.008
223.02
223.035
223.051
223.072
223.095
223.12
223.146
223.172
223.199
223.228
223.261
223.296
223.336
223.378
223.423
223.469
223.518
223.57
223.625
223.684
223.745
223.81
223.879
223.951
224.027
224.107
224.192
224.281
224.375
224.473
224.575
224.681
224.792
224.907
225.027
225.15
225.278
225.41
225.546
225.685
225.828
225.975
226.125
226.278
226.434
226.592
226.752
226.914
227.077
227.242
227.408
227.573
227.738
227.901
228.062
228.22
228.374
228.524
228.669
228.806
228.934
229.051
229.155
229.245
229.317
229.368
229.397
229.402
229.37
229.302
229.189
229.024
228.805
228.516
228.151
227.694
227.136
226.464
225.666
224.719
223.615
222.321
220.839
219.123
217.184
214.989
212.554
209.951
207.248
202.312
226.633
224.021
224.27
224.364
224.314
224.144
223.958
223.814
223.703
223.618
223.554
223.505
223.467
223.433
223.401
223.37
223.349
223.334
223.334
223.339
223.349
223.353
223.341
223.304
223.241
223.171
223.113
223.076
223.06
223.054
223.058
223.075
223.093
223.113
223.138
223.165
223.195
223.224
223.254
223.285
223.318
223.353
223.392
223.435
223.481
223.529
223.58
223.633
223.689
223.748
223.811
223.876
223.945
224.018
224.095
224.175
224.26
224.349
224.443
224.541
224.644
224.751
224.862
224.978
225.099
225.224
225.353
225.487
225.625
225.767
225.913
226.064
226.218
226.376
226.538
226.702
226.87
227.041
227.214
227.389
227.566
227.745
227.925
228.105
228.285
228.465
228.642
228.818
228.991
229.161
229.326
229.484
229.635
229.775
229.904
230.02
230.121
230.2
230.259
230.291
230.298
230.263
230.188
230.064
229.881
229.634
229.308
228.896
228.383
227.755
226.99
226.076
224.988
223.717
222.226
220.513
218.533
216.378
213.973
211.549
207.091
226.231
223.65
223.9
224.098
224.159
224.1
223.95
223.812
223.696
223.603
223.523
223.456
223.4
223.357
223.325
223.302
223.29
223.287
223.296
223.313
223.333
223.347
223.348
223.332
223.287
223.223
223.164
223.124
223.106
223.102
223.108
223.128
223.15
223.174
223.202
223.233
223.266
223.3
223.334
223.369
223.405
223.443
223.485
223.531
223.581
223.633
223.687
223.744
223.804
223.867
223.934
224.003
224.076
224.153
224.234
224.319
224.408
224.501
224.599
224.702
224.809
224.92
225.036
225.157
225.283
225.413
225.548
225.687
225.831
225.979
226.132
226.289
226.45
226.616
226.785
226.958
227.135
227.315
227.497
227.683
227.872
228.063
228.256
228.45
228.646
228.841
229.036
229.231
229.425
229.617
229.806
229.991
230.17
230.343
230.507
230.661
230.804
230.932
231.043
231.131
231.197
231.234
231.242
231.205
231.121
230.98
230.773
230.492
230.12
229.644
229.044
228.305
227.4
226.316
225.021
223.501
221.719
219.714
217.373
214.952
210.889
226.02
223.334
223.498
223.76
223.944
223.988
223.927
223.815
223.704
223.606
223.516
223.434
223.362
223.301
223.254
223.226
223.218
223.222
223.241
223.272
223.307
223.336
223.346
223.34
223.314
223.266
223.211
223.17
223.152
223.148
223.156
223.181
223.206
223.233
223.265
223.3
223.337
223.375
223.413
223.451
223.49
223.532
223.577
223.626
223.679
223.734
223.792
223.853
223.916
223.983
224.053
224.127
224.204
224.284
224.369
224.458
224.551
224.648
224.75
224.857
224.968
225.084
225.205
225.33
225.46
225.595
225.735
225.879
226.028
226.182
226.341
226.504
226.671
226.843
227.02
227.2
227.385
227.573
227.765
227.96
228.159
228.36
228.565
228.772
228.981
229.191
229.402
229.613
229.825
230.036
230.247
230.455
230.661
230.861
231.056
231.245
231.424
231.593
231.75
231.89
232.013
232.111
232.183
232.224
232.231
232.188
232.092
231.931
231.692
231.363
230.928
230.368
229.66
228.789
227.722
226.434
224.9
223.106
221.042
218.707
215.161
225.934
223.089
223.141
223.364
223.647
223.817
223.855
223.806
223.709
223.614
223.52
223.433
223.354
223.283
223.219
223.169
223.148
223.151
223.172
223.212
223.263
223.309
223.331
223.335
223.325
223.296
223.252
223.214
223.195
223.192
223.204
223.232
223.26
223.291
223.326
223.365
223.406
223.447
223.489
223.53
223.573
223.618
223.666
223.717
223.773
223.832
223.894
223.958
224.024
224.095
224.168
224.246
224.326
224.41
224.499
224.591
224.688
224.789
224.895
225.006
225.121
225.241
225.366
225.495
225.63
225.769
225.913
226.062
226.217
226.375
226.539
226.708
226.881
227.06
227.242
227.43
227.621
227.817
228.017
228.22
228.428
228.639
228.854
229.072
229.292
229.515
229.74
229.966
230.194
230.422
230.652
230.88
231.108
231.333
231.555
231.772
231.984
232.189
232.385
232.57
232.741
232.895
233.03
233.137
233.217
233.261
233.268
233.216
233.103
232.91
232.628
232.237
231.717
231.046
230.191
229.136
227.845
226.277
224.45
222.227
219.067
225.944
222.955
222.871
222.987
223.279
223.57
223.73
223.757
223.703
223.62
223.527
223.439
223.357
223.283
223.215
223.152
223.106
223.092
223.104
223.142
223.201
223.265
223.308
223.324
223.324
223.309
223.282
223.251
223.235
223.234
223.25
223.281
223.313
223.348
223.386
223.428
223.473
223.518
223.563
223.608
223.654
223.702
223.752
223.807
223.866
223.928
223.992
224.059
224.129
224.203
224.28
224.361
224.445
224.533
224.624
224.72
224.821
224.926
225.035
225.149
225.268
225.392
225.521
225.654
225.793
225.936
226.084
226.238
226.397
226.56
226.729
226.902
227.081
227.265
227.453
227.646
227.844
228.047
228.253
228.465
228.68
228.9
229.123
229.351
229.582
229.816
230.052
230.291
230.533
230.776
231.021
231.268
231.514
231.76
232.005
232.248
232.488
232.724
232.954
233.176
233.389
233.591
233.778
233.947
234.095
234.212
234.298
234.343
234.347
234.278
234.142
233.907
233.566
233.088
232.442
231.603
230.518
229.166
227.568
225.581
222.775
225.998
222.875
222.712
222.713
222.909
223.249
223.537
223.66
223.668
223.616
223.531
223.448
223.366
223.289
223.218
223.153
223.097
223.063
223.056
223.077
223.131
223.207
223.269
223.302
223.312
223.311
223.299
223.282
223.271
223.274
223.295
223.328
223.364
223.403
223.444
223.49
223.538
223.586
223.635
223.683
223.732
223.782
223.836
223.893
223.955
224.02
224.088
224.158
224.231
224.308
224.388
224.472
224.559
224.65
224.745
224.845
224.948
225.057
225.169
225.287
225.41
225.537
225.669
225.806
225.948
226.095
226.248
226.405
226.568
226.735
226.908
227.086
227.27
227.458
227.652
227.85
228.054
228.262
228.475
228.693
228.915
229.142
229.374
229.609
229.849
230.093
230.34
230.59
230.843
231.099
231.358
231.62
231.883
232.147
232.411
232.676
232.939
233.201
233.46
233.714
233.963
234.205
234.437
234.657
234.861
235.046
235.207
235.334
235.427
235.473
235.474
235.38
235.209
234.912
234.482
233.882
233.053
231.968
230.583
228.792
226.252
226.049
222.838
222.604
222.519
222.606
222.904
223.276
223.51
223.592
223.581
223.523
223.452
223.378
223.306
223.231
223.161
223.098
223.055
223.034
223.035
223.069
223.141
223.217
223.27
223.295
223.304
223.305
223.303
223.301
223.311
223.337
223.374
223.414
223.456
223.501
223.55
223.601
223.653
223.705
223.756
223.808
223.861
223.917
223.977
224.042
224.11
224.18
224.253
224.329
224.409
224.492
224.579
224.669
224.763
224.862
224.964
225.071
225.182
225.298
225.419
225.545
225.676
225.811
225.951
226.097
226.248
226.403
226.565
226.731
226.902
227.079
227.261
227.449
227.642
227.84
228.043
228.251
228.465
228.684
228.907
229.136
229.369
229.607
229.85
230.098
230.35
230.605
230.865
231.129
231.396
231.666
231.94
232.217
232.496
232.777
233.06
233.343
233.626
233.909
234.191
234.47
234.745
235.015
235.277
235.529
235.769
235.993
236.195
236.372
236.508
236.607
236.65
236.632
236.501
236.27
235.885
235.3
234.484
233.333
231.799
229.514
226.088
222.826
222.53
222.383
222.389
222.582
222.965
223.306
223.472
223.514
223.489
223.44
223.383
223.326
223.254
223.178
223.107
223.053
223.022
223.015
223.029
223.083
223.161
223.227
223.269
223.292
223.305
223.315
223.326
223.345
223.377
223.418
223.462
223.508
223.557
223.609
223.663
223.718
223.772
223.826
223.88
223.936
223.995
224.058
224.125
224.196
224.269
224.345
224.423
224.506
224.592
224.682
224.775
224.872
224.973
225.079
225.189
225.303
225.422
225.546
225.675
225.809
225.947
226.09
226.239
226.393
226.552
226.716
226.886
227.061
227.241
227.427
227.618
227.815
228.017
228.225
228.437
228.656
228.879
229.108
229.341
229.58
229.824
230.074
230.328
230.587
230.85
231.118
231.39
231.666
231.947
232.232
232.52
232.812
233.107
233.404
233.704
234.006
234.309
234.613
234.916
235.219
235.52
235.817
236.109
236.394
236.669
236.931
237.175
237.397
237.589
237.738
237.844
237.883
237.843
237.67
237.348
236.815
235.917
234.691
232.622
226.079
222.803
222.478
222.279
222.227
222.324
222.652
223.054
223.312
223.41
223.427
223.409
223.375
223.336
223.279
223.207
223.128
223.06
223.016
223.001
223.005
223.044
223.113
223.183
223.239
223.275
223.301
223.322
223.345
223.375
223.414
223.46
223.508
223.558
223.61
223.666
223.723
223.78
223.837
223.894
223.951
224.009
224.071
224.137
224.206
224.279
224.355
224.433
224.514
224.6
224.689
224.781
224.877
224.977
225.081
225.189
225.302
225.419
225.541
225.668
225.799
225.936
226.077
226.223
226.375
226.532
226.694
226.861
227.034
227.212
227.396
227.585
227.78
227.98
228.185
228.397
228.613
228.836
229.063
229.296
229.535
229.779
230.028
230.282
230.542
230.807
231.077
231.352
231.632
231.916
232.205
232.499
232.797
233.099
233.406
233.716
234.029
234.346
234.666
234.988
235.312
235.637
235.963
236.289
236.614
236.935
237.252
237.563
237.863
238.151
238.42
238.666
238.876
239.034
239.13
239.148
239.062
238.808
238.217
237.403
235.639
226.027
222.761
222.432
222.194
222.104
222.135
222.37
222.779
223.114
223.279
223.338
223.353
223.352
223.337
223.296
223.237
223.16
223.078
223.019
222.992
222.989
223.014
223.075
223.147
223.21
223.257
223.294
223.326
223.361
223.401
223.448
223.499
223.552
223.606
223.662
223.721
223.781
223.841
223.9
223.959
224.018
224.08
224.144
224.212
224.284
224.36
224.438
224.518
224.602
224.69
224.782
224.877
224.975
225.078
225.184
225.295
225.411
225.53
225.655
225.784
225.919
226.058
226.202
226.351
226.505
226.665
226.829
227
227.175
227.356
227.543
227.735
227.933
228.136
228.345
228.56
228.78
229.006
229.237
229.474
229.717
229.965
230.219
230.479
230.744
231.014
231.29
231.571
231.856
232.148
232.444
232.745
233.052
233.363
233.68
234
234.325
234.654
234.988
235.325
235.665
236.009
236.356
236.705
237.055
237.406
237.756
238.105
238.45
238.79
239.119
239.436
239.733
240.005
240.226
240.391
240.502
240.527
240.268
239.868
238.643
225.952
222.708
222.382
222.122
222.003
221.992
222.135
222.508
222.895
223.127
223.233
223.282
223.311
223.322
223.303
223.259
223.193
223.106
223.03
222.988
222.98
222.994
223.048
223.118
223.185
223.241
223.287
223.329
223.374
223.425
223.481
223.538
223.595
223.653
223.712
223.774
223.837
223.899
223.961
224.022
224.083
224.147
224.214
224.285
224.359
224.437
224.517
224.6
224.687
224.777
224.871
224.969
225.07
225.175
225.284
225.397
225.515
225.637
225.764
225.896
226.033
226.175
226.321
226.473
226.629
226.792
226.959
227.132
227.31
227.494
227.683
227.878
228.079
228.285
228.497
228.715
228.938
229.167
229.402
229.643
229.89
230.142
230.4
230.663
230.933
231.208
231.489
231.775
232.067
232.364
232.666
232.975
233.288
233.608
233.932
234.262
234.596
234.936
235.281
235.63
235.985
236.344
236.707
237.074
237.445
237.819
238.197
238.575
238.955
239.335
239.712
240.084
240.448
240.801
241.126
241.418
241.659
241.867
241.971
241.854
241.357
225.852
222.639
222.324
222.056
221.915
221.873
221.951
222.265
222.676
222.965
223.118
223.202
223.26
223.294
223.299
223.269
223.22
223.139
223.049
222.991
222.976
222.984
223.031
223.099
223.169
223.23
223.283
223.334
223.389
223.449
223.512
223.575
223.636
223.698
223.761
223.825
223.89
223.955
224.019
224.082
224.146
224.212
224.281
224.355
224.432
224.512
224.594
224.679
224.768
224.86
224.957
225.057
225.16
225.267
225.379
225.495
225.615
225.739
225.869
226.003
226.142
226.286
226.435
226.589
226.748
226.913
227.083
227.258
227.439
227.625
227.817
228.015
228.218
228.427
228.642
228.862
229.089
229.322
229.56
229.804
230.054
230.31
230.572
230.839
231.113
231.393
231.678
231.969
232.266
232.568
232.877
233.191
233.511
233.837
234.169
234.506
234.849
235.198
235.552
235.913
236.278
236.65
237.026
237.408
237.796
238.188
238.586
238.988
239.394
239.803
240.214
240.626
241.038
241.446
241.843
242.227
242.584
242.921
243.229
243.393
243.465
225.718
222.565
222.253
221.991
221.835
221.771
221.808
222.057
222.47
222.803
223
223.117
223.201
223.259
223.285
223.273
223.234
223.166
223.073
223.001
222.978
222.982
223.022
223.09
223.16
223.225
223.283
223.342
223.404
223.472
223.542
223.61
223.676
223.741
223.807
223.875
223.942
224.008
224.074
224.139
224.205
224.273
224.345
224.421
224.501
224.583
224.667
224.754
224.845
224.94
225.039
225.141
225.247
225.356
225.47
225.588
225.71
225.837
225.969
226.105
226.247
226.393
226.544
226.7
226.862
227.029
227.201
227.379
227.562
227.75
227.945
228.145
228.351
228.562
228.78
229.003
229.232
229.468
229.709
229.956
230.21
230.469
230.734
231.006
231.283
231.567
231.857
232.152
232.454
232.761
233.074
233.394
233.72
234.052
234.39
234.734
235.085
235.441
235.804
236.173
236.548
236.929
237.316
237.71
238.11
238.517
238.929
239.348
239.772
240.201
240.636
241.074
241.517
241.959
242.399
242.832
243.25
243.665
244.05
244.35
244.652
225.546
222.478
222.173
221.925
221.76
221.679
221.693
221.883
222.284
222.65
222.885
223.032
223.139
223.22
223.262
223.267
223.237
223.183
223.097
223.017
222.984
222.986
223.021
223.088
223.16
223.227
223.289
223.353
223.422
223.496
223.571
223.644
223.714
223.783
223.852
223.922
223.991
224.059
224.127
224.193
224.262
224.332
224.407
224.485
224.567
224.651
224.737
224.826
224.919
225.017
225.117
225.222
225.329
225.441
225.557
225.677
225.801
225.931
226.064
226.203
226.346
226.495
226.648