/*--------------------------------*- C++ -*----------------------------------*\
| =========                 |                                                 |
| \\      /  F ield         | OpenFOAM: The Open Source CFD Toolbox           |
|  \\    /   O peration     | Version:  2412                                  |
|   \\  /    A nd           | Website:  www.openfoam.com                      |
|    \\/     M anipulation  |                                                 |
\*---------------------------------------------------------------------------*/
FoamFile
{
    version     2.0;
    format      ascii;
    arch        "LSB;label=32;scalar=64";
    class       volScalarField;
    location    "0.036";
    object      rho;
}
// * * * * * * * * * * * * * * * * * * * * * * * * * * * * * * * * * * * * * //

dimensions      [1 -3 0 0 0 0 0];

internalField   nonuniform List<scalar> 
78650
(
0.042133
0.042133
0.042133
0.042133
0.042133
0.042133
0.042133
0.0421331
0.0421349
0.0421579
0.0422578
0.0424215
0.0425287
0.0425664
0.0425374
0.0424041
0.04222
0.0420786
0.0419873
0.0419269
0.0418765
0.0418208
0.041759
0.041698
0.0416406
0.0415824
0.0415207
0.041466
0.0414363
0.0414315
0.0414516
0.041497
0.041539
0.0415587
0.0415611
0.0415529
0.0415362
0.0415202
0.0415086
0.0414995
0.0414911
0.0414827
0.0414746
0.0414671
0.04146
0.0414534
0.0414474
0.041442
0.0414371
0.0414326
0.0414285
0.0414248
0.0414216
0.0414185
0.0414153
0.0414118
0.0414078
0.0414033
0.0413981
0.0413923
0.0413855
0.0413775
0.0413678
0.0413559
0.0413415
0.0413241
0.0413033
0.041279
0.0412504
0.0412172
0.0411788
0.0411344
0.0410831
0.0410239
0.0409558
0.0408778
0.0407891
0.0406886
0.0405753
0.0404478
0.0403044
0.0401436
0.0399636
0.0397633
0.0395409
0.039294
0.0390199
0.0387166
0.0383848
0.0380218
0.0376241
0.0371853
0.0367136
0.0362087
0.0356735
0.0350968
0.0344723
0.0337916
0.0330839
0.0323388
0.0315603
0.0307592
0.0299761
0.0291885
0.0284137
0.0276358
0.0268504
0.0260599
0.0252995
0.0245566
0.0238506
0.0232139
0.0226386
0.0221243
0.0216759
0.0212425
0.0208434
0.0204411
0.0200688
0.019723
0.0191538
0.042133
0.042133
0.042133
0.042133
0.042133
0.042133
0.042133
0.0421331
0.042134
0.0421489
0.0422301
0.0423921
0.0425224
0.0425734
0.0425548
0.0424466
0.0422656
0.0421168
0.0420213
0.0419599
0.0419118
0.0418593
0.0417988
0.0417374
0.0416805
0.0416255
0.0415672
0.0415094
0.0414688
0.0414547
0.041463
0.0414999
0.0415482
0.0415806
0.0415914
0.0415897
0.0415786
0.0415637
0.0415518
0.0415434
0.0415364
0.0415296
0.0415232
0.0415173
0.041512
0.0415073
0.0415034
0.0415002
0.0414976
0.0414955
0.0414939
0.0414928
0.0414922
0.041492
0.0414918
0.0414915
0.0414908
0.0414898
0.0414884
0.0414864
0.0414837
0.0414801
0.0414752
0.0414684
0.0414595
0.0414479
0.0414334
0.0414158
0.0413945
0.0413691
0.0413391
0.0413038
0.0412624
0.041214
0.0411576
0.0410924
0.0410174
0.0409318
0.0408345
0.0407243
0.0405998
0.0404597
0.040302
0.040125
0.0399268
0.0397056
0.0394598
0.0391877
0.0388879
0.038556
0.0381907
0.0377901
0.0373601
0.0368941
0.0363902
0.0358401
0.0352508
0.0346256
0.033967
0.0332603
0.0325277
0.0317442
0.0309607
0.0301415
0.0293385
0.028542
0.0277605
0.0269618
0.026194
0.0254489
0.0247066
0.0240181
0.0233653
0.022754
0.0222109
0.0217099
0.0212684
0.0208444
0.0204252
0.0200118
0.0193144
0.042133
0.042133
0.042133
0.042133
0.042133
0.042133
0.042133
0.042133
0.0421335
0.0421426
0.0422051
0.0423585
0.0425095
0.0425767
0.0425679
0.0424873
0.0423141
0.0421578
0.0420568
0.0419935
0.0419472
0.0418976
0.0418386
0.0417769
0.0417197
0.0416669
0.041613
0.0415566
0.0415085
0.0414848
0.0414836
0.0415065
0.0415541
0.0415983
0.0416206
0.0416253
0.0416205
0.0416086
0.0415969
0.0415888
0.0415829
0.0415776
0.0415727
0.0415685
0.0415649
0.0415622
0.0415602
0.0415593
0.041559
0.0415594
0.0415602
0.0415617
0.0415639
0.0415666
0.0415694
0.0415723
0.041575
0.0415775
0.0415798
0.0415816
0.0415831
0.0415838
0.0415836
0.0415818
0.0415783
0.0415727
0.0415643
0.0415532
0.0415389
0.041521
0.0414992
0.0414726
0.0414408
0.0414027
0.0413575
0.0413043
0.0412423
0.0411706
0.0410882
0.0409942
0.0408872
0.0407658
0.0406281
0.0404727
0.040298
0.0401025
0.0398848
0.0396426
0.0393737
0.0390744
0.0387439
0.0383808
0.0379879
0.0375579
0.0370898
0.0365792
0.0360306
0.0354429
0.0348109
0.0341423
0.0334416
0.0326902
0.0319154
0.0311143
0.0302768
0.0294446
0.0286231
0.0277977
0.0269773
0.0262055
0.025434
0.0246993
0.0239999
0.0233417
0.0227214
0.0221427
0.021629
0.0211315
0.02069
0.0202878
0.0195711
0.042133
0.042133
0.042133
0.042133
0.042133
0.042133
0.042133
0.042133
0.0421332
0.0421384
0.0421834
0.0423213
0.0424884
0.0425769
0.0425786
0.0425255
0.0423651
0.0422023
0.042095
0.0420286
0.0419829
0.0419359
0.0418788
0.0418171
0.0417594
0.041708
0.0416584
0.0416063
0.0415558
0.0415221
0.0415118
0.0415217
0.0415603
0.0416105
0.0416463
0.0416602
0.0416611
0.0416546
0.0416442
0.041636
0.0416308
0.0416268
0.0416235
0.0416209
0.041619
0.0416181
0.0416182
0.0416193
0.0416214
0.0416241
0.0416274
0.0416315
0.0416363
0.0416418
0.0416476
0.0416536
0.0416596
0.0416655
0.0416713
0.041677
0.0416824
0.0416874
0.0416916
0.0416947
0.0416962
0.0416962
0.0416938
0.0416891
0.0416816
0.0416709
0.0416568
0.0416387
0.0416159
0.0415878
0.0415533
0.0415118
0.0414623
0.0414042
0.0413365
0.0412583
0.0411684
0.0410656
0.0409483
0.0408149
0.0406639
0.0404936
0.0403024
0.0400881
0.0398481
0.0395793
0.0392819
0.0389553
0.0385986
0.0382026
0.0377659
0.0372877
0.0367758
0.0362316
0.0356491
0.0350215
0.0343443
0.033628
0.0328548
0.0320874
0.0312557
0.0304241
0.0295606
0.028715
0.0278568
0.0270266
0.0262274
0.0254451
0.024694
0.0239916
0.0233203
0.0226809
0.0220987
0.021526
0.0210025
0.0205326
0.0197645
0.042133
0.042133
0.042133
0.042133
0.042133
0.042133
0.042133
0.042133
0.0421331
0.0421358
0.0421658
0.0422829
0.042459
0.0425731
0.0425887
0.0425584
0.0424169
0.0422506
0.0421361
0.0420649
0.0420183
0.0419733
0.0419186
0.041858
0.0418003
0.0417497
0.0417037
0.0416568
0.0416083
0.0415676
0.0415483
0.0415484
0.0415716
0.0416196
0.0416668
0.0416938
0.0417017
0.0417003
0.0416933
0.0416858
0.0416809
0.0416778
0.0416758
0.0416749
0.0416748
0.0416757
0.0416777
0.0416809
0.0416852
0.0416903
0.0416961
0.0417028
0.0417103
0.0417185
0.0417274
0.0417365
0.0417457
0.0417551
0.0417644
0.0417738
0.0417832
0.0417923
0.041801
0.0418089
0.0418155
0.0418206
0.0418241
0.0418255
0.0418246
0.041821
0.0418146
0.0418044
0.0417905
0.0417717
0.0417475
0.041717
0.0416795
0.0416342
0.0415803
0.0415169
0.041443
0.0413575
0.0412588
0.0411455
0.041016
0.0408687
0.0407023
0.0405148
0.0403042
0.0400684
0.0398066
0.0395155
0.039192
0.0388302
0.0384344
0.0380055
0.0375436
0.0370401
0.0364877
0.0358918
0.0352507
0.0345692
0.033837
0.0330699
0.0322737
0.031442
0.0305986
0.0297212
0.028848
0.027963
0.0271098
0.0262773
0.0254641
0.0247049
0.0239862
0.0233154
0.0226751
0.0220479
0.0214542
0.0209009
0.0199452
0.042133
0.042133
0.042133
0.042133
0.042133
0.042133
0.042133
0.042133
0.0421331
0.0421343
0.0421526
0.0422455
0.0424212
0.0425623
0.0425975
0.0425838
0.0424698
0.0423049
0.0421807
0.0421019
0.0420528
0.0420097
0.0419586
0.0419005
0.0418437
0.0417938
0.0417501
0.0417081
0.0416642
0.0416217
0.041593
0.0415843
0.0415933
0.0416301
0.0416814
0.0417222
0.0417415
0.0417457
0.0417433
0.0417374
0.0417329
0.0417306
0.0417299
0.0417306
0.0417323
0.0417349
0.0417388
0.041744
0.0417505
0.041758
0.0417664
0.0417755
0.0417856
0.0417967
0.0418084
0.0418206
0.041833
0.0418457
0.0418586
0.0418716
0.0418848
0.0418979
0.0419109
0.0419234
0.0419349
0.0419454
0.0419543
0.0419616
0.0419669
0.04197
0.0419709
0.0419685
0.041963
0.0419535
0.041939
0.0419192
0.0418931
0.0418602
0.0418197
0.0417709
0.0417126
0.041644
0.0415637
0.0414704
0.0413625
0.0412385
0.0410971
0.0409365
0.0407548
0.0405494
0.0403186
0.0400592
0.0397697
0.0394471
0.0390938
0.038706
0.0382804
0.037811
0.037296
0.0367411
0.0361406
0.0354981
0.0348202
0.0340679
0.0333097
0.0324694
0.0316444
0.030767
0.0298846
0.0289807
0.0280804
0.0271976
0.0263197
0.0254885
0.0246837
0.0239309
0.0232321
0.0225599
0.021962
0.0214184
0.0204529
0.042133
0.042133
0.042133
0.042133
0.042133
0.042133
0.042133
0.042133
0.0421331
0.0421336
0.0421436
0.0422115
0.0423769
0.0425426
0.042601
0.0426035
0.0425224
0.0423632
0.0422266
0.0421386
0.0420864
0.0420455
0.041999
0.0419449
0.04189
0.0418408
0.0417983
0.0417598
0.0417211
0.0416811
0.0416465
0.0416288
0.0416277
0.0416474
0.0416932
0.041744
0.0417778
0.0417912
0.0417931
0.0417907
0.0417872
0.0417856
0.0417858
0.0417881
0.0417915
0.041796
0.0418018
0.041809
0.0418176
0.0418275
0.0418382
0.0418499
0.0418627
0.0418765
0.0418911
0.0419064
0.041922
0.041938
0.0419544
0.041971
0.0419879
0.0420051
0.0420223
0.0420393
0.0420556
0.0420711
0.0420855
0.0420986
0.0421101
0.0421198
0.0421273
0.0421325
0.0421349
0.0421342
0.0421292
0.0421197
0.0421044
0.0420833
0.0420553
0.04202
0.0419763
0.0419234
0.04186
0.0417851
0.041697
0.0415945
0.041476
0.0413401
0.041185
0.0410088
0.0408095
0.0405839
0.0403303
0.0400466
0.0397341
0.0393872
0.0390013
0.0385706
0.0380968
0.0375851
0.0370297
0.0364331
0.0357859
0.0350983
0.0343607
0.0335699
0.0327196
0.0318664
0.0309722
0.0300706
0.0291568
0.0282365
0.0273247
0.026423
0.0255576
0.0247226
0.0239234
0.0231434
0.0224029
0.0217354
0.0205446
0.042133
0.042133
0.042133
0.042133
0.042133
0.042133
0.042133
0.042133
0.042133
0.0421332
0.0421381
0.0421832
0.042328
0.0425118
0.0425999
0.0426217
0.0425702
0.0424227
0.0422732
0.0421766
0.0421208
0.0420822
0.0420411
0.0419919
0.0419397
0.0418912
0.0418494
0.0418128
0.0417783
0.0417427
0.0417073
0.0416813
0.0416716
0.0416772
0.0417081
0.0417592
0.0418062
0.0418335
0.0418431
0.0418443
0.041843
0.0418422
0.0418435
0.0418471
0.0418522
0.0418586
0.0418663
0.0418755
0.0418863
0.0418984
0.0419116
0.0419258
0.0419411
0.0419576
0.0419751
0.0419933
0.0420121
0.0420314
0.0420511
0.0420713
0.0420919
0.0421129
0.0421341
0.0421554
0.0421764
0.0421969
0.0422165
0.0422351
0.0422525
0.0422684
0.0422828
0.0422952
0.0423051
0.0423123
0.0423162
0.0423167
0.0423121
0.0423025
0.0422866
0.0422644
0.0422348
0.0421972
0.0421505
0.0420937
0.0420252
0.0419438
0.041848
0.0417365
0.0416078
0.0414598
0.0412902
0.0410962
0.040877
0.0406306
0.0403554
0.0400444
0.0396955
0.0393081
0.0388847
0.0384236
0.0379164
0.0373667
0.0367624
0.0361103
0.0354066
0.0346681
0.0338464
0.0329959
0.0321006
0.0311785
0.0302508
0.0293051
0.0283547
0.0274265
0.0264863
0.0256112
0.024769
0.0239945
0.0232432
0.0225237
0.0211608
0.042133
0.042133
0.042133
0.042133
0.042133
0.042133
0.042133
0.042133
0.042133
0.0421331
0.0421352
0.0421619
0.0422784
0.0424703
0.0425938
0.0426371
0.0426078
0.0424794
0.0423222
0.0422175
0.0421572
0.0421201
0.0420842
0.0420405
0.0419917
0.0419444
0.0419029
0.0418673
0.0418352
0.0418039
0.0417713
0.0417412
0.0417229
0.041719
0.0417324
0.0417733
0.0418266
0.0418688
0.0418907
0.0418982
0.0418999
0.0419007
0.0419029
0.0419076
0.0419144
0.0419228
0.0419324
0.0419436
0.0419564
0.0419708
0.0419864
0.0420031
0.0420209
0.0420401
0.0420604
0.0420816
0.0421035
0.042126
0.0421491
0.0421727
0.0421969
0.0422217
0.042247
0.0422726
0.0422981
0.0423233
0.042348
0.042372
0.0423951
0.0424172
0.0424379
0.0424572
0.0424746
0.0424899
0.0425022
0.0425113
0.0425166
0.0425179
0.0425137
0.0425039
0.0424876
0.0424641
0.0424327
0.0423923
0.0423418
0.0422798
0.042205
0.0421162
0.0420118
0.0418903
0.0417497
0.0415877
0.0414029
0.0411921
0.040953
0.040681
0.0403765
0.0400378
0.0396639
0.0392491
0.0387858
0.0382761
0.0377134
0.0371087
0.0364486
0.035737
0.0349911
0.0341586
0.033304
0.0323828
0.0314234
0.0304728
0.0294888
0.0285003
0.0275212
0.0265553
0.0256038
0.0246704
0.023832
0.0231106
0.0217644
0.042133
0.042133
0.042133
0.042133
0.042133
0.042133
0.042133
0.042133
0.042133
0.0421331
0.0421338
0.0421479
0.0422327
0.0424184
0.0425794
0.042645
0.0426319
0.0425355
0.0423777
0.0422626
0.042196
0.0421589
0.042128
0.0420904
0.0420458
0.0420002
0.041959
0.0419234
0.0418922
0.0418635
0.0418346
0.0418052
0.0417807
0.0417691
0.0417702
0.0417931
0.0418419
0.0418949
0.0419321
0.0419502
0.0419571
0.0419603
0.0419638
0.0419696
0.0419779
0.0419881
0.0419998
0.0420129
0.0420278
0.0420443
0.0420623
0.0420814
0.0421018
0.0421235
0.0421465
0.0421706
0.0421955
0.0422211
0.0422475
0.0422745
0.0423022
0.0423306
0.0423598
0.0423894
0.0424193
0.0424491
0.0424787
0.0425078
0.0425364
0.0425643
0.0425912
0.042617
0.0426415
0.0426642
0.0426848
0.0427028
0.0427175
0.0427284
0.0427351
0.0427374
0.0427341
0.0427246
0.0427082
0.0426839
0.0426508
0.0426077
0.0425534
0.0424866
0.0424059
0.04231
0.0421969
0.0420643
0.0419105
0.0417326
0.0415289
0.0412961
0.0410346
0.0407408
0.0404114
0.0400398
0.0396219
0.0391592
0.0386461
0.03809
0.0374784
0.0368182
0.0360981
0.03533
0.0345017
0.0336195
0.0326774
0.0316835
0.0307122
0.029677
0.0286388
0.0276577
0.0266692
0.0256967
0.0246869
0.0237679
0.0220621
0.042133
0.042133
0.042133
0.042133
0.042133
0.042133
0.042133
0.042133
0.042133
0.042133
0.0421333
0.0421397
0.042195
0.0423598
0.0425507
0.0426457
0.0426484
0.0425887
0.0424377
0.0423098
0.0422366
0.0421985
0.0421723
0.0421409
0.0421008
0.0420568
0.0420154
0.0419794
0.0419481
0.0419203
0.0418945
0.0418683
0.0418427
0.0418246
0.0418182
0.0418255
0.0418598
0.0419141
0.0419646
0.0419971
0.0420131
0.0420207
0.0420263
0.0420331
0.0420427
0.0420546
0.0420683
0.0420834
0.0421003
0.042119
0.0421392
0.0421608
0.0421836
0.0422078
0.0422334
0.0422604
0.0422882
0.0423169
0.0423464
0.0423768
0.0424079
0.0424399
0.0424728
0.0425064
0.0425405
0.0425748
0.0426091
0.0426432
0.0426771
0.0427105
0.0427434
0.0427755
0.0428067
0.0428366
0.042865
0.0428912
0.0429148
0.0429355
0.0429525
0.0429653
0.0429736
0.042977
0.0429746
0.0429653
0.0429485
0.0429225
0.042887
0.0428404
0.0427818
0.0427096
0.0426225
0.0425183
0.0423955
0.0422511
0.0420836
0.0418899
0.0416694
0.0414171
0.0411291
0.040801
0.040432
0.0400223
0.0395663
0.0390647
0.0385054
0.0378978
0.0372278
0.036503
0.0357205
0.034873
0.0339787
0.0330015
0.0319791
0.030972
0.0298829
0.0288059
0.0277474
0.0267385
0.0257856
0.0249082
0.0231816
0.042133
0.042133
0.042133
0.042133
0.042133
0.042133
0.042133
0.042133
0.042133
0.042133
0.0421331
0.0421357
0.0421675
0.0423003
0.0425056
0.0426387
0.0426622
0.0426329
0.0424981
0.0423596
0.0422805
0.0422398
0.0422168
0.0421906
0.0421545
0.0421118
0.0420703
0.0420341
0.0420028
0.0419753
0.0419512
0.0419286
0.0419059
0.0418854
0.0418736
0.0418719
0.0418878
0.0419326
0.0419896
0.0420366
0.0420653
0.0420805
0.0420897
0.0420982
0.0421088
0.0421221
0.0421375
0.0421547
0.0421735
0.0421943
0.0422167
0.0422406
0.0422658
0.0422924
0.0423206
0.0423502
0.0423809
0.0424126
0.0424451
0.0424786
0.0425131
0.0425485
0.0425849
0.0426223
0.0426604
0.0426989
0.0427377
0.0427766
0.0428155
0.0428543
0.0428928
0.0429309
0.0429684
0.0430051
0.0430407
0.0430748
0.0431069
0.0431366
0.0431634
0.043187
0.0432067
0.0432219
0.0432321
0.043237
0.0432363
0.0432273
0.0432103
0.043183
0.0431455
0.0430959
0.0430333
0.0429556
0.0428612
0.0427475
0.042613
0.042455
0.0422721
0.0420594
0.0418148
0.0415354
0.0412203
0.0408663
0.0404666
0.0400194
0.0395154
0.0389605
0.0383415
0.0376691
0.036933
0.0361327
0.0352704
0.034354
0.0333488
0.032293
0.0312397
0.0300578
0.0289188
0.0277687
0.0266469
0.0256677
0.0238113
0.042133
0.042133
0.042133
0.042133
0.042133
0.042133
0.042133
0.042133
0.042133
0.042133
0.0421331
0.0421339
0.04215
0.0422462
0.0424485
0.0426205
0.0426725
0.0426628
0.0425567
0.0424144
0.0423272
0.0422812
0.0422586
0.0422359
0.0422041
0.0421641
0.0421233
0.0420873
0.0420565
0.0420294
0.0420063
0.0419865
0.0419678
0.0419491
0.0419344
0.0419279
0.0419314
0.0419586
0.0420115
0.0420682
0.0421112
0.0421377
0.0421532
0.0421646
0.0421763
0.0421906
0.0422076
0.0422266
0.0422474
0.0422701
0.0422947
0.0423208
0.0423484
0.0423773
0.0424079
0.0424401
0.0424736
0.0425081
0.0425436
0.0425802
0.0426178
0.0426566
0.0426964
0.0427374
0.0427794
0.042822
0.0428652
0.0429086
0.0429523
0.0429961
0.04304
0.0430838
0.0431274
0.0431705
0.043213
0.0432545
0.0432946
0.0433328
0.0433687
0.043402
0.0434322
0.0434589
0.0434815
0.0434991
0.0435114
0.0435176
0.0435181
0.0435089
0.0434912
0.0434625
0.0434226
0.0433698
0.0433027
0.0432188
0.0431168
0.0429936
0.0428476
0.0426746
0.0424735
0.0422413
0.0419757
0.0416713
0.0413223
0.0409265
0.0404769
0.0399774
0.0394165
0.0388017
0.0381162
0.0373718
0.0365605
0.0356778
0.0347474
0.0337116
0.0326785
0.0315581
0.0303542
0.0292363
0.0280246
0.026881
0.0246763
0.042133
0.042133
0.042133
0.042133
0.042133
0.042133
0.042133
0.042133
0.042133
0.042133
0.042133
0.0421333
0.0421404
0.0422025
0.0423843
0.0425888
0.042674
0.0426831
0.0426133
0.0424737
0.0423735
0.0423194
0.0422957
0.0422768
0.0422509
0.0422151
0.0421759
0.0421404
0.0421104
0.042084
0.0420616
0.0420435
0.0420283
0.0420135
0.0419996
0.0419905
0.0419883
0.0419989
0.0420381
0.0420959
0.0421503
0.0421899
0.0422149
0.0422312
0.042245
0.0422602
0.0422782
0.0422988
0.0423215
0.0423462
0.0423727
0.042401
0.0424307
0.042462
0.0424949
0.0425295
0.0425655
0.0426028
0.0426411
0.0426806
0.0427213
0.0427632
0.0428063
0.0428507
0.0428962
0.0429427
0.04299
0.0430377
0.0430859
0.0431345
0.0431834
0.0432326
0.0432818
0.043331
0.0433799
0.0434283
0.0434758
0.043522
0.0435666
0.0436091
0.0436493
0.0436866
0.0437206
0.0437509
0.0437769
0.0437974
0.0438121
0.0438204
0.0438218
0.0438133
0.0437953
0.0437655
0.0437233
0.0436667
0.0435941
0.0435029
0.0433914
0.0432564
0.043097
0.0429091
0.0426894
0.0424326
0.0421348
0.041794
0.0414046
0.0409667
0.0404698
0.0399175
0.0392941
0.0386082
0.0378478
0.0370155
0.036104
0.0351241
0.0340259
0.0329647
0.0316965
0.0305065
0.029327
0.028252
0.0261698
0.042133
0.042133
0.042133
0.042133
0.042133
0.042133
0.042133
0.042133
0.042133
0.042133
0.042133
0.0421331
0.0421358
0.0421715
0.0423199
0.0425429
0.0426664
0.0427007
0.0426625
0.042532
0.0424165
0.0423547
0.0423303
0.0423157
0.0422961
0.0422656
0.0422283
0.0421933
0.0421645
0.0421395
0.0421179
0.042101
0.0420883
0.0420774
0.0420667
0.0420575
0.0420531
0.0420548
0.0420762
0.0421251
0.0421841
0.0422359
0.0422728
0.0422969
0.0423144
0.0423309
0.0423496
0.0423714
0.0423957
0.0424222
0.0424507
0.042481
0.0425128
0.0425462
0.0425813
0.0426182
0.0426567
0.0426966
0.0427376
0.0427798
0.0428234
0.0428683
0.0429145
0.0429622
0.0430112
0.0430614
0.0431125
0.0431643
0.0432169
0.04327
0.0433237
0.0433779
0.0434325
0.0434874
0.0435423
0.0435972
0.0436517
0.0437053
0.0437579
0.043809
0.0438583
0.0439054
0.04395
0.0439916
0.0440296
0.0440636
0.0440928
0.0441162
0.0441331
0.044143
0.0441455
0.0441375
0.0441192
0.0440883
0.0440437
0.0439829
0.0439046
0.0438056
0.0436849
0.0435378
0.0433617
0.0431524
0.0429074
0.0426239
0.0422962
0.0419219
0.0414909
0.0410043
0.0404493
0.0398326
0.0391376
0.0383729
0.0375227
0.0365946
0.0356016
0.0344947
0.0333065
0.0319796
0.0306205
0.0293427
0.0269385
0.042133
0.042133
0.042133
0.042133
0.042133
0.042133
0.042133
0.042133
0.042133
0.042133
0.042133
0.0421331
0.042134
0.0421522
0.0422619
0.0424855
0.0426522
0.0427151
0.0426951
0.0425843
0.0424593
0.0423909
0.0423655
0.042354
0.0423396
0.0423146
0.0422802
0.0422461
0.0422188
0.0421959
0.0421759
0.0421602
0.0421489
0.0421409
0.0421337
0.042127
0.0421225
0.0421211
0.0421294
0.0421629
0.0422176
0.0422764
0.0423253
0.0423595
0.042383
0.0424021
0.0424217
0.0424442
0.0424698
0.0424979
0.0425281
0.0425603
0.0425942
0.0426296
0.0426667
0.0427058
0.0427466
0.0427888
0.0428324
0.0428773
0.0429235
0.0429712
0.0430204
0.0430711
0.0431233
0.0431769
0.0432316
0.0432873
0.0433439
0.0434012
0.0434594
0.0435183
0.0435778
0.043638
0.0436986
0.0437594
0.0438203
0.0438809
0.0439408
0.0439998
0.0440576
0.0441139
0.0441684
0.0442206
0.04427
0.0443163
0.0443588
0.0443969
0.0444299
0.0444565
0.0444762
0.0444882
0.044492
0.044485
0.0444662
0.0444335
0.0443855
0.0443198
0.0442349
0.0441268
0.0439936
0.0438317
0.0436386
0.0434099
0.0431397
0.0428241
0.0424548
0.042032
0.0415434
0.0409914
0.0403609
0.0396628
0.0388808
0.0380146
0.0370614
0.0360203
0.0349234
0.0337194
0.0324151
0.0311737
0.0287694
0.042133
0.042133
0.042133
0.042133
0.042133
0.042133
0.042133
0.042133
0.042133
0.042133
0.042133
0.042133
0.0421333
0.0421417
0.0422155
0.042422
0.0426297
0.0427199
0.0427152
0.0426337
0.0425041
0.0424286
0.0424002
0.04239
0.0423797
0.042361
0.0423313
0.042299
0.0422736
0.0422531
0.0422351
0.0422205
0.0422101
0.0422035
0.0421989
0.0421953
0.0421927
0.0421914
0.0421939
0.0422125
0.0422554
0.0423139
0.0423716
0.042417
0.0424488
0.0424724
0.0424937
0.0425169
0.0425434
0.0425729
0.0426048
0.0426388
0.0426745
0.0427119
0.042751
0.042792
0.0428349
0.0428795
0.0429255
0.0429728
0.0430217
0.043072
0.0431239
0.0431775
0.0432327
0.0432895
0.0433476
0.0434069
0.0434673
0.0435286
0.0435909
0.0436542
0.0437184
0.0437835
0.0438494
0.0439158
0.0439826
0.0440496
0.0441164
0.0441827
0.0442483
0.044313
0.0443764
0.0444382
0.0444981
0.0445555
0.0446101
0.0446612
0.0447082
0.0447504
0.0447871
0.0448171
0.0448396
0.0448538
0.0448591
0.0448531
0.0448337
0.0447992
0.0447474
0.0446759
0.044583
0.044465
0.0443191
0.0441398
0.0439225
0.0436632
0.0433554
0.0429972
0.0425776
0.0420971
0.0415412
0.0409144
0.0401994
0.0394017
0.038502
0.0374985
0.0363798
0.0352175
0.0338191
0.0325817
0.0303482
0.042133
0.042133
0.042133
0.042133
0.042133
0.042133
0.042133
0.042133
0.042133
0.042133
0.042133
0.042133
0.0421331
0.0421367
0.0421824
0.0423595
0.0425944
0.0427181
0.0427298
0.0426777
0.0425492
0.042465
0.0424325
0.0424229
0.0424165
0.0424055
0.042382
0.0423527
0.0423289
0.0423103
0.0422937
0.0422799
0.0422697
0.0422638
0.0422608
0.0422599
0.0422604
0.0422613
0.0422633
0.0422728
0.0423015
0.0423526
0.0424135
0.0424687
0.0425104
0.0425405
0.042565
0.0425894
0.0426165
0.0426471
0.0426805
0.0427161
0.0427537
0.0427928
0.0428337
0.0428766
0.0429215
0.0429682
0.0430164
0.0430661
0.0431173
0.0431701
0.0432246
0.0432808
0.0433388
0.0433985
0.0434598
0.0435224
0.0435862
0.0436512
0.0437174
0.0437848
0.0438532
0.0439228
0.0439935
0.044065
0.0441372
0.04421
0.0442831
0.0443561
0.0444289
0.0445012
0.0445729
0.0446435
0.0447129
0.0447806
0.0448463
0.0449094
0.0449694
0.0450258
0.0450777
0.0451246
0.0451655
0.0451993
0.045225
0.0452416
0.0452484
0.045243
0.0452223
0.0451853
0.0451294
0.0450518
0.0449494
0.0448177
0.0446531
0.0444519
0.0442082
0.0439185
0.043573
0.0431702
0.0426959
0.042151
0.0415191
0.0408052
0.0399914
0.0390763
0.0380413
0.0369057
0.0355814
0.0342289
0.031858
0.042133
0.042133
0.042133
0.042133
0.042133
0.042133
0.042133
0.042133
0.042133
0.042133
0.042133
0.042133
0.0421331
0.0421345
0.0421611
0.0423037
0.0425499
0.04271
0.0427421
0.0427135
0.0425912
0.0424983
0.0424621
0.0424538
0.0424516
0.0424485
0.0424321
0.0424059
0.0423827
0.0423646
0.0423486
0.0423352
0.0423256
0.0423202
0.0423185
0.0423198
0.0423235
0.0423274
0.0423315
0.0423381
0.042356
0.0423954
0.0424533
0.0425146
0.0425662
0.0426046
0.0426339
0.0426604
0.0426884
0.0427199
0.0427546
0.0427918
0.042831
0.0428719
0.0429146
0.0429592
0.043006
0.0430546
0.0431049
0.0431568
0.0432102
0.0432653
0.0433222
0.0433809
0.0434414
0.0435039
0.0435681
0.0436338
0.0437009
0.0437694
0.0438391
0.0439102
0.0439827
0.0440565
0.0441315
0.0442077
0.044285
0.0443632
0.0444419
0.0445211
0.0446004
0.0446797
0.0447588
0.0448375
0.0449155
0.0449924
0.045068
0.0451419
0.0452135
0.0452825
0.0453481
0.0454099
0.045467
0.0455186
0.045564
0.045602
0.0456309
0.04565
0.0456582
0.0456534
0.0456312
0.0455912
0.0455291
0.0454427
0.0453286
0.0451827
0.044999
0.0447726
0.0444944
0.044161
0.0437586
0.0432871
0.0427319
0.0420951
0.0413562
0.0405156
0.0395551
0.038495
0.0372984
0.0360396
0.0339283
0.042133
0.042133
0.042133
0.042133
0.042133
0.042133
0.042133
0.042133
0.042133
0.042133
0.042133
0.042133
0.042133
0.0421336
0.0421486
0.0422584
0.0425021
0.042696
0.0427532
0.0427385
0.0426276
0.0425295
0.0424907
0.042484
0.0424863
0.0424892
0.0424792
0.0424555
0.042432
0.0424139
0.0423987
0.0423862
0.0423778
0.0423733
0.0423726
0.0423757
0.0423816
0.0423886
0.0423958
0.0424031
0.0424155
0.0424438
0.0424937
0.0425564
0.0426161
0.0426635
0.0426993
0.0427291
0.0427586
0.042791
0.0428268
0.0428656
0.0429065
0.0429491
0.0429934
0.0430397
0.0430882
0.0431387
0.043191
0.0432448
0.0433003
0.0433576
0.0434166
0.0434776
0.0435406
0.0436056
0.0436724
0.043741
0.043811
0.0438826
0.0439556
0.0440301
0.0441062
0.0441838
0.0442628
0.0443433
0.0444251
0.0445081
0.044592
0.0446767
0.0447619
0.0448475
0.0449333
0.0450192
0.0451049
0.0451902
0.0452747
0.0453583
0.0454404
0.0455207
0.0455988
0.045674
0.0457458
0.0458133
0.045876
0.045933
0.0459834
0.0460257
0.046058
0.0460797
0.0460891
0.0460846
0.0460603
0.0460166
0.0459483
0.0458523
0.0457226
0.0455545
0.0453403
0.0450758
0.044749
0.0443579
0.0438862
0.043333
0.0426802
0.0419229
0.0410287
0.040015
0.0388066
0.0375312
0.0355114
0.042133
0.042133
0.042133
0.042133
0.042133
0.042133
0.042133
0.042133
0.042133
0.042133
0.042133
0.042133
0.042133
0.0421333
0.0421417
0.0422242
0.0424563
0.0426797
0.0427608
0.0427541
0.0426595
0.0425593
0.0425187
0.0425133
0.0425198
0.0425269
0.0425206
0.0424997
0.0424767
0.0424592
0.0424455
0.0424345
0.0424275
0.0424243
0.0424245
0.0424288
0.0424358
0.0424451
0.0424554
0.042465
0.042476
0.0424966
0.042537
0.0425964
0.0426609
0.0427168
0.0427601
0.0427946
0.0428263
0.0428598
0.0428969
0.0429371
0.0429797
0.043024
0.0430699
0.0431178
0.0431679
0.0432202
0.0432742
0.0433299
0.0433873
0.0434466
0.0435077
0.0435708
0.043636
0.0437032
0.0437726
0.0438437
0.0439165
0.0439909
0.0440669
0.0441446
0.0442239
0.044305
0.0443878
0.0444721
0.0445581
0.0446454
0.044734
0.0448237
0.0449142
0.0450055
0.0450974
0.0451897
0.0452824
0.0453751
0.0454677
0.0455598
0.0456513
0.0457416
0.0458306
0.0459177
0.0460024
0.0460841
0.0461622
0.046236
0.0463048
0.0463674
0.0464229
0.0464696
0.0465053
0.0465295
0.0465403
0.0465357
0.0465085
0.0464588
0.0463797
0.0462692
0.04612
0.0459275
0.0456808
0.0453756
0.0449952
0.0445372
0.0439825
0.04332
0.0425288
0.0416055
0.0405095
0.0392939
0.0374645
0.042133
0.042133
0.042133
0.042133
0.042133
0.042133
0.042133
0.042133
0.042133
0.042133
0.042133
0.042133
0.042133
0.0421332
0.042138
0.0422004
0.0424165
0.0426623
0.0427641
0.042766
0.0426872
0.0425873
0.0425452
0.0425406
0.0425509
0.042561
0.0425568
0.0425393
0.0425182
0.0425025
0.0424906
0.0424814
0.0424757
0.0424737
0.0424749
0.04248
0.0424873
0.0424979
0.0425107
0.042523
0.042535
0.042552
0.0425838
0.0426369
0.0427026
0.0427654
0.0428163
0.0428563
0.0428911
0.0429263
0.0429645
0.0430062
0.0430504
0.0430963
0.0431439
0.0431933
0.043245
0.0432989
0.0433546
0.0434121
0.0434713
0.0435324
0.0435954
0.0436605
0.0437277
0.0437971
0.0438686
0.0439421
0.0440174
0.0440944
0.0441732
0.0442537
0.044336
0.0444202
0.0445063
0.0445942
0.0446838
0.044775
0.0448678
0.0449619
0.0450572
0.0451535
0.0452508
0.0453489
0.0454477
0.045547
0.0456466
0.0457464
0.045846
0.0459453
0.0460439
0.0461415
0.0462376
0.0463318
0.0464234
0.0465121
0.0465972
0.0466778
0.0467531
0.0468217
0.0468827
0.0469343
0.0469738
0.0470007
0.0470125
0.0470069
0.0469757
0.0469198
0.0468301
0.0467035
0.0465285
0.0462999
0.0460006
0.0456285
0.045163
0.0445949
0.0438976
0.0430413
0.0420225
0.0408123
0.0391429
0.042133
0.042133
0.042133
0.042133
0.042133
0.042133
0.042133
0.042133
0.042133
0.042133
0.042133
0.042133
0.042133
0.0421331
0.0421362
0.0421847
0.0423852
0.042646
0.0427652
0.0427762
0.0427102
0.0426129
0.0425691
0.0425652
0.0425797
0.0425927
0.0425901
0.0425763
0.042558
0.0425445
0.0425346
0.0425273
0.0425227
0.0425216
0.0425239
0.0425295
0.042537
0.0425483
0.0425629
0.0425779
0.042592
0.042608
0.0426341
0.0426797
0.0427434
0.0428106
0.0428684
0.0429143
0.0429528
0.0429899
0.0430295
0.0430726
0.0431184
0.043166
0.0432151
0.0432661
0.0433193
0.0433747
0.043432
0.0434912
0.0435521
0.0436149
0.0436797
0.0437465
0.0438156
0.0438869
0.0439605
0.0440361
0.0441137
0.0441931
0.0442743
0.0443574
0.0444424
0.0445294
0.0446185
0.0447095
0.0448024
0.0448972
0.0449937
0.0450918
0.0451913
0.0452921
0.0453941
0.0454973
0.0456016
0.0457067
0.0458126
0.0459191
0.046026
0.0461331
0.0462401
0.0463468
0.0464529
0.0465579
0.0466615
0.0467631
0.0468623
0.0469586
0.0470511
0.0471388
0.047221
0.047296
0.0473628
0.0474195
0.0474631
0.0474928
0.0475056
0.0474985
0.0474615
0.0473942
0.0472852
0.0471314
0.0469171
0.0466382
0.0462699
0.0458052
0.0452057
0.0444423
0.0435148
0.0423545
0.0408061
0.042133
0.042133
0.042133
0.042133
0.042133
0.042133
0.042133
0.042133
0.042133
0.042133
0.042133
0.042133
0.042133
0.0421331
0.0421354
0.0421754
0.0423634
0.0426332
0.0427658
0.0427849
0.0427283
0.0426349
0.0425901
0.0425875
0.042607
0.0426232
0.0426223
0.0426116
0.0425962
0.0425851
0.0425772
0.0425716
0.0425682
0.0425679
0.0425715
0.0425776
0.0425855
0.0425975
0.0426133
0.0426307
0.0426472
0.0426639
0.0426868
0.0427258
0.0427851
0.0428541
0.0429176
0.0429691
0.0430116
0.043051
0.043092
0.0431364
0.0431838
0.043233
0.0432837
0.0433362
0.0433908
0.0434477
0.0435066
0.0435672
0.0436297
0.0436941
0.0437605
0.0438291
0.0438998
0.043973
0.0440484
0.0441261
0.0442056
0.0442872
0.0443706
0.044456
0.0445435
0.0446331
0.0447248
0.0448187
0.0449146
0.0450125
0.0451123
0.0452139
0.0453172
0.045422
0.0455282
0.0456359
0.0457449
0.0458552
0.0459666
0.0460789
0.0461921
0.046306
0.0464203
0.046535
0.0466497
0.0467641
0.0468779
0.0469907
0.0471022
0.047212
0.0473194
0.0474237
0.0475242
0.0476196
0.0477093
0.0477916
0.0478652
0.0479277
0.0479756
0.048008
0.0480212
0.0480107
0.047966
0.0478863
0.0477565
0.0475729
0.0473136
0.0469732
0.046499
0.0458589
0.0450174
0.0439166
0.0424414
0.042133
0.042133
0.042133
0.042133
0.042133
0.042133
0.042133
0.042133
0.042133
0.042133
0.042133
0.042133
0.042133
0.0421331
0.042135
0.0421712
0.0423516
0.0426272
0.0427675
0.0427921
0.0427412
0.0426525
0.0426089
0.0426084
0.0426338
0.0426534
0.0426537
0.0426453
0.0426327
0.0426238
0.0426179
0.0426138
0.0426117
0.0426124
0.0426175
0.0426244
0.0426333
0.0426461
0.0426631
0.0426824
0.0427013
0.0427194
0.0427409
0.042775
0.042829
0.0428976
0.0429649
0.0430214
0.0430676
0.0431094
0.0431519
0.0431977
0.0432465
0.0432972
0.0433494
0.0434033
0.0434594
0.0435177
0.043578