/*--------------------------------*- C++ -*----------------------------------*\
| =========                 |                                                 |
| \\      /  F ield         | OpenFOAM: The Open Source CFD Toolbox           |
|  \\    /   O peration     | Version:  2412                                  |
|   \\  /    A nd           | Website:  www.openfoam.com                      |
|    \\/     M anipulation  |                                                 |
\*---------------------------------------------------------------------------*/
FoamFile
{
    version     2.0;
    format      ascii;
    arch        "LSB;label=32;scalar=64";
    class       volVectorField;
    location    "0.036";
    object      U;
}
// * * * * * * * * * * * * * * * * * * * * * * * * * * * * * * * * * * * * * //

dimensions      [0 1 -1 0 0 0 0];

internalField   nonuniform List<vector> 
78650
(
(210 5.88622e-12 0)
(210 2.07873e-11 0)
(210 1.68587e-12 0)
(210 1.1319e-11 0)
(210 5.4648e-11 0)
(210 3.77132e-09 0)
(210 4.41239e-07 0)
(210 5.35548e-05 0)
(209.987 0.0030515 0)
(209.827 0.0547557 0)
(209.146 0.328619 0)
(208.067 0.839781 0)
(207.27 1.23558 0)
(207.16 1.35037 0)
(207.297 1.37262 0)
(208.19 1.14605 0)
(209.405 0.72006 0)
(210.413 0.507469 0)
(211.1 0.467324 0)
(211.592 0.578803 0)
(212.048 0.746455 0)
(212.542 0.915987 0)
(213.074 1.0831 0)
(213.6 1.29267 0)
(214.111 1.56017 0)
(214.633 1.87709 0)
(215.177 2.2313 0)
(215.663 2.62587 0)
(215.969 3.06777 0)
(216.097 3.54821 0)
(216.05 4.02664 0)
(215.798 4.54973 0)
(215.565 5.06609 0)
(215.491 5.58366 0)
(215.542 6.11419 0)
(215.677 6.67195 0)
(215.878 7.2526 0)
(216.071 7.86413 0)
(216.226 8.5053 0)
(216.355 9.17297 0)
(216.471 9.86436 0)
(216.579 10.5784 0)
(216.671 11.3195 0)
(216.751 12.0892 0)
(216.826 12.8889 0)
(216.889 13.7208 0)
(216.941 14.5856 0)
(216.98 15.4835 0)
(217.008 16.413 0)
(217.025 17.3739 0)
(217.029 18.3656 0)
(217.021 19.3882 0)
(217 20.4417 0)
(216.968 21.5255 0)
(216.927 22.6392 0)
(216.876 23.7827 0)
(216.818 24.9571 0)
(216.753 26.1634 0)
(216.681 27.4025 0)
(216.604 28.6751 0)
(216.526 29.9822 0)
(216.448 31.3247 0)
(216.373 32.7033 0)
(216.304 34.1177 0)
(216.247 35.5712 0)
(216.2 37.0643 0)
(216.165 38.5976 0)
(216.155 40.1739 0)
(216.167 41.7927 0)
(216.208 43.4558 0)
(216.287 45.1651 0)
(216.402 46.921 0)
(216.57 48.7261 0)
(216.784 50.5805 0)
(217.065 52.4868 0)
(217.412 54.4446 0)
(217.837 56.4532 0)
(218.359 58.512 0)
(218.977 60.6202 0)
(219.723 62.7772 0)
(220.582 64.9815 0)
(221.603 67.2302 0)
(222.761 69.5231 0)
(224.112 71.8568 0)
(225.641 74.2268 0)
(227.387 76.6187 0)
(229.365 79.0182 0)
(231.589 81.4195 0)
(234.107 83.8079 0)
(236.884 86.1824 0)
(240.033 88.4704 0)
(243.438 90.7064 0)
(247.282 92.7923 0)
(251.379 94.8755 0)
(255.999 96.7884 0)
(261.07 98.5586 0)
(266.532 100.038 0)
(272.147 101.251 0)
(278.128 102.238 0)
(285.294 102.775 0)
(292.289 102.965 0)
(299.415 102.907 0)
(306.237 102.522 0)
(313.245 101.871 0)
(320.648 100.79 0)
(327.613 99.4508 0)
(334.984 97.6908 0)
(341.987 95.772 0)
(348.594 93.6845 0)
(355.126 91.2011 0)
(361.045 88.8631 0)
(367.406 85.9107 0)
(372.696 83.4824 0)
(378.122 80.7131 0)
(382.31 77.8453 0)
(384.576 75.5364 0)
(386.754 72.8993 0)
(389.598 71.7302 0)
(395.215 70.4937 0)
(403.562 69.4037 0)
(406.392 73.6515 0)
(210 1.21411e-11 0)
(210 1.08545e-11 0)
(210 -8.37472e-13 0)
(210 1.40973e-11 0)
(210 1.70492e-11 0)
(210 1.39204e-09 0)
(210 1.66689e-07 0)
(210 2.02981e-05 0)
(209.993 0.00145242 0)
(209.888 0.0327069 0)
(209.328 0.241941 0)
(208.246 0.723786 0)
(207.314 1.15574 0)
(207.113 1.31101 0)
(207.143 1.39565 0)
(207.891 1.24561 0)
(209.091 0.825509 0)
(210.139 0.580059 0)
(210.845 0.506751 0)
(211.343 0.601864 0)
(211.78 0.766379 0)
(212.247 0.942123 0)
(212.761 1.1159 0)
(213.281 1.32638 0)
(213.781 1.59199 0)
(214.274 1.90615 0)
(214.783 2.25733 0)
(215.285 2.64363 0)
(215.666 3.07405 0)
(215.854 3.55054 0)
(215.898 4.0102 0)
(215.71 4.51088 0)
(215.427 5.02874 0)
(215.252 5.54604 0)
(215.242 6.06942 0)
(215.32 6.62917 0)
(215.475 7.20098 0)
(215.655 7.80481 0)
(215.807 8.44035 0)
(215.926 9.1014 0)
(216.026 9.78442 0)
(216.115 10.4894 0)
(216.188 11.2208 0)
(216.252 11.98 0)
(216.306 12.7686 0)
(216.349 13.5887 0)
(216.378 14.4406 0)
(216.396 15.3253 0)
(216.4 16.2412 0)
(216.393 17.188 0)
(216.372 18.1648 0)
(216.339 19.1718 0)
(216.292 20.2091 0)
(216.232 21.2761 0)
(216.162 22.3724 0)
(216.082 23.498 0)
(215.993 24.6536 0)
(215.894 25.8405 0)
(215.788 27.0595 0)
(215.675 28.3115 0)
(215.558 29.5972 0)
(215.438 30.9177 0)
(215.318 32.2746 0)
(215.201 33.6661 0)
(215.093 35.0964 0)
(214.99 36.5664 0)
(214.898 38.0755 0)
(214.824 39.628 0)
(214.765 41.2229 0)
(214.732 42.8621 0)
(214.73 44.5477 0)
(214.757 46.2804 0)
(214.83 48.0631 0)
(214.94 49.8958 0)
(215.11 51.7818 0)
(215.336 53.7215 0)
(215.627 55.7151 0)
(216.004 57.7631 0)
(216.465 59.8645 0)
(217.04 62.02 0)
(217.717 64.2296 0)
(218.539 66.4936 0)
(219.483 68.8108 0)
(220.603 71.1771 0)
(221.884 73.5861 0)
(223.371 76.0277 0)
(225.076 78.4958 0)
(227.016 80.9872 0)
(229.228 83.4862 0)
(231.687 85.9867 0)
(234.489 88.4453 0)
(237.543 90.8941 0)
(241.038 93.2533 0)
(244.791 95.5883 0)
(248.977 97.7315 0)
(253.368 99.7778 0)
(258.161 101.643 0)
(263.496 103.308 0)
(269.465 104.692 0)
(275.652 105.723 0)
(281.749 106.547 0)
(288.17 107.093 0)
(295.872 107.143 0)
(303.019 106.789 0)
(311.281 105.99 0)
(318.666 104.868 0)
(326.412 103.308 0)
(334.478 101.161 0)
(341.505 99.2103 0)
(348.487 97.16 0)
(354.892 95.3105 0)
(361.145 93.1533 0)
(366.91 91.0025 0)
(372.639 88.529 0)
(377.299 86.0146 0)
(380.609 83.5016 0)
(383.156 80.5736 0)
(385.556 78.726 0)
(390.649 77.1482 0)
(399.92 75.7047 0)
(403.973 80.158 0)
(210 7.33502e-12 0)
(210 7.62373e-12 0)
(210 -8.95144e-12 0)
(210 1.1633e-11 0)
(210 1.80237e-11 0)
(210 5.12261e-10 0)
(210 5.66293e-08 0)
(210 6.57005e-06 0)
(209.997 0.000614936 0)
(209.932 0.0180018 0)
(209.498 0.16883 0)
(208.465 0.603462 0)
(207.41 1.06873 0)
(207.077 1.27638 0)
(207.018 1.40665 0)
(207.598 1.32114 0)
(208.749 0.918203 0)
(209.836 0.638167 0)
(210.575 0.527012 0)
(211.088 0.603191 0)
(211.509 0.762117 0)
(211.946 0.943462 0)
(212.439 1.1263 0)
(212.955 1.34075 0)
(213.451 1.60657 0)
(213.921 1.91821 0)
(214.391 2.26484 0)
(214.876 2.64381 0)
(215.309 3.0617 0)
(215.57 3.52364 0)
(215.676 3.99751 0)
(215.593 4.48003 0)
(215.31 4.99268 0)
(215.047 5.50406 0)
(214.943 6.02876 0)
(214.976 6.5719 0)
(215.075 7.14891 0)
(215.228 7.74504 0)
(215.375 8.36906 0)
(215.486 9.02157 0)
(215.573 9.69812 0)
(215.643 10.3963 0)
(215.698 11.1187 0)
(215.744 11.8675 0)
(215.779 12.6453 0)
(215.801 13.4547 0)
(215.809 14.2946 0)
(215.804 15.167 0)
(215.785 16.0694 0)
(215.753 17.0027 0)
(215.707 17.9656 0)
(215.648 18.9581 0)
(215.575 19.9805 0)
(215.487 21.0326 0)
(215.387 22.1135 0)
(215.276 23.2232 0)
(215.154 24.3626 0)
(215.022 25.5326 0)
(214.88 26.7343 0)
(214.729 27.9686 0)
(214.572 29.2361 0)
(214.41 30.5379 0)
(214.243 31.8765 0)
(214.08 33.2476 0)
(213.92 34.6563 0)
(213.761 36.1061 0)
(213.612 37.5934 0)
(213.475 39.1241 0)
(213.348 40.6973 0)
(213.243 42.3139 0)
(213.162 43.9769 0)
(213.105 45.6863 0)
(213.087 47.4459 0)
(213.1 49.2551 0)
(213.165 51.118 0)
(213.277 53.0345 0)
(213.447 55.0057 0)
(213.69 57.0325 0)
(214.006 59.1138 0)
(214.423 61.2513 0)
(214.929 63.4447 0)
(215.566 65.695 0)
(216.309 68 0)
(217.212 70.3586 0)
(218.257 72.7677 0)
(219.488 75.224 0)
(220.911 77.7242 0)
(222.543 80.2635 0)
(224.417 82.8303 0)
(226.521 85.4196 0)
(228.948 87.9991 0)
(231.62 90.5804 0)
(234.698 93.109 0)
(238.02 95.6419 0)
(241.812 98.064 0)
(245.913 100.424 0)
(250.489 102.583 0)
(255.405 104.583 0)
(260.66 106.387 0)
(266.313 107.971 0)
(272.61 109.237 0)
(279.215 110.071 0)
(286.578 110.601 0)
(293.288 110.737 0)
(300.381 110.693 0)
(308.012 110.175 0)
(315.082 109.461 0)
(323.506 108.212 0)
(331.355 106.423 0)
(338.851 104.401 0)
(346.698 101.954 0)
(353.776 99.4181 0)
(359.935 97.3656 0)
(366.657 94.6813 0)
(371.358 92.5356 0)
(375.07 90.0172 0)
(377.697 87.2477 0)
(380.134 85.4252 0)
(385.545 84.0812 0)
(396 82.528 0)
(400.187 87.8547 0)
(210 1.19249e-11 0)
(210 1.16358e-11 0)
(210 6.29161e-12 0)
(210 1.36515e-11 0)
(210 9.27978e-12 0)
(210 9.25628e-11 0)
(210 1.21731e-08 0)
(210 1.53369e-06 0)
(209.998 0.000224749 0)
(209.962 0.00893752 0)
(209.646 0.109141 0)
(208.705 0.478839 0)
(207.546 0.966306 0)
(207.055 1.24457 0)
(206.914 1.38607 0)
(207.322 1.37156 0)
(208.4 1.01897 0)
(209.521 0.713946 0)
(210.295 0.560955 0)
(210.829 0.620355 0)
(211.238 0.778061 0)
(211.647 0.968675 0)
(212.115 1.16268 0)
(212.624 1.38027 0)
(213.118 1.64211 0)
(213.572 1.946 0)
(214.004 2.28342 0)
(214.452 2.65265 0)
(214.898 3.05724 0)
(215.231 3.50329 0)
(215.394 3.98231 0)
(215.411 4.44264 0)
(215.194 4.93914 0)
(214.881 5.45094 0)
(214.672 5.97275 0)
(214.631 6.51241 0)
(214.684 7.08135 0)
(214.792 7.67276 0)
(214.923 8.2908 0)
(215.028 8.93617 0)
(215.105 9.60343 0)
(215.159 10.2919 0)
(215.196 11.0043 0)
(215.225 11.743 0)
(215.241 12.5101 0)
(215.241 13.3073 0)
(215.231 14.1323 0)
(215.203 14.991 0)
(215.161 15.8804 0)
(215.105 16.7989 0)
(215.036 17.7461 0)
(214.952 18.7221 0)
(214.853 19.7273 0)
(214.738 20.7615 0)
(214.611 21.8243 0)
(214.471 22.9153 0)
(214.319 24.0352 0)
(214.155 25.1851 0)
(213.98 26.3658 0)
(213.795 27.5784 0)
(213.6 28.8239 0)
(213.398 30.1034 0)
(213.192 31.4161 0)
(212.983 32.7641 0)
(212.776 34.1479 0)
(212.564 35.5747 0)
(212.361 37.0346 0)
(212.165 38.5374 0)
(211.974 40.0841 0)
(211.801 41.6731 0)
(211.645 43.309 0)
(211.508 44.9908 0)
(211.402 46.7228 0)
(211.321 48.5045 0)
(211.285 50.3404 0)
(211.285 52.2307 0)
(211.334 54.1774 0)
(211.444 56.1825 0)
(211.617 58.2452 0)
(211.877 60.3682 0)
(212.213 62.5508 0)
(212.665 64.7963 0)
(213.209 67.1027 0)
(213.9 69.4727 0)
(214.714 71.9039 0)
(215.696 74.3949 0)
(216.85 76.9406 0)
(218.198 79.5334 0)
(219.774 82.1617 0)
(221.57 84.8208 0)
(223.661 87.4976 0)
(225.982 90.2085 0)
(228.683 92.9045 0)
(231.619 95.5913 0)
(234.99 98.1659 0)
(238.607 100.695 0)
(242.654 103.113 0)
(247.034 105.458 0)
(251.88 107.672 0)
(257.29 109.693 0)
(263.186 111.408 0)
(269.356 112.728 0)
(275.786 113.873 0)
(283.125 114.692 0)
(289.861 115.133 0)
(298.099 115.185 0)
(305.543 114.769 0)
(312.634 114.295 0)
(320.955 113.213 0)
(328.181 111.988 0)
(336.352 110.105 0)
(344.231 107.81 0)
(351.198 105.704 0)
(359.305 102.948 0)
(365.414 100.372 0)
(370.669 97.0648 0)
(374.091 93.6602 0)
(376.875 90.9687 0)
(382.257 89.3319 0)
(392.809 88.2081 0)
(396.547 94.779 0)
(210 1.90249e-11 0)
(210 7.49532e-12 0)
(210 1.46028e-11 0)
(210 1.45548e-11 0)
(210 1.99512e-12 0)
(210 -5.67363e-12 0)
(210 1.39879e-09 0)
(210 2.50093e-07 0)
(209.999 6.83535e-05 0)
(209.98 0.00393838 0)
(209.768 0.0647261 0)
(208.961 0.359288 0)
(207.751 0.851625 0)
(207.057 1.19488 0)
(206.824 1.34751 0)
(207.08 1.39862 0)
(208.042 1.11726 0)
(209.173 0.780987 0)
(209.99 0.57538 0)
(210.558 0.614538 0)
(210.965 0.772454 0)
(211.346 0.975794 0)
(211.784 1.18509 0)
(212.279 1.40787 0)
(212.77 1.66506 0)
(213.215 1.95923 0)
(213.617 2.28523 0)
(214.02 2.6423 0)
(214.448 3.03397 0)
(214.831 3.46501 0)
(215.061 3.93217 0)
(215.142 4.40004 0)
(215.041 4.88093 0)
(214.739 5.38778 0)
(214.438 5.90464 0)
(214.293 6.4425 0)
(214.293 7.00196 0)
(214.353 7.59752 0)
(214.454 8.20448 0)
(214.55 8.8388 0)
(214.618 9.49873 0)
(214.656 10.1803 0)
(214.677 10.8828 0)
(214.688 11.6111 0)
(214.684 12.3659 0)
(214.666 13.1502 0)
(214.632 13.9655 0)
(214.584 14.8102 0)
(214.519 15.6845 0)
(214.439 16.5878 0)
(214.345 17.5195 0)
(214.236 18.4795 0)
(214.11 19.4683 0)
(213.968 20.4858 0)
(213.811 21.5316 0)
(213.641 22.6053 0)
(213.458 23.7071 0)
(213.261 24.8384 0)
(213.051 26 0)
(212.83 27.1928 0)
(212.597 28.4178 0)
(212.355 29.6759 0)
(212.104 30.9682 0)
(211.85 32.295 0)
(211.591 33.6584 0)
(211.333 35.0566 0)
(211.074 36.4945 0)
(210.819 37.9729 0)
(210.563 39.4966 0)
(210.324 41.0578 0)
(210.093 42.6669 0)
(209.88 44.3214 0)
(209.69 46.0259 0)
(209.519 47.7801 0)
(209.387 49.5875 0)
(209.283 51.4489 0)
(209.22 53.3661 0)
(209.209 55.3421 0)
(209.249 57.3759 0)
(209.366 59.4706 0)
(209.548 61.6252 0)
(209.832 63.8445 0)
(210.194 66.1261 0)
(210.687 68.4744 0)
(211.284 70.8865 0)
(212.031 73.3625 0)
(212.927 75.8989 0)
(213.998 78.4926 0)
(215.268 81.1415 0)
(216.736 83.848 0)
(218.466 86.6024 0)
(220.408 89.3995 0)
(222.697 92.197 0)
(225.211 95.0075 0)
(228.154 97.7846 0)
(231.359 100.583 0)
(235.047 103.318 0)
(239.092 105.983 0)
(243.537 108.504 0)
(248.349 110.841 0)
(253.536 113.036 0)
(259.328 114.947 0)
(265.507 116.525 0)
(272.446 117.953 0)
(279.617 118.795 0)
(286.621 119.403 0)
(295.192 119.567 0)
(302.405 119.325 0)
(311.113 118.615 0)
(318.959 117.634 0)
(326.724 116.349 0)
(334.492 114.778 0)
(341.834 113.105 0)
(349.052 111.04 0)
(355.374 109.006 0)
(361.085 106.415 0)
(365.333 103.561 0)
(368.987 101.284 0)
(375.208 99.1746 0)
(386.486 97.2442 0)
(390.843 102.789 0)
(210 3.24647e-12 0)
(210 -2.62718e-12 0)
(210 5.43712e-12 0)
(210 -3.17461e-12 0)
(210 -7.49251e-12 0)
(210 -3.02444e-11 0)
(210 -5.91382e-10 0)
(210 -1.61845e-08 0)
(210 1.5368e-05 0)
(209.991 0.00149261 0)
(209.86 0.0343767 0)
(209.213 0.249965 0)
(207.998 0.715688 0)
(207.105 1.12385 0)
(206.744 1.30005 0)
(206.889 1.41441 0)
(207.684 1.20383 0)
(208.799 0.850225 0)
(209.668 0.607976 0)
(210.28 0.638146 0)
(210.694 0.796448 0)
(211.049 1.00558 0)
(211.452 1.22265 0)
(211.924 1.44558 0)
(212.407 1.6942 0)
(212.843 1.97551 0)
(213.223 2.28854 0)
(213.587 2.63295 0)
(213.976 3.01335 0)
(214.368 3.43136 0)
(214.664 3.88368 0)
(214.797 4.3628 0)
(214.803 4.82345 0)
(214.579 5.31972 0)
(214.244 5.83562 0)
(213.991 6.36765 0)
(213.898 6.92446 0)
(213.917 7.50288 0)
(213.974 8.11283 0)
(214.051 8.73918 0)
(214.11 9.38703 0)
(214.136 10.0573 0)
(214.144 10.7473 0)
(214.136 11.4646 0)
(214.111 12.2093 0)
(214.073 12.9808 0)
(214.021 13.7803 0)
(213.951 14.6095 0)
(213.864 15.4685 0)
(213.76 16.3563 0)
(213.642 17.2715 0)
(213.508 18.214 0)
(213.357 19.1842 0)
(213.189 20.1824 0)
(213.005 21.2085 0)
(212.806 22.2618 0)
(212.593 23.3427 0)
(212.366 24.4522 0)
(212.124 25.5913 0)
(211.869 26.7608 0)
(211.601 27.9618 0)
(211.321 29.1953 0)
(211.031 30.4618 0)
(210.734 31.7621 0)
(210.432 33.0974 0)
(210.124 34.4698 0)
(209.813 35.8801 0)
(209.502 37.3304 0)
(209.193 38.8196 0)
(208.891 40.3513 0)
(208.588 41.9322 0)
(208.302 43.5543 0)
(208.031 45.2251 0)
(207.773 46.9469 0)
(207.548 48.7217 0)
(207.343 50.5517 0)
(207.172 52.4369 0)
(207.04 54.3825 0)
(206.95 56.3874 0)
(206.924 58.4558 0)
(206.951 60.5867 0)
(207.067 62.7862 0)
(207.246 65.0519 0)
(207.542 67.3903 0)
(207.926 69.7978 0)
(208.445 72.2781 0)
(209.094 74.8291 0)
(209.899 77.4504 0)
(210.883 80.1384 0)
(212.049 82.8891 0)
(213.454 85.6941 0)
(215.054 88.5523 0)
(216.973 91.4415 0)
(219.105 94.3645 0)
(221.642 97.2803 0)
(224.411 100.22 0)
(227.621 103.12 0)
(231.127 106.004 0)
(235.06 108.828 0)
(239.462 111.527 0)
(244.265 114.134 0)
(249.628 116.535 0)
(255.501 118.683 0)
(261.533 120.439 0)
(268.597 122.103 0)
(275.211 123.167 0)
(282.965 124.127 0)
(290.916 124.578 0)
(298.512 124.666 0)
(307.562 124.196 0)
(315.603 123.369 0)
(324.289 122.027 0)
(332.927 120.22 0)
(341.412 117.702 0)
(348.758 115.291 0)
(355.262 112.723 0)
(359.305 110.408 0)
(362.404 108.277 0)
(367.905 106.905 0)
(380.544 104.937 0)
(385.013 112.091 0)
(210 7.0362e-12 0)
(210 9.78311e-12 0)
(210 2.39447e-12 0)
(210 -1.20318e-11 0)
(210 -6.16577e-12 0)
(210 -2.1878e-11 0)
(210 -4.19376e-10 0)
(210 -3.43371e-08 0)
(210 1.43711e-06 0)
(209.996 0.000465747 0)
(209.924 0.0160313 0)
(209.446 0.158906 0)
(208.299 0.571212 0)
(207.224 1.02914 0)
(206.686 1.2665 0)
(206.738 1.38919 0)
(207.327 1.25682 0)
(208.391 0.910236 0)
(209.327 0.645934 0)
(209.994 0.663567 0)
(210.422 0.815122 0)
(210.748 1.02212 0)
(211.111 1.24231 0)
(211.554 1.46385 0)
(212.023 1.70331 0)
(212.452 1.97117 0)
(212.817 2.27108 0)
(213.152 2.60266 0)
(213.498 2.9704 0)
(213.87 3.37495 0)
(214.205 3.81312 0)
(214.405 4.27906 0)
(214.471 4.75243 0)
(214.375 5.23329 0)
(214.079 5.74177 0)
(213.741 6.27114 0)
(213.531 6.82493 0)
(213.474 7.40394 0)
(213.494 8.00334 0)
(213.539 8.62357 0)
(213.582 9.26468 0)
(213.595 9.9268 0)
(213.592 10.602 0)
(213.563 11.3098 0)
(213.52 12.0411 0)
(213.463 12.7993 0)
(213.39 13.5852 0)
(213.298 14.3994 0)
(213.189 15.2423 0)
(213.062 16.1134 0)
(212.919 17.0118 0)
(212.759 17.937 0)
(212.582 18.8894 0)
(212.387 19.8693 0)
(212.174 20.8764 0)
(211.945 21.9104 0)
(211.701 22.9714 0)
(211.442 24.0602 0)
(211.167 25.1779 0)
(210.877 26.3256 0)
(210.572 27.5041 0)
(210.253 28.7144 0)
(209.922 29.9573 0)
(209.581 31.2338 0)
(209.232 32.5445 0)
(208.876 33.8905 0)
(208.514 35.2734 0)
(208.148 36.6952 0)
(207.78 38.1581 0)
(207.411 39.6633 0)
(207.047 41.2099 0)
(206.69 42.8011 0)
(206.341 44.4412 0)
(205.998 46.133 0)
(205.685 47.8709 0)
(205.381 49.667 0)
(205.111 51.516 0)
(204.868 53.4263 0)
(204.66 55.3946 0)
(204.504 57.4262 0)
(204.392 59.5195 0)
(204.355 61.6812 0)
(204.371 63.9088 0)
(204.489 66.2104 0)
(204.679 68.5822 0)
(204.988 71.0306 0)
(205.404 73.5536 0)
(205.957 76.1521 0)
(206.662 78.825 0)
(207.528 81.5727 0)
(208.602 84.3946 0)
(209.85 87.2868 0)
(211.386 90.235 0)
(213.119 93.2429 0)
(215.225 96.2977 0)
(217.551 99.418 0)
(220.318 102.541 0)
(223.374 105.664 0)
(226.878 108.731 0)
(230.785 111.723 0)
(235.043 114.665 0)
(239.818 117.412 0)
(244.977 120.075 0)
(250.828 122.51 0)
(257.131 124.587 0)
(264.171 126.284 0)
(270.995 127.68 0)
(279.228 128.934 0)
(286.403 129.622 0)
(294.95 129.852 0)
(303.025 129.789 0)
(311.239 129.208 0)
(319.873 128.289 0)
(328.759 126.922 0)
(337.154 125.168 0)
(346.058 122.184 0)
(351.796 118.587 0)
(356.507 114.777 0)
(362.777 112.567 0)
(375.635 111.255 0)
(379.901 119.586 0)
(210 1.06903e-11 0)
(210 3.66634e-12 0)
(210 -4.61393e-13 0)
(210 -1.16488e-11 0)
(210 -1.57483e-11 0)
(210 -2.96224e-11 0)
(210 -1.91627e-10 0)
(210 -1.76266e-08 0)
(210 -7.51497e-07 0)
(209.999 0.000107905 0)
(209.963 0.00635993 0)
(209.643 0.0902018 0)
(208.63 0.424213 0)
(207.405 0.908295 0)
(206.662 1.2177 0)
(206.627 1.32758 0)
(206.991 1.26974 0)
(207.973 0.993401 0)
(208.978 0.723553 0)
(209.702 0.710348 0)
(210.145 0.84276 0)
(210.444 1.03823 0)
(210.764 1.25654 0)
(211.173 1.47592 0)
(211.622 1.70668 0)
(212.041 1.96147 0)
(212.395 2.24962 0)
(212.71 2.5715 0)
(213.021 2.93057 0)
(213.354 3.326 0)
(213.687 3.75429 0)
(213.941 4.21077 0)
(214.056 4.69344 0)
(214.063 5.16182 0)
(213.869 5.66433 0)
(213.522 6.19335 0)
(213.21 6.73667 0)
(213.045 7.3029 0)
(213.005 7.89392 0)
(213.017 8.50593 0)
(213.036 9.13504 0)
(213.039 9.782 0)
(213.02 10.4504 0)
(212.976 11.1423 0)
(212.915 11.8591 0)
(212.838 12.6021 0)
(212.744 13.3722 0)
(212.632 14.1699 0)
(212.501 14.9955 0)
(212.351 15.8488 0)
(212.184 16.7287 0)
(212 17.6348 0)
(211.798 18.5672 0)
(211.577 19.5265 0)
(211.337 20.5127 0)
(211.08 21.5251 0)
(210.807 22.5638 0)
(210.517 23.6294 0)
(210.211 24.7229 0)
(209.889 25.8455 0)
(209.55 26.998 0)
(209.196 28.1814 0)
(208.827 29.3966 0)
(208.446 30.6445 0)
(208.055 31.9258 0)
(207.654 33.2418 0)
(207.244 34.594 0)
(206.827 35.9841 0)
(206.405 37.4133 0)
(205.979 38.8834 0)
(205.551 40.3965 0)
(205.125 41.9545 0)
(204.702 43.5589 0)
(204.289 45.209 0)
(203.891 46.9095 0)
(203.486 48.6742 0)
(203.12 50.4807 0)
(202.768 52.3517 0)
(202.445 54.2816 0)
(202.16 56.277 0)
(201.909 58.3355 0)
(201.721 60.4639 0)
(201.572 62.6603 0)
(201.511 64.9346 0)
(201.507 67.282 0)
(201.606 69.7109 0)
(201.796 72.2189 0)
(202.106 74.8095 0)
(202.547 77.483 0)
(203.132 80.2389 0)
(203.901 83.0756 0)
(204.83 85.99 0)
(206.014 88.9814 0)
(207.371 92.0496 0)
(209.066 95.1785 0)
(210.958 98.3606 0)
(213.255 101.558 0)
(215.793 104.791 0)
(218.76 108.036 0)
(222.099 111.292 0)
(225.856 114.552 0)
(230.178 117.684 0)
(234.834 120.759 0)
(240.086 123.538 0)
(245.821 126.216 0)
(252.204 128.672 0)
(259.077 130.715 0)
(266.504 132.507 0)
(274.666 133.833 0)
(282.483 134.694 0)
(291.985 135.15 0)
(299.855 135.198 0)
(309.388 134.574 0)
(317.048 134.289 0)
(325.424 133.398 0)
(333.2 131.719 0)
(339.293 129.225 0)
(344.574 126.415 0)
(351.356 124.438 0)
(364.883 122.547 0)
(369.158 130.399 0)
(210 1.52727e-12 0)
(210 -1.13131e-12 0)
(210 -4.34409e-12 0)
(210 -2.02283e-11 0)
(210 -2.01812e-11 0)
(210 -3.03932e-11 0)
(210 -6.52005e-11 0)
(210 -6.31447e-09 0)
(210 -4.43411e-07 0)
(210 1.16847e-05 0)
(209.984 0.00205546 0)
(209.792 0.0447637 0)
(208.971 0.288838 0)
(207.667 0.765205 0)
(206.699 1.12836 0)
(206.557 1.24993 0)
(206.704 1.27412 0)
(207.552 1.09451 0)
(208.604 0.807201 0)
(209.384 0.741069 0)
(209.853 0.849181 0)
(210.132 1.03178 0)
(210.411 1.24951 0)
(210.783 1.4699 0)
(211.207 1.6931 0)
(211.613 1.93195 0)
(211.958 2.20389 0)
(212.263 2.51258 0)
(212.552 2.86136 0)
(212.848 3.2468 0)
(213.151 3.66634 0)
(213.427 4.11378 0)
(213.604 4.58434 0)
(213.66 5.07605 0)
(213.6 5.56196 0)
(213.326 6.08072 0)
(212.957 6.62449 0)
(212.67 7.18731 0)
(212.531 7.76966 0)
(212.491 8.37145 0)
(212.48 8.99196 0)
(212.466 9.62857 0)
(212.433 10.2845 0)
(212.376 10.9633 0)
(212.295 11.6662 0)
(212.197 12.394 0)
(212.083 13.1476 0)
(211.95 13.9281 0)
(211.797 14.736 0)
(211.624 15.5712 0)
(211.432 16.4326 0)
(211.223 17.3194 0)
(210.996 18.2317 0)
(210.748 19.1702 0)
(210.481 20.135 0)
(210.195 21.1259 0)
(209.892 22.1425 0)
(209.571 23.1856 0)
(209.233 24.2559 0)
(208.877 25.3547 0)
(208.502 26.4827 0)
(208.111 27.6408 0)
(207.703 28.8301 0)
(207.281 30.0514 0)
(206.845 31.3053 0)
(206.398 32.593 0)
(205.94 33.9157 0)
(205.472 35.2752 0)
(204.995 36.6732 0)
(204.51 38.1113 0)
(204.021 39.5906 0)
(203.528 41.1132 0)
(203.036 42.6811 0)
(202.545 44.2973 0)
(202.058 45.9646 0)
(201.583 47.6784 0)
(201.122 49.4477 0)
(200.662 51.2808 0)
(200.234 53.1658 0)
(199.831 55.1144 0)
(199.456 57.1268 0)
(199.131 59.208 0)
(198.837 61.3568 0)
(198.618 63.5824 0)
(198.44 65.8801 0)
(198.354 68.2602 0)
(198.338 70.7207 0)
(198.424 73.2674 0)
(198.617 75.9011 0)
(198.934 78.624 0)
(199.405 81.4396 0)
(200.013 84.3474 0)
(200.841 87.3501 0)
(201.822 90.4413 0)
(203.106 93.618 0)
(204.566 96.8759 0)
(206.406 100.202 0)
(208.474 103.6 0)
(210.975 107.035 0)
(213.8 110.494 0)
(217.029 113.953 0)
(220.744 117.352 0)
(224.794 120.758 0)
(229.509 123.98 0)
(234.563 127.148 0)
(240.287 130.077 0)
(246.631 132.818 0)
(253.169 135.035 0)
(260.995 137.351 0)
(268.316 138.806 0)
(277.256 140.2 0)
(285.648 140.925 0)
(295.431 141.29 0)
(305.318 140.792 0)
(314.875 139.743 0)
(324.395 137.921 0)
(330.997 135.894 0)
(336.334 133.342 0)
(342.482 132.49 0)
(357.208 131.304 0)
(361.025 141.532 0)
(210 6.90972e-12 0)
(210 4.94133e-12 0)
(210 -1.39781e-11 0)
(210 -2.04062e-11 0)
(210 -1.2878e-11 0)
(210 -1.29478e-11 0)
(210 -1.40851e-11 0)
(210 -1.8844e-09 0)
(210 -1.67215e-07 0)
(210 -4.24826e-06 0)
(209.994 0.000489197 0)
(209.893 0.0188048 0)
(209.289 0.176187 0)
(208.003 0.601913 0)
(206.811 1.00424 0)
(206.503 1.18364 0)
(206.478 1.27671 0)
(207.141 1.17841 0)
(208.203 0.882083 0)
(209.045 0.773772 0)
(209.549 0.856007 0)
(209.817 1.01997 0)
(210.06 1.23123 0)
(210.391 1.45168 0)
(210.783 1.6713 0)
(211.169 1.90042 0)
(211.503 2.16261 0)
(211.801 2.46471 0)
(212.076 2.80897 0)
(212.347 3.18822 0)
(212.612 3.59972 0)
(212.874 4.03756 0)
(213.085 4.50082 0)
(213.19 4.99115 0)
(213.212 5.47894 0)
(213.064 5.99022 0)
(212.724 6.52742 0)
(212.354 7.07888 0)
(212.096 7.6474 0)
(211.971 8.236 0)
(211.917 8.84316 0)
(211.88 9.46695 0)
(211.833 10.108 0)
(211.763 10.7707 0)
(211.665 11.4576 0)
(211.547 12.1691 0)
(211.411 12.9056 0)
(211.257 13.6679 0)
(211.083 14.4566 0)
(210.888 15.2721 0)
(210.673 16.1134 0)
(210.44 16.9797 0)
(210.187 17.8707 0)
(209.915 18.787 0)
(209.621 19.729 0)
(209.308 20.6964 0)
(208.976 21.6888 0)
(208.627 22.7067 0)
(208.259 23.751 0)
(207.872 24.8228 0)
(207.465 25.9229 0)
(207.04 27.0523 0)
(206.597 28.212 0)
(206.137 29.4027 0)
(205.662 30.6252 0)
(205.172 31.8805 0)
(204.67 33.1698 0)
(204.155 34.4948 0)
(203.628 35.8571 0)
(203.09 37.2582 0)
(202.544 38.6997 0)
(201.99 40.1835 0)
(201.431 41.7114 0)
(200.869 43.2856 0)
(200.307 44.9084 0)
(199.748 46.5829 0)
(199.192 48.3112 0)
(198.647 50.0925 0)
(198.117 51.9322 0)
(197.597 53.837 0)
(197.096 55.8057 0)
(196.636 57.8385 0)
(196.194 59.9424 0)
(195.817 62.1243 0)
(195.465 64.3812 0)
(195.193 66.7226 0)
(194.972 69.146 0)
(194.839 71.6589 0)
(194.793 74.2627 0)
(194.855 76.9604 0)
(195.046 79.7544 0)
(195.36 82.6431 0)
(195.864 85.6342 0)
(196.5 88.7224 0)
(197.401 91.9119 0)
(198.454 95.189 0)
(199.855 98.5539 0)
(201.449 102.008 0)
(203.442 105.546 0)
(205.714 109.162 0)
(208.404 112.834 0)
(211.536 116.524 0)
(215.045 120.256 0)
(219.195 123.901 0)
(223.679 127.567 0)
(228.903 130.966 0)
(234.52 134.291 0)
(240.921 137.387 0)
(247.756 140.082 0)
(255.424 142.403 0)
(262.789 144.324 0)
(271.833 146.104 0)
(279.665 147.269 0)
(289.859 148.009 0)
(298.57 148.269 0)
(310.05 147.562 0)
(318.271 145.706 0)
(326.021 142.47 0)
(333.409 140.138 0)
(348.155 138.774 0)
(352.02 148.398 0)
(210 1.00094e-11 0)
(210 -1.81295e-11 0)
(210 -2.6281e-11 0)
(210 -7.59697e-12 0)
(210 -1.20266e-11 0)
(210 -2.37185e-12 0)
(210 4.98185e-12 0)
(210 -4.742e-10 0)
(210 -5.06643e-08 0)
(210 -3.14124e-06 0)
(209.998 5.48729e-05 0)
(209.951 0.00638664 0)
(209.554 0.0940988 0)
(208.396 0.434505 0)
(207.03 0.865539 0)
(206.477 1.13384 0)
(206.314 1.23228 0)
(206.752 1.21447 0)
(207.778 0.945748 0)
(208.685 0.809294 0)
(209.233 0.848989 0)
(209.502 0.98737 0)
(209.716 1.18761 0)
(210.006 1.40633 0)
(210.359 1.62424 0)
(210.723 1.8473 0)
(211.048 2.10305 0)
(211.34 2.40149 0)
(211.608 2.74396 0)
(211.863 3.11981 0)
(212.097 3.52452 0)
(212.325 3.95297 0)
(212.534 4.40609 0)
(212.686 4.88252 0)
(212.742 5.38713 0)
(212.716 5.88132 0)
(212.482 6.40644 0)
(212.092 6.95608 0)
(211.727 7.51542 0)
(211.489 8.0883 0)
(211.363 8.67943 0)
(211.289 9.29019 0)
(211.221 9.91916 0)
(211.137 10.5674 0)
(211.024 11.2378 0)
(210.887 11.9319 0)
(210.729 12.6502 0)
(210.554 13.3937 0)
(210.358 14.1629 0)
(210.141 14.9581 0)
(209.903 15.7788 0)
(209.645 16.6241 0)
(209.368 17.4934 0)
(209.071 18.3874 0)
(208.751 19.3065 0)
(208.409 20.2507 0)
(208.049 21.2194 0)
(207.669 22.213 0)
(207.27 23.2321 0)
(206.851 24.278 0)
(206.411 25.3513 0)
(205.951 26.453 0)
(205.472 27.5841 0)
(204.973 28.7455 0)
(204.457 29.9379 0)
(203.924 31.1623 0)
(203.377 32.4196 0)
(202.814 33.7114 0)
(202.236 35.0393 0)
(201.645 36.4049 0)
(201.041 37.8098 0)
(200.427 39.2555 0)
(199.804 40.7441 0)
(199.173 42.2776 0)
(198.537 43.8581 0)
(197.899 45.4878 0)
(197.261 47.1688 0)
(196.626 48.9049 0)
(195.995 50.6986 0)
(195.375 52.5503 0)
(194.773 54.4617 0)
(194.188 56.4414 0)
(193.612 58.493 0)
(193.095 60.6114 0)
(192.587 62.8075 0)
(192.154 65.0866 0)
(191.751 67.4479 0)
(191.425 69.8984 0)
(191.163 72.4409 0)
(190.99 75.0803 0)
(190.918 77.8215 0)
(190.949 80.6664 0)
(191.135 83.6252 0)
(191.431 86.6898 0)
(191.958 89.8716 0)
(192.614 93.1594 0)
(193.58 96.5709 0)
(194.71 100.095 0)
(196.212 103.727 0)
(197.954 107.447 0)
(200.096 111.242 0)
(202.605 115.101 0)
(205.491 119.03 0)
(208.949 122.954 0)
(212.737 126.931 0)
(217.299 130.765 0)
(222.222 134.601 0)
(227.908 138.152 0)
(234.195 141.703 0)
(241.26 144.926 0)
(248.815 147.574 0)
(257.462 150.146 0)
(266.145 152.042 0)
(275.375 153.439 0)
(284.426 154.678 0)
(294.232 155.183 0)
(302.568 154.907 0)
(309.891 153.141 0)
(316.891 151.951 0)
(332.092 150.535 0)
(334.986 161.052 0)
(210 -9.12209e-12 0)
(210 -2.86468e-11 0)
(210 -6.1148e-12 0)
(210 -1.21465e-11 0)
(210 -1.1843e-11 0)
(210 1.35549e-13 0)
(210 -1.37444e-12 0)
(210 -1.03549e-10 0)
(210 -1.29794e-08 0)
(210 -1.06957e-06 0)
(209.999 -1.89653e-05 0)
(209.981 0.00157902 0)
(209.75 0.0424931 0)
(208.807 0.284529 0)
(207.341 0.709691 0)
(206.489 1.05726 0)
(206.199 1.1485 0)
(206.424 1.20754 0)
(207.353 1.02195 0)
(208.312 0.8559 0)
(208.903 0.828014 0)
(209.186 0.9394 0)
(209.381 1.132 0)
(209.631 1.3589 0)
(209.939 1.58805 0)
(210.277 1.81431 0)
(210.593 2.06663 0)
(210.878 2.36101 0)
(211.14 2.69987 0)
(211.385 3.07037 0)
(211.597 3.46581 0)
(211.789 3.88165 0)
(211.97 4.32115 0)
(212.132 4.78505 0)
(212.227 5.27585 0)
(212.251 5.78321 0)
(212.155 6.29247 0)
(211.832 6.82825 0)
(211.413 7.37807 0)
(211.061 7.93699 0)
(210.836 8.51132 0)
(210.702 9.10531 0)
(210.602 9.71854 0)
(210.5 10.3506 0)
(210.374 11.0035 0)
(210.22 11.6794 0)
(210.043 12.3789 0)
(209.846 13.1025 0)
(209.63 13.851 0)
(209.391 14.6249 0)
(209.131 15.4239 0)
(208.85 16.247 0)
(208.549 17.0936 0)
(208.227 17.964 0)
(207.882 18.8588 0)
(207.514 19.7781 0)
(207.126 20.7213 0)
(206.719 21.6885 0)
(206.291 22.6803 0)
(205.842 23.6979 0)
(205.372 24.742 0)
(204.88 25.8135 0)
(204.367 26.9132 0)
(203.834 28.0423 0)
(203.281 29.2013 0)
(202.71 30.3911 0)
(202.121 31.6127 0)
(201.515 32.8676 0)
(200.892 34.1571 0)
(200.253 35.4831 0)
(199.598 36.847 0)
(198.929 38.2504 0)
(198.246 39.6952 0)
(197.553 41.1835 0)
(196.849 42.7173 0)
(196.138 44.2991 0)
(195.422 45.9308 0)
(194.702 47.6153 0)
(193.98 49.3553 0)
(193.261 51.1543 0)
(192.548 53.0157 0)
(191.842 54.9406 0)
(191.157 56.9292 0)
(190.498 58.9915 0)
(189.825 61.1397 0)
(189.233 63.3565 0)
(188.644 65.6618 0)
(188.131 68.0564 0)
(187.656 70.5453 0)
(187.258 73.1323 0)
(186.937 75.8216 0)
(186.704 78.6152 0)
(186.6 81.5233 0)
(186.589 84.54 0)
(186.772 87.6842 0)
(187.059 90.9425 0)
(187.613 94.3374 0)
(188.298 97.8486 0)
(189.318 101.49 0)
(190.534 105.247 0)
(192.131 109.126 0)
(194.042 113.113 0)
(196.337 117.202 0)
(199.127 121.347 0)
(202.269 125.561 0)
(206.134 129.713 0)
(210.311 133.944 0)
(215.337 138.027 0)
(220.76 142.088 0)
(226.984 145.925 0)
(234.028 149.697 0)
(241.535 152.707 0)
(250.53 155.905 0)
(259.472 158.018 0)
(269.925 159.93 0)
(280.647 160.96 0)
(290.521 160.985 0)
(299.338 159.418 0)
(306.545 158.965 0)
(322.109 159.003 0)
(324.114 172.123 0)
(210 -1.63611e-11 0)
(210 -8.90048e-12 0)
(210 -1.53853e-12 0)
(210 -2.09164e-11 0)
(210 -2.7224e-12 0)
(210 1.53826e-12 0)
(210 -1.06217e-11 0)
(210 -2.65554e-11 0)