/*--------------------------------*- C++ -*----------------------------------*\
| =========                 |                                                 |
| \\      /  F ield         | OpenFOAM: The Open Source CFD Toolbox           |
|  \\    /   O peration     | Version:  2412                                  |
|   \\  /    A nd           | Website:  www.openfoam.com                      |
|    \\/     M anipulation  |                                                 |
\*---------------------------------------------------------------------------*/
FoamFile
{
    version     2.0;
    format      ascii;
    arch        "LSB;label=32;scalar=64";
    class       volVectorField;
    location    "0.036";
    object      U;
}
// * * * * * * * * * * * * * * * * * * * * * * * * * * * * * * * * * * * * * //

dimensions      [0 1 -1 0 0 0 0];

internalField   nonuniform List<vector> 
78650
(
(210 -5.25105e-12 0)
(210 -3.80537e-12 0)
(210 -1.02081e-11 0)
(210 1.57228e-12 0)
(210 5.86407e-11 0)
(210 3.76852e-09 0)
(210 4.41256e-07 0)
(210 5.35546e-05 0)
(209.987 0.0030515 0)
(209.827 0.0547557 0)
(209.146 0.328619 0)
(208.067 0.839781 0)
(207.27 1.23558 0)
(207.16 1.35037 0)
(207.297 1.37262 0)
(208.19 1.14605 0)
(209.405 0.72006 0)
(210.413 0.507469 0)
(211.1 0.467324 0)
(211.592 0.578804 0)
(212.048 0.746455 0)
(212.542 0.915986 0)
(213.074 1.0831 0)
(213.6 1.29267 0)
(214.111 1.56017 0)
(214.633 1.87709 0)
(215.177 2.2313 0)
(215.663 2.62586 0)
(215.969 3.06774 0)
(216.097 3.54817 0)
(216.05 4.02658 0)
(215.798 4.54966 0)
(215.565 5.06606 0)
(215.491 5.58369 0)
(215.542 6.11425 0)
(215.676 6.67209 0)
(215.878 7.25269 0)
(216.071 7.86404 0)
(216.227 8.50503 0)
(216.356 9.17269 0)
(216.471 9.86421 0)
(216.579 10.5785 0)
(216.67 11.3198 0)
(216.75 12.0897 0)
(216.824 12.8894 0)
(216.887 13.7214 0)
(216.939 14.5861 0)
(216.979 15.4837 0)
(217.008 16.4131 0)
(217.025 17.3736 0)
(217.029 18.3652 0)
(217.021 19.3879 0)
(217 20.4417 0)
(216.967 21.5258 0)
(216.925 22.6398 0)
(216.874 23.7837 0)
(216.816 24.9579 0)
(216.752 26.1635 0)
(216.681 27.4016 0)
(216.607 28.6734 0)
(216.529 29.9802 0)
(216.451 31.3231 0)
(216.375 32.7024 0)
(216.305 34.1175 0)
(216.247 35.5711 0)
(216.201 37.0634 0)
(216.169 38.5954 0)
(216.161 40.1705 0)
(216.173 41.7891 0)
(216.215 43.4532 0)
(216.291 45.1642 0)
(216.401 46.9224 0)
(216.565 48.7296 0)
(216.777 50.5845 0)
(217.059 52.4889 0)
(217.412 54.4433 0)
(217.842 56.4482 0)
(218.369 58.505 0)
(218.989 60.6138 0)
(219.732 62.7732 0)
(220.589 64.9805 0)
(221.607 67.2306 0)
(222.765 69.5228 0)
(224.119 71.8542 0)
(225.648 74.2232 0)
(227.395 76.6159 0)
(229.372 79.0136 0)
(231.595 81.4072 0)
(234.115 83.7899 0)
(236.897 86.1684 0)
(240.045 88.4611 0)
(243.441 90.6946 0)
(247.278 92.7834 0)
(251.37 94.8841 0)
(255.959 96.8201 0)
(260.998 98.5991 0)
(266.562 100.075 0)
(272.325 101.215 0)
(278.365 102.152 0)
(285.029 102.764 0)
(291.619 103.113 0)
(298.659 103.089 0)
(305.884 102.644 0)
(313.595 101.773 0)
(321.344 100.527 0)
(329.103 98.8303 0)
(336.29 97.124 0)
(343.209 95.2988 0)
(349.997 93.0784 0)
(356.112 90.7728 0)
(361.765 88.4591 0)
(367.827 85.518 0)
(372.932 83.1568 0)
(378.434 80.4335 0)
(382.556 77.699 0)
(384.844 75.3174 0)
(386.78 72.6788 0)
(389.365 71.5821 0)
(394.936 70.5535 0)
(403.442 69.5145 0)
(406.843 73.589 0)
(210 -2.2542e-12 0)
(210 2.89787e-12 0)
(210 -5.7766e-12 0)
(210 -3.18532e-12 0)
(210 3.21093e-11 0)
(210 1.39076e-09 0)
(210 1.66716e-07 0)
(210 2.0298e-05 0)
(209.993 0.00145242 0)
(209.888 0.0327069 0)
(209.328 0.241941 0)
(208.246 0.723786 0)
(207.314 1.15574 0)
(207.113 1.31101 0)
(207.143 1.39565 0)
(207.891 1.24561 0)
(209.091 0.825509 0)
(210.139 0.580059 0)
(210.845 0.506751 0)
(211.343 0.601864 0)
(211.78 0.766379 0)
(212.247 0.942122 0)
(212.761 1.1159 0)
(213.281 1.32638 0)
(213.781 1.59199 0)
(214.274 1.90615 0)
(214.783 2.25733 0)
(215.285 2.64363 0)
(215.666 3.07403 0)
(215.854 3.5505 0)
(215.898 4.01015 0)
(215.71 4.51081 0)
(215.427 5.02869 0)
(215.252 5.54605 0)
(215.241 6.06949 0)
(215.32 6.62927 0)
(215.475 7.20107 0)
(215.655 7.80477 0)
(215.807 8.44013 0)
(215.926 9.10113 0)
(216.026 9.78423 0)
(216.115 10.4895 0)
(216.187 11.2211 0)
(216.251 11.9804 0)
(216.305 12.7691 0)
(216.347 13.5893 0)
(216.377 14.4412 0)
(216.394 15.3256 0)
(216.4 16.2414 0)
(216.393 17.1877 0)
(216.372 18.1645 0)
(216.339 19.1715 0)
(216.291 20.2089 0)
(216.232 21.2762 0)
(216.161 22.3729 0)
(216.08 23.4988 0)
(215.991 24.6544 0)
(215.893 25.8407 0)
(215.788 27.0588 0)
(215.677 28.31 0)
(215.56 29.5954 0)
(215.441 30.9161 0)
(215.32 32.2734 0)
(215.202 33.6657 0)
(215.093 35.0963 0)
(214.991 36.5658 0)
(214.901 38.0739 0)
(214.829 39.6251 0)
(214.772 41.2194 0)
(214.739 42.8591 0)
(214.735 44.546 0)
(214.758 46.2807 0)
(214.826 48.0656 0)
(214.935 49.8994 0)
(215.104 51.7847 0)
(215.333 53.722 0)
(215.631 55.7124 0)
(216.012 57.7578 0)
(216.477 59.8586 0)
(217.051 62.0152 0)
(217.725 64.2272 0)
(218.545 66.4933 0)
(219.486 68.8112 0)
(220.609 71.1756 0)
(221.892 73.5813 0)
(223.381 76.0202 0)
(225.087 78.4867 0)
(227.027 80.9791 0)
(229.243 83.4831 0)
(231.706 85.9872 0)
(234.509 88.44 0)
(237.558 90.8821 0)
(241.043 93.2526 0)
(244.786 95.6161 0)
(248.976 97.7786 0)
(253.382 99.8051 0)
(258.148 101.614 0)
(263.383 103.241 0)
(269.302 104.689 0)
(275.44 105.748 0)
(281.977 106.533 0)
(288.569 107.074 0)
(295.906 107.187 0)
(302.795 106.976 0)
(310.7 106.293 0)
(318.3 105.211 0)
(326.232 103.516 0)
(333.569 101.87 0)
(341.386 99.6741 0)
(348.265 97.4863 0)
(354.645 95.4117 0)
(361.364 92.8299 0)
(367.094 90.6575 0)
(373.066 88.055 0)
(377.875 85.4448 0)
(381.061 82.8298 0)
(383.267 79.9424 0)
(385.266 78.0619 0)
(389.963 76.6678 0)
(399.241 75.3856 0)
(402.987 80.3315 0)
(210 -8.45159e-13 0)
(210 -3.76558e-12 0)
(210 -6.89432e-12 0)
(210 -3.95433e-12 0)
(210 2.53697e-11 0)
(210 5.00982e-10 0)
(210 5.66299e-08 0)
(210 6.56993e-06 0)
(209.997 0.000614935 0)
(209.932 0.0180018 0)
(209.498 0.16883 0)
(208.465 0.603462 0)
(207.41 1.06873 0)
(207.077 1.27638 0)
(207.018 1.40665 0)
(207.598 1.32114 0)
(208.749 0.918203 0)
(209.836 0.638167 0)
(210.575 0.527012 0)
(211.088 0.603191 0)
(211.509 0.762117 0)
(211.946 0.943462 0)
(212.439 1.1263 0)
(212.955 1.34075 0)
(213.451 1.60656 0)
(213.921 1.91821 0)
(214.391 2.26484 0)
(214.876 2.64381 0)
(215.309 3.06168 0)
(215.57 3.5236 0)
(215.676 3.99747 0)
(215.593 4.47997 0)
(215.31 4.99263 0)
(215.047 5.50405 0)
(214.943 6.02881 0)
(214.975 6.572 0)
(215.074 7.14902 0)
(215.228 7.74503 0)
(215.375 8.36885 0)
(215.486 9.02131 0)
(215.573 9.6979 0)
(215.643 10.3963 0)
(215.697 11.119 0)
(215.743 11.8679 0)
(215.778 12.6458 0)
(215.799 13.4552 0)
(215.808 14.2951 0)
(215.802 15.1673 0)
(215.784 16.0698 0)
(215.753 17.0024 0)
(215.708 17.9653 0)
(215.649 18.9578 0)
(215.574 19.9803 0)
(215.486 21.0327 0)
(215.386 22.114 0)
(215.274 23.224 0)
(215.152 24.3634 0)
(215.021 25.533 0)
(214.88 26.7338 0)
(214.731 27.9673 0)
(214.575 29.2344 0)
(214.413 30.5361 0)
(214.246 31.8753 0)
(214.081 33.2471 0)
(213.92 34.6561 0)
(213.762 36.1056 0)
(213.614 37.5921 0)
(213.479 39.1216 0)
(213.354 40.6939 0)
(213.251 42.3108 0)
(213.168 43.9748 0)
(213.107 45.686 0)
(213.085 47.4477 0)
(213.096 49.2584 0)
(213.159 51.1209 0)
(213.274 53.0356 0)
(213.448 55.0038 0)
(213.696 57.0278 0)
(214.016 59.1081 0)
(214.434 61.2465 0)
(214.939 63.4421 0)
(215.573 65.6944 0)
(216.313 68.0001 0)
(217.219 70.3576 0)
(218.265 72.7648 0)
(219.499 75.2202 0)
(220.922 77.7219 0)
(222.553 80.2653 0)
(224.428 82.8351 0)
(226.535 85.42 0)
(228.963 87.9899 0)
(231.634 90.5729 0)
(234.709 93.1213 0)
(238.026 95.6679 0)
(241.802 98.0741 0)
(245.876 100.408 0)
(250.439 102.564 0)
(255.379 104.572 0)
(260.678 106.364 0)
(266.477 107.974 0)
(272.809 109.246 0)
(279.116 110.13 0)
(286.275 110.739 0)
(293.04 110.993 0)
(300.544 110.837 0)
(307.714 110.499 0)
(315.863 109.385 0)
(323.096 108.171 0)
(331.198 106.495 0)
(338.835 104.486 0)
(345.812 102.492 0)
(353.253 100.071 0)
(359.648 97.9786 0)
(366.242 95.2854 0)
(371.079 92.9086 0)
(374.922 90.1067 0)
(377.662 87.0969 0)
(380.458 85.3105 0)
(386.342 83.5955 0)
(396.185 82.2167 0)
(400.054 87.2634 0)
(210 -2.82749e-12 0)
(210 5.24131e-12 0)
(210 4.52065e-12 0)
(210 1.43342e-11 0)
(210 3.23909e-11 0)
(210 1.10381e-10 0)
(210 1.21812e-08 0)
(210 1.53361e-06 0)
(209.998 0.000224748 0)
(209.962 0.00893752 0)
(209.646 0.109141 0)
(208.705 0.478839 0)
(207.546 0.966306 0)
(207.055 1.24457 0)
(206.914 1.38607 0)
(207.322 1.37156 0)
(208.4 1.01897 0)
(209.521 0.713946 0)
(210.295 0.560955 0)
(210.829 0.620355 0)
(211.238 0.778061 0)
(211.647 0.968675 0)
(212.115 1.16268 0)
(212.624 1.38027 0)
(213.118 1.6421 0)
(213.572 1.946 0)
(214.004 2.28343 0)
(214.452 2.65266 0)
(214.898 3.05723 0)
(215.232 3.50326 0)
(215.394 3.98227 0)
(215.411 4.44258 0)
(215.194 4.93909 0)
(214.881 5.45092 0)
(214.671 5.97279 0)
(214.631 6.51251 0)
(214.684 7.08144 0)
(214.791 7.67278 0)
(214.923 8.29064 0)
(215.029 8.93593 0)
(215.105 9.6032 0)
(215.159 10.2919 0)
(215.195 11.0044 0)
(215.224 11.7434 0)
(215.24 12.5105 0)
(215.24 13.3079 0)
(215.229 14.1329 0)
(215.202 14.9916 0)
(215.16 15.8805 0)
(215.105 16.7988 0)
(215.036 17.7458 0)
(214.952 18.7218 0)
(214.853 19.7271 0)
(214.738 20.7615 0)
(214.61 21.8246 0)
(214.469 22.916 0)
(214.317 24.036 0)
(214.154 25.1855 0)
(213.98 26.3656 0)
(213.796 27.5774 0)
(213.602 28.8223 0)
(213.401 30.1017 0)
(213.194 31.4149 0)
(212.985 32.7634 0)
(212.777 34.1474 0)
(212.564 35.5746 0)
(212.363 37.0336 0)
(212.168 38.5355 0)
(211.98 40.0808 0)
(211.808 41.67 0)
(211.651 43.3066 0)
(211.511 44.9897 0)
(211.402 46.7237 0)
(211.318 48.5071 0)
(211.278 50.3433 0)
(211.28 52.2327 0)
(211.333 54.1771 0)
(211.449 56.1794 0)
(211.626 58.2405 0)
(211.887 60.3633 0)
(212.223 62.5474 0)
(212.673 64.7948 0)
(213.215 67.1029 0)
(213.905 69.4734 0)
(214.72 71.9033 0)
(215.705 74.3924 0)
(216.86 76.9372 0)
(218.208 79.5308 0)
(219.783 82.1591 0)
(221.58 84.8137 0)
(223.676 87.4843 0)
(225.999 90.1976 0)
(228.695 92.9044 0)
(231.618 95.5945 0)
(234.978 98.1583 0)
(238.595 100.675 0)
(242.649 103.093 0)
(247.031 105.452 0)
(251.863 107.682 0)
(257.193 109.706 0)
(262.985 111.463 0)
(269.332 112.872 0)
(275.857 113.98 0)
(283.286 114.8 0)
(290.195 115.216 0)
(297.989 115.281 0)
(305.553 114.994 0)
(313.559 114.098 0)
(321.253 113.032 0)
(329.482 111.417 0)
(337.289 109.469 0)
(344.909 107.327 0)
(352.125 105.228 0)
(359.494 102.632 0)
(365.415 100.237 0)
(370.324 97.5419 0)
(373.697 94.4344 0)
(376.199 92.2313 0)
(381.51 90.7049 0)
(391.991 89.262 0)
(396.174 94.8232 0)
(210 8.96334e-12 0)
(210 1.32614e-11 0)
(210 7.72766e-12 0)
(210 2.43945e-11 0)
(210 9.77106e-12 0)
(210 3.44943e-12 0)
(210 1.39933e-09 0)
(210 2.50039e-07 0)
(209.999 6.83535e-05 0)
(209.98 0.00393838 0)
(209.768 0.0647261 0)
(208.961 0.359288 0)
(207.751 0.851625 0)
(207.057 1.19488 0)
(206.824 1.34751 0)
(207.08 1.39862 0)
(208.042 1.11726 0)
(209.173 0.780987 0)
(209.99 0.57538 0)
(210.558 0.614538 0)
(210.965 0.772454 0)
(211.346 0.975794 0)
(211.784 1.18509 0)
(212.279 1.40787 0)
(212.77 1.66506 0)
(213.215 1.95923 0)
(213.617 2.28523 0)
(214.02 2.64231 0)
(214.448 3.03397 0)
(214.831 3.46498 0)
(215.061 3.93212 0)
(215.142 4.39999 0)
(215.041 4.88087 0)
(214.739 5.38775 0)
(214.438 5.90467 0)
(214.293 6.44259 0)
(214.293 7.00205 0)
(214.352 7.59756 0)
(214.454 8.20436 0)
(214.551 8.83856 0)
(214.619 9.4985 0)
(214.656 10.1802 0)
(214.677 10.8828 0)
(214.687 11.6114 0)
(214.683 12.3662 0)
(214.665 13.1507 0)
(214.631 13.9661 0)
(214.582 14.8107 0)
(214.518 15.6848 0)
(214.439 16.5877 0)
(214.345 17.5192 0)
(214.236 18.4791 0)
(214.11 19.468 0)
(213.968 20.4858 0)
(213.81 21.5319 0)
(213.64 22.6058 0)
(213.456 23.7079 0)
(213.259 24.839 0)
(213.051 26 0)
(212.83 27.192 0)
(212.599 28.4164 0)
(212.357 29.6742 0)
(212.107 30.9668 0)
(211.851 32.2941 0)
(211.592 33.658 0)
(211.334 35.0563 0)
(211.076 36.4934 0)
(210.821 37.9717 0)
(210.568 39.4934 0)
(210.331 41.0548 0)
(210.1 42.6645 0)
(209.884 44.3199 0)
(209.692 46.0262 0)
(209.518 47.7822 0)
(209.381 49.5901 0)
(209.278 51.4511 0)
(209.218 53.3665 0)
(209.211 55.34 0)
(209.257 57.372 0)
(209.375 59.4661 0)
(209.558 61.6219 0)
(209.84 63.8427 0)
(210.2 66.1259 0)
(210.692 68.4749 0)
(211.29 70.8857 0)
(212.04 73.3598 0)
(212.938 75.8955 0)
(214.009 78.4907 0)
(215.279 81.1405 0)
(216.748 83.845 0)
(218.482 86.5992 0)
(220.427 89.4022 0)
(222.716 92.2017 0)
(225.225 94.9989 0)
(228.16 97.7613 0)
(231.357 100.57 0)
(235.047 103.348 0)
(239.107 106.057 0)
(243.56 108.596 0)
(248.404 110.911 0)
(253.654 113.085 0)
(259.447 114.996 0)
(265.525 116.556 0)
(272.422 117.956 0)
(279.245 118.903 0)
(286.978 119.514 0)
(294.405 119.822 0)
(302.269 119.566 0)
(310.136 119.016 0)
(318.189 118.073 0)
(326.299 116.65 0)
(334.165 114.853 0)
(341.746 113.03 0)
(349.8 110.651 0)
(356.394 108.393 0)
(362.365 105.443 0)
(366.052 102.536 0)
(369.033 99.8501 0)
(374.454 98.2336 0)
(386.227 96.6478 0)
(390.465 103.3 0)
(210 4.79384e-12 0)
(210 -9.05129e-13 0)
(210 9.60672e-12 0)
(210 8.87401e-12 0)
(210 -1.39689e-11 0)
(210 -2.13355e-11 0)
(210 -6.00703e-10 0)
(210 -1.62236e-08 0)
(210 1.53681e-05 0)
(209.991 0.00149261 0)
(209.86 0.0343767 0)
(209.213 0.249965 0)
(207.998 0.715688 0)
(207.105 1.12385 0)
(206.744 1.30005 0)
(206.889 1.41441 0)
(207.684 1.20383 0)
(208.799 0.850225 0)
(209.668 0.607976 0)
(210.28 0.638146 0)
(210.694 0.796448 0)
(211.049 1.00558 0)
(211.452 1.22265 0)
(211.924 1.44558 0)
(212.407 1.69419 0)
(212.843 1.97551 0)
(213.223 2.28854 0)
(213.587 2.63296 0)
(213.976 3.01335 0)
(214.368 3.43134 0)
(214.664 3.88364 0)
(214.797 4.36275 0)
(214.803 4.82339 0)
(214.579 5.31968 0)
(214.244 5.83563 0)
(213.99 6.36773 0)
(213.898 6.92456 0)
(213.917 7.50294 0)
(213.974 8.11273 0)
(214.052 8.73895 0)
(214.111 9.38682 0)
(214.136 10.0573 0)
(214.144 10.7472 0)
(214.135 11.4649 0)
(214.11 12.2097 0)
(214.072 12.9812 0)
(214.019 13.7808 0)
(213.95 14.61 0)
(213.863 15.4688 0)
(213.76 16.3563 0)
(213.642 17.2712 0)
(213.508 18.2136 0)
(213.357 19.1839 0)
(213.189 20.1823 0)
(213.004 21.2086 0)
(212.804 22.2622 0)
(212.591 23.3434 0)
(212.364 24.4528 0)
(212.123 25.5914 0)
(211.869 26.7602 0)
(211.602 27.9606 0)
(211.324 29.1937 0)
(211.034 30.4603 0)
(210.736 31.7611 0)
(210.433 33.0969 0)
(210.125 34.4696 0)
(209.814 35.8796 0)
(209.504 37.3288 0)
(209.198 38.8172 0)
(208.896 40.3487 0)
(208.595 41.9297 0)
(208.307 43.5526 0)
(208.035 45.2246 0)
(207.773 46.9485 0)
(207.544 48.7239 0)
(207.338 50.554 0)
(207.168 52.4381 0)
(207.04 54.3815 0)
(206.956 56.3845 0)
(206.932 58.4518 0)
(206.962 60.5832 0)
(207.076 62.7839 0)
(207.253 65.0512 0)
(207.548 67.3906 0)
(207.931 69.7977 0)
(208.453 72.2768 0)
(209.105 74.8269 0)
(209.911 77.4483 0)
(210.894 80.1369 0)
(212.06 82.8885 0)
(213.468 85.6946 0)
(215.072 88.5502 0)
(216.991 91.4312 0)
(219.12 94.3518 0)
(221.654 97.288 0)
(224.424 100.264 0)
(227.631 103.186 0)
(231.128 106.053 0)
(235.052 108.834 0)
(239.438 111.482 0)
(244.186 114.046 0)
(249.476 116.433 0)
(255.333 118.654 0)
(261.43 120.424 0)
(268.59 122.149 0)
(275.276 123.28 0)
(283.488 124.262 0)
(290.962 124.672 0)
(299.348 124.591 0)
(307.337 124.287 0)
(315.804 123.466 0)
(324.079 122.132 0)
(332.073 120.664 0)
(340.939 118.541 0)
(348.083 116.636 0)
(355.665 113.546 0)
(360.35 110.426 0)
(364.163 107.561 0)
(370.286 105.349 0)
(382.329 103.614 0)
(386.762 110.326 0)
(210 1.56945e-12 0)
(210 2.67737e-12 0)
(210 1.84774e-11 0)
(210 -4.20123e-13 0)
(210 -1.73198e-11 0)
(210 -1.65667e-11 0)
(210 -4.25152e-10 0)
(210 -3.43751e-08 0)
(210 1.43716e-06 0)
(209.996 0.000465747 0)
(209.924 0.0160312 0)
(209.446 0.158906 0)
(208.299 0.571212 0)
(207.224 1.02914 0)
(206.686 1.2665 0)
(206.738 1.38919 0)
(207.327 1.25682 0)
(208.391 0.910236 0)
(209.327 0.645934 0)
(209.994 0.663567 0)
(210.422 0.815123 0)
(210.748 1.02212 0)
(211.111 1.24231 0)
(211.554 1.46385 0)
(212.023 1.7033 0)
(212.452 1.97117 0)
(212.817 2.27108 0)
(213.152 2.60266 0)
(213.498 2.9704 0)
(213.87 3.37494 0)
(214.205 3.81308 0)
(214.405 4.27901 0)
(214.471 4.75238 0)
(214.375 5.23323 0)
(214.079 5.74176 0)
(213.741 6.27119 0)
(213.531 6.82503 0)
(213.474 7.40397 0)
(213.494 8.00335 0)
(213.539 8.62334 0)
(213.582 9.26443 0)
(213.595 9.92656 0)
(213.592 10.6021 0)
(213.563 11.31 0)
(213.519 12.0414 0)
(213.462 12.7997 0)
(213.388 13.5856 0)
(213.297 14.3999 0)
(213.188 15.2426 0)
(213.061 16.1135 0)
(212.919 17.0115 0)
(212.759 17.9366 0)
(212.582 18.889 0)
(212.387 19.8691 0)
(212.173 20.8765 0)
(211.944 21.9108 0)
(211.699 22.972 0)
(211.44 24.0608 0)
(211.166 25.1782 0)
(210.877 26.3252 0)
(210.573 27.503 0)
(210.256 28.7129 0)
(209.925 29.9559 0)
(209.584 31.2326 0)
(209.233 32.5438 0)
(208.877 33.8901 0)
(208.515 35.2729 0)
(208.15 36.6942 0)
(207.783 38.1562 0)
(207.416 39.6608 0)
(207.053 41.2074 0)
(206.695 42.7995 0)
(206.346 44.4397 0)
(205.999 46.1345 0)
(205.682 47.8731 0)
(205.376 49.6691 0)
(205.106 51.5178 0)
(204.866 53.4262 0)
(204.663 55.3927 0)
(204.51 57.4229 0)
(204.401 59.5164 0)
(204.364 61.6788 0)
(204.379 63.9078 0)
(204.496 66.2107 0)
(204.684 68.5826 0)
(204.995 71.0304 0)
(205.414 73.5522 0)
(205.968 76.1498 0)
(206.674 78.823 0)
(207.539 81.5722 0)
(208.613 84.3952 0)
(209.865 87.2858 0)
(211.404 90.2313 0)
(213.138 93.2423 0)
(215.24 96.3087 0)
(217.557 99.4363 0)
(220.31 102.545 0)
(223.351 105.632 0)
(226.836 108.667 0)
(230.733 111.653 0)
(235.011 114.616 0)
(239.816 117.369 0)
(244.959 120.008 0)
(250.763 122.452 0)
(257.005 124.594 0)
(263.643 126.31 0)
(271.044 127.869 0)
(278.749 129.051 0)
(286.83 129.615 0)
(294.95 129.864 0)
(303.577 129.695 0)
(312.098 129.019 0)
(320.554 127.931 0)
(329.075 126.598 0)
(337.342 124.874 0)
(344.534 122.448 0)
(349.74 119.442 0)
(353.796 116.569 0)
(359.951 114.89 0)
(373.209 113.156 0)
(377.52 120.997 0)
(210 -7.13014e-13 0)
(210 9.86048e-12 0)
(210 7.35244e-12 0)
(210 -8.63552e-12 0)
(210 -2.21348e-11 0)
(210 -2.37054e-11 0)
(210 -1.75276e-10 0)
(210 -1.76293e-08 0)
(210 -7.51446e-07 0)
(209.999 0.000107905 0)
(209.963 0.00635992 0)
(209.643 0.0902018 0)
(208.63 0.424213 0)
(207.405 0.908295 0)
(206.662 1.2177 0)
(206.627 1.32758 0)
(206.991 1.26974 0)
(207.973 0.993401 0)
(208.978 0.723553 0)
(209.702 0.710348 0)
(210.145 0.84276 0)
(210.444 1.03823 0)
(210.764 1.25654 0)
(211.173 1.47592 0)
(211.622 1.70668 0)
(212.041 1.96146 0)
(212.395 2.24962 0)
(212.71 2.5715 0)
(213.021 2.93057 0)
(213.354 3.32599 0)
(213.687 3.75425 0)
(213.941 4.21072 0)
(214.056 4.69339 0)
(214.063 5.16177 0)
(213.869 5.66429 0)
(213.522 6.19338 0)
(213.21 6.73676 0)
(213.045 7.30298 0)
(213.005 7.89386 0)
(213.017 8.50586 0)
(213.036 9.13481 0)
(213.04 9.78168 0)
(213.02 10.4504 0)
(212.976 11.1426 0)
(212.914 11.8594 0)
(212.837 12.6025 0)
(212.743 13.3726 0)
(212.631 14.1703 0)
(212.5 14.9959 0)
(212.35 15.8489 0)
(212.184 16.7286 0)
(212 17.6344 0)
(211.798 18.5668 0)
(211.577 19.5263 0)
(211.336 20.5126 0)
(211.079 21.5254 0)
(210.805 22.5643 0)
(210.515 23.6299 0)
(210.21 24.7232 0)
(209.888 25.8453 0)
(209.551 26.9971 0)
(209.198 28.1801 0)
(208.83 29.3952 0)
(208.449 30.6433 0)
(208.056 31.925 0)
(207.655 33.2414 0)
(207.245 34.5936 0)
(206.829 35.9832 0)
(206.408 37.4117 0)
(205.984 38.8811 0)
(205.557 40.3941 0)
(205.13 41.9525 0)
(204.706 43.5581 0)
(204.291 45.2094 0)
(203.889 46.9112 0)
(203.484 48.6754 0)
(203.116 50.4826 0)
(202.765 52.3522 0)
(202.446 54.2807 0)
(202.164 56.2745 0)
(201.917 58.3327 0)
(201.729 60.4616 0)
(201.58 62.6592 0)
(201.518 64.9347 0)
(201.512 67.2826 0)
(201.613 69.7115 0)
(201.805 72.2185 0)
(202.117 74.8082 0)
(202.558 77.482 0)
(203.142 80.2396 0)
(203.911 83.0767 0)
(204.843 85.9877 0)
(206.032 88.9749 0)
(207.393 92.046 0)
(209.084 95.1834 0)
(210.966 98.3662 0)
(213.252 101.551 0)
(215.788 104.77 0)
(218.768 108.02 0)
(222.128 111.293 0)
(225.894 114.564 0)
(230.216 117.71 0)
(234.88 120.811 0)
(240.127 123.619 0)
(245.834 126.338 0)
(252.248 128.784 0)
(258.751 130.721 0)
(266.572 132.707 0)
(274.255 133.996 0)
(282.195 134.885 0)
(291.198 135.444 0)
(299.685 135.508 0)
(308.809 134.987 0)
(317.936 134.019 0)
(326.53 132.912 0)
(335.859 130.58 0)
(341.771 128.196 0)
(347.297 124.618 0)
(353.264 122.816 0)
(366.864 121.26 0)
(370.435 130.811 0)
(210 3.90969e-12 0)
(210 2.27487e-11 0)
(210 -4.02781e-12 0)
(210 -1.54543e-11 0)
(210 -2.58046e-11 0)
(210 -2.124e-11 0)
(210 -5.59609e-11 0)
(210 -6.31941e-09 0)
(210 -4.43399e-07 0)
(210 1.16846e-05 0)
(209.984 0.00205546 0)
(209.792 0.0447637 0)
(208.971 0.288838 0)
(207.667 0.765205 0)
(206.699 1.12836 0)
(206.557 1.24993 0)
(206.704 1.27412 0)
(207.552 1.09451 0)
(208.604 0.807201 0)
(209.384 0.741069 0)
(209.853 0.849181 0)
(210.132 1.03178 0)
(210.411 1.24951 0)
(210.783 1.4699 0)
(211.207 1.6931 0)
(211.613 1.93195 0)
(211.958 2.20389 0)
(212.263 2.51258 0)
(212.552 2.86137 0)
(212.848 3.2468 0)
(213.151 3.66632 0)
(213.427 4.11374 0)
(213.604 4.58429 0)
(213.66 5.076 0)
(213.6 5.56192 0)
(213.326 6.08072 0)
(212.957 6.62455 0)
(212.67 7.18738 0)
(212.531 7.76967 0)
(212.491 8.37133 0)
(212.48 8.99178 0)
(212.466 9.62835 0)
(212.433 10.2844 0)
(212.375 10.9634 0)
(212.295 11.6665 0)
(212.196 12.3943 0)
(212.081 13.148 0)
(211.948 13.9285 0)
(211.795 14.7364 0)
(211.623 15.5714 0)
(211.432 16.4325 0)
(211.223 17.3191 0)
(210.996 18.2314 0)
(210.748 19.1699 0)
(210.48 20.1349 0)
(210.194 21.126 0)
(209.89 22.143 0)
(209.569 23.1861 0)
(209.231 24.2564 0)
(208.876 25.3547 0)
(208.503 26.482 0)
(208.113 27.6397 0)
(207.706 28.8287 0)
(207.283 30.0501 0)
(206.847 31.3044 0)
(206.399 32.5925 0)
(205.941 33.9153 0)
(205.473 35.2746 0)
(204.997 36.6719 0)
(204.515 38.1094 0)
(204.026 39.5884 0)
(203.534 41.1112 0)
(203.04 42.6797 0)
(202.548 44.2971 0)
(202.058 45.9653 0)
(201.58 47.6802 0)
(201.118 49.4492 0)
(200.659 51.2819 0)
(200.233 53.1653 0)
(199.833 55.1125 0)
(199.462 57.1242 0)
(199.139 59.2056 0)
(198.845 61.3552 0)
(198.625 63.5819 0)
(198.446 65.8802 0)
(198.36 68.2608 0)
(198.345 70.7208 0)
(198.433 73.2668 0)
(198.628 75.9005 0)
(198.945 78.6242 0)
(199.415 81.44 0)
(200.025 84.3476 0)
(200.855 87.3525 0)
(201.838 90.4485 0)
(203.119 93.6255 0)
(204.578 96.8734 0)
(206.42 100.189 0)
(208.492 103.592 0)
(210.994 107.057 0)
(213.821 110.554 0)
(217.058 114.038 0)
(220.785 117.44 0)
(224.84 120.845 0)
(229.556 124.071 0)
(234.598 127.234 0)
(240.256 130.15 0)
(246.628 132.97 0)
(253.343 135.249 0)
(261.027 137.48 0)
(268.781 138.98 0)
(276.937 140.257 0)
(286.081 141.125 0)
(294.644 141.453 0)
(304.248 141.212 0)
(313.444 140.63 0)
(323.176 139.106 0)
(330.244 137.074 0)
(336.141 134.587 0)
(343.407 132.675 0)
(357.776 130.86 0)
(361.941 139.521 0)
(210 3.49411e-12 0)
(210 -3.33216e-12 0)
(210 -1.65844e-11 0)
(210 -1.91215e-11 0)
(210 -1.60685e-11 0)
(210 -5.32111e-12 0)
(210 -2.49784e-11 0)
(210 -1.88857e-09 0)
(210 -1.67194e-07 0)
(210 -4.24831e-06 0)
(209.994 0.000489196 0)
(209.893 0.0188048 0)
(209.289 0.176187 0)
(208.003 0.601913 0)
(206.811 1.00424 0)
(206.503 1.18364 0)
(206.478 1.27671 0)
(207.141 1.17841 0)
(208.203 0.882083 0)
(209.045 0.773772 0)
(209.549 0.856007 0)
(209.817 1.01997 0)
(210.06 1.23123 0)
(210.391 1.45168 0)
(210.783 1.6713 0)
(211.169 1.90042 0)
(211.503 2.16261 0)
(211.801 2.46472 0)
(212.076 2.80897 0)
(212.347 3.18822 0)
(212.612 3.5997 0)
(212.874 4.03752 0)
(213.085 4.50077 0)
(213.19 4.99111 0)
(213.212 5.47889 0)
(213.064 5.9902 0)
(212.724 6.52746 0)
(212.353 7.07895 0)
(212.096 7.64743 0)
(211.971 8.23592 0)
(211.917 8.84298 0)
(211.88 9.46674 0)
(211.833 10.1078 0)
(211.762 10.7708 0)
(211.665 11.4578 0)
(211.546 12.1694 0)
(211.41 12.906 0)
(211.256 13.6683 0)
(211.081 14.457 0)
(210.886 15.2723 0)
(210.672 16.1134 0)
(210.439 16.9794 0)
(210.187 17.8703 0)
(209.915 18.7867 0)
(209.621 19.7288 0)
(209.307 20.6964 0)
(208.975 21.6891 0)
(208.625 22.7072 0)
(208.257 23.7514 0)
(207.87 24.8229 0)
(207.465 25.9225 0)
(207.042 27.0514 0)
(206.599 28.2107 0)
(206.139 29.4015 0)
(205.664 30.6243 0)
(205.174 31.88 0)
(204.671 33.1695 0)
(204.156 34.4943 0)
(203.63 35.8561 0)
(203.094 37.2566 0)
(202.549 38.6978 0)
(201.995 40.1817 0)
(201.436 41.7101 0)
(200.873 43.2851 0)
(200.309 44.9088 0)
(199.747 46.5841 0)
(199.189 48.3128 0)
(198.644 50.0935 0)
(198.117 51.9319 0)
(197.597 53.8367 0)
(197.101 55.8034 0)
(196.641 57.8365 0)
(196.202 59.9409 0)
(195.824 62.1239 0)
(195.471 64.3814 0)
(195.199 66.7235 0)
(194.978 69.1467 0)
(194.847 71.6588 0)
(194.804 74.262 0)
(194.866 76.96 0)
(195.056 79.7553 0)
(195.37 82.6457 0)
(195.875 85.6369 0)
(196.515 88.7215 0)
(197.42 91.904 0)
(198.477 95.1782 0)
(199.876 98.5555 0)
(201.463 102.037 0)
(203.446 105.597 0)
(205.709 109.208 0)
(208.387 112.846 0)
(211.508 116.492 0)
(215.005 120.182 0)
(219.134 123.79 0)
(223.586 127.44 0)
(228.785 130.851 0)
(234.327 134.162 0)
(240.62 137.228 0)
(247.603 140.114 0)
(255.268 142.507 0)
(263.158 144.344 0)
(271.672 146.022 0)
(281.222 147.218 0)
(289.955 147.755 0)
(300.148 147.983 0)
(310.048 147.465 0)
(317.921 145.9 0)
(324.284 143.056 0)
(330.365 141.759 0)
(345.544 140.264 0)
(349.073 150.819 0)
(210 -6.49506e-14 0)
(210 -1.73193e-11 0)
(210 -2.04234e-11 0)
(210 -1.42945e-11 0)
(210 -8.90029e-12 0)
(210 8.37247e-12 0)
(210 8.21705e-12 0)
(210 -4.82408e-10 0)
(210 -5.06572e-08 0)
(210 -3.14128e-06 0)
(209.998 5.48728e-05 0)
(209.951 0.00638663 0)
(209.554 0.0940988 0)
(208.396 0.434505 0)
(207.03 0.865539 0)
(206.477 1.13384 0)
(206.314 1.23228 0)
(206.752 1.21447 0)
(207.778 0.945747 0)
(208.685 0.809294 0)
(209.233 0.848989 0)
(209.502 0.987371 0)
(209.716 1.18761 0)
(210.006 1.40633 0)
(210.359 1.62424 0)
(210.723 1.8473 0)
(211.048 2.10305 0)
(211.34 2.40149 0)
(211.608 2.74396 0)
(211.863 3.11981 0)
(212.097 3.52451 0)
(212.325 3.95295 0)
(212.534 4.40605 0)
(212.686 4.88248 0)
(212.742 5.38708 0)
(212.716 5.88129 0)
(212.482 6.40645 0)
(212.092 6.95614 0)
(211.727 7.51547 0)
(211.489 8.08825 0)
(211.364 8.67927 0)
(211.289 9.28999 0)
(211.222 9.91901 0)
(211.136 10.5674 0)
(211.023 11.238 0)
(210.886 11.9321 0)
(210.728 12.6506 0)
(210.552 13.394 0)
(210.357 14.1632 0)
(210.14 14.9584 0)
(209.902 15.7789 0)
(209.645 16.6239 0)
(209.369 17.4931 0)
(209.071 18.3871 0)
(208.75 19.3063 0)
(208.409 20.2507 0)
(208.048 21.2197 0)
(207.668 22.2134 0)
(207.268 23.2326 0)
(206.849 24.2781 0)
(206.411 25.3509 0)
(205.952 26.4522 0)
(205.474 27.5829 0)
(204.976 28.7443 0)
(204.459 29.9369 0)
(203.926 31.1616 0)
(203.378 32.4191 0)
(202.815 33.7109 0)
(202.238 35.0385 0)
(201.648 36.4036 0)
(201.046 37.808 0)
(200.433 39.2537 0)
(199.809 40.7426 0)
(199.177 42.2768 0)
(198.539 43.8582 0)
(197.899 45.4886 0)
(197.259 47.1702 0)
(196.623 48.9062 0)
(195.993 50.6993 0)
(195.375 52.5494 0)
(194.776 54.4603 0)
(194.192 56.4403 0)
(193.619 58.4912 0)
(193.101 60.6107 0)
(192.593 62.8075 0)
(192.16 65.0874 0)
(191.757 67.449 0)
(191.432 69.8993 0)
(191.172 72.4414 0)
(191 75.0809 0)
(190.929 77.8223 0)
(190.959 80.6675 0)
(191.145 83.6259 0)
(191.446 86.6904 0)
(191.974 89.8739 0)
(192.632 93.168 0)
(193.593 96.5884 0)
(194.716 100.115 0)
(196.21 103.732 0)
(197.946 107.423 0)
(200.087 111.192 0)
(202.605 115.039 0)
(205.508 118.967 0)
(208.987 122.891 0)
(212.788 126.871 0)
(217.341 130.705 0)
(222.222 134.561 0)
(227.846 138.13 0)
(233.992 141.602 0)
(240.952 144.869 0)
(248.741 147.65 0)
(256.433 149.783 0)
(265.541 152.034 0)
(275.314 153.441 0)
(284.002 154.227 0)
(295.287 154.692 0)
(304.264 154.258 0)
(313.392 151.92 0)
(321.04 150.085 0)
(336.315 149.031 0)
(339.643 160.132 0)
(210 -3.89134e-12 0)
(210 -1.04503e-11 0)
(210 -1.61314e-11 0)
(210 -1.07328e-11 0)
(210 -1.85215e-12 0)
(210 6.63759e-12 0)
(210 -3.59573e-12 0)
(210 -1.20857e-10 0)
(210 -1.29822e-08 0)
(210 -1.06958e-06 0)
(209.999 -1.89652e-05 0)
(209.981 0.00157902 0)
(209.75 0.0424931 0)
(208.807 0.284529 0)
(207.341 0.709691 0)
(206.489 1.05726 0)
(206.199 1.1485 0)
(206.424 1.20754 0)
(207.353 1.02195 0)
(208.312 0.8559 0)
(208.903 0.828014 0)
(209.186 0.9394 0)
(209.381 1.132 0)
(209.631 1.3589 0)
(209.939 1.58805 0)
(210.277 1.81431 0)
(210.593 2.06663 0)
(210.878 2.36101 0)
(211.14 2.69988 0)
(211.385 3.07037 0)
(211.597 3.46581 0)
(211.789 3.88163 0)
(211.97 4.32111 0)
(212.132 4.78501 0)
(212.227 5.27581 0)
(212.251 5.78317 0)
(212.155 6.29246 0)
(211.832 6.82829 0)
(211.413 7.37813 0)
(211.061 7.93697 0)
(210.836 8.51119 0)
(210.702 9.10512 0)
(210.602 9.71838 0)
(210.5 10.3505 0)
(210.373 11.0037 0)
(210.219 11.6796 0)
(210.042 12.3792 0)
(209.845 13.1028 0)
(209.628 13.8514 0)
(209.39 14.6252 0)
(209.13 15.424 0)
(208.849 16.2469 0)
(208.549 17.0933 0)
(208.227 17.9637 0)
(207.881 18.8586 0)
(207.514 19.778 0)
(207.125 20.7214 0)
(206.717 21.6888 0)
(206.289 22.6808 0)
(205.84 23.6981 0)
(205.371 24.7418 0)
(204.881 25.8128 0)
(204.369 26.9122 0)
(203.836 28.0411 0)
(203.283 29.2003 0)
(202.711 30.3904 0)
(202.122 31.6122 0)
(201.516 32.8672 0)
(200.894 34.1565 0)
(200.256 35.4821 0)
(199.602 36.8455 0)
(198.934 38.2488 0)
(198.252 39.6937 0)
(197.557 41.1826 0)
(196.852 42.7171 0)
(196.139 44.2996 0)
(195.42 45.9318 0)
(194.699 47.6164 0)
(193.978 49.356 0)
(193.261 51.1543 0)
(192.549 53.0148 0)
(191.846 54.939 0)
(191.162 56.928 0)
(190.503 58.9907 0)
(189.832 61.1393 0)
(189.239 63.3569 0)
(188.65 65.6625 0)
(188.137 68.0571 0)
(187.664 70.5457 0)
(187.268 73.1324 0)
(186.948 75.8218 0)
(186.715 78.6168 0)
(186.609 81.5261 0)
(186.6 84.5432 0)
(186.784 87.6867 0)
(187.074 90.9454 0)
(187.627 94.3403 0)
(188.312 97.8467 0)
(189.332 101.478 0)
(190.552 105.229 0)
(192.153 109.117 0)
(194.071 113.131 0)
(196.378 117.249 0)
(199.184 121.42 0)
(202.339 125.669 0)
(206.211 129.872 0)
(210.4 134.141 0)
(215.427 138.238 0)
(220.88 142.298 0)
(227.08 146.128 0)
(234.004 149.817 0)
(241.829 152.991 0)
(249.749 155.648 0)
(259.184 158.422 0)
(269.282 160.326 0)
(278.274 161.489 0)
(289.225 162.005 0)
(297.372 161.291 0)
(304.601 160.73 0)
(319.766 160.169 0)
(322.369 171.41 0)
(210 -2.14234e-12 0)
(210 -7.71785e-12 0)
(210 -6.20122e-12 0)
(210 -3.03435e-12 0)
(210 1.43414e-11 0)
(210 1.03419e-11 0)
(210 -2.80989e-12 0)