/*--------------------------------*- C++ -*----------------------------------*\
| =========                 |                                                 |
| \\      /  F ield         | OpenFOAM: The Open Source CFD Toolbox           |
|  \\    /   O peration     | Version:  2412                                  |
|   \\  /    A nd           | Website:  www.openfoam.com                      |
|    \\/     M anipulation  |                                                 |
\*---------------------------------------------------------------------------*/
FoamFile
{
    version     2.0;
    format      ascii;
    arch        "LSB;label=32;scalar=64";
    class       volScalarField;
    location    "0.029";
    object      rho;
}
// * * * * * * * * * * * * * * * * * * * * * * * * * * * * * * * * * * * * * //

dimensions      [1 -3 0 0 0 0 0];

internalField   nonuniform List<scalar> 
9763
(
0.042247
0.042901
0.0422504
0.0428568
0.042248
0.0428263
0.042242
0.0428036
0.0422451
0.0428061
0.0422577
0.0428074
0.0422766
0.0428086
0.0422919
0.0428061
0.0422995
0.0428005
0.0423068
0.0427915
0.0423137
0.04278
0.0423175
0.0427653
0.042319
0.0427489
0.0423199
0.0427305
0.0423202
0.0427108
0.0423199
0.0426895
0.0423194
0.0426671
0.0423187
0.0426436
0.0423178
0.0426193
0.042317
0.0425944
0.042316
0.0425689
0.0423151
0.042543
0.042314
0.0425165
0.0423126
0.0424895
0.0423108
0.0424616
0.0423083
0.0424329
0.0423049
0.0424029
0.0423008
0.0423718
0.042296
0.042339
0.0422911
0.0423049
0.0422868
0.0422692
0.042283
0.0422324
0.0422794
0.042195
0.0422753
0.0421574
0.0422706
0.0421196
0.0422653
0.0420817
0.0422592
0.042044
0.042252
0.0420069
0.0422424
0.0419714
0.042229
0.0419375
0.0419045
0.0418707
0.0418358
0.05232
0.0445409
0.0444907
0.0444074
0.0442498
0.0439779
0.0436248
0.0433138
0.0431247
0.0430166
0.0429536
0.0428866
0.04278
0.0426361
0.0424567
0.0422402
0.0419991
0.0417498
0.0415093
0.0412956
0.0411324
0.0410128
0.0409191
0.040844
0.0407805
0.0407237
0.0406698
0.0406163
0.0405622
0.040508
0.0404548
0.040403
0.040352
0.0403023
0.0402553
0.0402124
0.0401735
0.0401383
0.0401088
0.0400868
0.0400734
0.0400677
0.0400683
0.0400756
0.0400894
0.0401077
0.0401306
0.0401586
0.0401925
0.0402318
0.0402751
0.0403208
0.0403688
0.0404197
0.0404732
0.0405265
0.0405859
0.0406366
0.0406944
0.0407431
0.0407905
0.040837
0.0408832
0.0409278
0.0409748
0.0410199
0.0410642
0.0411103
0.0411536
0.0411969
0.0412403
0.0412818
0.0413228
0.0413628
0.041402
0.0414413
0.0414802
0.04152
0.0415599
0.0416009
0.0416435
0.0416871
0.0417318
0.0417764
0.0418184
0.0418561
0.0418919
0.0419258
0.0419593
0.041993
0.0420281
0.0420636
0.0420987
0.0421324
0.042166
0.0421994
0.0422317
0.042263
0.0422925
0.0423207
0.0423469
0.0423717
0.0423937
0.0424137
0.0424304
0.0424435
0.0424524
0.0424568
0.042457
0.0424515
0.0424408
0.0424234
0.0424012
0.0423747
0.0423457
0.0423157
0.0422857
0.0422542
0.0422263
0.0422263
0.0421442
0.0523279
0.0445366
0.0444847
0.0444046
0.0442492
0.0439784
0.043625
0.0433136
0.0431231
0.0430142
0.0429506
0.0428836
0.0427768
0.0426324
0.0424523
0.0422349
0.0419931
0.0417434
0.0415027
0.0412897
0.0411279
0.0410089
0.0409159
0.040841
0.0407775
0.0407204
0.0406659
0.0406117
0.0405567
0.0405014
0.0404471
0.0403941
0.040342
0.040291
0.0402425
0.0401979
0.0401571
0.04012
0.0400885
0.0400643
0.0400489
0.0400416
0.0400406
0.0400459
0.0400582
0.0400752
0.0400965
0.0401228
0.0401549
0.040193
0.0402353
0.0402802
0.0403272
0.0403766
0.0404288
0.0404816
0.0405401
0.0405906
0.0406494
0.0406953
0.040745
0.04079
0.0408353
0.0408789
0.0409247
0.0409696
0.0410143
0.0410603
0.041104
0.0411468
0.0411896
0.0412302
0.0412698
0.0413086
0.0413464
0.0413849
0.0414238
0.0414647
0.0415059
0.0415484
0.0415911
0.0416331
0.0416745
0.0417139
0.0417511
0.0417849
0.0418176
0.0418494
0.0418817
0.0419141
0.0419468
0.0419792
0.0420121
0.0420448
0.0420773
0.0421086
0.0421385
0.0421668
0.0421934
0.0422186
0.0422422
0.0422645
0.0422849
0.0423039
0.0423205
0.0423342
0.042345
0.0423514
0.0423544
0.0423527
0.0423462
0.0423348
0.0423187
0.0423
0.0422814
0.0422652
0.0422529
0.042245
0.0422416
0.0422426
0.042242
0.052319
0.0445345
0.0444797
0.0444032
0.0442486
0.0439791
0.0436253
0.0433135
0.0431216
0.0430118
0.0429476
0.0428806
0.0427738
0.0426288
0.0424479
0.0422298
0.0419874
0.0417373
0.0414966
0.0412843
0.0411238
0.0410053
0.0409129
0.0408382
0.0407746
0.0407171
0.040662
0.0406071
0.0405512
0.0404948
0.0404393
0.0403851
0.0403318
0.0402794
0.0402294
0.040183
0.0401402
0.0401011
0.0400674
0.040041
0.0400235
0.0400143
0.0400116
0.040015
0.0400256
0.0400412
0.0400609
0.0400853
0.0401156
0.040152
0.0401933
0.0402373
0.0402833
0.0403313
0.0403819
0.0404336
0.0404904
0.0405403
0.0405987
0.0406425
0.0406924
0.0407363
0.04078
0.0408224
0.0408667
0.0409099
0.0409541
0.0409991
0.0410418
0.0410838
0.0411255
0.0411647
0.0412029
0.0412397
0.0412753
0.0413113
0.041348
0.0413869
0.0414262
0.041467
0.0415072
0.0415466
0.0415845
0.0416195
0.0416514
0.0416802
0.0417082
0.0417357
0.0417644
0.0417945
0.0418261
0.0418587
0.0418915
0.0419238
0.0419543
0.0419829
0.0420091
0.0420333
0.0420555
0.0420762
0.0420953
0.0421134
0.04213
0.0421457
0.0421592
0.0421708
0.0421797
0.0421849
0.0421871
0.042185
0.0421783
0.0421671
0.0421512
0.042133
0.0421147
0.0420989
0.0420872
0.0420801
0.0420768
0.0420763
0.0420813
0.0523215
0.0445323
0.0444749
0.0444015
0.0442481
0.0439797
0.0436256
0.0433134
0.0431202
0.0430095
0.0429447
0.0428777
0.0427709
0.0426254
0.0424437
0.0422249
0.041982
0.0417315
0.0414908
0.0412793
0.04112
0.0410021
0.0409101
0.0408357
0.040772
0.040714
0.0406584
0.0406028
0.040546
0.0404886
0.0404319
0.0403766
0.0403221
0.0402684
0.0402169
0.0401687
0.040124
0.040083
0.0400472
0.0400186
0.0399989
0.0399878
0.0399834
0.0399852
0.039994
0.0400082
0.0400264
0.040049
0.0400774
0.0401121
0.0401521
0.0401953
0.0402404
0.0402873
0.0403364
0.0403869
0.0404418
0.040491
0.0405486
0.0405911
0.0406415
0.0406842
0.0407267
0.0407678
0.0408102
0.0408516
0.0408941
0.040937
0.0409782
0.0410191
0.0410599
0.0410981
0.0411355
0.0411709
0.0412049
0.0412388
0.0412736
0.0413103
0.0413472
0.0413849
0.0414206
0.0414549
0.0414871
0.0415167
0.0415437
0.0415689
0.0415941
0.0416197
0.0416467
0.0416746
0.0417034
0.0417324
0.0417607
0.041788
0.0418132
0.0418363
0.0418572
0.0418762
0.0418936
0.0419096
0.0419247
0.041939
0.0419525
0.0419657
0.0419772
0.0419878
0.0419957
0.042001
0.0420036
0.0420023
0.0419966
0.0419865
0.0419719
0.041955
0.0419379
0.0419232
0.0419125
0.0419065
0.0419042
0.0419047
0.0419101
0.0523226
0.0445302
0.0444703
0.0443997
0.0442475
0.0439803
0.0436259
0.0433133
0.0431188
0.0430073
0.0429419
0.0428749
0.042768
0.0426221
0.0424397
0.0422202
0.0419767
0.0417259
0.0414852
0.0412745
0.0411164
0.040999
0.0409075
0.0408333
0.0407694
0.0407111
0.040655
0.0405986
0.040541
0.0404826
0.0404249
0.0403685
0.0403128
0.0402578
0.0402049
0.040155
0.0401084
0.0400655
0.0400275
0.0399968
0.0399749
0.0399617
0.0399559
0.039956
0.0399628
0.0399758
0.0399925
0.0400134
0.0400399
0.0400729
0.0401115
0.0401538
0.0401982
0.040244
0.0402918
0.040341
0.0403941
0.0404427
0.0404994
0.040541
0.0405915
0.0406337
0.0406747
0.040714
0.0407544
0.0407939
0.0408349
0.040876
0.0409154
0.0409548
0.0409939
0.0410307
0.0410669
0.0411008
0.0411332
0.0411651
0.0411978
0.0412318
0.0412661
0.0413009
0.041334
0.0413658
0.041395
0.041421
0.0414442
0.0414658
0.0414874
0.0415096
0.0415336
0.0415589
0.0415853
0.0416119
0.0416373
0.0416612
0.0416825
0.0417013
0.0417177
0.0417321
0.0417448
0.0417562
0.0417669
0.041777
0.0417865
0.0417957
0.0418038
0.0418113
0.0418162
0.0418196
0.0418201
0.0418169
0.0418102
0.0417983
0.0417828
0.0417647
0.0417468
0.0417312
0.0417201
0.0417139
0.0417119
0.0417127
0.0417185
0.0523241
0.0445285
0.0444656
0.0443979
0.044247
0.043981
0.0436262
0.0433132
0.0431175
0.0430052
0.0429391
0.0428722
0.0427652
0.0426187
0.0424357
0.0422155
0.0419715
0.0417204
0.0414798
0.0412699
0.0411128
0.040996
0.0409049
0.0408309
0.040767
0.0407083
0.0406516
0.0405946
0.0405361
0.0404768
0.040418
0.0403605
0.0403036
0.0402475
0.0401931
0.0401415
0.0400932
0.0400482
0.0400082
0.0399754
0.0399513
0.039936
0.0399286
0.0399272
0.039932
0.0399436
0.0399591
0.0399784
0.0400031
0.0400343
0.0400714
0.0401127
0.0401562
0.0402013
0.0402479
0.040296
0.0403473
0.0403952
0.0404508
0.0404917
0.0405417
0.0405828
0.0406227
0.0406609
0.0406998
0.0407378
0.0407771
0.0408164
0.0408541
0.0408919
0.0409292
0.0409642
0.0409986
0.0410308
0.0410618
0.0410924
0.041124
0.0411562
0.0411885
0.0412204
0.0412503
0.0412784
0.0413043
0.0413268
0.0413472
0.0413667
0.0413866
0.0414074
0.0414296
0.0414527
0.0414764
0.0414998
0.0415217
0.0415419
0.0415596
0.0415749
0.041588
0.0415991
0.0416087
0.0416174
0.0416254
0.0416329
0.0416401
0.0416468
0.0416528
0.0416575
0.0416607
0.0416619
0.0416604
0.0416555
0.0416464
0.0416324
0.0416145
0.0415941
0.0415737
0.0415558
0.0415424
0.0415345
0.0415311
0.04153
0.0415265
0.0523197
0.0445268
0.0444608
0.0443961
0.0442464
0.0439816
0.0436265
0.0433132
0.0431161
0.043003
0.0429364
0.0428694
0.0427624
0.0426154
0.0424317
0.0422108
0.0419663
0.0417149
0.0414743
0.0412653
0.0411092
0.0409931
0.0409024
0.0408286
0.0407646
0.0407055
0.0406483
0.0405906
0.0405313
0.040471
0.0404112
0.0403526
0.0402945
0.0402371
0.0401812
0.040128
0.0400778
0.0400309
0.0399888
0.0399537
0.0399274
0.0399099
0.0399008
0.0398977
0.0399007
0.0399107
0.039925
0.0399428
0.0399656
0.0399949
0.0400305
0.0400706
0.0401133
0.0401575
0.0402032
0.0402501
0.0402999
0.0403471
0.0404012
0.0404411
0.0404902
0.0405305
0.0405696
0.0406073
0.0406448
0.0406811
0.040718
0.0407549
0.0407903
0.0408264
0.0408619
0.0408955
0.0409283
0.0409586
0.0409878
0.0410167
0.0410465
0.0410765
0.0411068
0.0411361
0.0411639
0.0411896
0.041213
0.041233
0.0412516
0.0412696
0.0412886
0.0413088
0.0413306
0.041353
0.0413759
0.0413979
0.041418
0.0414362
0.0414517
0.0414647
0.0414756
0.0414846
0.0414923
0.0414992
0.0415055
0.0415115
0.0415171
0.0415225
0.0415272
0.0415307
0.0415331
0.0415334
0.0415308
0.0415252
0.0415149
0.0415003
0.0414814
0.0414602
0.0414387
0.0414198
0.0414057
0.0413974
0.0413942
0.0413947
0.0413985
0.0523146
0.0445246
0.0444559
0.0443942
0.0442459
0.0439823
0.0436269
0.0433131
0.0431148
0.0430008
0.0429336
0.0428666
0.0427595
0.042612
0.0424276
0.0422061
0.041961
0.0417093
0.0414689
0.0412607
0.0411057
0.0409902
0.0409
0.0408264
0.0407622
0.0407027
0.0406449
0.0405865
0.0405264
0.0404652
0.0404044
0.0403446
0.0402853
0.0402266
0.0401693
0.0401144
0.0400623
0.0400134
0.0399693
0.039932
0.0399032
0.0398836
0.0398724
0.0398675
0.0398689
0.039877
0.0398901
0.0399065
0.0399275
0.0399549
0.0399888
0.0400276
0.0400694
0.0401127
0.0401575
0.0402034
0.0402517
0.0402982
0.0403507
0.04039
0.0404377
0.0404769
0.0405152
0.040552
0.040588
0.0406225
0.0406572
0.0406916
0.0407248
0.0407594
0.0407934
0.0408259
0.0408573
0.0408857
0.0409129
0.0409396
0.0409674
0.0409951
0.0410228
0.041049
0.0410736
0.0410961
0.0411168
0.0411342
0.0411512
0.0411683
0.0411868
0.0412065
0.0412276
0.0412491
0.0412707
0.0412911
0.0413094
0.0413257
0.0413394
0.0413509
0.0413602
0.0413679
0.0413744
0.0413802
0.0413855
0.0413906
0.0413954
0.0414
0.0414038
0.0414068
0.0414085
0.0414083
0.0414051
0.0413987
0.0413876
0.0413721
0.0413523
0.0413299
0.0413069
0.0412863
0.0412702
0.0412602
0.0412557
0.0412558
0.0412663
0.0523115
0.044522
0.0444508
0.0443922
0.0442453
0.0439829
0.0436273
0.0433132
0.0431135
0.0429986
0.0429307
0.0428637
0.0427565
0.0426086
0.0424234
0.0422012
0.0419556
0.0417037
0.0414634
0.0412561
0.0411021
0.0409873
0.0408975
0.0408241
0.0407598
0.0406999
0.0406415
0.0405825
0.0405215
0.0404594
0.0403975
0.0403365
0.040276
0.0402159
0.0401572
0.0401006
0.0400465
0.0399956
0.0399493
0.0399098
0.0398786
0.0398566
0.039843
0.0398366
0.0398362
0.0398422
0.039854
0.039869
0.0398882
0.0399136
0.0399458
0.0399832
0.0400239
0.0400663
0.0401101
0.040155
0.0402019
0.0402478
0.0402985
0.0403368
0.0403828
0.0404207
0.0404582
0.0404944
0.0405289
0.0405617
0.040594
0.0406257
0.0406564
0.0406889
0.0407209
0.0407523
0.0407822
0.0408087
0.0408336
0.0408581
0.0408834
0.0409086
0.0409339
0.0409576
0.0409799
0.0409999
0.0410176
0.0410328
0.0410481
0.0410641
0.041082
0.0411012
0.0411218
0.0411423
0.0411629
0.0411815
0.0411979
0.0412122
0.0412235
0.0412326
0.0412395
0.0412446
0.0412486
0.0412519
0.0412547
0.0412573
0.0412597
0.0412619
0.0412635
0.0412648
0.0412645
0.0412622
0.0412574
0.0412488
0.041236
0.0412184
0.0411967
0.0411721
0.0411466
0.041123
0.0411038
0.0410905
0.0410831
0.0410803
0.0410794
0.0523062
0.0445193
0.0444457
0.0443902
0.0442448
0.0439836
0.0436277
0.0433133
0.0431121
0.0429964
0.0429278
0.0428608
0.0427536
0.0426051
0.0424191
0.0421963
0.0419501
0.041698
0.0414578
0.0412515
0.0410985
0.0409844
0.0408951
0.0408218
0.0407574
0.0406971
0.0406382
0.0405784
0.0405166
0.0404535
0.0403906
0.0403284
0.0402666
0.0402052
0.040145
0.0400866
0.0400306
0.0399776
0.0399292
0.0398874
0.0398538
0.0398292
0.0398132
0.0398049
0.0398026
0.0398066
0.039817
0.0398307
0.0398482
0.0398716
0.0399018
0.0399377
0.0399773
0.0400187
0.0400615
0.0401054
0.040151
0.0401964
0.0402452
0.0402828
0.040327
0.0403633
0.0403998
0.0404347
0.0404677
0.0404988
0.040529
0.040558
0.0405861
0.0406162
0.0406458
0.0406759
0.0407046
0.04073
0.0407534
0.0407763
0.0407996
0.0408229
0.0408456
0.0408665
0.0408854
0.040902
0.0409161
0.0409282
0.0409411
0.0409554
0.0409719
0.0409899
0.0410093
0.0410285
0.0410475
0.0410642
0.0410787
0.0410907
0.0410999
0.0411068
0.0411114
0.0411142
0.0411159
0.0411167
0.041117
0.0411172
0.0411174
0.0411176
0.0411176
0.0411169
0.0411151
0.0411115
0.0411052
0.0410955
0.0410815
0.0410629
0.04104
0.041014
0.0409871
0.0409618
0.040941
0.0409262
0.0409175
0.0409134
0.0409115
0.0522982
0.0445165
0.0444405
0.0443882
0.0442442
0.0439843
0.0436282
0.0433136
0.0431109
0.0429941
0.0429249
0.0428579
0.0427505
0.0426015
0.0424148
0.0421913
0.0419446
0.0416922
0.0414523
0.0412469
0.0410949
0.0409815
0.0408927
0.0408196
0.040755
0.0406943
0.0406348
0.0405743
0.0405117
0.0404477
0.0403837
0.0403203
0.0402572
0.0401944
0.0401326
0.0400725
0.0400145
0.0399594
0.0399089
0.0398647
0.0398287
0.0398014
0.0397829
0.0397724
0.0397682
0.0397703
0.0397789
0.0397913
0.0398071
0.0398284
0.0398566
0.0398909
0.0399293
0.0399696
0.0400113
0.0400542
0.0400984
0.0401432
0.0401903
0.0402272
0.0402693
0.0403036
0.0403386
0.040372
0.0404036
0.0404336
0.0404624
0.0404892
0.0405149
0.0405423
0.0405687
0.0405965
0.0406235
0.0406479
0.0406703
0.040692
0.0407133
0.0407342
0.0407541
0.0407724
0.0407883
0.040802
0.0408129
0.0408231
0.0408344
0.0408475
0.040863
0.04088
0.0408982
0.040916
0.0409333
0.0409479
0.0409602
0.0409697
0.0409763
0.0409806
0.0409824
0.0409827
0.0409817
0.04098
0.040978
0.0409761
0.0409746
0.0409733
0.040972
0.0409704
0.0409678
0.0409636
0.040957
0.0409471
0.0409329
0.0409142
0.040891
0.0408647
0.0408372
0.0408113
0.0407898
0.0407743
0.0407652
0.0407607
0.0407588
0.0522942
0.0445137
0.0444353
0.0443861
0.0442436
0.0439849
0.0436287
0.043314
0.0431096
0.0429918
0.0429219
0.0428549
0.0427475
0.0425979
0.0424105
0.0421862
0.041939
0.0416864
0.0414467
0.0412423
0.0410913
0.0409786
0.0408903
0.0408174
0.0407526
0.0406916
0.0406315
0.0405703
0.0405068
0.0404419
0.0403768
0.0403122
0.0402477
0.0401836
0.0401203
0.0400584
0.0399984
0.0399412
0.0398884
0.039842
0.0398035
0.0397736
0.0397524
0.0397394
0.0397334
0.0397337
0.0397401
0.0397512
0.0397655
0.0397847
0.0398109
0.0398434
0.0398804
0.0399197
0.0399603
0.040002
0.0400449
0.0400888
0.0401343
0.0401705
0.0402107
0.0402428
0.0402759
0.0403074
0.0403376
0.0403668
0.0403951
0.0404209
0.0404451
0.04047
0.0404931
0.0405179
0.040542
0.0405643
0.0405855
0.0406061
0.040626
0.0406453
0.0406627
0.0406784
0.0406913
0.0407023
0.0407106
0.0407191
0.0407289
0.0407405
0.0407544
0.0407698
0.0407862
0.0408021
0.0408173
0.0408297
0.0408398
0.0408468
0.0408509
0.0408528
0.0408522
0.04085
0.0408467
0.040843
0.0408392
0.040836
0.0408334
0.0408314
0.0408297
0.0408278
0.0408252
0.0408212
0.040815
0.0408056
0.0407922
0.040774
0.0407515
0.0407254
0.0406982
0.0406724
0.0406509
0.0406355
0.0406264
0.0406224
0.040621
0.0522952
0.0445108
0.04443
0.044384
0.044243
0.0439856
0.0436294
0.0433147
0.0431084
0.0429896
0.042919
0.0428519
0.0427444
0.0425943
0.0424061
0.0421811
0.0419334
0.0416805
0.0414411
0.0412377
0.0410877
0.0409758
0.0408879
0.0408152
0.0407503
0.0406888
0.0406281
0.0405662
0.040502
0.0404361
0.04037
0.0403041
0.0402383
0.0401727
0.0401079
0.0400443
0.0399822
0.0399228
0.0398678
0.0398191
0.039778
0.0397455
0.0397216
0.0397059
0.039698
0.0396963
0.0397006
0.0397103
0.0397231
0.0397403
0.0397642
0.0397949
0.0398305
0.0398686
0.039908
0.0399485
0.03999
0.0400331
0.0400771
0.0401128
0.0401512
0.0401811
0.0402119
0.0402413
0.04027
0.0402985
0.0403263
0.0403516
0.0403753
0.0403981
0.0404178
0.0404386
0.0404589
0.0404785
0.040498
0.0405174
0.0405361
0.040554
0.0405697
0.0405833
0.0405937
0.0406019
0.040608
0.0406149
0.0406235
0.0406341
0.0406469
0.0406611
0.0406763
0.0406905
0.0407038
0.0407141
0.0407217
0.0407259
0.0407273
0.0407264
0.040723
0.0407184
0.0407128
0.0407073
0.0407022
0.0406981
0.040695
0.0406928
0.040691
0.0406893
0.0406871
0.0406836
0.0406781
0.0406696
0.040657
0.0406398
0.0406181
0.0405928
0.0405662
0.0405409
0.0405198
0.0405046
0.0404958
0.0404923
0.0404918
0.052288
0.0445078
0.0444246
0.0443818
0.0442424
0.0439863
0.04363
0.0433155
0.0431073
0.0429873
0.042916
0.0428488
0.0427413
0.0425906
0.0424017
0.042176
0.0419278
0.0416747
0.0414356
0.0412332
0.0410842
0.040973
0.0408856
0.040813
0.040748
0.0406861
0.0406249
0.0405622
0.0404972
0.0404304
0.0403632
0.040296
0.0402289
0.0401619
0.0400956
0.0400302
0.0399662
0.0399045
0.0398472
0.0397962
0.0397526
0.0397174
0.0396908
0.0396725
0.0396622
0.0396584
0.0396609
0.039669
0.0396804
0.0396957
0.0397173
0.039746
0.03978
0.0398168
0.0398551
0.0398943
0.0399346
0.0399765
0.040019
0.0400543
0.0400907
0.0401189
0.0401475
0.0401751
0.0402025
0.0402298
0.0402567
0.0402812
0.0403047
0.0403264
0.0403445
0.0403621
0.0403783
0.0403943
0.0404113
0.040429
0.0404464
0.0404624
0.040476
0.0404868
0.0404943
0.0404997
0.0405041
0.0405099
0.0405177
0.0405277
0.0405398
0.0405529
0.0405666
0.0405789
0.0405898
0.0405974
0.0406021
0.0406034
0.0406019
0.040598
0.0405921
0.0405854
0.0405782
0.0405717
0.0405661
0.0405619
0.0405589
0.040557
0.0405556
0.0405545
0.0405529
0.0405502
0.0405456
0.040538
0.0405265
0.0405105
0.0404898
0.0404655
0.0404397
0.0404152
0.0403947
0.04038
0.0403717
0.0403687
0.040369
0.052281
0.0445048
0.0444193
0.0443796
0.0442418
0.043987
0.0436308
0.0433167
0.0431062
0.042985
0.042913
0.0428458
0.0427381
0.042587
0.0423972
0.0421709
0.0419221
0.0416688
0.0414301
0.0412287
0.0410807
0.0409703
0.0408833
0.0408109
0.0407457
0.0406834
0.0406216
0.0405583
0.0404924
0.0404247
0.0403564
0.0402879
0.0402195
0.0401511
0.0400833
0.0400162
0.0399501
0.0398862
0.0398266
0.0397732
0.0397271
0.0396892
0.0396597
0.0396387
0.0396258
0.0396201
0.0396206
0.0396269
0.039637
0.0396505
0.0396699
0.0396964
0.0397287
0.0397641
0.0398013
0.0398391
0.0398783
0.0399191
0.0399599
0.0399951
0.0400295
0.0400566
0.0400836
0.0401093
0.0401346
0.0401598
0.0401853
0.0402088
0.0402319
0.0402526
0.04027
0.040286
0.0402994
0.0403119
0.0403253
0.0403393
0.0403536
0.0403668
0.0403783
0.0403868
0.0403925
0.040396
0.0403997
0.0404051
0.0404127
0.0404227
0.0404344
0.0404467
0.040459
0.0404692
0.0404772
0.0404815
0.0404829
0.0404808
0.0404759
0.0404692
0.040461
0.0404527
0.0404448
0.0404381
0.0404326
0.0404287
0.0404262
0.0404247
0.0404239
0.0404233
0.0404223
0.0404203
0.0404165
0.0404097
0.0403992
0.040384
0.0403642
0.0403408
0.0403157
0.0402918
0.0402719
0.0402578
0.0402499
0.0402471
0.0402481
0.0522812
0.0445017
0.0444138
0.0443773
0.0442412
0.0439876
0.0436317
0.0433181
0.0431052
0.0429827
0.04291
0.0428427
0.042735
0.0425833
0.0423928
0.0421657
0.0419164
0.041663
0.0414246
0.0412243
0.0410773
0.0409676
0.0408811
0.0408088
0.0407435
0.0406808
0.0406184
0.0405543
0.0404877
0.0404192
0.0403497
0.04028
0.0402101
0.0401404
0.0400712
0.0400023
0.0399342
0.0398681
0.0398061
0.0397502
0.0397016
0.0396611
0.0396288
0.0396049
0.0395892
0.0395815
0.0395801
0.0395844
0.0395932
0.0396052
0.0396224
0.0396466
0.039677
0.039711
0.039747
0.0397833
0.0398215
0.0398611
0.0399002
0.0399355
0.0399678
0.0399943
0.0400199
0.040044
0.0400671
0.0400896
0.0401123
0.0401336
0.0401559
0.0401761
0.0401935
0.0402085
0.04022
0.0402299
0.0402403
0.040251
0.0402621
0.0402722
0.0402813
0.0402876
0.0402918
0.0402941
0.0402974
0.0403025
0.0403095
0.0403187
0.0403293
0.0403402
0.0403504
0.040358
0.0403628
0.0403637
0.0403616
0.0403561
0.0403485
0.0403394
0.0403299
0.0403209
0.040313
0.0403066
0.0403018
0.0402986
0.0402967
0.0402958
0.0402955
0.0402955
0.0402951
0.0402936
0.0402904
0.0402843
0.0402744
0.04026
0.0402407
0.0402178
0.0401932
0.0401697
0.0401502
0.0401365
0.0401289
0.0401264
0.0401279
0.052278
0.0444985
0.0444084
0.044375
0.0442406
0.0439882
0.0436327
0.0433196
0.0431042
0.0429804
0.0429069
0.0428396
0.0427318
0.0425795
0.0423883
0.0421605
0.0419108
0.0416571
0.0414192
0.0412199
0.041074
0.0409649
0.0408789
0.0408068
0.0407413
0.0406782
0.0406152
0.0405505
0.0404831
0.0404136
0.0403431
0.0402721
0.0402008
0.0401298
0.040059
0.0399885
0.0399184
0.03985
0.0397856
0.0397272
0.0396761
0.0396328
0.0395977
0.0395708
0.0395523
0.0395422
0.0395388
0.0395412
0.0395486
0.0395593
0.0395745
0.0395964
0.0396246
0.0396569
0.0396917
0.0397267
0.0397638
0.0398023
0.0398396
0.0398752
0.0399053
0.0399321
0.0399567
0.0399795
0.0400005
0.0400202
0.0400395
0.0400569
0.0400762
0.040094
0.0401106
0.0401257
0.0401376
0.0401472
0.0401557
0.0401633
0.0401711
0.0401782
0.0401851
0.0401896
0.0401925
0.0401932
0.0401954
0.0401995
0.040206
0.0402145
0.0402241
0.0402335
0.0402414
0.0402461
0.0402477
0.0402452
0.0402394
0.0402309
0.040221
0.0402105
0.0402006
0.0401918
0.0401847
0.040179
0.0401751
0.0401726
0.0401713
0.0401708
0.0401708
0.0401711
0.040171
0.0401698
0.0401668
0.040161
0.0401514
0.0401373
0.0401183
0.0400956
0.0400709
0.0400474
0.0400279
0.0400143
0.0400069
0.0400045
0.0400063
0.052276
0.0444953
0.0444029
0.0443727
0.04424
0.0439887
0.0436337
0.0433206
0.0431031
0.0429781
0.0429039
0.0428365
0.0427286
0.0425758
0.0423837
0.0421553
0.0419051
0.0416513
0.0414138
0.0412156
0.0410707
0.0409623
0.0408768
0.0408048
0.0407391
0.0406757
0.0406121
0.0405467
0.0404785
0.0404082
0.0403365
0.0402642
0.0401916
0.0401192
0.040047
0.0399749
0.0399028
0.0398321
0.0397653
0.0397044
0.0396506
0.0396046
0.0395667
0.0395368
0.0395154
0.0395026
0.0394971
0.0394976
0.0395034
0.0395129
0.0395264
0.039546
0.039572
0.0396025
0.0396358
0.0396694
0.0397055
0.039743
0.0397784
0.0398147
0.0398426
0.03987
0.0398937
0.039915
0.039934
0.039951
0.0399673
0.0399818
0.0399977
0.0400116
0.0400256
0.0400394
0.0400515
0.0400617
0.0400704
0.040077
0.0400824
0.0400863
0.04009
0.0400919
0.0400931
0.0400931
0.0400952
0.0400992
0.0401051
0.0401126
0.0401204
0.0401276
0.0401323
0.0401335
0.0401311
0.0401248
0.0401159
0.0401048
0.0400935
0.0400825
0.0400731
0.040065
0.0400589
0.0400541
0.0400511
0.0400492
0.0400483
0.0400481
0.0400483
0.040049
0.040049
0.040048
0.0400451
0.0400395
0.04003
0.040016
0.039997
0.0399742
0.0399493
0.0399256
0.0399059
0.0398923
0.0398849
0.0398826
0.0398846
0.0522757
0.0444919
0.0443974
0.0443704
0.0442393
0.0439893
0.0436348
0.0433209
0.0431019
0.0429758
0.0429009
0.0428334
0.0427254
0.042572
0.0423792
0.0421501
0.0418994
0.0416454
0.0414084
0.0412114
0.0410674
0.0409598
0.0408747
0.0408029
0.040737
0.0406732
0.040609
0.0405429
0.040474
0.0404028
0.0403301
0.0402565
0.0401825
0.0401087
0.0400351
0.0399613
0.0398872
0.0398143
0.0397451
0.0396816
0.0396251
0.0395764
0.0395356
0.0395027
0.0394782
0.0394624
0.0394547
0.0394533
0.0394572
0.0394656
0.0394776
0.0394951
0.0395188
0.0395473
0.039579
0.0396112
0.0396462
0.0396827
0.0397163
0.0397535
0.0397794
0.039807
0.0398297
0.0398501
0.039868
0.0398835
0.0398978
0.0399099
0.039922
0.0399315
0.0399415
0.0399526
0.0399633
0.0399733
0.0399815
0.0399871
0.0399909
0.0399929
0.0399942
0.0399939
0.0399935
0.0399934
0.0399952
0.0399992
0.0400049
0.0400116
0.0400177
0.0400224
0.0400238
0.0400211
0.0400144
0.0400044
0.0399925
0.0399797
0.039968
0.0399574
0.0399489
0.0399419
0.0399367
0.0399327
0.0399298
0.0399282
0.0399276
0.0399275
0.0399279
0.0399286
0.0399286
0.0399275
0.0399245
0.0399187
0.039909
0.0398948
0.0398755
0.0398523
0.0398268
0.0398025
0.0397823
0.0397683
0.0397608
0.0397585
0.0397605
0.0522762
0.0444884
0.0443918
0.044368
0.0442387
0.0439898
0.0436359
0.0433209
0.0431006
0.0429736
0.0428979
0.0428303
0.0427222
0.0425682
0.0423747
0.0421449
0.0418937
0.0416396
0.0414031
0.0412072
0.0410642
0.0409573
0.0408727
0.040801
0.040735
0.0406708
0.040606
0.0405392
0.0404696
0.0403975
0.0403236
0.0402488
0.0401735
0.0400983
0.0400232
0.0399478
0.0398719
0.0397968
0.039725
0.0396589
0.0395997
0.0395482
0.0395046
0.0394687
0.0394411
0.0394222
0.039412
0.0394084
0.0394104
0.0394175
0.0394283
0.0394439
0.0394654
0.0394918
0.0395217
0.0395524
0.0395863
0.0396217
0.0396537
0.0396916
0.0397157
0.0397434
0.0397649
0.0397844
0.0398016
0.0398167
0.0398306
0.0398419
0.0398512
0.0398566
0.0398619
0.0398681
0.0398755
0.0398839
0.0398914
0.0398965
0.0398992
0.0398996
0.0398987
0.0398968
0.039895
0.0398946
0.0398962
0.0398998
0.0399046
0.0399098
0.0399135
0.0399152
0.0399125
0.0399055
0.0398949
0.0398816
0.0398675
0.039854
0.0398425
0.0398327
0.0398252
0.039819
0.0398144
0.0398107
0.0398086
0.0398076
0.0398074
0.0398076
0.0398082
0.0398089
0.0398088
0.0398075
0.0398042
0.0397982
0.0397883
0.0397738
0.039754
0.0397302
0.039704
0.0396789
0.039658
0.0396436
0.0396359
0.0396335
0.0396354
0.0522716
0.0444847
0.0443862
0.0443655
0.044238
0.0439904
0.043637
0.0433208
0.0430993
0.0429713
0.0428948
0.0428272
0.0427189
0.0425644
0.0423701
0.0421397
0.041888
0.0416338
0.0413977
0.041203
0.0410611
0.0409549
0.0408707
0.0407991
0.040733
0.0406683
0.040603
0.0405356
0.0404652
0.0403922
0.0403173
0.0402412
0.0401645
0.0400879
0.0400114
0.0399344
0.0398566
0.0397793
0.0397051
0.0396363
0.0395743
0.03952
0.0394734
0.0394346
0.0394038
0.0393817
0.0393685
0.0393629
0.0393629
0.0393682
0.0393781
0.0393921
0.0394115
0.0394358
0.0394636
0.0394927
0.0395251
0.0395593
0.03959
0.0396284
0.039651
0.0396786
0.0396987
0.0397174
0.0397341
0.0397491
0.0397629
0.0397742
0.0397823
0.039786
0.0397884
0.0397901
0.0397925
0.0397965
0.0398006
0.0398036
0.039805
0.0398042
0.0398022
0.0397991
0.0397959
0.0397948
0.0397956
0.0397986
0.0398024
0.039806
0.0398071
0.0398055
0.039799
0.0397881
0.0397738
0.039758
0.0397427
0.039729
0.0397179
0.0397088
0.0397018
0.0396959
0.0396918
0.0396889
0.0396874
0.0396867
0.0396867
0.0396868
0.0396872
0.0396877
0.0396871
0.0396855
0.0396818
0.0396754
0.039665
0.03965
0.0396298
0.0396053
0.0395782
0.0395521
0.0395303
0.0395153
0.0395074
0.0395049
0.0395067
0.0522621
0.0444809
0.0443805
0.0443631
0.0442374
0.0439911
0.0436381
0.0433206
0.043098
0.042969
0.0428918
0.042824
0.0427156
0.0425606
0.0423655
0.0421344
0.0418823
0.0416279
0.0413925
0.0411988
0.041058
0.0409525
0.0408687
0.0407973
0.040731
0.040666
0.0406001
0.040532
0.0404609
0.040387
0.040311
0.0402337
0.0401557
0.0400777
0.0399998
0.0399212
0.0398415
0.039762
0.0396853
0.0396139
0.0395491
0.0394919
0.0394424
0.0394006
0.0393666
0.0393412
0.0393249
0.0393168
0.0393148
0.0393182
0.0393269
0.0393398
0.0393574
0.0393797
0.0394053
0.0394326
0.0394633
0.039496
0.0395255
0.039564
0.0395853
0.0396127
0.0396314
0.0396493
0.0396653
0.0396798
0.039693
0.0397041
0.0397118
0.0397153
0.0397167
0.0397162
0.0397147
0.0397137
0.0397125
0.039711
0.0397092
0.0397067
0.0397035
0.0397
0.0396965
0.0396949
0.039695
0.0396964
0.0396985
0.0396999
0.0396979
0.0396927
0.0396824
0.039668
0.0396511
0.0396337
0.0396178
0.0396042
0.0395933
0.0395845
0.0395776
0.0395723
0.039569
0.0395663
0.0395648
0.0395639
0.0395636
0.0395633
0.0395632
0.0395632
0.039562
0.0395599
0.0395556
0.0395487
0.039538
0.0395226
0.0395019
0.0394767
0.0394487
0.0394215
0.0393986
0.0393829
0.0393745
0.0393719
0.0393735
0.0522573
0.044477
0.0443748
0.0443606
0.0442367
0.0439919
0.0436392
0.0433203
0.0430967
0.0429668
0.0428887
0.0428208
0.0427123
0.0425567
0.0423609
0.0421291
0.0418766
0.0416221
0.0413872
0.0411947
0.0410549
0.0409501
0.0408668
0.0407954
0.040729
0.0406636
0.0405972
0.0405284
0.0404566
0.0403819
0.0403048
0.0402262
0.0401469
0.0400675
0.0399882
0.039908
0.0398265
0.0397448
0.0396657
0.0395915
0.0395239
0.0394637
0.0394113
0.0393665
0.0393293
0.0393005
0.0392809
0.0392701
0.0392658
0.0392673
0.0392746
0.0392864
0.0393026
0.0393231
0.0393466
0.0393719
0.0394005
0.0394316
0.03946
0.0394982
0.0395185
0.0395457
0.0395633
0.0395805
0.0395956
0.0396088
0.0396201
0.03963
0.0396373
0.0396412
0.0396431
0.0396421
0.0396381
0.0396329
0.0396267
0.0396203
0.0396141
0.039609
0.0396043
0.0396006
0.0395972
0.0395951
0.0395944
0.0395941
0.0395935
0.0395921
0.0395866
0.0395774
0.0395636
0.0395462
0.0395271
0.0395086
0.0394923
0.0394787
0.0394678
0.0394592
0.0394529
0.039448
0.0394445
0.0394416
0.0394396
0.039438
0.0394369
0.0394359
0.0394349
0.0394341
0.0394321
0.0394293
0.0394245
0.0394172
0.0394061
0.0393904
0.0393694
0.0393436
0.0393148
0.0392864
0.0392624
0.0392457
0.0392368
0.0392341
0.0392354
0.0522586
0.044473
0.0443691
0.044358
0.044236
0.0439927
0.0436403
0.04332
0.0430953
0.0429645
0.0428857
0.0428176
0.042709
0.0425528
0.0423562
0.0421238
0.0418709
0.0416163
0.041382
0.0411907
0.0410519
0.0409478
0.0408649
0.0407937
0.0407271
0.0406613
0.0405944
0.0405249
0.0404524
0.0403768
0.0402987
0.0402189
0.0401383
0.0400575
0.0399767
0.0398949
0.0398116
0.0397277
0.0396462
0.0395693
0.0394989
0.0394357
0.0393803
0.0393324
0.039292
0.0392599
0.0392369
0.0392229
0.0392165
0.0392159
0.0392211
0.0392321
0.0392473
0.0392664
0.039288
0.0393113
0.0393376
0.0393666
0.0393937
0.0394312
0.0394503
0.0394771
0.0394941
0.039511
0.0395249
0.0395363
0.0395446
0.0395519
0.0395575
0.0395616
0.0395646
0.0395646
0.0395609
0.0395547
0.039545
0.0395341
0.039523
0.0395145
0.0395075
0.0395028
0.0394989
0.0394961