/*--------------------------------*- C++ -*----------------------------------*\
| =========                 |                                                 |
| \\      /  F ield         | OpenFOAM: The Open Source CFD Toolbox           |
|  \\    /   O peration     | Version:  2412                                  |
|   \\  /    A nd           | Website:  www.openfoam.com                      |
|    \\/     M anipulation  |                                                 |
\*---------------------------------------------------------------------------*/
FoamFile
{
    version     2.0;
    format      ascii;
    arch        "LSB;label=32;scalar=64";
    class       volScalarField;
    location    "0.12";
    object      rho;
}
// * * * * * * * * * * * * * * * * * * * * * * * * * * * * * * * * * * * * * //

dimensions      [1 -3 0 0 0 0 0];

internalField   nonuniform List<scalar> 
78650
(
0.0549117
0.0439313
0.0429461
0.0428094
0.0426701
0.0425944
0.0425298
0.0424768
0.0424238
0.0423674
0.0423086
0.0422517
0.0422002
0.0421559
0.042119
0.0420894
0.0420669
0.0420504
0.0420374
0.0420252
0.0420112
0.041993
0.0419694
0.0419408
0.0419083
0.0418734
0.0418376
0.0418021
0.0417675
0.0417346
0.0417037
0.041675
0.0416485
0.0416239
0.0416009
0.0415793
0.0415587
0.0415393
0.041521
0.0415038
0.0414878
0.0414728
0.0414589
0.0414459
0.0414338
0.0414225
0.0414119
0.0414022
0.0413933
0.0413854
0.0413783
0.041372
0.0413666
0.041362
0.0413582
0.041355
0.0413522
0.0413499
0.0413476
0.0413453
0.041343
0.0413403
0.041337
0.0413328
0.0413272
0.0413199
0.0413106
0.0412987
0.0412838
0.0412656
0.0412434
0.0412165
0.0411845
0.0411463
0.0411012
0.0410481
0.0409864
0.0409149
0.0408325
0.0407377
0.0406291
0.0405055
0.0403653
0.0402069
0.0400287
0.0398293
0.0396065
0.0393589
0.0390829
0.0387769
0.0384391
0.0380726
0.037672
0.0372382
0.0367599
0.036253
0.0357078
0.0351277
0.0345116
0.0338573
0.0331825
0.0324901
0.0317582
0.0310295
0.0302796
0.0295462
0.0288432
0.0281285
0.0274489
0.0268033
0.0261879
0.0256317
0.0251162
0.0246502
0.0242314
0.0238161
0.0234118
0.0230053
0.0226334
0.0223099
0.0217525
0.0545275
0.0438793
0.0429668
0.0428333
0.0426958
0.0426157
0.0425487
0.0424955
0.0424436
0.042389
0.0423312
0.0422735
0.0422203
0.0421741
0.0421353
0.0421041
0.0420802
0.0420627
0.0420493
0.0420375
0.0420247
0.0420085
0.0419872
0.0419607
0.04193
0.0418966
0.0418617
0.0418269
0.0417928
0.0417603
0.0417297
0.0417013
0.0416752
0.0416512
0.0416291
0.0416084
0.0415889
0.0415707
0.0415535
0.0415376
0.0415229
0.0415094
0.0414971
0.0414858
0.0414755
0.041466
0.0414575
0.0414498
0.041443
0.0414372
0.0414324
0.0414285
0.0414255
0.0414234
0.0414222
0.0414218
0.041422
0.0414227
0.0414237
0.0414249
0.0414262
0.0414273
0.0414282
0.0414284
0.0414276
0.0414254
0.0414216
0.0414158
0.0414072
0.041396
0.0413812
0.0413624
0.0413391
0.0413105
0.0412758
0.0412341
0.0411847
0.0411266
0.0410587
0.0409799
0.0408886
0.0407838
0.0406639
0.0405277
0.0403731
0.0401988
0.0400023
0.0397823
0.0395358
0.0392619
0.038959
0.0386273
0.0382607
0.037859
0.0374151
0.0369432
0.0364322
0.0358937
0.0353201
0.0347042
0.0340444
0.0333557
0.0326478
0.0319223
0.031202
0.03045
0.029747
0.0290334
0.0283363
0.0276744
0.0270202
0.0264036
0.0258257
0.025286
0.0247967
0.0243394
0.0239219
0.0235037
0.0230821
0.0226863
0.0220343
0.0541214
0.0437531
0.0429877
0.0428563
0.0427202
0.0426358
0.0425664
0.0425125
0.0424622
0.0424097
0.0423529
0.0422948
0.0422401
0.0421921
0.0421515
0.0421188
0.0420937
0.0420752
0.0420613
0.0420498
0.0420381
0.0420236
0.0420046
0.0419804
0.0419517
0.0419198
0.0418862
0.0418521
0.0418187
0.0417867
0.0417564
0.0417283
0.0417027
0.0416793
0.0416579
0.0416382
0.0416198
0.0416027
0.0415868
0.0415722
0.0415588
0.0415468
0.041536
0.0415264
0.0415179
0.0415104
0.0415038
0.0414981
0.0414935
0.0414898
0.0414873
0.0414858
0.0414852
0.0414856
0.0414871
0.0414895
0.0414927
0.0414964
0.0415007
0.0415053
0.0415102
0.0415153
0.0415202
0.0415248
0.0415288
0.0415316
0.0415331
0.0415332
0.0415309
0.0415264
0.041519
0.0415079
0.0414931
0.0414736
0.0414489
0.041418
0.0413802
0.0413347
0.0412805
0.0412164
0.0411412
0.0410537
0.0409524
0.0408361
0.040703
0.0405517
0.0403803
0.0401873
0.0399701
0.0397277
0.0394578
0.0391586
0.0388241
0.0384557
0.0380515
0.0376211
0.0371509
0.0366458
0.0360911
0.0355003
0.0348759
0.0342109
0.0335296
0.0328065
0.0321054
0.0313481
0.0305951
0.0298635
0.0291167
0.0284013
0.0277013
0.0270214
0.0263815
0.0257829
0.0252148
0.0246878
0.0242227
0.0237859
0.023377
0.0229944
0.0223419
0.0537265
0.0436491
0.0429992
0.0428768
0.0427423
0.0426543
0.0425821
0.0425274
0.0424788
0.0424287
0.0423736
0.0423158
0.04226
0.04221
0.0421677
0.0421335
0.0421073
0.0420879
0.0420735
0.0420621
0.0420513
0.0420385
0.0420218
0.0420001
0.0419737
0.0419436
0.0419113
0.0418783
0.0418457
0.0418141
0.0417843
0.0417566
0.0417313
0.0417085
0.0416879
0.0416691
0.0416518
0.0416358
0.0416211
0.0416077
0.0415957
0.0415851
0.0415758
0.0415679
0.0415611
0.0415555
0.0415508
0.0415472
0.0415446
0.0415432
0.0415428
0.0415436
0.0415455
0.0415484
0.0415524
0.0415575
0.0415635
0.0415703
0.0415778
0.0415857
0.0415941
0.0416029
0.0416118
0.0416206
0.041629
0.0416368
0.0416434
0.0416488
0.0416527
0.0416545
0.041654
0.0416505
0.0416439
0.0416331
0.0416179
0.0415973
0.0415707
0.0415373
0.0414963
0.0414467
0.0413872
0.0413166
0.0412338
0.0411375
0.0410262
0.0408984
0.0407523
0.0405861
0.0403974
0.0401848
0.0399456
0.0396776
0.0393776
0.0390475
0.0386843
0.0382894
0.0378501
0.0373753
0.0368568
0.0363105
0.0357268
0.035101
0.0344387
0.0337244
0.0329843
0.0322257
0.0314342
0.0306804
0.0299019
0.0291445
0.0284182
0.027702
0.0270107
0.0263574
0.025735
0.0251477
0.0246006
0.0240666
0.0235783
0.0231379
0.0223421
0.0532949
0.0435473
0.0429982
0.042889
0.0427603
0.0426707
0.0425967
0.0425411
0.0424942
0.0424468
0.0423939
0.0423367
0.0422796
0.0422277
0.0421836
0.0421482
0.042121
0.0421009
0.0420861
0.0420747
0.0420646
0.0420533
0.0420388
0.0420196
0.0419957
0.0419677
0.041937
0.0419052
0.0418734
0.0418427
0.0418134
0.0417861
0.0417612
0.0417389
0.041719
0.0417011
0.0416849
0.0416701
0.0416567
0.0416446
0.0416339
0.0416247
0.0416169
0.0416106
0.0416056
0.0416018
0.0415992
0.0415975
0.041597
0.0415977
0.0415997
0.0416027
0.041607
0.0416124
0.041619
0.0416267
0.0416356
0.0416454
0.0416559
0.0416672
0.041679
0.0416914
0.0417041
0.0417171
0.0417299
0.0417424
0.0417541
0.041765
0.0417746
0.0417825
0.0417885
0.0417923
0.0417934
0.041791
0.041785
0.0417744
0.0417583
0.0417363
0.0417076
0.0416715
0.0416266
0.0415718
0.041506
0.0414282
0.0413367
0.0412303
0.041107
0.0409655
0.0408036
0.0406199
0.0404119
0.0401777
0.0399145
0.0396231
0.0392992
0.0389416
0.0385413
0.038106
0.0376279
0.037119
0.0365659
0.0359751
0.0353436
0.0346756
0.0339541
0.0332325
0.0324702
0.0316938
0.0309235
0.0301248
0.0293616
0.028603
0.0278741
0.0271707
0.0265009
0.0258788
0.0252922
0.0247205
0.0241764
0.0236771
0.0227895
0.0528279
0.0434854
0.0429973
0.0428991
0.0427759
0.0426849
0.042609
0.0425525
0.0425066
0.0424618
0.0424124
0.0423571
0.0422994
0.0422455
0.0421994
0.0421627
0.0421347
0.042114
0.0420989
0.0420874
0.0420779
0.042068
0.0420556
0.042039
0.0420177
0.0419921
0.0419633
0.0419329
0.0419023
0.0418724
0.0418438
0.0418171
0.0417927
0.0417709
0.0417516
0.0417345
0.0417193
0.0417057
0.0416935
0.0416828
0.0416734
0.0416656
0.0416594
0.0416547
0.0416514
0.0416494
0.0416487
0.0416491
0.0416507
0.0416535
0.0416576
0.0416629
0.0416695
0.0416774
0.0416865
0.0416969
0.0417085
0.0417212
0.0417348
0.0417493
0.0417645
0.0417804
0.0417969
0.0418138
0.0418309
0.0418478
0.0418645
0.0418804
0.0418955
0.0419095
0.0419221
0.0419326
0.0419408
0.0419464
0.0419489
0.0419478
0.0419421
0.0419314
0.0419144
0.0418912
0.0418604
0.041821
0.041772
0.0417122
0.0416405
0.0415554
0.0414552
0.0413387
0.0412037
0.0410488
0.0408708
0.0406683
0.0404393
0.0401829
0.0398937
0.0395694
0.0392052
0.0388091
0.038375
0.0379074
0.037391
0.0368362
0.0362335
0.0355869
0.0349039
0.0341658
0.0334187
0.0326146
0.0318469
0.0310379
0.0302482
0.0294458
0.0286606
0.0279034
0.0271583
0.0264738
0.0258073
0.0251691
0.0245841
0.0240647
0.0231632
0.0523166
0.043439
0.0429894
0.0429003
0.042785
0.0426948
0.0426183
0.0425612
0.0425169
0.0424756
0.04243
0.042377
0.0423191
0.0422634
0.0422152
0.0421769
0.0421481
0.0421271
0.0421117
0.0421003
0.0420913
0.0420826
0.0420721
0.0420581
0.0420396
0.0420166
0.04199
0.0419612
0.0419319
0.041903
0.0418752
0.0418492
0.0418254
0.0418041
0.0417854
0.0417692
0.041755
0.0417425
0.0417316
0.0417222
0.0417142
0.0417079
0.0417032
0.0417
0.0416984
0.0416983
0.0416996
0.041702
0.0417056
0.0417105
0.0417168
0.0417244
0.0417334
0.0417437
0.0417554
0.0417684
0.0417827
0.0417982
0.0418149
0.0418325
0.041851
0.0418704
0.0418905
0.0419113
0.0419325
0.0419539
0.0419752
0.0419962
0.0420167
0.0420365
0.0420551
0.0420722
0.0420877
0.042101
0.0421115
0.0421189
0.0421227
0.0421227
0.0421171
0.0421063
0.0420885
0.0420634
0.0420297
0.0419866
0.0419328
0.0418672
0.0417882
0.0416945
0.0415841
0.0414555
0.0413063
0.0411352
0.0409398
0.0407183
0.040466
0.0401828
0.0398659
0.0395181
0.0391297
0.0387016
0.0382225
0.0377044
0.0371402
0.0365389
0.0358925
0.0351983
0.0344751
0.0336875
0.0328706
0.0320382
0.0311899
0.0303758
0.0295365
0.0287541
0.0279537
0.0272106
0.0264772
0.0257673
0.0251013
0.0244926
0.0233823
0.0517695
0.0433954
0.0429795
0.0429006
0.0427935
0.0427045
0.0426265
0.0425675
0.0425238
0.0424856
0.0424444
0.0423951
0.0423389
0.0422819
0.0422314
0.0421911
0.0421613
0.0421399
0.0421245
0.0421133
0.0421047
0.042097
0.0420883
0.0420767
0.0420611
0.0420409
0.0420168
0.04199
0.0419621
0.0419345
0.0419078
0.0418826
0.0418595
0.0418388
0.0418208
0.0418052
0.041792
0.0417806
0.0417709
0.0417629
0.0417563
0.0417514
0.0417482
0.0417467
0.0417467
0.0417485
0.0417516
0.0417559
0.0417616
0.0417686
0.0417771
0.041787
0.0417983
0.041811
0.0418251
0.0418407
0.0418577
0.041876
0.0418956
0.0419162
0.041938
0.0419607
0.0419844
0.0420089
0.0420341
0.0420597
0.0420856
0.0421114
0.042137
0.0421622
0.0421867
0.0422102
0.0422324
0.0422529
0.0422714
0.0422875
0.0423002
0.0423094
0.0423148
0.0423158
0.0423109
0.0422998
0.0422811
0.0422542
0.042218
0.0421715
0.0421133
0.0420421
0.041956
0.0418537
0.0417329
0.0415921
0.0414286
0.0412407
0.0410249
0.0407804
0.0405037
0.0401941
0.0398433
0.0394532
0.0390191
0.0385501
0.0380357
0.0374807
0.0368759
0.0362274
0.0355279
0.0347886
0.0339899
0.0331886
0.0323438
0.0315155
0.0306571
0.029806
0.0289588
0.0281239
0.0273371
0.0265816
0.0258814
0.0252439
0.0241042
0.0511811
0.0433549
0.0429666
0.0428959
0.0427974
0.0427102
0.0426316
0.042571
0.0425273
0.0424919
0.0424557
0.0424115
0.0423582
0.042301
0.0422482
0.0422055
0.0421742
0.0421523
0.0421369
0.0421259
0.0421179
0.0421112
0.042104
0.0420947
0.0420819
0.0420648
0.0420434
0.0420189
0.0419927
0.0419664
0.0419409
0.0419168
0.0418945
0.0418746
0.0418572
0.0418424
0.04183
0.0418197
0.0418113
0.0418045
0.0417994
0.041796
0.0417944
0.0417944
0.0417963
0.0417996
0.0418046
0.0418109
0.0418187
0.0418278
0.0418384
0.0418505
0.0418642
0.0418792
0.0418958
0.0419139
0.0419335
0.0419546
0.0419771
0.0420007
0.0420256
0.0420517
0.0420788
0.0421069
0.042136
0.0421657
0.042196
0.0422265
0.042257
0.0422875
0.0423176
0.0423472
0.0423758
0.0424033
0.0424292
0.0424532
0.0424749
0.0424937
0.0425088
0.0425201
0.0425269
0.0425288
0.0425242
0.0425125
0.0424925
0.0424634
0.0424241
0.0423734
0.0423097
0.0422317
0.0421372
0.0420249
0.0418922
0.0417373
0.0415574
0.0413517
0.0411162
0.040849
0.0405428
0.0402002
0.0398162
0.0393939
0.0389226
0.0384059
0.0378341
0.0372169
0.0365468
0.0358238
0.0350528
0.0342362
0.0333828
0.0324839
0.0315988
0.0306756
0.0298054
0.0289212
0.0280819
0.0272538
0.0264517
0.0257304
0.0243676
0.0505636
0.0433091
0.0429511
0.0428889
0.0428012
0.0427181
0.0426391
0.0425758
0.0425299
0.0424952
0.042463
0.0424251
0.0423768
0.0423208
0.0422661
0.0422207
0.0421873
0.0421645
0.0421491
0.0421384
0.0421308
0.0421249
0.0421192
0.0421119
0.0421018
0.0420878
0.0420694
0.0420475
0.0420234
0.0419987
0.0419746
0.0419517
0.0419304
0.0419114
0.0418948
0.0418808
0.0418692
0.0418599
0.0418526
0.0418471
0.0418434
0.0418416
0.0418414
0.0418432
0.0418466
0.0418517
0.0418585
0.0418667
0.0418765
0.0418877
0.0419004
0.0419147
0.0419306
0.041948
0.041967
0.0419875
0.0420097
0.0420335
0.0420587
0.0420853
0.0421133
0.0421425
0.0421729
0.0422046
0.0422373
0.042271
0.0423054
0.0423403
0.0423756
0.0424111
0.0424466
0.0424819
0.0425167
0.0425507
0.0425837
0.0426154
0.0426452
0.0426728
0.0426976
0.0427195
0.0427374
0.0427508
0.0427593
0.0427622
0.0427583
0.0427465
0.0427258
0.042695
0.0426529
0.0425983
0.0425294
0.0424444
0.042341
0.0422177
0.0420722
0.0419029
0.0417054
0.0414776
0.0412148
0.0409197
0.0405864
0.0402143
0.0397934
0.0393266
0.0388066
0.0382416
0.0376243
0.0369603
0.0362417
0.0354627
0.034663
0.0337798
0.0329069
0.0319729
0.0310544
0.030098
0.0291927
0.0283019
0.0274141
0.0266014
0.0250586
0.0499159
0.0432502
0.0429337
0.0428801
0.0428028
0.0427255
0.0426474
0.0425806
0.0425316
0.0424961
0.0424667
0.0424352
0.0423931
0.0423402
0.0422847
0.0422366
0.0422008
0.0421767
0.042161
0.0421505
0.0421434
0.0421383
0.0421337
0.0421283
0.0421206
0.0421095
0.0420944
0.0420754
0.0420537
0.0420309
0.0420083
0.0419867
0.0419667
0.0419486
0.041933
0.0419198
0.0419091
0.0419008
0.0418946
0.0418903
0.041888
0.0418876
0.0418892
0.0418924
0.0418975
0.0419044
0.041913
0.0419231
0.0419348
0.0419481
0.0419629
0.0419793
0.0419975
0.0420172
0.0420385
0.0420615
0.0420862
0.0421126
0.0421405
0.04217
0.0422009
0.0422332
0.042267
0.042302
0.0423383
0.0423758
0.0424142
0.0424534
0.0424932
0.0425335
0.0425742
0.042615
0.0426556
0.0426959
0.0427355
0.0427744
0.042812
0.0428479
0.0428818
0.0429131
0.0429415
0.0429665
0.0429872
0.0430027
0.0430126
0.0430165
0.043013
0.0430007
0.0429788
0.0429456
0.0429001
0.0428406
0.0427654
0.0426726
0.0425601
0.0424259
0.0422663
0.0420797
0.0418623
0.0416138
0.0413266
0.0409991
0.040624
0.0402048
0.0397358
0.039221
0.0386498
0.0380271
0.0373432
0.0366012
0.0357965
0.0349531
0.0340421
0.0331104
0.0321535
0.0311639
0.0302079
0.0292865
0.0283735
0.0275559
0.0260424
0.0492594
0.0431905
0.0429086
0.0428634
0.0427986
0.0427281
0.0426538
0.0425856
0.0425326
0.0424951
0.0424665
0.0424387
0.0424044
0.0423574
0.0423033
0.0422533
0.042215
0.0421892
0.042173
0.0421626
0.0421558
0.0421513
0.0421477
0.0421438
0.0421381
0.0421299
0.042118
0.0421022
0.0420832
0.0420626
0.0420418
0.0420217
0.0420031
0.0419862
0.0419716
0.0419594
0.0419497
0.0419423
0.0419372
0.0419341
0.0419331
0.0419342
0.0419372
0.0419421
0.0419489
0.0419575
0.0419678
0.0419799
0.0419935
0.0420087
0.0420255
0.0420441
0.0420644
0.0420863
0.04211
0.0421353
0.0421624
0.0421913
0.0422219
0.0422541
0.0422879
0.0423232
0.04236
0.0423983
0.042438
0.0424791
0.0425213
0.0425646
0.0426087
0.0426536
0.042699
0.042745
0.0427911
0.0428373
0.0428833
0.0429288
0.0429737
0.0430175
0.0430598
0.0431003
0.0431385
0.0431741
0.0432063
0.0432347
0.0432584
0.0432765
0.0432884
0.0432938
0.0432916
0.0432792
0.0432566
0.0432212
0.0431722
0.0431075
0.0430254
0.0429239
0.0427998
0.0426518
0.0424759
0.0422706
0.0420293
0.0417519
0.0414331
0.0410742
0.0406677
0.0402123
0.0396989
0.0391308
0.0384975
0.0378081
0.0370587
0.0362505
0.0353921
0.0344624
0.0334664
0.0324407
0.031362
0.0303318
0.029257
0.0282934
0.0264816
0.0486045
0.0431222
0.0428737
0.0428367
0.0427848
0.0427243
0.0426545
0.0425856
0.04253
0.0424901
0.0424621
0.0424375
0.042409
0.0423699
0.04232
0.0422697
0.0422293
0.0422019
0.0421849
0.0421746
0.0421681
0.0421641
0.0421614
0.0421585
0.0421546
0.0421488
0.04214
0.0421274
0.0421114
0.0420934
0.0420746
0.0420562
0.0420391
0.0420236
0.0420102
0.0419991
0.0419904
0.0419841
0.0419799
0.0419781
0.0419782
0.0419808
0.0419853
0.0419917
0.0420002
0.0420106
0.0420227
0.0420366
0.0420521
0.0420692
0.0420881
0.0421087
0.0421311
0.0421552
0.0421811
0.0422088
0.0422382
0.0422696
0.0423027
0.0423376
0.0423742
0.0424123
0.0424522
0.0424936
0.0425366
0.0425811
0.042627
0.0426741
0.0427224
0.0427716
0.0428216
0.0428724
0.0429238
0.0429756
0.0430275
0.0430794
0.0431311
0.0431822
0.0432324
0.0432813
0.0433287
0.043374
0.043417
0.0434568
0.0434929
0.0435248
0.0435516
0.0435722
0.0435861
0.0435927
0.0435915
0.0435787
0.0435548
0.0435166
0.0434637
0.0433939
0.0433048
0.0431949
0.0430602
0.0428985
0.0427041
0.0424772
0.0422121
0.0419076
0.0415548
0.0411518
0.0406918
0.0401774
0.0395998
0.0389651
0.0382623
0.0375015
0.0366753
0.0357823
0.0348257
0.0338382
0.0327654
0.0317646
0.0307263
0.0297444
0.027868
0.0479599
0.0430614
0.0428321
0.0428004
0.0427602
0.0427117
0.04265
0.042583
0.0425253
0.0424822
0.0424535
0.042432
0.0424088
0.0423773
0.0423333
0.0422848
0.0422433
0.0422143
0.0421967
0.0421865
0.0421804
0.042177
0.042175
0.0421731
0.0421703
0.0421664
0.0421602
0.0421508
0.0421381
0.0421228
0.0421064
0.0420899
0.0420744
0.0420604
0.0420484
0.0420385
0.042031
0.0420258
0.0420228
0.042022
0.0420235
0.0420273
0.0420332
0.0420413
0.0420514
0.0420634
0.0420774
0.0420931
0.0421105
0.0421295
0.0421502
0.0421728
0.0421972
0.0422235
0.0422516
0.0422815
0.0423132
0.0423469
0.0423825
0.0424199
0.0424591
0.0425
0.0425427
0.0425871
0.0426332
0.0426809
0.0427302
0.042781
0.0428331
0.0428864
0.0429408
0.0429961
0.0430524
0.0431094
0.0431668
0.0432246
0.0432826
0.0433405
0.0433981
0.0434549
0.0435107
0.0435653
0.0436181
0.0436687
0.0437166
0.043761
0.0438016
0.0438375
0.0438681
0.0438919
0.0439084
0.0439168
0.0439171
0.0439038
0.0438785
0.0438374
0.04378
0.0437041
0.0436062
0.0434842
0.0433334
0.0431534
0.0429378
0.0426847
0.042386
0.0420405
0.0416426
0.0411919
0.04068
0.0401087
0.0394625
0.0387499
0.0379596
0.037105
0.0361842
0.0351804
0.0340875
0.0329235
0.0317572
0.0306875
0.0287158
0.0473363
0.0429898
0.0427859
0.0427569
0.0427262
0.0426901
0.0426397
0.0425788
0.0425212
0.0424757
0.0424451
0.0424245
0.0424054
0.0423794
0.0423422
0.042297
0.0422554
0.0422254
0.0422073
0.0421977
0.0421924
0.0421898
0.0421888
0.0421875
0.0421856
0.042183
0.0421791
0.0421725
0.0421628
0.0421505
0.0421366
0.0421224
0.0421087
0.0420963
0.0420857
0.0420773
0.042071
0.042067
0.0420653
0.0420655
0.0420684
0.0420734
0.0420807
0.0420902
0.0421019
0.0421157
0.0421314
0.0421489
0.0421682
0.0421891
0.0422117
0.0422362
0.0422625
0.0422908
0.042321
0.0423531
0.042387
0.0424229
0.0424609
0.0425008
0.0425425
0.0425861
0.0426314
0.0426787
0.0427278
0.0427786
0.0428312
0.0428854
0.0429412
0.0429983
0.0430568
0.0431165
0.0431773
0.0432392
0.0433018
0.0433651
0.043429
0.0434933
0.0435576
0.0436218
0.0436854
0.0437484
0.0438103
0.0438707
0.0439292
0.0439852
0.0440382
0.0440876
0.0441327
0.0441728
0.0442072
0.0442341
0.0442533
0.0442635
0.0442645
0.0442511
0.0442245
0.0441808
0.0441187
0.0440357
0.0439282
0.0437949
0.0436294
0.0434299
0.0431899
0.0429085
0.0425792
0.0421986
0.0417579
0.0412555
0.0406794
0.0400367
0.0393144
0.0385239
0.0376581
0.0367067
0.0357083
0.034578
0.0333592
0.0322065
0.0300493
0.046731
0.0429231
0.0427423
0.0427101
0.0426836
0.0426568
0.042619
0.0425683
0.042514
0.0424677
0.0424348
0.0424138
0.0423974
0.0423767
0.0423454
0.0423049
0.0422648
0.0422349
0.0422168
0.042208
0.0422038
0.0422024
0.0422028
0.0422022
0.0422009
0.0421993
0.0421969
0.0421926
0.0421858
0.0421764
0.0421653
0.0421534
0.0421417
0.042131
0.042122
0.042115
0.0421102
0.0421075
0.042107
0.0421087
0.0421127
0.0421189
0.0421276
0.0421385
0.0421518
0.0421673
0.0421847
0.042204
0.0422251
0.0422478
0.0422723
0.0422986
0.0423268
0.0423571
0.0423893
0.0424234
0.0424594
0.0424975
0.0425377
0.0425799
0.042624
0.0426701
0.0427181
0.042768
0.0428198
0.0428736
0.0429292
0.0429867
0.0430458
0.0431066
0.0431688
0.0432324
0.0432975
0.0433639
0.0434313
0.0434997
0.043569
0.0436391
0.0437097
0.0437805
0.0438514
0.0439221
0.0439923
0.0440618
0.0441301
0.0441967
0.0442613
0.0443232
0.044382
0.0444369
0.0444873
0.0445323
0.0445712
0.0446017
0.0446237
0.0446357
0.0446377
0.0446239
0.0445954
0.0445481
0.0444802
0.0443892
0.0442696
0.0441199
0.0439338
0.0437096
0.0434392
0.0431185
0.0427396
0.0422997
0.0417889
0.0412104
0.0405514
0.0398164
0.0389855
0.0380685
0.0370617
0.0359821
0.0347671
0.0336803
0.0317077
0.0461577
0.0428608
0.0426983
0.0426578
0.0426317
0.0426111
0.0425853
0.042548
0.0425026
0.0424591
0.0424259
0.042404
0.0423887
0.042372
0.0423461
0.0423101
0.042272
0.0422427
0.042225
0.0422169
0.0422139
0.0422145
0.0422168
0.0422169
0.0422162
0.0422153
0.0422139
0.0422115
0.0422072
0.0422005
0.042192
0.0421826
0.0421731
0.0421642
0.0421569
0.0421515
0.0421481
0.0421468
0.0421477
0.0421509
0.042156
0.0421636
0.0421736
0.0421859
0.0422007
0.0422177
0.0422369
0.0422579
0.0422808
0.0423053
0.0423316
0.0423597
0.0423898
0.0424219
0.042456
0.0424921
0.0425302
0.0425703
0.0426126
0.042657
0.0427034
0.0427519
0.0428023
0.0428548
0.0429093
0.0429658
0.0430243
0.0430847
0.0431471
0.0432112
0.043277
0.0433444
0.0434134
0.0434839
0.0435558
0.043629
0.0437033
0.0437787
0.043855
0.0439321
0.0440095
0.0440873
0.0441651
0.0442428
0.0443199
0.0443961
0.0444711
0.0445442
0.0446152
0.0446835
0.0447482
0.0448091
0.0448649
0.044915
0.0449582
0.0449925
0.0450176
0.0450319
0.0450351
0.0450213
0.0449905
0.0449386
0.0448624
0.0447603
0.0446264
0.0444588
0.0442492
0.0439942
0.0436868
0.0433227
0.0428937
0.0423972
0.0418186
0.0411595
0.0404061
0.0395652
0.0386122
0.0375413
0.0363649
0.0351101
0.0329951
0.0456151
0.0428071
0.0426562
0.0426073
0.0425777
0.0425589
0.042542
0.0425187
0.0424859
0.0424482
0.0424156
0.0423926
0.042377
0.0423625
0.0423416
0.0423104
0.0422757
0.0422477
0.0422311
0.0422241
0.0422225
0.042226
0.0422305
0.0422318
0.0422318
0.0422314
0.0422307
0.0422296
0.0422272
0.0422231
0.0422171
0.0422101
0.0422028
0.0421959
0.0421902
0.0421864
0.0421846
0.0421847
0.0421874
0.0421918
0.0421984
0.0422073
0.0422185
0.0422323
0.0422485
0.0422671
0.0422878
0.0423106
0.0423352
0.0423616
0.0423896
0.0424195
0.0424513
0.0424852
0.0425211
0.0425591
0.0425991
0.0426412
0.0426855
0.042732
0.0427806
0.0428313
0.042884
0.0429388
0.0429958
0.0430549
0.0431161
0.0431793
0.0432446
0.0433118
0.0433808
0.0434517
0.0435243
0.0435986
0.0436746
0.0437521
0.043831
0.0439112
0.0439928
0.0440754
0.0441588
0.044243
0.0443277
0.0444128
0.0444979
0.0445828
0.0446671
0.0447505
0.0448326
0.0449129
0.0449909
0.045066
0.0451376
0.0452048
0.0452667
0.0453221
0.0453703
0.0454088
0.0454372
0.0454537
0.0454576
0.0454428
0.0454086
0.0453515
0.0452673
0.0451535
0.0450024
0.0448114
0.0445725
0.0442812
0.0439284
0.0435083
0.0430089
0.0424308
0.0417607
0.0410009
0.0401242
0.0391566
0.0380374
0.0368734
0.0349261
0.0450991
0.0427475
0.0426214
0.0425685
0.0425312
0.0425084
0.0424929
0.0424777
0.0424573
0.0424305
0.0424033
0.0423819
0.0423669
0.0423536
0.0423357
0.0423087
0.0422768
0.0422506
0.0422358
0.0422303
0.0422303
0.0422368
0.0422436
0.0422465
0.0422473
0.0422473
0.0422472
0.0422469
0.0422461
0.0422441
0.0422405
0.0422359
0.0422307
0.0422258
0.0422219
0.0422196
0.0422193
0.0422213
0.0422254
0.0422313
0.0422393
0.0422496
0.0422623
0.0422774
0.042295
0.0423151
0.0423374
0.0423619
0.0423882
0.0424162
0.042446
0.0424776
0.0425111
0.0425467
0.0425844
0.0426242
0.042666
0.04271
0.0427561
0.0428046
0.0428552
0.042908
0.0429629
0.04302
0.0430793
0.0431408
0.0432045
0.0432703
0.0433383
0.0434084
0.0434804
0.0435544
0.0436304
0.0437083
0.043788
0.0438694
0.0439525
0.0440372
0.0441235
0.0442111
0.0443
0.04439
0.0444809
0.0445727
0.044665
0.0447577
0.0448504
0.0449429
0.0450349
0.0451259
0.0452155
0.0453033
0.0453887
0.0454712
0.0455497
0.0456236
0.0456917
0.0457531
0.0458067
0.0458499
0.0458819
0.0459005
0.0459052
0.0458891
0.0458503
0.045785
0.0456874
0.0455553
0.0453803
0.0451575
0.0448772
0.0445334
0.0441162
0.0436225
0.0430376
0.0423521
0.0415422
0.040617
0.0395112
0.0383325
0.0365018
0.0446084
0.0426707
0.0425943
0.0425388
0.0424899
0.0424585
0.0424413
0.0424316
0.0424221
0.0424068
0.0423867
0.0423683
0.0423545
0.0423427
0.0423281
0.0423054
0.0422767
0.0422523
0.0422392
0.042235
0.042237
0.0422468
0.0422558
0.0422605
0.0422623
0.042263
0.0422633
0.0422638
0.0422641
0.0422638
0.0422624
0.04226
0.042257
0.042254
0.0422519
0.0422512
0.0422525
0.0422562
0.0422618
0.0422693
0.0422789
0.0422906
0.0423046
0.0423211
0.0423402
0.0423617
0.0423856
0.0424116
0.0424396
0.0424693
0.0425008
0.042534
0.0425692
0.0426065
0.0426458
0.0426873
0.0427309
0.0427766
0.0428246
0.0428748
0.0429274
0.0429822
0.0430391
0.0430983
0.0431597
0.0432234
0.0432894
0.0433577
0.0434282
0.0435009
0.0435757
0.0436526
0.0437316
0.0438126
0.0438957
0.0439808
0.0440676
0.0441563
0.0442468
0.044339
0.0444328
0.0445279
0.0446244
0.0447221
0.0448208
0.0449204
0.0450206
0.0451211
0.0452218
0.0453223
0.0454223
0.0455213
0.0456191
0.0457151
0.0458085
0.0458988
0.0459848
0.046066
0.0461412
0.0462091
0.0462685
0.0463164
0.0463519
0.0463724
0.0463771
0.0463579
0.046313
0.0462379
0.0461265
0.0459734
0.0457703
0.0455104
0.0451825
0.04478
0.0442878
0.0436959
0.0429903
0.0421539
0.0411696
0.0400295
0.03839
0.0441624
0.0425642
0.0425582
0.042515
0.0424614
0.0424199
0.0423943
0.0423825
0.042378
0.0423727
0.0423629
0.0423508
0.0423401
0.0423309
0.0423192
0.0423004
0.042275
0.0422525
0.0422409
0.042238
0.0422422
0.042255
0.0422665
0.0422731
0.0422761
0.0422776
0.0422785
0.0422797
0.0422812
0.0422823
0.0422827
0.0422824
0.0422815
0.0422805
0.0422801
0.042281
0.042284
0.0422892
0.0422965
0.0423056
0.0423168
0.04233
0.0423455
0.0423635
0.0423839
0.0424069
0.0424323
0.0424598
0.0424894
0.0425207
0.0425538
0.0425886
0.0426254
0.0426643
0.0427052
0.0427483
0.0427935
0.0428409
0.0428906
0.0429426
0.042997
0.0430536
0.0431124
0.0431736
0.043237
0.0433028
0.0433709
0.0434413
0.0435141
0.0435893
0.0436666
0.0437461
0.0438279
0.0439118
0.043998
0.0440862
0.0441765
0.0442688
0.0443631
0.0444594
0.0445575
0.0446573
0.0447587
0.0448617
0.0449661
0.0450718
0.0451785
0.0452862
0.0453947
0.0455035
0.0456125
0.0457215
0.04583
0.0459377
0.0460441
0.0461485
0.0462503
0.0463488
0.0464431
0.0465323
0.0466151
0.04669
0.0467556
0.0468082
0.0468474
0.0468698
0.0468745
0.0468513
0.0467986
0.0467084
0.0465749
0.0463896
0.0461422
0.0458247
0.0454234
0.0449303
0.0443212
0.0435652
0.0426626
0.0415558
0.0400677
0.0437947
0.0424563
0.0425004
0.0424863
0.0424354
0.0423863
0.0423521
0.0423358
0.0423317
0.0423318
0.0423305
0.0423259
0.0423205
0.0423154
0.0423075
0.0422935
0.042272
0.0422522
0.042242
0.0422402
0.0422466
0.0422618
0.0422756
0.0422839
0.0422883
0.0422907
0.0422925
0.0422946
0.0422972
0.0422997
0.0423017
0.0423033
0.0423043
0.0423053
0.0423067
0.0423093
0.0423139
0.0423206
0.0423295
0.0423403
0.0423531
0.0423679
0.0423849
0.0424043
0.0424262
0.0424506
0.0424774
0.0425065
0.0425375
0.0425704
0.042605
0.0426414
0.0426798
0.0427202
0.0427627
0.0428073
0.0428541
0.0429031
0.0429543
0.043008
0.043064
0.0431223
0.043183
0.0432459
0.0433112
0.0433789
0.0434489
0.0435214
0.0435963
0.0436737
0.0437533
0.0438352
0.0439195
0.044006
0.0440949
0.0441861
0.0442794
0.0443749
0.0444726
0.0445725
0.0446744
0.0447783
0.044884
0.0449917
0.0451011
0.0452121
0.0453246
0.0454385
0.0455536
0.0456697
0.0457866
0.0459041
0.0460219
0.0461398
0.0462574
0.0463742
0.0464896
0.0466031
0.046714
0.0468217
0.0469249
0.0470228
0.0471138
0.0471961
0.0472686
0.0473264
0.047369
0.0473921
0.047395
0.0473631
0.0472978
0.0471857
0.0470225
0.0467945
0.0464892
0.0460955
0.0455816
0.0449253
0.0441227
0.0431102
0.0417598
0.0435009
0.0423432
0.042423
0.0424396
0.04241
0.0423594
0.0423171
0.0422946
0.042288
0.0422896
0.042293
0.0422952
0.0422959
0.0422955
0.0422923
0.0422837
0.0422675
0.0422509
0.0422424
0.0422417
0.0422499
0.0422667
0.0422823
0.0422925
0.0422984
0.042302
0.0423049
0.042308
0.0423118
0.0423157
0.0423194
0.0423227
0.0423256
0.0423284
0.0423316
0.0423359
0.0423421
0.0423505
0.042361
0.0423734
0.0423878
0.0424042
0.0424227
0.0424436
0.0424669
0.0424928
0.0425211
0.0425516
0.0425841
0.0426184
0.0426545
0.0426924
0.0427322
0.0427741
0.042818
0.0428642
0.0429124
0.0429629
0.0430157
0.0430708
0.0431284
0.0431884
0.0432506
0.0433152
0.0433822
0.0434517
0.0435236
0.0435979
0.0436747
0.043754
0.0438357
0.0439198
0.0440063
0.0440952
0.0441865
0.0442803
0.0443764
0.0444747
0.0445754
0.0446784
0.0447838
0.0448912
0.0450008
0.0451125
0.0452263
0.0453419
0.0454595
0.0455787
0.0456997
0.0458221
0.0459458
0.0460706
0.0461964
0.0463231
0.0464502
0.0465775
0.0467045
0.0468308
0.0469559
0.0470793
0.0472001
0.0473177
0.0474306
0.047538
0.0476379
0.0477284
0.047808
0.0478708
0.0479171
0.0479409
0.0479426
0.0478998
0.0478199
0.0476802
0.0474787
0.0471971
0.0467988
0.0462571
0.0455383
0.0446021
0.0433505
0.0432602
0.0422288
0.0423311
0.0423832
0.0423766
0.0423365
0.0422907
0.0422624
0.0422508
0.04225
0.0422538
0.04226
0.0422665
0.042272
0.0422741
0.0422711
0.0422617
0.0422496
0.0422428
0.0422434
0.0422531
0.0422709
0.0422877
0.0422993
0.0423066
0.0423115
0.0423156
0.04232
0.0423251
0.0423305
0.0423358
0.0423407
0.0423454
0.04235
0.0423549
0.042361
0.0423688
0.0423788
0.0423909
0.0424049
0.0424209
0.0424389
0.042459
0.0424813
0.0425062
0.0425335
0.0425632
0.0425951
0.042629
0.0426648
0.0427023
0.0427416
0.0427828
0.0428261
0.0428714
0.042919
0.0429687
0.0430206
0.0430748
0.0431314
0.0431904
0.0432518
0.0433156
0.0433818
0.0434504
0.0435215
0.043595
0.0436711
0.0437496
0.0438307
0.0439143
0.0440004
0.0440889
0.0441799
0.0442734
0.0443695
0.044468
0.0445688
0.0446722
0.044778
0.0448863
0.0449969
0.0451099
0.0452251
0.0453426
0.0454623
0.0455842
0.0457081
0.045834
0.0459618
0.0460913
0.0462224
0.046355
0.0464891
0.0466243
0.0467605
0.0468973
0.0470344
0.0471715
0.047308
0.0474437
0.0475778
0.0477094
0.0478377
0.0479612
0.048079
0.048189
0.0482888
0.0483766
0.0484449
0.048495
0.048518
0.0485122
0.0484483
0.0483369
0.0481511
0.0478652
0.04745
0.0468389
0.0460176
0.0448702
0.0430569
0.0421125
0.0422308
0.0423204
0.0423364
0.0423127
0.0422693
0.0422365
0.042219
0.0422142
0.0422161
0.0422226
0.042233
0.042245
0.0422534
0.0422571
0.0422548
0.0422486
0.0422447
0.0422467
0.0422572
0.0422745
0.0422917
0.0423043
0.0423129
0.0423193
0.0423248
0.0423306
0.0423372
0.042344
0.0423508
0.0423574
0.0423638
0.0423701
0.0423768
0.0423845