/*--------------------------------*- C++ -*----------------------------------*\
| =========                 |                                                 |
| \\      /  F ield         | OpenFOAM: The Open Source CFD Toolbox           |
|  \\    /   O peration     | Version:  2412                                  |
|   \\  /    A nd           | Website:  www.openfoam.com                      |
|    \\/     M anipulation  |                                                 |
\*---------------------------------------------------------------------------*/
FoamFile
{
    version     2.0;
    format      ascii;
    arch        "LSB;label=32;scalar=64";
    class       volScalarField;
    location    "0.12";
    object      T;
}
// * * * * * * * * * * * * * * * * * * * * * * * * * * * * * * * * * * * * * //

dimensions      [0 0 0 1 0 0 0];

internalField   nonuniform List<scalar> 
78650
(
246.948
225.349
223.981
224.015
223.903
223.83
223.749
223.676
223.589
223.484
223.366
223.245
223.134
223.037
222.955
222.89
222.841
222.805
222.777
222.751
222.721
222.681
222.63
222.567
222.496
222.419
222.34
222.261
222.185
222.112
222.043
221.979
221.92
221.865
221.814
221.765
221.72
221.676
221.635
221.597
221.561
221.527
221.496
221.467
221.44
221.415
221.391
221.369
221.349
221.332
221.316
221.302
221.29
221.279
221.271
221.264
221.258
221.252
221.247
221.242
221.237
221.231
221.224
221.214
221.202
221.185
221.164
221.138
221.104
221.063
221.013
220.953
220.881
220.795
220.693
220.574
220.435
220.273
220.087
219.873
219.627
219.346
219.027
218.666
218.259
217.802
217.29
216.719
216.08
215.369
214.58
213.719
212.773
211.741
210.596
209.373
208.046
206.622
205.094
203.454
201.743
199.967
198.066
196.147
194.146
192.159
190.23
188.241
186.324
184.481
182.697
181.052
179.493
178.049
176.751
175.525
174.473
173.628
173.084
172.79
171.342
246.202
225.271
224.074
224.088
223.967
223.882
223.797
223.722
223.636
223.533
223.416
223.294
223.178
223.077
222.991
222.923
222.871
222.833
222.804
222.778
222.751
222.716
222.669
222.611
222.544
222.47
222.394
222.316
222.241
222.169
222.101
222.038
221.979
221.926
221.877
221.83
221.787
221.746
221.708
221.672
221.639
221.609
221.582
221.556
221.533
221.512
221.493
221.476
221.461
221.448
221.437
221.428
221.422
221.417
221.414
221.414
221.414
221.416
221.418
221.421
221.423
221.426
221.428
221.429
221.427
221.422
221.413
221.4
221.381
221.356
221.323
221.281
221.228
221.164
221.086
220.992
220.881
220.751
220.598
220.42
220.214
219.977
219.705
219.396
219.045
218.647
218.199
217.694
217.127
216.495
215.793
215.02
214.161
213.215
212.162
211.035
209.806
208.499
207.095
205.572
203.924
202.182
200.37
198.489
196.597
194.596
192.701
190.754
188.825
186.97
185.111
183.325
181.616
179.978
178.475
177.1
175.956
175
174.26
173.782
172.125
245.5
225.092
224.171
224.157
224.027
223.934
223.844
223.765
223.681
223.581
223.465
223.341
223.222
223.117
223.027
222.955
222.9
222.86
222.83
222.805
222.78
222.749
222.708
222.655
222.592
222.522
222.448
222.373
222.299
222.227
222.16
222.098
222.041
221.989
221.941
221.897
221.856
221.818
221.782
221.75
221.72
221.693
221.669
221.647
221.628
221.612
221.597
221.584
221.574
221.566
221.56
221.557
221.555
221.556
221.56
221.565
221.572
221.581
221.59
221.601
221.612
221.623
221.634
221.644
221.653
221.66
221.663
221.663
221.658
221.648
221.632
221.607
221.574
221.53
221.475
221.405
221.32
221.218
221.097
220.953
220.783
220.586
220.358
220.095
219.794
219.451
219.061
218.621
218.125
217.569
216.947
216.255
215.479
214.618
213.669
212.651
211.532
210.32
208.979
207.537
205.999
204.342
202.625
200.781
198.971
196.991
194.995
193.031
190.997
189.02
187.057
185.116
183.249
181.459
179.738
178.167
176.893
175.893
175.199
174.774
173.141
244.894
224.97
224.242
224.22
224.087
223.986
223.887
223.804
223.721
223.624
223.511
223.387
223.266
223.156
223.063
222.988
222.931
222.888
222.857
222.833
222.809
222.782
222.746
222.699
222.641
222.575
222.504
222.431
222.359
222.289
222.222
222.161
222.105
222.054
222.008
221.966
221.927
221.892
221.859
221.829
221.802
221.779
221.758
221.74
221.725
221.713
221.702
221.694
221.688
221.685
221.684
221.686
221.69
221.697
221.706
221.717
221.731
221.746
221.763
221.781
221.8
221.819
221.839
221.859
221.878
221.895
221.91
221.922
221.931
221.934
221.934
221.926
221.911
221.887
221.853
221.807
221.747
221.672
221.58
221.469
221.336
221.178
220.991
220.775
220.524
220.236
219.905
219.528
219.1
218.615
218.068
217.453
216.762
215.997
215.152
214.227
213.193
212.066
210.827
209.51
208.091
206.554
204.911
203.117
201.234
199.28
197.212
195.215
193.124
191.06
189.053
187.041
185.058
183.139
181.281
179.542
178.021
176.727
175.798
175.204
173.128
244.226
224.842
224.278
224.267
224.143
224.034
223.927
223.84
223.758
223.666
223.556
223.434
223.309
223.195
223.098
223.021
222.961
222.917
222.885
222.86
222.839
222.815
222.783
222.742
222.69
222.628
222.561
222.491
222.42
222.352
222.287
222.227
222.171
222.122
222.077
222.038
222.001
221.968
221.938
221.911
221.888
221.867
221.85
221.836
221.825
221.816
221.81
221.807
221.806
221.807
221.811
221.818
221.828
221.84
221.855
221.872
221.892
221.914
221.937
221.963
221.989
222.017
222.045
222.074
222.103
222.131
222.157
222.181
222.203
222.22
222.234
222.242
222.245
222.239
222.226
222.202
222.166
222.117
222.053
221.972
221.872
221.749
221.602
221.428
221.222
220.983
220.706
220.387
220.021
219.605
219.132
218.598
217.997
217.327
216.58
215.751
214.817
213.795
212.666
211.454
210.127
208.695
207.151
205.5
203.695
201.868
199.913
197.896
195.868
193.734
191.666
189.577
187.528
185.505
183.542
181.722
180.095
178.693
177.605
176.843
174.522
243.497
224.787
224.315
224.315
224.194
224.077
223.962
223.87
223.788
223.7
223.597
223.479
223.353
223.235
223.133
223.053
222.991
222.946
222.913
222.889
222.868
222.847
222.821
222.785
222.739
222.683
222.619
222.552
222.485
222.418
222.355
222.296
222.241
222.193
222.15
222.112
222.078
222.048
222.021
221.997
221.976
221.958
221.945
221.934
221.927
221.922
221.921
221.922
221.925
221.932
221.941
221.953
221.968
221.985
222.006
222.029
222.055
222.083
222.114
222.146
222.18
222.215
222.252
222.29
222.328
222.366
222.403
222.439
222.472
222.503
222.531
222.555
222.573
222.585
222.591
222.588
222.576
222.552
222.514
222.462
222.394
222.306
222.197
222.063
221.903
221.712
221.488
221.227
220.923
220.574
220.172
219.714
219.194
218.61
217.948
217.203
216.362
215.441
214.427
213.326
212.102
210.776
209.322
207.747
206.066
204.227
202.343
200.289
198.3
196.176
194.071
191.898
189.729
187.59
185.443
183.461
181.611
180.019
178.819
178.007
175.673
242.679
224.788
224.345
224.346
224.23
224.109
223.99
223.894
223.813
223.732
223.637
223.523
223.396
223.274
223.168
223.084
223.021
222.975
222.942
222.917
222.898
222.879
222.857
222.827
222.787
222.737
222.678
222.615
222.55
222.486
222.425
222.367
222.314
222.267
222.226
222.189
222.158
222.13
222.106
222.085
222.067
222.053
222.042
222.035
222.032
222.032
222.035
222.04
222.048
222.059
222.073
222.09
222.11
222.133
222.159
222.188
222.22
222.255
222.292
222.332
222.373
222.416
222.461
222.507
222.554
222.602
222.65
222.696
222.742
222.786
222.827
222.865
222.9
222.929
222.952
222.969
222.977
222.977
222.965
222.941
222.901
222.845
222.771
222.675
222.555
222.409
222.232
222.023
221.776
221.488
221.153
220.769
220.328
219.827
219.254
218.609
217.884
217.084
216.186
215.19
214.068
212.845
211.503
210.059
208.493
206.792
204.999
203.022
200.943
198.794
196.57
194.404
192.128
189.959
187.696
185.578
183.556
181.764
180.334
179.277
176.345
241.782
224.804
224.373
224.374
224.266
224.143
224.016
223.912
223.831
223.755
223.669
223.563
223.44
223.315
223.204
223.116
223.05
223.003
222.97
222.945
222.927
222.911
222.893
222.868
222.835
222.791
222.738
222.679
222.618
222.556
222.497
222.442
222.39
222.344
222.304
222.27
222.24
222.215
222.193
222.175
222.161
222.15
222.143
222.14
222.14
222.144
222.151
222.16
222.173
222.189
222.208
222.23
222.255
222.283
222.315
222.35
222.388
222.428
222.472
222.518
222.567
222.617
222.67
222.724
222.78
222.837
222.895
222.952
223.009
223.065
223.119
223.171
223.221
223.266
223.307
223.343
223.371
223.391
223.403
223.405
223.394
223.37
223.328
223.269
223.188
223.085
222.956
222.798
222.606
222.378
222.109
221.794
221.427
221.005
220.519
219.967
219.339
218.634
217.831
216.933
215.928
214.835
213.627
212.313
210.869
209.306
207.602
205.78
203.786
201.76
199.594
197.436
195.162
192.858
190.516
188.18
186.03
184.118
182.598
181.463
178.499
240.79
224.821
224.395
224.397
224.294
224.168
224.035
223.924
223.84
223.77
223.694
223.599
223.483
223.357
223.241
223.148
223.079
223.031
222.997
222.973
222.956
222.943
222.928
222.908
222.881
222.844
222.797
222.743
222.686
222.628
222.571
222.518
222.468
222.424
222.385
222.353
222.325
222.302
222.283
222.268
222.257
222.249
222.246
222.246
222.25
222.258
222.269
222.283
222.3
222.321
222.344
222.371
222.402
222.435
222.472
222.513
222.556
222.603
222.653
222.706
222.761
222.819
222.88
222.942
223.007
223.073
223.14
223.207
223.275
223.343
223.409
223.475
223.538
223.599
223.656
223.709
223.757
223.799
223.832
223.857
223.872
223.876
223.866
223.84
223.796
223.732
223.645
223.532
223.391
223.218
223.009
222.759
222.464
222.118
221.715
221.254
220.725
220.121
219.427
218.647
217.768
216.795
215.703
214.496
213.15
211.684
210.077
208.324
206.433
204.403
202.251
199.947
197.641
195.185
192.821
190.389
188.117
186.013
184.213
182.85
179.254
239.722
224.814
224.411
224.414
224.322
224.197
224.058
223.938
223.848
223.778
223.711
223.629
223.524
223.401
223.281
223.181
223.108
223.057
223.024
223.001
222.985
222.973
222.961
222.946
222.925
222.895
222.855
222.807
222.754
222.699
222.646
222.595
222.548
222.506
222.469
222.438
222.412
222.392
222.375
222.363
222.355
222.351
222.351
222.355
222.362
222.374
222.389
222.407
222.429
222.454
222.482
222.514
222.55
222.589
222.631
222.677
222.726
222.779
222.835
222.894
222.956
223.021
223.089
223.159
223.231
223.306
223.382
223.46
223.538
223.616
223.695
223.773
223.85
223.925
223.997
224.067
224.133
224.194
224.249
224.297
224.336
224.366
224.384
224.391
224.382
224.356
224.31
224.242
224.149
224.029
223.877
223.689
223.46
223.187
222.863
222.487
222.046
221.536
220.946
220.28
219.525
218.678
217.715
216.639
215.432
214.109
212.652
211.069
209.339
207.441
205.468
203.255
201.034
198.612
196.181
193.614
191.201
188.949
186.927
185.331
181.303
238.576
224.779
224.422
224.425
224.342
224.224
224.083
223.952
223.853
223.78
223.719
223.652
223.56
223.444
223.322
223.216
223.137
223.084
223.05
223.027
223.012
223.002
222.993
222.982
222.966
222.943
222.91
222.869
222.821
222.771
222.721
222.673
222.629
222.589
222.554
222.525
222.501
222.483
222.469
222.459
222.454
222.453
222.457
222.464
222.476
222.491
222.51
222.533
222.559
222.588
222.621
222.658
222.699
222.742
222.79
222.841
222.896
222.954
223.017
223.082
223.151
223.222
223.297
223.375
223.455
223.538
223.623
223.71
223.798
223.887
223.976
224.066
224.156
224.245
224.332
224.417
224.5
224.579
224.654
224.722
224.785
224.84
224.885
224.919
224.941
224.949
224.941
224.914
224.866
224.793
224.693
224.562
224.397
224.192
223.944
223.647
223.294
222.879
222.395
221.84
221.196
220.458
219.61
218.655
217.581
216.393
215.065
213.604
211.984
210.208
208.258
206.187
203.915
201.549
199.073
196.471
193.96
191.649
189.573
187.969
184.109
237.393
224.743
224.417
224.422
224.352
224.24
224.103
223.966
223.857
223.779
223.719
223.66
223.585
223.482
223.363
223.253
223.168
223.112
223.076
223.054
223.04
223.031
223.024
223.017
223.005
222.988
222.962
222.928
222.886
222.841
222.795
222.751
222.71
222.672
222.64
222.613
222.591
222.575
222.564
222.557
222.555
222.557
222.564
222.575
222.59
222.609
222.632
222.659
222.689
222.723
222.761
222.802
222.847
222.896
222.949
223.005
223.065
223.129
223.197
223.269
223.343
223.422
223.503
223.588
223.676
223.766
223.86
223.955
224.053
224.151
224.252
224.353
224.454
224.556
224.657
224.757
224.855
224.952
225.044
225.133
225.217
225.294
225.365
225.427
225.479
225.518
225.544
225.556
225.551
225.524
225.474
225.397
225.29
225.148
224.968
224.745
224.472
224.145
223.757
223.302
222.766
222.148
221.434
220.627
219.708
218.671
217.495
216.183
214.708
213.086
211.304
209.358
207.262
204.955
202.438
199.804
197.02
194.443
191.943
189.952
185.306
236.187
224.68
224.385
224.394
224.342
224.244
224.109
223.968
223.852
223.769
223.71
223.657
223.596
223.51
223.4
223.289
223.2
223.139
223.102
223.08
223.067
223.059
223.054
223.049
223.042
223.03
223.011
222.984
222.949
222.909
222.868
222.827
222.789
222.755
222.726
222.701
222.682
222.668
222.659
222.655
222.655
222.661
222.671
222.685
222.704
222.727
222.754
222.785
222.82
222.858
222.9
222.945
222.995
223.049
223.106
223.168
223.233
223.303
223.376
223.453
223.534
223.619
223.707
223.798
223.893
223.992
224.093
224.197
224.303
224.411
224.521
224.633
224.746
224.86
224.973
225.087
225.2
225.312
225.422
225.529
225.632
225.731
225.825
225.912
225.991
226.06
226.118
226.163
226.193
226.208
226.205
226.177
226.125
226.041
225.926
225.773
225.579
225.338
225.043
224.688
224.26
223.759
223.171
222.494
221.706
220.8
219.76
218.589
217.265
215.796
214.155
212.358
210.381
208.213
205.855
203.386
200.686
198.23
195.855
193.843
189.149
234.98
224.632
224.336
224.345
224.306
224.226
224.104
223.965
223.844
223.752
223.692
223.646
223.596
223.527
223.43
223.322
223.23
223.166
223.128
223.106
223.094
223.088
223.085
223.081
223.076
223.069
223.056
223.036
223.008
222.974
222.938
222.902
222.868
222.837
222.81
222.789
222.772
222.761
222.754
222.752
222.756
222.764
222.777
222.795
222.818
222.845
222.876
222.911
222.949
222.992
223.038
223.088
223.142
223.2
223.263
223.329
223.399
223.474
223.553
223.635
223.722
223.812
223.907
224.005
224.106
224.212
224.32
224.432
224.547
224.664
224.783
224.905
225.028
225.153
225.279
225.405
225.532
225.658
225.784
225.908
226.03
226.148
226.263
226.373
226.477
226.574
226.662
226.74
226.806
226.857
226.893
226.911
226.912
226.883
226.828
226.738
226.614
226.449
226.236
225.97
225.64
225.246
224.773
224.216
223.556
222.789
221.901
220.889
219.733
218.432
216.949
215.295
213.441
211.406
209.183
206.729
204.038
201.204
198.514
196.252
191.354
233.787
224.549
224.276
224.278
224.246
224.185
224.085
223.959
223.837
223.74
223.674
223.63
223.589
223.531
223.449
223.349
223.256
223.19
223.151
223.131
223.12
223.116
223.115
223.113
223.11
223.105
223.097
223.084
223.063
223.036
223.005
222.974
222.944
222.917
222.893
222.875
222.861
222.852
222.848
222.849
222.855
222.867
222.883
222.904
222.93
222.961
222.996
223.035
223.077
223.124
223.174
223.228
223.287
223.35
223.416
223.487
223.563
223.642
223.726
223.814
223.906
224.002
224.103
224.207
224.315
224.427
224.542
224.662
224.784
224.91
225.038
225.168
225.302
225.437
225.574
225.712
225.851
225.992
226.132
226.271
226.41
226.546
226.681
226.812
226.939
227.06
227.174
227.281
227.379
227.465
227.54
227.597
227.639
227.66
227.663
227.633
227.576
227.481
227.347
227.167
226.934
226.645
226.285
225.85
225.325
224.707
223.981
223.138
222.157
221.03
219.729
218.264
216.602
214.757
212.713
210.442
208.05
205.369
202.591
200.158
194.918
232.61
224.472
224.221
224.198
224.164
224.119
224.045
223.939
223.823
223.724
223.653
223.607
223.571
223.525
223.455
223.365
223.277
223.211
223.172
223.153
223.145
223.144
223.146
223.146
223.144
223.141
223.137
223.128
223.114
223.093
223.069
223.043
223.017
222.994
222.974
222.959
222.948
222.942
222.941
222.945
222.954
222.968
222.987
223.011
223.041
223.075
223.114
223.157
223.204
223.254
223.308
223.367
223.429
223.496
223.567
223.643
223.723
223.807
223.896
223.989
224.086
224.188
224.293
224.403
224.517
224.636
224.758
224.884
225.014
225.147
225.283
225.422
225.565
225.709
225.857
226.006
226.157
226.309
226.463
226.616
226.77
226.923
227.075
227.226
227.373
227.517
227.656
227.79
227.916
228.035
228.143
228.24
228.323
228.389
228.436
228.461
228.465
228.436
228.374
228.272
228.126
227.93
227.672
227.348
226.945
226.458
225.869
225.167
224.334
223.361
222.225
220.927
219.436
217.753
215.828
213.681
211.32
208.816
206.081
203.814
199.148
231.478
224.397
224.156
224.102
224.062
224.026
223.976
223.898
223.801
223.707
223.634
223.586
223.552
223.514
223.456
223.376
223.292
223.228
223.189
223.172
223.168
223.17
223.177
223.178
223.178
223.177
223.174
223.17
223.161
223.147
223.128
223.108
223.087
223.067
223.051
223.039
223.032
223.029
223.031
223.038
223.05
223.067
223.089
223.116
223.149
223.187
223.23
223.276
223.327
223.381
223.44
223.502
223.568
223.64
223.715
223.795
223.879
223.967
224.061
224.159
224.261
224.368
224.479
224.594
224.714
224.838
224.966
225.099
225.235
225.376
225.52
225.667
225.817
225.971
226.128
226.287
226.449
226.612
226.778
226.945
227.113
227.281
227.449
227.617
227.783
227.947
228.108
228.266
228.418
228.564
228.703
228.833
228.953
229.06
229.152
229.226
229.279
229.309
229.316
229.286
229.22
229.109
228.946
228.727
228.439
228.078
227.626
227.074
226.407
225.612
224.672
223.576
222.289
220.807
219.095
217.167
214.982
212.55
209.956
207.288
202.357
230.391
224.333
224.09
224.007
223.953
223.918
223.885
223.837
223.767
223.685
223.613
223.561
223.525
223.492
223.445
223.376
223.299
223.238
223.202
223.188
223.188
223.196
223.207
223.211
223.212
223.212
223.212
223.21
223.205
223.196
223.184
223.169
223.153
223.138
223.125
223.117
223.113
223.113
223.119
223.129
223.144
223.164
223.189
223.219
223.255
223.296
223.342
223.393
223.447
223.506
223.568
223.634
223.704
223.779
223.859
223.943
224.031
224.124
224.221
224.324
224.431
224.542
224.658
224.779
224.904
225.033
225.167
225.306
225.449
225.596
225.746
225.901
226.059
226.221
226.386
226.555
226.726
226.9
227.076
227.255
227.435
227.617
227.8
227.983
228.166
228.349
228.53
228.708
228.884
229.056
229.223
229.383
229.535
229.679
229.81
229.928
230.031
230.112
230.173
230.207
230.215
230.184
230.111
229.989
229.81
229.567
229.244
228.835
228.321
227.693
226.93
226.016
224.922
223.643
222.147
220.438
218.47
216.323
213.909
211.49
207.07
229.345
224.262
224.035
223.934
223.859
223.813
223.782
223.751
223.707
223.647
223.586
223.537
223.502
223.471
223.431
223.371
223.301
223.244
223.213
223.202
223.204
223.22
223.236
223.243
223.246
223.247
223.248
223.248
223.247
223.243
223.235
223.226
223.214
223.204
223.195
223.19
223.19
223.194
223.203
223.217
223.235
223.257
223.286
223.319
223.358
223.403
223.452
223.506
223.565
223.627
223.693
223.762
223.837
223.915
223.998
224.086
224.178
224.275
224.377
224.484
224.595
224.711
224.832
224.957
225.087
225.222
225.361
225.505
225.654
225.807
225.964
226.125
226.29
226.459
226.633
226.809
226.989
227.173
227.359
227.548
227.74
227.934
228.13
228.327
228.525
228.724
228.922
229.12
229.317
229.511
229.702
229.889
230.07
230.245
230.412
230.569
230.713
230.843
230.956
231.047
231.114
231.153
231.163
231.129
231.047
230.908
230.701
230.421
230.048
229.573
228.974
228.236
227.335
226.26
224.975
223.461
221.677
219.667
217.317
214.877
210.805
228.334
224.132
223.99
223.877
223.774
223.709
223.674
223.654
223.632
223.596
223.549
223.505
223.473
223.446
223.413
223.363
223.301
223.248
223.22
223.213
223.218
223.241
223.263
223.274
223.279
223.282
223.283
223.285
223.287
223.286
223.284
223.279
223.273
223.266
223.262
223.26
223.263
223.272
223.284
223.301
223.322
223.348
223.379
223.416
223.458
223.506
223.559
223.616
223.678
223.744
223.814
223.887
223.965
224.047
224.134
224.225
224.321
224.422
224.527
224.638
224.754
224.874
224.999
225.128
225.263
225.402
225.547
225.696
225.85
226.008
226.171
226.338
226.51
226.686
226.866
227.051
227.238
227.43
227.625
227.824
228.026
228.231
228.438
228.648
228.859
229.072
229.286
229.501
229.715
229.929
230.142
230.352
230.559
230.763
230.96
231.151
231.332
231.503
231.662
231.804
231.929
232.03
232.104
232.147
232.156
232.116
232.021
231.863
231.628
231.304
230.875
230.323
229.625
228.761
227.696
226.409
224.884
223.108
221.068
218.748
215.196
227.404
223.926
223.921
223.831
223.718
223.63
223.576
223.549
223.536
223.52
223.495
223.465
223.439
223.418
223.393
223.352
223.297
223.248
223.224
223.219
223.229
223.259
223.286
223.302
223.31
223.314
223.317
223.32
223.324
223.327
223.329
223.328
223.327
223.325
223.324
223.326
223.333
223.345
223.361
223.381
223.406
223.436
223.47
223.51
223.555
223.606
223.662
223.723
223.788
223.858
223.931
224.008
224.089
224.174
224.265
224.36
224.459
224.563
224.673
224.787
224.906
225.03
225.159
225.293
225.432
225.576
225.725
225.878
226.037
226.201
226.369
226.542
226.719
226.901
227.088
227.279
227.474
227.673
227.876
228.083
228.294
228.509
228.726
228.947
229.17
229.396
229.623
229.853
230.083
230.314
230.546
230.776
231.006
231.233
231.457
231.677
231.891
232.098
232.296
232.483
232.656
232.813
232.95
233.059
233.141
233.187
233.197
233.148
233.038
232.848
232.569
232.18
231.658
230.986
230.13
229.072
227.777
226.203
224.373
222.155
219.002
226.627
223.703
223.804
223.777
223.669
223.563
223.487
223.449
223.435
223.428
223.421
223.408
223.395
223.383
223.366
223.336
223.29
223.247
223.226
223.224
223.239
223.274
223.306
223.326
223.337
223.343
223.348
223.353
223.36
223.366
223.371
223.375
223.377
223.38
223.383
223.389
223.399
223.414
223.434
223.458
223.486
223.519
223.557
223.6
223.648
223.702
223.762
223.826
223.895
223.967
224.044
224.124
224.209
224.298
224.391
224.489
224.592
224.7
224.813
224.93
225.053
225.181
225.314
225.451
225.594
225.742
225.895
226.053
226.216
226.384
226.557
226.735
226.918
227.105
227.297
227.494
227.696
227.902
228.112
228.327
228.545
228.768
228.995
229.225
229.458
229.695
229.934
230.177
230.421
230.667
230.914
231.162
231.411
231.659
231.907
232.152
232.394
232.632
232.863
233.088
233.304
233.507
233.696
233.868
234.018
234.137
234.226
234.273
234.278
234.212
234.076
233.843
233.502
233.025
232.382
231.548
230.472
229.132
227.545
225.564
222.766
226
223.462
223.641
223.685
223.62
223.508
223.413
223.358
223.337
223.333
223.337
223.34
223.34
223.339
223.333
223.314
223.279
223.244
223.226
223.227
223.246
223.284
223.32
223.344
223.359
223.368
223.375
223.383
223.392
223.401
223.41
223.417
223.424
223.431
223.438
223.448
223.462
223.48
223.504
223.531
223.563
223.6
223.641
223.687
223.738
223.796
223.858
223.926
223.997
224.073
224.153
224.236
224.324
224.416
224.513
224.614
224.72
224.831
224.947
225.068
225.194
225.326
225.462
225.603
225.749
225.901
226.058
226.219
226.387
226.559
226.736
226.919
227.106
227.298
227.495
227.698
227.905
228.116
228.333
228.554
228.78
229.01
229.244
229.483
229.725
229.971
230.221
230.474
230.73
230.989
231.251
231.514
231.779
232.045
232.312
232.578
232.844
233.108
233.368
233.625
233.876
234.12
234.354
234.576
234.783
234.97
235.134
235.263
235.357
235.406
235.409
235.32
235.155
234.866
234.446
233.855
233.032
231.948
230.56
228.769
226.229
225.483
223.217
223.446
223.567
223.552
223.461
223.356
223.286
223.253
223.243
223.25
223.262
223.275
223.287
223.292
223.286
223.266
223.241
223.227
223.23
223.253
223.294
223.332
223.359
223.376
223.389
223.399
223.409
223.421
223.434
223.446
223.457
223.468
223.479
223.49
223.503
223.521
223.543
223.57
223.601
223.636
223.676
223.721
223.77
223.825
223.885
223.951
224.022
224.096
224.175
224.258
224.345
224.435
224.531
224.63
224.735
224.844
224.958
225.077
225.201
225.33
225.464
225.604
225.748
225.898
226.053
226.213
226.379
226.549
226.725
226.907
227.093
227.284
227.481
227.683
227.89
228.102
228.319
228.541
228.768
229
229.236
229.477
229.723
229.973
230.227
230.486
230.748
231.015
231.284
231.557
231.833
232.112
232.393
232.677
232.961
233.247
233.532
233.817
234.101
234.382
234.659
234.931
235.196
235.45
235.692
235.917
236.122
236.301
236.441
236.542
236.589
236.577
236.446
236.214
235.826
235.24
234.427
233.283
231.756
229.477
225.045
222.965
223.23
223.433
223.467
223.412
223.308
223.226
223.181
223.165
223.167
223.179
223.201
223.227
223.246
223.255
223.251
223.238
223.231
223.237
223.262
223.302
223.341
223.37
223.39
223.406
223.419
223.433
223.448
223.464
223.479
223.494
223.509
223.523
223.538
223.555
223.577
223.602
223.633
223.667
223.706
223.75
223.798
223.85
223.908
223.972
224.041
224.114
224.192
224.274
224.359
224.449
224.542
224.641
224.743
224.851
224.963
225.079
225.201
225.328
225.46
225.597
225.74
225.887
226.04
226.198
226.361
226.53
226.704
226.884
227.068
227.258
227.454
227.654
227.86
228.071
228.288
228.509
228.736
228.968
229.205
229.447
229.694
229.946
230.202
230.464
230.73
231
231.275
231.554
231.837
232.124
232.414
232.708
233.005
233.305
233.607
233.91
234.215
234.521
234.827
235.132
235.435
235.734
236.028
236.316
236.592
236.857
237.104
237.327
237.522
237.672
237.779
237.818
237.78
237.615
237.303
236.779
235.889
234.668
232.603
224.666
222.729
222.995
223.283
223.37
223.347
223.259
223.175
223.122
223.095
223.087
223.097
223.123
223.162
223.199
223.224
223.236
223.236
223.238
223.248
223.273
223.31
223.348
223.379
223.402
223.42
223.436
223.453
223.472
223.491
223.51
223.528
223.547
223.565
223.583
223.604
223.629
223.659
223.693
223.731
223.773
223.82
223.871
223.927
223.989
224.055
224.127
224.203
224.284
224.369
224.457
224.549
224.646
224.747
224.852
224.962
225.077
225.196
225.321
225.45
225.585
225.725
225.871
226.021
226.176
226.337
226.504
226.675
226.852
227.035
227.223
227.416
227.615
227.819
228.028
228.243
228.463
228.689
228.92
229.156
229.398
229.645
229.897
230.154
230.416
230.684
230.956
231.234
231.516
231.803
232.095
232.39
232.69
232.995
233.303
233.615
233.931
234.25
234.571
234.895
235.221
235.549
235.877
236.205
236.531
236.855
237.174
237.487
237.789
238.079
238.35
238.599
238.814
238.977
239.079
239.101
239.021
238.765
238.178
237.367
235.611
224.325
222.515
222.751
223.11
223.256
223.26
223.209
223.133
223.077
223.039
223.02
223.019
223.042
223.093
223.15
223.195
223.223
223.236
223.248
223.262
223.285
223.319
223.356
223.387
223.411
223.432
223.451
223.471
223.493
223.515
223.537
223.559
223.581
223.603
223.625
223.65
223.679
223.712
223.75
223.791
223.837
223.887
223.942
224.001
224.066
224.135
224.21
224.289
224.373
224.46
224.551
224.646
224.745
224.848
224.957
225.069
225.187
225.309
225.436
225.568
225.705
225.848
225.996
226.149
226.307
226.47
226.639
226.814
226.994
227.179
227.37
227.566
227.768
227.975
228.188
228.406
228.63
228.859
229.093
229.334
229.58
229.831
230.088
230.35
230.617
230.89
231.168
231.452
231.74
232.034
232.333
232.636
232.945
233.258
233.576
233.899
234.226
234.557
234.892
235.231
235.574
235.92
236.268
236.619
236.971
237.324
237.677
238.028
238.375
238.717
239.048
239.369
239.668
239.941
240.164
240.329
240.444
240.474
240.222
239.829
238.613
224.002
222.326
222.511
222.912
223.122
223.174
223.154
223.098
223.042
222.995
222.962
222.949
222.967
223.023
223.101
223.168
223.215
223.239
223.259
223.277
223.298
223.329
223.363
223.394
223.42
223.442
223.464
223.487
223.512
223.537
223.562
223.588
223.613
223.638
223.665
223.694
223.726
223.763
223.804
223.849
223.898
223.952
224.009
224.072
224.14
224.213
224.29
224.372
224.458
224.548
224.642
224.739
224.84
224.947
225.057
225.172
225.292
225.417
225.546
225.681
225.82
225.966
226.116
226.271
226.432
226.598
226.769
226.946
227.129
227.317
227.51
227.709
227.914
228.124
228.34
228.561
228.788
229.02
229.259
229.502
229.752
230.007
230.268
230.534
230.806
231.084
231.367
231.656
231.95
232.25
232.555
232.865
233.181
233.502
233.828
234.16
234.496
234.838
235.185
235.536
235.892
236.253
236.618
236.987
237.36
237.737
238.116
238.496
238.878
239.26
239.639
240.013
240.38
240.735
241.063
241.36
241.606
241.817
241.923
241.81
241.32
223.677
222.161
222.292
222.7
222.983
223.088
223.098
223.068
223.016
222.962
222.913
222.888
222.899
222.956
223.052
223.145
223.209
223.244
223.269
223.289
223.31
223.338
223.37
223.401
223.427
223.451
223.475
223.501
223.528
223.556
223.585
223.614
223.643
223.672
223.702
223.735
223.771
223.812
223.856
223.904
223.957
224.013
224.074
224.14
224.211
224.287
224.367
224.452
224.54
224.633
224.728
224.828
224.932
225.041
225.154
225.271
225.393
225.52
225.652
225.789
225.931
226.078
226.231
226.389
226.552
226.72
226.894
227.073
227.258
227.449
227.645
227.846
228.054
228.266
228.485
228.709
228.939
229.175
229.416
229.663
229.916
230.175
230.44
230.71
230.986
231.268
231.556
231.849
232.149
232.454
232.765
233.081
233.403
233.731
234.064
234.404
234.749
235.099
235.456
235.817
236.185
236.558
236.937
237.321
237.71
238.104
238.504
238.907
239.315
239.726
240.14
240.554
240.968
241.378
241.778
242.164
242.523
242.863
243.174
243.34
243.417
223.337
222.018
222.104
222.493
222.842
223.002
223.047
223.037
222.994
222.933
222.869
222.835
222.839
222.893
223.006
223.123
223.203
223.249
223.278
223.3
223.32
223.346
223.376
223.406
223.433
223.459
223.485
223.513
223.543
223.574
223.606
223.638
223.67
223.703
223.737
223.774
223.814
223.858
223.906
223.957
224.013
224.073
224.137
224.206
224.279
224.358
224.441
224.528
224.619
224.714
224.812
224.914
225.02
225.131
225.246
225.366
225.49
225.619
225.753
225.892
226.037
226.186
226.341
226.501
226.666
226.837
227.013
227.195
227.382
227.575
227.773
227.977
228.187
228.402
228.623
228.85
229.083
229.321
229.566
229.816
230.072
230.335
230.603
230.877
231.157
231.443
231.734
232.032
232.336
232.646
232.962
233.284
233.611
233.945
234.285
234.631
234.983
235.342
235.706
236.077
236.453
236.837
237.226
237.622
238.023
238.432
238.846
239.266
239.692
240.123
240.56
240.999
241.444
241.888
242.33
242.765
243.185
243.602
243.989
244.292
244.595
222.979
221.887
221.942
222.299
222.699
222.918
222.996
223.002
222.971
222.904
222.829
222.788
222.788
222.84
222.966
223.102
223.196
223.25
223.283
223.306
223.327
223.352
223.381
223.411
223.438
223.466
223.494
223.524
223.557
223.591
223.626
223.661
223.696
223.733
223.771
223.811
223.855
223.902
223.953
224.008
224.066
224.129
224.196
224.268
224.345
224.426
224.512
224.602
224.695
224.791
224.891
224.996
225.104
225.217
225.334