/*--------------------------------*- C++ -*----------------------------------*\
| =========                 |                                                 |
| \\      /  F ield         | OpenFOAM: The Open Source CFD Toolbox           |
|  \\    /   O peration     | Version:  2406                                  |
|   \\  /    A nd           | Website:  www.openfoam.com                      |
|    \\/     M anipulation  |                                                 |
\*---------------------------------------------------------------------------*/
FoamFile
{
    version     2.0;
    format      ascii;
    arch        "LSB;label=32;scalar=64";
    class       volScalarField;
    location    "0.037";
    object      p;
}
// * * * * * * * * * * * * * * * * * * * * * * * * * * * * * * * * * * * * * //

dimensions      [1 -1 -2 0 0 0 0];

internalField   nonuniform List<scalar> 
78650
(
3221.54
2911.01
2890.28
2882.14
2874.03
2864.32
2853.96
2845.46
2841.27
2841.08
2843.99
2847.6
2849.05
2848.12
2843.56
2835.48
2826.21
2817.31
2808.98
2801.01
2793.28
2785.85
2778.83
2772.32
2766.34
2760.9
2755.97
2751.52
2747.5
2743.85
2740.53
2737.47
2734.6
2731.87
2729.29
2726.84
2724.52
2722.29
2720.11
2717.95
2715.82
2713.72
2711.65
2709.61
2707.57
2705.51
2703.39
2701.17
2698.83
2696.34
2693.69
2690.85
2687.78
2684.44
2680.79
2676.79
2672.38
2667.52
2662.14
2656.18
2649.61
2642.35
2634.35
2625.54
2615.83
2605.12
2593.35
2580.42
2566.31
2550.97
2534.28
2516.14
2496.47
2475.19
2452.29
2427.66
2401.21
2373.1
2343.46
2312.14
2278.98
2243.84
2206.82
2168.38
2128.6
2087.2
2044.65
2000.66
1956
1910.16
1865.33
1820.4
1776.47
1731.48
1687.43
1644.96
1603.99
1564.41
1526.38
1490.33
1455.36
1422.04
1390.44
1361.13
1334.95
1309.96
1286.29
1263.39
1242.36
1222.94
1205.11
1188.49
1173.12
1158.51
1144.13
1130.74
1118.26
1107.74
1098.75
1091.65
1076.6
3182.71
2901.84
2888.48
2882.36
2876.71
2869.39
2860.47
2851.46
2844.95
2842.41
2843.51
2846.45
2848.42
2848.19
2845.05
2838.17
2829.2
2820.12
2811.63
2803.68
2796.12
2788.84
2781.91
2775.4
2769.4
2763.94
2759.04
2754.65
2750.77
2747.31
2744.24
2741.48
2738.96
2736.62
2734.42
2732.37
2730.44
2728.6
2726.82
2725.05
2723.3
2721.57
2719.88
2718.21
2716.55
2714.89
2713.19
2711.41
2709.54
2707.54
2705.4
2703.11
2700.62
2697.9
2694.92
2691.62
2687.98
2683.93
2679.42
2674.41
2668.82
2662.63
2655.77
2648.18
2639.76
2630.44
2620.15
2608.81
2596.36
2582.7
2567.75
2551.47
2533.84
2514.75
2494.09
2471.72
2447.58
2421.73
2394.13
2364.55
2332.96
2299.43
2264.21
2227.7
2189.76
2150.54
2109.84
2067.63
2024.15
1980.18
1935.79
1890.79
1845.98
1801.7
1757.12
1713.74
1670.86
1630.06
1590.48
1553.67
1518.15
1483.85
1450.44
1417.46
1386.59
1356.82
1329.37
1303.91
1280.51
1258.31
1237.28
1217.85
1200.15
1184.02
1169.08
1154.85
1141.36
1128.26
1116.27
1105.63
1086.45
3138.87
2884.56
2883.79
2880.86
2876.89
2871.46
2864.41
2856.34
2848.82
2844.27
2843.44
2844.88
2846.94
2847.52
2845.49
2840.09
2831.92
2822.86
2814.18
2806.18
2798.78
2791.73
2785.02
2778.65
2772.72
2767.3
2762.42
2758.08
2754.27
2750.94
2748.06
2745.54
2743.31
2741.3
2739.46
2737.78
2736.24
2734.79
2733.41
2732.05
2730.69
2729.35
2728.05
2726.77
2725.52
2724.27
2723
2721.68
2720.27
2718.77
2717.15
2715.4
2713.49
2711.39
2709.06
2706.46
2703.56
2700.31
2696.65
2692.54
2687.92
2682.74
2676.97
2670.53
2663.34
2655.33
2646.43
2636.54
2625.62
2613.58
2600.35
2585.93
2570.22
2553.06
2534.36
2514
2491.95
2468.25
2442.82
2415.48
2386.29
2355.4
2323.05
2289.37
2253.94
2216.74
2177.61
2137.05
2095.28
2052.25
2008.18
1963.94
1918.23
1873.61
1827.51
1782.58
1737.13
1692.64
1649.03
1607.19
1567.36
1529.28
1494.53
1461.58
1430.26
1399.3
1369.94
1342.19
1316.39
1291.04
1266.83
1244.18
1223.53
1204.9
1187.88
1172.49
1158.26
1145.04
1132.92
1122.62
1102.33
3095.11
2858.79
2868.26
2872.87
2873.71
2870.89
2865.6
2858.82
2851.48
2845.69
2843.12
2843.02
2844.48
2845.58
2844.75
2840.91
2834.11
2825.55
2816.8
2808.67
2801.35
2794.55
2788.13
2782.01
2776.27
2770.97
2766.18
2761.9
2758.15
2754.91
2752.15
2749.81
2747.8
2746.05
2744.52
2743.17
2741.98
2740.92
2739.93
2738.96
2738
2737.06
2736.15
2735.27
2734.42
2733.58
2732.74
2731.86
2730.92
2729.9
2728.79
2727.58
2726.23
2724.73
2723.04
2721.13
2718.94
2716.46
2713.63
2710.4
2706.71
2702.54
2697.82
2692.52
2686.55
2679.84
2672.32
2663.91
2654.55
2644.18
2632.7
2620.08
2606.22
2591
2574.36
2556.21
2536.52
2515.24
2492.2
2467.27
2440.61
2412.32
2382.42
2350.67
2316.71
2280.81
2243.04
2204.08
2163.66
2121.98
2078.98
2035.55
1990.83
1946.05
1901.24
1856.41
1812.42
1768.42
1724.98
1681.11
1638.57
1596.06
1555.9
1518
1481.91
1448.32
1417.4
1388.26
1360.92
1334.33
1309.45
1285.5
1262.84
1240.59
1219.63
1200.38
1182.79
1166.28
1151.16
1137.73
1111.07
3056.9
2825.83
2841.85
2857.03
2864.67
2866.11
2863.7
2858.5
2852.08
2846.19
2842.31
2840.86
2841.45
2842.49
2842.62
2840.48
2835.21
2827.86
2819.49
2811.29
2803.9
2797.28
2791.16
2785.38
2779.93
2774.87
2770.25
2766.1
2762.44
2759.29
2756.63
2754.43
2752.6
2751.06
2749.79
2748.73
2747.86
2747.14
2746.53
2745.95
2745.38
2744.83
2744.32
2743.84
2743.4
2742.98
2742.58
2742.15
2741.68
2741.15
2740.55
2739.87
2739.09
2738.19
2737.13
2735.88
2734.41
2732.68
2730.65
2728.28
2725.5
2722.29
2718.6
2714.38
2709.57
2704.09
2697.88
2690.86
2682.97
2674.14
2664.28
2653.36
2641.3
2628.01
2613.44
2597.48
2580.01
2560.94
2540.11
2517.53
2493.35
2467.56
2439.96
2410.28
2378.44
2344.81
2309.59
2273.14
2235.04
2195.65
2154.82
2112.26
2068.95
2023.52
1978.4
1931.84
1885.99
1840.38
1796.33
1752.24
1709.77
1667.04
1625.48
1584.39
1543.46
1505.47
1469.59
1435.62
1403.75
1374.11
1347.63
1323.12
1300.3
1278.44
1257.94
1238.55
1220.31
1202.39
1185.67
1170.33
1139.37
3037.74
2802.33
2813.37
2829.92
2844.1
2852.21
2854.88
2853.68
2850.41
2845.65
2841.01
2838.47
2837.96
2838.43
2838.97
2838.47
2835.18
2829.38
2822.08
2814.19
2806.71
2800.1
2794.18
2788.75
2783.65
2778.92
2774.55
2770.61
2767.12
2764.1
2761.55
2759.46
2757.77
2756.42
2755.36
2754.54
2753.94
2753.53
2753.25
2753.03
2752.84
2752.68
2752.54
2752.46
2752.42
2752.42
2752.44
2752.46
2752.45
2752.41
2752.31
2752.15
2751.92
2751.6
2751.15
2750.56
2749.77
2748.77
2747.53
2745.98
2744.09
2741.82
2739.13
2735.97
2732.3
2728.04
2723.13
2717.49
2711.07
2703.79
2695.59
2686.43
2676.21
2664.85
2652.29
2638.39
2623.03
2606.16
2587.69
2567.67
2546.15
2522.88
2497.61
2470.29
2441.08
2410.32
2378.04
2344.18
2308.26
2270.74
2231.28
2190.55
2148.34
2104.63
2060.22
2014.36
1968.36
1921.66
1875.55
1829.26
1784.32
1740.35
1696.97
1655.98
1614.69
1575.69
1536.63
1498.15
1461
1425.56
1393.28
1362.51
1333.3
1306.42
1282.14
1260.63
1241.23
1223.64
1208.22
1195.57
1169.7
3033.26
2798.71
2795.88
2802.26
2813.54
2825.49
2835.36
2841.15
2843.09
2841.64
2838.35
2835.78
2834.23
2833.67
2834.02
2834.46
2833.37
2829.64
2823.92
2817.05
2809.82
2803.16
2797.28
2792.09
2787.34
2782.98
2778.94
2775.29
2772.04
2769.24
2766.85
2764.91
2763.37
2762.19
2761.32
2760.71
2760.35
2760.21
2760.24
2760.36
2760.52
2760.71
2760.95
2761.25
2761.61
2762.02
2762.46
2762.92
2763.38
2763.82
2764.22
2764.59
2764.9
2765.14
2765.3
2765.35
2765.24
2764.95
2764.47
2763.74
2762.7
2761.35
2759.62
2757.47
2754.88
2751.77
2748.09
2743.75
2738.71
2732.9
2726.24
2718.71
2710.19
2700.63
2689.97
2678.09
2664.91
2650.38
2634.39
2616.88
2597.77
2576.79
2553.92
2529.26
2502.99
2475.13
2445.46
2413.72
2379.74
2343.97
2306.13
2267.03
2226.31
2184.36
2140.93
2096.41
2051.16
2005.02
1959.09
1911.9
1865.02
1819.33
1773.43
1729.33
1687.1
1646.36
1606.9
1568.6
1532.65
1497.55
1464.25
1430.34
1397.36
1365.25
1335.47
1307.49
1280.94
1255.54
1232.47
1212.74
1175.78
3035.26
2800.86
2791.83
2790.48
2792.56
2798.27
2807.04
2816.72
2824.93
2829.83
2831.48
2830.91
2829.38
2828.31
2828.17
2828.8
2829.3
2828.03
2824.33
2819.04
2812.93
2806.56
2800.7
2795.59
2791.1
2787.04
2783.33
2780.02
2777.08
2774.57
2772.43
2770.69
2769.33
2768.34
2767.66
2767.24
2767.1
2767.2
2767.51
2767.92
2768.39
2768.92
2769.51
2770.17
2770.9
2771.7
2772.55
2773.44
2774.34
2775.24
2776.13
2777
2777.85
2778.65
2779.39
2780.04
2780.59
2781
2781.24
2781.3
2781.09
2780.62
2779.84
2778.69
2777.15
2775.17
2772.69
2769.64
2765.98
2761.62
2756.52
2750.61
2743.83
2736.1
2727.37
2717.53
2706.49
2694.16
2680.4
2665.15
2648.34
2629.85
2609.76
2588.12
2564.89
2539.84
2512.68
2483.29
2451.83
2418.67
2383.64
2347.14
2308.73
2269
2227.54
2184.59
2140.37
2094.99
2048.86
2001.62
1953.71
1906.08
1858.31
1810.85
1765.03
1717.94
1673.48
1630.54
1590.87
1553.26
1517.88
1483.91
1452.57
1422.66
1394.87
1368.41
1343.45
1319.28
1296.24
1274.6
1233.58
3036.12
2804.92
2793.14
2789.42
2788.25
2787.62
2788.44
2792.99
2800.8
2809.6
2816.4
2820.02
2821.25
2821.3
2821.24
2821.78
2823.09
2823.91
2822.64
2819.42
2814.95
2809.73
2804.28
2799.31
2794.98
2791.11
2787.65
2784.63
2782.04
2779.88
2778.09
2776.63
2775.53
2774.78
2774.33
2774.13
2774.2
2774.56
2775.1
2775.78
2776.56
2777.41
2778.32
2779.32
2780.4
2781.57
2782.82
2784.12
2785.46
2786.81
2788.18
2789.55
2790.91
2792.25
2793.57
2794.83
2796.02
2797.1
2798.05
2798.84
2799.45
2799.81
2799.94
2799.75
2799.22
2798.32
2796.97
2795.14
2792.75
2789.75
2786.09
2781.71
2776.54
2770.53
2763.61
2755.67
2746.64
2736.44
2724.96
2712.17
2697.97
2682.26
2665.06
2646.28
2625.69
2603.07
2578.31
2551.57
2523.07
2492.92
2460.89
2427.19
2391.52
2354.24
2314.84
2274.04
2231.64
2187.95
2143.12
2097.49
2050.46
2003.08
1956.09
1908.57
1862.61
1814.65
1768.23
1721.48
1675.9
1630.74
1586.41
1544.51
1505.31
1469.35
1435.28
1403.2
1373.76
1347.97
1325.8
1307.42
1267.15
3034.36
2810.72
2797.24
2791.31
2789.09
2787.19
2785.1
2783.74
2784.76
2789.07
2796.01
2803.12
2808.4
2811.01
2811.97
2812.75
2814.54
2816.92
2818.31
2817.75
2815.36
2811.51
2807.27
2803.01
2799.06
2795.37
2792.11
2789.27
2786.94
2785.07
2783.64
2782.53
2781.76
2781.33
2781.18
2781.24
2781.58
2782.14
2782.93
2783.89
2784.96
2786.1
2787.31
2788.62
2790.03
2791.55
2793.16
2794.85
2796.59
2798.38
2800.2
2802.04
2803.89
2805.76
2807.62
2809.46
2811.26
2812.98
2814.62
2816.15
2817.52
2818.7
2819.67
2820.39
2820.84
2820.99
2820.76
2820.12
2819.01
2817.35
2815.12
2812.26
2808.69
2804.38
2799.25
2793.21
2786.2
2778.14
2768.91
2758.43
2746.6
2733.32
2718.6
2702.29
2684.2
2664.29
2642.6
2619.28
2594.35
2567.6
2538.75
2507.88
2474.8
2439.77
2402.5
2363.62
2322.85
2280.72
2237
2191.75
2145.6
2098.09
2051
2003.04
1955.18
1907.59
1861.24
1816.14
1771.21
1726.67
1683.22
1641.3
1600.07
1559.65
1520.37
1481.5
1443.95
1408.23
1375.66
1347.53
1294.41
3030.08
2817.41
2803.47
2796.07
2792.65
2789.5
2786.21
2783.18
2781.25
2780.83
2782.36
2786.35
2791.47
2795.9
2798.75
2800.64
2803.02
2806.56
2810.6
2813.11
2813.25
2811.46
2808.51
2805.48
2802.48
2799.43
2796.62
2794.03
2791.89
2790.2
2789.03
2788.25
2787.84
2787.78
2788.03
2788.44
2789.05
2789.9
2790.97
2792.21
2793.56
2795
2796.51
2798.12
2799.84
2801.68
2803.64
2805.69
2807.83
2810.04
2812.29
2814.58
2816.92
2819.29
2821.68
2824.08
2826.46
2828.82
2831.11
2833.33
2835.44
2837.41
2839.22
2840.82
2842.19
2843.29
2844.1
2844.55
2844.66
2844.25
2843.38
2841.94
2839.83
2837.12
2833.66
2829.4
2824.3
2818.24
2811.12
2802.89
2793.44
2782.7
2770.65
2757.11
2741.98
2725.25
2706.91
2686.91
2665.08
2641.15
2614.98
2586.71
2556.31
2524
2489.63
2453.54
2415.37
2375.62
2333.97
2290.92
2246.29
2200.46
2153.24
2104.76
2054.94
2006.06
1956.38
1907.74
1858.03
1810.7
1764.89
1721.33
1678.98
1637.77
1598.81
1561.29
1526.81
1493.71
1462.52
1434.08
1380.92
3022.52
2823.98
2809.96
2801.61
2797.52
2793.99
2789.89
2785.45
2781.91
2779.94
2779.44
2779.9
2781.08
2783
2785.21
2786.91
2789.04
2792.63
2797.97
2803.57
2807.23
2808.47
2807.91
2806.21
2804.07
2802.12
2800.37
2798.6
2796.93
2795.45
2794.42
2793.84
2793.69
2794.01
2794.66
2795.48
2796.47
2797.65
2799.03
2800.58
2802.24
2803.97
2805.78
2807.69
2809.71
2811.86
2814.13
2816.53
2819.03
2821.62
2824.28
2827.01
2829.79
2832.63
2835.52
2838.45
2841.39
2844.33
2847.26
2850.14
2852.95
2855.67
2858.26
2860.7
2862.96
2865.02
2866.84
2868.36
2869.55
2870.37
2870.77
2870.78
2870.13
2869
2867.2
2864.69
2861.43
2857.3
2852.25
2846.22
2839.08
2830.76
2821.21
2810.26
2797.89
2784.05
2768.65
2751.52
2732.5
2711.47
2688.43
2663.5
2636.61
2607.87
2577.11
2544.41
2509.5
2472.83
2434.08
2393.66
2351.23
2307.2
2261.58
2214.51
2166.56
2118.03
2068.31
2018.31
1966.59
1916.01
1864.82
1815.45
1766.49
1718.61
1671.82
1627.13
1586.4
1548.91
1514.72
1484.78
1421.12
3010.89
2829.57
2815.75
2806.69
2802.43
2799.19
2795.25
2790.26
2785.36
2781.88
2780.13
2779.46
2779.26
2779.02
2778.12
2777.04
2776.85
2778.27
2782.24
2788.8
2795.97
2801.42
2804.18
2804.59
2803.88
2802.81
2801.96
2801.48
2800.93
2800.3
2799.7
2799.4
2799.44
2800.03
2801
2802.25
2803.66
2805.23
2806.98
2808.87
2810.87
2812.93
2815.06
2817.27
2819.59
2822.05
2824.64
2827.37
2830.22
2833.18
2836.23
2839.37
2842.58
2845.88
2849.24
2852.67
2856.15
2859.66
2863.18
2866.7
2870.18
2873.6
2876.95
2880.18
2883.29
2886.23
2888.99
2891.52
2893.79
2895.75
2897.33
2898.53
2899.29
2899.59
2899.34
2898.46
2896.95
2894.66
2891.58
2887.63
2882.7
2876.73
2869.63
2861.29
2851.68
2840.72
2828.22
2814.05
2798.15
2780.48
2761.09
2739.93
2716.83
2691.79
2664.64
2635.36
2603.77
2570.18
2534.34
2496.6
2456.72
2415.13
2371.69
2326.79
2280.62
2233.27
2185.07
2135.19
2086.1
2036.8
1986.83
1936.74
1887.16
1838.17
1790.06
1740.79
1694.2
1648.48
1606.21
1567.16
1490.27
2996.46
2834.27
2820.99
2811.11
2806.56
2803.79
2800.65
2796.27
2791.22
2786.75
2783.71
2781.82
2780.53
2779.2
2777.26
2774.57
2771.47
2769.43
2769.66
2773.07
2779.82
2787.9
2794.69
2798.9
2801.02
2801.78
2802.04
2802.31
2802.74
2803.49
2804.06
2804.57
2805.08
2805.87
2807.09
2808.68
2810.52
2812.52
2814.67
2816.94
2819.31
2821.73
2824.2
2826.73
2829.36
2832.12
2835.03
2838.07
2841.26
2844.56
2847.98
2851.5
2855.12
2858.83
2862.65
2866.55
2870.52
2874.56
2878.64
2882.75
2886.86
2890.95
2895
2898.98
2902.88
2906.67
2910.32
2913.8
2917.08
2920.12
2922.88
2925.32
2927.38
2929.03
2930.22
2930.92
2931.11
2930.6
2929.43
2927.48
2924.61
2920.87
2916.1
2910.23
2903.24
2895
2885.35
2874.22
2861.57
2847.35
2831.51
2813.87
2794.2
2772.5
2748.65
2722.62
2694.29
2663.88
2631.2
2596.54
2559.59
2520.66
2479.58
2436.84
2392.23
2346.03
2298.23
2249.3
2199.28
2148.4
2097.79
2044.7
1993.87
1943.3
1896.15
1847.29
1801.52
1755.31
1713.94
1678
1611.86
2980.39
2838.25
2826.03
2815.17
2810.12
2807.7
2805.44
2802.14
2797.85
2793.51
2789.97
2787.12
2784.53
2781.8
2778.71
2775.06
2770.92
2766.9
2764.12
2763.43
2765.97
2772.07
2780.47
2788.4
2794.18
2797.92
2800.1
2801.51
2802.88
2804.49
2806.36
2808.28
2809.89
2811.34
2812.92
2814.81
2816.99
2819.4
2821.97
2824.66
2827.43
2830.24
2833.08
2835.96
2838.92
2841.99
2845.21
2848.58
2852.09
2855.74
2859.52
2863.41
2867.42
2871.54
2875.78
2880.13
2884.58
2889.12
2893.73
2898.39
2903.09
2907.81
2912.53
2917.22
2921.86
2926.44
2930.92
2935.3
2939.52
2943.56
2947.38
2950.94
2954.21
2957.15
2959.71
2961.84
2963.49
2964.62
2965.16
2965.18
2964.26
2962.69
2960.18
2956.69
2952.22
2946.59
2939.74
2931.58
2922.04
2911
2898.38
2883.95
2867.6
2849.36
2829.12
2806.88
2782.54
2756.15
2727.56
2696.93
2663.97
2628.92
2591.63
2552.35
2510.75
2467.33
2422.09
2375.21
2326.45
2276.23
2224.99
2173.4
2120.71
2065.72
2011.58
1958.46
1904.43
1850.92
1797.79
1750.77
1664.48
2963.44
2841.42
2830.91
2819.12
2813.49
2811.27
2809.74
2807.49
2804.15
2800.35
2796.99
2793.97
2790.74
2786.93
2782.43
2777.42
2772.23
2767.22
2762.88
2760.28
2759.53
2761.14
2766.35
2774.37
2782.78
2789.65
2794.71
2798.48
2801.45
2804.05
2806.85
2809.82
2812.93
2815.71
2818.16
2820.53
2823.07
2825.85
2828.83
2831.95
2835.15
2838.37
2841.6
2844.85
2848.16
2851.57
2855.11
2858.79
2862.63
2866.61
2870.72
2874.97
2879.34
2883.84
2888.47
2893.24
2898.13
2903.13
2908.23
2913.41
2918.67
2923.97
2929.3
2934.64
2939.98
2945.29
2950.55
2955.75
2960.85
2965.83
2970.65
2975.28
2979.68
2983.82
2987.66
2991.17
2994.3
2997
2999.16
3000.8
3001.83
3002.23
3001.87
3000.62
2998.52
2995.36
2991.19
2985.86
2979.28
2971.31
2961.86
2950.8
2938.09
2923.68
2907.47
2889.41
2869.34
2847.19
2822.78
2796.24
2767.33
2736.23
2702.67
2666.82
2628.55
2588.43
2546.42
2502.57
2456.51
2408.92
2360.31
2310.89
2260.11
2207.7
2154.4
2102.86
2051.05
1999.38
1947.77
1900.07
1810.82
2946.43
2843.65
2835.44
2823.03
2816.92
2814.75
2813.74
2812.26
2809.65
2806.29
2803.2
2800.44
2797.28
2793.15
2787.92
2781.91
2775.56
2769.36
2763.9
2759.81
2757.74
2757.42
2758.67
2763.1
2770.5
2778.8
2786.38
2792.6
2797.65
2801.99
2805.94
2809.88
2814.02
2818.2
2822.09
2825.46
2828.6
2831.8
2835.18
2838.73
2842.36
2846.02
2849.66
2853.3
2856.97
2860.73
2864.6
2868.61
2872.78
2877.09
2881.54
2886.13
2890.86
2895.72
2900.73
2905.89
2911.2
2916.64
2922.2
2927.87
2933.64
2939.49
2945.4
2951.35
2957.33
2963.33
2969.31
2975.28
2981.19
2987.03
2992.77
2998.37
3003.81
3009.05
3014.06
3018.81
3023.26
3027.36
3031.06
3034.32
3037.06
3039.23
3040.78
3041.63
3041.83
3041.03
3039.43
3036.78
3032.94
3027.93
3021.58
3013.85
3004.68
2993.94
2981.46
2967.17
2950.9
2932.51
2911.88
2889.11
2864
2836.65
2806.79
2774.62
2740.1
2703.41
2664.43
2623.34
2579.96
2534.59
2487.18
2438.5
2388.31
2336.57
2283.14
2228.89
2175.26
2124.84
2069.37
2020.91
1933.52
2930.19
2845.13
2839.45
2826.99
2820.46
2818.12
2817.37
2816.39
2814.35
2811.32
2808.46
2806.03
2803.2
2799.23
2793.9
2787.52
2780.62
2773.61
2766.94
2761.45
2757.99
2756.56
2756.58
2758.31
2762.47
2769.17
2777.09
2784.72
2791.58
2797.74
2803.39
2808.66
2813.72
2818.96
2824.13
2829
2833.21
2837.08
2840.95
2844.94
2849.02
2853.12
2857.21
2861.26
2865.32
2869.44
2873.65
2877.99
2882.48
2887.11
2891.9
2896.82
2901.89
2907.1
2912.47
2918
2923.69
2929.53
2935.52
2941.64
2947.88
2954.22
2960.66
2967.17
2973.74
2980.35
2987
2993.66
3000.32
3006.95
3013.52
3020.02
3026.41
3032.67
3038.76
3044.66
3050.34
3055.75
3060.85
3065.59
3069.93
3073.82
3077.19
3079.95
3082.08
3083.5
3084.19
3084.17
3082.89
3080.77
3077.42
3072.85
3067.01
3059.66
3050.7
3040.05
3027.58
3013.2
2996.81
2978.4
2957.82
2935.12
2910.05
2882.75
2853
2820.81
2786.1
2749.26
2710.27
2668.98
2624.98
2579.03
2531.12
2482.08
2430.82
2378.15
2322.85
2267.97
2210.96
2157.02
2066.03
2915.36
2846.04
2842.8
2830.93
2823.84
2821.18
2820.55
2819.93
2818.51
2815.92
2813.28
2811.08
2808.5
2804.72
2799.51
2793.2
2786.27
2779.08
2771.9
2765.3
2760.22
2757.46
2756.68
2756.95
2759.27
2763.88
2770.34
2777.67
2785.01
2792.12
2799.06
2805.81
2812.26
2818.42
2824.67
2830.76
2836.44
2841.4
2845.97
2850.52
2855.1
2859.67
2864.19
2868.67
2873.12
2877.6
2882.17
2886.85
2891.67
2896.63
2901.74
2906.99
2912.38
2917.93
2923.64
2929.52
2935.57
2941.79
2948.18
2954.72
2961.39
2968.2
2975.12
2982.15
2989.26
2996.45
3003.71
3011.01
3018.35
3025.7
3033.04
3040.35
3047.6
3054.77
3061.84
3068.77
3075.55
3082.14
3088.5
3094.58
3100.35
3105.76
3110.77
3115.31
3119.34
3122.78
3125.55
3127.63
3128.92
3129.42
3128.9
3127.25
3124.51
3120.36
3114.86
3107.88
3099.34
3089.13
3077.12
3063.19
3047.18
3029.1
3008.7
2985.99
2960.73
2933.01
2902.68
2870
2834.98
2797.56
2757.67
2715.57
2671.36
2625.73
2577.99
2528.96
2477.69
2425.93
2372.26
2320.56
2236.15
2902.27
2846.54
2845.31
2834.6
2826.85
2823.87
2823.38
2823.15
2822.45
2820.45
2818.05
2815.93
2813.39
2809.61
2804.44
2798.28
2791.58
2784.61
2777.56
2770.71
2764.65
2760.24
2758.09
2757.71
2758.58
2761.58
2766.7
2773.31
2780.26
2787.24
2794.43
2801.94
2809.55
2816.97
2824.09
2831.24
2838.09
2844.42
2850.04
2855.33
2860.52
2865.61
2870.61
2875.52
2880.38
2885.24
2890.15
2895.17
2900.31
2905.6
2911.03
2916.6
2922.31
2928.17
2934.21
2940.42
2946.81
2953.38
2960.14
2967.06
2974.13
2981.36
2988.72
2996.21
3003.82
3011.53
3019.33
3027.2
3035.15
3043.14
3051.16
3059.2
3067.23
3075.23
3083.17
3091.03
3098.8
3106.45
3113.94
3121.24
3128.31
3135.11
3141.59
3147.71
3153.43
3158.69
3163.43
3167.61
3171.12
3173.91
3175.88
3176.96
3177.22
3176.14
3174.06
3170.63
3165.75
3159.43
3151.4
3141.54
3129.69
3115.82
3099.71
3081.33
3060.48
3037.25
3011.38
2983.03
2952.09
2918.68
2882.83
2844.36
2803.44
2760.27
2714.84
2667.6
2617.33
2566.23
2510.99
2456.54
2375.61
2891.04
2846.92
2847.06
2837.74
2829.53
2826.36
2826.11
2826.37
2826.31
2824.97
2822.79
2820.62
2817.91
2813.91
2808.62
2802.54
2796.07
2789.41
2782.72
2776.17
2770.04
2764.8
2761.19
2759.64
2759.63
2761.29
2765.3
2771.07
2777.66
2784.28
2791.07
2798.42
2806.35
2814.61
2822.79
2830.69
2838.59
2846.04
2852.91
2859.17
2865.13
2870.86
2876.4
2881.79
2887.07
2892.31
2897.58
2902.93
2908.4
2914.01
2919.74
2925.62
2931.64
2937.81
2944.15
2950.67
2957.38
2964.28
2971.37
2978.64
2986.09
2993.7
3001.47
3009.38
3017.43
3025.61
3033.9
3042.29
3050.79
3059.36
3068
3076.68
3085.4
3094.14
3102.86
3111.56
3120.21
3128.79
3137.28
3145.65
3153.86
3161.88
3169.68
3177.21
3184.43
3191.29
3197.76
3203.78
3209.3
3214.24
3218.53
3222.04
3224.79
3226.61
3227.52
3227.51
3225.85
3223.18
3218.86
3212.97
3205.37
3195.96
3184.56
3171.14
3155.47
3137.57
3117.13
3094.27
3068.68
3040.56
3009.88
2976.48
2940.55
2901.82
2860.93
2817.58
2772.07
2724.46
2673.77
2619.45
2544.72
2881.75
2847.16
2848.3
2840.39
2832.07
2828.84
2828.86
2829.71
2830.1
2829.22
2827.25
2824.95
2821.94
2817.59
2812.06
2805.94
2799.59
2793.16
2786.77
2780.66
2774.97
2769.79
2765.5
2762.8
2761.87
2762.36
2765.21
2770.5
2776.8
2783.15
2789.52
2796.34
2803.96
2812.33
2821.09
2829.82
2838.34
2846.77
2854.68
2862.01
2868.86
2875.35
2881.52
2887.44
2893.17
2898.82
2904.45
2910.14
2915.93
2921.84
2927.88
2934.06
2940.37
2946.83
2953.46
2960.28
2967.28
2974.49
2981.89
2989.49
2997.27
3005.23
3013.36
3021.65
3030.1
3038.69
3047.42
3056.28
3065.25
3074.34
3083.51
3092.77
3102.1
3111.47
3120.88
3130.3
3139.72
3149.13
3158.5
3167.8
3177.02
3186.11
3195.05
3203.81
3212.35
3220.63
3228.63
3236.28
3243.55
3250.38
3256.7
3262.47
3267.59
3272
3275.52
3278.21
3279.87
3280.55
3279.97
3277.96
3274.64
3269.62
3262.89
3254.29
3243.62
3230.76
3215.47
3197.78
3177.27
3154.19
3128.22
3099.52
3068.06
3033.7
2996.84
2956.84
2914.46
2869.13
2821.26
2768.27
2698.36
2874.41
2847.4
2849.33
2842.67
2834.57
2831.35
2831.57
2832.99
2833.67
2833.04
2831.26
2828.75
2825.34
2820.58
2814.74
2808.48
2802.13
2795.81
2789.64
2783.87
2778.71
2774.09
2769.94
2766.69
2765.01
2764.72
2766.17
2770.67
2776.94
2783.27
2789.43
2795.9
2803.04
2811.01
2819.77
2828.91
2838.03
2847.04
2855.76
2864.03
2871.77
2879.06
2885.94
2892.45
2898.68
2904.76
2910.77
2916.8
2922.9
2929.12
2935.45
2941.91
2948.5
2955.24
2962.15
2969.23
2976.52
2984.01
2991.7
2999.59
3007.67
3015.95
3024.4
3033.03
3041.83
3050.79
3059.91
3069.17
3078.58
3088.11
3097.76
3107.52
3117.38
3127.32
3137.32
3147.37
3157.47
3167.58
3177.71
3187.83
3197.91
3207.93
3217.86
3227.68
3237.36
3246.86
3256.17
3265.23
3274.02
3282.49
3290.58
3298.24
3305.42
3312.04
3318.03
3323.33
3327.81
3331.41
3334.05
3335.6
3336.09
3335.01
3332.51
3328.29
3322.15
3314.06
3303.72
3291.1
3275.85
3258.1
3237.37
3213.92
3187.42
3158.12
3125.91
3090.44
3052.31
3010.73
2966.57
2916.72
2851.5
2869.16
2847.63
2850.25
2844.57
2836.89
2833.75
2834.08
2836.04
2836.98
2836.48
2834.76
2831.94
2828.01
2822.78
2816.59
2810.15
2803.75
2797.48
2791.46
2785.98
2781.3
2777.34
2773.8
2770.69
2768.6
2767.87
2768.37
2771.72
2777.76
2784.17
2790.26
2796.45
2803.19
2810.78
2819.28
2828.41
2837.83
2847.23
2856.53
2865.52
2874.06
2882.12
2889.71
2896.84
2903.61
2910.13
2916.53
2922.91
2929.34
2935.86
2942.48
2949.21
2956.07
2963.07
2970.23
2977.57
2985.12
2992.86
3000.82
3008.98
3017.34
3025.89
3034.64
3043.58
3052.69
3061.98
3071.43
3081.05
3090.83
3100.76
3110.82
3121.02
3131.33
3141.75
3152.27
3162.87
3173.53
3184.26
3195.03
3205.84
3216.66
3227.46
3238.23
3248.96
3259.6
3270.15
3280.57
3290.83
3300.91
3310.77
3320.37
3329.67
3338.61
3347.14
3355.21
3362.75
3369.71
3375.98
3381.49
3386.09
3389.74
3392.28
3393.66
3393.9
3392.19
3389.2
3384.24
3377.24
3368.08
3356.57
3342.3
3325.33
3305.09
3281.95
3255.22
3224.99
3191.02
3152.68
3111.16
3063.4
3001.08
2866.64
2847.88
2851
2845.95
2838.78
2835.98
2836.47
2838.95
2840.1
2839.6
2837.69
2834.38
2829.85
2824.12
2817.61
2811
2804.57
2798.37
2792.53
2787.32
2783.08
2779.75
2776.93
2774.35
2772.31
2771.42
2771.47
2773.68
2779.25
2785.74
2791.85
2797.86
2804.24
2811.42
2819.56
2828.52
2837.97
2847.62
2857.31
2866.8
2875.97
2884.71
2892.95
2900.69
2907.99
2914.98
2921.78
2928.52
2935.26
2942.07
2948.97
2955.97
2963.08
2970.32
2977.73
2985.31
2993.09
3001.08
3009.27
3017.68
3026.29
3035.1
3044.11
3053.31
3062.7
3072.27
3082.03
3091.96
3102.06
3112.33
3122.75
3133.32
3144.02
3154.86
3165.82
3176.88
3188.03
3199.28
3210.6
3221.99
3233.43
3244.9
3256.38
3267.86
3279.32
3290.73
3302.09
3313.35
3324.51
3335.54
3346.4
3357.05
3367.47
3377.61
3387.42
3396.85
3405.85
3414.35
3422.28
3429.59
3436.17
3441.96
3446.77
3450.63
3453.27
3454.67
3454.85
3452.76
3449.22
3443.3
3434.92
3424.02
3409.97
3393.08
3372.46
3348.61
3320.13
3286.86
3249.13
3204.42
3145.55
2866.4
2848.17
2851.53
2846.81
2840.27
2838.02
2838.92
2841.82
2843.03
2842.36
2839.93
2835.97
2830.82
2824.55
2817.75
2811.04
2804.66
2798.64
2793.06
2788.19
2784.4
2781.64
2779.5
2777.59
2775.92
2775.05
2774.96
2776.5
2781.39
2787.82
2793.99
2799.92
2806.03
2812.81
2820.57
2829.27
2838.63
2848.37
2858.26
2868.11
2877.75
2887.03
2895.84
2904.13
2911.93
2919.37
2926.57
2933.65
2940.72
2947.82
2954.98
2962.23
2969.58
2977.05
2984.68
2992.49
3000.49
3008.7
3017.12
3025.75
3034.59
3043.63
3052.87
3062.31
3071.95
3081.78
3091.8
3102
3112.39
3122.95
3133.68
3144.58
3155.62
3166.81
3178.14
3189.6
3201.17
3212.85
3224.64
3236.52
3248.48
3260.51
3272.58
3284.69
3296.82
3308.96
3321.08
3333.18
3345.23
3357.21
3369.1
3380.88
3392.51
3403.96
3415.2
3426.19
3436.88
3447.23
3457.19
3466.71
3475.73
3484.17
3491.95
3498.96
3505.09
3510.13
3514.18
3516.79
3518.12
3517.97
3515.39
3511.33
3504.49
3495.1
3482.46
3466.74
3445.93
3420.19
3387.31
3347.15
3291.84
2867.71
2848.55
2851.88
2847.27
2841.47
2839.94
2841.55
2844.7
2845.64
2844.55
2841.27
2836.61
2830.9
2824.2
2817.13
2810.43
2804.24
2798.51
2793.28
2788.86
2785.56
2783.35
2781.8
2780.5
2779.33
2778.64
2778.58
2779.86
2784.11
2790.33
2796.53
2802.43
2808.34
2814.79
2822.18
2830.58
2839.78
2849.49
2859.48
2869.55
2879.53
2889.24
2898.52
2907.27
2915.53
2923.37
2930.94
2938.37
2945.74
2953.12
2960.54
2968.03
2975.61
2983.3
2991.15
2999.16
3007.37
3015.78
3024.41
3033.24
3042.28
3051.53
3060.98
3070.64
3080.5
3090.55
3100.81
3111.25
3121.89
3132.72
3143.72
3154.89
3166.23
3177.73
3189.38
3201.18
3213.11
3225.17
3237.35
3249.65
3262.05
3274.54
3287.12
3299.75
3312.44
3325.18
3337.94
3350.72
3363.5
3376.26
3389
3401.68
3414.3
3426.81
3439.2
3451.44
3463.49
3475.33
3486.92
3498.21
3509.16
3519.72
3529.82
3539.4
3548.4
3556.74
3564.3
3571.01
3576.61
3581.19
3584.23
3585.89
3585.95
3583.03
3578.41
3570.78
3559.26
3543.62
3519.53
3490.35
3445.66
2871.49
2849.13
2852.15
2847.49
2842.46
2841.82
2844.33
2847.48
2847.78
2845.9
2841.63
2836.38
2829.97
2822.75
2815.76
2809.33
2803.49
2798.15
2793.4
2789.52
2786.75
2785.04
2783.99
2783.2
2782.52
2782.09
2782.13
2783.42
2787.25
2793.16
2799.35
2805.21
2810.99
2817.19
2824.27
2832.38
2841.37
2850.99
2860.99
2871.2
2881.42
2891.45
2901.09
2910.23
2918.87
2927.08
2934.99
2942.73
2950.39
2958.04
2965.7
2973.42
2981.21
2989.11
2997.16
3005.37
3013.77
3022.38
3031.2
3040.22
3049.45
3058.89
3068.54
3078.39
3088.45
3098.71
3109.17
3119.84
3130.7
3141.75
3152.99
3164.41
3176.01
3187.77
3199.71
3211.8
3224.04
3236.41
3248.93
3261.59
3274.37
3287.26
3300.25
3313.33
3326.49
3339.73
3353.02
3366.37
3379.75
3393.16
3406.59
3420.01
3433.42
3446.79
3460.1
3473.34
3486.48
3499.49
3512.36
3525.04
3537.52
3549.74
3561.69
3573.31
3584.55
3595.37
3605.66
3615.37
3624.39
3632.6
3639.9
3646.04
3651.18
3654.58
3656.62
3656.88
3654.24
3648.82
3636.84
3622.03
3594.82
2877.28
2849.83
2852.38
2847.63
2843.39
2843.61
2846.93
2849.86
2849.27
2846.28
2841.2
2834.88
2827.73
2820.51
2813.89
2807.89
2802.51
2797.68
2793.5
2790.21
2788.01
2786.77
2786.13
2785.74
2785.46
2785.29
2785.51
2786.95
2790.55
2796.18
2802.31
2808.14
2813.82
2819.84
2826.68
2834.54
2843.33
2852.82
2862.8
2873.07
2883.45
2893.71
2903.64
2913.09
2922.04
2930.56
2938.78
2946.8
2954.72
2962.61
2970.51
2978.43
2986.42
2994.52
3002.75
3011.14
3019.73
3028.52
3037.51
3046.71
3056.12
3065.74
3075.56
3085.6
3095.84
3106.29
3116.95
3127.81
3138.88
3150.15
3161.61
3173.26
3185.09
3197.1
3209.29
3221.64
3234.15
3246.82
3259.64
3272.6
3285.71
3298.94
3312.29
3325.75
3339.31
3352.96
3366.7
3380.52
3394.4
3408.34
3422.33
3436.36
3450.4
3464.46
3478.5
3492.53
3506.51
3520.44
3534.29
3548.04
3561.67
3575.15
3588.48
3601.59
3614.46
3627.06
3639.32
3651.21
3662.68
3673.68
3684.1
3693.89
3702.89
3710.97
3717.9
3723.76
3728.14
3730.66
3730.57
3726.79
3719.26
2884.86
2850.63
2852.6
2847.93
2844.43
2845.26
2848.92
2851.2
2849.99
2845.81
2839.34
2832.07
2824.69
2817.76
2811.59
2806.1
2801.33
2797.13
2793.59
2790.94
2789.32
2788.51
2788.2
2788.12
2788.14
2788.23
2788.7
2790.32
2793.84
2799.25
2805.3
2811.11
2816.71
2822.62
2829.29
2836.96
2845.57
2854.94
2864.86
2875.16
2885.64
2896.06
2906.19
2915.87
2925.07
2933.85
2942.33
2950.6
2958.77
2966.89
2974.99
2983.11
2991.29
2999.56
3007.97
3016.54
3025.3
3034.25
3043.41
3052.77
3062.34
3072.12
3082.11
3092.31
3102.71
3113.33
3124.16
3135.2
3146.45
3157.91
3169.56
3181.41
3193.46
3205.68
3218.1
3230.69
3243.45
3256.37
3269.46
3282.7
3296.09
3309.63
3323.3
3337.09
3350.99
3365.01
3379.13
3393.34
3407.63
3422.01
3436.45
3450.96
3465.51
3480.1
3494.71
3509.34
3523.96
3538.57
3553.14
3567.66
3582.12
3596.48
3610.75
3624.88
3638.86
3652.65
3666.25
3679.57
3692.59
3705.26
3717.5
3729.3
3740.49
3751.12
3760.9
3769.88
3777.74
3784.33
3789.61
3792.04
3795.11
2894.02
2851.51
2852.87
2848.46
2845.74
2846.96
2850.27
2851.4
2849.57
2843.8
2836.2
2828.51
2821.23
2814.71
2809.02
2804.16
2800.07
2796.56
2793.7
2791.69
2790.62
2790.19
2790.14
2790.33
2790.57
2790.91
2791.66
2793.47
2797
2802.29
2808.26
2814.02
2819.58
2825.42
2831.99
2839.53
2848.01
2857.26
2867.13
2877.44
2887.98
2898.5
2908.77
2918.62
2928.01
2936.99
2945.68
2954.17
2962.55
2970.86
2979.15
2987.44
2995.79
3004.23
3012.8
3021.53
3030.45
3039.56
3048.88
3058.4
3068.12
3078.05