/*--------------------------------*- C++ -*----------------------------------*\
| =========                 |                                                 |
| \\      /  F ield         | OpenFOAM: The Open Source CFD Toolbox           |
|  \\    /   O peration     | Version:  2412                                  |
|   \\  /    A nd           | Website:  www.openfoam.com                      |
|    \\/     M anipulation  |                                                 |
\*---------------------------------------------------------------------------*/
FoamFile
{
    version     2.0;
    format      ascii;
    arch        "LSB;label=32;scalar=64";
    class       volScalarField;
    location    "0.037";
    object      rho;
}
// * * * * * * * * * * * * * * * * * * * * * * * * * * * * * * * * * * * * * //

dimensions      [1 -3 0 0 0 0 0];

internalField   nonuniform List<scalar> 
78650
(
0.042133
0.042133
0.042133
0.042133
0.042133
0.042133
0.042133
0.0421334
0.0421415
0.0421982
0.0423399
0.0424843
0.0425354
0.0425399
0.0424612
0.0422931
0.0421331
0.0420211
0.0419456
0.0418878
0.0418296
0.0417665
0.0417033
0.0416431
0.041582
0.0415211
0.041475
0.041457
0.0414621
0.0414931
0.0415388
0.04157
0.0415793
0.0415749
0.0415591
0.0415402
0.041525
0.0415135
0.0415034
0.0414939
0.0414847
0.0414761
0.0414682
0.0414608
0.0414539
0.0414476
0.0414418
0.0414364
0.0414317
0.0414274
0.0414234
0.0414195
0.0414159
0.0414124
0.0414091
0.0414057
0.0414019
0.0413975
0.0413925
0.0413866
0.0413796
0.0413713
0.0413614
0.0413496
0.0413357
0.0413191
0.0412992
0.0412754
0.0412471
0.0412137
0.0411744
0.0411285
0.0410755
0.0410147
0.0409455
0.0408667
0.0407774
0.0406761
0.0405612
0.0404316
0.0402859
0.0401229
0.0399412
0.0397395
0.0395151
0.0392658
0.03899
0.0386868
0.0383549
0.0379892
0.0375873
0.0371499
0.0366822
0.0361825
0.0356426
0.0350563
0.0344171
0.0337308
0.0330357
0.0323004
0.031518
0.0307404
0.0299661
0.0291464
0.0282814
0.027425
0.0266382
0.0259059
0.0252157
0.0245253
0.0238499
0.0232432
0.0227023
0.0222135
0.0217436
0.0212627
0.0208133
0.0203903
0.0200159
0.0196732
0.0190574
0.042133
0.042133
0.042133
0.042133
0.042133
0.042133
0.042133
0.0421332
0.0421379
0.0421798
0.0423085
0.0424651
0.0425362
0.0425533
0.0424979
0.0423405
0.0421722
0.0420533
0.0419755
0.0419196
0.0418654
0.0418054
0.0417441
0.0416861
0.041629
0.0415695
0.0415161
0.0414862
0.0414812
0.041499
0.0415421
0.0415838
0.0416029
0.0416047
0.0415961
0.0415798
0.0415645
0.0415534
0.0415447
0.0415369
0.0415295
0.0415229
0.041517
0.0415117
0.0415069
0.0415028
0.0414992
0.0414961
0.0414936
0.0414916
0.0414901
0.0414888
0.0414878
0.0414871
0.0414866
0.0414863
0.0414858
0.0414849
0.0414835
0.0414814
0.0414786
0.0414747
0.0414694
0.0414627
0.0414541
0.0414433
0.0414297
0.0414127
0.0413918
0.0413663
0.0413356
0.0412991
0.041256
0.041206
0.0411484
0.0410822
0.0410066
0.0409202
0.0408217
0.0407098
0.0405831
0.0404405
0.0402804
0.0401017
0.0399021
0.0396802
0.039434
0.039161
0.0388581
0.0385226
0.0381558
0.0377582
0.0373285
0.0368591
0.0363461
0.0357955
0.0352113
0.0345892
0.0339258
0.0332032
0.0324538
0.0316813
0.030897
0.0301115
0.0293062
0.0284593
0.0276283
0.0268146
0.0260449
0.0253118
0.0245756
0.0238767
0.0232254
0.0226409
0.0221198
0.02163
0.0211782
0.0207356
0.0203339
0.0199564
0.0193381
0.042133
0.042133
0.042133
0.042133
0.042133
0.042133
0.042133
0.0421331
0.0421357
0.0421648
0.0422762
0.0424405
0.0425352
0.0425649
0.0425286
0.0423863
0.0422129
0.0420875
0.0420071
0.0419525
0.0419021
0.0418455
0.0417856
0.0417289
0.0416748
0.0416186
0.0415623
0.041521
0.0415061
0.0415125
0.0415454
0.0415923
0.0416238
0.0416337
0.0416313
0.0416201
0.0416061
0.0415951
0.0415873
0.0415811
0.0415755
0.0415708
0.0415668
0.0415635
0.0415608
0.0415588
0.0415575
0.0415567
0.0415565
0.0415569
0.0415579
0.0415592
0.0415608
0.0415629
0.0415653
0.0415681
0.0415708
0.0415734
0.0415757
0.0415775
0.0415787
0.0415791
0.0415786
0.0415767
0.0415735
0.0415685
0.0415609
0.0415506
0.0415368
0.0415189
0.0414966
0.041469
0.0414356
0.0413959
0.0413493
0.0412951
0.0412323
0.0411599
0.0410766
0.040981
0.0408718
0.040748
0.0406081
0.0404511
0.0402752
0.0400786
0.039859
0.0396144
0.0393426
0.0390415
0.0387105
0.0383477
0.0379514
0.037518
0.0370472
0.0365404
0.0359912
0.0354
0.034768
0.0340931
0.0333855
0.0326301
0.031838
0.0310263
0.0302278
0.029402
0.0285711
0.0277413
0.02691
0.0261388
0.0253763
0.0246446
0.0239343
0.0232663
0.0226445
0.0220634
0.0215262
0.0209886
0.0204908
0.020041
0.0192867
0.042133
0.042133
0.042133
0.042133
0.042133
0.042133
0.042133
0.0421331
0.0421344
0.0421532
0.0422442
0.0424098
0.0425305
0.0425748
0.042551
0.0424319
0.0422583
0.0421255
0.0420414
0.0419868
0.04194
0.041887
0.0418288
0.0417723
0.0417198
0.0416673
0.0416119
0.0415629
0.0415367
0.041533
0.0415518
0.0415968
0.0416401
0.0416615
0.0416655
0.0416606
0.0416495
0.041639
0.0416319
0.0416269
0.041623
0.0416201
0.0416179
0.0416164
0.0416158
0.0416159
0.0416168
0.0416182
0.0416203
0.0416231
0.0416265
0.0416304
0.0416347
0.0416394
0.0416447
0.0416504
0.0416564
0.0416623
0.0416681
0.0416736
0.0416788
0.0416834
0.0416873
0.0416903
0.041692
0.0416924
0.0416907
0.0416868
0.04168
0.0416694
0.0416551
0.041636
0.0416119
0.0415821
0.0415462
0.0415035
0.0414532
0.0413944
0.0413259
0.0412464
0.0411547
0.0410497
0.04093
0.0407947
0.0406419
0.0404703
0.0402778
0.0400619
0.03982
0.0395503
0.0392527
0.0389251
0.0385635
0.0381635
0.0377268
0.037256
0.036748
0.0362046
0.0356151
0.0349781
0.034289
0.0335517
0.0327764
0.0319782
0.0311495
0.0303227
0.0294703
0.028642
0.0277809
0.0269376
0.0261466
0.0253761
0.0246319
0.0239331
0.0232719
0.022664
0.0221255
0.0216048
0.0210817
0.0205684
0.0196911
0.042133
0.042133
0.042133
0.042133
0.042133
0.042133
0.042133
0.0421331
0.0421337
0.0421448
0.0422144
0.0423733
0.0425186
0.04258
0.0425676
0.042477
0.0423082
0.042167
0.0420779
0.0420224
0.0419787
0.0419297
0.0418732
0.0418164
0.0417643
0.0417146
0.0416625
0.0416108
0.0415739
0.0415608
0.0415675
0.041602
0.041651
0.0416862
0.0416997
0.0417005
0.0416946
0.0416857
0.0416789
0.0416748
0.0416724
0.0416712
0.0416708
0.041671
0.0416724
0.0416746
0.0416776
0.0416813
0.0416857
0.0416909
0.0416967
0.0417032
0.0417101
0.0417176
0.0417257
0.0417344
0.0417435
0.0417528
0.0417621
0.0417713
0.0417803
0.0417891
0.0417974
0.0418051
0.0418118
0.0418174
0.0418215
0.0418235
0.0418235
0.0418201
0.0418136
0.0418028
0.0417876
0.0417673
0.0417415
0.0417098
0.0416714
0.0416253
0.0415706
0.0415062
0.0414307
0.0413431
0.0412421
0.0411267
0.0409954
0.040847
0.0406793
0.0404903
0.0402781
0.040041
0.0397772
0.0394824
0.0391546
0.0387938
0.0384025
0.0379775
0.0375098
0.0369976
0.0364342
0.0358322
0.0351914
0.0345105
0.033788
0.0330191
0.0321965
0.0313595
0.0304964
0.0296362
0.0287868
0.0278814
0.0270161
0.0261464
0.0253052
0.0245206
0.0237691
0.0230672
0.0224336
0.0218404
0.0213223
0.020868
0.0200376
0.042133
0.042133
0.042133
0.042133
0.042133
0.042133
0.042133
0.042133
0.0421333
0.0421393
0.0421884
0.0423318
0.0424973
0.0425809
0.0425804
0.0425205
0.0423621
0.0422124
0.0421175
0.0420598
0.0420185
0.0419732
0.0419187
0.0418615
0.0418088
0.0417608
0.0417128
0.0416628
0.0416192
0.0415962
0.0415931
0.0416124
0.0416586
0.0417055
0.0417327
0.0417409
0.0417399
0.0417344
0.0417286
0.0417252
0.0417239
0.0417241
0.0417254
0.0417275
0.0417305
0.0417347
0.0417398
0.0417458
0.0417525
0.0417601
0.0417684
0.0417774
0.0417869
0.0417971
0.041808
0.0418196
0.0418318
0.0418444
0.0418571
0.0418699
0.0418827
0.0418955
0.0419081
0.0419203
0.0419318
0.0419426
0.0419523
0.0419602
0.0419661
0.0419697
0.0419705
0.0419679
0.0419613
0.0419502
0.0419342
0.0419131
0.041886
0.0418523
0.0418111
0.0417613
0.0417017
0.0416313
0.0415488
0.0414534
0.0413435
0.0412182
0.0410754
0.0409134
0.0407299
0.0405227
0.0402895
0.040028
0.0397373
0.0394158
0.0390615
0.0386693
0.0382357
0.0377638
0.0372506
0.0367028
0.036105
0.035459
0.0347662
0.0340129
0.033221
0.0323806
0.0315365
0.0306446
0.0297934
0.0289161
0.0280542
0.0272038
0.0263444
0.0255325
0.0247164
0.0239435
0.0232009
0.022469
0.0217731
0.0211475
0.0200482
0.042133
0.042133
0.042133
0.042133
0.042133
0.042133
0.042133
0.042133
0.0421331
0.042136
0.0421677
0.0422884
0.0424656
0.0425772
0.0425918
0.0425584
0.0424172
0.0422616
0.0421602
0.0420988
0.0420583
0.042016
0.0419637
0.0419067
0.0418534
0.0418064
0.0417623
0.0417166
0.0416718
0.0416398
0.0416282
0.0416346
0.0416685
0.0417195
0.041761
0.0417812
0.0417861
0.0417848
0.0417808
0.0417782
0.0417778
0.0417793
0.0417821
0.0417857
0.0417905
0.0417965
0.0418038
0.0418119
0.0418209
0.0418308
0.0418417
0.0418532
0.0418655
0.0418783
0.041892
0.0419066
0.0419218
0.0419376
0.0419538
0.0419701
0.0419867
0.0420035
0.0420202
0.0420368
0.0420531
0.0420689
0.0420839
0.0420976
0.0421099
0.04212
0.0421277
0.0421325
0.0421342
0.0421322
0.0421257
0.0421148
0.0420984
0.0420764
0.0420476
0.0420114
0.0419666
0.0419121
0.0418468
0.0417698
0.0416796
0.0415755
0.0414557
0.0413184
0.0411619
0.040984
0.0407827
0.0405552
0.0403004
0.0400163
0.0397008
0.0393493
0.0389595
0.0385317
0.0380627
0.0375554
0.0369978
0.0363997
0.0357503
0.0350518
0.0343091
0.0334953
0.0326701
0.0317808
0.0308611
0.0299347
0.0289745
0.028063
0.0271556
0.0263081
0.0254679
0.0246799
0.0239499
0.0232462
0.0225717
0.0219258
0.0207505
0.042133
0.042133
0.042133
0.042133
0.042133
0.042133
0.042133
0.042133
0.0421331
0.0421343
0.0421526
0.0422462
0.0424237
0.0425655
0.0426015
0.0425871
0.0424731
0.042317
0.0422067
0.0421385
0.0420967
0.042057
0.0420081
0.0419527
0.0418997
0.0418533
0.0418121
0.0417714
0.0417294
0.0416926
0.0416724
0.0416694
0.0416865
0.0417318
0.0417831
0.0418182
0.0418328
0.0418357
0.041835
0.0418335
0.0418337
0.0418362
0.0418404
0.0418456
0.041852
0.0418598
0.041869
0.0418793
0.0418906
0.0419029
0.0419162
0.0419303
0.0419452
0.0419608
0.0419772
0.0419946
0.0420129
0.0420319
0.0420513
0.0420712
0.0420914
0.042112
0.0421328
0.0421537
0.0421745
0.0421952
0.0422153
0.0422346
0.0422526
0.0422691
0.0422838
0.042296
0.0423053
0.0423114
0.0423141
0.042313
0.0423072
0.0422966
0.0422798
0.0422568
0.0422263
0.0421874
0.042139
0.0420802
0.0420096
0.0419265
0.0418292
0.0417165
0.0415864
0.0414366
0.0412649
0.0410695
0.0408491
0.0406008
0.0403211
0.0400067
0.0396579
0.0392754
0.038855
0.0383942
0.0378816
0.0373259
0.0367136
0.0360544
0.0353429
0.0345824
0.0337694
0.0329188
0.0320326
0.0311347
0.0301914
0.0292331
0.0282531
0.0272622
0.0263055
0.0253672
0.0244916
0.0236558
0.0229212
0.0223001
0.0211141
0.042133
0.042133
0.042133
0.042133
0.042133
0.042133
0.042133
0.042133
0.042133
0.0421335
0.0421429
0.0422089
0.0423745
0.0425435
0.0426052
0.0426077
0.0425286
0.0423773
0.0422542
0.0421772
0.0421331
0.0420964
0.042052
0.042
0.0419482
0.0419024
0.0418631
0.0418265
0.0417893
0.0417526
0.0417252
0.0417143
0.0417188
0.0417487
0.0418001
0.0418485
0.0418772
0.041888
0.0418904
0.0418908
0.0418919
0.041895
0.0419003
0.0419071
0.0419151
0.0419247
0.0419357
0.0419481
0.0419616
0.0419762
0.041992
0.0420087
0.0420262
0.0420445
0.0420637
0.042084
0.0421052
0.0421273
0.0421501
0.0421734
0.0421973
0.0422216
0.0422464
0.0422715
0.0422968
0.0423221
0.0423472
0.0423719
0.0423957
0.0424184
0.0424395
0.0424588
0.0424758
0.0424901
0.0425011
0.0425088
0.0425128
0.0425132
0.042508
0.0424975
0.0424802
0.0424556
0.0424227
0.0423805
0.0423279
0.0422641
0.0421878
0.0420976
0.0419919
0.0418688
0.0417266
0.041563
0.041376
0.0411626
0.0409208
0.040649
0.0403461
0.0400082
0.0396286
0.0392046
0.0387311
0.0382164
0.0376508
0.0370466
0.0363877
0.0356747
0.0349022
0.0340643
0.0331753
0.0322731
0.0313556
0.0304201
0.0294815
0.02852
0.0275625
0.0266288
0.0256634
0.024724
0.0237839
0.0229398
0.0214108
0.042133
0.042133
0.042133
0.042133
0.042133
0.042133
0.042133
0.042133
0.042133
0.0421332
0.0421374
0.042179
0.042321
0.0425088
0.0426026
0.0426261
0.0425784
0.0424385
0.0423015
0.0422161
0.0421695
0.0421358
0.0420968
0.0420492
0.0419996
0.0419546
0.0419163
0.0418824
0.0418498
0.0418166
0.0417865
0.0417681
0.041764
0.0417766
0.0418175
0.0418718
0.0419152
0.041938
0.0419464
0.0419493
0.0419515
0.0419553
0.0419615
0.0419696
0.0419793
0.0419905
0.0420034
0.0420178
0.0420335
0.0420504
0.0420685
0.0420877
0.0421078
0.0421288
0.0421508
0.0421738
0.042198
0.0422232
0.0422492
0.0422759
0.0423032
0.0423312
0.0423598
0.0423889
0.0424185
0.0424484
0.0424783
0.0425081
0.0425374
0.0425659
0.0425933
0.0426193
0.0426435
0.0426654
0.0426849
0.0427016
0.0427149
0.0427247
0.0427306
0.0427321
0.0427278
0.0427174
0.0426996
0.0426737
0.0426387
0.0425938
0.0425378
0.0424697
0.0423877
0.0422903
0.0421755
0.0420412
0.0418854
0.0417059
0.0415008
0.0412675
0.0410038
0.0407054
0.0403688
0.0399934
0.0395762
0.0391199
0.0386138
0.038063
0.0374501
0.036786
0.0360592
0.0352695
0.0344099
0.0334919
0.0325372
0.0315251
0.0305165
0.0294932
0.0284892
0.027532
0.0265563
0.025643
0.024777
0.0239642
0.0224321
0.042133
0.042133
0.042133
0.042133
0.042133
0.042133
0.042133
0.042133
0.042133
0.0421331
0.0421347
0.0421579
0.0422683
0.0424622
0.0425939
0.0426416
0.0426156
0.0424958
0.0423505
0.0422576
0.0422072
0.0421753
0.0421417
0.0420996
0.0420531
0.0420094
0.0419718
0.0419395
0.0419101
0.0418812
0.0418525
0.0418289
0.0418178
0.041819
0.0418416
0.0418906
0.0419445
0.0419823
0.0420008
0.0420082
0.0420123
0.0420168
0.0420237
0.042033
0.0420443
0.0420572
0.0420719
0.0420882
0.042106
0.0421252
0.0421456
0.0421673
0.0421901
0.0422137
0.0422384
0.0422642
0.0422913
0.0423195
0.0423487
0.0423788
0.0424095
0.0424411
0.0424734
0.0425065
0.0425402
0.0425745
0.0426091
0.0426438
0.0426784
0.0427125
0.042746
0.0427784
0.0428095
0.0428388
0.0428661
0.042891
0.0429135
0.042933
0.042949
0.042961
0.0429684
0.042971
0.0429673
0.0429567
0.0429381
0.0429104
0.0428731
0.0428251
0.0427651
0.0426916
0.042603
0.0424973
0.0423726
0.0422264
0.042057
0.0418618
0.0416384
0.0413827
0.0410919
0.040765
0.0403989
0.0399924
0.0395362
0.0390335
0.0384704
0.0378587
0.0371846
0.036457
0.035677
0.0348272
0.0339431
0.0329564
0.0319521
0.0308698
0.029774
0.0286704
0.0275283
0.0264261
0.0254011
0.0245122
0.0227849
0.042133
0.042133
0.042133
0.042133
0.042133
0.042133
0.042133
0.042133
0.042133
0.0421331
0.0421336
0.0421449
0.0422217
0.0424055
0.042576
0.0426481
0.0426389
0.0425517
0.0424053
0.0423026
0.0422461
0.0422148
0.0421866
0.0421509
0.0421088
0.0420667
0.0420297
0.041998
0.0419702
0.0419444
0.041919
0.0418947
0.0418775
0.0418714
0.0418784
0.0419123
0.0419669
0.0420176
0.0420497
0.0420653
0.0420731
0.042079
0.0420865
0.0420967
0.0421095
0.0421242
0.0421407
0.042159
0.0421789
0.0422002
0.0422229
0.042247
0.0422723
0.0422986
0.0423259
0.0423545
0.0423844
0.0424155
0.0424478
0.0424811
0.0425152
0.0425502
0.0425861
0.0426229
0.0426606
0.0426991
0.0427381
0.0427776
0.0428172
0.0428566
0.0428958
0.0429342
0.0429718
0.0430081
0.0430429
0.0430758
0.0431067
0.0431352
0.0431611
0.0431838
0.0432026
0.0432169
0.0432262
0.04323
0.0432275
0.043217
0.0431982
0.0431695
0.0431305
0.0430796
0.0430156
0.0429364
0.0428401
0.0427247
0.0425886
0.042429
0.0422434
0.0420286
0.0417832
0.0415052
0.0411897
0.0408325
0.0404249
0.039969
0.0394558
0.0388948
0.0382703
0.0375924
0.0368479
0.0360414
0.0351684
0.0342421
0.033264
0.0322713
0.0312042
0.030169
0.0290441
0.0279578
0.0267988
0.0257095
0.0236573
0.042133
0.042133
0.042133
0.042133
0.042133
0.042133
0.042133
0.042133
0.042133
0.042133
0.0421332
0.042138
0.0421855
0.0423437
0.0425423
0.042647
0.0426546
0.0426034
0.0424632
0.0423483
0.0422854
0.0422541
0.0422314
0.0422026
0.0421653
0.0421247
0.0420877
0.0420559
0.0420284
0.0420042
0.041982
0.04196
0.0419403
0.0419288
0.041927
0.0419424
0.0419871
0.0420442
0.0420903
0.0421178
0.0421321
0.042141
0.0421497
0.0421607
0.0421748
0.0421912
0.0422096
0.0422299
0.0422519
0.0422753
0.0423002
0.0423266
0.0423544
0.0423832
0.0424132
0.0424444
0.042477
0.0425111
0.0425464
0.0425828
0.0426202
0.0426585
0.042698
0.0427385
0.04278
0.0428225
0.0428659
0.0429098
0.0429542
0.0429988
0.0430434
0.0430877
0.0431314
0.0431744
0.0432162
0.0432566
0.0432955
0.0433326
0.0433675
0.0433999
0.0434293
0.0434551
0.0434767
0.0434932
0.0435042
0.0435092
0.0435077
0.0434971
0.0434779
0.0434477
0.0434066
0.0433524
0.0432837
0.0431983
0.0430944
0.0429693
0.0428211
0.0426471
0.0424452
0.0422112
0.0419399
0.0416281
0.0412716
0.040872
0.0404216
0.039925
0.0393682
0.0387553
0.0380637
0.0373033
0.0364726
0.0355743
0.034587
0.0335539
0.0324254
0.031272
0.0301243
0.0290078
0.0279155
0.0269186
0.0249631
0.042133
0.042133
0.042133
0.042133
0.042133
0.042133
0.042133
0.042133
0.042133
0.042133
0.0421331
0.0421348
0.0421607
0.042284
0.042493
0.0426372
0.042668
0.0426444
0.0425199
0.0423946
0.0423267
0.0422944
0.0422762
0.0422533
0.0422201
0.0421807
0.0421433
0.0421115
0.0420843
0.0420609
0.0420409
0.0420222
0.0420038
0.0419892
0.0419825
0.0419856
0.0420128
0.0420661
0.0421221
0.0421632
0.0421877
0.0422019
0.0422129
0.0422249
0.0422399
0.0422579
0.0422782
0.0423005
0.0423245
0.04235
0.0423771
0.0424057
0.0424358
0.0424672
0.0424997
0.0425335
0.0425687
0.0426055
0.0426437
0.0426831
0.0427237
0.0427653
0.042808
0.042852
0.0428972
0.0429435
0.0429909
0.0430392
0.0430881
0.0431375
0.0431871
0.0432369
0.0432864
0.0433356
0.043384
0.0434315
0.0434779
0.043523
0.0435665
0.0436082
0.0436475
0.0436839
0.043717
0.0437463
0.0437711
0.0437903
0.0438035
0.0438101
0.0438105
0.0438003
0.0437811
0.0437498
0.0437062
0.043648
0.0435736
0.0434807
0.0433675
0.0432313
0.0430696
0.0428784
0.0426544
0.0423957
0.0420987
0.0417619
0.0413771
0.0409444
0.0404496
0.0398959
0.0392676
0.03858
0.0378223
0.0369992
0.036109
0.0351118
0.0340836
0.0328972
0.0317009
0.0303801
0.0290607
0.0278549
0.025545
0.042133
0.042133
0.042133
0.042133
0.042133
0.042133
0.042133
0.042133
0.042133
0.042133
0.0421331
0.0421336
0.042146
0.0422324
0.0424335
0.0426162
0.042677
0.0426704
0.042574
0.0424445
0.0423699
0.0423344
0.042318
0.042299
0.0422701
0.042233
0.0421962
0.0421649
0.0421384
0.0421156
0.0420968
0.0420809
0.0420655
0.0420512
0.0420417
0.0420391
0.0420498
0.0420902
0.0421483
0.042201
0.0422378
0.0422603
0.0422754
0.0422892
0.0423052
0.0423244
0.0423465
0.0423707
0.0423966
0.0424242
0.0424534
0.0424842
0.0425165
0.0425502
0.0425852
0.0426215
0.0426593
0.0426987
0.0427397
0.042782
0.0428256
0.0428704
0.0429163
0.0429636
0.0430123
0.0430624
0.0431136
0.043166
0.0432192
0.0432732
0.0433277
0.0433825
0.0434376
0.0434926
0.0435473
0.0436014
0.0436548
0.0437074
0.0437589
0.0438091
0.0438576
0.0439039
0.0439476
0.0439882
0.0440252
0.044058
0.0440859
0.0441076
0.0441232
0.0441317
0.0441332
0.0441236
0.0441041
0.0440716
0.0440253
0.0439629
0.0438828
0.0437824
0.0436592
0.0435099
0.043332
0.0431228
0.0428778
0.0425932
0.042261
0.0418795
0.0414369
0.0409376
0.0403719
0.0397498
0.0390509
0.0382758
0.0374202
0.0364932
0.0354922
0.0344232
0.0332466
0.0320871
0.0308312
0.0296227
0.0272729
0.042133
0.042133
0.042133
0.042133
0.042133
0.042133
0.042133
0.042133
0.042133
0.042133
0.042133
0.0421332
0.0421385
0.0421929
0.0423701
0.0425829
0.0426769
0.0426887
0.0426252
0.0424972
0.0424118
0.0423708
0.0423545
0.0423393
0.0423165
0.0422836
0.042248
0.0422175
0.0421919
0.0421696
0.0421514
0.0421372
0.0421249
0.0421133
0.0421035
0.0420986
0.0421003
0.0421233
0.0421741
0.0422328
0.0422818
0.0423152
0.0423367
0.0423534
0.0423705
0.0423907
0.0424142
0.0424401
0.0424681
0.0424977
0.0425288
0.0425616
0.0425961
0.0426321
0.0426694
0.0427081
0.0427483
0.0427902
0.0428338
0.0428789
0.0429253
0.0429731
0.0430221
0.0430726
0.0431245
0.043178
0.0432329
0.043289
0.0433463
0.0434046
0.0434636
0.0435232
0.0435833
0.0436437
0.0437042
0.0437645
0.0438244
0.0438839
0.0439429
0.044001
0.044058
0.0441135
0.0441671
0.0442183
0.0442668
0.044312
0.0443533
0.0443901
0.0444217
0.0444469
0.0444653
0.0444761
0.0444789
0.0444701
0.0444499
0.0444155
0.0443658
0.0442985
0.0442115
0.0441019
0.0439672
0.043804
0.0436076
0.0433738
0.0430965
0.0427739
0.0423983
0.0419728
0.0414856
0.0409366
0.0403054
0.0395986
0.0388018
0.0379241
0.0369557
0.0358973
0.0346953
0.0334473
0.0320852
0.0308688
0.0286167
0.042133
0.042133
0.042133
0.042133
0.042133
0.042133
0.042133
0.042133
0.042133
0.042133
0.042133
0.0421331
0.0421351
0.0421661
0.0423094
0.0425379
0.0426684
0.0427048
0.0426694
0.0425477
0.0424499
0.042403
0.0423873
0.0423768
0.042361
0.0423335
0.0422995
0.0422692
0.0422445
0.042223
0.0422054
0.0421925
0.0421828
0.0421745
0.0421668
0.0421618
0.0421601
0.0421695
0.0422064
0.0422631
0.0423207
0.0423655
0.0423957
0.042417
0.042436
0.042457
0.0424815
0.042509
0.0425387
0.0425702
0.0426033
0.042638
0.0426745
0.0427126
0.0427521
0.0427931
0.0428356
0.0428799
0.0429259
0.0429736
0.0430228
0.0430734
0.0431253
0.0431788
0.0432339
0.0432906
0.0433489
0.0434087
0.0434698
0.043532
0.0435953
0.0436594
0.0437243
0.0437897
0.0438556
0.0439216
0.0439877
0.0440537
0.0441194
0.0441849
0.0442497
0.0443136
0.0443762
0.0444372
0.0444961
0.0445525
0.044606
0.0446559
0.0447015
0.0447425
0.0447779
0.0448066
0.0448279
0.0448409
0.0448451
0.0448372
0.0448162
0.0447799
0.0447264
0.0446535
0.0445586
0.0444382
0.0442885
0.0441061
0.0438865
0.0436277
0.0433226
0.0429698
0.0425547
0.0420755
0.0415176
0.0408895
0.040175
0.0393819
0.0384907
0.0375117
0.0364487
0.0352281
0.0338643
0.0325201
0.0300353
0.042133
0.042133
0.042133
0.042133
0.042133
0.042133
0.042133
0.042133
0.042133
0.042133
0.042133
0.0421331
0.0421338
0.0421499
0.042257
0.0424847
0.0426547
0.0427185
0.0426989
0.0425918
0.0424862
0.0424344
0.0424194
0.0424132
0.0424039
0.042382
0.0423497
0.0423195
0.0422958
0.0422757
0.0422596
0.0422479
0.0422404
0.042235
0.0422306
0.0422272
0.0422253
0.042228
0.0422499
0.042297
0.0423571
0.0424117
0.0424519
0.0424797
0.0425016
0.0425236
0.0425487
0.0425774
0.0426087
0.0426419
0.0426767
0.0427132
0.0427516
0.0427916
0.0428332
0.0428763
0.042921
0.0429674
0.0430157
0.0430658
0.0431176
0.0431709
0.0432255
0.0432818
0.0433398
0.0433995
0.043461
0.0435242
0.0435888
0.0436547
0.0437219
0.0437901
0.0438594
0.0439294
0.0440002
0.0440715
0.0441432
0.0442151
0.0442871
0.0443593
0.0444313
0.0445028
0.0445737
0.0446435
0.044712
0.0447788
0.0448435
0.0449055
0.0449643
0.0450194
0.0450701
0.0451157
0.0451555
0.045188
0.0452124
0.0452277
0.0452332
0.0452257
0.0452036
0.0451649
0.0451069
0.0450272
0.0449223
0.0447895
0.0446242
0.0444227
0.044177
0.0438829
0.0435274
0.0431111
0.0426225
0.0420661
0.0414246
0.0407008
0.0398714
0.0389491
0.0379187
0.0367756
0.0355023
0.0342683
0.0320886
0.042133
0.042133
0.042133
0.042133
0.042133
0.042133
0.042133
0.042133
0.042133
0.042133
0.042133
0.042133
0.0421333
0.0421412
0.0422161
0.0424288
0.0426365
0.0427243
0.0427174
0.0426325
0.0425222
0.0424661
0.0424509
0.0424478
0.0424437
0.0424274
0.0423978
0.0423683
0.0423461
0.0423282
0.0423141
0.0423041
0.0422984
0.0422952
0.0422938
0.0422929
0.0422925
0.0422936
0.0423049
0.0423387
0.0423943
0.0424548
0.0425047
0.0425403
0.0425665
0.0425901
0.0426158
0.0426452
0.0426778
0.0427125
0.042749
0.0427871
0.0428271
0.042869
0.0429125
0.0429575
0.0430042
0.0430527
0.0431031
0.0431555
0.0432097
0.0432654
0.0433227
0.0433816
0.0434423
0.0435049
0.0435693
0.0436356
0.0437035
0.0437729
0.0438437
0.0439158
0.0439891
0.0440634
0.0441388
0.0442149
0.0442917
0.0443691
0.0444469
0.0445252
0.0446037
0.0446823
0.0447607
0.0448386
0.0449157
0.0449918
0.0450664
0.0451393
0.0452099
0.0452777
0.0453421
0.0454026
0.0454585
0.045509
0.0455533
0.0455898
0.0456174
0.0456351
0.0456419
0.045635
0.0456112
0.0455692
0.0455054
0.0454176
0.045301
0.0451515
0.0449619
0.0447285
0.0444425
0.0441041
0.0437008
0.0432309
0.0426751
0.0420344
0.0412901
0.0404463
0.0394691
0.0383622
0.0371334
0.0357504
0.0335256
0.042133
0.042133
0.042133
0.042133
0.042133
0.042133
0.042133
0.042133
0.042133
0.042133
0.042133
0.042133
0.0421331
0.0421369
0.0421872
0.0423761
0.0426105
0.0427252
0.0427308
0.0426687
0.0425569
0.0424966
0.0424803
0.0424793
0.0424797
0.0424692
0.042444
0.0424163
0.042396
0.0423807
0.0423688
0.0423605
0.0423561
0.0423542
0.0423544
0.0423565
0.0423584
0.0423607
0.0423673
0.0423893
0.0424355
0.0424966
0.0425543
0.0425983
0.0426301
0.0426562
0.0426826
0.0427125
0.0427461
0.0427822
0.0428201
0.0428597
0.0429012
0.0429447
0.04299
0.0430368
0.0430853
0.0431357
0.0431881
0.0432426
0.0432989
0.0433569
0.0434166
0.0434779
0.0435411
0.0436063
0.0436735
0.0437427
0.0438136
0.0438862
0.0439603
0.0440359
0.0441128
0.044191
0.0442705
0.044351
0.0444325
0.0445148
0.0445978
0.0446816
0.044766
0.044851
0.0449361
0.0450212
0.0451061
0.0451906
0.0452743
0.0453569
0.0454381
0.0455173
0.0455943
0.0456683
0.0457389
0.0458053
0.0458669
0.0459227
0.0459718
0.0460125
0.0460434
0.0460635
0.0460715
0.0460647
0.0460389
0.0459929
0.0459215
0.0458224
0.0456895
0.0455203
0.0453069
0.0450461
0.0447226
0.0443327
0.0438602
0.043307
0.0426545
0.0418965
0.0410066
0.0400155
0.0388546
0.0376257
0.0356131
0.042133
0.042133
0.042133
0.042133
0.042133
0.042133
0.042133
0.042133
0.042133
0.042133
0.042133
0.042133
0.0421331
0.0421349
0.0421682
0.0423308
0.0425799
0.0427222
0.042742
0.0426988
0.042589
0.0425244
0.0425072
0.042508
0.0425133
0.0425081
0.0424885
0.0424637
0.0424453
0.042432
0.0424216
0.0424146
0.0424109
0.04241
0.0424113
0.0424158
0.0424205
0.0424255
0.0424318
0.0424466
0.042482
0.0425388
0.0426011
0.0426531
0.0426913
0.0427209
0.0427487
0.0427791
0.0428134
0.0428506
0.0428898
0.0429307
0.0429736
0.0430186
0.0430654
0.043114
0.0431642
0.0432163
0.0432705
0.0433268
0.0433852
0.0434453
0.0435071
0.0435707
0.0436362
0.0437038
0.0437736
0.0438453
0.043919
0.0439945
0.0440717
0.0441505
0.0442308
0.0443126
0.0443958
0.0444803
0.044566
0.0446528
0.0447406
0.0448294
0.0449192
0.0450098
0.0451011
0.0451927
0.0452846
0.0453766
0.0454683
0.0455596
0.0456501
0.0457396
0.0458275
0.0459135
0.045997
0.0460776
0.0461546
0.0462273
0.0462949
0.0463562
0.0464103
0.0464554
0.0464898
0.0465123
0.0465215
0.0465143
0.0464852
0.0464335
0.0463531
0.0462418
0.0460906
0.0458944
0.0456389
0.0453217
0.0449271
0.0444554
0.0438879
0.0432149
0.0424137
0.0414749
0.0403534
0.0391169
0.0372769
0.042133
0.042133
0.042133
0.042133
0.042133
0.042133
0.042133
0.042133
0.042133
0.042133
0.042133
0.042133
0.0421331
0.042134
0.0421564
0.0422949
0.0425497
0.0427168
0.0427515
0.0427227
0.0426164
0.042549
0.0425314
0.0425357
0.0425457
0.0425449
0.0425309
0.0425092
0.0424922
0.0424802
0.0424706
0.0424645
0.0424615
0.0424615
0.0424644
0.0424705
0.042478
0.0424864
0.0424945
0.0425066
0.0425333
0.0425828
0.042646
0.0427046
0.0427497
0.0427836
0.0428133
0.0428445
0.0428794
0.0429176
0.0429581
0.0430003
0.0430444
0.0430907
0.043139
0.043189
0.0432408
0.0432945
0.0433504
0.0434084
0.0434685
0.0435306
0.0435945
0.0436601
0.0437277
0.0437975
0.0438696
0.0439438
0.04402
0.0440982
0.0441781
0.0442598
0.0443431
0.0444281
0.0445147
0.0446028
0.0446923
0.0447831
0.0448751
0.0449684
0.0450629
0.0451586
0.0452553
0.0453527
0.0454508
0.0455494
0.0456482
0.0457472
0.045846
0.0459444
0.0460421
0.0461386
0.0462336
0.0463267
0.0464174
0.046505
0.046589
0.0466684
0.0467424
0.0468096
0.0468691
0.0469189
0.0469569
0.0469819
0.0469921
0.0469839
0.0469507
0.0468916
0.0467972
0.0466647
0.0464828
0.0462495
0.0459479
0.0455752
0.0451076
0.0445345
0.0438304
0.0429662
0.0419442
0.0407229
0.0390605
0.042133
0.042133
0.042133
0.042133
0.042133
0.042133
0.042133
0.042133
0.042133
0.042133
0.042133
0.042133
0.042133
0.0421336
0.0421495
0.0422688
0.0425238
0.042711
0.0427601
0.0427403
0.0426384
0.0425709
0.0425543
0.0425626
0.0425777
0.0425803
0.0425701
0.0425513
0.0425353
0.0425241
0.0425153
0.0425101
0.0425083
0.0425095
0.0425142
0.0425216
0.0425316
0.0425432
0.042554
0.042566
0.0425873
0.0426289
0.0426898
0.042753
0.0428046
0.0428435
0.0428758
0.042908
0.0429437
0.0429829
0.0430245
0.0430679
0.0431132
0.0431607
0.0432103
0.0432617
0.043315
0.0433701
0.0434275
0.0434871
0.0435489
0.0436127
0.0436784
0.0437459
0.0438155
0.0438873
0.0439614
0.0440378
0.0441164
0.0441969
0.0442794
0.0443637
0.0444497
0.0445376
0.0446272
0.0447185
0.0448114
0.0449058
0.0450016
0.0450989
0.0451977
0.0452979
0.0453994
0.045502
0.0456056
0.04571
0.0458152
0.0459209
0.046027
0.0461333
0.0462395
0.0463452
0.0464503
0.0465543
0.0466568
0.0467574
0.0468556
0.0469508
0.0470421
0.0471285
0.0472093
0.0472829
0.0473482
0.047403
0.047445
0.0474726
0.0474835
0.0474732
0.0474335
0.0473642
0.0472548
0.0471019
0.0468875
0.0466084
0.0462402
0.0457776
0.0451818
0.0444189
0.0434855
0.0423137
0.0407473
0.042133
0.042133
0.042133
0.042133
0.042133
0.042133
0.042133
0.042133
0.042133
0.042133
0.042133
0.042133
0.042133
0.0421334
0.0421458
0.0422516
0.0425046
0.0427076
0.042768
0.0427522
0.0426556
0.0425907
0.0425762
0.0425889
0.0426089
0.0426139
0.0426058
0.0425891
0.0425743
0.042564
0.0425567
0.0425527
0.0425523
0.0425553
0.0425617
0.0425703
0.0425822
0.0425964
0.0426098
0.042623
0.0426417
0.0426767
0.0427333
0.0427988
0.0428561
0.0429
0.0429355
0.0429692
0.0430059
0.0430462
0.043089
0.0431335
0.04318
0.0432287
0.0432795
0.0433322
0.0433868
0.0434433
0.0435021
0.0435631
0.0436264
0.0436918
0.0437592
0.0438284
0.0438997
0.0439734
0.0440495
0.0441279
0.0442085
0.0442912
0.044376
0.0444626
0.0445511
0.0446416
0.0447339
0.044828
0.044924
0.0450216
0.0451208
0.0452217
0.0453243
0.0454285
0.0455342
0.0456413
0.0457497
0.0458593
0.04597
0.0460816
0.0461941
0.0463072
0.0464208
0.0465346
0.0466483
0.0467618
0.0468746
0.0469864
0.047097
0.0472057
0.047312
0.0474151
0.0475143
0.0476085
0.0476967
0.0477774
0.0478493
0.0479095
0.0479557
0.047986
0.0479975
0.0479845
0.0479379
0.0478543
0.0477177
0.0475257
0.0472539
0.0468966
0.0464016
0.045742
0.0448893
0.0437876
0.0423111
0.042133
0.042133
0.042133
0.042133
0.042133
0.042133
0.042133
0.042133
0.042133
0.042133
0.042133
0.042133
0.042133
0.0421334
0.0421443
0.0422428
0.0424942
0.0427073
0.042775
0.0427602
0.0426693
0.0426085
0.0425973
0.0426147
0.0426392
0.0426452
0.0426382
0.0426233
0.0426101
0.0426013
0.0425956
0.0425931
0.0425944
0.0425994
0.0426073
0.0426171
0.0426305
0.0426465
0.0426623
0.0426771
0.0426949
0.0427253
0.042777
0.0428427
0.0429044
0.0429531
0.0429919
0.0430275
0.0430654
0.0431068
0.0431509
0.0431967
0.0432444
0.0432943
0.0433463
0.0434002
0.043456
0.0435139