/*--------------------------------*- C++ -*----------------------------------*\
| =========                 |                                                 |
| \\      /  F ield         | OpenFOAM: The Open Source CFD Toolbox           |
|  \\    /   O peration     | Version:  2412                                  |
|   \\  /    A nd           | Website:  www.openfoam.com                      |
|    \\/     M anipulation  |                                                 |
\*---------------------------------------------------------------------------*/
FoamFile
{
    version     2.0;
    format      ascii;
    arch        "LSB;label=32;scalar=64";
    class       volScalarField;
    location    "0.037";
    object      rho;
}
// * * * * * * * * * * * * * * * * * * * * * * * * * * * * * * * * * * * * * //

dimensions      [1 -3 0 0 0 0 0];

internalField   nonuniform List<scalar> 
78650
(
0.042133
0.042133
0.042133
0.042133
0.042133
0.042133
0.042133
0.0421334
0.0421415
0.0421982
0.0423399
0.0424843
0.0425354
0.0425399
0.0424612
0.0422931
0.0421331
0.0420211
0.0419456
0.0418878
0.0418296
0.0417665
0.0417033
0.0416431
0.041582
0.0415211
0.041475
0.041457
0.0414621
0.0414931
0.0415388
0.04157
0.0415793
0.0415749
0.0415592
0.0415402
0.041525
0.0415134
0.0415034
0.0414939
0.0414848
0.0414763
0.0414684
0.041461
0.0414541
0.0414476
0.0414417
0.0414364
0.0414317
0.0414275
0.0414236
0.0414198
0.041416
0.0414123
0.0414088
0.0414054
0.0414016
0.0413973
0.0413922
0.0413861
0.0413791
0.0413709
0.0413613
0.0413498
0.0413358
0.041319
0.0412988
0.0412749
0.0412466
0.0412132
0.0411739
0.0411282
0.0410757
0.0410155
0.0409468
0.0408682
0.0407784
0.0406763
0.0405608
0.040431
0.0402856
0.0401231
0.0399419
0.0397405
0.0395166
0.0392681
0.0389926
0.0386887
0.0383556
0.037991
0.0375927
0.0371564
0.0366833
0.0361749
0.0356304
0.0350437
0.0344072
0.0337123
0.0330087
0.0322878
0.0315097
0.0306941
0.0299068
0.029148
0.0283881
0.0276017
0.0268131
0.0260217
0.0252677
0.0245587
0.0238767
0.023258
0.0226809
0.0221529
0.0216955
0.0212431
0.0207964
0.0203516
0.0199519
0.0195935
0.0190138
0.042133
0.042133
0.042133
0.042133
0.042133
0.042133
0.042133
0.0421332
0.0421379
0.0421798
0.0423085
0.0424651
0.0425362
0.0425533
0.0424979
0.0423405
0.0421722
0.0420533
0.0419755
0.0419196
0.0418654
0.0418054
0.0417441
0.0416861
0.041629
0.0415695
0.0415161
0.0414862
0.0414812
0.041499
0.041542
0.0415838
0.0416029
0.0416048
0.0415962
0.0415798
0.0415645
0.0415534
0.0415447
0.0415369
0.0415296
0.0415231
0.0415172
0.0415118
0.0415071
0.0415028
0.0414991
0.041496
0.0414936
0.0414917
0.0414903
0.041489
0.0414879
0.041487
0.0414864
0.041486
0.0414855
0.0414847
0.0414832
0.041481
0.041478
0.0414742
0.0414693
0.0414628
0.0414543
0.0414433
0.0414294
0.0414122
0.0413912
0.0413657
0.0413351
0.0412987
0.041256
0.0412065
0.0411494
0.0410836
0.0410078
0.0409207
0.0408215
0.0407092
0.0405826
0.0404405
0.0402812
0.0401029
0.0399037
0.0396818
0.0394353
0.0391618
0.0388594
0.0385256
0.0381599
0.0377602
0.0373263
0.0368544
0.0363413
0.0357887
0.0351996
0.0345729
0.0338985
0.0331814
0.0324327
0.0316595
0.0308546
0.0300232
0.029214
0.0284253
0.0276559
0.0268714
0.0260994
0.0253657
0.0246367
0.0239517
0.0233054
0.0226992
0.022156
0.0216499
0.0211969
0.0207714
0.0203513
0.0199446
0.0192713
0.042133
0.042133
0.042133
0.042133
0.042133
0.042133
0.042133
0.0421331
0.0421357
0.0421648
0.0422762
0.0424405
0.0425352
0.0425649
0.0425286
0.0423863
0.0422129
0.0420875
0.0420071
0.0419525
0.0419021
0.0418455
0.0417856
0.0417289
0.0416748
0.0416186
0.0415623
0.041521
0.0415061
0.0415125
0.0415453
0.0415923
0.0416238
0.0416337
0.0416314
0.0416201
0.0416061
0.041595
0.0415873
0.0415811
0.0415756
0.041571
0.041567
0.0415637
0.041561
0.0415589
0.0415575
0.0415566
0.0415565
0.041557
0.0415581
0.0415594
0.041561
0.0415629
0.0415652
0.0415678
0.0415706
0.0415732
0.0415754
0.0415771
0.0415782
0.0415787
0.0415783
0.0415768
0.0415737
0.0415685
0.0415606
0.0415501
0.0415362
0.0415184
0.0414961
0.0414685
0.0414354
0.0413962
0.0413501
0.0412963
0.0412336
0.0411607
0.0410766
0.0409806
0.0408714
0.0407479
0.0406086
0.0404521
0.0402764
0.0400799
0.0398602
0.0396156
0.0393445
0.0390447
0.0387143
0.0383499
0.0379513
0.0375175
0.0370479
0.0365401
0.0359848
0.0353849
0.0347441
0.0340607
0.0333624
0.0326259
0.0318758
0.0310584
0.0302128
0.0293535
0.0284967
0.0276614
0.0268305
0.0260498
0.0252684
0.0245301
0.0238413
0.0231967
0.0226005
0.0220236
0.0214839
0.0209626
0.0205028
0.0200889
0.0193687
0.042133
0.042133
0.042133
0.042133
0.042133
0.042133
0.042133
0.0421331
0.0421344
0.0421532
0.0422442
0.0424098
0.0425305
0.0425748
0.042551
0.0424319
0.0422583
0.0421255
0.0420414
0.0419868
0.04194
0.041887
0.0418288
0.0417723
0.0417198
0.0416673
0.0416119
0.0415629
0.0415367
0.041533
0.0415518
0.0415968
0.0416401
0.0416615
0.0416655
0.0416606
0.0416495
0.041639
0.0416318
0.0416269
0.0416231
0.0416202
0.041618
0.0416166
0.041616
0.0416161
0.0416168
0.0416182
0.0416203
0.0416232
0.0416267
0.0416306
0.0416348
0.0416395
0.0416446
0.0416502
0.0416561
0.0416621
0.0416679
0.0416733
0.0416783
0.0416829
0.041687
0.0416902
0.0416921
0.0416925
0.0416906
0.0416865
0.0416795
0.0416689
0.0416545
0.0416356
0.0416116
0.0415822
0.0415468
0.0415046
0.0414545
0.0413954
0.0413262
0.0412461
0.0411542
0.0410494
0.0409302
0.0407954
0.0406431
0.0404716
0.0402791
0.0400634
0.0398222
0.0395529
0.0392545
0.0389258
0.0385659
0.0381702
0.0377346
0.0372574
0.0367382
0.0361852
0.0355913
0.0349536
0.0342588
0.0335207
0.0327653
0.0320063
0.0312218
0.0304157
0.0295801
0.0287405
0.0278819
0.0270343
0.0262158
0.0254183
0.0246741
0.0239587
0.0232856
0.0226565
0.022089
0.021537
0.0209985
0.0204921
0.0196251
0.042133
0.042133
0.042133
0.042133
0.042133
0.042133
0.042133
0.0421331
0.0421337
0.0421448
0.0422144
0.0423733
0.0425186
0.04258
0.0425676
0.042477
0.0423082
0.042167
0.0420779
0.0420224
0.0419787
0.0419297
0.0418732
0.0418164
0.0417643
0.0417146
0.0416625
0.0416108
0.0415739
0.0415608
0.0415675
0.041602
0.041651
0.0416862
0.0416998
0.0417006
0.0416946
0.0416856
0.0416788
0.0416748
0.0416725
0.0416713
0.0416709
0.0416712
0.0416725
0.0416747
0.0416776
0.0416812
0.0416856
0.0416909
0.0416969
0.0417034
0.0417103
0.0417177
0.0417256
0.0417342
0.0417432
0.0417526
0.0417619
0.041771
0.0417799
0.0417886
0.0417971
0.041805
0.0418119
0.0418175
0.0418214
0.0418233
0.041823
0.0418196
0.041813
0.0418023
0.0417872
0.0417672
0.0417419
0.0417107
0.0416726
0.0416264
0.0415713
0.0415062
0.0414303
0.0413427
0.0412421
0.0411272
0.0409964
0.0408482
0.0406807
0.0404918
0.0402797
0.0400424
0.0397786
0.0394851
0.03916
0.0388005
0.0384059
0.0379744
0.0375017
0.0369884
0.0364259
0.0358232
0.0351808
0.0344864
0.0337377
0.032951
0.032129
0.0312971
0.0304655
0.0296214
0.0287778
0.0279116
0.0270791
0.0262365
0.0254243
0.0246488
0.0239018
0.0232109
0.0225809
0.0219872
0.0214413
0.020932
0.0200679
0.042133
0.042133
0.042133
0.042133
0.042133
0.042133
0.042133
0.042133
0.0421333
0.0421393
0.0421884
0.0423318
0.0424973
0.0425809
0.0425804
0.0425205
0.0423621
0.0422124
0.0421175
0.0420598
0.0420185
0.0419732
0.0419187
0.0418615
0.0418088
0.0417608
0.0417128
0.0416628
0.0416192
0.0415962
0.0415931
0.0416123
0.0416586
0.0417055
0.0417327
0.0417409
0.0417399
0.0417344
0.0417286
0.0417252
0.041724
0.0417242
0.0417256
0.0417277
0.0417307
0.0417348
0.0417399
0.0417458
0.0417525
0.0417601
0.0417685
0.0417776
0.0417872
0.0417972
0.041808
0.0418194
0.0418316
0.0418441
0.0418569
0.0418696
0.0418823
0.041895
0.0419077
0.0419201
0.0419319
0.0419427
0.0419522
0.0419599
0.0419657
0.0419692
0.04197
0.0419673
0.0419609
0.04195
0.0419345
0.0419138
0.041887
0.0418535
0.0418119
0.0417615
0.0417014
0.0416308
0.0415486
0.0414537
0.0413443
0.0412192
0.0410766
0.0409147
0.0407314
0.0405241
0.0402913
0.0400309
0.0397418
0.03942
0.039063
0.0386687
0.0382363
0.0377666
0.0372524
0.0367005
0.0360998
0.0354575
0.0347711
0.0340296
0.0332434
0.0324007
0.0315422
0.0306476
0.0297541
0.0288372
0.0279537
0.0270626
0.0261789
0.0253441
0.0245308
0.023779
0.0230695
0.0223771
0.0217407
0.0211614
0.0200778
0.042133
0.042133
0.042133
0.042133
0.042133
0.042133
0.042133
0.042133
0.0421331
0.042136
0.0421677
0.0422884
0.0424656
0.0425772
0.0425918
0.0425584
0.0424172
0.0422616
0.0421602
0.0420988
0.0420583
0.042016
0.0419637
0.0419067
0.0418534
0.0418064
0.0417623
0.0417166
0.0416717
0.0416397
0.0416281
0.0416346
0.0416685
0.0417196
0.041761
0.0417812
0.0417861
0.0417847
0.0417808
0.0417781
0.0417778
0.0417794
0.0417822
0.0417859
0.0417907
0.0417967
0.0418038
0.0418119
0.0418209
0.0418308
0.0418417
0.0418534
0.0418657
0.0418785
0.041892
0.0419064
0.0419216
0.0419374
0.0419536
0.0419699
0.0419864
0.042003
0.0420198
0.0420366
0.0420531
0.042069
0.0420838
0.0420974
0.0421095
0.0421195
0.0421271
0.042132
0.0421337
0.0421318
0.0421258
0.0421153
0.0420993
0.0420774
0.0420486
0.0420119
0.0419665
0.0419117
0.0418465
0.0417698
0.0416802
0.0415764
0.0414567
0.0413196
0.0411632
0.0409854
0.0407846
0.0405581
0.0403035
0.0400182
0.0397018
0.0393522
0.0389657
0.0385373
0.0380602
0.0375405
0.0369715
0.0363654
0.0357128
0.0350137
0.0342804
0.0334972
0.0326864
0.0318348
0.0309709
0.0300688
0.0291507
0.0282404
0.0273101
0.0264305
0.025559
0.0247348
0.0239543
0.0231953
0.022483
0.0218356
0.020642
0.042133
0.042133
0.042133
0.042133
0.042133
0.042133
0.042133
0.042133
0.0421331
0.0421343
0.0421526
0.0422462
0.0424237
0.0425655
0.0426015
0.0425871
0.0424731
0.042317
0.0422067
0.0421385
0.0420967
0.042057
0.0420081
0.0419527
0.0418997
0.0418533
0.0418121
0.0417714
0.0417294
0.0416926
0.0416724
0.0416693
0.0416865
0.0417318
0.0417831
0.0418182
0.0418328
0.0418357
0.0418349
0.0418334
0.0418337
0.0418363
0.0418405
0.0418458
0.0418522
0.04186
0.0418691
0.0418794
0.0418906
0.0419029
0.0419163
0.0419305
0.0419454
0.041961
0.0419773
0.0419945
0.0420127
0.0420316
0.0420512
0.042071
0.0420911
0.0421115
0.0421323
0.0421534
0.0421745
0.0421952
0.0422153
0.0422344
0.0422523
0.0422687
0.0422833
0.0422955
0.0423048
0.0423111
0.0423139
0.0423133
0.0423079
0.0422976
0.0422809
0.0422576
0.0422265
0.0421872
0.0421386
0.0420799
0.0420099
0.0419271
0.0418301
0.0417175
0.0415875
0.041438
0.0412666
0.0410712
0.0408505
0.0406023
0.0403246
0.0400132
0.0396651
0.0392781
0.0388501
0.0383834
0.0378681
0.0373107
0.0366955
0.0360321
0.0353137
0.0345442
0.033713
0.0328463
0.031952
0.0310549
0.0301182
0.0292027
0.0282534
0.0273265
0.0264061
0.0255098
0.0246544
0.0238307
0.0230643
0.0223847
0.0211912
0.042133
0.042133
0.042133
0.042133
0.042133
0.042133
0.042133
0.042133
0.042133
0.0421335
0.0421429
0.0422089
0.0423745
0.0425435
0.0426052
0.0426077
0.0425286
0.0423773
0.0422542
0.0421772
0.0421331
0.0420964
0.042052
0.042
0.0419482
0.0419024
0.0418631
0.0418265
0.0417893
0.0417526
0.0417252
0.0417142
0.0417188
0.0417487
0.0418001
0.0418485
0.0418773
0.041888
0.0418903
0.0418907
0.0418919
0.0418951
0.0419005
0.0419073
0.0419153
0.0419248
0.0419358
0.0419481
0.0419616
0.0419762
0.041992
0.0420088
0.0420264
0.0420447
0.0420638
0.0420839
0.042105
0.0421271
0.0421499
0.0421733
0.042197
0.0422212
0.0422459
0.0422711
0.0422966
0.0423221
0.0423473
0.0423718
0.0423955
0.042418
0.042439
0.0424582
0.0424752
0.0424896
0.0425009
0.0425089
0.0425133
0.042514
0.042509
0.0424984
0.0424807
0.0424556
0.0424223
0.0423802
0.042328
0.0422646
0.0421885
0.0420985
0.0419929
0.04187
0.041728
0.0415645
0.0413778
0.0411652
0.040925
0.0406542
0.0403498
0.0400088
0.0396281
0.0392076
0.0387401
0.0382307
0.037668
0.0370648
0.0364078
0.0356983
0.0349403
0.0341123
0.0332331
0.0323146
0.0313495
0.0303777
0.0293976
0.0283948
0.027411
0.026429
0.0254798
0.0245649
0.023693
0.0228981
0.0213986
0.042133
0.042133
0.042133
0.042133
0.042133
0.042133
0.042133
0.042133
0.042133
0.0421332
0.0421374
0.042179
0.042321
0.0425088
0.0426026
0.0426261
0.0425784
0.0424385
0.0423015
0.0422161
0.0421695
0.0421358
0.0420968
0.0420492
0.0419996
0.0419546
0.0419163
0.0418824
0.0418498
0.0418166
0.0417865
0.041768
0.041764
0.0417766
0.0418175
0.0418719
0.0419152
0.041938
0.0419464
0.0419493
0.0419515
0.0419553
0.0419616
0.0419698
0.0419794
0.0419907
0.0420035
0.0420178
0.0420335
0.0420503
0.0420685
0.0420878
0.042108
0.042129
0.0421509
0.0421738
0.0421978
0.042223
0.042249
0.0422757
0.042303
0.0423308
0.0423593
0.0423885
0.0424183
0.0424484
0.0424784
0.042508
0.0425372
0.0425655
0.0425928
0.0426188
0.0426429
0.0426649
0.0426846
0.0427016
0.0427152
0.0427253
0.0427314
0.0427329
0.0427285
0.0427176
0.0426994
0.0426733
0.0426386
0.0425941
0.0425384
0.0424704
0.0423886
0.0422913
0.0421767
0.0420424
0.0418869
0.041708
0.0415037
0.04127
0.0410047
0.0407057
0.0403709
0.0399975
0.0395788
0.0391158
0.0385992
0.038038
0.0374176
0.0367503
0.0360259
0.0352475
0.0344193
0.0335347
0.0326282
0.0316705
0.030716
0.0296979
0.0286916
0.0276706
0.0266654
0.0257049
0.0247897
0.0239506
0.0223884
0.042133
0.042133
0.042133
0.042133
0.042133
0.042133
0.042133
0.042133
0.042133
0.0421331
0.0421347
0.0421579
0.0422683
0.0424622
0.0425939
0.0426416
0.0426156
0.0424958
0.0423505
0.0422576
0.0422072
0.0421753
0.0421417
0.0420996
0.0420531
0.0420094
0.0419718
0.0419395
0.0419101
0.0418812
0.0418525
0.0418289
0.0418178
0.041819
0.0418416
0.0418907
0.0419445
0.0419823
0.0420007
0.0420081
0.0420122
0.0420168
0.0420238
0.0420332
0.0420444
0.0420574
0.042072
0.0420883
0.0421061
0.0421251
0.0421456
0.0421674
0.0421902
0.0422139
0.0422386
0.0422643
0.0422912
0.0423193
0.0423485
0.0423786
0.0424093
0.0424408
0.042473
0.0425061
0.04254
0.0425744
0.0426092
0.0426438
0.0426783
0.0427123
0.0427456
0.0427779
0.0428089
0.0428383
0.0428657
0.0428909
0.0429136
0.0429335
0.0429497
0.0429618
0.0429692
0.0429715
0.0429674
0.0429564
0.0429378
0.0429104
0.0428735
0.0428256
0.0427658
0.0426924
0.0426039
0.0424984
0.042374
0.0422282
0.0420588
0.0418631
0.0416396
0.0413853
0.0410967
0.0407697
0.0403998
0.039988
0.0395268
0.0390196
0.0384527
0.0378379
0.0371598
0.0364242
0.0356267
0.0347536
0.0338326
0.032829
0.0318137
0.030749
0.0297007
0.028638
0.0275805
0.0265468
0.0255378
0.0246331
0.0228777
0.042133
0.042133
0.042133
0.042133
0.042133
0.042133
0.042133
0.042133
0.042133
0.0421331
0.0421336
0.0421449
0.0422217
0.0424055
0.042576
0.0426481
0.0426389
0.0425517
0.0424053
0.0423026
0.0422461
0.0422148
0.0421866
0.0421509
0.0421088
0.0420667
0.0420297
0.041998
0.0419702
0.0419444
0.041919
0.0418946
0.0418775
0.0418714
0.0418784
0.0419123
0.041967
0.0420176
0.0420497
0.0420653
0.042073
0.042079
0.0420866
0.0420969
0.0421096
0.0421243
0.0421409
0.0421591
0.0421789
0.0422002
0.0422229
0.0422471
0.0422724
0.0422988
0.0423261
0.0423546
0.0423843
0.0424153
0.0424476
0.0424809
0.042515
0.0425499
0.0425857
0.0426225
0.0426603
0.042699
0.0427382
0.0427776
0.0428171
0.0428564
0.0428954
0.0429338
0.0429713
0.0430076
0.0430424
0.0430756
0.0431068
0.0431356
0.0431617
0.0431845
0.0432033
0.0432175
0.0432265
0.04323
0.0432272
0.0432168
0.0431983
0.0431699
0.043131
0.0430803
0.0430164
0.0429374
0.0428413
0.042726
0.0425899
0.0424305
0.042246
0.0420328
0.0417878
0.0415077
0.0411895
0.0408322
0.040428
0.0399773
0.0394705
0.0389159
0.0382974
0.0376251
0.0368887
0.0360921
0.035239
0.0343169
0.0333325
0.0323022
0.031208
0.0300883
0.028939
0.0278179
0.0266826
0.0256451
0.0236299
0.042133
0.042133
0.042133
0.042133
0.042133
0.042133
0.042133
0.042133
0.042133
0.042133
0.0421332
0.042138
0.0421855
0.0423437
0.0425423
0.042647
0.0426546
0.0426034
0.0424632
0.0423483
0.0422854
0.0422541
0.0422314
0.0422026
0.0421653
0.0421247
0.0420877
0.0420559
0.0420284
0.0420042
0.041982
0.04196
0.0419403
0.0419288
0.041927
0.0419424
0.0419871
0.0420442
0.0420903
0.0421177
0.042132
0.042141
0.0421497
0.0421608
0.0421749
0.0421914
0.0422098
0.04223
0.0422519
0.0422753
0.0423002
0.0423267
0.0423545
0.0423834
0.0424134
0.0424445
0.042477
0.0425109
0.0425461
0.0425826
0.04262
0.0426583
0.0426976
0.042738
0.0427796
0.0428223
0.0428659
0.0429099
0.0429542
0.0429987
0.0430431
0.0430873
0.0431309
0.0431738
0.0432157
0.0432563
0.0432954
0.0433328
0.043368
0.0434006
0.04343
0.0434558
0.0434771
0.0434933
0.0435041
0.043509
0.0435076
0.0434973
0.0434783
0.0434483
0.0434073
0.0433532
0.0432846
0.0431993
0.0430956
0.042971
0.0428235
0.0426495
0.0424461
0.04221
0.0419386
0.0416291
0.0412752
0.0408764
0.0404238
0.0399211
0.0393543
0.0387333
0.0380404
0.037285
0.0364603
0.0355681
0.0345993
0.0335875
0.0324804
0.031373
0.0302397
0.0291187
0.027972
0.0269296
0.0249746
0.042133
0.042133
0.042133
0.042133
0.042133
0.042133
0.042133
0.042133
0.042133
0.042133
0.0421331
0.0421348
0.0421607
0.042284
0.042493
0.0426372
0.042668
0.0426444
0.0425199
0.0423946
0.0423267
0.0422944
0.0422762
0.0422533
0.0422201
0.0421807
0.0421433
0.0421115
0.0420843
0.0420609
0.0420409
0.0420222
0.0420038
0.0419892
0.0419825
0.0419856
0.0420128
0.0420661
0.0421221
0.0421632
0.0421876
0.0422019
0.0422129
0.042225
0.0422401
0.0422581
0.0422784
0.0423006
0.0423246
0.04235
0.0423771
0.0424057
0.0424359
0.0424673
0.0424999
0.0425336
0.0425687
0.0426053
0.0426435
0.0426829
0.0427235
0.0427651
0.0428077
0.0428516
0.0428968
0.0429433
0.0429909
0.0430392
0.0430881
0.0431374
0.0431869
0.0432365
0.043286
0.043335
0.0433835
0.0434311
0.0434777
0.043523
0.0435668
0.0436087
0.0436481
0.0436846
0.0437176
0.0437466
0.0437711
0.0437902
0.0438035
0.0438102
0.0438107
0.0438007
0.0437816
0.0437505
0.043707
0.0436489
0.0435747
0.0434821
0.0433691
0.0432324
0.0430699
0.0428786
0.0426559
0.0423983
0.042101
0.041762
0.0413728
0.0409343
0.0404356
0.0398832
0.0392595
0.0385715
0.0378057
0.036971
0.0360684
0.0350758
0.0339926
0.032831
0.0315961
0.0303735
0.0290839
0.0278954
0.0255915
0.042133
0.042133
0.042133
0.042133
0.042133
0.042133
0.042133
0.042133
0.042133
0.042133
0.0421331
0.0421336
0.042146
0.0422324
0.0424335
0.0426162
0.042677
0.0426704
0.042574
0.0424445
0.0423699
0.0423344
0.042318
0.042299
0.0422701
0.042233
0.0421962
0.0421649
0.0421384
0.0421156
0.0420968
0.0420809
0.0420655
0.0420512
0.0420417
0.0420391
0.0420498
0.0420902
0.0421483
0.042201
0.0422378
0.0422603
0.0422754
0.0422892
0.0423053
0.0423246
0.0423466
0.0423708
0.0423967
0.0424243
0.0424534
0.0424841
0.0425166
0.0425504
0.0425854
0.0426217
0.0426594
0.0426986
0.0427395
0.0427818
0.0428254
0.0428702
0.0429161
0.0429633
0.0430119
0.0430621
0.0431135
0.043166
0.0432192
0.0432731
0.0433275
0.0433822
0.0434372
0.0434921
0.0435467
0.0436009
0.0436545
0.0437073
0.0437591
0.0438094
0.0438581
0.0439045
0.0439482
0.0439886
0.0440253
0.0440579
0.0440858
0.0441077
0.0441234
0.044132
0.0441336
0.0441242
0.0441047
0.0440723
0.0440262
0.0439639
0.0438839
0.0437835
0.0436607
0.0435124
0.0433353
0.0431256
0.0428792
0.0425934
0.0422609
0.0418813
0.0414449
0.0409539
0.0403933
0.0397708
0.0390716
0.0383045
0.0374549
0.0365249
0.0355181
0.0344231
0.0332623
0.0320717
0.0308214
0.0296356
0.0273515
0.042133
0.042133
0.042133
0.042133
0.042133
0.042133
0.042133
0.042133
0.042133
0.042133
0.042133
0.0421332
0.0421385
0.0421929
0.0423701
0.0425829
0.0426769
0.0426887
0.0426252
0.0424972
0.0424118
0.0423708
0.0423545
0.0423393
0.0423165
0.0422836
0.042248
0.0422175
0.0421919
0.0421696
0.0421514
0.0421372
0.0421249
0.0421133
0.0421035
0.0420986
0.0421003
0.0421234
0.0421742
0.0422328
0.0422818
0.0423151
0.0423367
0.0423534
0.0423706
0.0423908
0.0424143
0.0424403
0.0424682
0.0424977
0.0425288
0.0425616
0.0425961
0.0426322
0.0426696
0.0427083
0.0427484
0.0427901
0.0428336
0.0428786
0.0429252
0.0429729
0.0430219
0.0430722
0.0431241
0.0431777
0.0432327
0.043289
0.0433463
0.0434045
0.0434634
0.0435229
0.0435829
0.0436432
0.0437036
0.043764
0.0438241
0.0438838
0.0439429
0.0440012
0.0440584
0.044114
0.0441677
0.0442189
0.0442672
0.0443121
0.0443532
0.0443901
0.0444218
0.0444471
0.0444657
0.0444765
0.0444794
0.0444708
0.0444507
0.0444164
0.0443668
0.0442998
0.0442132
0.0441036
0.0439678
0.0438025
0.0436042
0.0433701
0.0430942
0.0427742
0.0424009
0.0419746
0.0414823
0.0409273
0.0402937
0.0395903
0.0387973
0.0379218
0.0369535
0.0358867
0.0347349
0.0334273
0.0320747
0.0308039
0.0284267
0.042133
0.042133
0.042133
0.042133
0.042133
0.042133
0.042133
0.042133
0.042133
0.042133
0.042133
0.0421331
0.0421351
0.0421661
0.0423094
0.0425379
0.0426684
0.0427048
0.0426694
0.0425477
0.0424499
0.042403
0.0423873
0.0423768
0.042361
0.0423335
0.0422995
0.0422692
0.0422445
0.042223
0.0422054
0.0421925
0.0421828
0.0421745
0.0421668
0.0421618
0.0421601
0.0421696
0.0422064
0.0422631
0.0423206
0.0423655
0.0423957
0.0424171
0.0424361
0.0424571
0.0424816
0.0425092
0.0425389
0.0425703
0.0426033
0.042638
0.0426745
0.0427127
0.0427523
0.0427933
0.0428357
0.0428798
0.0429257
0.0429734
0.0430226
0.0430732
0.0431251
0.0431785
0.0432335
0.0432902
0.0433487
0.0434086
0.0434698
0.043532
0.0435952
0.0436592
0.043724
0.0437893
0.0438551
0.0439211
0.0439873
0.0440535
0.0441195
0.044185
0.04425
0.0443141
0.0443768
0.0444378
0.0444965
0.0445527
0.044606
0.0446558
0.0447016
0.0447426
0.0447782
0.0448069
0.0448283
0.0448414
0.0448456
0.0448378
0.044817
0.0447808
0.0447275
0.0446544
0.044559
0.0444383
0.0442892
0.0441084
0.0438908
0.0436328
0.0433258
0.0429688
0.0425504
0.0420718
0.0415159
0.040888
0.0401734
0.039384
0.0384975
0.0375076
0.0364096
0.0352535
0.0339051
0.0326034
0.0301647
0.042133
0.042133
0.042133
0.042133
0.042133
0.042133
0.042133
0.042133
0.042133
0.042133
0.042133
0.0421331
0.0421338
0.0421499
0.042257
0.0424847
0.0426547
0.0427185
0.0426989
0.0425918
0.0424862
0.0424344
0.0424194
0.0424132
0.0424039
0.042382
0.0423497
0.0423195
0.0422958
0.0422757
0.0422596
0.0422479
0.0422404
0.042235
0.0422306
0.0422272
0.0422253
0.0422281
0.0422499
0.042297
0.042357
0.0424117
0.0424519
0.0424797
0.0425017
0.0425237
0.0425489
0.0425776
0.0426088
0.042642
0.0426767
0.0427132
0.0427516
0.0427917
0.0428334
0.0428765
0.0429211
0.0429674
0.0430156
0.0430656
0.0431174
0.0431707
0.0432254
0.0432815
0.0433394
0.0433992
0.0434608
0.0435241
0.0435888
0.0436547
0.0437218
0.04379
0.0438591
0.0439291
0.0439998
0.044071
0.0441427
0.0442148
0.0442871
0.0443593
0.0444314
0.0445032
0.0445742
0.0446441
0.0447126
0.0447791
0.0448436
0.0449055
0.0449643
0.0450195
0.0450703
0.045116
0.0451559
0.0451885
0.045213
0.0452283
0.0452338
0.0452265
0.0452045
0.0451658
0.045108
0.0450285
0.0449238
0.0447906
0.0446239
0.04442
0.0441714
0.0438759
0.0435228
0.0431113
0.0426262
0.0420708
0.0414289
0.0407045
0.0398764
0.0389479
0.0379076
0.0367415
0.0354645
0.034205
0.0319995
0.042133
0.042133
0.042133
0.042133
0.042133
0.042133
0.042133
0.042133
0.042133
0.042133
0.042133
0.042133
0.0421333
0.0421412
0.0422161
0.0424288
0.0426365
0.0427243
0.0427174
0.0426325
0.0425222
0.0424661
0.0424509
0.0424478
0.0424437
0.0424274
0.0423978
0.0423683
0.0423461
0.0423282
0.0423141
0.0423041
0.0422984
0.0422952
0.0422937
0.0422929
0.0422925
0.0422937
0.0423049
0.0423387
0.0423943
0.0424547
0.0425047
0.0425403
0.0425666
0.0425902
0.0426159
0.0426454
0.0426779
0.0427126
0.042749
0.0427871
0.0428271
0.042869
0.0429126
0.0429577
0.0430044
0.0430527
0.043103
0.0431553
0.0432095
0.0432652
0.0433225
0.0433813
0.0434419
0.0435045
0.043569
0.0436354
0.0437035
0.0437729
0.0438437
0.0439157
0.0439889
0.0440631
0.0441383
0.0442144
0.0442913
0.0443688
0.0444468
0.0445252
0.0446038
0.0446825
0.0447611
0.0448391
0.0449163
0.0449922
0.0450667
0.0451394
0.0452099
0.0452777
0.0453422
0.0454029
0.0454588
0.0455094
0.0455538
0.0455903
0.045618
0.0456357
0.0456426
0.0456358
0.0456123
0.0455703
0.0455058
0.0454168
0.0452989
0.045149
0.0449605
0.0447302
0.0444483
0.0441125
0.043709
0.0432382
0.0426831
0.0420442
0.0413032
0.040462
0.039496
0.0383971
0.0371719
0.0358377
0.0336235
0.042133
0.042133
0.042133
0.042133
0.042133
0.042133
0.042133
0.042133
0.042133
0.042133
0.042133
0.042133
0.0421331
0.0421369
0.0421872
0.0423761
0.0426105
0.0427252
0.0427308
0.0426687
0.0425569
0.0424966
0.0424803
0.0424793
0.0424797
0.0424692
0.0424439
0.0424163
0.042396
0.0423807
0.0423688
0.0423604
0.042356
0.0423542
0.0423544
0.0423565
0.0423584
0.0423607
0.0423673
0.0423893
0.0424355
0.0424965
0.0425542
0.0425983
0.0426301
0.0426563
0.0426827
0.0427127
0.0427462
0.0427823
0.0428201
0.0428596
0.0429012
0.0429447
0.0429901
0.043037
0.0430855
0.0431358
0.0431881
0.0432424
0.0432987
0.0433568
0.0434164
0.0434777
0.0435408
0.0436059
0.0436732
0.0437425
0.0438135
0.0438862
0.0439602
0.0440358
0.0441126
0.0441908
0.0442701
0.0443506
0.044432
0.0445144
0.0445976
0.0446816
0.0447661
0.0448511
0.0449364
0.0450217
0.0451067
0.0451911
0.0452746
0.0453571
0.0454381
0.0455174
0.0455943
0.0456685
0.0457391
0.0458057
0.0458673
0.0459232
0.0459723
0.0460131
0.0460441
0.0460642
0.0460724
0.0460657
0.0460394
0.045993
0.0459218
0.0458239
0.0456925
0.0455241
0.0453092
0.0450446
0.044717
0.0443244
0.0438489
0.0432913
0.0426362
0.0418802
0.0409929
0.0399938
0.0388167
0.0375876
0.0356068
0.042133
0.042133
0.042133
0.042133
0.042133
0.042133
0.042133
0.042133
0.042133
0.042133
0.042133
0.042133
0.0421331
0.0421349
0.0421682
0.0423308
0.0425799
0.0427222
0.042742
0.0426988
0.042589
0.0425244
0.0425072
0.042508
0.0425133
0.0425081
0.0424885
0.0424637
0.0424453
0.042432
0.0424216
0.0424146
0.0424109
0.04241
0.0424113
0.0424158
0.0424205
0.0424255
0.0424318
0.0424467
0.042482
0.0425388
0.042601
0.0426531
0.0426914
0.0427211
0.0427488
0.0427792
0.0428135
0.0428507
0.0428898
0.0429307
0.0429736
0.0430186
0.0430656
0.0431141
0.0431644
0.0432164
0.0432705
0.0433267
0.043385
0.0434451
0.043507
0.0435705
0.0436359
0.0437035
0.0437732
0.0438451
0.043919
0.0439945
0.0440717
0.0441504
0.0442306
0.0443124
0.0443955
0.0444799
0.0445655
0.0446524
0.0447404
0.0448294
0.0449192
0.0450099
0.0451012
0.0451931
0.0452851
0.0453771
0.0454687
0.0455598
0.0456502
0.0457396
0.0458275
0.0459136
0.0459972
0.0460779
0.046155
0.0462277
0.0462953
0.0463567
0.0464108
0.046456
0.0464904
0.046513
0.0465222
0.046515
0.0464858
0.046434
0.0463525
0.0462391
0.046085
0.0458867
0.0456317
0.045317
0.0449262
0.044459
0.0438953
0.0432217
0.0424141
0.041466
0.040335
0.0390884
0.0372463
0.042133
0.042133
0.042133
0.042133
0.042133
0.042133
0.042133
0.042133
0.042133
0.042133
0.042133
0.042133
0.0421331
0.042134
0.0421564
0.0422949
0.0425497
0.0427168
0.0427515
0.0427227
0.0426164
0.042549
0.0425314
0.0425357
0.0425457
0.0425449
0.0425309
0.0425092
0.0424922
0.0424802
0.0424706
0.0424645
0.0424615
0.0424615
0.0424643
0.0424705
0.042478
0.0424864
0.0424945
0.0425066
0.0425333
0.0425828
0.0426459
0.0427046
0.0427497
0.0427837
0.0428135
0.0428446
0.0428795
0.0429178
0.0429581
0.0430002
0.0430444
0.0430907
0.0431391
0.0431892
0.043241
0.0432946
0.0433503
0.0434082
0.0434684
0.0435305
0.0435943
0.0436599
0.0437275
0.0437972
0.0438692
0.0439435
0.0440199
0.0440981
0.0441781
0.0442597
0.044343
0.0444279
0.0445144
0.0446024
0.0446918
0.0447827
0.0448749
0.0449683
0.045063
0.0451587
0.0452554
0.045353
0.0454513
0.0455499
0.0456487
0.0457475
0.0458462
0.0459445
0.0460421
0.0461387
0.0462338
0.046327
0.0464177
0.0465054
0.0465894
0.0466688
0.0467428
0.0468101
0.0468697
0.0469196
0.0469576
0.0469825
0.0469924
0.0469837
0.0469498
0.0468905
0.0467973
0.0466676
0.0464899
0.0462603
0.0459609
0.0455892
0.0451221
0.0445513
0.0438552
0.0430048
0.0419961
0.0407885
0.0391079
0.042133
0.042133
0.042133
0.042133
0.042133
0.042133
0.042133
0.042133
0.042133
0.042133
0.042133
0.042133
0.042133
0.0421336
0.0421495
0.0422688
0.0425238
0.042711
0.0427601
0.0427403
0.0426384
0.0425709
0.0425543
0.0425626
0.0425777
0.0425803
0.0425701
0.0425513
0.0425353
0.0425241
0.0425153
0.0425101
0.0425083
0.0425094
0.0425142
0.0425216
0.0425316
0.0425432
0.042554
0.042566
0.0425873
0.0426289
0.0426897
0.0427529
0.0428046
0.0428436
0.0428759
0.0429082
0.0429438
0.0429831
0.0430246
0.0430679
0.0431132
0.0431608
0.0432104
0.0432619
0.0433151
0.0433703
0.0434275
0.043487
0.0435487
0.0436126
0.0436782
0.0437457
0.0438152
0.0438869
0.0439611
0.0440376
0.0441163
0.0441969
0.0442793
0.0443636
0.0444496
0.0445374
0.0446269
0.0447181
0.0448109
0.0449054
0.0450014
0.0450988
0.0451977
0.0452979
0.0453994
0.0455022
0.0456059
0.0457105
0.0458157
0.0459213
0.0460272
0.0461334
0.0462395
0.0463453
0.0464504
0.0465545
0.0466571
0.0467578
0.046856
0.0469512
0.0470425
0.047129
0.0472098
0.0472835
0.0473489
0.0474035
0.0474453
0.0474728
0.0474837
0.0474739
0.0474353
0.0473661
0.0472547
0.0470982
0.0468796
0.0465963
0.0462234
0.045755
0.0451504
0.0443768
0.0434338
0.0422598
0.0406932
0.042133
0.042133
0.042133
0.042133
0.042133
0.042133
0.042133
0.042133
0.042133
0.042133
0.042133
0.042133
0.042133
0.0421334
0.0421458
0.0422516
0.0425046
0.0427076
0.042768
0.0427522
0.0426556
0.0425907
0.0425762
0.0425889
0.0426089
0.0426139
0.0426058
0.0425891
0.0425743
0.042564
0.0425567
0.0425527
0.0425523
0.0425552
0.0425617
0.0425703
0.0425822
0.0425964
0.0426099
0.042623
0.0426417
0.0426767
0.0427333
0.0427988
0.0428561
0.0429001
0.0429356
0.0429694
0.043006
0.0430463
0.043089
0.0431335
0.04318
0.0432287
0.0432796
0.0433324
0.043387
0.0434434
0.0435021
0.043563
0.0436263
0.0436917
0.043759
0.0438282
0.0438995
0.0439731
0.0440491
0.0441276
0.0442084
0.0442912
0.0443759
0.0444625
0.044551
0.0446414
0.0447337
0.0448277
0.0449236
0.0450212
0.0451206
0.0452216
0.0453243
0.0454285
0.0455342
0.0456414
0.04575
0.0458598
0.0459705
0.046082
0.0461944
0.0463073
0.0464208
0.0465346
0.0466484
0.046762
0.0468749
0.0469868
0.0470973
0.0472061
0.0473124
0.0474155
0.0475148
0.047609
0.0476973
0.0477779
0.0478497
0.0479099
0.0479561
0.0479861
0.0479972
0.047983
0.0479344
0.0478497
0.0477138
0.0475229
0.0472536
0.0469013
0.0464145
0.0457651
0.0449215
0.0438211
0.0423456
0.042133
0.042133
0.042133
0.042133
0.042133
0.042133
0.042133
0.042133
0.042133
0.042133
0.042133
0.042133
0.042133
0.0421334
0.0421443
0.0422428
0.0424942
0.0427073
0.042775
0.0427602
0.0426693
0.0426085
0.0425973
0.0426147
0.0426392
0.0426452
0.0426382
0.0426233
0.0426101
0.0426013
0.0425956
0.0425931
0.0425944
0.0425994
0.0426073
0.0426171
0.0426304
0.0426465
0.0426624
0.0426771
0.0426949
0.0427253
0.0427769
0.0428427
0.0429044
0.0429532
0.042992
0.0430277
0.0430655
0.043107
0.043151
0.0431967
0.0432444
0.0432943
0.0433464
0.0434004
0.0434562
0.043514
0.0435739
0.0436362
0.0437008