/*--------------------------------*- C++ -*----------------------------------*\
| =========                 |                                                 |
| \\      /  F ield         | OpenFOAM: The Open Source CFD Toolbox           |
|  \\    /   O peration     | Version:  2412                                  |
|   \\  /    A nd           | Website:  www.openfoam.com                      |
|    \\/     M anipulation  |                                                 |
\*---------------------------------------------------------------------------*/
FoamFile
{
    version     2.0;
    format      ascii;
    arch        "LSB;label=32;scalar=64";
    class       volVectorField;
    location    "0.037";
    object      U;
}
// * * * * * * * * * * * * * * * * * * * * * * * * * * * * * * * * * * * * * //

dimensions      [0 1 -1 0 0 0 0];

internalField   nonuniform List<vector> 
78650
(
(210 6.02856e-12 0)
(210 2.07357e-11 0)
(210 4.70134e-12 0)
(210 1.24695e-11 0)
(210 4.21809e-10 0)
(210 4.8743e-08 0)
(210 5.71671e-06 0)
(209.997 0.000543942 0)
(209.941 0.0165737 0)
(209.55 0.16051 0)
(208.592 0.576613 0)
(207.673 1.03709 0)
(207.218 1.30172 0)
(207.278 1.39298 0)
(207.832 1.23401 0)
(208.948 0.824636 0)
(210.029 0.471593 0)
(210.865 0.397194 0)
(211.456 0.481281 0)
(211.919 0.653584 0)
(212.413 0.8427 0)
(212.96 1.02008 0)
(213.511 1.20376 0)
(214.038 1.43005 0)
(214.579 1.70542 0)
(215.134 2.02312 0)
(215.586 2.38692 0)
(215.812 2.8091 0)
(215.87 3.23614 0)
(215.719 3.71614 0)
(215.463 4.22697 0)
(215.317 4.74314 0)
(215.336 5.25146 0)
(215.436 5.78367 0)
(215.615 6.31754 0)
(215.818 6.87714 0)
(215.993 7.47179 0)
(216.142 8.0974 0)
(216.278 8.74995 0)
(216.409 9.4272 0)
(216.534 10.1278 0)
(216.643 10.8548 0)
(216.739 11.6069 0)
(216.823 12.3842 0)
(216.894 13.189 0)
(216.953 14.0222 0)
(217 14.8853 0)
(217.034 15.7791 0)
(217.055 16.7042 0)
(217.065 17.6611 0)
(217.063 18.6493 0)
(217.051 19.6688 0)
(217.029 20.7197 0)
(216.996 21.8029 0)
(216.952 22.9184 0)
(216.899 24.0662 0)
(216.838 25.2462 0)
(216.771 26.4585 0)
(216.7 27.7038 0)
(216.624 28.9829 0)
(216.546 30.297 0)
(216.468 31.6472 0)
(216.392 33.0341 0)
(216.32 34.4591 0)
(216.257 35.924 0)
(216.203 37.4289 0)
(216.163 38.9737 0)
(216.149 40.5609 0)
(216.157 42.1898 0)
(216.195 43.8619 0)
(216.273 45.5789 0)
(216.39 47.3408 0)
(216.561 49.1506 0)
(216.779 51.0091 0)
(217.067 52.919 0)
(217.417 54.8803 0)
(217.851 56.8931 0)
(218.378 58.9558 0)
(219.004 61.0674 0)
(219.755 63.2268 0)
(220.627 65.4331 0)
(221.657 67.6849 0)
(222.824 69.9827 0)
(224.187 72.3199 0)
(225.716 74.6902 0)
(227.479 77.0748 0)
(229.46 79.4702 0)
(231.705 81.8735 0)
(234.224 84.2738 0)
(237.026 86.6389 0)
(240.158 88.9227 0)
(243.591 91.1537 0)
(247.4 93.3242 0)
(251.558 95.4308 0)
(256.171 97.3734 0)
(261.276 99.0675 0)
(266.716 100.486 0)
(272.302 101.686 0)
(278.425 102.643 0)
(285.747 103.154 0)
(292.658 103.464 0)
(299.465 103.514 0)
(306.636 102.926 0)
(314.121 101.884 0)
(321.407 100.849 0)
(328.278 99.5931 0)
(335.789 97.5623 0)
(343.153 95.262 0)
(350.941 92.4491 0)
(357.707 89.8422 0)
(363.927 87.4672 0)
(370.309 84.6823 0)
(375.662 82.0711 0)
(380.892 79.0947 0)
(384.183 77.019 0)
(385.834 75.3994 0)
(387.063 73.4908 0)
(389.54 72.4227 0)
(395.234 71.0013 0)
(403.934 69.7876 0)
(407.022 74.083 0)
(210 1.1862e-11 0)
(210 1.16065e-11 0)
(210 1.07259e-12 0)
(210 1.31858e-11 0)
(210 1.58978e-10 0)
(210 1.87454e-08 0)
(210 2.09199e-06 0)
(209.999 0.000234073 0)
(209.965 0.00893713 0)
(209.674 0.107952 0)
(208.796 0.466555 0)
(207.78 0.952552 0)
(207.197 1.2665 0)
(207.195 1.35676 0)
(207.576 1.27159 0)
(208.62 0.929251 0)
(209.748 0.570615 0)
(210.622 0.469127 0)
(211.222 0.528945 0)
(211.668 0.688039 0)
(212.133 0.87498 0)
(212.656 1.05176 0)
(213.19 1.23093 0)
(213.695 1.45123 0)
(214.2 1.72343 0)
(214.738 2.0401 0)
(215.235 2.39776 0)
(215.545 2.80285 0)
(215.66 3.24438 0)
(215.61 3.69485 0)
(215.373 4.196 0)
(215.145 4.71239 0)
(215.084 5.22919 0)
(215.137 5.75222 0)
(215.258 6.28852 0)
(215.438 6.8426 0)
(215.608 7.42766 0)
(215.75 8.04304 0)
(215.87 8.68709 0)
(215.985 9.35624 0)
(216.091 10.0485 0)
(216.18 10.7663 0)
(216.257 11.508 0)
(216.321 12.2742 0)
(216.37 13.0674 0)
(216.407 13.888 0)
(216.432 14.7381 0)
(216.443 15.6183 0)
(216.441 16.5289 0)
(216.427 17.471 0)
(216.4 18.4442 0)
(216.363 19.448 0)
(216.315 20.4827 0)
(216.254 21.5488 0)
(216.182 22.6467 0)
(216.1 23.7763 0)
(216.008 24.9377 0)
(215.908 26.1308 0)
(215.802 27.3562 0)
(215.689 28.6148 0)
(215.572 29.9075 0)
(215.453 31.236 0)
(215.332 32.6007 0)
(215.213 34.0027 0)
(215.099 35.4442 0)
(214.99 36.9258 0)
(214.891 38.4466 0)
(214.813 40.01 0)
(214.751 41.6153 0)
(214.714 43.2638 0)
(214.71 44.9578 0)
(214.738 46.6972 0)
(214.813 48.4851 0)
(214.927 50.3224 0)
(215.102 52.2126 0)
(215.33 54.156 0)
(215.632 56.1541 0)
(216.013 58.206 0)
(216.482 60.3116 0)
(217.062 62.471 0)
(217.75 64.6838 0)
(218.58 66.9497 0)
(219.533 69.2675 0)
(220.668 71.6325 0)
(221.954 74.0421 0)
(223.46 76.4898 0)
(225.165 78.9734 0)
(227.122 81.4778 0)
(229.337 83.981 0)
(231.821 86.4671 0)
(234.618 88.9297 0)
(237.71 91.3899 0)
(241.178 93.7964 0)
(244.964 96.108 0)
(249.079 98.2587 0)
(253.489 100.245 0)
(258.295 102.117 0)
(263.745 103.796 0)
(269.802 105.174 0)
(275.87 106.188 0)
(281.91 107.07 0)
(288.427 107.587 0)
(296.227 107.669 0)
(304.14 107.11 0)
(311.747 106.225 0)
(318.779 105.449 0)
(326.522 104.068 0)
(333.426 102.653 0)
(341.022 100.487 0)
(347.692 98.3011 0)
(354.063 96.0577 0)
(360.403 93.6637 0)
(366.309 91.5 0)
(372.748 88.7572 0)
(377.942 86.0247 0)
(381.699 83.1996 0)
(384.134 80.3427 0)
(386.41 78.6927 0)
(391.494 77.1205 0)
(400.59 75.7133 0)
(404.751 79.7568 0)
(210 8.0399e-12 0)
(210 8.26427e-12 0)
(210 -7.71749e-12 0)
(210 1.44392e-11 0)
(210 6.08657e-11 0)
(210 6.58793e-09 0)
(210 6.97795e-07 0)
(209.999 8.75838e-05 0)
(209.981 0.0043674 0)
(209.777 0.0679442 0)
(209.013 0.362619 0)
(207.931 0.855622 0)
(207.196 1.21063 0)
(207.125 1.31414 0)
(207.349 1.29391 0)
(208.289 1.03627 0)
(209.442 0.666386 0)
(210.354 0.526311 0)
(210.97 0.554487 0)
(211.407 0.699127 0)
(211.845 0.884368 0)
(212.342 1.06067 0)
(212.861 1.23423 0)
(213.351 1.44719 0)
(213.828 1.71523 0)
(214.334 2.03049 0)
(214.844 2.38454 0)
(215.234 2.78206 0)
(215.411 3.23022 0)
(215.445 3.67477 0)
(215.28 4.16776 0)
(215.008 4.69011 0)
(214.85 5.20824 0)
(214.845 5.72219 0)
(214.913 6.26049 0)
(215.05 6.80369 0)
(215.208 7.37769 0)
(215.344 7.98474 0)
(215.453 8.62054 0)
(215.552 9.28028 0)
(215.64 9.96362 0)
(215.709 10.6725 0)
(215.768 11.4046 0)
(215.812 12.1605 0)
(215.84 12.9428 0)
(215.855 13.7516 0)
(215.856 14.5893 0)
(215.844 15.4566 0)
(215.819 16.3533 0)
(215.781 17.2817 0)
(215.729 18.241 0)
(215.666 19.2304 0)
(215.59 20.2502 0)
(215.502 21.3009 0)
(215.401 22.3831 0)
(215.288 23.4968 0)
(215.164 24.6417 0)
(215.03 25.8181 0)
(214.888 27.0264 0)
(214.738 28.2674 0)
(214.581 29.542 0)
(214.419 30.8521 0)
(214.253 32.1979 0)
(214.086 33.5797 0)
(213.921 35 0)
(213.757 36.4612 0)
(213.6 37.9604 0)
(213.458 39.5022 0)
(213.327 41.0864 0)
(213.218 42.7124 0)
(213.135 44.3841 0)
(213.079 46.1007 0)
(213.062 47.8657 0)
(213.079 49.6798 0)
(213.149 51.547 0)
(213.262 53.4674 0)
(213.442 55.4433 0)
(213.689 57.4739 0)
(214.013 59.5596 0)
(214.434 61.7011 0)
(214.951 63.8976 0)
(215.595 66.1496 0)
(216.349 68.4566 0)
(217.265 70.8183 0)
(218.314 73.2335 0)
(219.56 75.6963 0)
(220.98 78.2013 0)
(222.626 80.7393 0)
(224.503 83.3023 0)
(226.634 85.8824 0)
(229.06 88.4679 0)
(231.763 91.0571 0)
(234.809 93.6074 0)
(238.152 96.1117 0)
(241.885 98.5459 0)
(246.04 100.879 0)
(250.59 103.092 0)
(255.538 105.105 0)
(260.794 106.947 0)
(266.468 108.489 0)
(272.934 109.73 0)
(279.833 110.493 0)
(286.873 111.053 0)
(293.613 111.369 0)
(301.293 111.07 0)
(308.555 110.528 0)
(316.651 109.514 0)
(323.781 108.445 0)
(331.18 106.947 0)
(338.908 104.927 0)
(345.967 102.829 0)
(353.116 100.428 0)
(359.419 98.41 0)
(365.99 95.8191 0)
(371.069 93.4123 0)
(375.193 90.6579 0)
(378.121 87.7027 0)
(380.812 85.7407 0)
(386.262 84.4073 0)
(396.33 82.9238 0)
(400.253 87.9902 0)
(210 1.20083e-11 0)
(210 1.32487e-11 0)
(210 6.05337e-12 0)
(210 1.83504e-11 0)
(210 1.26782e-12 0)
(210 1.42528e-09 0)
(210 1.64172e-07 0)
(210 2.70398e-05 0)
(209.99 0.0018994 0)
(209.857 0.039165 0)
(209.227 0.264813 0)
(208.116 0.73974 0)
(207.227 1.13503 0)
(207.07 1.26654 0)
(207.156 1.31757 0)
(207.964 1.14492 0)
(209.121 0.768939 0)
(210.074 0.592654 0)
(210.708 0.588401 0)
(211.141 0.717295 0)
(211.553 0.89994 0)
(212.023 1.07963 0)
(212.523 1.25469 0)
(213.004 1.46534 0)
(213.461 1.73136 0)
(213.933 2.0453 0)
(214.426 2.39746 0)
(214.863 2.78613 0)
(215.121 3.21808 0)
(215.216 3.67676 0)
(215.158 4.14199 0)
(214.901 4.65435 0)
(214.651 5.17064 0)
(214.554 5.68776 0)
(214.577 6.21012 0)
(214.66 6.75623 0)
(214.791 7.32134 0)
(214.919 7.91621 0)
(215.02 8.54201 0)
(215.106 9.19347 0)
(215.174 9.86902 0)
(215.226 10.5676 0)
(215.267 11.2891 0)
(215.292 12.0336 0)
(215.299 12.8039 0)
(215.293 13.5994 0)
(215.271 14.4244 0)
(215.237 15.2772 0)
(215.189 16.1599 0)
(215.126 17.073 0)
(215.05 18.0162 0)
(214.962 18.9893 0)
(214.861 19.9923 0)
(214.747 21.0254 0)
(214.619 22.0893 0)
(214.477 23.1841 0)
(214.323 24.3096 0)
(214.157 25.466 0)
(213.982 26.6535 0)
(213.797 27.873 0)
(213.603 29.1259 0)
(213.402 30.4124 0)
(213.195 31.734 0)
(212.984 33.0919 0)
(212.772 34.4871 0)
(212.556 35.9242 0)
(212.346 37.3967 0)
(212.144 38.9103 0)
(211.948 40.4683 0)
(211.771 42.0667 0)
(211.612 43.7118 0)
(211.475 45.4014 0)
(211.37 47.1394 0)
(211.291 48.9265 0)
(211.259 50.767 0)
(211.261 52.6617 0)
(211.319 54.6136 0)
(211.433 56.6225 0)
(211.613 58.6897 0)
(211.877 60.8169 0)
(212.223 63.0035 0)
(212.681 65.252 0)
(213.236 67.5618 0)
(213.938 69.9349 0)
(214.756 72.3688 0)
(215.755 74.8622 0)
(216.909 77.4114 0)
(218.274 80.0083 0)
(219.855 82.641 0)
(221.676 85.3032 0)
(223.767 87.9941 0)
(226.117 90.7114 0)
(228.796 93.4075 0)
(231.761 96.0624 0)
(235.088 98.6547 0)
(238.756 101.199 0)
(242.763 103.705 0)
(247.213 106.037 0)
(252.06 108.25 0)
(257.548 110.204 0)
(263.462 111.868 0)
(269.655 113.223 0)
(276.02 114.357 0)
(282.858 115.201 0)
(290.54 115.655 0)
(298.298 115.603 0)
(306.189 115.172 0)
(314.563 114.19 0)
(322.199 113.137 0)
(330.655 111.514 0)
(338.421 109.534 0)
(346.149 107.06 0)
(353.259 104.701 0)
(360.813 101.772 0)
(366.53 99.3994 0)
(371.68 96.2869 0)
(374.823 93.2642 0)
(377.383 90.7429 0)
(382.569 89.5777 0)
(393.244 88.64 0)
(396.84 95.5696 0)
(210 1.8491e-11 0)
(210 7.79396e-12 0)
(210 1.3682e-11 0)
(210 1.41685e-11 0)
(210 -1.18175e-12 0)
(210 1.52539e-10 0)
(210 2.08365e-08 0)
(210 6.3085e-06 0)
(209.995 0.000718562 0)
(209.916 0.0204263 0)
(209.43 0.180409 0)
(208.353 0.61185 0)
(207.319 1.04416 0)
(207.028 1.22397 0)
(207.001 1.33325 0)
(207.639 1.23099 0)
(208.765 0.859193 0)
(209.762 0.645628 0)
(210.426 0.605177 0)
(210.867 0.71748 0)
(211.256 0.894237 0)
(211.692 1.07427 0)
(212.171 1.25037 0)
(212.646 1.46004 0)
(213.093 1.7265 0)
(213.537 2.0412 0)
(213.997 2.39262 0)
(214.446 2.77411 0)
(214.78 3.1955 0)
(214.933 3.66091 0)
(214.967 4.11594 0)
(214.786 4.61394 0)
(214.488 5.13304 0)
(214.284 5.6454 0)
(214.235 6.16166 0)
(214.272 6.69948 0)
(214.36 7.25539 0)
(214.472 7.84098 0)
(214.566 8.45708 0)
(214.64 9.09829 0)
(214.69 9.76471 0)
(214.727 10.4526 0)
(214.749 11.1642 0)
(214.755 11.8971 0)
(214.742 12.6557 0)
(214.713 13.4405 0)
(214.67 14.2515 0)
(214.612 15.0908 0)
(214.54 15.9589 0)
(214.453 16.8569 0)
(214.352 17.7848 0)
(214.238 18.7421 0)
(214.111 19.7287 0)
(213.969 20.745 0)
(213.813 21.7915 0)
(213.641 22.8686 0)
(213.456 23.9762 0)
(213.257 25.1141 0)
(213.047 26.2827 0)
(212.826 27.4828 0)
(212.594 28.7152 0)
(212.352 29.9812 0)
(212.102 31.2816 0)
(211.845 32.6178 0)
(211.583 33.9917 0)
(211.319 35.4023 0)
(211.054 36.8519 0)
(210.794 38.3407 0)
(210.531 39.8775 0)
(210.288 41.4478 0)
(210.054 43.0662 0)
(209.839 44.7291 0)
(209.649 46.4402 0)
(209.481 48.1999 0)
(209.352 50.012 0)
(209.249 51.8777 0)
(209.196 53.8005 0)
(209.187 55.7802 0)
(209.235 57.8186 0)
(209.355 59.9176 0)
(209.546 62.0769 0)
(209.836 64.2994 0)
(210.209 66.584 0)
(210.712 68.9346 0)
(211.314 71.3493 0)
(212.078 73.83 0)
(212.975 76.372 0)
(214.06 78.9722 0)
(215.332 81.6283 0)
(216.818 84.3406 0)
(218.548 87.0996 0)
(220.52 89.886 0)
(222.798 92.6735 0)
(225.347 95.4816 0)
(228.262 98.3103 0)
(231.518 101.144 0)
(235.165 103.922 0)
(239.26 106.53 0)
(243.648 109.031 0)
(248.476 111.302 0)
(253.675 113.512 0)
(259.487 115.473 0)
(265.897 117.105 0)
(272.951 118.329 0)
(279.98 119.243 0)
(287.538 119.793 0)
(294.86 120.042 0)
(302.955 119.823 0)
(310.86 119.141 0)
(318.186 118.433 0)
(326.383 117.194 0)
(333.702 115.748 0)
(341.244 114.021 0)
(349.131 111.738 0)
(355.548 109.677 0)
(361.827 106.79 0)
(366.147 103.707 0)
(369.905 101.205 0)
(376.287 98.9523 0)
(387.683 96.957 0)
(392.092 102.34 0)
(210 3.3212e-12 0)
(210 -3.41947e-12 0)
(210 4.61045e-12 0)
(210 -6.49953e-12 0)
(210 -7.44513e-12 0)
(210 -9.73125e-11 0)
(210 -6.02074e-09 0)
(210 6.54153e-07 0)
(209.998 0.000225847 0)
(209.955 0.00939365 0)
(209.608 0.112111 0)
(208.624 0.477213 0)
(207.46 0.934751 0)
(207.002 1.18924 0)
(206.874 1.31871 0)
(207.325 1.28738 0)
(208.393 0.954752 0)
(209.435 0.714842 0)
(210.131 0.629994 0)
(210.585 0.724476 0)
(210.954 0.898558 0)
(211.357 1.08627 0)
(211.81 1.27109 0)
(212.278 1.48279 0)
(212.722 1.74767 0)
(213.147 2.05848 0)
(213.568 2.40419 0)
(213.996 2.77707 0)
(214.371 3.18479 0)
(214.6 3.63231 0)
(214.692 4.10014 0)
(214.628 4.57109 0)
(214.351 5.07855 0)
(214.057 5.58612 0)
(213.899 6.09998 0)
(213.881 6.62602 0)
(213.924 7.1832 0)
(214.007 7.75419 0)
(214.091 8.35737 0)
(214.153 8.99107 0)
(214.188 9.6492 0)
(214.212 10.3239 0)
(214.214 11.0252 0)
(214.199 11.748 0)
(214.168 12.4936 0)
(214.119 13.2642 0)
(214.054 14.0612 0)
(213.974 14.8856 0)
(213.878 15.7381 0)
(213.768 16.6198 0)
(213.642 17.5307 0)
(213.503 18.4705 0)
(213.35 19.4389 0)
(213.182 20.4362 0)
(212.999 21.463 0)
(212.799 22.5198 0)
(212.585 23.6063 0)
(212.356 24.7227 0)
(212.113 25.8691 0)
(211.859 27.0461 0)
(211.591 28.2546 0)
(211.313 29.4958 0)
(211.023 30.7706 0)
(210.725 32.0803 0)
(210.419 33.4262 0)
(210.106 34.81 0)
(209.789 36.2321 0)
(209.471 37.6945 0)
(209.157 39.1943 0)
(208.85 40.7364 0)
(208.543 42.3271 0)
(208.254 43.9577 0)
(207.982 45.6359 0)
(207.727 47.3635 0)
(207.504 49.1434 0)
(207.3 50.9776 0)
(207.138 52.869 0)
(207.008 54.8185 0)
(206.926 56.828 0)
(206.902 58.9009 0)
(206.938 61.0368 0)
(207.057 63.24 0)
(207.248 65.5095 0)
(207.553 67.851 0)
(207.943 70.2621 0)
(208.478 72.7476 0)
(209.126 75.3031 0)
(209.946 77.93 0)
(210.932 80.623 0)
(212.117 83.3766 0)
(213.524 86.1822 0)
(215.154 89.0352 0)
(217.067 91.9294 0)
(219.236 94.8692 0)
(221.747 97.8236 0)
(224.548 100.764 0)
(227.699 103.656 0)
(231.241 106.484 0)
(235.125 109.323 0)
(239.588 112 0)
(244.38 114.623 0)
(249.787 116.993 0)
(255.668 119.224 0)
(261.931 121.038 0)
(268.647 122.559 0)
(275.858 123.732 0)
(283.604 124.544 0)
(291.008 125.039 0)
(300.025 124.976 0)
(307.627 124.466 0)
(316.998 123.261 0)
(324.987 121.878 0)
(333.177 120.217 0)
(341.4 118.343 0)
(348.37 116.549 0)
(355.148 113.979 0)
(359.485 111.344 0)
(362.828 108.824 0)
(368.474 107.235 0)
(381.136 105.211 0)
(385.68 112.261 0)
(210 7.21247e-12 0)
(210 9.22292e-12 0)
(210 -4.35658e-13 0)
(210 -1.52769e-11 0)
(210 -3.40929e-12 0)
(210 -7.26316e-11 0)
(210 -5.04504e-09 0)
(210 -2.15912e-07 0)
(209.999 5.34868e-05 0)
(209.979 0.00370837 0)
(209.753 0.0626027 0)
(208.915 0.346828 0)
(207.685 0.813215 0)
(207 1.13771 0)
(206.774 1.26892 0)
(207.046 1.31349 0)
(208.009 1.05162 0)
(209.075 0.778534 0)
(209.812 0.634948 0)
(210.294 0.707338 0)
(210.653 0.878911 0)
(211.022 1.07848 0)
(211.443 1.27825 0)
(211.9 1.49587 0)
(212.342 1.75969 0)
(212.755 2.06513 0)
(213.142 2.40236 0)
(213.531 2.76397 0)
(213.911 3.15677 0)
(214.206 3.5884 0)
(214.35 4.06089 0)
(214.386 4.51884 0)
(214.198 5.00995 0)
(213.866 5.51831 0)
(213.597 6.02567 0)
(213.485 6.5457 0)
(213.486 7.0843 0)
(213.528 7.65739 0)
(213.593 8.24978 0)
(213.642 8.87126 0)
(213.67 9.51379 0)
(213.676 10.1836 0)
(213.659 10.8749 0)
(213.627 11.5851 0)
(213.577 12.3176 0)
(213.508 13.075 0)
(213.42 13.8585 0)
(213.316 14.6687 0)
(213.197 15.5061 0)
(213.062 16.3715 0)
(212.912 17.2656 0)
(212.747 18.1879 0)
(212.567 19.1384 0)
(212.372 20.1172 0)
(212.161 21.1249 0)
(211.932 22.162 0)
(211.687 23.2287 0)
(211.426 24.3247 0)
(211.15 25.4502 0)
(210.86 26.6057 0)
(210.556 27.792 0)
(210.239 29.0103 0)
(209.908 30.2617 0)
(209.567 31.5473 0)
(209.214 32.8684 0)
(208.853 34.2258 0)
(208.485 35.6207 0)
(208.113 37.0542 0)
(207.738 38.5287 0)
(207.363 40.0447 0)
(206.995 41.601 0)
(206.636 43.2007 0)
(206.283 44.85 0)
(205.944 46.5462 0)
(205.631 48.2904 0)
(205.329 50.0901 0)
(205.067 51.9459 0)
(204.825 53.8604 0)
(204.625 55.8332 0)
(204.471 57.8693 0)
(204.367 59.9677 0)
(204.333 62.1334 0)
(204.36 64.3653 0)
(204.486 66.6702 0)
(204.682 69.0452 0)
(205.007 71.4983 0)
(205.423 74.0245 0)
(205.991 76.6287 0)
(206.699 79.3077 0)
(207.58 82.0623 0)
(208.654 84.8888 0)
(209.93 87.7825 0)
(211.464 90.7391 0)
(213.229 93.7609 0)
(215.309 96.8302 0)
(217.666 99.9305 0)
(220.393 103.036 0)
(223.496 106.134 0)
(226.956 109.24 0)
(230.925 112.243 0)
(235.164 115.234 0)
(239.975 117.945 0)
(245.071 120.583 0)
(250.893 122.972 0)
(257.431 125.107 0)
(264.145 126.756 0)
(271.903 128.288 0)
(279.211 129.278 0)
(287.356 129.949 0)
(295.422 130.166 0)
(303.846 130.078 0)
(312.88 129.446 0)
(321.163 128.477 0)
(330.906 126.593 0)
(338.536 124.627 0)
(347.416 121.309 0)
(352.77 118.205 0)
(357.285 114.685 0)
(363.499 112.728 0)
(376.455 111.559 0)
(380.483 120.352 0)
(210 9.85612e-12 0)
(210 2.87571e-12 0)
(210 -2.13847e-12 0)
(210 -1.2927e-11 0)
(210 -1.16354e-11 0)
(210 -5.12722e-11 0)
(210 -2.2229e-09 0)
(210 -1.61131e-07 0)
(210 6.27086e-06 0)
(209.991 0.00120119 0)
(209.859 0.0305725 0)
(209.202 0.231015 0)
(207.962 0.66873 0)
(207.055 1.05985 0)
(206.688 1.2118 0)
(206.829 1.32816 0)
(207.626 1.13969 0)
(208.686 0.838014 0)
(209.473 0.646359 0)
(209.995 0.710973 0)
(210.355 0.886129 0)
(210.693 1.09558 0)
(211.076 1.30556 0)
(211.514 1.52458 0)
(211.951 1.78202 0)
(212.356 2.07684 0)
(212.716 2.40154 0)
(213.062 2.74935 0)
(213.414 3.12813 0)
(213.74 3.54422 0)
(213.95 3.99939 0)
(214.04 4.47192 0)
(213.979 4.94001 0)
(213.687 5.43628 0)
(213.343 5.93675 0)
(213.115 6.44956 0)
(213.036 6.98543 0)
(213.044 7.54252 0)
(213.078 8.13117 0)
(213.111 8.74319 0)
(213.129 9.3725 0)
(213.119 10.031 0)
(213.087 10.7103 0)
(213.037 11.4093 0)
(212.968 12.1291 0)
(212.879 12.8721 0)
(212.771 13.6398 0)
(212.645 14.4335 0)
(212.503 15.2538 0)
(212.345 16.1017 0)
(212.17 16.9776 0)
(211.98 17.8813 0)
(211.775 18.8122 0)
(211.554 19.7706 0)
(211.316 20.7571 0)
(211.059 21.7721 0)
(210.785 22.816 0)
(210.494 23.8887 0)
(210.187 24.9901 0)
(209.865 26.1207 0)
(209.527 27.2813 0)
(209.175 28.4729 0)
(208.807 29.6967 0)
(208.426 30.9536 0)
(208.032 32.2451 0)
(207.626 33.5723 0)
(207.21 34.9364 0)
(206.786 36.3383 0)
(206.357 37.7789 0)
(205.926 39.2597 0)
(205.493 40.783 0)
(205.062 42.3504 0)
(204.639 43.962 0)
(204.227 45.6188 0)
(203.826 47.3271 0)
(203.428 49.0924 0)
(203.067 50.9065 0)
(202.714 52.7832 0)
(202.4 54.7176 0)
(202.117 56.7177 0)
(201.874 58.7813 0)
(201.686 60.9142 0)
(201.547 63.1156 0)
(201.493 65.3936 0)
(201.495 67.7447 0)
(201.61 70.1789 0)
(201.8 72.6907 0)
(202.125 75.2887 0)
(202.568 77.9685 0)
(203.167 80.7302 0)
(203.936 83.5697 0)
(204.891 86.4876 0)
(206.071 89.4862 0)
(207.46 92.5597 0)
(209.137 95.6855 0)
(211.066 98.8516 0)
(213.337 102.06 0)
(215.927 105.321 0)
(218.867 108.627 0)
(222.271 111.898 0)
(225.994 115.178 0)
(230.382 118.27 0)
(235.062 121.345 0)
(240.375 124.12 0)
(246.101 126.792 0)
(252.536 129.199 0)
(259.532 131.348 0)
(266.975 133.013 0)
(274.94 134.33 0)
(283.194 135.176 0)
(291.099 135.73 0)
(299.687 135.854 0)
(307.89 135.718 0)
(316.508 134.966 0)
(324.986 133.95 0)
(333.579 131.994 0)
(339.921 129.706 0)
(345.38 126.945 0)
(352.334 124.765 0)
(365.934 122.689 0)
(370.278 130.341 0)
(210 1.45271e-12 0)
(210 -8.02479e-13 0)
(210 -3.74065e-12 0)
(210 -1.96824e-11 0)
(210 -1.88339e-11 0)
(210 -3.95297e-11 0)
(210 -7.49199e-10 0)
(210 -6.87208e-08 0)
(210 -1.90504e-06 0)
(209.997 0.000291673 0)
(209.929 0.01271 0)
(209.46 0.137829 0)
(208.299 0.517227 0)
(207.19 0.95499 0)
(206.628 1.17243 0)
(206.666 1.30115 0)
(207.249 1.18987 0)
(208.264 0.883111 0)
(209.118 0.665448 0)
(209.697 0.723101 0)
(210.064 0.893855 0)
(210.368 1.10295 0)
(210.705 1.31744 0)
(211.115 1.53647 0)
(211.543 1.78678 0)
(211.941 2.07013 0)
(212.283 2.38191 0)
(212.593 2.7157 0)
(212.906 3.07959 0)
(213.227 3.47937 0)
(213.489 3.91865 0)
(213.627 4.39123 0)
(213.662 4.84856 0)
(213.485 5.32926 0)
(213.134 5.82675 0)
(212.796 6.33267 0)
(212.606 6.85841 0)
(212.55 7.4112 0)
(212.554 7.98879 0)
(212.567 8.59154 0)
(212.57 9.21536 0)
(212.548 9.86077 0)
(212.501 10.5274 0)
(212.432 11.2144 0)
(212.345 11.9223 0)
(212.236 12.6524 0)
(212.107 13.4062 0)
(211.959 14.1846 0)
(211.794 14.9884 0)
(211.612 15.8185 0)
(211.413 16.6758 0)
(211.197 17.5604 0)
(210.965 18.472 0)
(210.717 19.4104 0)
(210.451 20.3761 0)
(210.166 21.3698 0)
(209.862 22.3916 0)
(209.54 23.4417 0)
(209.201 24.52 0)
(208.845 25.6268 0)
(208.472 26.7627 0)
(208.082 27.929 0)
(207.676 29.1266 0)
(207.254 30.3568 0)
(206.816 31.6206 0)
(206.365 32.9192 0)
(205.9 34.2536 0)
(205.425 35.6249 0)
(204.941 37.0344 0)
(204.45 38.4833 0)
(203.955 39.973 0)
(203.459 41.5049 0)
(202.964 43.0812 0)
(202.473 44.7046 0)
(201.987 46.3766 0)
(201.515 48.0959 0)
(201.059 49.87 0)
(200.597 51.7114 0)
(200.178 53.598 0)
(199.776 55.5523 0)
(199.41 57.5694 0)
(199.085 59.6557 0)
(198.8 61.8095 0)
(198.585 64.0388 0)
(198.415 66.3403 0)
(198.343 68.7259 0)
(198.326 71.1895 0)
(198.428 73.7434 0)
(198.624 76.3822 0)
(198.954 79.1118 0)
(199.424 81.9329 0)
(200.053 84.8478 0)
(200.878 87.8554 0)
(201.891 90.9484 0)
(203.165 94.1246 0)
(204.664 97.3894 0)
(206.483 100.744 0)
(208.596 104.169 0)
(211.059 107.624 0)
(213.927 111.052 0)
(217.109 114.481 0)
(220.865 117.823 0)
(224.863 121.226 0)
(229.587 124.439 0)
(234.615 127.655 0)
(240.351 130.581 0)
(246.669 133.309 0)
(253.703 135.671 0)
(261.254 137.692 0)
(269.537 139.462 0)
(278.2 140.625 0)
(287.43 141.227 0)
(296.819 141.16 0)
(306.146 140.672 0)
(315.672 139.855 0)
(324.492 138.615 0)
(331.132 136.878 0)
(336.652 134.257 0)
(342.653 133.215 0)
(357.514 131.6 0)
(361.544 141.499 0)
(210 6.82283e-12 0)
(210 4.39557e-12 0)
(210 -1.45586e-11 0)
(210 -2.10366e-11 0)
(210 -1.30461e-11 0)
(210 -1.30341e-11 0)
(210 -2.13262e-10 0)
(210 -2.25514e-08 0)
(210 -1.46512e-06 0)
(209.999 3.6697e-05 0)
(209.968 0.00429669 0)
(209.669 0.0718958 0)
(208.667 0.367503 0)
(207.402 0.824022 0)
(206.609 1.1154 0)
(206.554 1.2302 0)
(206.901 1.18986 0)
(207.834 0.949218 0)
(208.757 0.724989 0)
(209.396 0.754377 0)
(209.773 0.907161 0)
(210.042 1.1072 0)
(210.332 1.32238 0)
(210.708 1.54125 0)
(211.121 1.78348 0)
(211.511 2.05332 0)
(211.839 2.35108 0)
(212.124 2.67198 0)
(212.397 3.02308 0)
(212.687 3.41111 0)
(212.963 3.83873 0)
(213.155 4.29684 0)
(213.232 4.77346 0)
(213.184 5.23525 0)
(212.904 5.72205 0)
(212.516 6.22391 0)
(212.211 6.7418 0)
(212.061 7.28279 0)
(212.014 7.84976 0)
(212.003 8.44104 0)
(211.99 9.05366 0)
(211.957 9.68675 0)
(211.896 10.34 0)
(211.812 11.0126 0)
(211.706 11.705 0)
(211.579 12.4192 0)
(211.431 13.1567 0)
(211.262 13.9184 0)
(211.075 14.7046 0)
(210.87 15.5161 0)
(210.647 16.3537 0)
(210.407 17.2176 0)
(210.15 18.1077 0)
(209.875 19.0239 0)
(209.583 19.9667 0)
(209.271 20.9366 0)
(208.94 21.9341 0)
(208.589 22.9591 0)
(208.219 24.0116 0)
(207.831 25.0917 0)
(207.426 26.2001 0)
(207.003 27.3378 0)
(206.562 28.5057 0)
(206.103 29.7051 0)
(205.626 30.937 0)
(205.134 32.2028 0)
(204.625 33.5033 0)
(204.103 34.8399 0)
(203.569 36.2134 0)
(203.025 37.6253 0)
(202.472 39.077 0)
(201.914 40.5702 0)
(201.352 42.1065 0)
(200.79 43.6879 0)
(200.229 45.3168 0)
(199.672 46.9967 0)
(199.118 48.7309 0)
(198.577 50.5161 0)
(198.052 52.3609 0)
(197.528 54.2739 0)
(197.039 56.2441 0)
(196.577 58.2832 0)
(196.146 60.3924 0)
(195.77 62.5789 0)
(195.426 64.8399 0)
(195.165 67.1867 0)
(194.944 69.6131 0)
(194.829 72.1338 0)
(194.785 74.7425 0)
(194.858 77.4473 0)
(195.049 80.2468 0)
(195.381 83.1428 0)
(195.883 86.1375 0)
(196.549 89.2295 0)
(197.443 92.4227 0)
(198.533 95.7135 0)
(199.911 99.0978 0)
(201.54 102.559 0)
(203.497 106.085 0)
(205.815 109.67 0)
(208.473 113.336 0)
(211.665 117.028 0)
(215.159 120.803 0)
(219.378 124.449 0)
(223.85 128.126 0)
(229.088 131.506 0)
(234.72 134.817 0)
(241.063 137.769 0)
(247.95 140.406 0)
(255.451 142.837 0)
(263.382 144.935 0)
(271.657 146.529 0)
(280.708 147.679 0)
(290.143 148.319 0)
(299.865 148.447 0)
(310.877 147.524 0)
(319.046 145.514 0)
(326.965 142.178 0)
(334.361 139.937 0)
(349.262 138.812 0)
(353.249 149.012 0)
(210 9.00386e-12 0)
(210 -1.8637e-11 0)
(210 -2.62387e-11 0)
(210 -7.45043e-12 0)
(210 -1.15368e-11 0)
(210 -3.38947e-12 0)
(210 -5.49917e-11 0)
(210 -6.17233e-09 0)
(210 -5.17138e-07 0)
(210 -8.87804e-06 0)
(209.988 0.00107868 0)
(209.82 0.0318509 0)
(209.034 0.235616 0)
(207.7 0.673052 0)
(206.665 1.01816 0)
(206.493 1.14487 0)
(206.609 1.18288 0)
(207.402 1.03448 0)
(208.378 0.791312 0)
(209.077 0.767616 0)
(209.475 0.899971 0)
(209.717 1.09074 0)
(209.96 1.30715 0)
(210.297 1.52797 0)
(210.688 1.76285 0)
(211.068 2.01705 0)
(211.385 2.29732 0)
(211.653 2.60265 0)
(211.9 2.93921 0)
(212.152 3.31373 0)
(212.412 3.72857 0)
(212.636 4.17595 0)
(212.756 4.6487 0)
(212.785 5.11244 0)
(212.639 5.58888 0)
(212.286 6.08334 0)
(211.894 6.59334 0)
(211.621 7.1257 0)
(211.492 7.68404 0)
(211.439 8.26668 0)
(211.404 8.8694 0)
(211.358 9.49048 0)
(211.285 10.1309 0)
(211.185 10.7909 0)
(211.06 11.4703 0)
(210.914 12.17 0)
(210.746 12.8916 0)
(210.557 13.6363 0)
(210.347 14.4047 0)
(210.12 15.1976 0)
(209.873 16.0156 0)
(209.608 16.8593 0)
(209.324 17.7284 0)
(209.024 18.6228 0)
(208.704 19.5428 0)
(208.365 20.489 0)
(208.005 21.462 0)
(207.625 22.4619 0)
(207.224 23.4888 0)
(206.805 24.5428 0)
(206.366 25.6243 0)
(205.908 26.7343 0)
(205.43 27.8737 0)
(204.933 29.0438 0)
(204.416 30.2455 0)
(203.88 31.4801 0)
(203.327 32.7485 0)
(202.757 34.0518 0)
(202.172 35.391 0)
(201.574 36.7675 0)
(200.964 38.1825 0)
(200.344 39.6378 0)
(199.717 41.1351 0)
(199.085 42.6761 0)
(198.45 44.263 0)
(197.813 45.8983 0)
(197.178 47.5848 0)
(196.545 49.3265 0)
(195.916 51.1256 0)
(195.3 52.9805 0)
(194.704 54.8975 0)
(194.115 56.885 0)
(193.552 58.9384 0)
(193.033 61.0628 0)
(192.537 63.2631 0)
(192.111 65.5477 0)
(191.709 67.9119 0)
(191.4 70.371 0)
(191.139 72.9177 0)
(190.977 75.5643 0)
(190.906 78.3107 0)
(190.951 81.1634 0)
(191.135 84.1258 0)
(191.459 87.1972 0)
(191.979 90.3852 0)
(192.667 93.6872 0)
(193.613 97.1056 0)
(194.781 100.626 0)
(196.26 104.246 0)
(198.055 107.963 0)
(200.178 111.783 0)
(202.752 115.667 0)
(205.618 119.625 0)
(209.124 123.54 0)
(212.882 127.522 0)
(217.471 131.321 0)
(222.365 135.144 0)
(228.101 138.752 0)
(234.479 142.268 0)
(241.532 145.323 0)
(249.476 148.253 0)
(257.342 150.495 0)
(266.59 152.524 0)
(274.861 154.118 0)
(284.732 155.345 0)
(294.382 155.762 0)
(302.866 155.12 0)
(310.583 153.427 0)
(317.878 152.386 0)
(333.003 151.156 0)
(336.046 161.484 0)
(210 -9.07456e-12 0)
(210 -3.07075e-11 0)
(210 -6.10815e-12 0)
(210 -1.21848e-11 0)
(210 -1.15546e-11 0)
(210 1.36083e-12 0)
(210 -1.19197e-11 0)
(210 -1.46769e-09 0)
(210 -1.50399e-07 0)
(210 -7.80451e-06 0)
(209.996 0.000137431 0)
(209.914 0.0114558 0)
(209.361 0.132887 0)
(208.075 0.508326 0)
(206.81 0.885882 0)
(206.447 1.07868 0)
(206.385 1.17139 0)
(206.988 1.09513 0)
(207.978 0.842967 0)
(208.741 0.77632 0)
(209.171 0.893406 0)
(209.393 1.06979 0)
(209.594 1.27926 0)
(209.888 1.49836 0)
(210.251 1.72648 0)
(210.614 1.96781 0)
(210.919 2.23497 0)
(211.174 2.53096 0)
(211.402 2.85983 0)
(211.625 3.22631 0)
(211.851 3.63203 0)
(212.071 4.07025 0)
(212.231 4.53129 0)
(212.29 5.01106 0)
(212.261 5.47238 0)
(212.014 5.95723 0)
(211.605 6.46548 0)
(211.229 6.98847 0)
(210.993 7.53106 0)
(210.874 8.09761 0)
(210.805 8.68705 0)
(210.742 9.29509 0)
(210.66 9.92049 0)
(210.546 10.5643 0)
(210.406 11.2271 0)
(210.241 11.91 0)
(210.054 12.6142 0)
(209.845 13.3408 0)
(209.615 14.0902 0)
(209.365 14.8629 0)
(209.096 15.6597 0)
(208.807 16.4813 0)
(208.499 17.3277 0)
(208.173 18.1987 0)
(207.828 19.0944 0)
(207.463 20.0155 0)
(207.076 20.9624 0)
(206.668 21.9356 0)
(206.239 22.9349 0)
(205.789 23.9605 0)
(205.32 25.0126 0)
(204.83 26.0921 0)
(204.319 27.1999 0)
(203.787 28.3373 0)
(203.234 29.5052 0)
(202.66 30.7047 0)
(202.066 31.937 0)
(201.454 33.2029 0)
(200.823 34.5036 0)
(200.177 35.8403 0)
(199.515 37.2144 0)
(198.84 38.6273 0)
(198.154 40.0809 0)
(197.458 41.5769 0)
(196.754 43.1175 0)
(196.044 44.7051 0)
(195.33 46.3423 0)
(194.611 48.0322 0)
(193.892 49.7776 0)
(193.176 51.5819 0)
(192.465 53.4484 0)
(191.764 55.3769 0)
(191.084 57.3719 0)
(190.419 59.4418 0)
(189.764 61.5906 0)
(189.173 63.8147 0)
(188.588 66.1227 0)
(188.089 68.5268 0)
(187.615 71.0198 0)
(187.229 73.6139 0)
(186.909 76.3085 0)
(186.689 79.1104 0)
(186.582 82.0229 0)
(186.595 85.0484 0)
(186.771 88.1974 0)
(187.089 91.4651 0)
(187.63 94.8589 0)
(188.357 98.3717 0)
(189.359 102.02 0)
(190.623 105.804 0)
(192.188 109.72 0)
(194.144 113.731 0)
(196.411 117.826 0)
(199.261 121.946 0)
(202.385 126.153 0)
(206.296 130.31 0)
(210.483 134.577 0)
(215.554 138.646 0)
(221.02 142.721 0)
(227.37 146.556 0)
(234.4 150.182 0)
(242.288 153.407 0)
(251.038 156.294 0)
(260.642 158.449 0)
(270.375 160.083 0)
(281.76 161.278 0)
(290.8 161.434 0)
(299.456 160.055 0)
(306.446 159.917 0)
(322.162 159.955 0)
(324.175 173.089 0)
(210 -1.77619e-11 0)
(210 -9.92935e-12 0)
(210 -2.7328e-13 0)
(210 -2.12822e-11 0)
(210 -2.32809e-12 0)
(210 1.62452e-12 0)
(210 -1.20974e-11 0)
(210 -3.28876e-10 0)
(210 -3.74243e-08 0)
(210 -2.89595e-06 0)