/*--------------------------------*- C++ -*----------------------------------*\
| =========                 |                                                 |
| \\      /  F ield         | OpenFOAM: The Open Source CFD Toolbox           |
|  \\    /   O peration     | Version:  2412                                  |
|   \\  /    A nd           | Website:  www.openfoam.com                      |
|    \\/     M anipulation  |                                                 |
\*---------------------------------------------------------------------------*/
FoamFile
{
    version     2.0;
    format      ascii;
    arch        "LSB;label=32;scalar=64";
    class       volVectorField;
    location    "0.013";
    object      U;
}
// * * * * * * * * * * * * * * * * * * * * * * * * * * * * * * * * * * * * * //

dimensions      [0 1 -1 0 0 0 0];

internalField   nonuniform List<vector> 
9922
(
(181.306 25.2664 0)
(190.356 -3.23987 0)
(197.692 -4.7939 0)
(201.72 -3.9641 0)
(204.829 -2.62089 0)
(207.465 -1.3662 0)
(209.129 -0.479909 0)
(209.824 -0.0941301 0)
(209.985 -0.00746315 0)
(210 -0.000114537 0)
(210 3.99928e-06 0)
(210 4.44215e-06 0)
(210 2.59481e-06 0)
(210 9.1134e-07 0)
(210 2.01938e-06 0)
(210 0.000172296 0)
(209.994 0.00893493 0)
(209.924 0.134713 0)
(209.691 0.636839 0)
(209.462 1.30378 0)
(209.489 1.65243 0)
(209.72 1.70995 0)
(210.469 0.924728 0)
(211.753 -0.794336 0)
(213.18 -2.55146 0)
(214.617 -4.00946 0)
(216.094 -5.25903 0)
(217.677 -6.41531 0)
(219.351 -7.52804 0)
(221.15 -8.57952 0)
(223.016 -9.57464 0)
(224.98 -10.4786 0)
(226.941 -11.3237 0)
(228.892 -12.0505 0)
(230.659 -12.69 0)
(232.191 -13.1676 0)
(233.361 -13.5551 0)
(233.982 -13.7023 0)
(234.267 -13.8059 0)
(234.44 -13.8395 0)
(234.628 -13.9681 0)
(234.973 -14.1394 0)
(235.623 -14.3927 0)
(236.67 -14.808 0)
(238.041 -15.3181 0)
(239.638 -15.7747 0)
(241.386 -16.139 0)
(243.285 -16.5028 0)
(245.441 -17.0117 0)
(248.17 -17.7009 0)
(251.933 -18.484 0)
(256.789 -19.1732 0)
(261.58 -19.6926 0)
(265.034 -20.1491 0)
(267.299 -20.6569 0)
(269.27 -21.2372 0)
(270.936 -21.7866 0)
(272.621 -22.3337 0)
(274.293 -22.8683 0)
(275.999 -23.394 0)
(277.666 -23.9241 0)
(279.258 -24.4597 0)
(280.788 -25.0095 0)
(282.224 -25.5578 0)
(283.606 -26.1091 0)
(284.928 -26.6478 0)
(286.183 -27.1732 0)
(287.423 -27.6883 0)
(288.564 -28.1765 0)
(289.729 -28.6622 0)
(290.785 -29.1142 0)
(291.863 -29.5607 0)
(292.867 -29.9882 0)
(293.818 -30.4015 0)
(294.78 -30.818 0)
(295.64 -31.201 0)
(296.513 -31.5773 0)
(297.307 -31.9258 0)
(298.134 -32.2854 0)
(298.85 -32.6111 0)
(299.65 -32.9726 0)
(300.301 -33.2855 0)
(300.978 -33.611 0)
(301.617 -33.9183 0)
(302.235 -34.2068 0)
(302.837 -34.4986 0)
(303.377 -34.765 0)
(303.924 -35.0306 0)
(304.462 -35.287 0)
(304.972 -35.526 0)
(305.481 -35.7657 0)
(305.961 -35.9916 0)
(306.4 -36.1916 0)
(306.839 -36.3995 0)
(307.235 -36.5767 0)
(307.609 -36.7431 0)
(307.973 -36.9204 0)
(308.3 -37.0826 0)
(308.629 -37.2625 0)
(308.949 -37.4492 0)
(309.243 -37.6199 0)
(309.56 -37.8106 0)
(309.822 -37.9603 0)
(310.086 -38.1207 0)
(310.307 -38.2322 0)
(310.534 -38.3619 0)
(310.722 -38.442 0)
(310.91 -38.5484 0)
(311.055 -38.6146 0)
(311.18 -38.7042 0)
(311.259 -38.7629 0)
(311.296 -38.8463 0)
(311.293 -38.8933 0)
(311.279 -38.9883 0)
(311.28 -39.0495 0)
(311.332 -39.1392 0)
(311.454 -39.2336 0)
(311.644 -39.3272 0)
(311.886 -39.4383 0)
(312.185 -39.5782 0)
(312.357 -39.4532 0)
(181.441 24.9337 0)
(190.51 -3.26404 0)
(197.811 -4.74648 0)
(201.834 -3.89466 0)
(204.933 -2.55384 0)
(207.539 -1.31601 0)
(209.166 -0.454731 0)
(209.835 -0.0870627 0)
(209.986 -0.00664696 0)
(210 -9.36108e-05 0)
(210 3.92287e-06 0)
(210 4.31423e-06 0)
(210 2.47886e-06 0)
(210 8.42062e-07 0)
(210 1.78909e-06 0)
(210 0.000151904 0)
(209.995 0.00811798 0)
(209.928 0.127078 0)
(209.695 0.620204 0)
(209.456 1.29733 0)
(209.473 1.65982 0)
(209.695 1.73304 0)
(210.418 0.991904 0)
(211.695 -0.700166 0)
(213.123 -2.45578 0)
(214.556 -3.91232 0)
(216.017 -5.15367 0)
(217.575 -6.29733 0)
(219.222 -7.39583 0)
(220.99 -8.43241 0)
(222.821 -9.41312 0)
(224.752 -10.3043 0)
(226.691 -11.1414 0)
(228.659 -11.8694 0)
(230.518 -12.5273 0)
(232.201 -13.0428 0)
(233.637 -13.486 0)
(234.704 -13.7698 0)
(235.251 -13.9146 0)
(235.535 -13.9909 0)
(235.748 -14.0565 0)
(236.018 -14.1869 0)
(236.487 -14.4371 0)
(237.339 -14.7582 0)
(238.567 -15.1985 0)
(240.119 -15.6165 0)
(241.954 -15.9561 0)
(244.141 -16.3017 0)
(246.932 -16.8219 0)
(250.682 -17.5012 0)
(255.297 -18.226 0)
(259.718 -18.7951 0)
(262.925 -19.2448 0)
(265.158 -19.7137 0)
(267.167 -20.2709 0)
(268.867 -20.8241 0)
(270.583 -21.3723 0)
(272.29 -21.9049 0)
(274.047 -22.4244 0)
(275.777 -22.9423 0)
(277.442 -23.4666 0)
(279.048 -24.0048 0)
(280.541 -24.5496 0)
(282.003 -25.1012 0)
(283.359 -25.646 0)
(284.702 -26.1845 0)
(285.959 -26.7078 0)
(287.182 -27.214 0)
(288.369 -27.711 0)
(289.475 -28.1793 0)
(290.603 -28.6454 0)
(291.612 -29.0747 0)
(292.655 -29.5079 0)
(293.607 -29.9218 0)
(294.527 -30.3219 0)
(295.442 -30.7118 0)
(296.26 -31.0703 0)
(297.049 -31.4158 0)
(297.918 -31.7864 0)
(298.624 -32.1104 0)
(299.372 -32.4545 0)
(300.04 -32.7634 0)
(300.76 -33.0924 0)
(301.388 -33.3835 0)
(302 -33.6707 0)
(302.614 -33.9581 0)
(303.166 -34.2234 0)
(303.727 -34.494 0)
(304.244 -34.7391 0)
(304.761 -34.9863 0)
(305.248 -35.2115 0)
(305.708 -35.4221 0)
(306.142 -35.6194 0)
(306.58 -35.8209 0)
(306.961 -35.9866 0)
(307.342 -36.1668 0)
(307.706 -36.344 0)
(308.046 -36.5139 0)
(308.387 -36.7 0)
(308.702 -36.874 0)
(308.999 -37.0387 0)
(309.301 -37.2046 0)
(309.558 -37.3334 0)
(309.8 -37.4656 0)
(310.012 -37.563 0)
(310.219 -37.6764 0)
(310.405 -37.7525 0)
(310.607 -37.8675 0)
(310.759 -37.942 0)
(310.91 -38.0545 0)
(311.005 -38.137 0)
(311.056 -38.2399 0)
(311.064 -38.3041 0)
(311.063 -38.4082 0)
(311.074 -38.4717 0)
(311.132 -38.555 0)
(311.259 -38.6414 0)
(311.454 -38.726 0)
(311.701 -38.832 0)
(311.996 -38.9628 0)
(312.166 -38.8406 0)
(181.538 24.5907 0)
(190.669 -3.29105 0)
(197.937 -4.69906 0)
(201.951 -3.82319 0)
(205.037 -2.48511 0)
(207.614 -1.2652 0)
(209.204 -0.42973 0)
(209.846 -0.0802318 0)
(209.987 -0.00588766 0)
(210 -7.55523e-05 0)
(210 3.84811e-06 0)
(210 4.17832e-06 0)
(210 2.36424e-06 0)
(210 7.76979e-07 0)
(210 1.58189e-06 0)
(210 0.00013357 0)
(209.995 0.00735574 0)
(209.931 0.119608 0)
(209.701 0.602912 0)
(209.452 1.28842 0)
(209.457 1.66666 0)
(209.67 1.75506 0)
(210.366 1.05841 0)
(211.631 -0.604452 0)
(213.056 -2.35802 0)
(214.486 -3.814 0)
(215.941 -5.04872 0)
(217.486 -6.18078 0)
(219.109 -7.26527 0)
(220.848 -8.28697 0)
(222.647 -9.25297 0)
(224.547 -10.1296 0)
(226.465 -10.9552 0)
(228.431 -11.6788 0)
(230.311 -12.3503 0)
(232.098 -12.8865 0)
(233.656 -13.3496 0)
(235.103 -13.7255 0)
(236.15 -14.0131 0)
(236.778 -14.1533 0)
(237.148 -14.2846 0)
(237.488 -14.358 0)
(237.906 -14.5442 0)
(238.612 -14.8347 0)
(239.743 -15.2061 0)
(241.342 -15.5757 0)
(243.46 -15.9039 0)
(246.248 -16.2512 0)
(249.865 -16.7555 0)
(254.076 -17.3594 0)
(257.959 -17.9391 0)
(260.84 -18.3958 0)
(263.019 -18.8414 0)
(265.049 -19.3454 0)
(266.785 -19.8725 0)
(268.525 -20.4216 0)
(270.253 -20.9569 0)
(272.053 -21.4725 0)
(273.835 -21.9828 0)
(275.57 -22.4931 0)
(277.239 -23.0179 0)
(278.808 -23.5509 0)
(280.325 -24.0988 0)
(281.752 -24.6425 0)
(283.142 -25.1895 0)
(284.464 -25.7208 0)
(285.737 -26.2425 0)
(286.971 -26.7484 0)
(288.132 -27.2353 0)
(289.289 -27.7141 0)
(290.352 -28.1617 0)
(291.432 -28.6075 0)
(292.417 -29.0263 0)
(293.392 -29.442 0)
(294.329 -29.8422 0)
(295.206 -30.2197 0)
(296.063 -30.5874 0)
(296.851 -30.9286 0)
(297.668 -31.2839 0)
(298.385 -31.6105 0)
(299.175 -31.9584 0)
(299.838 -32.2569 0)
(300.531 -32.5674 0)
(301.161 -32.8566 0)
(301.804 -33.1487 0)
(302.373 -33.4127 0)
(302.931 -33.6757 0)
(303.468 -33.928 0)
(303.994 -34.1744 0)
(304.498 -34.4104 0)
(304.975 -34.632 0)
(305.437 -34.8414 0)
(305.878 -35.0466 0)
(306.283 -35.2344 0)
(306.678 -35.4178 0)
(307.071 -35.6124 0)
(307.435 -35.794 0)
(307.776 -35.9636 0)
(308.119 -36.1416 0)
(308.416 -36.2885 0)
(308.706 -36.4367 0)
(308.973 -36.5652 0)
(309.219 -36.6753 0)
(309.453 -36.7892 0)
(309.667 -36.8905 0)
(309.877 -37.0077 0)
(310.069 -37.1103 0)
(310.292 -37.2448 0)
(310.451 -37.3427 0)
(310.64 -37.4822 0)
(310.749 -37.5878 0)
(310.801 -37.6985 0)
(310.801 -37.7725 0)
(310.787 -37.8714 0)
(310.785 -37.9283 0)
(310.835 -37.997 0)
(310.962 -38.0693 0)
(311.165 -38.1389 0)
(311.421 -38.2312 0)
(311.717 -38.3467 0)
(311.887 -38.2149 0)
(181.68 24.2337 0)
(190.838 -3.31113 0)
(198.069 -4.64778 0)
(202.073 -3.7505 0)
(205.145 -2.41552 0)
(207.69 -1.21422 0)
(209.242 -0.405036 0)
(209.857 -0.0736498 0)
(209.989 -0.00518452 0)
(210 -6.01059e-05 0)
(210 3.7801e-06 0)
(210 4.04033e-06 0)
(210 2.24867e-06 0)
(210 7.15214e-07 0)
(210 1.3964e-06 0)
(210 0.000117135 0)
(209.996 0.00664698 0)
(209.935 0.11234 0)
(209.706 0.585467 0)
(209.448 1.28023 0)
(209.441 1.67359 0)
(209.645 1.77615 0)
(210.314 1.12393 0)
(211.571 -0.508706 0)
(212.997 -2.26048 0)
(214.424 -3.71615 0)
(215.866 -4.94411 0)
(217.391 -6.06494 0)
(218.989 -7.13648 0)
(220.7 -8.14441 0)
(222.466 -9.09667 0)
(224.332 -9.95984 0)
(226.216 -10.7739 0)
(228.165 -11.4892 0)
(230.076 -12.1588 0)
(231.947 -12.7128 0)
(233.635 -13.207 0)
(235.156 -13.5843 0)
(236.602 -13.9614 0)
(237.784 -14.2405 0)
(238.642 -14.4332 0)
(239.303 -14.6171 0)
(239.948 -14.7958 0)
(240.77 -15.0254 0)
(241.986 -15.3465 0)
(243.795 -15.6737 0)
(246.308 -15.9743 0)
(249.505 -16.2717 0)
(253.025 -16.6442 0)
(256.223 -17.0805 0)
(258.736 -17.5411 0)
(260.869 -18.0147 0)
(262.891 -18.4826 0)
(264.656 -18.9571 0)
(266.414 -19.4782 0)
(268.154 -20.0149 0)
(269.981 -20.5309 0)
(271.811 -21.0347 0)
(273.61 -21.5356 0)
(275.351 -22.0451 0)
(276.993 -22.5664 0)
(278.585 -23.1025 0)
(280.067 -23.6436 0)
(281.535 -24.19 0)
(282.896 -24.7283 0)
(284.254 -25.2616 0)
(285.512 -25.7771 0)
(286.755 -26.2818 0)
(287.931 -26.7694 0)
(289.061 -27.2401 0)
(290.168 -27.6968 0)
(291.196 -28.1282 0)
(292.222 -28.5561 0)
(293.182 -28.9666 0)
(294.102 -29.3593 0)
(295.013 -29.7407 0)
(295.829 -30.0915 0)
(296.61 -30.4319 0)
(297.476 -30.7967 0)
(298.184 -31.1161 0)
(298.939 -31.4448 0)
(299.617 -31.741 0)
(300.339 -32.054 0)
(300.967 -32.3458 0)
(301.551 -32.615 0)
(302.178 -32.9017 0)
(302.718 -33.1477 0)
(303.264 -33.3946 0)
(303.78 -33.6314 0)
(304.275 -33.8604 0)
(304.767 -34.0843 0)
(305.205 -34.2885 0)
(305.637 -34.4928 0)
(306.047 -34.6935 0)
(306.434 -34.8855 0)
(306.832 -35.0914 0)
(307.177 -35.2611 0)
(307.518 -35.434 0)
(307.836 -35.586 0)
(308.126 -35.7182 0)
(308.401 -35.8428 0)
(308.659 -35.9564 0)
(308.907 -36.0646 0)
(309.155 -36.1824 0)
(309.388 -36.2976 0)
(309.617 -36.4268 0)
(309.822 -36.5494 0)
(310.061 -36.6965 0)
(310.226 -36.811 0)
(310.441 -36.9633 0)
(310.559 -37.0769 0)
(310.603 -37.1814 0)
(310.586 -37.2556 0)
(310.543 -37.3438 0)
(310.514 -37.3931 0)
(310.541 -37.4479 0)
(310.655 -37.506 0)
(310.854 -37.5567 0)
(311.109 -37.6322 0)
(311.4 -37.7322 0)
(311.568 -37.5938 0)
(181.795 23.8648 0)
(191.015 -3.33292 0)
(198.208 -4.59591 0)
(202.197 -3.67561 0)
(205.255 -2.34427 0)
(207.768 -1.16272 0)
(209.279 -0.380609 0)
(209.867 -0.067325 0)
(209.99 -0.00453648 0)
(210 -4.70234e-05 0)
(210 3.72468e-06 0)
(210 3.8993e-06 0)
(210 2.13329e-06 0)
(210 6.56453e-07 0)
(210 1.23049e-06 0)
(210 0.000102432 0)
(209.996 0.00598901 0)
(209.939 0.10526 0)
(209.713 0.567449 0)
(209.445 1.2695 0)
(209.425 1.67995 0)
(209.62 1.79613 0)
(210.261 1.18861 0)
(211.506 -0.411546 0)
(212.928 -2.16074 0)
(214.354 -3.61681 0)
(215.791 -4.83951 0)
(217.306 -5.95023 0)
(218.885 -7.00919 0)
(220.57 -8.00346 0)
(222.305 -8.94197 0)
(224.14 -9.79086 0)
(225.995 -10.5918 0)
(227.919 -11.2967 0)
(229.815 -11.9634 0)
(231.705 -12.5264 0)
(233.489 -13.0376 0)
(235.161 -13.4451 0)
(236.663 -13.8124 0)
(238.185 -14.1442 0)
(239.566 -14.4839 0)
(240.828 -14.7406 0)
(242.016 -15.0025 0)
(243.289 -15.2766 0)
(244.84 -15.5876 0)
(246.846 -15.858 0)
(249.296 -16.0569 0)
(251.942 -16.2011 0)
(254.444 -16.3746 0)
(256.647 -16.7241 0)
(258.756 -17.1974 0)
(260.733 -17.6678 0)
(262.517 -18.1106 0)
(264.286 -18.5759 0)
(266.043 -19.0864 0)
(267.888 -19.6026 0)
(269.747 -20.1061 0)
(271.602 -20.5977 0)
(273.405 -21.0955 0)
(275.12 -21.6005 0)
(276.774 -22.1232 0)
(278.331 -22.6531 0)
(279.851 -23.196 0)
(281.284 -23.733 0)
(282.688 -24.2735 0)
(284.019 -24.7985 0)
(285.304 -25.3155 0)
(286.542 -25.8165 0)
(287.714 -26.3021 0)
(288.865 -26.7745 0)
(289.942 -27.2235 0)
(291.002 -27.6597 0)
(292.011 -28.0829 0)
(292.961 -28.4878 0)
(293.92 -28.8865 0)
(294.776 -29.25 0)
(295.649 -29.6132 0)
(296.43 -29.9517 0)
(297.248 -30.303 0)
(297.964 -30.6179 0)
(298.757 -30.9509 0)
(299.419 -31.2416 0)
(300.11 -31.5531 0)
(300.722 -31.8292 0)
(301.368 -32.1212 0)
(301.941 -32.3776 0)
(302.502 -32.6261 0)
(303.031 -32.8611 0)
(303.562 -33.0931 0)
(304.07 -33.3199 0)
(304.532 -33.527 0)
(305.011 -33.7526 0)
(305.438 -33.9619 0)
(305.855 -34.1754 0)
(306.241 -34.3738 0)
(306.622 -34.5743 0)
(306.951 -34.7278 0)
(307.284 -34.8951 0)
(307.577 -35.0177 0)
(307.866 -35.1476 0)
(308.139 -35.2607 0)
(308.411 -35.3837 0)
(308.676 -35.5072 0)
(308.942 -35.6428 0)
(309.189 -35.7751 0)
(309.432 -35.9169 0)
(309.641 -36.044 0)
(309.876 -36.1917 0)
(310.04 -36.3046 0)
(310.236 -36.4481 0)
(310.346 -36.5394 0)
(310.378 -36.6249 0)
(310.34 -36.6787 0)
(310.27 -36.7543 0)
(310.212 -36.7934 0)
(310.215 -36.8457 0)
(310.312 -36.9023 0)
(310.511 -36.9512 0)
(310.776 -37.0258 0)
(311.072 -37.1178 0)
(311.24 -36.9778 0)
(181.957 23.4805 0)
(191.205 -3.35023 0)
(198.35 -4.53977 0)
(202.325 -3.59928 0)
(205.368 -2.2722 0)
(207.846 -1.11116 0)
(209.317 -0.356571 0)
(209.877 -0.061269 0)
(209.991 -0.00394246 0)
(210 -3.60637e-05 0)
(210 3.68026e-06 0)
(210 3.75836e-06 0)
(210 2.01709e-06 0)
(210 6.00425e-07 0)
(210 1.08237e-06 0)
(210 8.93191e-05 0)
(209.996 0.0053803 0)
(209.942 0.0983984 0)
(209.719 0.549273 0)
(209.441 1.25932 0)
(209.409 1.68643 0)
(209.595 1.81517 0)
(210.21 1.25221 0)
(211.443 -0.314307 0)
(212.866 -2.06103 0)
(214.29 -3.5177 0)
(215.718 -4.73502 0)
(217.215 -5.83585 0)
(218.773 -6.88315 0)
(220.433 -7.86487 0)
(222.139 -8.79069 0)
(223.941 -9.62665 0)
(225.761 -10.4154 0)
(227.656 -11.1085 0)
(229.538 -11.7674 0)
(231.448 -12.326 0)
(233.274 -12.8511 0)
(235.026 -13.2742 0)
(236.674 -13.6667 0)
(238.224 -13.9855 0)
(239.813 -14.3233 0)
(241.42 -14.6374 0)
(243.03 -14.9813 0)
(244.705 -15.3097 0)
(246.496 -15.6123 0)
(248.449 -15.8024 0)
(250.511 -15.8612 0)
(252.564 -15.8981 0)
(254.581 -16.0602 0)
(256.643 -16.4098 0)
(258.553 -16.8537 0)
(260.352 -17.3066 0)
(262.112 -17.7411 0)
(263.883 -18.196 0)
(265.738 -18.6848 0)
(267.619 -19.1857 0)
(269.512 -19.6743 0)
(271.374 -20.1599 0)
(273.158 -20.6523 0)
(274.885 -21.1577 0)
(276.513 -21.6765 0)
(278.104 -22.208 0)
(279.593 -22.743 0)
(281.074 -23.2819 0)
(282.447 -23.8138 0)
(283.818 -24.3411 0)
(285.086 -24.8527 0)
(286.335 -25.3524 0)
(287.524 -25.8405 0)
(288.649 -26.3068 0)
(289.766 -26.7622 0)
(290.79 -27.191 0)
(291.819 -27.615 0)
(292.782 -28.0237 0)
(293.695 -28.407 0)
(294.624 -28.7844 0)
(295.424 -29.1257 0)
(296.213 -29.4644 0)
(297.075 -29.8227 0)
(297.785 -30.1332 0)
(298.537 -30.4547 0)
(299.193 -30.747 0)
(299.908 -31.0674 0)
(300.509 -31.3344 0)
(301.117 -31.5981 0)
(301.727 -31.8567 0)
(302.284 -32.0994 0)
(302.837 -32.3361 0)
(303.357 -32.5619 0)
(303.858 -32.7802 0)
(304.361 -33.0125 0)
(304.815 -33.2285 0)
(305.262 -33.4543 0)
(305.666 -33.6613 0)
(306.059 -33.8659 0)
(306.409 -34.0402 0)
(306.73 -34.1866 0)
(307.043 -34.3328 0)
(307.335 -34.4513 0)
(307.635 -34.5867 0)
(307.924 -34.7125 0)
(308.225 -34.858 0)
(308.512 -35.0031 0)
(308.8 -35.1581 0)
(309.059 -35.3019 0)
(309.311 -35.4489 0)
(309.524 -35.5722 0)
(309.757 -35.7107 0)
(309.924 -35.8113 0)
(310.076 -35.9181 0)
(310.167 -35.9736 0)
(310.192 -36.0395 0)
(310.152 -36.0642 0)
(310.076 -36.1273 0)
(310.012 -36.1486 0)
(310.011 -36.1985 0)
(310.112 -36.2569 0)
(310.314 -36.3173 0)
(310.58 -36.4014 0)
(310.878 -36.5045 0)
(311.044 -36.3683 0)
(182.112 23.0815 0)
(191.405 -3.36563 0)
(198.495 -4.4818 0)
(202.456 -3.52055 0)
(205.484 -2.19851 0)
(207.926 -1.05923 0)
(209.354 -0.332898 0)
(209.887 -0.0554893 0)
(209.992 -0.00340106 0)
(210 -2.69988e-05 0)
(210 3.64618e-06 0)
(210 3.61577e-06 0)
(210 1.90131e-06 0)
(210 5.47146e-07 0)
(210 9.50225e-07 0)
(210 7.76503e-05 0)
(209.997 0.00481831 0)
(209.946 0.091746 0)
(209.726 0.530619 0)
(209.44 1.24654 0)
(209.393 1.69232 0)
(209.569 1.83306 0)
(210.157 1.31479 0)
(211.375 -0.215833 0)
(212.794 -1.95908 0)
(214.218 -3.41686 0)
(215.642 -4.63012 0)
(217.133 -5.72226 0)
(218.675 -6.75838 0)
(220.313 -7.72775 0)
(221.992 -8.64098 0)
(223.765 -9.46358 0)
(225.555 -10.2393 0)
(227.418 -10.92 0)
(229.274 -11.568 0)
(231.167 -12.1213 0)
(233.022 -12.6454 0)
(234.839 -13.0824 0)
(236.545 -13.4897 0)
(238.225 -13.8258 0)
(239.837 -14.1541 0)
(241.487 -14.4522 0)
(243.202 -14.7748 0)
(244.986 -15.0833 0)
(246.816 -15.3669 0)
(248.695 -15.5405 0)
(250.616 -15.5949 0)
(252.583 -15.6234 0)
(254.543 -15.7713 0)
(256.388 -16.0782 0)
(258.192 -16.5081 0)
(259.934 -16.9504 0)
(261.716 -17.3738 0)
(263.575 -17.8096 0)
(265.476 -18.283 0)
(267.397 -18.7675 0)
(269.3 -19.2478 0)
(271.145 -19.7255 0)
(272.933 -20.216 0)
(274.634 -20.7171 0)
(276.285 -21.2358 0)
(277.847 -21.7604 0)
(279.379 -22.2961 0)
(280.826 -22.8258 0)
(282.245 -23.3599 0)
(283.587 -23.8794 0)
(284.886 -24.3923 0)
(286.131 -24.8909 0)
(287.308 -25.3735 0)
(288.472 -25.8485 0)
(289.536 -26.2916 0)
(290.619 -26.7306 0)
(291.605 -27.1458 0)
(292.581 -27.5512 0)
(293.526 -27.939 0)
(294.389 -28.2982 0)
(295.26 -28.6577 0)
(296.036 -28.99 0)
(296.862 -29.3357 0)
(297.567 -29.6437 0)
(298.351 -29.9792 0)
(299 -30.2688 0)
(299.686 -30.57 0)
(300.319 -30.8348 0)
(300.963 -31.0979 0)
(301.556 -31.3475 0)
(302.107 -31.5879 0)
(302.633 -31.8164 0)
(303.173 -32.0509 0)
(303.671 -32.2723 0)
(304.158 -32.4935 0)
(304.616 -32.7098 0)
(305.073 -32.9316 0)
(305.483 -33.1309 0)
(305.878 -33.3245 0)
(306.218 -33.4768 0)
(306.542 -33.6281 0)
(306.849 -33.7712 0)
(307.149 -33.9082 0)
(307.46 -34.0609 0)
(307.756 -34.202 0)
(308.074 -34.3635 0)
(308.363 -34.509 0)
(308.653 -34.6608 0)
(308.905 -34.7882 0)
(309.146 -34.916 0)
(309.354 -35.0174 0)
(309.558 -35.1261 0)
(309.717 -35.2026 0)
(309.838 -35.2822 0)
(309.908 -35.3243 0)
(309.928 -35.3877 0)
(309.895 -35.4032 0)
(309.832 -35.4749 0)
(309.781 -35.4964 0)
(309.789 -35.5568 0)
(309.893 -35.6207 0)
(310.092 -35.6883 0)
(310.352 -35.7768 0)
(310.647 -35.8876 0)
(310.812 -35.7553 0)
(182.31 22.6674 0)
(191.611 -3.3788 0)
(198.641 -4.41964 0)
(202.59 -3.44018 0)
(205.603 -2.12403 0)
(208.007 -1.00734 0)
(209.391 -0.309703 0)
(209.897 -0.0499964 0)
(209.993 -0.00291082 0)
(210 -1.96088e-05 0)
(210 3.62024e-06 0)
(210 3.47373e-06 0)
(210 1.78554e-06 0)
(210 4.96559e-07 0)
(210 8.32475e-07 0)
(210 6.72996e-05 0)
(209.997 0.00430124 0)
(209.949 0.0853263 0)
(209.732 0.511829 0)
(209.438 1.23409 0)
(209.377 1.69843 0)
(209.544 1.84998 0)
(210.105 1.37622 0)
(211.31 -0.117287 0)
(212.728 -1.85696 0)
(214.152 -3.31603 0)
(215.57 -4.52513 0)
(217.045 -5.60863 0)
(218.57 -6.63433 0)
(220.187 -7.59241 0)
(221.84 -8.49413 0)
(223.583 -9.3047 0)
(225.339 -10.0689 0)
(227.171 -10.7377 0)
(228.997 -11.3754 0)
(230.869 -11.9206 0)
(232.714 -12.4416 0)
(234.567 -12.8751 0)
(236.354 -13.2908 0)
(238.083 -13.6377 0)
(239.779 -13.9683 0)
(241.5 -14.2712 0)
(243.233 -14.5815 0)
(245.015 -14.872 0)
(246.844 -15.1413 0)
(248.716 -15.3044 0)
(250.596 -15.3438 0)
(252.43 -15.3397 0)
(254.228 -15.4575 0)
(256.011 -15.7474 0)
(257.732 -16.1653 0)
(259.522 -16.592 0)
(261.368 -17.0011 0)
(263.282 -17.4198 0)
(265.223 -17.8756 0)
(267.159 -18.3476 0)
(269.049 -18.8178 0)
(270.899 -19.2911 0)
(272.667 -19.7768 0)
(274.387 -20.277 0)
(276.019 -20.7911 0)
(277.62 -21.3158 0)
(279.125 -21.844 0)
(280.621 -22.3751 0)
(282.009 -22.9008 0)
(283.395 -23.4235 0)
(284.669 -23.9302 0)
(285.937 -24.4296 0)
(287.122 -24.915 0)
(288.259 -25.3818 0)
(289.379 -25.8371 0)
(290.396 -26.2608 0)
(291.446 -26.6882 0)
(292.385 -27.0835 0)
(293.329 -27.4671 0)
(294.239 -27.8359 0)
(295.05 -28.1782 0)
(295.83 -28.5089 0)
(296.695 -28.8638 0)
(297.388 -29.1703 0)
(298.136 -29.5004 0)
(298.79 -29.7777 0)
(299.519 -30.068 0)
(300.154 -30.3207 0)
(300.781 -30.5801 0)
(301.371 -30.8339 0)
(301.919 -31.0721 0)
(302.466 -31.3188 0)
(302.974 -31.5453 0)
(303.48 -31.7787 0)
(303.951 -31.9904 0)
(304.433 -32.2099 0)
(304.858 -32.3981 0)
(305.276 -32.5825 0)
(305.65 -32.7452 0)
(306.001 -32.8989 0)
(306.34 -33.0636 0)
(306.661 -33.2268 0)
(306.976 -33.3894 0)
(307.3 -33.5599 0)
(307.602 -33.7086 0)
(307.928 -33.8705 0)
(308.21 -33.9972 0)
(308.491 -34.1272 0)
(308.737 -34.2241 0)
(308.973 -34.3248 0)
(309.182 -34.4002 0)
(309.381 -34.4915 0)
(309.537 -34.5486 0)
(309.671 -34.6319 0)
(309.749 -34.6837 0)
(309.776 -34.7612 0)
(309.752 -34.7898 0)
(309.706 -34.877 0)
(309.672 -34.9088 0)
(309.697 -34.9774 0)
(309.81 -35.0432 0)
(310.01 -35.1092 0)
(310.268 -35.1966 0)
(310.565 -35.3087 0)
(310.732 -35.1738 0)
(182.506 22.2382 0)
(191.818 -3.38599 0)
(198.788 -4.35449 0)
(202.728 -3.35726 0)
(205.725 -2.04797 0)
(208.088 -0.955242 0)
(209.428 -0.286978 0)
(209.906 -0.0447965 0)
(209.994 -0.00246991 0)
(210 -1.36856e-05 0)
(210 3.60568e-06 0)
(210 3.3315e-06 0)
(210 1.67091e-06 0)
(210 4.48718e-07 0)
(210 7.27602e-07 0)
(210 5.81419e-05 0)
(209.997 0.00382667 0)
(209.952 0.0791325 0)
(209.74 0.492672 0)
(209.439 1.21902 0)
(209.361 1.70379 0)
(209.518 1.86571 0)
(210.053 1.43647 0)
(211.24 -0.0177437 0)
(212.653 -1.75259 0)
(214.076 -3.21325 0)
(215.493 -4.41935 0)
(216.965 -5.49539 0)
(218.477 -6.51126 0)
(220.076 -7.45831 0)
(221.705 -8.34871 0)
(223.422 -9.14706 0)
(225.15 -9.899 0)
(226.952 -10.5554 0)
(228.746 -11.1816 0)
(230.591 -11.715 0)
(232.418 -12.228 0)
(234.252 -12.6644 0)
(236.063 -13.0773 0)
(237.855 -13.4273 0)
(239.616 -13.7648 0)
(241.352 -14.0595 0)
(243.11 -14.358 0)
(244.905 -14.6387 0)
(246.714 -14.894 0)
(248.526 -15.0406 0)
(250.324 -15.0637 0)
(252.103 -15.0449 0)
(253.827 -15.1425 0)
(255.538 -15.4224 0)
(257.331 -15.8162 0)
(259.163 -16.233 0)
(261.083 -16.6252 0)
(263.037 -17.0285 0)
(264.999 -17.47 0)
(266.925 -17.9302 0)
(268.818 -18.3934 0)
(270.646 -18.86 0)
(272.426 -19.3426 0)
(274.128 -19.8379 0)
(275.787 -20.3505 0)
(277.366 -20.8687 0)
(278.912 -21.3965 0)
(280.379 -21.9193 0)
(281.813 -22.4476 0)
(283.166 -22.9619 0)
(284.483 -23.4733 0)
(285.727 -23.9675 0)
(286.929 -24.4545 0)
(288.08 -24.9242 0)
(289.168 -25.3708 0)
(290.241 -25.807 0)
(291.236 -26.2195 0)
(292.216 -26.6221 0)
(293.158 -27.004 0)
(294.028 -27.3592 0)
(294.893 -27.7137 0)
(295.669 -28.0424 0)
(296.491 -28.3891 0)
(297.191 -28.6967 0)
(297.972 -29.0221 0)
(298.645 -29.2977 0)
(299.345 -29.5647 0)
(299.994 -29.8232 0)
(300.637 -30.0992 0)
(301.212 -30.3538 0)
(301.746 -30.5934 0)
(302.274 -30.827 0)
(302.792 -31.0638 0)
(303.302 -31.2922 0)
(303.783 -31.5043 0)
(304.242 -31.6963 0)
(304.68 -31.8746 0)
(305.085 -32.0376 0)
(305.467 -32.1977 0)
(305.823 -32.3574 0)
(306.177 -32.5381 0)
(306.501 -32.7068 0)
(306.831 -32.8835 0)
(307.151 -33.0498 0)
(307.448 -33.1927 0)
(307.749 -33.3299 0)
(308.012 -33.4275 0)
(308.265 -33.5223 0)
(308.502 -33.5923 0)
(308.733 -33.6732 0)
(308.943 -33.736 0)
(309.155 -33.8245 0)
(309.321 -33.8866 0)
(309.492 -33.987 0)
(309.594 -34.0617 0)
(309.639 -34.155 0)
(309.623 -34.2063 0)
(309.585 -34.3011 0)
(309.555 -34.3441 0)
(309.582 -34.4128 0)
(309.695 -34.4778 0)
(309.898 -34.5405 0)
(310.164 -34.6293 0)
(310.468 -34.7377 0)
(310.64 -34.599 0)
(182.721 21.7957 0)
(192.025 -3.3915 0)
(198.939 -4.28577 0)
(202.87 -3.27253 0)
(205.85 -1.97115 0)
(208.171 -0.903333 0)
(209.464 -0.264827 0)
(209.915 -0.039898 0)
(209.995 -0.00207637 0)
(210 -9.02802e-06 0)
(210 3.60125e-06 0)
(210 3.19018e-06 0)
(210 1.55784e-06 0)
(210 4.03644e-07 0)
(210 6.34298e-07 0)
(210 5.00672e-05 0)
(209.998 0.00339271 0)
(209.955 0.0731825 0)
(209.747 0.473429 0)
(209.438 1.20403 0)
(209.345 1.70962 0)
(209.493 1.88056 0)
(210.002 1.49544 0)
(211.172 0.0817895 0)
(212.583 -1.6479 0)
(214.008 -3.11027 0)
(215.419 -4.31326 0)
(216.879 -5.38177 0)
(218.376 -6.38839 0)
(219.958 -7.32539 0)
(221.565 -8.20552 0)
(223.256 -8.99289 0)
(224.954 -9.73415 0)
(226.725 -10.3793 0)
(228.491 -10.9941 0)
(230.306 -11.5174 0)
(232.11 -12.0191 0)
(233.939 -12.4428 0)
(235.735 -12.8576 0)
(237.547 -13.2019 0)
(239.319 -13.5415 0)
(241.115 -13.8283 0)
(242.904 -14.1231 0)
(244.692 -14.3946 0)
(246.473 -14.6364 0)
(248.235 -14.7678 0)
(249.956 -14.7772 0)
(251.642 -14.7511 0)
(253.359 -14.8311 0)
(255.13 -15.0874 0)
(256.947 -15.4724 0)
(258.862 -15.8683 0)
(260.809 -16.2472 0)
(262.787 -16.6345 0)
(264.742 -17.0626 0)
(266.672 -17.5123 0)
(268.544 -17.9668 0)
(270.382 -18.4279 0)
(272.148 -18.9051 0)
(273.875 -19.3981 0)
(275.522 -19.9061 0)
(277.138 -20.4232 0)
(278.665 -20.9447 0)
(280.175 -21.4682 0)
(281.581 -21.9889 0)
(282.98 -22.5071 0)
(284.266 -23.011 0)
(285.549 -23.5112 0)
(286.734 -23.9941 0)
(287.892 -24.4647 0)
(289 -24.9144 0)
(290.043 -25.3431 0)
(291.077 -25.7637 0)
(292.035 -26.1597 0)
(292.97 -26.5369 0)
(293.888 -26.9024 0)
(294.695 -27.2404 0)
(295.474 -27.5718 0)
(296.329 -27.9265 0)
(297.031 -28.231 0)
(297.782 -28.5324 0)
(298.48 -28.8054 0)
(299.19 -29.0798 0)
(299.828 -29.3429 0)
(300.431 -29.6093 0)
(301.004 -29.863 0)
(301.547 -30.101 0)
(302.063 -30.328 0)
(302.605 -30.565 0)
(303.091 -30.7713 0)
(303.6 -30.981 0)
(304.058 -31.1643 0)
(304.505 -31.3448 0)
(304.905 -31.5074 0)
(305.284 -31.6765 0)
(305.642 -31.8466 0)
(306 -32.0291 0)
(306.324 -32.1863 0)
(306.661 -32.3546 0)
(306.96 -32.4915 0)
(307.248 -32.6214 0)
(307.512 -32.7261 0)
(307.764 -32.8136 0)
(308.009 -32.8972 0)
(308.249 -32.9744 0)
(308.486 -33.0595 0)
(308.71 -33.1398 0)
(308.935 -33.2326 0)
(309.117 -33.3071 0)
(309.333 -33.4133 0)
(309.464 -33.4997 0)
(309.523 -33.5886 0)
(309.515 -33.6515 0)
(309.476 -33.7449 0)
(309.44 -33.7927 0)
(309.46 -33.8591 0)
(309.575 -33.9257 0)
(309.789 -33.9916 0)
(310.062 -34.0806 0)
(310.357 -34.181 0)
(310.52 -34.0547 0)
(182.929 21.3392 0)
(192.231 -3.38849 0)
(199.092 -4.21273 0)
(203.016 -3.18504 0)
(205.977 -1.8928 0)
(208.254 -0.851388 0)
(209.5 -0.243256 0)
(209.923 -0.0353053 0)
(209.996 -0.00172791 0)
(210 -5.44396e-06 0)
(210 3.59829e-06 0)
(210 3.0487e-06 0)
(210 1.44706e-06 0)
(210 3.61252e-07 0)
(210 5.51299e-07 0)
(210 4.29676e-05 0)
(209.998 0.00299703 0)
(209.958 0.0674716 0)
(209.755 0.453936 0)
(209.44 1.18667 0)
(209.329 1.71349 0)
(209.468 1.89475 0)
(209.951 1.5529 0)
(211.1 0.182038 0)
(212.504 -1.54101 0)
(213.928 -3.00522 0)
(215.339 -4.20605 0)
(216.798 -5.26813 0)
(218.287 -6.26613 0)
(219.854 -7.19341 0)
(221.441 -8.06352 0)
(223.11 -8.83991 0)
(224.783 -9.57007 0)
(226.527 -10.2038 0)
(228.26 -10.8083 0)
(230.044 -11.321 0)
(231.813 -11.8146 0)
(233.61 -12.2304 0)
(235.403 -12.6301 0)
(237.192 -12.9747 0)
(238.991 -13.2997 0)
(240.775 -13.5873 0)
(242.545 -13.877 0)
(244.319 -14.1389 0)
(246.069 -14.3726 0)
(247.794 -14.497 0)
(249.504 -14.4921 0)
(251.214 -14.4489 0)
(252.943 -14.5206 0)
(254.748 -14.7606 0)
(256.649 -15.1207 0)
(258.585 -15.5048 0)
(260.57 -15.8676 0)
(262.545 -16.2426 0)
(264.504 -16.6581 0)
(266.412 -17.0975 0)
(268.292 -17.5443 0)
(270.114 -17.9983 0)
(271.897 -18.4708 0)
(273.613 -18.9585 0)
(275.287 -19.464 0)
(276.889 -19.9757 0)
(278.45 -20.4958 0)
(279.939 -21.0127 0)
(281.387 -21.5351 0)
(282.756 -22.046 0)
(284.086 -22.5551 0)
(285.341 -23.0495 0)
(286.555 -23.5372 0)
(287.714 -24.0075 0)
(288.811 -24.4553 0)
(289.884 -24.8887 0)
(290.893 -25.3034 0)
(291.863 -25.6977 0)
(292.824 -26.08 0)
(293.678 -26.4296 0)
(294.553 -26.786 0)
(295.314 -27.1122 0)
(296.138 -27.4581 0)
(296.843 -27.7507 0)
(297.63 -28.0523 0)
(298.301 -28.3151 0)
(299.014 -28.6036 0)
(299.611 -28.8538 0)
(300.262 -29.1295 0)
(300.823 -29.3755 0)
(301.362 -29.6057 0)
(301.9 -29.8374 0)
(302.421 -30.0462 0)
(302.953 -30.2546 0)
(303.436 -30.4457 0)
(303.912 -30.6407 0)
(304.336 -30.8175 0)
(304.752 -31.0046 0)
(305.141 -31.186 0)
(305.517 -31.3696 0)
(305.876 -31.5392 0)
(306.203 -31.6837 0)
(306.526 -31.8257 0)
(306.809 -31.932 0)
(307.08 -32.0399 0)
(307.333 -32.1289 0)
(307.586 -32.223 0)
(307.84 -32.319 0)
(308.092 -32.4187 0)
(308.342 -32.5275 0)
(308.568 -32.6289 0)
(308.792 -32.7368 0)
(308.972 -32.8247 0)
(309.19 -32.9357 0)
(309.328 -33.0164 0)
(309.385 -33.0882 0)
(309.367 -33.1323 0)
(309.306 -33.2095 0)
(309.247 -33.2376 0)
(309.25 -33.2902 0)
(309.354 -33.3454 0)
(309.56 -33.401 0)
(309.823 -33.4803 0)
(310.116 -33.5848 0)
(310.276 -33.4491 0)
(183.141 20.8687 0)
(192.44 -3.38378 0)
(199.25 -4.13676 0)
(203.166 -3.09549 0)
(206.107 -1.81372 0)
(208.338 -0.799804 0)
(209.535 -0.222365 0)
(209.931 -0.0310238 0)
(209.996 -0.00142214 0)
(210 -2.74654e-06 0)
(210 3.59772e-06 0)
(210 2.90711e-06 0)
(210 1.33822e-06 0)
(210 3.21287e-07 0)
(210 4.77478e-07 0)
(210 3.6747e-05 0)
(209.998 0.00263764 0)
(209.961 0.0620133 0)
(209.763 0.434398 0)
(209.44 1.16941 0)
(209.313 1.71769 0)
(209.443 1.90878 0)
(209.901 1.60878 0)
(211.03 0.282164 0)
(212.431 -1.43365 0)
(213.856 -2.89976 0)
(215.263 -4.09836 0)
(216.711 -5.15383 0)
(218.189 -6.14358 0)
(219.742 -7.06197 0)
(221.311 -7.92308 0)
(222.958 -8.68962 0)
(224.605 -9.41008 0)
(226.322 -10.0334 0)
(228.031 -10.6271 0)
(229.79 -11.1285 0)
(231.536 -11.6106 0)
(233.308 -12.0171 0)
(235.066 -12.4117 0)
(236.852 -12.7401 0)
(238.617 -13.065 0)
(240.399 -13.341 0)
(242.179 -13.6155 0)
(243.945 -13.8678 0)
(245.678 -14.0939 0)
(247.384 -14.215 0)
(249.075 -14.2119 0)
(250.795 -14.1598 0)
(252.583 -14.2089 0)
(254.438 -14.4291 0)
(256.354 -14.7722 0)
(258.332 -15.137 0)
(260.309 -15.4882 0)
(262.287 -15.8494 0)
(264.225 -16.2532 0)
(266.139 -16.6819 0)
(268.001 -17.1198 0)
(269.839 -17.5665 0)
(271.616 -18.0331 0)
(273.356 -18.5172 0)
(275.025 -19.0186 0)
(276.657 -19.5282 0)
(278.209 -20.0436 0)
(279.734 -20.5604 0)
(281.161 -21.0769 0)
(282.574 -21.591 0)
(283.876 -22.0943 0)
(285.17 -22.594 0)
(286.369 -23.0796 0)
(287.531 -23.5492 0)