/*--------------------------------*- C++ -*----------------------------------*\
| =========                 |                                                 |
| \\      /  F ield         | OpenFOAM: The Open Source CFD Toolbox           |
|  \\    /   O peration     | Version:  2412                                  |
|   \\  /    A nd           | Website:  www.openfoam.com                      |
|    \\/     M anipulation  |                                                 |
\*---------------------------------------------------------------------------*/
FoamFile
{
    version     2.0;
    format      ascii;
    arch        "LSB;label=32;scalar=64";
    class       volScalarField;
    location    "0.111";
    object      rho;
}
// * * * * * * * * * * * * * * * * * * * * * * * * * * * * * * * * * * * * * //

dimensions      [1 -3 0 0 0 0 0];

internalField   nonuniform List<scalar> 
9859
(
0.0422421
0.0422526
0.0422579
0.0422637
0.0422681
0.0422746
0.0422837
0.0422998
0.0423207
0.0423424
0.0423551
0.0423569
0.0423524
0.0423391
0.0423209
0.0423058
0.0422971
0.0422928
0.0422905
0.0422886
0.0422859
0.0422824
0.0422777
0.0422726
0.0422666
0.0422601
0.0422526
0.0422445
0.0422352
0.0422252
0.0422143
0.0422026
0.0421903
0.0421771
0.0421629
0.042147
0.0421292
0.0421089
0.0420861
0.0420604
0.0420318
0.0419996
0.041964
0.0419249
0.0418819
0.0418325
0.0417748
0.0417083
0.0416345
0.0415556
0.0414751
0.0413968
0.0413225
0.0412543
0.0411935
0.0411409
0.0410978
0.041063
0.0410344
0.0410145
0.0410032
0.0410006
0.0410047
0.0410161
0.0410334
0.0410525
0.0410729
0.0410938
0.0411149
0.042241
0.0422515
0.0422568
0.0422627
0.0422671
0.0422736
0.0422826
0.0422988
0.0423198
0.0423417
0.0423545
0.0423565
0.042352
0.0423387
0.0423204
0.0423052
0.0422963
0.0422918
0.0422894
0.0422874
0.0422847
0.0422811
0.0422764
0.0422712
0.0422651
0.0422585
0.042251
0.0422427
0.0422333
0.0422231
0.0422121
0.0422003
0.0421878
0.0421745
0.0421602
0.0421442
0.0421264
0.042106
0.0420832
0.0420576
0.0420295
0.0419979
0.041963
0.0419244
0.0418823
0.0418344
0.0417786
0.041714
0.0416418
0.0415643
0.0414849
0.0414071
0.0413331
0.0412651
0.0412041
0.0411512
0.0411081
0.0410741
0.0410459
0.0410249
0.0410128
0.0410108
0.0410157
0.041026
0.0410427
0.0410624
0.0410829
0.0411039
0.041125
0.0411457
0.0411667
0.0411882
0.0412121
0.0412379
0.0412654
0.0415254
0.0415515
0.0415773
0.0416031
0.041629
0.0416551
0.0416826
0.0417116
0.0417399
0.0417704
0.0418012
0.0418315
0.0418612
0.0418909
0.0419194
0.0419455
0.0419695
0.0419908
0.0420084
0.0420225
0.0420338
0.0420422
0.0420487
0.0420524
0.0420548
0.0420557
0.0420576
0.0420587
0.0420613
0.0420661
0.0420735
0.0420868
0.0421071
0.0421361
0.0421755
0.0422195
0.0422558
0.0422399
0.0422504
0.0422557
0.0422616
0.042266
0.0422725
0.0422816
0.0422977
0.0423189
0.0423409
0.0423539
0.042356
0.0423516
0.0423383
0.0423199
0.0423045
0.0422954
0.0422907
0.0422882
0.0422862
0.0422834
0.0422798
0.042275
0.0422697
0.0422635
0.0422569
0.0422492
0.0422408
0.0422313
0.0422209
0.0422097
0.0421978
0.0421852
0.0421717
0.0421573
0.0421411
0.0421233
0.0421028
0.04208
0.0420545
0.0420266
0.0419957
0.0419615
0.0419235
0.0418821
0.0418357
0.041782
0.0417194
0.0416491
0.0415732
0.041495
0.041418
0.0413443
0.0412764
0.0412153
0.041162
0.0411184
0.0410843
0.0410567
0.0410362
0.0410232
0.0410206
0.0410257
0.0410367
0.0410526
0.0410725
0.0410932
0.0411144
0.0411356
0.0411564
0.0411773
0.041199
0.0412231
0.0412491
0.041277
0.0413062
0.0413362
0.0413664
0.0413963
0.0414254
0.0414544
0.0414828
0.0415104
0.0415373
0.0415633
0.0415889
0.0416145
0.0416402
0.0416664
0.0416935
0.0417221
0.0417503
0.0417805
0.0418111
0.0418413
0.0418709
0.0419007
0.0419293
0.0419557
0.0419799
0.0420014
0.0420191
0.0420333
0.0420445
0.042053
0.0420592
0.0420626
0.0420651
0.0420656
0.0420673
0.042068
0.04207
0.0420743
0.0420814
0.0420934
0.0421128
0.0421396
0.042176
0.0422149
0.0422397
0.0422388
0.0422492
0.0422545
0.0422604
0.0422648
0.0422713
0.0422804
0.0422966
0.0423179
0.0423401
0.0423533
0.0423555
0.0423511
0.0423379
0.0423193
0.0423037
0.0422944
0.0422896
0.042287
0.0422848
0.042282
0.0422783
0.0422735
0.0422681
0.0422618
0.042255
0.0422473
0.0422387
0.0422291
0.0422186
0.0422072
0.0421951
0.0421824
0.0421687
0.0421541
0.0421378
0.0421198
0.0420993
0.0420765
0.042051
0.0420233
0.0419929
0.0419595
0.0419221
0.0418814
0.0418363
0.0417847
0.0417243
0.041656
0.0415819
0.0415051
0.0414288
0.0413557
0.0412881
0.041227
0.0411735
0.0411294
0.0410947
0.0410669
0.0410471
0.0410345
0.0410311
0.0410357
0.0410475
0.0410634
0.041083
0.0411041
0.0411255
0.0411468
0.0411675
0.0411885
0.0412103
0.0412347
0.0412609
0.041289
0.0413185
0.0413486
0.041379
0.0414089
0.041438
0.041467
0.0414953
0.0415228
0.0415495
0.0415754
0.0416008
0.0416263
0.0416517
0.0416779
0.0417046
0.0417328
0.0417609
0.0417908
0.0418212
0.0418512
0.0418807
0.0419106
0.0419393
0.041966
0.0419905
0.0420121
0.04203
0.0420443
0.0420556
0.042064
0.04207
0.0420732
0.0420756
0.0420758
0.0420772
0.0420775
0.042079
0.0420827
0.0420895
0.0421003
0.0421186
0.0421433
0.0421766
0.0422097
0.0422217
0.0422376
0.042248
0.0422532
0.0422591
0.0422636
0.0422701
0.0422792
0.0422954
0.0423169
0.0423393
0.0423527
0.0423549
0.0423506
0.0423374
0.0423188
0.042303
0.0422934
0.0422885
0.0422857
0.0422834
0.0422805
0.0422767
0.0422718
0.0422663
0.0422599
0.0422531
0.0422452
0.0422365
0.0422267
0.042216
0.0422045
0.0421922
0.0421793
0.0421655
0.0421507
0.0421343
0.0421161
0.0420955
0.0420726
0.042047
0.0420195
0.0419895
0.0419568
0.0419203
0.0418801
0.0418362
0.0417866
0.0417287
0.0416626
0.0415905
0.0415152
0.04144
0.0413676
0.0413003
0.0412391
0.0411856
0.0411414
0.0411064
0.041078
0.041058
0.0410459
0.0410428
0.0410468
0.0410583
0.0410747
0.0410941
0.0411154
0.0411371
0.0411584
0.0411793
0.0412004
0.0412223
0.0412469
0.0412734
0.0413017
0.0413313
0.0413616
0.0413921
0.0414221
0.0414511
0.0414799
0.0415082
0.0415355
0.0415622
0.0415879
0.0416131
0.0416383
0.0416635
0.0416897
0.041716
0.0417438
0.0417717
0.0418013
0.0418315
0.0418612
0.0418908
0.0419208
0.0419496
0.0419765
0.0420012
0.0420231
0.0420412
0.0420556
0.0420669
0.0420754
0.042081
0.042084
0.0420863
0.0420862
0.0420872
0.0420873
0.0420883
0.0420913
0.0420979
0.0421074
0.0421245
0.0421471
0.0421773
0.0422045
0.0422018
0.0419312
0.0422363
0.0422466
0.0422519
0.0422578
0.0422623
0.0422689
0.042278
0.0422942
0.0423158
0.0423384
0.042352
0.0423544
0.0423501
0.0423369
0.0423182
0.0423021
0.0422924
0.0422872
0.0422843
0.0422819
0.0422789
0.042275
0.04227
0.0422645
0.0422579
0.042251
0.0422429
0.0422341
0.0422241
0.0422133
0.0422016
0.0421891
0.042176
0.042162
0.042147
0.0421304
0.0421121
0.0420913
0.0420683
0.0420427
0.0420153
0.0419855
0.0419534
0.0419177
0.0418783
0.0418354
0.0417877
0.0417322
0.0416685
0.0415985
0.0415251
0.0414511
0.0413796
0.0413127
0.0412518
0.0411983
0.0411539
0.0411189
0.0410904
0.0410697
0.0410575
0.0410548
0.0410588
0.0410699
0.0410863
0.0411058
0.0411273
0.0411493
0.0411708
0.0411917
0.0412129
0.0412351
0.0412598
0.0412865
0.041315
0.0413448
0.0413752
0.0414057
0.0414357
0.0414646
0.0414933
0.0415215
0.0415487
0.0415753
0.0416009
0.0416258
0.0416507
0.0416756
0.0417017
0.0417278
0.0417551
0.0417828
0.041812
0.041842
0.0418715
0.0419011
0.041931
0.04196
0.0419872
0.0420122
0.0420344
0.0420527
0.0420672
0.0420786
0.042087
0.0420924
0.0420951
0.0420972
0.0420968
0.0420975
0.0420972
0.0420978
0.0421
0.0421063
0.0421147
0.0421303
0.0421508
0.0421778
0.0421996
0.0421801
0.0418944
0.0422349
0.0422452
0.0422505
0.0422565
0.0422609
0.0422675
0.0422767
0.0422929
0.0423147
0.0423374
0.0423513
0.0423538
0.0423496
0.0423364
0.0423175
0.0423013
0.0422913
0.0422859
0.0422829
0.0422803
0.0422771
0.0422732
0.0422681
0.0422624
0.0422558
0.0422487
0.0422405
0.0422315
0.0422214
0.0422104
0.0421985
0.0421858
0.0421724
0.0421582
0.042143
0.0421262
0.0421077
0.0420867
0.0420636
0.042038
0.0420105
0.0419809
0.0419493
0.0419144
0.0418761
0.0418337
0.0417878
0.0417346
0.0416737
0.0416061
0.0415345
0.0414622
0.0413919
0.0413256
0.0412649
0.0412116
0.0411669
0.0411316
0.0411034
0.0410823
0.0410697
0.041067
0.0410711
0.0410822
0.0410986
0.0411182
0.04114
0.0411622
0.0411838
0.0412049
0.0412262
0.0412486
0.0412734
0.0413004
0.0413291
0.0413589
0.0413894
0.0414199
0.0414498
0.0414787
0.0415072
0.0415352
0.0415624
0.0415888
0.0416142
0.0416389
0.0416635
0.0416881
0.0417141
0.0417399
0.0417667
0.0417941
0.0418229
0.0418526
0.0418819
0.0419115
0.0419415
0.0419706
0.0419981
0.0420235
0.0420459
0.0420644
0.0420791
0.0420905
0.0420989
0.042104
0.0421066
0.0421083
0.0421076
0.0421078
0.0421072
0.0421074
0.0421088
0.0421148
0.042122
0.0421359
0.0421543
0.0421781
0.0421944
0.0421576
0.0418576
0.0422335
0.0422437
0.0422491
0.042255
0.0422595
0.0422661
0.0422753
0.0422916
0.0423136
0.0423364
0.0423506
0.0423532
0.0423491
0.0423359
0.0423168
0.0423004
0.0422901
0.0422846
0.0422813
0.0422786
0.0422753
0.0422713
0.0422661
0.0422602
0.0422535
0.0422462
0.0422378
0.0422287
0.0422184
0.0422072
0.0421951
0.0421822
0.0421686
0.0421541
0.0421387
0.0421216
0.042103
0.0420818
0.0420586
0.0420328
0.0420053
0.0419757
0.0419444
0.0419103
0.041873
0.0418314
0.0417869
0.0417362
0.0416778
0.0416126
0.0415434
0.041473
0.0414039
0.0413385
0.0412785
0.0412254
0.0411804
0.0411446
0.0411165
0.0410954
0.0410827
0.0410799
0.0410839
0.0410952
0.0411117
0.0411313
0.0411533
0.0411758
0.0411976
0.0412188
0.0412403
0.0412629
0.0412879
0.0413151
0.0413438
0.0413737
0.0414042
0.0414346
0.0414645
0.0414931
0.0415215
0.0415494
0.0415765
0.0416028
0.0416281
0.0416525
0.0416768
0.0417011
0.0417267
0.0417524
0.0417786
0.0418057
0.0418341
0.0418635
0.0418926
0.0419222
0.0419521
0.0419814
0.0420092
0.0420349
0.0420575
0.0420763
0.0420912
0.0421026
0.042111
0.0421159
0.0421182
0.0421196
0.0421184
0.0421182
0.0421173
0.0421171
0.0421176
0.0421231
0.0421292
0.0421412
0.0421573
0.0421776
0.0421881
0.0421351
0.0418206
0.042232
0.0422422
0.0422475
0.0422535
0.042258
0.0422647
0.0422739
0.0422902
0.0423123
0.0423354
0.0423498
0.0423526
0.0423485
0.0423353
0.0423161
0.0422994
0.0422889
0.0422831
0.0422797
0.0422768
0.0422734
0.0422692
0.0422638
0.0422579
0.0422509
0.0422435
0.042235
0.0422256
0.0422151
0.0422037
0.0421914
0.0421783
0.0421644
0.0421497
0.042134
0.0421167
0.0420978
0.0420765
0.0420531
0.0420272
0.0419995
0.0419699
0.0419388
0.0419053
0.041869
0.0418284
0.0417847
0.0417364
0.0416804
0.0416183
0.0415516
0.0414832
0.0414159
0.0413515
0.0412922
0.0412396
0.0411945
0.0411583
0.0411302
0.0411089
0.0410964
0.0410936
0.0410976
0.0411089
0.0411255
0.0411453
0.0411675
0.0411903
0.0412122
0.0412336
0.0412552
0.041278
0.0413032
0.0413306
0.0413593
0.0413892
0.0414196
0.04145
0.0414796
0.0415081
0.0415364
0.0415641
0.0415911
0.0416173
0.0416425
0.0416667
0.0416906
0.0417145
0.0417397
0.0417653
0.0417909
0.0418177
0.0418455
0.0418746
0.0419036
0.0419331
0.041963
0.0419924
0.0420205
0.0420466
0.0420694
0.0420884
0.0421034
0.0421149
0.0421233
0.042128
0.04213
0.042131
0.0421295
0.0421287
0.0421273
0.0421267
0.0421265
0.0421313
0.0421363
0.0421461
0.0421599
0.0421763
0.0421796
0.0421133
0.0417841
0.0422304
0.0422405
0.0422459
0.0422518
0.0422564
0.0422631
0.0422724
0.0422887
0.042311
0.0423342
0.0423489
0.0423519
0.0423479
0.0423347
0.0423154
0.0422984
0.0422876
0.0422816
0.042278
0.0422749
0.0422713
0.042267
0.0422615
0.0422553
0.0422482
0.0422406
0.0422319
0.0422223
0.0422116
0.0422
0.0421874
0.042174
0.0421599
0.0421449
0.0421289
0.0421114
0.0420922
0.0420707
0.0420471
0.0420211
0.0419933
0.0419636
0.0419325
0.0418995
0.041864
0.0418247
0.0417816
0.0417353
0.0416821
0.0416226
0.0415586
0.0414929
0.0414273
0.0413643
0.0413062
0.0412541
0.0412091
0.0411727
0.0411448
0.0411232
0.0411106
0.0411081
0.0411121
0.0411233
0.0411401
0.04116
0.0411825
0.0412056
0.0412276
0.0412492
0.041271
0.041294
0.0413193
0.0413468
0.0413755
0.0414053
0.0414355
0.0414657
0.0414952
0.0415236
0.0415516
0.0415793
0.0416062
0.0416324
0.0416574
0.0416813
0.0417049
0.0417284
0.041753
0.0417785
0.0418036
0.0418299
0.0418572
0.041886
0.0419148
0.0419442
0.041974
0.0420036
0.042032
0.0420583
0.0420814
0.0421005
0.0421157
0.0421272
0.0421356
0.0421401
0.0421419
0.0421425
0.0421405
0.0421392
0.0421374
0.0421363
0.0421355
0.0421392
0.042143
0.0421506
0.0421619
0.0421742
0.0421682
0.0420917
0.041748
0.0422287
0.0422388
0.0422441
0.0422502
0.0422548
0.0422615
0.0422708
0.0422872
0.0423096
0.042333
0.0423481
0.0423512
0.0423473
0.0423341
0.0423146
0.0422973
0.0422862
0.04228
0.0422761
0.0422728
0.042269
0.0422646
0.0422589
0.0422526
0.0422453
0.0422375
0.0422286
0.0422188
0.0422078
0.0421959
0.0421831
0.0421695
0.0421551
0.0421397
0.0421234
0.0421056
0.0420862
0.0420644
0.0420406
0.0420144
0.0419864
0.0419566
0.0419256
0.0418928
0.041858
0.0418199
0.0417776
0.0417328
0.0416823
0.0416255
0.0415648
0.0415015
0.0414382
0.0413769
0.0413198
0.0412686
0.0412241
0.0411876
0.0411597
0.041138
0.0411257
0.0411233
0.0411274
0.0411387
0.0411556
0.0411758
0.0411983
0.0412217
0.0412438
0.0412656
0.0412876
0.0413108
0.0413362
0.0413637
0.0413924
0.0414219
0.041452
0.041482
0.0415113
0.0415395
0.0415674
0.0415949
0.0416217
0.0416478
0.0416727
0.0416964
0.0417197
0.0417429
0.0417669
0.0417921
0.0418166
0.0418425
0.0418692
0.0418977
0.0419262
0.0419554
0.0419852
0.042015
0.0420436
0.0420702
0.0420935
0.0421127
0.0421279
0.0421395
0.0421478
0.0421523
0.042154
0.042154
0.0421517
0.0421498
0.0421474
0.0421458
0.0421444
0.042147
0.0421495
0.0421547
0.0421635
0.0421717
0.042155
0.0420697
0.0417124
0.0422269
0.042237
0.0422423
0.0422484
0.042253
0.0422597
0.0422691
0.0422855
0.0423082
0.0423318
0.0423471
0.0423505
0.0423466
0.0423335
0.0423138
0.0422962
0.0422848
0.0422783
0.0422741
0.0422706
0.0422667
0.042262
0.0422561
0.0422497
0.0422422
0.0422341
0.0422249
0.0422149
0.0422037
0.0421915
0.0421784
0.0421645
0.0421498
0.0421342
0.0421175
0.0420994
0.0420796
0.0420576
0.0420336
0.0420072
0.041979
0.041949
0.0419179
0.0418853
0.0418511
0.0418139
0.0417726
0.0417292
0.041681
0.0416273
0.041569
0.0415089
0.0414481
0.0413887
0.0413334
0.0412831
0.0412391
0.0412029
0.0411752
0.0411536
0.0411414
0.0411392
0.0411435
0.0411549
0.0411719
0.0411923
0.041215
0.0412385
0.0412607
0.0412826
0.0413049
0.0413282
0.0413537
0.0413811
0.0414097
0.041439
0.0414687
0.0414985
0.0415276
0.0415556
0.0415834
0.0416109
0.0416377
0.0416637
0.0416885
0.041712
0.041735
0.0417578
0.0417812
0.0418059
0.04183
0.0418553
0.0418815
0.0419095
0.0419378
0.0419668
0.0419966
0.0420264
0.0420552
0.042082
0.0421054
0.0421247
0.04214
0.0421515
0.0421598
0.0421642
0.0421659
0.0421653
0.0421629
0.0421604
0.0421575
0.0421553
0.0421534
0.0421547
0.0421557
0.0421586
0.0421646
0.042168
0.042141
0.0420465
0.0416766
0.042225
0.042235
0.0422404
0.0422465
0.0422512
0.0422579
0.0422673
0.0422838
0.0423066
0.0423305
0.0423461
0.0423497
0.0423459
0.0423328
0.0423129
0.0422951
0.0422833
0.0422765
0.042272
0.0422683
0.0422641
0.0422592
0.0422532
0.0422465
0.0422388
0.0422305
0.042221
0.0422107
0.0421992
0.0421868
0.0421734
0.0421592
0.0421441
0.0421281
0.0421111
0.0420927
0.0420726
0.0420502
0.0420259
0.0419993
0.0419709
0.0419408
0.0419096
0.041877
0.0418431
0.0418066
0.0417666
0.0417242
0.0416781
0.0416273
0.0415721
0.0415146
0.0414565
0.0413999
0.0413459
0.0412971
0.0412544
0.0412184
0.0411909
0.0411694
0.0411577
0.0411559
0.0411604
0.0411719
0.0411891
0.0412097
0.0412323
0.041256
0.0412782
0.0413002
0.0413226
0.0413461
0.0413716
0.0413988
0.0414272
0.0414563
0.0414857
0.0415152
0.0415441
0.0415719
0.0415996
0.0416271
0.0416538
0.0416798
0.0417045
0.0417279
0.0417506
0.041773
0.0417959
0.0418199
0.0418436
0.0418684
0.041894
0.0419216
0.0419495
0.0419783
0.042008
0.0420379
0.0420668
0.0420937
0.0421172
0.0421365
0.0421517
0.0421632
0.0421714
0.0421759
0.0421775
0.0421765
0.0421741
0.042171
0.0421675
0.0421647
0.0421624
0.0421624
0.0421619
0.0421626
0.0421655
0.0421631
0.0421271
0.0420219
0.0416411
0.042223
0.042233
0.0422383
0.0422445
0.0422492
0.042256
0.0422654
0.0422819
0.042305
0.0423291
0.0423451
0.0423489
0.0423452
0.042332
0.042312
0.0422938
0.0422817
0.0422745
0.0422698
0.0422658
0.0422614
0.0422563
0.04225
0.0422431
0.0422351
0.0422266
0.0422168
0.0422062
0.0421944
0.0421817
0.0421679
0.0421533
0.0421379
0.0421216
0.0421042
0.0420854
0.0420649
0.0420422
0.0420176
0.0419907
0.0419622
0.0419319
0.0419006
0.041868
0.0418342
0.0417981
0.0417594
0.0417179
0.0416736
0.0416255
0.0415733
0.0415183
0.0414637
0.0414094
0.0413579
0.0413107
0.041269
0.041234
0.0412068
0.0411859
0.0411746
0.0411731
0.0411779
0.0411895
0.0412068
0.0412276
0.0412501
0.0412738
0.041296
0.0413181
0.0413405
0.0413642
0.0413894
0.0414165
0.0414448
0.0414735
0.0415025
0.0415317
0.0415604
0.0415881
0.0416157
0.0416432
0.04167
0.041696
0.0417207
0.0417439
0.0417664
0.0417884
0.0418108
0.0418341
0.0418573
0.0418816
0.0419065
0.0419337
0.0419612
0.0419898
0.0420194
0.0420492
0.0420781
0.0421051
0.0421285
0.0421477
0.0421629
0.0421744
0.0421825
0.0421871
0.0421887
0.0421874
0.042185
0.0421815
0.0421776
0.0421743
0.0421714
0.04217
0.0421679
0.0421664
0.0421663
0.0421569
0.0421134
0.041996
0.0416052
0.0422209
0.0422308
0.0422362
0.0422424
0.0422472
0.042254
0.0422634
0.04228
0.0423033
0.0423276
0.042344
0.042348
0.0423443
0.0423311
0.042311
0.0422925
0.0422799
0.0422724
0.0422674
0.0422631
0.0422585
0.0422531
0.0422466
0.0422394
0.0422312
0.0422223
0.0422123
0.0422014
0.0421892
0.0421762
0.042162
0.0421471
0.0421312
0.0421145
0.0420967
0.0420775
0.0420566
0.0420336
0.0420086
0.0419815
0.0419527
0.0419222
0.0418907
0.041858
0.0418242
0.0417885
0.0417506
0.0417102
0.0416677
0.0416213
0.0415721
0.0415203
0.0414682
0.0414176
0.0413683
0.0413232
0.0412834
0.0412492
0.0412224
0.0412023
0.0411917
0.0411908
0.0411959
0.0412077
0.0412251
0.041246
0.0412682
0.0412918
0.0413138
0.0413359
0.0413583
0.0413821
0.0414071
0.0414338
0.041462
0.0414903
0.041519
0.0415479
0.0415764
0.0416041
0.0416316
0.0416591
0.041686
0.041712
0.0417365
0.0417597
0.041782
0.0418038
0.0418257
0.0418483
0.041871
0.0418947
0.0419191
0.0419457
0.0419728
0.0420011
0.0420305
0.0420601
0.042089
0.0421159
0.0421392
0.0421584
0.0421734
0.0421848
0.0421928
0.0421975
0.0421992
0.0421979
0.0421958
0.0421918
0.0421876
0.0421836
0.0421803
0.0421776
0.0421739
0.0421705
0.0421666
0.0421504
0.0420996
0.0419693
0.0415698
0.0422187
0.0422285
0.0422339
0.0422402
0.042245
0.0422518
0.0422613
0.042278
0.0423015
0.0423261
0.0423428
0.042347
0.0423434
0.0423302
0.0423099
0.042291
0.0422781
0.0422702
0.0422648
0.0422603
0.0422554
0.0422498
0.042243
0.0422355
0.042227
0.0422178
0.0422074
0.0421961
0.0421836
0.0421702
0.0421556
0.0421402
0.042124
0.0421068
0.0420886
0.0420689
0.0420476
0.0420242
0.0419989
0.0419714
0.0419424
0.0419116
0.0418799
0.0418471
0.0418132
0.0417777
0.0417405
0.041701
0.04166
0.0416153
0.0415689
0.0415203
0.0414714
0.0414234
0.0413773
0.0413347
0.0412962
0.0412636
0.0412378
0.0412187
0.0412089
0.0412086
0.0412141
0.041226
0.0412435
0.0412644
0.0412862
0.0413096
0.0413313
0.0413532
0.0413756
0.0413992
0.041424
0.0414504
0.0414783
0.0415063
0.0415346
0.0415632
0.0415916
0.0416193
0.0416468
0.0416743
0.0417013
0.0417274
0.041752
0.0417751
0.0417972
0.0418186
0.0418401
0.0418622
0.0418845
0.0419076
0.0419314
0.0419574
0.0419841
0.0420121
0.0420412
0.0420706
0.0420992
0.0421259
0.0421491
0.0421681
0.042183
0.0421942
0.0422022
0.0422071
0.0422089
0.0422078
0.0422059
0.0422017
0.0421973
0.0421929
0.0421891
0.0421847
0.0421797
0.0421742
0.042166
0.0421437
0.0420853
0.0419419
0.0415343
0.0422163
0.0422261
0.0422316
0.0422379
0.0422428
0.0422496
0.0422591
0.0422759
0.0422996
0.0423245
0.0423415
0.0423459
0.0423424
0.0423292
0.0423087
0.0422895
0.0422761
0.0422678
0.0422621
0.0422573
0.0422521
0.0422462
0.0422391
0.0422313
0.0422224
0.0422129
0.0422021
0.0421905
0.0421776
0.0421637
0.0421487
0.0421329
0.0421161
0.0420985
0.0420798
0.0420597
0.0420379
0.0420141
0.0419884
0.0419606
0.0419311
0.0419001
0.0418682
0.0418351
0.0418012
0.0417658
0.0417291
0.0416904
0.0416504
0.0416078
0.0415633
0.0415181
0.0414722
0.0414271
0.0413842
0.0413441
0.0413081
0.0412769
0.0412522
0.0412343
0.0412256
0.041226
0.041232
0.0412441
0.0412616
0.0412825
0.0413036
0.0413267
0.0413479
0.0413696
0.041392
0.0414152
0.0414398
0.0414659
0.0414934
0.0415211
0.0415491
0.0415775
0.0416058
0.0416335
0.041661
0.0416886
0.0417157
0.0417418
0.0417664
0.0417895
0.0418115
0.0418329
0.041854
0.0418755
0.0418975
0.0419199
0.0419432
0.0419687
0.0419949
0.0420225
0.0420512
0.0420803
0.0421086
0.042135
0.042158
0.0421768
0.0421915
0.0422026
0.0422105
0.0422155
0.0422175
0.0422168
0.0422152
0.042211
0.0422065
0.0422014
0.0421973
0.0421916
0.0421852
0.0421776
0.042165
0.0421369
0.0420705
0.0419143
0.0414999
0.0422138
0.0422236
0.042229
0.0422354
0.0422403
0.0422472
0.0422568
0.0422737
0.0422976
0.0423228
0.0423401
0.0423447
0.0423413
0.042328
0.0423074
0.0422878
0.042274
0.0422653
0.0422592
0.042254
0.0422485
0.0422423
0.0422349
0.0422268
0.0422176
0.0422076
0.0421965
0.0421844
0.042171
0.0421567
0.0421412
0.0421249
0.0421077
0.0420895
0.0420703
0.0420497
0.0420275
0.0420032
0.0419771
0.0419488
0.041919
0.0418876
0.0418554
0.0418221
0.041788
0.0417527
0.0417163
0.0416783
0.0416392
0.0415987
0.0415561
0.0415136
0.0414706
0.0414287
0.0413885
0.0413516
0.0413174
0.0412888
0.0412657
0.0412491
0.0412419
0.0412429
0.0412494
0.0412618
0.0412792
0.0412997
0.0413201
0.0413427
0.0413634
0.0413846
0.0414067
0.0414296
0.041454
0.0414797
0.0415068
0.0415344
0.041562
0.0415902
0.0416184
0.0416462
0.0416738
0.0417015
0.0417287
0.041755
0.0417798
0.0418029
0.0418248
0.0418458
0.0418667
0.0418879
0.0419095
0.0419314
0.0419543
0.0419792
0.042005
0.042032
0.0420604
0.042089
0.0421169
0.0421429
0.0421656
0.0421842
0.0421987
0.0422097
0.0422176
0.0422228
0.0422251
0.0422247
0.0422235
0.0422192
0.042215
0.0422096
0.0422048
0.0421973
0.0421899
0.0421797
0.0421633
0.042129
0.0420544
0.041886
0.041466
0.0422112
0.0422209
0.0422264
0.0422328
0.0422378
0.0422447
0.0422543
0.0422713
0.0422955
0.042321
0.0423385
0.0423434
0.04234
0.0423268
0.042306
0.0422859
0.0422717
0.0422626
0.0422561
0.0422505
0.0422447
0.0422382
0.0422305
0.042222
0.0422124
0.042202
0.0421904
0.0421778
0.042164
0.0421491
0.0421331
0.0421163
0.0420985
0.0420798
0.0420601
0.0420389
0.0420161
0.0419914
0.0419647
0.0419361
0.0419058
0.0418741
0.0418416
0.041808
0.0417737
0.0417384
0.0417023
0.0416649
0.0416266
0.0415878
0.041547
0.0415065
0.0414666
0.0414276
0.0413905
0.041356
0.0413254
0.0412985
0.0412772
0.0412624
0.0412566
0.0412586
0.0412655
0.0412781
0.0412954
0.0413156
0.041335
0.041357
0.041377
0.0413979
0.0414195
0.0414421
0.0414663
0.0414917
0.0415183
0.0415457
0.0415732
0.0416012
0.0416294
0.0416572
0.0416849
0.0417127
0.04174
0.0417664
0.0417912
0.0418143
0.0418363
0.0418574
0.0418782
0.0418991
0.0419203
0.0419418
0.0419643
0.0419887
0.0420139
0.0420405
0.0420684
0.0420965
0.0421239
0.0421496
0.0421719
0.0421903
0.0422046
0.0422154
0.0422233
0.0422285
0.0422311
0.0422311
0.0422305
0.0422264
0.0422224
0.0422163
0.0422109
0.0422021
0.0421937
0.0421809
0.0421604
0.0421197
0.042037
0.0418571
0.0414326
0.0422084
0.0422181
0.0422236
0.04223
0.0422351
0.042242
0.0422518
0.0422689
0.0422932
0.042319
0.0423369
0.042342
0.0423387
0.0423254
0.0423045
0.0422839
0.0422692
0.0422596
0.0422527
0.0422468
0.0422406
0.0422337
0.0422257
0.0422168
0.0422068
0.0421959
0.0421838
0.0421707
0.0421563
0.0421409
0.0421244
0.0421069
0.0420886
0.0420693
0.0420489
0.0420271
0.0420038
0.0419785
0.0419514
0.0419223
0.0418916
0.0418596
0.0418266
0.0417928
0.0417583
0.0417229
0.041687
0.04165
0.0416125
0.041575
0.0415359
0.0414975
0.0414601
0.0414243
0.0413898
0.0413582
0.0413299
0.0413062
0.0412869
0.0412742
0.0412701
0.0412729
0.0412805
0.0412933
0.0413102
0.0413295
0.0413482
0.0413694
0.0413888
0.041409
0.0414301
0.0414524
0.0414764
0.0415015
0.0415278
0.0415548
0.0415823
0.0416102
0.0416383
0.0416662
0.0416939
0.0417218
0.0417492
0.0417758
0.0418009
0.0418242
0.0418462
0.0418671
0.0418878
0.0419086
0.0419295
0.0419507
0.0419731
0.0419968
0.0420216
0.0420477
0.0420751
0.0421027
0.0421296
0.0421548
0.0421768
0.0421948
0.042209
0.0422197
0.0422276
0.042233
0.0422357
0.0422364
0.0422361
0.0422319
0.0422285
0.042222
0.0422158
0.0422051
0.0421962
0.0421806
0.0421558
0.0421084
0.0420173
0.0418264
0.041399
0.0422055
0.0422151
0.0422206
0.0422271
0.0422322
0.0422392
0.042249
0.0422663
0.0422909
0.042317
0.0423351
0.0423404
0.0423372
0.042324
0.0423028
0.0422818
0.0422666
0.0422565
0.0422491
0.0422428
0.0422362
0.042229
0.0422205
0.0422112
0.0422007
0.0421894
0.0421767
0.0421631
0.0421481
0.0421321
0.0421149
0.0420968
0.0420779
0.0420579
0.0420369
0.0420144
0.0419905
0.0419647
0.041937
0.0419074
0.0418763
0.0418438
0.0418105
0.0417763
0.0417415
0.0417061
0.0416703
0.0416337
0.0415968
0.0415603
0.0415229
0.0414865
0.0414515
0.0414181
0.0413866
0.0413579
0.0413322
0.0413106
0.0412942
0.0412839
0.0412811
0.0412849
0.041293
0.0413059
0.0413226
0.0413411
0.0413594
0.0413796
0.0413981
0.0414178
0.0414384
0.0414606
0.0414843
0.0415091
0.0415352
0.041562
0.0415894
0.0416172
0.0416453
0.0416733
0.041701
0.0417289
0.0417564
0.0417831
0.0418083
0.0418315
0.0418537
0.041875
0.0418958
0.0419165
0.0419372
0.0419582
0.0419804
0.0420036
0.042028
0.0420536
0.0420805
0.0421076
0.042134
0.0421588
0.0421803
0.042198
0.0422119
0.0422225
0.0422304
0.0422358
0.0422387
0.0422399
0.0422401
0.0422361
0.0422331
0.0422255
0.0422186
0.0422072
0.0421972
0.0421782
0.0421488
0.0420951
0.0419955
0.0417942
0.041365
0.0422024
0.0422119
0.0422174
0.0422239
0.0422291
0.0422362
0.0422462
0.0422637
0.0422884
0.0423148
0.0423331
0.0423387
0.0423356
0.0423224
0.042301
0.0422794
0.0422637
0.0422531
0.0422453
0.0422385
0.0422315
0.0422238
0.042215
0.0422052
0.0421942
0.0421823
0.042169
0.0421548
0.0421392
0.0421225
0.0421047
0.042086
0.0420663
0.0420456
0.0420238
0.0420007
0.0419761
0.0419497
0.0419214
0.0418913
0.0418597
0.0418268
0.041793
0.0417585
0.0417235
0.041688
0.0416522
0.041616
0.0415797
0.041544
0.0415082
0.0414736
0.0414408
0.0414098
0.0413809
0.0413547
0.0413319
0.0413129
0.0412989
0.0412911
0.0412904
0.0412949
0.0413038
0.0413168
0.0413328
0.0413502
0.0413681
0.041387
0.0414049
0.041424
0.0414444
0.0414663
0.0414899
0.0415147
0.0415406
0.0415673
0.0415945
0.0416224
0.0416504
0.0416783
0.041706
0.0417339
0.0417614
0.0417881
0.0418135
0.0418371
0.0418594
0.0418807
0.0419015
0.0419222
0.041943
0.0419641
0.041986
0.0420088
0.0420329
0.0420581
0.0420845
0.0421111
0.0421371
0.0421614
0.0421825
0.0421999
0.0422137
0.0422241
0.042232
0.0422375
0.0422407
0.0422423
0.0422426
0.0422387
0.0422356
0.0422278
0.0422204
0.0422077
0.0421961
0.0421737
0.0421391
0.0420794
0.0419708
0.0417592
0.0413279
0.0421991
0.0422086
0.0422141
0.0422206
0.0422258
0.0422331
0.0422431
0.0422608
0.0422857
0.0423124
0.042331
0.0423369
0.0423339
0.0423206
0.042299
0.0422769
0.0422606
0.0422494
0.0422411
0.0422338
0.0422264
0.0422183
0.042209
0.0421987
0.0421871
0.0421746
0.0421607
0.0421458
0.0421296
0.0421122
0.0420937
0.0420742
0.0420538
0.0420323
0.0420098
0.0419859
0.0419606
0.0419335
0.0419047
0.041874
0.0418418
0.0418083
0.0417741
0.0417393
0.0417041
0.0416686
0.0416329
0.041597
0.0415612
0.0415263
0.0414921
0.0414589
0.0414282
0.0413993
0.041373
0.0413495
0.0413288
0.0413127
0.0413012
0.0412956
0.0412967
0.0413021
0.0413115
0.0413245
0.0413403
0.0413571
0.0413744
0.0413922
0.0414097
0.0414283
0.0414484
0.0414703
0.0414937
0.0415184
0.0415443
0.0415709
0.0415981
0.0416259
0.0416539
0.0416818
0.0417095
0.0417372
0.0417646
0.0417913
0.0418166
0.0418401
0.0418626
0.0418842
0.0419054
0.0419264
0.0419472
0.0419684
0.0419901
0.0420126
0.0420365
0.0420613
0.0420871
0.0421134
0.042139
0.042163
0.0421837
0.0422008
0.0422144
0.0422248
0.0422327
0.0422381
0.0422414
0.0422434
0.0422436
0.0422403
0.0422366
0.0422287
0.04222
0.0422066
0.0421926
0.0421667
0.0421267
0.0420615
0.0419436
0.041723
0.0412891
0.0421956
0.042205
0.0422106
0.0422171
0.0422224
0.0422297
0.0422399
0.0422578
0.0422829
0.0423098
0.0423287
0.0423349
0.042332
0.0423186
0.0422967
0.042274
0.0422571
0.0422454
0.0422364
0.0422287
0.0422208
0.0422123
0.0422025
0.0421916
0.0421795
0.0421663
0.0421518
0.0421361
0.0421192
0.0421011
0.0420818
0.0420615
0.0420402
0.0420179
0.0419946
0.04197
0.0419439
0.0419162
0.0418867
0.0418554
0.0418226
0.0417886
0.0417539
0.0417187
0.0416834
0.0416478
0.0416122
0.0415765
0.0415413
0.0415072
0.0414745
0.0414427
0.0414138
0.0413871
0.041363
0.0413418
0.0413239
0.04131
0.041301
0.0412977
0.0413008
0.0413072
0.0413172
0.0413304
0.0413454
0.0413613
0.0413778
0.0413947
0.0414119
0.0414303
0.0414506
0.0414723
0.0414958
0.0415205
0.0415464
0.041573
0.0416002
0.0416281
0.041656
0.0416838
0.0417114
0.041739
0.0417663
0.0417928
0.0418182
0.0418418
0.0418644
0.0418861
0.0419074
0.0419285
0.0419497
0.041971
0.0419927
0.042015
0.0420388
0.0420634
0.0420888
0.0421146
0.0421399
0.0421635
0.0421838
0.0422008
0.0422144
0.0422248
0.0422328
0.0422384
0.0422418
0.042244
0.042244
0.0422405
0.042236
0.0422283
0.0422181
0.0422039
0.0421868
0.0421577
0.042112
0.0420411
0.0419139
0.0416852
0.0412523
0.0421919
0.0422013
0.0422068
0.0422134
0.0422186
0.0422261
0.0422365
0.0422546
0.0422799
0.0423071
0.0423261
0.0423326
0.0423298
0.0423164
0.0422941
0.0422709
0.0422533
0.0422409
0.0422314
0.0422232
0.0422148
0.0422057
0.0421954
0.042184
0.0421711
0.0421573
0.042142
0.0421257
0.0421079
0.042089
0.0420689
0.0420478
0.0420256
0.0420024
0.0419782
0.0419527
0.0419259
0.0418974
0.0418673
0.0418353
0.0418019
0.0417674
0.0417322
0.0416967
0.0416612
0.0416256
0.04159
0.0415547
0.0415201
0.0414868
0.0414554
0.0414251
0.0413979
0.0413732
0.0413513
0.0413324
0.0413169
0.0413056
0.0412991
0.041298
0.0413023
0.0413095
0.0413201
0.0413332
0.0413481
0.0413637
0.0413797
0.0413958
0.0414129
0.0414312
0.0414515
0.0414732
0.0414967
0.0415214
0.0415473
0.0415739
0.0416011
0.0416291
0.0416571
0.0416848
0.0417124
0.0417398
0.0417669
0.0417935
0.0418186
0.0418421
0.0418647
0.0418866
0.0419081
0.0419295
0.041951
0.0419724
0.041994
0.0420164
0.04204
0.0420645
0.0420898
0.0421153
0.0421406
0.0421639
0.0421838
0.0422005