/*--------------------------------*- C++ -*----------------------------------*\
| =========                 |                                                 |
| \\      /  F ield         | OpenFOAM: The Open Source CFD Toolbox           |
|  \\    /   O peration     | Version:  2412                                  |
|   \\  /    A nd           | Website:  www.openfoam.com                      |
|    \\/     M anipulation  |                                                 |
\*---------------------------------------------------------------------------*/
FoamFile
{
    version     2.0;
    format      ascii;
    arch        "LSB;label=32;scalar=64";
    class       volScalarField;
    location    "0.098";
    object      rho;
}
// * * * * * * * * * * * * * * * * * * * * * * * * * * * * * * * * * * * * * //

dimensions      [1 -3 0 0 0 0 0];

internalField   nonuniform List<scalar> 
78650
(
0.0501517
0.0439535
0.0434383
0.0432348
0.0430607
0.0429342
0.042835
0.0427548
0.0426876
0.0426254
0.0425629
0.0424979
0.042432
0.0423706
0.0423207
0.0422846
0.0422601
0.0422423
0.0422265
0.0422086
0.0421857
0.0421559
0.042119
0.042077
0.042032
0.0419864
0.0419425
0.0419014
0.0418632
0.0418272
0.041793
0.0417604
0.0417297
0.0417013
0.0416753
0.0416513
0.0416292
0.0416083
0.0415883
0.041569
0.0415504
0.0415328
0.0415163
0.0415011
0.0414873
0.0414747
0.0414633
0.0414528
0.0414433
0.0414346
0.0414269
0.04142
0.041414
0.0414087
0.0414042
0.0414003
0.0413969
0.0413938
0.0413909
0.0413879
0.0413845
0.0413806
0.041376
0.0413704
0.0413636
0.0413553
0.041345
0.0413322
0.0413164
0.0412972
0.0412741
0.0412464
0.0412135
0.0411746
0.0411291
0.0410757
0.0410136
0.0409414
0.0408582
0.0407629
0.0406542
0.0405306
0.0403904
0.040232
0.0400534
0.0398533
0.0396296
0.0393811
0.0391053
0.0388017
0.0384669
0.0381004
0.0376963
0.0372616
0.036788
0.0362879
0.0357494
0.0351752
0.0345583
0.0339008
0.0332064
0.0324865
0.0317631
0.0310191
0.0302889
0.0295755
0.0288587
0.0281591
0.027509
0.026858
0.0262305
0.0256692
0.0251694
0.0247362
0.0243084
0.0238736
0.0234668
0.023085
0.0227437
0.02244
0.0219036
0.0497235
0.0438747
0.0434185
0.043233
0.0430631
0.0429372
0.0428392
0.0427609
0.0426966
0.0426375
0.0425781
0.0425157
0.0424511
0.0423888
0.0423356
0.0422952
0.0422668
0.0422467
0.0422303
0.0422136
0.0421934
0.042167
0.0421334
0.0420938
0.0420503
0.0420054
0.0419615
0.0419204
0.0418825
0.0418471
0.0418137
0.041782
0.0417523
0.0417247
0.0416997
0.0416768
0.0416559
0.0416365
0.0416181
0.0416006
0.0415837
0.0415678
0.0415531
0.0415397
0.0415277
0.041517
0.0415076
0.0414993
0.0414919
0.0414855
0.04148
0.0414756
0.041472
0.0414692
0.0414674
0.0414663
0.0414659
0.0414659
0.0414663
0.0414668
0.0414671
0.0414671
0.0414667
0.0414656
0.0414635
0.0414603
0.0414555
0.0414487
0.0414393
0.0414271
0.0414114
0.0413918
0.0413676
0.0413383
0.0413031
0.0412611
0.0412113
0.0411526
0.041084
0.0410045
0.040913
0.040808
0.040688
0.0405516
0.040397
0.0402226
0.0400259
0.0398054
0.0395587
0.0392854
0.0389823
0.0386492
0.0382815
0.0378824
0.0374435
0.0369744
0.0364605
0.0359149
0.035333
0.0347172
0.0340765
0.0333991
0.0327076
0.0319786
0.0312327
0.0304822
0.0297564
0.0290309
0.0283495
0.0276834
0.0270136
0.0263887
0.0257855
0.0252488
0.024775
0.0243125
0.0238746
0.0234476
0.0230583
0.0227023
0.0221159
0.0492911
0.0437943
0.043396
0.0432286
0.0430656
0.0429396
0.0428411
0.0427631
0.0427006
0.0426457
0.0425911
0.0425329
0.0424711
0.0424089
0.042353
0.0423084
0.0422756
0.0422524
0.0422347
0.0422187
0.0422008
0.0421776
0.0421475
0.0421108
0.0420692
0.042025
0.0419813
0.0419402
0.0419025
0.0418675
0.0418348
0.041804
0.0417752
0.0417487
0.0417245
0.0417028
0.0416831
0.0416651
0.0416484
0.0416326
0.0416176
0.0416034
0.0415905
0.0415789
0.0415687
0.04156
0.0415526
0.0415464
0.0415412
0.0415371
0.041534
0.0415319
0.0415308
0.0415306
0.0415315
0.0415332
0.0415357
0.0415389
0.0415426
0.0415465
0.0415505
0.0415545
0.0415582
0.0415615
0.0415642
0.0415659
0.0415666
0.0415655
0.0415625
0.041557
0.0415486
0.0415368
0.0415212
0.0415009
0.0414756
0.0414443
0.0414062
0.0413602
0.0413053
0.0412405
0.0411649
0.0410771
0.0409757
0.0408594
0.0407262
0.0405747
0.0404026
0.0402089
0.0399913
0.0397487
0.0394779
0.0391777
0.0388447
0.0384806
0.0380797
0.0376469
0.0371714
0.0366669
0.0361208
0.0355372
0.034916
0.0342563
0.0335622
0.0328535
0.0321393
0.0314105
0.0306809
0.0299228
0.0291573
0.0284553
0.027741
0.027084
0.0264472
0.0258235
0.0252678
0.0247546
0.0242738
0.0237864
0.0233296
0.0229166
0.0222193
0.0488804
0.0437151
0.0433753
0.0432256
0.0430685
0.0429403
0.04284
0.0427614
0.0427001
0.0426479
0.0425989
0.0425472
0.0424904
0.0424303
0.042373
0.0423244
0.0422868
0.0422596
0.0422398
0.0422238
0.0422077
0.0421877
0.0421613
0.0421279
0.0420887
0.0420457
0.0420022
0.0419611
0.0419235
0.0418888
0.0418567
0.0418268
0.0417989
0.0417734
0.0417503
0.0417296
0.0417111
0.0416945
0.0416794
0.0416653
0.0416521
0.0416398
0.0416286
0.0416188
0.0416105
0.0416037
0.0415983
0.0415941
0.0415912
0.0415893
0.0415886
0.0415888
0.0415902
0.0415927
0.0415961
0.0416005
0.0416059
0.0416121
0.0416189
0.0416263
0.0416339
0.0416416
0.0416493
0.0416568
0.041664
0.0416706
0.0416763
0.0416808
0.0416837
0.0416847
0.0416832
0.041679
0.0416716
0.0416599
0.0416441
0.041623
0.0415961
0.0415623
0.0415206
0.0414703
0.0414102
0.0413394
0.0412564
0.04116
0.0410485
0.0409205
0.040774
0.0406075
0.0404183
0.0402051
0.0399653
0.0396984
0.0394015
0.0390743
0.0387102
0.038312
0.0378717
0.0373991
0.0368812
0.0363314
0.0357412
0.0351132
0.0344425
0.0337322
0.0329883
0.0322279
0.0314634
0.0307241
0.029955
0.0292172
0.0284798
0.0277471
0.0270796
0.0264129
0.0257808
0.0252041
0.0246848
0.0241913
0.0237296
0.0233034
0.0225505
0.0484416
0.0436402
0.0433503
0.0432156
0.0430647
0.0429357
0.0428336
0.0427557
0.0426963
0.0426463
0.0426003
0.0425549
0.0425051
0.0424499
0.0423938
0.0423426
0.0423004
0.0422687
0.042246
0.0422293
0.0422144
0.0421972
0.0421745
0.042145
0.0421087
0.0420673
0.0420244
0.0419832
0.0419455
0.0419111
0.0418795
0.0418503
0.0418234
0.0417989
0.0417768
0.0417572
0.04174
0.0417248
0.0417112
0.0416989
0.0416875
0.0416771
0.0416678
0.0416599
0.0416534
0.0416485
0.0416451
0.041643
0.0416424
0.0416427
0.0416443
0.041647
0.0416508
0.0416558
0.0416618
0.041669
0.0416772
0.0416864
0.0416964
0.0417071
0.0417182
0.0417296
0.0417412
0.0417529
0.0417645
0.0417758
0.0417866
0.0417965
0.0418052
0.0418122
0.0418174
0.0418202
0.0418206
0.0418175
0.0418107
0.0417995
0.0417831
0.0417608
0.0417315
0.0416946
0.0416491
0.0415939
0.0415279
0.0414499
0.0413582
0.0412516
0.0411281
0.0409862
0.0408238
0.0406397
0.0404314
0.0401976
0.0399349
0.0396421
0.0393149
0.0389558
0.038559
0.0381301
0.0376575
0.0371518
0.0366012
0.0360145
0.0353917
0.0347249
0.0340217
0.0332728
0.0324854
0.0316928
0.0308999
0.0300906
0.0293534
0.0285871
0.0278643
0.0271705
0.0265
0.0258671
0.0252579
0.0246713
0.024127
0.0236342
0.0227803
0.0479788
0.0435959
0.0433272
0.0432009
0.0430551
0.042927
0.0428249
0.0427463
0.0426875
0.04264
0.0425976
0.042556
0.0425127
0.0424647
0.0424129
0.0423617
0.0423162
0.0422799
0.0422535
0.0422351
0.0422208
0.042206
0.042187
0.0421616
0.0421288
0.0420898
0.0420477
0.0420067
0.0419689
0.0419346
0.0419034
0.0418749
0.0418488
0.0418254
0.0418044
0.041786
0.04177
0.0417561
0.0417441
0.0417335
0.041724
0.0417154
0.0417081
0.041702
0.0416975
0.0416945
0.0416931
0.0416931
0.0416947
0.0416973
0.0417011
0.0417062
0.0417125
0.04172
0.0417287
0.0417385
0.0417495
0.0417616
0.0417747
0.0417886
0.0418031
0.0418181
0.0418335
0.0418492
0.0418651
0.0418809
0.0418965
0.0419115
0.0419257
0.0419388
0.0419504
0.0419601
0.0419676
0.0419725
0.0419743
0.0419724
0.0419663
0.0419553
0.0419379
0.041914
0.0418824
0.0418426
0.0417933
0.0417333
0.0416613
0.041576
0.0414756
0.0413588
0.0412233
0.0410677
0.0408892
0.0406868
0.0404576
0.0402005
0.0399116
0.039591
0.0392324
0.038838
0.0383991
0.0379251
0.0374047
0.0368481
0.0362468
0.035609
0.0349365
0.0342267
0.033497
0.032713
0.0319397
0.031116
0.0303175
0.029501
0.0286776
0.0279268
0.0271734
0.0264949
0.02584
0.0252143
0.0246346
0.0241034
0.0231196
0.0474842
0.0435501
0.0433028
0.0431883
0.0430503
0.0429208
0.0428145
0.0427327
0.042673
0.0426274
0.0425895
0.0425527
0.0425136
0.0424722
0.0424267
0.0423786
0.0423322
0.0422924
0.0422621
0.0422413
0.0422268
0.0422138
0.0421981
0.042177
0.0421485
0.0421125
0.042072
0.0420313
0.0419935
0.0419593
0.0419283
0.0419003
0.041875
0.0418526
0.0418327
0.0418156
0.0418009
0.0417884
0.0417779
0.041769
0.0417613
0.0417548
0.0417494
0.0417453
0.0417427
0.0417417
0.0417423
0.0417446
0.0417481
0.041753
0.0417592
0.0417666
0.0417754
0.0417854
0.0417967
0.0418092
0.041823
0.041838
0.0418541
0.0418712
0.0418891
0.0419076
0.0419268
0.0419464
0.0419663
0.0419866
0.0420068
0.0420269
0.0420465
0.0420653
0.042083
0.0420994
0.0421141
0.0421266
0.0421364
0.0421432
0.0421465
0.0421461
0.0421402
0.0421288
0.0421102
0.0420845
0.0420504
0.0420071
0.0419531
0.0418872
0.0418079
0.0417139
0.041603
0.041474
0.0413247
0.0411537
0.0409579
0.0407358
0.0404837
0.0402014
0.0398839
0.0395327
0.039141
0.0387132
0.0382385
0.0377247
0.0371608
0.0365563
0.0359067
0.0352111
0.0344765
0.0336849
0.0328812
0.0320556
0.0312134
0.0304039
0.0295531
0.0287733
0.0279812
0.0272231
0.0265143
0.0258122
0.0251602
0.0245756
0.0234834
0.0469615
0.043501
0.0432985
0.0431811
0.043047
0.0429155
0.0428042
0.0427176
0.0426549
0.0426092
0.0425744
0.0425431
0.0425099
0.042473
0.0424333
0.0423908
0.0423465
0.0423052
0.0422714
0.0422477
0.0422322
0.0422203
0.0422075
0.0421906
0.0421668
0.0421348
0.0420967
0.042057
0.0420194
0.0419852
0.0419545
0.041927
0.0419023
0.0418808
0.041862
0.0418461
0.0418327
0.0418218
0.0418128
0.0418055
0.0417997
0.041795
0.0417916
0.0417895
0.0417889
0.04179
0.0417927
0.0417969
0.0418026
0.0418098
0.0418182
0.041828
0.0418392
0.0418518
0.0418656
0.0418808
0.0418974
0.0419152
0.0419343
0.0419545
0.0419756
0.0419976
0.0420203
0.0420437
0.0420676
0.0420921
0.0421168
0.0421417
0.0421664
0.0421907
0.0422143
0.042237
0.0422584
0.0422782
0.042296
0.0423114
0.0423236
0.0423324
0.0423373
0.0423379
0.0423323
0.0423206
0.0423013
0.0422741
0.0422376
0.0421909
0.0421324
0.0420609
0.0419745
0.0418719
0.0417507
0.0416093
0.041445
0.0412566
0.0410412
0.0407977
0.0405213
0.0402123
0.0398644
0.0394801
0.0390508
0.0385822
0.0380654
0.037509
0.0369042
0.0362569
0.0355648
0.0348323
0.0340378
0.0332278
0.032368
0.0315308
0.0306631
0.0297903
0.0289579
0.0281129
0.0273146
0.0265629
0.025845
0.0251943
0.0240573
0.0464172
0.0434395
0.0432932
0.0431844
0.0430505
0.0429141
0.0427969
0.0427039
0.0426353
0.0425861
0.0425513
0.0425244
0.0424984
0.0424688
0.0424338
0.0423956
0.0423553
0.042315
0.0422798
0.0422542
0.0422376
0.0422264
0.0422158
0.0422027
0.0421836
0.0421563
0.0421214
0.0420832
0.0420461
0.0420122
0.0419818
0.0419545
0.0419304
0.0419096
0.0418918
0.0418772
0.0418652
0.0418558
0.0418483
0.0418428
0.0418388
0.0418361
0.0418346
0.0418344
0.041836
0.0418391
0.0418438
0.0418502
0.0418581
0.0418675
0.0418782
0.0418904
0.041904
0.041919
0.0419355
0.0419533
0.0419725
0.0419932
0.0420152
0.0420384
0.0420628
0.0420881
0.0421144
0.0421414
0.0421693
0.0421978
0.042227
0.0422565
0.0422861
0.0423157
0.042345
0.0423736
0.0424015
0.0424283
0.0424535
0.0424768
0.0424979
0.0425162
0.042531
0.0425417
0.042548
0.0425493
0.042544
0.042532
0.0425116
0.0424823
0.0424427
0.0423916
0.0423275
0.0422491
0.0421542
0.0420415
0.0419087
0.0417542
0.0415747
0.0413684
0.041131
0.0408623
0.0405569
0.0402157
0.039831
0.039406
0.0389319
0.0384147
0.0378462
0.0372347
0.0365713
0.035858
0.0351049
0.0343037
0.03346
0.0325702
0.0317067
0.0307828
0.0299155
0.0290026
0.0281325
0.0272927
0.0264837
0.0257563
0.0243779
0.0458499
0.0433723
0.0432798
0.0431893
0.0430573
0.0429157
0.0427925
0.0426928
0.0426172
0.0425622
0.0425242
0.0424986
0.0424781
0.0424562
0.0424289
0.0423957
0.042358
0.0423192
0.0422841
0.0422575
0.04224
0.0422292
0.042221
0.0422117
0.042198
0.0421762
0.0421456
0.0421096
0.0420734
0.04204
0.0420099
0.0419831
0.0419594
0.0419392
0.0419224
0.0419089
0.0418983
0.0418904
0.0418846
0.0418809
0.0418787
0.0418778
0.0418782
0.0418802
0.0418836
0.0418888
0.0418957
0.0419042
0.0419143
0.0419259
0.0419389
0.0419533
0.0419693
0.0419868
0.0420057
0.0420262
0.0420481
0.0420715
0.0420963
0.0421225
0.04215
0.0421786
0.0422082
0.0422388
0.0422704
0.0423029
0.0423362
0.0423701
0.0424045
0.0424391
0.0424737
0.0425081
0.0425421
0.0425754
0.0426077
0.0426387
0.0426679
0.0426949
0.0427194
0.0427408
0.0427581
0.042771
0.0427789
0.0427814
0.042777
0.0427648
0.0427438
0.0427127
0.0426703
0.0426153
0.042546
0.0424608
0.0423572
0.0422337
0.0420873
0.0419168
0.0417184
0.0414916
0.0412311
0.0409369
0.0406022
0.0402283
0.039807
0.0393413
0.0388223
0.0382559
0.0376333
0.0369644
0.0362438
0.0354677
0.0346467
0.0337677
0.0328981
0.0319408
0.0310093
0.0300783
0.0291663
0.0282873
0.0274301
0.0266603
0.0252009
0.045281
0.0432696
0.0432583
0.0431948
0.0430697
0.0429221
0.0427928
0.0426869
0.042604
0.0425416
0.0424974
0.0424691
0.0424499
0.0424339
0.0424156
0.04239
0.0423564
0.0423188
0.0422838
0.0422568
0.0422392
0.0422291
0.0422223
0.0422158
0.0422077
0.0421929
0.0421681
0.0421355
0.0421008
0.0420681
0.0420386
0.0420123
0.0419892
0.0419694
0.0419534
0.0419408
0.0419317
0.0419252
0.0419212
0.0419193
0.0419189
0.0419199
0.0419224
0.0419262
0.0419316
0.0419389
0.0419479
0.0419586
0.0419709
0.0419847
0.042
0.0420167
0.042035
0.0420549
0.0420763
0.0420993
0.0421238
0.0421499
0.0421776
0.0422067
0.0422372
0.042269
0.0423019
0.042336
0.0423712
0.0424075
0.0424448
0.0424829
0.0425218
0.0425613
0.042601
0.0426409
0.0426807
0.0427203
0.0427593
0.0427975
0.0428344
0.0428697
0.0429032
0.0429341
0.0429621
0.0429864
0.0430064
0.0430214
0.043031
0.0430345
0.0430306
0.043018
0.0429957
0.0429621
0.0429161
0.0428562
0.0427806
0.0426878
0.0425751
0.0424407
0.0422811
0.0420948
0.0418771
0.0416276
0.0413401
0.0410148
0.0406443
0.0402296
0.0397636
0.0392505
0.038681
0.0380593
0.0373763
0.0366391
0.0358546
0.0350241
0.0341293
0.0331859
0.0322009
0.0312639
0.0302628
0.029318
0.0283617
0.0274972
0.0259147
0.0447541
0.0431527
0.0432095
0.043183
0.0430799
0.0429341
0.0427967
0.042685
0.0425962
0.0425267
0.0424753
0.0424406
0.0424186
0.0424047
0.0423926
0.0423748
0.0423476
0.0423136
0.0422799
0.042253
0.0422356
0.0422261
0.0422204
0.042216
0.0422117
0.0422037
0.0421866
0.0421597
0.0421278
0.0420961
0.0420675
0.0420419
0.0420194
0.0420001
0.0419847
0.041973
0.0419653
0.0419602
0.041958
0.041958
0.0419595
0.0419624
0.0419667
0.0419725
0.0419799
0.0419891
0.0420002
0.042013
0.0420276
0.0420437
0.0420612
0.0420802
0.0421008
0.042123
0.0421468
0.0421722
0.0421993
0.042228
0.0422584
0.0422903
0.0423237
0.0423586
0.0423947
0.0424321
0.0424708
0.0425107
0.0425518
0.042594
0.0426371
0.0426811
0.0427257
0.0427708
0.0428161
0.0428615
0.0429068
0.0429517
0.0429959
0.0430391
0.0430809
0.043121
0.0431588
0.0431938
0.0432254
0.0432532
0.0432764
0.0432941
0.0433057
0.0433107
0.0433081
0.0432953
0.0432722
0.0432365
0.0431872
0.0431224
0.0430401
0.0429381
0.0428136
0.0426651
0.0424884
0.0422829
0.0420424
0.0417666
0.041448
0.0410864
0.0406754
0.0402164
0.0397
0.0391279
0.0384912
0.0378039
0.0370587
0.0362498
0.0353622
0.0344435
0.0334607
0.0324836
0.0313846
0.0303704
0.0293473
0.0284088
0.0265968
0.0442913
0.0430023
0.0431384
0.0431462
0.0430832
0.042948
0.0428063
0.0426881
0.0425949
0.0425204
0.0424622
0.042419
0.0423904
0.0423736
0.0423625
0.0423497
0.0423295
0.0423014
0.0422703
0.0422437
0.0422261
0.0422171
0.0422136
0.0422125
0.0422118
0.0422082
0.0421992
0.0421803
0.0421531
0.0421234
0.0420959
0.0420713
0.0420497
0.042031
0.0420163
0.0420053
0.0419986
0.0419949
0.0419944
0.0419965
0.042
0.0420047
0.042011
0.0420187
0.042028
0.0420392
0.0420523
0.0420673
0.042084
0.0421024
0.0421222
0.0421435
0.0421663
0.0421908
0.0422169
0.0422448
0.0422743
0.0423056
0.0423386
0.0423732
0.0424095
0.0424473
0.0424866
0.0425272
0.0425692
0.0426126
0.0426573
0.0427034
0.0427506
0.0427989
0.0428482
0.0428981
0.0429486
0.0429996
0.0430508
0.0431021
0.0431531
0.0432036
0.0432532
0.0433018
0.0433487
0.0433936
0.0434359
0.0434751
0.0435107
0.0435422
0.0435685
0.0435888
0.0436023
0.0436085
0.0436068
0.0435936
0.0435693
0.0435307
0.0434777
0.0434078
0.0433186
0.0432081
0.0430723
0.0429099
0.0427154
0.0424884
0.0422221
0.0419164
0.0415643
0.0411641
0.040708
0.0401975
0.0396241
0.0389935
0.0382921
0.0375309
0.036709
0.0358155
0.0348834
0.03387
0.0328151
0.0317357
0.0306493
0.0296677
0.0278571
0.043896
0.042823
0.0430253
0.0430851
0.0430625
0.0429572
0.042824
0.0426993
0.0425998
0.0425209
0.0424586
0.0424105
0.0423751
0.042351
0.0423345
0.0423204
0.0423029
0.0422788
0.0422511
0.0422265
0.0422109
0.0422034
0.0422018
0.0422037
0.0422073
0.0422077
0.0422043
0.0421943
0.0421747
0.0421491
0.0421234
0.0421001
0.0420796
0.0420618
0.0420477
0.0420376
0.0420318
0.0420294
0.0420304
0.0420347
0.0420401
0.0420468
0.0420551
0.0420647
0.0420759
0.042089
0.0421041
0.0421211
0.04214
0.0421606
0.0421827
0.0422063
0.0422314
0.042258
0.0422865
0.0423166
0.0423485
0.0423822
0.0424177
0.042455
0.042494
0.0425346
0.0425768
0.0426205
0.0426656
0.0427123
0.0427605
0.0428102
0.0428613
0.0429137
0.0429672
0.0430217
0.0430771
0.0431332
0.04319
0.0432472
0.0433046
0.0433619
0.0434188
0.0434752
0.0435306
0.0435847
0.0436369
0.0436869
0.0437342
0.0437783
0.0438184
0.0438539
0.0438841
0.0439074
0.0439235
0.0439315
0.0439313
0.0439176
0.0438922
0.0438509
0.0437932
0.0437165
0.0436179
0.0434958
0.0433457
0.0431665
0.0429514
0.0426994
0.0424027
0.0420596
0.0416634
0.0412133
0.0407004
0.0401265
0.0394775
0.0387664
0.0379852
0.0371342
0.0362009
0.0351798
0.0341413
0.0329687
0.0317968
0.0306974
0.0286432
0.0435842
0.0426213
0.0428559
0.0429911
0.0430156
0.0429599
0.0428423
0.0427195
0.0426143
0.0425292
0.0424632
0.0424127
0.0423744
0.0423454
0.0423236
0.0423043
0.0422826
0.0422566
0.0422286
0.0422042
0.0421887
0.0421825
0.0421826
0.042187
0.0421953
0.0422022
0.0422041
0.0422012
0.0421905
0.0421712
0.0421488
0.0421274
0.0421084
0.0420919
0.0420787
0.0420695
0.0420643
0.0420631
0.0420658
0.042072
0.0420793
0.0420883
0.0420986
0.0421101
0.0421232
0.0421382
0.0421552
0.0421742
0.0421952
0.042218
0.0422424
0.0422682
0.0422955
0.0423244
0.042355
0.0423874
0.0424216
0.0424577
0.0424956
0.0425354
0.0425769
0.0426203
0.0426653
0.0427119
0.0427601
0.04281
0.0428615
0.0429146
0.0429693
0.0430255
0.0430831
0.043142
0.0432019
0.0432629
0.0433249
0.0433876
0.0434509
0.0435145
0.0435782
0.0436418
0.0437051
0.0437676
0.043829
0.0438888
0.0439467
0.0440022
0.0440548
0.0441038
0.0441485
0.0441882
0.0442221
0.0442485
0.0442672
0.0442769
0.0442778
0.044264
0.0442373
0.0441933
0.0441309
0.0440477
0.0439397
0.0438054
0.0436386
0.0434385
0.0431979
0.042915
0.0425832
0.0421998
0.0417564
0.0412511
0.0406738
0.0400324
0.039311
0.0385136
0.037637
0.0366782
0.0356384
0.0345842
0.0333804
0.032278
0.0301825
0.0433778
0.0424377
0.0426354
0.0428408
0.0429326
0.0429271
0.0428486
0.0427415
0.0426397
0.0425537
0.0424829
0.0424263
0.0423821
0.0423494
0.0423249
0.0423025
0.0422774
0.0422478
0.0422166
0.0421883
0.0421685
0.0421607
0.0421614
0.0421668
0.0421784
0.0421918
0.0422003
0.0422024
0.042199
0.0421881
0.0421712
0.0421529
0.0421358
0.042121
0.0421089
0.0421008
0.0420964
0.0420961
0.0421005
0.0421084
0.0421178
0.0421289
0.0421413
0.0421549
0.0421699
0.0421867
0.0422056
0.0422265
0.0422496
0.0422744
0.042301
0.042329
0.0423585
0.0423896
0.0424223
0.0424569
0.0424934
0.0425317
0.0425719
0.042614
0.042658
0.0427039
0.0427516
0.042801
0.0428521
0.0429049
0.0429595
0.0430158
0.0430739
0.0431337
0.0431951
0.0432579
0.0433222
0.0433876
0.0434543
0.0435222
0.0435909
0.0436604
0.0437303
0.0438005
0.043871
0.0439413
0.044011
0.0440799
0.0441476
0.0442137
0.0442778
0.0443393
0.0443977
0.0444522
0.0445021
0.0445466
0.0445849
0.0446149
0.0446366
0.0446484
0.0446503
0.0446362
0.0446071
0.044559
0.0444902
0.0443985
0.0442789
0.04413
0.0439447
0.0437209
0.0434513
0.0431326
0.0427565
0.0423193
0.0418128
0.0412387
0.0405813
0.0398467
0.0390206
0.0381088
0.0370989
0.0360173
0.0347799
0.0336352
0.0315768
0.0432758
0.0423019
0.0424199
0.0426293
0.0427951
0.0428493
0.0428283
0.0427499
0.0426576
0.0425789
0.0425105
0.0424533
0.042406
0.0423685
0.0423373
0.0423089
0.0422799
0.0422485
0.0422155
0.0421846
0.0421602
0.0421462
0.0421435
0.0421471
0.0421578
0.0421748
0.0421903
0.0421992
0.0422016
0.0421986
0.0421888
0.0421751
0.0421609
0.0421481
0.0421376
0.0421307
0.0421274
0.0421281
0.0421341
0.0421436
0.042155
0.0421683
0.0421829
0.0421986
0.0422156
0.0422342
0.0422549
0.0422778
0.0423027
0.0423296
0.0423582
0.0423884
0.04242
0.0424533
0.0424882
0.0425249
0.0425635
0.0426039
0.0426463
0.0426907
0.0427371
0.0427854
0.0428356
0.0428876
0.0429414
0.042997
0.0430545
0.0431139
0.0431752
0.0432383
0.0433032
0.0433698
0.043438
0.0435077
0.0435788
0.0436513
0.0437251
0.0438
0.0438756
0.043952
0.044029
0.0441064
0.0441838
0.0442609
0.0443374
0.0444131
0.0444875
0.0445603
0.0446309
0.0446986
0.044763
0.0448233
0.0448785
0.0449281
0.0449709
0.0450049
0.0450297
0.0450438
0.0450466
0.0450322
0.045001
0.044949
0.044873
0.0447711
0.0446367
0.0444682
0.0442579
0.0440025
0.0436942
0.0433296
0.0429
0.0424006
0.0418195
0.0411642
0.0404176
0.039578
0.0386218
0.0375619
0.0364077
0.0351907
0.0330978
0.0432371
0.0422283
0.0422847
0.0424169
0.0426017
0.0427204
0.0427579
0.0427331
0.0426614
0.0425911
0.0425347
0.0424859
0.042441
0.0423994
0.0423613
0.0423268
0.0422932
0.0422583
0.0422222
0.042188
0.04216
0.0421418
0.0421344
0.0421346
0.0421411
0.0421573
0.0421771
0.0421933
0.0422018
0.042204
0.042201
0.0421931
0.0421828
0.0421727
0.0421644
0.042159
0.042157
0.042159
0.0421665
0.0421776
0.042191
0.0422065
0.0422232
0.0422411
0.0422601
0.0422806
0.0423032
0.0423278
0.0423546
0.0423835
0.0424141
0.0424464
0.0424801
0.0425154
0.0425524
0.0425911
0.0426318
0.0426743
0.0427188
0.0427653
0.0428139
0.0428645
0.042917
0.0429715
0.0430278
0.0430861
0.0431463
0.0432085
0.0432727
0.0433389
0.0434071
0.0434771
0.0435489
0.0436224
0.0436976
0.0437744
0.0438528
0.0439325
0.0440134
0.0440954
0.0441783
0.044262
0.0443464
0.0444309
0.0445155
0.0445998
0.0446836
0.0447666
0.0448482
0.0449281
0.0450056
0.0450802
0.0451512
0.0452179
0.0452792
0.0453343
0.0453822
0.0454205
0.0454485
0.0454646
0.0454681
0.0454527
0.0454179
0.04536
0.0452747
0.0451602
0.045009
0.0448179
0.0445794
0.0442882
0.0439347
0.0435132
0.0430143
0.0424379
0.0417666
0.041002
0.0401142
0.039131
0.0379955
0.0368251
0.0348908
0.043242
0.0422192
0.0422306
0.0422612
0.0423823
0.0425319
0.0426343
0.0426662
0.0426428
0.0425909
0.0425417
0.0425045
0.0424728
0.0424373
0.0423981
0.0423586
0.0423178
0.0422768
0.0422364
0.0421988
0.0421669
0.0421444
0.042133
0.0421308
0.0421344
0.0421463
0.0421658
0.0421859
0.0422001
0.0422073
0.0422093
0.0422072
0.0422015
0.0421947
0.0421889
0.0421853
0.0421848
0.0421887
0.0421976
0.0422102
0.0422256
0.0422432
0.0422622
0.0422822
0.0423033
0.0423258
0.0423501
0.0423766
0.0424052
0.0424359
0.0424685
0.0425027
0.0425384
0.0425757
0.0426147
0.0426554
0.0426981
0.0427426
0.0427891
0.0428376
0.0428883
0.042941
0.0429957
0.0430525
0.0431112
0.0431719
0.0432347
0.0432995
0.0433665
0.0434355
0.0435067
0.0435799
0.0436551
0.0437321
0.043811
0.0438917
0.0439743
0.0440585
0.0441442
0.0442312
0.0443195
0.0444091
0.0444996
0.0445909
0.0446827
0.0447748
0.044867
0.044959
0.0450505
0.045141
0.0452302
0.0453175
0.0454024
0.0454843
0.0455622
0.0456357
0.0457035
0.0457646
0.0458178
0.0458604
0.0458919
0.0459102
0.0459144
0.0458978
0.0458589
0.0457937
0.0456964
0.0455645
0.0453897
0.0451667
0.0448866
0.0445442
0.0441288
0.0436349
0.043048
0.0423617
0.0415528
0.0406322
0.0395335
0.0383655
0.0365459
0.0432606
0.0422359
0.0422123
0.0421799
0.0422069
0.0423146
0.0424533
0.042549
0.0425825
0.0425697
0.0425348
0.0425066
0.0424818
0.0424581
0.0424321
0.0423971
0.0423551
0.0423098
0.0422644
0.0422216
0.0421838
0.0421547
0.0421376
0.0421323
0.0421338
0.0421427
0.0421603
0.0421814
0.0421994
0.042211
0.0422171
0.0422189
0.0422177
0.0422144
0.0422113
0.0422098
0.0422111
0.0422169
0.0422272
0.0422415
0.042259
0.0422786
0.0422997
0.0423219
0.0423451
0.0423695
0.0423957
0.0424239
0.0424544
0.0424869
0.0425213
0.0425574
0.042595
0.0426342
0.0426751
0.0427178
0.0427623
0.0428088
0.0428572
0.0429077
0.0429602
0.043015
0.0430718
0.0431306
0.0431916
0.0432545
0.0433196
0.0433869
0.0434564
0.0435281
0.043602
0.0436781
0.0437563
0.0438366
0.0439188
0.0440031
0.0440894
0.0441777
0.0442676
0.0443592
0.0444523
0.044547
0.0446431
0.0447404
0.0448386
0.0449376
0.0450372
0.0451373
0.0452375
0.0453376
0.0454371
0.0455357
0.0456329
0.0457283
0.0458211
0.0459108
0.0459965
0.0460774
0.0461522
0.0462197
0.0462787
0.046326
0.0463611
0.0463812
0.0463856
0.0463658
0.0463203
0.0462446
0.0461324
0.0459786
0.0457753
0.0455151
0.0451863
0.0447825
0.0442917
0.0437053
0.0430061
0.0421722
0.0411851
0.0400492
0.0384022
0.0432755
0.0422651
0.0422129
0.0421335
0.0421012
0.0421308
0.0422427
0.0423805
0.042478
0.0425129
0.0425105
0.0424967
0.0424777
0.0424593
0.0424394
0.0424169
0.0423891
0.0423488
0.0423035
0.0422575
0.0422142
0.0421777
0.0421519
0.0421399
0.0421385
0.0421441
0.042159
0.0421804
0.0422007
0.0422155
0.0422248
0.0422301
0.0422323
0.0422323
0.0422318
0.0422326
0.042236
0.0422437
0.0422557
0.0422717
0.042291
0.0423127
0.0423359
0.0423603
0.0423855
0.0424118
0.0424398
0.0424699
0.0425021
0.0425364
0.0425726
0.0426105
0.0426499
0.0426909
0.0427336
0.0427781
0.0428244
0.0428727
0.0429229
0.0429752
0.0430297
0.0430862
0.043145
0.0432058
0.0432688
0.0433338
0.0434011
0.0434706
0.0435424
0.0436165
0.0436929
0.0437717
0.0438527
0.0439358
0.0440212
0.0441087
0.0441984
0.0442902
0.044384
0.0444797
0.0445772
0.0446764
0.0447775
0.04488
0.044984
0.0450891
0.0451953
0.0453025
0.0454104
0.0455188
0.0456274
0.0457359
0.0458439
0.045951
0.0460568
0.0461606
0.046262
0.0463602
0.046454
0.0465428
0.0466251
0.0466994
0.0467646
0.0468168
0.0468555
0.0468774
0.0468816
0.0468579
0.0468048
0.0467142
0.0465805
0.0463943
0.046146
0.0458277
0.0454247
0.0449271
0.0443111
0.0435489
0.0426435
0.0415375
0.040052
0.0432847
0.0422948
0.0422242
0.0421128
0.042037
0.0420107
0.0420577
0.0421859
0.0423286
0.0424219
0.042461
0.0424681
0.0424613
0.0424493
0.0424345
0.0424182
0.0423993
0.0423764
0.0423412
0.0422997
0.0422551
0.0422133
0.0421788
0.0421573
0.0421502
0.042152
0.0421627
0.0421827
0.0422041
0.0422212
0.0422332
0.0422412
0.0422462
0.0422491
0.0422511
0.0422541
0.0422597
0.0422692
0.0422831
0.042301
0.0423221
0.0423456
0.0423709
0.0423973
0.0424245
0.0424528
0.0424826
0.0425144
0.0425484
0.0425844
0.0426223
0.0426619
0.0427031
0.0427458
0.0427902
0.0428364
0.0428845
0.0429345
0.0429864
0.0430404
0.0430966
0.0431549
0.0432154
0.0432781
0.0433429
0.04341
0.0434792
0.0435507
0.0436247
0.043701
0.0437797
0.0438608
0.0439443
0.0440301
0.0441182
0.0442086
0.0443013
0.0443964
0.0444936
0.0445929
0.0446942
0.0447976
0.0449029
0.0450102
0.0451191
0.0452296
0.0453416
0.0454549
0.0455696
0.0456852
0.0458017
0.0459187
0.0460361
0.0461534
0.0462703
0.0463865
0.0465014
0.0466145
0.046725
0.0468322
0.0469349
0.0470323
0.0471228
0.0472048
0.0472767
0.0473339
0.047376
0.0473987
0.0474014
0.047369
0.0473037
0.0471912
0.0470287
0.0468023
0.0464991
0.0461085
0.0455999
0.0449492
0.0441485
0.0431317
0.0417749
0.043293
0.0423189
0.0422395
0.0421061
0.0419988
0.0419343
0.0419304
0.0420061
0.0421549
0.0422971
0.0423842
0.04242
0.0424284
0.0424249
0.0424183
0.0424102
0.042398
0.0423838
0.0423638
0.0423348
0.0422971
0.0422554
0.0422158
0.0421857
0.0421705
0.0421678
0.0421732
0.0421893
0.0422105
0.0422287
0.0422424
0.0422527
0.0422601
0.0422652
0.0422695
0.0422746
0.0422823
0.0422938
0.0423096
0.0423293
0.0423522
0.0423776
0.0424048
0.0424331
0.0424622
0.0424924
0.042524
0.0425575
0.0425932
0.0426309
0.0426704
0.0427117
0.0427544
0.0427988
0.0428448
0.0428926
0.0429423
0.042994
0.0430475
0.0431032
0.0431609
0.0432209
0.043283
0.0433474
0.043414
0.0434828
0.0435538
0.0436272
0.0437031
0.0437814
0.0438622
0.0439454
0.0440312
0.0441194
0.04421
0.0443029
0.0443983
0.0444962
0.0445965
0.044699
0.0448037
0.0449107
0.0450198
0.0451311
0.0452445
0.0453596
0.0454766
0.0455953
0.0457158
0.0458377
0.0459609
0.0460854
0.0462107
0.0463368
0.0464634
0.04659
0.0467165
0.0468423
0.046967
0.0470899
0.0472102
0.0473273
0.0474396
0.0475465
0.047646
0.047736
0.0478151
0.0478773
0.0479233
0.0479467
0.0479481
0.0479045
0.047824
0.0476835
0.0474798
0.0471948
0.0467926
0.0462475
0.0455277
0.0445939
0.0433455
0.0433036
0.0423353
0.0422463
0.0421014
0.0419753
0.0418813
0.0418447
0.0418726
0.041989
0.042152
0.0422819
0.0423521
0.0423804
0.0423881
0.0423897
0.0423902
0.0423886
0.0423819
0.0423708
0.0423537
0.0423291
0.0422954
0.0422568
0.0422216
0.0421985
0.0421905
0.0421917
0.0422017
0.0422206
0.0422387
0.0422533
0.0422651
0.0422744
0.0422814
0.0422876
0.0422946
0.0423042
0.0423177
0.0423355
0.042357
0.0423817
0.0424089
0.0424378
0.042468
0.0424989
0.0425308
0.0425641
0.0425994
0.0426367
0.042676
0.0427172
0.04276
0.0428043
0.0428501
0.0428976
0.042947
0.0429982
0.0430514
0.0431065
0.0431637
0.0432229
0.0432844
0.0433481
0.043414
0.0434822
0.0435526
0.0436253
0.0437004
0.043778
0.0438582
0.0439408
0.0440261
0.0441138
0.0442042
0.0442969
0.0443922
0.04449
0.0445905
0.0446934
0.0447988
0.0449065
0.0450165
0.045129
0.0452439
0.045361
0.0454802
0.0456015
0.0457249
0.0458503
0.0459776
0.0461066
0.0462373
0.0463695
0.046503
0.0466377
0.0467732
0.0469095
0.0470461
0.0471827
0.0473188
0.0474539
0.0475874
0.0477185
0.0478463
0.0479694
0.0480867
0.0481962
0.0482954
0.0483826
0.0484503
0.0484999
0.0485218
0.0485143
0.04845
0.0483388
0.0481539
0.0478701
0.047457
0.0468467
0.0460245
0.044877
0.0433182
0.0423449
0.0422436
0.042092
0.0419551
0.0418444
0.0417864
0.0417826
0.0418507
0.0420049
0.0421652
0.042269
0.0423188
0.0423396
0.0423507
0.0423609
0.0423691
0.0423729
0.0423696
0.0423594
0.0423458
0.0423248
0.0422945
0.0422598
0.0422319
0.0422182
0.0422158
0.0422203
0.0422351
0.0422519
0.0422662
0.0422787
0.0422894
0.0422979
0.0423057
0.0423144
0.0423258
0.0423412
0.0423609
0.0423843