/*--------------------------------*- C++ -*----------------------------------*\
| =========                 |                                                 |
| \\      /  F ield         | OpenFOAM: The Open Source CFD Toolbox           |
|  \\    /   O peration     | Version:  2412                                  |
|   \\  /    A nd           | Website:  www.openfoam.com                      |
|    \\/     M anipulation  |                                                 |
\*---------------------------------------------------------------------------*/
FoamFile
{
    version     2.0;
    format      ascii;
    arch        "LSB;label=32;scalar=64";
    class       volVectorField;
    location    "0.039";
    object      U;
}
// * * * * * * * * * * * * * * * * * * * * * * * * * * * * * * * * * * * * * //

dimensions      [0 1 -1 0 0 0 0];

internalField   nonuniform List<vector> 
9771
(
(291.471 87.0309 0)
(272.89 -2.06336 0)
(248.454 -7.81667 0)
(234.36 -9.09539 0)
(228.595 -11.0378 0)
(226.012 -12.0311 0)
(224.251 -12.5338 0)
(222.761 -12.7364 0)
(221.438 -12.7955 0)
(220.229 -12.7898 0)
(291.827 87.0573 0)
(273.369 -2.10994 0)
(248.523 -7.85383 0)
(234.386 -9.12328 0)
(228.614 -11.0591 0)
(226.028 -12.0501 0)
(224.266 -12.5514 0)
(222.777 -12.7534 0)
(221.454 -12.8127 0)
(220.245 -12.8076 0)
(292.101 87.0856 0)
(273.812 -2.208 0)
(248.58 -7.89871 0)
(234.416 -9.14785 0)
(228.636 -11.0781 0)
(226.044 -12.0684 0)
(224.282 -12.5687 0)
(222.793 -12.77 0)
(221.471 -12.8294 0)
(220.262 -12.8249 0)
(292.338 87.1276 0)
(274.336 -2.2559 0)
(248.643 -7.9348 0)
(234.442 -9.17496 0)
(228.655 -11.0989 0)
(226.06 -12.0869 0)
(224.296 -12.5859 0)
(222.808 -12.7866 0)
(221.486 -12.8463 0)
(220.278 -12.8423 0)
(292.546 87.1687 0)
(274.825 -2.36467 0)
(248.692 -7.98033 0)
(234.472 -9.19877 0)
(228.677 -11.1177 0)
(226.076 -12.1052 0)
(224.312 -12.6031 0)
(222.824 -12.8033 0)
(221.503 -12.8631 0)
(220.294 -12.8598 0)
(292.791 87.2051 0)
(275.415 -2.42725 0)
(248.75 -8.01626 0)
(234.498 -9.22581 0)
(228.696 -11.1385 0)
(226.091 -12.1238 0)
(224.327 -12.6205 0)
(222.84 -12.8201 0)
(221.519 -12.8802 0)
(220.31 -12.8776 0)
(293.032 87.2363 0)
(275.973 -2.54421 0)
(248.791 -8.06319 0)
(234.529 -9.24918 0)
(228.719 -11.1574 0)
(226.108 -12.1423 0)
(224.342 -12.6379 0)
(222.856 -12.837 0)
(221.536 -12.8973 0)
(220.327 -12.8954 0)
(219.196 -12.8804 0)
(218.132 -12.8685 0)
(217.142 -12.8541 0)
(216.225 -12.8295 0)
(215.363 -12.806 0)
(214.545 -12.7938 0)
(213.765 -12.7894 0)
(213.015 -12.792 0)
(212.292 -12.797 0)
(211.591 -12.8064 0)
(210.909 -12.8119 0)
(210.244 -12.816 0)
(209.592 -12.813 0)
(208.949 -12.8013 0)
(208.308 -12.7872 0)
(207.665 -12.7875 0)
(207.02 -12.8116 0)
(206.38 -12.8486 0)
(205.75 -12.8855 0)
(205.128 -12.9209 0)
(204.514 -12.9649 0)
(203.906 -13.0187 0)
(293.296 87.2805 0)
(276.64 -2.62867 0)
(248.842 -8.09929 0)
(234.555 -9.27621 0)
(228.737 -11.1784 0)
(226.123 -12.1611 0)
(224.357 -12.6555 0)
(222.872 -12.8541 0)
(221.552 -12.9147 0)
(220.344 -12.9135 0)
(219.212 -12.8993 0)
(218.149 -12.8881 0)
(217.16 -12.8741 0)
(216.242 -12.8499 0)
(215.381 -12.8269 0)
(214.563 -12.8153 0)
(213.783 -12.8117 0)
(213.034 -12.8152 0)
(212.311 -12.8212 0)
(211.611 -12.8318 0)
(210.931 -12.8387 0)
(210.267 -12.8441 0)
(209.617 -12.8427 0)
(208.976 -12.8327 0)
(208.337 -12.8205 0)
(207.695 -12.8228 0)
(207.052 -12.849 0)
(206.415 -12.8879 0)
(205.788 -12.9268 0)
(205.169 -12.9641 0)
(204.557 -13.0102 0)
(203.953 -13.066 0)
(203.359 -13.1279 0)
(202.777 -13.1933 0)
(202.208 -13.2685 0)
(201.652 -13.3583 0)
(201.106 -13.4666 0)
(200.57 -13.5918 0)
(293.467 87.3203 0)
(277.279 -2.76149 0)
(248.872 -8.14742 0)
(234.587 -9.29916 0)
(228.761 -11.1973 0)
(226.14 -12.1798 0)
(224.373 -12.6731 0)
(222.888 -12.8712 0)
(221.569 -12.9321 0)
(220.361 -12.9317 0)
(219.23 -12.9183 0)
(218.166 -12.9078 0)
(217.177 -12.8942 0)
(216.26 -12.8704 0)
(215.399 -12.848 0)
(214.581 -12.837 0)
(213.802 -12.8342 0)
(213.053 -12.8386 0)
(212.33 -12.8458 0)
(211.631 -12.8576 0)
(210.952 -12.8658 0)
(210.29 -12.8726 0)
(209.642 -12.8728 0)
(209.002 -12.8646 0)
(208.365 -12.8544 0)
(207.725 -12.8589 0)
(207.084 -12.8872 0)
(206.449 -12.9282 0)
(205.824 -12.9691 0)
(205.208 -13.0087 0)
(204.598 -13.0569 0)
(203.997 -13.115 0)
(203.406 -13.1791 0)
(202.827 -13.2465 0)
(202.261 -13.3236 0)
(201.708 -13.4152 0)
(201.166 -13.5254 0)
(200.633 -13.6527 0)
(200.109 -13.7948 0)
(293.629 87.3547 0)
(277.99 -2.85451 0)
(248.916 -8.18269 0)
(234.613 -9.32641 0)
(228.779 -11.2188 0)
(226.155 -12.1987 0)
(224.388 -12.6908 0)
(222.904 -12.8885 0)
(221.586 -12.9497 0)
(220.378 -12.95 0)
(219.246 -12.9375 0)
(218.183 -12.9277 0)
(217.194 -12.9145 0)
(216.277 -12.8911 0)
(215.417 -12.8692 0)
(214.599 -12.8589 0)
(213.82 -12.8567 0)
(213.072 -12.862 0)
(212.35 -12.8703 0)
(211.652 -12.8833 0)
(210.975 -12.8928 0)
(210.314 -12.901 0)
(209.667 -12.9027 0)
(209.029 -12.8963 0)
(208.394 -12.8881 0)
(207.756 -12.8945 0)
(207.117 -12.9248 0)
(206.485 -12.9679 0)
(205.863 -13.0108 0)
(205.249 -13.0523 0)
(204.643 -13.1025 0)
(204.045 -13.1625 0)
(203.457 -13.2286 0)
(202.882 -13.2979 0)
(202.319 -13.3766 0)
(201.769 -13.47 0)
(201.231 -13.582 0)
(200.701 -13.7112 0)
(200.181 -13.8553 0)
(293.632 87.4483 0)
(278.472 -3.0105 0)
(248.931 -8.25047 0)
(234.645 -9.34783 0)
(228.802 -11.236 0)
(226.171 -12.2172 0)
(224.403 -12.7086 0)
(222.92 -12.9056 0)
(221.602 -12.967 0)
(220.395 -12.968 0)
(219.263 -12.9564 0)
(218.2 -12.9474 0)
(217.212 -12.9347 0)
(216.295 -12.9117 0)
(215.434 -12.8903 0)
(214.617 -12.8807 0)
(213.838 -12.8794 0)
(213.091 -12.8857 0)
(212.37 -12.8953 0)
(211.672 -12.9097 0)
(210.996 -12.9207 0)
(210.337 -12.9304 0)
(209.692 -12.9339 0)
(209.055 -12.9293 0)
(208.421 -12.9232 0)
(207.785 -12.9319 0)
(207.149 -12.9646 0)
(206.519 -13.0098 0)
(205.899 -13.055 0)
(205.288 -13.0988 0)
(204.684 -13.1514 0)
(204.089 -13.2139 0)
(203.504 -13.2823 0)
(202.932 -13.3535 0)
(202.373 -13.434 0)
(201.826 -13.5291 0)
(201.291 -13.6431 0)
(200.765 -13.7748 0)
(200.248 -13.9217 0)
(315.226 70.4777 0)
(277.232 -8.36849 0)
(249.588 -9.71494 0)
(235.467 -10.1283 0)
(229.331 -11.8348 0)
(226.551 -12.7067 0)
(224.732 -13.1194 0)
(223.233 -13.2718 0)
(221.903 -13.3135 0)
(220.683 -13.3073 0)
(219.54 -13.2923 0)
(218.47 -13.2786 0)
(217.476 -13.2584 0)
(216.554 -13.2288 0)
(215.688 -13.2041 0)
(214.867 -13.1931 0)
(214.086 -13.1929 0)
(213.337 -13.2018 0)
(212.619 -13.2173 0)
(211.928 -13.2377 0)
(211.261 -13.2571 0)
(210.613 -13.2755 0)
(209.98 -13.2903 0)
(209.356 -13.2989 0)
(208.736 -13.3089 0)
(208.117 -13.334 0)
(207.5 -13.3829 0)
(206.891 -13.4436 0)
(206.293 -13.5043 0)
(205.705 -13.5637 0)
(205.127 -13.6319 0)
(204.56 -13.7102 0)
(204.003 -13.7947 0)
(203.458 -13.8813 0)
(202.926 -13.9756 0)
(202.406 -14.0834 0)
(201.9 -14.2103 0)
(201.405 -14.3558 0)
(200.923 -14.5184 0)
(200.452 -14.6921 0)
(199.992 -14.8742 0)
(199.542 -15.0622 0)
(199.103 -15.2571 0)
(198.674 -15.4587 0)
(198.256 -15.6685 0)
(197.846 -15.8871 0)
(197.445 -16.1157 0)
(197.052 -16.3538 0)
(196.666 -16.6008 0)
(196.288 -16.8558 0)
(195.918 -17.1186 0)
(195.555 -17.389 0)
(195.199 -17.668 0)
(194.85 -17.9563 0)
(194.508 -18.2549 0)
(194.172 -18.5639 0)
(193.843 -18.8837 0)
(193.524 -19.2136 0)
(193.215 -19.5533 0)
(192.918 -19.902 0)
(192.634 -20.2588 0)
(192.361 -20.6219 0)
(192.103 -20.9905 0)
(191.857 -21.3644 0)
(191.624 -21.7438 0)
(191.409 -22.1282 0)
(191.209 -22.516 0)
(191.027 -22.9067 0)
(190.862 -23.299 0)
(190.714 -23.692 0)
(190.583 -24.0847 0)
(190.469 -24.4771 0)
(190.37 -24.8693 0)
(190.287 -25.2615 0)
(190.218 -25.6532 0)
(190.163 -26.0431 0)
(190.123 -26.4296 0)
(190.097 -26.8119 0)
(190.099 -27.1916 0)
(278.488 46.7074 0)
(264.515 -13.7647 0)
(249.697 -11.8548 0)
(236.899 -11.633 0)
(230.205 -13.1151 0)
(227.175 -13.7074 0)
(225.304 -13.9329 0)
(223.798 -13.9931 0)
(222.453 -13.9966 0)
(221.21 -13.9756 0)
(220.048 -13.9519 0)
(218.963 -13.9266 0)
(217.96 -13.8908 0)
(217.03 -13.8478 0)
(216.157 -13.8157 0)
(215.331 -13.7995 0)
(214.547 -13.7984 0)
(213.802 -13.8083 0)
(213.092 -13.8302 0)
(212.416 -13.8572 0)
(211.77 -13.8872 0)
(211.147 -13.918 0)
(210.541 -13.9509 0)
(209.945 -13.9817 0)
(209.355 -14.0184 0)
(208.769 -14.0701 0)
(208.191 -14.1445 0)
(207.625 -14.2289 0)
(207.072 -14.3144 0)
(206.53 -14.3986 0)
(206.001 -14.4915 0)
(205.485 -14.5941 0)
(204.984 -14.7042 0)
(204.496 -14.8161 0)
(204.022 -14.9332 0)
(203.561 -15.0604 0)
(203.115 -15.2046 0)
(202.684 -15.3671 0)
(202.269 -15.5474 0)
(201.87 -15.7402 0)
(201.487 -15.9418 0)
(201.12 -16.1493 0)
(200.77 -16.3634 0)
(200.435 -16.5849 0)
(200.115 -16.8154 0)
(199.809 -17.0551 0)
(199.518 -17.3035 0)
(199.242 -17.5593 0)
(198.982 -17.8212 0)
(198.739 -18.0887 0)
(198.513 -18.362 0)
(198.303 -18.6416 0)
(198.109 -18.928 0)
(197.931 -19.2212 0)
(197.77 -19.5214 0)
(197.624 -19.8278 0)
(197.496 -20.1389 0)
(197.386 -20.4533 0)
(197.291 -20.7705 0)
(197.216 -21.0903 0)
(197.162 -21.4103 0)
(197.121 -21.7278 0)
(197.094 -22.043 0)
(197.091 -22.3567 0)
(197.098 -22.6725 0)
(197.11 -22.9853 0)
(197.143 -23.2932 0)
(197.194 -23.5955 0)
(197.258 -23.8921 0)
(197.336 -24.1825 0)
(197.427 -24.4663 0)
(197.528 -24.7444 0)
(197.644 -25.0155 0)
(197.764 -25.283 0)
(197.903 -25.5422 0)
(198.042 -25.7986 0)
(198.202 -26.0438 0)
(198.364 -26.2847 0)
(198.542 -26.5115 0)
(253.853 26.1781 0)
(257.138 -17.823 0)
(249.518 -13.6927 0)
(237.908 -13.2377 0)
(230.866 -14.4166 0)
(227.678 -14.7145 0)
(225.787 -14.7489 0)
(224.283 -14.7181 0)
(222.932 -14.6818 0)
(221.68 -14.6445 0)
(220.513 -14.6107 0)
(219.428 -14.5732 0)
(218.427 -14.5232 0)
(217.496 -14.4688 0)
(216.621 -14.4302 0)
(215.795 -14.408 0)
(215.013 -14.4042 0)
(214.273 -14.4126 0)
(213.574 -14.4365 0)
(212.914 -14.4654 0)
(212.288 -14.5012 0)
(211.688 -14.5407 0)
(211.107 -14.5886 0)
(210.538 -14.6383 0)
(209.977 -14.6971 0)
(209.426 -14.7692 0)
(208.889 -14.8626 0)
(208.367 -14.9649 0)
(207.861 -15.0697 0)
(207.369 -15.1724 0)
(206.892 -15.2824 0)
(206.43 -15.4011 0)
(205.987 -15.5295 0)
(205.558 -15.6611 0)
(205.145 -15.7965 0)
(204.747 -15.938 0)
(204.366 -16.0922 0)
(204.002 -16.2607 0)
(203.658 -16.4442 0)
(203.333 -16.6377 0)
(203.03 -16.8384 0)
(202.747 -17.0441 0)
(202.485 -17.2565 0)
(202.241 -17.4763 0)
(202.016 -17.704 0)
(201.809 -17.9383 0)
(201.621 -18.1776 0)
(201.451 -18.4198 0)
(201.301 -18.664 0)
(201.169 -18.9101 0)
(201.056 -19.1584 0)
(200.96 -19.4089 0)
(200.882 -19.6611 0)
(200.821 -19.9138 0)
(200.777 -20.1663 0)
(200.747 -20.4182 0)
(200.735 -20.6687 0)
(200.736 -20.9173 0)
(200.768 -21.1618 0)
(200.799 -21.4088 0)
(200.84 -21.6469 0)
(200.906 -21.8804 0)
(200.976 -22.1103 0)
(201.065 -22.3341 0)
(201.162 -22.5528 0)
(201.253 -22.7691 0)
(201.364 -22.9777 0)
(201.486 -23.1814 0)
(201.62 -23.3762 0)
(201.755 -23.5669 0)
(201.905 -23.7452 0)
(202.051 -23.9207 0)
(202.21 -24.0812 0)
(202.362 -24.2402 0)
(202.524 -24.3833 0)
(202.678 -24.5236 0)
(202.837 -24.6486 0)
(202.986 -24.7675 0)
(203.13 -24.872 0)
(241.478 9.32468 0)
(252.258 -21.811 0)
(247.989 -15.5184 0)
(238.537 -14.7288 0)
(231.435 -15.6751 0)
(228.107 -15.7226 0)
(226.196 -15.5656 0)
(224.692 -15.4446 0)
(223.34 -15.3649 0)
(222.09 -15.3081 0)
(220.929 -15.2623 0)
(219.856 -15.2124 0)
(218.864 -15.1503 0)
(217.94 -15.087 0)
(217.072 -15.0423 0)
(216.253 -15.0139 0)
(215.48 -15.0056 0)
(214.751 -15.0107 0)
(214.067 -15.0326 0)
(213.426 -15.0598 0)
(212.822 -15.097 0)
(212.246 -15.1421 0)
(211.69 -15.2012 0)
(211.148 -15.2657 0)
(210.62 -15.3405 0)
(210.105 -15.4265 0)
(209.608 -15.5321 0)
(209.13 -15.6464 0)
(208.672 -15.7648 0)
(208.23 -15.8803 0)
(207.805 -16.0004 0)
(207.398 -16.1265 0)
(207.011 -16.2641 0)
(206.641 -16.4064 0)
(206.29 -16.5524 0)
(205.955 -16.7008 0)
(205.64 -16.8571 0)
(205.342 -17.0219 0)
(205.067 -17.1958 0)
(204.812 -17.3752 0)
(204.581 -17.5591 0)
(204.371 -17.7465 0)
(204.183 -17.939 0)
(204.015 -18.1369 0)
(203.868 -18.34 0)
(203.74 -18.546 0)
(203.633 -18.7528 0)
(203.544 -18.9581 0)
(203.473 -19.1612 0)
(203.419 -19.3623 0)
(203.381 -19.5626 0)
(203.359 -19.7624 0)
(203.351 -19.9616 0)
(203.357 -20.1586 0)
(203.375 -20.3531 0)
(203.407 -20.5448 0)
(203.456 -20.7321 0)
(203.504 -20.9185 0)
(203.584 -21.0937 0)
(203.662 -21.2659 0)
(203.741 -21.4349 0)
(203.843 -21.5955 0)
(203.95 -21.7514 0)
(204.061 -21.9012 0)
(204.181 -22.0398 0)
(204.291 -22.1757 0)
(204.412 -22.2994 0)
(204.534 -22.4184 0)
(204.662 -22.5253 0)
(204.782 -22.6282 0)
(204.904 -22.7177 0)
(205.015 -22.803 0)
(205.124 -22.8755 0)
(205.221 -22.9434 0)
(205.313 -23.0012 0)
(205.395 -23.0533 0)
(205.468 -23.0981 0)
(205.532 -23.1371 0)
(205.586 -23.1708 0)
(231.948 -3.40313 0)
(247.659 -25.3544 0)
(246.29 -17.9216 0)
(239.089 -16.1823 0)
(232.013 -16.8738 0)
(228.472 -16.7198 0)
(226.539 -16.3826 0)
(225.038 -16.1728 0)
(223.692 -16.0443 0)
(222.449 -15.9623 0)
(221.304 -15.9013 0)
(220.249 -15.839 0)
(219.273 -15.7669 0)
(218.363 -15.6974 0)
(217.507 -15.6471 0)
(216.702 -15.6129 0)
(215.943 -15.5987 0)
(215.23 -15.599 0)
(214.565 -15.6156 0)
(213.945 -15.6387 0)
(213.364 -15.674 0)
(212.812 -15.7223 0)
(212.282 -15.7882 0)
(211.769 -15.8628 0)
(211.274 -15.9472 0)
(210.796 -16.0413 0)
(210.34 -16.1522 0)
(209.906 -16.2719 0)
(209.494 -16.3973 0)
(209.1 -16.5204 0)
(208.726 -16.6453 0)
(208.37 -16.7729 0)
(208.035 -16.9113 0)
(207.719 -17.0554 0)
(207.425 -17.2032 0)
(207.149 -17.3507 0)
(206.893 -17.5023 0)
(206.656 -17.6571 0)
(206.441 -17.8156 0)
(206.246 -17.9756 0)
(206.073 -18.137 0)
(205.92 -18.2992 0)
(205.788 -18.4631 0)
(205.675 -18.629 0)
(205.584 -18.7969 0)
(205.51 -18.9652 0)
(205.455 -19.1314 0)
(205.415 -19.2933 0)
(205.393 -19.4497 0)
(205.383 -19.6015 0)
(205.389 -19.7487 0)
(205.405 -19.8934 0)
(205.435 -20.0341 0)
(205.471 -20.1745 0)
(205.528 -20.3077 0)
(205.583 -20.4451 0)
(205.654 -20.569 0)
(205.721 -20.6927 0)
(205.806 -20.8065 0)
(205.895 -20.9148 0)
(205.98 -21.0204 0)
(206.075 -21.1179 0)
(206.172 -21.2091 0)
(206.266 -21.2934 0)
(206.357 -21.3691 0)
(206.444 -21.4371 0)
(206.526 -21.4989 0)
(206.608 -21.5522 0)
(206.685 -21.6015 0)
(206.759 -21.6435 0)
(206.826 -21.6836 0)
(206.891 -21.717 0)
(206.948 -21.7504 0)
(207.006 -21.7781 0)
(207.057 -21.8074 0)
(207.11 -21.8321 0)
(207.159 -21.8593 0)
(207.21 -21.883 0)
(207.258 -21.9102 0)
(224.505 -12.4117 0)
(243.257 -28.7987 0)
(244.548 -19.7937 0)
(239.088 -17.5789 0)
(232.468 -18.0013 0)
(228.791 -17.6823 0)
(226.832 -17.2021 0)
(225.329 -16.9034 0)
(223.988 -16.7194 0)
(222.758 -16.6046 0)
(221.633 -16.524 0)
(220.603 -16.4486 0)
(219.652 -16.3683 0)
(218.762 -16.2951 0)
(217.926 -16.24 0)
(217.139 -16.2005 0)
(216.4 -16.1793 0)
(215.708 -16.1737 0)
(215.065 -16.1824 0)
(214.468 -16.1999 0)
(213.911 -16.231 0)
(213.383 -16.28 0)
(212.88 -16.3486 0)
(212.397 -16.4285 0)
(211.935 -16.5169 0)
(211.493 -16.6143 0)
(211.076 -16.7251 0)
(210.683 -16.8442 0)
(210.315 -16.9698 0)
(209.966 -17.0953 0)
(209.639 -17.2207 0)
(209.33 -17.3454 0)
(209.042 -17.4779 0)
(208.774 -17.615 0)
(208.531 -17.7557 0)
(208.305 -17.8946 0)
(208.101 -18.0352 0)
(207.915 -18.1756 0)
(207.75 -18.3161 0)
(207.602 -18.4546 0)
(207.475 -18.5918 0)
(207.364 -18.7274 0)
(207.274 -18.862 0)
(207.198 -18.9961 0)
(207.142 -19.13 0)
(207.1 -19.263 0)
(207.075 -19.3921 0)
(207.063 -19.5159 0)
(207.067 -19.6321 0)
(207.079 -19.743 0)
(207.105 -19.8465 0)
(207.136 -19.9472 0)
(207.181 -20.0393 0)
(207.228 -20.1329 0)
(207.294 -20.215 0)
(207.354 -20.3 0)
(207.42 -20.3734 0)
(207.485 -20.4427 0)
(207.555 -20.5059 0)
(207.628 -20.5603 0)
(207.697 -20.6137 0)
(207.768 -20.6586 0)
(207.834 -20.703 0)
(207.9 -20.7381 0)
(207.958 -20.7749 0)
(208.018 -20.8017 0)
(208.071 -20.8329 0)
(208.13 -20.855 0)
(208.184 -20.8831 0)
(208.244 -20.9041 0)
(208.301 -20.9324 0)
(208.363 -20.955 0)
(208.424 -20.9858 0)
(208.491 -21.012 0)
(208.559 -21.0465 0)
(208.634 -21.077 0)
(208.71 -21.1156 0)
(208.793 -21.1506 0)
(208.876 -21.1928 0)
(218.62 -18.5386 0)
(239.047 -31.5438 0)
(243.866 -21.9021 0)
(239.073 -19.1159 0)
(232.871 -19.0799 0)
(229.079 -18.6018 0)
(227.067 -18.0237 0)
(225.568 -17.6337 0)
(224.239 -17.3898 0)
(223.026 -17.234 0)
(221.924 -17.1287 0)
(220.922 -17.0383 0)
(219.999 -16.9508 0)
(219.136 -16.8756 0)
(218.325 -16.8168 0)
(217.563 -16.7725 0)
(216.847 -16.7441 0)
(216.179 -16.7312 0)
(215.561 -16.7307 0)
(214.989 -16.7412 0)
(214.456 -16.7668 0)
(213.954 -16.8142 0)
(213.478 -16.8815 0)
(213.027 -16.962 0)
(212.597 -17.0499 0)
(212.191 -17.1464 0)
(211.81 -17.2527 0)
(211.455 -17.3661 0)
(211.125 -17.4861 0)
(210.817 -17.6091 0)
(210.531 -17.7319 0)
(210.264 -17.8516 0)
(210.017 -17.9743 0)
(209.791 -18.0991 0)
(209.589 -18.2262 0)
(209.404 -18.3506 0)
(209.242 -18.4758 0)
(209.095 -18.5987 0)
(208.968 -18.7194 0)
(208.856 -18.8357 0)
(208.763 -18.9484 0)
(208.684 -19.0576 0)
(208.623 -19.1632 0)
(208.574 -19.2656 0)
(208.541 -19.3648 0)
(208.52 -19.4619 0)
(208.513 -19.5553 0)
(208.515 -19.6442 0)
(208.527 -19.7282 0)
(208.55 -19.8041 0)
(208.576 -19.8773 0)
(208.614 -19.9396 0)
(208.652 -19.9997 0)
(208.701 -20.0505 0)
(208.752 -20.0996 0)
(208.808 -20.1395 0)
(208.856 -20.1822 0)
(208.91 -20.2137 0)
(208.959 -20.2492 0)
(209.015 -20.2736 0)
(209.068 -20.3036 0)
(209.125 -20.3246 0)
(209.178 -20.3533 0)
(209.235 -20.3726 0)
(209.287 -20.4011 0)
(209.345 -20.4205 0)
(209.401 -20.4503 0)
(209.464 -20.472 0)
(209.527 -20.5047 0)
(209.598 -20.5299 0)
(209.669 -20.5659 0)
(209.749 -20.5948 0)
(209.829 -20.6338 0)
(209.918 -20.6654 0)
(210.008 -20.7055 0)
(210.104 -20.7369 0)
(210.2 -20.7746 0)
(210.299 -20.8027 0)
(210.394 -20.8347 0)
(214.432 -22.6697 0)
(234.787 -33.0552 0)
(242.683 -23.7745 0)
(238.631 -20.5633 0)
(233.167 -20.1005 0)
(229.351 -19.4954 0)
(227.254 -18.85 0)
(225.763 -18.3612 0)
(224.446 -18.0541 0)
(223.253 -17.8501 0)
(222.176 -17.715 0)
(221.204 -17.6064 0)
(220.314 -17.5117 0)
(219.483 -17.4348 0)
(218.703 -17.3737 0)
(217.969 -17.3249 0)
(217.281 -17.29 0)
(216.64 -17.2685 0)
(216.049 -17.2585 0)
(215.503 -17.2609 0)
(214.996 -17.2806 0)
(214.52 -17.3234 0)
(214.072 -17.3865 0)
(213.651 -17.4635 0)
(213.253 -17.5476 0)
(212.88 -17.6398 0)
(212.532 -17.7388 0)
(212.211 -17.843 0)
(211.915 -17.9522 0)
(211.643 -18.0674 0)
(211.393 -18.1837 0)
(211.162 -18.2971 0)
(210.951 -18.4089 0)
(210.759 -18.52 0)
(210.59 -18.6309 0)
(210.437 -18.7383 0)
(210.307 -18.8456 0)
(210.187 -18.9496 0)
(210.09 -19.0501 0)
(210.003 -19.1453 0)
(209.934 -19.2356 0)
(209.875 -19.3216 0)
(209.833 -19.4019 0)
(209.799 -19.4773 0)
(209.78 -19.5466 0)
(209.77 -19.6124 0)
(209.769 -19.6749 0)
(209.78 -19.7313 0)
(209.792 -19.7883 0)
(209.82 -19.8306 0)
(209.841 -19.8796 0)
(209.879 -19.9096 0)
(209.91 -19.9492 0)
(209.953 -19.9723 0)
(209.993 -20.0055 0)
(210.04 -20.0252 0)
(210.081 -20.0556 0)
(210.127 -20.0758 0)
(210.171 -20.1044 0)
(210.223 -20.1232 0)
(210.274 -20.1516 0)
(210.331 -20.1699 0)
(210.387 -20.1975 0)
(210.449 -20.2177 0)
(210.509 -20.247 0)
(210.574 -20.2678 0)
(210.638 -20.2976 0)
(210.709 -20.3181 0)
(210.778 -20.3461 0)
(210.851 -20.3641 0)
(210.923 -20.3875 0)
(210.997 -20.4005 0)
(211.067 -20.4171 0)
(211.135 -20.4234 0)
(211.197 -20.4315 0)
(211.254 -20.4302 0)
(211.305 -20.4297 0)
(211.349 -20.4217 0)
(211.388 -20.4145 0)
(211.648 -25.426 0)
(231.074 -33.6293 0)
(241.174 -25.4442 0)
(238.203 -21.9989 0)
(233.425 -21.0933 0)
(229.577 -20.3873 0)
(227.385 -19.6733 0)
(225.915 -19.0815 0)
(224.617 -18.7109 0)
(223.447 -18.4532 0)
(222.394 -18.2833 0)
(221.453 -18.1523 0)
(220.597 -18.0492 0)
(219.802 -17.9695 0)
(219.056 -17.9072 0)
(218.356 -17.8543 0)
(217.699 -17.8141 0)
(217.088 -17.7832 0)
(216.525 -17.7645 0)
(216.006 -17.7579 0)
(215.525 -17.7715 0)
(215.076 -17.8071 0)
(214.656 -17.8636 0)
(214.264 -17.9333 0)
(213.897 -18.0112 0)
(213.554 -18.0962 0)
(213.237 -18.1867 0)
(212.946 -18.2799 0)
(212.679 -18.3759 0)
(212.437 -18.4782 0)
(212.217 -18.5838 0)
(212.018 -18.6882 0)
(211.836 -18.7885 0)
(211.673 -18.8866 0)
(211.529 -18.9817 0)
(211.401 -19.0727 0)
(211.293 -19.1618 0)
(211.194 -19.2469 0)
(211.117 -19.3278 0)
(211.047 -19.4035 0)
(210.996 -19.4727 0)
(210.95 -19.5383 0)
(210.92 -19.5971 0)
(210.896 -19.6522 0)
(210.883 -19.701 0)
(210.878 -19.7454 0)
(210.879 -19.7892 0)
(210.892 -19.8244 0)
(210.903 -19.865 0)
(210.929 -19.8897 0)
(210.951 -19.9243 0)
(210.985 -19.9416 0)
(211.016 -19.9709 0)
(211.056 -19.9857 0)
(211.093 -20.0123 0)
(211.137 -20.0262 0)
(211.179 -20.051 0)
(211.227 -20.0645 0)
(211.274 -20.0872 0)
(211.327 -20.0988 0)
(211.38 -20.1181 0)
(211.436 -20.1269 0)
(211.491 -20.1428 0)
(211.545 -20.1488 0)
(211.595 -20.1601 0)
(211.643 -20.1616 0)
(211.687 -20.1665 0)
(211.727 -20.162 0)
(211.763 -20.16 0)
(211.794 -20.1498 0)
(211.822 -20.1417 0)
(211.844 -20.1264 0)
(211.864 -20.1138 0)
(211.874 -20.0938 0)
(211.888 -20.0782 0)
(211.888 -20.0565 0)
(211.898 -20.0375 0)
(211.893 -20.0162 0)
(211.896 -19.9952 0)
(209.927 -27.1649 0)
(227.98 -33.8138 0)
(239.114 -26.7175 0)
(237.345 -23.2235 0)
(233.458 -21.9791 0)
(229.697 -21.2618 0)
(227.461 -20.48 0)
(226.029 -19.7925 0)
(224.755 -19.3587 0)
(223.612 -19.044 0)
(222.584 -18.8348 0)
(221.672 -18.677 0)
(220.849 -18.5628 0)
(220.092 -18.4779 0)
(219.385 -18.4143 0)
(218.72 -18.3577 0)
(218.097 -18.3134 0)
(217.518 -18.2735 0)
(216.985 -18.247 0)
(216.494 -18.2314 0)
(216.039 -18.2389 0)
(215.617 -18.265 0)
(215.225 -18.313 0)
(214.86 -18.3727 0)
(214.522 -18.4428 0)
(214.207 -18.5179 0)
(213.918 -18.5989 0)
(213.653 -18.6806 0)
(213.412 -18.7634 0)
(213.194 -18.8503 0)
(212.998 -18.942 0)
(212.824 -19.0345 0)
(212.668 -19.1228 0)
(212.53 -19.2083 0)
(212.405 -19.2893 0)
(212.295 -19.3662 0)
(212.204 -19.4394 0)
(212.119 -19.5083 0)
(212.058 -19.5717 0)
(211.996 -19.6315 0)
(211.957 -19.6811 0)
(211.92 -19.729 0)
(211.9 -19.7675 0)
(211.883 -19.8048 0)
(211.876 -19.8351 0)
(211.876 -19.8623 0)
(211.88 -19.8881 0)
(211.892 -19.908 0)
(211.906 -19.9303 0)
(211.928 -19.9449 0)
(211.952 -19.9631 0)
(211.981 -19.9739 0)
(212.012 -19.9887 0)
(212.046 -19.9962 0)
(212.08 -20.0069 0)
(212.116 -20.0099 0)
(212.151 -20.0153 0)
(212.186 -20.0135 0)
(212.22 -20.0137 0)
(212.253 -20.0072 0)
(212.285 -20.0024 0)
(212.314 -19.992 0)
(212.339 -19.9835 0)
(212.36 -19.9702 0)
(212.378 -19.9586 0)
(212.39 -19.9424 0)
(212.402 -19.9282 0)
(212.408 -19.91 0)
(212.415 -19.8946 0)
(212.417 -19.8757 0)
(212.421 -19.8599 0)
(212.42 -19.841 0)
(212.422 -19.8255 0)
(212.418 -19.8075 0)
(212.418 -19.7936 0)
(212.412 -19.7773 0)
(212.411 -19.7651 0)
(212.406 -19.7513 0)
(212.403 -19.7411 0)
(208.917 -28.2159 0)
(225.355 -33.6345 0)
(237.005 -27.6993 0)
(236.446 -24.3198 0)
(233.327 -22.7852 0)
(229.716 -22.1077 0)
(227.481 -21.2526 0)
(226.101 -20.487 0)
(224.863 -19.9935 0)
(223.752 -19.6222 0)
(222.75 -19.3707 0)
(221.866 -19.1821 0)
(221.075 -19.0535 0)
(220.356 -18.96 0)
(219.688 -18.8933 0)
(219.061 -18.8331 0)
(218.474 -18.7853 0)
(217.928 -18.7378 0)
(217.426 -18.7046 0)
(216.963 -18.6809 0)
(216.536 -18.6819 0)
(216.14 -18.6975 0)
(215.776 -18.7354 0)
(215.437 -18.7834 0)
(215.125 -18.8442 0)
(214.834 -18.9075 0)
(214.571 -18.9782 0)
(214.329 -19.0481 0)
(214.112 -19.1192 0)
(213.914 -19.1899 0)
(213.738 -19.2659 0)
(213.582 -19.3441 0)
(213.445 -19.4202 0)
(213.327 -19.493 0)
(213.219 -19.5607 0)
(213.124 -19.625 0)
(213.046 -19.6842 0)
(212.968 -19.7401 0)
(212.919 -19.787 0)
(212.863 -19.8342 0)
(212.831 -19.8689 0)
(212.801 -19.9028 0)
(212.785 -19.9263 0)
(212.772 -19.9481 0)
(212.768 -19.9623 0)
(212.768 -19.974 0)
(212.774 -19.9806 0)
(212.784 -19.9848 0)
(212.797 -19.9854 0)
(212.814 -19.9847 0)
(212.832 -19.9817 0)
(212.853 -19.9772 0)
(212.873 -19.9705 0)
(212.893 -19.9618 0)
(212.911 -19.9505 0)
(212.928 -19.9368 0)
(212.943 -19.9214 0)
(212.956 -19.9049 0)
(212.968 -19.8881 0)
(212.98 -19.8706 0)
(212.99 -19.8535 0)
(212.999 -19.8361 0)
(213.006 -19.8195 0)
(213.011 -19.8025 0)
(213.015 -19.7868 0)
(213.016 -19.7706 0)
(213.018 -19.7564 0)
(213.017 -19.7421 0)
(213.017 -19.7308 0)
(213.016 -19.7195 0)
(213.015 -19.7115 0)
(213.013 -19.7034 0)
(213.011 -19.6987 0)
(213.009 -19.6938 0)
(213.007 -19.6923 0)
(213.006 -19.6906 0)
(213.004 -19.6922 0)
(213.003 -19.6938 0)
(213.003 -19.6981 0)
(208.389 -28.7923 0)
(223.113 -33.2404 0)
(234.889 -28.3977 0)
(235.549 -25.2673 0)
(233.056 -23.5401 0)
(229.638 -22.8935 0)
(227.446 -21.9756 0)
(226.13 -21.1581 0)
(224.94 -20.6109 0)
(223.868 -20.1862 0)
(222.896 -19.8909 0)
(222.04 -19.6694 0)
(221.278 -19.5226 0)
(220.595 -19.4169 0)
(219.965 -19.344 0)
(219.378 -19.2795 0)
(218.827 -19.2278 0)
(218.316 -19.1748 0)
(217.844 -19.1357 0)
(217.411 -19.1059 0)
(217.011 -19.0998 0)
(216.643 -19.1054 0)
(216.304 -19.1315 0)
(215.99 -19.1671 0)
(215.702 -19.2177 0)
(215.434 -19.2684 0)
(215.194 -19.3275 0)
(214.972 -19.3856 0)
(214.775 -19.4467 0)
(214.594 -19.5031 0)
(214.435 -19.5638 0)
(214.293 -19.6264 0)
(214.171 -19.6897 0)
(214.066 -19.7495 0)
(213.971 -19.8035 0)
(213.89 -19.8538 0)
(213.822 -19.8978 0)
(213.751 -19.9403 0)
(213.709 -19.9713 0)
(213.662 -20.0041 0)
(213.633 -20.0273 0)
(213.608 -20.0475 0)
(213.592 -20.0598 0)
(213.58 -20.0682 0)
(213.573 -20.0707 0)
(213.571 -20.0699 0)
(213.571 -20.0643 0)
(213.575 -20.0562 0)
(213.581 -20.0446 0)
(213.588 -20.032 0)
(213.596 -20.0173 0)
(213.604 -20.0021 0)
(213.611 -19.985 0)
(213.616 -19.9672 0)
(213.62 -19.9477 0)
(213.623 -19.9281 0)
(213.624 -19.9081 0)
(213.624 -19.8896 0)
(213.624 -19.8718 0)
(213.624 -19.8558 0)
(213.623 -19.8408 0)
(213.622 -19.8272 0)
(213.62 -19.8148 0)
(213.618 -19.8036 0)
(213.615 -19.7939 0)
(213.612 -19.785 0)
(213.609 -19.7784 0)
(213.606 -19.7727 0)
(213.604 -19.7699 0)
(213.603 -19.7679 0)
(213.603 -19.7693 0)
(213.604 -19.7712 0)
(213.607 -19.7765 0)
(213.611 -19.7815 0)
(213.616 -19.7899 0)
(213.622 -19.7977 0)
(213.629 -19.8089 0)
(213.638 -19.8195 0)
(213.647 -19.8332 0)
(208.144 -29.0432 0)
(221.249 -32.7098 0)
(232.915 -28.8774 0)
(234.598 -26.0582 0)
(232.601 -24.2088 0)
(229.456 -23.5898 0)
(227.355 -22.6399 0)
(226.116 -21.7973 0)
(224.987 -21.2055 0)
(223.962 -20.7338 0)
(223.023 -20.3953 0)
(222.196 -20.1402 0)
(221.462 -19.9714 0)
(220.811 -19.8505 0)
(220.219 -19.7676 0)
(219.67 -19.6974 0)
(219.156 -19.6403 0)
(218.679 -19.5834 0)
(218.239 -19.5392 0)
(217.835 -19.5055 0)
(217.464 -19.4921 0)
(217.122 -19.4889 0)
(216.808 -19.5023 0)
(216.517 -19.5256 0)
(216.251 -19.5649 0)
(216.004 -19.6035 0)
(215.784 -19.65 0)
(215.58 -19.6955 0)
(215.402 -19.747 0)
(215.235 -19.792 0)
(215.091 -19.8407 0)
(214.959 -19.8889 0)
(214.849 -19.9398 0)
(214.752 -19.9871 0)
(214.663 -20.029 0)
(214.592 -20.0659 0)
(214.532 -20.0954 0)
(214.468 -20.1246 0)
(214.427 -20.1443 0)
(214.391 -20.1619 0)
(214.364 -20.1741 0)
(214.342 -20.1814 0)
(214.326 -20.1833 0)
(214.313 -20.1805 0)
(214.304 -20.1739 0)
(214.297 -20.1645 0)
(214.292 -20.1526 0)
(214.289 -20.1389 0)
(214.285 -20.1238 0)
(214.283 -20.1081 0)
(214.279 -20.092 0)
(214.275 -20.0759 0)
(214.27 -20.0593 0)
(214.264 -20.0428 0)
(214.256 -20.0262 0)
(214.247 -20.0108 0)
(214.238 -19.9965 0)
(214.228 -19.9844 0)
(214.219 -19.974 0)
(214.209 -19.9657 0)
(214.2 -19.959 0)
(214.191 -19.9539 0)
(214.182 -19.9506 0)
(214.173 -19.9486 0)
(214.164 -19.9488 0)
(214.156 -19.9497 0)
(214.149 -19.9529 0)
(214.144 -19.9562 0)
(214.141 -19.9621 0)
(214.14 -19.9678 0)
(214.141 -19.9765 0)
(214.144 -19.9844 0)
(214.149 -19.9953 0)
(214.156 -20.0048 0)
(214.164 -20.0171 0)
(214.174 -20.0279 0)
(214.185 -20.0414 0)
(214.197 -20.0532 0)
(214.21 -20.0676 0)
(208.069 -29.1438 0)
(219.729 -32.0877 0)
(231.169 -29.2593 0)
(233.651 -26.7398 0)
(232.067 -24.8207 0)
(229.213 -24.2044 0)
(227.205 -23.2403 0)
(226.055 -22.3928 0)
(225.004 -21.7709 0)
(224.033 -21.2617 0)
(223.132 -20.8829 0)
(222.335 -20.5949 0)
(221.63 -20.4009 0)
(221.009 -20.2624 0)
(220.45 -20.1659 0)
(219.938 -20.0879 0)
(219.46 -20.0234 0)
(219.017 -19.9634 0)
(218.608 -19.9145 0)
(218.234 -19.8786 0)
(217.891 -19.8583 0)
(217.575 -19.848 0)
(217.285 -19.8487 0)
(217.016 -19.8603 0)
(216.771 -19.8873 0)
(216.544 -19.9157 0)
(216.341 -19.9494 0)
(216.153 -19.982 0)
(215.991 -20.023 0)
(215.838 -20.0586 0)
(215.708 -20.0982 0)
(215.584 -20.1338 0)
(215.485 -20.1722 0)
(215.393 -20.2072 0)
(215.306 -20.2386 0)
(215.24 -20.2647 0)
(215.184 -20.2829 0)
(215.129 -20.3005 0)
(215.089 -20.3121 0)
(215.057 -20.3194 0)
(215.031 -20.3228 0)
(215.009 -20.3219 0)
(214.992 -20.3172 0)
(214.978 -20.3086 0)
(214.966 -20.2977 0)
(214.955 -20.2847 0)
(214.945 -20.2713 0)
(214.935 -20.257 0)
(214.924 -20.2434 0)
(214.913 -20.2296 0)
(214.901 -20.2171 0)
(214.887 -20.2046 0)
(214.872 -20.1938 0)
(214.855 -20.1835 0)
(214.837 -20.1752 0)
(214.819 -20.1682 0)
(214.8 -20.1639 0)
(214.782 -20.161 0)
(214.764 -20.1606 0)
(214.748 -20.1608 0)
(214.732 -20.1633 0)
(214.717 -20.1658 0)
(214.702 -20.1708 0)
(214.689 -20.1753 0)
(214.676 -20.1824 0)
(214.665 -20.1883 0)
(214.654 -20.1964 0)
(214.645 -20.2029 0)
(214.636 -20.2119 0)
(214.63 -20.2192 0)
(214.624 -20.2292 0)
(214.62 -20.2375 0)
(214.616 -20.2487 0)
(214.615 -20.2579 0)
(214.614 -20.2698 0)
(214.616 -20.2796 0)
(214.617 -20.292 0)
(214.619 -20.3018 0)
(214.618 -20.3137 0)
(208.134 -29.1553 0)
(218.492 -31.47 0)
(229.626 -29.5531 0)
(232.728 -27.3319 0)
(231.45 -25.3823 0)
(228.855 -24.7208 0)
(226.985 -23.761 0)
(225.944 -22.9314 0)
(224.988 -22.2988 0)
(224.081 -21.7659 0)
(223.225 -21.3529 0)
(222.46 -21.034 0)
(221.783 -20.8123 0)
(221.19 -20.6541 0)
(220.662 -20.5409 0)
(220.183 -20.4528 0)
(219.74 -20.3789 0)
(219.33 -20.3156 0)
(218.952 -20.262 0)
(218.606 -20.2245 0)
(218.291 -20.1981 0)
(218.002 -20.1822 0)
(217.735 -20.1715 0)
(217.488 -20.1725 0)
(217.26 -20.1866 0)
(217.052 -20.206 0)
(216.864 -20.2277 0)
(216.692 -20.2484 0)
(216.542 -20.2779 0)
(216.403 -20.3054 0)
(216.286 -20.3371 0)
(216.17 -20.3623 0)
(216.078 -20.3892 0)
(215.992 -20.4126 0)
(215.907 -20.4338 0)
(215.844 -20.4514 0)
(215.792 -20.462 0)
(215.744 -20.4708 0)
(215.705 -20.4754 0)
(215.674 -20.4762 0)
(215.647 -20.4738 0)
(215.624 -20.4684 0)
(215.605 -20.4608 0)
(215.587 -20.4507 0)
(215.571 -20.4398 0)
(215.555 -20.4276 0)
(215.539 -20.4165 0)
(215.523 -20.4052 0)