/*--------------------------------*- C++ -*----------------------------------*\
| =========                 |                                                 |
| \\      /  F ield         | OpenFOAM: The Open Source CFD Toolbox           |
|  \\    /   O peration     | Version:  2412                                  |
|   \\  /    A nd           | Website:  www.openfoam.com                      |
|    \\/     M anipulation  |                                                 |
\*---------------------------------------------------------------------------*/
FoamFile
{
    version     2.0;
    format      ascii;
    arch        "LSB;label=32;scalar=64";
    class       volScalarField;
    location    "0.074";
    object      T;
}
// * * * * * * * * * * * * * * * * * * * * * * * * * * * * * * * * * * * * * //

dimensions      [0 0 0 1 0 0 0];

internalField   nonuniform List<scalar> 
9763
(
229.591
230.96
229.553
231.055
229.503
231.028
229.437
230.967
229.361
230.855
229.278
230.722
229.196
230.584
229.118
230.452
229.051
230.329
228.99
230.214
228.935
230.108
228.884
230.005
228.837
229.907
228.791
229.81
228.746
229.715
228.7
229.619
228.653
229.523
228.604
229.425
228.552
229.324
228.497
229.22
228.439
229.11
228.376
228.995
228.31
228.875
228.24
228.75
228.167
228.621
228.09
228.488
228.013
228.351
227.933
228.212
227.852
228.071
227.77
227.929
227.686
227.785
227.602
227.641
227.515
227.497
227.426
227.352
227.33
227.205
227.23
227.054
227.125
226.896
227.015
226.733
226.899
226.564
226.776
226.392
226.217
226.041
225.863
247.555
223.898
226.116
227.018
226.847
226.507
226.095
225.748
225.427
225.13
224.863
224.623
224.404
224.206
224.021
223.848
223.684
223.525
223.367
223.204
223.036
222.862
222.686
222.512
222.343
222.183
222.031
221.889
221.756
221.631
221.512
221.4
221.294
221.194
221.101
221.015
220.935
220.863
220.797
220.738
220.688
220.648
220.617
220.593
220.578
220.571
220.572
220.582
220.601
220.628
220.662
220.704
220.753
220.81
220.873
220.946
221.03
221.124
221.248
221.385
221.564
221.771
222
222.239
222.481
222.716
222.945
223.168
223.387
223.602
223.815
224.024
224.234
224.442
224.65
224.854
225.055
225.25
225.439
225.622
225.803
225.984
226.164
226.345
226.523
226.697
226.863
227.023
227.174
227.322
227.465
227.603
227.737
227.87
228.001
228.131
228.258
228.38
228.496
228.605
228.707
228.801
228.887
228.969
229.047
229.126
229.205
229.289
229.374
229.462
229.56
229.664
229.772
229.873
229.959
230.022
230.053
230.056
230.016
229.992
229.796
247.36
223.908
226.104
227.007
226.839
226.502
226.092
225.746
225.425
225.128
224.861
224.621
224.402
224.203
224.019
223.846
223.681
223.522
223.364
223.202
223.034
222.86
222.684
222.51
222.341
222.18
222.028
221.885
221.75
221.624
221.504
221.39
221.283
221.181
221.085
220.996
220.914
220.839
220.77
220.708
220.655
220.612
220.577
220.551
220.532
220.522
220.52
220.527
220.543
220.567
220.598
220.636
220.683
220.737
220.797
220.867
220.947
221.038
221.156
221.292
221.469
221.672
221.897
222.132
222.372
222.605
222.832
223.052
223.269
223.481
223.691
223.897
224.102
224.305
224.508
224.71
224.91
225.105
225.295
225.479
225.659
225.838
226.016
226.196
226.374
226.551
226.722
226.886
227.039
227.183
227.316
227.443
227.567
227.688
227.807
227.925
228.04
228.152
228.258
228.357
228.448
228.533
228.61
228.683
228.753
228.823
228.897
228.975
229.062
229.155
229.259
229.375
229.499
229.621
229.733
229.829
229.91
229.978
230.029
230.055
230.059
247.3
223.902
226.095
227.001
226.834
226.498
226.089
225.743
225.424
225.126
224.86
224.619
224.4
224.201
224.016
223.843
223.679
223.519
223.361
223.199
223.031
222.858
222.682
222.508
222.338
222.177
222.024
221.88
221.745
221.617
221.496
221.38
221.271
221.167
221.069
220.977
220.892
220.814
220.742
220.677
220.62
220.574
220.536
220.506
220.484
220.471
220.466
220.469
220.481
220.502
220.53
220.565
220.608
220.659
220.716
220.782
220.858
220.945
221.056
221.19
221.362
221.561
221.781
222.012
222.248
222.477
222.702
222.918
223.132
223.34
223.546
223.747
223.947
224.145
224.342
224.539
224.733
224.923
225.108
225.286
225.461
225.634
225.804
225.977
226.147
226.317
226.481
226.64
226.79
226.931
227.062
227.186
227.305
227.42
227.532
227.642
227.75
227.854
227.953
228.045
228.131
228.21
228.282
228.348
228.412
228.476
228.541
228.613
228.692
228.778
228.877
228.99
229.115
229.242
229.362
229.467
229.552
229.618
229.667
229.701
229.725
247.305
223.891
226.085
226.994
226.828
226.494
226.086
225.741
225.422
225.125
224.858
224.618
224.398
224.199
224.014
223.841
223.676
223.517
223.358
223.197
223.029
222.856
222.68
222.506
222.336
222.174
222.021
221.876
221.74
221.61
221.488
221.371
221.259
221.153
221.053
220.959
220.871
220.79
220.715
220.647
220.587
220.537
220.495
220.462
220.437
220.421
220.413
220.413
220.422
220.439
220.464
220.496
220.536
220.583
220.638
220.7
220.773
220.857
220.963
221.093
221.261
221.455
221.669
221.893
222.125
222.351
222.573
222.788
222.998
223.203
223.405
223.602
223.796
223.986
224.176
224.365
224.552
224.736
224.916
225.09
225.259
225.427
225.591
225.757
225.92
226.082
226.239
226.389
226.53
226.662
226.785
226.901
227.011
227.116
227.219
227.319
227.417
227.512
227.604
227.69
227.77
227.844
227.913
227.978
228.04
228.102
228.166
228.236
228.314
228.401
228.5
228.616
228.744
228.878
229.005
229.117
229.206
229.271
229.317
229.35
229.373
247.279
223.883
226.077
226.988
226.822
226.49
226.083
225.739
225.42
225.123
224.857
224.616
224.396
224.197
224.012
223.838
223.674
223.514
223.356
223.194
223.027
222.854
222.678
222.504
222.334
222.172
222.017
221.872
221.735
221.604
221.48
221.362
221.249
221.141
221.038
220.941
220.851
220.766
220.688
220.617
220.554
220.501
220.456
220.42
220.392
220.372
220.362
220.358
220.363
220.378
220.4
220.429
220.465
220.509
220.56
220.619
220.688
220.769
220.871
220.997
221.159
221.347
221.554
221.773
221.999
222.222
222.443
222.656
222.865
223.068
223.265
223.456
223.644
223.829
224.013
224.197
224.378
224.557
224.731
224.899
225.063
225.224
225.382
225.54
225.696
225.852
226.002
226.147
226.284
226.411
226.529
226.639
226.742
226.84
226.935
227.027
227.116
227.203
227.286
227.364
227.437
227.505
227.568
227.627
227.684
227.741
227.801
227.867
227.939
228.02
228.119
228.233
228.362
228.496
228.626
228.741
228.834
228.901
228.947
228.978
229
247.28
223.875
226.068
226.982
226.816
226.486
226.081
225.737
225.419
225.122
224.855
224.614
224.394
224.195
224.01
223.836
223.671
223.512
223.354
223.192
223.025
222.852
222.676
222.502
222.332
222.169
222.014
221.868
221.73
221.599
221.473
221.353
221.238
221.128
221.023
220.924
220.831
220.744
220.663
220.588
220.522
220.465
220.418
220.378
220.347
220.324
220.31
220.304
220.306
220.317
220.336
220.362
220.395
220.435
220.483
220.54
220.605
220.684
220.781
220.904
221.06
221.241
221.441
221.654
221.876
222.096
222.315
222.527
222.735
222.934
223.128
223.314
223.496
223.675
223.854
224.032
224.208
224.382
224.551
224.715
224.874
225.029
225.182
225.335
225.485
225.634
225.779
225.918
226.049
226.171
226.284
226.389
226.486
226.579
226.667
226.753
226.836
226.916
226.993
227.066
227.134
227.197
227.256
227.311
227.365
227.419
227.476
227.538
227.605
227.686
227.783
227.896
228.023
228.156
228.287
228.403
228.496
228.564
228.609
228.633
228.636
247.261
223.865
226.059
226.975
226.81
226.483
226.078
225.735
225.417
225.12
224.854
224.613
224.392
224.193
224.008
223.833
223.669
223.509
223.351
223.19
223.023
222.85
222.675
222.5
222.33
222.167
222.012
221.864
221.725
221.593
221.466
221.344
221.227
221.115
221.008
220.906
220.81
220.721
220.637
220.559
220.49
220.43
220.379
220.336
220.301
220.275
220.258
220.249
220.248
220.255
220.271
220.294
220.324
220.361
220.406
220.458
220.521
220.596
220.689
220.808
220.958
221.134
221.329
221.538
221.755
221.971
222.185
222.393
222.597
222.793
222.983
223.167
223.346
223.521
223.695
223.869
224.039
224.208
224.371
224.529
224.682
224.832
224.979
225.126
225.272
225.418
225.559
225.697
225.826
225.947
226.058
226.161
226.257
226.346
226.432
226.514
226.594
226.671
226.744
226.814
226.879
226.939
226.995
227.048
227.1
227.152
227.207
227.266
227.333
227.414
227.511
227.624
227.751
227.885
228.018
228.137
228.231
228.297
228.342
228.375
228.396
247.251
223.856
226.049
226.968
226.804
226.479
226.075
225.733
225.415
225.119
224.852
224.611
224.391
224.191
224.005
223.831
223.666
223.507
223.349
223.187
223.02
222.848
222.673
222.499
222.328
222.165
222.009
221.861
221.721
221.587
221.459
221.336
221.217
221.103
220.993
220.889
220.79
220.697
220.61
220.53
220.457
220.393
220.339
220.293
220.255
220.225
220.204
220.193
220.189
220.193
220.206
220.226
220.252
220.286
220.327
220.376
220.435
220.507
220.595
220.709
220.855
221.026
221.217
221.423
221.636
221.846
222.055
222.257
222.455
222.647
222.834
223.015
223.191
223.363
223.532
223.699
223.864
224.027
224.184
224.337
224.484
224.629
224.771
224.913
225.053
225.194
225.332
225.466
225.592
225.71
225.819
225.921
226.014
226.103
226.186
226.267
226.344
226.419
226.49
226.558
226.621
226.68
226.734
226.786
226.837
226.888
226.941
226.999
227.067
227.147
227.244
227.356
227.483
227.617
227.751
227.871
227.966
228.03
228.069
228.097
228.128
247.238
223.847
226.039
226.962
226.798
226.475
226.072
225.731
225.413
225.117
224.851
224.61
224.389
224.189
224.003
223.829
223.664
223.504
223.346
223.185
223.018
222.846
222.671
222.497
222.326
222.162
222.006
221.857
221.716
221.581
221.452
221.327
221.206
221.09
220.978
220.871
220.769
220.674
220.584
220.5
220.423
220.356
220.298
220.249
220.207
220.174
220.15
220.135
220.128
220.129
220.138
220.155
220.178
220.208
220.246
220.291
220.347
220.415
220.497
220.606
220.746
220.912
221.1
221.304
221.514
221.72
221.922
222.118
222.309
222.496
222.678
222.855
223.028
223.197
223.361
223.524
223.683
223.839
223.99
224.137
224.278
224.417
224.552
224.687
224.823
224.96
225.094
225.225
225.35
225.467
225.575
225.674
225.766
225.852
225.933
226.01
226.084
226.155
226.222
226.286
226.344
226.398
226.448
226.496
226.542
226.588
226.635
226.689
226.753
226.83
226.923
227.031
227.154
227.285
227.416
227.534
227.63
227.696
227.732
227.748
227.742
247.228
223.837
226.029
226.955
226.792
226.47
226.069
225.728
225.412
225.116
224.849
224.608
224.387
224.187
224.001
223.826
223.661
223.501
223.343
223.182
223.016
222.844
222.669
222.495
222.324
222.16
222.003
221.853
221.711
221.575
221.444
221.318
221.196
221.077
220.963
220.853
220.749
220.65
220.556
220.469
220.389
220.318
220.257
220.204
220.158
220.122
220.094
220.075
220.066
220.063
220.068
220.082
220.103
220.129
220.163
220.205
220.257
220.322
220.398
220.502
220.635
220.796
220.98
221.18
221.387
221.59
221.787
221.977
222.161
222.341
222.517
222.69
222.859
223.024
223.184
223.341
223.494
223.646
223.792
223.933
224.068
224.2
224.328
224.456
224.585
224.715
224.845
224.972
225.093
225.208
225.313
225.411
225.5
225.584
225.663
225.738
225.81
225.878
225.943
226.003
226.058
226.109
226.155
226.198
226.24
226.282
226.325
226.376
226.436
226.51
226.599
226.705
226.826
226.956
227.085
227.203
227.298
227.364
227.401
227.416
227.412
247.216
223.828
226.019
226.947
226.785
226.466
226.066
225.726
225.41
225.114
224.847
224.606
224.385
224.185
223.999
223.824
223.658
223.499
223.341
223.18
223.014
222.842
222.667
222.493
222.322
222.158
222
221.85
221.707
221.57
221.437
221.309
221.185
221.064
220.948
220.835
220.728
220.626
220.529
220.438
220.355
220.28
220.214
220.158
220.109
220.068
220.037
220.015
220.002
219.996
219.998
220.008
220.025
220.048
220.079
220.117
220.166
220.225
220.295
220.395
220.521
220.675
220.853
221.049
221.251
221.449
221.641
221.826
222.005
222.18
222.351
222.521
222.686
222.847
223.003
223.155
223.303
223.449
223.589
223.724
223.853
223.978
224.099
224.22
224.343
224.467
224.592
224.716
224.835
224.948
225.053
225.149
225.237
225.32
225.396
225.47
225.539
225.606
225.668
225.725
225.778
225.826
225.869
225.909
225.947
225.984
226.025
226.072
226.129
226.199
226.286
226.39
226.509
226.637
226.766
226.883
226.979
227.046
227.083
227.097
227.097
247.207
223.818
226.009
226.94
226.779
226.462
226.063
225.724
225.408
225.112
224.846
224.604
224.383
224.183
223.996
223.821
223.656
223.496
223.338
223.177
223.011
222.84
222.666
222.491
222.321
222.155
221.997
221.846
221.702
221.564
221.43
221.3
221.174
221.051
220.932
220.817
220.706
220.601
220.501
220.407
220.32
220.241
220.172
220.111
220.059
220.015
219.979
219.953
219.937
219.928
219.927
219.933
219.946
219.967
219.994
220.029
220.073
220.129
220.193
220.289
220.409
220.554
220.724
220.912
221.106
221.297
221.485
221.669
221.846
222.019
222.187
222.351
222.511
222.667
222.817
222.965
223.108
223.249
223.384
223.514
223.638
223.756
223.87
223.984
224.099
224.216
224.335
224.455
224.571
224.682
224.786
224.882
224.97
225.052
225.128
225.201
225.269
225.335
225.396
225.453
225.504
225.55
225.591
225.63
225.666
225.701
225.74
225.784
225.838
225.906
225.99
226.092
226.21
226.337
226.466
226.583
226.68
226.749
226.789
226.806
226.809
247.197
223.809
225.998
226.933
226.772
226.458
226.06
225.722
225.406
225.111
224.844
224.603
224.381
224.181
223.994
223.819
223.653
223.493
223.335
223.175
223.009
222.838
222.664
222.49
222.319
222.153
221.994
221.842
221.697
221.558
221.423
221.292
221.163
221.039
220.917
220.799
220.685
220.577
220.473
220.376
220.285
220.202
220.129
220.064
220.008
219.96
219.921
219.891
219.871
219.859
219.854
219.856
219.866
219.883
219.907
219.938
219.979
220.03
220.089
220.181
220.294
220.432
220.594
220.773
220.957
221.142
221.325
221.506
221.683
221.855
222.019
222.179
222.333
222.483
222.629
222.772
222.911
223.048
223.179
223.304
223.422
223.534
223.642
223.749
223.857
223.967
224.08
224.196
224.31
224.42
224.523
224.62
224.707
224.789
224.865
224.937
225.004
225.069
225.128
225.184
225.233
225.278
225.318
225.355
225.389
225.423
225.46
225.501
225.553
225.618
225.7
225.8
225.916
226.043
226.171
226.289
226.387
226.458
226.501
226.521
226.527
247.188
223.799
225.988
226.925
226.766
226.453
226.057
225.719
225.404
225.109
224.842
224.601
224.38
224.179
223.992
223.816
223.651
223.491
223.333
223.172
223.007
222.836
222.662
222.488
222.317
222.151
221.991
221.839
221.693
221.552
221.416
221.283
221.153
221.026
220.901
220.781
220.664
220.552
220.446
220.344
220.249
220.163
220.085
220.017
219.957
219.905
219.862
219.828
219.804
219.789
219.781
219.78
219.785
219.799
219.82
219.848
219.885
219.932
219.986
220.075
220.18
220.312
220.469
220.642
220.817
220.993
221.168
221.345
221.518
221.688
221.85
222.006
222.154
222.299
222.439
222.577
222.712
222.844
222.972
223.093
223.206
223.313
223.415
223.514
223.615
223.718
223.825
223.935
224.045
224.154
224.257
224.354
224.443
224.525
224.6
224.672
224.739
224.803
224.861
224.916
224.964
225.008
225.047
225.084
225.117
225.151
225.186
225.226
225.276
225.339
225.42
225.518
225.634
225.761
225.89
226.009
226.11
226.183
226.229
226.253
226.262
247.181
223.789
225.977
226.918
226.759
226.449
226.054
225.717
225.403
225.107
224.841
224.599
224.378
224.177
223.989
223.814
223.648
223.488
223.33
223.17
223.004
222.834
222.66
222.486
222.315
222.149
221.989
221.835
221.688
221.547
221.409
221.274
221.142
221.013
220.886
220.762
220.643
220.528
220.418
220.313
220.214
220.123
220.042
219.97
219.906
219.85
219.803
219.765
219.737
219.718
219.707
219.702
219.704
219.714
219.731
219.756
219.789
219.832
219.882
219.966
220.065
220.191
220.347
220.518
220.687
220.856
221.022
221.19
221.357
221.522
221.679
221.831
221.974
222.113
222.248
222.381
222.511
222.639
222.763
222.88
222.99
223.092
223.189
223.282
223.376
223.472
223.573
223.677
223.784
223.891
223.993
224.091
224.179
224.262
224.337
224.407
224.473
224.536
224.593
224.646
224.693
224.736
224.774
224.809
224.842
224.875
224.91
224.949
224.998
225.06
225.139
225.237
225.353
225.48
225.61
225.732
225.833
225.909
225.958
225.985
225.997
247.173
223.778
225.966
226.91
226.753
226.444
226.051
225.715
225.401
225.106
224.839
224.598
224.376
224.175
223.987
223.811
223.645
223.485
223.327
223.167
223.002
222.832
222.658
222.485
222.313
222.147
221.986
221.832
221.684
221.541
221.402
221.266
221.132
221
220.871
220.744
220.622
220.503
220.39
220.281
220.179
220.084
219.998
219.922
219.854
219.794
219.743
219.702
219.67
219.647
219.632
219.624
219.623
219.628
219.642
219.663
219.693
219.732
219.778
219.857
219.948
220.07
220.224
220.395
220.564
220.731
220.89
221.05
221.206
221.362
221.51
221.654
221.791
221.924
222.054
222.182
222.308
222.433
222.553
222.667
222.773
222.871
222.963
223.05
223.137
223.226
223.32
223.418
223.521
223.625
223.726
223.823
223.912
223.994
224.069
224.139
224.204
224.265
224.321
224.373
224.419
224.461
224.498
224.533
224.566
224.599
224.634
224.673
224.722
224.783
224.862
224.959
225.075
225.204
225.336
225.459
225.563
225.641
225.692
225.721
225.736
247.173
223.767
225.956
226.903
226.746
226.44
226.048
225.712
225.399
225.104
224.837
224.596
224.374
224.173
223.985
223.809
223.643
223.482
223.324
223.164
223
222.83
222.657
222.483
222.312
222.145
221.984
221.829
221.68
221.536
221.395
221.257
221.121
220.988
220.856
220.726
220.601
220.479
220.362
220.25
220.143
220.044
219.954
219.874
219.802
219.739
219.683
219.638
219.602
219.575
219.557
219.546
219.541
219.542
219.552
219.569
219.596
219.632
219.674
219.745
219.83
219.947
220.096
220.266
220.436
220.605
220.763
220.916
221.062
221.205
221.341
221.476
221.604
221.732
221.857
221.981
222.104
222.224
222.341
222.452
222.556
222.65
222.738
222.819
222.901
222.982
223.07
223.163
223.261
223.361
223.46
223.556
223.644
223.725
223.799
223.868
223.931
223.991
224.046
224.097
224.142
224.183
224.22
224.254
224.286
224.318
224.353
224.392
224.44
224.501
224.579
224.676
224.792
224.921
225.055
225.181
225.286
225.366
225.418
225.449
225.464
247.161
223.756
225.945
226.895
226.739
226.435
226.044
225.71
225.397
225.102
224.836
224.594
224.372
224.17
223.983
223.806
223.64
223.48
223.322
223.162
222.997
222.828
222.655
222.481
222.31
222.143
221.981
221.826
221.676
221.531
221.389
221.249
221.111
220.975
220.841
220.709
220.58
220.455
220.334
220.218
220.108
220.005
219.911
219.826
219.75
219.683
219.623
219.574
219.534
219.503
219.481
219.467
219.458
219.457
219.462
219.476
219.499
219.531
219.569
219.634
219.711
219.822
219.965
220.13
220.298
220.468
220.626
220.778
220.917
221.05
221.176
221.3
221.421
221.542
221.661
221.78
221.897
222.013
222.126
222.234
222.336
222.427
222.511
222.588
222.664
222.74
222.821
222.907
223
223.096
223.192
223.284
223.371
223.451
223.524
223.591
223.654
223.712
223.766
223.817
223.861
223.902
223.938
223.971
224.002
224.034
224.069
224.108
224.156
224.216
224.293
224.39
224.505
224.635
224.771
224.898
225.006
225.086
225.14
225.171
225.188
247.162
223.745
225.934
226.887
226.732
226.431
226.041
225.707
225.395
225.101
224.834
224.592
224.37
224.168
223.98
223.804
223.637
223.477
223.319
223.159
222.995
222.826
222.653
222.48
222.308
222.141
221.979
221.822
221.672
221.525
221.382
221.241
221.101
220.963
220.826
220.691
220.559
220.43
220.306
220.187
220.072
219.965
219.867
219.778
219.698
219.626
219.563
219.509
219.465
219.431
219.405
219.387
219.375
219.371
219.373
219.382
219.401
219.429
219.463
219.522
219.594
219.698
219.832
219.988
220.148
220.314
220.472
220.624
220.762
220.891
221.01
221.127
221.24
221.354
221.466
221.579
221.691
221.802
221.911
222.016
222.114
222.204
222.285
222.358
222.429
222.499
222.574
222.655
222.741
222.831
222.923
223.012
223.097
223.175
223.246
223.313
223.374
223.431
223.484
223.533
223.577
223.617
223.652
223.684
223.714
223.746
223.779
223.817
223.864
223.923
223.999
224.094
224.208
224.339
224.474
224.604
224.713
224.794
224.848
224.879
224.896
247.153
223.734
225.923
226.879
226.725
226.426
226.038
225.705
225.393
225.099
224.832
224.591
224.368
224.166
223.978
223.802
223.635
223.474
223.316
223.157
222.993
222.824
222.651
222.478
222.307
222.139
221.976
221.819
221.668
221.52
221.376
221.233
221.091
220.951
220.811
220.673
220.538
220.406
220.279
220.155
220.037
219.926
219.823
219.73
219.646
219.57
219.502
219.444
219.396
219.358
219.328
219.307
219.292
219.284
219.283
219.289
219.304
219.328
219.358
219.412
219.48
219.579
219.703
219.847
219.995
220.152
220.305
220.457
220.596
220.726
220.843
220.955
221.062
221.169
221.274
221.38
221.485
221.59
221.694
221.796
221.892
221.979
222.058
222.127
222.194
222.259
222.328
222.401
222.48
222.564
222.651
222.737
222.818
222.894
222.964
223.029
223.089
223.146
223.198
223.246
223.289
223.328
223.362
223.394
223.423
223.453
223.486
223.523
223.569
223.627
223.7
223.793
223.906
224.036
224.173
224.303
224.414
224.496
224.55
224.581
224.597
247.155
223.723
225.912
226.871
226.718
226.421
226.035
225.702
225.391
225.097
224.831
224.589
224.366
224.164
223.976
223.799
223.632
223.472
223.314
223.154
222.99
222.822
222.65
222.477
222.305
222.137
221.974
221.817
221.664
221.515
221.369
221.225
221.081
220.939
220.797
220.656
220.517
220.382
220.251
220.124
220.002
219.886
219.779
219.681
219.593
219.513
219.442
219.379
219.327
219.285
219.251
219.226
219.208
219.196
219.193
219.196
219.207
219.226
219.251
219.302
219.366
219.461
219.58
219.715
219.851
219.994
220.136
220.281
220.42
220.553
220.673
220.786
220.889
220.99
221.088
221.185
221.281
221.379
221.478
221.575
221.668
221.753
221.83
221.898
221.96
222.02
222.082
222.148
222.22
222.298
222.379
222.461
222.539
222.612
222.68
222.743
222.802
222.857
222.907
222.955
222.997
223.034
223.067
223.097
223.125
223.154
223.186
223.221
223.265
223.321
223.392
223.483
223.594
223.723
223.86
223.991
224.104
224.187
224.241
224.271
224.286
247.149
223.712
225.9
226.863
226.711
226.416
226.031
225.7
225.389
225.096
224.829
224.587
224.364
224.162
223.974
223.797
223.63
223.469
223.311
223.151
222.988
222.82
222.648
222.475
222.304
222.136
221.972
221.814
221.66
221.51
221.363
221.217
221.072
220.927
220.782
220.639
220.497
220.358
220.224
220.093
219.967
219.847
219.735
219.633
219.541
219.456
219.381
219.314
219.258
219.211
219.174
219.145
219.123
219.109
219.102
219.102
219.109
219.125
219.146
219.193
219.254
219.345
219.461
219.593
219.721
219.852
219.981
220.114
220.248
220.38
220.503
220.617
220.72
220.816
220.905
220.994
221.081
221.171
221.263
221.355
221.444
221.527
221.601
221.667
221.725
221.78
221.835
221.894
221.958
222.029
222.105
222.181
222.256
222.327
222.392
222.453
222.51
222.563
222.613
222.659
222.699
222.736
222.767
222.796
222.822
222.849
222.879
222.913
222.956
223.009
223.078
223.166
223.275
223.402
223.539
223.673
223.787
223.871
223.925
223.954
223.968
247.151
223.701
225.889
226.855
226.704
226.412
226.028
225.697
225.387
225.094
224.827
224.585
224.363
224.16
223.971
223.794
223.627
223.466
223.308
223.149
222.986
222.818
222.646
222.474
222.302
222.134
221.97
221.811
221.657
221.506
221.357
221.209
221.062
220.915
220.768
220.621
220.477
220.335
220.196
220.062
219.932
219.807
219.691
219.584
219.487
219.399
219.319
219.248
219.188
219.137
219.096
219.063
219.038
219.021
219.01
219.008
219.012
219.023
219.04
219.084
219.139
219.226
219.341
219.473
219.601
219.728
219.846
219.967
220.09
220.215
220.336
220.449
220.55
220.642
220.726
220.806
220.884
220.966
221.05
221.136
221.221
221.301
221.373
221.436
221.491
221.54
221.589
221.641
221.697
221.761
221.83
221.902
221.972
222.039
222.102
222.16
222.215
222.266
222.314
222.358
222.398
222.432
222.462
222.489
222.513
222.538
222.566
222.598
222.638
222.689
222.755
222.84
222.946
223.071
223.209
223.344
223.46
223.545
223.598
223.626
223.639
247.152
223.69
225.877
226.847
226.697
226.407
226.025
225.695
225.385
225.092
224.826
224.584
224.361
224.158
223.969
223.792
223.624
223.464
223.305
223.146
222.983
222.816
222.645
222.472
222.301
222.132
221.968
221.808
221.653
221.501
221.351
221.202
221.053
220.903
220.754
220.604
220.456
220.311
220.169
220.031
219.896
219.768
219.647
219.536
219.434
219.342
219.258
219.182
219.118
219.063
219.018
218.981
218.953
218.932
218.918
218.912
218.914
218.922
218.936
218.974
219.022
219.102
219.213
219.345
219.478
219.608
219.725
219.839
219.951
220.065
220.178
220.285
220.382
220.469
220.546
220.619
220.69
220.763
220.839
220.919
220.998
221.075
221.144
221.204
221.255
221.3
221.342
221.387
221.435
221.492
221.554
221.62
221.685
221.749
221.808
221.864
221.916
221.965
222.01
222.053
222.09
222.123
222.151
222.176
222.198
222.22
222.246
222.276
222.313
222.362
222.425
222.507
222.61
222.734
222.87
223.007
223.126
223.214
223.266
223.291
223.303
247.153
223.678
225.866
226.838
226.69
226.402
226.021
225.692
225.383
225.09
224.824
224.582
224.359
224.156
223.967
223.789
223.622
223.461
223.303
223.144
222.981
222.814
222.643
222.471
222.3
222.131
221.966
221.806
221.649
221.496
221.345
221.194
221.043
220.892
220.74
220.587
220.436
220.287
220.141
219.999
219.861
219.728
219.603
219.487
219.381
219.284
219.195
219.116
219.047
218.988
218.939
218.899
218.867
218.842
218.825
218.816
218.814
218.821
218.831
218.865
218.904
218.977
219.081
219.209
219.344
219.48
219.602
219.717
219.822
219.925
220.026
220.123
220.213
220.295
220.367
220.434
220.498
220.563
220.631
220.703
220.777
220.85
220.916
220.973
221.02
221.06
221.096
221.134
221.175
221.224
221.279
221.338
221.399
221.458
221.513
221.565
221.614
221.66
221.703
221.743
221.778
221.809
221.834
221.856
221.876
221.896
221.919
221.946
221.98
222.026
222.087
222.166
222.266
222.386
222.522
222.66
222.783
222.874
222.927
222.951
222.956
247.154
223.666
225.854
226.83
226.682
226.397
226.018
225.69
225.381
225.089
224.822
224.58
224.357
224.154
223.964
223.787
223.619
223.458
223.3
223.141
222.979
222.812
222.641
222.469
222.298
222.129
221.964
221.803
221.646
221.492
221.339
221.187
221.034
220.88
220.726
220.571
220.416
220.264
220.114
219.968
219.826
219.689
219.559
219.438
219.328
219.226
219.133
219.049
218.976
218.913
218.86
218.816
218.78
218.753
218.732
218.72
218.715
218.719
218.726
218.757
218.79
218.856
218.951
219.07
219.199
219.336
219.466
219.585
219.689
219.785
219.875
219.962
220.044
220.12
220.189
220.251
220.308
220.366
220.426
220.49
220.557
220.625
220.687
220.741
220.784
220.819
220.849
220.881
220.914
220.955
221.002
221.055
221.11
221.164
221.215
221.263
221.308
221.35
221.39
221.427
221.46
221.488
221.511
221.531
221.548
221.566
221.585
221.609
221.641
221.684
221.742
221.818
221.914
222.032
222.166
222.305
222.43
222.526
222.582
222.607
222.605
247.156
223.654
225.842
226.821
226.675
226.392
226.014
225.687
225.379
225.087
224.821
224.578
224.355
224.152
223.962
223.784
223.617
223.455
223.297
223.138
222.976
222.81
222.64
222.468
222.297
222.128
221.962
221.801
221.643
221.487
221.333
221.18
221.025
220.869
220.712
220.554
220.396
220.24
220.087
219.937
219.791
219.649
219.515
219.389
219.274
219.168
219.07
218.982
218.904
218.837
218.781
218.733
218.693
218.662
218.638
218.622
218.614
218.615
218.621
218.649
218.679
218.74
218.828
218.936
219.053
219.182
219.311
219.433
219.539
219.633
219.718
219.798
219.874
219.947
220.012
220.07
220.122
220.172
220.224
220.28
220.34
220.402
220.46
220.51
220.55
220.581
220.605
220.63
220.656
220.689
220.729
220.774
220.823
220.871
220.917
220.96
221
221.038
221.074
221.107
221.137
221.162
221.182
221.198
221.213
221.228
221.243
221.264
221.292
221.332
221.387
221.459
221.552
221.666
221.798
221.936
222.063
222.161
222.221
222.248
222.241
247.16
223.642
225.83
226.812
226.667
226.386
226.01
225.684
225.377
225.085
224.819
224.577
224.353
224.149
223.96
223.782
223.614
223.453
223.295
223.136
222.974
222.808
222.638
222.467
222.296
222.126
221.961
221.798
221.639
221.483
221.328
221.172
221.016
220.858
220.698
220.538
220.377
220.217
220.06
219.906
219.756
219.61
219.47
219.34
219.22
219.109
219.007
218.914
218.832
218.761
218.7
218.649
218.606
218.571
218.545
218.525
218.513
218.511
218.514
218.54
218.569
218.629
218.715
218.816
218.921
219.034
219.151
219.267
219.372
219.465
219.551
219.629
219.704
219.774
219.837
219.892
219.939
219.983
220.027
220.075
220.127
220.181
220.234
220.28
220.316
220.343
220.361
220.38
220.399
220.424
220.455
220.493
220.535
220.578
220.618
220.656
220.691
220.724
220.756
220.784
220.81
220.831
220.847
220.86
220.871
220.883
220.893
220.911
220.936
220.974
221.024
221.093
221.181
221.292
221.42
221.557
221.685
221.786
221.849
221.879
221.866
247.164
223.63
225.817
226.803
226.66
226.381
226.007
225.682
225.375
225.083
224.817
224.575
224.351
224.147
223.957
223.779
223.611
223.45
223.292
223.133
222.971
222.806
222.636
222.465
222.294
222.125
221.959
221.796
221.636
221.479
221.322
221.165
221.007
220.847
220.685
220.521
220.357
220.194
220.033
219.875
219.72
219.57
219.426
219.291
219.166
219.05
218.944
218.846
218.759
218.684
218.619
218.564
218.518
218.48
218.45
218.428
218.412
218.407
218.406
218.431
218.457
218.517
218.605
218.706
218.804
218.905
219.004
219.104
219.2
219.29
219.375
219.455
219.532
219.603
219.666
219.718
219.761
219.799
219.836
219.875
219.919
219.966
220.013
220.054
220.087
220.109
220.122
220.134
220.145
220.162
220.185
220.215
220.25
220.286
220.321
220.354
220.384
220.411
220.437
220.46
220.481
220.497
220.509
220.517
220.523
220.531
220.537
220.55
220.573
220.606
220.653
220.717
220.8
220.907
221.031
221.166
221.294
221.397
221.463
221.496
221.477
247.169
223.617
225.805
226.794
226.652
226.376
226.003
225.679
225.373
225.082
224.816
224.573
224.349
224.145
223.955
223.777
223.609
223.447
223.289
223.13
222.969
222.804
222.635
222.464
222.293
222.124
221.957
221.794
221.633
221.474
221.317
221.158
220.998
220.836
220.671
220.505
220.338
220.171
220.006
219.844
219.685
219.53
219.382
219.241
219.111
218.991
218.88
218.778
218.686
218.606
218.537
218.479
218.429
218.388
218.355
218.33
218.311
218.302
218.299
218.321
218.343
218.401
218.49
218.595
218.696
218.791
218.878
218.962
219.043
219.124
219.205
219.285
219.364
219.436
219.498
219.548
219.588
219.62
219.65
219.681
219.717
219.756
219.796
219.832
219.86
219.878
219.886
219.891
219.894
219.903
219.918
219.94
219.968
219.997
220.026