/*--------------------------------*- C++ -*----------------------------------*\
| =========                 |                                                 |
| \\      /  F ield         | OpenFOAM: The Open Source CFD Toolbox           |
|  \\    /   O peration     | Version:  2412                                  |
|   \\  /    A nd           | Website:  www.openfoam.com                      |
|    \\/     M anipulation  |                                                 |
\*---------------------------------------------------------------------------*/
FoamFile
{
    version     2.0;
    format      ascii;
    arch        "LSB;label=32;scalar=64";
    class       volVectorField;
    location    "0.048";
    object      U;
}
// * * * * * * * * * * * * * * * * * * * * * * * * * * * * * * * * * * * * * //

dimensions      [0 1 -1 0 0 0 0];

internalField   nonuniform List<vector> 
9771
(
(292.394 101.578 0)
(275.768 -1.65238 0)
(252.746 -8.1757 0)
(237.937 -9.25562 0)
(231.113 -10.8454 0)
(228.105 -11.491 0)
(226.28 -11.87 0)
(224.778 -12.098 0)
(223.439 -12.2865 0)
(222.231 -12.4474 0)
(292.899 101.566 0)
(276.305 -1.68972 0)
(252.846 -8.20908 0)
(237.981 -9.28087 0)
(231.141 -10.8666 0)
(228.126 -11.5101 0)
(226.299 -11.8886 0)
(224.794 -12.1159 0)
(223.454 -12.3039 0)
(222.245 -12.4643 0)
(293.33 101.559 0)
(276.81 -1.78064 0)
(252.938 -8.24784 0)
(238.027 -9.30279 0)
(231.174 -10.8847 0)
(228.15 -11.5279 0)
(226.318 -11.9065 0)
(224.812 -12.1333 0)
(223.47 -12.3206 0)
(222.259 -12.4808 0)
(293.699 101.562 0)
(277.398 -1.82284 0)
(253.031 -8.28081 0)
(238.069 -9.32766 0)
(231.202 -10.9056 0)
(228.171 -11.5466 0)
(226.336 -11.9248 0)
(224.828 -12.1509 0)
(223.485 -12.3377 0)
(222.273 -12.4975 0)
(293.99 101.57 0)
(277.955 -1.92577 0)
(253.115 -8.32013 0)
(238.116 -9.34885 0)
(231.234 -10.9233 0)
(228.195 -11.5644 0)
(226.356 -11.9427 0)
(224.845 -12.1683 0)
(223.501 -12.3545 0)
(222.288 -12.5141 0)
(294.267 101.585 0)
(278.625 -1.98854 0)
(253.202 -8.35318 0)
(238.159 -9.37409 0)
(231.262 -10.9445 0)
(228.217 -11.5833 0)
(226.374 -11.9612 0)
(224.862 -12.1861 0)
(223.516 -12.3718 0)
(222.303 -12.5311 0)
(294.524 101.592 0)
(279.278 -2.10069 0)
(253.278 -8.39373 0)
(238.206 -9.39472 0)
(231.295 -10.9622 0)
(228.241 -11.6013 0)
(226.394 -11.9794 0)
(224.88 -12.2039 0)
(223.533 -12.3891 0)
(222.318 -12.5481 0)
(221.224 -12.7024 0)
(220.221 -12.837 0)
(219.291 -12.9562 0)
(218.411 -13.0478 0)
(217.567 -13.1225 0)
(216.744 -13.1857 0)
(215.938 -13.2483 0)
(215.15 -13.3095 0)
(214.386 -13.3618 0)
(213.647 -13.4052 0)
(212.926 -13.4481 0)
(212.219 -13.5096 0)
(211.526 -13.5906 0)
(210.855 -13.6772 0)
(210.208 -13.7542 0)
(209.582 -13.8252 0)
(208.973 -13.9012 0)
(208.382 -13.9853 0)
(207.808 -14.0758 0)
(207.247 -14.1717 0)
(206.698 -14.273 0)
(206.159 -14.375 0)
(294.825 101.602 0)
(280.054 -2.19319 0)
(253.357 -8.42707 0)
(238.249 -9.42051 0)
(231.323 -10.9838 0)
(228.263 -11.6204 0)
(226.413 -11.9982 0)
(224.897 -12.2221 0)
(223.548 -12.4068 0)
(222.333 -12.5655 0)
(221.238 -12.7198 0)
(220.235 -12.8547 0)
(219.305 -12.9744 0)
(218.426 -13.0668 0)
(217.583 -13.1425 0)
(216.761 -13.2071 0)
(215.955 -13.2709 0)
(215.168 -13.3334 0)
(214.406 -13.3869 0)
(213.668 -13.4315 0)
(212.948 -13.4756 0)
(212.242 -13.5384 0)
(211.55 -13.6206 0)
(210.882 -13.7084 0)
(210.236 -13.7865 0)
(209.612 -13.8587 0)
(209.005 -13.9358 0)
(208.416 -14.021 0)
(207.844 -14.1127 0)
(207.285 -14.21 0)
(206.738 -14.3129 0)
(206.202 -14.4166 0)
(205.675 -14.52 0)
(205.156 -14.6264 0)
(204.647 -14.7409 0)
(204.145 -14.8639 0)
(203.65 -14.9952 0)
(203.161 -15.1343 0)
(295.069 101.59 0)
(280.831 -2.32497 0)
(253.422 -8.46866 0)
(238.297 -9.44052 0)
(231.357 -11.0014 0)
(228.287 -11.6386 0)
(226.433 -12.0167 0)
(224.915 -12.2401 0)
(223.565 -12.4243 0)
(222.349 -12.5827 0)
(221.253 -12.7372 0)
(220.25 -12.8723 0)
(219.32 -12.9926 0)
(218.442 -13.0859 0)
(217.599 -13.1626 0)
(216.778 -13.2285 0)
(215.973 -13.2938 0)
(215.187 -13.3576 0)
(214.425 -13.4123 0)
(213.689 -13.4581 0)
(212.97 -13.5034 0)
(212.265 -13.5676 0)
(211.574 -13.6512 0)
(210.907 -13.7402 0)
(210.264 -13.8195 0)
(209.641 -13.8929 0)
(209.035 -13.9713 0)
(208.448 -14.0577 0)
(207.878 -14.1506 0)
(207.322 -14.2493 0)
(206.777 -14.3539 0)
(206.243 -14.4596 0)
(205.718 -14.565 0)
(205.203 -14.6733 0)
(204.696 -14.7896 0)
(204.197 -14.9146 0)
(203.705 -15.048 0)
(203.22 -15.1894 0)
(202.739 -15.3392 0)
(295.352 101.618 0)
(281.687 -2.43644 0)
(253.488 -8.50169 0)
(238.339 -9.4671 0)
(231.385 -11.024 0)
(228.309 -11.6582 0)
(226.452 -12.0358 0)
(224.932 -12.2586 0)
(223.581 -12.4423 0)
(222.364 -12.6005 0)
(221.267 -12.7549 0)
(220.264 -12.8903 0)
(219.334 -13.0111 0)
(218.457 -13.1051 0)
(217.614 -13.1829 0)
(216.794 -13.2501 0)
(215.99 -13.3167 0)
(215.206 -13.3818 0)
(214.445 -13.4376 0)
(213.71 -13.4846 0)
(212.993 -13.5313 0)
(212.288 -13.5968 0)
(211.6 -13.6815 0)
(210.934 -13.7717 0)
(210.292 -13.8521 0)
(209.671 -13.9268 0)
(209.068 -14.0063 0)
(208.483 -14.0938 0)
(207.915 -14.1879 0)
(207.36 -14.2879 0)
(206.818 -14.3941 0)
(206.287 -14.5013 0)
(205.766 -14.6085 0)
(205.253 -14.7185 0)
(204.749 -14.8366 0)
(204.254 -14.9634 0)
(203.765 -15.0987 0)
(203.283 -15.2423 0)
(202.806 -15.3944 0)
(295.531 101.684 0)
(282.316 -2.56729 0)
(253.535 -8.54857 0)
(238.385 -9.48498 0)
(231.418 -11.039 0)
(228.333 -11.6752 0)
(226.472 -12.0534 0)
(224.95 -12.276 0)
(223.598 -12.4592 0)
(222.379 -12.6173 0)
(221.282 -12.7719 0)
(220.279 -12.9078 0)
(219.349 -13.0294 0)
(218.472 -13.1243 0)
(217.63 -13.2033 0)
(216.811 -13.2719 0)
(216.008 -13.34 0)
(215.224 -13.4065 0)
(214.465 -13.4635 0)
(213.731 -13.5118 0)
(213.014 -13.5597 0)
(212.311 -13.6267 0)
(211.624 -13.7129 0)
(210.96 -13.8045 0)
(210.32 -13.8862 0)
(209.7 -13.9622 0)
(209.099 -14.0429 0)
(208.516 -14.1317 0)
(207.95 -14.2271 0)
(207.397 -14.3288 0)
(206.857 -14.4368 0)
(206.328 -14.5462 0)
(205.81 -14.6554 0)
(205.3 -14.7675 0)
(204.799 -14.8875 0)
(204.307 -15.0162 0)
(203.821 -15.1538 0)
(203.342 -15.2997 0)
(202.868 -15.4545 0)
(317.961 83.5771 0)
(283.53 -8.60732 0)
(254.49 -9.95672 0)
(239.478 -10.1773 0)
(232.188 -11.6133 0)
(228.898 -12.1678 0)
(226.92 -12.499 0)
(225.323 -12.6747 0)
(223.918 -12.8207 0)
(222.66 -12.9516 0)
(221.533 -13.0875 0)
(220.511 -13.2115 0)
(219.572 -13.3268 0)
(218.69 -13.4205 0)
(217.849 -13.5034 0)
(217.032 -13.5796 0)
(216.235 -13.6564 0)
(215.46 -13.7308 0)
(214.711 -13.7943 0)
(213.986 -13.8497 0)
(213.28 -13.9057 0)
(212.588 -13.982 0)
(211.913 -14.0758 0)
(211.263 -14.1743 0)
(210.638 -14.2624 0)
(210.035 -14.3462 0)
(209.45 -14.4343 0)
(208.883 -14.5306 0)
(208.334 -14.6332 0)
(207.8 -14.7438 0)
(207.281 -14.8626 0)
(206.775 -14.985 0)
(206.28 -15.1083 0)
(205.794 -15.2348 0)
(205.318 -15.3691 0)
(204.85 -15.5128 0)
(204.391 -15.6665 0)
(203.938 -15.8304 0)
(203.492 -16.005 0)
(203.052 -16.1899 0)
(202.616 -16.3847 0)
(202.184 -16.5891 0)
(201.754 -16.8032 0)
(201.327 -17.0267 0)
(200.902 -17.2594 0)
(200.479 -17.5006 0)
(200.056 -17.7503 0)
(199.634 -18.0088 0)
(199.211 -18.2767 0)
(198.787 -18.5545 0)
(198.362 -18.8424 0)
(197.935 -19.1401 0)
(197.508 -19.4474 0)
(197.08 -19.7642 0)
(196.652 -20.0903 0)
(196.227 -20.4258 0)
(195.803 -20.7703 0)
(195.384 -21.1238 0)
(194.971 -21.4859 0)
(194.567 -21.8566 0)
(194.172 -22.2351 0)
(193.788 -22.6211 0)
(193.415 -23.0133 0)
(193.055 -23.4107 0)
(192.707 -23.8121 0)
(192.374 -24.2168 0)
(192.059 -24.6237 0)
(191.764 -25.0324 0)
(191.489 -25.4422 0)
(191.234 -25.8525 0)
(190.999 -26.2629 0)
(190.785 -26.673 0)
(190.589 -27.0815 0)
(190.413 -27.488 0)
(190.255 -27.8908 0)
(190.116 -28.2893 0)
(189.995 -28.6827 0)
(189.891 -29.0708 0)
(189.802 -29.4529 0)
(281.701 54.1225 0)
(268.039 -15.4442 0)
(254.664 -12.5477 0)
(241.328 -11.5104 0)
(233.54 -12.8582 0)
(229.847 -13.2237 0)
(227.675 -13.4326 0)
(225.967 -13.4963 0)
(224.481 -13.5589 0)
(223.16 -13.6275 0)
(221.987 -13.7172 0)
(220.936 -13.8103 0)
(219.984 -13.9064 0)
(219.1 -13.9933 0)
(218.261 -14.0802 0)
(217.452 -14.1681 0)
(216.667 -14.2587 0)
(215.909 -14.3457 0)
(215.178 -14.4206 0)
(214.471 -14.4892 0)
(213.783 -14.5602 0)
(213.112 -14.6519 0)
(212.463 -14.757 0)
(211.842 -14.8649 0)
(211.248 -14.9619 0)
(210.676 -15.0576 0)
(210.125 -15.1573 0)
(209.593 -15.2649 0)
(209.08 -15.3776 0)
(208.585 -15.4993 0)
(208.108 -15.6311 0)
(207.648 -15.7705 0)
(207.202 -15.9133 0)
(206.767 -16.0609 0)
(206.344 -16.2162 0)
(205.931 -16.3815 0)
(205.527 -16.5583 0)
(205.133 -16.7477 0)
(204.747 -16.9506 0)
(204.369 -17.1667 0)
(203.998 -17.3955 0)
(203.634 -17.6361 0)
(203.276 -17.8876 0)
(202.925 -18.149 0)
(202.581 -18.4198 0)
(202.243 -18.6999 0)
(201.911 -18.9899 0)
(201.586 -19.2901 0)
(201.266 -19.6007 0)
(200.953 -19.9213 0)
(200.646 -20.251 0)
(200.347 -20.5891 0)
(200.057 -20.9348 0)
(199.776 -21.2875 0)
(199.504 -21.6466 0)
(199.243 -22.0113 0)
(198.994 -22.3807 0)
(198.758 -22.7536 0)
(198.536 -23.1292 0)
(198.331 -23.5067 0)
(198.141 -23.8847 0)
(197.969 -24.2614 0)
(197.812 -24.635 0)
(197.671 -25.0039 0)
(197.544 -25.3669 0)
(197.433 -25.7235 0)
(197.337 -26.0726 0)
(197.259 -26.4138 0)
(197.195 -26.7462 0)
(197.146 -27.0698 0)
(197.112 -27.3848 0)
(197.087 -27.6906 0)
(197.078 -27.9874 0)
(197.077 -28.2722 0)
(197.073 -28.5474 0)
(197.08 -28.8077 0)
(197.095 -29.0567 0)
(197.112 -29.2933 0)
(197.13 -29.5187 0)
(244.865 31.1588 0)
(255.57 -17.3159 0)
(252.617 -13.234 0)
(242.208 -12.6802 0)
(234.513 -14.0591 0)
(230.666 -14.3154 0)
(228.379 -14.4077 0)
(226.588 -14.3585 0)
(225.03 -14.3356 0)
(223.649 -14.3345 0)
(222.429 -14.3687 0)
(221.348 -14.4226 0)
(220.379 -14.4918 0)
(219.49 -14.5666 0)
(218.653 -14.6529 0)
(217.853 -14.7482 0)
(217.086 -14.8483 0)
(216.349 -14.9447 0)
(215.642 -15.03 0)
(214.959 -15.1115 0)
(214.295 -15.1968 0)
(213.652 -15.301 0)
(213.033 -15.4143 0)
(212.446 -15.5284 0)
(211.885 -15.6319 0)
(211.348 -15.7367 0)
(210.83 -15.8458 0)
(210.333 -15.9627 0)
(209.857 -16.0822 0)
(209.401 -16.2096 0)
(208.967 -16.3473 0)
(208.552 -16.4963 0)
(208.154 -16.6523 0)
(207.771 -16.8155 0)
(207.399 -16.9868 0)
(207.04 -17.1683 0)
(206.692 -17.3613 0)
(206.355 -17.5675 0)
(206.028 -17.7878 0)
(205.711 -18.022 0)
(205.402 -18.2693 0)
(205.102 -18.5283 0)
(204.811 -18.7976 0)
(204.528 -19.0767 0)
(204.251 -19.3656 0)
(203.982 -19.6649 0)
(203.718 -19.9748 0)
(203.46 -20.2951 0)
(203.208 -20.6244 0)
(202.964 -20.9609 0)
(202.729 -21.3033 0)
(202.503 -21.6505 0)
(202.287 -22.001 0)
(202.082 -22.353 0)
(201.889 -22.7049 0)
(201.709 -23.0553 0)
(201.541 -23.4028 0)
(201.387 -23.7459 0)
(201.247 -24.0836 0)
(201.123 -24.4151 0)
(201.013 -24.7398 0)
(200.916 -25.0563 0)
(200.832 -25.3633 0)
(200.758 -25.6601 0)
(200.692 -25.9465 0)
(200.635 -26.2225 0)
(200.587 -26.4877 0)
(200.547 -26.7418 0)
(200.517 -26.9847 0)
(200.49 -27.2168 0)
(200.473 -27.4388 0)
(200.455 -27.6514 0)
(200.446 -27.8545 0)
(200.437 -28.0472 0)
(200.42 -28.2303 0)
(200.42 -28.4047 0)
(200.411 -28.5707 0)
(200.413 -28.729 0)
(200.414 -28.8805 0)
(232.646 12.2483 0)
(250.611 -20.573 0)
(250.51 -14.6849 0)
(242.948 -13.409 0)
(235.18 -15.1475 0)
(231.2 -15.3803 0)
(228.93 -15.3899 0)
(227.135 -15.244 0)
(225.542 -15.1424 0)
(224.118 -15.0686 0)
(222.858 -15.0411 0)
(221.75 -15.0487 0)
(220.766 -15.0838 0)
(219.87 -15.1411 0)
(219.035 -15.2212 0)
(218.245 -15.3183 0)
(217.496 -15.4227 0)
(216.783 -15.5251 0)
(216.101 -15.6193 0)
(215.445 -15.7127 0)
(214.809 -15.8103 0)
(214.198 -15.9237 0)
(213.614 -16.0423 0)
(213.063 -16.1603 0)
(212.537 -16.2683 0)
(212.036 -16.3793 0)
(211.554 -16.4947 0)
(211.096 -16.617 0)
(210.66 -16.7389 0)
(210.247 -16.8659 0)
(209.858 -17.0018 0)
(209.49 -17.1514 0)
(209.141 -17.3121 0)
(208.806 -17.4835 0)
(208.484 -17.6649 0)
(208.173 -17.8579 0)
(207.873 -18.063 0)
(207.583 -18.2816 0)
(207.304 -18.5141 0)
(207.035 -18.7601 0)
(206.774 -19.0185 0)
(206.522 -19.288 0)
(206.276 -19.568 0)
(206.037 -19.8585 0)
(205.801 -20.1595 0)
(205.57 -20.4711 0)
(205.343 -20.7924 0)
(205.122 -21.1218 0)
(204.906 -21.457 0)
(204.698 -21.7956 0)
(204.498 -22.1361 0)
(204.307 -22.4771 0)
(204.126 -22.8171 0)
(203.956 -23.1539 0)
(203.796 -23.4857 0)
(203.647 -23.8115 0)
(203.51 -24.1299 0)
(203.384 -24.4397 0)
(203.27 -24.7398 0)
(203.169 -25.0303 0)
(203.08 -25.311 0)
(203.002 -25.5818 0)
(202.932 -25.842 0)
(202.87 -26.0912 0)
(202.814 -26.3297 0)
(202.765 -26.5578 0)
(202.722 -26.7756 0)
(202.683 -26.983 0)
(202.653 -27.1804 0)
(202.627 -27.3685 0)
(202.604 -27.5482 0)
(202.59 -27.72 0)
(202.576 -27.8848 0)
(202.568 -28.0423 0)
(202.563 -28.194 0)
(202.564 -28.3404 0)
(202.577 -28.4808 0)
(202.586 -28.6197 0)
(202.621 -28.7504 0)
(222.337 -1.67275 0)
(245.92 -24.6885 0)
(248.879 -15.8602 0)
(243.173 -14.2065 0)
(235.705 -16.0329 0)
(231.556 -16.3263 0)
(229.347 -16.3357 0)
(227.601 -16.1296 0)
(226.008 -15.9663 0)
(224.561 -15.8227 0)
(223.273 -15.7317 0)
(222.143 -15.6876 0)
(221.143 -15.683 0)
(220.241 -15.7175 0)
(219.408 -15.7851 0)
(218.63 -15.8778 0)
(217.899 -15.9806 0)
(217.211 -16.0852 0)
(216.557 -16.1861 0)
(215.929 -16.2892 0)
(215.325 -16.3963 0)
(214.749 -16.5156 0)
(214.202 -16.637 0)
(213.687 -16.7574 0)
(213.198 -16.8685 0)
(212.733 -16.9826 0)
(212.289 -17.1002 0)
(211.87 -17.224 0)
(211.475 -17.3451 0)
(211.104 -17.4689 0)
(210.756 -17.5994 0)
(210.43 -17.745 0)
(210.123 -17.9044 0)
(209.831 -18.0777 0)
(209.551 -18.2625 0)
(209.283 -18.4602 0)
(209.023 -18.6707 0)
(208.772 -18.8957 0)
(208.528 -19.1358 0)
(208.291 -19.3914 0)
(208.057 -19.6617 0)
(207.826 -19.9457 0)
(207.597 -20.2426 0)
(207.369 -20.5518 0)
(207.141 -20.872 0)
(206.916 -21.2013 0)
(206.693 -21.5375 0)
(206.476 -21.8779 0)
(206.265 -22.2196 0)
(206.063 -22.5597 0)
(205.87 -22.8961 0)
(205.688 -23.227 0)
(205.517 -23.551 0)
(205.358 -23.8666 0)
(205.211 -24.1729 0)
(205.075 -24.4693 0)
(204.949 -24.7551 0)
(204.835 -25.0295 0)
(204.732 -25.292 0)
(204.64 -25.5431 0)
(204.558 -25.7837 0)
(204.486 -26.0139 0)
(204.421 -26.2341 0)
(204.363 -26.4442 0)
(204.313 -26.6447 0)
(204.266 -26.8361 0)
(204.229 -27.0185 0)
(204.19 -27.1926 0)
(204.163 -27.3586 0)
(204.142 -27.5173 0)
(204.129 -27.6692 0)
(204.117 -27.8161 0)
(204.123 -27.9551 0)
(204.116 -28.0931 0)
(204.141 -28.2203 0)
(204.147 -28.351 0)
(204.19 -28.4679 0)
(204.214 -28.5917 0)
(204.271 -28.6995 0)
(214.668 -11.3636 0)
(241.387 -28.43 0)
(248.039 -17.4264 0)
(243.392 -15.2334 0)
(236.13 -16.898 0)
(231.79 -17.1549 0)
(229.639 -17.2186 0)
(227.979 -16.9941 0)
(226.419 -16.7914 0)
(224.973 -16.5873 0)
(223.67 -16.4358 0)
(222.524 -16.3371 0)
(221.513 -16.2894 0)
(220.605 -16.2961 0)
(219.774 -16.3452 0)
(219.008 -16.4268 0)
(218.297 -16.5221 0)
(217.633 -16.6247 0)
(217.005 -16.729 0)
(216.407 -16.839 0)
(215.837 -16.952 0)
(215.298 -17.0739 0)
(214.789 -17.1962 0)
(214.311 -17.3178 0)
(213.858 -17.4306 0)
(213.43 -17.5445 0)
(213.025 -17.6597 0)
(212.647 -17.7799 0)
(212.293 -17.8969 0)
(211.963 -18.0154 0)
(211.652 -18.1395 0)
(211.361 -18.2796 0)
(211.086 -18.436 0)
(210.825 -18.609 0)
(210.575 -18.795 0)
(210.336 -18.9947 0)
(210.104 -19.2078 0)
(209.878 -19.4373 0)
(209.654 -19.6852 0)
(209.429 -19.953 0)
(209.201 -20.2402 0)
(208.969 -20.5452 0)
(208.733 -20.8656 0)
(208.493 -21.1987 0)
(208.253 -21.5414 0)
(208.014 -21.89 0)
(207.779 -22.241 0)
(207.551 -22.5912 0)
(207.33 -22.9378 0)
(207.12 -23.2783 0)
(206.921 -23.6103 0)
(206.734 -23.9321 0)
(206.56 -24.2422 0)
(206.4 -24.5402 0)
(206.252 -24.8258 0)
(206.118 -25.099 0)
(205.995 -25.3595 0)
(205.884 -25.607 0)
(205.785 -25.8414 0)
(205.696 -26.0636 0)
(205.62 -26.2743 0)
(205.55 -26.4744 0)
(205.492 -26.6642 0)
(205.437 -26.8447 0)
(205.395 -27.0157 0)
(205.353 -27.1786 0)
(205.323 -27.3325 0)
(205.29 -27.4794 0)
(205.272 -27.6182 0)
(205.253 -27.7524 0)
(205.259 -27.8765 0)
(205.245 -28.0009 0)
(205.267 -28.1117 0)
(205.264 -28.2263 0)
(205.295 -28.3262 0)
(205.309 -28.4298 0)
(205.345 -28.5201 0)
(205.371 -28.6109 0)
(205.406 -28.6905 0)
(209.406 -17.8865 0)
(236.989 -31.0215 0)
(246.903 -19.0719 0)
(243.246 -16.5016 0)
(236.467 -17.7161 0)
(231.983 -17.8773 0)
(229.85 -18.0403 0)
(228.268 -17.8252 0)
(226.764 -17.6015 0)
(225.343 -17.3505 0)
(224.044 -17.146 0)
(222.893 -16.9936 0)
(221.875 -16.9021 0)
(220.964 -16.8767 0)
(220.136 -16.9019 0)
(219.382 -16.9661 0)
(218.689 -17.0482 0)
(218.047 -17.1444 0)
(217.446 -17.2483 0)
(216.879 -17.3611 0)
(216.342 -17.4762 0)
(215.84 -17.5975 0)
(215.368 -17.7187 0)
(214.927 -17.8402 0)
(214.51 -17.9531 0)
(214.119 -18.0643 0)
(213.752 -18.1734 0)
(213.413 -18.2869 0)
(213.096 -18.3985 0)
(212.802 -18.5125 0)
(212.523 -18.632 0)
(212.259 -18.7677 0)
(212.007 -18.9207 0)
(211.767 -19.0925 0)
(211.535 -19.28 0)
(211.311 -19.4842 0)
(211.088 -19.706 0)
(210.865 -19.9493 0)
(210.637 -20.2163 0)
(210.403 -20.508 0)
(210.159 -20.8222 0)
(209.907 -21.1552 0)
(209.65 -21.502 0)
(209.389 -21.8584 0)
(209.128 -22.2197 0)
(208.872 -22.5813 0)
(208.623 -22.9391 0)
(208.385 -23.2899 0)
(208.158 -23.6315 0)
(207.946 -23.9623 0)
(207.748 -24.2812 0)
(207.563 -24.587 0)
(207.391 -24.8794 0)
(207.231 -25.1588 0)
(207.083 -25.4254 0)
(206.948 -25.6797 0)
(206.825 -25.9215 0)
(206.713 -26.1505 0)
(206.613 -26.3666 0)
(206.523 -26.5703 0)
(206.447 -26.7622 0)
(206.377 -26.9432 0)
(206.32 -27.1137 0)
(206.268 -27.2749 0)
(206.226 -27.4268 0)
(206.189 -27.5702 0)
(206.155 -27.7052 0)
(206.127 -27.8327 0)
(206.108 -27.9522 0)
(206.087 -28.0673 0)
(206.092 -28.1714 0)
(206.075 -28.2745 0)
(206.085 -28.3653 0)
(206.079 -28.4548 0)
(206.087 -28.5338 0)
(206.089 -28.6088 0)
(206.094 -28.6756 0)
(206.095 -28.7366 0)
(206.092 -28.7907 0)
(205.871 -22.1368 0)
(232.977 -32.4067 0)
(245.716 -21.0061 0)
(242.468 -17.8332 0)
(236.638 -18.4654 0)
(232.165 -18.5235 0)
(229.967 -18.8008 0)
(228.456 -18.6125 0)
(227.032 -18.3806 0)
(225.663 -18.0984 0)
(224.387 -17.8524 0)
(223.244 -17.6518 0)
(222.227 -17.5183 0)
(221.316 -17.458 0)
(220.494 -17.4552 0)
(219.751 -17.4963 0)
(219.075 -17.5605 0)
(218.455 -17.6457 0)
(217.878 -17.7449 0)
(217.34 -17.8561 0)
(216.837 -17.9692 0)
(216.37 -18.0868 0)
(215.934 -18.2045 0)
(215.529 -18.3241 0)
(215.148 -18.4352 0)
(214.794 -18.5414 0)
(214.463 -18.6418 0)
(214.159 -18.7461 0)
(213.875 -18.8521 0)
(213.609 -18.9641 0)
(213.354 -19.0829 0)
(213.11 -19.2174 0)
(212.874 -19.3689 0)
(212.646 -19.5404 0)
(212.422 -19.7318 0)
(212.197 -19.9468 0)
(211.966 -20.1879 0)
(211.725 -20.4586 0)
(211.471 -20.7593 0)
(211.204 -21.0878 0)
(210.926 -21.4381 0)
(210.642 -21.803 0)
(210.356 -22.1752 0)
(210.073 -22.5488 0)
(209.796 -22.9192 0)
(209.528 -23.2828 0)
(209.271 -23.637 0)
(209.027 -23.9795 0)
(208.796 -24.3089 0)
(208.579 -24.6245 0)
(208.379 -24.926 0)
(208.198 -25.2129 0)
(208.033 -25.4847 0)
(207.882 -25.7418 0)
(207.744 -25.9847 0)
(207.618 -26.2143 0)
(207.504 -26.4313 0)
(207.402 -26.6361 0)
(207.309 -26.8292 0)
(207.224 -27.0107 0)
(207.15 -27.1811 0)
(207.084 -27.3414 0)
(207.026 -27.4922 0)
(206.978 -27.6338 0)
(206.931 -27.7673 0)
(206.895 -27.8916 0)
(206.851 -28.0085 0)
(206.823 -28.1172 0)
(206.794 -28.2191 0)
(206.769 -28.315 0)
(206.757 -28.4028 0)
(206.733 -28.4856 0)
(206.72 -28.5604 0)
(206.699 -28.6296 0)
(206.68 -28.6922 0)
(206.658 -28.749 0)
(206.634 -28.8002 0)
(206.606 -28.8463 0)
(206.574 -28.8876 0)
(203.628 -24.846 0)
(229.064 -32.7455 0)
(244.08 -22.7968 0)
(241.673 -19.1707 0)
(236.891 -19.1825 0)
(232.324 -19.1751 0)
(230.013 -19.5165 0)
(228.552 -19.3435 0)
(227.217 -19.1142 0)
(225.922 -18.8171 0)
(224.691 -18.5435 0)
(223.571 -18.3042 0)
(222.565 -18.1334 0)
(221.66 -18.0379 0)
(220.847 -18.0045 0)
(220.116 -18.0183 0)
(219.456 -18.0603 0)
(218.854 -18.1302 0)
(218.301 -18.2203 0)
(217.79 -18.3255 0)
(217.318 -18.4327 0)
(216.884 -18.5435 0)
(216.482 -18.6548 0)
(216.112 -18.7697 0)
(215.766 -18.877 0)
(215.446 -18.9774 0)
(215.148 -19.0691 0)
(214.873 -19.1651 0)
(214.615 -19.2672 0)
(214.37 -19.3805 0)
(214.132 -19.5031 0)
(213.901 -19.641 0)
(213.672 -19.7957 0)
(213.447 -19.9736 0)
(213.215 -20.1787 0)
(212.975 -20.4176 0)
(212.716 -20.6928 0)
(212.44 -21.0046 0)
(212.144 -21.3486 0)
(211.835 -21.7178 0)
(211.519 -22.1018 0)
(211.202 -22.4903 0)
(210.889 -22.8757 0)
(210.589 -23.254 0)
(210.306 -23.6228 0)
(210.041 -23.98 0)
(209.792 -24.3232 0)
(209.559 -24.6506 0)
(209.341 -24.9617 0)
(209.137 -25.257 0)
(208.945 -25.5371 0)
(208.763 -25.8019 0)
(208.594 -26.0506 0)
(208.441 -26.2834 0)
(208.303 -26.5009 0)
(208.178 -26.7039 0)
(208.064 -26.8934 0)
(207.968 -27.0706 0)
(207.88 -27.2361 0)
(207.8 -27.3906 0)
(207.73 -27.5348 0)
(207.672 -27.6693 0)
(207.616 -27.7955 0)
(207.573 -27.9129 0)
(207.525 -28.023 0)
(207.488 -28.1249 0)
(207.436 -28.2199 0)
(207.405 -28.3082 0)
(207.367 -28.3906 0)
(207.338 -28.4675 0)
(207.312 -28.5389 0)
(207.281 -28.6049 0)
(207.253 -28.6661 0)
(207.222 -28.7225 0)
(207.188 -28.7746 0)
(207.154 -28.823 0)
(207.118 -28.8678 0)
(207.082 -28.9103 0)
(207.042 -28.9496 0)
(202.473 -26.5249 0)
(225.784 -32.5254 0)
(241.996 -24.2642 0)
(240.993 -20.4624 0)
(236.995 -19.9291 0)
(232.439 -19.8608 0)
(229.978 -20.1897 0)
(228.566 -20.0163 0)
(227.326 -19.7963 0)
(226.116 -19.4959 0)
(224.946 -19.2078 0)
(223.865 -18.9419 0)
(222.882 -18.741 0)
(221.992 -18.6126 0)
(221.192 -18.548 0)
(220.475 -18.532 0)
(219.83 -18.549 0)
(219.246 -18.5998 0)
(218.714 -18.6765 0)
(218.228 -18.7715 0)
(217.784 -18.869 0)
(217.38 -18.9699 0)
(217.009 -19.0716 0)
(216.671 -19.1782 0)
(216.359 -19.2794 0)
(216.072 -19.3738 0)
(215.802 -19.4587 0)
(215.55 -19.5486 0)
(215.31 -19.6494 0)
(215.079 -19.7669 0)
(214.852 -19.8967 0)
(214.627 -20.0429 0)
(214.398 -20.2092 0)
(214.161 -20.4064 0)
(213.907 -20.6426 0)
(213.63 -20.9245 0)
(213.326 -21.2501 0)
(213 -21.6125 0)
(212.658 -21.9991 0)
(212.308 -22.3973 0)
(211.966 -22.7992 0)
(211.64 -23.1979 0)
(211.328 -23.5884 0)
(211.026 -23.9684 0)
(210.732 -24.3367 0)
(210.449 -24.6897 0)
(210.183 -25.0238 0)
(209.935 -25.3369 0)
(209.707 -25.6285 0)
(209.5 -25.8993 0)
(209.314 -26.1505 0)
(209.149 -26.3832 0)
(208.999 -26.5994 0)
(208.867 -26.8002 0)
(208.746 -26.9871 0)
(208.636 -27.1608 0)
(208.533 -27.3221 0)
(208.443 -27.4718 0)
(208.363 -27.6112 0)
(208.287 -27.7409 0)
(208.217 -27.8613 0)
(208.161 -27.9732 0)
(208.105 -28.0774 0)
(208.061 -28.1739 0)
(208.011 -28.2636 0)
(207.97 -28.3465 0)
(207.915 -28.4228 0)
(207.882 -28.4945 0)
(207.836 -28.5608 0)
(207.809 -28.623 0)
(207.776 -28.6812 0)
(207.745 -28.7352 0)
(207.715 -28.7863 0)
(207.685 -28.8343 0)
(207.658 -28.8803 0)
(207.626 -28.924 0)
(207.605 -28.9672 0)
(207.578 -29.0092 0)
(207.562 -29.0511 0)
(202.137 -27.5071 0)
(223.001 -32.0707 0)
(239.553 -25.2528 0)
(240.165 -21.6119 0)
(236.753 -20.6706 0)
(232.386 -20.5426 0)
(229.9 -20.8084 0)
(228.526 -20.6369 0)
(227.369 -20.4276 0)
(226.248 -20.1291 0)
(225.148 -19.8364 0)
(224.119 -19.5554 0)
(223.171 -19.333 0)
(222.307 -19.1769 0)
(221.526 -19.0829 0)
(220.824 -19.0367 0)
(220.195 -19.0273 0)
(219.629 -19.0559 0)
(219.116 -19.1156 0)
(218.653 -19.1964 0)
(218.234 -19.281 0)
(217.857 -19.3689 0)
(217.515 -19.4577 0)
(217.206 -19.5527 0)
(216.923 -19.6457 0)
(216.663 -19.7354 0)
(216.416 -19.8176 0)
(216.181 -19.9064 0)
(215.952 -20.0093 0)
(215.73 -20.1334 0)
(215.507 -20.2737 0)
(215.28 -20.4355 0)
(215.039 -20.6265 0)
(214.776 -20.8617 0)
(214.48 -21.1494 0)
(214.153 -21.4895 0)
(213.795 -21.8688 0)
(213.422 -22.271 0)
(213.053 -22.6853 0)
(212.695 -23.1039 0)
(212.337 -23.5219 0)
(211.983 -23.9351 0)
(211.637 -24.3358 0)
(211.307 -24.7176 0)
(210.999 -25.076 0)
(210.715 -25.4095 0)
(210.457 -25.7175 0)
(210.225 -26.001 0)
(210.015 -26.2617 0)
(209.828 -26.5019 0)
(209.657 -26.7238 0)
(209.504 -26.9288 0)
(209.366 -27.1186 0)
(209.242 -27.2938 0)
(209.131 -27.4555 0)
(209.028 -27.6047 0)
(208.933 -27.7424 0)
(208.843 -27.8698 0)
(208.771 -27.9878 0)
(208.7 -28.0974 0)
(208.629 -28.1989 0)
(208.575 -28.2936 0)
(208.516 -28.382 0)
(208.472 -28.4641 0)
(208.42 -28.5405 0)
(208.379 -28.6116 0)
(208.323 -28.6775 0)
(208.29 -28.7401 0)
(208.245 -28.7984 0)
(208.216 -28.854 0)
(208.188 -28.9063 0)
(208.155 -28.956 0)
(208.138 -29.0031 0)
(208.107 -29.0493 0)
(208.1 -29.092 0)
(208.076 -29.1378 0)
(208.08 -29.1786 0)
(208.075 -29.2249 0)
(208.089 -29.2656 0)
(202.255 -28.0523 0)
(220.742 -31.4302 0)
(237.118 -25.9912 0)
(239.055 -22.5779 0)
(236.263 -21.3482 0)
(232.227 -21.1985 0)
(229.762 -21.3702 0)
(228.432 -21.2077 0)
(227.363 -21.0098 0)
(226.328 -20.7168 0)
(225.299 -20.4251 0)
(224.329 -20.1375 0)
(223.426 -19.9016 0)
(222.597 -19.7243 0)
(221.842 -19.6048 0)
(221.162 -19.5306 0)
(220.551 -19.4949 0)
(220.001 -19.4995 0)
(219.506 -19.5393 0)
(219.063 -19.6025 0)
(218.667 -19.6712 0)
(218.314 -19.7434 0)
(217.997 -19.8165 0)
(217.714 -19.897 0)
(217.456 -19.9798 0)
(217.218 -20.0658 0)
(216.989 -20.1495 0)
(216.766 -20.2423 0)
(216.543 -20.3512 0)
(216.323 -20.4854 0)
(216.095 -20.6433 0)
(215.853 -20.8347 0)
(215.581 -21.0717 0)
(215.272 -21.3675 0)
(214.921 -21.7198 0)
(214.537 -22.1136 0)
(214.147 -22.5331 0)
(213.759 -22.9675 0)
(213.361 -23.4109 0)
(212.959 -23.8567 0)
(212.566 -24.2915 0)
(212.19 -24.7056 0)
(211.838 -25.0938 0)
(211.516 -25.4535 0)
(211.223 -25.7845 0)
(210.958 -26.0881 0)
(210.718 -26.3663 0)
(210.502 -26.6214 0)
(210.306 -26.8554 0)
(210.13 -27.0703 0)
(209.97 -27.268 0)
(209.825 -27.45 0)
(209.697 -27.6175 0)
(209.577 -27.7714 0)
(209.472 -27.9128 0)
(209.372 -28.0429 0)
(209.282 -28.1627 0)
(209.195 -28.2735 0)
(209.124 -28.3766 0)
(209.061 -28.4723 0)
(208.987 -28.5612 0)
(208.939 -28.6446 0)
(208.878 -28.7225 0)
(208.838 -28.7951 0)
(208.789 -28.8635 0)
(208.751 -28.9275 0)
(208.709 -28.9883 0)
(208.67 -29.0463 0)
(208.644 -29.1013 0)
(208.608 -29.1554 0)
(208.595 -29.2051 0)
(208.564 -29.2565 0)
(208.561 -29.3022 0)
(208.539 -29.3524 0)
(208.544 -29.3957 0)
(208.542 -29.4442 0)
(208.556 -29.4872 0)
(208.57 -29.5323 0)
(208.593 -29.5732 0)
(202.638 -28.3071 0)
(218.915 -30.7441 0)
(234.857 -26.558 0)
(237.835 -23.3603 0)
(235.646 -21.9485 0)
(232.007 -21.817 0)
(229.596 -21.8776 0)
(228.314 -21.7354 0)
(227.323 -21.546 0)
(226.366 -21.2618 0)
(225.408 -20.9737 0)
(224.497 -20.6846 0)
(223.645 -20.4408 0)
(222.858 -20.2484 0)
(222.137 -20.1086 0)
(221.483 -20.0104 0)
(220.892 -19.9506 0)
(220.36 -19.9309 0)
(219.883 -19.9489 0)
(219.459 -19.9918 0)
(219.084 -20.042 0)
(218.752 -20.096 0)
(218.457 -20.152 0)
(218.194 -20.2168 0)
(217.954 -20.2889 0)
(217.732 -20.3723 0)
(217.515 -20.461 0)
(217.3 -20.5623 0)
(217.08 -20.6815 0)
(216.856 -20.8317 0)
(216.612 -21.0198 0)
(216.337 -21.2613 0)
(216.014 -21.5663 0)
(215.643 -21.9323 0)
(215.24 -22.3435 0)
(214.834 -22.785 0)
(214.406 -23.2472 0)
(213.967 -23.7221 0)
(213.529 -24.1925 0)
(213.107 -24.6449 0)
(212.71 -25.0696 0)
(212.346 -25.4614 0)
(212.013 -25.8203 0)
(211.712 -26.1482 0)
(211.44 -26.4475 0)
(211.193 -26.7208 0)
(210.97 -26.9707 0)
(210.768 -27.1995 0)
(210.584 -27.4094 0)
(210.417 -27.602 0)
(210.267 -27.7787 0)
(210.128 -27.9408 0)
(210.007 -28.0896 0)
(209.892 -28.2262 0)
(209.787 -28.3515 0)
(209.694 -28.4669 0)
(209.605 -28.5735 0)
(209.525 -28.6724 0)
(209.451 -28.765 0)
(209.396 -28.8511 0)
(209.327 -28.9319 0)
(209.281 -29.0076 0)
(209.228 -29.0791 0)
(209.187 -29.1466 0)
(209.15 -29.2102 0)
(209.11 -29.271 0)
(209.084 -29.3279 0)
(209.041 -29.3836 0)
(209.027 -29.4345 0)
(208.994 -29.4869 0)
(208.989 -29.5328 0)
(208.97 -29.5821 0)
(208.97 -29.6247 0)
(208.963 -29.6694 0)
(208.966 -29.7091 0)
(208.969 -29.7475 0)
(208.974 -29.7819 0)
(208.979 -29.8132 0)
(208.984 -29.8406 0)
(203.182 -28.4297 0)
(217.51 -29.9632 0)
(232.839 -27.1013 0)
(236.603 -24.0473 0)
(234.914 -22.4733 0)
(231.66 -22.3601 0)
(229.363 -22.3125 0)
(228.155 -22.2107 0)
(227.255 -22.0369 0)
(226.374 -21.7682 0)
(225.482 -21.4849 0)
(224.629 -21.1965 0)
(223.828 -20.9478 0)
(223.087 -20.7446 0)
(222.405 -20.5895 0)
(221.782 -20.4722 0)
(221.216 -20.3919 0)
(220.704 -20.3494 0)
(220.245 -20.3451 0)
(219.839 -20.3658 0)
(219.483 -20.3955 0)
(219.171 -20.4296 0)
(218.894 -20.4679 0)
(218.647 -20.517 0)
(218.419 -20.5788 0)
(218.206 -20.6602 0)
(217.996 -20.7561 0)
(217.785 -20.87 0)
(217.562 -21.0071 0)
(217.322 -21.1871 0)
(217.044 -21.426 0)
(216.717 -21.7381 0)
(216.329 -22.1168 0)
(215.918 -22.5481 0)
(215.481 -23.0174 0)
(215.012 -23.515 0)
(214.536 -24.0213 0)
(214.066 -24.5169 0)
(213.621 -24.9876 0)
(213.208 -25.4233 0)
(212.83 -25.8207 0)
(212.487 -26.1807 0)
(212.177 -26.5064 0)
(211.898 -26.8018 0)
(211.645 -27.0703 0)
(211.416 -27.3149 0)
(211.208 -27.5381 0)
(211.02 -27.7423 0)
(210.848 -27.9294 0)
(210.69 -28.1008 0)
(210.549 -28.2578 0)
(210.418 -28.4015 0)
(210.301 -28.533 0)
(210.194 -28.654 0)
(210.088 -28.765 0)
(210.002 -28.8679 0)
(209.916 -28.9634 0)
(209.841 -29.0521 0)
(209.77 -29.1353 0)
(209.715 -29.2129 0)
(209.659 -29.2856 0)
(209.608 -29.3542 0)
(209.569 -29.418 0)
(209.523 -29.4791 0)
(209.497 -29.5349 0)
(209.455 -29.5894 0)
(209.437 -29.6382 0)
(209.398 -29.6874 0)
(209.387 -29.7306 0)
(209.363 -29.7755 0)
(209.356 -29.8146 0)
(209.344 -29.8537 0)
(209.337 -29.8886 0)
(209.327 -29.9212 0)
(209.316 -29.9503 0)
(209.303 -29.9761 0)
(209.287 -29.9986 0)
(209.266 -30.0178 0)
(209.242 -30.0338 0)
(203.838 -28.4055 0)
(216.411 -29.2609 0)
(230.992 -27.566 0)
(235.343 -24.5822 0)
(234.115 -22.9487 0)
(231.268 -22.8232 0)
(229.1 -22.6799 0)
(227.962 -22.6314 0)
(227.154 -22.4799 0)
(226.356 -22.2357 0)
(225.53 -21.961 0)
(224.731 -21.6752 0)
(223.98 -21.4223 0)
(223.285 -21.2105 0)
(222.645 -21.0437 0)
(222.057 -20.9122 0)
(221.519 -20.8157 0)
(221.031 -20.7534 0)
(220.592 -20.7273 0)
(220.203 -20.7252 0)
(219.865 -20.7336 0)
(219.569 -20.7466 0)
(219.308 -20.7679 0)
(219.072 -20.8034 0)
(218.851 -20.8569 0)
(218.641 -20.9364 0)
(218.432 -21.0402 0)
(218.22 -21.1717 0)
(217.983 -21.34 0)
(217.712 -21.5713 0)
(217.38 -21.882 0)
(216.99 -22.2712 0)
(216.567 -22.7221 0)
(216.097 -23.2228 0)
(215.595 -23.7564 0)
(215.086 -24.2959 0)
(214.589 -24.8193 0)
(214.12 -25.3095 0)
(213.689 -25.7587 0)
(213.297 -26.1649 0)
(212.943 -26.5298 0)
(212.623 -26.8572 0)
(212.334 -27.1517 0)
(212.073 -27.4175 0)
(211.837 -27.6582 0)
(211.623 -27.877 0)
(211.428 -28.0762 0)
(211.251 -28.2579 0)