/*--------------------------------*- C++ -*----------------------------------*\
| =========                 |                                                 |
| \\      /  F ield         | OpenFOAM: The Open Source CFD Toolbox           |
|  \\    /   O peration     | Version:  2412                                  |
|   \\  /    A nd           | Website:  www.openfoam.com                      |
|    \\/     M anipulation  |                                                 |
\*---------------------------------------------------------------------------*/
FoamFile
{
    version     2.0;
    format      ascii;
    arch        "LSB;label=32;scalar=64";
    class       volVectorField;
    location    "0.109";
    object      U;
}
// * * * * * * * * * * * * * * * * * * * * * * * * * * * * * * * * * * * * * //

dimensions      [0 1 -1 0 0 0 0];

internalField   nonuniform List<vector> 
9763
(
(179.978 -30.4954 0)
(169.322 -34.3454 0)
(180.226 -30.5232 0)
(168.794 -34.239 0)
(180.542 -30.6338 0)
(168.701 -34.3847 0)
(180.919 -30.7043 0)
(168.813 -34.4921 0)
(181.312 -30.8166 0)
(169.147 -34.5755 0)
(181.722 -30.9168 0)
(169.681 -34.7454 0)
(182.13 -31.0171 0)
(170.352 -34.8804 0)
(182.521 -31.1329 0)
(171.037 -35.0755 0)
(182.898 -31.2248 0)
(171.709 -35.2299 0)
(183.247 -31.3412 0)
(172.342 -35.4176 0)
(183.591 -31.4226 0)
(172.964 -35.5773 0)
(183.913 -31.543 0)
(173.571 -35.7545 0)
(184.243 -31.6281 0)
(174.176 -35.9204 0)
(184.567 -31.751 0)
(174.775 -36.0921 0)
(184.911 -31.8401 0)
(175.371 -36.2622 0)
(185.261 -31.9688 0)
(175.967 -36.4309 0)
(185.642 -32.0682 0)
(176.568 -36.6074 0)
(186.036 -32.2042 0)
(177.186 -36.7813 0)
(186.463 -32.3148 0)
(177.83 -36.9701 0)
(186.904 -32.4572 0)
(178.515 -37.1588 0)
(187.367 -32.5761 0)
(179.246 -37.3661 0)
(187.828 -32.7185 0)
(180.034 -37.5758 0)
(188.286 -32.8366 0)
(180.874 -37.8024 0)
(188.711 -32.967 0)
(181.766 -38.0321 0)
(189.098 -33.0722 0)
(182.698 -38.2706 0)
(189.427 -33.1793 0)
(183.657 -38.51 0)
(189.702 -33.2642 0)
(184.622 -38.7442 0)
(189.923 -33.3471 0)
(185.573 -38.9753 0)
(190.109 -33.4158 0)
(186.491 -39.1847 0)
(190.275 -33.4855 0)
(187.353 -39.3895 0)
(190.448 -33.5508 0)
(188.157 -39.5599 0)
(190.654 -33.6221 0)
(188.892 -39.7312 0)
(190.921 -33.6988 0)
(189.578 -39.8661 0)
(191.271 -33.7847 0)
(190.231 -40.0182 0)
(191.703 -33.881 0)
(190.89 -40.1331 0)
(192.197 -33.9899 0)
(191.56 -40.2683 0)
(192.741 -34.1018 0)
(192.253 -40.3669 0)
(193.325 -34.2252 0)
(192.959 -40.4776 0)
(193.939 -34.3413 0)
(193.683 -40.5539 0)
(194.565 -34.4697 0)
(194.428 -40.6329 0)
(195.203 -40.6837 0)
(196.021 -40.7371 0)
(196.892 -40.7754 0)
(184.344 104.74 0)
(163.258 20.8592 0)
(170.056 6.20906 0)
(178.856 2.94127 0)
(186.009 -1.80822 0)
(193.548 -3.33693 0)
(198.782 -5.77336 0)
(202.456 -6.682 0)
(204.761 -7.81543 0)
(206.272 -8.6896 0)
(206.916 -9.74728 0)
(207.81 -10.5448 0)
(208.416 -11.3818 0)
(209.018 -12.1022 0)
(209.568 -12.7553 0)
(210.101 -13.3396 0)
(210.618 -13.8731 0)
(211.127 -14.3653 0)
(211.635 -14.8331 0)
(212.148 -15.2869 0)
(212.672 -15.7356 0)
(213.213 -16.1847 0)
(213.774 -16.638 0)
(214.354 -17.0999 0)
(214.954 -17.5742 0)
(215.569 -18.0648 0)
(216.195 -18.5732 0)
(216.824 -19.1006 0)
(217.452 -19.6474 0)
(218.071 -20.2146 0)
(218.677 -20.8038 0)
(219.262 -21.4167 0)
(219.82 -22.0547 0)
(220.347 -22.7182 0)
(220.836 -23.4068 0)
(221.283 -24.1191 0)
(221.685 -24.852 0)
(222.036 -25.6019 0)
(222.334 -26.365 0)
(222.573 -27.1387 0)
(222.757 -27.9177 0)
(222.881 -28.6972 0)
(222.943 -29.4749 0)
(222.947 -30.2478 0)
(222.896 -31.0117 0)
(222.792 -31.7692 0)
(222.633 -32.515 0)
(222.426 -33.2358 0)
(222.176 -33.9377 0)
(221.887 -34.6215 0)
(221.56 -35.2862 0)
(221.193 -35.9307 0)
(220.776 -36.5513 0)
(220.32 -37.1457 0)
(219.876 -37.7257 0)
(219.476 -38.3041 0)
(219.044 -38.869 0)
(218.456 -39.3743 0)
(217.813 -39.909 0)
(216.987 -40.2571 0)
(216.379 -40.8537 0)
(215.393 -41.1179 0)
(214.416 -41.5285 0)
(213.339 -41.8008 0)
(212.309 -42.1454 0)
(211.309 -42.4394 0)
(210.365 -42.7899 0)
(209.389 -43.0862 0)
(208.403 -43.3659 0)
(207.43 -43.6448 0)
(206.461 -43.9074 0)
(205.502 -44.1682 0)
(204.542 -44.4234 0)
(203.567 -44.6595 0)
(202.573 -44.8818 0)
(201.561 -45.0731 0)
(200.559 -45.2744 0)
(199.566 -45.4527 0)
(198.602 -45.6634 0)
(197.637 -45.8565 0)
(196.664 -46.0599 0)
(195.653 -46.2378 0)
(194.605 -46.3832 0)
(193.546 -46.5175 0)
(192.501 -46.613 0)
(191.511 -46.7405 0)
(190.582 -46.836 0)
(189.742 -47.0237 0)
(188.938 -47.1646 0)
(188.241 -47.4759 0)
(187.446 -47.6672 0)
(186.616 -47.8606 0)
(185.744 -48.0064 0)
(184.842 -48.1357 0)
(183.92 -48.2461 0)
(182.996 -48.3396 0)
(182.094 -48.4465 0)
(181.226 -48.5418 0)
(180.412 -48.6748 0)
(179.649 -48.7967 0)
(178.953 -48.9714 0)
(178.3 -49.1296 0)
(177.709 -49.3517 0)
(177.119 -49.5367 0)
(176.562 -49.791 0)
(175.95 -49.9705 0)
(175.341 -50.2174 0)
(174.679 -50.3783 0)
(174.027 -50.6085 0)
(173.342 -50.7613 0)
(172.682 -50.982 0)
(172.051 -51.1821 0)
(171.476 -51.4363 0)
(170.948 -51.714 0)
(170.469 -52.0344 0)
(170.06 -52.4022 0)
(169.771 -52.8423 0)
(169.662 -53.3501 0)
(169.597 -53.8228 0)
(169.635 -54.3608 0)
(169.467 -54.5166 0)
(184.461 105.165 0)
(163.344 21.4135 0)
(170.087 6.21166 0)
(178.88 2.97275 0)
(186.022 -1.80176 0)
(193.557 -3.33504 0)
(198.788 -5.76727 0)
(202.463 -6.67101 0)
(204.771 -7.80309 0)
(206.286 -8.6763 0)
(206.929 -9.73241 0)
(207.822 -10.5294 0)
(208.428 -11.3651 0)
(209.029 -12.0851 0)
(209.58 -12.738 0)
(210.115 -13.3219 0)
(210.632 -13.8548 0)
(211.144 -14.346 0)
(211.653 -14.8122 0)
(212.168 -15.2641 0)
(212.696 -15.7103 0)
(213.239 -16.1566 0)
(213.803 -16.6068 0)
(214.388 -17.0652 0)
(214.992 -17.5359 0)
(215.611 -18.0227 0)
(216.242 -18.5276 0)
(216.878 -19.0516 0)
(217.512 -19.5952 0)
(218.139 -20.1595 0)
(218.753 -20.7459 0)
(219.347 -21.3565 0)
(219.916 -21.9925 0)
(220.453 -22.6544 0)
(220.954 -23.342 0)
(221.414 -24.0538 0)
(221.828 -24.7872 0)
(222.193 -25.5385 0)
(222.505 -26.304 0)
(222.759 -27.0804 0)
(222.957 -27.8637 0)
(223.096 -28.6486 0)
(223.174 -29.4321 0)
(223.193 -30.2117 0)
(223.156 -30.9841 0)
(223.066 -31.7449 0)
(222.923 -32.5031 0)
(222.729 -33.2345 0)
(222.492 -33.9461 0)
(222.216 -34.6404 0)
(221.902 -35.3161 0)
(221.548 -35.9718 0)
(221.145 -36.6045 0)
(220.699 -37.2111 0)
(220.262 -37.8044 0)
(219.87 -38.3941 0)
(219.454 -38.9684 0)
(218.894 -39.4922 0)
(218.266 -40.0337 0)
(217.452 -40.4007 0)
(216.864 -41.01 0)
(215.897 -41.2937 0)
(214.945 -41.7358 0)
(213.876 -42.0364 0)
(212.853 -42.4084 0)
(211.861 -42.7281 0)
(210.932 -43.1035 0)
(209.969 -43.42 0)
(208.998 -43.7226 0)
(208.04 -44.0292 0)
(207.081 -44.3188 0)
(206.135 -44.6084 0)
(205.19 -44.8983 0)
(204.227 -45.1711 0)
(203.246 -45.4373 0)
(202.246 -45.6816 0)
(201.254 -45.9414 0)
(200.271 -46.1758 0)
(199.326 -46.4447 0)
(198.383 -46.6847 0)
(197.442 -46.9415 0)
(196.462 -47.1677 0)
(195.447 -47.3787 0)
(194.414 -47.5792 0)
(193.392 -47.7641 0)
(192.422 -47.9749 0)
(191.52 -48.1762 0)
(190.722 -48.4531 0)
(189.974 -48.6949 0)
(189.36 -49.0907 0)
(188.582 -49.343 0)
(187.764 -49.6248 0)
(186.896 -49.8626 0)
(186 -50.0925 0)
(185.084 -50.3027 0)
(184.171 -50.5018 0)
(183.283 -50.7135 0)
(182.43 -50.9164 0)
(181.636 -51.1548 0)
(180.893 -51.3798 0)
(180.228 -51.6521 0)
(179.61 -51.9049 0)
(179.075 -52.2101 0)
(178.554 -52.4847 0)
(178.077 -52.8006 0)
(177.552 -53.0582 0)
(177.022 -53.3492 0)
(176.432 -53.5464 0)
(175.867 -53.814 0)
(175.259 -53.9753 0)
(174.68 -54.1917 0)
(174.137 -54.3614 0)
(173.672 -54.5697 0)
(173.275 -54.7662 0)
(172.953 -54.979 0)
(172.693 -55.1873 0)
(172.498 -55.3941 0)
(172.365 -55.5878 0)
(172.271 -55.7574 0)
(172.267 -55.9552 0)
(172.36 -56.1183 0)
(184.631 105.324 0)
(163.381 21.5118 0)
(170.118 6.21464 0)
(178.915 2.98709 0)
(186.042 -1.7943 0)
(193.571 -3.33187 0)
(198.802 -5.75828 0)
(202.476 -6.66025 0)
(204.783 -7.79098 0)
(206.299 -8.66302 0)
(206.943 -9.7196 0)
(207.836 -10.5168 0)
(208.443 -11.3517 0)
(209.044 -12.0717 0)
(209.596 -12.7245 0)
(210.132 -13.3083 0)
(210.651 -13.8407 0)
(211.164 -14.3311 0)
(211.676 -14.796 0)
(212.193 -15.2462 0)
(212.723 -15.6903 0)
(213.27 -16.1342 0)
(213.837 -16.5818 0)
(214.425 -17.0375 0)
(215.033 -17.5054 0)
(215.658 -17.9895 0)
(216.295 -18.4918 0)
(216.937 -19.0135 0)
(217.578 -19.5551 0)
(218.213 -20.1177 0)
(218.836 -20.7029 0)
(219.44 -21.3128 0)
(220.019 -21.9487 0)
(220.568 -22.6113 0)
(221.082 -23.3003 0)
(221.555 -24.0144 0)
(221.983 -24.7511 0)
(222.363 -25.5068 0)
(222.689 -26.2779 0)
(222.959 -27.0609 0)
(223.172 -27.8514 0)
(223.325 -28.6449 0)
(223.418 -29.4381 0)
(223.451 -30.228 0)
(223.426 -31.0106 0)
(223.349 -31.782 0)
(223.218 -32.551 0)
(223.037 -33.2964 0)
(222.81 -34.0194 0)
(222.544 -34.7254 0)
(222.24 -35.4131 0)
(221.897 -36.0809 0)
(221.504 -36.7259 0)
(221.067 -37.3451 0)
(220.636 -37.9498 0)
(220.254 -38.5523 0)
(219.848 -39.139 0)
(219.309 -39.679 0)
(218.692 -40.2326 0)
(217.887 -40.6164 0)
(217.313 -41.2402 0)
(216.355 -41.5411 0)
(215.425 -42.0035 0)
(214.37 -42.3147 0)
(213.362 -42.7006 0)
(212.385 -43.0383 0)
(211.472 -43.4371 0)
(210.518 -43.7793 0)
(209.556 -44.1114 0)
(208.611 -44.4463 0)
(207.668 -44.7564 0)
(206.743 -45.0627 0)
(205.824 -45.3646 0)
(204.889 -45.6465 0)
(203.939 -45.9267 0)
(202.972 -46.1927 0)
(202.012 -46.4739 0)
(201.06 -46.7329 0)
(200.148 -47.0277 0)
(199.236 -47.2913 0)
(198.329 -47.5782 0)
(197.379 -47.8309 0)
(196.395 -48.0766 0)
(195.389 -48.3042 0)
(194.398 -48.5302 0)
(193.456 -48.7702 0)
(192.591 -49.0193 0)
(191.829 -49.3164 0)
(191.139 -49.5907 0)
(190.59 -49.9791 0)
(189.887 -50.2191 0)
(189.154 -50.5013 0)
(188.357 -50.7374 0)
(187.526 -50.973 0)
(186.673 -51.1872 0)
(185.825 -51.3967 0)
(185.006 -51.6156 0)
(184.224 -51.8284 0)
(183.502 -52.0732 0)
(182.826 -52.3024 0)
(182.228 -52.5761 0)
(181.669 -52.8234 0)
(181.195 -53.1197 0)
(180.731 -53.3812 0)
(180.307 -53.6677 0)
(179.845 -53.9184 0)
(179.345 -54.1599 0)
(178.798 -54.3388 0)
(178.254 -54.5703 0)
(177.662 -54.6887 0)
(177.082 -54.8764 0)
(176.528 -55.006 0)
(176.033 -55.1797 0)
(175.591 -55.3346 0)
(175.202 -55.507 0)
(174.845 -55.6692 0)
(174.513 -55.8294 0)
(174.205 -55.9811 0)
(173.954 -56.1402 0)
(173.829 -56.3676 0)
(173.852 -56.6157 0)
(184.732 105.458 0)
(163.391 21.4612 0)
(170.149 6.22026 0)
(178.942 3.00892 0)
(186.057 -1.78225 0)
(193.584 -3.329 0)
(198.809 -5.74768 0)
(202.483 -6.64805 0)
(204.792 -7.77822 0)
(206.311 -8.65028 0)
(206.955 -9.70609 0)
(207.846 -10.5028 0)
(208.454 -11.3369 0)
(209.055 -12.0567 0)
(209.607 -12.7094 0)
(210.144 -13.2928 0)
(210.665 -13.8247 0)
(211.179 -14.3141 0)
(211.693 -14.7777 0)
(212.212 -15.2261 0)
(212.744 -15.6683 0)
(213.294 -16.1099 0)
(213.864 -16.5549 0)
(214.455 -17.0078 0)
(215.067 -17.4728 0)
(215.696 -17.9539 0)
(216.338 -18.4533 0)
(216.986 -18.9722 0)
(217.633 -19.5111 0)
(218.275 -20.0712 0)
(218.906 -20.6541 0)
(219.519 -21.262 0)
(220.108 -21.8963 0)
(220.667 -22.5576 0)
(221.192 -23.2457 0)
(221.677 -23.9595 0)
(222.118 -24.6965 0)
(222.511 -25.4534 0)
(222.852 -26.2265 0)
(223.137 -27.0121 0)
(223.365 -27.8063 0)
(223.534 -28.6044 0)
(223.643 -29.4029 0)
(223.691 -30.1988 0)
(223.683 -30.9885 0)
(223.619 -31.7681 0)
(223.504 -32.541 0)
(223.339 -33.3 0)
(223.126 -34.0325 0)
(222.873 -34.7479 0)
(222.583 -35.4458 0)
(222.254 -36.1241 0)
(221.874 -36.7799 0)
(221.449 -37.4103 0)
(221.029 -38.0259 0)
(220.658 -38.6386 0)
(220.268 -39.2339 0)
(219.752 -39.787 0)
(219.153 -40.3494 0)
(218.36 -40.7496 0)
(217.8 -41.383 0)
(216.858 -41.6962 0)
(215.953 -42.1764 0)
(214.913 -42.4998 0)
(213.922 -42.8994 0)
(212.963 -43.2518 0)
(212.071 -43.6689 0)
(211.135 -44.0328 0)
(210.191 -44.395 0)
(209.261 -44.765 0)
(208.328 -45.1101 0)
(207.415 -45.4515 0)
(206.512 -45.7834 0)
(205.597 -46.0901 0)
(204.673 -46.3952 0)
(203.732 -46.6849 0)
(202.795 -46.985 0)
(201.866 -47.2662 0)
(200.979 -47.5834 0)
(200.095 -47.8693 0)
(199.227 -48.1836 0)
(198.318 -48.4579 0)
(197.379 -48.7256 0)
(196.418 -48.9656 0)
(195.476 -49.2113 0)
(194.582 -49.4599 0)
(193.77 -49.7389 0)
(193.047 -50.0471 0)
(192.404 -50.368 0)
(191.868 -50.7651 0)
(191.204 -51.034 0)
(190.522 -51.3489 0)
(189.768 -51.6101 0)
(188.975 -51.8685 0)
(188.16 -52.1029 0)
(187.351 -52.3343 0)
(186.57 -52.5717 0)
(185.829 -52.8029 0)
(185.147 -53.0614 0)
(184.51 -53.2999 0)
(183.949 -53.581 0)
(183.421 -53.825 0)
(182.983 -54.1231 0)
(182.544 -54.3693 0)
(182.162 -54.6519 0)
(181.736 -54.8983 0)
(181.257 -55.0998 0)
(180.752 -55.2878 0)
(180.221 -55.4627 0)
(179.657 -55.5847 0)
(179.096 -55.718 0)
(178.563 -55.8372 0)
(178.082 -55.9697 0)
(177.657 -56.1034 0)
(177.285 -56.2479 0)
(176.956 -56.3929 0)
(176.663 -56.5465 0)
(176.401 -56.6985 0)
(176.193 -56.8736 0)
(176.061 -57.0788 0)
(176.051 -57.3329 0)
(184.812 105.612 0)
(163.407 21.435 0)
(170.181 6.2242 0)
(178.974 3.02301 0)
(186.076 -1.77537 0)
(193.597 -3.3276 0)
(198.821 -5.74047 0)
(202.495 -6.63811 0)
(204.803 -7.76713 0)
(206.323 -8.63811 0)
(206.968 -9.6943 0)
(207.859 -10.4912 0)
(208.467 -11.3245 0)
(209.069 -12.0443 0)
(209.622 -12.6969 0)
(210.16 -13.2801 0)
(210.681 -13.8115 0)
(211.198 -14.3002 0)
(211.713 -14.7625 0)
(212.235 -15.2095 0)
(212.769 -15.6497 0)
(213.321 -16.0891 0)
(213.894 -16.5317 0)
(214.489 -16.982 0)
(215.105 -17.4443 0)
(215.739 -17.9228 0)
(216.385 -18.4197 0)
(217.039 -18.9364 0)
(217.693 -19.4733 0)
(218.343 -20.0317 0)
(218.981 -20.6133 0)
(219.603 -21.2204 0)
(220.202 -21.8543 0)
(220.773 -22.5159 0)
(221.309 -23.2051 0)
(221.807 -23.9206 0)
(222.261 -24.6603 0)
(222.668 -25.4208 0)
(223.023 -26.1986 0)
(223.322 -26.9898 0)
(223.564 -27.7904 0)
(223.748 -28.5959 0)
(223.871 -29.4027 0)
(223.933 -30.2075 0)
(223.938 -31.0065 0)
(223.885 -31.797 0)
(223.784 -32.5763 0)
(223.631 -33.3489 0)
(223.429 -34.093 0)
(223.187 -34.8185 0)
(222.907 -35.527 0)
(222.588 -36.216 0)
(222.219 -36.8828 0)
(221.802 -37.5246 0)
(221.39 -38.1519 0)
(221.029 -38.7772 0)
(220.651 -39.3859 0)
(220.153 -39.9546 0)
(219.568 -40.5296 0)
(218.782 -40.9455 0)
(218.233 -41.5917 0)
(217.299 -41.9196 0)
(216.415 -42.4188 0)
(215.387 -42.7543 0)
(214.413 -43.1649 0)
(213.472 -43.5253 0)
(212.604 -43.9501 0)
(211.691 -44.3197 0)
(210.771 -44.6904 0)
(209.863 -45.0734 0)
(208.948 -45.4381 0)
(208.049 -45.8095 0)
(207.158 -46.176 0)
(206.256 -46.519 0)
(205.351 -46.8564 0)
(204.437 -47.1652 0)
(203.532 -47.4706 0)
(202.64 -47.7556 0)
(201.791 -48.0779 0)
(200.943 -48.3783 0)
(200.112 -48.7195 0)
(199.233 -49.0232 0)
(198.321 -49.3241 0)
(197.387 -49.5931 0)
(196.475 -49.8687 0)
(195.613 -50.1334 0)
(194.844 -50.4337 0)
(194.162 -50.7366 0)
(193.584 -51.0812 0)
(193.07 -51.4482 0)
(192.47 -51.7186 0)
(191.861 -52.0329 0)
(191.168 -52.2866 0)
(190.434 -52.5363 0)
(189.674 -52.7628 0)
(188.922 -52.9911 0)
(188.195 -53.2239 0)
(187.508 -53.4556 0)
(186.875 -53.7113 0)
(186.285 -53.9514 0)
(185.767 -54.2329 0)
(185.275 -54.4762 0)
(184.872 -54.7787 0)
(184.458 -55.0162 0)
(184.13 -55.3223 0)
(183.721 -55.5632 0)
(183.265 -55.7662 0)
(182.794 -55.9793 0)
(182.271 -56.1402 0)
(181.724 -56.2814 0)
(181.175 -56.4137 0)
(180.658 -56.5489 0)
(180.184 -56.6835 0)
(179.765 -56.8279 0)
(179.4 -56.9762 0)
(179.082 -57.1316 0)
(178.802 -57.2885 0)
(178.556 -57.4448 0)
(178.356 -57.6131 0)
(178.234 -57.807 0)
(178.21 -58.0449 0)
(184.904 105.769 0)
(163.424 21.4156 0)
(170.213 6.22925 0)
(179.002 3.04288 0)
(186.092 -1.76512 0)
(193.61 -3.32544 0)
(198.829 -5.73109 0)
(202.503 -6.62671 0)
(204.812 -7.75507 0)
(206.335 -8.62603 0)
(206.98 -9.68146 0)
(207.869 -10.478 0)
(208.478 -11.3105 0)
(209.079 -12.0301 0)
(209.632 -12.6826 0)
(210.171 -13.2655 0)
(210.694 -13.7963 0)
(211.212 -14.2841 0)
(211.729 -14.7452 0)
(212.253 -15.1905 0)
(212.79 -15.6288 0)
(213.344 -16.066 0)
(213.92 -16.5062 0)
(214.518 -16.9538 0)
(215.137 -17.4133 0)
(215.775 -17.889 0)
(216.426 -18.383 0)
(217.085 -18.897 0)
(217.745 -19.4313 0)
(218.401 -19.9872 0)
(219.047 -20.5665 0)
(219.677 -21.1716 0)
(220.286 -21.8039 0)
(220.866 -22.4642 0)
(221.413 -23.1525 0)
(221.922 -23.8677 0)
(222.389 -24.6076 0)
(222.809 -25.3692 0)
(223.178 -26.1487 0)
(223.492 -26.9426 0)
(223.749 -27.7467 0)
(223.948 -28.5566 0)
(224.086 -29.3686 0)
(224.164 -30.1793 0)
(224.183 -30.9852 0)
(224.146 -31.783 0)
(224.058 -32.5685 0)
(223.92 -33.35 0)
(223.733 -34.1052 0)
(223.504 -34.8393 0)
(223.237 -35.5568 0)
(222.931 -36.2557 0)
(222.575 -36.9332 0)
(222.17 -37.5862 0)
(221.768 -38.2244 0)
(221.419 -38.8596 0)
(221.056 -39.4777 0)
(220.578 -40.0579 0)
(220.009 -40.642 0)
(219.236 -41.0723 0)
(218.701 -41.7282 0)
(217.779 -42.0691 0)
(216.916 -42.5872 0)
(215.9 -42.9405 0)
(214.937 -43.3723 0)
(214.008 -43.7532 0)
(213.156 -44.196 0)
(212.261 -44.5763 0)
(211.364 -44.9503 0)
(210.483 -45.332 0)
(209.595 -45.6942 0)
(208.727 -46.0717 0)
(207.862 -46.4547 0)
(206.98 -46.8283 0)
(206.089 -47.205 0)
(205.176 -47.5513 0)
(204.272 -47.889 0)
(203.39 -48.202 0)
(202.561 -48.5407 0)
(201.746 -48.8523 0)
(200.959 -49.2005 0)
(200.123 -49.5061 0)
(199.256 -49.812 0)
(198.36 -50.0893 0)
(197.483 -50.3791 0)
(196.651 -50.658 0)
(195.912 -50.981 0)
(195.252 -51.2963 0)
(194.714 -51.6815 0)
(194.187 -52.0399 0)
(193.619 -52.3452 0)
(193.046 -52.682 0)
(192.384 -52.9493 0)
(191.681 -53.2099 0)
(190.955 -53.4467 0)
(190.238 -53.6867 0)
(189.548 -53.9264 0)
(188.897 -54.1678 0)
(188.3 -54.4257 0)
(187.748 -54.6729 0)
(187.264 -54.9534 0)
(186.806 -55.1991 0)
(186.432 -55.4971 0)
(186.047 -55.7282 0)
(185.773 -56.0446 0)
(185.389 -56.262 0)
(184.98 -56.4767 0)
(184.54 -56.686 0)
(184.043 -56.8247 0)
(183.528 -56.9799 0)
(183.013 -57.0998 0)
(182.528 -57.2387 0)
(182.083 -57.3671 0)
(181.691 -57.5101 0)
(181.352 -57.6563 0)
(181.062 -57.8126 0)
(180.808 -57.9697 0)
(180.586 -58.1342 0)
(180.393 -58.2884 0)
(180.303 -58.501 0)
(180.349 -58.6975 0)
(184.988 105.915 0)
(163.441 21.3979 0)
(170.245 6.2333 0)
(179.034 3.0576 0)
(186.111 -1.75794 0)
(193.623 -3.32405 0)
(198.841 -5.72357 0)
(202.514 -6.61675 0)
(204.824 -7.74413 0)
(206.347 -8.61407 0)
(206.993 -9.66986 0)
(207.882 -10.4665 0)
(208.491 -11.2983 0)
(209.092 -12.0178 0)
(209.646 -12.6702 0)
(210.186 -13.2529 0)
(210.711 -13.7833 0)
(211.231 -14.2703 0)
(211.749 -14.7302 0)
(212.275 -15.174 0)
(212.814 -15.6103 0)
(213.371 -16.0454 0)
(213.95 -16.4832 0)
(214.551 -16.9283 0)
(215.174 -17.3851 0)
(215.816 -17.8581 0)
(216.473 -18.3497 0)
(217.137 -18.8613 0)
(217.804 -19.3935 0)
(218.467 -19.9476 0)
(219.121 -20.5255 0)
(219.76 -21.1296 0)
(220.378 -21.7613 0)
(220.969 -22.4217 0)
(221.528 -23.1107 0)
(222.05 -23.8273 0)
(222.53 -24.5695 0)
(222.963 -25.3343 0)
(223.346 -26.118 0)
(223.675 -26.917 0)
(223.947 -27.727 0)
(224.16 -28.5438 0)
(224.313 -29.3635 0)
(224.405 -30.1826 0)
(224.438 -30.9975 0)
(224.414 -31.8046 0)
(224.338 -32.5996 0)
(224.213 -33.389 0)
(224.039 -34.158 0)
(223.82 -34.9022 0)
(223.564 -35.6299 0)
(223.269 -36.3397 0)
(222.923 -37.0283 0)
(222.529 -37.6922 0)
(222.136 -38.3408 0)
(221.796 -38.9859 0)
(221.446 -39.6151 0)
(220.985 -40.208 0)
(220.429 -40.8031 0)
(219.667 -41.2483 0)
(219.143 -41.9159 0)
(218.233 -42.2696 0)
(217.39 -42.8024 0)
(216.387 -43.1655 0)
(215.439 -43.6121 0)
(214.521 -44.0115 0)
(213.684 -44.478 0)
(212.801 -44.8814 0)
(211.917 -45.2768 0)
(211.055 -45.6761 0)
(210.19 -46.0465 0)
(209.353 -46.4243 0)
(208.523 -46.7983 0)
(207.681 -47.1618 0)
(206.825 -47.5312 0)
(205.94 -47.8787 0)
(205.055 -48.2327 0)
(204.184 -48.576 0)
(203.364 -48.948 0)
(202.561 -49.2954 0)
(201.792 -49.6724 0)
(200.98 -49.9984 0)
(200.142 -50.3184 0)
(199.278 -50.6049 0)
(198.432 -50.8984 0)
(197.63 -51.1778 0)
(196.922 -51.4994 0)
(196.291 -51.8078 0)
(195.795 -52.1996 0)
(195.269 -52.5274 0)
(194.741 -52.8497 0)
(194.194 -53.1824 0)
(193.556 -53.4393 0)
(192.881 -53.6901 0)
(192.184 -53.9169 0)
(191.496 -54.1495 0)
(190.83 -54.378 0)
(190.205 -54.6133 0)
(189.629 -54.8602 0)
(189.1 -55.1043 0)
(188.633 -55.3758 0)
(188.193 -55.6205 0)
(187.827 -55.9115 0)
(187.453 -56.1427 0)
(187.191 -56.4598 0)
(186.816 -56.6627 0)
(186.437 -56.9008 0)
(185.996 -57.0869 0)
(185.512 -57.2413 0)
(185.003 -57.3858 0)
(184.501 -57.5244 0)
(184.022 -57.6559 0)
(183.585 -57.7974 0)
(183.198 -57.9402 0)
(182.867 -58.0965 0)
(182.584 -58.2575 0)
(182.344 -58.4289 0)
(182.127 -58.5997 0)
(181.929 -58.7739 0)
(181.768 -58.9604 0)
(181.772 -59.2041 0)
(185.076 106.049 0)
(163.46 21.3803 0)
(170.278 6.23792 0)
(179.064 3.07657 0)
(186.129 -1.74847 0)
(193.637 -3.32249 0)
(198.85 -5.71439 0)
(202.522 -6.60536 0)
(204.833 -7.73204 0)
(206.36 -8.6019 0)
(207.005 -9.65693 0)
(207.892 -10.4532 0)
(208.502 -11.2842 0)
(209.103 -12.0035 0)
(209.657 -12.6557 0)
(210.198 -13.2381 0)
(210.724 -13.768 0)
(211.245 -14.2541 0)
(211.766 -14.7127 0)
(212.293 -15.1548 0)
(212.834 -15.5893 0)
(213.394 -16.0221 0)
(213.975 -16.4573 0)
(214.58 -16.8997 0)
(215.207 -17.3537 0)
(215.853 -17.8238 0)
(216.514 -18.3124 0)
(217.183 -18.8212 0)
(217.856 -19.3506 0)
(218.526 -19.9021 0)
(219.187 -20.4776 0)
(219.835 -21.0795 0)
(220.462 -21.7095 0)
(221.063 -22.3684 0)
(221.633 -23.0564 0)
(222.167 -23.7725 0)
(222.659 -24.5148 0)
(223.107 -25.2805 0)
(223.504 -26.0659 0)
(223.848 -26.8674 0)
(224.135 -27.6809 0)
(224.364 -28.5022 0)
(224.533 -29.3271 0)
(224.642 -30.1522 0)
(224.691 -30.9739 0)
(224.683 -31.7884 0)
(224.62 -32.5931 0)
(224.51 -33.385 0)
(224.352 -34.1682 0)
(224.148 -34.922 0)
(223.905 -35.6585 0)
(223.623 -36.378 0)
(223.291 -37.0768 0)
(222.91 -37.7505 0)
(222.528 -38.4079 0)
(222.2 -39.0606 0)
(221.865 -39.6974 0)
(221.423 -40.2997 0)
(220.884 -40.9026 0)
(220.137 -41.3615 0)
(219.628 -42.0387 0)
(218.733 -42.4049 0)
(217.913 -42.951 0)
(216.925 -43.3223 0)
(215.994 -43.7808 0)
(215.094 -44.1928 0)
(214.279 -44.6765 0)
(213.413 -45.0979 0)
(212.547 -45.5172 0)
(211.7 -45.9457 0)
(210.848 -46.3443 0)
(210.027 -46.7486 0)
(209.217 -47.1405 0)
(208.4 -47.5132 0)
(207.574 -47.8796 0)
(206.72 -48.2186 0)
(205.867 -48.5695 0)
(205.024 -48.9185 0)
(204.227 -49.3033 0)
(203.446 -49.6725 0)
(202.697 -50.0709 0)
(201.904 -50.4187 0)
(201.089 -50.7591 0)
(200.251 -51.0634 0)
(199.431 -51.3686 0)
(198.655 -51.6582 0)
(197.972 -51.9864 0)
(197.366 -52.3019 0)
(196.9 -52.704 0)
(196.377 -53.021 0)
(195.887 -53.3766 0)
(195.349 -53.7134 0)
(194.72 -53.9738 0)
(194.062 -54.2309 0)
(193.384 -54.4601 0)
(192.716 -54.6947 0)
(192.069 -54.9188 0)
(191.463 -55.1525 0)
(190.905 -55.3904 0)
(190.396 -55.6309 0)
(189.944 -55.8909 0)
(189.522 -56.1305 0)
(189.167 -56.4084 0)
(188.806 -56.6342 0)
(188.545 -56.9335 0)
(188.185 -57.127 0)
(187.827 -57.3623 0)
(187.394 -57.5234 0)
(186.927 -57.6792 0)
(186.429 -57.8041 0)
(185.94 -57.9409 0)
(185.472 -58.0578 0)
(185.048 -58.1945 0)
(184.673 -58.329 0)
(184.355 -58.4799 0)
(184.088 -58.6373 0)
(183.867 -58.805 0)
(183.68 -58.9783 0)
(183.508 -59.1589 0)
(183.334 -59.34 0)
(183.223 -59.6033 0)
(185.158 106.182 0)
(163.48 21.362 0)
(170.312 6.24195 0)
(179.097 3.09165 0)
(186.149 -1.7413 0)
(193.65 -3.32136 0)
(198.862 -5.70656 0)
(202.534 -6.59511 0)
(204.845 -7.7209 0)
(206.372 -8.58975 0)
(207.018 -9.64509 0)
(207.905 -10.4414 0)
(208.515 -11.2716 0)
(209.116 -11.9908 0)
(209.671 -12.643 0)
(210.214 -13.2251 0)
(210.741 -13.7545 0)
(211.263 -14.2399 0)
(211.786 -14.6973 0)
(212.316 -15.1378 0)
(212.859 -15.5703 0)
(213.421 -16.0009 0)
(214.006 -16.4337 0)
(214.614 -16.8735 0)
(215.244 -17.3247 0)
(215.895 -17.792 0)
(216.561 -18.2779 0)
(217.236 -18.7843 0)
(217.915 -19.3115 0)
(218.593 -19.861 0)
(219.262 -20.4348 0)
(219.919 -21.0354 0)
(220.556 -21.6646 0)
(221.168 -22.3234 0)
(221.75 -23.0118 0)
(222.297 -23.7291 0)
(222.803 -24.4734 0)
(223.265 -25.2419 0)
(223.677 -26.0312 0)
(224.036 -26.8376 0)
(224.339 -27.6568 0)
(224.584 -28.4847 0)
(224.768 -29.3172 0)
(224.892 -30.1505 0)
(224.957 -30.9811 0)
(224.963 -31.8053 0)
(224.913 -32.6194 0)
(224.817 -33.4199 0)
(224.672 -34.2145 0)
(224.48 -34.9807 0)
(224.249 -35.7273 0)
(223.979 -36.4573 0)
(223.66 -37.1669 0)
(223.289 -37.8509 0)
(222.918 -38.5181 0)
(222.6 -39.1807 0)
(222.277 -39.8284 0)
(221.853 -40.4442 0)
(221.328 -41.0583 0)
(220.595 -41.5333 0)
(220.101 -42.2219 0)
(219.219 -42.601 0)
(218.422 -43.1593 0)
(217.449 -43.5356 0)
(216.536 -44.0015 0)
(215.655 -44.4191 0)
(214.863 -44.9116 0)
(214.017 -45.3407 0)
(213.172 -45.7757 0)
(212.345 -46.2268 0)
(211.51 -46.6511 0)
(210.705 -47.0846 0)
(209.912 -47.5032 0)
(209.115 -47.8993 0)
(208.312 -48.2806 0)
(207.488 -48.6294 0)
(206.671 -48.9839 0)
(205.867 -49.3289 0)
(205.107 -49.7068 0)
(204.359 -50.0723 0)
(203.641 -50.4713 0)
(202.876 -50.8296 0)
(202.085 -51.1878 0)
(201.267 -51.5135 0)
(200.464 -51.836 0)
(199.707 -52.1412 0)
(199.045 -52.4768 0)
(198.464 -52.7968 0)
(198.027 -53.194 0)
(197.529 -53.4949 0)
(197.097 -53.8656 0)
(196.576 -54.184 0)
(195.968 -54.4311 0)
(195.34 -54.6821 0)
(194.691 -54.9 0)
(194.053 -55.1262 0)
(193.434 -55.3376 0)
(192.858 -55.5653 0)
(192.325 -55.7906 0)
(191.847 -56.0277 0)
(191.421 -56.2769 0)
(191.029 -56.5158 0)
(190.697 -56.785 0)
(190.362 -57.0118 0)
(190.11 -57.2953 0)
(189.778 -57.4926 0)
(189.447 -57.7262 0)
(189.038 -57.8687 0)
(188.602 -58.0399 0)
(188.134 -58.152 0)
(187.673 -58.2888 0)
(187.232 -58.3974 0)
(186.837 -58.5295 0)
(186.491 -58.6565 0)
(186.204 -58.8018 0)
(185.967 -58.9498 0)
(185.78 -59.1083 0)
(185.636 -59.2716 0)
(185.523 -59.4349 0)
(185.5 -59.6563 0)
(185.343 -59.7845 0)
(185.24 106.314 0)
(163.501 21.3431 0)
(170.347 6.24649 0)
(179.129 3.11042 0)
(186.168 -1.73214 0)
(193.664 -3.32014 0)
(198.871 -5.69727 0)
(202.543 -6.58355 0)
(204.855 -7.70864 0)
(206.384 -8.57737 0)
(207.03 -9.63193 0)
(207.916 -10.4279 0)
(208.526 -11.2572 0)
(209.127 -11.9763 0)
(209.683 -12.6282 0)
(210.226 -13.2101 0)
(210.754 -13.7389 0)
(211.278 -14.2234 0)
(211.802 -14.6794 0)
(212.334 -15.1183 0)
(212.88 -15.5487 0)
(213.445 -15.977 0)
(214.032 -16.4073 0)
(214.643 -16.8442 0)
(215.278 -17.2924 0)
(215.932 -17.7567 0)
(216.603 -18.2395 0)
(217.284 -18.7429 0)
(217.969 -19.2672 0)
(218.653 -19.8139 0)
(219.33 -20.3852 0)
(219.995 -20.9834 0)
(220.642 -21.6106 0)
(221.264 -22.2677 0)
(221.858 -22.9549 0)
(222.417 -23.6715 0)
(222.936 -24.4158 0)
(223.412 -25.185 0)
(223.84 -25.9759 0)
(224.215 -26.7847 0)
(224.534 -27.6074 0)
(224.796 -28.4398 0)
(224.997 -29.2775 0)
(225.138 -30.1169 0)
(225.219 -30.9544 0)
(225.242 -31.7863 0)
(225.209 -32.6089 0)
(225.127 -33.4167 0)
(224.997 -34.2192 0)
(224.823 -34.9985 0)
(224.606 -35.7539 0)
(224.35 -36.4931 0)
(224.045 -37.2125 0)
(223.689 -37.9064 0)
(223.33 -38.5834 0)
(223.023 -39.2562 0)
(222.713 -39.9143 0)
(222.31 -40.5432 0)
(221.801 -41.1675 0)
(221.085 -41.658 0)
(220.608 -42.3554 0)
(219.744 -42.7469 0)
(218.972 -43.3179 0)
(218.015 -43.7019 0)
(217.119 -44.1767 0)
(216.256 -44.5997 0)
(215.488 -45.0983 0)
(214.664 -45.5297 0)
(213.845 -45.9735 0)
(213.045 -46.4374 0)
(212.232 -46.8777 0)
(211.452 -47.3338 0)
(210.679 -47.7791 0)
(209.901 -48.2076 0)
(209.114 -48.6235 0)
(208.308 -49.0108 0)
(207.511 -49.3963 0)
(206.728 -49.7591 0)
(205.995 -50.1411 0)
(205.28 -50.4991 0)
(204.599 -50.8847 0)
(203.876 -51.2317 0)
(203.126 -51.583 0)
(202.344 -51.9085 0)
(201.569 -52.2359 0)
(200.835 -52.5552 0)
(200.192 -52.9071 0)
(199.628 -53.2492 0)
(199.203 -53.6596 0)
(198.723 -53.9755 0)
(198.339 -54.377 0)
(197.825 -54.6944 0)
(197.232 -54.9483 0)
(196.625 -55.2086 0)
(195.997 -55.4241 0)
(195.386 -55.6497 0)
(194.795 -55.8542 0)
(194.248 -56.0784 0)
(193.743 -56.2924 0)
(193.296 -56.5239 0)
(192.898 -56.7599 0)
(192.539 -56.9919 0)
(192.232 -57.2476 0)
(191.921 -57.4634 0)
(191.682 -57.7251 0)
(191.378 -57.9208 0)
(191.06 -58.1231 0)
(190.68 -58.2703 0)
(190.264 -58.4132 0)
(189.819 -58.5236 0)
(189.376 -58.6331 0)
(188.954 -58.732 0)
(188.575 -58.8416 0)
(188.249 -58.9526 0)
(187.979 -59.0787 0)
(187.758 -59.2057 0)
(187.584 -59.3455 0)
(187.446 -59.4806 0)
(187.363 -59.6401 0)
(187.365 -59.822 0)
(187.284 -59.9496 0)
(185.319 106.447 0)
(163.523 21.3235 0)
(170.382 6.25062 0)
(179.164 3.12576 0)
(186.19 -1.72504 0)
(193.679 -3.31924 0)
(198.884 -5.68923 0)
(202.555 -6.57308 0)
(204.867 -7.69736 0)
(206.397 -8.56508 0)
(207.044 -9.61993 0)
(207.929 -10.4159 0)
(208.539 -11.2445 0)
(209.14 -11.9634 0)
(209.697 -12.6152 0)
(210.241 -13.1968 0)
(210.771 -13.7252 0)
(211.297 -14.2088 0)
(211.823 -14.6636 0)
(212.357 -15.1009 0)
(212.905 -15.5293 0)
(213.473 -15.9553 0)
(214.063 -16.3831 0)
(214.678 -16.8173 0)
(215.316 -17.2627 0)
(215.975 -17.7241 0)
(216.65 -18.2041 0)
(217.337 -18.7048 0)
(218.029 -19.2268 0)
(218.72 -19.7713 0)
(219.406 -20.3407 0)
(220.08 -20.9375 0)
(220.737 -21.5637 0)
(221.371 -22.2203 0)
(221.977 -22.9077 0)
(222.549 -23.6251 0)
(223.083 -24.3711 0)
(223.574 -25.1429 0)
(224.017 -25.9373 0)
(224.408 -26.7507 0)
(224.744 -27.5789 0)
(225.022 -28.4177 0)
(225.24 -29.2628 0)
(225.397 -30.1104 0)
(225.495 -30.9567 0)
(225.533 -31.798 0)
(225.516 -32.6299 0)
(225.445 -33.4508 0)
(225.331 -34.2568 0)
(225.171 -35.0521 0)
(224.966 -35.8186 0)
(224.723 -36.5679 0)
(224.431 -37.298 0)
(224.088 -38.0032 0)
(223.739 -38.6914 0)
(223.443 -39.3759 0)
(223.144 -40.0456 0)
(222.759 -40.6886 0)
(222.265 -41.3238 0)
(221.566 -41.8298 0)
(221.103 -42.5367 0)
(220.255 -42.9429 0)
(219.508 -43.5312 0)
(218.566 -43.9303 0)
(217.686 -44.4198 0)
(216.84 -44.855 0)
(216.094 -45.3654 0)
(215.293 -45.802 0)
(214.501 -46.2496 0)
(213.73 -46.7111 0)
(212.946 -47.1464 0)
(212.194 -47.6015 0)
(211.451 -48.0516 0)
(210.7 -48.4939 0)
(209.942 -48.9327 0)
(209.162 -49.3517 0)
(208.385 -49.766 0)
(207.62 -50.1548 0)
(206.903 -50.5573 0)
(206.208 -50.9308 0)
(205.554 -51.3272 0)
(204.863 -51.6811 0)
(204.15 -52.0313 0)
(203.404 -52.3498 0)
(202.663 -52.6655 0)
(201.962 -52.9763 0)
(201.348 -53.3211 0)
(200.812 -53.6611 0)
(200.405 -54.0656 0)
(199.949 -54.3826 0)
(199.61 -54.7943 0)
(199.11 -55.1 0)
(198.536 -55.3565 0)
(197.945 -55.6167 0)
(197.334 -55.8206 0)
(196.744 -56.0447 0)
(196.175 -56.2422 0)
(195.651 -56.4583 0)
(195.168 -56.6625 0)
(194.745 -56.8905 0)
(194.369 -57.1126 0)
(194.036 -57.3389 0)
(193.748 -57.5825 0)
(193.451 -57.7834 0)
(193.225 -58.036 0)
(192.932 -58.2156 0)
(192.629 -58.4096 0)
(192.262 -58.5483 0)