/*--------------------------------*- C++ -*----------------------------------*\
| =========                 |                                                 |
| \\      /  F ield         | OpenFOAM: The Open Source CFD Toolbox           |
|  \\    /   O peration     | Version:  2412                                  |
|   \\  /    A nd           | Website:  www.openfoam.com                      |
|    \\/     M anipulation  |                                                 |
\*---------------------------------------------------------------------------*/
FoamFile
{
    version     2.0;
    format      ascii;
    arch        "LSB;label=32;scalar=64";
    class       volVectorField;
    location    "0.014";
    object      U;
}
// * * * * * * * * * * * * * * * * * * * * * * * * * * * * * * * * * * * * * //

dimensions      [0 1 -1 0 0 0 0];

internalField   nonuniform List<vector> 
9831
(
(234.893 11.824 0)
(226.659 -3.48351 0)
(235.355 12.1918 0)
(226.973 -3.55249 0)
(221.508 -4.46444 0)
(218.457 -4.39836 0)
(216.164 -3.727 0)
(214.184 -2.89918 0)
(212.591 -2.00194 0)
(211.401 -1.18235 0)
(210.617 -0.556383 0)
(210.197 -0.184729 0)
(210.038 -0.0350649 0)
(210.003 -0.0026237 0)
(210 -2.87751e-05 0)
(210 4.92219e-06 0)
(210 5.1071e-06 0)
(210 3.56825e-06 0)
(210 8.27872e-07 0)
(210 -5.30206e-05 0)
(209.995 -0.00417607 0)
(209.873 -0.114062 0)
(209.066 -0.953504 0)
(207.348 -2.98413 0)
(205.893 -4.85692 0)
(205.411 -5.60388 0)
(205.49 -5.80242 0)
(205.795 -5.41632 0)
(205.825 -5.14191 0)
(205.417 -5.09789 0)
(204.431 -5.69664 0)
(203.459 -6.45796 0)
(202.911 -6.88963 0)
(202.641 -7.11028 0)
(202.422 -7.27867 0)
(202.128 -7.49392 0)
(201.722 -7.80763 0)
(201.272 -8.17467 0)
(200.844 -8.52465 0)
(200.462 -8.8319 0)
(200.13 -9.09396 0)
(199.838 -9.29804 0)
(199.584 -9.43938 0)
(199.351 -9.51757 0)
(199.13 -9.56309 0)
(198.908 -9.60815 0)
(198.668 -9.68867 0)
(198.404 -9.838 0)
(198.14 -10.0368 0)
(197.901 -10.2339 0)
(197.666 -10.4007 0)
(197.443 -10.5568 0)
(235.859 12.544 0)
(227.29 -3.60243 0)
(221.685 -4.55596 0)
(218.577 -4.49054 0)
(216.257 -3.8063 0)
(214.259 -2.96671 0)
(212.649 -2.0565 0)
(211.441 -1.22235 0)
(210.64 -0.581008 0)
(210.208 -0.195964 0)
(210.041 -0.0381468 0)
(210.003 -0.00297875 0)
(210 -3.712e-05 0)
(210 5.0278e-06 0)
(210 5.28831e-06 0)
(210 3.71524e-06 0)
(210 8.28667e-07 0)
(210 -6.26455e-05 0)
(209.994 -0.00479491 0)
(209.861 -0.125572 0)
(209.021 -1.00801 0)
(207.3 -3.06157 0)
(205.89 -4.89565 0)
(205.435 -5.6084 0)
(205.52 -5.79322 0)
(205.811 -5.40783 0)
(205.813 -5.15084 0)
(205.373 -5.13371 0)
(204.378 -5.75971 0)
(203.446 -6.50256 0)
(202.928 -6.91227 0)
(202.665 -7.12724 0)
(202.443 -7.29807 0)
(202.14 -7.52205 0)
(201.728 -7.84368 0)
(201.28 -8.21213 0)
(200.858 -8.55979 0)
(200.482 -8.86467 0)
(200.153 -9.12491 0)
(199.862 -9.32733 0)
(199.609 -9.4671 0)
(199.377 -9.54453 0)
(199.156 -9.59088 0)
(198.934 -9.63764 0)
(198.694 -9.72195 0)
(198.43 -9.8733 0)
(198.166 -10.0724 0)
(197.924 -10.2685 0)
(197.686 -10.4347 0)
(197.461 -10.5903 0)
(197.246 -10.7399 0)
(197.056 -10.8955 0)
(236.304 12.9008 0)
(227.596 -3.6695 0)
(221.861 -4.64368 0)
(218.693 -4.58103 0)
(216.349 -3.88397 0)
(214.331 -3.03307 0)
(212.704 -2.11031 0)
(211.48 -1.26202 0)
(210.664 -0.60564 0)
(210.218 -0.207368 0)
(210.044 -0.0413511 0)
(210.004 -0.0033629 0)
(210 -4.69434e-05 0)
(210 5.14193e-06 0)
(210 5.47132e-06 0)
(210 3.86267e-06 0)
(210 8.21415e-07 0)
(210 -7.37933e-05 0)
(209.993 -0.00548752 0)
(209.849 -0.137839 0)
(208.976 -1.0634 0)
(207.253 -3.13758 0)
(205.881 -4.93536 0)
(205.457 -5.61557 0)
(205.549 -5.78427 0)
(205.826 -5.40138 0)
(205.801 -5.16024 0)
(205.328 -5.17157 0)
(204.323 -5.82156 0)
(203.427 -6.54587 0)
(202.942 -6.93589 0)
(202.69 -7.14444 0)
(202.465 -7.31725 0)
(202.153 -7.55018 0)
(201.736 -7.87942 0)
(201.289 -8.24917 0)
(200.872 -8.5949 0)
(200.5 -8.89775 0)
(200.174 -9.15609 0)
(199.887 -9.3564 0)
(199.635 -9.49407 0)
(199.404 -9.57047 0)
(199.183 -9.61765 0)
(198.961 -9.66655 0)
(198.72 -9.75496 0)
(198.455 -9.90895 0)
(198.189 -10.1089 0)
(197.944 -10.3041 0)
(197.704 -10.47 0)
(197.475 -10.6253 0)
(197.259 -10.7739 0)
(197.068 -10.9273 0)
(196.898 -11.0788 0)
(196.751 -11.2209 0)
(236.793 13.2419 0)
(227.905 -3.71687 0)
(222.031 -4.73237 0)
(218.805 -4.6701 0)
(216.437 -3.9603 0)
(214.401 -3.09817 0)
(212.759 -2.16321 0)
(211.519 -1.30124 0)
(210.687 -0.630231 0)
(210.229 -0.218922 0)
(210.047 -0.0446732 0)
(210.004 -0.00377665 0)
(210 -5.839e-05 0)
(210 5.24371e-06 0)
(210 5.65261e-06 0)
(210 4.00841e-06 0)
(210 8.04379e-07 0)
(210 -8.66696e-05 0)
(209.992 -0.00626031 0)
(209.836 -0.15088 0)
(208.931 -1.11959 0)
(207.21 -3.2113 0)
(205.881 -4.96983 0)
(205.481 -5.61959 0)
(205.576 -5.7745 0)
(205.837 -5.39608 0)
(205.788 -5.17009 0)
(205.283 -5.21183 0)
(204.277 -5.88195 0)
(203.42 -6.5849 0)
(202.961 -6.95639 0)
(202.714 -7.16112 0)
(202.484 -7.33735 0)
(202.163 -7.57936 0)
(201.742 -7.91551 0)
(201.299 -8.28572 0)
(200.887 -8.62901 0)
(200.519 -8.92977 0)
(200.197 -9.18655 0)
(199.911 -9.38534 0)
(199.66 -9.52154 0)
(199.43 -9.5973 0)
(199.21 -9.64528 0)
(198.987 -9.69615 0)
(198.746 -9.78808 0)
(198.48 -9.94442 0)
(198.213 -10.1451 0)
(197.965 -10.3394 0)
(197.722 -10.5052 0)
(197.491 -10.6597 0)
(197.274 -10.8071 0)
(197.081 -10.9581 0)
(196.911 -11.1064 0)
(196.765 -11.2454 0)
(196.654 -11.3742 0)
(196.566 -11.4783 0)
(196.524 -11.5738 0)
(196.509 -11.647 0)
(196.512 -11.7121 0)
(196.577 -11.7726 0)
(196.659 -11.8286 0)
(196.79 -11.8689 0)
(196.95 -11.9035 0)
(197.143 -11.9208 0)
(197.368 -11.9258 0)
(197.622 -11.9158 0)
(197.904 -11.8954 0)
(198.211 -11.8597 0)
(198.542 -11.8107 0)
(198.895 -11.7476 0)
(199.268 -11.6734 0)
(199.661 -11.5877 0)
(200.074 -11.4946 0)
(200.504 -11.3902 0)
(200.951 -11.282 0)
(201.408 -11.1597 0)
(201.878 -11.0373 0)
(202.348 -10.8978 0)
(202.828 -10.7633 0)
(203.304 -10.6075 0)
(203.793 -10.4618 0)
(204.274 -10.2907 0)
(204.769 -10.1354 0)
(205.246 -9.95247 0)
(205.733 -9.79083 0)
(206.194 -9.60082 0)
(206.664 -9.43573 0)
(207.105 -9.24228 0)
(207.558 -9.07538 0)
(207.982 -8.88132 0)
(208.418 -8.71429 0)
(208.825 -8.52232 0)
(209.242 -8.35695 0)
(209.63 -8.16925 0)
(210.026 -8.00692 0)
(210.393 -7.82513 0)
(210.767 -7.66696 0)
(211.113 -7.49212 0)
(211.464 -7.33864 0)
(211.79 -7.17128 0)
(212.119 -7.02307 0)
(212.424 -6.86375 0)
(212.73 -6.72152 0)
(213.013 -6.57065 0)
(213.296 -6.43505 0)
(213.557 -6.29294 0)
(213.819 -6.16458 0)
(214.065 -6.03179 0)
(214.315 -5.91138 0)
(214.554 -5.78848 0)
(214.794 -5.67632 0)
(215.023 -5.56281 0)
(215.244 -5.4585 0)
(215.445 -5.35326 0)
(215.627 -5.2575 0)
(215.77 -5.15737 0)
(215.837 -5.06032 0)
(215.947 -4.96524 0)
(215.979 -4.88771 0)
(237.222 13.5875 0)
(228.203 -3.78228 0)
(222.2 -4.81752 0)
(218.915 -4.75752 0)
(216.524 -4.03502 0)
(214.47 -3.16211 0)
(212.811 -2.21535 0)
(211.557 -1.34009 0)
(210.71 -0.65478 0)
(210.24 -0.230612 0)
(210.05 -0.0481095 0)
(210.005 -0.00422048 0)
(210 -7.16038e-05 0)
(210 5.35531e-06 0)
(210 5.83398e-06 0)
(210 4.15231e-06 0)
(210 7.75608e-07 0)
(210 -0.000101501 0)
(209.991 -0.0071199 0)
(209.822 -0.164705 0)
(208.886 -1.1765 0)
(207.166 -3.2837 0)
(205.875 -5.00563 0)
(205.503 -5.62599 0)
(205.602 -5.76513 0)
(205.847 -5.39249 0)
(205.774 -5.1804 0)
(205.237 -5.2537 0)
(204.229 -5.9411 0)
(203.409 -6.62327 0)
(202.977 -6.97787 0)
(202.738 -7.17783 0)
(202.504 -7.35725 0)
(202.175 -7.60848 0)
(201.749 -7.95124 0)
(201.309 -8.32199 0)
(200.901 -8.66326 0)
(200.538 -8.96216 0)
(200.218 -9.21716 0)
(199.935 -9.4139 0)
(199.687 -9.54814 0)
(199.457 -9.62309 0)
(199.238 -9.672 0)
(199.014 -9.72531 0)
(198.771 -9.82113 0)
(198.503 -9.98048 0)
(198.235 -10.1823 0)
(197.984 -10.3757 0)
(197.738 -10.5415 0)
(197.504 -10.6956 0)
(197.285 -10.8419 0)
(197.092 -10.9904 0)
(196.922 -11.1355 0)
(196.776 -11.2713 0)
(196.666 -11.3963 0)
(196.578 -11.4953 0)
(196.535 -11.5834 0)
(196.518 -11.6484 0)
(196.521 -11.7041 0)
(196.579 -11.7558 0)
(196.659 -11.8004 0)
(196.786 -11.8299 0)
(196.941 -11.8523 0)
(197.129 -11.8571 0)
(197.348 -11.8496 0)
(197.594 -11.8255 0)
(197.869 -11.7917 0)
(198.169 -11.7415 0)
(198.492 -11.6783 0)
(198.837 -11.6002 0)
(199.201 -11.511 0)
(199.585 -11.4097 0)
(199.987 -11.3006 0)
(200.406 -11.1799 0)
(200.843 -11.055 0)
(201.289 -10.9164 0)
(201.747 -10.777 0)
(202.205 -10.6213 0)
(202.672 -10.4696 0)
(203.135 -10.298 0)
(203.611 -10.1352 0)
(204.078 -9.94874 0)
(204.558 -9.77636 0)
(205.02 -9.57834 0)
(205.493 -9.39993 0)
(205.939 -9.19525 0)
(206.395 -9.01405 0)
(206.821 -8.8066 0)
(207.26 -8.62453 0)
(207.668 -8.41735 0)
(208.09 -8.23622 0)
(208.482 -8.03204 0)
(208.886 -7.85369 0)
(209.259 -7.65465 0)
(209.642 -7.48039 0)
(209.994 -7.28804 0)
(210.355 -7.11894 0)
(210.688 -6.93434 0)
(211.027 -6.77092 0)
(211.339 -6.59457 0)
(211.656 -6.43741 0)
(211.948 -6.26994 0)
(212.243 -6.11973 0)
(212.514 -5.9615 0)
(212.787 -5.8188 0)
(213.037 -5.67009 0)
(213.29 -5.53542 0)
(213.527 -5.39671 0)
(213.767 -5.27064 0)
(213.997 -5.14238 0)
(214.229 -5.02506 0)
(214.449 -4.90664 0)
(214.663 -4.79771 0)
(214.856 -4.68814 0)
(215.03 -4.5881 0)
(215.165 -4.48299 0)
(215.22 -4.38362 0)
(215.323 -4.28442 0)
(215.348 -4.20534 0)
(215.433 -4.10175 0)
(215.472 -4.16128 0)
(237.696 13.9172 0)
(228.505 -3.82737 0)
(222.363 -4.90347 0)
(219.021 -4.8435 0)
(216.607 -4.10843 0)
(214.537 -3.2248 0)
(212.864 -2.26658 0)
(211.594 -1.37845 0)
(210.733 -0.679246 0)
(210.251 -0.242421 0)
(210.053 -0.0516551 0)
(210.005 -0.00469464 0)
(210 -8.67213e-05 0)
(210 5.45493e-06 0)
(210 6.01367e-06 0)
(210 4.29161e-06 0)
(210 7.32741e-07 0)
(210 -0.000118538 0)
(209.99 -0.00807324 0)
(209.808 -0.179327 0)
(208.841 -1.23403 0)
(207.128 -3.35368 0)
(205.878 -5.0364 0)
(205.525 -5.62956 0)
(205.626 -5.7553 0)
(205.855 -5.39003 0)
(205.759 -5.19121 0)
(205.193 -5.29748 0)
(204.192 -5.99836 0)
(203.407 -6.65759 0)
(202.997 -6.99683 0)
(202.761 -7.19434 0)
(202.521 -7.37814 0)
(202.184 -7.63856 0)
(201.756 -7.98718 0)
(201.32 -8.35769 0)
(200.917 -8.69654 0)
(200.557 -8.99358 0)
(200.24 -9.24718 0)
(199.959 -9.44246 0)
(199.712 -9.57533 0)
(199.484 -9.64983 0)
(199.264 -9.69961 0)
(199.041 -9.7551 0)
(198.796 -9.8543 0)
(198.527 -10.0164 0)
(198.258 -10.2191 0)
(198.004 -10.4117 0)
(197.755 -10.5777 0)
(197.518 -10.7309 0)
(197.298 -10.8758 0)
(197.104 -11.0217 0)
(196.934 -11.1636 0)
(196.788 -11.2961 0)
(196.679 -11.4171 0)
(196.59 -11.5112 0)
(196.545 -11.5923 0)
(196.525 -11.6499 0)
(196.526 -11.6962 0)
(196.579 -11.7396 0)
(196.655 -11.7723 0)
(196.775 -11.7915 0)
(196.925 -11.8021 0)
(197.106 -11.7949 0)
(197.317 -11.7751 0)
(197.556 -11.7374 0)
(197.822 -11.6905 0)
(198.113 -11.6264 0)
(198.427 -11.5495 0)
(198.762 -11.4568 0)
(199.116 -11.3532 0)
(199.488 -11.2368 0)
(199.88 -11.1124 0)
(200.286 -10.9761 0)
(200.71 -10.8351 0)
(201.143 -10.6809 0)
(201.587 -10.5252 0)
(202.032 -10.3539 0)
(202.485 -10.1856 0)
(202.933 -9.99874 0)
(203.394 -9.8196 0)
(203.844 -9.61845 0)
(204.309 -9.42986 0)
(204.755 -9.21739 0)
(205.212 -9.02295 0)
(205.643 -8.80422 0)
(206.084 -8.6076 0)
(206.494 -8.38677 0)
(206.918 -8.19017 0)
(207.311 -7.97043 0)
(207.718 -7.77574 0)
(208.095 -7.55982 0)
(208.485 -7.36888 0)
(208.844 -7.15887 0)
(209.214 -6.97296 0)
(209.553 -6.77031 0)
(209.901 -6.59045 0)
(210.22 -6.39628 0)
(210.547 -6.2231 0)
(210.847 -6.038 0)
(211.153 -5.87205 0)
(211.433 -5.69665 0)
(211.717 -5.53861 0)
(211.978 -5.37324 0)
(212.24 -5.22355 0)
(212.481 -5.06837 0)
(212.725 -4.92743 0)
(212.952 -4.78287 0)
(213.185 -4.65115 0)
(213.406 -4.5176 0)
(213.631 -4.39522 0)
(213.843 -4.27206 0)
(214.049 -4.15864 0)
(214.235 -4.04491 0)
(214.401 -3.9404 0)
(214.527 -3.83079 0)
(214.573 -3.72884 0)
(214.669 -3.62544 0)
(214.689 -3.54485 0)
(214.77 -3.43838 0)
(214.808 -3.48965 0)
(238.109 14.2511 0)
(228.795 -3.89135 0)
(222.525 -4.98617 0)
(219.124 -4.92788 0)
(216.688 -4.18026 0)
(214.601 -3.28635 0)
(212.914 -2.31704 0)
(211.631 -1.41641 0)
(210.756 -0.703629 0)
(210.262 -0.254337 0)
(210.057 -0.055306 0)
(210.006 -0.00519938 0)
(210 -0.000103875 0)
(210 5.57021e-06 0)
(210 6.19633e-06 0)
(210 4.42638e-06 0)
(210 6.73417e-07 0)
(210 -0.000138059 0)
(209.989 -0.00912753 0)
(209.793 -0.194755 0)
(208.796 -1.2921 0)
(207.088 -3.42248 0)
(205.874 -5.06875 0)
(205.547 -5.63528 0)
(205.649 -5.74597 0)
(205.861 -5.38893 0)
(205.743 -5.20252 0)
(205.148 -5.34241 0)
(204.152 -6.05441 0)
(203.402 -6.69178 0)
(203.015 -7.01662 0)
(202.784 -7.21074 0)
(202.539 -7.39886 0)
(202.194 -7.66851 0)
(201.764 -8.02272 0)
(201.331 -8.39322 0)
(200.932 -8.73009 0)
(200.576 -9.02541 0)
(200.262 -9.27727 0)
(199.984 -9.47048 0)
(199.739 -9.60154 0)
(199.512 -9.67549 0)
(199.293 -9.72638 0)
(199.068 -9.78458 0)
(198.821 -9.88766 0)
(198.55 -10.0531 0)
(198.278 -10.2569 0)
(198.02 -10.4488 0)
(197.769 -10.6151 0)
(197.529 -10.7677 0)
(197.308 -10.9113 0)
(197.113 -11.0545 0)
(196.943 -11.193 0)
(196.798 -11.3223 0)
(196.689 -11.4392 0)
(196.599 -11.5281 0)
(196.553 -11.6019 0)
(196.53 -11.6528 0)
(196.529 -11.6892 0)
(196.575 -11.7238 0)
(196.648 -11.7447 0)
(196.763 -11.7538 0)
(196.907 -11.7529 0)
(197.08 -11.7335 0)
(197.284 -11.7014 0)
(197.514 -11.6502 0)
(197.772 -11.5901 0)
(198.054 -11.512 0)
(198.359 -11.4214 0)
(198.683 -11.3142 0)
(199.027 -11.1961 0)
(199.389 -11.0647 0)
(199.768 -10.925 0)
(200.163 -10.773 0)
(200.574 -10.616 0)
(200.994 -10.446 0)
(201.425 -10.2739 0)
(201.856 -10.0868 0)
(202.296 -9.90189 0)
(202.73 -9.69951 0)
(203.175 -9.50386 0)
(203.61 -9.28773 0)
(204.058 -9.08291 0)
(204.489 -8.85593 0)
(204.93 -8.64559 0)
(205.345 -8.41288 0)
(205.771 -8.2011 0)
(206.165 -7.96709 0)
(206.573 -7.75635 0)
(206.95 -7.52439 0)
(207.343 -7.3166 0)
(207.704 -7.08936 0)
(208.08 -6.88634 0)
(208.424 -6.66585 0)
(208.78 -6.46883 0)
(209.105 -6.25644 0)
(209.44 -6.0664 0)
(209.745 -5.86327 0)
(210.059 -5.68093 0)
(210.346 -5.48776 0)
(210.639 -5.31369 0)
(210.907 -5.13107 0)
(211.18 -4.96586 0)
(211.429 -4.79402 0)
(211.681 -4.63797 0)
(211.911 -4.47696 0)
(212.145 -4.33031 0)
(212.364 -4.18047 0)
(212.587 -4.04362 0)
(212.801 -3.90532 0)
(213.017 -3.77838 0)
(213.221 -3.65108 0)
(213.42 -3.53372 0)
(213.597 -3.41644 0)
(213.754 -3.30794 0)
(213.871 -3.19475 0)
(213.907 -3.09112 0)
(213.996 -2.98406 0)
(214.009 -2.90413 0)
(214.088 -2.79518 0)
(214.126 -2.83908 0)
(238.569 14.5691 0)
(229.088 -3.93443 0)
(222.68 -5.06949 0)
(219.224 -5.01082 0)
(216.766 -4.2508 0)
(214.665 -3.34669 0)
(212.964 -2.36659 0)
(211.667 -1.45388 0)
(210.778 -0.727896 0)
(210.272 -0.266345 0)
(210.06 -0.0590573 0)
(210.006 -0.00573472 0)
(210 -0.00012319 0)
(210 5.6675e-06 0)
(210 6.38067e-06 0)
(210 4.55355e-06 0)
(210 5.95341e-07 0)
(210 -0.000160369 0)
(209.988 -0.0102902 0)
(209.778 -0.210996 0)
(208.752 -1.35064 0)
(207.054 -3.48875 0)
(205.879 -5.09631 0)
(205.568 -5.63843 0)
(205.67 -5.73646 0)
(205.866 -5.38927 0)
(205.726 -5.21442 0)
(205.105 -5.38873 0)
(204.122 -6.10816 0)
(203.405 -6.7222 0)
(203.036 -7.0344 0)
(202.806 -7.22721 0)
(202.555 -7.4206 0)
(202.203 -7.69931 0)
(201.772 -8.05832 0)
(201.343 -8.4281 0)
(200.949 -8.76267 0)
(200.596 -9.05637 0)
(200.285 -9.3069 0)
(200.008 -9.49862 0)
(199.765 -9.62841 0)
(199.539 -9.70212 0)
(199.32 -9.75401 0)
(199.094 -9.8146 0)
(198.846 -9.92114 0)
(198.573 -10.0898 0)
(198.3 -10.2943 0)
(198.038 -10.4855 0)
(197.785 -10.6521 0)
(197.543 -10.8038 0)
(197.321 -10.9459 0)
(197.125 -11.0864 0)
(196.954 -11.2215 0)
(196.809 -11.3474 0)
(196.7 -11.4601 0)
(196.608 -11.5442 0)
(196.56 -11.6108 0)
(196.534 -11.6552 0)
(196.526 -11.6818 0)
(196.568 -11.7089 0)
(196.637 -11.7176 0)
(196.744 -11.7172 0)
(196.881 -11.7056 0)
(197.045 -11.6745 0)
(197.24 -11.6303 0)
(197.461 -11.5661 0)
(197.71 -11.4932 0)
(197.981 -11.4017 0)
(198.275 -11.2979 0)
(198.588 -11.1768 0)
(198.921 -11.0448 0)
(199.27 -10.899 0)
(199.636 -10.7446 0)
(200.017 -10.5778 0)
(200.414 -10.4054 0)
(200.819 -10.2203 0)
(201.236 -10.0326 0)
(201.652 -9.83039 0)
(202.076 -9.62967 0)
(202.493 -9.41252 0)
(202.922 -9.20115 0)
(203.34 -8.97075 0)
(203.771 -8.7505 0)
(204.184 -8.50974 0)
(204.609 -8.28429 0)
(205.007 -8.0383 0)
(205.417 -7.81204 0)
(205.795 -7.5655 0)
(206.187 -7.34125 0)
(206.548 -7.09765 0)
(206.925 -6.87732 0)
(207.271 -6.63922 0)
(207.633 -6.42449 0)
(207.962 -6.19383 0)
(208.304 -5.98597 0)
(208.615 -5.76406 0)
(208.937 -5.56402 0)
(209.229 -5.3521 0)
(209.531 -5.16077 0)
(209.805 -4.95968 0)
(210.087 -4.77762 0)
(210.343 -4.58788 0)
(210.606 -4.41555 0)
(210.844 -4.23731 0)
(211.086 -4.07491 0)
(211.306 -3.9081 0)
(211.532 -3.75575 0)
(211.741 -3.60066 0)
(211.957 -3.45864 0)
(212.162 -3.31557 0)
(212.371 -3.18396 0)
(212.568 -3.05239 0)
(212.76 -2.93087 0)
(212.93 -2.80981 0)
(213.077 -2.69694 0)
(213.187 -2.58009 0)
(213.216 -2.47407 0)
(213.3 -2.36378 0)
(213.308 -2.28083 0)
(213.387 -2.16912 0)
(213.424 -2.20838 0)
(238.967 14.8912 0)
(229.37 -3.99718 0)
(222.835 -5.14984 0)
(219.321 -5.09218 0)
(216.843 -4.31981 0)
(214.726 -3.40591 0)
(213.012 -2.41538 0)
(211.702 -1.49091 0)
(210.8 -0.752044 0)
(210.283 -0.278432 0)
(210.064 -0.0629047 0)
(210.007 -0.00630072 0)
(210 -0.000144789 0)
(210 5.79162e-06 0)
(210 6.57283e-06 0)
(210 4.67904e-06 0)
(210 4.92212e-07 0)
(210 -0.000185803 0)
(209.986 -0.0115689 0)
(209.762 -0.228055 0)
(208.708 -1.40958 0)
(207.018 -3.55401 0)
(205.878 -5.12563 0)
(205.589 -5.64358 0)
(205.691 -5.72753 0)
(205.869 -5.39072 0)
(205.708 -5.22687 0)
(205.062 -5.43576 0)
(204.089 -6.1608 0)
(203.405 -6.75282 0)
(203.055 -7.05286 0)
(202.827 -7.2435 0)
(202.571 -7.44219 0)
(202.212 -7.7299 0)
(201.78 -8.0935 0)
(201.355 -8.4629 0)
(200.964 -8.79562 0)
(200.615 -9.08773 0)
(200.307 -9.33651 0)
(200.033 -9.5261 0)
(199.793 -9.65418 0)
(199.568 -9.72766 0)
(199.348 -9.7809 0)
(199.121 -9.84444 0)
(198.87 -9.95504 0)
(198.594 -10.1273 0)
(198.319 -10.3327 0)
(198.054 -10.5234 0)
(197.798 -10.6907 0)
(197.553 -10.8414 0)
(197.33 -10.9821 0)
(197.133 -11.1196 0)
(196.962 -11.2513 0)
(196.817 -11.3739 0)
(196.708 -11.4822 0)
(196.615 -11.5611 0)
(196.565 -11.6205 0)
(196.534 -11.659 0)
(196.522 -11.6766 0)
(196.559 -11.695 0)
(196.624 -11.6912 0)
(196.723 -11.6813 0)
(196.852 -11.6594 0)
(197.008 -11.6165 0)
(197.194 -11.5601 0)
(197.405 -11.4831 0)
(197.645 -11.3973 0)
(197.905 -11.2923 0)
(198.189 -11.1754 0)
(198.49 -11.0403 0)
(198.811 -10.8945 0)
(199.147 -10.7342 0)
(199.501 -10.5651 0)
(199.867 -10.3832 0)
(200.25 -10.1954 0)
(200.641 -9.99495 0)
(201.043 -9.79136 0)
(201.444 -9.57391 0)
(201.853 -9.35726 0)
(202.255 -9.12514 0)
(202.667 -8.89792 0)
(203.068 -8.653 0)
(203.482 -8.41725 0)
(203.878 -8.16262 0)
(204.286 -7.92219 0)
(204.667 -7.66301 0)
(205.06 -7.42253 0)
(205.422 -7.16369 0)
(205.798 -6.92632 0)
(206.143 -6.67145 0)
(206.505 -6.43905 0)
(206.835 -6.19055 0)
(207.181 -5.96464 0)
(207.495 -5.72433 0)
(207.823 -5.50619 0)
(208.119 -5.27539 0)
(208.428 -5.06601 0)
(208.706 -4.84599 0)
(208.995 -4.64633 0)
(209.255 -4.43804 0)
(209.526 -4.24866 0)
(209.77 -4.0525 0)
(210.021 -3.87368 0)
(210.247 -3.68965 0)
(210.479 -3.52143 0)
(210.689 -3.34938 0)
(210.906 -3.19182 0)
(211.106 -3.03199 0)
(211.313 -2.88525 0)
(211.51 -2.73783 0)
(211.711 -2.60191 0)
(211.901 -2.46639 0)
(212.085 -2.34093 0)
(212.247 -2.21631 0)
(212.385 -2.09924 0)
(212.488 -1.97904 0)
(212.509 -1.87102 0)
(212.587 -1.75758 0)
(212.591 -1.67226 0)
(212.665 -1.55839 0)
(212.701 -1.59188 0)
(239.413 15.1975 0)
(229.656 -4.0385 0)
(222.984 -5.23063 0)
(219.414 -5.17213 0)
(216.917 -4.38755 0)
(214.786 -3.46395 0)
(213.059 -2.46327 0)
(211.737 -1.52744 0)
(210.822 -0.776049 0)
(210.294 -0.290587 0)
(210.067 -0.0668437 0)
(210.007 -0.00689727 0)
(210 -0.000168791 0)
(210 5.88156e-06 0)
(210 6.76849e-06 0)
(210 4.80414e-06 0)
(210 3.59309e-07 0)
(210 -0.000214725 0)
(209.985 -0.0129717 0)
(209.746 -0.245937 0)
(208.665 -1.46882 0)
(206.988 -3.61667 0)
(205.885 -5.15038 0)
(205.61 -5.6464 0)
(205.71 -5.71859 0)
(205.87 -5.39332 0)
(205.689 -5.23998 0)
(205.021 -5.48366 0)
(204.066 -6.21081 0)
(203.412 -6.78001 0)
(203.075 -7.06978 0)
(202.848 -7.26007 0)
(202.585 -7.46482 0)
(202.22 -7.76121 0)
(201.788 -8.12861 0)
(201.368 -8.49697 0)
(200.982 -8.82761 0)
(200.636 -9.1183 0)
(200.33 -9.3658 0)
(200.058 -9.55385 0)
(199.819 -9.68072 0)
(199.595 -9.75417 0)
(199.376 -9.80861 0)
(199.147 -9.87473 0)
(198.893 -9.98909 0)
(198.616 -10.1647 0)
(198.338 -10.3706 0)
(198.071 -10.5608 0)
(197.813 -10.7287 0)
(197.566 -10.8784 0)
(197.342 -11.0176 0)
(197.144 -11.152 0)
(196.972 -11.2802 0)
(196.827 -11.3993 0)
(196.717 -11.5032 0)
(196.622 -11.5771 0)
(196.569 -11.6292 0)
(196.533 -11.6621 0)
(196.515 -11.6706 0)
(196.547 -11.6812 0)
(196.605 -11.6667 0)
(196.696 -11.6474 0)
(196.817 -11.6157 0)
(196.963 -11.5616 0)
(197.139 -11.4935 0)
(197.339 -11.4041 0)
(197.568 -11.3059 0)
(197.816 -11.188 0)
(198.088 -11.0585 0)
(198.376 -10.9102 0)
(198.684 -10.7511 0)
(199.006 -10.5771 0)
(199.345 -10.3941 0)
(199.696 -10.1979 0)
(200.063 -9.99537 0)
(200.437 -9.78031 0)
(200.823 -9.56165 0)
(201.208 -9.32972 0)
(201.6 -9.098 0)
(201.985 -8.85176 0)
(202.379 -8.60963 0)
(202.761 -8.35106 0)
(203.157 -8.10069 0)
(203.534 -7.83302 0)
(203.924 -7.57846 0)
(204.288 -7.30686 0)
(204.664 -7.05291 0)
(205.009 -6.78244 0)
(205.369 -6.53258 0)
(205.698 -6.26697 0)
(206.043 -6.02299 0)
(206.358 -5.76447 0)
(206.689 -5.52772 0)
(206.988 -5.27801 0)
(207.302 -5.04982 0)
(207.584 -4.81032 0)
(207.879 -4.59176 0)
(208.144 -4.36378 0)
(208.421 -4.15587 0)
(208.669 -3.94042 0)
(208.928 -3.74372 0)
(209.161 -3.54113 0)
(209.401 -3.35577 0)
(209.617 -3.16592 0)
(209.839 -2.99182 0)
(210.04 -2.81448 0)
(210.247 -2.65161 0)
(210.439 -2.487 0)
(210.638 -2.33546 0)
(210.828 -2.18367 0)
(211.021 -2.04339 0)
(211.203 -1.90389 0)
(211.381 -1.77443 0)
(211.534 -1.64626 0)
(211.662 -1.52498 0)
(211.759 -1.40158 0)
(211.774 -1.29144 0)
(211.846 -1.17492 0)
(211.846 -1.08759 0)
(211.915 -0.971669 0)
(211.949 -0.99899 0)
(239.797 15.5076 0)
(229.931 -4.1002 0)
(223.133 -5.30875 0)
(219.506 -5.25054 0)
(216.989 -4.4538 0)
(214.843 -3.52089 0)
(213.105 -2.5104 0)
(211.77 -1.56353 0)
(210.844 -0.799907 0)
(210.305 -0.302797 0)
(210.071 -0.0708698 0)
(210.008 -0.00752432 0)
(210 -0.000195319 0)
(210 6.01475e-06 0)
(210 6.97669e-06 0)
(210 4.93162e-06 0)
(210 1.92927e-07 0)
(210 -0.000247536 0)
(209.983 -0.0145064 0)
(209.728 -0.264642 0)
(208.622 -1.52833 0)
(206.955 -3.67851 0)
(205.886 -5.17704 0)
(205.631 -5.65105 0)
(205.728 -5.71028 0)
(205.87 -5.39717 0)
(205.669 -5.25362 0)
(204.979 -5.53193 0)
(204.039 -6.25986 0)
(203.415 -6.80759 0)
(203.095 -7.0872 0)
(202.869 -7.27639 0)
(202.6 -7.48731 0)
(202.229 -7.79227 0)
(201.797 -8.16334 0)
(201.381 -8.53107 0)
(200.999 -8.86002 0)
(200.655 -9.14923 0)
(200.352 -9.39495 0)
(200.084 -9.58082 0)
(199.847 -9.70612 0)
(199.624 -9.77965 0)
(199.405 -9.83572 0)
(199.174 -9.90503 0)
(198.917 -10.0238 0)
(198.636 -10.2031 0)
(198.355 -10.4095 0)
(198.085 -10.5996 0)
(197.825 -10.7682 0)
(197.576 -10.9169 0)
(197.35 -11.0546 0)
(197.151 -11.1858 0)
(196.979 -11.3103 0)
(196.834 -11.4259 0)
(196.723 -11.5253 0)
(196.626 -11.594 0)
(196.57 -11.6383 0)
(196.53 -11.6666 0)
(196.507 -11.667 0)
(196.534 -11.6677 0)
(196.582 -11.6438 0)
(196.665 -11.6151 0)
(196.778 -11.573 0)
(196.915 -11.5078 0)
(197.082 -11.4279 0)
(197.271 -11.3265 0)
(197.488 -11.2157 0)
(197.724 -11.085 0)
(197.984 -10.9427 0)
(198.259 -10.7811 0)
(198.554 -10.6088 0)
(198.861 -10.421 0)
(199.186 -10.2239 0)
(199.521 -10.0133 0)
(199.872 -9.7958 0)
(200.23 -9.56584 0)
(200.599 -9.33187 0)
(200.968 -9.08516 0)
(201.344 -8.83815 0)
(201.711 -8.57754 0)
(202.088 -8.32038 0)
(202.452 -8.04797 0)
(202.829 -7.78295 0)
(203.188 -7.50215 0)
(203.56 -7.2336 0)
(203.906 -6.94971 0)
(204.266 -6.6826 0)
(204.594 -6.40078 0)
(204.938 -6.1388 0)
(205.249 -5.8628 0)
(205.579 -5.60769 0)
(205.877 -5.3396 0)
(206.192 -5.09254 0)
(206.476 -4.83399 0)
(206.775 -4.59637 0)
(207.042 -4.34884 0)
(207.324 -4.12182 0)
(207.575 -3.88662 0)
(207.839 -3.67117 0)
(208.075 -3.44925 0)
(208.322 -3.24586 0)
(208.543 -3.03748 0)
(208.772 -2.84616 0)
(208.977 -2.65107 0)
(209.189 -2.47161 0)
(209.379 -2.28951 0)
(209.577 -2.12178 0)
(209.76 -1.9528 0)
(209.951 -1.79683 0)
(210.132 -1.64102 0)
(210.318 -1.49671 0)
(210.493 -1.35352 0)
(210.663 -1.22034 0)
(210.808 -1.08901 0)
(210.924 -0.963679 0)
(211.017 -0.837429 0)
(211.026 -0.725173 0)
(211.093 -0.605716 0)
(211.087 -0.516662 0)
(211.151 -0.398756 0)
(211.182 -0.419677 0)
(240.23 15.8021 0)
(230.209 -4.13996 0)
(223.275 -5.38712 0)
(219.594 -5.32756 0)
(217.058 -4.51883 0)
(214.9 -3.57669 0)
(213.15 -2.55667 0)
(211.804 -1.5991 0)
(210.866 -0.823601 0)
(210.316 -0.315056 0)
(210.074 -0.0749794 0)
(210.008 -0.0081817 0)
(210 -0.000224492 0)
(210 6.08524e-06 0)
(210 7.18984e-06 0)
(210 5.06078e-06 0)
(210 -1.09723e-08 0)
(210 -0.000284674 0)
(209.981 -0.0161817 0)
(209.711 -0.284172 0)
(208.579 -1.58799 0)
(206.929 -3.73766 0)
(205.893 -5.19935 0)
(205.651 -5.6536 0)
(205.746 -5.70208 0)
(205.869 -5.40223 0)
(205.648 -5.26793 0)
(204.941 -5.5806 0)
(204.022 -6.30609 0)
(203.424 -6.83207 0)
(203.115 -7.10341 0)
(202.888 -7.29317 0)
(202.612 -7.51086 0)
(202.236 -7.82398 0)
(201.806 -8.19789 0)
(201.395 -8.56436 0)
(201.017 -8.89148 0)
(200.676 -9.17945 0)
(200.376 -9.42393 0)
(200.109 -9.60823 0)
(199.874 -9.73239 0)
(199.652 -9.80612 0)
(199.432 -9.86361 0)
(199.2 -9.93576 0)
(198.94 -10.0587 0)
(198.657 -10.2413 0)
(198.373 -10.4479 0)
(198.1 -10.6378 0)
(197.839 -10.807 0)
(197.589 -10.9547 0)
(197.362 -11.0909 0)
(197.162 -11.2188 0)
(196.988 -11.3396 0)
(196.843 -11.4514 0)
(196.729 -11.5464 0)
(196.63 -11.6104 0)
(196.57 -11.6472 0)
(196.523 -11.6726 0)
(196.497 -11.6659 0)
(196.517 -11.6544 0)
(196.555 -11.6226 0)
(196.629 -11.585 0)
(196.732 -11.5332 0)
(196.859 -11.4576 0)
(197.015 -11.3666 0)
(197.192 -11.2538 0)
(197.397 -11.131 0)
(197.619 -10.9882 0)
(197.866 -10.8336 0)
(198.126 -10.6595 0)
(198.407 -10.4745 0)
(198.699 -10.2737 0)
(199.007 -10.0634 0)
(199.325 -9.83923 0)
(199.659 -9.60769 0)
(199.998 -9.36371 0)
(200.35 -9.11531 0)
(200.7 -8.85467 0)
(201.058 -8.59327 0)
(201.407 -8.31918 0)
(201.764 -8.04802 0)
(202.109 -7.76278 0)
(202.466 -7.48417 0)
(202.806 -7.1912 0)
(203.159 -6.90958 0)
(203.487 -6.61425 0)
(203.829 -6.33479 0)
(204.14 -6.0423 0)
(204.468 -5.7688 0)
(204.763 -5.48289 0)
(205.076 -5.21707 0)
(205.358 -4.93975 0)
(205.658 -4.68269 0)
(205.926 -4.41554 0)
(206.211 -4.16868 0)
(206.464 -3.91327 0)
(206.733 -3.67789 0)
(206.971 -3.43551 0)
(207.223 -3.2125 0)
(207.446 -2.98404 0)
(207.682 -2.77383 0)
(207.892 -2.5595 0)
(208.111 -2.36204 0)
(208.305 -2.16154 0)
(208.507 -1.97656 0)
(208.688 -1.78954 0)
(208.877 -1.6168 0)
(209.051 -1.44334 0)
(209.235 -1.2828 0)
(209.408 -1.12289 0)
(209.587 -0.974437 0)
(209.754 -0.82751 0)
(209.917 -0.690583 0)
(210.054 -0.556218 0)
(210.158 -0.426787 0)
(210.248 -0.297739 0)
(210.252 -0.18312 0)
(210.313 -0.0607062 0)
(210.301 0.0300437 0)
(210.36 0.149995 0)
(210.388 0.135275 0)
(240.6 16.1002 0)
(230.476 -4.20078 0)
(223.418 -5.46313 0)
(219.68 -5.4031 0)
(217.126 -4.58242 0)
(214.955 -3.63143 0)
(213.193 -2.60218 0)
(211.836 -1.63421 0)
(210.886 -0.847125 0)
(210.326 -0.327347 0)
(210.078 -0.0791675 0)
(210.009 -0.00886929 0)
(210 -0.000256435 0)
(210 6.21476e-06 0)
(210 7.41726e-06 0)
(210 5.19481e-06 0)
(210 -2.60652e-07 0)
(210 -0.000326604 0)
(209.979 -0.0180058 0)
(209.693 -0.304524 0)
(208.537 -1.6478 0)
(206.899 -3.79622 0)
(205.896 -5.22364 0)
(205.67 -5.65784 0)
(205.762 -5.69449 0)
(205.867 -5.40859 0)
(205.626 -5.28267 0)
(204.902 -5.62938 0)
(204 -6.35158 0)
(203.43 -6.85703 0)
(203.134 -7.11996 0)
(202.907 -7.30966 0)
(202.626 -7.53422 0)
(202.245 -7.85538 0)
(201.816 -8.23213 0)
(201.408 -8.59779 0)
(201.034 -8.92338 0)
(200.697 -9.20996 0)
(200.399 -9.45262 0)
(200.136 -9.63475 0)
(199.903 -9.75752 0)
(199.681 -9.83162 0)
(199.461 -9.89107 0)
(199.226 -9.96673 0)
(198.962 -10.0944 0)
(198.676 -10.2806 0)
(198.389 -10.4875 0)
(198.113 -10.6775 0)
(197.85 -10.8473 0)
(197.598 -10.9941 0)
(197.37 -11.1287 0)
(197.169 -11.2531 0)
(196.994 -11.37 0)
(196.849 -11.478 0)
(196.733 -11.5683 0)
(196.631 -11.6273 0)
(196.567 -11.6577 0)
(196.515 -11.6792 0)
(196.485 -11.6647 0)
(196.497 -11.6417 0)
(196.525 -11.6031 0)
(196.589 -11.5562 0)
(196.684 -11.4945 0)
(196.8 -11.4086 0)
(196.946 -11.3067 0)
(197.11 -11.1825 0)
(197.303 -11.0479 0)
(197.511 -10.8929 0)
(197.744 -10.726 0)
(197.989 -10.5392 0)
(198.255 -10.3414 0)
(198.531 -10.1276 0)
(198.824 -9.90389 0)
(199.125 -9.66587 0)
(199.441 -9.42005 0)
(199.763 -9.16174 0)
(200.096 -8.89863 0)
(200.428 -8.62371 0)
(200.768 -8.34761 0)
(201.098 -8.05973 0)
(201.438 -7.77436 0)
(201.763 -7.47612 0)
(202.101 -7.18393 0)
(202.422 -6.87877 0)
(202.756 -6.58423 0)
(203.066 -6.27761 0)
(203.391 -5.98607 0)
(203.685 -5.68317 0)
(203.996 -5.39849 0)
(204.274 -5.10301 0)
(204.571 -4.8269 0)
(204.836 -4.54082 0)
(205.12 -4.27433 0)
(205.372 -3.99922 0)
(205.642 -3.74383 0)
(205.881 -3.48127 0)
(206.136 -3.23826 0)
(206.36 -2.98947 0)
(206.599 -2.75962 0)
(206.81 -2.52532 0)
(207.035 -2.30893 0)
(207.232 -2.08926 0)
(207.44 -1.88623 0)
(207.623 -1.68086 0)
(207.815 -1.49086 0)
(207.986 -1.29941 0)
(208.166 -1.12209 0)
(208.331 -0.944559 0)
(208.506 -0.779807 0)
(208.672 -0.616089 0)
(208.843 -0.463741 0)
(209.003 -0.313262 0)
(209.158 -0.172771 0)
(209.288 -0.03562 0)
(209.377 0.0979093 0)
(209.465 0.229722 0)
(209.463 0.346857 0)
(209.52 0.472375 0)
(209.502 0.564731 0)
(209.556 0.686912 0)
(209.58 0.678515 0)
(241.02 16.3827 0)
(230.748 -4.23922 0)
(223.555 -5.53919 0)
(219.763 -5.47726 0)
(217.191 -4.64482 0)
(215.009 -3.68508 0)
(213.236 -2.64685 0)
(211.868 -1.66882 0)
(210.907 -0.870469 0)
(210.337 -0.339669 0)
(210.082 -0.0834312 0)
(210.01 -0.00958682 0)
(210 -0.000291266 0)
(210 6.24966e-06 0)
(210 7.64838e-06 0)
(210 5.33139e-06 0)
(210 -5.61963e-07 0)
(210 -0.000373843 0)
(209.977 -0.0199875 0)
(209.674 -0.325697 0)
(208.496 -1.70764 0)
(206.876 -3.85203 0)
(205.904 -5.24383 0)
(205.69 -5.66017 0)
(205.778 -5.6871 0)
(205.864 -5.41594 0)
(205.603 -5.29842 0)
(204.866 -5.67797 0)
(203.987 -6.39418 0)