/*--------------------------------*- C++ -*----------------------------------*\
| =========                 |                                                 |
| \\      /  F ield         | OpenFOAM: The Open Source CFD Toolbox           |
|  \\    /   O peration     | Version:  2412                                  |
|   \\  /    A nd           | Website:  www.openfoam.com                      |
|    \\/     M anipulation  |                                                 |
\*---------------------------------------------------------------------------*/
FoamFile
{
    version     2.0;
    format      ascii;
    arch        "LSB;label=32;scalar=64";
    class       volScalarField;
    location    "0.029";
    object      T;
}
// * * * * * * * * * * * * * * * * * * * * * * * * * * * * * * * * * * * * * //

dimensions      [0 0 0 1 0 0 0];

internalField   nonuniform List<scalar> 
9831
(
223
223
223
223
223
223
223
223
223
223
223
223
223.002
223.036
223.236
223.672
224.062
224.226
224.205
224.028
223.617
223.212
222.925
222.741
222.629
222.547
222.456
222.346
222.224
222.102
221.988
221.883
221.79
221.706
221.631
221.563
221.504
221.455
221.414
221.375
221.335
221.288
221.237
221.188
221.153
221.14
221.143
221.163
221.198
221.242
221.29
221.334
221.373
221.404
221.428
221.445
221.457
221.463
221.465
221.463
221.457
221.446
221.43
221.409
221.383
221.351
221.312
221.265
221.209
221.143
221.065
220.974
220.867
220.744
220.601
220.437
220.25
220.036
219.794
219.519
219.211
218.863
218.472
218.033
217.542
216.996
216.392
215.721
214.975
214.153
213.256
212.277
211.195
209.998
208.696
207.297
205.802
204.205
202.498
200.669
198.757
196.751
194.667
192.531
190.26
188.023
185.893
183.832
181.799
179.762
177.753
175.881
174.127
172.465
171.017
169.708
168.665
167.83
167.288
166.993
165.369
223
223
223
223
223
223
223
223
223
223
223
223
223.001
223.021
223.174
223.581
224.017
224.229
224.229
224.111
223.733
223.318
223.014
222.82
222.7
222.617
222.531
222.428
222.31
222.191
222.078
221.977
221.886
221.806
221.734
221.668
221.611
221.563
221.524
221.49
221.458
221.423
221.381
221.336
221.295
221.27
221.263
221.271
221.293
221.331
221.377
221.425
221.472
221.514
221.55
221.581
221.605
221.624
221.639
221.649
221.655
221.656
221.653
221.644
221.631
221.612
221.588
221.556
221.516
221.467
221.408
221.337
221.253
221.153
221.037
220.901
220.745
220.565
220.358
220.124
219.858
219.557
219.217
218.834
218.403
217.92
217.381
216.781
216.115
215.381
214.57
213.667
212.664
211.569
210.391
209.119
207.742
206.248
204.603
202.852
201.001
199.096
197.079
195.069
193.008
190.839
188.675
186.434
184.233
182.128
180.03
178.025
176.108
174.219
172.456
170.871
169.635
168.764
168.223
167.966
166.322
223
223
223
223
223
223
223
223
223
223
223
223
223
223.012
223.122
223.484
223.953
224.226
224.253
224.182
223.848
223.43
223.109
222.901
222.77
222.685
222.603
222.508
222.396
222.281
222.171
222.072
221.985
221.909
221.84
221.778
221.722
221.674
221.636
221.605
221.579
221.552
221.522
221.486
221.449
221.417
221.401
221.4
221.41
221.437
221.477
221.525
221.575
221.624
221.67
221.712
221.749
221.781
221.808
221.831
221.85
221.863
221.873
221.877
221.877
221.872
221.862
221.846
221.822
221.79
221.749
221.698
221.635
221.558
221.466
221.357
221.23
221.081
220.909
220.711
220.484
220.226
219.933
219.6
219.223
218.799
218.323
217.793
217.202
216.545
215.815
215.002
214.102
213.117
212.043
210.866
209.584
208.188
206.692
205.092
203.356
201.539
199.614
197.577
195.516
193.304
191.084
188.844
186.539
184.286
182.07
179.941
177.889
175.918
174.034
172.255
170.742
169.493
168.713
168.35
166.574
223
223
223
223
223
223
223
223
223
223
223
223
223
223.006
223.08
223.385
223.87
224.209
224.276
224.238
223.964
223.554
223.213
222.984
222.839
222.751
222.676
222.589
222.486
222.375
222.269
222.173
222.089
222.016
221.951
221.892
221.838
221.791
221.753
221.723
221.699
221.678
221.657
221.632
221.604
221.576
221.554
221.546
221.548
221.563
221.593
221.635
221.685
221.737
221.79
221.841
221.888
221.932
221.972
222.007
222.038
222.065
222.087
222.105
222.118
222.126
222.13
222.129
222.12
222.105
222.082
222.05
222.007
221.953
221.885
221.802
221.702
221.584
221.444
221.282
221.094
220.878
220.631
220.348
220.026
219.66
219.247
218.783
218.264
217.684
217.033
216.305
215.498
214.614
213.645
212.572
211.396
210.106
208.711
207.199
205.571
203.792
201.931
199.937
197.901
195.779
193.528
191.311
188.995
186.691
184.443
182.195
179.998
177.887
175.904
174.106
172.544
171.162
170.075
169.364
166.994
223
223
223
223
223
223
223
223
223
223
223
223
223
223.003
223.049
223.291
223.769
224.173
224.29
224.284
224.08
223.686
223.321
223.067
222.908
222.818
222.748
222.672
222.578
222.474
222.372
222.279
222.198
222.128
222.066
222.01
221.958
221.912
221.874
221.844
221.821
221.804
221.789
221.773
221.757
221.737
221.718
221.706
221.704
221.711
221.732
221.766
221.81
221.862
221.917
221.974
222.029
222.083
222.134
222.181
222.225
222.264
222.299
222.33
222.357
222.379
222.397
222.409
222.417
222.418
222.412
222.399
222.376
222.343
222.297
222.239
222.166
222.076
221.967
221.838
221.686
221.509
221.304
221.067
220.794
220.482
220.127
219.726
219.274
218.765
218.193
217.554
216.847
216.061
215.182
214.197
213.114
211.927
210.649
209.256
207.751
206.134
204.38
202.512
200.504
198.485
196.307
194.078
191.828
189.464
187.14
184.768
182.372
180.105
177.884
175.862
174.157
172.725
171.701
171.04
168.672
223
223
223
223
223
223
223
223
223
223
223
223
223
223.001
223.027
223.205
223.652
224.115
224.293
224.328
224.19
223.824
223.434
223.153
222.981
222.887
222.825
222.759
222.675
222.578
222.481
222.391
222.313
222.245
222.186
222.132
222.083
222.038
222.001
221.97
221.948
221.931
221.92
221.911
221.904
221.896
221.885
221.876
221.873
221.877
221.89
221.916
221.953
222.001
222.056
222.114
222.175
222.236
222.296
222.354
222.409
222.461
222.509
222.552
222.592
222.627
222.659
222.687
222.709
222.726
222.737
222.741
222.737
222.725
222.702
222.667
222.619
222.557
222.478
222.381
222.264
222.125
221.961
221.769
221.546
221.287
220.989
220.649
220.262
219.823
219.328
218.772
218.147
217.445
216.657
215.781
214.822
213.767
212.613
211.337
209.95
208.437
206.794
205.029
203.114
201.093
198.988
196.727
194.461
192.109
189.675
187.28
184.816
182.443
180.052
177.719
175.642
173.888
172.672
171.911
169.345
223
223
223
223
223
223
223
223
223
223
223
223
223
223
223.013
223.133
223.525
224.031
224.289
224.368
224.286
223.958
223.549
223.244
223.061
222.962
222.904
222.848
222.776
222.687
222.595
222.508
222.432
222.367
222.309
222.257
222.21
222.166
222.13
222.1
222.078
222.062
222.053
222.049
222.049
222.05
222.05
222.049
222.05
222.056
222.067
222.088
222.119
222.16
222.211
222.269
222.332
222.397
222.463
222.53
222.595
222.658
222.718
222.774
222.826
222.875
222.921
222.962
223
223.032
223.06
223.081
223.095
223.102
223.101
223.089
223.066
223.029
222.978
222.912
222.827
222.722
222.596
222.445
222.266
222.056
221.811
221.527
221.201
220.829
220.406
219.929
219.389
218.778
218.09
217.321
216.467
215.515
214.461
213.291
212.013
210.613
209.092
207.445
205.664
203.717
201.658
199.479
197.183
194.898
192.428
189.979
187.485
185.023
182.58
180.238
178.074
176.158
174.628
173.515
170.284
223
223
223
223
223
223
223
223
223
223
223
223
223
223
223.006
223.079
223.396
223.92
224.273
224.401
224.351
224.088
223.678
223.349
223.15
223.041
222.986
222.939
222.879
222.801
222.714
222.63
222.555
222.491
222.435
222.384
222.338
222.297
222.261
222.233
222.212
222.197
222.189
222.188
222.193
222.201
222.21
222.219
222.228
222.24
222.254
222.274
222.302
222.339
222.385
222.44
222.501
222.568
222.638
222.711
222.784
222.856
222.926
222.994
223.058
223.12
223.179
223.234
223.286
223.334
223.377
223.415
223.448
223.473
223.491
223.501
223.501
223.49
223.467
223.429
223.376
223.305
223.215
223.104
222.969
222.806
222.612
222.384
222.118
221.81
221.456
221.052
220.589
220.061
219.465
218.797
218.051
217.214
216.281
215.238
214.09
212.821
211.436
209.925
208.284
206.502
204.568
202.519
200.335
198.053
195.689
193.155
190.607
187.906
185.261
182.681
180.353
178.363
176.815
175.704
172.517
223
223
223
223
223
223
223
223
223
223
223
223
223
223
223.002
223.042
223.276
223.783
224.23
224.415
224.397
224.214
223.82
223.466
223.246
223.124
223.069
223.032
222.984
222.917
222.836
222.753
222.679
222.614
222.559
222.511
222.467
222.427
222.393
222.367
222.348
222.335
222.329
222.33
222.338
222.351
222.367
222.385
222.403
222.424
222.445
222.47
222.499
222.534
222.578
222.629
222.689
222.755
222.826
222.902
222.981
223.06
223.139
223.216
223.292
223.365
223.436
223.505
223.571
223.633
223.692
223.746
223.795
223.839
223.877
223.907
223.928
223.941
223.943
223.933
223.91
223.87
223.814
223.739
223.643
223.523
223.376
223.199
222.988
222.74
222.451
222.116
221.731
221.289
220.787
220.215
219.564
218.823
217.99
217.056
216.023
214.873
213.608
212.212
210.683
209.012
207.187
205.204
203.083
200.784
198.504
196.018
193.547
190.867
188.172
185.405
182.723
180.343
178.372
176.953
172.929
223
223
223
223
223
223
223
223
223
223
223
223
223
223
223.001
223.02
223.175
223.628
224.149
224.414
224.434
224.33
223.971
223.594
223.349
223.213
223.157
223.127
223.089
223.031
222.956
222.874
222.8
222.737
222.683
222.637
222.596
222.558
222.527
222.503
222.486
222.476
222.473
222.477
222.487
222.503
222.524
222.547
222.574
222.603
222.634
222.667
222.701
222.74
222.783
222.834
222.891
222.955
223.026
223.103
223.185
223.27
223.355
223.441
223.526
223.61
223.692
223.773
223.852
223.928
224.001
224.071
224.136
224.198
224.253
224.303
224.346
224.381
224.406
224.422
224.427
224.418
224.395
224.355
224.297
224.219
224.117
223.989
223.831
223.64
223.412
223.143
222.828
222.462
222.04
221.554
220.998
220.366
219.656
218.855
217.961
216.955
215.836
214.589
213.21
211.694
210.028
208.202
206.228
204.062
201.725
199.271
196.658
194.043
191.342
188.691
186.003
183.602
181.485
179.845
175.45
223
223
223
223
223
223
223
223
223
223
223
223
223
223
223
223.008
223.1
223.469
224.028
224.392
224.469
224.42
224.119
223.731
223.461
223.309
223.246
223.217
223.186
223.137
223.07
222.992
222.92
222.858
222.806
222.763
222.724
222.69
222.661
222.64
222.626
222.62
222.62
222.627
222.64
222.659
222.682
222.71
222.742
222.779
222.819
222.861
222.904
222.949
222.996
223.049
223.106
223.17
223.24
223.318
223.401
223.489
223.579
223.671
223.764
223.857
223.949
224.041
224.132
224.221
224.308
224.392
224.473
224.55
224.624
224.692
224.754
224.81
224.859
224.898
224.928
224.947
224.954
224.947
224.924
224.884
224.823
224.739
224.629
224.491
224.32
224.114
223.868
223.579
223.239
222.844
222.384
221.855
221.251
220.56
219.778
218.889
217.89
216.769
215.523
214.144
212.616
210.942
209.108
207.13
204.944
202.615
200.097
197.508
194.703
191.886
188.937
186.26
183.982
182.302
178.089
223
223
223
223
223
223
223
223
223
223
223
223
223
223
223
223.003
223.051
223.323
223.875
224.343
224.489
224.48
224.263
223.885
223.584
223.406
223.33
223.299
223.273
223.236
223.181
223.11
223.041
222.981
222.931
222.89
222.855
222.825
222.799
222.781
222.769
222.767
222.771
222.781
222.797
222.818
222.844
222.875
222.911
222.953
222.999
223.05
223.102
223.155
223.21
223.267
223.328
223.393
223.464
223.541
223.626
223.715
223.809
223.906
224.005
224.105
224.206
224.307
224.408
224.509
224.608
224.706
224.801
224.894
224.983
225.069
225.15
225.226
225.296
225.358
225.413
225.458
225.493
225.516
225.526
225.523
225.502
225.461
225.397
225.308
225.192
225.044
224.861
224.638
224.371
224.052
223.677
223.241
222.736
222.153
221.487
220.722
219.858
218.878
217.778
216.546
215.169
213.642
211.945
210.082
208.049
205.799
203.356
200.764
197.968
195.155
192.125
189.343
186.733
184.621
179.358
223
223
223
223
223
223
223
223
223
223
223
223
223
223
223
223.001
223.023
223.201
223.703
224.256
224.487
224.529
224.397
224.045
223.707
223.5
223.407
223.374
223.355
223.332
223.291
223.23
223.164
223.105
223.057
223.019
222.988
222.962
222.94
222.924
222.916
222.916
222.924
222.937
222.956
222.98
223.009
223.042
223.081
223.126
223.178
223.235
223.295
223.356
223.419
223.484
223.55
223.62
223.694
223.773
223.858
223.95
224.046
224.147
224.251
224.356
224.464
224.574
224.684
224.795
224.906
225.016
225.124
225.231
225.336
225.438
225.536
225.63
225.72
225.803
225.88
225.95
226.011
226.063
226.102
226.13
226.143
226.144
226.121
226.079
226.012
225.918
225.793
225.635
225.438
225.198
224.909
224.566
224.161
223.686
223.134
222.495
221.765
220.926
219.977
218.9
217.686
216.329
214.805
213.122
211.255
209.206
206.965
204.493
201.857
199.058
196.184
193.351
190.758
188.58
183.305
223
223
223
223
223
223
223
223
223
223
223
223
223
223
223
223
223.009
223.113
223.526
224.129
224.466
224.575
224.506
224.194
223.827
223.595
223.485
223.45
223.437
223.425
223.401
223.35
223.288
223.232
223.186
223.151
223.125
223.103
223.084
223.072
223.067
223.069
223.081
223.097
223.118
223.145
223.177
223.212
223.254
223.302
223.356
223.418
223.483
223.552
223.622
223.695
223.769
223.844
223.923
224.006
224.094
224.188
224.287
224.391
224.498
224.609
224.722
224.838
224.957
225.077
225.197
225.318
225.438
225.558
225.677
225.794
225.908
226.02
226.127
226.231
226.329
226.421
226.507
226.585
226.653
226.712
226.758
226.791
226.809
226.812
226.791
226.748
226.677
226.578
226.445
226.275
226.063
225.802
225.485
225.106
224.659
224.132
223.522
222.812
221.999
221.064
219.999
218.791
217.419
215.892
214.181
212.284
210.167
207.802
205.275
202.402
199.485
196.336
193.563
191.293
185.899
223
223
223
223
223
223
223
223
223
223
223
223
223
223
223
223
223.003
223.057
223.363
223.97
224.429
224.604
224.572
224.334
223.957
223.697
223.566
223.525
223.518
223.516
223.506
223.469
223.415
223.362
223.319
223.287
223.264
223.246
223.232
223.222
223.219
223.224
223.238
223.257
223.281
223.31
223.344
223.383
223.427
223.477
223.535
223.599
223.669
223.743
223.819
223.899
223.98
224.064
224.149
224.237
224.329
224.427
224.529
224.636
224.748
224.863
224.981
225.103
225.228
225.356
225.485
225.616
225.747
225.878
226.009
226.14
226.269
226.396
226.52
226.642
226.759
226.873
226.981
227.082
227.177
227.263
227.339
227.405
227.458
227.496
227.517
227.522
227.502
227.458
227.385
227.28
227.138
226.953
226.721
226.436
226.091
225.676
225.187
224.608
223.935
223.149
222.245
221.206
220.018
218.676
217.153
215.453
213.546
211.421
209.065
206.512
203.763
200.767
197.733
195.087
189.137
223
223
223
223
223
223
223
223
223
223
223
223
223
223
223
223
223.001
223.025
223.231
223.792
224.361
224.611
224.615
224.461
224.094
223.802
223.649
223.599
223.595
223.603
223.606
223.586
223.543
223.495
223.454
223.424
223.404
223.39
223.379
223.372
223.37
223.379
223.395
223.416
223.443
223.475
223.512
223.554
223.601
223.653
223.713
223.78
223.853
223.93
224.012
224.097
224.185
224.275
224.367
224.462
224.56
224.662
224.769
224.88
224.995
225.114
225.237
225.364
225.495
225.629
225.766
225.905
226.046
226.187
226.33
226.472
226.615
226.756
226.896
227.034
227.169
227.302
227.43
227.554
227.672
227.784
227.888
227.984
228.07
228.144
228.204
228.247
228.273
228.281
228.262
228.217
228.14
228.026
227.873
227.675
227.424
227.113
226.734
226.275
225.729
225.081
224.324
223.44
222.417
221.241
219.888
218.357
216.618
214.673
212.47
210.012
207.29
204.57
201.502
199.082
193.878
223
223
223
223
223
223
223
223
223
223
223
223
223
223
223
223
223
223.01
223.136
223.614
224.252
224.6
224.651
224.568
224.23
223.904
223.732
223.672
223.67
223.689
223.704
223.697
223.667
223.624
223.586
223.556
223.539
223.528
223.52
223.516
223.516
223.528
223.547
223.571
223.601
223.636
223.676
223.721
223.771
223.827
223.889
223.958
224.033
224.114
224.199
224.288
224.382
224.478
224.577
224.678
224.782
224.89
225.002
225.119
225.239
225.362
225.49
225.622
225.758
225.898
226.042
226.188
226.337
226.488
226.64
226.794
226.948
227.103
227.257
227.409
227.561
227.71
227.857
228.001
228.141
228.276
228.405
228.527
228.642
228.748
228.843
228.925
228.991
229.041
229.072
229.082
229.066
229.019
228.937
228.816
228.65
228.429
228.151
227.802
227.378
226.864
226.254
225.528
224.676
223.681
222.523
221.197
219.664
217.923
215.923
213.705
211.212
208.588
205.55
202.709
196.974
223
223
223
223
223
223
223
223
223
223
223
223
223
223
223
223
223
223.004
223.075
223.452
224.116
224.568
224.687
224.646
224.351
224.003
223.817
223.746
223.745
223.773
223.799
223.8
223.781
223.745
223.709
223.681
223.665
223.657
223.653
223.653
223.656
223.67
223.692
223.72
223.753
223.792
223.836
223.884
223.937
223.996
224.06
224.132
224.21
224.294
224.382
224.475
224.573
224.674
224.778
224.886
224.996
225.11
225.228
225.35
225.475
225.604
225.736
225.873
226.014
226.159
226.309
226.462
226.618
226.777
226.939
227.102
227.267
227.433
227.599
227.765
227.931
228.096
228.26
228.421
228.581
228.737
228.888
229.036
229.177
229.311
229.438
229.554
229.658
229.75
229.824
229.88
229.916
229.929
229.913
229.863
229.775
229.642
229.461
229.221
228.917
228.533
228.063
227.487
226.797
225.971
224.992
223.849
222.512
220.975
219.191
217.178
214.905
212.41
209.737
207.15
202.19
223
223
223
223
223
223
223
223
223
223
223
223
223
223
223
223
223
223.001
223.039
223.32
223.969
224.522
224.71
224.694
224.458
224.104
223.904
223.82
223.816
223.849
223.886
223.892
223.882
223.855
223.823
223.797
223.783
223.779
223.779
223.783
223.79
223.806
223.831
223.862
223.899
223.941
223.989
224.04
224.097
224.158
224.226
224.301
224.382
224.468
224.56
224.656
224.757
224.863
224.972
225.084
225.201
225.32
225.444
225.572
225.703
225.837
225.974
226.116
226.262
226.412
226.568
226.727
226.89
227.056
227.226
227.397
227.572
227.748
227.926
228.104
228.283
228.462
228.64
228.818
228.995
229.169
229.341
229.51
229.675
229.835
229.989
230.135
230.273
230.4
230.515
230.615
230.698
230.761
230.802
230.817
230.803
230.749
230.655
230.509
230.306
230.033
229.685
229.243
228.699
228.033
227.231
226.274
225.135
223.804
222.243
220.447
218.343
216.003
213.392
210.625
205.789
223
223
223
223
223
223
223
223
223
223
223
223
223
223
223
223
223
223.001
223.02
223.22
223.824
224.461
224.716
224.729
224.553
224.205
223.988
223.888
223.878
223.914
223.965
223.98
223.976
223.958
223.931
223.909
223.897
223.896
223.901
223.908
223.918
223.936
223.964
223.998
224.038
224.084
224.134
224.19
224.249
224.314
224.385
224.462
224.546
224.637
224.731
224.831
224.935
225.044
225.158
225.275
225.396
225.521
225.651
225.784
225.921
226.061
226.203
226.35
226.501
226.656
226.817
226.982
227.151
227.324
227.5
227.679
227.862
228.047
228.235
228.424
228.614
228.805
228.997
229.189
229.381
229.572
229.762
229.951
230.136
230.319
230.498
230.671
230.838
230.997
231.147
231.286
231.412
231.523
231.615
231.684
231.73
231.748
231.733
231.673
231.567
231.401
231.175
230.869
230.478
229.979
229.361
228.599
227.669
226.555
225.218
223.64
221.789
219.739
217.371
214.926
210.679
223
223
223
223
223
223
223
223
223
223
223
223
223
223
223
223
223
223
223.01
223.15
223.694
224.391
224.709
224.761
224.636
224.3
224.06
223.947
223.931
223.973
224.041
224.066
224.068
224.057
224.036
224.017
224.008
224.009
224.019
224.029
224.041
224.062
224.092
224.129
224.172
224.22
224.274
224.332
224.395
224.463
224.536
224.617
224.704
224.798
224.896
224.999
225.107
225.219
225.336
225.458
225.583
225.713
225.847
225.986
226.128
226.274
226.422
226.574
226.729
226.89
227.055
227.225
227.4
227.579
227.761
227.948
228.138
228.331
228.527
228.726
228.926
229.128
229.332
229.537
229.742
229.949
230.154
230.36
230.564
230.766
230.967
231.164
231.356
231.544
231.724
231.897
232.06
232.211
232.349
232.47
232.571
232.648
232.699
232.719
232.702
232.635
232.518
232.33
232.071
231.713
231.251
230.654
229.906
228.986
227.859
226.502
224.883
222.988
220.789
218.338
214.563
223
223
223
223
223
223
223
223
223
223
223
223
223
223
223
223
223
223
223.005
223.104
223.586
224.318
224.697
224.791
224.705
224.378
224.118
223.999
223.981
224.031
224.117
224.153
224.158
224.152
224.135
224.12
224.113
224.117
224.132
224.144
224.16
224.184
224.217
224.256
224.301
224.352
224.408
224.469
224.535
224.605
224.681
224.765
224.856
224.952
225.054
225.161
225.272
225.388
225.508
225.633
225.762
225.896
226.035
226.178
226.326
226.477
226.63
226.787
226.948
227.113
227.283
227.458
227.638
227.822
228.01
228.203
228.399
228.6
228.804
229.011
229.22
229.432
229.645
229.861
230.079
230.298
230.517
230.737
230.958
231.178
231.397
231.614
231.829
232.041
232.249
232.451
232.646
232.833
233.01
233.175
233.324
233.457
233.568
233.653
233.708
233.729
233.709
233.628
233.489
233.266
232.959
232.537
231.987
231.277
230.374
229.252
227.871
226.197
224.261
221.926
218.598
223
223
223
223
223
223
223
223
223
223
223
223
223
223
223
223
223
223
223.003
223.076
223.505
224.254
224.689
224.82
224.755
224.436
224.166
224.047
224.032
224.09
224.192
224.239
224.247
224.242
224.229
224.215
224.21
224.219
224.238
224.254
224.274
224.302
224.338
224.38
224.428
224.481
224.539
224.603
224.67
224.743
224.822
224.908
225.001
225.101
225.206
225.316
225.43
225.549
225.673
225.801
225.933
226.071
226.213
226.361
226.514
226.669
226.827
226.989
227.155
227.324
227.499
227.679
227.863
228.052
228.246
228.444
228.647
228.853
229.064
229.278
229.495
229.715
229.938
230.163
230.391
230.621
230.853
231.086
231.321
231.556
231.791
232.027
232.261
232.494
232.725
232.952
233.175
233.393
233.603
233.805
233.997
234.176
234.339
234.484
234.605
234.697
234.758
234.779
234.753
234.66
234.5
234.239
233.875
233.37
232.697
231.823
230.685
229.249
227.52
225.351
222.284
223
223
223
223
223
223
223
223
223
223
223
223
223
223
223
223
223
223
223.002
223.061
223.45
224.205
224.688
224.845
224.788
224.476
224.206
224.092
224.082
224.15
224.266
224.322
224.333
224.327
224.315
224.302
224.3
224.315
224.338
224.359
224.384
224.416
224.456
224.502
224.553
224.608
224.669
224.734
224.803
224.878
224.958
225.046
225.142
225.245
225.353
225.465
225.582
225.704
225.831
225.962
226.098
226.238
226.384
226.536
226.692
226.852
227.015
227.181
227.351
227.526
227.705
227.889
228.078
228.271
228.47
228.673
228.88
229.093
229.309
229.53
229.754
229.981
230.212
230.445
230.682
230.922
231.164
231.409
231.655
231.903
232.153
232.403
232.654
232.905
233.156
233.405
233.651
233.895
234.135
234.369
234.596
234.815
235.022
235.217
235.395
235.554
235.686
235.787
235.852
235.873
235.837
235.717
235.514
235.186
234.718
234.068
233.166
231.985
230.471
228.509
225.711
223
223
223
223
223
223
223
223
223
223
223
223
223
223
223
223
223
223
223.002
223.054
223.421
224.179
224.694
224.863
224.809
224.504
224.239
224.133
224.131
224.211
224.34
224.402
224.415
224.409
224.396
224.386
224.387
224.407
224.434
224.46
224.489
224.526
224.571
224.621
224.675
224.733
224.796
224.863
224.934
225.01
225.092
225.181
225.279
225.383
225.493
225.608
225.728
225.853
225.983
226.116
226.255
226.398
226.547
226.702
226.862
227.026
227.193
227.363
227.537
227.716
227.899
228.087
228.28
228.478
228.681
228.889
229.101
229.318
229.54
229.766
229.996
230.23
230.467
230.708
230.953
231.201
231.452
231.706
231.963
232.222
232.484
232.747
233.013
233.279
233.546
233.813
234.08
234.346
234.61
234.871
235.128
235.38
235.626
235.862
236.088
236.3
236.495
236.669
236.813
236.922
236.991
237.009
236.956
236.808
236.558
236.162
235.562
234.704
233.433
231.693
229.081
223
223
223
223
223
223
223
223
223
223
223
223
223
223
223
223
223
223
223.002
223.053
223.416
224.177
224.703
224.879
224.823
224.519
224.267
224.17
224.176
224.273
224.412
224.478
224.494
224.489
224.477
224.468
224.474
224.497
224.529
224.559
224.592
224.634
224.683
224.737
224.794
224.855
224.92
224.989
225.062
225.139
225.222
225.313
225.412
225.518
225.63
225.747
225.869
225.996
226.128
226.265
226.406
226.552
226.704
226.861
227.025
227.192
227.362
227.536
227.714
227.897
228.084
228.276
228.473
228.674
228.881
229.093
229.31
229.531
229.758
229.989
230.224
230.464
230.707
230.954
231.206
231.461
231.72
231.983
232.249
232.517
232.789
233.064
233.341
233.621
233.902
234.185
234.469
234.754
235.038
235.322
235.604
235.884
236.161
236.433
236.698
236.955
237.201
237.433
237.646
237.838
237.997
238.12
238.195
238.211
238.139
237.95
237.607
237.054
236.089
234.741
232.322
223
223
223
223
223
223
223
223
223
223
223
223
223
223
223
223
223
223
223.002
223.055
223.431
224.2
224.721
224.891
224.831
224.523
224.29
224.203
224.218
224.338
224.484
224.551
224.569
224.567
224.557
224.552
224.561
224.588
224.622
224.655
224.691
224.737
224.79
224.847
224.908
224.973
225.04
225.111
225.185
225.264
225.349
225.441
225.541
225.648
225.762
225.88
226.004
226.134
226.268
226.407
226.55
226.699
226.853
227.014
227.18
227.35
227.524
227.701
227.882
228.068
228.259
228.455
228.655
228.861
229.071
229.287
229.507
229.733
229.964
230.199
230.44
230.684
230.933
231.186
231.443
231.705
231.971
232.24
232.514
232.791
233.072
233.357
233.645
233.935
234.229
234.525
234.824
235.124
235.426
235.729
236.032
236.335
236.638
236.939
237.237
237.531
237.819
238.099
238.368
238.625
238.861
239.076
239.251
239.383
239.454
239.455
239.346
239.093
238.512
237.706
235.792
223
223
223
223
223
223
223
223
223
223
223
223
223
223
223
223
223
223
223.003
223.064
223.471
224.25
224.746
224.896
224.829
224.521
224.309
224.236
224.262
224.404
224.553
224.618
224.638
224.641
224.636
224.635
224.648
224.679
224.714
224.748
224.787
224.835
224.891
224.952
225.017
225.084
225.155
225.228
225.304
225.385
225.471
225.564
225.665
225.774
225.889
226.009
226.135
226.266
226.403
226.543
226.689
226.839
226.996
227.16
227.328
227.501
227.678
227.858
228.043
228.232
228.426
228.625
228.829
229.038
229.252
229.471
229.695
229.925
230.16
230.399
230.644
230.893
231.146
231.404
231.667
231.934
232.206
232.483
232.763
233.048
233.337
233.63
233.927
234.228
234.532
234.839
235.15
235.464
235.781
236.1
236.421
236.744
237.068
237.393
237.718
238.042
238.365
238.684
238.999
239.306
239.603
239.888
240.152
240.395
240.591
240.744
240.831
240.838
240.615
240.223
239.14
223
223
223
223
223
223
223
223
223
223
223
223
223
223
223
223
223
223
223.004
223.082
223.533
224.318
224.776
224.898
224.813
224.511
224.326
224.27
224.313
224.475
224.619
224.68
224.701
224.708
224.708
224.712
224.732
224.766
224.802
224.837
224.878
224.928
224.986
225.05
225.117
225.188
225.261
225.337
225.416
225.499
225.587
225.683
225.786
225.896
226.012
226.133
226.261
226.394
226.532
226.674
226.822
226.975
227.134
227.299
227.47
227.646
227.825
228.008
228.195
228.388
228.585
228.787
228.994
229.206
229.424
229.646
229.874
230.107
230.346
230.589
230.838
231.091
231.349
231.611
231.879
232.152
232.43
232.712
232.999
233.291
233.587
233.887
234.192
234.502
234.816
235.133
235.455
235.781
236.11
236.443
236.779
237.119
237.461
237.806
238.153
238.502
238.853
239.203
239.554
239.902
240.247
240.587
240.918
241.237
241.531
241.803
242.029
242.231
242.344
242.264
241.989
223
223
223
223
223
223
223
223
223
223
223
223
223
223
223
223
223
223
223.006
223.11
223.62
224.399
224.81
224.899
224.783
224.492
224.34
224.305
224.376
224.554
224.686
224.737
224.756
224.765
224.771
224.782
224.808
224.846
224.883
224.919
224.962
225.014
225.074
225.14
225.21
225.284
225.361
225.44
225.522
225.607
225.698
225.796
225.901
226.012
226.13
226.253
226.382
226.516
226.656
226.8
226.949
227.104
227.265
227.433
227.606
227.784
227.965
228.151
228.341
228.536
228.736
228.941
229.151
229.367
229.587
229.813
230.044
230.281
230.523
230.77
231.022
231.279
231.541
231.808
232.08
232.358
232.641
232.929
233.221
233.519
233.822
234.129
234.442
234.759
235.081
235.408
235.739
236.075
236.415
236.76
237.109
237.463
237.82
238.182
238.547
238.916
239.289
239.664
240.042
240.422
240.803
241.184
241.562
241.935
242.299
242.652
242.984
243.306
243.585
243.762
243.932
223
223
223
223
223
223
223
223
223
223
223
223
223
223
223
223
223
223
223.01
223.152
223.728
224.488
224.844
224.896
224.743
224.467
224.35
224.341
224.448
224.637
224.755
224.795
224.809
224.818
224.827
224.844
224.876
224.917
224.956
224.994
225.039
225.093
225.156
225.224
225.297
225.373
225.453
225.536
225.621
225.71
225.804
225.904
226.011
226.124
226.243
226.367
226.498
226.633
226.775
226.92
227.071
227.228
227.391
227.561
227.736
227.915
228.099
228.287
228.48
228.677
228.88
229.088
229.301
229.519
229.743
229.972
230.206
230.446
230.691
230.942
231.197
231.458
231.724
231.995
232.272
232.554
232.842
233.134
233.433
233.736
234.045
234.359
234.678
235.002
235.332
235.666
236.006
236.351
236.701
237.056
237.416
237.781
238.151
238.526
238.906
239.291
239.68
240.074
240.473
240.874
241.28
241.687
242.096
242.505
242.909
243.306
243.688
244.065
244.399
244.674
244.943
223
223
223
223
223
223
223
223
223
223
223
223
223
223
223
223
223
223
223.017
223.212
223.854
224.577
224.875
224.887
224.697
224.445
224.356
224.377
224.527
224.72
224.823
224.854
224.863
224.87
224.881
224.903
224.94
224.984
225.024
225.064
225.111
225.169
225.234
225.304
225.378
225.457
225.54
225.625
225.714
225.806
225.904
226.007
226.116
226.231
226.351
226.477
226.608
226.746
226.888
227.035
227.187
227.346
227.511
227.683
227.859
228.041
228.226
228.416
228.611
228.811
229.016
229.227
229.442
229.663
229.89
230.122
230.359
230.602
230.85
231.104
231.363
231.627
231.896
232.171
232.452
232.739
233.031
233.328
233.631
233.94
234.254
234.573
234.898
235.229
235.565
235.907
236.254
236.607
236.965
237.328
237.697
238.072
238.452
238.837
239.228
239.624
240.026
240.432
240.843
241.257
241.676
242.097
242.519
242.939
243.355
243.762
244.151
244.53
244.86
245.125
245.334
223
223
223
223
223
223
223
223
223
223
223
223
223
223
223
223
223
223.001
223.03
223.293
223.994
224.657
224.9
224.874
224.647
224.429
224.366
224.416
224.606
224.795
224.885
224.909
224.916
224.923
224.936
224.962
225.003
225.048
225.088
225.13
225.181
225.241
225.308
225.38
225.456
225.537
225.622
225.71
225.802
225.898
225.998
226.105
226.216
226.333
226.454
226.581
226.714
226.852
226.996
227.144
227.297
227.458
227.625
227.798
227.976
228.159
228.346
228.538
228.735
228.938