/*--------------------------------*- C++ -*----------------------------------*\
| =========                 |                                                 |
| \\      /  F ield         | OpenFOAM: The Open Source CFD Toolbox           |
|  \\    /   O peration     | Version:  2412                                  |
|   \\  /    A nd           | Website:  www.openfoam.com                      |
|    \\/     M anipulation  |                                                 |
\*---------------------------------------------------------------------------*/
FoamFile
{
    version     2.0;
    format      ascii;
    arch        "LSB;label=32;scalar=64";
    class       volScalarField;
    location    "0.077";
    object      rho;
}
// * * * * * * * * * * * * * * * * * * * * * * * * * * * * * * * * * * * * * //

dimensions      [1 -3 0 0 0 0 0];

internalField   nonuniform List<scalar> 
78650
(
0.0446387
0.043266
0.0432552
0.043277
0.0433143
0.0433403
0.0433538
0.043351
0.0433328
0.0432959
0.0432422
0.0431671
0.0430778
0.042983
0.0428908
0.0428043
0.0427237
0.0426488
0.0425793
0.042516
0.0424587
0.0424071
0.0423604
0.0423175
0.0422761
0.0422348
0.0421922
0.0421479
0.0421024
0.0420565
0.0420111
0.0419668
0.0419235
0.0418815
0.0418407
0.0418016
0.0417642
0.0417289
0.0416957
0.0416649
0.0416366
0.041611
0.0415877
0.0415667
0.0415477
0.0415303
0.0415144
0.0414998
0.0414863
0.0414739
0.0414626
0.0414523
0.0414429
0.0414343
0.0414265
0.0414193
0.0414127
0.0414067
0.0414009
0.0413951
0.0413889
0.041382
0.0413742
0.0413652
0.041355
0.0413432
0.0413293
0.0413128
0.0412931
0.0412698
0.0412422
0.0412099
0.041172
0.041128
0.0410768
0.0410176
0.0409489
0.0408699
0.0407794
0.0406763
0.0405597
0.040428
0.0402798
0.0401132
0.0399265
0.0397173
0.0394841
0.0392254
0.0389397
0.0386245
0.038277
0.0378953
0.0374814
0.0370311
0.0365503
0.0360302
0.0354772
0.0348874
0.0342522
0.033573
0.0328688
0.0321602
0.0314467
0.0307198
0.0299741
0.0292185
0.0284544
0.0277445
0.0270401
0.0263853
0.0257842
0.0252167
0.024695
0.0242181
0.0237777
0.0233511
0.022953
0.0225555
0.0221965
0.0218842
0.0213307
0.0443285
0.0431888
0.0432157
0.0432512
0.0432991
0.043335
0.0433533
0.0433539
0.0433411
0.0433069
0.043253
0.0431774
0.0430871
0.0429905
0.0428966
0.0428084
0.0427263
0.0426501
0.0425799
0.0425162
0.0424587
0.0424069
0.0423606
0.0423187
0.0422791
0.0422402
0.0422003
0.0421587
0.0421157
0.042072
0.0420287
0.0419862
0.0419448
0.0419045
0.0418656
0.0418281
0.0417924
0.0417586
0.041727
0.0416978
0.041671
0.0416468
0.041625
0.0416055
0.0415881
0.0415725
0.0415585
0.0415459
0.0415345
0.0415244
0.0415155
0.0415077
0.0415009
0.0414951
0.0414901
0.0414859
0.0414824
0.0414796
0.0414773
0.0414752
0.0414729
0.0414702
0.0414668
0.0414625
0.0414573
0.0414507
0.0414425
0.0414321
0.0414191
0.041403
0.0413832
0.0413592
0.0413303
0.0412961
0.0412556
0.041208
0.0411521
0.0410869
0.0410113
0.0409244
0.0408252
0.0407125
0.0405846
0.0404399
0.0402769
0.0400935
0.0398884
0.0396595
0.0394042
0.0391196
0.0388034
0.0384538
0.0380711
0.0376517
0.0372007
0.0367109
0.0361906
0.0356282
0.0350322
0.0344024
0.0337332
0.0330417
0.0323158
0.0316006
0.0308591
0.0301393
0.0293728
0.0286374
0.0279176
0.0272081
0.0265531
0.0259081
0.0253037
0.0247609
0.0242601
0.0237981
0.0233744
0.0229482
0.0225465
0.0221703
0.0215588
0.0440126
0.0430763
0.0431492
0.0432086
0.0432696
0.0433203
0.0433464
0.0433522
0.0433437
0.0433133
0.0432593
0.0431833
0.0430925
0.0429946
0.0428992
0.0428091
0.0427263
0.0426495
0.0425789
0.0425149
0.0424571
0.0424055
0.0423596
0.0423186
0.0422808
0.0422443
0.0422073
0.0421687
0.0421284
0.0420872
0.042046
0.0420056
0.0419662
0.0419279
0.0418907
0.041855
0.041821
0.0417889
0.041759
0.0417314
0.0417063
0.0416836
0.0416633
0.0416454
0.0416296
0.0416157
0.0416036
0.041593
0.0415838
0.0415759
0.0415693
0.041564
0.0415599
0.0415567
0.0415545
0.0415534
0.041553
0.0415535
0.0415546
0.0415562
0.0415578
0.0415592
0.0415602
0.0415606
0.0415602
0.0415589
0.0415562
0.041552
0.0415455
0.0415362
0.041524
0.0415081
0.0414879
0.0414631
0.0414327
0.0413961
0.0413522
0.0413
0.0412384
0.0411666
0.0410836
0.0409882
0.0408791
0.0407547
0.0406136
0.0404538
0.0402735
0.0400707
0.039843
0.0395885
0.0393056
0.0389925
0.0386474
0.0382674
0.0378539
0.0374011
0.0369163
0.0363905
0.0358303
0.0352293
0.0345825
0.0339031
0.0331899
0.0324681
0.0317124
0.0309689
0.0302125
0.0294481
0.0287298
0.0279744
0.0272612
0.0265846
0.0259144
0.0253201
0.0247597
0.0242183
0.0237263
0.0232433
0.0228
0.0223971
0.0217317
0.0437037
0.0429272
0.0430431
0.0431335
0.0432174
0.0432866
0.0433283
0.0433444
0.0433398
0.0433144
0.0432618
0.0431863
0.043095
0.0429963
0.0428996
0.0428082
0.0427244
0.0426472
0.0425763
0.0425121
0.0424543
0.042403
0.0423577
0.0423177
0.0422816
0.0422476
0.0422136
0.0421783
0.042141
0.0421025
0.0420637
0.0420255
0.0419882
0.041952
0.0419168
0.0418829
0.0418506
0.0418202
0.041792
0.0417661
0.0417426
0.0417216
0.0417029
0.0416866
0.0416724
0.0416603
0.04165
0.0416413
0.0416341
0.0416283
0.041624
0.0416211
0.0416195
0.041619
0.0416196
0.0416213
0.041624
0.0416276
0.041632
0.0416371
0.0416425
0.041648
0.0416531
0.041658
0.0416623
0.041666
0.0416687
0.04167
0.0416698
0.0416672
0.0416623
0.0416542
0.0416422
0.0416264
0.0416057
0.0415797
0.0415473
0.0415076
0.0414597
0.0414026
0.0413355
0.0412573
0.0411669
0.0410628
0.0409435
0.040807
0.040652
0.0404763
0.0402781
0.0400556
0.039807
0.0395292
0.0392195
0.0388749
0.0384962
0.0380797
0.0376297
0.0371364
0.0366089
0.036039
0.035434
0.0347925
0.0341162
0.0333975
0.0326622
0.0318674
0.0311168
0.0303193
0.0295594
0.0287971
0.0280348
0.0273337
0.0266298
0.0259524
0.0253137
0.0247015
0.0241348
0.0236009
0.0231096
0.0226676
0.021889
0.0433939
0.0427322
0.0428854
0.0430181
0.0431344
0.0432258
0.0432887
0.0433198
0.043323
0.0433065
0.0432599
0.0431868
0.0430955
0.0429965
0.042898
0.042805
0.04272
0.0426422
0.0425711
0.0425071
0.0424495
0.0423987
0.0423544
0.0423157
0.0422815
0.04225
0.0422191
0.0421871
0.0421532
0.0421176
0.0420815
0.0420456
0.0420107
0.0419767
0.0419436
0.0419117
0.0418813
0.0418526
0.0418261
0.0418019
0.0417802
0.0417609
0.041744
0.0417294
0.0417169
0.0417065
0.041698
0.0416912
0.041686
0.0416823
0.0416802
0.0416797
0.0416806
0.0416828
0.0416861
0.0416905
0.0416961
0.0417029
0.0417106
0.0417192
0.0417283
0.0417376
0.041747
0.0417562
0.0417652
0.0417738
0.0417817
0.0417886
0.0417942
0.0417982
0.0417999
0.0417994
0.0417955
0.0417884
0.041777
0.041761
0.0417395
0.0417116
0.0416765
0.0416331
0.0415808
0.0415186
0.0414454
0.0413599
0.0412606
0.0411458
0.0410142
0.0408638
0.040693
0.0404997
0.0402816
0.0400357
0.0397597
0.0394512
0.0391099
0.0387323
0.0383216
0.0378717
0.0373882
0.0368595
0.0362916
0.0356811
0.0350301
0.0343329
0.0336255
0.0328638
0.0320892
0.0313065
0.0304649
0.0296835
0.0288758
0.0281137
0.0273991
0.0267152
0.0260472
0.0253945
0.0247663
0.0241503
0.0235695
0.0230452
0.0221124
0.0431216
0.0425162
0.0426701
0.0428348
0.0430029
0.0431351
0.0432258
0.0432755
0.0432911
0.0432848
0.0432506
0.0431829
0.0430924
0.0429935
0.0428936
0.0427991
0.0427132
0.0426348
0.042564
0.0425005
0.0424437
0.0423938
0.0423505
0.0423132
0.0422809
0.0422519
0.0422241
0.0421955
0.0421651
0.0421329
0.0420997
0.0420664
0.0420339
0.0420023
0.0419715
0.0419417
0.0419132
0.0418864
0.0418616
0.0418391
0.0418191
0.0418016
0.0417865
0.0417737
0.041763
0.0417544
0.0417477
0.0417428
0.0417395
0.0417379
0.041738
0.0417398
0.041743
0.0417476
0.0417536
0.0417608
0.0417694
0.0417791
0.0417901
0.041802
0.0418147
0.0418278
0.0418412
0.0418546
0.0418681
0.0418814
0.0418943
0.0419066
0.0419181
0.0419281
0.0419365
0.0419427
0.0419466
0.0419477
0.0419453
0.041939
0.0419281
0.0419114
0.0418886
0.0418586
0.0418208
0.0417741
0.0417179
0.0416507
0.0415714
0.0414783
0.0413699
0.0412446
0.0411004
0.0409355
0.0407477
0.0405343
0.0402933
0.0400225
0.0397205
0.0393845
0.0390151
0.0386054
0.0381589
0.0376674
0.037138
0.0365631
0.0359479
0.0352955
0.0345902
0.03387
0.0330728
0.0323105
0.031463
0.0306436
0.0298079
0.028955
0.0281389
0.027339
0.0266193
0.0259778
0.0253739
0.0247864
0.0242007
0.0236375
0.0226212
0.0429309
0.0423349
0.042439
0.0425949
0.0428046
0.0429915
0.0431271
0.0432074
0.0432403
0.0432447
0.0432254
0.0431679
0.0430812
0.0429838
0.0428837
0.042789
0.0427029
0.0426244
0.0425546
0.0424922
0.0424366
0.042388
0.0423461
0.0423104
0.0422799
0.0422533
0.0422285
0.0422034
0.0421767
0.042148
0.042118
0.0420875
0.0420576
0.0420284
0.042
0.0419725
0.0419461
0.0419212
0.0418982
0.0418775
0.0418593
0.0418436
0.0418303
0.0418194
0.0418106
0.0418039
0.0417991
0.0417961
0.0417949
0.0417953
0.0417976
0.0418014
0.041807
0.0418141
0.0418227
0.0418327
0.041844
0.0418568
0.0418708
0.041886
0.0419022
0.0419191
0.0419364
0.041954
0.0419718
0.0419897
0.0420076
0.0420251
0.042042
0.042058
0.0420728
0.0420861
0.0420972
0.0421059
0.0421119
0.0421146
0.0421137
0.042108
0.042097
0.0420794
0.042055
0.0420227
0.0419821
0.0419318
0.0418708
0.0417974
0.0417103
0.0416079
0.0414888
0.0413511
0.0411928
0.0410117
0.0408058
0.0405722
0.0403084
0.0400115
0.0396813
0.0393128
0.0389081
0.0384591
0.0379709
0.0374356
0.0368566
0.0362325
0.035566
0.0348631
0.0341224
0.0333391
0.032545
0.0317072
0.0309011
0.0300317
0.0292082
0.0283259
0.0274694
0.0266461
0.0258727
0.0251621
0.0245403
0.0240092
0.0229939
0.0428388
0.0422686
0.0422904
0.0423568
0.0425366
0.0427689
0.0429742
0.0431077
0.0431728
0.0431891
0.0431818
0.0431381
0.0430596
0.0429661
0.0428682
0.0427752
0.0426905
0.0426126
0.0425442
0.0424833
0.0424294
0.0423824
0.0423421
0.0423079
0.0422793
0.0422549
0.0422329
0.0422111
0.0421881
0.0421631
0.0421365
0.0421092
0.0420819
0.0420553
0.0420294
0.0420043
0.0419801
0.0419573
0.0419362
0.0419173
0.0419008
0.0418868
0.0418755
0.0418664
0.0418596
0.0418549
0.041852
0.041851
0.0418517
0.0418543
0.0418585
0.0418645
0.0418724
0.0418819
0.041893
0.0419056
0.0419197
0.0419353
0.0419523
0.0419707
0.0419903
0.0420108
0.0420319
0.0420535
0.0420755
0.0420978
0.0421204
0.0421429
0.0421651
0.0421868
0.0422077
0.0422274
0.0422456
0.042262
0.0422762
0.0422874
0.0422955
0.0422998
0.0423003
0.0422949
0.0422838
0.0422655
0.04224
0.0422062
0.0421631
0.0421092
0.0420432
0.0419637
0.0418692
0.0417579
0.0416279
0.041477
0.0413028
0.0411027
0.0408745
0.0406159
0.0403254
0.0399983
0.0396349
0.0392287
0.0387833
0.0382923
0.0377589
0.0371779
0.0365472
0.035871
0.0351552
0.0343654
0.0335815
0.0327249
0.0318852
0.0310141
0.0301744
0.0293484
0.0285168
0.0277133
0.0268621
0.0260319
0.0252183
0.0245036
0.0232243
0.0427971
0.0422698
0.0422278
0.0421974
0.0422843
0.0424874
0.0427408
0.0429548
0.0430765
0.0431239
0.0431273
0.0430985
0.043031
0.0429413
0.0428462
0.042756
0.0426737
0.0425977
0.0425316
0.042473
0.0424214
0.0423766
0.0423384
0.042306
0.0422791
0.0422568
0.0422374
0.0422187
0.0421993
0.042178
0.042155
0.0421308
0.0421065
0.0420826
0.0420592
0.0420366
0.0420148
0.0419942
0.0419751
0.041958
0.0419433
0.0419311
0.0419216
0.0419145
0.0419097
0.041907
0.0419062
0.0419073
0.0419101
0.0419146
0.0419209
0.0419291
0.0419391
0.041951
0.0419645
0.0419797
0.0419965
0.0420148
0.0420348
0.0420563
0.0420792
0.0421032
0.042128
0.0421535
0.0421796
0.0422063
0.0422334
0.0422607
0.0422881
0.0423153
0.042342
0.042368
0.0423929
0.0424165
0.0424382
0.0424579
0.0424751
0.0424889
0.042499
0.042505
0.0425063
0.0425013
0.0424901
0.0424714
0.0424446
0.0424084
0.0423617
0.042303
0.0422311
0.0421442
0.0420408
0.0419189
0.0417765
0.0416113
0.0414206
0.0412015
0.040952
0.0406685
0.0403511
0.039994
0.0395986
0.039157
0.0386719
0.0381396
0.037557
0.0369223
0.0362354
0.0355131
0.0347354
0.0339072
0.0329972
0.0321213
0.0311757
0.0302788
0.0293556
0.0285171
0.0276843
0.0269122
0.0261615
0.025446
0.0241196
0.0427663
0.0422921
0.0422256
0.0421473
0.0421421
0.0422361
0.0424551
0.0427236
0.0429325
0.0430407
0.0430679
0.0430551
0.043
0.0429142
0.0428217
0.0427344
0.0426544
0.0425809
0.0425176
0.0424618
0.0424131
0.0423711
0.0423353
0.0423049
0.0422798
0.0422593
0.0422423
0.0422265
0.0422104
0.0421928
0.0421733
0.0421525
0.0421312
0.0421102
0.0420895
0.0420694
0.04205
0.0420317
0.0420148
0.0419997
0.0419868
0.0419765
0.0419688
0.0419635
0.0419607
0.0419601
0.0419614
0.0419646
0.0419694
0.041976
0.0419844
0.0419947
0.0420069
0.042021
0.0420369
0.0420545
0.0420739
0.0420949
0.0421177
0.0421422
0.0421682
0.0421955
0.0422239
0.0422532
0.0422832
0.042314
0.0423454
0.0423774
0.0424097
0.0424421
0.0424744
0.0425063
0.0425376
0.042568
0.0425971
0.0426246
0.0426501
0.0426732
0.0426935
0.04271
0.0427222
0.0427298
0.0427323
0.0427285
0.0427178
0.0426991
0.0426712
0.0426328
0.0425827
0.0425197
0.042442
0.042348
0.0422354
0.0421017
0.0419446
0.0417616
0.0415509
0.0413095
0.0410363
0.0407252
0.0403768
0.0399844
0.0395497
0.0390651
0.038529
0.0379443
0.0373083
0.0366233
0.0358845
0.0350967
0.0342444
0.0333941
0.0324634
0.0314969
0.0305029
0.0294988
0.0285219
0.0275778
0.0267241
0.0259741
0.0245292
0.0427226
0.0423216
0.0422533
0.0421494
0.0420948
0.0421057
0.0422112
0.0424419
0.0427139
0.0429098
0.0429913
0.0429983
0.0429657
0.0428913
0.0428031
0.0427163
0.0426356
0.0425629
0.0425015
0.0424488
0.0424038
0.0423657
0.0423328
0.0423047
0.0422813
0.0422627
0.0422477
0.0422345
0.0422214
0.0422071
0.0421911
0.0421736
0.0421556
0.0421375
0.0421197
0.0421022
0.0420853
0.0420694
0.0420548
0.0420418
0.0420309
0.0420224
0.0420164
0.0420131
0.0420122
0.0420138
0.0420172
0.0420224
0.0420294
0.0420381
0.0420486
0.042061
0.0420754
0.0420917
0.0421099
0.04213
0.0421519
0.0421755
0.0422011
0.0422284
0.0422574
0.042288
0.0423198
0.0423528
0.0423866
0.0424214
0.042457
0.0424934
0.0425304
0.0425678
0.0426054
0.042643
0.0426804
0.0427173
0.0427533
0.0427883
0.0428218
0.0428535
0.0428829
0.0429094
0.0429327
0.0429518
0.0429663
0.0429756
0.0429795
0.042977
0.0429664
0.0429471
0.0429169
0.0428757
0.0428217
0.0427535
0.0426691
0.0425665
0.0424433
0.0422973
0.0421261
0.0419266
0.0416968
0.0414314
0.0411299
0.0407852
0.0403981
0.0399611
0.0394745
0.0389382
0.0383469
0.0377013
0.0369922
0.0362326
0.0354342
0.0345621
0.0336693
0.0327246
0.0318039
0.0308492
0.0298799
0.0288845
0.027864
0.0269269
0.0251915
0.0426616
0.0423439
0.0422955
0.0421849
0.0420989
0.0420664
0.0420857
0.0422031
0.0424408
0.0427034
0.0428769
0.0429339
0.0429234
0.0428688
0.0427897
0.0427053
0.042624
0.0425509
0.0424892
0.0424377
0.0423954
0.042361
0.042331
0.0423052
0.0422839
0.0422669
0.0422537
0.0422428
0.0422324
0.0422212
0.0422084
0.0421942
0.0421793
0.0421644
0.0421496
0.042135
0.0421207
0.0421072
0.0420949
0.0420842
0.0420753
0.0420688
0.0420647
0.0420632
0.0420643
0.0420678
0.0420733
0.0420807
0.0420898
0.0421007
0.0421133
0.0421279
0.0421443
0.0421628
0.0421833
0.0422057
0.0422299
0.0422561
0.0422842
0.0423143
0.0423462
0.0423798
0.0424149
0.0424513
0.0424888
0.0425273
0.0425669
0.0426075
0.042649
0.0426912
0.0427338
0.0427768
0.0428198
0.0428628
0.0429054
0.0429473
0.0429884
0.0430281
0.0430663
0.0431023
0.0431356
0.0431658
0.0431924
0.0432148
0.0432321
0.043244
0.0432498
0.0432491
0.0432386
0.0432189
0.0431871
0.0431435
0.0430856
0.0430118
0.0429197
0.0428071
0.0426716
0.0425105
0.0423217
0.0421007
0.0418465
0.0415525
0.0412191
0.0408389
0.040413
0.0399362
0.0394001
0.0388076
0.038154
0.0374451
0.036666
0.0358169
0.0348999
0.0339281
0.0329475
0.0318766
0.0308647
0.029882
0.0289155
0.0280375
0.0263663
0.0425923
0.0423531
0.0423338
0.0422432
0.0421335
0.0420709
0.0420531
0.042077
0.0422046
0.0424396
0.0426788
0.0428187
0.042858
0.0428399
0.0427776
0.0426981
0.0426185
0.042546
0.0424828
0.0424299
0.0423884
0.0423563
0.0423293
0.0423062
0.042287
0.0422717
0.0422601
0.0422512
0.0422431
0.0422347
0.0422249
0.0422137
0.042202
0.0421903
0.0421786
0.042167
0.0421555
0.0421445
0.0421347
0.0421262
0.0421195
0.042115
0.0421129
0.0421132
0.0421164
0.0421218
0.0421293
0.0421388
0.0421501
0.0421632
0.042178
0.0421946
0.0422132
0.0422339
0.0422565
0.0422812
0.0423078
0.0423364
0.042367
0.0423997
0.0424344
0.0424709
0.0425091
0.0425488
0.0425898
0.042632
0.0426755
0.0427201
0.0427659
0.0428125
0.04286
0.042908
0.0429565
0.0430052
0.043054
0.0431025
0.0431506
0.0431979
0.0432442
0.0432889
0.0433317
0.0433721
0.0434096
0.0434437
0.043474
0.0434999
0.0435202
0.0435344
0.0435416
0.0435421
0.0435314
0.043511
0.0434777
0.0434311
0.0433687
0.0432887
0.0431885
0.0430655
0.0429177
0.042741
0.0425341
0.0422907
0.0420108
0.0416873
0.04132
0.0409008
0.0404255
0.0398958
0.0393052
0.0386566
0.0379364
0.0371492
0.0362989
0.0353937
0.0344223
0.0333633
0.0322485
0.0310839
0.0299074
0.0288482
0.0268624
0.0425252
0.0423563
0.0423575
0.0422991
0.0421892
0.042096
0.0420548
0.0420512
0.0420819
0.0422114
0.0424265
0.0426308
0.0427421
0.0427701
0.0427426
0.0426808
0.0426098
0.0425424
0.0424808
0.0424264
0.0423848
0.0423531
0.042328
0.0423073
0.0422903
0.0422767
0.0422668
0.0422597
0.0422538
0.0422479
0.0422409
0.0422325
0.0422237
0.0422151
0.0422065
0.042198
0.0421895
0.0421812
0.0421739
0.0421677
0.0421633
0.0421609
0.0421607
0.0421633
0.0421682
0.0421756
0.0421851
0.0421967
0.0422101
0.0422253
0.0422423
0.0422611
0.0422818
0.0423045
0.0423293
0.0423562
0.0423851
0.042416
0.042449
0.0424842
0.0425214
0.0425607
0.0426019
0.0426447
0.042689
0.0427347
0.0427817
0.0428301
0.0428798
0.0429307
0.0429826
0.0430354
0.043089
0.0431431
0.0431976
0.0432523
0.0433069
0.0433613
0.0434151
0.043468
0.0435197
0.0435696
0.0436174
0.0436626
0.0437048
0.0437436
0.0437783
0.0438082
0.0438317
0.0438487
0.0438582
0.0438599
0.0438499
0.0438289
0.0437936
0.0437431
0.0436749
0.0435869
0.0434771
0.0433423
0.0431802
0.0429853
0.0427566
0.0424865
0.0421741
0.0418105
0.0413947
0.040925
0.0403914
0.0397933
0.0391235
0.0383955
0.0375962
0.0367216
0.0357722
0.0347687
0.0336928
0.0326586
0.0315195
0.0304523
0.0284026
0.0424621
0.0423561
0.0423689
0.0423377
0.042247
0.0421428
0.0420766
0.0420551
0.0420619
0.0420985
0.0422154
0.0423921
0.0425539
0.0426435
0.042672
0.0426516
0.0425982
0.0425374
0.0424789
0.0424251
0.0423831
0.0423507
0.0423267
0.0423079
0.0422931
0.0422813
0.0422731
0.0422677
0.0422639
0.0422604
0.042256
0.0422502
0.0422441
0.0422383
0.0422328
0.0422275
0.0422221
0.0422167
0.042212
0.0422083
0.0422061
0.0422058
0.042208
0.0422124
0.0422194
0.0422287
0.0422403
0.0422539
0.0422694
0.0422867
0.0423057
0.0423266
0.0423495
0.0423743
0.0424013
0.0424303
0.0424614
0.0424946
0.0425299
0.0425674
0.0426072
0.0426491
0.042693
0.0427388
0.0427863
0.0428352
0.0428857
0.0429377
0.0429912
0.0430461
0.0431023
0.0431595
0.0432178
0.043277
0.0433369
0.0433973
0.0434581
0.043519
0.0435799
0.0436403
0.0437001
0.0437588
0.043816
0.0438713
0.0439245
0.043975
0.0440224
0.0440659
0.0441049
0.0441386
0.0441655
0.0441852
0.0441967
0.0441997
0.0441904
0.0441685
0.044131
0.0440766
0.0440031
0.0439075
0.0437876
0.0436383
0.043458
0.0432397
0.0429826
0.0426788
0.0423279
0.041923
0.0414556
0.0409258
0.0403261
0.0396602
0.0389075
0.0380758
0.0371549
0.0361547
0.0350795
0.033947
0.0326819
0.0315555
0.0294944
0.0423984
0.0423518
0.0423751
0.0423627
0.0422981
0.0422004
0.0421194
0.0420777
0.0420696
0.0420821
0.0421139
0.0422001
0.0423273
0.0424495
0.042533
0.0425662
0.0425576
0.0425228
0.0424724
0.0424228
0.0423814
0.0423489
0.0423257
0.0423085
0.0422956
0.0422856
0.042279
0.0422751
0.0422733
0.0422723
0.0422703
0.042267
0.0422632
0.04226
0.0422574
0.0422554
0.0422532
0.0422508
0.0422488
0.0422477
0.0422477
0.0422498
0.042254
0.0422606
0.0422697
0.0422811
0.0422946
0.0423102
0.0423278
0.0423471
0.0423682
0.0423912
0.0424161
0.042443
0.042472
0.0425031
0.0425364
0.0425717
0.0426092
0.042649
0.0426912
0.0427355
0.0427821
0.0428306
0.042881
0.0429331
0.0429867
0.0430421
0.0430991
0.0431577
0.0432178
0.0432792
0.0433419
0.0434057
0.0434706
0.0435363
0.0436028
0.0436697
0.043737
0.0438044
0.0438717
0.0439384
0.0440043
0.044069
0.0441323
0.0441937
0.0442529
0.0443093
0.0443624
0.0444111
0.0444549
0.044493
0.0445238
0.0445467
0.0445606
0.0445649
0.0445558
0.0445322
0.0444919
0.0444324
0.044352
0.0442463
0.0441136
0.0439477
0.0437478
0.043506
0.0432211
0.0428835
0.0424885
0.0420346
0.0415115
0.0409171
0.0402355
0.0394816
0.0386413
0.0377209
0.0366989
0.0356034
0.0343435
0.033126
0.0308967
0.0423326
0.0423462
0.042382
0.0423803
0.04234
0.0422562
0.0421733
0.0421171
0.0420927
0.0420894
0.0420981
0.0421141
0.0421556
0.0422308
0.0423291
0.0424183
0.0424651
0.0424708
0.0424449
0.0424085
0.042375
0.0423464
0.0423251
0.0423084
0.0422961
0.0422884
0.0422836
0.0422814
0.0422815
0.0422828
0.0422833
0.0422825
0.042281
0.0422801
0.0422802
0.0422812
0.0422822
0.0422831
0.0422839
0.0422854
0.042288
0.0422923
0.0422986
0.0423074
0.0423186
0.0423321
0.0423477
0.0423654
0.0423849
0.0424062
0.0424293
0.0424543
0.0424812
0.0425102
0.0425412
0.0425744
0.0426097
0.0426471
0.0426868
0.0427288
0.0427731
0.0428199
0.0428689
0.04292
0.0429732
0.0430281
0.0430848
0.0431433
0.0432037
0.0432658
0.0433295
0.0433948
0.0434616
0.0435298
0.0435993
0.0436699
0.0437416
0.0438141
0.0438874
0.0439612
0.0440353
0.0441093
0.0441832
0.0442565
0.0443289
0.0444001
0.0444699
0.0445379
0.0446034
0.0446658
0.0447245
0.0447785
0.0448274
0.04487
0.044905
0.0449312
0.0449475
0.0449531
0.0449443
0.0449192
0.0448761
0.0448113
0.0447231
0.0446059
0.0444584
0.0442724
0.044046
0.0437693
0.0434406
0.0430533
0.0425963
0.0420684
0.0414605
0.0407775
0.0399965
0.0391239
0.0381455
0.0370612
0.0358821
0.0347168
0.0326902
0.0422774
0.0423391
0.0423863
0.0423935
0.0423714
0.0423036
0.0422247
0.0421635
0.042127
0.0421094
0.0421038
0.0420964
0.0420816
0.0420797
0.0421221
0.0422117
0.0423076
0.0423696
0.042394
0.0423851
0.0423624
0.0423407
0.0423218
0.0423061
0.0422956
0.0422902
0.0422872
0.0422864
0.0422882
0.0422918
0.0422949
0.0422965
0.0422974
0.0422987
0.0423012
0.042305
0.0423092
0.0423133
0.0423172
0.0423214
0.0423266
0.0423332
0.0423417
0.0423527
0.042366
0.0423817
0.0423995
0.0424192
0.0424407
0.0424639
0.042489
0.0425159
0.0425447
0.0425756
0.0426086
0.0426438
0.0426811
0.0427206
0.0427623
0.0428063
0.0428528
0.0429018
0.0429531
0.0430067
0.0430624
0.0431201
0.0431796
0.043241
0.0433044
0.0433697
0.0434368
0.0435057
0.0435762
0.0436484
0.0437221
0.0437972
0.0438737
0.0439513
0.0440299
0.0441095
0.0441898
0.0442706
0.0443516
0.0444326
0.0445133
0.0445936
0.044673
0.0447515
0.0448284
0.0449033
0.0449755
0.0450444
0.0451093
0.0451694
0.0452238
0.0452716
0.0453109
0.0453404
0.045359
0.0453657
0.0453572
0.0453303
0.0452831
0.0452106
0.0451117
0.0449787
0.0448103
0.0445975
0.044339
0.0440245
0.0436462
0.0432018
0.0426807
0.0420803
0.0413803
0.0405835
0.0396613
0.0386261
0.0374661
0.0362039
0.0341378
0.0422378
0.0423248
0.0423853
0.0424046
0.0423936
0.0423416
0.0422689
0.0422081
0.042166
0.0421385
0.0421189
0.0420995
0.0420627
0.0420109
0.0419891
0.0420194
0.0421056
0.0422069
0.0422869
0.0423214
0.0423249
0.0423189
0.0423101
0.0423011
0.0422942
0.0422905
0.0422888
0.0422899
0.0422939
0.0422993
0.0423047
0.042309
0.0423122
0.0423157
0.0423205
0.0423269
0.0423342
0.0423414
0.0423484
0.0423555
0.0423633
0.0423723
0.0423831
0.0423962
0.0424117
0.0424295
0.0424494
0.0424712
0.0424947
0.0425199
0.0425469
0.0425757
0.0426064
0.0426391
0.042674
0.0427111
0.0427503
0.0427918
0.0428354
0.0428815
0.04293
0.0429811
0.0430346
0.0430905
0.0431486
0.0432087
0.0432709
0.0433351
0.0434013
0.0434696
0.0435398
0.043612
0.043686
0.0437618
0.0438394
0.0439186
0.0439995
0.0440817
0.0441653
0.0442502
0.0443361
0.0444229
0.0445104
0.0445984
0.0446867
0.044775
0.0448631
0.0449509
0.045038
0.0451239
0.0452081
0.0452901
0.0453692
0.045445
0.0455165
0.045583
0.0456433
0.0456963
0.04574
0.0457732
0.0457945
0.0458027
0.045794
0.0457636
0.0457111
0.0456292
0.0455179
0.0453676
0.0451769
0.0449343
0.0446354
0.0442734
0.0438347
0.0433144
0.0426998
0.0419906
0.0411653
0.0402404
0.0391431
0.0379889
0.036121
0.0422088
0.0423055
0.0423828
0.0424127
0.0424088
0.0423719
0.0423073
0.0422489
0.0422048
0.042171
0.0421409
0.042109
0.0420575
0.0419893
0.0419248
0.0418986
0.0419273
0.0420139
0.0421247
0.0422161
0.0422648
0.0422878
0.0422941
0.0422911
0.042289
0.042288
0.0422884
0.0422921
0.0422985
0.0423056
0.0423128
0.0423195
0.0423252
0.0423309
0.042338
0.042347
0.0423572
0.0423675
0.0423775
0.0423876
0.042398
0.0424095
0.0424227
0.0424379
0.0424555
0.0424755
0.0424977
0.0425216
0.0425471
0.0425743
0.0426031
0.0426336
0.0426661
0.0427007
0.0427374
0.0427763
0.0428174
0.0428607
0.0429063
0.0429542
0.0430047
0.0430577
0.0431133
0.0431713
0.0432317
0.0432942
0.0433588
0.0434255
0.0434943
0.0435653
0.0436384
0.0437136
0.0437908
0.0438699
0.043951
0.044034
0.0441187
0.0442051
0.0442932
0.0443827
0.0444737
0.0445659
0.0446592
0.0447534
0.0448484
0.0449439
0.0450397
0.0451358
0.0452319
0.0453277
0.0454226
0.0455163
0.0456082
0.0456979
0.0457847
0.0458679
0.0459467
0.0460199
0.0460864
0.046145
0.0461938
0.0462309
0.0462549
0.0462641
0.0462548
0.0462204
0.0461608
0.0460659
0.045936
0.0457588
0.0455319
0.0452431
0.0448824
0.0444469
0.043924
0.043301
0.042556
0.0416736
0.0406256
0.0394454
0.0377355
0.0421875
0.0422854
0.042379
0.0424186
0.0424203
0.0423967
0.0423416
0.0422863
0.0422413
0.0422022
0.0421634
0.0421198
0.0420592
0.041982
0.0418997
0.0418375
0.0418164
0.04185
0.0419436
0.0420634
0.0421628
0.0422253
0.0422576
0.0422694
0.0422751
0.0422821
0.042287
0.0422931
0.0423017
0.0423109
0.0423195
0.0423281
0.0423362
0.0423445
0.042354
0.0423654
0.0423784
0.0423916
0.0424047
0.0424176
0.0424307
0.0424448
0.0424602
0.0424777
0.0424974
0.0425196
0.0425438
0.0425699
0.0425975
0.0426266
0.0426572
0.0426895
0.0427238
0.04276
0.0427985
0.0428391
0.042882
0.0429271
0.0429745
0.0430242
0.0430765
0.0431315
0.043189
0.043249
0.0433114
0.0433761
0.0434429
0.043512
0.0435832
0.0436567
0.0437325
0.0438104
0.0438904
0.0439726
0.0440569
0.0441432
0.0442315
0.0443217
0.0444137
0.0445075
0.044603
0.0447001
0.0447986
0.0448983
0.0449993
0.0451012
0.0452039
0.0453074
0.0454114
0.0455158
0.0456201
0.045724
0.0458271
0.0459289
0.0460291
0.046127
0.046222
0.046313
0.0463993
0.0464797
0.0465529
0.0466179
0.046672
0.0467133
0.0467398
0.0467494
0.0467375
0.0466956
0.0466251
0.0465138
0.0463615
0.0461536
0.0458835
0.0455429
0.0451153
0.0445906
0.0439498
0.0431664
0.0422408
0.0411081
0.0395771
0.0421727
0.0422673
0.0423732
0.0424232
0.0424314
0.042417
0.0423719
0.0423203
0.0422743
0.0422296
0.0421823
0.0421267
0.0420591
0.0419782
0.0418892
0.0418091
0.0417593
0.0417488
0.0417921
0.0418968
0.0420236
0.0421326
0.0422025
0.0422378
0.0422587
0.042272
0.0422821
0.0422917
0.0423029
0.0423143
0.0423249
0.0423353
0.0423458
0.0423566
0.0423686
0.0423826
0.0423981
0.0424142
0.04243
0.0424456
0.0424615
0.0424781
0.042496
0.0425157
0.0425376
0.0425619
0.0425883
0.0426164
0.0426461
0.0426771
0.0427095
0.0427435
0.0427794
0.0428173
0.0428574
0.0428997
0.0429443
0.0429911
0.0430402
0.0430917
0.0431457
0.0432024
0.0432617
0.0433236
0.043388
0.0434547
0.0435236
0.0435948
0.0436682
0.043744
0.0438222
0.0439026
0.0439853
0.0440702
0.0441573
0.0442466
0.0443381
0.0444317
0.0445273
0.0446249
0.0447244
0.0448257
0.0449288
0.0450334
0.0451396
0.0452471
0.0453558
0.0454658
0.0455768
0.0456887
0.0458012
0.045914
0.0460268
0.0461392
0.046251
0.0463616
0.0464706
0.0465773
0.0466808
0.0467802
0.0468747
0.0469632
0.0470439
0.0471157
0.0471753
0.0472207
0.0472496
0.0472593
0.0472443
0.047195
0.0471111
0.0469776
0.0467918
0.0465399
0.0462065
0.045783
0.0452376
0.0445428
0.0436963
0.0426367
0.0412208
0.0421631
0.0422526
0.0423666
0.0424271
0.042442
0.042434
0.0423987
0.0423511
0.0423037
0.0422519
0.0421934
0.0421279
0.0420546
0.0419712
0.0418823
0.0417962
0.0417288
0.0416948
0.0416978
0.0417559
0.0418737
0.0420096
0.04212
0.0421898
0.0422297
0.0422544
0.0422722
0.0422869
0.042301
0.0423157
0.0423292
0.0423416
0.0423545
0.0423679
0.0423823
0.0423985
0.0424164
0.042435
0.0424534
0.0424717
0.0424901
0.0425093
0.0425296
0.0425517
0.0425758
0.0426022
0.0426306
0.0426609
0.0426925
0.0427254
0.0427596
0.0427954
0.0428329
0.0428724
0.0429141
0.042958
0.0430041
0.0430525
0.0431033
0.0431564
0.0432121
0.0432705
0.0433315
0.0433952
0.0434613
0.0435299
0.0436008
0.0436739
0.0437494
0.0438273
0.0439076
0.0439903
0.0440753
0.0441626
0.0442523
0.0443443
0.0444386
0.0445352
0.044634
0.0447349
0.0448379
0.044943
0.0450501
0.045159
0.0452698
0.0453822
0.0454962
0.0456117
0.0457288
0.0458472
0.0459668
0.0460873
0.0462085
0.0463301
0.0464518
0.0465734
0.0466944
0.0468143
0.0469326
0.0470485
0.0471612
0.0472699
0.0473735
0.0474708
0.0475597
0.0476391
0.0477046
0.047754
0.0477846
0.0477927
0.04777
0.0477058
0.0475971
0.0474286
0.0471888
0.046868
0.0464277
0.0458449
0.0450946
0.0441267
0.0428353
0.0421572
0.0422417
0.0423609
0.0424316
0.0424519
0.0424485
0.0424222
0.0423784
0.0423281
0.0422674
0.0421961
0.0421217
0.0420429
0.0419594
0.0418732
0.0417882
0.0417133
0.0416636
0.0416455
0.0416636
0.0417427
0.0418756
0.0420151
0.0421213
0.0421905
0.0422321
0.0422583
0.0422787
0.0422979
0.0423167
0.0423334
0.0423481
0.042363
0.0423786
0.0423951
0.0424134
0.0424335
0.0424544
0.0424753
0.0424961
0.0425171
0.0425388
0.0425617
0.0425861
0.0426125
0.0426409
0.0426714
0.0427036
0.0427372
0.0427719
0.0428079
0.0428452
0.0428843
0.0429253
0.0429685
0.0430139
0.0430616
0.0431115
0.0431638
0.0432185
0.0432758
0.0433358
0.0433984
0.0434637
0.0435316
0.0436018
0.0436745
0.0437495
0.0438268
0.0439066
0.0439889
0.0440736
0.0441607
0.0442503
0.0443423
0.0444367
0.0445336
0.0446328
0.0447343
0.0448382
0.0449444
0.0450528
0.0451634
0.0452761
0.0453908
0.0455075
0.045626
0.0457465
0.0458687
0.0459928
0.0461184
0.0462455
0.0463739
0.0465032
0.0466335
0.0467643
0.0468956
0.0470268
0.0471576
0.0472873
0.0474155
0.0475414
0.0476644
0.0477834
0.0478971
0.0480041
0.0481018
0.048189
0.0482604
0.0483142
0.0483467
0.0483532
0.0483205
0.0482424
0.0481056
0.0479009
0.0475844
0.0471302
0.0464727
0.045592
0.0443837
0.0421541
0.0422349
0.0423579
0.0424372
0.0424618
0.0424617
0.0424428
0.0424012
0.0423456
0.0422739
0.0421915
0.0421063
0.0420234
0.0419417
0.0418597
0.0417793
0.0417045
0.0416461
0.0416147
0.041612
0.0416488
0.0417526
0.0418987
0.0420361
0.0421362
0.0421984
0.0422378
0.0422667
0.0422925
0.0423162
0.0423371
0.0423544
0.0423711
0.0423885
0.0424071
0.0424274
0.0424495
0.0424726