/*--------------------------------*- C++ -*----------------------------------*\
| =========                 |                                                 |
| \\      /  F ield         | OpenFOAM: The Open Source CFD Toolbox           |
|  \\    /   O peration     | Version:  2412                                  |
|   \\  /    A nd           | Website:  www.openfoam.com                      |
|    \\/     M anipulation  |                                                 |
\*---------------------------------------------------------------------------*/
FoamFile
{
    version     2.0;
    format      ascii;
    arch        "LSB;label=32;scalar=64";
    class       volScalarField;
    location    "0.094";
    object      rho;
}
// * * * * * * * * * * * * * * * * * * * * * * * * * * * * * * * * * * * * * //

dimensions      [1 -3 0 0 0 0 0];

internalField   nonuniform List<scalar> 
78650
(
0.0489568
0.0438643
0.0434669
0.0433167
0.043167
0.0430316
0.0429135
0.0428158
0.0427384
0.042676
0.0426244
0.0425782
0.0425321
0.0424811
0.0424238
0.0423631
0.0423058
0.0422582
0.0422235
0.0422
0.0421827
0.0421668
0.0421491
0.042127
0.0420992
0.0420654
0.0420263
0.0419833
0.0419379
0.0418922
0.0418478
0.041806
0.0417668
0.0417304
0.0416963
0.0416644
0.0416344
0.0416061
0.0415796
0.0415549
0.0415323
0.0415115
0.0414927
0.0414754
0.0414597
0.0414455
0.0414327
0.0414212
0.0414107
0.0414012
0.0413925
0.0413848
0.0413781
0.0413724
0.0413676
0.0413635
0.0413599
0.0413568
0.041354
0.0413514
0.0413487
0.0413456
0.0413418
0.0413371
0.041331
0.0413233
0.0413138
0.0413019
0.0412871
0.0412688
0.0412464
0.0412192
0.0411867
0.0411481
0.0411028
0.0410501
0.0409889
0.0409181
0.0408365
0.0407428
0.0406355
0.0405132
0.0403744
0.0402175
0.0400405
0.0398419
0.039619
0.0393707
0.0390955
0.0387919
0.0384555
0.0380858
0.0376814
0.03725
0.0367804
0.0362784
0.0357313
0.0351475
0.0345299
0.0338873
0.0332137
0.0325187
0.0318268
0.0310857
0.0303596
0.0296318
0.0289188
0.0282186
0.027522
0.0268851
0.0262899
0.0257166
0.0251746
0.024672
0.0242155
0.0237966
0.0234174
0.0230409
0.0226964
0.0223926
0.0218763
0.048548
0.0437934
0.0434554
0.0433148
0.0431679
0.0430334
0.0429138
0.0428136
0.0427351
0.042673
0.0426227
0.0425778
0.0425337
0.0424869
0.0424342
0.0423767
0.0423198
0.0422704
0.0422325
0.042206
0.0421868
0.0421704
0.0421536
0.0421337
0.0421089
0.0420785
0.0420427
0.0420024
0.041959
0.0419145
0.041871
0.0418299
0.0417914
0.0417557
0.0417224
0.0416915
0.0416626
0.0416356
0.0416105
0.0415873
0.0415661
0.0415469
0.0415297
0.0415142
0.0415003
0.0414879
0.041477
0.0414675
0.0414591
0.0414518
0.0414455
0.0414401
0.0414359
0.0414327
0.0414305
0.0414293
0.0414286
0.0414286
0.0414291
0.0414299
0.0414309
0.0414317
0.0414321
0.0414318
0.0414305
0.0414279
0.0414239
0.041418
0.0414095
0.0413982
0.0413833
0.0413642
0.0413405
0.0413115
0.0412765
0.0412349
0.0411859
0.0411284
0.0410612
0.0409833
0.0408932
0.0407897
0.0406711
0.0405362
0.0403827
0.0402091
0.0400129
0.0397934
0.0395485
0.0392761
0.0389732
0.0386405
0.0382769
0.037884
0.0374513
0.0369846
0.0364725
0.0359304
0.0353505
0.0347299
0.0340841
0.0334077
0.0327241
0.0319896
0.031246
0.0305033
0.02976
0.0290655
0.0283774
0.0277044
0.0270953
0.0265146
0.0259371
0.0253832
0.0248686
0.0243988
0.0239719
0.0235377
0.0231023
0.0226998
0.0220295
0.048134
0.0437111
0.0434366
0.0433133
0.0431713
0.0430345
0.0429119
0.0428088
0.0427283
0.042666
0.0426173
0.0425748
0.0425327
0.0424882
0.0424402
0.0423869
0.0423322
0.0422822
0.0422418
0.0422123
0.0421909
0.0421737
0.0421573
0.0421392
0.0421173
0.0420904
0.0420583
0.0420211
0.0419801
0.0419371
0.0418947
0.0418543
0.0418166
0.0417816
0.0417491
0.0417191
0.0416913
0.0416655
0.0416418
0.0416201
0.0416005
0.0415829
0.0415674
0.0415536
0.0415414
0.041531
0.041522
0.0415145
0.0415083
0.0415032
0.0414992
0.0414962
0.0414944
0.0414938
0.0414943
0.0414958
0.0414982
0.0415013
0.041505
0.0415093
0.0415139
0.0415186
0.0415232
0.0415273
0.0415308
0.0415333
0.0415345
0.0415344
0.0415321
0.0415277
0.0415202
0.0415089
0.0414937
0.0414738
0.0414487
0.0414177
0.0413802
0.0413352
0.0412816
0.0412183
0.0411441
0.0410577
0.0409577
0.0408427
0.0407108
0.0405605
0.0403897
0.0401972
0.0399808
0.0397387
0.0394688
0.0391712
0.0388433
0.0384835
0.0380835
0.0376491
0.0371736
0.0366724
0.036131
0.0355534
0.0349364
0.0342793
0.0335856
0.0328808
0.0321384
0.0314071
0.0306455
0.0298578
0.0291333
0.0283895
0.0276885
0.027046
0.0264375
0.0258719
0.0253263
0.0248187
0.0243581
0.0239237
0.0235173
0.0231235
0.0224272
0.0477315
0.0436377
0.043414
0.0433079
0.043173
0.0430355
0.0429096
0.0428027
0.042719
0.0426552
0.0426073
0.0425673
0.0425289
0.0424876
0.0424422
0.0423932
0.0423419
0.0422929
0.0422511
0.0422189
0.0421949
0.0421763
0.0421602
0.0421437
0.0421246
0.0421012
0.0420729
0.0420394
0.0420013
0.0419604
0.0419192
0.0418797
0.0418428
0.0418086
0.0417769
0.0417478
0.0417209
0.0416964
0.0416739
0.0416536
0.0416356
0.0416196
0.0416058
0.0415937
0.0415834
0.0415748
0.0415677
0.0415622
0.0415581
0.0415553
0.0415535
0.0415529
0.0415535
0.0415554
0.0415585
0.0415627
0.041568
0.0415741
0.041581
0.0415886
0.0415967
0.0416052
0.0416137
0.0416222
0.0416302
0.0416375
0.0416439
0.0416492
0.041653
0.0416547
0.0416543
0.0416507
0.0416437
0.0416325
0.0416168
0.0415961
0.0415695
0.0415365
0.041496
0.0414471
0.0413884
0.0413189
0.0412373
0.0411423
0.0410321
0.0409053
0.0407598
0.0405943
0.0404062
0.0401939
0.0399555
0.0396901
0.039394
0.0390645
0.0386964
0.0382956
0.0378574
0.03739
0.0368776
0.0363327
0.0357474
0.0351267
0.0344698
0.0337824
0.0330681
0.0323057
0.0315721
0.0307737
0.030011
0.0292572
0.0284939
0.0277641
0.0270559
0.0264085
0.0257881
0.0251973
0.0246488
0.024123
0.0236699
0.0232846
0.0225948
0.0473017
0.0435705
0.0433914
0.043302
0.0431753
0.0430375
0.0429079
0.0427964
0.0427078
0.0426407
0.0425923
0.0425545
0.0425202
0.0424837
0.0424419
0.0423954
0.0423476
0.0423009
0.0422592
0.0422251
0.0421986
0.0421786
0.0421624
0.0421473
0.0421307
0.0421107
0.0420864
0.0420569
0.0420223
0.0419838
0.0419442
0.0419059
0.0418699
0.0418365
0.0418057
0.0417774
0.0417515
0.0417281
0.0417069
0.0416881
0.0416715
0.0416572
0.0416451
0.0416348
0.0416264
0.0416197
0.0416146
0.0416111
0.0416091
0.0416086
0.0416091
0.0416109
0.0416139
0.0416182
0.0416239
0.0416308
0.0416389
0.041648
0.041658
0.0416689
0.0416805
0.0416926
0.0417051
0.0417177
0.0417301
0.0417422
0.0417537
0.0417644
0.0417739
0.0417819
0.0417878
0.0417914
0.0417923
0.0417896
0.0417831
0.0417722
0.0417561
0.0417344
0.0417061
0.0416705
0.0416263
0.0415725
0.0415078
0.0414311
0.0413407
0.0412354
0.041113
0.0409722
0.0408108
0.0406273
0.04042
0.0401875
0.0399259
0.0396336
0.0393082
0.0389529
0.0385614
0.0381349
0.0376611
0.037153
0.0365987
0.036009
0.0353815
0.0347009
0.0340064
0.0332489
0.0324881
0.0317166
0.0309034
0.0301464
0.029373
0.0286392
0.0279282
0.0272555
0.0266097
0.025972
0.0253535
0.0247396
0.0241432
0.0236159
0.0227227
0.0468544
0.0435181
0.0433722
0.0432931
0.0431766
0.0430394
0.0429067
0.0427909
0.0426974
0.0426256
0.0425738
0.0425357
0.0425047
0.0424734
0.0424373
0.042395
0.0423495
0.0423054
0.0422649
0.0422299
0.0422015
0.0421796
0.0421628
0.0421487
0.0421348
0.0421185
0.0420983
0.0420732
0.0420428
0.0420075
0.04197
0.0419329
0.041898
0.0418656
0.0418358
0.0418084
0.0417835
0.0417611
0.0417411
0.0417236
0.0417085
0.0416959
0.0416855
0.041677
0.0416706
0.0416657
0.0416626
0.0416611
0.0416613
0.041663
0.0416658
0.0416698
0.0416752
0.041682
0.0416903
0.0416999
0.0417107
0.0417227
0.0417358
0.0417499
0.0417649
0.0417806
0.0417968
0.0418134
0.0418301
0.0418468
0.0418631
0.0418789
0.0418939
0.0419079
0.0419204
0.0419309
0.0419389
0.0419442
0.0419463
0.0419447
0.0419389
0.0419283
0.0419116
0.0418889
0.0418586
0.0418201
0.041772
0.0417133
0.0416427
0.0415587
0.0414594
0.0413435
0.0412089
0.0410543
0.0408775
0.0406767
0.0404485
0.040192
0.0399053
0.0395886
0.0392339
0.0388415
0.0384039
0.0379329
0.0374176
0.0368687
0.036276
0.0356464
0.0349738
0.0342671
0.0334981
0.0327365
0.0319065
0.0310725
0.0302406
0.0294059
0.0286219
0.0278458
0.0271456
0.0265019
0.0258982
0.0253359
0.0247948
0.0242719
0.0233349
0.0463753
0.0434594
0.0433529
0.0432869
0.0431798
0.0430438
0.0429087
0.0427884
0.0426896
0.0426119
0.0425549
0.0425141
0.0424838
0.0424561
0.0424255
0.0423892
0.0423482
0.0423063
0.0422667
0.0422313
0.0422017
0.0421787
0.0421616
0.0421483
0.0421363
0.0421236
0.042108
0.0420878
0.0420621
0.0420307
0.0419958
0.0419605
0.0419268
0.0418956
0.0418668
0.0418404
0.0418165
0.0417951
0.0417763
0.0417602
0.0417465
0.0417355
0.0417268
0.0417202
0.0417157
0.0417129
0.0417117
0.0417123
0.0417148
0.0417185
0.0417237
0.0417301
0.0417379
0.0417471
0.0417579
0.0417701
0.0417837
0.0417986
0.0418147
0.041832
0.0418503
0.0418695
0.0418894
0.04191
0.0419308
0.0419519
0.0419729
0.0419938
0.0420142
0.0420339
0.0420525
0.0420696
0.0420849
0.0420979
0.042108
0.0421151
0.0421186
0.0421186
0.0421132
0.0421027
0.0420855
0.042061
0.0420282
0.041986
0.0419333
0.0418687
0.0417906
0.0416976
0.0415878
0.0414599
0.0413118
0.0411414
0.0409463
0.0407256
0.0404765
0.0401967
0.0398797
0.039527
0.0391346
0.0387084
0.0382368
0.0377273
0.0371674
0.036569
0.0359267
0.0352409
0.0345203
0.0337583
0.0329844
0.0321511
0.0313561
0.0305063
0.0296997
0.0288326
0.0279936
0.0271851
0.0264126
0.0256996
0.025077
0.0245377
0.0235054
0.0458692
0.0433947
0.0433325
0.043281
0.0431851
0.0430518
0.0429128
0.0427884
0.0426842
0.0426005
0.0425376
0.0424921
0.0424594
0.0424322
0.0424059
0.0423762
0.0423419
0.0423043
0.0422663
0.0422307
0.0421999
0.042176
0.0421587
0.0421461
0.0421357
0.0421257
0.0421146
0.0421
0.0420797
0.042053
0.0420216
0.0419884
0.0419563
0.0419264
0.0418988
0.0418736
0.0418508
0.0418304
0.0418127
0.0417978
0.0417855
0.0417761
0.041769
0.0417643
0.0417618
0.041761
0.0417619
0.0417647
0.0417691
0.0417751
0.0417825
0.0417913
0.0418015
0.0418131
0.0418264
0.0418413
0.0418576
0.0418753
0.0418943
0.0419146
0.0419361
0.0419587
0.0419823
0.0420066
0.0420315
0.0420568
0.0420824
0.042108
0.0421335
0.0421587
0.0421832
0.0422066
0.0422287
0.0422489
0.0422671
0.0422828
0.0422953
0.0423044
0.0423098
0.042311
0.0423065
0.0422959
0.042278
0.0422519
0.0422166
0.0421712
0.0421139
0.0420434
0.041958
0.0418563
0.0417361
0.0415957
0.0414328
0.0412462
0.0410326
0.0407896
0.0405127
0.0402035
0.0398572
0.0394748
0.0390462
0.0385777
0.0380597
0.0375026
0.0368947
0.0362426
0.0355459
0.0347867
0.0340147
0.0331718
0.0323239
0.0314605
0.0306248
0.0298196
0.0290174
0.0282688
0.027473
0.0266892
0.0259072
0.0252046
0.0239453
0.0453465
0.0433058
0.0433069
0.0432741
0.0431935
0.0430653
0.0429218
0.0427908
0.0426821
0.0425929
0.0425238
0.0424721
0.0424344
0.0424053
0.0423808
0.0423559
0.0423279
0.0422962
0.0422619
0.0422275
0.0421961
0.0421706
0.0421525
0.0421407
0.0421325
0.0421252
0.0421178
0.0421087
0.0420944
0.0420733
0.0420463
0.042016
0.0419859
0.0419575
0.0419314
0.0419075
0.0418858
0.0418666
0.0418501
0.0418363
0.0418253
0.0418174
0.0418118
0.0418091
0.0418086
0.0418099
0.0418129
0.0418177
0.0418243
0.0418325
0.0418423
0.0418535
0.041866
0.0418801
0.0418959
0.0419133
0.0419323
0.0419528
0.0419747
0.041998
0.0420227
0.0420486
0.0420756
0.0421036
0.0421325
0.0421619
0.0421919
0.0422221
0.0422526
0.042283
0.0423132
0.0423427
0.0423713
0.0423985
0.0424242
0.0424478
0.0424691
0.0424877
0.0425029
0.0425143
0.0425214
0.0425236
0.0425196
0.0425086
0.0424895
0.0424613
0.042423
0.042373
0.04231
0.0422324
0.0421386
0.0420269
0.0418954
0.0417421
0.041564
0.0413587
0.0411233
0.0408581
0.0405574
0.0402203
0.0398384
0.0394165
0.0389469
0.0384367
0.0378742
0.0372666
0.0366083
0.0359078
0.0351557
0.0343601
0.0334901
0.0326024
0.0316584
0.0307639
0.0298343
0.0289723
0.0281314
0.0273572
0.0266152
0.0259424
0.0247094
0.0448447
0.0431988
0.0432609
0.0432549
0.0431999
0.0430832
0.0429363
0.0427972
0.0426835
0.0425901
0.0425162
0.0424575
0.0424132
0.0423798
0.0423537
0.0423304
0.0423068
0.0422809
0.0422517
0.0422201
0.0421893
0.0421631
0.0421441
0.0421327
0.0421264
0.042122
0.0421181
0.0421138
0.042106
0.0420912
0.0420695
0.042043
0.0420153
0.0419888
0.0419643
0.041942
0.0419217
0.0419038
0.0418884
0.0418758
0.0418661
0.0418594
0.0418555
0.0418545
0.041856
0.0418594
0.0418645
0.0418714
0.0418802
0.0418907
0.0419027
0.0419162
0.0419311
0.0419476
0.0419658
0.0419857
0.0420073
0.0420305
0.0420553
0.0420815
0.0421092
0.0421383
0.0421687
0.0422003
0.0422329
0.0422663
0.0423005
0.0423352
0.0423703
0.0424058
0.0424413
0.0424765
0.0425113
0.0425451
0.0425779
0.0426092
0.0426386
0.0426659
0.0426907
0.0427126
0.0427308
0.0427445
0.0427534
0.0427568
0.0427537
0.0427426
0.0427229
0.0426929
0.0426515
0.0425974
0.042529
0.0424448
0.0423425
0.0422202
0.0420752
0.0419058
0.0417095
0.0414849
0.0412259
0.0409314
0.0405957
0.0402219
0.0398022
0.0393393
0.038823
0.0382609
0.0376436
0.03698
0.0362672
0.0355002
0.0346769
0.0338292
0.0329387
0.0320535
0.0310988
0.0301178
0.0291441
0.0281944
0.0272935
0.0264841
0.0249648
0.0443838
0.0430592
0.0431988
0.0432244
0.0431971
0.0430994
0.0429581
0.0428138
0.0426912
0.0425927
0.0425151
0.0424524
0.0424026
0.042364
0.0423335
0.0423084
0.042286
0.0422632
0.0422378
0.0422095
0.0421803
0.0421538
0.0421341
0.0421226
0.0421179
0.042116
0.0421155
0.0421154
0.0421135
0.0421056
0.0420902
0.0420685
0.0420439
0.0420196
0.0419971
0.0419765
0.0419579
0.0419413
0.0419273
0.0419158
0.0419074
0.0419019
0.0418996
0.0419001
0.0419038
0.0419091
0.0419163
0.0419254
0.0419364
0.0419491
0.0419634
0.0419793
0.0419966
0.0420155
0.0420361
0.0420585
0.0420826
0.0421085
0.042136
0.0421651
0.0421958
0.042228
0.0422617
0.0422967
0.0423329
0.0423702
0.0424084
0.0424474
0.0424871
0.0425273
0.0425679
0.0426087
0.0426493
0.0426895
0.042729
0.0427675
0.0428047
0.0428403
0.0428739
0.0429053
0.0429339
0.0429591
0.0429801
0.0429961
0.0430065
0.043011
0.0430084
0.0429969
0.0429758
0.042943
0.0428981
0.0428392
0.0427647
0.0426728
0.042561
0.0424279
0.0422702
0.0420857
0.0418693
0.0416204
0.0413344
0.0410116
0.0406436
0.0402313
0.0397668
0.0392551
0.038686
0.0380653
0.0373824
0.0366464
0.0358581
0.0350043
0.034124
0.033185
0.0322709
0.0312987
0.0303771
0.0294342
0.0285016
0.0276337
0.0260153
0.0439694
0.0428909
0.0430976
0.0431784
0.043181
0.0431146
0.0429882
0.0428431
0.0427133
0.0426063
0.0425228
0.0424561
0.042403
0.042361
0.0423274
0.0423002
0.0422776
0.0422559
0.0422322
0.0422053
0.0421763
0.0421489
0.0421269
0.0421139
0.0421094
0.042109
0.0421113
0.0421149
0.0421175
0.042116
0.0421079
0.0420923
0.0420717
0.0420501
0.0420296
0.042011
0.0419942
0.0419792
0.0419666
0.0419564
0.0419493
0.0419449
0.041944
0.0419463
0.0419516
0.0419589
0.0419683
0.0419795
0.0419927
0.0420076
0.0420243
0.0420424
0.0420621
0.0420833
0.0421062
0.042131
0.0421577
0.0421862
0.0422164
0.0422482
0.0422818
0.042317
0.0423538
0.0423921
0.0424317
0.0424727
0.0425147
0.0425578
0.0426017
0.0426465
0.042692
0.0427379
0.042784
0.0428301
0.0428759
0.0429212
0.0429657
0.0430091
0.0430512
0.0430915
0.0431299
0.0431656
0.0431981
0.0432268
0.043251
0.0432696
0.0432822
0.0432881
0.0432869
0.043275
0.043253
0.0432179
0.0431697
0.043106
0.0430249
0.0429244
0.0428017
0.0426547
0.0424796
0.0422758
0.0420381
0.0417652
0.0414489
0.0410901
0.0406818
0.0402256
0.0397123
0.0391478
0.0385203
0.0378359
0.0370842
0.0362688
0.0353984
0.0344531
0.0335097
0.0324448
0.0314012
0.0303739
0.0293933
0.0285022
0.0268059
0.0436178
0.0426911
0.0429384
0.0430985
0.0431471
0.0431163
0.0430134
0.0428792
0.0427503
0.0426397
0.04255
0.0424761
0.0424161
0.0423686
0.0423315
0.0423025
0.042279
0.0422571
0.0422336
0.0422066
0.0421769
0.0421479
0.0421238
0.0421086
0.0421026
0.0421024
0.0421062
0.042113
0.0421202
0.0421235
0.042122
0.0421132
0.0420978
0.0420795
0.0420614
0.0420449
0.0420301
0.042017
0.0420059
0.0419972
0.0419913
0.0419883
0.0419884
0.0419924
0.0419993
0.0420085
0.04202
0.0420334
0.0420487
0.0420659
0.0420848
0.0421053
0.0421273
0.0421508
0.0421761
0.0422032
0.0422323
0.0422633
0.0422961
0.0423307
0.042367
0.0424051
0.0424449
0.0424864
0.0425294
0.0425738
0.0426196
0.0426665
0.0427146
0.0427637
0.0428138
0.0428646
0.0429159
0.0429676
0.0430194
0.0430711
0.0431224
0.0431731
0.043223
0.0432717
0.0433191
0.0433646
0.0434077
0.0434478
0.0434842
0.0435165
0.0435439
0.0435651
0.0435797
0.0435868
0.0435864
0.0435738
0.0435506
0.0435131
0.0434612
0.0433924
0.0433044
0.043195
0.0430608
0.0429002
0.0427079
0.0424822
0.0422165
0.0419115
0.0415602
0.041162
0.0407078
0.0401998
0.039629
0.039002
0.038305
0.0375426
0.0367168
0.0358412
0.0348942
0.0339118
0.0328449
0.0317468
0.0306078
0.0295579
0.0275908
0.0433569
0.0424889
0.0427129
0.0429552
0.043081
0.0430903
0.043026
0.0429099
0.0427876
0.0426787
0.0425875
0.042511
0.0424463
0.042393
0.0423507
0.0423173
0.042291
0.0422677
0.0422431
0.0422147
0.042183
0.0421516
0.0421252
0.0421073
0.0420999
0.0420995
0.0421035
0.0421117
0.042122
0.0421302
0.0421331
0.0421308
0.0421215
0.0421077
0.0420925
0.0420782
0.0420655
0.0420544
0.0420451
0.042038
0.0420334
0.0420317
0.0420331
0.0420384
0.0420468
0.042058
0.0420714
0.0420868
0.0421043
0.0421236
0.0421448
0.0421676
0.0421919
0.0422177
0.0422452
0.0422747
0.0423061
0.0423395
0.0423748
0.042412
0.042451
0.0424918
0.0425345
0.042579
0.0426251
0.0426729
0.0427221
0.0427727
0.0428246
0.0428778
0.0429322
0.0429875
0.0430438
0.0431006
0.043158
0.0432156
0.0432733
0.0433309
0.043388
0.0434446
0.0435003
0.0435549
0.0436079
0.0436587
0.0437068
0.0437516
0.0437926
0.0438291
0.0438603
0.0438845
0.0439016
0.0439104
0.0439111
0.0438985
0.0438741
0.043834
0.0437775
0.0437021
0.0436053
0.0434851
0.0433367
0.0431587
0.0429453
0.0426959
0.0424024
0.0420633
0.0416704
0.0412237
0.0407141
0.0401451
0.039505
0.0387997
0.0380141
0.0371596
0.036245
0.0352633
0.034188
0.0330961
0.0319576
0.0309626
0.0290992
0.0432057
0.0423232
0.0424718
0.0427335
0.0429518
0.0430264
0.04301
0.0429229
0.0428134
0.0427136
0.0426274
0.0425541
0.0424898
0.0424333
0.0423851
0.0423455
0.0423145
0.0422888
0.0422632
0.0422337
0.0422002
0.0421659
0.0421353
0.0421131
0.0421023
0.0421005
0.0421037
0.0421118
0.0421237
0.0421358
0.0421435
0.0421455
0.0421425
0.0421339
0.0421224
0.0421107
0.0421002
0.0420911
0.0420838
0.0420784
0.0420753
0.0420748
0.0420777
0.0420842
0.042094
0.0421069
0.0421222
0.0421396
0.0421591
0.0421806
0.042204
0.042229
0.0422556
0.0422837
0.0423134
0.0423451
0.0423788
0.0424145
0.0424522
0.0424919
0.0425334
0.0425769
0.0426224
0.0426697
0.0427189
0.0427698
0.0428223
0.0428764
0.042932
0.0429891
0.0430475
0.0431071
0.043168
0.0432297
0.0432923
0.0433555
0.0434191
0.043483
0.043547
0.0436108
0.0436743
0.0437372
0.0437991
0.0438597
0.0439184
0.0439746
0.044028
0.0440779
0.0441235
0.0441641
0.044199
0.0442263
0.0442458
0.0442566
0.0442583
0.0442457
0.0442199
0.0441772
0.0441164
0.0440348
0.0439285
0.0437957
0.043631
0.0434331
0.0431942
0.0429128
0.0425814
0.0421987
0.0417568
0.0412553
0.040681
0.0400389
0.0393145
0.0385199
0.0376361
0.0366799
0.0356645
0.0344967
0.0332587
0.0320915
0.0299583
0.043138
0.0422309
0.0423033
0.0424913
0.0427463
0.0429042
0.0429437
0.0429116
0.0428235
0.0427282
0.0426511
0.0425875
0.0425318
0.0424819
0.0424345
0.0423915
0.0423555
0.0423251
0.0422954
0.0422631
0.0422274
0.0421905
0.0421563
0.0421291
0.0421128
0.0421078
0.0421091
0.0421157
0.0421273
0.0421417
0.0421538
0.04216
0.0421611
0.042158
0.0421509
0.0421423
0.0421342
0.0421272
0.0421218
0.0421181
0.0421166
0.0421176
0.0421219
0.0421295
0.0421408
0.0421552
0.0421723
0.0421916
0.0422131
0.0422367
0.0422621
0.0422893
0.0423181
0.0423484
0.0423804
0.0424142
0.0424501
0.042488
0.042528
0.04257
0.0426141
0.0426601
0.0427082
0.0427582
0.0428102
0.042864
0.0429197
0.042977
0.0430361
0.0430967
0.0431589
0.0432225
0.0432875
0.0433538
0.0434212
0.0434895
0.0435586
0.0436283
0.0436985
0.043769
0.0438396
0.0439102
0.0439804
0.0440499
0.0441184
0.0441852
0.04425
0.0443123
0.0443715
0.0444269
0.0444776
0.044523
0.0445622
0.0445932
0.0446158
0.0446286
0.0446313
0.0446185
0.0445907
0.0445442
0.0444768
0.0443865
0.0442686
0.0441213
0.0439375
0.0437157
0.0434486
0.0431334
0.0427613
0.042329
0.0418266
0.0412567
0.0406053
0.0398795
0.0390586
0.03816
0.037174
0.0361255
0.0349402
0.0338207
0.0317655
0.0431235
0.0422236
0.042235
0.0423047
0.0424955
0.0427024
0.0428184
0.0428413
0.0428055
0.0427328
0.042658
0.042597
0.0425513
0.0425145
0.0424781
0.0424423
0.0424076
0.0423746
0.0423411
0.042305
0.042266
0.0422258
0.042188
0.0421561
0.0421339
0.0421234
0.0421218
0.0421253
0.0421347
0.0421494
0.0421645
0.0421748
0.0421795
0.0421802
0.0421778
0.0421728
0.0421673
0.0421626
0.0421591
0.0421572
0.0421572
0.04216
0.0421655
0.0421744
0.042187
0.0422029
0.0422217
0.0422428
0.0422662
0.0422916
0.0423191
0.0423484
0.0423794
0.0424118
0.0424459
0.0424818
0.0425198
0.0425599
0.0426021
0.0426463
0.0426927
0.0427411
0.0427916
0.0428442
0.0428989
0.0429555
0.0430141
0.0430745
0.0431368
0.0432008
0.0432665
0.0433339
0.0434028
0.0434733
0.0435451
0.0436181
0.0436923
0.0437674
0.0438434
0.04392
0.0439971
0.0440747
0.0441525
0.0442302
0.0443074
0.0443837
0.0444588
0.0445323
0.0446036
0.0446722
0.0447374
0.0447985
0.0448546
0.044905
0.0449488
0.0449838
0.0450096
0.0450247
0.0450285
0.0450156
0.0449857
0.0449354
0.0448614
0.0447614
0.0446292
0.0444633
0.0442555
0.0440028
0.0436963
0.0433327
0.0429038
0.0424072
0.0418285
0.04117
0.0404152
0.0395723
0.03862
0.0375589
0.0364022
0.0351623
0.0330873
0.0431258
0.0422439
0.0422182
0.0422161
0.042293
0.0424529
0.0426201
0.0427131
0.0427339
0.0427078
0.0426475
0.0425928
0.0425513
0.0425199
0.0424952
0.0424746
0.0424523
0.0424256
0.0423937
0.0423562
0.0423144
0.0422706
0.0422289
0.0421926
0.0421649
0.0421479
0.0421416
0.0421419
0.0421478
0.0421602
0.0421766
0.0421901
0.0421982
0.0422022
0.0422033
0.0422022
0.0421996
0.0421971
0.0421955
0.0421953
0.0421972
0.0422014
0.0422083
0.0422186
0.0422325
0.0422498
0.0422701
0.0422929
0.0423181
0.0423454
0.0423748
0.0424061
0.0424391
0.0424736
0.0425097
0.0425477
0.0425876
0.0426298
0.042674
0.0427205
0.042769
0.0428197
0.0428726
0.0429276
0.0429847
0.043044
0.0431053
0.0431686
0.0432338
0.0433009
0.0433698
0.0434406
0.0435132
0.0435875
0.0436634
0.0437407
0.0438194
0.0438995
0.0439806
0.0440628
0.0441459
0.0442298
0.0443144
0.0443994
0.0444846
0.0445696
0.044654
0.0447376
0.0448199
0.0449005
0.0449789
0.0450543
0.045126
0.0451935
0.0452557
0.0453118
0.0453606
0.0453998
0.045429
0.0454462
0.0454509
0.0454374
0.0454041
0.0453478
0.0452639
0.0451507
0.0450007
0.0448113
0.0445744
0.0442859
0.0439362
0.0435204
0.0430276
0.0424575
0.041793
0.0410314
0.0401459
0.0391632
0.0380441
0.0368666
0.0348964
0.0431221
0.0422731
0.0422229
0.0421888
0.0421892
0.0422488
0.0423822
0.0425219
0.0426077
0.0426329
0.042614
0.0425758
0.0425399
0.0425149
0.0424958
0.0424813
0.0424693
0.0424557
0.0424348
0.0424042
0.0423658
0.0423218
0.0422775
0.0422373
0.0422045
0.0421812
0.0421686
0.0421652
0.0421672
0.042176
0.0421915
0.0422069
0.0422177
0.0422246
0.0422288
0.0422307
0.0422311
0.0422309
0.0422312
0.0422328
0.0422363
0.042242
0.0422504
0.042262
0.0422773
0.042296
0.0423177
0.0423421
0.0423689
0.042398
0.0424292
0.0424624
0.0424973
0.0425338
0.0425719
0.0426118
0.0426537
0.0426977
0.042744
0.0427924
0.0428431
0.0428959
0.0429509
0.0430082
0.0430677
0.0431294
0.0431932
0.0432591
0.0433271
0.0433971
0.043469
0.043543
0.0436189
0.0436967
0.0437763
0.0438576
0.0439405
0.044025
0.044111
0.0441982
0.0442867
0.0443764
0.0444671
0.0445588
0.0446511
0.0447438
0.0448366
0.0449292
0.0450213
0.0451125
0.0452024
0.0452904
0.0453761
0.0454587
0.0455375
0.0456118
0.0456805
0.0457425
0.0457968
0.0458407
0.0458734
0.0458928
0.0458982
0.0458832
0.0458457
0.0457827
0.045688
0.0455596
0.0453883
0.0451697
0.0448935
0.0445538
0.0441393
0.043647
0.0430641
0.042385
0.041587
0.0406777
0.0395986
0.0384531
0.0366604
0.0431103
0.0423083
0.0422493
0.0421838
0.0421468
0.0421319
0.0421792
0.042298
0.0424275
0.0425115
0.0425412
0.0425341
0.0425133
0.042499
0.042488
0.0424792
0.0424699
0.0424607
0.0424494
0.0424334
0.0424061
0.0423702
0.0423286
0.0422871
0.0422504
0.0422214
0.0422023
0.0421938
0.0421926
0.0421973
0.04221
0.0422262
0.0422388
0.0422478
0.0422544
0.0422591
0.0422621
0.0422642
0.0422664
0.0422695
0.0422745
0.0422817
0.0422915
0.0423045
0.0423211
0.0423411
0.0423643
0.0423902
0.0424186
0.0424493
0.0424822
0.0425172
0.0425539
0.0425923
0.0426322
0.042674
0.0427177
0.0427636
0.0428117
0.0428621
0.0429146
0.0429695
0.0430266
0.0430859
0.0431476
0.0432116
0.0432777
0.0433461
0.0434166
0.0434892
0.0435639
0.0436408
0.0437197
0.0438007
0.0438836
0.0439685
0.0440552
0.0441437
0.0442339
0.0443257
0.0444191
0.0445139
0.0446101
0.0447076
0.0448063
0.0449058
0.045006
0.0451066
0.0452074
0.0453081
0.0454083
0.0455076
0.0456055
0.0457015
0.0457951
0.0458857
0.0459722
0.046054
0.0461297
0.0461982
0.0462583
0.0463069
0.0463433
0.0463649
0.0463707
0.0463534
0.0463098
0.0462359
0.0461243
0.0459714
0.0457675
0.0455068
0.0451783
0.0447767
0.0442869
0.0436973
0.0429895
0.0421432
0.0411459
0.0399934
0.0383757
0.0430923
0.0423438
0.0422849
0.0421986
0.0421307
0.042071
0.042053
0.0421015
0.0422201
0.0423462
0.0424307
0.0424641
0.0424685
0.0424682
0.0424668
0.0424656
0.0424627
0.0424568
0.0424492
0.0424376
0.0424237
0.042401
0.0423707
0.0423347
0.0422979
0.0422656
0.0422411
0.0422268
0.0422221
0.0422234
0.0422324
0.0422479
0.0422613
0.0422717
0.0422803
0.0422872
0.0422925
0.0422967
0.0423007
0.0423054
0.0423118
0.0423204
0.0423316
0.042346
0.0423639
0.0423853
0.0424099
0.0424372
0.042467
0.0424993
0.0425338
0.0425704
0.0426089
0.0426489
0.0426907
0.0427341
0.0427796
0.0428272
0.0428771
0.0429293
0.0429837
0.0430404
0.0430994
0.0431607
0.0432244
0.0432905
0.0433588
0.0434294
0.0435022
0.0435772
0.0436545
0.043734
0.0438157
0.0438996
0.0439856
0.0440737
0.0441638
0.0442559
0.0443499
0.0444458
0.0445435
0.0446429
0.044744
0.0448467
0.044951
0.0450567
0.0451634
0.0452711
0.0453795
0.0454885
0.0455977
0.0457068
0.0458154
0.0459232
0.0460296
0.0461343
0.0462364
0.0463354
0.0464302
0.0465199
0.0466032
0.0466788
0.0467452
0.0467989
0.0468388
0.0468619
0.0468672
0.0468452
0.0467935
0.0467064
0.0465766
0.0463968
0.0461558
0.0458456
0.0454514
0.0449663
0.0443675
0.043624
0.0427343
0.0416346
0.0401555
0.0430723
0.0423726
0.0423203
0.0422203
0.0421292
0.0420391
0.0419774
0.041969
0.0420326
0.0421613
0.0422892
0.0423691
0.0424048
0.0424213
0.0424317
0.0424393
0.0424436
0.0424439
0.0424406
0.0424342
0.0424245
0.0424119
0.0423941
0.0423701
0.0423402
0.0423091
0.0422818
0.0422629
0.0422544
0.0422533
0.042259
0.0422729
0.0422865
0.0422975
0.0423074
0.042316
0.0423232
0.0423293
0.0423349
0.042341
0.0423486
0.0423584
0.042371
0.0423867
0.0424059
0.0424287
0.0424546
0.0424833
0.0425145
0.0425482
0.0425842
0.0426224
0.0426624
0.0427041
0.0427475
0.0427926
0.0428396
0.0428889
0.0429405
0.0429943
0.0430504
0.0431089
0.0431697
0.0432328
0.0432984
0.0433664
0.0434367
0.0435093
0.0435843
0.0436615
0.0437411
0.0438229
0.0439071
0.0439936
0.0440823
0.0441733
0.0442664
0.0443617
0.0444591
0.0445586
0.0446601
0.0447636
0.044869
0.0449764
0.0450856
0.0451966
0.045309
0.0454229
0.0455379
0.045654
0.045771
0.0458887
0.0460066
0.0461245
0.0462421
0.0463589
0.0464746
0.0465885
0.0466998
0.0468079
0.0469116
0.04701
0.0471017
0.0471847
0.0472578
0.0473165
0.0473604
0.0473853
0.04739
0.0473617
0.0472988
0.0471895
0.0470286
0.0468033
0.0464994
0.0461067
0.0455926
0.0449344
0.0441286
0.0431172
0.0417691
0.0430572
0.0423916
0.0423482
0.0422415
0.0421317
0.0420213
0.0419282
0.0418838
0.0418984
0.0419893
0.0421314
0.0422546
0.0423267
0.0423636
0.0423847
0.0423991
0.0424108
0.0424184
0.0424216
0.042422
0.0424189
0.0424121
0.0424008
0.0423884
0.0423702
0.0423461
0.0423204
0.0422994
0.042288
0.0422849
0.0422886
0.0423004
0.0423134
0.0423244
0.0423349
0.0423448
0.0423536
0.0423613
0.0423682
0.0423755
0.0423843
0.0423953
0.042409
0.042426
0.0424466
0.0424707
0.042498
0.042528
0.0425605
0.0425955
0.042633
0.0426726
0.0427141
0.0427573
0.0428022
0.0428488
0.0428974
0.0429482
0.0430013
0.0430567
0.0431144
0.0431745
0.043237
0.0433018
0.0433691
0.0434388
0.043511
0.0435855
0.0436624
0.0437416
0.0438232
0.0439073
0.0439937
0.0440825
0.0441736
0.0442672
0.044363
0.0444612
0.0445616
0.0446643
0.0447692
0.0448762
0.0449855
0.0450969
0.0452104
0.0453259
0.0454434
0.0455626
0.0456834
0.0458057
0.0459295
0.0460544
0.0461804
0.046307
0.0464341
0.0465614
0.0466886
0.0468151
0.0469405
0.0470642
0.0471855
0.0473035
0.0474169
0.0475248
0.0476255
0.0477169
0.0477974
0.0478615
0.0479088
0.0479335
0.0479353
0.0478928
0.0478121
0.0476725
0.04747
0.0471898
0.0467974
0.0462657
0.0455585
0.0446325
0.0433941
0.0430511
0.0424017
0.0423663
0.0422549
0.042132
0.0420072
0.0418966
0.0418263
0.0418075
0.0418526
0.0419794
0.0421298
0.0422379
0.0422981
0.0423304
0.0423499
0.0423662
0.0423811
0.0423931
0.0424008
0.0424057
0.0424059
0.0424001
0.0423933
0.0423853
0.0423718
0.0423527
0.0423332
0.042321
0.0423169
0.0423196
0.0423299
0.0423421
0.0423529
0.0423636
0.0423744
0.0423844
0.0423933
0.0424014
0.0424098
0.0424196
0.0424316
0.0424465
0.0424647
0.0424866
0.0425121
0.0425407
0.0425719
0.0426057
0.042642
0.0426808
0.0427217
0.0427646
0.0428092
0.0428555
0.0429035
0.0429535
0.0430057
0.0430603
0.0431172
0.0431764
0.043238
0.043302
0.0433684
0.0434373
0.0435086
0.0435824
0.0436587
0.0437373
0.0438183
0.0439018
0.0439878
0.0440762
0.0441671
0.0442605
0.0443563
0.0444545
0.0445552
0.0446583
0.0447638
0.0448716
0.0449818
0.0450944
0.0452093
0.0453265
0.0454461
0.0455678
0.0456916
0.0458173
0.045945
0.0460745
0.0462057
0.0463384
0.0464724
0.0466075
0.0467437
0.0468805
0.0470178
0.0471551
0.0472919
0.0474278
0.0475623
0.0476942
0.0478231
0.0479472
0.0480657
0.0481763
0.0482768
0.0483656
0.0484351
0.0484865
0.0485112
0.0485096
0.0484531
0.04835
0.048172
0.047893
0.0474806
0.0468695
0.0460495
0.0449015
0.043054
0.0424085
0.0423732
0.0422565
0.042125
0.0419916
0.0418722
0.0417853
0.0417457
0.0417578
0.0418468
0.0420017
0.0421416
0.0422281
0.0422731
0.0422967
0.0423152
0.0423351
0.0423557
0.0423726
0.0423852
0.0423929
0.0423946
0.0423925
0.0423898
0.0423852
0.0423756
0.0423616
0.0423511
0.0423475
0.0423502
0.04236
0.0423713
0.0423817
0.0423926