/*--------------------------------*- C++ -*----------------------------------*\
| =========                 |                                                 |
| \\      /  F ield         | OpenFOAM: The Open Source CFD Toolbox           |
|  \\    /   O peration     | Version:  2406                                  |
|   \\  /    A nd           | Website:  www.openfoam.com                      |
|    \\/     M anipulation  |                                                 |
\*---------------------------------------------------------------------------*/
FoamFile
{
    version     2.0;
    format      ascii;
    arch        "LSB;label=32;scalar=64";
    class       volScalarField;
    location    "0.012";
    object      p;
}
// * * * * * * * * * * * * * * * * * * * * * * * * * * * * * * * * * * * * * //

dimensions      [1 -1 -2 0 0 0 0];

internalField   nonuniform List<scalar> 
78650
(
2790
2790
2790
2790
2790
2790
2790
2790
2790
2790
2790
2790
2790.01
2790.49
2796.98
2824.35
2866.25
2894.07
2899.62
2899.98
2892.77
2880.38
2868.64
2858.15
2848.45
2839.32
2830.76
2822.93
2815.79
2809.09
2802.63
2796.32
2790.15
2784.15
2778.34
2772.8
2767.6
2762.83
2758.48
2754.34
2750.16
2746.35
2744.3
2744.78
2750.09
2758.74
2763.8
2764.74
2763.91
2761.5
2758.45
2755.47
2752.43
2749.24
2745.87
2742.34
2738.61
2734.61
2730.24
2725.4
2720.01
2714.03
2707.41
2700.11
2692.1
2683.3
2673.65
2663.02
2651.31
2638.42
2624.29
2608.87
2592.1
2573.82
2553.96
2532.56
2509.68
2485.23
2459.12
2431.14
2401.4
2370.01
2337.09
2302.64
2266.75
2229.55
2191
2151.38
2110.85
2069.65
2027.9
1986.13
1944.05
1903.01
1862.11
1823.44
1785.34
1748.2
1713.44
1678.6
1646.72
1616.98
1588.44
1561.38
1534.77
1510.12
1486.96
1464.49
1443.87
1424.51
1406.93
1389.75
1373.31
1358.32
1345.49
1334.54
1324.24
1314.31
1304.69
1297
1280.76
2790
2790
2790
2790
2790
2790
2790
2790
2790
2790
2790
2790
2790.01
2790.26
2794.52
2817.1
2859.11
2891.84
2900.68
2902.7
2897.31
2885.32
2873.02
2862.29
2852.68
2843.78
2835.46
2827.83
2820.81
2814.14
2807.66
2801.34
2795.18
2789.22
2783.51
2778.12
2773.1
2768.55
2764.44
2760.59
2756.72
2753.06
2750.88
2750.99
2755.73
2765.06
2771.55
2773.23
2772.89
2771.25
2768.73
2766.13
2763.54
2760.89
2758.12
2755.22
2752.17
2748.91
2745.34
2741.37
2736.92
2731.93
2726.36
2720.19
2713.36
2705.82
2697.51
2688.33
2678.16
2666.91
2654.51
2640.86
2625.92
2609.59
2591.84
2572.65
2551.89
2529.4
2505.17
2479.17
2451.51
2422.17
2391.17
2358.45
2324.15
2288.44
2251.41
2213.31
2174.12
2134.04
2093.19
2052.01
2010.37
1969.09
1927.3
1886.51
1847.7
1809.31
1773.37
1737.59
1702.64
1669.98
1638.09
1608.69
1580.1
1553.05
1528.09
1503.89
1481.79
1460.71
1440.86
1422.1
1404.39
1387.47
1371.92
1357.76
1344.88
1332.63
1321.4
1311.42
1292.29
2790
2790
2790
2790
2790
2790
2790
2790
2790
2790
2790
2790
2790
2790.13
2792.76
2810.43
2850.97
2888.32
2901.53
2905.21
2901.38
2890.13
2877.42
2866.52
2857.02
2848.36
2840.28
2832.83
2825.89
2819.23
2812.71
2806.36
2800.21
2794.32
2788.73
2783.5
2778.7
2774.37
2770.5
2766.93
2763.36
2759.91
2757.64
2757.45
2761.64
2771.45
2779.38
2781.94
2781.98
2780.97
2778.99
2776.82
2774.7
2772.59
2770.42
2768.15
2765.76
2763.22
2760.44
2757.32
2753.77
2749.73
2745.18
2740.07
2734.37
2728.02
2720.98
2713.14
2704.41
2694.69
2683.88
2671.91
2658.76
2644.34
2628.57
2611.35
2592.52
2572.05
2550.04
2526.46
2501.33
2474.53
2445.98
2415.63
2383.65
2350.13
2315.07
2278.73
2241.02
2202.17
2162.39
2121.75
2080.65
2038.69
1996.73
1954.06
1913.6
1872.95
1833.22
1795.34
1757.47
1722.3
1687.09
1653.96
1623.76
1594.43
1567.02
1540.78
1516.86
1494.5
1473.89
1453.6
1434.3
1415.92
1398.89
1382.82
1367.73
1353.55
1340.88
1329.64
1308.39
2790
2790
2790
2790
2790
2790
2790
2790
2790
2790
2790
2790
2790
2790.06
2791.55
2804.49
2841.75
2883.38
2901.97
2907.58
2904.9
2895.02
2882.13
2871.09
2861.7
2853.25
2845.38
2838.05
2831.12
2824.39
2817.82
2811.45
2805.34
2799.54
2794.1
2789.07
2784.48
2780.37
2776.73
2773.41
2770.13
2766.89
2764.53
2764.04
2767.53
2777.47
2786.87
2790.63
2791.12
2790.57
2789.14
2787.49
2785.86
2784.28
2782.66
2780.98
2779.23
2777.39
2775.37
2773.07
2770.39
2767.29
2763.72
2759.65
2755.06
2749.89
2744.1
2737.6
2730.31
2722.13
2712.95
2702.73
2691.4
2678.86
2665.03
2649.82
2633.14
2614.98
2595.38
2574.22
2551.39
2526.72
2500.15
2471.71
2441.6
2409.8
2376.38
2341.53
2305.17
2267.68
2229.03
2189.49
2149.26
2107.79
2066.31
2023.34
1981.1
1939.56
1898.47
1859.84
1820.35
1781.89
1745.07
1708.83
1675.62
1642.12
1610.88
1581.1
1553.41
1527.76
1503.5
1480.85
1460.08
1440.64
1422.71
1406.09
1390.6
1376.11
1362.93
1351.21
1328.98
2790
2790
2790
2790
2790
2790
2790
2790
2790
2790
2790
2790
2790
2790.02
2790.8
2799.58
2831.99
2876.64
2901.61
2909.79
2907.87
2899.8
2887.09
2875.93
2866.6
2858.35
2850.67
2843.4
2836.41
2829.6
2822.98
2816.6
2810.56
2804.88
2799.62
2794.8
2790.44
2786.55
2783.12
2780.04
2777.04
2774.03
2771.64
2770.89
2773.65
2783.4
2794.28
2799.52
2800.55
2800.29
2799.39
2798.28
2797.17
2796.08
2794.99
2793.91
2792.8
2791.65
2790.37
2788.85
2787.02
2784.82
2782.2
2779.13
2775.61
2771.56
2766.95
2761.71
2755.77
2749.02
2741.37
2732.77
2723.13
2712.37
2700.43
2687.24
2672.7
2656.77
2639.37
2620.33
2599.61
2577.12
2552.9
2527.02
2499.54
2470.33
2439.4
2406.82
2372.57
2336.92
2299.71
2261.32
2221.79
2181.45
2139.85
2097.32
2054.08
2012.06
1970.33
1929.64
1889.75
1849.59
1811.86
1774.18
1738.67
1703
1668.91
1636.86
1605.84
1576.1
1547.13
1519.91
1495.21
1471.9
1449.75
1428.97
1409.47
1391.8
1376.11
1362.72
1335.5
2790
2790
2790
2790
2790
2790
2790
2790
2790
2790
2790
2790
2790
2790.01
2790.37
2795.8
2822.12
2867.76
2900.01
2911.5
2910.46
2904.63
2892.48
2881.15
2871.88
2863.82
2856.24
2848.91
2841.79
2834.89
2828.24
2821.92
2815.99
2810.48
2805.42
2800.81
2796.67
2792.99
2789.75
2786.85
2784.09
2781.31
2778.93
2777.95
2779.94
2789.08
2801.28
2808.26
2810.08
2810.08
2809.65
2809.07
2808.48
2807.91
2807.37
2806.87
2806.38
2805.87
2805.29
2804.54
2803.52
2802.2
2800.5
2798.42
2795.92
2792.97
2789.53
2785.54
2780.93
2775.62
2769.51
2762.54
2754.63
2745.69
2735.68
2724.51
2712.06
2698.25
2683.01
2666.21
2647.87
2627.97
2606.48
2583.36
2558.53
2531.78
2503.21
2472.83
2440.64
2406.82
2371.32
2334.57
2296.37
2257.07
2216.68
2175.21
2132.71
2089.73
2046.9
2003.91
1962.2
1920.11
1880.01
1839.85
1800.81
1763.68
1728.31
1695.29
1662.98
1632.09
1602.88
1574.91
1549.09
1523.69
1499.54
1475.84
1453.16
1431.88
1412.61
1394.97
1361.7
2790
2790
2790
2790
2790
2790
2790
2790
2790
2790
2790
2790
2790
2790
2790.15
2793.17
2812.89
2857
2896.14
2912.3
2913.04
2909.4
2898.05
2886.65
2877.49
2869.53
2861.9
2854.43
2847.17
2840.2
2833.59
2827.36
2821.59
2816.27
2811.42
2807.04
2803.11
2799.61
2796.54
2793.8
2791.26
2788.7
2786.38
2785.23
2786.53
2794.72
2807.96
2816.93
2819.93
2820.27
2820.13
2819.98
2819.93
2819.91
2819.91
2819.98
2820.08
2820.2
2820.29
2820.28
2820.05
2819.57
2818.78
2817.64
2816.13
2814.22
2811.87
2809.06
2805.7
2801.73
2797.05
2791.6
2785.31
2778.07
2769.86
2760.58
2750.12
2738.42
2725.39
2710.97
2695.16
2677.85
2658.92
2638.28
2615.81
2591.4
2565.2
2537.16
2507.29
2475.68
2442.28
2407.35
2370.79
2333.1
2294.07
2253.92
2212.61
2169.84
2126.85
2083.21
2040.54
1997.39
1955.18
1912.85
1871.29
1831.73
1792.55
1755.29
1718.25
1683.17
1651.06
1620.78
1592.61
1565.55
1540.61
1516.75
1494.93
1474.38
1455.62
1439.12
1408.84
2790
2790
2790
2790
2790
2790
2790
2790
2790
2790
2790
2790
2790
2790
2790.05
2791.54
2804.95
2844.76
2889.52
2912.32
2915.8
2913.47
2903.83
2892.69
2883.53
2875.38
2867.55
2859.94
2852.61
2845.67
2839.15
2833.06
2827.48
2822.37
2817.73
2813.54
2809.79
2806.45
2803.5
2800.88
2798.5
2796.15
2793.93
2792.66
2793.34
2800.32
2814.19
2825.22
2829.72
2830.62
2830.71
2830.91
2831.37
2831.9
2832.47
2833.08
2833.77
2834.51
2835.25
2835.93
2836.46
2836.77
2836.84
2836.62
2836.07
2835.19
2833.92
2832.25
2830.13
2827.48
2824.23
2820.3
2815.62
2810.11
2803.71
2796.33
2787.88
2778.31
2767.5
2755.39
2741.91
2726.93
2710.34
2692.09
2672.13
2650.42
2627.04
2601.86
2574.88
2546.1
2515.49
2483.19
2449.2
2413.8
2376.68
2338.19
2298.11
2256.75
2214.09
2170.79
2127.43
2084.37
2040.76
1997.51
1953.87
1912.68
1870.83
1830.18
1790.12
1751.42
1715.18
1679.52
1645.55
1612.12
1580.63
1551.8
1525.53
1501.24
1478.84
1459.59
1419.33
2790
2790
2790
2790
2790
2790
2790
2790
2790
2790
2790
2790
2790
2790
2790.02
2790.66
2798.81
2831.85
2880.35
2910.98
2917.79
2917.01
2909.93
2899.25
2889.69
2881.1
2873.1
2865.44
2858.13
2851.27
2844.89
2838.98
2833.59
2828.67
2824.21
2820.19
2816.59
2813.37
2810.53
2808
2805.76
2803.61
2801.54
2800.19
2800.38
2806.05
2820.08
2833.13
2839.45
2841.19
2841.62
2842.13
2842.99
2844.05
2845.15
2846.31
2847.56
2848.88
2850.25
2851.61
2852.86
2853.94
2854.81
2855.45
2855.82
2855.92
2855.68
2855.09
2854.14
2852.73
2850.79
2848.28
2845.09
2841.17
2836.46
2830.86
2824.31
2816.75
2808.05
2798.14
2786.98
2774.43
2760.44
2744.98
2727.97
2709.31
2688.99
2666.81
2642.77
2616.83
2588.97
2559.22
2527.54
2494.07
2458.7
2421.89
2383.37
2343.42
2302.02
2259.62
2216.78
2173.71
2129.9
2086.56
2042.81
1999.56
1956.91
1914.63
1875.01
1835.42
1797.97
1760.15
1724.42
1689.59
1656.27
1623.67
1593.48
1564.95
1538.51
1514.06
1465.27
2790
2790
2790
2790
2790
2790
2790
2790
2790
2790
2790
2790
2790
2790
2790
2790.24
2794.6
2819.49
2868.24
2907.25
2918.88
2920.73
2916.04
2905.86
2895.61
2886.7
2878.69
2871.1
2863.86
2857.11
2850.88
2845.16
2839.96
2835.23
2830.92
2827.02
2823.52
2820.37
2817.59
2815.12
2812.98
2811.01
2809.14
2807.75
2807.56
2811.98
2825.62
2840.55
2848.93
2851.78
2852.65
2853.43
2854.63
2856.16
2857.78
2859.48
2861.27
2863.16
2865.12
2867.11
2869.05
2870.87
2872.53
2874.01
2875.25
2876.25
2877
2877.46
2877.64
2877.45
2876.82
2875.71
2874.01
2871.67
2868.64
2864.81
2860.14
2854.56
2847.95
2840.24
2831.38
2821.24
2809.79
2796.94
2782.56
2766.55
2748.87
2729.34
2708
2684.81
2659.7
2632.67
2603.68
2572.83
2540.09
2505.7
2469.4
2431.57
2392.04
2351.16
2308.94
2265.61
2221.55
2176.25
2131.62
2085.62
2041.33
1995.97
1953.11
1910.38
1869.09
1828.39
1789.85
1754.09
1720.23
1686.76
1655.17
1625.5
1598.74
1575.76
1533.78
2790
2790
2790
2790
2790
2790
2790
2790
2790
2790
2790
2790
2790
2790
2790
2790.08
2792.1
2808.83
2853.9
2900.47
2919.12
2924.45
2921.35
2912.11
2901.45
2892.42
2884.45
2876.91
2869.75
2863.12
2857.06
2851.52
2846.49
2841.88
2837.67
2833.85
2830.4
2827.3
2824.56
2822.14
2820.09
2818.28
2816.64
2815.31
2814.88
2818.16
2830.91
2847.44
2858.15
2862.39
2863.84
2864.92
2866.43
2868.38
2870.5
2872.71
2875.02
2877.43
2879.95
2882.55
2885.14
2887.66
2890.05
2892.3
2894.38
2896.27
2897.95
2899.41
2900.62
2901.54
2902.11
2902.3
2901.98
2901.12
2899.65
2897.45
2894.54
2890.81
2886.17
2880.57
2873.92
2866.14
2857.17
2846.89
2835.19
2821.99
2807.25
2790.82
2772.71
2752.78
2730.97
2707.23
2681.59
2654.02
2624.48
2593.13
2559.89
2525.02
2488.14
2449.41
2408.76
2366.87
2323.92
2280.21
2235.51
2190.57
2145.59
2099.56
2053.84
2007.26
1961.41
1917.05
1872.83
1830.89
1789.55
1751.5
1713.3
1676.65
1641.64
1611.73
1554.9
2790
2790
2790
2790
2790
2790
2790
2790
2790
2790
2790
2790
2790
2790
2790
2790.02
2790.83
2800.73
2838.5
2890.29
2918.53
2927.48
2925.58
2918.19
2907.57
2898.41
2890.34
2882.82
2875.81
2869.36
2863.49
2858.11
2853.18
2848.61
2844.42
2840.6
2837.16
2834.09
2831.39
2829.05
2827.08
2825.44
2824.03
2822.85
2822.3
2824.62
2836.07
2853.78
2867.02
2872.93
2875.09
2876.47
2878.24
2880.55
2883.11
2885.8
2888.59
2891.51
2894.55
2897.71
2900.91
2904.08
2907.18
2910.17
2913.03
2915.75
2918.32
2920.72
2922.95
2924.97
2926.71
2928.1
2929.1
2929.65
2929.75
2929.17
2928.01
2926.11
2923.38
2919.83
2915.32
2909.8
2903.2
2895.4
2886.31
2875.86
2863.98
2850.53
2835.48
2818.67
2800.08
2779.65
2757.35
2733.08
2706.81
2678.65
2648.46
2616.28
2581.7
2545.06
2506.52
2466.74
2425.69
2383.57
2340.23
2295.84
2250.77
2205.64
2159.56
2113.58
2067.78
2023.98
1980.76
1938.21
1895.13
1855.5
1815.26
1777.62
1740.9
1706.57
1641.33
2790
2790
2790
2790
2790
2790
2790
2790
2790
2790
2790
2790
2790
2790
2790
2790.01
2790.28
2795.39
2823.77
2876.86
2915.79
2929.16
2928.83
2924.05
2914.01
2904.47
2896.19
2888.83
2882.06
2875.78
2870.01
2864.68
2859.74
2855.14
2850.92
2847.11
2843.69
2840.67
2838.03
2835.78
2833.92
2832.45
2831.27
2830.3
2829.75
2831.33
2841.23
2859.58
2875.43
2883.34
2886.35
2888.07
2890.07
2892.7
2895.67
2898.8
2902.05
2905.44
2908.98
2912.66
2916.44
2920.23
2923.98
2927.67
2931.26
2934.77
2938.16
2941.45
2944.62
2947.63
2950.45
2953.02
2955.26
2957.09
2958.51
2959.44
2959.84
2959.69
2958.76
2957.15
2954.67
2951.32
2947.02
2941.66
2935.18
2927.48
2918.46
2907.99
2896.04
2882.43
2867.13
2850.04
2831.05
2810.07
2787.1
2762.11
2734.94
2705.64
2674.07
2640.6
2605.23
2568.18
2529.22
2488.64
2446.3
2402.51
2357.4
2311.4
2264.86
2217.12
2168.98
2121.21
2074.53
2027.43
1980.6
1935.83
1892.11
1853.61
1818
1786.33
1724.22
2790
2790
2790
2790
2790
2790
2790
2790
2790
2790
2790
2790
2790
2790
2790
2790
2790.08
2792.37
2811.32
2861.04
2909.26
2929.46
2932.42
2929.57
2920.2
2910.33
2902.13
2895.09
2888.51
2882.25
2876.43
2871.03
2866.01
2861.38
2857.17
2853.39
2850.02
2847.08
2844.52
2842.38
2840.63
2839.34
2838.38
2837.64
2837.19
2838.25
2846.54
2864.94
2883.33
2893.53
2897.58
2899.66
2901.84
2904.73
2908.05
2911.56
2915.23
2919.06
2923.05
2927.22
2931.52
2935.89
2940.26
2944.59
2948.88
2953.11
2957.29
2961.4
2965.45
2969.41
2973.25
2976.9
2980.3
2983.41
2986.18
2988.54
2990.43
2991.83
2992.67
2992.93
2992.42
2991.16
2989.06
2985.99
2981.96
2976.81
2970.46
2962.83
2953.84
2943.35
2931.29
2917.55
2902.03
2884.64
2865.39
2844.13
2820.8
2795.52
2768.22
2739.03
2707.62
2674.01
2638.09
2600.31
2560.7
2519.48
2476.48
2432.21
2386.89
2340.75
2293.43
2244.9
2196.51
2148.27
2100.02
2051.17
2001.29
1952.63
1907.62
1865.62
1788.89
2790
2790
2790
2790
2790
2790
2790
2790
2790
2790
2790
2790
2790
2790
2790
2790
2790.02
2790.91
2802.1
2844.29
2899.13
2928.6
2935.77
2933.84
2925.95
2916.29
2908.37
2901.44
2894.77
2888.36
2882.43
2876.98
2871.95
2867.35
2863.18
2859.46
2856.17
2853.31
2850.85
2848.83
2847.21
2846.08
2845.32
2844.83
2844.54
2845.29
2852.05
2869.93
2890.65
2903.39
2908.69
2911.18
2913.51
2916.59
2920.22
2924.07
2928.12
2932.36
2936.78
2941.41
2946.2
2951.11
2956.06
2961.01
2965.94
2970.85
2975.75
2980.63
2985.49
2990.31
2995.08
2999.73
3004.2
3008.45
3012.43
3016.09
3019.4
3022.31
3024.72
3026.6
3027.89
3028.54
3028.61
3027.71
3026.08
3023.44
3019.72
3014.91
3008.87
3001.47
2992.66
2982.29
2970.28
2956.55
2941.04
2923.59
2904.21
2882.91
2859.52
2833.91
2805.77
2775.22
2742.33
2707.5
2670.71
2632.13
2591.57
2549.41
2505.77
2461.14
2415.1
2367.68
2319.28
2271.38
2224.38
2177.14
2130.47
2081.08
2036.02
1996.97
1925.78
2790
2790
2790
2790
2790
2790
2790
2790
2790
2790
2790
2790
2790
2790
2790
2790
2790.01
2790.31
2796.15
2828.5
2885.97
2926.22
2937.47
2937.15
2931.57
2922.64
2914.68
2907.37
2900.51
2894.02
2888.09
2882.68
2877.69
2873.13
2869.01
2865.35
2862.13
2859.37
2857.01
2855.12
2853.65
2852.68
2852.1
2851.84
2851.75
2852.36
2857.79
2874.71
2897.4
2912.87
2919.61
2922.55
2925
2928.2
2932.07
2936.23
2940.61
2945.21
2950.02
2955.06
2960.31
2965.72
2971.2
2976.72
2982.25
2987.8
2993.37
2998.95
3004.55
3010.18
3015.8
3021.37
3026.84
3032.15
3037.27
3042.16
3046.78
3051.08
3055.01
3058.51
3061.53
3063.96
3065.83
3067.05
3067.59
3067.36
3066.08
3063.93
3060.63
3056.15
3050.42
3043.28
3034.69
3024.52
3012.68
2998.99
2983.44
2965.9
2946.19
2924.21
2899.83
2873.24
2844.46
2813.61
2780.57
2745.48
2708.23
2668.88
2627.34
2584.16
2539.2
2492.8
2444.5
2395.2
2345.26
2295.64
2244.9
2193.43
2139.37
2091.28
2008.05
2790
2790
2790
2790
2790
2790
2790
2790
2790
2790
2790
2790
2790
2790
2790
2790
2790
2790.09
2792.82
2815.27
2870.73
2920.9
2937.58
2940.75
2937.34
2928.83
2920.25
2912.65
2905.81
2899.42
2893.58
2888.21
2883.25
2878.7
2874.61
2871.01
2867.88
2865.23
2863.01
2861.26
2859.94
2859.1
2858.68
2858.59
2858.74
2859.26
2863.65
2879.32
2903.55
2921.85
2930.21
2933.65
2936.19
2939.46
2943.53
2947.94
2952.61
2957.55
2962.72
2968.14
2973.82
2979.69
2985.69
2991.75
2997.85
3003.99
3010.18
3016.42
3022.71
3029.06
3035.46
3041.87
3048.23
3054.51
3060.66
3066.65
3072.45
3078.02
3083.3
3088.25
3092.82
3096.94
3100.6
3103.72
3106.23
3108.08
3109.19
3109.56
3108.93
3107.29
3104.56
3100.52
3095.24
3088.49
3080.21
3070.23
3058.53
3044.93
3029.33
3011.77
2992.13
2970.48
2946.64
2920.54
2892
2861.19
2828.1
2792.72
2754.98
2715.22
2673.59
2630.57
2585.44
2538.84
2490.29
2441.55
2392.16
2342.4
2290.75
2242.53
2158.37
2790
2790
2790
2790
2790
2790
2790
2790
2790
2790
2790
2790
2790
2790
2790
2790
2790
2790.03
2791.19
2805.43
2854.81
2912.62
2937.2
2944.6
2941.99
2934.17
2925.24
2917.59
2910.95
2904.76
2898.93
2893.5
2888.5
2883.96
2879.93
2876.44
2873.46
2870.96
2868.89
2867.26
2866.08
2865.33
2865.04
2865.12
2865.42
2865.94
2869.53
2883.86
2909.21
2930.34
2940.46
2944.44
2947.05
2950.33
2954.56
2959.2
2964.13
2969.36
2974.84
2980.6
2986.65
2992.95
2999.41
3005.97
3012.6
3019.29
3026.05
3032.88
3039.8
3046.81
3053.9
3061.07
3068.25
3075.4
3082.49
3089.5
3096.38
3103.1
3109.64
3115.93
3121.92
3127.57
3132.85
3137.71
3142.11
3145.98
3149.21
3151.75
3153.52
3154.46
3154.62
3153.46
3151.36
3147.91
3143.07
3136.8
3128.97
3119.41
3108.11
3094.99
3079.88
3062.64
3043
3020.94
2996.33
2969.38
2940.02
2908.32
2874.27
2837.89
2799.36
2758.93
2716.45
2672.24
2625.75
2578.29
2529.07
2480.06
2428.8
2378.65
2297.93
2790
2790
2790
2790
2790
2790
2790
2790
2790
2790
2790
2790
2790
2790
2790
2790
2790
2790.01
2790.47
2798.9
2839.87
2902.15
2936.51
2947.41
2945.49
2938.79
2929.9
2922.46
2916.06
2909.91
2903.92
2898.35
2893.34
2888.88
2885.02
2881.69
2878.88
2876.52
2874.58
2873.04
2871.94
2871.24
2871.02
2871.24
2871.67
2872.22
2875.25
2888.34
2914.47
2938.33
2950.28
2954.79
2957.42
2960.69
2965.04
2969.89
2975.05
2980.54
2986.31
2992.37
2998.75
3005.42
3012.31
3019.33
3026.45
3033.65
3040.94
3048.33
3055.83
3063.44
3071.18
3079.02
3086.94
3094.88
3102.82
3110.72
3118.57
3126.33
3133.97
3141.46
3148.73
3155.75
3162.48
3168.91
3174.98
3180.65
3185.84
3190.49
3194.53
3197.82
3200.38
3202.05
3202.82
3202.63
3201
3198.3
3194.09
3188.36
3181.04
3171.94
3160.89
3147.75
3132.36
3114.74
3094.81
3072.63
3048
3021.06
2991.73
2959.9
2925.63
2888.89
2850.1
2809.2
2765.91
2720.6
2672.56
2624.16
2572.39
2520.84
2445.22
2790
2790
2790
2790
2790
2790
2790
2790
2790
2790
2790
2790
2790
2790
2790
2790
2790
2790
2790.19
2794.97
2827.2
2890.63
2934.85
2949.12
2948.1
2942.97
2934.62
2927.27
2920.85
2914.53
2908.32
2902.69
2897.82
2893.58
2889.91
2886.76
2884.08
2881.81
2879.95
2878.45
2877.4
2876.72
2876.53
2876.88
2877.43
2878.03
2880.7
2892.8
2919.56
2945.96
2959.69
2964.7
2967.3
2970.5
2974.95
2980
2985.37
2991.11
2997.14
3003.47
3010.14
3017.14
3024.4
3031.83
3039.39
3047.06
3054.83
3062.73
3070.74
3078.9
3087.21
3095.67
3104.24
3112.89
3121.57
3130.28
3138.99
3147.67
3156.29
3164.84
3173.26
3181.5
3189.54
3197.36
3204.94
3212.22
3219.15
3225.66
3231.69
3237.18
3242.06
3246.23
3249.57
3252.07
3253.6
3254.16
3253.45
3251.37
3247.93
3242.77
3235.98
3227.37
3216.88
3204.39
3189.77
3172.94
3153.66
3132.06
3107.9
3081.22
3051.97
3020.1
2985.98
2949.36
2910.73
2869.58
2826.13
2780.42
2731.84
2679.7
2608.38
2790
2790
2790
2790
2790
2790
2790
2790
2790
2790
2790
2790
2790
2790
2790
2790
2790
2790
2790.08
2792.77
2817.39
2879.24
2931.76
2949.93
2950.65
2947.13
2939.18
2931.58
2924.97
2918.44
2912.13
2906.67
2902.08
2898.06
2894.55
2891.49
2888.88
2886.63
2884.79
2883.31
2882.3
2881.67
2881.52
2882
2882.67
2883.35
2885.81
2897.3
2924.77
2953.45
2968.76
2974.15
2976.65
2979.73
2984.23
2989.46
2995.03
3001.01
3007.3
3013.88
3020.82
3028.1
3035.67
3043.46
3051.41
3059.49
3067.69
3076.04
3084.53
3093.17
3102
3111
3120.16
3129.43
3138.79
3148.2
3157.66
3167.15
3176.65
3186.12
3195.54
3204.85
3214.04
3223.08
3231.97
3240.66
3249.12
3257.28
3265.08
3272.48
3279.41
3285.8
3291.58
3296.66
3300.93
3304.33
3306.74
3308.07
3308.39
3307.02
3304.48
3300.24
3294.25
3286.44
3276.5
3264.36
3249.81
3232.88
3213.27
3191.18
3166.39
3139
3108.97
3076.29
3041.32
3003.54
2963.56
2920.85
2875.78
2825.68
2759.84
2790
2790
2790
2790
2790
2790
2790
2790
2790
2790
2790
2790
2790
2790
2790
2790
2790
2790
2790.04
2791.6
2810.34
2869
2927.75
2950.22
2953.5
2950.91
2943.13
2935.19
2928.35
2921.7
2915.56
2910.46
2906.12
2902.21
2898.75
2895.69
2893.06
2890.82
2888.99
2887.56
2886.62
2886.1
2886.05
2886.7
2887.48
2888.26
2890.63
2901.94
2930.42
2961.08
2977.58
2983.19
2985.5
2988.41
2992.92
2998.27
3004.02
3010.22
3016.77
3023.6
3030.79
3038.33
3046.18
3054.28
3062.56
3070.99
3079.57
3088.3
3097.21
3106.29
3115.56
3125.05
3134.72
3144.54
3154.48
3164.51
3174.64
3184.83
3195.07
3205.35
3215.63
3225.87
3236.04
3246.14
3256.16
3266.08
3275.85
3285.44
3294.78
3303.83
3312.55
3320.88
3328.75
3336.09
3342.84
3348.9
3354.19
3358.55
3361.98
3364.26
3365.43
3365.44
3363.4
3360.07
3354.67
3347.3
3337.84
3326.13
3311.98
3295.47
3276.27
3254.55
3230.01
3202.88
3173.09
3140.3
3104.95
3066.26
3024.93
2978.13
2917.04
2790
2790
2790
2790
2790
2790
2790
2790
2790
2790
2790
2790
2790
2790
2790
2790
2790
2790
2790.02
2791.01
2805.64
2860.66
2923.83
2950.59
2956.19
2953.97
2946.45
2938.12
2931.09
2924.54
2918.78
2914.03
2909.8
2905.87
2902.35
2899.23
2896.54
2894.3
2892.54
2891.22
2890.43
2890.11
2890.22
2891.07
2891.97
2892.84
2895.22
2906.87
2936.84
2969.13
2986.23
2991.81
2993.87
2996.57
3001.06
3006.48
3012.34
3018.73
3025.51
3032.61
3040.04
3047.84
3055.95
3064.31
3072.88
3081.61
3090.51
3099.58
3108.84
3118.29
3127.96
3137.86
3147.97
3158.27
3168.71
3179.28
3189.97
3200.76
3211.65
3222.61
3233.63
3244.66
3255.67
3266.67
3277.64
3288.59
3299.48
3310.27
3320.92
3331.38
3341.62
3351.6
3361.27
3370.55
3379.4
3387.74
3395.51
3402.62
3408.95
3414.44
3418.86
3422.27
3424.41
3425.33
3424.74
3422.28
3418.24
3412.03
3403.66
3392.94
3379.56
3363.54
3344.5
3322.75
3297.83
3269.89
3238.76
3203.9
3166.13
3122.75
3065.98
2790
2790
2790
2790
2790
2790
2790
2790
2790
2790
2790
2790
2790
2790
2790
2790
2790
2790
2790.01
2790.74
2802.77
2854.65
2920.66
2951.24
2958.48
2956.47
2949.05
2940.43
2933.35
2927.12
2921.78
2917.25
2912.96
2908.93
2905.3
2902.07
2899.32
2897.13
2895.5
2894.39
2893.83
2893.73
2894.08
2895.13
2896.15
2897.08
2899.59
2912.26
2944.32
2977.82
2994.73
2999.95
3001.71
3004.23
3008.69
3014.13
3020.05
3026.57
3033.57
3040.89
3048.57
3056.62
3064.98
3073.6
3082.43
3091.43
3100.6
3109.96
3119.51
3129.28
3139.28
3149.53
3160.02
3170.71
3181.58
3192.6
3203.77
3215.08
3226.5
3238.04
3249.67
3261.35
3273.07
3284.81
3296.59
3308.39
3320.21
3331.99
3343.72
3355.35
3366.86
3378.21
3389.37
3400.28
3410.9
3421.18
3431.04
3440.44
3449.29
3457.49
3464.98
3471.64
3477.35
3481.97
3485.43
3487.47
3488.18
3486.84
3483.64
3478.23
3470.35
3460.03
3446.85
3431.02
3411.92
3390.01
3364.28
3334.6
3301.23
3261.95
3210.2
2790
2790
2790
2790
2790
2790
2790
2790
2790
2790
2790
2790
2790
2790
2790
2790
2790
2790
2790.01
2790.61
2801.41
2851.26
2919.16
2952.17
2960.42
2958.42
2950.96
2942.27
2935.29
2929.39
2924.37
2919.93
2915.53
2911.39
2907.64
2904.32
2901.54
2899.42
2897.96
2897.1
2896.81
2896.94
2897.57
2898.8
2899.92
2900.89
2903.74
2918.32
2953.09
2987.21
3003.06
3007.52
3008.92
3011.31
3015.82
3021.29
3027.23
3033.85
3041
3048.51
3056.41
3064.69
3073.3
3082.17
3091.24
3100.48
3109.9
3119.5
3129.31
3139.34
3149.61
3160.15
3170.95
3181.98
3193.2
3204.6
3216.17
3227.89
3239.76
3251.77
3263.91
3276.14
3288.43
3300.79
3313.22
3325.72
3338.28
3350.88
3363.49
3376.07
3388.6
3401.07
3413.44
3425.67
3437.73
3449.58
3461.16
3472.44
3483.34
3493.8
3503.75
3513.12
3521.81
3529.69
3536.67
3542.54
3547.28
3550.63
3552.57
3553.01
3551.04
3547.29
3540.83
3531.64
3519.35
3504.04
3484.28
3460.44
3431.29
3396.45
3349.63
2790
2790
2790
2790
2790
2790
2790
2790
2790
2790
2790
2790
2790
2790
2790
2790
2790
2790
2790.01
2790.58
2801.1
2850.57
2919.14
2953.47
2962.16
2959.91
2952.36
2943.75
2936.89
2931.18
2926.33
2921.94
2917.5
2913.3
2909.5
2906.14
2903.36
2901.31
2900.01
2899.37
2899.3
2899.66
2900.52
2901.91
2903.1
2904.11
2907.69
2925.35
2963.26
2997.15
3011.18
3014.46
3015.43
3017.74
3022.39
3027.95
3033.96
3040.67
3047.93
3055.59
3063.65
3072.13
3080.95
3090.05
3099.35
3108.82
3118.46
3128.29
3138.32
3148.57
3159.08
3169.86
3180.92
3192.22
3203.73
3215.44
3227.33
3239.4
3251.64
3264.04
3276.58
3289.25
3302.02
3314.87
3327.82
3340.89
3354.05
3367.3
3380.6
3393.94
3407.29
3420.64
3433.96
3447.24
3460.44
3473.53
3486.47
3499.23
3511.78
3524.04
3535.98
3547.52
3558.62
3569.19
3579.14
3588.4
3596.82
3604.3
3610.58
3615.64
3619.09
3620.91
3621.06
3618.02
3613.22
3605.16
3593.16
3577.16
3553.95
3526
3485.36
2790
2790
2790
2790
2790
2790
2790
2790
2790
2790
2790
2790
2790
2790
2790
2790
2790
2790
2790.01
2790.61
2801.41
2851.76
2920.81
2955.21
2963.68
2961.11
2953.4
2944.9
2938.08
2932.4
2927.55
2923.24
2918.91
2914.76
2910.98
2907.67
2904.92
2902.92
2901.71
2901.21
2901.27
2901.82
2902.87
2904.35
2905.54
2906.66
2911.65
2933.82
2974.84
3007.22
3018.95
3020.8
3021.26
3023.52
3028.37
3034.06
3040.19
3047.05
3054.44
3062.21
3070.41
3079.03
3088.02
3097.31
3106.81
3116.49
3126.33
3136.36
3146.59
3157.05
3167.76
3178.75
3190.03
3201.56
3213.31
3225.27
3237.44
3249.79
3262.33
3275.05
3287.93
3300.96
3314.1
3327.36
3340.74
3354.25
3367.89
3381.65
3395.51
3409.44
3423.43
3437.46
3451.53
3465.61
3479.69
3493.73
3507.72
3521.62
3535.42
3549.06
3562.51
3575.74
3588.68
3601.3
3613.53
3625.3
3636.52
3647.11
3656.94
3665.88
3673.84
3680.44
3685.92
3689.42
3691.45
3691.26
3687.69
3681
3667.06
3650.17
3620.11
2790
2790
2790
2790
2790
2790
2790
2790
2790
2790
2790
2790
2790
2790
2790
2790
2790
2790
2790.01
2790.72
2802.77
2855.85
2924.6
2957.21
2964.86
2962.08
2954.15
2945.76
2938.9
2933.07
2928.11
2923.86
2919.78
2915.8
2912.15
2908.96
2906.3
2904.34
2903.15
2902.68
2902.77
2903.43
2904.64
2906.11
2907.24
2908.7
2916.15
2944.29
2987.76
3016.86
3026.07
3026.61
3026.56
3028.84
3033.88
3039.68
3045.97
3053.01
3060.55
3068.43
3076.73
3085.47
3094.59
3104.02
3113.69
3123.53
3133.56
3143.77
3154.19
3164.83
3175.73
3186.91
3198.38
3210.11
3222.08
3234.26
3246.65
3259.24
3272.03
3285.02
3298.18
3311.5
3324.95
3338.54
3352.26
3366.13
3380.16
3394.33
3408.62
3423.01
3437.5
3452.06
3466.7
3481.4
3496.14
3510.9
3525.67
3540.42
3555.14
3569.79
3584.36
3598.8
3613.09
3627.19
3641.07
3654.67
3667.94
3680.83
3693.26
3705.15
3716.38
3726.83
3736.35
3744.74
3751.76
3757.34
3761.19
3762.68
3760.05
3754.42
3740.82
2790
2790
2790
2790
2790
2790
2790
2790
2790
2790
2790
2790
2790
2790
2790
2790
2790
2790
2790.02
2790.96
2805.46
2862.32
2929.64
2959.3
2965.63
2962.65
2954.57
2946.33
2939.37
2933.29
2928.11
2923.82
2920.02
2916.37
2912.96
2909.97
2907.47
2905.58
2904.39
2903.89
2903.93
2904.67
2905.94
2907.33
2908.39
2910.57
2922.05
2957.2
3001.61
3025.65
3032.06
3031.86
3031.42
3033.79
3039.09
3044.94
3051.34
3058.57
3066.28
3074.29
3082.7
3091.54
3100.75
3110.27
3120.05
3130.03
3140.2
3150.57
3161.16
3171.98
3183.06
3194.43
3206.08
3217.99
3230.15
3242.52
3255.11
3267.91
3280.92
3294.13
3307.53
3321.1
3334.81
3348.66
3362.66
3376.83
3391.17
3405.66
3420.3
3435.05
3449.92
3464.89
3479.96
3495.11
3510.34
3525.63
3540.96
3556.31
3571.68
3587.03
3602.35
3617.62
3632.8
3647.89
3662.86
3677.65
3692.25
3706.6
3720.66
3734.38
3747.67
3760.5
3772.74
3784.3
3794.87
3804.48
3812.7
3819.29
3824.05
3825.61
3826.02
2790
2790
2790
2790
2790
2790
2790
2790
2790
2790
2790
2790
2790
2790
2790
2790
2790
2790
2790.03
2791.44
2809.66
2870.92
2935.53
2961.49
2966.02
2962.6
2954.56
2946.58
2939.56
2933.22
2927.79
2923.36
2919.69
2916.36
2913.29
2910.6
2908.33
2906.56
2905.44
2904.9
2904.91
2905.69
2906.96
2908.18
2909.25
2912.86
2930.48
2972.72
3015.48
3033.81
3036.87
3036.29
3035.75
3038.35
3043.99
3049.9
3056.39
3063.77
3071.61
3079.75
3088.28
3097.2
3106.49
3116.1
3125.95
3136.03
3146.31
3156.82
3167.56
3178.54
3189.78
3201.32
3213.14
3225.23
3237.55
3250.1
3262.87
3275.86
3289.06
3302.46
3316.06
3329.83
3343.76
3357.83
3372.06
3386.47
3401.06
3415.81
3430.71
3445.74
3460.89
3476.16
3491.54
3507.02
3522.58
3538.22
3553.92
3569.65
3585.42
3601.2
3616.98
3632.7
3648.38
3663.98
3679.49
3694.88
3710.16
3725.25
3740.08
3754.55
3768.64
3782.36
3795.63
3808.35
3820.33
3831.6
3841.72
3850.86
3858.19
3862.98
3868.07
2790
2790
2790
2790
2790
2790
2790
2790
2790
2790
2790
2790
2790
2790
2790
2790
2790
2790
2790.06
2792.29
2815.64
2881.26
2941.72
2963.65
2966.26
2961.97
2953.89
2946.45
2939.56
2933.04
2927.37
2922.72
2918.94
2915.8
2913.07
2910.66
2908.69
2907.16
2906.18
2905.68
2905.7
2906.53
2907.73
2908.78
2910.11
2916.39
2942.39
2990.28
3028
3041.25
3041.08
3039.69
3039.48
3042.58
3048.61
3054.58
3061.14
3068.63
3076.57
3084.82
3093.45
3102.46
3111.82
3121.48
3131.4
3141.54
3151.93
3162.55
3173.42
3184.54
3195.94
3207.63
3219.61
3231.86
3244.34
3257.04
3269.97
3283.12
3296.48
3310.04
3323.81
3337.75
3351.84
3366.08
3380.49
3395.08
3409.85
3424.79
3439.88
3455.11
3470.45
3485.91
3501.48
3517.14
3532.89
3548.71
3564.59
3580.5
3596.43
3612.35
3628.27
3644.12
3659.97
3675.68
3691.24
3706.61
3721.85
3736.88
3751.67
3766.19
3780.38
3794.04
3806.87
3818.9
3830
3840.1
3848.9
3856.55
3862.37
3866.22
3869.33
2790
2790
2790
2790
2790
2790
2790
2790
2790
2790
2790
2790
2790
2790
2790
2790
2790
2790
2790.12
2793.75
2823.65
2892.79
2947.67
2965.65
2966.32
2960.84
2952.56
2945.65
2939.15
2932.72
2926.92
2922.07
2918.11
2914.91
2912.31
2910.19
2908.51
2907.22
2906.46
2906.11
2906.28
2907.17
2908.22
2909.13
2911.24
2922.36
2958.38
3008.73
3038.31
3046.8
3044.92
3042.41
3042.7
3046.51
3052.89
3058.97
3065.64
3073.23
3081.22
3089.52
3098.22
3107.3
3116.72
3126.42
3136.37
3146.57
3157.02
3167.73
3178.71
3189.96
3201.5
3213.34
3225.47
3237.86
3250.48
3263.33
3276.4
3289.69
3303.18
3316.88
3330.78
3344.84
3359.05
3373.42
3387.96
3402.67
3417.56
3432.62
3447.82
3463.13
3478.57
3494.1
3509.75
3525.46
3541.24
3557.06
3572.91
3588.77
3604.67
3620.49
3636.24
3651.85
3667.47
3682.94
3698.33
3713.55
3728.35
3742.63
3756.36
3769.45
3781.82
3793.49
3804.22
3814.17
3822.96
3830.49
3836.57
3840.99
3843.56
3844.15
3840.99
2790
2790
2790
2790
2790
2790
2790