/*--------------------------------*- C++ -*----------------------------------*\
| =========                 |                                                 |
| \\      /  F ield         | OpenFOAM: The Open Source CFD Toolbox           |
|  \\    /   O peration     | Version:  2412                                  |
|   \\  /    A nd           | Website:  www.openfoam.com                      |
|    \\/     M anipulation  |                                                 |
\*---------------------------------------------------------------------------*/
FoamFile
{
    version     2.0;
    format      ascii;
    arch        "LSB;label=32;scalar=64";
    class       volVectorField;
    location    "0.012";
    object      U;
}
// * * * * * * * * * * * * * * * * * * * * * * * * * * * * * * * * * * * * * //

dimensions      [0 1 -1 0 0 0 0];

internalField   nonuniform List<vector> 
78650
(
(210 -1.84169e-12 0)
(210 1.26054e-12 0)
(210 -4.62126e-12 0)
(210 6.35976e-12 0)
(210 6.72791e-12 0)
(210 -6.02728e-13 0)
(210 -2.0989e-12 0)
(210 5.87983e-12 0)
(210 4.53415e-12 0)
(210 5.53264e-13 0)
(210 -3.97142e-13 0)
(210 7.21572e-12 0)
(210 5.06809e-12 0)
(210 3.1836e-12 0)
(210 -2.13711e-12 0)
(210 -8.0573e-12 0)
(210 -7.47617e-12 0)
(210 -3.64156e-12 0)
(210 -3.15487e-12 0)
(210 -7.25698e-13 0)
(210 -7.28952e-13 0)
(210 8.67421e-13 0)
(210 -4.52691e-13 0)
(210 -1.54328e-12 0)
(210 -3.74154e-12 0)
(210 2.95814e-11 0)
(210 3.28876e-09 0)
(210 3.73274e-07 0)
(210 3.48091e-05 0)
(209.991 0.0023431 0)
(209.815 0.0619085 0)
(208.633 0.552743 0)
(205.86 1.88179 0)
(203.226 3.27728 0)
(201.866 4.01727 0)
(201.821 4.23577 0)
(201.94 4.23863 0)
(202.579 4.12622 0)
(203.4 3.90658 0)
(204.175 3.87361 0)
(204.814 3.85655 0)
(205.397 3.90236 0)
(205.978 3.96789 0)
(206.544 4.0529 0)
(207.074 4.16072 0)
(207.565 4.30919 0)
(208.041 4.50092 0)
(208.509 4.73765 0)
(208.956 5.01773 0)
(209.37 5.34038 0)
(209.757 5.70795 0)
(210.132 6.12028 0)
(210.492 6.57399 0)
(210.832 7.06041 0)
(211.131 7.57831 0)
(211.42 8.12327 0)
(211.695 8.70746 0)
(211.929 9.36836 0)
(212.024 10.134 0)
(211.914 11.0466 0)
(211.41 12.3579 0)
(210.885 13.7556 0)
(210.675 14.9655 0)
(210.667 16.0684 0)
(210.713 17.1484 0)
(210.827 18.2254 0)
(210.981 19.3475 0)
(211.129 20.5334 0)
(211.277 21.7809 0)
(211.44 23.0847 0)
(211.625 24.4418 0)
(211.834 25.853 0)
(212.066 27.3211 0)
(212.321 28.8484 0)
(212.606 30.4353 0)
(212.932 32.0816 0)
(213.306 33.7863 0)
(213.737 35.5477 0)
(214.237 37.3658 0)
(214.82 39.2415 0)
(215.495 41.1732 0)
(216.264 43.1623 0)
(217.166 45.2053 0)
(218.181 47.3019 0)
(219.354 49.4456 0)
(220.696 51.6288 0)
(222.204 53.8473 0)
(223.943 56.0834 0)
(225.865 58.3479 0)
(228.075 60.6019 0)
(230.47 62.8621 0)
(233.21 65.0444 0)
(236.145 67.2077 0)
(239.499 69.2226 0)
(243.033 71.2345 0)
(247.046 72.9889 0)
(251.228 74.7466 0)
(255.869 76.184 0)
(260.769 77.5235 0)
(266.069 78.5606 0)
(271.667 79.3552 0)
(277.517 79.8214 0)
(283.416 79.9939 0)
(289.586 79.8664 0)
(295.555 79.4513 0)
(301.692 78.8097 0)
(307.774 77.8513 0)
(313.368 76.856 0)
(319.124 75.6824 0)
(324.249 74.3128 0)
(328.711 73.1213 0)
(333.646 71.6136 0)
(337.856 70.35 0)
(342.105 68.9295 0)
(345.618 67.6073 0)
(348.36 66.155 0)
(350.427 64.6322 0)
(352.516 63.7181 0)
(356.036 62.7421 0)
(361.344 61.7754 0)
(363.229 64.7365 0)
(210 7.74128e-13 0)
(210 3.73479e-12 0)
(210 -5.27535e-12 0)
(210 9.65344e-12 0)
(210 6.33288e-12 0)
(210 4.82143e-12 0)
(210 7.92167e-12 0)
(210 7.47014e-12 0)
(210 3.487e-13 0)
(210 -3.54996e-12 0)
(210 2.43696e-12 0)
(210 8.91456e-12 0)
(210 1.52088e-12 0)
(210 2.01999e-12 0)
(210 -2.93896e-12 0)
(210 -9.03019e-12 0)
(210 -4.48149e-12 0)
(210 8.80594e-13 0)
(210 -3.03983e-12 0)
(210 -4.16867e-15 0)
(210 -8.93724e-13 0)
(210 1.42537e-12 0)
(210 -5.24153e-13 0)
(210 -7.32754e-12 0)
(210 -7.08491e-12 0)
(210 6.69644e-12 0)
(210 4.79081e-10 0)
(210 6.12794e-08 0)
(210 7.45597e-06 0)
(209.996 0.000852093 0)
(209.891 0.0316505 0)
(209.002 0.366075 0)
(206.435 1.51571 0)
(203.525 2.99654 0)
(201.85 3.86841 0)
(201.693 4.13496 0)
(201.684 4.2139 0)
(202.241 4.1749 0)
(203.066 3.96564 0)
(203.848 3.91269 0)
(204.473 3.87791 0)
(205.046 3.91419 0)
(205.617 3.97309 0)
(206.172 4.05187 0)
(206.69 4.15696 0)
(207.171 4.30533 0)
(207.639 4.498 0)
(208.099 4.73503 0)
(208.537 5.01311 0)
(208.94 5.33081 0)
(209.314 5.69054 0)
(209.675 6.09321 0)
(210.019 6.53505 0)
(210.341 7.00799 0)
(210.619 7.51135 0)
(210.881 8.04278 0)
(211.128 8.61026 0)
(211.347 9.24074 0)
(211.443 9.96866 0)
(211.363 10.7949 0)
(210.872 12.0236 0)
(210.254 13.4324 0)
(209.924 14.6739 0)
(209.858 15.773 0)
(209.857 16.8567 0)
(209.905 17.9266 0)
(209.999 19.0296 0)
(210.092 20.1946 0)
(210.184 21.422 0)
(210.285 22.706 0)
(210.402 24.043 0)
(210.538 25.4327 0)
(210.69 26.8783 0)
(210.861 28.3832 0)
(211.054 29.9486 0)
(211.28 31.5751 0)
(211.543 33.2617 0)
(211.855 35.0071 0)
(212.223 36.8122 0)
(212.663 38.6787 0)
(213.182 40.6057 0)
(213.78 42.5957 0)
(214.498 44.6474 0)
(215.313 46.76 0)
(216.273 48.9304 0)
(217.385 51.1544 0)
(218.65 53.4296 0)
(220.129 55.741 0)
(221.778 58.0906 0)
(223.7 60.4439 0)
(225.803 62.8146 0)
(228.242 65.1482 0)
(230.885 67.4893 0)
(233.932 69.7377 0)
(237.172 71.9863 0)
(240.874 74.0407 0)
(244.718 76.1072 0)
(249.034 77.8807 0)
(253.508 79.6108 0)
(258.368 81.0132 0)
(263.512 82.2576 0)
(268.922 83.1615 0)
(274.625 83.8384 0)
(280.512 84.2132 0)
(286.447 84.3214 0)
(292.494 84.1885 0)
(298.74 83.7474 0)
(304.487 83.0286 0)
(310.469 82.2314 0)
(316.475 81.13 0)
(321.804 79.8857 0)
(327.281 78.4907 0)
(332.362 77.0236 0)
(336.777 75.7409 0)
(341.32 74.2836 0)
(344.838 72.8995 0)
(347.371 71.3012 0)
(349.286 70.0768 0)
(352.308 68.8469 0)
(357.932 67.5151 0)
(360.129 70.673 0)
(210 -4.54806e-13 0)
(210 2.63994e-12 0)
(210 3.17954e-12 0)
(210 1.09784e-11 0)
(210 9.61552e-12 0)
(210 6.40748e-12 0)
(210 5.874e-12 0)
(210 -4.57965e-12 0)
(210 6.63165e-13 0)
(210 4.29218e-13 0)
(210 6.97108e-12 0)
(210 4.86963e-12 0)
(210 -1.90701e-12 0)
(210 -5.87541e-13 0)
(210 -9.64035e-12 0)
(210 -5.479e-12 0)
(210 -1.38572e-12 0)
(210 3.55902e-13 0)
(210 -4.12479e-12 0)
(210 -1.37771e-12 0)
(210 -1.99226e-12 0)
(210 -1.72034e-12 0)
(210 -4.35393e-12 0)
(210 -7.96325e-12 0)
(210 -4.83303e-12 0)
(210 5.61852e-12 0)
(210 2.50401e-10 0)
(210 3.01179e-08 0)
(210 3.12982e-06 0)
(209.998 0.000341357 0)
(209.94 0.0157223 0)
(209.32 0.232397 0)
(207.085 1.18541 0)
(204.006 2.69034 0)
(201.923 3.67954 0)
(201.568 4.02804 0)
(201.45 4.19202 0)
(201.911 4.20326 0)
(202.716 3.99158 0)
(203.5 3.90448 0)
(204.121 3.85399 0)
(204.69 3.883 0)
(205.254 3.9327 0)
(205.8 4.00016 0)
(206.31 4.09866 0)
(206.783 4.24576 0)
(207.244 4.44034 0)
(207.698 4.67972 0)
(208.127 4.95824 0)
(208.516 5.27363 0)
(208.878 5.62821 0)
(209.223 6.02364 0)
(209.552 6.45572 0)
(209.856 6.9171 0)
(210.114 7.40759 0)
(210.35 7.92674 0)
(210.569 8.48063 0)
(210.771 9.08863 0)
(210.865 9.78786 0)
(210.806 10.5588 0)
(210.335 11.7108 0)
(209.625 13.1238 0)
(209.165 14.404 0)
(209.021 15.5163 0)
(208.991 16.5833 0)
(208.985 17.6435 0)
(209.019 18.7303 0)
(209.059 19.8741 0)
(209.098 21.0786 0)
(209.14 22.3398 0)
(209.192 23.6542 0)
(209.257 25.0207 0)
(209.333 26.4427 0)
(209.424 27.924 0)
(209.531 29.4662 0)
(209.662 31.0698 0)
(209.822 32.7336 0)
(210.021 34.4562 0)
(210.266 36.2389 0)
(210.573 38.0837 0)
(210.946 39.9901 0)
(211.387 41.961 0)
(211.933 43.9964 0)
(212.56 46.0955 0)
(213.319 48.2571 0)
(214.209 50.4786 0)
(215.234 52.7571 0)
(216.449 55.0814 0)
(217.817 57.4512 0)
(219.433 59.8457 0)
(221.217 62.2798 0)
(223.31 64.7196 0)
(225.593 67.1923 0)
(228.245 69.6221 0)
(231.097 72.0639 0)
(234.398 74.3842 0)
(237.877 76.7213 0)
(241.88 78.8215 0)
(246.071 80.9106 0)
(250.765 82.6751 0)
(255.717 84.3348 0)
(261.072 85.6616 0)
(266.769 86.7572 0)
(272.634 87.5025 0)
(278.892 88.0292 0)
(284.798 88.1832 0)
(291.248 88.1575 0)
(297.388 87.7131 0)
(303.179 87.1627 0)
(309.513 86.3894 0)
(315.393 85.2438 0)
(320.52 84.1708 0)
(326.852 82.6251 0)
(331.648 81.3814 0)
(336.919 79.7781 0)
(340.714 78.4412 0)
(343.315 76.8683 0)
(345.296 75.7245 0)
(348.508 74.823 0)
(354.75 73.4772 0)
(356.967 77.307 0)
(210 3.60977e-12 0)
(210 4.31894e-12 0)
(210 8.97831e-12 0)
(210 8.45434e-12 0)
(210 7.03859e-12 0)
(210 1.11186e-12 0)
(210 -5.21652e-12 0)
(210 -5.87499e-12 0)
(210 9.51281e-13 0)
(210 4.63372e-12 0)
(210 3.20293e-12 0)
(210 -2.12904e-12 0)
(210 -3.07605e-12 0)
(210 -6.08268e-12 0)
(210 -5.15461e-12 0)
(210 -9.24525e-13 0)
(210 -2.4556e-12 0)
(210 -2.02555e-12 0)
(210 -1.80747e-12 0)
(210 3.33535e-12 0)
(210 7.79665e-13 0)
(210 2.71343e-13 0)
(210 -3.19335e-12 0)
(210 -1.73918e-12 0)
(210 1.53296e-12 0)
(210 8.74805e-12 0)
(210 2.82324e-11 0)
(210 3.96512e-09 0)
(210 5.67294e-07 0)
(209.999 9.91396e-05 0)
(209.97 0.00670522 0)
(209.564 0.133466 0)
(207.701 0.86682 0)
(204.525 2.32136 0)
(202.046 3.45891 0)
(201.465 3.91919 0)
(201.239 4.15532 0)
(201.584 4.20353 0)
(202.35 4.00917 0)
(203.135 3.91236 0)
(203.754 3.84707 0)
(204.32 3.8694 0)
(204.875 3.91688 0)
(205.412 3.98492 0)
(205.913 4.08654 0)
(206.38 4.23639 0)
(206.837 4.43255 0)
(207.285 4.67066 0)
(207.704 4.9441 0)
(208.08 5.251 0)
(208.428 5.59438 0)
(208.757 5.97726 0)
(209.069 6.39519 0)
(209.354 6.84148 0)
(209.593 7.31565 0)
(209.804 7.81953 0)
(209.994 8.35769 0)
(210.176 8.94234 0)
(210.267 9.60942 0)
(210.227 10.3284 0)
(209.801 11.387 0)
(209.028 12.7721 0)
(208.439 14.0807 0)
(208.203 15.2059 0)
(208.138 16.2585 0)
(208.091 17.3103 0)
(208.063 18.3836 0)
(208.045 19.5065 0)
(208.03 20.6878 0)
(208.016 21.9253 0)
(208.005 23.2158 0)
(208.001 24.5582 0)
(208.006 25.9546 0)
(208.02 27.4095 0)
(208.045 28.9249 0)
(208.085 30.5017 0)
(208.145 32.1394 0)
(208.235 33.837 0)
(208.36 35.5964 0)
(208.538 37.4203 0)
(208.768 39.3085 0)
(209.054 41.2646 0)
(209.429 43.2903 0)
(209.872 45.3849 0)
(210.433 47.5498 0)
(211.105 49.7831 0)
(211.899 52.083 0)
(212.864 54.4431 0)
(213.969 56.8624 0)
(215.305 59.328 0)
(216.797 61.8497 0)
(218.577 64.3993 0)
(220.535 66.9873 0)
(222.839 69.5518 0)
(225.34 72.1268 0)
(228.262 74.6141 0)
(231.36 77.1047 0)
(234.951 79.4178 0)
(238.701 81.7354 0)
(242.965 83.7898 0)
(247.429 85.8054 0)
(252.344 87.5215 0)
(257.565 89.1002 0)
(263.149 90.3609 0)
(269.117 91.4265 0)
(275.24 92.0189 0)
(281.621 92.3874 0)
(288.301 92.4459 0)
(294.763 91.9802 0)
(300.659 91.5779 0)
(307.528 90.8286 0)
(313.096 89.8782 0)
(319.189 88.8289 0)
(325.47 87.4293 0)
(330.675 86.1601 0)
(336.293 84.3271 0)
(339.746 82.4952 0)
(342.212 80.7895 0)
(345.603 79.8254 0)
(352.364 78.8389 0)
(354.555 83.7455 0)
(210 9.00068e-12 0)
(210 5.57092e-12 0)
(210 1.07868e-11 0)
(210 1.13225e-11 0)
(210 7.21352e-12 0)
(210 -5.67282e-12 0)
(210 -5.67518e-12 0)
(210 3.29997e-12 0)
(210 6.18875e-12 0)
(210 -1.30373e-12 0)
(210 2.71586e-13 0)
(210 2.18284e-12 0)
(210 -3.56449e-12 0)
(210 -5.00822e-12 0)
(210 -1.15183e-12 0)
(210 -2.34722e-13 0)
(210 -2.90884e-12 0)
(210 2.36353e-13 0)
(210 2.07653e-12 0)
(210 4.6111e-12 0)
(210 2.86472e-12 0)
(210 4.63501e-12 0)
(210 3.00601e-12 0)
(210 4.25291e-12 0)
(210 5.11881e-12 0)
(210 9.61463e-12 0)
(210 1.12184e-11 0)
(210 1.20834e-09 0)
(210 1.4078e-07 0)
(210 2.66557e-05 0)
(209.986 0.00259172 0)
(209.744 0.0703767 0)
(208.299 0.596491 0)
(205.221 1.93376 0)
(202.389 3.21433 0)
(201.401 3.82809 0)
(201.025 4.07004 0)
(201.269 4.1732 0)
(201.979 4.03053 0)
(202.754 3.9086 0)
(203.375 3.8105 0)
(203.943 3.81493 0)
(204.495 3.85588 0)
(205.024 3.92408 0)
(205.517 4.03047 0)
(205.979 4.18544 0)
(206.431 4.38554 0)
(206.871 4.6236 0)
(207.278 4.89211 0)
(207.641 5.19028 0)
(207.974 5.52234 0)
(208.287 5.89272 0)
(208.584 6.29678 0)
(208.851 6.7283 0)
(209.072 7.18644 0)
(209.259 7.67497 0)
(209.421 8.1981 0)
(209.579 8.76255 0)
(209.669 9.39867 0)
(209.642 10.0834 0)
(209.274 11.0466 0)
(208.453 12.39 0)
(207.72 13.7376 0)
(207.367 14.8932 0)
(207.247 15.9485 0)
(207.173 16.9838 0)
(207.093 18.0447 0)
(207.019 19.146 0)
(206.95 20.3017 0)
(206.881 21.5125 0)
(206.812 22.7762 0)
(206.743 24.0931 0)
(206.679 25.4623 0)
(206.621 26.8887 0)
(206.566 28.3745 0)
(206.519 29.9213 0)
(206.485 31.5293 0)
(206.473 33.1975 0)
(206.486 34.9273 0)
(206.543 36.722 0)
(206.64 38.5808 0)
(206.784 40.507 0)
(207.003 42.5041 0)
(207.277 44.5706 0)
(207.655 46.7098 0)
(208.125 48.9202 0)
(208.702 51.2014 0)
(209.427 53.551 0)
(210.274 55.9678 0)
(211.325 58.4443 0)
(212.511 60.9852 0)
(213.957 63.5717 0)
(215.559 66.2087 0)
(217.481 68.8588 0)
(219.594 71.5464 0)
(222.106 74.2071 0)
(224.81 76.8978 0)
(227.998 79.4942 0)
(231.373 82.1174 0)
(235.29 84.5541 0)
(239.416 86.9802 0)
(244.057 89.1237 0)
(248.959 91.1782 0)
(254.283 92.9176 0)
(259.914 94.4356 0)
(265.917 95.6374 0)
(272.146 96.4711 0)
(278.502 97.0432 0)
(285.341 97.2705 0)
(291.397 97.0899 0)
(298.174 96.8164 0)
(304.781 96.0802 0)
(310.087 95.4389 0)
(317.064 94.2529 0)
(322.168 93.303 0)
(328.061 91.7892 0)
(332.27 90.2506 0)
(335.502 88.6734 0)
(339.585 87.2788 0)
(346.834 85.8735 0)
(349.376 90.0365 0)
(210 3.05414e-12 0)
(210 -2.25815e-12 0)
(210 5.04318e-12 0)
(210 3.66627e-12 0)
(210 -2.36366e-12 0)
(210 -8.52133e-12 0)
(210 -2.51668e-12 0)
(210 6.16623e-12 0)
(210 1.19655e-12 0)
(210 -7.80803e-12 0)
(210 1.39798e-13 0)
(210 -6.04926e-12 0)
(210 -3.13073e-12 0)
(210 3.12701e-13 0)
(210 -1.33628e-12 0)
(210 -1.58469e-12 0)
(210 -2.09343e-12 0)
(210 -5.05651e-12 0)
(210 1.99162e-12 0)
(210 6.21506e-12 0)
(210 4.31518e-12 0)
(210 3.67669e-12 0)
(210 2.24569e-12 0)
(210 8.97574e-12 0)
(210 9.44286e-12 0)
(210 6.33649e-12 0)
(210 7.16471e-13 0)
(210 -2.17729e-10 0)
(210 -8.58253e-09 0)
(210 3.63681e-06 0)
(209.994 0.000819583 0)
(209.863 0.0324863 0)
(208.822 0.373238 0)
(205.98 1.5198 0)
(202.759 2.89063 0)
(201.355 3.69505 0)
(200.805 3.93274 0)
(200.987 4.13885 0)
(201.608 4.046 0)
(202.352 3.9 0)
(202.973 3.77004 0)
(203.544 3.77238 0)
(204.095 3.82175 0)
(204.619 3.90041 0)
(205.107 4.01321 0)
(205.565 4.16981 0)
(206.012 4.36798 0)
(206.442 4.59985 0)
(206.836 4.85811 0)
(207.182 5.14326 0)
(207.5 5.46079 0)
(207.795 5.81635 0)
(208.076 6.20512 0)
(208.325 6.62118 0)
(208.528 7.06279 0)
(208.692 7.53537 0)
(208.828 8.04282 0)
(208.958 8.58856 0)
(209.045 9.19392 0)
(209.023 9.85536 0)
(208.72 10.7163 0)
(207.886 11.9932 0)
(207.024 13.3649 0)
(206.546 14.5484 0)
(206.363 15.5999 0)
(206.253 16.6205 0)
(206.142 17.655 0)
(206.017 18.7345 0)
(205.891 19.8668 0)
(205.767 21.0512 0)
(205.641 22.2865 0)
(205.508 23.5764 0)
(205.38 24.9156 0)
(205.251 26.311 0)
(205.12 27.7649 0)
(204.991 29.2788 0)
(204.867 30.8539 0)
(204.755 32.4905 0)
(204.66 34.1886 0)
(204.599 35.9533 0)
(204.566 37.7838 0)
(204.57 39.6818 0)
(204.636 41.6538 0)
(204.742 43.6977 0)
(204.939 45.8195 0)
(205.21 48.0178 0)
(205.573 50.2942 0)
(206.064 52.6488 0)
(206.661 55.0796 0)
(207.441 57.5832 0)
(208.342 60.1597 0)
(209.483 62.7988 0)
(210.768 65.5042 0)
(212.352 68.254 0)
(214.118 71.0612 0)
(216.252 73.8754 0)
(218.574 76.7303 0)
(221.351 79.5356 0)
(224.313 82.3689 0)
(227.792 85.0705 0)
(231.475 87.7742 0)
(235.704 90.2532 0)
(240.178 92.6759 0)
(245.142 94.7986 0)
(250.433 96.7901 0)
(256.117 98.4726 0)
(262.185 99.8754 0)
(268.526 100.875 0)
(275.143 101.641 0)
(282.007 101.997 0)
(288.319 102.154 0)
(295.663 102.065 0)
(301.799 101.572 0)
(308.681 100.809 0)
(315.097 99.9358 0)
(321.075 98.6897 0)
(325.747 97.2518 0)
(329.188 95.6211 0)
(333.055 94.4625 0)
(341.155 92.8539 0)
(343.697 98.0505 0)
(210 7.02872e-13 0)
(210 1.42223e-12 0)
(210 6.22983e-12 0)
(210 1.23954e-12 0)
(210 -3.71827e-12 0)
(210 -7.94037e-12 0)
(210 -5.78472e-12 0)
(210 -6.04557e-12 0)
(210 -9.81651e-12 0)
(210 -1.05002e-12 0)
(210 -3.23597e-12 0)
(210 2.40174e-12 0)
(210 8.71673e-13 0)
(210 5.08811e-13 0)
(210 -2.45536e-12 0)
(210 -1.41337e-12 0)
(210 -2.03827e-13 0)
(210 -5.95455e-12 0)
(210 2.21773e-12 0)
(210 -1.22555e-12 0)
(210 1.37578e-12 0)
(210 3.6427e-12 0)
(210 5.89985e-12 0)
(210 8.18141e-12 0)
(210 6.48674e-12 0)
(210 -3.01621e-12 0)
(210 2.54144e-12 0)
(210 -9.25726e-11 0)
(210 -8.99101e-09 0)
(210 -2.25296e-08 0)
(209.998 0.000208965 0)
(209.934 0.0130644 0)
(209.253 0.211535 0)
(206.802 1.11943 0)
(203.393 2.53898 0)
(201.455 3.49208 0)
(200.641 3.7962 0)
(200.742 4.08783 0)
(201.225 4.01714 0)
(201.924 3.85282 0)
(202.556 3.69967 0)
(203.142 3.70853 0)
(203.697 3.7698 0)
(204.216 3.85816 0)
(204.696 3.97324 0)
(205.148 4.12654 0)
(205.587 4.31861 0)
(206.006 4.54142 0)
(206.385 4.78789 0)
(206.715 5.05958 0)
(207.018 5.36277 0)
(207.298 5.70374 0)
(207.565 6.07729 0)
(207.796 6.47754 0)
(207.984 6.90199 0)
(208.127 7.35735 0)
(208.24 7.84792 0)
(208.344 8.37569 0)
(208.421 8.95499 0)
(208.404 9.59303 0)
(208.167 10.3654 0)
(207.358 11.5593 0)
(206.37 12.9483 0)
(205.74 14.1736 0)
(205.466 15.2358 0)
(205.313 16.2456 0)
(205.166 17.2634 0)
(204.997 18.3221 0)
(204.818 19.4308 0)
(204.64 20.5882 0)
(204.456 21.7952 0)
(204.268 23.0515 0)
(204.076 24.3598 0)
(203.879 25.7225 0)
(203.676 27.1422 0)
(203.468 28.6209 0)
(203.26 30.1597 0)
(203.054 31.7633 0)
(202.86 33.4235 0)
(202.689 35.1487 0)
(202.532 36.9424 0)
(202.411 38.8003 0)
(202.335 40.7331 0)
(202.29 42.7371 0)
(202.323 44.8198 0)
(202.412 46.9792 0)
(202.581 49.218 0)
(202.856 51.5393 0)
(203.22 53.9406 0)
(203.742 56.4234 0)
(204.366 58.9862 0)
(205.203 61.6285 0)
(206.16 64.3521 0)
(207.383 67.1466 0)
(208.764 70.0145 0)
(210.476 72.9231 0)
(212.366 75.8918 0)
(214.682 78.8626 0)
(217.189 81.8791 0)
(220.204 84.8309 0)
(223.438 87.8025 0)
(227.222 90.6277 0)
(231.276 93.4366 0)
(235.885 96.0033 0)
(240.785 98.4895 0)
(246.173 100.693 0)
(251.932 102.707 0)
(258.102 104.263 0)
(264.686 105.601 0)
(271.572 106.6 0)
(278.348 107.025 0)
(285.376 107.288 0)
(292.744 107.152 0)
(299.359 106.783 0)
(307.109 106.142 0)
(313.752 105.063 0)
(319.631 103.494 0)
(324.12 101.697 0)
(328.536 100.509 0)
(337.001 99.3991 0)
(339.524 105.598 0)
(210 8.69191e-13 0)
(210 2.79702e-12 0)
(210 4.12115e-12 0)
(210 2.46533e-12 0)
(210 -2.39526e-12 0)
(210 -1.33641e-11 0)
(210 -1.18802e-11 0)
(210 -1.1497e-11 0)
(210 -1.01469e-11 0)
(210 1.86438e-12 0)
(210 3.80443e-12 0)
(210 9.00185e-12 0)
(210 -6.83313e-13 0)
(210 -4.09437e-12 0)
(210 -4.09457e-12 0)
(210 -3.60298e-12 0)
(210 -9.3165e-12 0)
(210 -7.95032e-12 0)
(210 -4.08654e-12 0)
(210 1.28994e-12 0)
(210 3.92047e-12 0)
(210 6.40109e-12 0)
(210 6.25324e-12 0)
(210 3.20394e-12 0)
(210 1.07501e-12 0)
(210 -4.82429e-12 0)
(210 -1.30775e-12 0)
(210 -5.58847e-11 0)
(210 -5.36627e-09 0)
(210 -3.29129e-07 0)
(209.999 3.22946e-05 0)
(209.972 0.00434859 0)
(209.571 0.104998 0)
(207.623 0.756786 0)
(204.127 2.10131 0)
(201.611 3.23653 0)
(200.475 3.71642 0)
(200.518 3.98169 0)
(200.841 3.94508 0)
(201.472 3.80001 0)
(202.125 3.6475 0)
(202.732 3.67557 0)
(203.294 3.74439 0)
(203.801 3.83277 0)
(204.27 3.94239 0)
(204.714 4.08748 0)
(205.144 4.2699 0)
(205.552 4.48048 0)
(205.916 4.71254 0)
(206.23 4.9692 0)
(206.517 5.258 0)
(206.782 5.58566 0)
(207.032 5.94662 0)
(207.246 6.33431 0)
(207.417 6.74508 0)
(207.54 7.18593 0)
(207.63 7.66154 0)
(207.707 8.17365 0)
(207.768 8.73098 0)
(207.752 9.34563 0)
(207.57 10.0421 0)
(206.816 11.1371 0)
(205.73 12.5209 0)
(204.944 13.7823 0)
(204.569 14.8534 0)
(204.368 15.8489 0)
(204.193 16.8419 0)
(203.991 17.8713 0)
(203.767 18.9507 0)
(203.536 20.0773 0)
(203.3 21.2513 0)
(203.055 22.4751 0)
(202.802 23.7496 0)
(202.54 25.0766 0)
(202.268 26.4594 0)
(201.985 27.9009 0)
(201.695 29.4026 0)
(201.402 30.9645 0)
(201.112 32.5873 0)
(200.837 34.2718 0)
(200.555 36.0337 0)
(200.314 37.8485 0)
(200.098 39.7409 0)
(199.905 41.7072 0)
(199.776 43.755 0)
(199.684 45.8834 0)
(199.662 48.0942 0)
(199.723 50.3931 0)
(199.86 52.7774 0)
(200.13 55.2522 0)
(200.487 57.8141 0)
(201.034 60.4683 0)
(201.682 63.2111 0)
(202.573 66.0386 0)
(203.604 68.9457 0)
(204.937 71.9152 0)
(206.436 74.9569 0)
(208.329 78.0338 0)
(210.399 81.1711 0)
(212.942 84.2968 0)
(215.693 87.4642 0)
(218.966 90.5569 0)
(222.501 93.6562 0)
(226.589 96.6 0)
(230.976 99.5175 0)
(235.924 102.171 0)
(241.198 104.723 0)
(246.974 106.965 0)
(253.155 108.899 0)
(259.721 110.478 0)
(266.751 111.699 0)
(273.309 112.469 0)
(281.013 113.181 0)
(287.43 113.365 0)
(295.556 113.343 0)
(302.09 112.935 0)
(308.713 111.898 0)
(313.919 110.513 0)
(318.68 109.405 0)
(327.54 108.075 0)
(329.831 114.224 0)
(210 -2.9417e-13 0)
(210 5.10054e-12 0)
(210 2.34267e-12 0)
(210 -1.74602e-12 0)
(210 -8.6242e-12 0)
(210 -1.09789e-11 0)
(210 -3.24478e-12 0)
(210 7.15348e-13 0)
(210 7.71634e-13 0)
(210 4.04537e-12 0)
(210 8.70081e-12 0)
(210 3.97828e-12 0)
(210 -7.78888e-12 0)
(210 -8.34138e-12 0)
(210 -5.8238e-12 0)
(210 -1.03915e-11 0)
(210 -9.96467e-12 0)
(210 4.6447e-13 0)
(210 2.53455e-12 0)
(210 9.06681e-12 0)
(210 5.41201e-12 0)
(210 9.17066e-13 0)
(210 -1.85513e-12 0)
(210 -2.40161e-12 0)
(210 -6.90712e-12 0)
(210 -5.08515e-12 0)
(210 -7.45473e-12 0)
(210 -1.51655e-11 0)
(210 -1.76377e-09 0)
(210 -1.59537e-07 0)
(210 -2.0017e-06 0)
(209.99 0.00113192 0)
(209.781 0.0448809 0)
(208.372 0.461449 0)
(205.05 1.65119 0)
(202.007 2.93241 0)
(200.426 3.55941 0)
(200.345 3.81967 0)
(200.473 3.83398 0)
(201.013 3.74639 0)
(201.692 3.60742 0)
(202.325 3.6417 0)
(202.885 3.70023 0)
(203.376 3.77928 0)
(203.831 3.88159 0)
(204.268 4.01957 0)
(204.691 4.19392 0)
(205.088 4.39267 0)
(205.437 4.60917 0)
(205.737 4.84873 0)
(206.013 5.12055 0)
(206.266 5.43202 0)
(206.504 5.77751 0)
(206.705 6.14995 0)
(206.862 6.54478 0)
(206.969 6.96895 0)
(207.041 7.42783 0)
(207.094 7.92378 0)
(207.137 8.46155 0)
(207.121 9.05376 0)
(206.981 9.69357 0)
(206.313 10.6847 0)
(205.164 12.0391 0)
(204.203 13.3365 0)
(203.693 14.4299 0)
(203.427 15.4219 0)
(203.215 16.3979 0)
(202.978 17.4023 0)
(202.709 18.4554 0)
(202.427 19.554 0)
(202.136 20.6973 0)
(201.835 21.888 0)
(201.525 23.1277 0)
(201.202 24.4179 0)
(200.865 25.762 0)
(200.512 27.1631 0)
(200.144 28.6233 0)
(199.766 30.1438 0)
(199.384 31.7253 0)
(199.003 33.3702 0)
(198.63 35.0746 0)
(198.272 36.8465 0)
(197.926 38.6917 0)
(197.598 40.6104 0)
(197.323 42.603 0)
(197.067 44.6796 0)
(196.876 46.8368 0)
(196.745 49.0849 0)
(196.676 51.4193 0)
(196.715 53.8485 0)
(196.824 56.3684 0)
(197.095 58.989 0)
(197.445 61.7042 0)
(198.01 64.5211 0)
(198.688 67.4333 0)
(199.635 70.4398 0)
(200.726 73.5423 0)
(202.173 76.7235 0)
(203.782 79.9935 0)
(205.839 83.3081 0)
(208.098 86.6952 0)
(210.871 90.0772 0)
(213.924 93.4974 0)
(217.531 96.8299 0)
(221.465 100.153 0)
(225.994 103.273 0)
(230.848 106.327 0)
(236.278 109.077 0)
(242.121 111.638 0)
(248.474 113.807 0)
(255.306 115.782 0)
(262.301 117.133 0)
(269.859 118.331 0)
(277.324 118.934 0)
(285.211 119.278 0)
(292.897 119.373 0)
(299.422 118.952 0)
(305.2 117.828 0)
(310.046 117.1 0)
(319.67 115.977 0)
(321.741 123.365 0)
(210 3.14903e-12 0)
(210 8.18896e-12 0)
(210 1.31864e-12 0)
(210 -3.50043e-12 0)
(210 -5.98473e-12 0)
(210 -2.78354e-12 0)
(210 6.03697e-12 0)
(210 4.81444e-12 0)
(210 -1.39785e-12 0)
(210 2.84438e-12 0)
(210 7.26572e-12 0)
(210 9.96927e-13 0)
(210 -5.48653e-12 0)
(210 -1.56252e-12 0)
(210 -3.05756e-12 0)
(210 -1.22307e-11 0)
(210 6.38016e-13 0)
(210 7.17956e-12 0)
(210 9.91797e-12 0)
(210 5.16076e-12 0)
(210 4.95011e-12 0)
(210 7.36514e-12 0)
(210 6.73228e-13 0)
(210 -5.54127e-12 0)
(210 -1.07839e-11 0)
(210 -8.2795e-12 0)
(210 -3.31715e-12 0)
(210 -2.05639e-12 0)
(210 -5.22427e-10 0)
(210 -5.64222e-08 0)
(210 -3.39722e-06 0)
(209.997 0.000184121 0)
(209.902 0.015828 0)
(208.988 0.247502 0)
(206.068 1.19713 0)
(202.55 2.55102 0)
(200.423 3.3268 0)
(200.167 3.63628 0)
(200.124 3.7298 0)
(200.563 3.71596 0)
(201.251 3.58558 0)
(201.907 3.59894 0)
(202.458 3.64043 0)
(202.932 3.71189 0)
(203.377 3.80917 0)
(203.809 3.94024 0)
(204.225 4.10533 0)
(204.609 4.29212 0)
(204.942 4.49519 0)
(205.227 4.72164 0)
(205.488 4.98203 0)
(205.729 5.28318 0)
(205.954 5.61916 0)
(206.14 5.98141 0)
(206.282 6.36447 0)
(206.374 6.77463 0)
(206.429 7.2181 0)
(206.457 7.69835 0)
(206.481 8.21753 0)
(206.461 8.78615 0)
(206.346 9.38215 0)
(205.776 10.2666 0)
(204.603 11.5602 0)
(203.475 12.8831 0)
(202.815 14.0028 0)
(202.476 14.9904 0)
(202.23 15.9432 0)
(201.967 16.9136 0)
(201.663 17.9311 0)
(201.338 18.995 0)
(201 20.102 0)
(200.648 21.2551 0)
(200.283 22.456 0)
(199.903 23.7062 0)
(199.504 25.0086 0)
(199.084 26.3668 0)
(198.643 27.783 0)
(198.185 29.2583 0)
(197.717 30.7936 0)
(197.242 32.3902 0)
(196.765 34.0505 0)
(196.292 35.7769 0)
(195.827 37.5713 0)
(195.379 39.4357 0)
(194.96 41.3777 0)
(194.535 43.4146 0)
(194.178 45.5192 0)
(193.854 47.7197 0)
(193.584 50.0106 0)
(193.397 52.4017 0)
(193.265 54.888 0)
(193.271 57.481 0)
(193.338 60.1727 0)
(193.597 62.9773 0)
(193.945 65.884 0)
(194.532 68.9005 0)
(195.242 72.0195 0)
(196.268 75.2374 0)
(197.435 78.5529 0)
(199.012 81.9465 0)
(200.763 85.4283 0)
(202.994 88.9515 0)
(205.478 92.5352 0)
(208.475 96.1028 0)
(211.808 99.6922 0)
(215.72 103.175 0)
(219.984 106.653 0)
(224.906 109.91 0)
(230.195 113.096 0)
(236.094 115.952 0)
(242.443 118.585 0)
(249.382 120.891 0)
(256.541 122.645 0)
(264.667 124.3 0)
(271.857 125.068 0)
(281.203 126.144 0)
(288.56 125.974 0)
(296.103 124.882 0)
(301.688 123.968 0)
(311.518 122.977 0)
(313.531 130.305 0)
(210 5.91358e-12 0)
(210 -3.48522e-12 0)
(210 -2.13534e-12 0)
(210 -1.00421e-12 0)
(210 -3.91831e-12 0)
(210 2.45331e-13 0)
(210 4.28366e-12 0)
(210 -8.93477e-13 0)
(210 -1.97395e-13 0)
(210 9.1756e-12 0)
(210 8.44058e-12 0)
(210 -2.56925e-12 0)
(210 -8.97011e-12 0)
(210 -1.73932e-12 0)
(210 -3.16296e-12 0)
(210 -1.72893e-12 0)
(210 7.65799e-12 0)
(210 6.31396e-12 0)
(210 5.09207e-12 0)
(210 -5.8675e-13 0)
(210 1.00457e-11 0)
(210 5.81183e-12 0)
(210 -5.63852e-12 0)
(210 -1.16377e-11 0)
(210 -9.15175e-12 0)
(210 -3.17347e-12 0)
(210 2.12018e-12 0)
(210 -9.66488e-13 0)
(210 -1.26142e-10 0)
(210 -1.59017e-08 0)
(210 -1.32297e-06 0)
(209.999 -8.6798e-06 0)
(209.962 0.00431896 0)
(209.438 0.114063 0)
(207.098 0.790118 0)
(203.35 2.10888 0)
(200.633 3.02216 0)
(200.053 3.4578 0)
(199.821 3.62506 0)
(200.131 3.64366 0)
(200.805 3.51498 0)
(201.476 3.51496 0)
(202.018 3.55531 0)
(202.48 3.62274 0)
(202.918 3.71308 0)
(203.347 3.83389 0)
(203.758 3.98571 0)
(204.131 4.15642 0)
(204.451 4.34275 0)
(204.726 4.55415 0)
(204.978 4.8023 0)
(205.21 5.09315 0)
(205.426 5.41985 0)
(205.601 5.77223 0)
(205.731 6.14376 0)
(205.81 6.54017 0)
(205.85 6.96803 0)
(205.858 7.43243 0)
(205.859 7.93492 0)
(205.833 8.48052 0)
(205.726 9.04898 0)
(205.262 9.83441 0)
(204.114 11.0417 0)
(202.825 12.3756 0)
(201.987 13.528 0)
(201.55 14.5182 0)
(201.261 15.4525 0)
(200.968 16.3925 0)
(200.63 17.3772 0)
(200.26 18.4098 0)
(199.873 19.4843 0)
(199.469 20.6022 0)
(199.049 21.7657 0)
(198.612 22.9761 0)
(198.154 24.2364 0)
(197.67 25.5504 0)
(197.16 26.921 0)
(196.627 28.3496 0)
(196.077 29.8368 0)
(195.514 31.3834 0)
(194.943 32.9909 0)
(194.369 34.6619 0)
(193.795 36.4002 0)
(193.228 38.21 0)
(192.667 40.0965 0)
(192.125 42.056 0)
(191.616 44.1001 0)
(191.114 46.2398 0)
(190.664 48.4638 0)
(190.274 50.7845 0)
(189.925 53.2048 0)
(189.689 55.7349 0)
(189.493 58.3687 0)
(189.462 61.1241 0)
(189.49 63.9881 0)
(189.727 66.9778 0)
(190.059 70.081 0)
(190.668 73.3099 0)
(191.394 76.6555 0)
(192.492 80.1203 0)
(193.738 83.6992 0)
(195.437 87.3719 0)
(197.365 91.1402 0)
(199.786 94.9563 0)
(202.547 98.8287 0)
(205.851 102.68 0)
(209.531 106.569 0)
(213.868 110.328 0)
(218.562 114.06 0)
(223.961 117.5 0)
(229.764 120.81 0)
(236.114 123.751 0)
(243.027 126.447 0)
(250.377 128.66 0)
(258.119 130.482 0)
(266.639 131.967 0)
(274.575 133.074 0)
(282.051 132.901 0)
(287.746 132.794 0)
(298.129 131.983 0)
(299.644 140.231 0)
(210 -8.07714e-13 0)
(210 -7.77412e-12 0)
(210 -5.25787e-12 0)
(210 -8.51232e-12 0)
(210 -6.84147e-12 0)
(210 -3.40999e-13 0)
(210 -2.72177e-12 0)
(210 -3.91266e-13 0)
(210 5.24077e-12 0)
(210 6.50552e-12 0)
(210 7.72901e-13 0)
(210 -8.87583e-12 0)
(210 -3.80642e-12 0)
(210 5.39115e-12 0)
(210 8.12742e-13 0)
(210 6.70007e-13 0)
(210 2.7631e-12 0)
(210 4.28215e-12 0)
(210 1.99408e-12 0)
(210 4.04763e-12 0)
(210 9.78069e-12 0)
(210 -2.0489e-12 0)
(210 -2.11427e-12 0)
(210 -1.11503e-12 0)
(210 5.99553e-12 0)
(210 4.93586e-12 0)
(210 6.60335e-12 0)
(210 5.12616e-12 0)
(210 -2.27916e-11 0)
(210 -3.93395e-09 0)
(210 -4.05237e-07 0)
(210 -1.99204e-05 0)
(209.987 0.000736156 0)
(209.725 0.0434756 0)
(208.035 0.461175 0)
(204.367 1.63301 0)
(201.009 2.66962 0)
(199.937 3.33424 0)
(199.543 3.44671 0)
(199.724 3.52186 0)
(200.351 3.45015 0)
(201.029 3.44698 0)
(201.566 3.46258 0)
(202.022 3.51194 0)
(202.452 3.59275 0)
(202.878 3.70598 0)
(203.282 3.85032 0)
(203.642 4.01324 0)
(203.948 4.19171 0)
(204.212 4.39622 0)
(204.455 4.63892 0)
(204.679 4.9242 0)
(204.885 5.24463 0)
(205.05 5.58852 0)
(205.166 5.94885 0)
(205.234 6.33113 0)
(205.26 6.74221 0)
(205.249 7.18917 0)
(205.228 7.67395 0)
(205.19 8.19567 0)
(205.082 8.74196 0)
(204.711 9.43563 0)
(203.625 10.5371 0)
(202.201 11.8611 0)
(201.172 13.0466 0)
(200.622 14.0413 0)
(200.285 14.9556 0)
(199.967 15.8614 0)
(199.603 16.8069 0)
(199.196 17.8016 0)
(198.768 18.8374 0)
(198.319 19.9145 0)
(197.851 21.0357 0)
(197.362 22.2024 0)
(196.849 23.4172 0)
(196.307 24.6841 0)
(195.733 26.0058 0)
(195.132 27.3842 0)
(194.506 28.8197 0)
(193.861 30.3133 0)
(193.201 31.8665 0)
(192.53 33.4816 0)
(191.852 35.1616 0)
(191.169 36.9111 0)
(190.486 38.7342 0)
(189.809 40.6363 0)
(189.14 42.6218 0)
(188.488 44.69 0)
(187.87 46.849 0)
(187.277 49.1085 0)
(186.711 51.4729 0)
(186.24 53.9372 0)
(185.791 56.5124 0)
(185.488 59.2126 0)
(185.217 62.0248 0)
(185.133 64.9702 0)
(185.117 68.0331 0)
(185.342 71.237 0)
(185.657 74.5667 0)
(186.299 78.0415 0)
(187.055 81.6436 0)
(188.224 85.3788 0)
(189.578 89.2356 0)
(191.396 93.1981 0)
(193.528 97.2668 0)
(196.162 101.406 0)
(199.204 105.628 0)
(202.871 109.813 0)
(206.949 114.025 0)
(211.802 118.057 0)
(217.057 122.065 0)
(223.066 125.761 0)
(229.585 129.25 0)
(236.862 132.29 0)
(244.973 135.267 0)
(253.106 137.32 0)
(262.455 139.385 0)
(270.853 139.715 0)
(277.448 139.669 0)
(288.299 139.732 0)
(289.828 148.941 0)
(210 -4.02267e-12 0)
(210 -6.89217e-12 0)
(210 -8.5358e-12 0)