/*--------------------------------*- C++ -*----------------------------------*\
| =========                 |                                                 |
| \\      /  F ield         | OpenFOAM: The Open Source CFD Toolbox           |
|  \\    /   O peration     | Version:  2406                                  |
|   \\  /    A nd           | Website:  www.openfoam.com                      |
|    \\/     M anipulation  |                                                 |
\*---------------------------------------------------------------------------*/
FoamFile
{
    version     2.0;
    format      ascii;
    arch        "LSB;label=32;scalar=64";
    class       volScalarField;
    location    "0.058";
    object      p;
}
// * * * * * * * * * * * * * * * * * * * * * * * * * * * * * * * * * * * * * //

dimensions      [1 -1 -2 0 0 0 0];

internalField   nonuniform List<scalar> 
78650
(
3783.73
2860.72
2788.84
2785.52
2781.1
2778.29
2774.85
2770.91
2766.2
2761.16
2756.05
2751.39
2747.57
2744.6
2742.28
2740.22
2738.28
2736.56
2735.2
2734.11
2733.32
2732.6
2731.71
2730.48
2728.85
2726.89
2724.76
2722.6
2720.46
2718.37
2716.36
2714.47
2712.68
2710.99
2709.39
2707.86
2706.38
2704.94
2703.53
2702.15
2700.78
2699.42
2698.06
2696.68
2695.26
2693.79
2692.25
2690.61
2688.85
2686.94
2684.86
2682.57
2680.03
2677.21
2674.07
2670.57
2666.67
2662.31
2657.43
2651.97
2645.88
2639.12
2631.61
2623.28
2614.04
2603.8
2592.5
2580.07
2566.42
2551.51
2535.26
2517.59
2498.48
2477.8
2455.48
2431.48
2405.7
2378.12
2348.79
2317.7
2284.83
2250.31
2213.8
2175.61
2135.56
2094.07
2050.83
2006.82
1962.27
1917.11
1872.47
1828.37
1783.98
1739.84
1696.51
1653.63
1612.58
1573.14
1534.81
1497.53
1461.48
1429.18
1401.58
1375.45
1349.75
1324.07
1300.44
1278.6
1258.3
1239.02
1220.85
1204.25
1189.79
1176.73
1164.24
1151.53
1138.97
1127.2
1116.97
1108.31
1091.02
3766
2856.68
2790.92
2787.43
2783.26
2780.32
2776.79
2772.87
2768.25
2763.18
2757.72
2752.37
2747.81
2744.39
2742.03
2740.28
2738.82
2737.61
2736.63
2735.79
2735.27
2734.89
2734.43
2733.73
2732.64
2731.16
2729.41
2727.56
2725.69
2723.84
2722.05
2720.35
2718.76
2717.27
2715.88
2714.56
2713.31
2712.1
2710.94
2709.82
2708.72
2707.65
2706.59
2705.53
2704.46
2703.35
2702.19
2700.97
2699.65
2698.21
2696.63
2694.87
2692.91
2690.7
2688.22
2685.42
2682.26
2678.71
2674.69
2670.15
2665.05
2659.34
2652.96
2645.83
2637.89
2629.03
2619.2
2608.32
2596.31
2583.14
2568.71
2552.92
2535.74
2517.05
2496.78
2474.9
2451.27
2425.83
2398.59
2369.5
2338.59
2305.99
2271.62
2235.9
2198.64
2160.09
2120.25
2078.76
2036.14
1992.61
1947.74
1903.07
1858.38
1813.75
1769.64
1726.19
1683.86
1642.79
1602.69
1564.06
1527.48
1492.04
1457.73
1424.83
1394.57
1366.72
1341.34
1317.33
1294.67
1272.48
1251.42
1232.05
1214.52
1198.67
1184.35
1171.3
1159.11
1147.89
1137.78
1128.56
1111.05
3753.42
2849.07
2793.15
2789.52
2785.62
2782.55
2778.83
2774.81
2770.23
2765.21
2759.62
2753.76
2748.4
2744.36
2741.78
2740.22
2739.22
2738.65
2738.27
2737.79
2737.52
2737.39
2737.24
2736.93
2736.33
2735.36
2734.05
2732.55
2730.98
2729.39
2727.83
2726.34
2724.95
2723.67
2722.48
2721.37
2720.34
2719.38
2718.46
2717.6
2716.77
2715.99
2715.24
2714.5
2713.77
2713.03
2712.26
2711.44
2710.56
2709.59
2708.5
2707.28
2705.87
2704.27
2702.42
2700.31
2697.88
2695.11
2691.93
2688.28
2684.13
2679.42
2674.11
2668.13
2661.4
2653.84
2645.38
2635.96
2625.48
2613.92
2601.17
2587.16
2571.83
2555.08
2536.81
2517.02
2495.6
2472.51
2447.73
2421.16
2392.79
2362.65
2330.65
2296.93
2261.25
2223.93
2184.66
2144.05
2102.12
2059.38
2015.35
1970.35
1925.66
1881.57
1838.53
1795.2
1751.67
1708.67
1666.15
1625.4
1586.96
1549.07
1512.46
1476.98
1442.44
1411.27
1382.33
1354.55
1328.24
1302.69
1279.61
1258.52
1239.07
1220.64
1202.89
1186.67
1171.87
1158.3
1146.21
1136.05
1115.42
3739.36
2842.39
2794.7
2791.6
2788.07
2784.87
2780.88
2776.68
2772.07
2767.15
2761.64
2755.56
2749.52
2744.68
2741.69
2740.18
2739.55
2739.68
2740.05
2740.09
2740.1
2740.16
2740.21
2740.18
2739.99
2739.51
2738.69
2737.6
2736.36
2735.05
2733.74
2732.47
2731.28
2730.19
2729.2
2728.31
2727.5
2726.76
2726.08
2725.47
2724.91
2724.41
2723.95
2723.53
2723.12
2722.73
2722.33
2721.91
2721.45
2720.93
2720.32
2719.6
2718.75
2717.72
2716.49
2715.04
2713.32
2711.29
2708.92
2706.14
2702.91
2699.19
2694.92
2690.05
2684.53
2678.25
2671.17
2663.21
2654.28
2644.36
2633.34
2621.14
2607.71
2592.93
2576.77
2559.2
2540.05
2519.26
2496.72
2472.32
2446.05
2417.96
2388.03
2356.42
2323.04
2288.1
2251.42
2213.62
2174.33
2133.53
2091.76
2047.71
2003.35
1958.09
1912.9
1867.93
1822.24
1777.27
1733.57
1690.05
1648.68
1608.12
1568.98
1532.33
1497.02
1464.03
1432.63
1402.32
1374.33
1347.43
1322.75
1298.84
1276
1253.72
1232.55
1213.35
1195.98
1179.69
1164.84
1151.66
1125.67
3726.51
2837.88
2796.51
2793.72
2790.41
2787.05
2782.81
2778.42
2773.76
2768.97
2763.67
2757.67
2751.29
2745.66
2742.02
2740.4
2740
2740.67
2741.88
2742.62
2743.04
2743.31
2743.51
2743.66
2743.74
2743.65
2743.31
2742.67
2741.82
2740.82
2739.78
2738.74
2737.77
2736.89
2736.11
2735.42
2734.83
2734.32
2733.88
2733.52
2733.23
2733
2732.84
2732.73
2732.66
2732.62
2732.59
2732.56
2732.52
2732.44
2732.31
2732.09
2731.77
2731.32
2730.7
2729.88
2728.85
2727.56
2725.97
2724.03
2721.69
2718.91
2715.65
2711.86
2707.48
2702.42
2696.64
2690.04
2682.58
2674.19
2664.78
2654.28
2642.66
2629.8
2615.64
2600.1
2583.04
2564.41
2544.17
2522.24
2498.61
2473.3
2446.2
2417.32
2386.53
2353.85
2319.16
2282.89
2244.58
2205.05
2163.87
2121.4
2077.53
2032.83
1987.63
1942.77
1898.21
1853.32
1809.29
1764.35
1720.11
1676.89
1635.12
1595.77
1556.72
1519.32
1483.57
1449.51
1419.04
1390.62
1364.85
1340.14
1316.59
1293.77
1272.22
1252.32
1234.05
1216.19
1199.9
1185.17
1154.02
3713.07
2838.63
2799.18
2796.08
2792.62
2789.03
2784.57
2780.07
2775.39
2770.69
2765.64
2759.92
2753.55
2747.46
2743.12
2741.19
2740.81
2741.73
2743.65
2745.26
2746.26
2746.82
2747.17
2747.45
2747.7
2747.88
2747.92
2747.73
2747.31
2746.68
2745.94
2745.17
2744.43
2743.76
2743.18
2742.7
2742.33
2742.04
2741.83
2741.73
2741.7
2741.74
2741.86
2742.06
2742.31
2742.61
2742.94
2743.29
2743.65
2744
2744.33
2744.6
2744.79
2744.88
2744.85
2744.66
2744.29
2743.72
2742.88
2741.74
2740.28
2738.42
2736.13
2733.39
2730.12
2726.27
2721.77
2716.55
2710.54
2703.69
2695.93
2687.17
2677.37
2666.41
2654.23
2640.75
2625.88
2609.59
2591.76
2572.27
2551.07
2528.09
2503.25
2476.61
2448.13
2417.83
2385.66
2351.8
2316.03
2279.06
2240.24
2199.99
2158.18
2114.93
2070.81
2025.46
1979.85
1933.69
1888.39
1842.59
1797.4
1753.77
1710.39
1669.03
1628
1587.3
1548.65
1510.59
1475.28
1441.35
1409
1378.31
1349.47
1323.6
1300.78
1280.15
1260.78
1242.43
1226.22
1212.89
1187.02
3697.51
2840.87
2803.16
2799.21
2795.14
2791.22
2786.55
2781.89
2777.11
2772.42
2767.57
2762.22
2756.18
2750.04
2745.21
2742.81
2742.26
2743.11
2745.45
2747.91
2749.69
2750.71
2751.25
2751.62
2751.97
2752.33
2752.63
2752.79
2752.77
2752.55
2752.16
2751.68
2751.2
2750.77
2750.41
2750.15
2749.99
2749.94
2749.98
2750.11
2750.34
2750.67
2751.07
2751.57
2752.14
2752.78
2753.47
2754.21
2754.97
2755.75
2756.52
2757.27
2757.98
2758.61
2759.15
2759.57
2759.84
2759.96
2759.86
2759.51
2758.89
2757.92
2756.58
2754.84
2752.63
2749.91
2746.62
2742.68
2738.04
2732.65
2726.41
2719.27
2711.16
2702
2691.74
2680.3
2667.56
2653.47
2637.93
2620.84
2602.19
2581.91
2559.88
2536.1
2510.48
2482.96
2453.42
2421.9
2388.37
2353.35
2316.36
2278
2237.72
2196.14
2153.34
2109.13
2064.47
2018.73
1972.83
1926.58
1879.98
1834.6
1788.45
1743.18
1700.56
1658.49
1618.76
1580.54
1544.86
1509.6
1475.13
1441.5
1409.1
1378.23
1349.91
1323.14
1297.44
1272.38
1248.72
1228.48
1191.53
3678.22
2843.57
2808.31
2803.54
2798.6
2794.11
2789
2784.01
2778.99
2774.18
2769.48
2764.56
2759.11
2753.37
2748.35
2745.42
2744.57
2745.14
2747.43
2750.49
2753.11
2754.8
2755.7
2756.2
2756.6
2757.03
2757.49
2757.92
2758.23
2758.38
2758.37
2758.23
2758.04
2757.86
2757.75
2757.72
2757.79
2757.97
2758.25
2758.62
2759.11
2759.7
2760.39
2761.18
2762.07
2763.04
2764.08
2765.18
2766.33
2767.52
2768.73
2769.94
2771.14
2772.3
2773.39
2774.4
2775.3
2776.07
2776.67
2777.07
2777.25
2777.16
2776.74
2775.98
2774.82
2773.2
2771.1
2768.43
2765.14
2761.19
2756.49
2750.98
2744.6
2737.27
2728.92
2719.48
2708.83
2696.95
2683.72
2669.04
2652.83
2634.94
2615.27
2593.87
2570.69
2545.67
2518.75
2489.92
2459.23
2426.96
2392.67
2356.67
2318.41
2278.82
2237.48
2194.98
2151.29
2106.4
2060.34
2013.87
1966.31
1919.41
1873.14
1826.54
1781.52
1735.55
1691.57
1648.4
1607
1568.14
1530.84
1496.51
1465.01
1435.33
1407.72
1381.35
1356.97
1334.14
1312.15
1291
1250.85
3655.18
2846.53
2813.09
2807.94
2802.32
2797.33
2791.76
2786.37
2781.02
2776.03
2771.47
2767.07
2762.42
2757.38
2752.51
2749.13
2747.9
2748.12
2749.92
2753.07
2756.4
2758.93
2760.41
2761.17
2761.64
2762.08
2762.59
2763.15
2763.72
2764.18
2764.52
2764.73
2764.86
2764.98
2765.13
2765.36
2765.68
2766.09
2766.61
2767.24
2767.99
2768.85
2769.83
2770.92
2772.11
2773.41
2774.8
2776.27
2777.81
2779.41
2781.05
2782.72
2784.4
2786.07
2787.71
2789.29
2790.8
2792.22
2793.52
2794.65
2795.59
2796.31
2796.77
2796.95
2796.79
2796.23
2795.26
2793.78
2791.77
2789.15
2785.87
2781.88
2777.11
2771.47
2764.92
2757.38
2748.76
2739.01
2727.99
2715.61
2701.82
2686.54
2669.71
2651.36
2631.33
2609.52
2585.81
2560.16
2532.56
2503.09
2471.49
2438
2402.33
2365.2
2326.11
2285.77
2243.69
2200.18
2155.44
2109.62
2063.67
2016.54
1970.52
1923.47
1878.01
1829.92
1782.58
1737.09
1691.63
1648.78
1605.76
1565.05
1525.68
1488.28
1452.63
1418.4
1387.22
1360.44
1338.32
1320.21
1278.96
3629.06
2849.13
2815.83
2811.09
2805.43
2800.34
2794.47
2788.72
2783.11
2778.07
2773.89
2770.17
2766.32
2762.05
2757.6
2753.98
2752.28
2752.14
2753.24
2755.98
2759.59
2762.88
2765.12
2766.35
2767.02
2767.49
2767.97
2768.56
2769.25
2769.95
2770.59
2771.13
2771.6
2772.03
2772.48
2772.98
2773.56
2774.23
2775.01
2775.9
2776.91
2778.04
2779.3
2780.68
2782.18
2783.8
2785.53
2787.35
2789.26
2791.25
2793.31
2795.42
2797.56
2799.72
2801.88
2804.02
2806.12
2808.15
2810.1
2811.94
2813.64
2815.16
2816.46
2817.52
2818.3
2818.76
2818.9
2818.59
2817.84
2816.57
2814.68
2812.21
2809.02
2805.08
2800.33
2794.68
2788.05
2780.37
2771.55
2761.51
2750.2
2737.5
2723.31
2707.57
2690.1
2670.85
2649.8
2626.88
2602.03
2575.24
2546.38
2515.64
2482.82
2448.28
2411.62
2373.43
2333.1
2291.37
2248.15
2203.77
2158.4
2111.73
2064.52
2016.63
1967.88
1921.01
1873.59
1827.86
1782.48
1740.09
1697.49
1656.47
1615.96
1576.83
1539.91
1502.48
1466.15
1430.98
1399.05
1370.21
1315.93
3599.98
2850.69
2816.34
2812.3
2807.21
2802.73
2797.14
2791.28
2785.57
2780.87
2777.37
2774.17
2770.9
2767.28
2763.37
2759.82
2757.67
2757.13
2757.65
2759.6
2762.9
2766.59
2769.59
2771.52
2772.59
2773.2
2773.68
2774.22
2774.9
2775.72
2776.57
2777.4
2778.19
2778.95
2779.71
2780.51
2781.38
2782.33
2783.38
2784.54
2785.82
2787.23
2788.77
2790.45
2792.26
2794.2
2796.26
2798.44
2800.72
2803.1
2805.56
2808.1
2810.7
2813.35
2816.02
2818.69
2821.36
2824
2826.59
2829.1
2831.51
2833.8
2835.91
2837.84
2839.54
2840.97
2842.09
2842.87
2843.26
2843.28
2842.7
2841.65
2839.95
2837.57
2834.48
2830.59
2825.84
2820.18
2813.49
2805.7
2796.74
2786.45
2774.8
2761.69
2747.01
2730.74
2712.85
2693.15
2671.53
2647.96
2622.43
2595.1
2565.73
2534.34
2500.63
2465.11
2427.44
2388.37
2347.39
2304.84
2260.47
2214.81
2168.15
2120.97
2071.82
2022.83
1973.6
1924.69
1873.86
1825
1778.51
1732.11
1687.78
1644.53
1605.37
1568.73
1535.71
1503.79
1474.52
1449.52
1401.22
3568.09
2849.17
2814.95
2812.08
2807.65
2804.11
2799.44
2793.99
2788.79
2785.1
2781.96
2779.11
2776.27
2773.15
2769.71
2766.32
2763.87
2762.94
2763.06
2764.16
2766.7
2770.25
2773.71
2776.31
2777.97
2778.93
2779.54
2780.08
2780.73
2781.56
2782.53
2783.56
2784.62
2785.68
2786.75
2787.87
2789.05
2790.3
2791.64
2793.09
2794.65
2796.34
2798.17
2800.14
2802.25
2804.5
2806.89
2809.41
2812.05
2814.8
2817.66
2820.61
2823.64
2826.75
2829.9
2833.09
2836.3
2839.51
2842.71
2845.86
2848.96
2851.97
2854.86
2857.6
2860.17
2862.54
2864.67
2866.51
2868.01
2869.15
2869.9
2870.2
2870
2869.17
2867.75
2865.58
2862.69
2858.96
2854.3
2848.67
2841.96
2834.07
2824.96
2814.52
2802.65
2789.34
2774.47
2757.86
2739.4
2719.09
2696.95
2673.01
2646.92
2618.58
2587.91
2555.44
2520.96
2484.86
2446.47
2406.29
2364.25
2320.97
2276.32
2229.95
2182.71
2134.5
2086.95
2037.92
1987.99
1937.24
1888.92
1840
1792.44
1742.97
1695.28
1648.96
1605.55
1564.68
1525.52
1491.8
1425.37
3535.43
2845.3
2811.63
2809.8
2806.52
2804
2800.95
2797.23
2793.53
2790.26
2787.58
2785.14
2782.69
2779.88
2776.62
2773.31
2770.62
2769.24
2769.02
2769.56
2771.24
2774.21
2777.66
2780.71
2783.02
2784.52
2785.43
2786.07
2786.7
2787.47
2788.45
2789.6
2790.85
2792.18
2793.55
2794.99
2796.48
2798.05
2799.71
2801.46
2803.32
2805.31
2807.43
2809.7
2812.12
2814.68
2817.4
2820.25
2823.25
2826.37
2829.61
2832.96
2836.42
2839.97
2843.6
2847.29
2851.02
2854.79
2858.57
2862.34
2866.09
2869.79
2873.42
2876.95
2880.35
2883.59
2886.64
2889.47
2892.04
2894.32
2896.24
2897.77
2898.86
2899.47
2899.6
2899.05
2897.9
2896.01
2893.27
2889.72
2885.21
2879.65
2873.01
2865.16
2856.01
2845.51
2833.51
2819.87
2804.52
2787.43
2768.56
2747.83
2724.94
2699.93
2672.84
2643.91
2612.83
2579.73
2544.19
2506.78
2467.29
2426.15
2383.01
2338.33
2292.2
2245.08
2196.93
2147.76
2098.45
2046.91
1997.08
1948.2
1901.55
1854.09
1807.48
1760.22
1716.13
1673.71
1633.07
1594.65
1518.97
3504.41
2841.06
2807.82
2806.2
2803.88
2802.78
2801.25
2799.33
2797.3
2795.33
2793.42
2791.67
2789.83
2787.36
2784.24
2780.94
2778
2776.07
2775.4
2775.51
2776.41
2778.55
2781.56
2784.64
2787.4
2789.52
2790.97
2791.93
2792.69
2793.47
2794.42
2795.6
2796.97
2798.49
2800.11
2801.83
2803.64
2805.53
2807.51
2809.58
2811.76
2814.05
2816.48
2819.05
2821.77
2824.65
2827.68
2830.86
2834.2
2837.67
2841.28
2845.02
2848.89
2852.86
2856.93
2861.09
2865.32
2869.6
2873.93
2878.29
2882.66
2887.01
2891.33
2895.6
2899.78
2903.85
2907.78
2911.55
2915.12
2918.46
2921.52
2924.28
2926.69
2928.66
2930.18
2931.2
2931.69
2931.64
2930.75
2929.21
2926.77
2923.42
2919.1
2913.68
2907.1
2899.29
2890.11
2879.5
2867.4
2853.68
2838.22
2820.95
2801.74
2780.62
2757.48
2732.29
2704.8
2675.2
2643.27
2609.39
2573.18
2534.97
2494.74
2453.02
2409.29
2363.51
2315.9
2267.31
2217.76
2167.37
2115.27
2063.42
2012
1961.65
1910.32
1859.68
1810.43
1764.15
1723.24
1687.96
1620.49
3476.12
2837.36
2805.57
2803.83
2801.69
2801.35
2800.98
2800.09
2799.02
2798.06
2797.39
2796.75
2795.85
2794.18
2791.72
2788.73
2785.64
2783.19
2781.93
2781.7
2782.1
2783.5
2785.87
2788.62
2791.47
2794.01
2796.01
2797.43
2798.48
2799.38
2800.35
2801.53
2802.94
2804.58
2806.41
2808.38
2810.47
2812.68
2814.98
2817.39
2819.89
2822.5
2825.24
2828.13
2831.16
2834.35
2837.7
2841.21
2844.88
2848.7
2852.67
2856.79
2861.04
2865.43
2869.93
2874.54
2879.24
2884.03
2888.89
2893.8
2898.75
2903.72
2908.7
2913.66
2918.58
2923.43
2928.19
2932.84
2937.34
2941.66
2945.78
2949.65
2953.23
2956.49
2959.37
2961.83
2963.8
2965.27
2966.17
2966.48
2966.05
2964.83
2962.75
2959.67
2955.61
2950.44
2944.07
2936.44
2927.44
2916.89
2904.67
2890.74
2875.09
2857.67
2838.24
2816.64
2792.78
2766.86
2738.73
2708.55
2675.94
2641.25
2604.5
2566.01
2525.1
2481.89
2436.66
2390.5
2343.49
2294.96
2244.54
2192.49
2139.73
2088.08
2035.2
1985.52
1926.1
1873.11
1821.57
1775.2
1690.28
3451.01
2837.21
2805.32
2803.44
2801.21
2800.66
2800.39
2799.88
2799.28
2798.85
2798.26
2798
2797.89
2797.41
2796.39
2794.66
2792.3
2789.96
2788.27
2787.63
2787.69
2788.51
2790.27
2792.52
2795.14
2797.85
2800.32
2802.32
2803.85
2805.07
2806.19
2807.4
2808.84
2810.54
2812.5
2814.66
2817
2819.49
2822.11
2824.83
2827.66
2830.6
2833.67
2836.86
2840.21
2843.71
2847.38
2851.21
2855.2
2859.36
2863.68
2868.15
2872.77
2877.54
2882.45
2887.49
2892.63
2897.89
2903.24
2908.66
2914.16
2919.71
2925.29
2930.9
2936.5
2942.08
2947.61
2953.07
2958.44
2963.69
2968.79
2973.71
2978.42
2982.87
2987.02
2990.84
2994.28
2997.3
2999.82
3001.8
3003.19
3003.91
3004.03
3003.13
3001.48
2998.8
2995.04
2990.19
2984.07
2976.56
2967.57
2957.06
2944.97
2931.21
2915.5
2897.72
2877.85
2856.04
2832.1
2806.07
2777.63
2747.04
2714.06
2678.88
2641.27
2601.56
2559.67
2516.04
2470.75
2423.98
2375.22
2324.54
2272.84
2221.13
2170.61
2119.21
2067.58
2017.24
1965.28
1919.04
1833.43
3427.52
2838.71
2807.09
2805.1
2802.59
2800.96
2799.75
2798.73
2797.87
2797.36
2797.17
2797.32
2797.78
2797.93
2797.65
2796.92
2796.09
2795.08
2793.97
2793.31
2793.21
2793.71
2794.98
2796.74
2798.94
2801.5
2804.15
2806.6
2808.67
2810.33
2811.73
2813.09
2814.58
2816.33
2818.36
2820.67
2823.22
2825.96
2828.86
2831.9
2835.05
2838.32
2841.7
2845.22
2848.88
2852.7
2856.68
2860.82
2865.14
2869.62
2874.28
2879.09
2884.07
2889.22
2894.51
2899.95
2905.52
2911.21
2917.03
2922.94
2928.96
2935.05
2941.2
2947.41
2953.65
2959.9
2966.15
2972.37
2978.55
2984.65
2990.65
2996.53
3002.26
3007.8
3013.12
3018.16
3022.91
3027.31
3031.34
3034.94
3038.05
3040.57
3042.5
3043.74
3044.28
3044.04
3042.74
3040.55
3037.2
3032.67
3026.85
3019.66
3011
3000.78
2988.8
2974.95
2959.21
2941.54
2921.71
2899.77
2875.44
2848.82
2819.59
2788.1
2754.44
2718.78
2680.58
2639.87
2596.87
2552.34
2505.93
2457.7
2407.18
2355.43
2302.61
2250.03
2197.01
2143.34
2086.8
2035.62
1945.16
3403.94
2842.03
2811.37
2808.29
2804.69
2801.81
2799.74
2797.37
2795.2
2794.1
2793.87
2794.43
2795.5
2796.48
2796.93
2797.03
2797.18
2797.48
2797.86
2798.06
2798.27
2798.74
2799.69
2801.07
2802.84
2805.05
2807.63
2810.34
2812.87
2815.05
2816.89
2818.51
2820.14
2821.95
2824.05
2826.47
2829.17
2832.12
2835.27
2838.59
2842.04
2845.62
2849.33
2853.16
2857.14
2861.27
2865.55
2870.01
2874.63
2879.43
2884.41
2889.55
2894.87
2900.36
2906.02
2911.83
2917.8
2923.9
2930.15
2936.51
2943
2949.58
2956.26
2963.02
2969.84
2976.72
2983.62
2990.53
2997.44
3004.32
3011.15
3017.91
3024.58
3031.13
3037.51
3043.7
3049.66
3055.36
3060.77
3065.84
3070.51
3074.75
3078.48
3081.63
3084.14
3085.97
3087.04
3087.37
3086.65
3084.98
3082.18
3078.05
3072.64
3065.75
3057.35
3047.31
3035.52
3021.82
3006.07
2988.3
2968.3
2946.12
2921.49
2894.71
2865.66
2834.43
2800.53
2763.97
2724.91
2683.93
2641.09
2596.63
2549.72
2500.94
2449.68
2397.72
2344.58
2292.43
2236.4
2183.4
2092.55
3377.62
2845.77
2817.49
2812.51
2808.01
2804.07
2800.5
2796.85
2793.23
2790.47
2789.32
2789.58
2790.87
2792.79
2794.53
2795.86
2796.85
2798.01
2799.63
2801.36
2802.58
2803.49
2804.45
2805.63
2807.08
2808.88
2811.16
2813.82
2816.61
2819.24
2821.55
2823.56
2825.43
2827.36
2829.54
2832.03
2834.86
2837.98
2841.35
2844.91
2848.64
2852.52
2856.53
2860.67
2864.96
2869.39
2873.98
2878.74
2883.67
2888.77
2894.06
2899.52
2905.16
2910.98
2916.98
2923.15
2929.48
2935.97
2942.61
2949.4
2956.32
2963.37
2970.53
2977.8
2985.16
2992.6
3000.1
3007.65
3015.23
3022.83
3030.41
3037.97
3045.49
3052.94
3060.29
3067.5
3074.56
3081.42
3088.07
3094.46
3100.55
3106.3
3111.65
3116.54
3120.94
3124.77
3127.94
3130.42
3132.13
3132.99
3133.09
3131.78
3129.52
3125.9
3120.98
3114.68
3106.77
3097.08
3085.54
3072.12
3056.62
3039.06
3019.19
2997.06
2972.32
2945.23
2915.57
2883.49
2848.88
2811.83
2772.61
2731.29
2687.65
2642
2593.9
2544.62
2493.32
2442.11
2388.75
2336.68
2252.78
3348.06
2849.56
2820.56
2816.45
2811.7
2807.15
2802.07
2797.28
2792.83
2788.98
2786.31
2785.22
2785.65
2787.46
2789.91
2792.53
2794.96
2797.24
2799.82
2802.75
2805.52
2807.53
2808.96
2810.2
2811.48
2812.93
2814.81
2817.22
2820.05
2822.99
2825.75
2828.19
2830.38
2832.52
2834.81
2837.39
2840.32
2843.58
2847.12
2850.91
2854.89
2859.03
2863.32
2867.76
2872.34
2877.07
2881.96
2887.01
2892.23
2897.63
2903.2
2908.96
2914.91
2921.04
2927.35
2933.85
2940.52
2947.37
2954.37
2961.54
2968.87
2976.33
2983.94
2991.66
2999.51
3007.46
3015.5
3023.62
3031.8
3040.03
3048.29
3056.57
3064.85
3073.11
3081.33
3089.46
3097.5
3105.41
3113.18
3120.76
3128.13
3135.25
3142.06
3148.52
3154.59
3160.21
3165.33
3169.88
3173.81
3176.99
3179.43
3180.97
3181.61
3181.21
3179.53
3176.72
3172.37
3166.48
3158.92
3149.61
3138.4
3125.23
3109.86
3092.24
3072.08
3049.64
3024.73
2997.51
2967.57
2934.84
2899.51
2861.68
2821.73
2779.45
2734.59
2687.53
2637.54
2587.05
2532.9
2479.03
2400.1
3316.16
2848.15
2820.86
2819.86
2816.72
2812.48
2806.45
2800.07
2794.31
2789.43
2785.86
2783.46
2782.45
2782.99
2784.88
2787.96
2791.59
2795.22
2798.85
2802.79
2806.98
2810.54
2812.92
2814.58
2815.93
2817.22
2818.75
2820.79
2823.43
2826.46
2829.54
2832.4
2834.97
2837.38
2839.84
2842.53
2845.55
2848.93
2852.62
2856.59
2860.79
2865.17
2869.73
2874.43
2879.29
2884.3
2889.47
2894.8
2900.3
2905.98
2911.83
2917.88
2924.1
2930.52
2937.14
2943.94
2950.92
2958.09
2965.44
2972.96
2980.65
2988.5
2996.5
3004.64
3012.93
3021.34
3029.87
3038.5
3047.22
3056.03
3064.9
3073.81
3082.77
3091.75
3100.74
3109.69
3118.6
3127.44
3136.19
3144.83
3153.32
3161.64
3169.75
3177.6
3185.15
3192.36
3199.18
3205.57
3211.46
3216.8
3221.52
3225.5
3228.67
3230.96
3232.28
3232.67
3231.67
3229.45
3225.8
3220.52
3213.65
3204.94
3194.29
3181.6
3166.64
3149.48
3129.79
3107.78
3082.99
3055.59
3025.47
2992.72
2957.67
2920
2880.21
2837.73
2792.84
2745.63
2695.34
2641.44
2567.45
3286.54
2841.25
2817.97
2820.33
2820.11
2818.09
2812.89
2805.63
2798.35
2792.2
2787.15
2783.59
2781.62
2780.88
2781.39
2783.63
2787.43
2791.98
2796.93
2802.12
2807.42
2812.24
2816
2818.48
2820.18
2821.5
2822.81
2824.51
2826.85
2829.8
2833.06
2836.27
2839.22
2841.94
2844.61
2847.44
2850.56
2854.05
2857.88
2862.01
2866.39
2870.99
2875.78
2880.73
2885.84
2891.11
2896.55
2902.14
2907.9
2913.84
2919.97
2926.27
2932.77
2939.46
2946.34
2953.42
2960.7
2968.16
2975.82
2983.65
2991.67
2999.86
3008.22
3016.74
3025.41
3034.23
3043.19
3052.28
3061.48
3070.79
3080.19
3089.67
3099.22
3108.83
3118.49
3128.16
3137.83
3147.48
3157.09
3166.65
3176.13
3185.5
3194.74
3203.8
3212.66
3221.27
3229.59
3237.59
3245.21
3252.42
3259.14
3265.31
3270.85
3275.68
3279.67
3282.83
3285.03
3286.2
3286.39
3284.84
3282.14
3277.66
3271.45
3263.43
3253.3
3241
3226.19
3209.03
3189.12
3166.72
3141.35
3113.24
3082.29
3048.49
3012.23
2972.85
2931.09
2886.42
2839.31
2787.08
2718.34
3263.19
2830.48
2811.92
2818.62
2820.57
2821.29
2819.27
2812.97
2804.84
2797.11
2790.63
2785.52
2782.13
2780.53
2780.26
2781.04
2783.87
2788.41
2794.15
2800.52
2806.86
2812.98
2818.1
2821.66
2824
2825.6
2826.91
2828.37
2830.39
2833.13
2836.42
2839.86
2843.15
2846.19
2849.11
2852.1
2855.34
2858.94
2862.89
2867.17
2871.72
2876.5
2881.49
2886.67
2892.01
2897.52
2903.2
2909.04
2915.05
2921.23
2927.6
2934.15
2940.89
2947.83
2954.97
2962.31
2969.84
2977.58
2985.5
2993.63
3001.94
3010.44
3019.12
3027.97
3036.99
3046.17
3055.51
3065
3074.62
3084.37
3094.24
3104.21
3114.28
3124.44
3134.68
3144.98
3155.31
3165.66
3176.02
3186.37
3196.7
3206.98
3217.19
3227.29
3237.27
3247.08
3256.7
3266.08
3275.21
3284.02
3292.48
3300.53
3308.1
3315.12
3321.54
3327.28
3332.28
3336.34
3339.5
3341.51
3342.42
3342.05
3339.89
3336.4
3330.97
3323.61
3314.08
3302.36
3288.08
3271.4
3251.75
3229.44
3203.99
3175.76
3144.64
3110.23
3073.07
3032.27
2988.72
2939.36
2874.82
3248.45
2819.31
2803.33
2814.02
2819.63
2822.31
2822.76
2819.45
2812.22
2803.83
2795.92
2789.14
2783.97
2781.11
2780.11
2780.28
2781.94
2785.6
2791.31
2798.46
2806.01
2813.14
2819.33
2824.05
2827.24
2829.32
2830.82
2832.22
2834.01
2836.5
2839.69
2843.26
2846.82
2850.16
2853.34
2856.52
2859.9
2863.61
2867.68
2872.09
2876.79
2881.74
2886.92
2892.29
2897.84
2903.57
2909.47
2915.53
2921.77
2928.18
2934.77
2941.55
2948.52
2955.68
2963.05
2970.62
2978.4
2986.37
2994.55
3002.93
3011.51
3020.28
3029.24
3038.38
3047.71
3057.21
3066.88
3076.72
3086.71
3096.84
3107.11
3117.51
3128.02
3138.66
3149.4
3160.22
3171.12
3182.07
3193.06
3204.09
3215.14
3226.19
3237.22
3248.21
3259.13
3269.96
3280.67
3291.24
3301.63
3311.81
3321.75
3331.4
3340.72
3349.63
3358.09
3366.05
3373.43
3380.15
3386.14
3391.27
3395.43
3398.6
3400.56
3401.38
3400.68
3398.27
3394.17
3387.98
3379.57
3368.84
3355.28
3339.06
3319.48
3297.03
3270.99
3241.5
3208.32
3170.86
3130.25
3083.45
3022.35
3240.7
2809.11
2793.76
2806.05
2816.29
2821.96
2823.89
2823.34
2818.53
2810.76
2802.22
2794.15
2787.29
2782.72
2780.6
2780.32
2781.32
2784.17
2789.32
2796.61
2804.93
2812.93
2820.06
2825.77
2829.83
2832.54
2834.38
2835.89
2837.57
2839.86
2842.91
2846.52
2850.27
2853.88
2857.31
2860.69
2864.23
2868.06
2872.25
2876.78
2881.62
2886.72
2892.06
2897.61
2903.35
2909.27
2915.36
2921.63
2928.07
2934.69
2941.49
2948.48
2955.65
2963.03
2970.6
2978.39
2986.38
2994.57
3002.97
3011.58
3020.39
3029.4
3038.61
3048.02
3057.61
3067.39
3077.35
3087.49
3097.79
3108.26
3118.88
3129.64
3140.54
3151.58
3162.74
3174.02
3185.39
3196.85
3208.38
3219.98
3231.63
3243.33
3255.05
3266.78
3278.5
3290.18
3301.8
3313.35
3324.8
3336.12
3347.29
3358.28
3369.03
3379.53
3389.7
3399.5
3408.89
3417.82
3426.21
3434.01
3441.09
3447.38
3452.73
3457.06
3460.25
3462.13
3462.72
3461.37
3458.22
3453.02
3445.35
3435.3
3422.19
3406.4
3386.92
3364.3
3337.06
3305.05
3268.45
3224.9
3167.48
3237.67
2802.37
2784.08
2796.31
2810.44
2820.11
2823.99
2824.68
2822.64
2816.64
2808.42
2799.71
2791.68
2785.47
2782.05
2781.04
2781.46
2783.79
2788.44
2795.55
2804.2
2812.86
2820.62
2827.05
2831.85
2835.18
2837.48
2839.23
2840.95
2843.14
2846.06
2849.65
2853.54
2857.37
2861.04
2864.63
2868.33
2872.3
2876.61
2881.26
2886.23
2891.47
2896.96
2902.66
2908.57
2914.66
2920.94
2927.39
2934.02
2940.82
2947.81
2954.98
2962.34
2969.91
2977.67
2985.65
2993.83
3002.22
3010.82
3019.63
3028.65
3037.88
3047.31
3056.94
3066.77
3076.79
3087.01
3097.41
3107.99
3118.74
3129.65
3140.73
3151.96
3163.34
3174.86
3186.52
3198.3
3210.19
3222.17
3234.25
3246.41
3258.65
3270.95
3283.29
3295.66
3308.05
3320.42
3332.78
3345.1
3357.36
3369.54
3381.61
3393.55
3405.33
3416.9
3428.23
3439.28
3450.02
3460.4
3470.34
3479.78
3488.63
3496.85
3504.32
3510.97
3516.62
3521.25
3524.62
3526.67
3527.33
3525.86
3522.56
3516.64
3508.2
3496.37
3481.58
3461.71
3437.05
3405.23
3366.44
3312.79
3236.56
2799.02
2775.65
2785.71
2801.85
2815.81
2822.83
2825.04
2824.95
2821.23
2813.89
2805.03
2796.35
2789.08
2784.4
2782.5
2782.44
2784.12
2788.41
2795.41
2804.14
2813.07
2821.2
2828.09
2833.44
2837.33
2840.09
2842.17
2844.05
2846.23
2849.09
2852.66
2856.64
2860.66
2864.55
2868.34
2872.21
2876.32
2880.75
2885.53
2890.62
2895.99
2901.61
2907.46
2913.52
2919.77
2926.2
2932.82
2939.62
2946.59
2953.74
2961.09
2968.62
2976.36
2984.3
2992.45
3000.81
3009.37
3018.16
3027.15
3036.36
3045.78
3055.4
3065.24
3075.27
3085.51
3095.95
3106.58
3117.4
3128.4
3139.58
3150.93
3162.44
3174.12
3185.95
3197.94
3210.06
3222.31
3234.68
3247.16
3259.75
3272.43
3285.21
3298.07
3310.98
3323.95
3336.94
3349.96
3362.99
3376.01
3389
3401.96
3414.85
3427.66
3440.36
3452.91
3465.28
3477.46
3489.41
3501.08
3512.42
3523.38
3533.91
3543.95
3553.45
3562.3
3570.41
3577.64
3583.8
3588.87
3592.51
3594.7
3595.26
3593.41
3589.38
3582.85
3572.38
3557.99
3535.25
3507.68
3464.88
3236.35
2797.54
2768.39
2775.3
2791.29
2809.77
2820.81
2825.21
2826.22
2824.41
2818.21
2809.56
2800.73
2793.02
2787.45
2784.75
2784.31
2785.36
2789.18
2796.01
2804.69
2813.64
2821.91
2829.04
2834.76
2839.09
2842.27
2844.69
2846.8
2849.09
2851.96
2855.54
2859.6
2863.78
2867.86
2871.84
2875.88
2880.13
2884.7
2889.6
2894.81
2900.31
2906.05
2912.03
2918.22
2924.61
2931.19
2937.96
2944.9
2952.02
2959.33
2966.83
2974.52
2982.41
2990.51
2998.81
3007.33
3016.06
3025
3034.16
3043.54
3053.13
3062.94
3072.95
3083.17
3093.61
3104.24
3115.08
3126.11
3137.33
3148.74
3160.32
3172.09
3184.02
3196.13
3208.39
3220.82
3233.38
3246.07
3258.9
3271.85
3284.92
3298.11
3311.39
3324.76
3338.21
3351.72
3365.29
3378.9
3392.54
3406.21
3419.88
3433.54
3447.18
3460.76
3474.28
3487.71
3501.02
3514.2
3527.23
3540.06
3552.65
3564.96
3576.96
3588.58
3599.78
3610.49
3620.63
3630.14
3638.89
3646.8
3653.62
3659.37
3663.59
3666.29
3667.24
3665.64
3660.96
3650.21
3636.56
3611.05
3234.27
2795.28
2761.85
2766.77
2781.71
2803.51
2818.67
2825.3
2827.15
2826.3
2821.26
2813.05
2804.38
2796.72
2790.82
2787.64
2786.91
2787.56
2790.76
2797.26
2805.78
2814.56
2822.76
2829.96
2835.89
2840.53
2844.06
2846.81
2849.2
2851.67
2854.62
2858.26
2862.41
2866.73
2870.99
2875.15
2879.36
2883.76
2888.46
2893.48
2898.81
2904.42
2910.28
2916.38
2922.69
2929.21
2935.92
2942.81
2949.89
2957.16
2964.6
2972.24
2980.07
2988.11
2996.35
3004.8
3013.46
3022.34
3031.44
3040.75
3050.28
3060.03
3069.99
3080.17
3090.57
3101.17
3111.99
3123.01
3134.23
3145.65
3157.27
3169.07
3181.05
3193.21
3205.56
3218.08
3230.76
3243.6
3256.58
3269.7
3282.97
3296.37
3309.9
3323.54
3337.3
3351.15
3365.09
3379.11
3393.2
3407.36
3421.56
3435.81
3450.09
3464.38
3478.68
3492.95
3507.19
3521.38
3535.51
3549.56
3563.49
3577.29
3590.92
3604.35
3617.55
3630.5
3643.16
3655.45
3667.34
3678.75
3689.63
3699.84
3709.3
3717.85
3725.36
3731.68
3736.72
3739.84
3740.72
3737.53
3731.33
3230.06
2789.74
2758.59
2761.39
2774.36
2797.74
2816.61
2825.21
2827.67
2827.32
2823.17
2815.46
2807.13
2799.85
2794.2
2790.95
2790.05
2790.44
2793.07
2799.11
2807.29
2815.73
2823.72
2830.86
2836.88
2841.73
2845.55
2848.62
2851.29
2853.98
2857.08
2860.81
2865.06
2869.52
2873.94
2878.27
2882.64
2887.19
2892.02
2897.16
2902.61
2908.33
2914.3
2920.5
2926.93
2933.55
2940.38
2947.39
2954.59
2961.98
2969.55
2977.31
2985.27
2993.43
3001.8
3010.39
3019.19
3028.2
3037.43
3046.88
3056.56
3066.45
3076.57
3086.9
3097.45
3108.21
3119.19
3130.38
3141.78
3153.38
3165.18
3177.17
3189.35
3201.73
3214.29
3227.03
3239.95
3253.03
3266.26
3279.66
3293.2
3306.89
3320.72
3334.68
3348.76
3362.96
3377.26
3391.65
3406.14
3420.71
3435.34
3450.05
3464.81
3479.61
3494.44
3509.29
3524.14
3538.97
3553.78
3568.56
3583.27
3597.91
3612.43
3626.84
3641.08
3655.18
3669.05
3682.66
3695.98
3708.95
3721.54
3733.64
3745.23
3756.18
3766.31
3775.55
3783.77
3790.59
3796.22
3798.92
3802.44
3224.89
2784.01
2756.79
2758.2
2768.66
2792.37
2814.21
2824.81
2827.91
2827.7
2824.03
2816.83
2809.03
2802.43
2797.43
2794.48
2793.55
2793.76
2795.94
2801.34
2808.98
2816.98
2824.67
2831.7
2837.75
2842.76
2846.82
2850.18
2853.13
2856.06
2859.34
2863.2
2867.56
2872.15
2876.72
2881.21
2885.73
2890.42
2895.38
2900.64
2906.2
2912.02
2918.1
2924.4
2930.93
2937.66
2944.59
2951.72
2959.02
2966.52
2974.2
2982.08
2990.16
2998.44
3006.93
3015.63
3024.55
3033.68
3043.04
3052.62
3062.42
3072.45