/*--------------------------------*- C++ -*----------------------------------*\
| =========                 |                                                 |
| \\      /  F ield         | OpenFOAM: The Open Source CFD Toolbox           |
|  \\    /   O peration     | Version:  2412                                  |
|   \\  /    A nd           | Website:  www.openfoam.com                      |
|    \\/     M anipulation  |                                                 |
\*---------------------------------------------------------------------------*/
FoamFile
{
    version     2.0;
    format      ascii;
    arch        "LSB;label=32;scalar=64";
    class       volVectorField;
    location    "0.058";
    object      U;
}
// * * * * * * * * * * * * * * * * * * * * * * * * * * * * * * * * * * * * * //

dimensions      [0 1 -1 0 0 0 0];

internalField   nonuniform List<vector> 
78650
(
(209.701 0.152119 0)
(209.129 0.323812 0)
(208.645 0.571531 0)
(208.535 0.676278 0)
(208.61 0.741133 0)
(209.244 0.657685 0)
(210.323 0.361206 0)
(211.376 0.139748 0)
(212.162 0.00980314 0)
(212.686 -0.00919546 0)
(213.019 0.086497 0)
(213.146 0.239303 0)
(213.1 0.417203 0)
(212.755 0.616555 0)
(212.266 0.776454 0)
(211.806 0.857156 0)
(211.437 0.889454 0)
(211.149 0.923507 0)
(210.961 0.976244 0)
(210.831 1.07346 0)
(210.768 1.20646 0)
(210.743 1.37187 0)
(210.802 1.54389 0)
(210.927 1.72275 0)
(211.126 1.90701 0)
(211.439 2.06321 0)
(211.793 2.24118 0)
(212.188 2.43015 0)
(212.612 2.63866 0)
(213.053 2.87069 0)
(213.496 3.13314 0)
(213.931 3.42897 0)
(214.351 3.76203 0)
(214.757 4.13382 0)
(215.147 4.54377 0)
(215.517 4.99106 0)
(215.862 5.47203 0)
(216.186 5.99469 0)
(216.498 6.55249 0)
(216.789 7.14718 0)
(217.057 7.77823 0)
(217.307 8.44354 0)
(217.531 9.14378 0)
(217.734 9.87623 0)
(217.921 10.6407 0)
(218.087 11.4379 0)
(218.227 12.2677 0)
(218.346 13.1295 0)
(218.445 14.0234 0)
(218.525 14.9494 0)
(218.586 15.907 0)
(218.628 16.8958 0)
(218.65 17.9163 0)
(218.655 18.9692 0)
(218.642 20.054 0)
(218.612 21.1713 0)
(218.569 22.3217 0)
(218.511 23.5051 0)
(218.441 24.7222 0)
(218.361 25.9736 0)
(218.273 27.2597 0)
(218.181 28.5802 0)
(218.087 29.936 0)
(217.996 31.3285 0)
(217.907 32.7589 0)
(217.824 34.228 0)
(217.751 35.7372 0)
(217.695 37.2869 0)
(217.66 38.8782 0)
(217.648 40.5115 0)
(217.669 42.1886 0)
(217.731 43.9108 0)
(217.829 45.6789 0)
(217.984 47.4963 0)
(218.194 49.3627 0)
(218.463 51.2789 0)
(218.817 53.2456 0)
(219.248 55.2617 0)
(219.789 57.3284 0)
(220.426 59.4443 0)
(221.196 61.6087 0)
(222.099 63.8175 0)
(223.153 66.0669 0)
(224.381 68.3545 0)
(225.787 70.6795 0)
(227.411 73.0328 0)
(229.239 75.4034 0)
(231.347 77.7633 0)
(233.679 80.1281 0)
(236.379 82.459 0)
(239.282 84.7885 0)
(242.646 86.965 0)
(246.161 89.1397 0)
(250.231 91.0743 0)
(254.46 93.0669 0)
(259.248 94.7986 0)
(264.365 96.3844 0)
(269.99 97.7159 0)
(276.19 98.71 0)
(282.76 99.1844 0)
(289.721 99.4453 0)
(296.21 99.5119 0)
(302.469 99.4135 0)
(309.207 98.9365 0)
(316.785 97.8941 0)
(324.472 96.3766 0)
(332.25 94.3458 0)
(339.276 92.3324 0)
(345.516 90.6259 0)
(351.119 88.7881 0)
(356.3 86.6558 0)
(361.915 83.8904 0)
(367.263 81.4607 0)
(372.537 79.0602 0)
(376.499 76.669 0)
(378.781 74.5967 0)
(380.925 72.0824 0)
(383.696 70.8225 0)
(389.128 69.4592 0)
(397.009 68.3018 0)
(399.539 72.2473 0)
(209.783 0.103972 0)
(209.247 0.266168 0)
(208.693 0.524391 0)
(208.506 0.652938 0)
(208.502 0.748086 0)
(208.973 0.707131 0)
(209.969 0.43593 0)
(211.066 0.222166 0)
(211.962 0.104938 0)
(212.607 0.0976751 0)
(212.989 0.161989 0)
(213.152 0.324038 0)
(213.193 0.513494 0)
(213.047 0.75673 0)
(212.743 1.0056 0)
(212.42 1.18213 0)
(212.13 1.28157 0)
(211.872 1.34897 0)
(211.67 1.41593 0)
(211.505 1.50958 0)
(211.381 1.63116 0)
(211.295 1.77775 0)
(211.283 1.93412 0)
(211.36 2.08347 0)
(211.47 2.25995 0)
(211.714 2.39836 0)
(212.013 2.55454 0)
(212.356 2.72478 0)
(212.73 2.91589 0)
(213.125 3.13128 0)
(213.526 3.37705 0)
(213.924 3.65619 0)
(214.31 3.97299 0)
(214.683 4.32773 0)
(215.041 4.72126 0)
(215.386 5.15537 0)
(215.714 5.62759 0)
(216.008 6.12931 0)
(216.292 6.67303 0)
(216.554 7.25274 0)
(216.796 7.86583 0)
(217.016 8.5128 0)
(217.211 9.19466 0)
(217.386 9.90842 0)
(217.545 10.6543 0)
(217.68 11.4324 0)
(217.791 12.242 0)
(217.881 13.083 0)
(217.952 13.956 0)
(218.003 14.861 0)
(218.033 15.7973 0)
(218.045 16.7646 0)
(218.037 17.7631 0)
(218.011 18.7936 0)
(217.966 19.8555 0)
(217.903 20.9495 0)
(217.826 22.0763 0)
(217.734 23.2357 0)
(217.627 24.4283 0)
(217.509 25.6548 0)
(217.381 26.9158 0)
(217.246 28.211 0)
(217.107 29.5412 0)
(216.967 30.9077 0)
(216.827 32.3119 0)
(216.69 33.7542 0)
(216.559 35.2366 0)
(216.439 36.7596 0)
(216.336 38.3245 0)
(216.25 39.9315 0)
(216.191 41.5827 0)
(216.166 43.2797 0)
(216.17 45.0229 0)
(216.225 46.8165 0)
(216.325 48.6603 0)
(216.475 50.556 0)
(216.699 52.5053 0)
(216.989 54.5073 0)
(217.376 56.5641 0)
(217.846 58.6745 0)
(218.436 60.8398 0)
(219.145 63.0574 0)
(219.99 65.3269 0)
(220.992 67.648 0)
(222.154 70.0174 0)
(223.516 72.4229 0)
(225.073 74.8542 0)
(226.896 77.2977 0)
(228.933 79.767 0)
(231.308 82.2263 0)
(233.877 84.6911 0)
(236.881 87.0686 0)
(240.05 89.4695 0)
(243.771 91.7118 0)
(247.622 93.9868 0)
(252.029 95.9598 0)
(256.63 97.877 0)
(261.716 99.4701 0)
(267.209 100.886 0)
(273.051 102.005 0)
(278.946 102.89 0)
(285.535 103.501 0)
(292.315 103.746 0)
(299.962 103.546 0)
(307.004 103.056 0)
(314.643 102.036 0)
(321.965 100.796 0)
(329.456 99.0249 0)
(336.098 97.4351 0)
(342.812 95.6536 0)
(349.239 93.7299 0)
(355.779 91.3315 0)
(361.866 88.8607 0)
(367.667 86.1751 0)
(372.128 83.8018 0)
(375.306 81.5749 0)
(377.735 78.9388 0)
(379.96 77.305 0)
(384.668 75.8503 0)
(393.231 74.4527 0)
(397.007 78.617 0)
(209.853 0.0685141 0)
(209.377 0.211636 0)
(208.772 0.473139 0)
(208.489 0.639394 0)
(208.423 0.741676 0)
(208.741 0.737819 0)
(209.613 0.502307 0)
(210.687 0.277525 0)
(211.638 0.151879 0)
(212.397 0.165393 0)
(212.904 0.23872 0)
(213.12 0.384575 0)
(213.182 0.573427 0)
(213.126 0.824715 0)
(212.934 1.11141 0)
(212.729 1.36356 0)
(212.562 1.55324 0)
(212.405 1.69757 0)
(212.263 1.81785 0)
(212.117 1.93988 0)
(211.978 2.06571 0)
(211.842 2.20466 0)
(211.768 2.34947 0)
(211.783 2.48351 0)
(211.841 2.64272 0)
(212.014 2.76216 0)
(212.256 2.89319 0)
(212.544 3.04107 0)
(212.863 3.21119 0)
(213.207 3.40604 0)
(213.563 3.63153 0)
(213.922 3.89088 0)
(214.273 4.18832 0)
(214.613 4.52425 0)
(214.941 4.90002 0)
(215.254 5.31379 0)
(215.552 5.76636 0)
(215.83 6.25975 0)
(216.082 6.78142 0)
(216.316 7.34124 0)
(216.533 7.93751 0)
(216.726 8.56937 0)
(216.894 9.23493 0)
(217.042 9.93115 0)
(217.171 10.6594 0)
(217.275 11.4194 0)
(217.357 12.2105 0)
(217.419 13.0327 0)
(217.46 13.8867 0)
(217.48 14.7725 0)
(217.48 15.6894 0)
(217.46 16.637 0)
(217.421 17.6154 0)
(217.363 18.6255 0)
(217.284 19.6669 0)
(217.188 20.7395 0)
(217.076 21.845 0)
(216.946 22.9829 0)
(216.802 24.154 0)
(216.644 25.3582 0)
(216.475 26.5969 0)
(216.296 27.8696 0)
(216.111 29.1768 0)
(215.922 30.5196 0)
(215.73 31.9005 0)
(215.538 33.3187 0)
(215.349 34.7766 0)
(215.166 36.2749 0)
(214.996 37.8151 0)
(214.838 39.3972 0)
(214.702 41.0233 0)
(214.594 42.6951 0)
(214.509 44.4129 0)
(214.468 46.1812 0)
(214.464 47.9996 0)
(214.504 49.8702 0)
(214.607 51.7955 0)
(214.767 53.774 0)
(215.012 55.8087 0)
(215.329 57.8979 0)
(215.754 60.0449 0)
(216.281 62.2474 0)
(216.93 64.5052 0)
(217.717 66.817 0)
(218.649 69.1792 0)
(219.76 71.5869 0)
(221.046 74.0385 0)
(222.565 76.5294 0)
(224.273 79.0632 0)
(226.285 81.6075 0)
(228.488 84.1646 0)
(231.098 86.6762 0)
(233.878 89.2143 0)
(237.17 91.6548 0)
(240.609 94.1232 0)
(244.63 96.3599 0)
(248.809 98.613 0)
(253.543 100.599 0)
(258.569 102.484 0)
(264.06 104.064 0)
(270.136 105.406 0)
(276.646 106.371 0)
(283.363 106.979 0)
(290.146 107.293 0)
(297.052 107.323 0)
(304.56 106.845 0)
(311.339 106.253 0)
(319.031 105.009 0)
(326.398 103.522 0)
(333.91 101.832 0)
(341.454 99.8569 0)
(347.98 97.8696 0)
(353.974 95.9997 0)
(360.599 93.4889 0)
(365.722 90.9635 0)
(369.658 88.2478 0)
(372.27 85.5381 0)
(374.521 83.7567 0)
(379.453 82.5051 0)
(389.24 80.974 0)
(393.101 86.0477 0)
(209.906 0.0412065 0)
(209.508 0.158515 0)
(208.88 0.414534 0)
(208.486 0.617163 0)
(208.362 0.717339 0)
(208.559 0.755326 0)
(209.293 0.573612 0)
(210.302 0.339121 0)
(211.25 0.187276 0)
(212.073 0.197537 0)
(212.703 0.286183 0)
(213.045 0.436435 0)
(213.138 0.628366 0)
(213.123 0.870062 0)
(212.975 1.1573 0)
(212.811 1.44394 0)
(212.71 1.68699 0)
(212.651 1.8955 0)
(212.613 2.08568 0)
(212.559 2.26953 0)
(212.48 2.43585 0)
(212.362 2.59886 0)
(212.276 2.75165 0)
(212.253 2.89281 0)
(212.284 3.03224 0)
(212.394 3.14741 0)
(212.575 3.25825 0)
(212.806 3.38584 0)
(213.07 3.53667 0)
(213.36 3.71237 0)
(213.665 3.91832 0)
(213.979 4.15768 0)
(214.287 4.43506 0)
(214.59 4.7507 0)
(214.878 5.10561 0)
(215.155 5.50009 0)
(215.419 5.93383 0)
(215.664 6.40645 0)
(215.894 6.91523 0)
(216.097 7.45841 0)
(216.284 8.03423 0)
(216.445 8.64479 0)
(216.583 9.28852 0)
(216.701 9.96331 0)
(216.798 10.6706 0)
(216.87 11.4092 0)
(216.922 12.1782 0)
(216.955 12.978 0)
(216.966 13.8095 0)
(216.956 14.6726 0)
(216.926 15.5668 0)
(216.875 16.4916 0)
(216.805 17.4463 0)
(216.716 18.4327 0)
(216.606 19.4507 0)
(216.478 20.4987 0)
(216.332 21.5795 0)
(216.168 22.6924 0)
(215.988 23.838 0)
(215.794 25.0153 0)
(215.586 26.2281 0)
(215.366 27.4744 0)
(215.138 28.7547 0)
(214.904 30.07 0)
(214.663 31.4236 0)
(214.421 32.8131 0)
(214.178 34.242 0)
(213.937 35.7107 0)
(213.703 37.2213 0)
(213.477 38.7739 0)
(213.269 40.3701 0)
(213.08 42.0127 0)
(212.91 43.7009 0)
(212.777 45.4398 0)
(212.672 47.2292 0)
(212.605 49.0715 0)
(212.589 50.9702 0)
(212.619 52.924 0)
(212.724 54.9372 0)
(212.888 57.0079 0)
(213.147 59.1413 0)
(213.494 61.3349 0)
(213.948 63.59 0)
(214.525 65.9066 0)
(215.232 68.2849 0)
(216.098 70.7243 0)
(217.12 73.2216 0)
(218.355 75.7685 0)
(219.769 78.3579 0)
(221.469 80.9656 0)
(223.352 83.5998 0)
(225.612 86.2358 0)
(228.038 88.921 0)
(230.938 91.552 0)
(233.982 94.2005 0)
(237.59 96.6884 0)
(241.346 99.1965 0)
(245.686 101.456 0)
(250.264 103.691 0)
(255.408 105.656 0)
(260.964 107.421 0)
(266.782 108.868 0)
(273.236 110.126 0)
(279.548 111.016 0)
(287.158 111.63 0)
(293.796 111.842 0)
(301.632 111.475 0)
(309.06 110.849 0)
(317.434 109.627 0)
(325.322 108.082 0)
(333.258 106.139 0)
(340.451 104.248 0)
(347.367 102.307 0)
(353.957 100.237 0)
(359.718 98.1409 0)
(365.011 95.3792 0)
(368.389 92.4254 0)
(371.159 89.726 0)
(376.237 87.8712 0)
(386.203 86.6186 0)
(389.78 92.8647 0)
(209.945 0.0227626 0)
(209.633 0.111 0)
(209.014 0.348788 0)
(208.515 0.581267 0)
(208.311 0.691288 0)
(208.424 0.767911 0)
(209.009 0.641958 0)
(209.933 0.402097 0)
(210.848 0.217315 0)
(211.686 0.215803 0)
(212.395 0.309946 0)
(212.872 0.466806 0)
(213.055 0.680844 0)
(213.077 0.899743 0)
(212.971 1.18456 0)
(212.798 1.47756 0)
(212.685 1.72934 0)
(212.643 1.96329 0)
(212.652 2.19578 0)
(212.676 2.42647 0)
(212.693 2.6492 0)
(212.664 2.87186 0)
(212.632 3.07204 0)
(212.62 3.2544 0)
(212.662 3.41452 0)
(212.758 3.53273 0)
(212.903 3.63997 0)
(213.086 3.755 0)
(213.297 3.88731 0)
(213.532 4.04121 0)
(213.783 4.22349 0)
(214.047 4.4388 0)
(214.312 4.69258 0)
(214.574 4.98529 0)
(214.826 5.31845 0)
(215.068 5.69054 0)
(215.295 6.10205 0)
(215.507 6.55303 0)
(215.704 7.04104 0)
(215.878 7.56438 0)
(216.034 8.11918 0)
(216.162 8.70796 0)
(216.27 9.32944 0)
(216.357 9.98301 0)
(216.421 10.6698 0)
(216.462 11.3877 0)
(216.484 12.1359 0)
(216.486 12.9148 0)
(216.467 13.7253 0)
(216.425 14.5671 0)
(216.362 15.4395 0)
(216.28 16.343 0)
(216.178 17.2757 0)
(216.055 18.2397 0)
(215.911 19.2352 0)
(215.751 20.2581 0)
(215.569 21.3164 0)
(215.369 22.4058 0)
(215.152 23.5272 0)
(214.919 24.6818 0)
(214.67 25.8693 0)
(214.409 27.0904 0)
(214.136 28.3457 0)
(213.854 29.6362 0)
(213.566 30.9618 0)
(213.271 32.3252 0)
(212.972 33.7272 0)
(212.674 35.1683 0)
(212.376 36.652 0)
(212.083 38.1769 0)
(211.804 39.7428 0)
(211.536 41.3559 0)
(211.284 43.0143 0)
(211.063 44.7231 0)
(210.862 46.4829 0)
(210.695 48.2941 0)
(210.568 50.162 0)
(210.48 52.0848 0)
(210.456 54.0675 0)
(210.48 56.1075 0)
(210.59 58.2112 0)
(210.772 60.3762 0)
(211.049 62.6047 0)
(211.433 64.8979 0)
(211.93 67.2557 0)
(212.565 69.678 0)
(213.339 72.1615 0)
(214.3 74.7033 0)
(215.419 77.3014 0)
(216.79 79.9497 0)
(218.324 82.6571 0)
(220.2 85.4046 0)
(222.235 88.2017 0)
(224.718 90.9714 0)
(227.354 93.7637 0)
(230.53 96.4684 0)
(233.869 99.2158 0)
(237.81 101.805 0)
(241.955 104.412 0)
(246.637 106.765 0)
(251.619 109.02 0)
(257.196 110.994 0)
(263.305 112.745 0)
(269.585 114.054 0)
(276.584 115.15 0)
(283.335 115.888 0)
(291.26 116.118 0)
(298.255 116.189 0)
(305.985 115.741 0)
(313.398 115.043 0)
(321.306 113.859 0)
(329.328 112.247 0)
(336.977 110.312 0)
(344.574 107.851 0)
(350.467 105.876 0)
(355.787 103.627 0)
(359.789 101.121 0)
(363.326 99.0768 0)
(369.301 97.2639 0)
(379.9 95.4822 0)
(383.938 100.856 0)
(209.97 0.0111665 0)
(209.745 0.0707949 0)
(209.168 0.276696 0)
(208.575 0.531494 0)
(208.273 0.671763 0)
(208.321 0.766304 0)
(208.748 0.68891 0)
(209.579 0.466006 0)
(210.47 0.271435 0)
(211.296 0.260091 0)
(212.026 0.344749 0)
(212.597 0.489978 0)
(212.895 0.69526 0)
(212.982 0.927398 0)
(212.929 1.1854 0)
(212.754 1.48174 0)
(212.628 1.75865 0)
(212.586 2.00925 0)
(212.596 2.2469 0)
(212.626 2.48735 0)
(212.667 2.73767 0)
(212.691 2.99929 0)
(212.723 3.2433 0)
(212.759 3.48061 0)
(212.854 3.67319 0)
(212.99 3.83184 0)
(213.158 3.9698 0)
(213.344 4.10007 0)
(213.541 4.23468 0)
(213.747 4.38205 0)
(213.96 4.55147 0)
(214.18 4.74975 0)
(214.399 4.98348 0)
(214.617 5.2547 0)
(214.826 5.56554 0)
(215.026 5.91499 0)
(215.211 6.3032 0)
(215.383 6.72841 0)
(215.537 7.19109 0)
(215.67 7.68495 0)
(215.787 8.21234 0)
(215.879 8.77663 0)
(215.956 9.37451 0)
(216.009 10.0057 0)
(216.039 10.6701 0)
(216.048 11.365 0)
(216.04 12.0899 0)
(216.011 12.8451 0)
(215.96 13.6314 0)
(215.887 14.4495 0)
(215.794 15.2971 0)
(215.678 16.1759 0)
(215.545 17.083 0)
(215.391 18.0207 0)
(215.217 18.9893 0)
(215.021 19.9898 0)
(214.807 21.0205 0)
(214.574 22.0826 0)
(214.322 23.1764 0)
(214.053 24.3025 0)
(213.767 25.4617 0)
(213.466 26.6542 0)
(213.152 27.8804 0)
(212.827 29.1407 0)
(212.492 30.4367 0)
(212.149 31.7693 0)
(211.799 33.1399 0)
(211.445 34.5501 0)
(211.09 36.0003 0)
(210.737 37.491 0)
(210.391 39.0242 0)
(210.047 40.6062 0)
(209.717 42.2304 0)
(209.411 43.9025 0)
(209.116 45.6288 0)
(208.853 47.4049 0)
(208.618 49.2397 0)
(208.414 51.1297 0)
(208.262 53.0812 0)
(208.148 55.0917 0)
(208.107 57.1687 0)
(208.125 59.3102 0)
(208.224 61.5198 0)
(208.414 63.7988 0)
(208.702 66.1479 0)
(209.112 68.5698 0)
(209.644 71.0638 0)
(210.341 73.6295 0)
(211.179 76.2619 0)
(212.245 78.9557 0)
(213.466 81.7094 0)
(215.001 84.5084 0)
(216.684 87.3548 0)
(218.774 90.2101 0)
(221 93.1152 0)
(223.725 96.0001 0)
(226.599 98.9353 0)
(230.043 101.774 0)
(233.678 104.635 0)
(237.931 107.303 0)
(242.491 109.925 0)
(247.569 112.269 0)
(253.036 114.451 0)
(259.184 116.435 0)
(265.563 117.98 0)
(272.912 119.364 0)
(280.009 120.221 0)
(287.678 120.757 0)
(294.984 121.017 0)
(303.156 120.757 0)
(310.399 120.385 0)
(318.804 119.382 0)
(326.495 118.239 0)
(335.128 116.336 0)
(342.77 114.079 0)
(350.099 110.72 0)
(354.414 107.747 0)
(357.269 105.349 0)
(362.112 104.332 0)
(373.991 102.724 0)
(378.1 109.834 0)
(209.986 0.00483793 0)
(209.837 0.0405909 0)
(209.337 0.204656 0)
(208.678 0.467893 0)
(208.256 0.651823 0)
(208.245 0.731778 0)
(208.511 0.706905 0)
(209.237 0.537728 0)
(210.116 0.347759 0)
(210.926 0.318776 0)
(211.638 0.38047 0)
(212.247 0.505196 0)
(212.659 0.688871 0)
(212.814 0.937776 0)
(212.843 1.18232 0)
(212.692 1.47652 0)
(212.534 1.76649 0)
(212.477 2.03308 0)
(212.494 2.2888 0)
(212.541 2.54728 0)
(212.592 2.80772 0)
(212.621 3.06582 0)
(212.655 3.32372 0)
(212.706 3.57794 0)
(212.813 3.79686 0)
(212.978 3.9908 0)
(213.182 4.16301 0)
(213.402 4.32377 0)
(213.622 4.48308 0)
(213.836 4.64737 0)
(214.042 4.82436 0)
(214.242 5.02101 0)
(214.433 5.24529 0)
(214.619 5.50149 0)
(214.793 5.79301 0)
(214.957 6.11976 0)
(215.103 6.48288 0)
(215.236 6.87929 0)
(215.345 7.30481 0)
(215.444 7.77419 0)
(215.527 8.28243 0)
(215.588 8.82646 0)
(215.634 9.40243 0)
(215.653 10.0122 0)
(215.65 10.6546 0)
(215.629 11.3269 0)
(215.59 12.0294 0)
(215.529 12.7627 0)
(215.447 13.5258 0)
(215.341 14.3205 0)
(215.216 15.1419 0)
(215.068 15.9972 0)
(214.9 16.8819 0)
(214.713 17.7959 0)
(214.505 18.7397 0)
(214.276 19.7136 0)
(214.027 20.7186 0)
(213.758 21.7549 0)
(213.469 22.8226 0)
(213.162 23.9225 0)
(212.837 25.0549 0)
(212.494 26.2202 0)
(212.138 27.4187 0)
(211.767 28.6512 0)
(211.386 29.9184 0)
(210.993 31.2216 0)
(210.591 32.5623 0)
(210.182 33.9416 0)
(209.768 35.3607 0)
(209.351 36.8209 0)
(208.935 38.324 0)
(208.524 39.8696 0)
(208.122 41.4596 0)
(207.734 43.0969 0)
(207.345 44.7929 0)
(206.992 46.5294 0)
(206.655 48.3262 0)
(206.344 50.1782 0)
(206.075 52.0917 0)
(205.835 54.0641 0)
(205.659 56.1023 0)
(205.528 58.2043 0)
(205.469 60.3746 0)
(205.485 62.6149 0)
(205.586 64.9267 0)
(205.79 67.3141 0)
(206.097 69.7767 0)
(206.545 72.3154 0)
(207.117 74.9261 0)
(207.888 77.6121 0)
(208.793 80.3738 0)
(209.972 83.2098 0)
(211.279 86.1174 0)
(212.958 89.0784 0)
(214.769 92.1065 0)
(217.057 95.152 0)
(219.499 98.2489 0)
(222.492 101.291 0)
(225.676 104.348 0)
(229.434 107.266 0)
(233.42 110.181 0)
(237.991 112.919 0)
(242.919 115.586 0)
(248.357 117.972 0)
(254.357 120.183 0)
(260.872 122.073 0)
(267.683 123.635 0)
(275.511 124.903 0)
(283.011 125.517 0)
(291.906 125.781 0)
(299.804 125.564 0)
(308.509 124.856 0)
(316.419 124.162 0)
(324.147 123.169 0)
(331.524 122.209 0)
(339.857 120.124 0)
(345.67 117.492 0)
(350.659 114.094 0)
(356.759 111.366 0)
(368.793 109.601 0)
(372.943 116.925 0)
(209.994 0.00179435 0)
(209.906 0.0203401 0)
(209.506 0.138535 0)
(208.817 0.391252 0)
(208.273 0.607578 0)
(208.193 0.684367 0)
(208.311 0.715468 0)
(208.911 0.620642 0)
(209.769 0.435079 0)
(210.568 0.381411 0)
(211.254 0.420949 0)
(211.862 0.530355 0)
(212.349 0.690383 0)
(212.594 0.922033 0)
(212.676 1.16726 0)
(212.591 1.45216 0)
(212.413 1.75017 0)
(212.327 2.03081 0)
(212.336 2.30213 0)
(212.391 2.57699 0)
(212.455 2.85618 0)
(212.51 3.12906 0)
(212.552 3.40125 0)
(212.609 3.65899 0)
(212.715 3.8876 0)
(212.876 4.08541 0)
(213.08 4.26458 0)
(213.307 4.43849 0)
(213.539 4.61522 0)
(213.766 4.79832 0)
(213.981 4.9895 0)
(214.181 5.19428 0)
(214.364 5.42059 0)
(214.535 5.67302 0)
(214.688 5.95491 0)
(214.828 6.26662 0)
(214.947 6.61015 0)
(215.054 6.98893 0)
(215.142 7.40909 0)
(215.212 7.8639 0)
(215.26 8.35153 0)
(215.291 8.87281 0)
(215.304 9.42606 0)
(215.288 10.0134 0)
(215.255 10.6325 0)
(215.203 11.2815 0)
(215.132 11.9602 0)
(215.038 12.6691 0)
(214.926 13.4045 0)
(214.789 14.1741 0)
(214.63 14.9737 0)
(214.451 15.8018 0)
(214.251 16.6588 0)
(214.032 17.545 0)
(213.792 18.4611 0)
(213.531 19.4075 0)
(213.248 20.3844 0)
(212.945 21.3918 0)
(212.622 22.4302 0)
(212.28 23.4999 0)
(211.918 24.6018 0)
(211.538 25.736 0)
(211.142 26.9032 0)
(210.73 28.1036 0)
(210.305 29.3383 0)
(209.866 30.6083 0)
(209.416 31.915 0)
(208.956 33.2597 0)
(208.487 34.6434 0)
(208.013 36.067 0)
(207.536 37.5321 0)
(207.058 39.0409 0)
(206.582 40.5952 0)
(206.111 42.1974 0)
(205.653 43.8447 0)
(205.208 45.5443 0)
(204.768 47.3045 0)
(204.354 49.1155 0)
(203.969 50.9867 0)
(203.604 52.9197 0)
(203.295 54.9197 0)
(203.015 56.9863 0)
(202.797 59.1226 0)
(202.638 61.3323 0)
(202.55 63.6165 0)
(202.548 65.9805 0)
(202.635 68.4241 0)
(202.842 70.9509 0)
(203.158 73.5591 0)
(203.646 76.2548 0)
(204.251 79.0328 0)
(205.1 81.8926 0)
(206.067 84.8209 0)
(207.377 87.8146 0)
(208.807 90.8773 0)
(210.669 93.9896 0)
(212.659 97.1689 0)
(215.155 100.355 0)
(217.821 103.598 0)
(221.06 106.806 0)
(224.568 110.05 0)
(228.675 113.165 0)
(233.102 116.25 0)
(238.114 119.115 0)
(243.502 121.818 0)
(249.442 124.19 0)
(256.137 126.466 0)
(262.922 128.253 0)
(270.563 129.746 0)
(277.733 130.779 0)
(286.858 131.518 0)
(294.917 131.563 0)
(304.692 131.14 0)
(313.437 130.189 0)
(322.485 128.524 0)
(329.354 127.18 0)
(334.741 125.366 0)
(339.421 123.393 0)
(345.639 122.038 0)
(358.259 120.382 0)
(362.024 128.117 0)
(209.998 0.000557978 0)
(209.952 0.00870446 0)
(209.663 0.0840737 0)
(208.996 0.305337 0)
(208.337 0.54032 0)
(208.154 0.646269 0)
(208.156 0.723127 0)
(208.606 0.686383 0)
(209.413 0.50878 0)
(210.207 0.433156 0)
(210.874 0.456047 0)
(211.465 0.555137 0)
(211.992 0.694899 0)
(212.336 0.892399 0)
(212.455 1.14152 0)
(212.448 1.39926 0)
(212.279 1.69516 0)
(212.147 1.99137 0)
(212.132 2.28127 0)
(212.182 2.57371 0)
(212.248 2.87168 0)
(212.324 3.16095 0)
(212.384 3.44677 0)
(212.456 3.71788 0)
(212.568 3.96109 0)
(212.735 4.1734 0)
(212.945 4.3638 0)
(213.174 4.54441 0)
(213.407 4.72252 0)
(213.631 4.90256 0)
(213.843 5.09106 0)
(214.038 5.29467 0)
(214.215 5.51958 0)
(214.374 5.76984 0)
(214.517 6.04879 0)
(214.645 6.35774 0)
(214.753 6.69918 0)
(214.845 7.07301 0)
(214.908 7.48074 0)
(214.955 7.92081 0)
(214.976 8.39201 0)
(214.98 8.8936 0)
(214.961 9.42652 0)
(214.914 9.99256 0)
(214.851 10.5892 0)
(214.768 11.2148 0)
(214.667 11.8692 0)
(214.542 12.5546 0)
(214.396 13.2697 0)
(214.228 14.0133 0)
(214.038 14.7861 0)
(213.827 15.5884 0)
(213.594 16.4198 0)
(213.342 17.2802 0)
(213.068 18.1697 0)
(212.773 19.0889 0)
(212.456 20.0381 0)
(212.118 21.0176 0)
(211.759 22.0276 0)
(211.38 23.0687 0)
(210.98 24.1414 0)
(210.56 25.2462 0)
(210.122 26.3834 0)
(209.667 27.5534 0)
(209.197 28.757 0)
(208.711 29.9952 0)
(208.212 31.2693 0)
(207.699 32.5806 0)
(207.176 33.9301 0)
(206.643 35.3191 0)
(206.104 36.7489 0)
(205.56 38.2208 0)
(205.014 39.7367 0)
(204.47 41.2983 0)
(203.93 42.9092 0)
(203.394 44.5712 0)
(202.871 46.2835 0)
(202.363 48.0505 0)
(201.87 49.8781 0)
(201.389 51.7686 0)
(200.958 53.717 0)
(200.542 55.7356 0)
(200.186 57.8217 0)
(199.871 59.9822 0)
(199.617 62.2157 0)
(199.433 64.5289 0)
(199.322 66.923 0)
(199.309 69.4041 0)
(199.386 71.9704 0)
(199.607 74.6289 0)
(199.928 77.3724 0)
(200.46 80.2114 0)
(201.093 83.1379 0)
(202.027 86.1681 0)
(203.059 89.2935 0)
(204.483 92.5079 0)
(206.024 95.8039 0)
(208.048 99.1456 0)
(210.237 102.552 0)
(212.964 105.964 0)
(215.922 109.43 0)
(219.454 112.845 0)
(223.328 116.266 0)
(227.81 119.53 0)
(232.692 122.75 0)
(238.215 125.735 0)
(244.195 128.475 0)
(250.741 130.92 0)
(257.975 133.105 0)
(265.005 134.765 0)
(273.32 136.141 0)
(281.111 137.14 0)
(289.712 137.594 0)
(298.21 137.867 0)
(308.108 137.564 0)
(318.485 135.87 0)
(325.906 133.111 0)
(332.1 129.696 0)
(337.929 128.698 0)
(351.378 127.807 0)
(354.346 138.137 0)
(209.999 0.000138704 0)
(209.979 0.00304553 0)
(209.792 0.0445537 0)
(209.204 0.218491 0)
(208.454 0.460509 0)
(208.131 0.622005 0)
(208.042 0.706561 0)
(208.327 0.717266 0)
(209.054 0.571294 0)
(209.843 0.48618 0)
(210.497 0.490163 0)
(211.065 0.578174 0)
(211.607 0.70622 0)
(212.03 0.877192 0)
(212.207 1.11542 0)
(212.247 1.35404 0)
(212.12 1.6436 0)
(211.953 1.95327 0)
(211.9 2.25586 0)
(211.936 2.55378 0)
(211.992 2.86075 0)
(212.071 3.16006 0)
(212.148 3.4574 0)
(212.236 3.74287 0)
(212.359 4.00192 0)
(212.533 4.22943 0)
(212.749 4.43226 0)
(212.986 4.62231 0)
(213.227 4.80794 0)
(213.458 4.99464 0)
(213.675 5.18706 0)
(213.869 5.39202 0)
(214.042 5.61642 0)
(214.193 5.86545 0)
(214.325 6.14214 0)
(214.44 6.44728 0)
(214.534 6.78214 0)
(214.608 7.14643 0)
(214.651 7.54006 0)
(214.676 7.96251 0)
(214.672 8.41535 0)
(214.652 8.89722 0)
(214.601 9.41024 0)
(214.528 9.95378 0)
(214.437 10.5272 0)
(214.323 11.1312 0)
(214.189 11.764 0)
(214.035 12.4245 0)
(213.859 13.1134 0)
(213.662 13.8315 0)
(213.441 14.5787 0)
(213.198 15.3546 0)
(212.934 16.1587 0)
(212.649 16.991 0)
(212.344 17.8518 0)
(212.017 18.7417 0)
(211.668 19.6611 0)
(211.297 20.6103 0)
(210.904 21.5895 0)
(210.49 22.5991 0)
(210.055 23.6396 0)
(209.599 24.7115 0)
(209.123 25.8152 0)
(208.629 26.9511 0)
(208.117 28.1199 0)
(207.589 29.3224 0)
(207.045 30.56 0)
(206.485 31.8338 0)
(205.911 33.1452 0)
(205.325 34.4949 0)
(204.729 35.8845 0)
(204.124 37.3154 0)
(203.514 38.7896 0)
(202.899 40.3088 0)
(202.283 41.8749 0)
(201.669 43.4903 0)
(201.058 45.1584 0)
(200.453 46.8818 0)
(199.858 48.6624 0)
(199.28 50.4994 0)
(198.729 52.3993 0)
(198.169 54.3794 0)
(197.676 56.4124 0)
(197.201 58.5264 0)
(196.783 60.7148 0)
(196.414 62.9865 0)
(196.107 65.3409 0)
(195.878 67.7846 0)
(195.723 70.3163 0)
(195.691 72.9445 0)
(195.745 75.6629 0)
(195.98 78.4872 0)
(196.298 81.4052 0)
(196.879 84.4351 0)
(197.543 87.5529 0)
(198.561 90.7695 0)
(199.674 94.0699 0)
(201.224 97.4593 0)
(202.903 100.946 0)
(205.088 104.503 0)
(207.487 108.135 0)
(210.433 111.764 0)
(213.695 115.429 0)
(217.557 119.041 0)
(221.813 122.652 0)
(226.701 126.093 0)
(232.074 129.478 0)
(238.134 132.662 0)
(244.766 135.57 0)
(252.275 138.045 0)
(260.022 139.922 0)
(268.931 141.599 0)
(277.335 142.642 0)
(286.254 143.373 0)
(295.021 143.992 0)
(304.377 143.842 0)
(311.977 143.09 0)
(319.739 141.034 0)
(327.043 138.959 0)
(340.837 137.057 0)
(344.281 145.514 0)
(210 2.51823e-05 0)
(209.992 0.000802804 0)
(209.885 0.0200324 0)
(209.418 0.140391 0)
(208.633 0.375564 0)
(208.135 0.581641 0)
(207.962 0.656053 0)
(208.103 0.716656 0)
(208.711 0.633567 0)
(209.476 0.537814 0)
(210.118 0.507786 0)
(210.663 0.5818 0)
(211.2 0.708598 0)
(211.682 0.865272 0)
(211.949 1.08175 0)
(212.014 1.32778 0)
(211.956 1.59324 0)
(211.778 1.90058 0)
(211.668 2.21294 0)
(211.672 2.51956 0)
(211.711 2.83237 0)
(211.775 3.13774 0)
(211.856 3.44044 0)
(211.953 3.73449 0)
(212.086 4.00406 0)
(212.266 4.2421 0)
(212.488 4.4546 0)
(212.731 4.65368 0)
(212.979 4.84775 0)
(213.218 5.04189 0)
(213.442 5.23956 0)
(213.641 5.4471 0)
(213.814 5.67127 0)
(213.959 5.91766 0)
(214.081 6.18953 0)
(214.183 6.48793 0)
(214.265 6.81389 0)
(214.324 7.16715 0)
(214.355 7.54905 0)
(214.362 7.95941 0)
(214.341 8.39888 0)
(214.298 8.86551 0)
(214.224 9.35681 0)
(214.128 9.88348 0)
(214.008 10.4384 0)
(213.866 11.0203 0)
(213.704 11.6305 0)
(213.521 12.2685 0)
(213.316 12.9341 0)
(213.089 13.6276 0)
(212.838 14.3491 0)
(212.564 15.0987 0)
(212.269 15.8761 0)
(211.953 16.6813 0)
(211.615 17.5146 0)
(211.256 18.3762 0)
(210.874 19.2667 0)
(210.469 20.1865 0)
(210.042 21.1357 0)
(209.592 22.1148 0)
(209.121 23.1243 0)
(208.627 24.1646 0)
(208.112 25.2362 0)
(207.577 26.3394 0)
(207.022 27.4748 0)
(206.45 28.6432 0)
(205.859 29.8457 0)
(205.251 31.0836 0)
(204.626 32.358 0)
(203.986 33.6699 0)
(203.333 35.0207 0)
(202.668 36.4116 0)
(201.993 37.8445 0)
(201.31 39.3211 0)
(200.622 40.8435 0)
(199.93 42.4138 0)
(199.237 44.0344 0)
(198.545 45.7079 0)
(197.856 47.4375 0)
(197.176 49.2266 0)
(196.504 51.0783 0)
(195.853 52.9873 0)
(195.232 54.9664 0)
(194.606 57.0291 0)
(194.044 59.1513 0)
(193.512 61.3582 0)
(193.034 63.6477 0)
(192.614 66.0274 0)
(192.253 68.4967 0)
(191.988 71.0661 0)
(191.79 73.7295 0)
(191.742 76.5056 0)
(191.759 79.3798 0)
(192 82.3788 0)
(192.305 85.476 0)
(192.924 88.7022 0)
(193.617 92.0324 0)
(194.71 95.4881 0)
(195.911 99.048 0)
(197.587 102.703 0)
(199.443 106.443 0)
(201.817 110.237 0)
(204.482 114.099 0)
(207.692 117.968 0)
(211.277 121.883 0)
(215.514 125.713 0)
(220.148 129.506 0)
(225.453 133.088 0)
(231.275 136.63 0)
(237.799 139.91 0)
(244.968 142.743 0)
(253.085 145.476 0)
(261.688 147.665 0)
(270.974 149.23 0)
(280.829 150.315 0)
(291.323 150.535 0)
(299.418 149.933 0)
(305.868 148.581 0)
(312.085 148.015 0)
(326.692 146.866 0)
(329.477 157.443 0)
(210 2.24199e-06 0)
(209.997 0.000119381 0)
(209.945 0.00726934 0)
(209.612 0.0795181 0)
(208.855 0.28418 0)
(208.198 0.519431 0)
(207.898 0.600508 0)
(207.942 0.715337 0)
(208.398 0.681473 0)
(209.106 0.57052 0)
(209.741 0.510268 0)
(210.27 0.583553 0)
(210.79 0.720642 0)
(211.303 0.877221 0)
(211.658 1.07433 0)
(211.766 1.31728 0)
(211.765 1.56051 0)
(211.614 1.85736 0)
(211.45 2.17759 0)
(211.402 2.49101 0)
(211.423 2.79649 0)
(211.462 3.1036 0)
(211.531 3.4046 0)
(211.627 3.69818 0)
(211.763 3.97044 0)
(211.948 4.2138 0)
(212.173 4.43244 0)
(212.418 4.63709 0)
(212.67 4.83624 0)
(212.913 5.03548 0)
(213.143 5.23811 0)
(213.349 5.44981 0)
(213.526 5.67627 0)
(213.67 5.92266 0)
(213.787 6.19202 0)
(213.878 6.48572 0)
(213.95 6.80491 0)
(213.997 7.14967 0)
(214.02 7.52167 0)
(214.012 7.92088 0)
(213.978 8.34816 0)
(213.915 8.80072 0)
(213.827 9.27171 0)
(213.707 9.78588 0)
(213.562 10.3216 0)
(213.396 10.8836 0)
(213.207 11.4723 0)
(212.997 12.0876 0)
(212.765 12.7298 0)
(212.509 13.3992 0)
(212.23 14.0958 0)
(211.928 14.8195 0)
(211.603 15.5701 0)
(211.257 16.3476 0)
(210.889 17.1522 0)
(210.499 17.9843 0)
(210.086 18.8446 0)
(209.65 19.7334 0)
(209.191 20.6509 0)
(208.708 21.5976 0)
(208.203 22.5738 0)
(207.675 23.58 0)
(207.124 24.6167 0)
(206.552 25.6842 0)
(205.959 26.783 0)
(205.346 27.9139 0)
(204.714 29.0778 0)
(204.062 30.2761 0)
(203.391 31.5098 0)
(202.703 32.78 0)
(201.998 34.0878 0)
(201.279 35.4346 0)
(200.546 36.8222 0)
(199.801 38.2522 0)
(199.046 39.7267 0)
(198.282 41.2476 0)
(197.512 42.8176 0)
(196.737 44.4392 0)
(195.96 46.115 0)
(195.182 47.8482 0)
(194.408 49.6419 0)
(193.643 51.5001 0)
(192.885 53.4261 0)
(192.148 55.4172 0)
(191.441 57.4843 0)
(190.735 59.6388 0)
(190.085 61.8679 0)
(189.473 64.187 0)
(188.91 66.5984 0)
(188.421 69.1115 0)
(187.985 71.7203 0)
(187.674 74.4428 0)
(187.412 77.2645 0)
(187.342 80.2171 0)
(187.317 83.2703 0)
(187.567 86.4657 0)
(187.868 89.7675 0)
(188.526 93.2173 0)
(189.26 96.7814 0)
(190.428 100.482 0)
(191.734 104.298 0)
(193.527 108.231 0)
(195.577 112.279 0)
(198.151 116.405 0)
(201.102 120.609 0)
(204.655 124.813 0)
(208.654 129.066 0)
(213.398 133.185 0)
(218.573 137.239 0)
(224.478 141.1 0)
(231.003 144.75 0)
(238.019 147.799 0)
(246.123 150.91 0)
(254.682 153.408 0)
(263.281 155.477 0)
(274.373 157.647 0)
(283.945 158.236 0)
(294.255 156.725 0)
(302.014 155.402 0)
(316.839 155.067 0)
(319.336 166.882 0)
(210 -4.7762e-07 0)
(209.999 -1.70692e-05 0)
(209.977 0.00194064 0)
(209.767 0.0381821 0)
(209.104 0.195722 0)
(208.325 0.438011 0)