/*--------------------------------*- C++ -*----------------------------------*\
| =========                 |                                                 |
| \\      /  F ield         | OpenFOAM: The Open Source CFD Toolbox           |
|  \\    /   O peration     | Version:  2406                                  |
|   \\  /    A nd           | Website:  www.openfoam.com                      |
|    \\/     M anipulation  |                                                 |
\*---------------------------------------------------------------------------*/
FoamFile
{
    version     2.0;
    format      ascii;
    arch        "LSB;label=32;scalar=64";
    class       volVectorField;
    location    "0.058";
    object      U;
}
// * * * * * * * * * * * * * * * * * * * * * * * * * * * * * * * * * * * * * //

dimensions      [0 1 -1 0 0 0 0];

internalField   nonuniform List<vector> 
78650
(
(159.395 44.5518 0)
(196.74 -3.83371 0)
(203.692 -4.94424 0)
(205.355 -4.08649 0)
(206.655 -4.32837 0)
(207.662 -4.20983 0)
(208.649 -4.16815 0)
(209.635 -3.96876 0)
(210.657 -3.72365 0)
(211.636 -3.40709 0)
(212.524 -3.07222 0)
(213.263 -2.73337 0)
(213.821 -2.39064 0)
(214.213 -2.01674 0)
(214.485 -1.6069 0)
(214.728 -1.16749 0)
(214.935 -0.68618 0)
(215.154 -0.172068 0)
(215.357 0.367246 0)
(215.534 0.903576 0)
(215.686 1.43134 0)
(215.832 1.94255 0)
(215.991 2.44027 0)
(216.18 2.93307 0)
(216.407 3.4311 0)
(216.665 3.94322 0)
(216.937 4.47723 0)
(217.213 5.03714 0)
(217.484 5.62543 0)
(217.75 6.24315 0)
(218.005 6.8925 0)
(218.247 7.57526 0)
(218.472 8.29253 0)
(218.682 9.04547 0)
(218.875 9.83453 0)
(219.054 10.6595 0)
(219.216 11.5203 0)
(219.365 12.4166 0)
(219.501 13.3479 0)
(219.623 14.3144 0)
(219.733 15.3153 0)
(219.831 16.3507 0)
(219.918 17.4206 0)
(219.996 18.5244 0)
(220.067 19.6621 0)
(220.132 20.8337 0)
(220.194 22.039 0)
(220.253 23.2782 0)
(220.314 24.5513 0)
(220.377 25.8585 0)
(220.447 27.1996 0)
(220.527 28.5747 0)
(220.62 29.9842 0)
(220.73 31.4284 0)
(220.859 32.9073 0)
(221.012 34.4211 0)
(221.195 35.9705 0)
(221.413 37.5552 0)
(221.669 39.1742 0)
(221.97 40.8275 0)
(222.325 42.5159 0)
(222.736 44.2384 0)
(223.206 45.9945 0)
(223.753 47.7831 0)
(224.379 49.6011 0)
(225.084 51.4472 0)
(225.901 53.3192 0)
(226.813 55.2137 0)
(227.83 57.1288 0)
(228.989 59.0597 0)
(230.263 61.0029 0)
(231.672 62.9554 0)
(233.251 64.9072 0)
(234.97 66.8539 0)
(236.863 68.7854 0)
(238.945 70.6867 0)
(241.186 72.5553 0)
(243.639 74.3743 0)
(246.299 76.1353 0)
(249.165 77.8284 0)
(252.24 79.4509 0)
(255.553 80.9511 0)
(259.043 82.3642 0)
(262.769 83.5963 0)
(266.653 84.7293 0)
(270.757 85.714 0)
(274.956 86.5342 0)
(279.319 87.2137 0)
(283.907 87.714 0)
(288.429 88.0248 0)
(293.147 88.1614 0)
(297.725 88.1297 0)
(303.031 87.8101 0)
(308.516 87.2655 0)
(313.582 86.6287 0)
(317.781 86.0595 0)
(321.865 85.2777 0)
(326.173 84.4654 0)
(331.134 83.49 0)
(335.277 82.4773 0)
(338.642 81.4656 0)
(341.891 80.5391 0)
(345.51 79.5094 0)
(349.066 78.5345 0)
(353.097 77.0911 0)
(356.234 75.8962 0)
(359.74 74.4688 0)
(362.388 73.5873 0)
(365.434 72.3402 0)
(367.753 71.4747 0)
(370.336 70.2701 0)
(372.226 69.5364 0)
(374.243 68.4937 0)
(375.496 67.9111 0)
(376.539 67.1132 0)
(377.173 66.6746 0)
(378.12 65.944 0)
(379.6 65.6444 0)
(382.1 65.2357 0)
(385.519 64.9067 0)
(386.846 66.7843 0)
(160.222 44.9625 0)
(196.367 -2.66455 0)
(203.609 -4.6833 0)
(205.367 -3.94966 0)
(206.621 -4.21882 0)
(207.602 -4.12403 0)
(208.57 -4.06678 0)
(209.534 -3.85261 0)
(210.527 -3.59198 0)
(211.484 -3.2638 0)
(212.376 -2.92167 0)
(213.145 -2.58228 0)
(213.738 -2.24173 0)
(214.145 -1.87146 0)
(214.406 -1.47419 0)
(214.615 -1.04437 0)
(214.778 -0.58126 0)
(214.959 -0.0843859 0)
(215.135 0.440303 0)
(215.299 0.958824 0)
(215.435 1.46947 0)
(215.56 1.96531 0)
(215.688 2.45046 0)
(215.838 2.93329 0)
(216.02 3.42298 0)
(216.236 3.92736 0)
(216.472 4.45302 0)
(216.717 5.00402 0)
(216.961 5.58325 0)
(217.201 6.19156 0)
(217.431 6.8314 0)
(217.648 7.50406 0)
(217.849 8.2108 0)
(218.034 8.95281 0)
(218.201 9.73041 0)
(218.353 10.5434 0)
(218.489 11.3918 0)
(218.61 12.2749 0)
(218.716 13.1925 0)
(218.808 14.1447 0)
(218.887 15.1307 0)
(218.953 16.1507 0)
(219.006 17.2046 0)
(219.049 18.2917 0)
(219.082 19.4122 0)
(219.108 20.5661 0)
(219.128 21.7532 0)
(219.143 22.9737 0)
(219.157 24.2278 0)
(219.171 25.5157 0)
(219.189 26.8375 0)
(219.212 28.1932 0)
(219.245 29.5834 0)
(219.29 31.0086 0)
(219.351 32.4686 0)
(219.43 33.9641 0)
(219.534 35.4961 0)
(219.668 37.0644 0)
(219.832 38.6684 0)
(220.035 40.3083 0)
(220.285 41.9853 0)
(220.584 43.6984 0)
(220.933 45.448 0)
(221.352 47.2343 0)
(221.838 49.0543 0)
(222.395 50.9071 0)
(223.054 52.7917 0)
(223.796 54.705 0)
(224.637 56.6472 0)
(225.608 58.6152 0)
(226.684 60.6042 0)
(227.889 62.611 0)
(229.252 64.6278 0)
(230.743 66.6516 0)
(232.402 68.6746 0)
(234.244 70.6839 0)
(236.239 72.6738 0)
(238.444 74.6279 0)
(240.846 76.5364 0)
(243.435 78.3916 0)
(246.222 80.1874 0)
(249.226 81.8962 0)
(252.385 83.5462 0)
(255.781 85.0687 0)
(259.319 86.5234 0)
(263.105 87.8057 0)
(267.116 88.9685 0)
(271.35 89.8956 0)
(275.804 90.6879 0)
(280.367 91.2473 0)
(285.116 91.6431 0)
(290.049 91.8353 0)
(294.833 91.9299 0)
(299.277 91.9758 0)
(303.437 91.8752 0)
(307.716 91.6533 0)
(313.114 91.1075 0)
(318.079 90.3392 0)
(322.634 89.5007 0)
(326.427 88.8208 0)
(330.347 87.9591 0)
(334.492 87.0045 0)
(339.309 85.7039 0)
(343.54 84.3496 0)
(347.839 82.7918 0)
(351.113 81.6116 0)
(354.392 80.4095 0)
(357.028 79.6806 0)
(359.929 78.5464 0)
(362.145 77.7915 0)
(364.698 76.5969 0)
(366.815 75.9291 0)
(369.396 74.9438 0)
(371.343 74.3548 0)
(373.31 73.3403 0)
(374.417 72.5932 0)
(375.434 71.6293 0)
(376.688 71.0826 0)
(379.055 70.5211 0)
(382.649 70.2197 0)
(384.223 72.1447 0)
(160.214 44.9225 0)
(196.781 -1.58711 0)
(203.712 -4.4663 0)
(205.421 -3.85345 0)
(206.592 -4.1272 0)
(207.536 -4.04027 0)
(208.49 -3.96175 0)
(209.442 -3.72916 0)
(210.409 -3.45096 0)
(211.334 -3.11263 0)
(212.21 -2.76606 0)
(212.994 -2.42347 0)
(213.623 -2.08403 0)
(214.047 -1.7319 0)
(214.319 -1.34059 0)
(214.501 -0.923865 0)
(214.631 -0.478887 0)
(214.767 -0.00195777 0)
(214.9 0.504681 0)
(215.042 1.00473 0)
(215.165 1.50056 0)
(215.275 1.98482 0)
(215.382 2.4602 0)
(215.5 2.93355 0)
(215.641 3.41355 0)
(215.813 3.90827 0)
(216.01 4.42372 0)
(216.22 4.96417 0)
(216.434 5.53293 0)
(216.647 6.13078 0)
(216.851 6.76047 0)
(217.043 7.42281 0)
(217.219 8.11924 0)
(217.379 8.85087 0)
(217.521 9.61791 0)
(217.646 10.4202 0)
(217.754 11.2575 0)
(217.847 12.1292 0)
(217.924 13.0352 0)
(217.986 13.9752 0)
(218.033 14.9486 0)
(218.065 15.9558 0)
(218.083 16.9963 0)
(218.09 18.0699 0)
(218.085 19.1767 0)
(218.07 20.3165 0)
(218.047 21.4894 0)
(218.018 22.6955 0)
(217.984 23.935 0)
(217.948 25.208 0)
(217.911 26.5148 0)
(217.878 27.8555 0)
(217.85 29.2305 0)
(217.832 30.6404 0)
(217.825 32.0852 0)
(217.831 33.5655 0)
(217.859 35.0824 0)
(217.91 36.6361 0)
(217.987 38.2258 0)
(218.096 39.8522 0)
(218.247 41.5163 0)
(218.439 43.2172 0)
(218.675 44.9557 0)
(218.973 46.7323 0)
(219.328 48.5444 0)
(219.748 50.3915 0)
(220.259 52.2731 0)
(220.841 54.1862 0)
(221.514 56.1313 0)
(222.306 58.1059 0)
(223.188 60.1061 0)
(224.188 62.1311 0)
(225.33 64.1747 0)
(226.585 66.2322 0)
(228.001 68.2971 0)
(229.581 70.3608 0)
(231.3 72.4227 0)
(233.215 74.4734 0)
(235.313 76.5053 0)
(237.59 78.5099 0)
(240.074 80.474 0)
(242.772 82.3766 0)
(245.653 84.2252 0)
(248.793 85.9722 0)
(252.113 87.6504 0)
(255.683 89.1485 0)
(259.371 90.57 0)
(263.281 91.8123 0)
(267.324 92.9263 0)
(271.575 93.9164 0)
(275.884 94.7115 0)
(280.45 95.3368 0)
(284.934 95.7998 0)
(289.399 96.1285 0)
(294.456 96.2695 0)
(299.481 96.0713 0)
(304.887 95.7759 0)
(309.482 95.3279 0)
(313.591 94.8528 0)
(318.188 94.1581 0)
(323.266 93.2454 0)
(328.043 92.2698 0)
(332.829 91.1966 0)
(336.749 90.2203 0)
(340.06 89.4189 0)
(343.417 88.479 0)
(346.473 87.6219 0)
(349.573 86.7503 0)
(352.901 85.5274 0)
(355.584 84.6198 0)
(358.647 83.4154 0)
(361.045 82.7951 0)
(363.902 81.7737 0)
(365.938 81.0413 0)
(367.867 79.9047 0)
(369.202 79.1011 0)
(370.658 78.2174 0)
(372.384 77.8217 0)
(374.981 77.3945 0)
(378.74 76.9463 0)
(380.223 78.8712 0)
(160.234 43.958 0)
(197.357 -0.995291 0)
(203.798 -4.20615 0)
(205.451 -3.71686 0)
(206.534 -4.01463 0)
(207.446 -3.93868 0)
(208.4 -3.84395 0)
(209.348 -3.59124 0)
(210.294 -3.29681 0)
(211.19 -2.95205 0)
(212.037 -2.60317 0)
(212.807 -2.25914 0)
(213.457 -1.92266 0)
(213.93 -1.57846 0)
(214.214 -1.20913 0)
(214.385 -0.804862 0)
(214.487 -0.383949 0)
(214.575 0.0633055 0)
(214.654 0.550101 0)
(214.761 1.03491 0)
(214.869 1.51332 0)
(214.967 1.98518 0)
(215.06 2.45101 0)
(215.156 2.91679 0)
(215.264 3.38929 0)
(215.393 3.87498 0)
(215.546 4.38074 0)
(215.718 4.91137 0)
(215.9 5.47038 0)
(216.082 6.05848 0)
(216.258 6.67834 0)
(216.424 7.3303 0)
(216.575 8.01611 0)
(216.71 8.73665 0)
(216.826 9.49196 0)
(216.926 10.2819 0)
(217.007 11.1061 0)
(217.073 11.9641 0)
(217.121 12.8556 0)
(217.153 13.7804 0)
(217.17 14.7381 0)
(217.17 15.7286 0)
(217.156 16.7519 0)
(217.128 17.8078 0)
(217.087 18.8961 0)
(217.035 20.0168 0)
(216.973 21.1701 0)
(216.902 22.3559 0)
(216.824 23.5745 0)
(216.741 24.8264 0)
(216.655 26.1115 0)
(216.569 27.4302 0)
(216.485 28.783 0)
(216.406 30.1707 0)
(216.335 31.5933 0)
(216.273 33.0512 0)
(216.227 34.5462 0)
(216.199 36.0784 0)
(216.191 37.6473 0)
(216.209 39.254 0)
(216.263 40.8997 0)
(216.35 42.5836 0)
(216.474 44.3068 0)
(216.652 46.071 0)
(216.876 47.8738 0)
(217.157 49.7157 0)
(217.519 51.5968 0)
(217.94 53.514 0)
(218.445 55.4693 0)
(219.057 57.4617 0)
(219.746 59.4868 0)
(220.548 61.5443 0)
(221.481 63.6289 0)
(222.517 65.7371 0)
(223.707 67.8676 0)
(225.047 70.0144 0)
(226.516 72.1729 0)
(228.176 74.3297 0)
(230.006 76.4721 0)
(232.007 78.5899 0)
(234.21 80.6718 0)
(236.61 82.7059 0)
(239.183 84.6969 0)
(241.983 86.6182 0)
(244.951 88.4843 0)
(248.163 90.237 0)
(251.521 91.9442 0)
(255.163 93.4813 0)
(258.964 94.9673 0)
(263.037 96.254 0)
(267.359 97.4321 0)
(271.734 98.3088 0)
(276.461 99.0809 0)
(281.167 99.575 0)
(286.228 100.036 0)
(290.918 100.291 0)
(295.27 100.47 0)
(299.924 100.436 0)
(304.939 100.128 0)
(310.011 99.6999 0)
(315.315 99.1275 0)
(319.634 98.6064 0)
(323.737 97.9656 0)
(327.653 97.1736 0)
(331.464 96.4046 0)
(335.937 95.4049 0)
(340.052 94.4108 0)
(344.076 93.2912 0)
(347.759 92.076 0)
(350.734 91.1444 0)
(353.882 90.0785 0)
(356.477 89.4729 0)
(359.343 88.5419 0)
(361.586 87.8836 0)
(363.77 86.7754 0)
(365.119 85.9533 0)
(366.304 84.8768 0)
(367.557 84.3463 0)
(369.994 83.7956 0)
(374.281 83.1917 0)
(375.899 85.6411 0)
(160.113 42.7053 0)
(197.773 -0.694827 0)
(204.022 -4.04218 0)
(205.546 -3.64971 0)
(206.529 -3.93563 0)
(207.399 -3.8382 0)
(208.338 -3.71161 0)
(209.27 -3.43463 0)
(210.198 -3.12744 0)
(211.063 -2.78153 0)
(211.864 -2.43318 0)
(212.595 -2.08826 0)
(213.241 -1.75669 0)
(213.75 -1.42913 0)
(214.076 -1.07709 0)
(214.247 -0.691699 0)
(214.338 -0.304451 0)
(214.389 0.1201 0)
(214.408 0.584046 0)
(214.465 1.04995 0)
(214.547 1.51583 0)
(214.632 1.97781 0)
(214.714 2.43539 0)
(214.795 2.89307 0)
(214.88 3.35779 0)
(214.972 3.83573 0)
(215.083 4.33181 0)
(215.212 4.85168 0)
(215.356 5.39938 0)
(215.505 5.97656 0)
(215.652 6.58527 0)
(215.79 7.22582 0)
(215.915 7.90015 0)
(216.023 8.60903 0)
(216.114 9.35252 0)
(216.187 10.1304 0)
(216.241 10.9423 0)
(216.278 11.7876 0)
(216.297 12.6657 0)
(216.3 13.5768 0)
(216.285 14.5205 0)
(216.253 15.4961 0)
(216.205 16.5042 0)
(216.141 17.5445 0)
(216.063 18.6169 0)
(215.971 19.7213 0)
(215.867 20.8578 0)
(215.753 22.0267 0)
(215.629 23.2281 0)
(215.498 24.4623 0)
(215.361 25.7296 0)
(215.221 27.0302 0)
(215.079 28.3642 0)
(214.94 29.7328 0)
(214.804 31.1368 0)
(214.674 32.5753 0)
(214.556 34.051 0)
(214.451 35.5639 0)
(214.36 37.1135 0)
(214.291 38.701 0)
(214.251 40.3279 0)
(214.239 41.993 0)
(214.258 43.6978 0)
(214.323 45.4443 0)
(214.425 47.2301 0)
(214.579 49.0562 0)
(214.803 50.9233 0)
(215.076 52.8277 0)
(215.426 54.7726 0)
(215.87 56.7568 0)
(216.378 58.7758 0)
(216.992 60.8319 0)
(217.72 62.9223 0)
(218.536 65.0449 0)
(219.495 67.1982 0)
(220.582 69.3734 0)
(221.785 71.5655 0)
(223.169 73.7681 0)
(224.704 75.9757 0)
(226.399 78.1849 0)
(228.292 80.3895 0)
(230.374 82.5811 0)
(232.64 84.7574 0)
(235.147 86.8913 0)
(237.845 88.9778 0)
(240.78 90.982 0)
(243.904 92.9337 0)
(247.306 94.7286 0)
(250.792 96.4836 0)
(254.532 98.0234 0)
(258.366 99.4993 0)
(262.479 100.775 0)
(266.779 101.912 0)
(271.218 102.875 0)
(275.676 103.706 0)
(280.195 104.391 0)
(284.976 104.862 0)
(289.87 105.15 0)
(295.16 105.296 0)
(299.873 105.271 0)
(304.493 104.981 0)
(308.627 104.655 0)
(312.946 104.271 0)
(317.81 103.741 0)
(322.613 103.066 0)
(327.784 102.162 0)
(331.91 101.27 0)
(335.736 100.367 0)
(339.543 99.3328 0)
(342.806 98.5985 0)
(346.834 97.4917 0)
(349.833 96.6583 0)
(353.409 95.3603 0)
(356.019 94.4622 0)
(358.671 93.285 0)
(360.373 92.5183 0)
(361.894 91.5169 0)
(363.487 91.1742 0)
(366.361 90.7144 0)
(370.983 90.3141 0)
(372.53 93.4021 0)
(159.888 41.1826 0)
(198.064 -0.759255 0)
(204.248 -3.97291 0)
(205.609 -3.60581 0)
(206.513 -3.84088 0)
(207.333 -3.70341 0)
(208.255 -3.54822 0)
(209.185 -3.25833 0)
(210.109 -2.94686 0)
(210.947 -2.60461 0)
(211.695 -2.25791 0)
(212.366 -1.91641 0)
(212.978 -1.59434 0)
(213.504 -1.28439 0)
(213.874 -0.956865 0)
(214.068 -0.597328 0)
(214.162 -0.234551 0)
(214.202 0.156855 0)
(214.17 0.597102 0)
(214.164 1.04508 0)
(214.204 1.49594 0)
(214.268 1.94745 0)
(214.34 2.39729 0)
(214.41 2.84853 0)
(214.477 3.30685 0)
(214.545 3.77664 0)
(214.619 4.26508 0)
(214.705 4.77629 0)
(214.809 5.31304 0)
(214.92 5.8797 0)
(215.034 6.47736 0)
(215.142 7.10698 0)
(215.238 7.77001 0)
(215.319 8.46695 0)
(215.384 9.19782 0)
(215.429 9.96231 0)
(215.457 10.76 0)
(215.466 11.5906 0)
(215.458 12.4528 0)
(215.43 13.3477 0)
(215.385 14.2737 0)
(215.323 15.2306 0)
(215.242 16.2204 0)
(215.145 17.2414 0)
(215.031 18.2935 0)
(214.903 19.377 0)
(214.761 20.4918 0)
(214.607 21.6383 0)
(214.441 22.8165 0)
(214.265 24.027 0)
(214.081 25.27 0)
(213.89 26.5457 0)
(213.696 27.8546 0)
(213.501 29.1974 0)
(213.303 30.5771 0)
(213.11 31.9888 0)
(212.923 33.4373 0)
(212.744 34.9237 0)
(212.575 36.4475 0)
(212.422 38.0094 0)
(212.292 39.6116 0)
(212.181 41.2529 0)
(212.097 42.9347 0)
(212.051 44.6598 0)
(212.033 46.4259 0)
(212.059 48.2353 0)
(212.145 50.0889 0)
(212.268 51.983 0)
(212.462 53.9224 0)
(212.736 55.9061 0)
(213.064 57.9302 0)
(213.49 59.9989 0)
(214.015 62.1086 0)
(214.617 64.2555 0)
(215.357 66.4396 0)
(216.208 68.6541 0)
(217.17 70.8981 0)
(218.301 73.1694 0)
(219.569 75.4592 0)
(220.99 77.7601 0)
(222.602 80.0622 0)
(224.384 82.3556 0)
(226.336 84.6364 0)
(228.504 86.8888 0)
(230.84 89.1123 0)
(233.385 91.2884 0)
(236.123 93.4183 0)
(239.115 95.4512 0)
(242.246 97.4573 0)
(245.709 99.3051 0)
(249.28 101.139 0)
(253.162 102.748 0)
(257.192 104.292 0)
(261.431 105.62 0)
(265.868 106.818 0)
(270.487 107.812 0)
(275.365 108.685 0)
(280.126 109.374 0)
(284.974 109.902 0)
(289.398 110.238 0)
(294.186 110.385 0)
(299.422 110.288 0)
(304.683 109.983 0)
(310.26 109.547 0)
(314.841 109.046 0)
(319 108.516 0)
(323.03 107.815 0)
(326.732 107.317 0)
(331.046 106.589 0)
(334.745 106.079 0)
(338.713 105.202 0)
(342.071 104.495 0)
(345.908 103.397 0)
(348.968 102.675 0)
(352.283 101.622 0)
(354.456 100.757 0)
(356.435 99.4977 0)
(358.273 98.6726 0)
(361.09 98.0378 0)
(365.577 97.543 0)
(367.233 99.9035 0)
(159.778 39.3754 0)
(198.348 -0.77962 0)
(204.381 -3.92186 0)
(205.59 -3.56994 0)
(206.458 -3.746 0)
(207.261 -3.56737 0)
(208.189 -3.38012 0)
(209.127 -3.07784 0)
(210.038 -2.76264 0)
(210.839 -2.4237 0)
(211.525 -2.0808 0)
(212.125 -1.74923 0)
(212.68 -1.44241 0)
(213.191 -1.15538 0)
(213.595 -0.859563 0)
(213.831 -0.530519 0)
(213.942 -0.183492 0)
(213.998 0.174078 0)
(213.938 0.589544 0)
(213.869 1.02104 0)
(213.851 1.45931 0)
(213.879 1.90175 0)
(213.934 2.3451 0)
(213.995 2.79075 0)
(214.05 3.24329 0)
(214.098 3.70774 0)
(214.145 4.18861 0)
(214.198 4.68988 0)
(214.259 5.21856 0)
(214.33 5.77345 0)
(214.407 6.35826 0)
(214.481 6.9752 0)
(214.547 7.62509 0)
(214.6 8.30868 0)
(214.636 9.0262 0)
(214.654 9.77726 0)
(214.654 10.561 0)
(214.634 11.3769 0)
(214.597 12.2228 0)
(214.54 13.1022 0)
(214.463 14.0125 0)
(214.367 14.9538 0)
(214.254 15.9256 0)
(214.122 16.9283 0)
(213.972 17.9619 0)
(213.806 19.0265 0)
(213.624 20.122 0)
(213.427 21.2486 0)
(213.217 22.4066 0)
(212.995 23.5962 0)
(212.762 24.818 0)
(212.52 26.0722 0)
(212.271 27.3596 0)
(212.017 28.6805 0)
(211.76 30.0347 0)
(211.503 31.4239 0)
(211.248 32.8488 0)
(210.995 34.3119 0)
(210.749 35.8125 0)
(210.515 37.3483 0)
(210.297 38.9246 0)
(210.092 40.5412 0)
(209.911 42.1974 0)
(209.759 43.8976 0)
(209.629 45.6385 0)
(209.538 47.4232 0)
(209.495 49.2524 0)
(209.481 51.1222 0)
(209.534 53.0391 0)
(209.652 55.001 0)
(209.814 57.0044 0)
(210.066 59.055 0)
(210.4 61.1489 0)
(210.802 63.2845 0)
(211.329 65.4657 0)
(211.946 67.6857 0)
(212.663 69.9439 0)
(213.536 72.2385 0)
(214.523 74.5608 0)
(215.652 76.9098 0)
(216.955 79.2832 0)
(218.404 81.6751 0)
(220.022 84.0817 0)
(221.855 86.488 0)
(223.859 88.8876 0)
(226.085 91.2635 0)
(228.529 93.6003 0)
(231.209 95.8651 0)
(234.062 98.0913 0)
(237.205 100.205 0)
(240.443 102.302 0)
(244.002 104.193 0)
(247.643 106.051 0)
(251.6 107.694 0)
(255.733 109.272 0)
(260.038 110.619 0)
(264.492 111.872 0)
(268.867 112.888 0)
(273.653 113.837 0)
(278.525 114.456 0)
(283.56 114.951 0)
(288.842 115.342 0)
(293.502 115.564 0)
(298.121 115.676 0)
(302.732 115.528 0)
(307.106 115.272 0)
(312.311 114.829 0)
(317.075 114.356 0)
(322.188 113.653 0)
(326.164 112.989 0)
(330.168 112.096 0)
(333.684 111.394 0)
(337.286 110.577 0)
(340.47 110.049 0)
(343.773 109.238 0)
(346.135 108.562 0)
(348.27 107.366 0)
(350.172 106.386 0)
(353.182 105.718 0)
(358.883 105.036 0)
(360.789 108.454 0)
(159.86 37.3372 0)
(198.687 -0.909352 0)
(204.415 -3.94976 0)
(205.476 -3.59183 0)
(206.345 -3.68266 0)
(207.157 -3.44858 0)
(208.108 -3.21712 0)
(209.055 -2.89514 0)
(209.951 -2.57374 0)
(210.717 -2.2386 0)
(211.347 -1.90609 0)
(211.878 -1.59112 0)
(212.361 -1.30446 0)
(212.83 -1.04325 0)
(213.247 -0.784503 0)
(213.527 -0.492624 0)
(213.665 -0.161737 0)
(213.753 0.166899 0)
(213.701 0.557569 0)
(213.587 0.97472 0)
(213.502 1.40264 0)
(213.476 1.83564 0)
(213.502 2.27059 0)
(213.55 2.70975 0)
(213.597 3.15687 0)
(213.633 3.61589 0)
(213.659 4.09098 0)
(213.683 4.58657 0)
(213.709 5.10532 0)
(213.742 5.64995 0)
(213.778 6.22522 0)
(213.814 6.82979 0)
(213.847 7.46626 0)
(213.868 8.13611 0)
(213.875 8.8394 0)
(213.864 9.57493 0)
(213.837 10.3415 0)
(213.788 11.1412 0)
(213.721 11.9718 0)
(213.634 12.8325 0)
(213.528 13.7235 0)
(213.402 14.6444 0)
(213.256 15.5955 0)
(213.091 16.5767 0)
(212.908 17.5879 0)
(212.706 18.6294 0)
(212.486 19.701 0)
(212.251 20.8028 0)
(212 21.9352 0)
(211.736 23.0985 0)
(211.458 24.2931 0)
(211.168 25.5195 0)
(210.869 26.7782 0)
(210.562 28.0698 0)
(210.249 29.395 0)
(209.932 30.7546 0)
(209.612 32.1498 0)
(209.292 33.5809 0)
(208.975 35.0485 0)
(208.665 36.5538 0)
(208.362 38.0992 0)
(208.065 39.6879 0)
(207.79 41.3116 0)
(207.535 42.9808 0)
(207.295 44.6927 0)
(207.088 46.4498 0)
(206.917 48.2538 0)
(206.767 50.1001 0)
(206.678 51.9973 0)
(206.637 53.9416 0)
(206.631 55.9309 0)
(206.71 57.9732 0)
(206.852 60.063 0)
(207.056 62.2005 0)
(207.373 64.3896 0)
(207.761 66.6214 0)
(208.247 68.8986 0)
(208.874 71.2221 0)
(209.595 73.5837 0)
(210.451 75.983 0)
(211.465 78.4125 0)
(212.612 80.8593 0)
(213.926 83.3193 0)
(215.438 85.7842 0)
(217.098 88.2526 0)
(218.96 90.7164 0)
(221.02 93.165 0)
(223.284 95.5862 0)
(225.733 97.9964 0)
(228.447 100.358 0)
(231.297 102.706 0)
(234.491 104.917 0)
(237.781 107.111 0)
(241.425 109.093 0)
(245.137 111.069 0)
(249.15 112.851 0)
(253.325 114.572 0)
(257.727 116.021 0)
(262.395 117.395 0)
(267.22 118.548 0)
(271.719 119.466 0)
(276.596 120.27 0)
(281.213 120.813 0)
(285.751 121.268 0)
(291.326 121.662 0)
(296.136 121.736 0)
(301.857 121.63 0)
(306.381 121.496 0)
(311.168 121.157 0)
(315.58 120.725 0)
(320.196 120.079 0)
(324.607 119.405 0)
(329.268 118.597 0)
(333.129 117.831 0)
(337.433 116.71 0)
(340.302 115.651 0)
(342.814 114.248 0)
(344.93 113.245 0)
(348.17 112.626 0)
(353.892 112.493 0)
(355.687 116.598 0)
(160.176 35.1333 0)
(199.145 -1.07527 0)
(204.432 -3.96433 0)
(205.328 -3.6157 0)
(206.204 -3.62247 0)
(207.047 -3.32941 0)
(208.032 -3.04575 0)
(208.988 -2.70112 0)
(209.866 -2.37647 0)
(210.588 -2.05034 0)
(211.161 -1.74014 0)
(211.617 -1.45447 0)
(212.019 -1.19908 0)
(212.426 -0.970413 0)
(212.831 -0.748867 0)
(213.151 -0.494048 0)
(213.328 -0.183423 0)
(213.448 0.128663 0)
(213.437 0.501281 0)
(213.314 0.907008 0)
(213.17 1.32653 0)
(213.075 1.75132 0)
(213.053 2.1791 0)
(213.076 2.61282 0)
(213.11 3.05574 0)
(213.138 3.51035 0)
(213.153 3.97994 0)
(213.157 4.46846 0)
(213.154 4.97931 0)
(213.15 5.51521 0)
(213.149 6.0777 0)
(213.148 6.66915 0)
(213.144 7.29166 0)
(213.131 7.94624 0)
(213.106 8.63334 0)
(213.065 9.35285 0)
(213.006 10.1046 0)
(212.929 10.8871 0)
(212.832 11.6997 0)
(212.715 12.5422 0)
(212.578 13.4144 0)
(212.42 14.3162 0)
(212.241 15.2475 0)
(212.042 16.2082 0)
(211.822 17.1983 0)
(211.583 18.2179 0)
(211.326 19.267 0)
(211.05 20.3459 0)
(210.757 21.4547 0)
(210.448 22.5938 0)
(210.123 23.7637 0)
(209.785 24.9649 0)
(209.434 26.1978 0)
(209.073 27.463 0)
(208.702 28.761 0)
(208.324 30.0928 0)
(207.94 31.4592 0)
(207.552 32.8614 0)
(207.163 34.3004 0)
(206.775 35.7771 0)
(206.39 37.2923 0)
(206.013 38.8448 0)
(205.647 40.4382 0)
(205.291 42.0763 0)
(204.947 43.7571 0)
(204.633 45.4786 0)
(204.341 47.2481 0)
(204.069 49.0598 0)
(203.85 50.9237 0)
(203.664 52.8342 0)
(203.51 54.7896 0)
(203.43 56.8001 0)
(203.396 58.8577 0)
(203.419 60.9653 0)
(203.541 63.1282 0)
(203.713 65.3375 0)
(203.977 67.6002 0)
(204.362 69.9159 0)
(204.821 72.2739 0)
(205.408 74.6774 0)
(206.136 77.1226 0)
(206.977 79.6052 0)
(207.978 82.1315 0)
(209.154 84.6976 0)
(210.464 87.297 0)
(211.973 89.9186 0)
(213.674 92.5472 0)
(215.572 95.1715 0)
(217.676 97.79 0)
(220.023 100.371 0)
(222.529 102.923 0)
(225.336 105.38 0)
(228.269 107.819 0)
(231.562 110.104 0)
(234.917 112.391 0)
(238.631 114.468 0)
(242.445 116.524 0)
(246.531 118.355 0)
(250.762 120.078 0)
(255.153 121.627 0)
(259.717 123.013 0)
(264.386 124.195 0)
(269.649 125.398 0)
(274.358 126.107 0)
(279.919 126.9 0)
(284.556 127.354 0)
(289.537 127.587 0)
(294.086 127.728 0)
(298.511 127.797 0)
(303.372 127.7 0)
(307.718 127.6 0)
(312.627 127.274 0)
(316.81 126.979 0)
(321.033 126.619 0)
(325.3 125.977 0)
(328.673 125.341 0)
(331.767 124.424 0)
(334.371 123.866 0)
(337.769 123.332 0)
(343.247 122.861 0)
(344.9 126.186 0)
(160.703 32.8003 0)
(199.686 -1.29101 0)
(204.534 -3.875 0)
(205.259 -3.5728 0)
(206.103 -3.52443 0)
(206.952 -3.1736 0)
(207.953 -2.83995 0)
(208.914 -2.48227 0)
(209.77 -2.16857 0)
(210.441 -1.87418 0)
(210.947 -1.60243 0)
(211.326 -1.35969 0)
(211.649 -1.14339 0)
(211.991 -0.948464 0)
(212.364 -0.75726 0)
(212.708 -0.534241 0)
(212.937 -0.252238 0)
(213.075 0.06267 0)
(213.123 0.414657 0)
(213.032 0.804086 0)
(212.86 1.21491 0)
(212.7 1.63503 0)
(212.611 2.05976 0)
(212.589 2.49102 0)
(212.599 2.9326 0)
(212.616 3.38592 0)
(212.623 3.8528 0)
(212.614 4.33662 0)
(212.591 4.84057 0)
(212.558 5.36722 0)
(212.522 5.91896 0)
(212.483 6.498 0)
(212.442 7.10634 0)
(212.393 7.74539 0)
(212.334 8.41585 0)
(212.26 9.11765 0)
(212.171 9.85025 0)
(212.063 10.6133 0)
(211.936 11.4062 0)
(211.789 12.2283 0)
(211.621 13.0794 0)
(211.432 13.9592 0)
(211.221 14.8675 0)
(210.99 15.8044 0)
(210.737 16.7699 0)
(210.464 17.7639 0)
(210.17 18.7867 0)
(209.857 19.8383 0)
(209.525 20.919 0)
(209.176 22.0291 0)
(208.809 23.169 0)
(208.426 24.3394 0)
(208.028 25.5406 0)
(207.617 26.7733 0)
(207.194 28.0382 0)
(206.76 29.336 0)
(206.317 30.6678 0)
(205.867 32.0345 0)
(205.411 33.4369 0)
(204.952 34.8763 0)
(204.491 36.3538 0)
(204.032 37.8708 0)
(203.577 39.4285 0)
(203.129 41.027 0)
(202.692 42.6668 0)
(202.273 44.3516 0)
(201.859 46.0879 0)
(201.467 47.8635 0)
(201.117 49.6905 0)
(200.783 51.5688 0)
(200.483 53.4926 0)
(200.241 55.4765 0)
(200.031 57.5086 0)
(199.875 59.5954 0)
(199.8 61.7413 0)
(199.759 63.9355 0)
(199.809 66.189 0)
(199.96 68.4991 0)
(200.171 70.8569 0)
(200.506 73.2724 0)
(200.956 75.7407 0)
(201.502 78.2562 0)
(202.2 80.8228 0)
(203.047 83.4292 0)
(204.012 86.065 0)
(205.167 88.7284 0)
(206.491 91.4126 0)
(207.99 94.1132 0)
(209.693 96.8248 0)
(211.612 99.5275 0)
(213.7 102.226 0)
(216.066 104.892 0)
(218.586 107.553 0)
(221.436 110.134 0)
(224.389 112.722 0)
(227.728 115.154 0)
(231.124 117.574 0)
(234.869 119.782 0)
(238.734 121.961 0)
(242.909 123.95 0)
(247.295 125.915 0)
(251.836 127.534 0)
(256.56 129.12 0)
(261.262 130.404 0)
(265.924 131.547 0)
(271.03 132.568 0)
(275.861 133.256 0)
(281.527 133.913 0)
(286.61 134.254 0)
(292.292 134.534 0)
(296.884 134.606 0)
(302.285 134.458 0)
(306.626 134.289 0)
(311.45 133.871 0)
(315.58 133.446 0)
(319.115 132.85 0)
(322.096 132.015 0)
(324.426 131.338 0)
(327.827 131.15 0)
(334.435 131.201 0)
(336 136.193 0)
(161.483 30.4062 0)
(200.292 -1.47165 0)
(204.724 -3.69945 0)
(205.298 -3.4311 0)
(206.099 -3.35302 0)
(206.929 -2.97722 0)
(207.918 -2.62331 0)
(208.856 -2.26894 0)
(209.658 -1.97821 0)
(210.26 -1.74254 0)
(210.68 -1.52449 0)
(210.984 -1.33309 0)
(211.244 -1.15709 0)
(211.533 -0.992755 0)
(211.87 -0.821647 0)
(212.217 -0.618333 0)
(212.486 -0.352845 0)
(212.643 -0.0317619 0)
(212.735 0.308731 0)
(212.704 0.684445 0)
(212.55 1.08608 0)
(212.352 1.50106 0)
(212.197 1.91947 0)
(212.113 2.34255 0)
(212.083 2.77804 0)
(212.077 3.22899 0)
(212.073 3.69548 0)
(212.056 4.17836 0)
(212.019 4.67929 0)
(211.965 5.19998 0)
(211.899 5.74244 0)
(211.827 6.30915 0)
(211.749 6.90275 0)
(211.664 7.52535 0)
(211.569 8.17822 0)
(211.461 8.86178 0)
(211.337 9.57577 0)
(211.197 10.3195 0)
(211.038 11.0924 0)
(210.859 11.8937 0)
(210.659 12.7232 0)
(210.439 13.5807 0)
(210.196 14.4661 0)
(209.931 15.3793 0)
(209.644 16.3204 0)
(209.335 17.2895 0)
(209.005 18.2867 0)
(208.653 19.312 0)
(208.281 20.3657 0)
(207.89 21.4482 0)
(207.479 22.5598 0)
(207.05 23.7011 0)
(206.604 24.8726 0)
(206.141 26.0749 0)
(205.664 27.3085 0)
(205.174 28.5744 0)
(204.671 29.8733 0)
(204.158 31.2063 0)
(203.635 32.5743 0)
(203.105 33.9785 0)
(202.57 35.4197 0)
(202.032 36.8989 0)
(201.494 38.4175 0)
(200.957 39.9768 0)
(200.426 41.5787 0)
(199.902 43.2247 0)
(199.388 44.9131 0)
(198.89 46.6457 0)
(198.421 48.427 0)
(197.945 50.2696 0)
(197.518 52.1431 0)
(197.129 54.0789 0)
(196.76 56.0644 0)
(196.444 58.1062 0)
(196.189 60.2075 0)
(195.956 62.3572 0)
(195.811 64.5726 0)
(195.739 66.8472 0)
(195.713 69.1752 0)
(195.801 71.5693 0)
(195.977 74.0196 0)
(196.237 76.523 0)
(196.639 79.0869 0)
(197.163 81.7005 0)
(197.796 84.3603 0)
(198.609 87.0733 0)
(199.567 89.8316 0)
(200.688 92.6286 0)
(202.007 95.4536 0)
(203.517 98.2921 0)
(205.197 101.15 0)
(207.126 104.018 0)
(209.222 106.892 0)
(211.611 109.718 0)
(214.131 112.527 0)
(217.01 115.23 0)
(219.961 117.938 0)
(223.318 120.503 0)
(226.749 123.077 0)
(230.53 125.432 0)
(234.407 127.733 0)
(238.527 129.839 0)
(242.796 131.817 0)
(247.328 133.675 0)
(251.88 135.169 0)
(256.904 136.722 0)
(261.626 137.962 0)
(267.073 139.204 0)
(271.771 140.076 0)
(276.909 140.85 0)
(281.707 141.442 0)
(286.579 141.858 0)
(291.858 142.13 0)
(297.123 142.294 0)
(302.64 142.285 0)
(307.227 141.99 0)
(311.881 141.204 0)
(315.245 140.317 0)
(319.13 139.564 0)
(325.408 139.493 0)
(326.912 143.65 0)
(162.497 28.049 0)
(201.009 -1.45608 0)
(204.959 -3.46541 0)
(205.429 -3.21434 0)
(206.217 -3.08884 0)
(207.014 -2.73653 0)
(207.909 -2.38673 0)
(208.764 -2.06898 0)
(209.488 -1.84966 0)
(210.004 -1.68783 0)
(210.34 -1.53933 0)
(210.585 -1.3973 0)
(210.804 -1.2528 0)
(211.06 -1.1044 0)
(211.368 -0.941041 0)
(211.704 -0.745953 0)
(211.994 -0.490746 0)
(212.174 -0.17146 0)
(212.284 0.170845 0)
(212.306 0.54916 0)
(212.196 0.952958 0)
(211.996 1.37296 0)
(211.794 1.79505 0)
(211.646 2.21567 0)
(211.56 2.64424 0)
(211.518 3.08608 0)
(211.495 3.54351 0)
(211.469 4.01791 0)
(211.426 4.51062 0)
(211.36 5.02297 0)
(211.273 5.55605 0)
(211.172 6.11139 0)
(211.062 6.69108 0)
(210.942 7.29727 0)
(210.812 7.93166 0)
(210.668 8.59516 0)
(210.511 9.28797 0)
(210.337 10.0098 0)
(210.145 10.7601 0)
(209.934 11.5383 0)
(209.703 12.3441 0)
(209.451 13.1771 0)
(209.176 14.0372 0)
(208.879 14.9243 0)
(208.559 15.8385 0)
(208.217 16.7796 0)
(207.852 17.7479 0)
(207.465 18.7435 0)
(207.056 19.7665 0)
(206.626 20.8173 0)
(206.175 21.8962 0)
(205.704 23.0039 0)
(205.214 24.1407 0)
(204.706 25.3074 0)
(204.18 26.5044 0)
(203.639 27.7326 0)
(203.082 28.9928 0)
(202.512 30.2861 0)
(201.929 31.6133 0)
(201.335 32.9756 0)
(200.731 34.3741 0)
(200.12 35.81 0)
(199.504 37.2843 0)
(198.884 38.7985 0)
(198.264 40.3539 0)
(197.645 41.9524 0)
(197.03 43.5954 0)
(196.424 45.2847 0)
(195.827 47.0226 0)
(195.244 48.8049 0)
(194.684 50.6398 0)
(194.145 52.5306 0)
(193.614 54.4766 0)
(193.141 56.4735 0)
(192.701 58.5333 0)
(192.282 60.643 0)
(191.943 62.8252 0)
(191.652 65.0655 0)
(191.401 67.3615 0)
(191.255 69.7287 0)
(191.172 72.1526 0)
(191.166 74.6375 0)
(191.291 77.1922 0)
(191.507 79.8039 0)
(191.823 82.4749 0)
(192.303 85.2134 0)
(192.896 88.006 0)
(193.639 90.8492 0)
(194.564 93.7358 0)
(195.652 96.6591 0)
(196.909 99.6287 0)
(198.393 102.635 0)
(200.048 105.655 0)
(201.971 108.656 0)
(204.063 111.658 0)
(206.48 114.624 0)
(209.001 117.614 0)
(211.906 120.517 0)
(214.897 123.415 0)
(218.288 126.144 0)
(221.779 128.859 0)
(225.603 131.41 0)
(229.596 133.911 0)
(233.884 136.199 0)
(238.422 138.393 0)
(243.019 140.327 0)
(247.741 142.208 0)
(252.548 143.784 0)
(257.441 145.074 0)
(262.395 146.174 0)
(267.617 147.241 0)
(272.395 148.114 0)
(277.86 148.855 0)
(282.422 149.454 0)
(287.987 149.845 0)
(292.385 150.121 0)
(296.467 149.967 0)
(299.621 149.629 0)
(302.972 149.368 0)
(309.679 149.03 0)
(310.64 154.022 0)
(163.576 25.7604 0)
(201.682 -1.3226 0)
(205.27 -3.17765 0)
(205.738 -2.91193 0)
(206.51 -2.76397 0)
(207.253 -2.42337 0)