/*--------------------------------*- C++ -*----------------------------------*\
| =========                 |                                                 |
| \\      /  F ield         | OpenFOAM: The Open Source CFD Toolbox           |
|  \\    /   O peration     | Version:  2412                                  |
|   \\  /    A nd           | Website:  www.openfoam.com                      |
|    \\/     M anipulation  |                                                 |
\*---------------------------------------------------------------------------*/
FoamFile
{
    version     2.0;
    format      ascii;
    arch        "LSB;label=32;scalar=64";
    class       volScalarField;
    location    "0.041";
    object      p;
}
// * * * * * * * * * * * * * * * * * * * * * * * * * * * * * * * * * * * * * //

dimensions      [1 -1 -2 0 0 0 0];

internalField   nonuniform List<scalar> 
9831
(
1808.38
2491.17
1802.45
2489.14
2581.52
2605.18
2625.76
2640.96
2653.12
2663.4
2672.58
2681.42
2690.28
2699.08
2707.46
2715.27
2722.61
2729.66
2736.49
2743.18
2749.84
2756.5
2763.18
2769.83
2776.49
2783.22
2790.06
2797.02
2804.11
2811.4
2818.86
2826.3
2833.5
2840.48
2847.38
2854.32
2861.28
2868.16
2874.91
2881.57
2888.17
2894.73
2901.22
2907.58
2913.77
2919.76
2925.55
2931.13
2936.47
2941.56
2946.39
2950.95
1796.62
2487.13
2580.32
2604.21
2624.98
2640.27
2652.47
2662.77
2671.99
2680.88
2689.79
2698.63
2707.05
2714.88
2722.26
2729.33
2736.19
2742.89
2749.56
2756.23
2762.9
2769.56
2776.21
2782.93
2789.78
2796.74
2803.83
2811.12
2818.57
2826
2833.2
2840.18
2847.08
2854.02
2860.98
2867.86
2874.62
2881.27
2887.87
2894.44
2900.92
2907.28
2913.45
2919.44
2925.22
2930.79
2936.13
2941.21
2946.02
2950.56
2954.82
2958.79
1791.02
2485.14
2579.13
2603.26
2624.21
2639.59
2651.83
2662.16
2671.42
2680.36
2689.32
2698.2
2706.64
2714.51
2721.92
2729.01
2735.89
2742.61
2749.29
2755.97
2762.64
2769.28
2775.93
2782.65
2789.49
2796.46
2803.55
2810.84
2818.29
2825.71
2832.9
2839.87
2846.78
2853.73
2860.68
2867.57
2874.32
2880.98
2887.58
2894.14
2900.62
2906.97
2913.13
2919.11
2924.89
2930.45
2935.78
2940.85
2945.66
2950.18
2954.43
2958.39
2962.05
2965.42
1785.52
2483.17
2577.96
2602.33
2623.46
2638.93
2651.21
2661.57
2670.86
2679.84
2688.85
2697.77
2706.25
2714.14
2721.58
2728.7
2735.6
2742.33
2749.02
2755.7
2762.37
2769.01
2775.65
2782.37
2789.21
2796.18
2803.28
2810.57
2818.01
2825.42
2832.6
2839.57
2846.48
2853.43
2860.39
2867.27
2874.03
2880.69
2887.29
2893.85
2900.32
2906.65
2912.81
2918.78
2924.55
2930.11
2935.43
2940.5
2945.29
2949.8
2954.04
2957.99
2961.64
2965
2968.06
2970.79
2973.21
2975.3
2977.06
2978.48
2979.57
2980.31
2980.74
2980.84
2980.59
2980.03
2979.18
2978.05
2976.65
2974.99
2973.1
2970.97
2968.63
2966.12
2963.45
2960.63
2957.67
2954.6
2951.43
2948.19
2944.88
2941.52
2938.13
2934.72
2931.29
2927.88
2924.46
2921.08
2917.73
2914.42
2911.14
2907.93
2904.77
2901.67
2898.64
2895.67
2892.78
2889.97
2887.22
2884.56
2881.97
2879.46
2877.03
2874.68
2872.4
2870.21
2868.08
2866.04
2864.06
2862.16
2860.34
2858.57
2856.88
2855.26
2853.7
2852.2
2850.76
2849.5
2848.13
1780.24
2481.22
2576.81
2601.4
2622.72
2638.29
2650.61
2660.99
2670.31
2679.34
2688.4
2697.36
2705.86
2713.78
2721.25
2728.39
2735.31
2742.06
2748.76
2755.45
2762.12
2768.75
2775.38
2782.1
2788.94
2795.91
2803.01
2810.3
2817.73
2825.13
2832.31
2839.27
2846.18
2853.14
2860.1
2866.98
2873.74
2880.4
2887
2893.55
2900.02
2906.34
2912.49
2918.45
2924.22
2929.77
2935.08
2940.14
2944.92
2949.42
2953.65
2957.59
2961.24
2964.59
2967.64
2970.38
2972.79
2974.88
2976.64
2978.07
2979.17
2979.92
2980.38
2980.5
2980.26
2979.73
2978.92
2977.83
2976.47
2974.86
2973.01
2970.94
2968.69
2966.26
2963.65
2960.91
2958.03
2955.05
2951.97
2948.83
2945.61
2942.36
2939.06
2935.75
2932.43
2929.12
2925.81
2922.54
2919.29
2916.08
2912.91
2909.8
2906.75
2903.75
2900.82
2897.96
2895.16
2892.44
2889.79
2887.22
2884.72
2882.3
2879.96
2877.69
2875.5
2873.38
2871.33
2869.36
2867.46
2865.63
2863.87
2862.18
2860.55
2858.99
2857.49
2856.05
2854.66
2853.47
2852.16
2851.33
2848.88
1775.04
2479.3
2575.66
2600.48
2622
2637.66
2650.02
2660.42
2669.78
2678.86
2687.95
2696.95
2705.48
2713.43
2720.92
2728.09
2735.02
2741.79
2748.5
2755.19
2761.86
2768.49
2775.12
2781.83
2788.67
2795.64
2802.74
2810.03
2817.46
2824.85
2832.01
2838.97
2845.89
2852.84
2859.81
2866.69
2873.45
2880.11
2886.71
2893.26
2899.71
2906.02
2912.16
2918.12
2923.88
2929.43
2934.73
2939.78
2944.55
2949.05
2953.26
2957.2
2960.84
2964.19
2967.24
2969.97
2972.39
2974.48
2976.25
2977.68
2978.8
2979.58
2980.06
2980.19
2979.97
2979.48
2978.71
2977.66
2976.35
2974.8
2973
2971.02
2968.84
2966.48
2963.96
2961.3
2958.51
2955.63
2952.64
2949.59
2946.48
2943.33
2940.14
2936.94
2933.73
2930.52
2927.33
2924.16
2921.02
2917.92
2914.87
2911.86
2908.91
2906.02
2903.19
2900.43
2897.74
2895.12
2892.57
2890.09
2887.68
2885.35
2883.1
2880.92
2878.81
2876.77
2874.8
2872.91
2871.08
2869.33
2867.64
2866.01
2864.45
2862.95
2861.51
2860.12
2858.79
2857.67
2856.41
2855.65
2853.26
1770.07
2477.4
2574.51
2599.57
2621.29
2637.05
2649.45
2659.88
2669.27
2678.38
2687.52
2696.55
2705.11
2713.08
2720.6
2727.79
2734.74
2741.53
2748.25
2754.94
2761.61
2768.23
2774.85
2781.56
2788.4
2795.38
2802.48
2809.76
2817.19
2824.56
2831.72
2838.68
2845.59
2852.55
2859.52
2866.4
2873.16
2879.82
2886.42
2892.96
2899.4
2905.71
2911.84
2917.78
2923.54
2929.09
2934.39
2939.42
2944.19
2948.67
2952.88
2956.81
2960.45
2963.8
2966.84
2969.58
2972
2974.1
2975.87
2977.32
2978.45
2979.25
2979.78
2979.91
2979.72
2979.28
2978.56
2977.56
2976.3
2974.81
2973.1
2971.19
2969.08
2966.8
2964.37
2961.8
2959.11
2956.33
2953.45
2950.5
2947.5
2944.46
2941.38
2938.29
2935.19
2932.1
2929.02
2925.97
2922.94
2919.96
2917.01
2914.12
2911.27
2908.49
2905.77
2903.11
2900.52
2898
2895.54
2893.16
2890.85
2888.61
2886.44
2884.34
2882.32
2880.36
2878.47
2876.65
2874.9
2873.21
2871.59
2870.03
2868.53
2867.09
2865.71
2864.38
2863.11
2862.05
2860.84
2860.14
2857.82
1765.18
2475.51
2573.35
2598.67
2620.6
2636.46
2648.89
2659.34
2668.76
2677.92
2687.1
2696.16
2704.74
2712.74
2720.28
2727.49
2734.47
2741.26
2747.99
2754.69
2761.36
2767.98
2774.59
2781.29
2788.14
2795.11
2802.22
2809.5
2816.92
2824.28
2831.43
2838.39
2845.3
2852.26
2859.23
2866.12
2872.88
2879.53
2886.12
2892.66
2899.09
2905.39
2911.51
2917.45
2923.2
2928.74
2934.04
2939.07
2943.82
2948.3
2952.5
2956.43
2960.07
2963.41
2966.46
2969.2
2971.63
2973.73
2975.52
2976.98
2978.13
2978.97
2979.51
2979.68
2979.53
2979.14
2978.46
2977.52
2976.33
2974.92
2973.28
2971.44
2969.42
2967.23
2964.89
2962.42
2959.83
2957.15
2954.38
2951.55
2948.65
2945.73
2942.76
2939.79
2936.81
2933.84
2930.87
2927.94
2925.03
2922.16
2919.33
2916.55
2913.82
2911.14
2908.53
2905.98
2903.49
2901.07
2898.71
2896.43
2894.21
2892.06
2889.98
2887.97
2886.03
2884.15
2882.34
2880.6
2878.92
2877.3
2875.75
2874.25
2872.81
2871.43
2870.11
2868.84
2867.61
2866.64
2865.45
2864.8
2862.52
1760.5
2473.64
2572.18
2597.77
2619.92
2635.88
2648.34
2658.82
2668.27
2677.46
2686.68
2695.77
2704.38
2712.41
2719.97
2727.21
2734.2
2741.01
2747.75
2754.45
2761.11
2767.73
2774.33
2781.03
2787.88
2794.86
2801.96
2809.24
2816.65
2824
2831.14
2838.09
2845.01
2851.97
2858.94
2865.83
2872.59
2879.24
2885.83
2892.36
2898.78
2905.06
2911.18
2917.11
2922.86
2928.4
2933.69
2938.71
2943.46
2947.93
2952.13
2956.05
2959.69
2963.04
2966.09
2968.83
2971.27
2973.39
2975.19
2976.67
2977.84
2978.71
2979.26
2979.49
2979.4
2979.05
2978.42
2977.54
2976.43
2975.08
2973.53
2971.77
2969.84
2967.75
2965.51
2963.15
2960.67
2958.1
2955.44
2952.73
2949.95
2947.14
2944.3
2941.45
2938.59
2935.74
2932.9
2930.09
2927.29
2924.54
2921.83
2919.16
2916.55
2913.99
2911.48
2909.03
2906.65
2904.33
2902.07
2899.88
2897.76
2895.7
2893.71
2891.78
2889.92
2888.13
2886.39
2884.72
2883.12
2881.57
2880.08
2878.65
2877.27
2875.95
2874.69
2873.47
2872.29
2871.38
2870.22
2869.64
2867.41
1755.9
2471.77
2571.02
2596.89
2619.25
2635.31
2647.81
2658.31
2667.79
2677.02
2686.28
2695.4
2704.03
2712.08
2719.67
2726.92
2733.93
2740.75
2747.5
2754.21
2760.87
2767.48
2774.08
2780.77
2787.62
2794.6
2801.71
2808.98
2816.38
2823.72
2830.85
2837.8
2844.72
2851.69
2858.66
2865.54
2872.3
2878.95
2885.54
2892.05
2898.47
2904.74
2910.84
2916.78
2922.53
2928.05
2933.34
2938.35
2943.09
2947.56
2951.75
2955.67
2959.32
2962.67
2965.72
2968.48
2970.92
2973.06
2974.88
2976.38
2977.58
2978.49
2979.06
2979.34
2979.31
2979.01
2978.44
2977.64
2976.6
2975.34
2973.86
2972.2
2970.37
2968.38
2966.25
2963.99
2961.63
2959.17
2956.63
2954.03
2951.38
2948.7
2945.98
2943.25
2940.52
2937.79
2935.08
2932.38
2929.72
2927.09
2924.49
2921.95
2919.44
2917
2914.6
2912.27
2909.99
2907.77
2905.62
2903.53
2901.5
2899.53
2897.63
2895.79
2894.01
2892.3
2890.64
2889.05
2887.51
2886.03
2884.61
2883.24
2881.93
2880.67
2879.47
2878.33
2877.19
2876.32
2875.21
2874.7
2872.53
1751.51
2469.91
2569.83
2596.01
2618.6
2634.76
2647.3
2657.82
2667.33
2676.59
2685.88
2695.03
2703.69
2711.76
2719.37
2726.64
2733.67
2740.5
2747.26
2753.97
2760.63
2767.23
2773.83
2780.52
2787.36
2794.35
2801.45
2808.72
2816.12
2823.45
2830.57
2837.51
2844.43
2851.4
2858.37
2865.26
2872.02
2878.66
2885.24
2891.75
2898.15
2904.41
2910.51
2916.44
2922.19
2927.71
2932.99
2937.99
2942.73
2947.19
2951.38
2955.31
2958.95
2962.31
2965.37
2968.13
2970.59
2972.74
2974.59
2976.12
2977.34
2978.28
2978.9
2979.23
2979.26
2979
2978.52
2977.79
2976.83
2975.65
2974.28
2972.71
2970.98
2969.1
2967.08
2964.94
2962.69
2960.36
2957.95
2955.47
2952.95
2950.39
2947.81
2945.21
2942.61
2940.01
2937.42
2934.86
2932.31
2929.81
2927.34
2924.91
2922.52
2920.19
2917.91
2915.68
2913.51
2911.4
2909.34
2907.35
2905.41
2903.54
2901.73
2899.97
2898.28
2896.64
2895.06
2893.54
2892.07
2890.66
2889.31
2888
2886.75
2885.54
2884.39
2883.34
2882.23
2881.39
2880.34
2879.89
2877.77
1747.18
2468.06
2568.65
2595.14
2617.96
2634.22
2646.79
2657.34
2666.87
2676.17
2685.49
2694.67
2703.35
2711.44
2719.07
2726.37
2733.41
2740.26
2747.03
2753.74
2760.39
2766.99
2773.58
2780.27
2787.11
2794.1
2801.2
2808.47
2815.85
2823.17
2830.28
2837.22
2844.15
2851.12
2858.09
2864.97
2871.73
2878.37
2884.94
2891.44
2897.83
2904.08
2910.18
2916.1
2921.84
2927.37
2932.63
2937.64
2942.36
2946.82
2951.02
2954.94
2958.59
2961.95
2965.02
2967.8
2970.28
2972.45
2974.32
2975.88
2977.14
2978.11
2978.77
2979.17
2979.25
2979.07
2978.66
2978.01
2977.14
2976.05
2974.77
2973.31
2971.69
2969.92
2968.01
2965.99
2963.87
2961.66
2959.38
2957.04
2954.64
2952.22
2949.77
2947.3
2944.83
2942.36
2939.91
2937.47
2935.06
2932.68
2930.33
2928.02
2925.76
2923.54
2921.38
2919.26
2917.2
2915.19
2913.24
2911.34
2909.51
2907.73
2906
2904.33
2902.72
2901.17
2899.67
2898.22
2896.83
2895.49
2894.19
2892.95
2891.76
2890.62
2889.52
2888.54
2887.48
2886.67
2885.67
2885.28
2883.21
1743.05
2466.22
2567.46
2594.28
2617.34
2633.7
2646.3
2656.87
2666.43
2675.76
2685.11
2694.31
2703.01
2711.13
2718.78
2726.1
2733.15
2740.02
2746.79
2753.51
2760.16
2766.75
2773.33
2780.02
2786.86
2793.85
2800.95
2808.22
2815.59
2822.9
2830
2836.94
2843.86
2850.84
2857.81
2864.69
2871.44
2878.08
2884.64
2891.13
2897.51
2903.75
2909.84
2915.77
2921.5
2927.02
2932.28
2937.28
2942
2946.46
2950.65
2954.58
2958.23
2961.6
2964.69
2967.48
2969.97
2972.17
2974.06
2975.66
2976.96
2977.97
2978.68
2979.14
2979.3
2979.18
2978.85
2978.28
2977.5
2976.51
2975.34
2973.99
2972.48
2970.83
2969.05
2967.15
2965.16
2963.08
2960.93
2958.73
2956.47
2954.19
2951.87
2949.54
2947.21
2944.88
2942.56
2940.25
2937.97
2935.72
2933.5
2931.31
2929.17
2927.07
2925.02
2923.02
2921.06
2919.16
2917.31
2915.51
2913.77
2912.08
2910.45
2908.86
2907.33
2905.86
2904.43
2903.06
2901.73
2900.46
2899.23
2898.05
2896.92
2895.83
2894.79
2893.87
2892.85
2892.08
2891.14
2890.81
2888.78
1738.99
2464.37
2566.27
2593.43
2616.73
2633.18
2645.82
2656.41
2665.99
2675.35
2684.74
2693.97
2702.68
2710.82
2718.5
2725.83
2732.9
2739.78
2746.56
2753.28
2759.93
2766.51
2773.09
2779.77
2786.62
2793.6
2800.71
2807.97
2815.33
2822.62
2829.71
2836.65
2843.58
2850.55
2857.52
2864.4
2871.15
2877.78
2884.34
2890.82
2897.19
2903.42
2909.51
2915.43
2921.16
2926.67
2931.93
2936.92
2941.64
2946.1
2950.29
2954.23
2957.88
2961.27
2964.36
2967.17
2969.69
2971.91
2973.83
2975.46
2976.81
2977.86
2978.63
2979.14
2979.38
2979.36
2979.1
2978.62
2977.94
2977.05
2975.99
2974.75
2973.36
2971.83
2970.18
2968.41
2966.56
2964.61
2962.6
2960.53
2958.42
2956.27
2954.1
2951.91
2949.71
2947.52
2945.34
2943.17
2941.02
2938.9
2936.8
2934.75
2932.73
2930.75
2928.81
2926.93
2925.08
2923.29
2921.54
2919.85
2918.2
2916.61
2915.06
2913.57
2912.12
2910.73
2909.38
2908.08
2906.83
2905.63
2904.47
2903.35
2902.28
2901.25
2900.26
2899.4
2898.44
2897.7
2896.82
2896.55
2894.58
1735.11
2462.54
2565.06
2592.59
2616.14
2632.68
2645.36
2655.96
2665.57
2674.96
2684.38
2693.62
2702.36
2710.52
2718.21
2725.57
2732.66
2739.54
2746.33
2753.05
2759.7
2766.28
2772.85
2779.53
2786.38
2793.36
2800.46
2807.72
2815.07
2822.35
2829.43
2836.37
2843.3
2850.27
2857.24
2864.12
2870.86
2877.49
2884.04
2890.51
2896.87
2903.09
2909.17
2915.09
2920.82
2926.33
2931.58
2936.56
2941.28
2945.74
2949.94
2953.87
2957.54
2960.93
2964.04
2966.87
2969.41
2971.66
2973.62
2975.29
2976.68
2977.78
2978.61
2979.19
2979.51
2979.57
2979.39
2979.01
2978.43
2977.66
2976.7
2975.59
2974.32
2972.92
2971.4
2969.77
2968.05
2966.25
2964.39
2962.46
2960.49
2958.49
2956.46
2954.42
2952.37
2950.32
2948.28
2946.25
2944.23
2942.24
2940.28
2938.35
2936.45
2934.6
2932.78
2931
2929.27
2927.58
2925.94
2924.34
2922.79
2921.29
2919.84
2918.43
2917.07
2915.75
2914.48
2913.26
2912.07
2910.94
2909.84
2908.79
2907.77
2906.8
2905.86
2905.06
2904.14
2903.44
2902.62
2902.41
2900.47
1731.29
2460.7
2563.86
2591.76
2615.56
2632.2
2644.9
2655.52
2665.16
2674.58
2684.02
2693.29
2702.05
2710.22
2717.94
2725.31
2732.41
2739.31
2746.11
2752.83
2759.48
2766.04
2772.61
2779.29
2786.14
2793.12
2800.22
2807.47
2814.81
2822.08
2829.15
2836.09
2843.02
2849.99
2856.96
2863.83
2870.57
2877.19
2883.73
2890.19
2896.54
2902.76
2908.83
2914.75
2920.48
2925.98
2931.22
2936.2
2940.92
2945.38
2949.58
2953.52
2957.2
2960.61
2963.74
2966.58
2969.15
2971.43
2973.42
2975.14
2976.57
2977.73
2978.62
2979.27
2979.69
2979.84
2979.74
2979.47
2978.99
2978.33
2977.5
2976.51
2975.37
2974.1
2972.72
2971.23
2969.66
2968
2966.28
2964.5
2962.68
2960.83
2958.94
2957.05
2955.14
2953.24
2951.33
2949.44
2947.57
2945.72
2943.89
2942.09
2940.32
2938.58
2936.88
2935.23
2933.61
2932.03
2930.49
2929
2927.55
2926.14
2924.78
2923.46
2922.18
2920.95
2919.76
2918.61
2917.5
2916.43
2915.41
2914.42
2913.47
2912.55
2911.67
2910.93
2910.06
2909.41
2908.65
2908.48
2906.6
1727.66
2458.86
2562.65
2590.94
2615
2631.72
2644.46
2655.1
2664.76
2674.2
2683.67
2692.96
2701.74
2709.93
2717.66
2725.05
2732.17
2739.08
2745.89
2752.61
2759.25
2765.82
2772.37
2779.05
2785.9
2792.89
2799.98
2807.22
2814.55
2821.81
2828.88
2835.81
2842.74
2849.71
2856.67
2863.54
2870.27
2876.89
2883.43
2889.88
2896.22
2902.43
2908.5
2914.41
2920.14
2925.63
2930.87
2935.84
2940.56
2945.02
2949.23
2953.18
2956.87
2960.29
2963.43
2966.31
2968.9
2971.21
2973.24
2975
2976.49
2977.71
2978.68
2979.4
2979.89
2980.14
2980.16
2979.97
2979.61
2979.06
2978.36
2977.49
2976.49
2975.36
2974.12
2972.78
2971.35
2969.85
2968.28
2966.66
2964.99
2963.29
2961.56
2959.82
2958.06
2956.31
2954.55
2952.8
2951.07
2949.35
2947.65
2945.98
2944.34
2942.73
2941.15
2939.61
2938.1
2936.63
2935.2
2933.81
2932.46
2931.15
2929.87
2928.64
2927.45
2926.3
2925.18
2924.11
2923.07
2922.07
2921.1
2920.18
2919.29
2918.43
2917.59
2916.91
2916.09
2915.49
2914.76
2914.62
2912.82
1724.07
2457.03
2561.44
2590.14
2614.45
2631.26
2644.02
2654.68
2664.36
2673.84
2683.33
2692.64
2701.43
2709.64
2717.39
2724.8
2731.93
2738.85
2745.67
2752.39
2759.03
2765.59
2772.14
2778.82
2785.67
2792.65
2799.74
2806.97
2814.29
2821.54
2828.6
2835.53
2842.46
2849.43
2856.39
2863.25
2869.98
2876.59
2883.12
2889.56
2895.89
2902.09
2908.16
2914.07
2919.79
2925.28
2930.51
2935.48
2940.2
2944.66
2948.88
2952.84
2956.54
2959.97
2963.14
2966.04
2968.66
2971.01
2973.08
2974.89
2976.44
2977.71
2978.75
2979.56
2980.13
2980.49
2980.62
2980.53
2980.29
2979.87
2979.29
2978.56
2977.7
2976.72
2975.62
2974.43
2973.15
2971.8
2970.39
2968.92
2967.41
2965.86
2964.28
2962.69
2961.09
2959.48
2957.87
2956.27
2954.68
2953.1
2951.54
2950
2948.49
2947.01
2945.55
2944.13
2942.74
2941.38
2940.06
2938.77
2937.52
2936.3
2935.12
2933.98
2932.88
2931.81
2930.77
2929.78
2928.81
2927.88
2926.99
2926.13
2925.3
2924.5
2923.73
2923.11
2922.34
2921.78
2921.1
2920.98
2919.29
1720.66
2455.19
2560.23
2589.35
2613.91
2630.81
2643.6
2654.28
2663.98
2673.48
2682.99
2692.32
2701.13
2709.36
2717.13
2724.55
2731.7
2738.63
2745.45
2752.18
2758.81
2765.36
2771.91
2778.59
2785.43
2792.42
2799.51
2806.73
2814.03
2821.27
2828.33
2835.26
2842.18
2849.15
2856.1
2862.96
2869.68
2876.29
2882.81
2889.24
2895.56
2901.76
2907.82
2913.73
2919.45
2924.93
2930.16
2935.12
2939.84
2944.31
2948.53
2952.5
2956.21
2959.66
2962.85
2965.78
2968.43
2970.82
2972.94
2974.8
2976.4
2977.76
2978.87
2979.76
2980.42
2980.87
2981.12
2981.16
2981.02
2980.73
2980.28
2979.7
2978.98
2978.14
2977.2
2976.16
2975.04
2973.85
2972.6
2971.29
2969.94
2968.55
2967.14
2965.71
2964.26
2962.8
2961.34
2959.89
2958.44
2957.01
2955.58
2954.18
2952.8
2951.44
2950.11
2948.8
2947.53
2946.28
2945.06
2943.88
2942.73
2941.61
2940.52
2939.47
2938.45
2937.46
2936.51
2935.58
2934.69
2933.83
2933
2932.2
2931.44
2930.7
2929.97
2929.42
2928.69
2928.18
2927.55
2927.45
2925.85
1717.29
2453.35
2559.02
2588.57
2613.39
2630.37
2643.19
2653.88
2663.6
2673.12
2682.67
2692.01
2700.84
2709.08
2716.87
2724.3
2731.46
2738.41
2745.23
2751.97
2758.6
2765.14
2771.68
2778.36
2785.2
2792.19
2799.27
2806.49
2813.78
2821
2828.05
2834.98
2841.91
2848.87
2855.82
2862.67
2869.39
2875.99
2882.5
2888.92
2895.24
2901.43
2907.48
2913.39
2919.1
2924.58
2929.8
2934.76
2939.48
2943.95
2948.18
2952.16
2955.89
2959.36
2962.58
2965.53
2968.22
2970.64
2972.81
2974.73
2976.39
2977.81
2979.01
2979.99
2980.75
2981.3
2981.67
2981.84
2981.82
2981.66
2981.35
2980.91
2980.34
2979.65
2978.87
2977.99
2977.03
2976
2974.9
2973.76
2972.57
2971.34
2970.09
2968.81
2967.52
2966.22
2964.91
2963.61
2962.31
2961.02
2959.74
2958.47
2957.22
2955.99
2954.79
2953.6
2952.44
2951.31
2950.21
2949.13
2948.08
2947.06
2946.07
2945.11
2944.18
2943.27
2942.4
2941.56
2940.74
2939.96
2939.2
2938.47
2937.77
2937.09
2936.43
2935.94
2935.26
2934.8
2934.22
2934.14
2932.66
1714.1
2451.52
2557.79
2587.8
2612.88
2629.94
2642.78
2653.5
2663.23
2672.78
2682.35
2691.71
2700.54
2708.8
2716.61
2724.06
2731.23
2738.19
2745.02
2751.75
2758.38
2764.92
2771.46
2778.13
2784.98
2791.96
2799.04
2806.24
2813.53
2820.74
2827.78
2834.7
2841.63
2848.59
2855.53
2862.37
2869.09
2875.69
2882.19
2888.6
2894.91
2901.09
2907.15
2913.05
2918.75
2924.22
2929.44
2934.4
2939.12
2943.59
2947.83
2951.82
2955.57
2959.06
2962.3
2965.28
2968.01
2970.48
2972.7
2974.67
2976.4
2977.9
2979.18
2980.25
2981.11
2981.77
2982.25
2982.55
2982.67
2982.64
2982.47
2982.17
2981.76
2981.23
2980.6
2979.89
2979.09
2978.23
2977.3
2976.33
2975.31
2974.25
2973.16
2972.05
2970.92
2969.78
2968.63
2967.48
2966.32
2965.18
2964.04
2962.91
2961.79
2960.7
2959.61
2958.55
2957.51
2956.49
2955.5
2954.52
2953.58
2952.66
2951.76
2950.89
2950.04
2949.22
2948.43
2947.66
2946.92
2946.2
2945.51
2944.84
2944.21
2943.59
2942.99
2942.55
2941.91
2941.5
2940.95
2940.89
2939.5
1710.94
2449.67
2556.58
2587.05
2612.38
2629.52
2642.39
2653.12
2662.88
2672.44
2682.03
2691.41
2700.26
2708.53
2716.35
2723.82
2731.01
2737.97
2744.81
2751.54
2758.17
2764.7
2771.23
2777.9
2784.75
2791.73
2798.8
2806
2813.27
2820.48
2827.51
2834.43
2841.35
2848.31
2855.24
2862.08
2868.79
2875.38
2881.88
2888.28
2894.58
2900.76
2906.81
2912.7
2918.4
2923.86
2929.07
2934.03
2938.75
2943.23
2947.48
2951.49
2955.25
2958.77
2962.04
2965.05
2967.81
2970.33
2972.6
2974.63
2976.43
2978.01
2979.38
2980.55
2981.51
2982.29
2982.88
2983.31
2983.58
2983.69
2983.66
2983.52
2983.26
2982.89
2982.43
2981.88
2981.25
2980.56
2979.8
2978.99
2978.13
2977.24
2976.32
2975.37
2974.4
2973.42
2972.43
2971.43
2970.43
2969.43
2968.44
2967.45
2966.47
2965.51
2964.55
2963.62
2962.7
2961.79
2960.91
2960.05
2959.21
2958.38
2957.59
2956.81
2956.05
2955.32
2954.61
2953.92
2953.26
2952.61
2951.99
2951.39
2950.82
2950.29
2949.74
2949.35
2948.76
2948.4
2947.9
2947.86
2946.58
1707.94
2447.83
2555.36
2586.31
2611.9
2629.11
2642.01
2652.75
2662.52
2672.11
2681.72
2691.12
2699.98
2708.26
2716.1
2723.59
2730.78
2737.76
2744.6
2751.34
2757.96
2764.48
2771.01
2777.67
2784.52
2791.5
2798.57
2805.76
2813.02
2820.21
2827.24
2834.16
2841.07
2848.02
2854.95
2861.78
2868.49
2875.07
2881.56
2887.96
2894.25
2900.42
2906.47
2912.35
2918.05
2923.5
2928.71
2933.67
2938.39
2942.88
2947.13
2951.16
2954.94
2958.48
2961.77
2964.82
2967.62
2970.18
2972.51
2974.61
2976.49
2978.15
2979.61
2980.87
2981.95
2982.84
2983.55
2984.11
2984.52
2984.78
2984.91
2984.92
2984.81
2984.61
2984.32
2983.94
2983.48
2982.96
2982.38
2981.75
2981.07
2980.35
2979.6
2978.82
2978.02
2977.2
2976.37
2975.53
2974.68
2973.83
2972.98
2972.14
2971.29
2970.46
2969.64
2968.82
2968.02
2967.24
2966.47
2965.71
2964.97
2964.25
2963.55
2962.86
2962.2
2961.55
2960.92
2960.31
2959.72
2959.15
2958.6
2958.07
2957.56
2957.1
2956.6
2956.26
2955.72
2955.41
2954.96
2954.93
2953.76
1704.98
2445.98
2554.15
2585.59
2611.43
2628.71
2641.63
2652.39
2662.18
2671.79
2681.42
2690.83
2699.7
2708
2715.85
2723.35
2730.56
2737.55
2744.4
2751.13
2757.75
2764.26
2770.79
2777.45
2784.3
2791.27
2798.34
2805.52
2812.77
2819.95
2826.97
2833.88
2840.79
2847.74
2854.66
2861.49
2868.19
2874.77
2881.25
2887.64
2893.92
2900.08
2906.12
2912.01
2917.69
2923.14
2928.34
2933.3
2938.02
2942.52
2946.79
2950.83
2954.63
2958.19
2961.51
2964.6
2967.44
2970.05
2972.44
2974.6
2976.56
2978.31
2979.86
2981.23
2982.42
2983.43
2984.28
2984.97
2985.52
2985.93
2986.22
2986.39
2986.45
2986.41
2986.28
2986.08
2985.8
2985.45
2985.04
2984.58
2984.07
2983.53
2982.95
2982.34
2981.7
2981.05
2980.38
2979.7
2979.01
2978.31
2977.61
2976.91
2976.21
2975.51
2974.82
2974.14
2973.46
2972.79
2972.14
2971.49
2970.86
2970.24
2969.64
2969.05
2968.48
2967.92
2967.37
2966.85
2966.33
2965.84
2965.36
2964.9
2964.45
2964.08
2963.63
2963.32
2962.85
2962.61
2962.19
2962.19
2961.14
1702.18
2444.12
2552.93
2584.88
2610.97
2628.32
2641.26
2652.04
2661.85
2671.48
2681.12
2690.54
2699.43
2707.74
2715.61
2723.12
2730.34
2737.34
2744.19
2750.93
2757.54
2764.05
2770.57
2777.23
2784.08
2791.05
2798.11
2805.28
2812.52
2819.69
2826.7
2833.61
2840.51
2847.45
2854.37
2861.19
2867.88
2874.46
2880.93
2887.31
2893.58
2899.74
2905.78
2911.65
2917.33
2922.77
2927.97
2932.92
2937.65
2942.16
2946.44
2950.49
2954.32
2957.91
2961.26
2964.38
2967.27
2969.93
2972.38
2974.61
2976.65
2978.48
2980.14
2981.61
2982.91
2984.05
2985.03
2985.86
2986.56
2987.12
2987.57
2987.9
2988.13
2988.26
2988.31
2988.28
2988.17
2988
2987.78
2987.51
2987.18
2986.82
2986.41
2985.98
2985.52
2985.03
2984.53
2984.01
2983.47
2982.93
2982.38
2981.82
2981.26
2980.7
2980.14
2979.58
2979.03
2978.48
2977.94
2977.41
2976.89
2976.37
2975.87
2975.37
2974.89
2974.42
2973.96
2973.51
2973.08
2972.65
2972.25
2971.85
2971.47
2971.18
2970.77
2970.51
2970.11
2969.91
2969.54
2969.55
2968.61
1699.41
2442.26
2551.72
2584.18
2610.52
2627.94
2640.91
2651.69
2661.52
2671.17
2680.83
2690.26
2699.16
2707.49
2715.37
2722.89
2730.13
2737.13
2743.99
2750.72
2757.33
2763.84
2770.35
2777.01
2783.85
2790.83
2797.88
2805.04
2812.27
2819.43
2826.43
2833.33
2840.23
2847.16
2854.07
2860.89
2867.58
2874.15
2880.62
2886.99
2893.25
2899.4
2905.43
2911.3
2916.96
2922.4
2927.59
2932.55
2937.28
2941.8
2946.09
2950.17
2954.01
2957.62
2961.01
2964.16
2967.1
2969.82
2972.33
2974.64
2976.75
2978.68
2980.44
2982.03
2983.45
2984.71
2985.83
2986.8
2987.65
2988.37
2988.98
2989.48
2989.88
2990.19
2990.41
2990.56
2990.63
2990.65
2990.6
2990.5
2990.35
2990.16
2989.94
2989.68
2989.39
2989.07
2988.73
2988.38
2988
2987.62
2987.22
2986.81
2986.4
2985.98
2985.55
2985.13
2984.7
2984.28
2983.86
2983.44
2983.02
2982.61
2982.21
2981.81
2981.43
2981.04
2980.67
2980.31
2979.95
2979.6
2979.27
2978.94
2978.63
2978.42
2978.06
2977.84
2977.5
2977.36
2977.03
2977.06
2976.23
1696.79
2440.39
2550.5
2583.49
2610.09
2627.57
2640.56
2651.36
2661.2
2670.86
2680.54
2689.99
2698.89
2707.23
2715.13
2722.67
2729.91
2736.92
2743.79
2750.52
2757.13
2763.62
2770.13
2776.79
2783.64
2790.6
2797.65
2804.8
2812.02
2819.17
2826.16
2833.06
2839.95
2846.88
2853.78
2860.59
2867.27
2873.84
2880.3
2886.66
2892.91
2899.06
2905.08
2910.94
2916.59
2922.02
2927.21
2932.17
2936.91
2941.44
2945.74
2949.83
2953.7
2957.34
2960.76
2963.95
2966.94
2969.71
2972.29
2974.67
2976.88
2978.9
2980.76
2982.46
2984.01
2985.4
2986.65
2987.77
2988.77
2989.65
2990.42
2991.09
2991.66
2992.14
2992.55
2992.88
2993.14
2993.34
2993.48
2993.57
2993.61
2993.61
2993.57
2993.49
2993.38
2993.24
2993.07
2992.88
2992.67
2992.44
2992.2
2991.94
2991.67
2991.39
2991.1
2990.8
2990.5
2990.2
2989.9
2989.59
2989.29
2988.98
2988.68
2988.38
2988.09
2987.8
2987.51
2987.23
2986.95
2986.68
2986.42
2986.17
2985.92
2985.77
2985.47
2985.3
2985.03
2984.92
2984.65
2984.7
2983.98
1694.19
2438.52
2549.29
2582.82
2609.67
2627.21
2640.22
2651.03
2660.88
2670.56
2680.26
2689.72
2698.63
2706.98
2714.9
2722.45
2729.7
2736.72
2743.59
2750.33
2756.92
2763.41
2769.92
2776.57
2783.42
2790.38
2797.42
2804.56
2811.77
2818.9
2825.89
2832.78
2839.67
2846.59
2853.48
2860.29
2866.97
2873.53
2879.98
2886.33
2892.58
2898.72
2904.73
2910.58
2916.22
2921.64
2926.82
2931.79
2936.54
2941.07
2945.4
2949.5
2953.39
2957.06
2960.51
2963.75
2966.78
2969.61
2972.26
2974.72
2977.02
2979.14
2981.11
2982.93
2984.6
2986.13
2987.52
2988.79
2989.94
2990.98
2991.92
2992.76
2993.51
2994.18
2994.76
2995.28
2995.73
2996.11
2996.44
2996.71
2996.93
2997.11
2997.25
2997.35
2997.41
2997.45
2997.45
2997.43
2997.39
2997.32
2997.23
2997.13
2997.01
2996.87
2996.72
2996.57
2996.4
2996.22
2996.04
2995.85
2995.66
2995.47
2995.27
2995.07
2994.87
2994.67
2994.47
2994.28
2994.08
2993.89
2993.7
2993.51
2993.33
2993.25
2993.01
2992.89
2992.67
2992.61
2992.4
2992.48
2991.86
1691.74
2436.63
2548.08
2582.17
2609.25
2626.85
2639.88
2650.71
2660.57
2670.27
2679.98
2689.45
2698.38
2706.74
2714.66
2722.23
2729.49
2736.52
2743.39
2750.13
2756.72
2763.21
2769.7
2776.36
2783.2
2790.16
2797.19
2804.32
2811.52
2818.64
2825.62
2832.5
2839.39
2846.29
2853.18
2859.98
2866.66
2873.22
2879.66
2886
2892.24
2898.37
2904.37
2910.21
2915.84
2921.25
2926.44
2931.4
2936.16
2940.71
2945.04
2949.17
2953.08
2956.78
2960.26
2963.54
2966.63
2969.52
2972.24
2974.79
2977.17
2979.4
2981.47
2983.41
2985.21
2986.87
2988.4
2989.83
2991.14
2992.34
2993.45
2994.46
2995.38
2996.23
2997
2997.7
2998.34
2998.92
2999.44
2999.91
3000.33
3000.71
3001.03
3001.32
3001.57
3001.79
3001.97
3002.12
3002.24
3002.33
3002.4
3002.45
3002.48
3002.49
3002.48
3002.46
3002.42
3002.37
3002.31
3002.24
3002.16
3002.07
3001.98
3001.88
3001.78
3001.67
3001.56
3001.45
3001.34
3001.22
3001.11
3001
3000.88
3000.87
3000.69
3000.64
3000.47
3000.44
3000.31
3000.42
2999.91
1689.31
2434.73
2546.88
2581.53
2608.85
2626.51
2639.55
2650.39
2660.27
2669.99
2679.71
2689.19
2698.12
2706.5
2714.43
2722.01
2729.28
2736.32
2743.2
2749.93
2756.52
2763
2769.49
2776.14
2782.99
2789.94
2796.97
2804.09
2811.27
2818.38
2825.35
2832.23
2839.1
2846
2852.88
2859.68
2866.35
2872.9
2879.34
2885.67
2891.89
2898.02
2904.01
2909.83
2915.46
2920.86
2926.04
2931.01
2935.78
2940.34
2944.69
2948.84
2952.77
2956.5
2960.02
2963.34
2966.48
2969.44
2972.23
2974.86
2977.34
2979.67
2981.86
2983.92
2985.85
2987.65
2989.33
2990.9
2992.37
2993.74
2995.02
2996.21
2997.32
2998.35
2999.32
3000.21
3001.04
3001.81
3002.52
3003.17
3003.78
3004.34
3004.85
3005.32
3005.75
3006.15
3006.51
3006.83
3007.12
3007.38
3007.62
3007.83
3008.01
3008.17
3008.3
3008.42
3008.52
3008.6
3008.67
3008.72
3008.76
3008.78
3008.8
3008.8
3008.8
3008.79
3008.77
3008.74
3008.71
3008.68
3008.64
3008.6
3008.56
3008.59
3008.48
3008.49
3008.37
3008.37
3008.32
3008.45
3008.06
1687.03
2432.82
2545.68
2580.9
2608.46
2626.17
2639.23
2650.08
2659.97
2669.7
2679.44
2688.93
2697.87
2706.26
2714.2
2721.79
2729.08
2736.12
2743
2749.74
2756.32
2762.79
2769.28
2775.93
2782.77
2789.72
2796.74
2803.85
2811.02
2818.12
2825.08
2831.95
2838.81
2845.71
2852.58
2859.38
2866.05
2872.59
2879.01
2885.33
2891.55
2897.66
2903.64
2909.46
2915.07
2920.47
2925.65
2930.62
2935.39
2939.97
2944.34
2948.5
2952.46
2956.21
2959.77
2963.14
2966.33
2969.36
2972.23
2974.95
2977.52
2979.96
2982.26
2984.44
2986.5
2988.44
2990.27
2991.99
2993.63
2995.16
2996.61
2997.98
2999.27
3000.49
3001.64
3002.72
3003.75
3004.72
3005.63
3006.49
3007.3
3008.06
3008.77
3009.44
3010.06
3010.64
3011.18
3011.68
3012.14
3012.57
3012.97
3013.33
3013.67
3013.97
3014.25
3014.51
3014.74
3014.95
3015.14
3015.31
3015.46
3015.6
3015.72
3015.83
3015.92
3016.01
3016.08
3016.14
3016.2
3016.24
3016.29
3016.33
3016.36
3016.47
3016.41
3016.47
3016.41
3016.45
3016.48
3016.63
3016.37
1684.76
2430.9
2544.48
2580.29
2608.07
2625.83
2638.92
2649.78
2659.68
2669.43
2679.17
2688.67
2697.63
2706.02
2713.98
2721.58
2728.87
2735.92
2742.81
2749.54
2756.12
2762.59
2769.07
2775.72
2782.56
2789.5
2796.51
2803.61
2810.77
2817.86
2824.81
2831.67
2838.53
2845.41
2852.28
2859.07
2865.74
2872.27
2878.69
2884.99
2891.2
2897.3
2903.27
2909.07
2914.67
2920.07
2925.25
2930.23
2935.01
2939.59
2943.98
2948.16
2952.15
2955.93
2959.53
2962.94
2966.2
2969.29
2972.24
2975.05
2977.72
2980.26
2982.68
2984.99
2987.18
2989.26
2991.24
2993.12
2994.91
2996.62
2998.24
2999.79
3001.27
3002.68
3004.03
3005.31
3006.54
3007.7
3008.81
3009.86
3010.86
3011.81
3012.71
3013.56
3014.37
3015.13
3015.85
3016.53
3017.17
3017.77
3018.34
3018.87
3019.36
3019.82
3020.25
3020.65
3021.02
3021.37
3021.69
3021.99
3022.26
3022.52
3022.75
3022.97
3023.16
3023.35
3023.51
3023.66
3023.8
3023.93
3024.05
3024.18
3024.27
3024.44
3024.45
3024.56
3024.56
3024.63
3024.71
3024.88
3024.74
1682.59
2428.96
2543.28
2579.69
2607.7
2625.51
2638.61
2649.48
2659.4
2669.16
2678.91
2688.42
2697.38
2705.79
2713.76
2721.37
2728.67
2735.73
2742.62
2749.35
2755.92
2762.38
2768.86
2775.51