/*--------------------------------*- C++ -*----------------------------------*\
| =========                 |                                                 |
| \\      /  F ield         | OpenFOAM: The Open Source CFD Toolbox           |
|  \\    /   O peration     | Version:  2412                                  |
|   \\  /    A nd           | Website:  www.openfoam.com                      |
|    \\/     M anipulation  |                                                 |
\*---------------------------------------------------------------------------*/
FoamFile
{
    version     2.0;
    format      ascii;
    arch        "LSB;label=32;scalar=64";
    class       volScalarField;
    location    "0.017";
    object      rho;
}
// * * * * * * * * * * * * * * * * * * * * * * * * * * * * * * * * * * * * * //

dimensions      [1 -3 0 0 0 0 0];

internalField   nonuniform List<scalar> 
9859
(
0.042133
0.042133
0.042133
0.042133
0.042133
0.042133
0.042133
0.042133
0.042133
0.042133
0.042133
0.042133
0.042133
0.042133
0.042133
0.042133
0.042133
0.042133
0.042133
0.042133
0.042133
0.042133
0.042133
0.042133
0.042133
0.042133
0.042133
0.042133
0.042133
0.042133
0.042133
0.042133
0.042133
0.042133
0.042133
0.042133
0.042133
0.042133
0.042133
0.042133
0.042133
0.042133
0.042133
0.042133
0.042133
0.042133
0.042133
0.042133
0.042133
0.042133
0.042133
0.042133
0.042133
0.042133
0.042133
0.042133
0.042133
0.0421331
0.0421331
0.0421331
0.0421331
0.0421328
0.0421295
0.0421154
0.042089
0.0420601
0.0420382
0.0420264
0.0420228
0.042133
0.042133
0.042133
0.042133
0.042133
0.042133
0.042133
0.042133
0.042133
0.042133
0.042133
0.042133
0.042133
0.042133
0.042133
0.042133
0.042133
0.042133
0.042133
0.042133
0.042133
0.042133
0.042133
0.042133
0.042133
0.042133
0.042133
0.042133
0.042133
0.042133
0.042133
0.042133
0.042133
0.042133
0.042133
0.042133
0.042133
0.042133
0.042133
0.042133
0.042133
0.042133
0.042133
0.042133
0.042133
0.042133
0.042133
0.042133
0.042133
0.042133
0.042133
0.042133
0.042133
0.042133
0.042133
0.042133
0.042133
0.0421331
0.0421331
0.0421331
0.0421331
0.0421328
0.0421295
0.0421153
0.0420886
0.0420596
0.0420378
0.0420259
0.0420223
0.0420252
0.042053
0.0421086
0.0421612
0.0421954
0.0422127
0.0421723
0.0421773
0.0421735
0.0421624
0.0421527
0.0421523
0.0421581
0.0421608
0.0421558
0.0421467
0.0421405
0.0421376
0.0421286
0.0421095
0.0420833
0.0420404
0.0419708
0.0418995
0.0418536
0.0417767
0.0418153
0.0418898
0.0419646
0.0420154
0.0420563
0.0420748
0.0420853
0.0421005
0.0421164
0.0421393
0.0421646
0.042189
0.0422114
0.0422443
0.0422927
0.0423416
0.0423501
0.042133
0.042133
0.042133
0.042133
0.042133
0.042133
0.042133
0.042133
0.042133
0.042133
0.042133
0.042133
0.042133
0.042133
0.042133
0.042133
0.042133
0.042133
0.042133
0.042133
0.042133
0.042133
0.042133
0.042133
0.042133
0.042133
0.042133
0.042133
0.042133
0.042133
0.042133
0.042133
0.042133
0.042133
0.042133
0.042133
0.042133
0.042133
0.042133
0.042133
0.042133
0.042133
0.042133
0.042133
0.042133
0.042133
0.042133
0.042133
0.042133
0.042133
0.042133
0.042133
0.042133
0.042133
0.042133
0.042133
0.042133
0.0421331
0.0421331
0.0421331
0.0421331
0.0421328
0.0421294
0.0421151
0.0420883
0.0420592
0.0420373
0.0420254
0.0420218
0.0420247
0.0420525
0.0421082
0.0421608
0.042195
0.0422122
0.0422183
0.0422173
0.0422038
0.0421807
0.0421631
0.0421542
0.042153
0.0421608
0.0421717
0.0421767
0.0421729
0.0421616
0.0421519
0.0421515
0.0421574
0.04216
0.0421549
0.0421455
0.0421393
0.0421365
0.0421275
0.0421085
0.0420817
0.042036
0.0419602
0.0418968
0.0418382
0.0417689
0.0418143
0.0418904
0.0419658
0.0420151
0.0420553
0.0420726
0.0420839
0.0420982
0.0421135
0.0421361
0.0421597
0.0421843
0.0422038
0.0422358
0.0422801
0.0423218
0.0423184
0.042133
0.042133
0.042133
0.042133
0.042133
0.042133
0.042133
0.042133
0.042133
0.042133
0.042133
0.042133
0.042133
0.042133
0.042133
0.042133
0.042133
0.042133
0.042133
0.042133
0.042133
0.042133
0.042133
0.042133
0.042133
0.042133
0.042133
0.042133
0.042133
0.042133
0.042133
0.042133
0.042133
0.042133
0.042133
0.042133
0.042133
0.042133
0.042133
0.042133
0.042133
0.042133
0.042133
0.042133
0.042133
0.042133
0.042133
0.042133
0.042133
0.042133
0.042133
0.042133
0.042133
0.042133
0.042133
0.042133
0.042133
0.0421331
0.0421331
0.0421331
0.0421331
0.0421328
0.0421294
0.0421149
0.042088
0.0420587
0.0420368
0.0420249
0.0420213
0.0420242
0.042052
0.0421077
0.0421603
0.0421945
0.0422117
0.0422178
0.0422168
0.0422032
0.0421801
0.0421625
0.0421536
0.0421524
0.0421602
0.0421711
0.0421761
0.0421722
0.0421607
0.0421511
0.0421508
0.0421567
0.0421593
0.042154
0.0421444
0.042138
0.0421352
0.0421264
0.0421073
0.0420796
0.042031
0.0419488
0.0418948
0.0418208
0.041762
0.0418131
0.0418911
0.041967
0.0420147
0.0420541
0.0420697
0.0420823
0.0420955
0.0421103
0.0421326
0.0421545
0.0421789
0.0421956
0.0422267
0.0422666
0.0423007
0.0422851
0.042133
0.042133
0.042133
0.042133
0.042133
0.042133
0.042133
0.042133
0.042133
0.042133
0.042133
0.042133
0.042133
0.042133
0.042133
0.042133
0.042133
0.042133
0.042133
0.042133
0.042133
0.042133
0.042133
0.042133
0.042133
0.042133
0.042133
0.042133
0.042133
0.042133
0.042133
0.042133
0.042133
0.042133
0.042133
0.042133
0.042133
0.042133
0.042133
0.042133
0.042133
0.042133
0.042133
0.042133
0.042133
0.042133
0.042133
0.042133
0.042133
0.042133
0.042133
0.042133
0.042133
0.042133
0.042133
0.042133
0.042133
0.042133
0.0421331
0.0421331
0.0421331
0.0421328
0.0421293
0.0421147
0.0420876
0.0420583
0.0420362
0.0420244
0.0420207
0.0420237
0.0420515
0.0421072
0.0421598
0.042194
0.0422112
0.0422174
0.0422163
0.0422026
0.0421794
0.0421618
0.042153
0.0421518
0.0421596
0.0421704
0.0421754
0.0421714
0.0421599
0.0421502
0.04215
0.042156
0.0421586
0.0421531
0.0421432
0.0421368
0.042134
0.0421253
0.042106
0.0420771
0.0420257
0.0419362
0.0418929
0.0418027
0.0417559
0.0418118
0.041892
0.0419684
0.0420141
0.0420524
0.0420663
0.0420805
0.0420926
0.0421068
0.0421287
0.0421488
0.0421729
0.0421869
0.0422168
0.0422522
0.0422783
0.0422502
0.0419342
0.042133
0.042133
0.042133
0.042133
0.042133
0.042133
0.042133
0.042133
0.042133
0.042133
0.042133
0.042133
0.042133
0.042133
0.042133
0.042133
0.042133
0.042133
0.042133
0.042133
0.042133
0.042133
0.042133
0.042133
0.042133
0.042133
0.042133
0.042133
0.042133
0.042133
0.042133
0.042133
0.042133
0.042133
0.042133
0.042133
0.042133
0.042133
0.042133
0.042133
0.042133
0.042133
0.042133
0.042133
0.042133
0.042133
0.042133
0.042133
0.042133
0.042133
0.042133
0.042133
0.042133
0.042133
0.042133
0.042133
0.042133
0.042133
0.0421331
0.0421331
0.0421331
0.0421328
0.0421293
0.0421145
0.0420872
0.0420578
0.0420357
0.0420238
0.0420202
0.0420231
0.042051
0.0421067
0.0421593
0.0421935
0.0422107
0.0422168
0.0422157
0.042202
0.0421787
0.0421612
0.0421523
0.0421512
0.0421589
0.0421698
0.0421747
0.0421706
0.0421589
0.0421492
0.0421491
0.0421552
0.0421578
0.0421522
0.042142
0.0421355
0.0421327
0.0421242
0.0421045
0.042074
0.0420199
0.041923
0.0418899
0.0417847
0.0417502
0.0418106
0.0418931
0.04197
0.0420133
0.0420508
0.042063
0.0420787
0.0420894
0.042103
0.0421244
0.0421428
0.0421662
0.0421778
0.0422063
0.0422369
0.0422545
0.0422139
0.0418783
0.042133
0.042133
0.042133
0.042133
0.042133
0.042133
0.042133
0.042133
0.042133
0.042133
0.042133
0.042133
0.042133
0.042133
0.042133
0.042133
0.042133
0.042133
0.042133
0.042133
0.042133
0.042133
0.042133
0.042133
0.042133
0.042133
0.042133
0.042133
0.042133
0.042133
0.042133
0.042133
0.042133
0.042133
0.042133
0.042133
0.042133
0.042133
0.042133
0.042133
0.042133
0.042133
0.042133
0.042133
0.042133
0.042133
0.042133
0.042133
0.042133
0.042133
0.042133
0.042133
0.042133
0.042133
0.042133
0.042133
0.042133
0.042133
0.0421331
0.0421331
0.0421331
0.0421328
0.0421292
0.0421143
0.0420868
0.0420573
0.0420351
0.0420232
0.0420196
0.0420225
0.0420504
0.0421061
0.0421587
0.0421929
0.0422102
0.0422163
0.0422152
0.0422013
0.042178
0.0421605
0.0421517
0.0421505
0.0421582
0.042169
0.042174
0.0421698
0.0421579
0.0421482
0.0421482
0.0421545
0.0421571
0.0421513
0.0421409
0.0421342
0.0421314
0.0421232
0.042103
0.0420705
0.0420138
0.0419102
0.0418844
0.0417673
0.0417452
0.0418097
0.0418943
0.0419723
0.0420122
0.0420476
0.0420598
0.0420768
0.042086
0.0420989
0.0421199
0.0421364
0.042159
0.0421683
0.0421952
0.0422205
0.0422292
0.0421764
0.0418217
0.042133
0.042133
0.042133
0.042133
0.042133
0.042133
0.042133
0.042133
0.042133
0.042133
0.042133
0.042133
0.042133
0.042133
0.042133
0.042133
0.042133
0.042133
0.042133
0.042133
0.042133
0.042133
0.042133
0.042133
0.042133
0.042133
0.042133
0.042133
0.042133
0.042133
0.042133
0.042133
0.042133
0.042133
0.042133
0.042133
0.042133
0.042133
0.042133
0.042133
0.042133
0.042133
0.042133
0.042133
0.042133
0.042133
0.042133
0.042133
0.042133
0.042133
0.042133
0.042133
0.042133
0.042133
0.042133
0.042133
0.042133
0.042133
0.0421331
0.0421331
0.0421331
0.0421328
0.0421291
0.0421141
0.0420864
0.0420567
0.0420345
0.0420226
0.042019
0.0420219
0.0420498
0.0421055
0.0421581
0.0421923
0.0422096
0.0422157
0.0422146
0.0422006
0.0421772
0.0421597
0.042151
0.0421498
0.0421575
0.0421683
0.0421732
0.0421689
0.0421568
0.0421471
0.0421473
0.0421537
0.0421564
0.0421505
0.0421397
0.0421329
0.0421301
0.0421221
0.0421012
0.0420662
0.0420072
0.0418988
0.0418754
0.0417509
0.0417406
0.0418095
0.041896
0.041975
0.0420112
0.0420446
0.0420569
0.0420746
0.0420822
0.0420947
0.0421151
0.0421297
0.0421511
0.0421584
0.0421833
0.0422032
0.0422024
0.0421376
0.0417651
0.042133
0.042133
0.042133
0.042133
0.042133
0.042133
0.042133
0.042133
0.042133
0.042133
0.042133
0.042133
0.042133
0.042133
0.042133
0.042133
0.042133
0.042133
0.042133
0.042133
0.042133
0.042133
0.042133
0.042133
0.042133
0.042133
0.042133
0.042133
0.042133
0.042133
0.042133
0.042133
0.042133
0.042133
0.042133
0.042133
0.042133
0.042133
0.042133
0.042133
0.042133
0.042133
0.042133
0.042133
0.042133
0.042133
0.042133
0.042133
0.042133
0.042133
0.042133
0.042133
0.042133
0.042133
0.042133
0.042133
0.042133
0.042133
0.0421331
0.0421331
0.0421331
0.0421328
0.0421291
0.0421138
0.042086
0.0420562
0.0420338
0.0420219
0.0420183
0.0420213
0.0420492
0.0421049
0.0421575
0.0421917
0.042209
0.0422151
0.042214
0.0421999
0.0421765
0.0421589
0.0421502
0.0421491
0.0421567
0.0421675
0.0421724
0.0421679
0.0421557
0.042146
0.0421463
0.0421529
0.0421557
0.0421496
0.0421387
0.0421317
0.0421289
0.0421211
0.0420989
0.0420611
0.0419999
0.0418901
0.041863
0.041736
0.0417367
0.0418107
0.0418983
0.0419768
0.0420102
0.0420413
0.0420539
0.0420721
0.0420783
0.0420902
0.04211
0.0421229
0.0421426
0.042148
0.0421707
0.0421849
0.042174
0.0420976
0.041708
0.042133
0.042133
0.042133
0.042133
0.042133
0.042133
0.042133
0.042133
0.042133
0.042133
0.042133
0.042133
0.042133
0.042133
0.042133
0.042133
0.042133
0.042133
0.042133
0.042133
0.042133
0.042133
0.042133
0.042133
0.042133
0.042133
0.042133
0.042133
0.042133
0.042133
0.042133
0.042133
0.042133
0.042133
0.042133
0.042133
0.042133
0.042133
0.042133
0.042133
0.042133
0.042133
0.042133
0.042133
0.042133
0.042133
0.042133
0.042133
0.042133
0.042133
0.042133
0.042133
0.042133
0.042133
0.042133
0.042133
0.042133
0.042133
0.0421331
0.0421331
0.0421331
0.0421328
0.042129
0.0421136
0.0420856
0.0420556
0.0420332
0.0420212
0.0420176
0.0420206
0.0420485
0.0421042
0.0421568
0.042191
0.0422083
0.0422145
0.0422133
0.0421992
0.0421757
0.0421581
0.0421494
0.0421483
0.0421559
0.0421666
0.0421715
0.0421669
0.0421545
0.0421448
0.0421452
0.0421521
0.042155
0.0421489
0.0421377
0.0421305
0.0421277
0.0421199
0.0420962
0.0420549
0.0419913
0.0418842
0.0418474
0.0417225
0.0417334
0.0418138
0.0419018
0.0419782
0.0420102
0.0420382
0.0420509
0.0420691
0.042074
0.0420855
0.0421047
0.0421159
0.0421335
0.042137
0.0421572
0.0421657
0.0421443
0.0420561
0.0416509
0.042133
0.042133
0.042133
0.042133
0.042133
0.042133
0.042133
0.042133
0.042133
0.042133
0.042133
0.042133
0.042133
0.042133
0.042133
0.042133
0.042133
0.042133
0.042133
0.042133
0.042133
0.042133
0.042133
0.042133
0.042133
0.042133
0.042133
0.042133
0.042133
0.042133
0.042133
0.042133
0.042133
0.042133
0.042133
0.042133
0.042133
0.042133
0.042133
0.042133
0.042133
0.042133
0.042133
0.042133
0.042133
0.042133
0.042133
0.042133
0.042133
0.042133
0.042133
0.042133
0.042133
0.042133
0.042133
0.042133
0.042133
0.042133
0.0421331
0.0421331
0.0421331
0.0421328
0.0421289
0.0421134
0.0420851
0.042055
0.0420325
0.0420205
0.0420169
0.0420199
0.0420478
0.0421035
0.0421561
0.0421903
0.0422076
0.0422138
0.0422127
0.0421984
0.0421748
0.0421573
0.0421486
0.0421476
0.042155
0.0421657
0.0421706
0.0421659
0.0421533
0.0421435
0.0421441
0.0421512
0.0421543
0.0421482
0.0421368
0.0421294
0.0421265
0.0421185
0.0420933
0.042048
0.041981
0.0418808
0.0418291
0.0417111
0.0417311
0.0418182
0.0419064
0.0419794
0.0420089
0.0420353
0.0420479
0.0420657
0.0420695
0.0420806
0.042099
0.0421088
0.0421238
0.0421254
0.0421426
0.0421457
0.0421135
0.0420134
0.0415934
0.042133
0.042133
0.042133
0.042133
0.042133
0.042133
0.042133
0.042133
0.042133
0.042133
0.042133
0.042133
0.042133
0.042133
0.042133
0.042133
0.042133
0.042133
0.042133
0.042133
0.042133
0.042133
0.042133
0.042133
0.042133
0.042133
0.042133
0.042133
0.042133
0.042133
0.042133
0.042133
0.042133
0.042133
0.042133
0.042133
0.042133
0.042133
0.042133
0.042133
0.042133
0.042133
0.042133
0.042133
0.042133
0.042133
0.042133
0.042133
0.042133
0.042133
0.042133
0.042133
0.042133
0.042133
0.042133
0.042133
0.042133
0.042133
0.0421331
0.0421331
0.0421331
0.0421328
0.0421289
0.0421131
0.0420847
0.0420543
0.0420317
0.0420197
0.0420161
0.0420191
0.042047
0.0421027
0.0421553
0.0421896
0.0422069
0.0422131
0.042212
0.0421976
0.0421739
0.0421564
0.0421478
0.0421467
0.0421541
0.0421648
0.0421696
0.0421647
0.0421519
0.0421421
0.0421429
0.0421503
0.0421536
0.0421475
0.0421359
0.0421282
0.0421253
0.0421172
0.0420904
0.0420409
0.0419701
0.0418771
0.0418089
0.0417016
0.0417304
0.0418233
0.0419126
0.0419811
0.0420075
0.0420324
0.0420449
0.0420618
0.0420647
0.0420753
0.0420929
0.0421013
0.0421135
0.0421134
0.0421271
0.0421246
0.0420814
0.0419693
0.0415358
0.042133
0.042133
0.042133
0.042133
0.042133
0.042133
0.042133
0.042133
0.042133
0.042133
0.042133
0.042133
0.042133
0.042133
0.042133
0.042133
0.042133
0.042133
0.042133
0.042133
0.042133
0.042133
0.042133
0.042133
0.042133
0.042133
0.042133
0.042133
0.042133
0.042133
0.042133
0.042133
0.042133
0.042133
0.042133
0.042133
0.042133
0.042133
0.042133
0.042133
0.042133
0.042133
0.042133
0.042133
0.042133
0.042133
0.042133
0.042133
0.042133
0.042133
0.042133
0.042133
0.042133
0.042133
0.042133
0.042133
0.042133
0.042133
0.0421331
0.0421331
0.0421331
0.0421327
0.0421288
0.0421129
0.0420842
0.0420537
0.042031
0.0420189
0.0420153
0.0420183
0.0420461
0.0421019
0.0421545
0.0421888
0.0422061
0.0422123
0.0422112
0.0421968
0.042173
0.0421555
0.0421469
0.0421458
0.0421532
0.0421638
0.0421686
0.0421636
0.0421506
0.0421407
0.0421417
0.0421493
0.0421529
0.0421469
0.0421352
0.0421272
0.042124
0.0421158
0.0420881
0.0420349
0.0419587
0.0418701
0.0417882
0.0416942
0.0417318
0.0418282
0.0419205
0.0419839
0.042006
0.0420295
0.0420416
0.0420576
0.0420596
0.0420698
0.0420864
0.0420933
0.0421025
0.0421009
0.0421106
0.0421025
0.0420484
0.0419241
0.0414782
0.042133
0.042133
0.042133
0.042133
0.042133
0.042133
0.042133
0.042133
0.042133
0.042133
0.042133
0.042133
0.042133
0.042133
0.042133
0.042133
0.042133
0.042133
0.042133
0.042133
0.042133
0.042133
0.042133
0.042133
0.042133
0.042133
0.042133
0.042133
0.042133
0.042133
0.042133
0.042133
0.042133
0.042133
0.042133
0.042133
0.042133
0.042133
0.042133
0.042133
0.042133
0.042133
0.042133
0.042133
0.042133
0.042133
0.042133
0.042133
0.042133
0.042133
0.042133
0.042133
0.042133
0.042133
0.042133
0.042133
0.042133
0.042133
0.0421331
0.0421331
0.0421331
0.0421327
0.0421287
0.0421126
0.0420837
0.042053
0.0420302
0.0420181
0.0420145
0.0420175
0.0420452
0.0421009
0.0421537
0.042188
0.0422053
0.0422116
0.0422105
0.0421959
0.042172
0.0421545
0.0421459
0.0421449
0.0421522
0.0421628
0.0421675
0.0421623
0.0421491
0.0421393
0.0421403
0.0421483
0.0421522
0.0421462
0.0421344
0.042126
0.042123
0.0421148
0.0420858
0.0420292
0.0419472
0.0418588
0.0417689
0.04169
0.0417355
0.0418334
0.0419305
0.0419831
0.042005
0.0420264
0.0420382
0.042053
0.0420543
0.042064
0.0420792
0.0420847
0.0420908
0.0420882
0.0420933
0.0420791
0.0420143
0.0418774
0.0414205
0.042133
0.042133
0.042133
0.042133
0.042133
0.042133
0.042133
0.042133
0.042133
0.042133
0.042133
0.042133
0.042133
0.042133
0.042133
0.042133
0.042133
0.042133
0.042133
0.042133
0.042133
0.042133
0.042133
0.042133
0.042133
0.042133
0.042133
0.042133
0.042133
0.042133
0.042133
0.042133
0.042133
0.042133
0.042133
0.042133
0.042133
0.042133
0.042133
0.042133
0.042133
0.042133
0.042133
0.042133
0.042133
0.042133
0.042133
0.042133
0.042133
0.042133
0.042133
0.042133
0.042133
0.042133
0.042133
0.042133
0.042133
0.042133
0.0421331
0.0421331
0.0421331
0.0421327
0.0421286
0.0421124
0.0420832
0.0420523
0.0420293
0.0420172
0.0420136
0.0420166
0.0420443
0.0421
0.0421527
0.0421871
0.0422045
0.0422107
0.0422096
0.042195
0.042171
0.0421535
0.042145
0.042144
0.0421512
0.0421617
0.0421664
0.042161
0.0421476
0.0421378
0.042139
0.0421472
0.0421514
0.0421456
0.0421336
0.0421249
0.0421221
0.0421141
0.0420835
0.0420233
0.041935
0.0418455
0.0417523
0.0416886
0.0417411
0.0418392
0.041941
0.0419832
0.0420039
0.0420231
0.0420345
0.0420482
0.0420488
0.0420578
0.0420715
0.0420755
0.0420785
0.0420748
0.0420751
0.0420544
0.0419794
0.0418299
0.0413631
0.042133
0.042133
0.042133
0.042133
0.042133
0.042133
0.042133
0.042133
0.042133
0.042133
0.042133
0.042133
0.042133
0.042133
0.042133
0.042133
0.042133
0.042133
0.042133
0.042133
0.042133
0.042133
0.042133
0.042133
0.042133
0.042133
0.042133
0.042133
0.042133
0.042133
0.042133
0.042133
0.042133
0.042133
0.042133
0.042133
0.042133
0.042133
0.042133
0.042133
0.042133
0.042133
0.042133
0.042133
0.042133
0.042133
0.042133
0.042133
0.042133
0.042133
0.042133
0.042133
0.042133
0.042133
0.042133
0.042133
0.042133
0.042133
0.0421331
0.0421331
0.0421331
0.0421327
0.0421286
0.0421121
0.0420827
0.0420516
0.0420285
0.0420163
0.0420127
0.0420157
0.0420433
0.0420989
0.0421517
0.0421862
0.0422036
0.0422099
0.0422088
0.042194
0.04217
0.0421525
0.042144
0.0421429
0.0421501
0.0421605
0.0421652
0.0421597
0.0421461
0.0421362
0.0421375
0.042146
0.0421506
0.0421448
0.0421327
0.0421238
0.0421215
0.0421128
0.042081
0.0420175
0.0419208
0.0418311
0.0417395
0.0416908
0.0417498
0.0418484
0.0419478
0.0419831
0.042003
0.0420196
0.0420306
0.042043
0.042043
0.0420512
0.0420631
0.0420657
0.0420658
0.042061
0.0420558
0.0420284
0.0419434
0.0417812
0.0413057
0.042133
0.042133
0.042133
0.042133
0.042133
0.042133
0.042133
0.042133
0.042133
0.042133
0.042133
0.042133
0.042133
0.042133
0.042133
0.042133
0.042133
0.042133
0.042133
0.042133
0.042133
0.042133
0.042133
0.042133
0.042133
0.042133
0.042133
0.042133
0.042133
0.042133
0.042133
0.042133
0.042133
0.042133
0.042133
0.042133
0.042133
0.042133
0.042133
0.042133
0.042133
0.042133
0.042133
0.042133
0.042133
0.042133
0.042133
0.042133
0.042133
0.042133
0.042133
0.042133
0.042133
0.042133
0.042133
0.042133
0.042133
0.042133
0.0421331
0.0421331
0.0421331
0.0421327
0.0421285
0.0421118
0.0420822
0.0420508
0.0420276
0.0420153
0.0420117
0.0420147
0.0420422
0.0420978
0.0421507
0.0421851
0.0422026
0.042209
0.0422079
0.042193
0.0421689
0.0421514
0.0421429
0.0421419
0.0421489
0.0421593
0.0421639
0.0421583
0.0421445
0.0421347
0.042136
0.0421448
0.0421496
0.042144
0.0421317
0.0421227
0.0421214
0.0421117
0.0420778
0.0420115
0.0419041
0.0418179
0.0417312
0.0416965
0.0417606
0.0418618
0.0419518
0.041983
0.0420023
0.0420162
0.0420264
0.0420375
0.042037
0.0420443
0.0420542
0.0420556
0.0420526
0.0420465
0.0420354
0.0420012
0.0419069
0.0417319
0.0412488
0.042133
0.042133
0.042133
0.042133
0.042133
0.042133
0.042133
0.042133
0.042133
0.042133
0.042133
0.042133
0.042133
0.042133
0.042133
0.042133
0.042133
0.042133
0.042133
0.042133
0.042133
0.042133
0.042133
0.042133
0.042133
0.042133
0.042133
0.042133
0.042133
0.042133
0.042133
0.042133
0.042133
0.042133
0.042133
0.042133
0.042133
0.042133
0.042133
0.042133
0.042133
0.042133
0.042133
0.042133
0.042133
0.042133
0.042133
0.042133
0.042133
0.042133
0.042133
0.042133
0.042133
0.042133
0.042133
0.042133
0.042133
0.042133
0.0421331
0.0421331
0.042133
0.0421327
0.0421284
0.0421116
0.0420816
0.04205
0.0420267
0.0420143
0.0420107
0.0420136
0.042041
0.0420966
0.0421495
0.0421841
0.0422016
0.042208
0.042207
0.042192
0.0421678
0.0421503
0.0421418
0.0421407
0.0421477
0.042158
0.0421626
0.0421568
0.0421429
0.0421331
0.0421345
0.0421434
0.0421484
0.042143
0.0421305
0.0421218
0.0421213
0.0421102
0.0420733
0.0420045
0.0418871
0.0418067
0.0417266
0.0417062
0.0417753
0.0418776
0.0419536
0.0419828
0.0420001
0.0420121
0.0420219
0.0420318
0.0420308
0.0420369
0.0420447
0.0420448
0.0420387
0.0420312
0.0420141
0.0419727
0.0418695
0.0416817
0.0411925
0.042133
0.042133
0.042133
0.042133
0.042133
0.042133
0.042133
0.042133
0.042133
0.042133
0.042133
0.042133
0.042133
0.042133
0.042133
0.042133
0.042133
0.042133
0.042133
0.042133
0.042133
0.042133
0.042133
0.042133
0.042133
0.042133
0.042133
0.042133
0.042133
0.042133
0.042133
0.042133
0.042133
0.042133
0.042133
0.042133
0.042133
0.042133
0.042133
0.042133
0.042133
0.042133
0.042133
0.042133
0.042133
0.042133
0.042133
0.042133
0.042133
0.042133
0.042133
0.042133
0.042133
0.042133
0.042133
0.042133
0.042133
0.042133
0.0421331
0.0421331
0.042133
0.0421327
0.0421283
0.0421113
0.0420811
0.0420492
0.0420257
0.0420133
0.0420096
0.0420126
0.0420398
0.0420953
0.0421483
0.0421829
0.0422006
0.042207
0.042206
0.0421909
0.0421667
0.0421491
0.0421406
0.0421395
0.0421464
0.0421566
0.0421612
0.0421553
0.0421413
0.0421315
0.0421328
0.0421418
0.0421471
0.0421417
0.0421292
0.0421211
0.0421212
0.0421084
0.0420672
0.0419923
0.0418769
0.0417987
0.0417281
0.0417214
0.0417922
0.0418924
0.0419556
0.0419825
0.0419977
0.042008
0.0420172
0.0420258
0.0420244
0.0420292
0.042035
0.0420336
0.0420242
0.0420149
0.0419918
0.041943
0.0418315
0.041631
0.0411368
0.042133
0.042133
0.042133
0.042133
0.042133
0.042133
0.042133
0.042133
0.042133
0.042133
0.042133
0.042133
0.042133
0.042133
0.042133
0.042133
0.042133
0.042133
0.042133
0.042133
0.042133
0.042133
0.042133
0.042133
0.042133
0.042133
0.042133
0.042133
0.042133
0.042133
0.042133
0.042133
0.042133
0.042133
0.042133
0.042133
0.042133
0.042133
0.042133
0.042133
0.042133
0.042133
0.042133
0.042133
0.042133
0.042133
0.042133
0.042133
0.042133
0.042133
0.042133
0.042133
0.042133
0.042133
0.042133
0.042133
0.042133
0.042133
0.0421331
0.0421331
0.042133
0.0421327
0.0421283
0.042111
0.0420805
0.0420484
0.0420247
0.0420122
0.0420085
0.0420114
0.0420384
0.0420939
0.042147
0.0421817
0.0421995
0.0422059
0.042205
0.0421898
0.0421655
0.0421479
0.0421394
0.0421383
0.042145
0.0421551
0.0421598
0.0421538
0.0421397
0.0421299
0.0421311
0.04214
0.0421453
0.04214
0.0421276
0.0421203
0.0421206
0.0421058
0.0420604
0.0419782
0.0418725
0.0417943
0.0417358
0.0417408
0.0418141
0.0419038
0.0419568
0.0419809
0.0419944
0.0420038
0.0420122
0.0420198
0.0420179
0.0420211
0.0420248
0.0420216
0.0420092
0.0419977
0.0419688
0.0419121
0.0417928
0.0415798
0.0410818
0.042133
0.042133
0.042133
0.042133
0.042133
0.042133
0.042133
0.042133
0.042133
0.042133
0.042133
0.042133
0.042133
0.042133
0.042133
0.042133
0.042133
0.042133
0.042133
0.042133
0.042133
0.042133
0.042133
0.042133
0.042133
0.042133
0.042133
0.042133
0.042133
0.042133
0.042133
0.042133
0.042133
0.042133
0.042133
0.042133
0.042133
0.042133
0.042133
0.042133
0.042133
0.042133
0.042133
0.042133
0.042133
0.042133
0.042133
0.042133
0.042133
0.042133
0.042133
0.042133
0.042133
0.042133
0.042133
0.042133
0.042133
0.042133
0.0421331
0.0421331
0.042133
0.0421327
0.0421282
0.0421107
0.04208
0.0420475
0.0420236
0.042011
0.0420073
0.0420102
0.042037
0.0420924
0.0421455
0.0421804
0.0421983
0.0422048
0.0422039
0.0421887
0.0421643
0.0421466
0.0421381
0.042137
0.0421435
0.0421536
0.0421583
0.0421523
0.0421382
0.0421283
0.0421293
0.0421379
0.0421431
0.0421378
0.0421257
0.0421193
0.0421196
0.0421025
0.0420539
0.0419668
0.0418695
0.0417943
0.0417484
0.041765
0.0418364
0.0419126
0.0419573
0.0419791
0.0419909
0.0419994
0.0420071
0.0420135
0.0420112
0.0420125
0.0420143
0.0420089
0.0419936
0.0419795
0.0419448
0.04188
0.0417533
0.0415283
0.0410277
0.042133
0.042133
0.042133
0.042133
0.042133
0.042133
0.042133
0.042133
0.042133
0.042133
0.042133
0.042133
0.042133
0.042133
0.042133
0.042133
0.042133
0.042133
0.042133
0.042133
0.042133
0.042133
0.042133
0.042133
0.042133
0.042133
0.042133
0.042133
0.042133
0.042133
0.042133
0.042133
0.042133
0.042133
0.042133
0.042133
0.042133
0.042133
0.042133
0.042133
0.042133
0.042133
0.042133
0.042133
0.042133
0.042133
0.042133
0.042133
0.042133
0.042133
0.042133
0.042133
0.042133
0.042133
0.042133
0.042133
0.042133
0.042133
0.0421331
0.0421331
0.042133
0.0421327
0.0421281
0.0421105
0.0420794
0.0420467
0.0420225
0.0420098
0.0420061
0.0420089
0.0420355
0.0420908
0.042144
0.0421791
0.042197
0.0422036
0.0422028
0.0421875
0.042163
0.0421453
0.0421368
0.0421356
0.0421419
0.0421519
0.0421567
0.0421508
0.0421366
0.0421267
0.0421273
0.0421354
0.0421404
0.0421351
0.0421234
0.0421177
0.0421177
0.0420983
0.0420459
0.0419606
0.0418717
0.0418001
0.0417683
0.0417934
0.0418575
0.0419201
0.0419572
0.0419766
0.0419872
0.0419948
0.0420018
0.0420072
0.0420041
0.0420034
0.0420034
0.0419954
0.0419776
0.0419604
0.0419201
0.0418469
0.041713
0.0414765
0.0409746
0.042133
0.042133
0.042133
0.042133
0.042133
0.042133
0.042133
0.042133
0.042133
0.042133
0.042133
0.042133
0.042133
0.042133
0.042133
0.042133
0.042133
0.042133
0.042133
0.042133
0.042133
0.042133
0.042133
0.042133
0.042133
0.042133
0.042133
0.042133
0.042133
0.042133
0.042133
0.042133
0.042133
0.042133
0.042133
0.042133
0.042133
0.042133
0.042133
0.042133
0.042133
0.042133
0.042133
0.042133
0.042133
0.042133
0.042133
0.042133
0.042133
0.042133
0.042133
0.042133
0.042133
0.042133
0.042133
0.042133
0.042133
0.042133
0.0421331
0.0421331
0.042133
0.0421327
0.0421281
0.0421102
0.0420788
0.0420458
0.0420214
0.0420085
0.0420048
0.0420075
0.0420338
0.042089
0.0421424
0.0421776
0.0421957
0.0422024
0.0422016
0.0421863
0.0421617
0.0421439
0.0421354
0.0421341
0.0421403
0.0421502
0.042155
0.0421492
0.0421351
0.042125
0.0421252
0.0421327
0.0421373
0.0421319
0.0421206
0.0421157
0.0421152
0.0420939
0.0420393
0.041959
0.0418757
0.0418134
0.0417935
0.0418186
0.0418742
0.0419257
0.0419569
0.041974
0.0419833
0.0419901
0.0419964
0.0420006
0.0419965
0.0419938
0.041992
0.0419812
0.0419611
0.0419402
0.0418944
0.0418128
0.0416719
0.0414247
0.0409228
0.042133
0.042133
0.042133
0.042133
0.042133
0.042133
0.042133
0.042133
0.042133
0.042133
0.042133
0.042133
0.042133
0.042133
0.042133
0.042133
0.042133
0.042133
0.042133
0.042133
0.042133
0.042133
0.042133
0.042133
0.042133
0.042133
0.042133
0.042133
0.042133
0.042133
0.042133
0.042133
0.042133
0.042133
0.042133
0.042133
0.042133
0.042133
0.042133
0.042133
0.042133
0.042133
0.042133
0.042133
0.042133
0.042133
0.042133
0.042133
0.042133
0.042133
0.042133
0.042133
0.042133
0.042133
0.042133
0.042133
0.042133
0.042133
0.042133
0.0421331
0.042133
0.0421327
0.042128
0.04211
0.0420783
0.0420449
0.0420202
0.0420072
0.0420034
0.0420061
0.0420321
0.0420871
0.0421406
0.042176
0.0421943
0.0422011
0.0422004
0.0421851
0.0421603
0.0421425
0.0421339
0.0421326
0.0421385
0.0421483
0.0421533
0.0421476
0.0421335
0.0421233
0.042123
0.0421296
0.0421337
0.0421283
0.0421173
0.0421129
0.0421118
0.0420892
0.0420353
0.0419622
0.0418854
0.0418323
0.0418213
0.0418512
0.0418889
0.0419298
0.041956
0.0419713
0.0419794
0.0419854
0.0419909
0.0419937
0.0419882
0.0419836
0.0419801
0.0419662
0.0419442
0.0419191
0.0418679
0.041778
0.0416302
0.0413732
0.0408726
0.042133
0.042133
0.042133
0.042133
0.042133
0.042133
0.042133
0.042133
0.042133
0.042133
0.042133
0.042133
0.042133
0.042133
0.042133
0.042133
0.042133
0.042133
0.042133
0.042133
0.042133
0.042133
0.042133
0.042133
0.042133
0.042133
0.042133
0.042133
0.042133
0.042133
0.042133
0.042133
0.042133
0.042133
0.042133
0.042133
0.042133
0.042133
0.042133
0.042133
0.042133
0.042133
0.042133
0.042133
0.042133
0.042133
0.042133
0.042133
0.042133
0.042133
0.042133
0.042133
0.042133
0.042133
0.042133
0.042133
0.042133
0.042133
0.042133
0.0421331
0.042133
0.0421327
0.042128
0.0421098
0.0420777
0.042044
0.042019
0.0420058
0.0420019
0.0420046
0.0420302
0.0420851
0.0421387
0.0421743
0.0421927
0.0421997
0.0421991
0.0421838
0.0421589
0.042141
0.0421324
0.042131
0.0421367
0.0421464
0.0421515
0.0421458
0.0421318
0.0421215
0.0421206
0.0421264
0.0421299
0.0421244
0.0421138
0.0421094
0.0421075
0.0420843
0.0420341
0.0419688
0.0419001
0.0418584
0.0418485
0.0418695
0.0419008
0.0419326
0.0419548
0.0419684
0.0419757
0.0419809
0.0419853
0.0419863
0.0419792
0.0419729
0.0419678
0.0419506
0.0419266
0.0418969
0.0418403
0.0417425
0.041588
0.0413222
0.0408241
0.042133
0.042133
0.042133
0.042133
0.042133
0.042133
0.042133
0.042133
0.042133
0.042133
0.042133
0.042133
0.042133
0.042133
0.042133
0.042133
0.042133
0.042133
0.042133
0.042133
0.042133
0.042133
0.042133
0.042133
0.042133
0.042133
0.042133
0.042133
0.042133
0.042133
0.042133
0.042133
0.042133
0.042133
0.042133
0.042133
0.042133
0.042133
0.042133
0.042133
0.042133
0.042133
0.042133
0.042133
0.042133
0.042133
0.042133
0.042133
0.042133
0.042133
0.042133
0.042133
0.042133
0.042133
0.042133
0.042133
0.042133
0.042133
0.042133
0.0421331
0.042133
0.0421327
0.0421279
0.0421096
0.0420772
0.042043
0.0420178
0.0420044
0.0420004
0.042003
0.0420282
0.0420828
0.0421367
0.0421726
0.0421911
0.0421982
0.0421977
0.0421825
0.0421575
0.0421394
0.0421308
0.0421293
0.0421348
0.0421444
0.0421495
0.042144
0.04213
0.0421195
0.0421181
0.0421231
0.0421261
0.0421205
0.0421101
0.0421055
0.0421028
0.0420806
0.0420363
0.0419815
0.0419219
0.0418813
0.0418736
0.0418865
0.0419104
0.0419344
0.0419532
0.0419654
0.0419721
0.0419764
0.0419794
0.0419785
0.0419695
0.0419617
0.0419548
0.0419344
0.0419085
0.041874