/*--------------------------------*- C++ -*----------------------------------*\
| =========                 |                                                 |
| \\      /  F ield         | OpenFOAM: The Open Source CFD Toolbox           |
|  \\    /   O peration     | Version:  2412                                  |
|   \\  /    A nd           | Website:  www.openfoam.com                      |
|    \\/     M anipulation  |                                                 |
\*---------------------------------------------------------------------------*/
FoamFile
{
    version     2.0;
    format      ascii;
    arch        "LSB;label=32;scalar=64";
    class       volScalarField;
    location    "0.061";
    object      p;
}
// * * * * * * * * * * * * * * * * * * * * * * * * * * * * * * * * * * * * * //

dimensions      [1 -1 -2 0 0 0 0];

internalField   nonuniform List<scalar> 
78650
(
2805.13
2806.69
2809.31
2807.91
2799.69
2787.27
2776.58
2769.57
2768.56
2773.37
2784.08
2799.78
2816.27
2829.17
2837.14
2841.54
2843.78
2844.76
2844.8
2843.94
2841.83
2838.25
2833.28
2827.37
2820.98
2814.49
2808.07
2801.8
2795.79
2790.04
2784.52
2779.21
2774.13
2769.3
2764.7
2760.32
2756.12
2752.1
2748.24
2744.56
2741.06
2737.76
2734.64
2731.69
2728.92
2726.35
2723.97
2721.79
2719.79
2717.94
2716.23
2714.65
2713.17
2711.8
2710.52
2709.33
2708.19
2707.07
2705.97
2704.86
2703.73
2702.54
2701.24
2699.82
2698.25
2696.52
2694.59
2692.39
2689.87
2686.94
2683.56
2679.67
2675.24
2670.21
2664.49
2658
2650.61
2642.19
2632.65
2621.85
2609.7
2596.1
2580.91
2564
2545.19
2524.34
2501.26
2475.86
2447.93
2417.54
2384.25
2348.13
2308.63
2266.85
2221.43
2173.1
2120.77
2064.64
2005.44
1945.68
1885.1
1824.16
1760.81
1697.36
1631.69
1567.97
1508.13
1451.55
1400.31
1353.07
1306.48
1262.92
1221.54
1183.53
1150.15
1119.47
1092.19
1067.5
1045.26
1025.07
985.444
2802.22
2806.58
2809.94
2809.05
2802.35
2789.47
2777.26
2768.62
2763.96
2764.25
2769.29
2781.02
2797.28
2812.81
2824.33
2831.88
2836.46
2839.32
2840.68
2840.8
2839.72
2837.01
2832.7
2827.14
2820.94
2814.56
2808.24
2802.12
2796.29
2790.76
2785.48
2780.37
2775.46
2770.78
2766.34
2762.14
2758.15
2754.35
2750.72
2747.25
2743.96
2740.86
2737.95
2735.22
2732.66
2730.29
2728.13
2726.18
2724.4
2722.8
2721.34
2720.01
2718.8
2717.71
2716.72
2715.82
2715
2714.21
2713.45
2712.71
2711.96
2711.18
2710.32
2709.36
2708.29
2707.07
2705.69
2704.1
2702.23
2700.01
2697.39
2694.32
2690.76
2686.67
2681.97
2676.59
2670.41
2663.32
2655.2
2645.95
2635.46
2623.63
2610.33
2595.45
2578.82
2560.33
2539.74
2516.93
2491.64
2463.83
2433.11
2399.61
2362.98
2323.83
2281.14
2236.22
2187.87
2136.59
2082.4
2024.52
1964.39
1902.71
1840.73
1779.38
1716.76
1651.66
1588.39
1524.42
1463.24
1407.94
1356.14
1308.39
1264.36
1222.93
1184.6
1150.45
1121.5
1096.5
1073.54
1051.05
1006.33
2799.69
2805.95
2810.02
2810.05
2805.43
2793.3
2779.39
2769.18
2763.12
2760.55
2761.54
2767.03
2779.05
2794.13
2807.93
2818.46
2825.77
2830.84
2834.23
2835.81
2835.82
2834.35
2831.05
2826.21
2820.47
2814.37
2808.2
2802.16
2796.4
2791.04
2786.03
2781.23
2776.61
2772.14
2767.87
2763.84
2760.06
2756.5
2753.11
2749.87
2746.8
2743.92
2741.23
2738.71
2736.38
2734.23
2732.3
2730.57
2729.04
2727.68
2726.48
2725.42
2724.48
2723.66
2722.97
2722.37
2721.87
2721.41
2721
2720.62
2720.26
2719.88
2719.47
2718.97
2718.37
2717.67
2716.84
2715.84
2714.61
2713.08
2711.2
2708.93
2706.21
2703.03
2699.31
2694.97
2689.94
2684.08
2677.31
2669.5
2660.55
2650.36
2638.83
2625.84
2611.24
2594.88
2576.53
2556.11
2533.41
2508.38
2480.69
2450.41
2417.27
2381.45
2341.83
2299.08
2252.3
2203.62
2152.04
2097.03
2039.29
1977.83
1915.96
1852.12
1791.06
1726.13
1663.16
1599.45
1534.58
1471.29
1411.93
1356.25
1305.24
1258.57
1213.79
1172.11
1135.72
1104.36
1080.4
1063.32
1023.1
2797.43
2804.66
2809.83
2811.04
2808.21
2797.75
2783.28
2771.22
2763.63
2759.85
2758.9
2760.45
2766.61
2777.45
2790.13
2801.91
2811.62
2819.22
2824.89
2828.52
2829.91
2829.6
2827.74
2824.07
2819.17
2813.61
2807.8
2801.97
2796.33
2791.05
2786.15
2781.61
2777.36
2773.25
2769.25
2765.42
2761.83
2758.5
2755.38
2752.39
2749.57
2746.93
2744.46
2742.18
2740.07
2738.16
2736.45
2734.96
2733.66
2732.56
2731.62
2730.82
2730.16
2729.62
2729.21
2728.91
2728.72
2728.6
2728.53
2728.51
2728.52
2728.54
2728.54
2728.49
2728.37
2728.17
2727.86
2727.43
2726.81
2725.94
2724.78
2723.27
2721.37
2719.06
2716.28
2712.96
2709.03
2704.39
2698.93
2692.53
2685.12
2676.58
2666.82
2655.72
2643.15
2628.96
2612.99
2595.12
2575.09
2552.79
2527.91
2500.47
2470.09
2436.67
2399.56
2359.78
2316.79
2271.59
2222.06
2169.1
2112.72
2052.66
1991.88
1927.1
1861.8
1796.42
1731.06
1669.11
1606.72
1543.86
1483.13
1424.66
1367.73
1315.59
1267.37
1222.13
1180.24
1138.4
1100.89
1072.15
1018.75
2795.37
2802.92
2809.37
2811.82
2810.14
2802.03
2788.33
2775.31
2765.78
2760.35
2758.48
2758.8
2761.22
2767.17
2775.73
2785.58
2795.4
2804.44
2812.1
2817.82
2821.37
2822.66
2822.16
2820.08
2816.39
2811.69
2806.54
2801.22
2795.93
2790.84
2786.05
2781.64
2777.59
2773.88
2770.3
2766.81
2763.48
2760.38
2757.51
2754.8
2752.25
2749.87
2747.66
2745.62
2743.76
2742.09
2740.63
2739.38
2738.33
2737.49
2736.81
2736.29
2735.9
2735.65
2735.54
2735.54
2735.67
2735.87
2736.15
2736.48
2736.87
2737.28
2737.7
2738.09
2738.44
2738.72
2738.93
2739.04
2739.02
2738.8
2738.34
2737.58
2736.46
2734.99
2733.11
2730.77
2727.89
2724.38
2720.16
2715.1
2709.11
2702.11
2693.99
2684.65
2673.97
2661.82
2648.03
2632.45
2614.85
2595.11
2573
2548.52
2521.35
2491.4
2458.26
2422.52
2383.44
2341.42
2294.79
2245.29
2192.32
2136.5
2077.73
2014.77
1946.74
1880.27
1809.95
1740.81
1673.27
1607.21
1543.91
1483.06
1423.08
1366.6
1314.27
1267.65
1226.89
1189.38
1150.4
1114.37
1047.66
2793.61
2800.88
2808.56
2812.11
2811.38
2805.83
2793.68
2780.68
2769.9
2762.48
2759.07
2758.65
2759.96
2763.22
2768.12
2773.97
2780.87
2788.89
2797.02
2804.36
2810.07
2813.22
2814.16
2813.62
2811.53
2808.12
2804
2799.5
2794.81
2790.13
2785.62
2781.4
2777.52
2774
2770.79
2767.77
2764.86
2762.08
2759.47
2757.04
2754.78
2752.69
2750.77
2749
2747.41
2745.99
2744.79
2743.79
2743
2742.42
2742.01
2741.77
2741.68
2741.71
2741.9
2742.22
2742.64
2743.18
2743.79
2744.48
2745.23
2746.03
2746.86
2747.69
2748.49
2749.25
2749.97
2750.61
2751.15
2751.55
2751.74
2751.71
2751.36
2750.72
2749.71
2748.29
2746.43
2744.02
2740.99
2737.24
2732.67
2727.18
2720.69
2713.11
2704.33
2694.21
2682.59
2669.33
2654.23
2637.18
2617.96
2596.5
2572.34
2545.38
2515.43
2482.87
2446.81
2407.32
2363.51
2317.34
2267.48
2214.55
2157.9
2098.48
2035.57
1970.63
1903.27
1831.86
1761.47
1688.39
1617.55
1548.18
1481.04
1416.75
1357.09
1301.64
1252.19
1210.58
1177.2
1149.26
1084.76
2792.23
2798.65
2807.21
2812.1
2812.24
2808.99
2798.68
2786.23
2775.23
2766.56
2761.16
2759.43
2759.99
2762.24
2765.6
2768.99
2772.41
2776.85
2782.64
2789.43
2795.93
2800.81
2803.52
2804.39
2803.99
2802.33
2799.59
2796.18
2792.41
2788.45
2784.48
2780.66
2777.1
2773.81
2770.83
2768.11
2765.71
2763.43
2761.21
2759.09
2757.13
2755.36
2753.74
2752.28
2750.98
2749.85
2748.91
2748.19
2747.67
2747.36
2747.25
2747.29
2747.5
2747.84
2748.32
2748.94
2749.69
2750.56
2751.52
2752.56
2753.68
2754.87
2756.1
2757.35
2758.6
2759.84
2761.05
2762.22
2763.33
2764.33
2765.16
2765.79
2766.19
2766.33
2766.16
2765.66
2764.77
2763.39
2761.49
2758.96
2755.71
2751.64
2746.67
2740.71
2733.67
2725.42
2715.83
2704.77
2692.05
2677.55
2661.01
2642.3
2621.12
2597.49
2571.16
2541.99
2509.03
2472.65
2432.66
2390.19
2343.57
2293.42
2238.55
2180.31
2119.87
2054.42
1989.6
1919.8
1852.18
1781.98
1711.24
1641.1
1572.31
1503.37
1437.07
1374.7
1312.7
1252.75
1203.15
1165.3
1091.09
2791.25
2796.41
2805.24
2811.74
2812.99
2811.4
2803.11
2791.47
2780.83
2771.86
2765
2761.41
2760.85
2762.14
2765.08
2768.12
2770.39
2772.28
2774.66
2778.25
2782.7
2787.39
2791.04
2793.15
2794.13
2794.14
2793.09
2791.06
2788.43
2785.49
2782.32
2779.12
2776.04
2773.16
2770.48
2768.05
2765.93
2764.16
2762.51
2760.84
2759.23
2757.78
2756.51
2755.39
2754.42
2753.59
2752.95
2752.51
2752.29
2752.26
2752.45
2752.8
2753.3
2753.94
2754.74
2755.67
2756.75
2757.95
2759.25
2760.64
2762.13
2763.69
2765.32
2766.99
2768.69
2770.38
2772.07
2773.75
2775.4
2776.97
2778.43
2779.74
2780.85
2781.72
2782.35
2782.7
2782.76
2782.39
2781.6
2780.25
2778.28
2775.6
2772.12
2767.78
2762.47
2756.09
2748.52
2739.63
2729.21
2717.16
2703.24
2687.32
2669.16
2648.68
2625.51
2599.46
2570.04
2537.8
2502.46
2464.14
2421.14
2374.35
2322.95
2268.29
2209.37
2147.06
2080.61
2009.53
1934.42
1860.93
1786.11
1713.55
1642.95
1572.98
1502.79
1439.99
1382.13
1328.76
1272.64
1222.17
1128.58
2790.62
2794.37
2802.82
2810.87
2813.55
2813.05
2807.1
2796.53
2786.2
2777.29
2769.77
2764.6
2762.71
2762.98
2765.14
2768.14
2770.3
2771.77
2773.11
2774.42
2775.84
2777.69
2779.7
2781.26
2782.61
2783.54
2783.83
2783.44
2782.29
2780.65
2778.6
2776.33
2774
2771.72
2769.54
2767.52
2765.74
2764.29
2763.12
2762.06
2760.96
2759.91
2759
2758.25
2757.64
2757.16
2756.85
2756.73
2756.81
2757.11
2757.59
2758.25
2759.07
2760.04
2761.15
2762.41
2763.81
2765.35
2767
2768.75
2770.6
2772.55
2774.57
2776.66
2778.79
2780.94
2783.1
2785.28
2787.45
2789.59
2791.65
2793.59
2795.39
2797.01
2798.42
2799.59
2800.49
2801.08
2801.3
2801.08
2800.33
2798.97
2796.86
2794.01
2790.28
2785.63
2779.91
2773.02
2764.79
2755.09
2743.71
2730.55
2715.35
2698.03
2678.21
2655.72
2630.23
2602.06
2570.57
2535.53
2495.93
2452.93
2405.91
2355.85
2301.29
2242.78
2180.34
2115.11
2043.85
1970.34
1892.43
1812.2
1732.02
1652.65
1572.9
1496.78
1426.17
1366.37
1317.6
1276.28
1185.82
2790.27
2792.69
2800.12
2809.36
2813.66
2814.27
2810.71
2801.44
2791.15
2782.29
2774.71
2768.66
2765.4
2764.79
2765.87
2768.64
2770.92
2772.3
2773.24
2774.05
2774.66
2774.71
2774.13
2773.51
2773.14
2773.18
2773.59
2774.07
2774.25
2773.95
2773.24
2772.13
2770.78
2769.29
2767.79
2766.33
2765.05
2763.98
2763.18
2762.56
2762.08
2761.6
2761.13
2760.77
2760.56
2760.47
2760.53
2760.76
2761.18
2761.79
2762.6
2763.59
2764.74
2766.04
2767.48
2769.07
2770.81
2772.69
2774.69
2776.8
2779.01
2781.33
2783.74
2786.23
2788.78
2791.38
2794.01
2796.66
2799.34
2802.01
2804.66
2807.22
2809.68
2811.99
2814.15
2816.11
2817.88
2819.38
2820.56
2821.37
2821.76
2821.69
2820.97
2819.6
2817.43
2814.46
2810.56
2805.64
2799.53
2792.12
2783.19
2772.65
2760.25
2745.85
2729.11
2709.91
2688.03
2663.51
2635.52
2603.96
2568.42
2529.8
2487.05
2440.24
2388.08
2332.14
2271.8
2207.65
2140.71
2068.31
1995.67
1919.09
1841.42
1764.08
1683.96
1604.26
1524.17
1444
1370.97
1312.08
1197.92
2790.1
2791.48
2797.38
2807.15
2813.31
2815.45
2813.59
2805.91
2795.76
2787
2779.59
2773.21
2768.82
2767.33
2767.62
2769.76
2772.26
2773.66
2774.32
2774.79
2774.97
2774.46
2773.26
2771.42
2769.17
2767.14
2765.8
2765.23
2765.29
2765.57
2765.83
2765.93
2765.77
2765.37
2764.83
2764.21
2763.59
2763.11
2762.76
2762.55
2762.51
2762.66
2762.79
2762.9
2763.1
2763.44
2763.91
2764.52
2765.3
2766.27
2767.44
2768.77
2770.27
2771.92
2773.71
2775.64
2777.72
2779.95
2782.3
2784.78
2787.36
2790.05
2792.85
2795.75
2798.72
2801.75
2804.84
2807.96
2811.13
2814.33
2817.53
2820.69
2823.78
2826.77
2829.64
2832.37
2834.93
2837.29
2839.41
2841.24
2842.68
2843.69
2844.23
2844.27
2843.57
2842.19
2839.95
2836.84
2832.69
2827.41
2820.8
2812.77
2803.07
2791.58
2778.03
2762.32
2744.14
2723.25
2698.99
2671.56
2640.77
2606.92
2568.7
2526.03
2478.13
2426.41
2369.94
2309.02
2242.73
2171.9
2096.81
2016.13
1932.22
1849.02
1766.95
1684.62
1608.68
1538.01
1467.26
1403.17
1274.89
2790.03
2790.71
2794.9
2804.33
2812.6
2816.19
2815.38
2809.93
2800.41
2791.72
2784.45
2777.98
2772.81
2770.37
2770.1
2771.44
2774.08
2775.84
2776.49
2776.63
2776.32
2775.31
2773.66
2771.34
2768.56
2765.68
2762.93
2760.6
2759.07
2758.41
2758.45
2758.92
2759.52
2760.13
2760.6
2760.91
2761.12
2761.38
2761.71
2762.05
2762.45
2763.03
2763.78
2764.54
2765.25
2766.03
2766.93
2767.96
2769.15
2770.51
2772.05
2773.75
2775.62
2777.62
2779.77
2782.05
2784.49
2787.06
2789.77
2792.61
2795.55
2798.61
2801.79
2805.08
2808.47
2811.92
2815.45
2819.03
2822.68
2826.38
2830.11
2833.84
2837.53
2841.17
2844.72
2848.17
2851.5
2854.68
2857.68
2860.45
2862.94
2865.1
2866.81
2868.05
2868.78
2868.96
2868.38
2867.04
2864.8
2861.56
2857.17
2851.5
2844.37
2835.64
2825.07
2812.53
2797.69
2780.34
2760.06
2737.09
2710.98
2681.48
2647.44
2609.27
2566.58
2520.02
2468.29
2412.05
2350.25
2283.61
2212.19
2137.72
2056.67
1970.49
1883.56
1788.71
1695.9
1607.83
1528.49
1463.82
1336.86
2790.01
2790.3
2792.92
2801.17
2811.14
2816.38
2816.53
2813.44
2805.06
2796.39
2789.21
2782.86
2777.26
2773.84
2772.99
2773.69
2776.14
2778.43
2779.32
2779.38
2778.85
2777.36
2775.03
2772.14
2768.97
2765.7
2762.44
2759.45
2756.89
2754.91
2753.74
2753.35
2753.58
2754.27
2755.2
2756.21
2757.27
2758.41
2759.6
2760.74
2761.79
2762.86
2764.1
2765.47
2766.83
2768.16
2769.56
2771.06
2772.68
2774.45
2776.38
2778.47
2780.71
2783.09
2785.61
2788.26
2791.05
2793.99
2797.06
2800.27
2803.58
2807.02
2810.58
2814.26
2818.05
2821.93
2825.89
2829.92
2834.03
2838.22
2842.46
2846.73
2851.01
2855.26
2859.46
2863.59
2867.65
2871.61
2875.44
2879.1
2882.55
2885.72
2888.57
2891.04
2893.03
2894.51
2895.43
2895.73
2895.27
2893.96
2891.65
2888.22
2883.53
2877.45
2869.76
2860.32
2848.8
2835.04
2818.69
2799.76
2777.58
2751.93
2722.16
2688.81
2651.25
2609.4
2562.04
2509.72
2451.57
2388.54
2320.24
2247.04
2170.46
2087.44
1999.49
1910.04
1816.84
1727.48
1632.88
1549.67
1389.43
2790
2790.11
2791.55
2798.04
2808.72
2816.01
2817.53
2816.18
2809.37
2800.89
2793.87
2787.82
2782.1
2777.79
2776.16
2776.31
2778.17
2780.85
2782.28
2782.5
2781.99
2780.31
2777.52
2774.04
2770.26
2766.44
2762.82
2759.47
2756.44
2753.96
2752.04
2750.74
2750.17
2750.22
2750.74
2751.7
2753.03
2754.69
2756.56
2758.49
2760.32
2762.09
2763.85
2765.73
2767.7
2769.68
2771.64
2773.65
2775.75
2777.98
2780.34
2782.85
2785.5
2788.28
2791.18
2794.21
2797.38
2800.68
2804.13
2807.7
2811.38
2815.19
2819.12
2823.18
2827.36
2831.65
2836.03
2840.5
2845.05
2849.7
2854.42
2859.21
2864.04
2868.87
2873.69
2878.47
2883.22
2887.91
2892.52
2897.02
2901.37
2905.53
2909.43
2913.03
2916.27
2919.1
2921.43
2923.22
2924.38
2924.88
2924.6
2923.3
2920.94
2917.29
2912.26
2905.66
2897.26
2886.9
2874.28
2859.26
2841.19
2820.02
2795.34
2767.39
2735.19
2698.41
2656.15
2608.96
2556.01
2497.86
2433.47
2363.67
2287.51
2205.68
2116.37
2027.98
1928.83
1836.33
1744.3
1663.48
1500.33
2790
2790.03
2790.73
2795.31
2805.67
2815.04
2818.3
2817.95
2813.12
2805.28
2798.47
2792.72
2787.07
2782.09
2779.47
2779.06
2780.16
2782.95
2785.05
2785.59
2785.22
2783.57
2780.6
2776.78
2772.54
2768.2
2764
2760.14
2756.77
2753.93
2751.64
2749.97
2748.87
2748.39
2748.43
2748.89
2749.86
2751.36
2753.39
2755.73
2758.15
2760.58
2763.01
2765.41
2767.95
2770.52
2773.07
2775.65
2778.29
2781.02
2783.87
2786.84
2789.92
2793.12
2796.44
2799.87
2803.42
2807.1
2810.92
2814.86
2818.92
2823.1
2827.41
2831.85
2836.42
2841.1
2845.89
2850.78
2855.78
2860.87
2866.06
2871.34
2876.69
2882.08
2887.48
2892.89
2898.28
2903.66
2909
2914.28
2919.47
2924.53
2929.4
2934.05
2938.41
2942.44
2946.1
2949.31
2952.01
2954.1
2955.51
2956.18
2956.06
2954.75
2952.33
2948.44
2943.06
2935.97
2926.88
2915.57
2901.52
2884.77
2864.86
2841.72
2814.31
2782.54
2745.84
2704.56
2657.76
2605.58
2546.54
2481.61
2409.85
2332.39
2249.59
2157.12
2061.55
1955.46
1853
1760.36
1586.84
2790
2790.01
2790.31
2793.2
2802.36
2813.4
2818.45
2819.12
2816.38
2809.54
2802.8
2797.24
2791.85
2786.55
2783.01
2781.97
2782.45
2784.87
2787.52
2788.46
2788.24
2786.76
2783.79
2779.84
2775.38
2770.71
2766.1
2761.76
2757.85
2754.54
2751.93
2749.97
2748.58
2747.82
2747.63
2747.77
2748.35
2749.51
2751.35
2753.66
2756.25
2759.02
2761.91
2764.85
2767.84
2770.92
2774.04
2777.19
2780.37
2783.63
2786.98
2790.43
2793.97
2797.62
2801.36
2805.2
2809.15
2813.22
2817.41
2821.73
2826.16
2830.72
2835.39
2840.2
2845.14
2850.21
2855.4
2860.69
2866.1
2871.62
2877.26
2883
2888.83
2894.74
2900.69
2906.67
2912.68
2918.7
2924.73
2930.73
2936.7
2942.6
2948.38
2954
2959.42
2964.6
2969.47
2974
2978.14
2981.81
2984.93
2987.37
2989.07
2989.92
2989.97
2988.62
2986.07
2981.92
2976.06
2968.26
2958.15
2945.69
2930.3
2911.76
2889.27
2862.91
2832.11
2796.76
2755.74
2708.95
2655.3
2595.5
2528.36
2454.99
2375.08
2287.67
2194.17
2093.85
1986.53
1887.82
1699.39
2790
2790
2790.11
2791.76
2799.17
2811.06
2818.04
2820.33
2818.96
2813.32
2806.67
2801.32
2796.35
2791.11
2786.89
2785.16
2785.15
2786.84
2789.74
2791.12
2791.09
2789.76
2786.82
2782.85
2778.33
2773.55
2768.74
2764.11
2759.83
2756.05
2752.93
2750.56
2748.9
2747.89
2747.51
2747.53
2747.91
2748.85
2750.44
2752.58
2755.1
2757.96
2761.05
2764.31
2767.71
2771.21
2774.8
2778.43
2782.11
2785.86
2789.7
2793.63
2797.64
2801.74
2805.92
2810.18
2814.54
2819
2823.58
2828.27
2833.08
2838
2843.04
2848.22
2853.53
2858.97
2864.54
2870.23
2876.04
2881.98
2888.04
2894.22
2900.52
2906.91
2913.38
2919.91
2926.49
2933.12
2939.78
2946.46
2953.15
2959.82
2966.43
2972.95
2979.33
2985.54
2991.53
2997.26
3002.69
3007.75
3012.39
3016.52
3020.07
3022.85
3024.85
3025.94
3026.1
3024.76
3022.06
3017.6
3011.23
3002.75
2991.59
2977.59
2960.14
2939.34
2914.36
2884.87
2849.83
2809.23
2762.15
2708.86
2648.2
2580.6
2504.26
2419.96
2327.7
2228.91
2120.07
2023.23
1849.1
2790
2790
2790.04
2790.89
2796.4
2808.21
2817.4
2821.24
2820.67
2816.5
2810.22
2805.11
2800.62
2795.67
2791.08
2788.61
2788.12
2789.13
2791.89
2793.65
2793.82
2792.56
2789.6
2785.63
2781.16
2776.4
2771.55
2766.83
2762.37
2758.32
2754.82
2752.03
2749.96
2748.59
2747.93
2747.82
2748.06
2748.8
2750.24
2752.29
2754.74
2757.58
2760.75
2764.16
2767.78
2771.57
2775.49
2779.5
2783.61
2787.8
2792.09
2796.48
2800.96
2805.51
2810.13
2814.82
2819.59
2824.44
2829.41
2834.48
2839.66
2844.95
2850.35
2855.88
2861.55
2867.35
2873.29
2879.36
2885.56
2891.88
2898.34
2904.94
2911.67
2918.52
2925.46
2932.5
2939.61
2946.79
2954.04
2961.35
2968.69
2976.07
2983.44
2990.78
2998.04
3005.2
3012.22
3019.06
3025.68
3032.05
3038.08
3043.74
3048.92
3053.57
3057.58
3060.75
3063.06
3064.35
3064.6
3063.25
3060.34
3055.48
3048.34
3038.77
3026.25
3010.72
2991.19
2967.43
2938.58
2904.6
2864.49
2818.09
2764.08
2702.59
2632.34
2554.06
2466.18
2368.83
2264.27
2153.65
1967.97
2790
2790
2790.01
2790.43
2794.25
2805.2
2816.44
2821.71
2821.76
2819.15
2813.53
2808.67
2804.6
2800.02
2795.31
2792.25
2791.33
2791.84
2794.16
2796.09
2796.43
2795.19
2792.16
2788.16
2783.75
2779.07
2774.27
2769.57
2765.1
2760.95
2757.27
2754.2
2751.83
2750.11
2749.09
2748.72
2748.77
2749.25
2750.5
2752.42
2754.78
2757.59
2760.77
2764.27
2768.03
2772.02
2776.2
2780.52
2784.97
2789.55
2794.25
2799.06
2803.96
2808.95
2814
2819.12
2824.3
2829.55
2834.9
2840.35
2845.9
2851.55
2857.31
2863.19
2869.2
2875.36
2881.65
2888.08
2894.64
2901.34
2908.18
2915.17
2922.31
2929.58
2936.97
2944.48
2952.09
2959.79
2967.58
2975.46
2983.42
2991.44
2999.51
3007.59
3015.66
3023.68
3031.63
3039.46
3047.16
3054.68
3061.97
3068.99
3075.66
3081.93
3087.7
3092.88
3097.37
3100.95
3103.59
3105.1
3105.45
3104.04
3100.79
3095.41
3087.48
3076.82
3062.54
3044.57
3022.05
2994.78
2961.66
2922.31
2875.44
2821.06
2758.12
2686.93
2605.26
2515.78
2413.58
2309.9
2139.16
2790
2790
2790
2790.2
2792.73
2802.37
2814.97
2821.8
2822.7
2821.31
2816.54
2811.92
2808.17
2804.01
2799.43
2796.02
2794.76
2794.93
2796.61
2798.45
2798.88
2797.61
2794.47
2790.4
2786.02
2781.42
2776.72
2772.11
2767.73
2763.62
2759.91
2756.74
2754.2
2752.27
2750.99
2750.36
2750.23
2750.47
2751.47
2753.18
2755.37
2758.08
2761.23
2764.74
2768.58
2772.7
2777.05
2781.61
2786.33
2791.22
2796.26
2801.45
2806.75
2812.14
2817.6
2823.13
2828.71
2834.36
2840.08
2845.9
2851.81
2857.81
2863.92
2870.14
2876.49
2882.98
2889.61
2896.38
2903.29
2910.34
2917.54
2924.9
2932.41
2940.08
2947.88
2955.82
2963.88
2972.05
2980.34
2988.75
2997.26
3005.87
3014.56
3023.31
3032.1
3040.9
3049.68
3058.41
3067.08
3075.65
3084.08
3092.33
3100.35
3108.08
3115.44
3122.38
3128.77
3134.52
3139.53
3143.55
3146.52
3148.25
3148.67
3147.13
3143.51
3137.41
3128.25
3115.95
3099.6
3078.88
3052.57
3020.28
2980.83
2934.1
2878.71
2813.71
2737.35
2650.7
2549.3
2442.42
2279.6
2790
2790
2790
2790.09
2791.74
2799.95
2813.21
2821.6
2823.68
2822.99
2819.11
2814.79
2811.37
2807.66
2803.38
2799.88
2798.33
2798.19
2799.21
2800.71
2801.07
2799.68
2796.39
2792.22
2787.84
2783.31
2778.74
2774.29
2770.07
2766.1
2762.48
2759.32
2756.74
2754.74
2753.33
2752.52
2752.25
2752.35
2753.13
2754.62
2756.6
2759.15
2762.2
2765.67
2769.51
2773.69
2778.15
2782.86
2787.79
2792.92
2798.25
2803.75
2809.39
2815.15
2820.99
2826.9
2832.86
2838.88
2844.97
2851.15
2857.41
2863.76
2870.19
2876.74
2883.41
2890.22
2897.18
2904.27
2911.51
2918.89
2926.43
2934.13
2941.99
2950.02
2958.21
2966.54
2975.02
2983.63
2992.38
3001.26
3010.28
3019.42
3028.67
3038.03
3047.47
3056.97
3066.49
3076.04
3085.57
3095.07
3104.51
3113.85
3123.05
3132.07
3140.86
3149.34
3157.43
3165.07
3172.11
3178.47
3184.04
3188.52
3191.86
3193.78
3194.2
3192.39
3188.14
3181.11
3170.55
3156.15
3136.83
3112.28
3081.16
3043.02
2996.18
2939.8
2872.8
2793.79
2702.46
2597.31
2448.34
2790
2790
2790
2790.05
2791.14
2798.03
2811.46
2821.34
2824.52
2824.25
2821.26
2817.34
2814.26
2811.02
2807.12
2803.71
2801.9
2801.42
2801.81
2802.76
2802.87
2801.23
2797.76
2793.5
2789.11
2784.67
2780.25
2776.02
2772.03
2768.26
2764.8
2761.75
2759.23
2757.25
2755.81
2754.95
2754.59
2754.63
2755.31
2756.64
2758.45
2760.83
2763.74
2767.11
2770.89
2775.06
2779.57
2784.38
2789.44
2794.75
2800.3
2806.06
2811.99
2818.06
2824.24
2830.5
2836.81
2843.18
2849.62
2856.14
2862.73
2869.4
2876.16
2883.02
2890
2897.12
2904.38
2911.78
2919.32
2927.02
2934.87
2942.88
2951.07
2959.44
2967.97
2976.67
2985.52
2994.53
3003.69
3013
3022.47
3032.09
3041.85
3051.75
3061.76
3071.88
3082.07
3092.32
3102.61
3112.94
3123.27
3133.57
3143.83
3153.99
3164.02
3173.86
3183.47
3192.76
3201.63
3210.01
3217.79
3224.83
3231
3235.94
3239.61
3241.72
3242.18
3240.05
3235.12
3226.78
3214.25
3197.01
3173.64
3143.56
3105.06
3057.48
2998.45
2925.55
2839.79
2736
2597.29
2790
2790
2790
2790.03
2790.78
2796.63
2809.95
2821.14
2825.17
2825.25
2823.06
2819.62
2816.92
2814.12
2810.63
2807.38
2805.34
2804.45
2804.26
2804.47
2804.17
2802.19
2798.55
2794.22
2789.83
2785.49
2781.26
2777.26
2773.52
2770.01
2766.77
2763.9
2761.51
2759.63
2758.24
2757.42
2757.04
2757.1
2757.77
2759.02
2760.73
2762.98
2765.76
2769.01
2772.71
2776.84
2781.34
2786.18
2791.32
2796.76
2802.47
2808.43
2814.6
2820.95
2827.41
2833.98
2840.61
2847.3
2854.07
2860.9
2867.81
2874.79
2881.85
2889
2896.27
2903.67
2911.22
2918.9
2926.74
2934.72
2942.86
2951.17
2959.66
2968.33
2977.18
2986.21
2995.4
3004.77
3014.3
3024
3033.88
3043.93
3054.14
3064.52
3075.04
3085.7
3096.48
3107.36
3118.33
3129.38
3140.49
3151.64
3162.81
3173.96
3185.07
3196.11
3207.01
3217.74
3228.2
3238.35
3248.06
3257.28
3265.84
3273.6
3280.43
3285.91
3289.97
3292.18
3292.47
3289.62
3283.52
3273.19
3257.74
3236.26
3207.11
3169.43
3119.75
3056.23
2978.65
2881.16
2751.19
2790
2790
2790
2790.02
2790.59
2795.69
2808.81
2821.03
2825.69
2826.17
2824.61
2821.71
2819.39
2816.99
2813.87
2810.79
2808.55
2807.17
2806.33
2805.8
2804.93
2802.62
2798.8
2794.37
2789.99
2785.79
2781.78
2778.02
2774.55
2771.32
2768.33
2765.7
2763.5
2761.79
2760.52
2759.78
2759.47
2759.58
2760.35
2761.59
2763.26
2765.45
2768.13
2771.29
2774.9
2778.97
2783.44
2788.29
2793.47
2798.98
2804.81
2810.93
2817.29
2823.86
2830.57
2837.4
2844.32
2851.3
2858.36
2865.48
2872.68
2879.95
2887.29
2894.72
2902.26
2909.93
2917.74
2925.69
2933.79
2942.04
2950.46
2959.04
2967.8
2976.75
2985.89
2995.22
3004.73
3014.41
3024.28
3034.33
3044.57
3055
3065.62
3076.42
3087.4
3098.54
3109.83
3121.26
3132.82
3144.5
3156.29
3168.17
3180.13
3192.15
3204.19
3216.25
3228.28
3240.24
3252.07
3263.73
3275.13
3286.22
3296.87
3307
3316.44
3325
3332.54
3338.52
3342.97
3345.36
3345.63
3341.97
3334.59
3321.8
3302.96
3276.48
3238.24
3185.78
3115.11
3022.87
2898.39
2790
2790
2790
2790.01
2790.51
2795.17
2808.12
2821.03
2826.21
2827.1
2826
2823.61
2821.67
2819.61
2816.81
2813.86
2811.4
2809.47
2807.94
2806.64
2805.17
2802.59
2798.6
2794.1
2789.75
2785.69
2781.86
2778.36
2775.16
2772.2
2769.49
2767.12
2765.17
2763.66
2762.59
2761.97
2761.77
2762.01
2762.9
2764.2
2765.9
2768.08
2770.72
2773.82
2777.37
2781.38
2785.82
2790.65
2795.86
2801.42
2807.33
2813.57
2820.08
2826.82
2833.75
2840.81
2847.97
2855.21
2862.53
2869.92
2877.38
2884.91
2892.51
2900.2
2907.99
2915.91
2923.96
2932.16
2940.5
2949
2957.66
2966.49
2975.5
2984.71
2994.11
3003.71
3013.49
3023.47
3033.64
3044
3054.57
3065.34
3076.31
3087.49
3098.86
3110.43
3122.17
3134.08
3146.15
3158.38
3170.76
3183.28
3195.92
3208.68
3221.53
3234.46
3247.45
3260.47
3273.47
3286.41
3299.24
3311.92
3324.35
3336.49
3348.17
3359.31
3369.74
3379.24
3387.65
3394.26
3399.2
3401.64
3401.54
3396.02
3386.1
3369.18
3342.65
3303.46
3243.41
3161.83
3043.71
2790
2790
2790
2790.01
2790.49
2795.05
2807.97
2821.2
2826.81
2827.98
2827.22
2825.34
2823.77
2822.03
2819.46
2816.53
2813.77
2811.23
2808.96
2807
2805.01
2801.98
2797.78
2793.29
2789.09
2785.23
2781.63
2778.34
2775.37
2772.7
2770.27
2768.19
2766.52
2765.26
2764.42
2763.96
2763.91
2764.36
2765.39
2766.78
2768.57
2770.79
2773.43
2776.5
2780.02
2784
2788.41
2793.24
2798.45
2804.05
2810.03
2816.35
2822.99
2829.88
2836.98
2844.24
2851.61
2859.08
2866.63
2874.26
2881.96
2889.73
2897.57
2905.49
2913.51
2921.65
2929.93
2938.36
2946.93
2955.65
2964.53
2973.59
2982.84
2992.28
3001.92
3011.76
3021.8
3032.04
3042.48
3053.13
3063.99
3075.07
3086.36
3097.87
3109.6
3121.53
3133.67
3146.01
3158.53
3171.24
3184.13
3197.2
3210.44
3223.84
3237.39
3251.07
3264.88
3278.79
3292.78
3306.81
3320.85
3334.87
3348.81
3362.62
3376.21
3389.52
3402.38
3414.72
3426.3
3436.84
3446.17
3453.42
3458.83
3461.15
3460.36
3453.87
3441.02
3416.95
3371.18
3306.24
3194.08
2790
2790
2790
2790.01
2790.5
2795.17
2808.3
2821.67
2827.47
2828.82
2828.36
2826.98
2825.77
2824.28
2821.8
2818.69
2815.49
2812.29
2809.36
2806.81
2804.12
2800.73
2796.49
2792.15
2788.15
2784.5
2781.11
2778.04
2775.33
2772.91
2770.77
2768.98
2767.6
2766.61
2766.01
2765.76
2765.88
2766.58
2767.75
2769.29
2771.2
2773.5
2776.18
2779.26
2782.78
2786.75
2791.15
2795.98
2801.2
2806.84
2812.87
2819.27
2826.01
2833.03
2840.28
2847.7
2855.26
2862.92
2870.68
2878.52
2886.43
2894.41
2902.46
2910.59
2918.83
2927.18
2935.67
2944.3
2953.07
2962
2971.1
2980.37
2989.83
2999.48
3009.34
3019.41
3029.68
3040.15
3050.84
3061.74
3072.87
3084.22
3095.8
3107.61
3119.66
3131.93
3144.42
3157.13
3170.05
3183.18
3196.53
3210.08
3223.84
3237.79
3251.94
3266.27
3280.78
3295.46
3310.29
3325.25
3340.31
3355.46
3370.66
3385.87
3401.05
3416.14
3431.05
3445.71
3459.93
3473.65
3486.59
3498.56
3509.17
3517.45
3523.4
3525.61
3523.67
3512.17
3484.74
3443.84
3355.07
2790
2790
2790
2790.02
2790.58
2795.65
2809.17
2822.46
2828.19
2829.65
2829.49
2828.59
2827.69
2826.33
2823.69
2820.19
2816.43
2812.6
2809.16
2805.7
2802.51
2799.01
2794.88
2790.74
2786.93
2783.49
2780.34
2777.55
2775.09
2772.93
2771.06
2769.56
2768.46
2767.76
2767.39
2767.34
2767.72
2768.64
2769.98
2771.7
2773.76
2776.16
2778.91
2782.04
2785.59
2789.57
2793.99
2798.83
2804.08
2809.75
2815.83
2822.31
2829.14
2836.27
2843.64
2851.2
2858.92
2866.76
2874.69
2882.72
2890.82
2898.99
2907.23
2915.56
2923.98
2932.53
2941.21
2950.03
2958.99
2968.12
2977.4
2986.86
2996.52
3006.37
3016.44
3026.71
3037.19
3047.89
3058.8
3069.94
3081.31
3092.91
3104.75
3116.84
3129.17
3141.74
3154.55
3167.6
3180.87
3194.38
3208.13
3222.11
3236.33
3250.77
3265.44
3280.34
3295.46
3310.81
3326.36
3342.11
3358.04
3374.14
3390.4
3406.79
3423.29
3439.85
3456.44
3473
3489.44
3505.7
3521.56
3536.97
3551.54
3565.05
3576.88
3586.23
3593.13
3594.86
3586.39
3565.66
3515.57
2790
2790
2790
2790.03
2790.74
2796.48
2810.46
2823.45
2828.99
2830.53
2830.63
2830.18
2829.49
2828.03
2824.97
2820.9
2816.59
2812.2
2807.78
2803.81
2800.45
2796.93
2792.97
2789.04
2785.47
2782.29
2779.43
2776.92
2774.74
2772.83
2771.23
2770
2769.19
2768.74
2768.59
2768.77
2769.43
2770.55
2772.09
2773.99
2776.22
2778.74
2781.59
2784.79
2788.39
2792.41
2796.86
2801.73
2807.02
2812.74
2818.89
2825.44
2832.35
2839.57
2847.06
2854.75
2862.6
2870.58
2878.68
2886.87
2895.14
2903.48
2911.89
2920.38
2928.98
2937.7
2946.56
2955.55
2964.69
2973.99
2983.45
2993.1
3002.93
3012.97
3023.23
3033.69
3044.37
3055.27
3066.4
3077.76
3089.35
3101.19
3113.28
3125.62
3138.22
3151.07
3164.18
3177.53
3191.14
3204.99
3219.11
3233.48
3248.11
3262.99
3278.14
3293.54
3309.2
3325.13
3341.32
3357.75
3374.43
3391.35
3408.5
3425.87
3443.46
3461.24
3479.19
3497.28
3515.48
3533.73
3551.92
3570.02
3587.78
3605.21
3621.76
3637.44
3651.05
3662.06
3668.6
3665.05
3653.05
2790
2790
2790
2790.04
2791.01
2797.68
2812.12
2824.63
2829.89
2831.51
2831.84
2831.71
2831.04
2829.19
2825.5
2820.9
2815.9
2810.51
2805.44
2801.38
2798.01
2794.57
2790.81
2787.14
2783.85
2780.97
2778.42
2776.21
2774.32
2772.68
2771.34
2770.38
2769.83
2769.61
2769.67
2770.12
2771.02
2772.34
2774.07
2776.17
2778.56
2781.22
2784.18
2787.47
2791.14
2795.22
2799.73
2804.65
2810
2815.78
2821.99
2828.62
2835.61
2842.92
2850.51
2858.31
2866.29
2874.4
2882.63
2890.97
2899.38
2907.87
2916.43
2925.08
2933.84
2942.72
2951.73
2960.88
2970.19
2979.65
2989.28
2999.08
3009.09
3019.3
3029.73
3040.37
3051.24
3062.33
3073.65
3085.21
3097.01
3109.07
3121.39
3133.96
3146.81
3159.92
3173.29
3186.93
3200.83
3215
3229.45
3244.17
3259.17
3274.45
3290.02
3305.87
3322.01
3338.45
3355.18
3372.21
3389.53
3407.14
3425.04
3443.23
3461.72
3480.48
3499.53
3518.83
3538.38
3558.14
3578.09
3598.17
3618.3
3638.38
3658.11
3677.54
3695.79
3713.34
3727.51
3736.2
3745.77
2790
2790
2790
2790.07
2791.44
2799.26
2814.06
2825.96
2830.94
2832.62
2833.07
2833.03
2832.13
2829.65
2825.34
2819.95
2813.74
2807.7
2802.6
2798.66
2795.36
2792.01
2788.47
2785.1
2782.14
2779.59
2777.37
2775.48
2773.88
2772.52
2771.44
2770.74
2770.42
2770.4
2770.7
2771.4
2772.5
2774.02
2775.96
2778.24
2780.8
2783.6
2786.67
2790.06
2793.82
2797.98
2802.55
2807.54
2812.96
2818.81
2825.11
2831.81
2838.89
2846.29
2853.97
2861.87
2869.96
2878.19
2886.54
2895
2903.54
2912.16
2920.85
2929.64
2938.54
2947.56
2956.72
2966.02
2975.47
2985.08
2994.86
3004.82
3014.98
3025.36
3035.95
3046.76
3057.8
3069.07
3080.58
3092.33
3104.34