/*--------------------------------*- C++ -*----------------------------------*\
| =========                 |                                                 |
| \\      /  F ield         | OpenFOAM: The Open Source CFD Toolbox           |
|  \\    /   O peration     | Version:  2412                                  |
|   \\  /    A nd           | Website:  www.openfoam.com                      |
|    \\/     M anipulation  |                                                 |
\*---------------------------------------------------------------------------*/
FoamFile
{
    version     2.0;
    format      ascii;
    arch        "LSB;label=32;scalar=64";
    class       volScalarField;
    location    "0.061";
    object      T;
}
// * * * * * * * * * * * * * * * * * * * * * * * * * * * * * * * * * * * * * //

dimensions      [0 0 0 1 0 0 0];

internalField   nonuniform List<scalar> 
78650
(
223.356
223.393
223.455
223.422
223.229
222.936
222.683
222.517
222.492
222.607
222.861
223.231
223.619
223.921
224.107
224.21
224.262
224.285
224.286
224.266
224.217
224.133
224.017
223.879
223.729
223.577
223.426
223.279
223.137
223.001
222.871
222.745
222.625
222.51
222.401
222.297
222.197
222.101
222.009
221.921
221.837
221.759
221.684
221.613
221.547
221.485
221.428
221.375
221.327
221.283
221.242
221.204
221.168
221.135
221.104
221.076
221.048
221.021
220.994
220.968
220.94
220.912
220.88
220.846
220.808
220.766
220.719
220.666
220.605
220.534
220.452
220.358
220.25
220.127
219.988
219.829
219.649
219.442
219.208
218.942
218.641
218.304
217.926
217.503
217.03
216.503
215.916
215.266
214.545
213.754
212.88
211.922
210.862
209.727
208.477
207.126
205.639
204.016
202.27
200.47
198.605
196.685
194.642
192.543
190.312
188.086
185.938
183.851
181.914
180.085
178.233
176.446
174.694
173.033
171.553
170.226
169.153
168.358
167.836
167.52
165.927
223.288
223.391
223.47
223.449
223.291
222.988
222.699
222.494
222.383
222.39
222.51
222.788
223.172
223.537
223.808
223.984
224.091
224.158
224.19
224.192
224.167
224.104
224.003
223.873
223.728
223.579
223.43
223.286
223.149
223.018
222.893
222.773
222.656
222.545
222.44
222.34
222.245
222.155
222.068
221.985
221.907
221.833
221.763
221.698
221.636
221.58
221.528
221.481
221.438
221.4
221.365
221.333
221.304
221.277
221.254
221.232
221.212
221.193
221.175
221.157
221.139
221.12
221.099
221.076
221.05
221.021
220.988
220.949
220.904
220.851
220.787
220.713
220.627
220.528
220.414
220.283
220.132
219.959
219.761
219.534
219.277
218.985
218.657
218.288
217.874
217.41
216.892
216.315
215.67
214.956
214.16
213.285
212.317
211.271
210.117
208.885
207.54
206.09
204.532
202.834
201.035
199.148
197.208
195.242
193.187
190.993
188.801
186.523
184.282
182.201
180.199
178.297
176.485
174.723
173.058
171.586
170.422
169.572
168.995
168.618
166.86
223.229
223.376
223.472
223.472
223.364
223.078
222.749
222.507
222.363
222.302
222.326
222.456
222.741
223.098
223.423
223.67
223.841
223.96
224.039
224.076
224.076
224.042
223.965
223.852
223.717
223.574
223.429
223.287
223.151
223.025
222.907
222.793
222.684
222.578
222.476
222.381
222.291
222.206
222.125
222.048
221.975
221.906
221.842
221.781
221.725
221.674
221.628
221.586
221.549
221.517
221.488
221.463
221.44
221.421
221.404
221.389
221.377
221.366
221.357
221.347
221.339
221.33
221.32
221.308
221.293
221.276
221.256
221.232
221.203
221.166
221.121
221.066
221
220.923
220.833
220.729
220.607
220.465
220.3
220.11
219.892
219.642
219.36
219.04
218.679
218.273
217.816
217.305
216.732
216.097
215.389
214.609
213.747
212.806
211.753
210.603
209.328
207.98
206.53
204.956
203.272
201.443
199.56
197.571
195.624
193.502
191.388
189.193
186.894
184.585
182.355
180.197
178.15
176.213
174.309
172.531
171.044
169.911
169.304
169.215
167.708
223.175
223.346
223.467
223.496
223.429
223.183
222.841
222.556
222.375
222.286
222.263
222.3
222.446
222.703
223.003
223.281
223.51
223.688
223.821
223.906
223.938
223.931
223.887
223.801
223.687
223.556
223.42
223.283
223.15
223.025
222.909
222.802
222.701
222.604
222.509
222.418
222.333
222.254
222.179
222.108
222.041
221.978
221.919
221.864
221.814
221.768
221.727
221.691
221.66
221.634
221.611
221.592
221.576
221.564
221.554
221.547
221.542
221.539
221.537
221.537
221.537
221.538
221.538
221.536
221.534
221.529
221.521
221.511
221.496
221.475
221.447
221.411
221.365
221.31
221.243
221.163
221.068
220.956
220.824
220.669
220.49
220.282
220.044
219.773
219.465
219.117
218.722
218.279
217.78
217.221
216.593
215.895
215.117
214.252
213.282
212.231
211.081
209.855
208.493
207.012
205.407
203.664
201.863
199.901
197.875
195.796
193.665
191.592
189.451
187.234
185.03
182.844
180.642
178.549
176.56
174.676
172.985
171.428
170.242
169.587
167.451
223.127
223.305
223.456
223.514
223.475
223.284
222.961
222.653
222.426
222.297
222.253
222.26
222.318
222.459
222.663
222.896
223.128
223.341
223.521
223.655
223.738
223.768
223.757
223.708
223.622
223.511
223.39
223.265
223.14
223.02
222.907
222.803
222.707
222.619
222.534
222.451
222.372
222.298
222.23
222.165
222.105
222.048
221.995
221.946
221.902
221.862
221.827
221.797
221.772
221.752
221.736
221.723
221.714
221.708
221.705
221.705
221.708
221.713
221.72
221.728
221.737
221.747
221.757
221.766
221.775
221.781
221.786
221.789
221.789
221.783
221.772
221.754
221.727
221.692
221.647
221.591
221.522
221.437
221.336
221.214
221.07
220.901
220.704
220.478
220.218
219.922
219.585
219.202
218.768
218.279
217.727
217.113
216.426
215.663
214.811
213.883
212.858
211.741
210.486
209.134
207.664
206.087
204.395
202.545
200.5
198.452
196.23
193.986
191.734
189.47
187.239
185.03
182.779
180.58
178.479
176.584
174.986
173.649
172.421
171.47
168.792
223.085
223.257
223.437
223.521
223.504
223.373
223.087
222.78
222.524
222.348
222.267
222.257
222.288
222.366
222.482
222.621
222.784
222.974
223.166
223.339
223.473
223.547
223.569
223.557
223.508
223.427
223.33
223.225
223.114
223.003
222.897
222.797
222.705
222.622
222.545
222.474
222.405
222.339
222.277
222.219
222.165
222.115
222.069
222.027
221.989
221.955
221.926
221.903
221.884
221.87
221.86
221.854
221.852
221.853
221.858
221.865
221.875
221.888
221.903
221.919
221.937
221.956
221.976
221.996
222.015
222.033
222.05
222.065
222.078
222.088
222.092
222.092
222.083
222.068
222.044
222.01
221.965
221.908
221.836
221.746
221.636
221.505
221.349
221.166
220.954
220.71
220.428
220.105
219.736
219.318
218.845
218.313
217.71
217.033
216.275
215.444
214.514
213.485
212.329
211.094
209.742
208.283
206.694
204.996
203.16
201.223
199.166
196.928
194.662
192.241
189.822
187.38
184.935
182.506
180.172
177.958
176.022
174.528
173.555
173
170.501
223.053
223.204
223.406
223.521
223.524
223.447
223.205
222.911
222.651
222.445
222.317
222.276
222.289
222.342
222.422
222.503
222.584
222.689
222.826
222.987
223.14
223.255
223.319
223.34
223.33
223.291
223.226
223.146
223.057
222.964
222.87
222.78
222.695
222.617
222.547
222.482
222.425
222.371
222.318
222.268
222.221
222.179
222.14
222.105
222.074
222.047
222.025
222.008
221.995
221.988
221.985
221.986
221.991
222
222.011
222.026
222.044
222.064
222.087
222.112
222.139
222.167
222.196
222.226
222.256
222.285
222.314
222.342
222.368
222.392
222.412
222.427
222.436
222.44
222.436
222.424
222.402
222.37
222.324
222.264
222.187
222.09
221.971
221.829
221.66
221.462
221.232
220.965
220.657
220.305
219.902
219.444
218.922
218.337
217.681
216.947
216.112
215.181
214.147
213.034
211.798
210.448
208.947
207.326
205.611
203.715
201.795
199.678
197.575
195.334
193.012
190.641
188.239
185.746
183.258
180.858
178.478
176.272
174.65
173.666
170.737
223.029
223.151
223.359
223.512
223.542
223.504
223.309
223.035
222.783
222.571
222.408
222.323
222.309
222.34
222.41
222.482
222.536
222.581
222.637
222.722
222.828
222.939
223.025
223.075
223.098
223.098
223.073
223.025
222.963
222.894
222.819
222.743
222.67
222.602
222.538
222.48
222.43
222.388
222.349
222.309
222.271
222.236
222.206
222.179
222.156
222.137
222.121
222.111
222.105
222.105
222.109
222.118
222.13
222.145
222.164
222.186
222.212
222.24
222.271
222.305
222.34
222.377
222.416
222.455
222.496
222.536
222.576
222.616
222.655
222.692
222.727
222.758
222.784
222.805
222.82
222.828
222.829
222.82
222.801
222.77
222.723
222.659
222.577
222.474
222.347
222.196
222.015
221.802
221.553
221.263
220.927
220.542
220.1
219.6
219.03
218.386
217.652
216.841
215.944
214.961
213.846
212.615
211.245
209.763
208.138
206.386
204.478
202.389
200.124
197.848
195.465
193.086
190.7
188.253
185.708
183.366
181.219
179.336
177.506
176.049
172.41
223.015
223.103
223.302
223.492
223.555
223.543
223.403
223.154
222.911
222.7
222.521
222.399
222.353
222.36
222.411
222.482
222.534
222.569
222.601
222.632
222.665
222.709
222.757
222.794
222.826
222.848
222.855
222.845
222.818
222.779
222.731
222.677
222.622
222.568
222.516
222.468
222.426
222.391
222.363
222.338
222.312
222.287
222.265
222.247
222.233
222.222
222.214
222.211
222.213
222.22
222.232
222.247
222.267
222.29
222.317
222.347
222.38
222.416
222.456
222.497
222.541
222.587
222.635
222.685
222.735
222.786
222.837
222.889
222.94
222.991
223.039
223.085
223.127
223.166
223.199
223.226
223.248
223.261
223.267
223.261
223.244
223.212
223.162
223.094
223.007
222.897
222.761
222.598
222.402
222.171
221.9
221.584
221.219
220.801
220.321
219.772
219.146
218.45
217.665
216.783
215.777
214.671
213.446
212.123
210.659
209.062
207.325
205.473
203.403
201.213
198.829
196.299
193.689
191.013
188.222
185.468
182.893
180.797
179.291
178.245
174.859
223.006
223.064
223.239
223.456
223.557
223.572
223.488
223.27
223.027
222.818
222.638
222.495
222.418
222.403
222.429
222.494
222.549
222.581
222.604
222.623
222.637
222.638
222.625
222.61
222.601
222.602
222.612
222.623
222.628
222.621
222.604
222.577
222.545
222.51
222.474
222.44
222.409
222.384
222.365
222.35
222.339
222.327
222.316
222.308
222.303
222.3
222.302
222.307
222.317
222.332
222.351
222.375
222.402
222.433
222.467
222.505
222.546
222.591
222.638
222.688
222.74
222.795
222.852
222.911
222.972
223.033
223.095
223.158
223.221
223.284
223.346
223.406
223.464
223.518
223.569
223.615
223.656
223.691
223.719
223.738
223.747
223.746
223.728
223.696
223.645
223.576
223.484
223.368
223.224
223.05
222.838
222.589
222.294
221.951
221.55
221.088
220.559
219.962
219.276
218.496
217.61
216.637
215.549
214.341
212.977
211.489
209.858
208.088
206.205
204.12
201.976
199.655
197.233
194.741
192.068
189.319
186.512
183.739
181.353
179.63
175.309
223.002
223.035
223.174
223.404
223.549
223.599
223.556
223.375
223.136
222.929
222.754
222.603
222.499
222.463
222.47
222.521
222.58
222.613
222.629
222.64
222.645
222.633
222.604
222.561
222.507
222.459
222.427
222.413
222.415
222.422
222.428
222.43
222.426
222.417
222.404
222.389
222.375
222.363
222.355
222.35
222.349
222.353
222.355
222.358
222.363
222.371
222.382
222.397
222.415
222.438
222.466
222.498
222.533
222.572
222.615
222.661
222.71
222.763
222.818
222.877
222.938
223.002
223.068
223.136
223.206
223.278
223.35
223.424
223.498
223.573
223.648
223.722
223.795
223.865
223.932
223.995
224.055
224.11
224.16
224.202
224.236
224.26
224.272
224.273
224.256
224.224
224.172
224.099
224.002
223.879
223.724
223.536
223.307
223.036
222.716
222.343
221.909
221.408
220.823
220.157
219.404
218.569
217.617
216.541
215.319
213.981
212.497
210.867
209.061
207.088
204.946
202.584
200.052
197.46
194.816
192.077
189.508
187.165
184.952
183.127
178.485
223.001
223.017
223.116
223.338
223.532
223.617
223.598
223.47
223.246
223.041
222.869
222.716
222.593
222.535
222.529
222.561
222.623
222.665
222.681
222.684
222.677
222.653
222.613
222.559
222.493
222.424
222.359
222.303
222.267
222.251
222.252
222.264
222.278
222.292
222.303
222.311
222.316
222.322
222.33
222.338
222.347
222.361
222.379
222.397
222.414
222.433
222.454
222.479
222.507
222.539
222.575
222.616
222.66
222.708
222.758
222.813
222.87
222.931
222.995
223.062
223.131
223.204
223.279
223.356
223.435
223.517
223.599
223.684
223.769
223.856
223.943
224.03
224.116
224.201
224.284
224.364
224.441
224.515
224.585
224.649
224.707
224.757
224.797
224.825
224.842
224.846
224.833
224.802
224.75
224.675
224.572
224.441
224.275
224.071
223.824
223.53
223.18
222.77
222.288
221.74
221.112
220.398
219.567
218.626
217.563
216.388
215.065
213.604
211.972
210.178
208.214
206.118
203.775
201.209
198.535
195.518
192.486
189.614
187.15
185.338
180.883
223
223.007
223.069
223.263
223.498
223.621
223.625
223.552
223.355
223.151
222.982
222.831
222.699
222.618
222.598
222.614
222.672
222.727
222.748
222.749
222.736
222.701
222.646
222.578
222.502
222.425
222.347
222.276
222.215
222.168
222.14
222.131
222.136
222.153
222.175
222.199
222.224
222.251
222.28
222.307
222.332
222.357
222.387
222.419
222.452
222.483
222.517
222.552
222.59
222.632
222.678
222.728
222.781
222.837
222.897
222.959
223.025
223.095
223.167
223.243
223.321
223.402
223.485
223.572
223.66
223.751
223.844
223.938
224.034
224.132
224.231
224.331
224.43
224.529
224.626
224.722
224.816
224.908
224.996
225.081
225.161
225.234
225.3
225.356
225.402
225.436
225.457
225.464
225.453
225.423
225.37
225.291
225.183
225.042
224.864
224.645
224.377
224.056
223.673
223.228
222.704
222.094
221.381
220.575
219.66
218.629
217.448
216.125
214.633
212.986
211.168
209.177
207.045
204.67
202.077
199.355
196.45
193.656
190.774
188.388
182.876
223
223.003
223.037
223.19
223.441
223.612
223.648
223.616
223.456
223.257
223.092
222.949
222.813
222.711
222.673
222.676
222.72
222.784
222.818
222.823
222.811
222.771
222.705
222.623
222.533
222.442
222.356
222.276
222.204
222.145
222.1
222.069
222.055
222.056
222.069
222.091
222.123
222.163
222.207
222.253
222.297
222.339
222.381
222.426
222.472
222.519
222.566
222.614
222.663
222.716
222.772
222.831
222.894
222.96
223.028
223.1
223.175
223.252
223.333
223.417
223.504
223.593
223.686
223.781
223.879
223.979
224.081
224.185
224.292
224.4
224.51
224.621
224.733
224.845
224.956
225.067
225.176
225.284
225.391
225.494
225.594
225.689
225.779
225.861
225.936
226
226.054
226.094
226.121
226.132
226.126
226.096
226.042
225.958
225.843
225.692
225.498
225.26
224.968
224.62
224.199
223.704
223.123
222.461
221.693
220.807
219.779
218.617
217.295
215.822
214.163
212.328
210.281
208.026
205.496
202.918
199.955
197.172
194.479
192.263
186.914
223
223.001
223.017
223.125
223.369
223.59
223.666
223.658
223.545
223.36
223.2
223.064
222.931
222.813
222.751
222.741
222.768
222.834
222.883
222.896
222.887
222.848
222.778
222.687
222.587
222.484
222.384
222.292
222.212
222.145
222.09
222.05
222.024
222.012
222.013
222.024
222.048
222.083
222.132
222.188
222.245
222.303
222.361
222.418
222.478
222.539
222.6
222.661
222.724
222.788
222.856
222.926
222.999
223.074
223.152
223.233
223.317
223.403
223.493
223.586
223.681
223.779
223.88
223.983
224.09
224.199
224.311
224.425
224.541
224.659
224.78
224.902
225.026
225.15
225.275
225.399
225.523
225.647
225.769
225.89
226.009
226.125
226.236
226.342
226.441
226.533
226.616
226.689
226.75
226.797
226.829
226.844
226.842
226.812
226.757
226.668
226.546
226.384
226.177
225.918
225.596
225.21
224.749
224.211
223.569
222.82
221.947
220.954
219.817
218.532
217.056
215.404
213.543
211.487
209.237
206.66
203.932
200.86
197.936
195.394
189.893
223
223
223.007
223.076
223.292
223.551
223.67
223.685
223.621
223.46
223.302
223.171
223.044
222.919
222.835
222.81
222.822
222.879
222.942
222.964
222.959
222.924
222.854
222.76
222.654
222.544
222.434
222.331
222.238
222.159
222.097
222.05
222.017
221.999
221.994
221.998
222.012
222.039
222.083
222.138
222.2
222.266
222.335
222.405
222.476
222.549
222.623
222.697
222.773
222.85
222.929
223.01
223.094
223.18
223.268
223.359
223.452
223.547
223.645
223.747
223.851
223.957
224.066
224.178
224.294
224.412
224.532
224.655
224.781
224.908
225.039
225.171
225.306
225.442
225.579
225.716
225.854
225.992
226.129
226.266
226.402
226.536
226.668
226.796
226.918
227.035
227.146
227.248
227.341
227.424
227.494
227.549
227.587
227.606
227.607
227.577
227.519
227.426
227.293
227.117
226.888
226.605
226.254
225.83
225.313
224.703
223.985
223.155
222.182
221.06
219.756
218.28
216.595
214.713
212.619
210.276
207.719
204.945
201.997
199.377
193.66
223
223
223.003
223.042
223.216
223.496
223.66
223.714
223.682
223.549
223.393
223.267
223.15
223.026
222.927
222.886
222.886
222.926
222.994
223.027
223.026
222.995
222.925
222.831
222.724
222.611
222.497
222.387
222.285
222.195
222.121
222.064
222.025
222
221.991
221.992
222.001
222.024
222.061
222.112
222.173
222.241
222.314
222.392
222.472
222.556
222.641
222.727
222.814
222.903
222.993
223.086
223.181
223.277
223.376
223.476
223.578
223.683
223.79
223.9
224.012
224.127
224.245
224.365
224.489
224.615
224.744
224.876
225.011
225.148
225.287
225.43
225.575
225.722
225.87
226.019
226.17
226.321
226.472
226.624
226.776
226.927
227.077
227.224
227.368
227.508
227.643
227.772
227.893
228.007
228.11
228.203
228.282
228.344
228.389
228.413
228.416
228.386
228.326
228.226
228.084
227.893
227.643
227.327
226.932
226.46
225.889
225.21
224.398
223.447
222.334
221.056
219.58
217.904
215.974
213.798
211.379
208.762
205.881
203.395
198.383
223
223
223.001
223.021
223.151
223.429
223.645
223.735
223.722
223.624
223.476
223.356
223.251
223.134
223.026
222.967
222.956
222.98
223.045
223.086
223.09
223.061
222.991
222.897
222.791
222.678
222.564
222.452
222.346
222.249
222.166
222.099
222.05
222.017
222.002
221.999
222.005
222.022
222.057
222.106
222.164
222.232
222.307
222.388
222.474
222.564
222.657
222.752
222.849
222.948
223.05
223.153
223.259
223.366
223.475
223.585
223.696
223.81
223.926
224.045
224.166
224.289
224.415
224.543
224.675
224.81
224.947
225.087
225.23
225.376
225.525
225.676
225.831
225.987
226.146
226.307
226.469
226.632
226.797
226.962
227.128
227.295
227.461
227.626
227.789
227.95
228.107
228.26
228.408
228.549
228.684
228.809
228.924
229.027
229.116
229.186
229.237
229.266
229.271
229.241
229.176
229.069
228.91
228.697
228.418
228.071
227.633
227.096
226.441
225.663
224.738
223.655
222.378
220.9
219.183
217.234
215.017
212.54
209.89
207.103
201.957
223
223
223
223.01
223.1
223.358
223.622
223.746
223.747
223.686
223.554
223.44
223.344
223.236
223.126
223.053
223.032
223.044
223.098
223.144
223.152
223.123
223.051
222.957
222.852
222.742
222.628
222.517
222.41
222.312
222.224
222.151
222.094
222.053
222.029
222.02
222.022
222.033
222.063
222.109
222.165
222.232
222.308
222.391
222.48
222.575
222.674
222.776
222.882
222.99
223.101
223.214
223.33
223.447
223.566
223.686
223.807
223.93
224.055
224.182
224.311
224.443
224.577
224.713
224.852
224.995
225.14
225.288
225.44
225.594
225.751
225.911
226.074
226.24
226.409
226.579
226.752
226.927
227.103
227.281
227.461
227.641
227.822
228.003
228.184
228.363
228.54
228.715
228.885
229.052
229.214
229.369
229.516
229.654
229.781
229.894
229.993
230.071
230.129
230.162
230.17
230.139
230.067
229.949
229.775
229.539
229.224
228.825
228.324
227.712
226.965
226.069
224.99
223.72
222.228
220.515
218.529
216.344
213.858
211.36
206.867
223
223
223
223.005
223.065
223.292
223.588
223.748
223.769
223.737
223.625
223.516
223.428
223.33
223.223
223.142
223.113
223.117
223.156
223.2
223.21
223.18
223.106
223.01
222.906
222.797
222.686
222.577
222.473
222.375
222.287
222.212
222.151
222.105
222.075
222.06
222.056
222.062
222.086
222.127
222.179
222.243
222.319
222.402
222.493
222.591
222.694
222.802
222.914
223.029
223.148
223.27
223.395
223.522
223.65
223.779
223.91
224.042
224.176
224.311
224.449
224.588
224.73
224.874
225.021
225.171
225.324
225.48
225.638
225.8
225.965
226.133
226.305
226.479
226.657
226.837
227.019
227.204
227.391
227.581
227.772
227.965
228.159
228.355
228.551
228.747
228.942
229.135
229.327
229.516
229.701
229.883
230.059
230.228
230.389
230.54
230.679
230.805
230.913
231.001
231.065
231.102
231.111
231.078
230.999
230.866
230.667
230.398
230.04
229.584
229.002
228.283
227.397
226.334
225.058
223.542
221.748
219.706
217.321
214.814
210.696
223
223
223
223.002
223.041
223.235
223.547
223.743
223.792
223.776
223.685
223.584
223.503
223.416
223.316
223.233
223.197
223.193
223.217
223.253
223.261
223.229
223.151
223.053
222.949
222.842
222.734
222.629
222.528
222.434
222.348
222.273
222.212
222.164
222.13
222.111
222.105
222.107
222.125
222.161
222.208
222.269
222.342
222.424
222.515
222.614
222.72
222.832
222.948
223.069
223.195
223.325
223.457
223.592
223.729
223.868
224.007
224.148
224.29
224.433
224.579
224.726
224.875
225.027
225.181
225.338
225.498
225.661
225.827
225.996
226.168
226.344
226.523
226.705
226.891
227.08
227.271
227.465
227.662
227.862
228.064
228.268
228.475
228.683
228.893
229.103
229.314
229.524
229.734
229.943
230.15
230.354
230.555
230.752
230.943
231.127
231.302
231.467
231.619
231.756
231.876
231.972
232.043
232.084
232.093
232.054
231.963
231.811
231.583
231.272
230.852
230.316
229.633
228.787
227.736
226.458
224.934
223.141
221.08
218.704
215.107
223
223
223
223.001
223.027
223.19
223.506
223.737
223.812
223.806
223.736
223.644
223.571
223.495
223.404
223.323
223.281
223.27
223.279
223.301
223.304
223.265
223.183
223.083
222.979
222.874
222.77
222.669
222.575
222.486
222.403
222.331
222.271
222.224
222.189
222.169
222.16
222.161
222.177
222.209
222.252
222.309
222.378
222.458
222.548
222.647
222.754
222.867
222.987
223.112
223.243
223.379
223.518
223.661
223.806
223.952
224.099
224.248
224.398
224.549
224.702
224.857
225.013
225.172
225.333
225.497
225.663
225.833
226.006
226.182
226.361
226.543
226.729
226.919
227.112
227.309
227.508
227.711
227.916
228.125
228.336
228.551
228.768
228.988
229.209
229.433
229.657
229.883
230.109
230.334
230.56
230.784
231.007
231.228
231.444
231.657
231.864
232.063
232.254
232.433
232.599
232.749
232.881
232.986
233.064
233.108
233.118
233.072
232.967
232.789
232.522
232.152
231.649
230.996
230.152
229.101
227.796
226.194
224.326
222.054
218.831
223
223
223
223.001
223.018
223.156
223.47
223.733
223.827
223.829
223.778
223.697
223.634
223.568
223.486
223.41
223.362
223.341
223.336
223.341
223.334
223.288
223.202
223.1
222.996
222.894
222.794
222.699
222.61
222.527
222.45
222.382
222.325
222.28
222.247
222.228
222.219
222.22
222.236
222.266
222.306
222.36
222.426
222.503
222.591
222.689
222.796
222.91
223.032
223.16
223.294
223.435
223.58
223.728
223.88
224.033
224.188
224.344
224.501
224.66
224.82
224.982
225.145
225.31
225.477
225.647
225.82
225.996
226.175
226.357
226.543
226.732
226.924
227.12
227.32
227.524
227.73
227.94
228.154
228.371
228.591
228.814
229.041
229.27
229.503
229.737
229.974
230.213
230.452
230.693
230.935
231.177
231.419
231.659
231.899
232.136
232.369
232.599
232.822
233.038
233.244
233.439
233.62
233.784
233.928
234.043
234.128
234.174
234.18
234.12
233.991
233.773
233.446
232.989
232.364
231.55
230.481
229.129
227.5
225.442
222.534
223
223
223
223
223.014
223.134
223.443
223.73
223.839
223.851
223.814
223.746
223.692
223.635
223.562
223.49
223.437
223.405
223.385
223.373
223.352
223.298
223.208
223.104
223
222.901
222.806
222.717
222.635
222.558
222.487
222.425
222.372
222.332
222.302
222.284
222.276
222.279
222.297
222.327
222.367
222.419
222.482
222.557
222.643
222.739
222.845
222.96
223.082
223.212
223.35
223.493
223.643
223.797
223.954
224.113
224.274
224.437
224.601
224.766
224.933
225.101
225.27
225.442
225.615
225.791
225.97
226.152
226.336
226.524
226.715
226.91
227.108
227.311
227.517
227.726
227.94
228.156
228.377
228.601
228.828
229.06
229.295
229.533
229.775
230.019
230.267
230.516
230.768
231.022
231.278
231.534
231.792
232.051
232.309
232.567
232.824
233.078
233.329
233.576
233.816
234.05
234.274
234.486
234.683
234.862
235.019
235.143
235.236
235.285
235.29
235.214
235.06
234.793
234.396
233.836
233.032
231.95
230.516
228.632
225.941
223
223
223
223
223.012
223.122
223.427
223.73
223.851
223.872
223.846
223.791
223.745
223.697
223.631
223.562
223.504
223.459
223.423
223.392
223.358
223.297
223.203
223.097
222.994
222.898
222.808
222.725
222.649
222.579
222.515
222.458
222.412
222.376
222.351
222.336
222.331
222.337
222.358
222.389
222.43
222.481
222.544
222.617
222.702
222.797
222.902
223.016
223.139
223.27
223.409
223.555
223.708
223.866
224.028
224.193
224.36
224.528
224.698
224.869
225.042
225.216
225.391
225.567
225.746
225.928
226.112
226.299
226.489
226.682
226.879
227.079
227.282
227.49
227.701
227.917
228.136
228.359
228.585
228.816
229.05
229.289
229.531
229.777
230.026
230.28
230.536
230.796
231.058
231.323
231.59
231.86
232.132
232.405
232.68
232.955
233.231
233.507
233.782
234.054
234.324
234.589
234.849
235.102
235.345
235.576
235.791
235.987
236.16
236.296
236.397
236.447
236.445
236.331
236.124
235.771
235.225
234.439
233.265
231.659
229.189
223
223
223
223
223.012
223.119
223.424
223.734
223.865
223.893
223.875
223.831
223.794
223.754
223.693
223.625
223.56
223.5
223.447
223.401
223.354
223.283
223.184
223.078
222.979
222.888
222.802
222.724
222.654
222.591
222.533
222.484
222.444
222.414
222.394
222.383
222.382
222.393
222.417
222.45
222.493
222.546
222.608
222.681
222.764
222.859
222.963
223.077
223.2
223.332
223.472
223.621
223.776
223.938
224.103
224.273
224.444
224.618
224.793
224.97
225.147
225.327
225.507
225.689
225.873
226.059
226.248
226.44
226.635
226.833
227.034
227.239
227.448
227.66
227.877
228.097
228.322
228.55
228.782
229.018
229.259
229.503
229.752
230.005
230.262
230.522
230.787
231.055
231.326
231.601
231.879
232.159
232.443
232.729
233.018
233.308
233.6
233.894
234.188
234.483
234.776
235.068
235.358
235.644
235.925
236.199
236.464
236.716
236.953
237.168
237.358
237.505
237.614
237.66
237.642
237.507
237.247
236.781
235.92
234.698
232.429
223
223
223
223
223.012
223.122
223.431
223.745
223.881
223.912
223.902
223.869
223.841
223.806
223.748
223.675
223.6
223.525
223.456
223.396
223.333
223.253
223.153
223.051
222.957
222.87
222.79
222.718
222.653
222.596
222.545
222.503
222.47
222.446
222.432
222.426
222.429
222.446
222.473
222.51
222.555
222.61
222.673
222.746
222.83
222.924
223.028
223.141
223.265
223.397
223.539
223.689
223.847
224.011
224.18
224.353
224.529
224.707
224.887
225.068
225.251
225.434
225.619
225.806
225.995
226.185
226.379
226.575
226.775
226.977
227.183
227.392
227.605
227.822
228.043
228.268
228.497
228.73
228.968
229.209
229.455
229.705
229.959
230.218
230.482
230.749
231.021
231.296
231.575
231.858
232.145
232.435
232.729
233.026
233.327
233.63
233.936
234.245
234.556
234.868
235.182
235.496
235.811
236.125
236.437
236.746
237.05
237.349
237.638
237.915
238.177
238.418
238.631
238.796
238.911
238.952
238.917
238.704
238.209
237.495
235.765
223
223
223
223
223.014
223.133
223.452
223.763
223.898
223.932
223.928
223.907
223.886
223.854
223.793
223.711
223.622
223.532
223.452
223.37
223.295
223.213
223.115
223.018
222.928
222.846
222.772
222.706
222.648
222.596
222.552
222.516
222.49
222.474
222.465
222.464
222.473
222.495
222.526
222.567
222.616
222.673
222.738
222.812
222.896
222.99
223.095
223.209
223.332
223.466
223.609
223.76
223.92
224.087
224.259
224.435
224.614
224.796
224.98
225.165
225.352
225.54
225.729
225.92
226.112
226.307
226.505
226.706
226.909
227.115
227.325
227.538
227.755
227.977
228.202
228.431
228.665
228.902
229.144
229.39
229.641
229.896
230.156
230.42
230.689
230.962
231.24
231.522
231.809
232.099
232.394
232.692
232.995
233.302
233.613
233.927
234.245
234.567
234.892
235.219
235.55
235.883
236.218
236.555
236.892
237.23
237.568
237.903
238.235
238.562
238.88
239.188
239.478
239.746
239.976
240.157
240.3
240.352
240.217
239.895
238.97
223
223
223
223.001
223.017
223.153
223.482
223.787
223.916
223.952
223.955
223.944
223.928
223.894
223.822
223.727
223.626
223.523
223.419
223.326
223.247
223.164
223.07
222.978
222.893
222.818
222.75
222.691
222.639
222.594
222.556
222.527
222.508
222.497
222.493
222.498
222.513
222.54
222.576
222.621
222.674
222.734
222.801
222.877
222.962
223.057
223.162
223.277
223.402
223.536
223.68
223.834
223.995
224.164
224.338
224.517
224.699
224.884
225.072
225.261
225.451
225.643
225.836
226.03
226.227
226.425
226.627
226.831
227.038
227.248
227.462
227.679
227.899
228.124
228.353
228.587
228.824
229.066
229.312
229.563
229.818
230.078
230.342
230.612
230.886
231.165
231.449
231.737
232.029
232.327
232.628
232.935
233.246
233.561
233.881
234.205
234.533
234.866
235.203
235.544
235.889
236.238
236.59
236.946
237.304
237.665
238.029
238.393
238.759
239.124
239.487
239.846
240.197
240.54
240.863
241.167
241.436
241.669
241.825
241.814
241.633
223
223
223
223.001
223.024
223.181
223.521
223.814
223.937
223.975
223.983
223.98
223.965
223.921
223.835
223.727
223.61
223.483
223.364
223.269
223.189
223.108
223.019
222.933
222.855
222.787
222.726
222.674
222.629
222.59
222.559
222.536
222.523
222.518
222.519
222.53
222.551
222.582
222.623
222.673
222.73
222.793
222.863
222.941
223.027
223.124
223.23
223.346
223.471
223.607
223.753
223.908
224.071
224.242
224.419
224.6
224.785
224.973
225.163
225.355
225.549
225.744
225.94
226.138
226.337
226.54
226.744
226.952
227.162
227.376
227.593
227.813
228.037
228.266
228.498
228.735
228.976
229.222
229.472
229.727
229.986
230.25
230.519
230.793
231.072
231.356
231.645
231.939
232.237
232.541
232.849
233.162
233.48
233.803
234.131
234.463
234.801
235.144
235.491
235.844
236.201
236.562
236.929
237.3
237.675
238.055
238.439
238.826
239.217
239.611
240.007
240.403
240.799
241.192
241.576
241.952
242.307
242.658
242.964
243.176
243.387
223
223
223
223.002
223.034
223.218
223.567
223.846
223.962
224.001
224.012
224.011
223.99
223.932
223.831
223.705
223.559
223.417
223.297
223.205
223.127
223.048
222.964
222.884
222.814
222.754
222.702
222.657
222.619
222.586
222.561
222.544
222.537
222.536
222.543
222.56
222.586
222.622
222.668
222.722
222.783
222.849
222.922
223.002
223.091
223.189
223.296
223.414
223.541
223.678
223.826
223.983
224.148
224.32
224.499
224.683
224.87
225.06
225.253
225.448
225.644
225.842
226.041
226.242
226.444
226.65
226.857
227.068
227.282
227.498
227.718
227.942
228.169
228.401
228.637
228.877
229.122
229.371
229.625
229.883
230.147
230.415
230.688
230.967
231.25
231.539
231.833