/*--------------------------------*- C++ -*----------------------------------*\
| =========                 |                                                 |
| \\      /  F ield         | OpenFOAM: The Open Source CFD Toolbox           |
|  \\    /   O peration     | Version:  2412                                  |
|   \\  /    A nd           | Website:  www.openfoam.com                      |
|    \\/     M anipulation  |                                                 |
\*---------------------------------------------------------------------------*/
FoamFile
{
    version     2.0;
    format      ascii;
    arch        "LSB;label=32;scalar=64";
    class       volScalarField;
    location    "0.057";
    object      p;
}
// * * * * * * * * * * * * * * * * * * * * * * * * * * * * * * * * * * * * * //

dimensions      [1 -1 -2 0 0 0 0];

internalField   nonuniform List<scalar> 
9859
(
2800.6
2800.59
2800.59
2800.52
2800.43
2800.28
2800.14
2799.99
2799.9
2799.86
2799.89
2799.91
2799.95
2799.98
2800.05
2800.26
2800.49
2800.79
2800.89
2800.89
2800.74
2800.51
2800.15
2799.86
2799.62
2799.48
2799.38
2799.33
2799.33
2799.3
2799.25
2799.15
2799.06
2798.96
2798.86
2798.74
2798.6
2798.41
2798.17
2797.85
2797.45
2796.9
2796.2
2795.32
2794.19
2792.76
2790.96
2788.9
2786.92
2786.44
2784.03
2783.49
2784.98
2786.67
2788.73
2790.41
2791.96
2793.34
2794.55
2795.34
2795.91
2796.3
2796.83
2797.38
2797.72
2798.08
2798.43
2798.75
2798.98
2800.62
2800.6
2800.61
2800.54
2800.44
2800.3
2800.16
2800.01
2799.92
2799.88
2799.91
2799.94
2799.97
2800
2800.08
2800.29
2800.52
2800.83
2800.94
2800.94
2800.79
2800.55
2800.19
2799.9
2799.66
2799.51
2799.42
2799.36
2799.37
2799.33
2799.28
2799.18
2799.09
2798.99
2798.9
2798.77
2798.63
2798.44
2798.2
2797.89
2797.49
2796.94
2796.23
2795.35
2794.21
2792.76
2790.93
2788.81
2786.78
2786.58
2783.66
2783.5
2784.96
2786.71
2788.78
2790.45
2792.02
2793.37
2794.62
2795.41
2795.97
2796.37
2796.92
2797.47
2797.81
2798.17
2798.53
2798.85
2799.09
2799.33
2799.58
2799.79
2799.97
2800.14
2800.31
2800.68
2800.7
2800.75
2800.81
2800.89
2800.99
2801.13
2801.36
2801.56
2801.82
2802.04
2802.24
2802.49
2802.72
2802.96
2803.22
2803.49
2803.73
2804.12
2804.63
2805.13
2805.96
2807.01
2808.35
2809.89
2811.75
2813.7
2815.79
2818.16
2821.01
2824.21
2827.81
2831.77
2836.49
2842.66
2849.45
2854.72
2800.63
2800.62
2800.62
2800.56
2800.46
2800.31
2800.18
2800.02
2799.94
2799.91
2799.93
2799.96
2800
2800.03
2800.11
2800.32
2800.55
2800.87
2800.98
2800.98
2800.84
2800.6
2800.24
2799.94
2799.7
2799.55
2799.45
2799.4
2799.4
2799.36
2799.31
2799.21
2799.13
2799.02
2798.93
2798.81
2798.67
2798.48
2798.24
2797.93
2797.52
2796.97
2796.27
2795.38
2794.24
2792.77
2790.9
2788.72
2786.63
2786.71
2783.29
2783.52
2784.94
2786.74
2788.82
2790.5
2792.09
2793.41
2794.69
2795.48
2796.04
2796.45
2797.02
2797.55
2797.91
2798.28
2798.63
2798.95
2799.2
2799.45
2799.69
2799.91
2800.11
2800.28
2800.45
2800.63
2800.76
2800.86
2800.85
2801
2800.94
2800.92
2800.9
2800.87
2800.89
2800.95
2801.01
2801.08
2801.18
2801.31
2801.54
2801.74
2801.99
2802.22
2802.41
2802.66
2802.88
2803.11
2803.37
2803.64
2803.88
2804.25
2804.76
2805.27
2806.09
2807.12
2808.45
2809.97
2811.81
2813.75
2815.82
2818.16
2820.97
2824.11
2827.67
2831.53
2836.05
2841.97
2848.41
2852.95
2800.64
2800.64
2800.64
2800.58
2800.48
2800.33
2800.19
2800.04
2799.96
2799.93
2799.95
2799.99
2800.02
2800.06
2800.13
2800.35
2800.59
2800.91
2801.02
2801.03
2800.88
2800.65
2800.29
2799.98
2799.74
2799.59
2799.49
2799.43
2799.44
2799.4
2799.35
2799.25
2799.16
2799.06
2798.96
2798.84
2798.71
2798.52
2798.28
2797.97
2797.56
2797.01
2796.31
2795.42
2794.26
2792.77
2790.87
2788.63
2786.49
2786.8
2782.93
2783.51
2784.94
2786.77
2788.86
2790.56
2792.16
2793.45
2794.76
2795.54
2796.11
2796.53
2797.11
2797.64
2798.01
2798.37
2798.73
2799.06
2799.32
2799.57
2799.82
2800.04
2800.24
2800.42
2800.6
2800.78
2800.92
2801.03
2801.01
2801.18
2801.12
2801.11
2801.09
2801.07
2801.1
2801.15
2801.21
2801.28
2801.38
2801.5
2801.73
2801.93
2802.17
2802.4
2802.58
2802.83
2803.05
2803.28
2803.53
2803.8
2804.03
2804.4
2804.91
2805.4
2806.22
2807.24
2808.55
2810.06
2811.88
2813.81
2815.85
2818.15
2820.92
2824.01
2827.52
2831.26
2835.58
2841.23
2847.32
2851.11
2800.66
2800.65
2800.66
2800.59
2800.5
2800.35
2800.21
2800.07
2799.99
2799.95
2799.98
2800.01
2800.05
2800.08
2800.16
2800.38
2800.62
2800.95
2801.07
2801.08
2800.94
2800.7
2800.34
2800.02
2799.78
2799.62
2799.53
2799.47
2799.47
2799.43
2799.38
2799.28
2799.19
2799.09
2799
2798.88
2798.74
2798.56
2798.32
2798.01
2797.61
2797.05
2796.35
2795.45
2794.29
2792.78
2790.83
2788.54
2786.35
2786.83
2782.6
2783.49
2784.93
2786.81
2788.9
2790.61
2792.25
2793.49
2794.84
2795.61
2796.18
2796.62
2797.21
2797.74
2798.12
2798.48
2798.83
2799.17
2799.44
2799.7
2799.95
2800.18
2800.38
2800.57
2800.75
2800.94
2801.08
2801.2
2801.19
2801.36
2801.32
2801.31
2801.3
2801.28
2801.31
2801.37
2801.43
2801.5
2801.59
2801.71
2801.93
2802.12
2802.36
2802.59
2802.77
2803.01
2803.23
2803.45
2803.7
2803.96
2804.19
2804.55
2805.06
2805.55
2806.36
2807.37
2808.66
2810.16
2811.95
2813.87
2815.88
2818.14
2820.86
2823.91
2827.36
2830.98
2835.09
2840.44
2846.17
2849.15
2837.07
2800.67
2800.67
2800.68
2800.61
2800.52
2800.37
2800.23
2800.09
2800.01
2799.98
2800.01
2800.04
2800.07
2800.11
2800.19
2800.41
2800.66
2801
2801.12
2801.13
2800.99
2800.75
2800.39
2800.07
2799.82
2799.66
2799.56
2799.51
2799.51
2799.47
2799.42
2799.32
2799.23
2799.13
2799.04
2798.92
2798.78
2798.6
2798.36
2798.06
2797.65
2797.1
2796.39
2795.49
2794.31
2792.78
2790.8
2788.45
2786.24
2786.78
2782.29
2783.47
2784.91
2786.84
2788.94
2790.67
2792.33
2793.54
2794.92
2795.68
2796.25
2796.72
2797.31
2797.83
2798.22
2798.58
2798.95
2799.28
2799.57
2799.83
2800.09
2800.32
2800.54
2800.73
2800.92
2801.11
2801.26
2801.38
2801.39
2801.55
2801.52
2801.52
2801.52
2801.51
2801.54
2801.59
2801.66
2801.72
2801.81
2801.92
2802.14
2802.33
2802.56
2802.78
2802.96
2803.19
2803.41
2803.64
2803.88
2804.14
2804.37
2804.72
2805.22
2805.71
2806.5
2807.5
2808.78
2810.26
2812.03
2813.93
2815.91
2818.14
2820.8
2823.79
2827.17
2830.66
2834.58
2839.6
2844.94
2847.08
2833.53
2800.69
2800.69
2800.7
2800.63
2800.54
2800.39
2800.26
2800.11
2800.03
2800
2800.03
2800.06
2800.1
2800.14
2800.22
2800.44
2800.7
2801.04
2801.17
2801.19
2801.04
2800.81
2800.44
2800.11
2799.86
2799.71
2799.6
2799.54
2799.55
2799.51
2799.46
2799.36
2799.27
2799.17
2799.07
2798.96
2798.82
2798.64
2798.41
2798.1
2797.69
2797.14
2796.44
2795.52
2794.32
2792.78
2790.77
2788.36
2786.17
2786.67
2782
2783.46
2784.9
2786.88
2788.99
2790.73
2792.42
2793.59
2795
2795.74
2796.33
2796.83
2797.41
2797.93
2798.34
2798.7
2799.07
2799.41
2799.7
2799.96
2800.23
2800.47
2800.69
2800.89
2801.09
2801.29
2801.45
2801.57
2801.6
2801.74
2801.73
2801.75
2801.76
2801.74
2801.78
2801.83
2801.9
2801.96
2802.04
2802.15
2802.36
2802.54
2802.77
2802.99
2803.16
2803.39
2803.61
2803.83
2804.07
2804.32
2804.55
2804.89
2805.39
2805.87
2806.66
2807.65
2808.91
2810.37
2812.11
2814
2815.94
2818.13
2820.74
2823.67
2826.96
2830.33
2834.04
2838.69
2843.63
2844.99
2830
2800.71
2800.71
2800.72
2800.66
2800.56
2800.41
2800.28
2800.13
2800.06
2800.03
2800.06
2800.09
2800.13
2800.17
2800.25
2800.48
2800.74
2801.09
2801.22
2801.24
2801.1
2800.86
2800.49
2800.16
2799.9
2799.75
2799.64
2799.58
2799.59
2799.54
2799.49
2799.39
2799.3
2799.2
2799.11
2799
2798.86
2798.68
2798.45
2798.14
2797.73
2797.19
2796.48
2795.56
2794.34
2792.77
2790.73
2788.27
2786.14
2786.48
2781.74
2783.43
2784.88
2786.92
2789.04
2790.79
2792.51
2793.65
2795.08
2795.8
2796.41
2796.93
2797.52
2798.04
2798.44
2798.82
2799.19
2799.53
2799.83
2800.11
2800.38
2800.63
2800.86
2801.07
2801.27
2801.47
2801.64
2801.77
2801.81
2801.95
2801.95
2801.98
2802
2801.99
2802.03
2802.09
2802.15
2802.21
2802.29
2802.39
2802.59
2802.77
2802.99
2803.21
2803.37
2803.6
2803.81
2804.03
2804.27
2804.52
2804.74
2805.07
2805.57
2806.05
2806.82
2807.8
2809.04
2810.49
2812.2
2814.06
2815.98
2818.13
2820.66
2823.53
2826.74
2829.97
2833.48
2837.73
2842.23
2842.79
2826.49
2800.72
2800.73
2800.74
2800.68
2800.58
2800.43
2800.3
2800.16
2800.09
2800.06
2800.09
2800.12
2800.16
2800.21
2800.29
2800.52
2800.78
2801.14
2801.28
2801.3
2801.16
2800.92
2800.55
2800.21
2799.95
2799.79
2799.68
2799.62
2799.63
2799.58
2799.53
2799.43
2799.34
2799.24
2799.15
2799.04
2798.91
2798.73
2798.49
2798.19
2797.78
2797.23
2796.53
2795.59
2794.35
2792.75
2790.7
2788.19
2786.16
2786.19
2781.53
2783.41
2784.86
2786.96
2789.09
2790.85
2792.6
2793.71
2795.17
2795.87
2796.5
2797.05
2797.62
2798.15
2798.56
2798.94
2799.32
2799.66
2799.98
2800.25
2800.53
2800.79
2801.03
2801.25
2801.45
2801.66
2801.84
2801.97
2802.04
2802.17
2802.19
2802.22
2802.26
2802.26
2802.3
2802.36
2802.42
2802.48
2802.55
2802.65
2802.84
2803.02
2803.23
2803.44
2803.6
2803.82
2804.03
2804.24
2804.47
2804.72
2804.95
2805.27
2805.76
2806.23
2806.99
2807.96
2809.18
2810.62
2812.3
2814.13
2816.01
2818.12
2820.59
2823.38
2826.5
2829.59
2832.89
2836.7
2840.68
2840.42
2822.98
2800.74
2800.75
2800.76
2800.7
2800.6
2800.46
2800.33
2800.18
2800.11
2800.09
2800.12
2800.15
2800.2
2800.24
2800.32
2800.55
2800.82
2801.19
2801.33
2801.36
2801.22
2800.98
2800.6
2800.26
2800
2799.83
2799.73
2799.66
2799.67
2799.62
2799.57
2799.47
2799.38
2799.28
2799.19
2799.08
2798.95
2798.77
2798.54
2798.23
2797.82
2797.28
2796.57
2795.62
2794.35
2792.72
2790.65
2788.11
2786.24
2785.8
2781.34
2783.37
2784.85
2787.01
2789.14
2790.92
2792.69
2793.77
2795.28
2795.94
2796.59
2797.16
2797.73
2798.26
2798.68
2799.08
2799.45
2799.8
2800.12
2800.41
2800.7
2800.96
2801.21
2801.43
2801.64
2801.86
2802.05
2802.19
2802.27
2802.4
2802.43
2802.47
2802.53
2802.54
2802.58
2802.64
2802.71
2802.76
2802.83
2802.92
2803.1
2803.27
2803.48
2803.69
2803.84
2804.06
2804.25
2804.47
2804.7
2804.94
2805.16
2805.48
2805.96
2806.43
2807.16
2808.12
2809.32
2810.75
2812.4
2814.2
2816.04
2818.11
2820.51
2823.21
2826.24
2829.19
2832.28
2835.63
2838.98
2837.87
2819.43
2800.76
2800.77
2800.78
2800.73
2800.63
2800.48
2800.35
2800.21
2800.14
2800.12
2800.15
2800.19
2800.23
2800.27
2800.36
2800.59
2800.87
2801.24
2801.39
2801.42
2801.28
2801.04
2800.66
2800.31
2800.04
2799.88
2799.77
2799.7
2799.71
2799.66
2799.61
2799.51
2799.42
2799.32
2799.23
2799.12
2798.99
2798.81
2798.58
2798.28
2797.87
2797.33
2796.62
2795.66
2794.35
2792.68
2790.59
2788.03
2786.35
2785.33
2781.19
2783.34
2784.85
2787.06
2789.21
2790.99
2792.77
2793.84
2795.39
2796.02
2796.69
2797.28
2797.84
2798.37
2798.81
2799.21
2799.59
2799.95
2800.28
2800.57
2800.86
2801.13
2801.39
2801.63
2801.85
2802.07
2802.27
2802.42
2802.52
2802.65
2802.69
2802.73
2802.81
2802.83
2802.88
2802.94
2803.01
2803.06
2803.12
2803.2
2803.37
2803.54
2803.74
2803.94
2804.09
2804.3
2804.49
2804.7
2804.93
2805.17
2805.39
2805.7
2806.17
2806.63
2807.35
2808.3
2809.48
2810.89
2812.5
2814.27
2816.07
2818.11
2820.43
2823.04
2825.96
2828.77
2831.63
2834.52
2837.15
2835.13
2815.83
2800.78
2800.79
2800.81
2800.75
2800.65
2800.51
2800.38
2800.24
2800.17
2800.15
2800.19
2800.22
2800.26
2800.31
2800.4
2800.63
2800.91
2801.3
2801.45
2801.49
2801.34
2801.1
2800.72
2800.37
2800.09
2799.92
2799.81
2799.75
2799.75
2799.7
2799.65
2799.55
2799.46
2799.36
2799.27
2799.16
2799.03
2798.86
2798.63
2798.32
2797.92
2797.38
2796.67
2795.69
2794.35
2792.63
2790.52
2787.96
2786.5
2784.8
2781.08
2783.29
2784.85
2787.12
2789.28
2791.07
2792.83
2793.92
2795.5
2796.1
2796.8
2797.4
2797.96
2798.49
2798.94
2799.35
2799.73
2800.1
2800.44
2800.74
2801.04
2801.32
2801.59
2801.83
2802.06
2802.29
2802.5
2802.66
2802.78
2802.9
2802.97
2803.01
2803.1
2803.14
2803.19
2803.26
2803.32
2803.37
2803.43
2803.51
2803.66
2803.83
2804.02
2804.22
2804.35
2804.56
2804.75
2804.95
2805.17
2805.41
2805.63
2805.94
2806.39
2806.85
2807.55
2808.5
2809.65
2811.04
2812.62
2814.34
2816.1
2818.11
2820.34
2822.84
2825.66
2828.32
2830.95
2833.39
2835.22
2832.21
2812.15
2800.8
2800.82
2800.83
2800.78
2800.68
2800.53
2800.4
2800.27
2800.2
2800.18
2800.22
2800.26
2800.3
2800.35
2800.43
2800.68
2800.96
2801.36
2801.51
2801.55
2801.41
2801.17
2800.78
2800.42
2800.14
2799.97
2799.86
2799.79
2799.79
2799.74
2799.69
2799.59
2799.5
2799.4
2799.31
2799.2
2799.08
2798.9
2798.67
2798.37
2797.97
2797.44
2796.72
2795.72
2794.35
2792.58
2790.45
2787.88
2786.67
2784.22
2781.01
2783.24
2784.86
2787.2
2789.36
2791.15
2792.87
2794.02
2795.63
2796.18
2796.91
2797.53
2798.08
2798.61
2799.07
2799.5
2799.89
2800.25
2800.6
2800.92
2801.22
2801.51
2801.79
2802.04
2802.28
2802.52
2802.74
2802.92
2803.05
2803.18
2803.26
2803.31
2803.4
2803.46
2803.53
2803.6
2803.66
2803.7
2803.75
2803.82
2803.97
2804.13
2804.31
2804.5
2804.63
2804.83
2805.02
2805.21
2805.43
2805.66
2805.89
2806.19
2806.62
2807.08
2807.76
2808.7
2809.83
2811.2
2812.73
2814.41
2816.13
2818.11
2820.25
2822.63
2825.34
2827.83
2830.23
2832.23
2833.24
2829.22
2808.37
2800.82
2800.84
2800.86
2800.8
2800.71
2800.56
2800.43
2800.3
2800.24
2800.22
2800.26
2800.29
2800.34
2800.38
2800.47
2800.72
2801.01
2801.41
2801.57
2801.62
2801.47
2801.23
2800.84
2800.47
2800.19
2800.02
2799.9
2799.83
2799.83
2799.78
2799.73
2799.63
2799.54
2799.44
2799.35
2799.25
2799.12
2798.95
2798.72
2798.42
2798.02
2797.49
2796.78
2795.76
2794.35
2792.53
2790.37
2787.79
2786.81
2783.63
2780.97
2783.18
2784.89
2787.28
2789.47
2791.26
2792.89
2794.12
2795.75
2796.26
2797.03
2797.65
2798.2
2798.73
2799.21
2799.65
2800.04
2800.42
2800.77
2801.1
2801.41
2801.71
2802
2802.27
2802.52
2802.76
2802.99
2803.18
2803.34
2803.47
2803.56
2803.62
2803.71
2803.8
2803.88
2803.95
2804.01
2804.05
2804.1
2804.16
2804.29
2804.45
2804.62
2804.8
2804.93
2805.12
2805.3
2805.49
2805.71
2805.94
2806.16
2806.46
2806.87
2807.32
2807.99
2808.91
2810.03
2811.37
2812.86
2814.49
2816.17
2818.11
2820.15
2822.4
2825
2827.32
2829.48
2831.05
2831.25
2826.15
2804.51
2800.84
2800.87
2800.88
2800.83
2800.74
2800.59
2800.46
2800.33
2800.27
2800.25
2800.29
2800.33
2800.38
2800.42
2800.52
2800.77
2801.06
2801.47
2801.64
2801.68
2801.54
2801.3
2800.9
2800.53
2800.24
2800.06
2799.94
2799.87
2799.87
2799.82
2799.77
2799.67
2799.58
2799.48
2799.39
2799.29
2799.17
2798.99
2798.76
2798.46
2798.07
2797.55
2796.83
2795.8
2794.35
2792.48
2790.28
2787.7
2786.87
2783.07
2780.96
2783.12
2784.92
2787.38
2789.59
2791.38
2792.88
2794.25
2795.89
2796.36
2797.16
2797.77
2798.32
2798.87
2799.34
2799.8
2800.21
2800.59
2800.95
2801.29
2801.61
2801.92
2802.22
2802.5
2802.76
2803.02
2803.25
2803.46
2803.63
2803.77
2803.88
2803.95
2804.05
2804.15
2804.25
2804.32
2804.38
2804.42
2804.46
2804.52
2804.64
2804.78
2804.94
2805.12
2805.24
2805.43
2805.6
2805.78
2806
2806.22
2806.45
2806.74
2807.13
2807.58
2808.23
2809.13
2810.23
2811.54
2813
2814.57
2816.2
2818.1
2820.04
2822.16
2824.62
2826.77
2828.67
2829.84
2829.24
2823.1
2800.6
2800.87
2800.89
2800.91
2800.86
2800.77
2800.61
2800.49
2800.36
2800.3
2800.29
2800.33
2800.37
2800.41
2800.46
2800.56
2800.81
2801.11
2801.53
2801.7
2801.75
2801.61
2801.36
2800.96
2800.59
2800.3
2800.11
2799.99
2799.91
2799.91
2799.87
2799.81
2799.71
2799.62
2799.52
2799.44
2799.33
2799.21
2799.03
2798.81
2798.51
2798.12
2797.61
2796.89
2795.84
2794.36
2792.44
2790.2
2787.6
2786.83
2782.57
2780.96
2783.06
2784.97
2787.48
2789.72
2791.52
2792.84
2794.39
2796.02
2796.46
2797.28
2797.9
2798.45
2799
2799.49
2799.96
2800.37
2800.77
2801.14
2801.49
2801.82
2802.14
2802.44
2802.74
2803.01
2803.28
2803.53
2803.75
2803.94
2804.09
2804.21
2804.3
2804.41
2804.51
2804.63
2804.71
2804.77
2804.81
2804.85
2804.9
2805.01
2805.14
2805.29
2805.45
2805.57
2805.75
2805.92
2806.09
2806.3
2806.53
2806.76
2807.04
2807.42
2807.86
2808.49
2809.38
2810.45
2811.73
2813.14
2814.66
2816.24
2818.1
2819.93
2821.9
2824.22
2826.19
2827.82
2828.6
2827.24
2820.04
2796.67
2800.89
2800.92
2800.94
2800.89
2800.8
2800.64
2800.52
2800.4
2800.34
2800.32
2800.37
2800.41
2800.46
2800.51
2800.6
2800.86
2801.17
2801.59
2801.77
2801.82
2801.68
2801.43
2801.03
2800.64
2800.35
2800.16
2800.03
2799.96
2799.95
2799.91
2799.85
2799.75
2799.66
2799.56
2799.48
2799.37
2799.25
2799.08
2798.85
2798.55
2798.17
2797.67
2796.95
2795.89
2794.38
2792.4
2790.12
2787.5
2786.68
2782.15
2780.97
2783.01
2785.03
2787.6
2789.87
2791.69
2792.8
2794.55
2796.14
2796.57
2797.41
2798.02
2798.58
2799.14
2799.64
2800.12
2800.55
2800.95
2801.34
2801.7
2802.04
2802.36
2802.68
2802.98
2803.28
2803.55
2803.82
2804.06
2804.27
2804.42
2804.56
2804.67
2804.78
2804.9
2805.02
2805.12
2805.18
2805.23
2805.26
2805.3
2805.39
2805.52
2805.65
2805.81
2805.92
2806.09
2806.25
2806.42
2806.63
2806.85
2807.08
2807.35
2807.72
2808.15
2808.75
2809.63
2810.68
2811.92
2813.29
2814.75
2816.27
2818.08
2819.81
2821.64
2823.78
2825.56
2826.9
2827.32
2825.18
2816.92
2792.84
2800.92
2800.95
2800.97
2800.92
2800.83
2800.67
2800.55
2800.43
2800.38
2800.36
2800.41
2800.45
2800.5
2800.55
2800.65
2800.91
2801.22
2801.65
2801.83
2801.88
2801.74
2801.49
2801.09
2800.7
2800.4
2800.21
2800.08
2800
2799.99
2799.95
2799.89
2799.79
2799.71
2799.6
2799.52
2799.42
2799.29
2799.12
2798.89
2798.6
2798.23
2797.73
2797.01
2795.95
2794.41
2792.39
2790.06
2787.37
2786.43
2781.8
2780.99
2782.97
2785.09
2787.71
2790.02
2791.88
2792.79
2794.73
2796.25
2796.69
2797.54
2798.15
2798.72
2799.29
2799.8
2800.29
2800.73
2801.14
2801.54
2801.91
2802.26
2802.6
2802.93
2803.24
2803.55
2803.84
2804.12
2804.38
2804.6
2804.77
2804.92
2805.05
2805.18
2805.31
2805.44
2805.55
2805.62
2805.67
2805.69
2805.72
2805.8
2805.92
2806.04
2806.18
2806.29
2806.45
2806.61
2806.77
2806.98
2807.2
2807.42
2807.69
2808.04
2808.46
2809.05
2809.9
2810.92
2812.13
2813.45
2814.85
2816.32
2818.07
2819.68
2821.38
2823.32
2824.88
2825.92
2825.98
2823.08
2813.84
2789.13
2800.94
2800.98
2801
2800.95
2800.86
2800.7
2800.58
2800.47
2800.42
2800.4
2800.45
2800.49
2800.54
2800.59
2800.69
2800.96
2801.28
2801.72
2801.9
2801.95
2801.81
2801.56
2801.16
2800.76
2800.45
2800.25
2800.12
2800.04
2800.03
2799.98
2799.93
2799.83
2799.74
2799.64
2799.56
2799.46
2799.33
2799.16
2798.93
2798.64
2798.28
2797.8
2797.08
2796.01
2794.45
2792.39
2790.02
2787.18
2786.11
2781.54
2781.01
2782.95
2785.17
2787.83
2790.17
2792.1
2792.81
2794.93
2796.33
2796.81
2797.66
2798.29
2798.85
2799.44
2799.96
2800.46
2800.92
2801.34
2801.75
2802.13
2802.5
2802.85
2803.18
2803.52
2803.84
2804.14
2804.44
2804.71
2804.95
2805.14
2805.31
2805.45
2805.59
2805.74
2805.88
2806
2806.07
2806.13
2806.15
2806.17
2806.24
2806.34
2806.44
2806.58
2806.68
2806.83
2806.99
2807.14
2807.34
2807.56
2807.78
2808.04
2808.38
2808.79
2809.36
2810.18
2811.17
2812.34
2813.62
2814.95
2816.36
2818.04
2819.54
2821.12
2822.83
2824.14
2824.85
2824.54
2820.9
2810.66
2785.49
2800.97
2801.01
2801.03
2800.98
2800.89
2800.73
2800.61
2800.5
2800.45
2800.44
2800.49
2800.53
2800.58
2800.64
2800.74
2801.01
2801.33
2801.78
2801.96
2802.02
2801.88
2801.63
2801.22
2800.81
2800.5
2800.3
2800.16
2800.08
2800.07
2800.02
2799.97
2799.87
2799.78
2799.68
2799.6
2799.49
2799.37
2799.2
2798.97
2798.69
2798.34
2797.87
2797.16
2796.08
2794.5
2792.42
2789.98
2786.92
2785.77
2781.34
2781.04
2782.94
2785.26
2787.95
2790.32
2792.36
2792.88
2795.13
2796.41
2796.95
2797.8
2798.41
2799
2799.59
2800.13
2800.64
2801.12
2801.55
2801.97
2802.37
2802.74
2803.1
2803.45
2803.8
2804.14
2804.46
2804.77
2805.06
2805.31
2805.52
2805.71
2805.87
2806.02
2806.19
2806.34
2806.47
2806.55
2806.61
2806.63
2806.65
2806.7
2806.79
2806.87
2807
2807.1
2807.23
2807.39
2807.53
2807.73
2807.94
2808.16
2808.42
2808.76
2809.16
2809.7
2810.5
2811.45
2812.56
2813.81
2815.07
2816.43
2818.01
2819.39
2820.86
2822.32
2823.35
2823.7
2822.93
2818.58
2807.36
2781.81
2801
2801.04
2801.06
2801.01
2800.92
2800.76
2800.65
2800.54
2800.49
2800.48
2800.53
2800.57
2800.63
2800.69
2800.79
2801.06
2801.39
2801.84
2802.03
2802.08
2801.94
2801.69
2801.28
2800.87
2800.55
2800.34
2800.2
2800.12
2800.1
2800.06
2800.01
2799.91
2799.82
2799.72
2799.63
2799.53
2799.41
2799.23
2799
2798.73
2798.4
2797.94
2797.24
2796.16
2794.56
2792.44
2789.97
2786.64
2785.42
2781.21
2781.1
2782.97
2785.37
2788.06
2790.45
2792.67
2792.99
2795.29
2796.49
2797.08
2797.91
2798.56
2799.15
2799.75
2800.3
2800.83
2801.31
2801.76
2802.19
2802.61
2803
2803.37
2803.73
2804.09
2804.45
2804.79
2805.11
2805.42
2805.69
2805.92
2806.13
2806.3
2806.48
2806.66
2806.82
2806.96
2807.06
2807.12
2807.14
2807.15
2807.19
2807.26
2807.33
2807.43
2807.53
2807.66
2807.81
2807.95
2808.14
2808.34
2808.57
2808.82
2809.15
2809.53
2810.04
2810.81
2811.73
2812.8
2814
2815.2
2816.48
2817.96
2819.21
2820.58
2821.8
2822.52
2822.51
2821.15
2816.08
2803.89
2777.98
2801.03
2801.07
2801.09
2801.05
2800.96
2800.79
2800.68
2800.57
2800.53
2800.52
2800.57
2800.62
2800.67
2800.73
2800.84
2801.11
2801.44
2801.9
2802.09
2802.15
2802
2801.75
2801.34
2800.93
2800.6
2800.38
2800.24
2800.15
2800.13
2800.09
2800.04
2799.94
2799.85
2799.75
2799.66
2799.56
2799.44
2799.26
2799.04
2798.77
2798.46
2798.02
2797.33
2796.24
2794.61
2792.4
2789.88
2786.46
2785.1
2781.15
2781.19
2783.01
2785.49
2788.19
2790.6
2792.96
2793.22
2795.41
2796.58
2797.25
2798.05
2798.69
2799.3
2799.91
2800.48
2801.02
2801.52
2801.98
2802.43
2802.86
2803.26
2803.65
2804.03
2804.4
2804.78
2805.13
2805.47
2805.79
2806.08
2806.34
2806.57
2806.77
2806.97
2807.15
2807.33
2807.48
2807.59
2807.65
2807.67
2807.67
2807.7
2807.76
2807.82
2807.91
2808
2808.12
2808.25
2808.39
2808.57
2808.77
2808.99
2809.26
2809.58
2809.94
2810.44
2811.17
2812.04
2813.06
2814.2
2815.34
2816.55
2817.91
2819.04
2820.25
2821.26
2821.65
2821.31
2819.2
2813.39
2800.34
2773.99
2801.06
2801.1
2801.13
2801.08
2800.99
2800.82
2800.72
2800.61
2800.57
2800.56
2800.62
2800.66
2800.72
2800.78
2800.89
2801.16
2801.5
2801.95
2802.15
2802.21
2802.07
2801.81
2801.4
2800.98
2800.65
2800.42
2800.27
2800.18
2800.16
2800.11
2800.07
2799.97
2799.88
2799.78
2799.69
2799.59
2799.47
2799.28
2799.07
2798.82
2798.53
2798.1
2797.42
2796.32
2794.64
2792.34
2789.71
2786.39
2784.78
2781.17
2781.33
2783.11
2785.63
2788.35
2790.79
2793.18
2793.53
2795.5
2796.67
2797.35
2798.16
2798.83
2799.45
2800.08
2800.67
2801.21
2801.73
2802.21
2802.67
2803.12
2803.54
2803.94
2804.33
2804.72
2805.12
2805.49
2805.85
2806.19
2806.49
2806.78
2807.02
2807.23
2807.46
2807.66
2807.86
2808.01
2808.14
2808.21
2808.23
2808.23
2808.25
2808.28
2808.32
2808.4
2808.49
2808.6
2808.73
2808.86
2809.04
2809.23
2809.46
2809.71
2810.02
2810.36
2810.83
2811.53
2812.36
2813.33
2814.42
2815.5
2816.62
2817.85
2818.86
2819.87
2820.73
2820.78
2820.11
2817.17
2810.64
2796.7
2769.93
2801.09
2801.14
2801.16
2801.11
2801.02
2800.85
2800.75
2800.65
2800.61
2800.6
2800.66
2800.71
2800.76
2800.83
2800.94
2801.21
2801.55
2802.01
2802.21
2802.27
2802.13
2801.87
2801.46
2801.03
2800.69
2800.45
2800.3
2800.2
2800.18
2800.13
2800.09
2799.99
2799.9
2799.8
2799.72
2799.62
2799.49
2799.31
2799.09
2798.86
2798.59
2798.18
2797.51
2796.39
2794.68
2792.3
2789.47
2786.34
2784.5
2781.26
2781.51
2783.25
2785.79
2788.54
2791.03
2793.43
2793.8
2795.61
2796.78
2797.49
2798.28
2798.97
2799.61
2800.25
2800.85
2801.42
2801.95
2802.45
2802.93
2803.38
2803.82
2804.24
2804.65
2805.06
2805.47
2805.86
2806.24
2806.59
2806.92
2807.23
2807.5
2807.75
2808
2808.23
2808.42
2808.58
2808.72
2808.79
2808.82
2808.82
2808.82
2808.84
2808.87
2808.94
2809.01
2809.11
2809.23
2809.35
2809.52
2809.72
2809.94
2810.19
2810.49
2810.83
2811.28
2811.94
2812.73
2813.63
2814.64
2815.67
2816.69
2817.76
2818.66
2819.45
2820.13
2819.87
2818.9
2815.08
2807.84
2793.23
2765.8
2801.12
2801.17
2801.19
2801.15
2801.06
2800.88
2800.78
2800.68
2800.65
2800.64
2800.7
2800.75
2800.81
2800.87
2800.98
2801.26
2801.6
2802.06
2802.27
2802.33
2802.18
2801.93
2801.51
2801.08
2800.73
2800.48
2800.32
2800.22
2800.19
2800.15
2800.1
2800.01
2799.92
2799.82
2799.74
2799.63
2799.5
2799.32
2799.12
2798.9
2798.66
2798.26
2797.59
2796.46
2794.74
2792.31
2789.18
2786.27
2784.29
2781.42
2781.73
2783.44
2785.99
2788.74
2791.31
2793.73
2794.03
2795.72
2796.85
2797.61
2798.42
2799.12
2799.77
2800.43
2801.05
2801.62
2802.17
2802.69
2803.19
2803.66
2804.12
2804.55
2804.98
2805.41
2805.84
2806.25
2806.65
2807.02
2807.38
2807.7
2807.98
2808.25
2808.51
2808.76
2808.99
2809.21
2809.33
2809.4
2809.43
2809.43
2809.42
2809.43
2809.44
2809.49
2809.57
2809.65
2809.76
2809.88
2810.05
2810.25
2810.47
2810.7
2810.98
2811.3
2811.74
2812.36
2813.1
2813.95
2814.88
2815.87
2816.8
2817.65
2818.46
2819.04
2819.54
2819
2817.61
2813.07
2805.21
2789.73
2761.88
2801.16
2801.21
2801.23
2801.18
2801.09
2800.91
2800.82
2800.72
2800.68
2800.68
2800.74
2800.8
2800.85
2800.92
2801.03
2801.31
2801.65
2802.11
2802.32
2802.38
2802.23
2801.98
2801.56
2801.12
2800.76
2800.5
2800.34
2800.23
2800.2
2800.15
2800.11
2800.02
2799.93
2799.83
2799.75
2799.65
2799.51
2799.33
2799.14
2798.95
2798.73
2798.34
2797.66
2796.51
2794.77
2792.3
2788.91
2786.25
2784.17
2781.63
2782
2783.69
2786.22
2789.01
2791.71
2793.9
2794.28
2795.83
2796.94
2797.73
2798.54
2799.26
2799.94
2800.61
2801.24
2801.83
2802.4
2802.94
2803.45
2803.95
2804.42
2804.88
2805.33
2805.77
2806.22
2806.65
2807.06
2807.46
2807.84
2808.19
2808.5
2808.79
2809.08
2809.34
2809.58
2809.78
2809.96
2810.05
2810.06
2810.07
2810.05
2810.04
2810.06
2810.09
2810.15
2810.22
2810.32
2810.44
2810.6
2810.8
2811.01
2811.24
2811.5
2811.83
2812.25
2812.84
2813.52
2814.29
2815.13
2816.02
2816.83
2817.57
2818.19
2818.57
2818.82
2818.04
2816.27
2811.09
2802.56
2786.52
2757.94
2801.2
2801.25
2801.26
2801.22
2801.13
2800.94
2800.85
2800.75
2800.72
2800.72
2800.78
2800.84
2800.89
2800.96
2801.08
2801.36
2801.7
2802.16
2802.37
2802.43
2802.28
2802.03
2801.6
2801.15
2800.78
2800.52
2800.35
2800.24
2800.2
2800.16
2800.12
2800.03
2799.94
2799.84
2799.75
2799.65
2799.52
2799.34
2799.16
2799
2798.79
2798.41
2797.72
2796.55
2794.76
2792.22
2788.76
2786.26
2784.13
2781.92
2782.32
2784.02
2786.51
2789.33
2792.11
2793.95
2794.56
2795.94
2797.04
2797.86
2798.67
2799.41
2800.1
2800.8
2801.44
2802.04
2802.63
2803.19
2803.73
2804.24
2804.74
2805.21
2805.68
2806.15
2806.61
2807.07
2807.51
2807.92
2808.32
2808.68
2809.02
2809.34
2809.64
2809.93
2810.21
2810.47
2810.66
2810.7
2810.74
2810.73
2810.72
2810.7
2810.7
2810.72
2810.77
2810.83
2810.92
2811.04
2811.2
2811.39
2811.59
2811.81
2812.06
2812.37
2812.77
2813.31
2813.95
2814.65
2815.42
2816.21
2816.93
2817.54
2817.98
2818.16
2818.15
2817.13
2814.74
2809.12
2799.98
2783.04
2753.86
2801.24
2801.28
2801.3
2801.25
2801.16
2800.97
2800.88
2800.78
2800.75
2800.76
2800.82
2800.88
2800.93
2801
2801.12
2801.4
2801.74
2802.2
2802.42
2802.47
2802.32
2802.07
2801.64
2801.18
2800.8
2800.53
2800.35
2800.24
2800.2
2800.16
2800.12
2800.03
2799.94
2799.84
2799.75
2799.65
2799.52
2799.35
2799.18
2799.04
2798.85
2798.47
2797.77
2796.57
2794.75
2792.12
2788.71
2786.32
2784.18
2782.26
2782.72
2784.42
2786.87
2789.66
2792.42
2794.06
2794.81
2796.06
2797.14
2797.98
2798.8
2799.55
2800.27
2800.98
2801.64
2802.26
2802.87
2803.45
2804.01
2804.55
2805.06
2805.56
2806.05
2806.54
2807.03
2807.5
2807.96
2808.39
2808.81
2809.2
2809.57
2809.91
2810.23
2810.55
2810.85
2811.09
2811.28
2811.41
2811.49
2811.48
2811.4
2811.38
2811.38
2811.39
2811.42
2811.47
2811.55
2811.66
2811.81
2811.99
2812.19
2812.41
2812.67
2812.96
2813.35
2813.84
2814.41
2815.02
2815.68
2816.37
2816.98
2817.44
2817.69
2817.67
2817.34
2815.94
2813.16
2807.04
2797.04
2779.44
2749.71
2801.28
2801.33
2801.34
2801.29
2801.19
2801
2800.91
2800.81
2800.78
2800.79
2800.86
2800.91
2800.97
2801.04
2801.16
2801.45
2801.78
2802.24
2802.46
2802.51
2802.36
2802.09
2801.66
2801.2
2800.81
2800.54
2800.36
2800.24
2800.2
2800.15
2800.11
2800.03
2799.94
2799.84
2799.75
2799.64
2799.51
2799.35
2799.2
2799.08
2798.9
2798.52
2797.81
2796.59
2794.73
2792.03
2788.76
2786.4
2784.27
2782.65
2783.18
2784.9
2787.31
2790.06
2792.7
2794.19
2795.02
2796.19
2797.24
2798.1
2798.92
2799.69
2800.44
2801.16
2801.83
2802.48
2803.11
2803.72
2804.3
2804.86
2805.4
2805.92
2806.43
2806.94
2807.45
2807.95
2808.44
2808.89
2809.32
2809.74
2810.13
2810.49
2810.84
2811.18
2811.5
2811.78
2811.99
2812.12
2812.16
2812.18
2812.15
2812.11
2812.09
2812.09
2812.11
2812.16
2812.23
2812.35
2812.48
2812.65
2812.85
2813.06
2813.3
2813.58
2813.93
2814.37
2814.88
2815.43
2816.02
2816.61
2817.13
2817.42
2817.47
2817.26
2816.6
2814.9
2811.43
2804.84
2794.07
2775.81
2745.49
2801.33
2801.37
2801.38
2801.32
2801.23
2801.03
2800.94
2800.84
2800.81
2800.82
2800.89
2800.95
2801
2801.08
2801.2
2801.48
2801.82
2802.27
2802.49
2802.53
2802.37
2802.11
2801.67
2801.21
2800.82
2800.54
2800.35
2800.23
2800.18
2800.14
2800.1
2800.02
2799.93
2799.83
2799.74
2799.63
2799.5
2799.34
2799.22
2799.12
2798.94
2798.56
2797.83
2796.6
2794.71
2791.96
2788.88
2786.58
2784.49
2783.11
2783.68
2785.45
2787.82
2790.49
2792.91
2794.31
2795.19
2796.3
2797.33
2798.2
2799.04
2799.83
2800.6
2801.33
2802.03
2802.7
2803.35
2803.98
2804.59
2805.17
2805.74
2806.29
2806.83
2807.37
2807.9
2808.42
2808.93
2809.41
2809.87
2810.3
2810.71
2811.1
2811.47
2811.83
2812.18
2812.48
2812.72
2812.88
2812.96
2813
2812.95
2812.93
2812.91
2812.87
2812.85
2812.87
2812.93
2813.02
2813.15
2813.32
2813.52
2813.74
2813.97
2814.24
2814.57
2814.97
2815.4
2815.85
2816.34
2816.82
2817.2
2817.3
2817.19
2816.79
2815.84
2813.74
2809.62
2802.65
2791.12
2772.18
2741.51
2801.38
2801.42
2801.42
2801.36
2801.26
2801.05
2800.96
2800.86
2800.84
2800.85
2800.92
2800.98
2801.03
2801.12
2801.24
2801.52
2801.85
2802.29
2802.51
2802.54
2802.38
2802.12
2801.68
2801.22
2800.82
2800.53
2800.33
2800.21
2800.15
2800.11
2800.08
2800
2799.92
2799.82
2799.72
2799.61
2799.48
2799.34
2799.23
2799.15
2798.97
2798.58
2797.83
2796.59
2794.67
2791.93
2789.04
2786.84
2784.8
2783.65
2784.26
2786.05
2788.36
2790.91
2793.1
2794.43
2795.34
2796.42
2797.43
2798.31
2799.15
2799.96
2800.75
2801.5
2802.22
2802.92
2803.59
2804.25
2804.88
2805.5
2806.09
2806.66
2807.23
2807.79
2808.35
2808.89
2809.43
2809.93
2810.41
2810.87
2811.31
2811.72
2812.11
2812.5
2812.87
2813.2
2813.46
2813.65
2813.75
2813.75
2813.73
2813.67
2813.63
2813.64
2813.64
2813.66
2813.7
2813.79
2813.91
2814.07
2814.25
2814.45
2814.67
2814.91
2815.19
2815.53
2815.92
2816.34
2816.79
2817.19
2817.4
2817.33
2817.02
2816.44
2815.11
2812.59
2808.07
2800.7
2788.54
2769.22
2737.93
2801.43
2801.47
2801.46
2801.39