/*--------------------------------*- C++ -*----------------------------------*\
| =========                 |                                                 |
| \\      /  F ield         | OpenFOAM: The Open Source CFD Toolbox           |
|  \\    /   O peration     | Version:  2412                                  |
|   \\  /    A nd           | Website:  www.openfoam.com                      |
|    \\/     M anipulation  |                                                 |
\*---------------------------------------------------------------------------*/
FoamFile
{
    version     2.0;
    format      ascii;
    arch        "LSB;label=32;scalar=64";
    class       volVectorField;
    location    "0.012";
    object      U;
}
// * * * * * * * * * * * * * * * * * * * * * * * * * * * * * * * * * * * * * //

dimensions      [0 1 -1 0 0 0 0];

internalField   nonuniform List<vector> 
9831
(
(230.797 8.09938 0)
(224.023 -3.226 0)
(231.267 8.43208 0)
(224.32 -3.31518 0)
(219.39 -3.88992 0)
(216.348 -3.45633 0)
(214.074 -2.60825 0)
(212.309 -1.69034 0)
(211.09 -0.881773 0)
(210.386 -0.333794 0)
(210.087 -0.0762611 0)
(210.009 -0.00762514 0)
(210 -0.000172063 0)
(210 4.02022e-06 0)
(210 4.06528e-06 0)
(210 2.88355e-06 0)
(210 1.31981e-06 0)
(210 3.24804e-07 0)
(210 3.15214e-08 0)
(210 5.3398e-10 0)
(210 -5.49748e-09 0)
(210 -9.01319e-07 0)
(210 -0.000118653 0)
(209.99 -0.00831424 0)
(209.795 -0.194758 0)
(208.698 -1.39909 0)
(206.679 -3.89679 0)
(205.192 -5.90575 0)
(204.824 -6.62177 0)
(205.1 -6.72502 0)
(205.876 -5.99341 0)
(206.277 -5.3601 0)
(206.13 -5.183 0)
(205.244 -5.51233 0)
(203.739 -6.51079 0)
(202.608 -7.35495 0)
(202.115 -7.74431 0)
(201.941 -7.91527 0)
(201.831 -8.03468 0)
(201.674 -8.17638 0)
(201.398 -8.4051 0)
(201.01 -8.72602 0)
(200.594 -9.07913 0)
(200.192 -9.41373 0)
(199.829 -9.72062 0)
(199.505 -9.99724 0)
(199.222 -10.252 0)
(198.969 -10.4885 0)
(198.746 -10.7079 0)
(198.549 -10.903 0)
(198.38 -11.0707 0)
(198.236 -11.2117 0)
(231.768 8.74866 0)
(224.622 -3.38617 0)
(219.56 -3.99269 0)
(216.463 -3.54894 0)
(214.16 -2.68314 0)
(212.371 -1.74737 0)
(211.129 -0.919391 0)
(210.406 -0.352914 0)
(210.093 -0.08245 0)
(210.01 -0.00855397 0)
(210 -0.000208438 0)
(210 4.09263e-06 0)
(210 4.21004e-06 0)
(210 3.00959e-06 0)
(210 1.40244e-06 0)
(210 3.55477e-07 0)
(210 3.61262e-08 0)
(210 6.59163e-10 0)
(210 -6.56654e-09 0)
(210 -1.08327e-06 0)
(210 -0.000141236 0)
(209.989 -0.00958762 0)
(209.776 -0.214567 0)
(208.637 -1.47752 0)
(206.626 -3.99125 0)
(205.2 -5.94414 0)
(204.867 -6.62347 0)
(205.161 -6.69276 0)
(205.927 -5.95658 0)
(206.273 -5.36159 0)
(206.08 -5.20036 0)
(205.137 -5.59649 0)
(203.649 -6.60868 0)
(202.586 -7.40592 0)
(202.137 -7.76388 0)
(201.976 -7.92855 0)
(201.867 -8.04922 0)
(201.703 -8.19869 0)
(201.413 -8.43927 0)
(201.018 -8.76787 0)
(200.604 -9.1223 0)
(200.208 -9.45527 0)
(199.85 -9.75939 0)
(199.531 -10.0331 0)
(199.252 -10.2856 0)
(199.001 -10.5203 0)
(198.778 -10.7377 0)
(198.582 -10.9303 0)
(198.413 -11.095 0)
(198.268 -11.2331 0)
(198.146 -11.3457 0)
(198.048 -11.442 0)
(232.218 9.07327 0)
(224.911 -3.47232 0)
(219.727 -4.09328 0)
(216.575 -3.64007 0)
(214.245 -2.75681 0)
(212.432 -1.80375 0)
(211.167 -0.95688 0)
(210.424 -0.372214 0)
(210.099 -0.0888306 0)
(210.011 -0.00954541 0)
(210 -0.000249819 0)
(210 4.21824e-06 0)
(210 4.33955e-06 0)
(210 3.13931e-06 0)
(210 1.4855e-06 0)
(210 3.86811e-07 0)
(210 4.10716e-08 0)
(210 8.04097e-10 0)
(210 -7.82755e-09 0)
(210 -1.29906e-06 0)
(210 -0.000167656 0)
(209.987 -0.0110203 0)
(209.756 -0.235701 0)
(208.576 -1.55708 0)
(206.572 -4.0838 0)
(205.2 -5.98454 0)
(204.91 -6.62748 0)
(205.222 -6.65981 0)
(205.981 -5.92374 0)
(206.264 -5.36638 0)
(206.024 -5.21884 0)
(205.026 -5.68258 0)
(203.553 -6.7015 0)
(202.56 -7.45431 0)
(202.158 -7.7847 0)
(202.011 -7.94196 0)
(201.902 -8.06272 0)
(201.731 -8.22109 0)
(201.428 -8.474 0)
(201.028 -8.80937 0)
(200.616 -9.16439 0)
(200.225 -9.49574 0)
(199.872 -9.79762 0)
(199.556 -10.0693 0)
(199.28 -10.3202 0)
(199.03 -10.5535 0)
(198.809 -10.7691 0)
(198.613 -10.9591 0)
(198.443 -11.1208 0)
(198.297 -11.2559 0)
(198.174 -11.3664 0)
(198.074 -11.4584 0)
(197.991 -11.5086 0)
(197.924 -11.5266 0)
(232.704 9.38089 0)
(225.206 -3.53986 0)
(219.89 -4.19283 0)
(216.684 -3.72968 0)
(214.327 -2.82925 0)
(212.491 -1.85933 0)
(211.205 -0.994127 0)
(210.444 -0.391646 0)
(210.105 -0.0953898 0)
(210.012 -0.0105991 0)
(210 -0.000296536 0)
(210 4.23952e-06 0)
(210 4.49794e-06 0)
(210 3.27397e-06 0)
(210 1.56971e-06 0)
(210 4.18845e-07 0)
(210 4.6343e-08 0)
(210 9.69756e-10 0)
(210 -9.31304e-09 0)
(210 -1.5545e-06 0)
(210 -0.000198487 0)
(209.985 -0.0126271 0)
(209.735 -0.25819 0)
(208.515 -1.63758 0)
(206.525 -4.17274 0)
(205.212 -6.01747 0)
(204.955 -6.62771 0)
(205.281 -6.6249 0)
(206.022 -5.89232 0)
(206.252 -5.37331 0)
(205.965 -5.24092 0)
(204.919 -5.77105 0)
(203.482 -6.79054 0)
(202.552 -7.49668 0)
(202.185 -7.80149 0)
(202.047 -7.95491 0)
(201.936 -8.07711 0)
(201.755 -8.24505 0)
(201.441 -8.51004 0)
(201.036 -8.85145 0)
(200.626 -9.20652 0)
(200.241 -9.53598 0)
(199.894 -9.8354 0)
(199.583 -10.1045 0)
(199.309 -10.3534 0)
(199.062 -10.585 0)
(198.841 -10.7987 0)
(198.645 -10.9862 0)
(198.475 -11.1451 0)
(198.327 -11.2776 0)
(198.202 -11.386 0)
(198.1 -11.4736 0)
(198.016 -11.5233 0)
(197.946 -11.5375 0)
(197.9 -11.5766 0)
(197.882 -11.6606 0)
(197.893 -11.77 0)
(197.949 -11.8648 0)
(198.015 -11.9389 0)
(198.125 -11.992 0)
(198.271 -12.0318 0)
(198.445 -12.0673 0)
(198.651 -12.0942 0)
(198.885 -12.1142 0)
(199.144 -12.1249 0)
(199.428 -12.1226 0)
(199.74 -12.1041 0)
(200.077 -12.0678 0)
(200.439 -12.0165 0)
(200.822 -11.9498 0)
(201.224 -11.8723 0)
(201.642 -11.7798 0)
(202.074 -11.6798 0)
(202.517 -11.564 0)
(202.974 -11.4449 0)
(203.436 -11.309 0)
(203.912 -11.1754 0)
(204.389 -11.023 0)
(204.879 -10.8779 0)
(205.365 -10.7112 0)
(205.865 -10.5587 0)
(206.356 -10.3822 0)
(206.858 -10.2246 0)
(207.343 -10.0395 0)
(207.836 -9.87678 0)
(208.303 -9.68595 0)
(208.778 -9.52066 0)
(209.224 -9.32759 0)
(209.682 -9.16136 0)
(210.113 -8.96777 0)
(210.558 -8.80064 0)
(210.978 -8.60782 0)
(211.412 -8.4407 0)
(211.818 -8.25155 0)
(212.229 -8.08724 0)
(212.609 -7.9055 0)
(212.988 -7.74712 0)
(213.335 -7.57468 0)
(213.683 -7.42265 0)
(214.003 -7.2584 0)
(214.328 -7.1108 0)
(214.632 -6.95302 0)
(214.94 -6.80894 0)
(215.229 -6.65753 0)
(215.517 -6.51843 0)
(215.786 -6.37499 0)
(216.051 -6.24322 0)
(216.301 -6.10956 0)
(216.549 -5.98665 0)
(216.786 -5.86348 0)
(217.022 -5.74936 0)
(217.246 -5.63555 0)
(217.463 -5.52915 0)
(217.66 -5.42295 0)
(217.836 -5.32352 0)
(217.973 -5.21903 0)
(218.032 -5.12082 0)
(218.139 -5.0218 0)
(218.17 -4.94295 0)
(233.14 9.69624 0)
(225.489 -3.62347 0)
(220.05 -4.29037 0)
(216.79 -3.81782 0)
(214.406 -2.90046 0)
(212.549 -1.91423 0)
(211.242 -1.03117 0)
(210.462 -0.411202 0)
(210.112 -0.102119 0)
(210.013 -0.011715 0)
(210 -0.000348911 0)
(210 4.30525e-06 0)
(210 4.64579e-06 0)
(210 3.41422e-06 0)
(210 1.65575e-06 0)
(210 4.51681e-07 0)
(210 5.19321e-08 0)
(210 1.15583e-09 0)
(210 -1.10617e-08 0)
(210 -1.85626e-06 0)
(210 -0.000234368 0)
(209.983 -0.0144236 0)
(209.713 -0.282052 0)
(208.454 -1.71894 0)
(206.477 -4.25999 0)
(205.217 -6.05245 0)
(204.999 -6.63017 0)
(205.34 -6.59047 0)
(206.063 -5.86468 0)
(206.24 -5.38168 0)
(205.904 -5.26809 0)
(204.807 -5.85899 0)
(203.403 -6.87447 0)
(202.543 -7.53787 0)
(202.214 -7.81962 0)
(202.084 -7.96806 0)
(201.968 -8.09103 0)
(201.779 -8.26914 0)
(201.454 -8.5463 0)
(201.046 -8.89305 0)
(200.639 -9.24768 0)
(200.259 -9.57528 0)
(199.917 -9.87276 0)
(199.608 -10.1402 0)
(199.337 -10.3878 0)
(199.09 -10.618 0)
(198.87 -10.8297 0)
(198.674 -11.0147 0)
(198.504 -11.1707 0)
(198.354 -11.3006 0)
(198.228 -11.4068 0)
(198.124 -11.4902 0)
(198.039 -11.5398 0)
(197.968 -11.5499 0)
(197.921 -11.5825 0)
(197.902 -11.6608 0)
(197.915 -11.7648 0)
(197.969 -11.8537 0)
(198.033 -11.9216 0)
(198.14 -11.9673 0)
(198.281 -11.9978 0)
(198.451 -12.0219 0)
(198.649 -12.0361 0)
(198.874 -12.0429 0)
(199.124 -12.0396 0)
(199.399 -12.0233 0)
(199.699 -11.9902 0)
(200.024 -11.939 0)
(200.373 -11.8721 0)
(200.743 -11.7895 0)
(201.132 -11.6957 0)
(201.536 -11.5873 0)
(201.955 -11.471 0)
(202.384 -11.3394 0)
(202.827 -11.2036 0)
(203.276 -11.0516 0)
(203.737 -10.9011 0)
(204.2 -10.7331 0)
(204.676 -10.5718 0)
(205.147 -10.39 0)
(205.632 -10.2207 0)
(206.107 -10.0292 0)
(206.595 -9.85549 0)
(207.064 -9.65626 0)
(207.542 -9.47796 0)
(207.994 -9.27325 0)
(208.454 -9.09271 0)
(208.884 -8.88621 0)
(209.327 -8.70557 0)
(209.741 -8.49956 0)
(210.17 -8.31923 0)
(210.574 -8.11481 0)
(210.992 -7.93523 0)
(211.382 -7.73457 0)
(211.781 -7.55793 0)
(212.148 -7.36449 0)
(212.516 -7.19407 0)
(212.851 -7.01053 0)
(213.187 -6.84775 0)
(213.494 -6.67384 0)
(213.805 -6.51722 0)
(214.094 -6.35125 0)
(214.387 -6.19934 0)
(214.662 -6.04056 0)
(214.938 -5.8941 0)
(215.195 -5.74358 0)
(215.451 -5.60476 0)
(215.691 -5.46438 0)
(215.931 -5.335 0)
(216.16 -5.20578 0)
(216.387 -5.08601 0)
(216.603 -4.96707 0)
(216.811 -4.85591 0)
(216.998 -4.74554 0)
(217.161 -4.64137 0)
(217.289 -4.53302 0)
(217.338 -4.43301 0)
(217.437 -4.33024 0)
(217.46 -4.25048 0)
(217.547 -4.14406 0)
(217.586 -4.20336 0)
(233.614 9.99437 0)
(225.779 -3.6879 0)
(220.207 -4.38683 0)
(216.892 -3.90446 0)
(214.484 -2.97043 0)
(212.605 -1.96829 0)
(211.279 -1.06792 0)
(210.481 -0.430837 0)
(210.119 -0.109006 0)
(210.014 -0.0128923 0)
(210 -0.000407249 0)
(210 4.28007e-06 0)
(210 4.79499e-06 0)
(210 3.55836e-06 0)
(210 1.74414e-06 0)
(210 4.85456e-07 0)
(210 5.78393e-08 0)
(210 1.36323e-09 0)
(210 -1.3133e-08 0)
(210 -2.21204e-06 0)
(210 -0.00027602 0)
(209.981 -0.0164262 0)
(209.69 -0.307308 0)
(208.394 -1.80096 0)
(206.436 -4.34338 0)
(205.233 -6.07976 0)
(205.042 -6.6294 0)
(205.397 -6.55537 0)
(206.09 -5.8388 0)
(206.225 -5.39023 0)
(205.842 -5.3009 0)
(204.703 -5.94805 0)
(203.348 -6.95334 0)
(202.547 -7.57311 0)
(202.246 -7.83482 0)
(202.121 -7.98129 0)
(202 -8.10636 0)
(201.799 -8.29481 0)
(201.465 -8.58356 0)
(201.054 -8.9351 0)
(200.65 -9.28892 0)
(200.276 -9.61434 0)
(199.939 -9.90959 0)
(199.635 -10.175 0)
(199.366 -10.4208 0)
(199.121 -10.6494 0)
(198.901 -10.8592 0)
(198.705 -11.0417 0)
(198.533 -11.1952 0)
(198.382 -11.3227 0)
(198.254 -11.4266 0)
(198.149 -11.506 0)
(198.062 -11.5557 0)
(197.989 -11.5616 0)
(197.942 -11.5886 0)
(197.921 -11.6612 0)
(197.934 -11.7596 0)
(197.986 -11.8426 0)
(198.047 -11.9048 0)
(198.15 -11.9435 0)
(198.286 -11.9645 0)
(198.448 -11.9774 0)
(198.637 -11.9792 0)
(198.852 -11.9734 0)
(199.09 -11.9567 0)
(199.353 -11.9268 0)
(199.639 -11.8799 0)
(199.951 -11.8146 0)
(200.286 -11.7329 0)
(200.641 -11.6352 0)
(201.015 -11.5258 0)
(201.404 -11.4021 0)
(201.809 -11.2701 0)
(202.223 -11.1234 0)
(202.651 -10.9719 0)
(203.084 -10.8048 0)
(203.53 -10.6382 0)
(203.977 -10.4553 0)
(204.437 -10.2784 0)
(204.892 -10.0824 0)
(205.361 -9.89734 0)
(205.82 -9.69136 0)
(206.291 -9.50198 0)
(206.744 -9.28911 0)
(207.207 -9.09587 0)
(207.642 -8.87791 0)
(208.087 -8.68272 0)
(208.501 -8.4633 0)
(208.928 -8.26861 0)
(209.325 -8.05046 0)
(209.738 -7.85716 0)
(210.125 -7.64143 0)
(210.527 -7.44965 0)
(210.901 -7.23779 0)
(211.286 -7.04905 0)
(211.64 -6.8441 0)
(211.997 -6.66167 0)
(212.321 -6.46689 0)
(212.646 -6.29315 0)
(212.941 -6.10936 0)
(213.239 -5.9436 0)
(213.514 -5.76942 0)
(213.794 -5.60985 0)
(214.055 -5.44396 0)
(214.319 -5.29053 0)
(214.565 -5.1333 0)
(214.811 -4.98776 0)
(215.043 -4.84091 0)
(215.276 -4.70519 0)
(215.497 -4.56997 0)
(215.717 -4.44455 0)
(215.925 -4.32046 0)
(216.124 -4.20455 0)
(216.302 -4.09008 0)
(216.455 -3.98133 0)
(216.575 -3.86958 0)
(216.615 -3.76742 0)
(216.706 -3.66116 0)
(216.724 -3.5805 0)
(216.807 -3.47191 0)
(216.845 -3.52321 0)
(234.035 10.3001 0)
(226.055 -3.76923 0)
(220.361 -4.48145 0)
(216.992 -3.98965 0)
(214.56 -3.03917 0)
(212.66 -2.02162 0)
(211.314 -1.10441 0)
(210.5 -0.450545 0)
(210.125 -0.116043 0)
(210.016 -0.0141304 0)
(210.001 -0.000471842 0)
(210 4.19687e-06 0)
(210 4.93378e-06 0)
(210 3.70762e-06 0)
(210 1.83517e-06 0)
(210 5.20311e-07 0)
(210 6.40742e-08 0)
(210 1.59312e-09 0)
(210 -1.55814e-08 0)
(210 -2.63078e-06 0)
(210 -0.000324249 0)
(209.979 -0.018652 0)
(209.666 -0.333971 0)
(208.334 -1.88358 0)
(206.393 -4.42528 0)
(205.243 -6.10941 0)
(205.086 -6.63089 0)
(205.454 -6.52125 0)
(206.118 -5.81603 0)
(206.211 -5.39982 0)
(205.777 -5.33821 0)
(204.595 -6.03629 0)
(203.286 -7.02745 0)
(202.55 -7.60816 0)
(202.279 -7.85127 0)
(202.159 -7.99435 0)
(202.031 -8.12155 0)
(201.82 -8.32076 0)
(201.476 -8.62081 0)
(201.064 -8.97652 0)
(200.664 -9.32927 0)
(200.294 -9.65265 0)
(199.961 -9.94617 0)
(199.661 -10.2103 0)
(199.393 -10.455 0)
(199.149 -10.6822 0)
(198.929 -10.89 0)
(198.733 -11.0699 0)
(198.56 -11.2208 0)
(198.408 -11.3459 0)
(198.279 -11.4476 0)
(198.172 -11.5233 0)
(198.084 -11.5731 0)
(198.01 -11.5745 0)
(197.961 -11.5962 0)
(197.938 -11.6626 0)
(197.952 -11.7552 0)
(198.001 -11.833 0)
(198.058 -11.8891 0)
(198.156 -11.9208 0)
(198.286 -11.9325 0)
(198.441 -11.9344 0)
(198.62 -11.9239 0)
(198.824 -11.9054 0)
(199.051 -11.8752 0)
(199.301 -11.8316 0)
(199.575 -11.7707 0)
(199.873 -11.6912 0)
(200.194 -11.5947 0)
(200.535 -11.482 0)
(200.894 -11.357 0)
(201.268 -11.2178 0)
(201.658 -11.07 0)
(202.058 -10.908 0)
(202.471 -10.7408 0)
(202.889 -10.5587 0)
(203.32 -10.376 0)
(203.751 -10.178 0)
(204.196 -9.98531 0)
(204.636 -9.77495 0)
(205.09 -9.57419 0)
(205.532 -9.35365 0)
(205.988 -9.14839 0)
(206.424 -8.92161 0)
(206.871 -8.71342 0)
(207.291 -8.48225 0)
(207.72 -8.27264 0)
(208.118 -8.04044 0)
(208.528 -7.83192 0)
(208.908 -7.60173 0)
(209.305 -7.39556 0)
(209.673 -7.16864 0)
(210.059 -6.96491 0)
(210.416 -6.74227 0)
(210.786 -6.54198 0)
(211.125 -6.32617 0)
(211.47 -6.13239 0)
(211.781 -5.92697 0)
(212.095 -5.74273 0)
(212.377 -5.54946 0)
(212.664 -5.37498 0)
(212.925 -5.19304 0)
(213.191 -5.02652 0)
(213.437 -4.85431 0)
(213.688 -4.69493 0)
(213.922 -4.53206 0)
(214.158 -4.3809 0)
(214.38 -4.22859 0)
(214.604 -4.08742 0)
(214.817 -3.94694 0)
(215.03 -3.81651 0)
(215.23 -3.68779 0)
(215.422 -3.5677 0)
(215.592 -3.44975 0)
(215.733 -3.3371 0)
(215.845 -3.22279 0)
(215.876 -3.11936 0)
(215.96 -3.01019 0)
(215.971 -2.93067 0)
(216.051 -2.82034 0)
(216.089 -2.86478 0)
(234.496 10.5885 0)
(226.337 -3.83085 0)
(220.511 -4.5749 0)
(217.09 -4.07334 0)
(214.633 -3.10668 0)
(212.715 -2.0741 0)
(211.35 -1.14056 0)
(210.519 -0.470287 0)
(210.132 -0.123216 0)
(210.017 -0.0154284 0)
(210.001 -0.000542963 0)
(210 4.05952e-06 0)
(210 5.06712e-06 0)
(210 3.86078e-06 0)
(210 1.92914e-06 0)
(210 5.564e-07 0)
(210 7.06534e-08 0)
(210 1.84586e-09 0)
(210 -1.84661e-08 0)
(210 -3.12265e-06 0)
(210 -0.00037995 0)
(209.976 -0.0211187 0)
(209.641 -0.362052 0)
(208.276 -1.96658 0)
(206.358 -4.50308 0)
(205.262 -6.13174 0)
(205.128 -6.62927 0)
(205.508 -6.48679 0)
(206.136 -5.7953 0)
(206.193 -5.40963 0)
(205.712 -5.38063 0)
(204.499 -6.12498 0)
(203.246 -7.09578 0)
(202.565 -7.6375 0)
(202.315 -7.86545 0)
(202.196 -8.00772 0)
(202.062 -8.13843 0)
(201.838 -8.34839 0)
(201.485 -8.65893 0)
(201.073 -9.01824 0)
(200.677 -9.36968 0)
(200.312 -9.69073 0)
(199.984 -9.98214 0)
(199.687 -10.2446 0)
(199.422 -10.4879 0)
(199.179 -10.7135 0)
(198.959 -10.9193 0)
(198.761 -11.097 0)
(198.587 -11.2455 0)
(198.434 -11.3684 0)
(198.303 -11.4677 0)
(198.196 -11.5401 0)
(198.106 -11.5897 0)
(198.03 -11.5871 0)
(197.98 -11.6044 0)
(197.954 -11.6646 0)
(197.967 -11.7509 0)
(198.011 -11.8234 0)
(198.064 -11.8741 0)
(198.157 -11.899 0)
(198.279 -11.9015 0)
(198.425 -11.8928 0)
(198.593 -11.8706 0)
(198.784 -11.84 0)
(198.998 -11.797 0)
(199.234 -11.7403 0)
(199.494 -11.6662 0)
(199.777 -11.5734 0)
(200.082 -11.463 0)
(200.408 -11.3361 0)
(200.751 -11.1964 0)
(201.11 -11.0425 0)
(201.483 -10.8795 0)
(201.866 -10.7028 0)
(202.263 -10.5207 0)
(202.665 -10.3245 0)
(203.08 -10.1267 0)
(203.494 -9.91437 0)
(203.923 -9.70647 0)
(204.346 -9.48242 0)
(204.783 -9.26684 0)
(205.208 -9.03262 0)
(205.647 -8.81213 0)
(206.066 -8.57199 0)
(206.496 -8.34942 0)
(206.899 -8.10564 0)
(207.312 -7.88219 0)
(207.693 -7.63774 0)
(208.087 -7.41582 0)
(208.45 -7.17392 0)
(208.83 -6.95512 0)
(209.181 -6.71726 0)
(209.55 -6.50179 0)
(209.89 -6.26874 0)
(210.244 -6.05729 0)
(210.567 -5.83109 0)
(210.899 -5.62628 0)
(211.198 -5.41045 0)
(211.502 -5.21573 0)
(211.773 -5.01289 0)
(212.049 -4.82949 0)
(212.297 -4.63963 0)
(212.552 -4.46613 0)
(212.785 -4.28767 0)
(213.023 -4.1226 0)
(213.245 -3.95442 0)
(213.47 -3.79806 0)
(213.683 -3.64069 0)
(213.899 -3.49438 0)
(214.105 -3.34885 0)
(214.31 -3.21347 0)
(214.504 -3.08006 0)
(214.69 -2.95556 0)
(214.852 -2.83377 0)
(214.983 -2.71677 0)
(215.091 -2.59949 0)
(215.115 -2.49369 0)
(215.193 -2.38194 0)
(215.2 -2.29967 0)
(215.279 -2.18715 0)
(215.317 -2.22708 0)
(234.904 10.8844 0)
(226.606 -3.9101 0)
(220.659 -4.66667 0)
(217.184 -4.15559 0)
(214.705 -3.17297 0)
(212.767 -2.12584 0)
(211.385 -1.1764 0)
(210.537 -0.490058 0)
(210.139 -0.130518 0)
(210.018 -0.0167855 0)
(210.001 -0.000620876 0)
(210 3.8504e-06 0)
(210 5.1835e-06 0)
(210 4.01776e-06 0)
(210 2.02638e-06 0)
(210 5.93876e-07 0)
(210 7.75976e-08 0)
(210 2.12246e-09 0)
(210 -2.186e-08 0)
(210 -3.69946e-06 0)
(209.999 -0.000444125 0)
(209.973 -0.0238445 0)
(209.615 -0.391556 0)
(208.217 -2.04994 0)
(206.32 -4.57968 0)
(205.276 -6.15661 0)
(205.171 -6.62969 0)
(205.561 -6.45355 0)
(206.154 -5.7773 0)
(206.175 -5.42028 0)
(205.643 -5.42698 0)
(204.401 -6.2123 0)
(203.199 -7.16019 0)
(202.577 -7.66738 0)
(202.349 -7.88069 0)
(202.234 -8.02062 0)
(202.092 -8.15536 0)
(201.856 -8.37645 0)
(201.496 -8.6969 0)
(201.084 -9.05917 0)
(200.692 -9.40926 0)
(200.332 -9.72826 0)
(200.007 -10.0181 0)
(199.713 -10.2796 0)
(199.449 -10.5219 0)
(199.206 -10.7461 0)
(198.986 -10.9499 0)
(198.788 -11.1251 0)
(198.613 -11.2712 0)
(198.458 -11.3919 0)
(198.326 -11.489 0)
(198.218 -11.5586 0)
(198.127 -11.6075 0)
(198.049 -11.6011 0)
(197.997 -11.6144 0)
(197.968 -11.6683 0)
(197.981 -11.7481 0)
(198.019 -11.8152 0)
(198.067 -11.8597 0)
(198.153 -11.8781 0)
(198.268 -11.8717 0)
(198.404 -11.8526 0)
(198.56 -11.8189 0)
(198.738 -11.7761 0)
(198.939 -11.7201 0)
(199.162 -11.6502 0)
(199.407 -11.5626 0)
(199.676 -11.4564 0)
(199.966 -11.3322 0)
(200.277 -11.1913 0)
(200.605 -11.037 0)
(200.948 -10.8685 0)
(201.305 -10.6903 0)
(201.673 -10.4988 0)
(202.053 -10.3014 0)
(202.439 -10.0908 0)
(202.838 -9.878 0)
(203.236 -9.65113 0)
(203.648 -9.42766 0)
(204.055 -9.18946 0)
(204.476 -8.95894 0)
(204.884 -8.71095 0)
(205.306 -8.47516 0)
(205.707 -8.22136 0)
(206.12 -7.98423 0)
(206.506 -7.72774 0)
(206.903 -7.49054 0)
(207.267 -7.23397 0)
(207.645 -6.9989 0)
(207.991 -6.74544 0)
(208.355 -6.5142 0)
(208.688 -6.26559 0)
(209.039 -6.03868 0)
(209.361 -5.79572 0)
(209.698 -5.57376 0)
(210.005 -5.33811 0)
(210.323 -5.12331 0)
(210.608 -4.89823 0)
(210.9 -4.69403 0)
(211.16 -4.48256 0)
(211.425 -4.29095 0)
(211.662 -4.09383 0)
(211.905 -3.91392 0)
(212.125 -3.72973 0)
(212.351 -3.55963 0)
(212.56 -3.38678 0)
(212.774 -3.22595 0)
(212.976 -3.06427 0)
(213.183 -2.9136 0)
(213.38 -2.76381 0)
(213.578 -2.62421 0)
(213.765 -2.4867 0)
(213.944 -2.35828 0)
(214.1 -2.23298 0)
(214.22 -2.11189 0)
(214.323 -1.99173 0)
(214.34 -1.88364 0)
(214.414 -1.76926 0)
(214.416 -1.68459 0)
(214.491 -1.57024 0)
(214.527 -1.60434 0)
(235.352 11.1627 0)
(226.882 -3.96915 0)
(220.802 -4.75718 0)
(217.276 -4.23636 0)
(214.774 -3.23804 0)
(212.819 -2.17671 0)
(211.419 -1.21186 0)
(210.556 -0.509826 0)
(210.146 -0.137938 0)
(210.02 -0.0182002 0)
(210.001 -0.000705817 0)
(210 3.55533e-06 0)
(210 5.277e-06 0)
(210 4.17743e-06 0)
(210 2.12729e-06 0)
(210 6.32892e-07 0)
(210 8.49297e-08 0)
(210 2.42463e-09 0)
(210 -2.58448e-08 0)
(210 -4.37458e-06 0)
(209.999 -0.000517878 0)
(209.97 -0.0268487 0)
(209.588 -0.422486 0)
(208.16 -2.13342 0)
(206.291 -4.65196 0)
(205.297 -6.17474 0)
(205.213 -6.62717 0)
(205.611 -6.42042 0)
(206.164 -5.76163 0)
(206.153 -5.43122 0)
(205.573 -5.47792 0)
(204.316 -6.29909 0)
(203.171 -7.21864 0)
(202.596 -7.69181 0)
(202.386 -7.89434 0)
(202.271 -8.03417 0)
(202.122 -8.17415 0)
(201.873 -8.40623 0)
(201.504 -8.73563 0)
(201.093 -9.1003 0)
(200.706 -9.44882 0)
(200.351 -9.76557 0)
(200.03 -10.0534 0)
(199.739 -10.3135 0)
(199.478 -10.5547 0)
(199.235 -10.7774 0)
(199.015 -10.9794 0)
(198.816 -11.1523 0)
(198.639 -11.2962 0)
(198.483 -11.4148 0)
(198.35 -11.5096 0)
(198.241 -11.5767 0)
(198.148 -11.6247 0)
(198.069 -11.6152 0)
(198.013 -11.6257 0)
(197.98 -11.6734 0)
(197.991 -11.7463 0)
(198.023 -11.8081 0)
(198.065 -11.8461 0)
(198.143 -11.858 0)
(198.248 -11.8431 0)
(198.374 -11.8145 0)
(198.516 -11.7701 0)
(198.681 -11.7158 0)
(198.866 -11.6476 0)
(199.074 -11.5651 0)
(199.305 -11.4649 0)
(199.558 -11.346 0)
(199.833 -11.2088 0)
(200.128 -11.0547 0)
(200.44 -10.8867 0)
(200.766 -10.7045 0)
(201.107 -10.5121 0)
(201.457 -10.3065 0)
(201.82 -10.0946 0)
(202.189 -9.87028 0)
(202.57 -9.64335 0)
(202.95 -9.40293 0)
(203.345 -9.16475 0)
(203.734 -8.913 0)
(204.136 -8.6683 0)
(204.526 -8.40747 0)
(204.929 -8.15733 0)
(205.312 -7.89052 0)
(205.707 -7.63931 0)
(206.074 -7.37055 0)
(206.454 -7.12004 0)
(206.8 -6.85176 0)
(207.163 -6.60392 0)
(207.491 -6.33928 0)
(207.839 -6.09594 0)
(208.154 -5.83694 0)
(208.489 -5.59895 0)
(208.793 -5.34655 0)
(209.114 -5.11456 0)
(209.405 -4.87007 0)
(209.708 -4.64584 0)
(209.98 -4.41208 0)
(210.261 -4.19879 0)
(210.51 -3.97897 0)
(210.766 -3.77915 0)
(210.992 -3.57467 0)
(211.225 -3.3881 0)
(211.433 -3.19792 0)
(211.649 -3.02257 0)
(211.846 -2.84484 0)
(212.049 -2.67946 0)
(212.241 -2.51347 0)
(212.438 -2.35854 0)
(212.627 -2.20468 0)
(212.818 -2.06104 0)
(212.998 -1.91962 0)
(213.171 -1.78736 0)
(213.32 -1.65859 0)
(213.429 -1.53336 0)
(213.529 -1.41014 0)
(213.541 -1.29936 0)
(213.61 -1.18206 0)
(213.608 -1.09498 0)
(213.679 -0.978552 0)
(213.712 -1.00624 0)
(235.746 11.4485 0)
(227.144 -4.04646 0)
(220.943 -4.84616 0)
(217.365 -4.31569 0)
(214.842 -3.3019 0)
(212.868 -2.22683 0)
(211.452 -1.24699 0)
(210.574 -0.529583 0)
(210.153 -0.145467 0)
(210.021 -0.0196716 0)
(210.001 -0.000798011 0)
(210 3.152e-06 0)
(210 5.35194e-06 0)
(210 4.33807e-06 0)
(210 2.23206e-06 0)
(210 6.7356e-07 0)
(210 9.26705e-08 0)
(210 2.75256e-09 0)
(210 -3.05156e-08 0)
(210 -5.16347e-06 0)
(209.999 -0.000602433 0)
(209.967 -0.0301505 0)
(209.56 -0.454841 0)
(208.103 -2.21705 0)
(206.258 -4.72338 0)
(205.314 -6.19547 0)
(205.254 -6.62649 0)
(205.659 -6.38866 0)
(206.174 -5.74827 0)
(206.13 -5.44305 0)
(205.501 -5.53209 0)
(204.228 -6.38395 0)
(203.137 -7.27424 0)
(202.613 -7.71725 0)
(202.421 -7.90863 0)
(202.308 -8.0469 0)
(202.152 -8.193 0)
(201.889 -8.43654 0)
(201.514 -8.7741 0)
(201.105 -9.14055 0)
(200.722 -9.4876 0)
(200.371 -9.80244 0)
(200.053 -10.0888 0)
(199.764 -10.3481 0)
(199.504 -10.5885 0)
(199.262 -10.8099 0)
(199.041 -11.0098 0)
(198.841 -11.1805 0)
(198.664 -11.3222 0)
(198.506 -11.4387 0)
(198.372 -11.5314 0)
(198.262 -11.5962 0)
(198.168 -11.643 0)
(198.086 -11.6308 0)
(198.027 -11.6385 0)
(197.99 -11.6795 0)
(197.997 -11.7468 0)
(198.023 -11.8022 0)
(198.058 -11.833 0)
(198.127 -11.8386 0)
(198.223 -11.8155 0)
(198.338 -11.7777 0)
(198.467 -11.7227 0)
(198.618 -11.6568 0)
(198.789 -11.5762 0)
(198.983 -11.4811 0)
(199.198 -11.3682 0)
(199.437 -11.2365 0)
(199.696 -11.0864 0)
(199.975 -10.9191 0)
(200.271 -10.7376 0)
(200.581 -10.5418 0)
(200.905 -10.3353 0)
(201.239 -10.1157 0)
(201.585 -9.88921 0)
(201.936 -9.65072 0)
(202.3 -9.40931 0)
(202.664 -9.15512 0)
(203.04 -8.90203 0)
(203.412 -8.63624 0)
(203.796 -8.37691 0)
(204.169 -8.10303 0)
(204.553 -7.83862 0)
(204.917 -7.55866 0)
(205.294 -7.2931 0)
(205.642 -7.0117 0)
(206.004 -6.74764 0)
(206.333 -6.46746 0)
(206.678 -6.20683 0)
(206.99 -5.93106 0)
(207.321 -5.67587 0)
(207.62 -5.40685 0)
(207.937 -5.15835 0)
(208.224 -4.89723 0)
(208.528 -4.65615 0)
(208.802 -4.40399 0)
(209.09 -4.1716 0)
(209.348 -3.93056 0)
(209.616 -3.70947 0)
(209.854 -3.48252 0)
(210.1 -3.27535 0)
(210.315 -3.06421 0)
(210.539 -2.87134 0)
(210.736 -2.67545 0)
(210.941 -2.49507 0)
(211.126 -2.31268 0)
(211.319 -2.14311 0)
(211.499 -1.97322 0)
(211.687 -1.81455 0)
(211.867 -1.65719 0)
(212.05 -1.51009 0)
(212.222 -1.36532 0)
(212.388 -1.22974 0)
(212.53 -1.09806 0)
(212.627 -0.968974 0)
(212.724 -0.842851 0)
(212.732 -0.729482 0)
(212.796 -0.609187 0)
(212.789 -0.51994 0)
(212.854 -0.401321 0)
(212.885 -0.4223 0)
(236.181 11.7168 0)
(227.412 -4.10315 0)
(221.08 -4.9338 0)
(217.451 -4.39355 0)
(214.908 -3.36457 0)
(212.918 -2.27609 0)
(211.486 -1.28171 0)
(210.592 -0.549304 0)
(210.16 -0.153096 0)
(210.023 -0.0211982 0)
(210.001 -0.000897638 0)
(210 2.62454e-06 0)
(210 5.42664e-06 0)
(210 4.49377e-06 0)
(210 2.34015e-06 0)
(210 7.1594e-07 0)
(210 1.00838e-07 0)
(210 3.10866e-09 0)
(210 -3.59816e-08 0)
(210 -6.08377e-06 0)
(209.999 -0.000699147 0)
(209.963 -0.0337703 0)
(209.532 -0.488615 0)
(208.048 -2.30053 0)
(206.234 -4.7903 0)
(205.337 -6.20974 0)
(205.295 -6.62306 0)
(205.704 -6.35738 0)
(206.178 -5.73745 0)
(206.103 -5.45547 0)
(205.429 -5.59011 0)
(204.155 -6.46727 0)
(203.12 -7.32394 0)
(202.637 -7.73768 0)
(202.457 -7.9219 0)
(202.344 -8.06056 0)
(202.18 -8.21372 0)
(201.905 -8.46848 0)
(201.522 -8.81327 0)
(201.115 -9.18091 0)
(200.738 -9.52631 0)
(200.392 -9.83913 0)
(200.077 -10.1237 0)
(199.79 -10.3817 0)
(199.532 -10.6212 0)
(199.29 -10.8412 0)
(199.069 -11.0394 0)
(198.868 -11.2081 0)
(198.688 -11.3478 0)
(198.53 -11.4623 0)
(198.394 -11.5528 0)
(198.284 -11.6153 0)
(198.188 -11.6607 0)
(198.104 -11.6464 0)
(198.04 -11.6515 0)
(197.997 -11.6859 0)
(198.001 -11.7482 0)
(198.019 -11.7979 0)
(198.047 -11.8208 0)
(198.106 -11.8202 0)
(198.189 -11.7897 0)
(198.292 -11.7437 0)
(198.407 -11.6789 0)
(198.543 -11.6021 0)
(198.699 -11.5101 0)
(198.878 -11.4033 0)
(199.078 -11.2784 0)
(199.3 -11.1347 0)
(199.544 -10.9724 0)
(199.806 -10.7926 0)
(200.086 -10.5983 0)
(200.379 -10.3897 0)
(200.686 -10.1701 0)
(201.001 -9.93751 0)
(201.329 -9.69734 0)
(201.662 -9.44555 0)
(202.007 -9.19048 0)
(202.353 -8.92347 0)
(202.71 -8.65662 0)
(203.062 -8.37769 0)
(203.427 -8.10444 0)
(203.78 -7.81828 0)
(204.146 -7.54069 0)
(204.49 -7.2486 0)
(204.847 -6.96948 0)
(205.175 -6.67601 0)
(205.518 -6.39884 0)
(205.829 -6.10714 0)
(206.157 -5.83402 0)
(206.451 -5.54739 0)
(206.765 -5.28059 0)
(207.047 -5.00177 0)
(207.349 -4.74302 0)
(207.619 -4.47353 0)
(207.907 -4.22375 0)
(208.165 -3.96444 0)
(208.439 -3.72446 0)
(208.682 -3.47679 0)
(208.938 -3.24839 0)
(209.164 -3.01469 0)
(209.401 -2.80018 0)
(209.607 -2.58226 0)
(209.822 -2.38258 0)
(210.009 -2.18044 0)
(210.205 -1.99437 0)
(210.379 -1.80673 0)
(210.562 -1.63254 0)
(210.732 -1.45839 0)
(210.912 -1.29576 0)
(211.083 -1.13472 0)
(211.259 -0.984017 0)
(211.423 -0.835827 0)
(211.582 -0.69696 0)
(211.717 -0.562407 0)
(211.8 -0.429467 0)
(211.895 -0.300326 0)
(211.898 -0.184279 0)
(211.958 -0.0608854 0)
(211.946 0.0304002 0)
(212.005 0.1513 0)
(212.034 0.13669 0)
(236.562 11.9924 0)
(227.665 -4.17866 0)
(221.214 -5.02005 0)
(217.535 -4.47 0)
(214.972 -3.42605 0)
(212.965 -2.32459 0)
(211.518 -1.31606 0)
(210.61 -0.568982 0)
(210.167 -0.160816 0)
(210.024 -0.0227787 0)
(210.001 -0.00100486 0)
(210 1.96363e-06 0)
(210 5.50398e-06 0)
(210 4.64567e-06 0)
(210 2.45067e-06 0)
(210 7.59945e-07 0)
(210 1.09441e-07 0)
(210 3.49438e-09 0)
(210 -4.23674e-08 0)
(210 -7.15545e-06 0)
(209.999 -0.000809499 0)
(209.959 -0.0377284 0)
(209.502 -0.5238 0)
(207.993 -2.38396 0)
(206.205 -4.85676 0)
(205.356 -6.22705 0)
(205.336 -6.62127 0)
(205.747 -6.32757 0)
(206.181 -5.72848 0)
(206.074 -5.46888 0)
(205.354 -5.65057 0)
(204.078 -6.54829 0)
(203.097 -7.37175 0)
(202.658 -7.75936 0)
(202.493 -7.93542 0)
(202.38 -8.07336 0)
(202.208 -8.23456 0)
(201.92 -8.50091 0)
(201.531 -8.85209 0)
(201.127 -9.22035 0)
(200.755 -9.56427 0)
(200.413 -9.87555 0)
(200.101 -10.1589 0)
(199.815 -10.4162 0)
(199.557 -10.6549 0)
(199.317 -10.8736 0)
(199.095 -11.0699 0)
(198.893 -11.2365 0)
(198.712 -11.3742 0)
(198.552 -11.4869 0)
(198.416 -11.5755 0)
(198.304 -11.6357 0)
(198.207 -11.6796 0)
(198.12 -11.664 0)
(198.051 -11.6658 0)
(198.002 -11.6935 0)
(198 -11.7519 0)
(198.01 -11.7933 0)
(198.032 -11.8099 0)
(198.079 -11.8026 0)
(198.15 -11.7651 0)
(198.24 -11.711 0)
(198.342 -11.6361 0)
(198.464 -11.5485 0)
(198.605 -11.445 0)
(198.769 -11.3265 0)
(198.954 -11.1897 0)
(199.161 -11.0341 0)
(199.388 -10.8596 0)
(199.634 -10.6675 0)
(199.897 -10.4605 0)
(200.173 -10.2391 0)
(200.463 -10.0063 0)
(200.761 -9.7607 0)
(201.072 -9.50691 0)
(201.387 -9.2416 0)
(201.714 -8.97247 0)
(202.041 -8.69222 0)
(202.379 -8.41145 0)
(202.712 -8.11912 0)
(203.058 -7.83146 0)
(203.392 -7.53241 0)
(203.738 -7.24141 0)
(204.064 -6.9371 0)
(204.401 -6.64441 0)
(204.711 -6.33868 0)
(205.035 -6.04827 0)
(205.326 -5.74493 0)
(205.636 -5.45935 0)
(205.912 -5.16202 0)
(206.209 -4.88397 0)
(206.474 -4.59579 0)
(206.759 -4.32735 0)
(207.013 -4.0501 0)
(207.286 -3.79233 0)
(207.527 -3.5267 0)
(207.785 -3.28003 0)
(208.013 -3.02679 0)
(208.256 -2.79217 0)
(208.47 -2.55285 0)
(208.695 -2.33197 0)
(208.891 -2.10816 0)
(209.097 -1.90223 0)
(209.274 -1.6944 0)
(209.461 -1.5029 0)
(209.624 -1.31033 0)
(209.798 -1.13177 0)
(209.959 -0.953607 0)
(210.129 -0.78723 0)
(210.292 -0.622689 0)
(210.459 -0.4685 0)
(210.616 -0.316994 0)
(210.768 -0.175048 0)
(210.896 -0.0375737 0)
(210.963 0.098941 0)
(211.055 0.231109 0)
(211.054 0.34967 0)
(211.11 0.476175 0)
(211.092 0.56913 0)
(211.145 0.692245 0)
(211.171 0.683979 0)
(236.984 12.2504 0)
(227.926 -4.23318 0)
(221.345 -5.10487 0)
(217.617 -4.54501 0)
(215.034 -3.48637 0)
(213.012 -2.37225 0)
(211.55 -1.35 0)
(210.628 -0.588597 0)
(210.174 -0.168619 0)
(210.026 -0.0244114 0)
(210.001 -0.00111978 0)
(210 1.15942e-06 0)
(210 5.58343e-06 0)
(210 4.79368e-06 0)
(210 2.56259e-06 0)
(210 8.05318e-07 0)
(210 1.18476e-07 0)
(210 3.91075e-09 0)
(210 -4.98176e-08 0)
(210 -8.40152e-06 0)
(209.999 -0.000935129 0)
(209.955 -0.0420459 0)
(209.472 -0.560382 0)
(207.94 -2.46701 0)
(206.186 -4.91855 0)
(205.38 -6.23793 0)
(205.376 -6.61699 0)
(205.787 -6.29859 0)
(206.179 -5.72247 0)
(206.042 -5.48323 0)
(205.282 -5.71406 0)