/*--------------------------------*- C++ -*----------------------------------*\
| =========                 |                                                 |
| \\      /  F ield         | OpenFOAM: The Open Source CFD Toolbox           |
|  \\    /   O peration     | Version:  2412                                  |
|   \\  /    A nd           | Website:  www.openfoam.com                      |
|    \\/     M anipulation  |                                                 |
\*---------------------------------------------------------------------------*/
FoamFile
{
    version     2.0;
    format      ascii;
    arch        "LSB;label=32;scalar=64";
    class       volScalarField;
    location    "0.096";
    object      p;
}
// * * * * * * * * * * * * * * * * * * * * * * * * * * * * * * * * * * * * * //

dimensions      [1 -1 -2 0 0 0 0];

internalField   nonuniform List<scalar> 
9831
(
1022.79
2370.51
1019.03
2369.64
2635.5
2633.78
2645.64
2660.1
2674.67
2687.34
2698.49
2708.5
2717.99
2727.07
2735.76
2744.05
2751.99
2759.72
2767.39
2775.05
2782.66
2790.11
2797.31
2804.22
2810.82
2817.04
2822.81
2828.12
2832.98
2837.49
2841.74
2845.83
2849.82
2853.77
2857.72
2861.67
2865.62
2869.57
2873.52
2877.46
2881.38
2885.25
2889.05
2892.75
2896.35
2899.85
2903.24
2906.51
2909.63
2912.59
2915.36
2917.94
1014.91
2368.95
2635.44
2633.45
2645.29
2659.81
2674.4
2687.08
2698.25
2708.29
2717.8
2726.9
2735.6
2743.91
2751.87
2759.63
2767.32
2775
2782.61
2790.06
2797.25
2804.16
2810.75
2816.95
2822.71
2828
2832.86
2837.36
2841.61
2845.7
2849.7
2853.67
2857.62
2861.58
2865.54
2869.5
2873.45
2877.4
2881.32
2885.19
2888.99
2892.69
2896.29
2899.8
2903.19
2906.46
2909.59
2912.55
2915.33
2917.91
2920.26
2922.39
1011.47
2368.26
2635.37
2633.1
2644.93
2659.51
2674.13
2686.82
2698.02
2708.09
2717.62
2726.73
2735.45
2743.77
2751.75
2759.53
2767.24
2774.94
2782.57
2790.01
2797.2
2804.1
2810.67
2816.87
2822.61
2827.89
2832.73
2837.23
2841.48
2845.58
2849.59
2853.56
2857.53
2861.49
2865.46
2869.42
2873.38
2877.33
2881.26
2885.13
2888.93
2892.63
2896.24
2899.75
2903.15
2906.42
2909.55
2912.52
2915.3
2917.88
2920.24
2922.38
2924.28
2925.92
1008.51
2367.6
2635.29
2632.73
2644.56
2659.21
2673.86
2686.56
2697.79
2707.89
2717.44
2726.56
2735.3
2743.64
2751.64
2759.44
2767.17
2774.89
2782.52
2789.96
2797.15
2804.04
2810.6
2816.78
2822.51
2827.78
2832.61
2837.1
2841.35
2845.45
2849.47
2853.46
2857.43
2861.41
2865.38
2869.35
2873.31
2877.26
2881.19
2885.07
2888.86
2892.57
2896.18
2899.69
2903.1
2906.38
2909.52
2912.49
2915.27
2917.86
2920.23
2922.37
2924.28
2925.94
2927.34
2928.47
2929.32
2929.91
2930.19
2930.18
2929.85
2929.23
2928.34
2927.18
2925.74
2924.03
2922.07
2919.87
2917.45
2914.81
2911.98
2908.97
2905.79
2902.48
2899.03
2895.48
2891.83
2888.11
2884.32
2880.5
2876.64
2872.77
2868.89
2865.02
2861.17
2857.35
2853.56
2849.82
2846.14
2842.51
2838.95
2835.46
2832.04
2828.71
2825.45
2822.28
2819.19
2816.19
2813.27
2810.44
2807.71
2805.05
2802.49
2800.01
2797.62
2795.31
2793.08
2790.94
2788.88
2786.89
2784.98
2783.14
2781.38
2779.68
2778.07
2776.5
2774.99
2773.74
2772.31
1005.33
2367.11
2635.2
2632.33
2644.19
2658.91
2673.59
2686.31
2697.57
2707.69
2717.26
2726.4
2735.15
2743.51
2751.53
2759.35
2767.1
2774.83
2782.47
2789.92
2797.1
2803.98
2810.53
2816.7
2822.41
2827.66
2832.49
2836.98
2841.23
2845.33
2849.36
2853.35
2857.34
2861.32
2865.3
2869.27
2873.23
2877.19
2881.12
2885
2888.8
2892.51
2896.12
2899.64
2903.06
2906.34
2909.48
2912.46
2915.25
2917.84
2920.22
2922.37
2924.29
2925.96
2927.38
2928.53
2929.4
2930.02
2930.33
2930.35
2930.05
2929.48
2928.64
2927.53
2926.14
2924.5
2922.61
2920.48
2918.14
2915.58
2912.84
2909.92
2906.84
2903.63
2900.29
2896.85
2893.32
2889.72
2886.05
2882.35
2878.62
2874.87
2871.12
2867.38
2863.65
2859.96
2856.3
2852.7
2849.14
2845.64
2842.2
2838.84
2835.54
2832.32
2829.18
2826.13
2823.15
2820.26
2817.46
2814.74
2812.1
2809.55
2807.08
2804.7
2802.4
2800.18
2798.05
2795.99
2794
2792.1
2790.27
2788.5
2786.81
2785.19
2783.64
2782.14
2780.7
2779.51
2778.13
2777.31
2774.72
1001.96
2366.75
2635.1
2631.92
2643.8
2658.61
2673.32
2686.06
2697.35
2707.5
2717.09
2726.25
2735.01
2743.38
2751.42
2759.26
2767.04
2774.78
2782.43
2789.87
2797.04
2803.92
2810.46
2816.61
2822.31
2827.55
2832.37
2836.85
2841.1
2845.21
2849.24
2853.25
2857.24
2861.23
2865.21
2869.19
2873.16
2877.12
2881.05
2884.93
2888.74
2892.45
2896.07
2899.6
2903.01
2906.31
2909.45
2912.43
2915.23
2917.83
2920.22
2922.38
2924.32
2926
2927.44
2928.61
2929.51
2930.15
2930.5
2930.55
2930.29
2929.78
2928.99
2927.93
2926.61
2925.03
2923.22
2921.17
2918.91
2916.44
2913.79
2910.98
2908.01
2904.9
2901.68
2898.35
2894.94
2891.46
2887.92
2884.35
2880.75
2877.13
2873.51
2869.91
2866.31
2862.75
2859.23
2855.75
2852.32
2848.95
2845.64
2842.4
2839.23
2836.13
2833.11
2830.17
2827.31
2824.53
2821.84
2819.22
2816.69
2814.24
2811.87
2809.59
2807.38
2805.25
2803.2
2801.22
2799.32
2797.49
2795.74
2794.05
2792.42
2790.87
2789.38
2787.98
2786.59
2785.48
2784.13
2783.38
2780.85
999.606
2366.51
2634.99
2631.49
2643.41
2658.31
2673.05
2685.81
2697.13
2707.31
2716.92
2726.09
2734.87
2743.26
2751.32
2759.18
2766.97
2774.73
2782.38
2789.82
2796.99
2803.85
2810.39
2816.52
2822.21
2827.44
2832.24
2836.72
2840.97
2845.09
2849.13
2853.14
2857.15
2861.14
2865.13
2869.11
2873.08
2877.05
2880.98
2884.87
2888.67
2892.39
2896.01
2899.55
2902.97
2906.27
2909.42
2912.41
2915.22
2917.82
2920.22
2922.4
2924.35
2926.05
2927.51
2928.7
2929.63
2930.3
2930.69
2930.78
2930.57
2930.11
2929.37
2928.38
2927.12
2925.62
2923.88
2921.92
2919.75
2917.38
2914.83
2912.12
2909.26
2906.27
2903.16
2899.96
2896.67
2893.33
2889.92
2886.48
2883.01
2879.53
2876.05
2872.58
2869.12
2865.7
2862.31
2858.97
2855.67
2852.43
2849.25
2846.14
2843.1
2840.12
2837.23
2834.4
2831.66
2828.99
2826.41
2823.9
2821.48
2819.13
2816.86
2814.67
2812.55
2810.51
2808.55
2806.66
2804.84
2803.09
2801.41
2799.79
2798.24
2796.75
2795.33
2794.02
2792.67
2791.6
2790.31
2789.63
2787.18
997.217
2366.39
2634.88
2631.05
2643.01
2658.02
2672.79
2685.57
2696.92
2707.12
2716.75
2725.94
2734.73
2743.14
2751.21
2759.1
2766.91
2774.68
2782.34
2789.78
2796.94
2803.79
2810.31
2816.44
2822.11
2827.32
2832.12
2836.6
2840.85
2844.97
2849.02
2853.04
2857.05
2861.05
2865.04
2869.02
2873
2876.97
2880.91
2884.8
2888.6
2892.33
2895.96
2899.5
2902.93
2906.24
2909.39
2912.39
2915.2
2917.82
2920.23
2922.43
2924.39
2926.12
2927.6
2928.82
2929.78
2930.48
2930.91
2931.04
2930.89
2930.48
2929.81
2928.88
2927.7
2926.27
2924.62
2922.75
2920.67
2918.4
2915.96
2913.36
2910.62
2907.75
2904.77
2901.7
2898.54
2895.33
2892.06
2888.75
2885.42
2882.08
2878.74
2875.41
2872.1
2868.81
2865.56
2862.36
2859.2
2856.09
2853.05
2850.06
2847.15
2844.3
2841.52
2838.82
2836.19
2833.64
2831.16
2828.76
2826.44
2824.19
2822.02
2819.93
2817.9
2815.95
2814.07
2812.26
2810.52
2808.85
2807.24
2805.69
2804.21
2802.79
2801.42
2800.19
2798.89
2797.84
2796.62
2796.01
2793.61
994.615
2366.49
2634.75
2630.58
2642.6
2657.73
2672.53
2685.33
2696.71
2706.94
2716.59
2725.8
2734.6
2743.02
2751.11
2759.02
2766.85
2774.63
2782.3
2789.73
2796.89
2803.73
2810.24
2816.35
2822.01
2827.21
2832
2836.47
2840.72
2844.85
2848.91
2852.93
2856.95
2860.96
2864.95
2868.94
2872.92
2876.9
2880.84
2884.73
2888.54
2892.27
2895.91
2899.45
2902.89
2906.2
2909.37
2912.37
2915.2
2917.83
2920.25
2922.46
2924.44
2926.19
2927.7
2928.95
2929.95
2930.68
2931.15
2931.34
2931.24
2930.89
2930.28
2929.42
2928.32
2926.98
2925.41
2923.63
2921.66
2919.5
2917.17
2914.69
2912.07
2909.32
2906.47
2903.53
2900.51
2897.44
2894.31
2891.15
2887.96
2884.77
2881.57
2878.38
2875.21
2872.07
2868.96
2865.9
2862.88
2859.91
2857
2854.15
2851.36
2848.64
2845.99
2843.41
2840.9
2838.46
2836.1
2833.8
2831.59
2829.44
2827.37
2825.37
2823.43
2821.57
2819.78
2818.05
2816.39
2814.79
2813.26
2811.78
2810.37
2809.01
2807.71
2806.54
2805.29
2804.28
2803.14
2802.59
2800.25
992.368
2366.76
2634.61
2630.1
2642.19
2657.44
2672.29
2685.1
2696.51
2706.76
2716.43
2725.65
2734.47
2742.9
2751.02
2758.94
2766.79
2774.59
2782.25
2789.69
2796.83
2803.67
2810.17
2816.27
2821.91
2827.1
2831.88
2836.35
2840.6
2844.73
2848.79
2852.83
2856.85
2860.86
2864.86
2868.85
2872.84
2876.82
2880.77
2884.66
2888.47
2892.21
2895.85
2899.41
2902.85
2906.17
2909.35
2912.36
2915.19
2917.83
2920.28
2922.5
2924.51
2926.28
2927.81
2929.1
2930.13
2930.9
2931.42
2931.66
2931.63
2931.34
2930.8
2930.02
2929
2927.75
2926.27
2924.6
2922.73
2920.68
2918.47
2916.11
2913.62
2911.01
2908.29
2905.49
2902.61
2899.68
2896.7
2893.69
2890.65
2887.6
2884.55
2881.51
2878.49
2875.5
2872.53
2869.61
2866.73
2863.9
2861.12
2858.41
2855.75
2853.16
2850.63
2848.17
2845.78
2843.45
2841.2
2839.02
2836.9
2834.86
2832.88
2830.97
2829.13
2827.36
2825.65
2824
2822.42
2820.9
2819.43
2818.03
2816.68
2815.38
2814.14
2813.04
2811.85
2810.88
2809.8
2809.32
2807.04
990.538
2367.2
2634.46
2629.6
2641.78
2657.15
2672.04
2684.88
2696.31
2706.59
2716.28
2725.51
2734.34
2742.79
2750.92
2758.87
2766.73
2774.54
2782.21
2789.64
2796.78
2803.61
2810.1
2816.18
2821.81
2826.99
2831.76
2836.22
2840.48
2844.61
2848.68
2852.72
2856.75
2860.77
2864.77
2868.77
2872.76
2876.74
2880.69
2884.59
2888.41
2892.15
2895.8
2899.36
2902.81
2906.14
2909.32
2912.34
2915.19
2917.85
2920.31
2922.55
2924.58
2926.38
2927.94
2929.26
2930.34
2931.15
2931.71
2932.02
2932.06
2931.82
2931.36
2930.66
2929.72
2928.56
2927.19
2925.62
2923.86
2921.93
2919.84
2917.61
2915.25
2912.78
2910.2
2907.55
2904.82
2902.03
2899.2
2896.34
2893.45
2890.56
2887.66
2884.77
2881.9
2879.05
2876.24
2873.46
2870.72
2868.04
2865.4
2862.82
2860.29
2857.83
2855.43
2853.09
2850.82
2848.61
2846.47
2844.39
2842.39
2840.44
2838.57
2836.75
2835
2833.32
2831.69
2830.13
2828.62
2827.17
2825.78
2824.44
2823.16
2821.93
2820.74
2819.71
2818.57
2817.65
2816.64
2816.22
2813.99
988.919
2367.88
2634.29
2629.07
2641.35
2656.87
2671.81
2684.66
2696.11
2706.41
2716.12
2725.37
2734.22
2742.68
2750.83
2758.8
2766.68
2774.5
2782.17
2789.6
2796.73
2803.55
2810.02
2816.09
2821.71
2826.87
2831.64
2836.1
2840.35
2844.49
2848.57
2852.62
2856.65
2860.67
2864.68
2868.68
2872.68
2876.66
2880.62
2884.52
2888.34
2892.09
2895.75
2899.32
2902.78
2906.11
2909.3
2912.33
2915.19
2917.87
2920.34
2922.61
2924.66
2926.49
2928.09
2929.45
2930.56
2931.42
2932.04
2932.42
2932.52
2932.34
2931.96
2931.35
2930.5
2929.44
2928.18
2926.72
2925.08
2923.27
2921.31
2919.21
2916.99
2914.66
2912.23
2909.72
2907.14
2904.51
2901.83
2899.12
2896.39
2893.66
2890.91
2888.18
2885.46
2882.77
2880.1
2877.47
2874.88
2872.34
2869.84
2867.39
2865
2862.67
2860.39
2858.18
2856.02
2853.93
2851.9
2849.93
2848.03
2846.19
2844.41
2842.69
2841.03
2839.43
2837.89
2836.4
2834.97
2833.6
2832.28
2831.01
2829.79
2828.62
2827.49
2826.53
2825.43
2824.56
2823.61
2823.25
2821.07
987.368
2368.9
2634.1
2628.53
2640.93
2656.6
2671.58
2684.44
2695.92
2706.25
2715.98
2725.24
2734.1
2742.58
2750.74
2758.72
2766.62
2774.45
2782.13
2789.55
2796.68
2803.49
2809.95
2816.01
2821.61
2826.76
2831.51
2835.97
2840.23
2844.37
2848.45
2852.51
2856.55
2860.57
2864.58
2868.59
2872.59
2876.59
2880.55
2884.45
2888.28
2892.03
2895.7
2899.27
2902.74
2906.08
2909.28
2912.33
2915.2
2917.89
2920.38
2922.68
2924.76
2926.62
2928.25
2929.65
2930.81
2931.71
2932.39
2932.83
2933
2932.9
2932.6
2932.07
2931.33
2930.37
2929.21
2927.87
2926.35
2924.67
2922.84
2920.88
2918.8
2916.62
2914.34
2911.98
2909.56
2907.08
2904.57
2902.02
2899.45
2896.87
2894.29
2891.71
2889.15
2886.61
2884.1
2881.62
2879.18
2876.78
2874.42
2872.11
2869.86
2867.65
2865.51
2863.42
2861.38
2859.41
2857.49
2855.63
2853.83
2852.09
2850.41
2848.79
2847.22
2845.71
2844.25
2842.84
2841.49
2840.19
2838.94
2837.74
2836.59
2835.47
2834.4
2833.51
2832.46
2831.63
2830.74
2830.44
2828.33
986.072
2370.28
2633.86
2627.96
2640.5
2656.34
2671.35
2684.24
2695.74
2706.08
2715.83
2725.1
2733.98
2742.47
2750.66
2758.66
2766.57
2774.41
2782.09
2789.51
2796.63
2803.43
2809.88
2815.92
2821.51
2826.65
2831.39
2835.85
2840.11
2844.25
2848.34
2852.4
2856.44
2860.47
2864.49
2868.5
2872.51
2876.51
2880.47
2884.38
2888.21
2891.97
2895.65
2899.23
2902.71
2906.06
2909.27
2912.32
2915.21
2917.92
2920.43
2922.75
2924.86
2926.75
2928.42
2929.86
2931.07
2932.03
2932.76
2933.27
2933.52
2933.51
2933.29
2932.85
2932.21
2931.36
2930.32
2929.09
2927.7
2926.16
2924.47
2922.65
2920.72
2918.69
2916.56
2914.37
2912.1
2909.79
2907.43
2905.05
2902.64
2900.22
2897.8
2895.39
2892.99
2890.61
2888.25
2885.92
2883.63
2881.37
2879.16
2876.99
2874.87
2872.8
2870.78
2868.81
2866.9
2865.04
2863.23
2861.49
2859.79
2858.15
2856.57
2855.04
2853.56
2852.13
2850.76
2849.43
2848.16
2846.93
2845.75
2844.62
2843.53
2842.48
2841.47
2840.64
2839.63
2838.86
2838.02
2837.78
2835.72
985.117
2372.02
2633.56
2627.36
2640.08
2656.09
2671.14
2684.03
2695.56
2705.92
2715.69
2724.97
2733.86
2742.37
2750.57
2758.59
2766.52
2774.37
2782.05
2789.46
2796.57
2803.36
2809.8
2815.84
2821.41
2826.54
2831.27
2835.72
2839.98
2844.13
2848.22
2852.29
2856.34
2860.37
2864.39
2868.41
2872.42
2876.43
2880.4
2884.31
2888.15
2891.91
2895.59
2899.19
2902.67
2906.03
2909.25
2912.32
2915.22
2917.95
2920.49
2922.83
2924.97
2926.9
2928.61
2930.1
2931.35
2932.37
2933.16
2933.73
2934.07
2934.15
2934
2933.67
2933.13
2932.39
2931.47
2930.37
2929.11
2927.7
2926.15
2924.48
2922.7
2920.83
2918.86
2916.83
2914.73
2912.58
2910.39
2908.17
2905.93
2903.68
2901.43
2899.18
2896.94
2894.72
2892.52
2890.34
2888.2
2886.1
2884.03
2882
2880.02
2878.08
2876.19
2874.35
2872.56
2870.82
2869.13
2867.49
2865.9
2864.37
2862.88
2861.44
2860.05
2858.72
2857.42
2856.18
2854.98
2853.83
2852.72
2851.65
2850.63
2849.64
2848.68
2847.92
2846.96
2846.24
2845.46
2845.27
2843.26
984.194
2374.1
2633.21
2626.75
2639.65
2655.85
2670.93
2683.83
2695.38
2705.76
2715.55
2724.85
2733.75
2742.27
2750.49
2758.52
2766.47
2774.32
2782.01
2789.42
2796.52
2803.3
2809.73
2815.75
2821.31
2826.42
2831.15
2835.6
2839.86
2844.01
2848.11
2852.18
2856.23
2860.27
2864.29
2868.32
2872.34
2876.35
2880.32
2884.24
2888.08
2891.85
2895.54
2899.14
2902.64
2906.01
2909.24
2912.32
2915.24
2917.99
2920.55
2922.92
2925.09
2927.06
2928.81
2930.34
2931.65
2932.73
2933.59
2934.23
2934.65
2934.82
2934.77
2934.54
2934.1
2933.48
2932.68
2931.72
2930.59
2929.33
2927.93
2926.41
2924.79
2923.07
2921.27
2919.4
2917.47
2915.5
2913.48
2911.43
2909.36
2907.28
2905.19
2903.11
2901.04
2898.98
2896.93
2894.92
2892.93
2890.97
2889.05
2887.16
2885.32
2883.52
2881.75
2880.04
2878.37
2876.75
2875.17
2873.64
2872.16
2870.72
2869.33
2867.99
2866.69
2865.44
2864.23
2863.07
2861.95
2860.87
2859.83
2858.83
2857.88
2856.95
2856.06
2855.35
2854.45
2853.78
2853.04
2852.88
2850.97
983.49
2376.5
2632.78
2626.11
2639.24
2655.63
2670.73
2683.64
2695.2
2705.61
2715.41
2724.72
2733.64
2742.18
2750.41
2758.46
2766.42
2774.28
2781.97
2789.38
2796.47
2803.24
2809.66
2815.66
2821.21
2826.31
2831.03
2835.47
2839.73
2843.89
2847.99
2852.07
2856.12
2860.16
2864.2
2868.23
2872.26
2876.27
2880.25
2884.17
2888.02
2891.8
2895.49
2899.1
2902.6
2905.98
2909.22
2912.32
2915.26
2918.03
2920.62
2923.02
2925.22
2927.23
2929.02
2930.61
2931.97
2933.11
2934.04
2934.75
2935.25
2935.52
2935.58
2935.43
2935.11
2934.61
2933.94
2933.11
2932.12
2931
2929.76
2928.4
2926.94
2925.38
2923.75
2922.05
2920.3
2918.49
2916.65
2914.77
2912.88
2910.97
2909.06
2907.14
2905.24
2903.34
2901.46
2899.6
2897.77
2895.96
2894.19
2892.45
2890.74
2889.08
2887.45
2885.86
2884.32
2882.82
2881.35
2879.94
2878.56
2877.23
2875.94
2874.69
2873.49
2872.32
2871.2
2870.12
2869.07
2868.06
2867.1
2866.16
2865.28
2864.42
2863.58
2862.93
2862.07
2861.46
2860.76
2860.62
2858.8
983.964
2379.35
2632.28
2625.47
2638.84
2655.41
2670.54
2683.45
2695.03
2705.46
2715.27
2724.6
2733.53
2742.08
2750.33
2758.4
2766.37
2774.24
2781.93
2789.33
2796.42
2803.18
2809.59
2815.58
2821.11
2826.2
2830.91
2835.35
2839.61
2843.77
2847.88
2851.95
2856.02
2860.06
2864.1
2868.14
2872.17
2876.19
2880.17
2884.1
2887.96
2891.74
2895.44
2899.06
2902.57
2905.96
2909.21
2912.33
2915.28
2918.07
2920.69
2923.12
2925.36
2927.41
2929.25
2930.89
2932.31
2933.51
2934.51
2935.3
2935.88
2936.26
2936.42
2936.38
2936.18
2935.8
2935.26
2934.57
2933.73
2932.76
2931.68
2930.48
2929.18
2927.8
2926.34
2924.82
2923.24
2921.61
2919.94
2918.25
2916.53
2914.8
2913.06
2911.32
2909.58
2907.85
2906.13
2904.43
2902.76
2901.1
2899.48
2897.88
2896.32
2894.79
2893.29
2891.83
2890.41
2889.02
2887.68
2886.37
2885.1
2883.87
2882.68
2881.53
2880.41
2879.34
2878.3
2877.29
2876.33
2875.39
2874.5
2873.64
2872.81
2872.03
2871.25
2870.65
2869.85
2869.29
2868.63
2868.52
2866.81
984.023
2382.62
2631.73
2624.81
2638.45
2655.21
2670.35
2683.27
2694.87
2705.31
2715.14
2724.48
2733.42
2741.99
2750.26
2758.34
2766.33
2774.21
2781.89
2789.29
2796.37
2803.12
2809.51
2815.49
2821.01
2826.08
2830.79
2835.22
2839.49
2843.65
2847.76
2851.84
2855.91
2859.96
2864
2868.05
2872.09
2876.11
2880.1
2884.03
2887.89
2891.68
2895.39
2899.02
2902.53
2905.93
2909.2
2912.33
2915.31
2918.12
2920.77
2923.23
2925.51
2927.6
2929.49
2931.18
2932.66
2933.93
2935
2935.88
2936.54
2937.01
2937.29
2937.37
2937.27
2937.03
2936.62
2936.07
2935.38
2934.57
2933.64
2932.61
2931.48
2930.27
2928.99
2927.64
2926.24
2924.8
2923.31
2921.8
2920.26
2918.71
2917.14
2915.58
2914.01
2912.45
2910.9
2909.36
2907.85
2906.35
2904.87
2903.43
2902
2900.61
2899.25
2897.92
2896.63
2895.36
2894.13
2892.94
2891.78
2890.65
2889.56
2888.51
2887.49
2886.5
2885.54
2884.62
2883.73
2882.88
2882.05
2881.26
2880.5
2879.8
2879.08
2878.52
2877.77
2877.27
2876.65
2876.56
2874.96
983.738
2386.2
2631.11
2624.15
2638.07
2655.01
2670.17
2683.09
2694.71
2705.17
2715.01
2724.37
2733.32
2741.9
2750.18
2758.28
2766.28
2774.17
2781.85
2789.25
2796.32
2803.06
2809.44
2815.4
2820.91
2825.97
2830.67
2835.1
2839.36
2843.53
2847.64
2851.73
2855.8
2859.86
2863.91
2867.96
2872.01
2876.04
2880.03
2883.96
2887.83
2891.62
2895.34
2898.97
2902.5
2905.91
2909.19
2912.34
2915.34
2918.18
2920.85
2923.35
2925.67
2927.8
2929.74
2931.49
2933.03
2934.37
2935.52
2936.48
2937.24
2937.8
2938.19
2938.4
2938.43
2938.31
2938.05
2937.64
2937.11
2936.46
2935.69
2934.83
2933.88
2932.85
2931.75
2930.58
2929.36
2928.1
2926.8
2925.47
2924.12
2922.75
2921.36
2919.97
2918.58
2917.19
2915.81
2914.44
2913.08
2911.73
2910.41
2909.11
2907.83
2906.58
2905.35
2904.15
2902.98
2901.83
2900.72
2899.64
2898.59
2897.56
2896.57
2895.61
2894.68
2893.78
2892.92
2892.08
2891.27
2890.49
2889.73
2889.01
2888.32
2887.7
2887.03
2886.52
2885.83
2885.39
2884.82
2884.75
2883.27
985.117
2390.19
2630.43
2623.48
2637.7
2654.83
2670
2682.92
2694.55
2705.03
2714.89
2724.25
2733.22
2741.81
2750.11
2758.23
2766.24
2774.13
2781.81
2789.2
2796.27
2803
2809.37
2815.31
2820.81
2825.86
2830.54
2834.97
2839.24
2843.4
2847.52
2851.61
2855.69
2859.75
2863.81
2867.87
2871.92
2875.96
2879.95
2883.89
2887.76
2891.56
2895.29
2898.93
2902.46
2905.89
2909.18
2912.35
2915.37
2918.23
2920.94
2923.47
2925.83
2928.01
2930
2931.81
2933.42
2934.83
2936.05
2937.1
2937.95
2938.62
2939.11
2939.45
2939.62
2939.62
2939.5
2939.25
2938.87
2938.38
2937.79
2937.1
2936.32
2935.47
2934.55
2933.57
2932.54
2931.47
2930.36
2929.21
2928.04
2926.86
2925.65
2924.44
2923.23
2922.01
2920.8
2919.6
2918.4
2917.22
2916.05
2914.9
2913.76
2912.65
2911.56
2910.49
2909.45
2908.43
2907.44
2906.47
2905.53
2904.61
2903.72
2902.86
2902.03
2901.22
2900.44
2899.68
2898.95
2898.25
2897.57
2896.91
2896.28
2895.75
2895.12
2894.65
2894.03
2893.63
2893.1
2893.06
2891.67
986.242
2394.63
2629.7
2622.81
2637.35
2654.65
2669.83
2682.75
2694.39
2704.89
2714.76
2724.14
2733.12
2741.73
2750.04
2758.17
2766.19
2774.09
2781.78
2789.16
2796.22
2802.94
2809.29
2815.23
2820.7
2825.74
2830.42
2834.85
2839.11
2843.28
2847.4
2851.5
2855.58
2859.65
2863.71
2867.78
2871.84
2875.88
2879.87
2883.82
2887.69
2891.5
2895.24
2898.88
2902.43
2905.86
2909.18
2912.36
2915.4
2918.3
2921.03
2923.6
2926.01
2928.23
2930.28
2932.14
2933.82
2935.3
2936.61
2937.75
2938.7
2939.47
2940.08
2940.54
2940.85
2941
2941.02
2940.92
2940.7
2940.38
2939.96
2939.45
2938.86
2938.19
2937.46
2936.67
2935.83
2934.95
2934.03
2933.07
2932.09
2931.09
2930.07
2929.05
2928.01
2926.97
2925.93
2924.89
2923.86
2922.83
2921.82
2920.81
2919.83
2918.85
2917.9
2916.96
2916.05
2915.15
2914.27
2913.42
2912.59
2911.77
2910.99
2910.22
2909.48
2908.76
2908.06
2907.39
2906.74
2906.11
2905.5
2904.92
2904.35
2903.9
2903.33
2902.9
2902.35
2902.01
2901.52
2901.5
2900.23
987.031
2399.4
2628.92
2622.14
2637.01
2654.48
2669.66
2682.59
2694.24
2704.75
2714.64
2724.03
2733.02
2741.64
2749.97
2758.12
2766.15
2774.06
2781.74
2789.12
2796.17
2802.88
2809.22
2815.14
2820.6
2825.63
2830.3
2834.72
2838.99
2843.16
2847.28
2851.38
2855.47
2859.55
2863.62
2867.69
2871.75
2875.8
2879.8
2883.74
2887.63
2891.44
2895.18
2898.84
2902.39
2905.84
2909.17
2912.37
2915.44
2918.36
2921.13
2923.74
2926.19
2928.46
2930.56
2932.49
2934.23
2935.79
2937.18
2938.41
2939.46
2940.34
2941.07
2941.65
2942.09
2942.4
2942.57
2942.62
2942.57
2942.41
2942.17
2941.84
2941.44
2940.96
2940.42
2939.82
2939.17
2938.48
2937.75
2936.99
2936.2
2935.39
2934.56
2933.71
2932.86
2931.99
2931.13
2930.26
2929.39
2928.53
2927.67
2926.82
2925.98
2925.16
2924.34
2923.54
2922.75
2921.98
2921.23
2920.49
2919.77
2919.07
2918.39
2917.72
2917.08
2916.45
2915.84
2915.26
2914.68
2914.13
2913.6
2913.09
2912.59
2912.21
2911.69
2911.31
2910.83
2910.55
2910.1
2910.1
2908.94
989.161
2404.49
2628.09
2621.47
2636.68
2654.31
2669.5
2682.43
2694.1
2704.62
2714.52
2723.93
2732.93
2741.56
2749.9
2758.06
2766.11
2774.02
2781.7
2789.07
2796.11
2802.81
2809.14
2815.05
2820.5
2825.51
2830.18
2834.6
2838.86
2843.04
2847.17
2851.27
2855.36
2859.44
2863.52
2867.6
2871.67
2875.72
2879.72
2883.67
2887.56
2891.38
2895.13
2898.79
2902.35
2905.82
2909.16
2912.39
2915.48
2918.43
2921.24
2923.89
2926.38
2928.7
2930.86
2932.85
2934.66
2936.3
2937.78
2939.1
2940.25
2941.25
2942.1
2942.81
2943.39
2943.84
2944.17
2944.39
2944.51
2944.53
2944.46
2944.32
2944.1
2943.82
2943.47
2943.06
2942.61
2942.12
2941.59
2941.02
2940.42
2939.8
2939.16
2938.5
2937.83
2937.15
2936.45
2935.76
2935.06
2934.36
2933.66
2932.96
2932.27
2931.58
2930.91
2930.24
2929.58
2928.93
2928.3
2927.67
2927.07
2926.47
2925.89
2925.32
2924.77
2924.23
2923.71
2923.21
2922.72
2922.24
2921.79
2921.34
2920.91
2920.61
2920.14
2919.81
2919.4
2919.17
2918.77
2918.78
2917.75
991.796
2409.97
2627.21
2620.8
2636.37
2654.15
2669.34
2682.27
2693.95
2704.49
2714.41
2723.82
2732.84
2741.48
2749.84
2758.01
2766.07
2773.99
2781.66
2789.03
2796.06
2802.75
2809.07
2814.96
2820.39
2825.4
2830.05
2834.47
2838.74
2842.91
2847.05
2851.16
2855.25
2859.34
2863.43
2867.51
2871.58
2875.63
2879.64
2883.59
2887.49
2891.31
2895.07
2898.74
2902.32
2905.79
2909.16
2912.4
2915.52
2918.51
2921.34
2924.03
2926.57
2928.95
2931.16
2933.21
2935.1
2936.82
2938.38
2939.8
2941.06
2942.17
2943.15
2943.99
2944.71
2945.31
2945.8
2946.18
2946.47
2946.67
2946.78
2946.82
2946.8
2946.7
2946.55
2946.34
2946.09
2945.8
2945.46
2945.09
2944.69
2944.26
2943.81
2943.34
2942.85
2942.35
2941.84
2941.31
2940.78
2940.25
2939.71
2939.17
2938.63
2938.09
2937.56
2937.03
2936.51
2935.99
2935.48
2934.97
2934.48
2934
2933.52
2933.06
2932.61
2932.16
2931.73
2931.32
2930.91
2930.51
2930.14
2929.76
2929.4
2929.18
2928.76
2928.48
2928.14
2927.97
2927.61
2927.63
2926.73
993.493
2415.64
2626.29
2620.14
2636.06
2653.99
2669.18
2682.12
2693.81
2704.36
2714.29
2723.72
2732.74
2741.4
2749.77
2757.96
2766.03
2773.95
2781.63
2788.99
2796.01
2802.69
2808.99
2814.87
2820.29
2825.28
2829.93
2834.34
2838.61
2842.79
2846.93
2851.04
2855.14
2859.24
2863.33
2867.42
2871.5
2875.55
2879.56
2883.52
2887.41
2891.25
2895.01
2898.69
2902.28
2905.77
2909.15
2912.42
2915.57
2918.58
2921.46
2924.19
2926.77
2929.2
2931.48
2933.59
2935.55
2937.35
2939.01
2940.53
2941.9
2943.12
2944.23
2945.21
2946.08
2946.83
2947.48
2948.03
2948.5
2948.88
2949.18
2949.41
2949.58
2949.68
2949.73
2949.72
2949.67
2949.57
2949.44
2949.27
2949.07
2948.84
2948.58
2948.3
2948
2947.68
2947.35
2947
2946.64
2946.27
2945.89
2945.51
2945.12
2944.72
2944.33
2943.94
2943.54
2943.15
2942.76
2942.37
2941.99
2941.62
2941.24
2940.88
2940.52
2940.17
2939.83
2939.49
2939.16
2938.85
2938.54
2938.25
2937.95
2937.78
2937.42
2937.21
2936.92
2936.79
2936.49
2936.54
2935.74
996.598
2421.57
2625.33
2619.48
2635.76
2653.84
2669.03
2681.97
2693.67
2704.24
2714.18
2723.62
2732.66
2741.33
2749.71
2757.92
2765.99
2773.92
2781.59
2788.95
2795.96
2802.63
2808.92
2814.78
2820.19
2825.17
2829.81
2834.22
2838.48
2842.67
2846.81
2850.93
2855.03
2859.14
2863.23
2867.33
2871.41
2875.46
2879.48
2883.44
2887.34
2891.18
2894.95
2898.64
2902.24
2905.74
2909.15
2912.44
2915.62
2918.66
2921.58
2924.35
2926.98
2929.46
2931.8
2933.98
2936.01
2937.9
2939.65
2941.27
2942.74
2944.09
2945.32
2946.44
2947.45
2948.36
2949.18
2949.9
2950.54
2951.1
2951.59
2952.01
2952.37
2952.67
2952.92
2953.12
2953.27
2953.38
2953.44
2953.48
2953.48
2953.44
2953.38
2953.29
2953.18
2953.05
2952.9
2952.72
2952.54
2952.34
2952.12
2951.9
2951.67
2951.43
2951.18
2950.92
2950.67
2950.41
2950.14
2949.88
2949.62
2949.35
2949.09
2948.83
2948.58
2948.32
2948.07
2947.83
2947.58
2947.35
2947.12
2946.91
2946.68
2946.57
2946.28
2946.13
2945.9
2945.8
2945.57
2945.64
2944.95
999.68
2427.66
2624.33
2618.82
2635.47
2653.69
2668.88
2681.82
2693.54
2704.11
2714.07
2723.52
2732.57
2741.25
2749.65
2757.87
2765.96
2773.88
2781.56
2788.9
2795.91
2802.57
2808.84
2814.69
2820.08
2825.05
2829.69
2834.09
2838.36
2842.54
2846.69
2850.81
2854.93
2859.03
2863.14
2867.24
2871.32
2875.38
2879.39
2883.36
2887.26
2891.11
2894.89
2898.58
2902.2
2905.72
2909.15
2912.46
2915.67
2918.75
2921.7
2924.51
2927.19
2929.73
2932.13
2934.38
2936.49
2938.46
2940.3
2942.03
2943.62
2945.09
2946.46
2947.72
2948.88
2949.95
2950.93
2951.83
2952.65
2953.39
2954.07
2954.69
2955.25
2955.75
2956.21
2956.61
2956.96
2957.28
2957.55
2957.79
2957.99
2958.16
2958.29
2958.4
2958.48
2958.53
2958.56
2958.57
2958.56
2958.53
2958.48
2958.41
2958.33
2958.24
2958.14
2958.02
2957.9
2957.76
2957.63
2957.48
2957.33
2957.18
2957.02
2956.86
2956.7
2956.54
2956.37
2956.21
2956.05
2955.89
2955.74
2955.6
2955.44
2955.39
2955.16
2955.06
2954.88
2954.82
2954.66
2954.77
2954.18
1003.24
2433.9
2623.3
2618.17
2635.19
2653.54
2668.73
2681.67
2693.4
2703.99
2713.96
2723.43
2732.48
2741.18
2749.59
2757.82
2765.92
2773.85
2781.52
2788.86
2795.86
2802.5
2808.77
2814.6
2819.98
2824.93
2829.56
2833.97
2838.23
2842.42
2846.57
2850.7
2854.82
2858.93
2863.04
2867.14
2871.23
2875.29
2879.3
2883.27
2887.18
2891.04
2894.82
2898.53
2902.16
2905.7
2909.14
2912.49
2915.72
2918.83
2921.82
2924.68
2927.41
2930
2932.46
2934.78
2936.97
2939.02
2940.97
2942.8
2944.5
2946.09
2947.6
2949
2950.31
2951.54
2952.69
2953.76
2954.76
2955.69
2956.56
2957.38
2958.14
2958.84
2959.5
2960.11
2960.67
2961.19
2961.67
2962.11
2962.52
2962.89
2963.22
2963.53
2963.8
2964.04
2964.26
2964.45
2964.61
2964.75
2964.87
2964.97
2965.05
2965.11
2965.16
2965.19
2965.2
2965.2
2965.19
2965.17
2965.15
2965.11
2965.06
2965.01
2964.95
2964.89
2964.82
2964.75
2964.68
2964.61
2964.53
2964.49
2964.4
2964.4
2964.24
2964.22
2964.09
2964.06
2963.99
2964.13
2963.66
1007.02
2440.18
2622.22
2617.52
2634.91
2653.39
2668.58
2681.53
2693.27
2703.88
2713.86
2723.33
2732.4
2741.11
2749.53
2757.78
2765.88
2773.82
2781.49
2788.82
2795.81
2802.44
2808.69
2814.51
2819.87
2824.82
2829.44
2833.84
2838.11
2842.3
2846.45
2850.58
2854.71
2858.83
2862.94
2867.05
2871.14
2875.2
2879.21
2883.19
2887.1
2890.96
2894.75
2898.47
2902.11
2905.67
2909.14
2912.51
2915.77
2918.92
2921.95
2924.86
2927.63
2930.28
2932.8
2935.19
2937.46
2939.61
2941.65
2943.59
2945.41
2947.13
2948.77
2950.32
2951.79
2953.18
2954.49
2955.74
2956.93
2958.05
2959.12
2960.13
2961.09
2962
2962.87
2963.69
2964.46
2965.19
2965.88
2966.53
2967.15
2967.72
2968.26
2968.76
2969.23
2969.66
2970.07
2970.44
2970.78
2971.09
2971.38
2971.64
2971.88
2972.09
2972.28
2972.45
2972.61
2972.74
2972.86
2972.96
2973.04
2973.12
2973.18
2973.23
2973.27
2973.3
2973.33
2973.34
2973.35
2973.35
2973.36
2973.4
2973.36
2973.41
2973.32
2973.36
2973.27
2973.28
2973.28
2973.44
2973.09
1011.14
2446.5
2621.12
2616.88
2634.64
2653.24
2668.43
2681.39
2693.14
2703.76
2713.75
2723.24
2732.32
2741.04
2749.48
2757.73
2765.85
2773.79
2781.45
2788.78
2795.75
2802.37
2808.61
2814.41
2819.77
2824.7
2829.32
2833.71
2837.98
2842.17
2846.33
2850.47
2854.6
2858.72
2862.84
2866.95
2871.04
2875.1
2879.12
2883.1
2887.02
2890.89
2894.69
2898.42
2902.07
2905.65
2909.14
2912.54
2915.83
2919.01
2922.08
2925.03
2927.86
2930.56
2933.15
2935.61
2937.96
2940.19
2942.33
2944.38
2946.32
2948.17
2949.94
2951.64
2953.26
2954.82
2956.3
2957.73
2959.1
2960.41
2961.67
2962.88
2964.05
2965.16
2966.24
2967.26
2968.25
2969.19
2970.09
2970.95
2971.77
2972.55
2973.29
2973.99
2974.66
2975.29
2975.88
2976.44
2976.96
2977.45
2977.91
2978.34
2978.74
2979.11
2979.45
2979.77
2980.07
2980.34
2980.59
2980.82
2981.03
2981.22
2981.4
2981.56
2981.71
2981.84
2981.96
2982.07
2982.17
2982.26
2982.35
2982.49
2982.52
2982.65
2982.62
2982.71
2982.69
2982.75
2982.82
2982.99
2982.79
1015.69
2452.83
2619.98
2616.24
2634.39
2653.09
2668.28
2681.26
2693.02
2703.65
2713.65
2723.15
2732.24
2740.97
2749.42
2757.69
2765.81
2773.75
2781.41
2788.73
2795.7
2802.31
2808.53
2814.32
2819.66
2824.58
2829.19
2833.59
2837.86
2842.05
2846.21
2850.35
2854.49
2858.62
2862.74
2866.85
2870.94
2875
2879.03
2883.01
2886.93
2890.81
2894.62
2898.36
2902.03
2905.63
2909.14
2912.56
2915.89
2919.11
2922.21
2925.21
2928.09
2930.85
2933.5
2936.03
2938.47
2940.79
2943.03
2945.19
2947.25
2949.23
2951.15
2953
2954.78
2956.5
2958.16
2959.76
2961.32
2962.83
2964.28
2965.7
2967.07
2968.39
2969.68
2970.92
2972.12
2973.27
2974.39
2975.46
2976.49
2977.48
2978.43
2979.33
2980.19
2981.02
2981.8
2982.54
2983.25
2983.92
2984.55
2985.14
2985.7
2986.23
2986.72
2987.19
2987.62
2988.03
2988.41
2988.76
2989.09
2989.4
2989.69
2989.96
2990.2
2990.43
2990.64
2990.84
2991.02
2991.19
2991.35
2991.58
2991.67
2991.85
2991.89
2992.04
2992.07
2992.17
2992.29
2992.47
2992.39
1020.44
2459.09
2618.82
2615.62
2634.13
2652.94
2668.14
2681.12
2692.9
2703.53
2713.55
2723.06
2732.16
2740.9
2749.37
2757.65
2765.78
2773.72
2781.38
2788.69
2795.65
2802.25
2808.46
2814.23
2819.55