/*--------------------------------*- C++ -*----------------------------------*\
| =========                 |                                                 |
| \\      /  F ield         | OpenFOAM: The Open Source CFD Toolbox           |
|  \\    /   O peration     | Version:  2412                                  |
|   \\  /    A nd           | Website:  www.openfoam.com                      |
|    \\/     M anipulation  |                                                 |
\*---------------------------------------------------------------------------*/
FoamFile
{
    version     2.0;
    format      ascii;
    arch        "LSB;label=32;scalar=64";
    class       volScalarField;
    location    "0.022";
    object      p;
}
// * * * * * * * * * * * * * * * * * * * * * * * * * * * * * * * * * * * * * //

dimensions      [1 -1 -2 0 0 0 0];

internalField   nonuniform List<scalar> 
9763
(
2866.12
2937.73
2865.74
2935.97
2865.39
2933.15
2864.92
2931.43
2864.51
2929.17
2864.01
2927.03
2863.54
2924.7
2863.02
2922.36
2862.49
2919.92
2861.95
2917.43
2861.36
2914.83
2860.76
2912.17
2860.12
2909.39
2859.43
2906.56
2858.73
2903.61
2857.96
2900.6
2857.18
2897.48
2856.32
2894.29
2855.44
2891
2854.47
2887.63
2853.48
2884.16
2852.41
2880.61
2851.3
2876.95
2850.13
2873.18
2848.92
2869.3
2847.66
2865.29
2846.35
2861.15
2844.99
2856.89
2843.55
2852.52
2842.03
2848.05
2840.39
2843.52
2838.64
2838.93
2836.78
2834.27
2834.81
2829.53
2832.71
2824.72
2830.49
2819.82
2828.12
2814.83
2825.61
2809.79
2822.95
2804.69
2820.14
2799.57
2794.4
2789.2
2783.95
3593.22
3000.35
3000.37
2991.32
2982.72
2974.61
2966.63
2958.13
2943.14
2912.95
2866.52
2807.45
2749.49
2710.98
2693.75
2688.42
2689.19
2690.15
2688.86
2685.86
2683.14
2681.31
2679.36
2676.13
2671.58
2666.87
2662.55
2658.3
2653.76
2648.99
2644.21
2639.52
2634.93
2630.52
2626.36
2622.47
2618.87
2615.61
2612.82
2610.51
2608.51
2606.93
2605.88
2605.45
2605.65
2606.44
2607.75
2609.49
2611.61
2614.09
2616.9
2620.04
2623.47
2627.14
2631.03
2635.13
2639.45
2643.97
2648.69
2653.58
2658.56
2663.66
2668.9
2674.22
2679.64
2685.19
2690.84
2696.53
2702.23
2708.01
2713.78
2719.6
2725.39
2731.26
2737.18
2743.22
2749.25
2755.27
2761.22
2767.06
2772.81
2778.45
2784.01
2789.48
2794.86
2800.19
2805.41
2810.59
2815.67
2820.73
2825.69
2830.48
2835.04
2839.51
2843.83
2848.01
2852.09
2855.98
2859.72
2863.26
2866.63
2869.77
2872.74
2875.44
2877.96
2880.18
2882.19
2883.9
2885.4
2886.64
2887.48
2888.13
2888.39
2888.33
2887.87
2886.96
2885.62
2883.76
2881.52
2881.1
2873.04
3592.89
3000.21
2999.92
2991.1
2982.56
2974.47
2966.46
2957.92
2942.96
2912.86
2866.57
2807.54
2749.54
2710.99
2693.39
2688.1
2688.9
2689.93
2688.71
2685.75
2682.97
2681.08
2679.12
2675.9
2671.34
2666.58
2662.2
2657.9
2653.31
2648.48
2643.62
2638.82
2634.14
2629.63
2625.35
2621.32
2617.56
2614.16
2611.22
2608.74
2606.57
2604.8
2603.57
2603.02
2603.08
2603.68
2604.86
2606.46
2608.43
2610.75
2613.41
2616.39
2619.67
2623.22
2627
2630.99
2635.19
2639.59
2644.19
2649.01
2653.89
2658.89
2664.03
2669.26
2674.58
2680.01
2685.58
2691.2
2696.87
2702.59
2708.26
2713.94
2719.58
2725.35
2731.16
2737.05
2742.9
2748.72
2754.52
2760.23
2765.93
2771.53
2777.07
2782.5
2787.86
2793.13
2798.31
2803.39
2808.35
2813.17
2817.82
2822.29
2826.57
2830.72
2834.73
2838.58
2842.3
2845.82
2849.2
2852.37
2855.38
2858.18
2860.83
2863.27
2865.58
2867.68
2869.63
2871.42
2873.03
2874.54
2875.85
2877.01
2878.06
2878.98
2879.77
2880.43
2880.94
2881.33
2881.65
2881.96
2882.15
3591.81
3000.02
2999.58
2990.95
2982.41
2974.33
2966.29
2957.71
2942.77
2912.79
2866.64
2807.66
2749.64
2711.02
2693.05
2687.81
2688.63
2689.7
2688.56
2685.64
2682.81
2680.86
2678.88
2675.68
2671.11
2666.29
2661.86
2657.51
2652.86
2647.95
2642.99
2638.1
2633.32
2628.71
2624.31
2620.14
2616.22
2612.66
2609.58
2606.93
2604.58
2602.6
2601.18
2600.5
2600.39
2600.81
2601.84
2603.3
2605.12
2607.28
2609.77
2612.59
2615.72
2619.11
2622.74
2626.59
2630.65
2634.91
2639.36
2644.03
2648.76
2653.61
2658.59
2663.67
2668.84
2674.12
2679.56
2685.05
2690.58
2696.11
2701.57
2707.04
2712.52
2718.13
2723.75
2729.38
2734.95
2740.46
2745.98
2751.4
2756.8
2762.07
2767.28
2772.35
2777.34
2782.21
2787
2791.69
2796.29
2800.78
2805.12
2809.31
2813.32
2817.17
2820.83
2824.32
2827.66
2830.8
2833.8
2836.59
2839.24
2841.69
2844.01
2846.14
2848.14
2849.95
2851.64
2853.15
2854.52
2855.79
2856.87
2857.87
2858.74
2859.54
2860.24
2860.88
2861.46
2862
2862.51
2863.03
2863.81
3590.43
2999.8
2999.23
2990.79
2982.26
2974.2
2966.13
2957.51
2942.59
2912.73
2866.69
2807.81
2749.79
2711.03
2692.73
2687.54
2688.35
2689.48
2688.41
2685.55
2682.66
2680.64
2678.66
2675.47
2670.89
2666.03
2661.54
2657.14
2652.44
2647.45
2642.4
2637.41
2632.54
2627.83
2623.32
2619.01
2614.94
2611.23
2608
2605.19
2602.67
2600.5
2598.9
2598.04
2597.78
2598.05
2598.92
2600.23
2601.89
2603.89
2606.22
2608.89
2611.86
2615.12
2618.61
2622.32
2626.25
2630.35
2634.66
2639.17
2643.75
2648.44
2653.27
2658.2
2663.22
2668.33
2673.59
2678.9
2684.21
2689.51
2694.74
2699.99
2705.28
2710.68
2716.04
2721.37
2726.65
2731.89
2737.15
2742.32
2747.43
2752.4
2757.26
2761.97
2766.57
2771.05
2775.43
2779.67
2783.75
2787.69
2791.44
2795.05
2798.49
2801.79
2804.92
2807.92
2810.79
2813.5
2816.09
2818.51
2820.82
2822.96
2825.01
2826.9
2828.72
2830.39
2832
2833.48
2834.84
2836.15
2837.33
2838.38
2839.39
2840.31
2841.17
2841.96
2842.7
2843.38
2843.99
2844.63
2845.45
3589.86
2999.65
2998.9
2990.62
2982.11
2974.08
2965.98
2957.31
2942.4
2912.67
2866.7
2807.98
2750
2711.03
2692.44
2687.28
2688.09
2689.26
2688.26
2685.46
2682.51
2680.44
2678.44
2675.27
2670.68
2665.78
2661.24
2656.79
2652.03
2646.97
2641.82
2636.75
2631.78
2626.98
2622.36
2617.92
2613.7
2609.85
2606.48
2603.51
2600.82
2598.47
2596.68
2595.63
2595.24
2595.37
2596.04
2597.21
2598.72
2600.56
2602.74
2605.25
2608.09
2611.21
2614.57
2618.15
2621.94
2625.91
2630.06
2634.41
2638.83
2643.36
2648.04
2652.83
2657.71
2662.67
2667.75
2672.84
2677.92
2682.96
2687.96
2693.04
2698.2
2703.44
2708.62
2713.72
2718.77
2723.77
2728.76
2733.61
2738.37
2742.97
2747.43
2751.74
2755.94
2760.02
2764
2767.88
2771.61
2775.23
2778.66
2781.95
2785.03
2787.96
2790.7
2793.28
2795.72
2797.99
2800.15
2802.15
2804.05
2805.8
2807.46
2808.99
2810.45
2811.78
2813.1
2814.28
2815.43
2816.49
2817.43
2818.37
2819.23
2820.07
2820.85
2821.6
2822.31
2822.98
2823.59
2824.2
2825.02
3589.38
2999.51
2998.56
2990.45
2981.97
2973.95
2965.82
2957.11
2942.22
2912.62
2866.71
2808.17
2750.25
2711.01
2692.17
2687.03
2687.82
2689.03
2688.12
2685.38
2682.37
2680.24
2678.23
2675.08
2670.48
2665.54
2660.95
2656.44
2651.63
2646.49
2641.26
2636.1
2631.05
2626.15
2621.42
2616.85
2612.49
2608.5
2604.98
2601.87
2599.01
2596.48
2594.5
2593.27
2592.75
2592.73
2593.2
2594.21
2595.57
2597.26
2599.29
2601.65
2604.35
2607.33
2610.57
2614.03
2617.7
2621.55
2625.55
2629.75
2634
2638.37
2642.89
2647.53
2652.27
2657.09
2662
2666.87
2671.71
2676.49
2681.28
2686.18
2691.18
2696.19
2701.12
2705.98
2710.83
2715.63
2720.4
2725
2729.5
2733.83
2738.02
2742.08
2746.01
2749.8
2753.44
2756.94
2760.27
2763.48
2766.5
2769.42
2772.13
2774.73
2777.15
2779.44
2781.58
2783.57
2785.45
2787.18
2788.82
2790.32
2791.74
2793.01
2794.23
2795.33
2796.41
2797.38
2798.32
2799.15
2799.88
2800.62
2801.29
2801.94
2802.55
2803.13
2803.68
2804.23
2804.69
2805.09
2804.92
3588.68
2999.34
2998.21
2990.28
2981.83
2973.82
2965.67
2956.91
2942.04
2912.57
2866.7
2808.39
2750.53
2710.98
2691.93
2686.77
2687.56
2688.8
2687.98
2685.31
2682.24
2680.05
2678.02
2674.88
2670.29
2665.3
2660.65
2656.1
2651.23
2646.02
2640.71
2635.45
2630.32
2625.32
2620.47
2615.78
2611.29
2607.16
2603.49
2600.21
2597.18
2594.47
2592.31
2590.89
2590.21
2590.04
2590.32
2591.15
2592.36
2593.89
2595.76
2597.97
2600.52
2603.37
2606.48
2609.82
2613.37
2617.09
2620.96
2625.01
2629.09
2633.29
2637.63
2642.1
2646.7
2651.36
2656.11
2660.79
2665.4
2669.96
2674.58
2679.32
2684.15
2688.95
2693.65
2698.28
2702.91
2707.46
2711.95
2716.26
2720.45
2724.5
2728.43
2732.26
2735.96
2739.54
2742.98
2746.29
2749.43
2752.47
2755.3
2758.05
2760.58
2763.01
2765.26
2767.37
2769.34
2771.17
2772.88
2774.44
2775.93
2777.27
2778.55
2779.67
2780.76
2781.73
2782.69
2783.59
2784.4
2785.12
2785.8
2786.45
2787.06
2787.64
2788.2
2788.72
2789.23
2789.74
2790.23
2790.86
2791.51
3587.58
2999.14
2997.85
2990.11
2981.68
2973.7
2965.51
2956.71
2941.85
2912.51
2866.69
2808.62
2750.78
2710.91
2691.71
2686.51
2687.28
2688.57
2687.84
2685.23
2682.1
2679.85
2677.81
2674.69
2670.09
2665.06
2660.35
2655.75
2650.83
2645.55
2640.15
2634.82
2629.59
2624.48
2619.53
2614.71
2610.09
2605.81
2601.98
2598.54
2595.34
2592.45
2590.09
2588.49
2587.63
2587.31
2587.43
2588.05
2589.1
2590.46
2592.16
2594.21
2596.61
2599.32
2602.3
2605.5
2608.93
2612.53
2616.27
2620.18
2624.11
2628.12
2632.26
2636.55
2640.97
2645.48
2650.05
2654.55
2658.95
2663.31
2667.75
2672.29
2676.87
2681.36
2685.78
2690.15
2694.54
2698.84
2703.05
2707.1
2711.04
2714.87
2718.6
2722.23
2725.72
2729.06
2732.25
2735.28
2738.15
2740.92
2743.52
2746.05
2748.39
2750.66
2752.77
2754.76
2756.63
2758.36
2760
2761.49
2762.91
2764.19
2765.41
2766.49
2767.53
2768.44
2769.36
2770.2
2770.94
2771.61
2772.23
2772.82
2773.35
2773.85
2774.3
2774.72
2775.11
2775.46
2775.85
2776.39
2777.7
3586.74
2998.94
2997.49
2989.93
2981.53
2973.56
2965.35
2956.5
2941.65
2912.45
2866.67
2808.86
2750.95
2710.81
2691.52
2686.23
2687
2688.33
2687.7
2685.16
2681.97
2679.65
2677.59
2674.49
2669.89
2664.81
2660.05
2655.39
2650.42
2645.07
2639.6
2634.19
2628.86
2623.65
2618.57
2613.63
2608.88
2604.45
2600.46
2596.83
2593.45
2590.37
2587.83
2586.04
2584.98
2584.52
2584.47
2584.86
2585.73
2586.92
2588.44
2590.32
2592.56
2595.12
2597.95
2601.02
2604.3
2607.77
2611.39
2615.16
2618.94
2622.77
2626.71
2630.79
2635.01
2639.34
2643.73
2648.03
2652.24
2656.43
2660.71
2665.06
2669.39
2673.59
2677.76
2681.87
2686
2689.98
2693.87
2697.6
2701.24
2704.8
2708.26
2711.64
2714.9
2718.02
2721.01
2723.85
2726.56
2729.12
2731.53
2733.84
2735.97
2738.02
2739.91
2741.69
2743.37
2744.9
2746.35
2747.65
2748.89
2749.98
2751.02
2751.91
2752.76
2753.47
2754.2
2754.83
2755.35
2755.82
2756.24
2756.6
2756.92
2757.19
2757.42
2757.61
2757.76
2757.87
2757.97
2758.07
2758.01
3586.5
2998.73
2997.12
2989.74
2981.38
2973.43
2965.18
2956.29
2941.45
2912.37
2866.65
2809.09
2751.03
2710.67
2691.34
2685.95
2686.71
2688.09
2687.57
2685.08
2681.83
2679.45
2677.38
2674.28
2669.69
2664.57
2659.74
2655.03
2650.01
2644.6
2639.06
2633.56
2628.14
2622.81
2617.61
2612.55
2607.66
2603.08
2598.92
2595.12
2591.55
2588.27
2585.54
2583.55
2582.29
2581.67
2581.46
2581.65
2582.31
2583.32
2584.66
2586.36
2588.43
2590.83
2593.51
2596.42
2599.55
2602.88
2606.36
2610
2613.63
2617.28
2621.03
2624.9
2628.92
2633.04
2637.21
2641.3
2645.31
2649.31
2653.4
2657.47
2661.49
2665.37
2669.28
2673.15
2677.04
2680.76
2684.38
2687.87
2691.28
2694.62
2697.85
2700.96
2703.93
2706.76
2709.47
2712.04
2714.49
2716.8
2718.99
2721.05
2722.97
2724.8
2726.48
2728.07
2729.55
2730.9
2732.19
2733.33
2734.42
2735.38
2736.27
2737.04
2737.75
2738.36
2738.96
2739.46
2739.85
2740.23
2740.52
2740.79
2740.99
2741.16
2741.28
2741.37
2741.43
2741.45
2741.45
2741.39
2741.26
3586.37
2998.53
2996.74
2989.55
2981.23
2973.3
2965.02
2956.07
2941.24
2912.29
2866.64
2809.3
2751.03
2710.53
2691.17
2685.65
2686.42
2687.85
2687.44
2685
2681.69
2679.25
2677.15
2674.08
2669.49
2664.32
2659.43
2654.67
2649.6
2644.14
2638.53
2632.95
2627.42
2621.97
2616.65
2611.46
2606.43
2601.7
2597.37
2593.38
2589.62
2586.14
2583.2
2581.01
2579.56
2578.74
2578.38
2578.38
2578.8
2579.64
2580.8
2582.31
2584.2
2586.43
2588.95
2591.69
2594.66
2597.82
2601.14
2604.63
2608.12
2611.61
2615.17
2618.85
2622.65
2626.54
2630.47
2634.32
2638.12
2641.94
2645.83
2649.64
2653.37
2656.98
2660.67
2664.32
2667.97
2671.42
2674.79
2678.03
2681.2
2684.29
2687.26
2690.11
2692.83
2695.44
2697.93
2700.3
2702.55
2704.67
2706.67
2708.53
2710.27
2711.92
2713.41
2714.82
2716.12
2717.31
2718.43
2719.43
2720.37
2721.21
2721.98
2722.65
2723.25
2723.8
2724.28
2724.71
2725.07
2725.38
2725.64
2725.85
2726.02
2726.15
2726.25
2726.31
2726.35
2726.35
2726.34
2726.27
2726.13
3585.9
2998.32
2996.37
2989.36
2981.08
2973.16
2964.85
2955.85
2941.02
2912.19
2866.62
2809.51
2751.02
2710.38
2691
2685.35
2686.13
2687.61
2687.31
2684.91
2681.55
2679.05
2676.93
2673.87
2669.28
2664.08
2659.13
2654.31
2649.19
2643.68
2638.01
2632.34
2626.71
2621.14
2615.7
2610.38
2605.21
2600.32
2595.82
2591.65
2587.68
2584
2580.86
2578.45
2576.8
2575.79
2575.26
2575.08
2575.28
2575.92
2576.9
2578.24
2579.94
2582
2584.34
2586.92
2589.71
2592.69
2595.84
2599.17
2602.49
2605.82
2609.21
2612.69
2616.29
2619.93
2623.58
2627.16
2630.75
2634.36
2638
2641.51
2644.94
2648.28
2651.75
2655.18
2658.6
2661.84
2665.01
2668.08
2671.05
2673.93
2676.66
2679.28
2681.77
2684.14
2686.4
2688.54
2690.56
2692.48
2694.28
2695.99
2697.59
2699.1
2700.47
2701.77
2702.95
2704.04
2705.04
2705.96
2706.8
2707.57
2708.27
2708.9
2709.47
2709.97
2710.43
2710.84
2711.19
2711.51
2711.77
2712.01
2712.19
2712.36
2712.48
2712.59
2712.67
2712.72
2712.76
2712.77
2712.72
3585.65
2998.11
2995.99
2989.16
2980.93
2973.02
2964.68
2955.63
2940.8
2912.09
2866.61
2809.72
2751.02
2710.27
2690.83
2685.06
2685.83
2687.37
2687.18
2684.81
2681.4
2678.86
2676.71
2673.65
2669.07
2663.83
2658.82
2653.95
2648.79
2643.23
2637.5
2631.74
2626
2620.32
2614.75
2609.29
2603.97
2598.92
2594.25
2589.9
2585.74
2581.85
2578.49
2575.87
2574
2572.78
2572.06
2571.72
2571.71
2572.12
2572.93
2574.09
2575.62
2577.5
2579.68
2582.08
2584.69
2587.48
2590.44
2593.58
2596.72
2599.88
2603.1
2606.4
2609.79
2613.17
2616.54
2619.86
2623.23
2626.65
2630.06
2633.31
2636.5
2639.63
2642.88
2646.05
2649.19
2652.16
2655.08
2657.93
2660.66
2663.3
2665.81
2668.24
2670.57
2672.79
2674.87
2676.84
2678.68
2680.43
2682.08
2683.66
2685.14
2686.55
2687.84
2689.05
2690.14
2691.16
2692.07
2692.93
2693.68
2694.39
2695.01
2695.6
2696.12
2696.59
2697.04
2697.43
2697.77
2698.1
2698.37
2698.63
2698.84
2699.04
2699.21
2699.36
2699.49
2699.61
2699.71
2699.79
2699.85
3585.44
2997.9
2995.6
2988.96
2980.77
2972.89
2964.51
2955.41
2940.57
2911.98
2866.6
2809.92
2751.03
2710.19
2690.66
2684.76
2685.54
2687.14
2687.05
2684.71
2681.26
2678.66
2676.49
2673.44
2668.87
2663.59
2658.53
2653.6
2648.4
2642.79
2636.98
2631.14
2625.29
2619.5
2613.81
2608.22
2602.74
2597.52
2592.68
2588.15
2583.8
2579.7
2576.13
2573.29
2571.2
2569.76
2568.84
2568.32
2568.1
2568.29
2568.93
2569.92
2571.27
2572.98
2574.99
2577.23
2579.66
2582.26
2585.03
2587.97
2590.92
2593.89
2596.94
2600.06
2603.22
2606.34
2609.42
2612.49
2615.63
2618.81
2621.97
2624.95
2627.92
2630.85
2633.89
2636.78
2639.62
2642.32
2644.98
2647.59
2650.07
2652.47
2654.76
2657
2659.15
2661.21
2663.12
2664.94
2666.62
2668.25
2669.77
2671.24
2672.6
2673.91
2675.14
2676.28
2677.34
2678.32
2679.21
2680.04
2680.78
2681.5
2682.1
2682.7
2683.21
2683.7
2684.18
2684.6
2684.97
2685.33
2685.63
2685.94
2686.2
2686.46
2686.68
2686.9
2687.1
2687.28
2687.45
2687.62
2687.8
3584.63
2997.67
2995.22
2988.76
2980.62
2972.75
2964.34
2955.19
2940.34
2911.85
2866.58
2810.12
2751.06
2710.14
2690.5
2684.48
2685.26
2686.9
2686.91
2684.61
2681.13
2678.47
2676.27
2673.23
2668.66
2663.35
2658.24
2653.26
2648.01
2642.34
2636.47
2630.53
2624.58
2618.68
2612.87
2607.15
2601.51
2596.12
2591.1
2586.39
2581.85
2577.55
2573.75
2570.69
2568.37
2566.72
2565.58
2564.84
2564.45
2564.42
2564.83
2565.66
2566.85
2568.39
2570.23
2572.31
2574.57
2576.99
2579.57
2582.31
2585.06
2587.84
2590.71
2593.63
2596.56
2599.42
2602.25
2605.09
2608.01
2610.94
2613.85
2616.59
2619.38
2622.14
2624.96
2627.58
2630.1
2632.5
2634.85
2637.16
2639.35
2641.49
2643.56
2645.59
2647.54
2649.41
2651.18
2652.88
2654.48
2656.02
2657.44
2658.81
2660.07
2661.28
2662.41
2663.47
2664.48
2665.41
2666.28
2667.1
2667.85
2668.57
2669.19
2669.83
2670.34
2670.87
2671.35
2671.81
2672.22
2672.61
2672.97
2673.3
2673.61
2673.9
2674.18
2674.43
2674.68
2674.91
2675.14
2675.36
2675.63
3583.93
2997.43
2994.83
2988.55
2980.46
2972.61
2964.17
2954.96
2940.11
2911.73
2866.57
2810.3
2751.12
2710.1
2690.33
2684.2
2684.97
2686.66
2686.77
2684.5
2681
2678.29
2676.05
2673.01
2668.45
2663.12
2657.95
2652.92
2647.62
2641.9
2635.95
2629.92
2623.87
2617.87
2611.94
2606.08
2600.29
2594.72
2589.53
2584.64
2579.9
2575.4
2571.4
2568.11
2565.56
2563.67
2562.31
2561.36
2560.77
2560.53
2560.71
2561.36
2562.38
2563.76
2565.43
2567.35
2569.44
2571.7
2574.1
2576.64
2579.2
2581.79
2584.46
2587.17
2589.87
2592.5
2595.09
2597.7
2600.35
2602.99
2605.59
2608.07
2610.64
2613.2
2615.79
2618.18
2620.46
2622.63
2624.71
2626.74
2628.66
2630.57
2632.42
2634.21
2635.9
2637.53
2639.11
2640.66
2642.14
2643.56
2644.88
2646.14
2647.3
2648.41
2649.45
2650.44
2651.39
2652.28
2653.14
2653.96
2654.72
2655.46
2656.13
2656.81
2657.39
2658.01
2658.47
2658.99
2659.47
2659.89
2660.32
2660.7
2661.08
2661.41
2661.75
2662.05
2662.36
2662.64
2662.92
2663.19
2663.54
3583.13
2997.17
2994.44
2988.34
2980.3
2972.46
2964
2954.73
2939.86
2911.59
2866.55
2810.47
2751.18
2710.05
2690.16
2683.93
2684.7
2686.42
2686.61
2684.38
2680.87
2678.1
2675.83
2672.8
2668.25
2662.89
2657.68
2652.6
2647.25
2641.47
2635.44
2629.31
2623.16
2617.05
2611.02
2605.02
2599.07
2593.33
2587.96
2582.88
2577.95
2573.25
2569.03
2565.51
2562.73
2560.62
2559.03
2557.85
2557.03
2556.6
2556.56
2556.97
2557.82
2559.03
2560.54
2562.3
2564.23
2566.32
2568.54
2570.9
2573.28
2575.67
2578.13
2580.63
2583.12
2585.55
2587.95
2590.35
2592.74
2595.08
2597.38
2599.58
2601.89
2604.21
2606.54
2608.72
2610.78
2612.76
2614.59
2616.38
2618.07
2619.77
2621.4
2622.94
2624.38
2625.78
2627.15
2628.52
2629.83
2631.1
2632.29
2633.41
2634.46
2635.45
2636.4
2637.3
2638.19
2639.02
2639.85
2640.63
2641.4
2642.13
2642.82
2643.5
2644.12
2644.76
2645.23
2645.79
2646.3
2646.73
2647.19
2647.59
2648
2648.36
2648.72
2649.05
2649.38
2649.7
2650.02
2650.32
2650.71
3582.32
2996.9
2994.05
2988.13
2980.14
2972.32
2963.82
2954.5
2939.62
2911.45
2866.54
2810.62
2751.26
2709.98
2689.99
2683.68
2684.43
2686.16
2686.44
2684.27
2680.76
2677.93
2675.61
2672.59
2668.06
2662.67
2657.41
2652.28
2646.88
2641.04
2634.92
2628.7
2622.45
2616.25
2610.09
2603.96
2597.86
2591.96
2586.4
2581.14
2576.02
2571.11
2566.67
2562.93
2559.92
2557.57
2555.75
2554.34
2553.3
2552.66
2552.41
2552.59
2553.23
2554.27
2555.61
2557.2
2558.96
2560.89
2562.94
2565.13
2567.33
2569.53
2571.78
2574.05
2576.35
2578.6
2580.82
2583
2585.12
2587.16
2589.14
2591.04
2593.04
2595.08
2597.13
2599.09
2600.94
2602.74
2604.37
2605.98
2607.5
2609.04
2610.48
2611.81
2613.04
2614.24
2615.4
2616.52
2617.61
2618.65
2619.65
2620.61
2621.53
2622.41
2623.26
2624.08
2624.88
2625.65
2626.41
2627.14
2627.87
2628.56
2629.24
2629.9
2630.52
2631.17
2631.66
2632.22
2632.74
2633.2
2633.68
2634.1
2634.53
2634.91
2635.3
2635.66
2636.01
2636.36
2636.7
2637.03
2637.46
3581.77
2996.63
2993.66
2987.92
2979.99
2972.18
2963.64
2954.27
2939.37
2911.3
2866.52
2810.76
2751.34
2709.89
2689.8
2683.44
2684.16
2685.9
2686.26
2684.15
2680.64
2677.76
2675.4
2672.38
2667.86
2662.46
2657.14
2651.96
2646.52
2640.61
2634.4
2628.09
2621.75
2615.44
2609.17
2602.91
2596.66
2590.59
2584.86
2579.4
2574.08
2568.96
2564.31
2560.33
2557.09
2554.5
2552.44
2550.81
2549.54
2548.67
2548.22
2548.19
2548.58
2549.44
2550.61
2552.02
2553.61
2555.36
2557.24
2559.26
2561.3
2563.3
2565.34
2567.4
2569.51
2571.6
2573.64
2575.62
2577.52
2579.32
2581.04
2582.67
2584.39
2586.15
2587.88
2589.56
2591.11
2592.64
2594.02
2595.45
2596.83
2598.19
2599.46
2600.65
2601.77
2602.84
2603.82
2604.72
2605.57
2606.38
2607.19
2607.97
2608.75
2609.5
2610.23
2610.93
2611.62
2612.28
2612.93
2613.56
2614.18
2614.79
2615.38
2615.95
2616.5
2617.08
2617.57
2618.11
2618.62
2619.07
2619.53
2619.96
2620.39
2620.79
2621.18
2621.56
2621.92
2622.28
2622.64
2622.98
2623.42
3581.06
2996.35
2993.27
2987.7
2979.83
2972.03
2963.47
2954.03
2939.12
2911.14
2866.5
2810.91
2751.43
2709.77
2689.62
2683.21
2683.9
2685.62
2686.06
2684.03
2680.54
2677.59
2675.19
2672.17
2667.67
2662.25
2656.89
2651.66
2646.16
2640.18
2633.89
2627.48
2621.05
2614.64
2608.26
2601.86
2595.47
2589.25
2583.33
2577.67
2572.15
2566.83
2561.95
2557.74
2554.26
2551.43
2549.14
2547.28
2545.78
2544.68
2544.03
2543.79
2543.96
2544.59
2545.59
2546.83
2548.24
2549.81
2551.52
2553.37
2555.23
2557.05
2558.87
2560.72
2562.64
2564.53
2566.37
2568.13
2569.81
2571.39
2572.88
2574.3
2575.78
2577.3
2578.74
2580.09
2581.27
2582.45
2583.57
2584.77
2585.97
2587.12
2588.21
2589.26
2590.28
2591.23
2592.06
2592.78
2593.45
2594.07
2594.7
2595.33
2595.96
2596.57
2597.18
2597.76
2598.32
2598.88
2599.42
2599.94
2600.45
2600.96
2601.46
2601.93
2602.4
2602.87
2603.31
2603.8
2604.26
2604.68
2605.12
2605.53
2605.93
2606.33
2606.7
2607.07
2607.43
2607.78
2608.13
2608.47
2608.9
3580.24
2996.07
2992.87
2987.47
2979.66
2971.89
2963.29
2953.79
2938.86
2910.98
2866.49
2811.07
2751.54
2709.64
2689.44
2683
2683.64
2685.34
2685.86
2683.91
2680.44
2677.43
2674.98
2671.97
2667.48
2662.04
2656.63
2651.35
2645.8
2639.76
2633.38
2626.88
2620.36
2613.85
2607.35
2600.82
2594.29
2587.91
2581.81
2575.96
2570.23
2564.69
2559.59
2555.14
2551.41
2548.34
2545.8
2543.7
2541.99
2540.66
2539.78
2539.36
2539.33
2539.71
2540.52
2541.59
2542.83
2544.21
2545.74
2547.41
2549.11
2550.74
2552.36
2554
2555.71
2557.4
2559
2560.55
2562.02
2563.4
2564.7
2565.97
2567.28
2568.59
2569.76
2570.76
2571.55
2572.34
2573.15
2574.07
2575.02
2575.9
2576.76
2577.62
2578.46
2579.22
2579.88
2580.48
2581.03
2581.57
2582.1
2582.63
2583.17
2583.69
2584.19
2584.68
2585.15
2585.6
2586.04
2586.46
2586.87
2587.26
2587.65
2588.02
2588.39
2588.74
2589.1
2589.5
2589.87
2590.22
2590.58
2590.92
2591.27
2591.6
2591.92
2592.25
2592.55
2592.87
2593.18
2593.49
2593.87
3579.69
2995.78
2992.47
2987.25
2979.5
2971.74
2963.11
2953.55
2938.59
2910.8
2866.49
2811.25
2751.67
2709.52
2689.27
2682.81
2683.38
2685.04
2685.64
2683.79
2680.34
2677.27
2674.77
2671.76
2667.29
2661.83
2656.37
2651.04
2645.44
2639.34
2632.88
2626.3
2619.69
2613.07
2606.45
2599.8
2593.13
2586.59
2580.31
2574.25
2568.32
2562.57
2557.24
2552.56
2548.57
2545.24
2542.45
2540.11
2538.17
2536.63
2535.53
2534.9
2534.67
2534.84
2535.44
2536.34
2537.41
2538.61
2539.96
2541.45
2542.98
2544.43
2545.86
2547.29
2548.78
2550.23
2551.58
2552.87
2554.1
2555.26
2556.35
2557.45
2558.58
2559.69
2560.6
2561.3
2561.78
2562.28
2562.85
2563.5
2564.15
2564.71
2565.29
2565.85
2566.39
2566.85
2567.28
2567.72
2568.2
2568.68
2569.16
2569.62
2570.07
2570.51
2570.93
2571.35
2571.76
2572.16
2572.54
2572.92
2573.26
2573.59
2573.9
2574.21
2574.51
2574.78
2575.07
2575.37
2575.64
2575.94
2576.22
2576.51
2576.78
2577.06
2577.32
2577.59
2577.84
2578.11
2578.39
2578.66
2578.99
3579.71
2995.49
2992.06
2987.02
2979.34
2971.59
2962.93
2953.31
2938.32
2910.63
2866.49
2811.45
2751.81
2709.42
2689.1
2682.62
2683.11
2684.73
2685.42
2683.67
2680.25
2677.11
2674.56
2671.55
2667.1
2661.62
2656.11
2650.74
2645.09
2638.92
2632.39
2625.73
2619.03
2612.3
2605.56
2598.79
2591.99
2585.29
2578.81
2572.56
2566.41
2560.45
2554.89
2549.96
2545.72
2542.12
2539.07
2536.48
2534.3
2532.54
2531.22
2530.37
2529.97
2529.94
2530.29
2531.03
2531.94
2532.97
2534.13
2535.45
2536.81
2538.09
2539.34
2540.57
2541.85
2543.07
2544.18
2545.23
2546.21
2547.13
2548.01
2548.9
2549.8
2550.64
2551.25
2551.66
2551.92
2552.27
2552.69
2553.12
2553.49
2553.74
2554
2554.22
2554.37
2554.48
2554.63
2554.88
2555.23
2555.62
2556
2556.38
2556.74
2557.08
2557.42
2557.76
2558.08
2558.42
2558.73
2559.05
2559.31
2559.61
2559.85
2560.1
2560.32
2560.54
2560.76
2561.01
2561.23
2561.46
2561.67
2561.9
2562.11
2562.34
2562.55
2562.77
2562.99
2563.21
2563.45
2563.69
2563.96
3579.46
2995.2
2991.65
2986.79
2979.17
2971.45
2962.74
2953.06
2938.05
2910.44
2866.49
2811.65
2751.97
2709.36
2688.93
2682.42
2682.82
2684.42
2685.2
2683.55
2680.17
2676.95
2674.35
2671.34
2666.91
2661.41
2655.86
2650.43
2644.74
2638.52
2631.91
2625.17
2618.38
2611.55
2604.69
2597.79
2590.85
2583.99
2577.33
2570.87
2564.52
2558.34
2552.56
2547.39
2542.88
2539.01
2535.68
2532.83
2530.41
2528.42
2526.88
2525.81
2525.21
2525
2525.15
2525.67
2526.43
2527.31
2528.3
2529.44
2530.63
2531.75
2532.83
2533.87
2534.94
2535.94
2536.83
2537.64
2538.38
2539.05
2539.69
2540.32
2540.93
2541.4
2541.67
2541.8
2541.9
2542.16
2542.52
2542.78
2542.93
2542.94
2542.92
2542.81
2542.62
2542.41
2542.29
2542.3
2542.43
2542.6
2542.8
2543
2543.19
2543.38
2543.57
2543.77
2543.97
2544.2
2544.39
2544.63
2544.81
2545.05
2545.22
2545.44
2545.61
2545.81
2545.97
2546.18
2546.35
2546.54
2546.71
2546.91
2547.08
2547.27
2547.45
2547.63
2547.81
2547.98
2548.17
2548.36
2548.6
3578.84
2994.88
2991.24
2986.55
2979.01
2971.3
2962.56
2952.81
2937.77
2910.25
2866.49
2811.86
2752.16
2709.32
2688.76
2682.21
2682.52
2684.1
2684.99
2683.44
2680.08
2676.79
2674.14
2671.14
2666.72
2661.2
2655.6
2650.13
2644.39
2638.11
2631.45
2624.63
2617.75
2610.81
2603.82
2596.8
2589.72
2582.7
2575.84
2569.18
2562.62
2556.23
2550.23
2544.81
2540.03
2535.88
2532.28
2529.16
2526.49
2524.26
2522.49
2521.19
2520.37
2519.99
2519.94
2520.23
2520.83
2521.57
2522.4
2523.37
2524.4
2525.36
2526.28
2527.15
2528.03
2528.84
2529.55
2530.16
2530.68
2531.14
2531.57
2531.95
2532.22
2532.28
2532.17
2532.01
2531.95
2532.07
2532.3
2532.39
2532.34
2532.13
2531.86
2531.51
2531.1
2530.72
2530.43
2530.21
2530.05
2529.91
2529.79
2529.7
2529.62
2529.55
2529.52
2529.52
2529.54
2529.58
2529.63
2529.71
2529.76
2529.89
2529.97
2530.11
2530.22
2530.38
2530.47
2530.61
2530.75
2530.9
2531.03
2531.18
2531.32
2531.48
2531.61
2531.76
2531.89
2532.02
2532.17
2532.29
2532.48
3578.31
2994.55
2990.83
2986.31
2978.84
2971.14
2962.37
2952.56
2937.48
2910.06
2866.49
2812.07
2752.37
2709.31
2688.57
2681.99
2682.21
2683.78
2684.77
2683.32
2680
2676.63
2673.93
2670.93
2666.53
2660.99
2655.35
2649.83
2644.05
2637.72
2631
2624.11
2617.13
2610.07
2602.97
2595.82
2588.61
2581.42
2574.37
2567.5
2560.73
2554.13
2547.9
2542.24
2537.2
2532.77
2528.89
2525.5
2522.56
2520.08
2518.08
2516.55
2515.5
2514.9
2514.68
2514.78
2515.18
2515.77
2516.45
2517.26
2518.13
2518.94
2519.7
2520.39
2521.1
2521.73
2522.25
2522.67
2522.98
2523.24
2523.47
2523.61
2523.59
2523.34
2522.91
2522.49
2522.22
2522.11
2522.1
2521.92
2521.6
2521.15
2520.64
2520.1
2519.57
2519.12
2518.73
2518.34
2517.93
2517.47
2517.01
2516.56
2516.14
2515.76
2515.44
2515.17
2514.94
2514.74
2514.57
2514.44
2514.33
2514.27
2514.22
2514.23
2514.25
2514.32
2514.27
2514.33
2514.41
2514.49
2514.56
2514.65
2514.72
2514.81
2514.9
2515
2515.09
2515.21
2515.36
2515.55
2515.48
3577.51
2994.2
2990.41
2986.07
2978.67
2970.99
2962.18
2952.31
2937.19
2909.85
2866.48
2812.29
2752.61
2709.32
2688.38
2681.75
2681.88
2683.46
2684.56
2683.21
2679.91
2676.48
2673.73
2670.72
2666.34
2660.78
2655.1
2649.54
2643.72
2637.34
2630.56
2623.6
2616.52
2609.35
2602.13
2594.86
2587.5
2580.14
2572.9
2565.83
2558.84
2552.02
2545.57
2539.66
2534.35
2529.65
2525.48
2521.81
2518.6
2515.87
2513.63
2511.86
2510.57
2509.75
2509.35
2509.27
2509.44
2509.87
2510.41
2511.07
2511.79
2512.46
2513.06
2513.58
2514.12
2514.59
2514.95
2515.16
2515.27
2515.32
2515.35
2515.28
2515.05
2514.6
2514
2513.4
2512.89
2512.46
2512.05
2511.47
2510.79
2510.02
2509.24
2508.5
2507.85
2507.33
2506.85
2506.32
2505.71
2505.01
2504.27
2503.52
2502.79
2502.1
2501.49
2500.93
2500.42
2499.94
2499.52
2499.12
2498.79
2498.49
2498.25
2498.04
2497.89
2497.82
2497.56
2497.46
2497.4
2497.35
2497.31
2497.28
2497.25
2497.24
2497.23
2497.23
2497.24
2497.3
2497.37
2497.57
2497.25
3576.79
2993.84
2989.99
2985.82
2978.5
2970.83
2961.99
2952.05
2936.89
2909.65
2866.47
2812.5
2752.88
2709.35
2688.18
2681.5
2681.54
2683.14
2684.35
2683.1
2679.83
2676.33
2673.53
2670.51
2666.14
2660.58
2654.85
2649.25
2643.39
2636.97
2630.14
2623.1
2615.92
2608.64
2601.3
2593.9
2586.4
2578.87
2571.45
2564.17
2556.96
2549.93
2543.24
2537.09
2531.51
2526.52
2522.07
2518.12
2514.64
2511.66
2509.17
2507.17
2505.64
2504.58
2503.97
2503.72
2503.7
2503.92
2504.32
2504.83
2505.41
2505.93
2506.39
2506.74
2507.09
2507.39
2507.56
2507.58
2507.46
2507.3
2507.09
2506.8
2506.37
2505.8
2505.11
2504.43
2503.75
2503.02
2502.19
2501.16
2500.05
2498.92
2497.82
2496.82
2495.96
2495.23
2494.54
2493.81
2493.01
2492.14
2491.22
2490.27
2489.34
2488.44
2487.58
2486.76
2485.98
2485.23
2484.52
2483.85
2483.25
2482.68
2482.19
2481.75
2481.37
2481.11
2480.6
2480.32
2480.08
2479.85
2479.65
2479.47
2479.3
2479.16
2479.03
2478.93
2478.84
2478.81
2478.81
2479
2478.42
3576.06
2993.48
2989.57
2985.57
2978.33
2970.68
2961.8
2951.79
2936.59
2909.43
2866.45
2812.73
2753.17
2709.39
2687.99
2681.25
2681.2
2682.84
2684.14
2682.99
2679.75
2676.18
2673.33
2670.31
2665.95
2660.37
2654.61
2648.97
2643.06
2636.61
2629.72
2622.6
2615.32
2607.93
2600.48
2592.94
2585.29
2577.6
2569.99
2562.51
2555.09
2547.83
2540.92
2534.51
2528.66
2523.38
2518.64
2514.4
2510.65
2507.41
2504.67
2502.43
2500.67
2499.37
2498.52
2498.08
2497.9
2497.94
2498.15
2498.52
2498.96
2499.35
2499.68
2499.88
2500.05
2500.14
2500.15
2500
2499.71
2499.33
2498.86
2498.33
2497.66
2496.94
2496.13
2495.36
2494.54
2493.58
2492.43
2491.05
2489.58
2488.11
2486.69
2485.37
2484.17
2483.08
2482.03
2480.98
2479.92
2478.85
2477.78
2476.68
2475.62
2474.56
2473.53
2472.5
2471.48
2470.5
2469.54
2468.62
2467.74
2466.91
2466.13
2465.41
2464.76
2464.24
2463.48
2462.95
2462.49
2462.03
2461.61
2461.24
2460.9
2460.6
2460.32
2460.08
2459.86
2459.72
2459.63
2459.81
2458.93
3575.33
2993.11
2989.14
2985.32
2978.15
2970.52
2961.61
2951.52
2936.29
2909.2
2866.42
2812.95
2753.47
2709.45
2687.84
2680.99
2680.86
2682.55
2683.92
2682.87
2679.66
2676.04
2673.14
2670.11
2665.76
2660.17
2654.38
2648.69
2642.75
2636.25
2629.31
2622.1
2614.72
2607.23
2599.66
2592
2584.2
2576.34
2568.55
2560.86
2553.23
2545.75
2538.6
2531.94
2525.81
2520.23
2515.19
2510.67
2506.65
2503.14
2500.15
2497.68
2495.68
2494.14
2493.06
2492.4
2492.05
2491.95
2491.97
2492.15
2492.46
2492.74
2492.95
2493.01
2493
2492.9
2492.74
2492.46
2492.01
2491.43
2490.72
2489.94
2489.01
2488.06
2487.01
2486.05
2485.05
2483.91
2482.54
2480.97
2479.31
2477.66
2476.01
2474.38
2472.79
2471.22
2469.66
2468.15
2466.7
2465.32
2464.01
2462.74
2461.53
2460.32
2459.14
2457.95
2456.78
2455.61
2454.46
2453.32
2452.21
2451.13
2450.08
2449.09