/*--------------------------------*- C++ -*----------------------------------*\
| =========                 |                                                 |
| \\      /  F ield         | OpenFOAM: The Open Source CFD Toolbox           |
|  \\    /   O peration     | Version:  2412                                  |
|   \\  /    A nd           | Website:  www.openfoam.com                      |
|    \\/     M anipulation  |                                                 |
\*---------------------------------------------------------------------------*/
FoamFile
{
    version     2.0;
    format      ascii;
    arch        "LSB;label=32;scalar=64";
    class       volVectorField;
    location    "0.022";
    object      U;
}
// * * * * * * * * * * * * * * * * * * * * * * * * * * * * * * * * * * * * * //

dimensions      [0 1 -1 0 0 0 0];

internalField   nonuniform List<vector> 
9763
(
(181.845 -27.9537 0)
(170.376 -32.993 0)
(181.976 -27.9732 0)
(169.57 -32.8929 0)
(182.131 -28.057 0)
(169.404 -33.0124 0)
(182.349 -28.0962 0)
(169.486 -33.1177 0)
(182.606 -28.1999 0)
(169.807 -33.1928 0)
(182.931 -28.2606 0)
(170.356 -33.3764 0)
(183.286 -28.3773 0)
(171.082 -33.5059 0)
(183.67 -28.4508 0)
(171.837 -33.7225 0)
(184.039 -28.5672 0)
(172.593 -33.8701 0)
(184.403 -28.6414 0)
(173.302 -34.0782 0)
(184.737 -28.7532 0)
(174.002 -34.2324 0)
(185.069 -28.8258 0)
(174.678 -34.4313 0)
(185.387 -28.9358 0)
(175.362 -34.5899 0)
(185.722 -29.0107 0)
(176.039 -34.7828 0)
(186.068 -29.1206 0)
(176.728 -34.9468 0)
(186.452 -29.2048 0)
(177.417 -35.1376 0)
(186.865 -29.3186 0)
(178.123 -35.3078 0)
(187.321 -29.4158 0)
(178.841 -35.5014 0)
(187.811 -29.5343 0)
(179.59 -35.6825 0)
(188.332 -29.6427 0)
(180.368 -35.8863 0)
(188.867 -29.7614 0)
(181.191 -36.0836 0)
(189.397 -29.8718 0)
(182.055 -36.3027 0)
(189.895 -29.9792 0)
(182.963 -36.5169 0)
(190.337 -30.076 0)
(183.903 -36.7494 0)
(190.704 -30.1594 0)
(184.868 -36.9733 0)
(190.987 -30.2307 0)
(185.835 -37.209 0)
(191.192 -30.2874 0)
(186.788 -37.4275 0)
(191.335 -30.336 0)
(187.701 -37.6503 0)
(191.439 -30.3776 0)
(188.558 -37.8451 0)
(191.526 -30.4196 0)
(189.337 -38.0385 0)
(191.624 -30.4629 0)
(190.035 -38.1968 0)
(191.762 -30.5106 0)
(190.646 -38.3485 0)
(191.975 -30.5683 0)
(191.189 -38.4625 0)
(192.278 -30.6429 0)
(191.681 -38.5663 0)
(192.668 -30.7283 0)
(192.152 -38.6424 0)
(193.121 -30.828 0)
(192.624 -38.7153 0)
(193.618 -30.936 0)
(193.12 -38.769 0)
(194.141 -31.0522 0)
(193.655 -38.8222 0)
(194.671 -31.1714 0)
(194.239 -38.8607 0)
(195.186 -31.2886 0)
(194.882 -38.8982 0)
(195.587 -38.9237 0)
(196.352 -38.9441 0)
(197.166 -38.948 0)
(171.204 52.8213 0)
(175.257 6.09592 0)
(188.37 -2.0151 0)
(194.283 -4.97253 0)
(195.636 -6.46462 0)
(196.676 -6.99215 0)
(197.757 -6.94014 0)
(198.915 -6.39604 0)
(200.375 -5.63135 0)
(202.435 -5.09525 0)
(205.09 -5.1146 0)
(208.46 -5.84052 0)
(211.739 -6.80134 0)
(213.843 -7.15427 0)
(214.864 -6.99527 0)
(215.225 -6.7983 0)
(215.251 -6.80807 0)
(215.324 -6.88599 0)
(215.524 -7.12417 0)
(215.826 -7.49906 0)
(216.112 -7.86448 0)
(216.389 -8.16887 0)
(216.701 -8.47904 0)
(217.08 -8.89281 0)
(217.495 -9.42827 0)
(217.915 -9.99389 0)
(218.328 -10.5536 0)
(218.762 -11.1315 0)
(219.202 -11.767 0)
(219.648 -12.4552 0)
(220.077 -13.1835 0)
(220.497 -13.9405 0)
(220.888 -14.7304 0)
(221.262 -15.5487 0)
(221.604 -16.3951 0)
(221.914 -17.2709 0)
(222.178 -18.1777 0)
(222.4 -19.1052 0)
(222.571 -20.0428 0)
(222.69 -20.9932 0)
(222.747 -21.9623 0)
(222.731 -22.9443 0)
(222.646 -23.9186 0)
(222.503 -24.8736 0)
(222.3 -25.823 0)
(222.046 -26.7442 0)
(221.743 -27.6454 0)
(221.393 -28.5309 0)
(220.997 -29.3981 0)
(220.554 -30.2434 0)
(220.068 -31.0647 0)
(219.544 -31.8588 0)
(218.985 -32.6255 0)
(218.391 -33.3655 0)
(217.756 -34.0799 0)
(217.077 -34.7606 0)
(216.39 -35.4136 0)
(215.72 -36.0414 0)
(215.081 -36.6625 0)
(214.396 -37.2587 0)
(213.639 -37.8047 0)
(212.913 -38.3549 0)
(212.165 -38.877 0)
(211.411 -39.3885 0)
(210.617 -39.8505 0)
(209.855 -40.3132 0)
(209.076 -40.7379 0)
(208.303 -41.1539 0)
(207.52 -41.5448 0)
(206.74 -41.9241 0)
(205.947 -42.2762 0)
(205.157 -42.6213 0)
(204.354 -42.9466 0)
(203.545 -43.2625 0)
(202.718 -43.5507 0)
(201.893 -43.8382 0)
(201.046 -44.1 0)
(200.195 -44.3692 0)
(199.325 -44.6186 0)
(198.458 -44.8704 0)
(197.597 -45.117 0)
(196.745 -45.3625 0)
(195.892 -45.5992 0)
(195.034 -45.8271 0)
(194.165 -46.0366 0)
(193.293 -46.2417 0)
(192.411 -46.4134 0)
(191.539 -46.5943 0)
(190.66 -46.7348 0)
(189.797 -46.9101 0)
(188.94 -47.0583 0)
(188.163 -47.2894 0)
(187.381 -47.4355 0)
(186.635 -47.6466 0)
(185.847 -47.7778 0)
(185.064 -47.9606 0)
(184.255 -48.1009 0)
(183.452 -48.2699 0)
(182.652 -48.4265 0)
(181.875 -48.6023 0)
(181.125 -48.7861 0)
(180.401 -48.9788 0)
(179.704 -49.194 0)
(179.01 -49.3963 0)
(178.327 -49.6275 0)
(177.62 -49.8247 0)
(176.917 -50.0549 0)
(176.197 -50.2476 0)
(175.494 -50.4878 0)
(174.773 -50.6723 0)
(174.068 -50.9104 0)
(173.402 -51.1555 0)
(172.782 -51.4345 0)
(172.214 -51.7571 0)
(171.695 -52.1129 0)
(171.25 -52.5259 0)
(170.93 -53.0093 0)
(170.801 -53.5644 0)
(170.727 -54.082 0)
(170.771 -54.6702 0)
(170.569 -54.8561 0)
(171.266 52.9996 0)
(175.295 6.22208 0)
(188.4 -2.00945 0)
(194.302 -4.97592 0)
(195.651 -6.45854 0)
(196.686 -6.98435 0)
(197.767 -6.93278 0)
(198.925 -6.38824 0)
(200.385 -5.61694 0)
(202.447 -5.06498 0)
(205.1 -5.06199 0)
(208.478 -5.76805 0)
(211.758 -6.74032 0)
(213.847 -7.11727 0)
(214.893 -6.9841 0)
(215.251 -6.79783 0)
(215.275 -6.81299 0)
(215.345 -6.88374 0)
(215.543 -7.11436 0)
(215.844 -7.48284 0)
(216.134 -7.84968 0)
(216.416 -8.15438 0)
(216.73 -8.46101 0)
(217.111 -8.86734 0)
(217.531 -9.39729 0)
(217.957 -9.96097 0)
(218.377 -10.5186 0)
(218.818 -11.0926 0)
(219.266 -11.7237 0)
(219.722 -12.4088 0)
(220.161 -13.1349 0)
(220.591 -13.8894 0)
(220.995 -14.6765 0)
(221.381 -15.4925 0)
(221.738 -16.3377 0)
(222.064 -17.2133 0)
(222.344 -18.1203 0)
(222.581 -19.0487 0)
(222.77 -19.9884 0)
(222.908 -20.9422 0)
(222.985 -21.917 0)
(222.989 -22.9058 0)
(222.924 -23.8886 0)
(222.796 -24.8493 0)
(222.613 -25.8042 0)
(222.38 -26.7382 0)
(222.094 -27.6495 0)
(221.76 -28.5465 0)
(221.379 -29.4274 0)
(220.951 -30.2879 0)
(220.48 -31.125 0)
(219.969 -31.9351 0)
(219.424 -32.7172 0)
(218.844 -33.472 0)
(218.224 -34.201 0)
(217.559 -34.8975 0)
(216.882 -35.5671 0)
(216.219 -36.2114 0)
(215.595 -36.8487 0)
(214.928 -37.4622 0)
(214.184 -38.027 0)
(213.471 -38.5944 0)
(212.739 -39.1371 0)
(211.997 -39.6685 0)
(211.215 -40.1568 0)
(210.461 -40.6457 0)
(209.69 -41.0998 0)
(208.927 -41.5466 0)
(208.154 -41.9661 0)
(207.385 -42.3761 0)
(206.601 -42.7579 0)
(205.823 -43.1417 0)
(205.028 -43.5035 0)
(204.233 -43.8626 0)
(203.418 -44.1954 0)
(202.604 -44.536 0)
(201.762 -44.8574 0)
(200.917 -45.1881 0)
(200.055 -45.4988 0)
(199.2 -45.8063 0)
(198.362 -46.1081 0)
(197.538 -46.3998 0)
(196.726 -46.6877 0)
(195.911 -46.9647 0)
(195.092 -47.2422 0)
(194.261 -47.5162 0)
(193.419 -47.7829 0)
(192.582 -48.0555 0)
(191.746 -48.311 0)
(190.937 -48.5912 0)
(190.135 -48.8495 0)
(189.377 -49.1507 0)
(188.607 -49.3952 0)
(187.884 -49.7022 0)
(187.118 -49.9366 0)
(186.379 -50.2373 0)
(185.599 -50.4844 0)
(184.835 -50.7716 0)
(184.066 -51.0345 0)
(183.327 -51.3205 0)
(182.614 -51.6028 0)
(181.938 -51.8941 0)
(181.298 -52.1981 0)
(180.669 -52.4845 0)
(180.063 -52.7949 0)
(179.433 -53.0595 0)
(178.817 -53.3506 0)
(178.177 -53.5909 0)
(177.554 -53.8494 0)
(176.931 -54.0736 0)
(176.334 -54.2925 0)
(175.781 -54.5109 0)
(175.302 -54.7444 0)
(174.892 -54.9802 0)
(174.551 -55.2267 0)
(174.268 -55.4693 0)
(174.051 -55.7107 0)
(173.901 -55.9384 0)
(173.806 -56.1523 0)
(173.808 -56.3874 0)
(173.902 -56.6032 0)
(171.325 53.0762 0)
(175.329 6.22109 0)
(188.434 -2.01218 0)
(194.319 -4.96245 0)
(195.663 -6.44822 0)
(196.695 -6.97522 0)
(197.777 -6.92424 0)
(198.935 -6.37867 0)
(200.392 -5.6003 0)
(202.449 -5.03156 0)
(205.095 -5.00957 0)
(208.477 -5.70146 0)
(211.757 -6.68223 0)
(213.851 -7.08569 0)
(214.922 -6.97595 0)
(215.276 -6.79784 0)
(215.3 -6.81435 0)
(215.367 -6.88309 0)
(215.563 -7.10702 0)
(215.863 -7.47173 0)
(216.159 -7.83973 0)
(216.445 -8.14458 0)
(216.762 -8.44816 0)
(217.146 -8.84879 0)
(217.571 -9.37509 0)
(218.003 -9.93793 0)
(218.431 -10.4948 0)
(218.879 -11.0665 0)
(219.335 -11.695 0)
(219.801 -12.3781 0)
(220.249 -13.1032 0)
(220.691 -13.8574 0)
(221.108 -14.6448 0)
(221.509 -15.462 0)
(221.881 -16.3093 0)
(222.223 -17.1876 0)
(222.519 -18.0983 0)
(222.773 -19.0312 0)
(222.979 -19.9771 0)
(223.137 -20.9386 0)
(223.231 -21.9226 0)
(223.255 -22.9224 0)
(223.208 -23.9164 0)
(223.095 -24.8916 0)
(222.931 -25.8526 0)
(222.716 -26.8026 0)
(222.444 -27.7266 0)
(222.124 -28.6352 0)
(221.757 -29.5289 0)
(221.342 -30.4026 0)
(220.882 -31.2533 0)
(220.384 -32.0775 0)
(219.851 -32.8741 0)
(219.283 -33.6441 0)
(218.675 -34.3887 0)
(218.022 -35.101 0)
(217.355 -35.7862 0)
(216.702 -36.4458 0)
(216.09 -37.0998 0)
(215.437 -37.7308 0)
(214.706 -38.3127 0)
(214.003 -38.8971 0)
(213.285 -39.4584 0)
(212.556 -40.0074 0)
(211.787 -40.5148 0)
(211.048 -41.0205 0)
(210.295 -41.4935 0)
(209.549 -41.9584 0)
(208.79 -42.3973 0)
(208.034 -42.8298 0)
(207.258 -43.2362 0)
(206.494 -43.6468 0)
(205.717 -44.0291 0)
(204.952 -44.4078 0)
(204.17 -44.7578 0)
(203.396 -45.1162 0)
(202.601 -45.458 0)
(201.803 -45.8059 0)
(200.988 -46.1395 0)
(200.173 -46.4704 0)
(199.369 -46.8023 0)
(198.568 -47.1221 0)
(197.78 -47.4424 0)
(196.991 -47.7492 0)
(196.209 -48.0629 0)
(195.417 -48.369 0)
(194.62 -48.6821 0)
(193.817 -48.9934 0)
(193.015 -49.3003 0)
(192.236 -49.6125 0)
(191.475 -49.9047 0)
(190.756 -50.2095 0)
(190.047 -50.4762 0)
(189.389 -50.7795 0)
(188.71 -51.0218 0)
(188.072 -51.3203 0)
(187.395 -51.5594 0)
(186.738 -51.8429 0)
(186.067 -52.0939 0)
(185.424 -52.3743 0)
(184.795 -52.6413 0)
(184.202 -52.9247 0)
(183.635 -53.208 0)
(183.08 -53.4825 0)
(182.542 -53.7704 0)
(181.975 -54.0187 0)
(181.41 -54.2867 0)
(180.811 -54.5034 0)
(180.213 -54.7356 0)
(179.601 -54.9169 0)
(179.004 -55.1104 0)
(178.442 -55.2848 0)
(177.943 -55.4822 0)
(177.499 -55.6728 0)
(177.107 -55.878 0)
(176.743 -56.0735 0)
(176.403 -56.2697 0)
(176.088 -56.4581 0)
(175.831 -56.6562 0)
(175.699 -56.9197 0)
(175.725 -57.2098 0)
(171.412 53.1252 0)
(175.347 6.21101 0)
(188.468 -2.01062 0)
(194.337 -4.95378 0)
(195.677 -6.4404 0)
(196.705 -6.96643 0)
(197.785 -6.91575 0)
(198.945 -6.36927 0)
(200.403 -5.58418 0)
(202.459 -5.00007 0)
(205.104 -4.96047 0)
(208.487 -5.63994 0)
(211.765 -6.62888 0)
(213.856 -7.0546 0)
(214.947 -6.9663 0)
(215.3 -6.7972 0)
(215.323 -6.81899 0)
(215.389 -6.88099 0)
(215.581 -7.09845 0)
(215.879 -7.458 0)
(216.179 -7.82652 0)
(216.47 -8.1314 0)
(216.789 -8.43215 0)
(217.175 -8.82711 0)
(217.603 -9.34905 0)
(218.041 -9.91002 0)
(218.475 -10.4649 0)
(218.93 -11.0335 0)
(219.393 -11.6583 0)
(219.866 -12.3384 0)
(220.324 -13.0614 0)
(220.775 -13.8135 0)
(221.204 -14.5986 0)
(221.619 -15.4136 0)
(222.005 -16.2596 0)
(222.361 -17.1378 0)
(222.674 -18.0492 0)
(222.945 -18.9829 0)
(223.168 -19.93 0)
(223.345 -20.8942 0)
(223.459 -21.883 0)
(223.503 -22.8894 0)
(223.476 -23.8916 0)
(223.384 -24.8743 0)
(223.239 -25.8402 0)
(223.043 -26.7999 0)
(222.791 -27.7353 0)
(222.488 -28.6538 0)
(222.138 -29.5593 0)
(221.738 -30.4468 0)
(221.294 -31.3121 0)
(220.81 -32.1515 0)
(220.291 -32.9632 0)
(219.738 -33.7477 0)
(219.146 -34.5065 0)
(218.507 -35.2338 0)
(217.853 -35.9344 0)
(217.212 -36.609 0)
(216.617 -37.2776 0)
(215.983 -37.9238 0)
(215.267 -38.5219 0)
(214.581 -39.1219 0)
(213.88 -39.6998 0)
(213.168 -40.2651 0)
(212.417 -40.7921 0)
(211.693 -41.3169 0)
(210.959 -41.8131 0)
(210.229 -42.3013 0)
(209.483 -42.7648 0)
(208.738 -43.222 0)
(207.975 -43.6535 0)
(207.229 -44.0903 0)
(206.47 -44.498 0)
(205.724 -44.9069 0)
(204.957 -45.2907 0)
(204.201 -45.6862 0)
(203.427 -46.065 0)
(202.654 -46.4424 0)
(201.872 -46.8066 0)
(201.09 -47.1613 0)
(200.322 -47.5176 0)
(199.553 -47.8563 0)
(198.802 -48.1958 0)
(198.053 -48.519 0)
(197.321 -48.8482 0)
(196.588 -49.1664 0)
(195.862 -49.4961 0)
(195.128 -49.8207 0)
(194.397 -50.1529 0)
(193.673 -50.4894 0)
(192.954 -50.8183 0)
(192.258 -51.1552 0)
(191.571 -51.4699 0)
(190.923 -51.8033 0)
(190.27 -52.0931 0)
(189.662 -52.4215 0)
(189.027 -52.6934 0)
(188.425 -53.0031 0)
(187.806 -53.2727 0)
(187.217 -53.5678 0)
(186.637 -53.8396 0)
(186.095 -54.1272 0)
(185.573 -54.4026 0)
(185.073 -54.676 0)
(184.586 -54.9526 0)
(184.076 -55.1968 0)
(183.559 -55.4531 0)
(182.995 -55.6576 0)
(182.417 -55.8574 0)
(181.824 -56.0292 0)
(181.242 -56.1708 0)
(180.699 -56.3257 0)
(180.218 -56.4825 0)
(179.8 -56.6442 0)
(179.438 -56.8169 0)
(179.115 -56.9845 0)
(178.829 -57.1634 0)
(178.568 -57.3333 0)
(178.371 -57.5368 0)
(178.248 -57.7626 0)
(178.243 -58.0397 0)
(171.457 53.1582 0)
(175.369 6.19766 0)
(188.502 -2.00964 0)
(194.354 -4.94649 0)
(195.689 -6.43106 0)
(196.714 -6.95787 0)
(197.795 -6.9076 0)
(198.955 -6.36018 0)
(200.41 -5.56866 0)
(202.46 -4.96915 0)
(205.104 -4.912 0)
(208.483 -5.57781 0)
(211.756 -6.57395 0)
(213.862 -7.0241 0)
(214.972 -6.95831 0)
(215.322 -6.79712 0)
(215.346 -6.82068 0)
(215.41 -6.88075 0)
(215.599 -7.09211 0)
(215.896 -7.44739 0)
(216.201 -7.81672 0)
(216.497 -8.12198 0)
(216.818 -8.4202 0)
(217.206 -8.80986 0)
(217.639 -9.32802 0)
(218.083 -9.88789 0)
(218.524 -10.442 0)
(218.985 -11.0086 0)
(219.456 -11.631 0)
(219.937 -12.3092 0)
(220.403 -13.0312 0)
(220.865 -13.7825 0)
(221.307 -14.5674 0)
(221.734 -15.3828 0)
(222.134 -16.23 0)
(222.506 -17.1105 0)
(222.834 -18.0249 0)
(223.122 -18.9625 0)
(223.363 -19.9145 0)
(223.556 -20.8849 0)
(223.688 -21.8814 0)
(223.75 -22.897 0)
(223.741 -23.9098 0)
(223.667 -24.9037 0)
(223.539 -25.8784 0)
(223.359 -26.8485 0)
(223.124 -27.7976 0)
(222.835 -28.7275 0)
(222.498 -29.6447 0)
(222.111 -30.5447 0)
(221.679 -31.4227 0)
(221.206 -32.275 0)
(220.699 -33.0997 0)
(220.157 -33.8976 0)
(219.577 -34.67 0)
(218.95 -35.4113 0)
(218.306 -36.126 0)
(217.674 -36.8149 0)
(217.092 -37.4991 0)
(216.474 -38.1618 0)
(215.771 -38.7761 0)
(215.098 -39.392 0)
(214.412 -39.9867 0)
(213.715 -40.5675 0)
(212.979 -41.1104 0)
(212.27 -41.6494 0)
(211.554 -42.1634 0)
(210.841 -42.6691 0)
(210.11 -43.1521 0)
(209.379 -43.6293 0)
(208.631 -44.0818 0)
(207.907 -44.5376 0)
(207.172 -44.961 0)
(206.457 -45.3846 0)
(205.723 -45.7823 0)
(205.007 -46.1914 0)
(204.276 -46.5836 0)
(203.546 -46.9731 0)
(202.808 -47.3559 0)
(202.061 -47.7301 0)
(201.324 -48.1115 0)
(200.58 -48.4745 0)
(199.852 -48.8394 0)
(199.129 -49.187 0)
(198.428 -49.5383 0)
(197.733 -49.879 0)
(197.052 -50.2306 0)
(196.366 -50.5754 0)
(195.686 -50.9255 0)
(195.013 -51.2749 0)
(194.345 -51.6108 0)
(193.701 -51.9519 0)
(193.067 -52.2697 0)
(192.468 -52.5973 0)
(191.873 -52.8927 0)
(191.319 -53.211 0)
(190.748 -53.4832 0)
(190.21 -53.7859 0)
(189.656 -54.0498 0)
(189.129 -54.3375 0)
(188.605 -54.6011 0)
(188.114 -54.8803 0)
(187.64 -55.1452 0)
(187.196 -55.4177 0)
(186.764 -55.6914 0)
(186.317 -55.9485 0)
(185.854 -56.2192 0)
(185.323 -56.4264 0)
(184.767 -56.6521 0)
(184.171 -56.8036 0)
(183.592 -56.9804 0)
(183.048 -57.1308 0)
(182.567 -57.3061 0)
(182.144 -57.4721 0)
(181.782 -57.6511 0)
(181.464 -57.8246 0)
(181.187 -58.0031 0)
(180.94 -58.1723 0)
(180.75 -58.3633 0)
(180.642 -58.5741 0)
(180.623 -58.8275 0)
(171.474 53.197 0)
(175.389 6.18143 0)
(188.537 -2.00878 0)
(194.371 -4.93832 0)
(195.703 -6.42352 0)
(196.723 -6.94943 0)
(197.803 -6.89942 0)
(198.965 -6.35118 0)
(200.42 -5.5534 0)
(202.467 -4.93911 0)
(205.115 -4.86567 0)
(208.488 -5.51844 0)
(211.755 -6.52098 0)
(213.869 -6.99345 0)
(214.994 -6.94871 0)
(215.344 -6.79636 0)
(215.369 -6.82501 0)
(215.431 -6.87902 0)
(215.616 -7.08453 0)
(215.91 -7.43439 0)
(216.219 -7.80393 0)
(216.52 -8.10942 0)
(216.844 -8.40514 0)
(217.234 -8.78943 0)
(217.67 -9.30318 0)
(218.119 -9.86119 0)
(218.566 -10.4137 0)
(219.033 -10.9774 0)
(219.51 -11.5962 0)
(219.998 -12.2714 0)
(220.472 -12.9909 0)
(220.944 -13.74 0)
(221.397 -14.5227 0)
(221.837 -15.3362 0)
(222.25 -16.1822 0)
(222.636 -17.0624 0)
(222.981 -17.9772 0)
(223.285 -18.9157 0)
(223.543 -19.8692 0)
(223.754 -20.8421 0)
(223.904 -21.8429 0)
(223.986 -22.8645 0)
(223.997 -23.8846 0)
(223.945 -24.8865 0)
(223.833 -25.8682 0)
(223.671 -26.8435 0)
(223.458 -27.8048 0)
(223.186 -28.745 0)
(222.865 -29.6725 0)
(222.494 -30.5847 0)
(222.076 -31.476 0)
(221.618 -32.342 0)
(221.124 -33.1803 0)
(220.596 -33.9915 0)
(220.03 -34.777 0)
(219.417 -35.5319 0)
(218.784 -36.2603 0)
(218.163 -36.9622 0)
(217.595 -37.6593 0)
(216.995 -38.3356 0)
(216.31 -38.9648 0)
(215.653 -39.5955 0)
(214.985 -40.2055 0)
(214.304 -40.8008 0)
(213.584 -41.3591 0)
(212.889 -41.9127 0)
(212.188 -42.4451 0)
(211.489 -42.9699 0)
(210.772 -43.4746 0)
(210.055 -43.9729 0)
(209.327 -44.4475 0)
(208.624 -44.9234 0)
(207.909 -45.3687 0)
(207.21 -45.8174 0)
(206.489 -46.2429 0)
(205.788 -46.6789 0)
(205.076 -47.0948 0)
(204.37 -47.504 0)
(203.661 -47.9071 0)
(202.941 -48.298 0)
(202.234 -48.6959 0)
(201.514 -49.0726 0)
(200.812 -49.4495 0)
(200.119 -49.8061 0)
(199.453 -50.1611 0)
(198.802 -50.5038 0)
(198.172 -50.8539 0)
(197.542 -51.201 0)
(196.914 -51.5555 0)
(196.288 -51.9182 0)
(195.652 -52.2688 0)
(195.039 -52.6369 0)
(194.421 -52.977 0)
(193.841 -53.3319 0)
(193.263 -53.655 0)
(192.725 -53.9908 0)
(192.182 -54.2873 0)
(191.675 -54.6023 0)
(191.16 -54.8801 0)
(190.674 -55.1728 0)
(190.191 -55.4406 0)
(189.739 -55.7145 0)
(189.308 -55.976 0)
(188.912 -56.2409 0)
(188.544 -56.5097 0)
(188.171 -56.7705 0)
(187.772 -57.0294 0)
(187.3 -57.2406 0)
(186.782 -57.4465 0)
(186.222 -57.5897 0)
(185.673 -57.7626 0)
(185.157 -57.9121 0)
(184.696 -58.0812 0)
(184.289 -58.2436 0)
(183.94 -58.4169 0)
(183.637 -58.5865 0)
(183.376 -58.7605 0)
(183.148 -58.9326 0)
(182.96 -59.1034 0)
(182.882 -59.3307 0)
(182.943 -59.5339 0)
(171.522 53.2462 0)
(175.411 6.16327 0)
(188.572 -2.00831 0)
(194.389 -4.931 0)
(195.714 -6.41425 0)
(196.733 -6.94088 0)
(197.813 -6.89126 0)
(198.975 -6.34211 0)
(200.428 -5.53812 0)
(202.468 -4.90868 0)
(205.117 -4.8179 0)
(208.48 -5.45717 0)
(211.741 -6.4658 0)
(213.878 -6.96256 0)
(215.016 -6.9402 0)
(215.366 -6.79628 0)
(215.392 -6.82691 0)
(215.453 -6.87907 0)
(215.634 -7.07873 0)
(215.926 -7.42372 0)
(216.24 -7.79377 0)
(216.546 -8.09984 0)
(216.873 -8.39331 0)
(217.265 -8.77247 0)
(217.705 -9.28223 0)
(218.16 -9.83891 0)
(218.612 -10.3905 0)
(219.086 -10.9522 0)
(219.57 -11.5685 0)
(220.066 -12.2416 0)
(220.549 -12.9598 0)
(221.032 -13.708 0)
(221.497 -14.4901 0)
(221.95 -15.3035 0)
(222.377 -16.1503 0)
(222.778 -17.0322 0)
(223.138 -17.9497 0)
(223.46 -18.8917 0)
(223.735 -19.8498 0)
(223.964 -20.8284 0)
(224.131 -21.836 0)
(224.231 -22.8657 0)
(224.261 -23.8952 0)
(224.226 -24.9074 0)
(224.131 -25.9007 0)
(223.988 -26.882 0)
(223.792 -27.8573 0)
(223.537 -28.8105 0)
(223.229 -29.7494 0)
(222.871 -30.6738 0)
(222.466 -31.5779 0)
(222.02 -32.4567 0)
(221.538 -33.3078 0)
(221.022 -34.1318 0)
(220.468 -34.93 0)
(219.867 -35.6982 0)
(219.245 -36.4398 0)
(218.631 -37.1549 0)
(218.075 -37.866 0)
(217.49 -38.557 0)
(216.82 -39.2013 0)
(216.179 -39.8471 0)
(215.528 -40.4727 0)
(214.863 -41.0822 0)
(214.158 -41.6543 0)
(213.477 -42.2202 0)
(212.793 -42.7683 0)
(212.107 -43.3087 0)
(211.405 -43.8312 0)
(210.705 -44.3459 0)
(209.999 -44.8369 0)
(209.323 -45.3255 0)
(208.635 -45.7834 0)
(207.962 -46.2425 0)
(207.267 -46.6775 0)
(206.596 -47.1194 0)
(205.916 -47.5407 0)
(205.241 -47.9564 0)
(204.564 -48.3708 0)
(203.872 -48.7744 0)
(203.191 -49.1882 0)
(202.494 -49.5823 0)
(201.811 -49.9779 0)
(201.134 -50.3546 0)
(200.482 -50.7273 0)
(199.849 -51.0854 0)
(199.242 -51.4441 0)
(198.644 -51.7936 0)
(198.055 -52.1419 0)
(197.471 -52.4948 0)
(196.876 -52.8282 0)
(196.307 -53.187 0)
(195.72 -53.5082 0)
(195.175 -53.8585 0)
(194.621 -54.1724 0)
(194.104 -54.5012 0)
(193.584 -54.7977 0)
(193.094 -55.1055 0)
(192.601 -55.3835 0)
(192.132 -55.6701 0)
(191.668 -55.937 0)
(191.227 -56.2032 0)
(190.812 -56.4652 0)
(190.43 -56.724 0)
(190.092 -56.9996 0)
(189.748 -57.2586 0)
(189.381 -57.515 0)
(188.938 -57.7306 0)
(188.433 -57.9169 0)
(187.892 -58.0748 0)
(187.356 -58.2406 0)
(186.848 -58.3988 0)
(186.386 -58.5674 0)
(185.975 -58.7334 0)
(185.62 -58.91 0)
(185.312 -59.0822 0)
(185.049 -59.266 0)
(184.814 -59.4403 0)
(184.618 -59.629 0)
(184.462 -59.8264 0)
(184.474 -60.082 0)
(171.6 53.2807 0)
(175.433 6.14649 0)
(188.607 -2.00795 0)
(194.407 -4.92306 0)
(195.728 -6.40647 0)
(196.742 -6.93229 0)
(197.822 -6.88291 0)
(198.986 -6.33294 0)
(200.439 -5.52278 0)
(202.475 -4.87834 0)
(205.129 -4.7711 0)
(208.482 -5.39694 0)
(211.74 -6.41108 0)
(213.889 -6.93123 0)
(215.034 -6.92979 0)
(215.389 -6.79545 0)
(215.416 -6.83125 0)
(215.474 -6.87757 0)
(215.651 -7.07161 0)
(215.939 -7.4106 0)
(216.259 -7.78053 0)
(216.569 -8.08703 0)
(216.899 -8.37821 0)
(217.293 -8.75197 0)
(217.736 -9.25702 0)
(218.195 -9.81163 0)
(218.654 -10.3616 0)
(219.133 -10.9205 0)
(219.624 -11.5332 0)
(220.127 -12.203 0)
(220.619 -12.9187 0)
(221.112 -13.6644 0)
(221.589 -14.4441 0)
(222.053 -15.2556 0)
(222.493 -16.101 0)
(222.909 -16.9822 0)
(223.286 -17.8999 0)
(223.626 -18.8428 0)
(223.919 -19.8026 0)
(224.166 -20.7838 0)
(224.352 -21.7955 0)
(224.471 -22.8307 0)
(224.521 -23.867 0)
(224.508 -24.8874 0)
(224.434 -25.8884 0)
(224.31 -26.8754 0)
(224.133 -27.8602 0)
(223.898 -28.8262 0)
(223.608 -29.7754 0)
(223.267 -30.7114 0)
(222.878 -31.6284 0)
(222.448 -32.5206 0)
(221.98 -33.3851 0)
(221.48 -34.2222 0)
(220.941 -35.0333 0)
(220.355 -35.8148 0)
(219.745 -36.5697 0)
(219.142 -37.2972 0)
(218.598 -38.0203 0)
(218.031 -38.7239 0)
(217.377 -39.3822 0)
(216.754 -40.0425 0)
(216.123 -40.6837 0)
(215.477 -41.308 0)
(214.79 -41.895 0)
(214.125 -42.4748 0)
(213.458 -43.0395 0)
(212.787 -43.5962 0)
(212.102 -44.1372 0)
(211.42 -44.6691 0)
(210.739 -45.1797 0)
(210.086 -45.6874 0)
(209.417 -46.1698 0)
(208.756 -46.6538 0)
(208.076 -47.115 0)
(207.417 -47.5772 0)
(206.754 -48.0166 0)
(206.096 -48.4475 0)
(205.443 -48.8766 0)
(204.776 -49.2922 0)
(204.124 -49.716 0)
(203.456 -50.1182 0)
(202.802 -50.5197 0)
(202.154 -50.9022 0)
(201.529 -51.279 0)
(200.925 -51.6406 0)
(200.349 -52.0025 0)
(199.783 -52.3535 0)
(199.23 -52.7053 0)
(198.681 -53.0613 0)
(198.119 -53.401 0)
(197.582 -53.77 0)
(197.015 -54.0943 0)
(196.496 -54.4598 0)
(195.952 -54.7745 0)
(195.449 -55.1099 0)
(194.941 -55.4095 0)
(194.461 -55.7134 0)
(193.986 -55.9925 0)
(193.53 -56.27 0)
(193.084 -56.5335 0)
(192.654 -56.7872 0)
(192.257 -57.0445 0)
(191.887 -57.2899 0)
(191.576 -57.5642 0)
(191.247 -57.8034 0)
(190.91 -58.0519 0)
(190.49 -58.2487 0)
(190.008 -58.4148 0)
(189.493 -58.5641 0)
(188.979 -58.7148 0)
(188.487 -58.8622 0)
(188.034 -59.0162 0)
(187.629 -59.1718 0)
(187.277 -59.3369 0)
(186.974 -59.5031 0)
(186.72 -59.6804 0)
(186.501 -59.8539 0)
(186.323 -60.05 0)
(186.142 -60.2364 0)
(186.047 -60.5222 0)
(171.667 53.3101 0)
(175.457 6.13048 0)
(188.644 -2.00783 0)
(194.425 -4.91575 0)
(195.74 -6.397 0)
(196.752 -6.9235 0)
(197.831 -6.8745 0)
(198.996 -6.32361 0)
(200.447 -5.50725 0)
(202.477 -4.84744 0)
(205.132 -4.7224 0)
(208.472 -5.33456 0)
(211.736 -6.35489 0)
(213.903 -6.89955 0)
(215.052 -6.92012 0)
(215.412 -6.79548 0)
(215.441 -6.83342 0)
(215.497 -6.87778 0)
(215.668 -7.06612 0)
(215.955 -7.39952 0)
(216.28 -7.76966 0)
(216.596 -8.07692 0)
(216.928 -8.36603 0)
(217.324 -8.73461 0)
(217.771 -9.23534 0)
(218.236 -9.78836 0)
(218.7 -10.3373 0)
(219.186 -10.894 0)
(219.684 -11.5039 0)
(220.196 -12.1714 0)
(220.698 -12.8856 0)
(221.203 -13.6301 0)
(221.691 -14.409 0)
(222.169 -15.2201 0)
(222.622 -16.066 0)
(223.054 -16.9484 0)
(223.448 -17.8684 0)
(223.806 -18.8146 0)
(224.117 -19.7787 0)
(224.381 -20.7654 0)
(224.586 -21.7837 0)
(224.725 -22.8266 0)
(224.794 -23.8717 0)
(224.801 -24.9021 0)
(224.748 -25.9132 0)
(224.639 -26.911 0)
(224.479 -27.9039 0)
(224.265 -28.8855 0)
(223.99 -29.8474 0)
(223.664 -30.7957 0)
(223.29 -31.7259 0)
(222.874 -32.6316 0)
(222.42 -33.5095 0)
(221.933 -34.3597 0)
(221.409 -35.1837 0)
(220.837 -35.9788 0)
(220.239 -36.7473 0)
(219.644 -37.4881 0)
(219.112 -38.2242 0)
(218.56 -38.9409 0)
(217.921 -39.6131 0)
(217.314 -40.2875 0)
(216.701 -40.9437 0)
(216.076 -41.5821 0)
(215.409 -42.1835 0)
(214.762 -42.7769 0)
(214.115 -43.357 0)
(213.46 -43.9285 0)
(212.793 -44.4849 0)
(212.132 -45.0295 0)
(211.478 -45.5536 0)
(210.851 -46.0712 0)
(210.21 -46.5662 0)
(209.574 -47.0588 0)
(208.924 -47.53 0)
(208.294 -47.997 0)
(207.66 -48.4437 0)
(207.029 -48.882 0)
(206.404 -49.3209 0)
(205.766 -49.7471 0)
(205.144 -50.1823 0)
(204.505 -50.5989 0)
(203.877 -51.017 0)
(203.249 -51.4192 0)
(202.638 -51.8146 0)
(202.047 -52.1918 0)
(201.49 -52.5637 0)
(200.951 -52.9148 0)
(200.438 -53.264 0)
(199.932 -53.6066 0)
(199.423 -53.9377 0)
(198.934 -54.2922 0)
(198.41 -54.603 0)
(197.936 -54.9647 0)
(197.419 -55.2643 0)
(196.947 -55.5999 0)
(196.46 -55.8937 0)
(196 -56.1927 0)
(195.548 -56.4726 0)
(195.111 -56.7429 0)
(194.693 -57.0082 0)
(194.284 -57.2548 0)
(193.916 -57.5157 0)
(193.568 -57.7553 0)
(193.29 -58.0327 0)
(192.98 -58.2575 0)
(192.678 -58.5051 0)
(192.29 -58.6811 0)
(191.852 -58.8417 0)
(191.385 -58.9868 0)
(190.915 -59.1283 0)
(190.461 -59.265 0)
(190.04 -59.4072 0)
(189.664 -59.5507 0)
(189.337 -59.7041 0)
(189.06 -59.8598 0)
(188.832 -60.0249 0)
(188.649 -60.1918 0)
(188.523 -60.3781 0)
(188.487 -60.6011 0)
(188.365 -60.7726 0)
(171.712 53.3465 0)
(175.483 6.11409 0)
(188.681 -2.00779 0)
(194.444 -4.90789 0)
(195.755 -6.38895 0)
(196.762 -6.91469 0)
(197.841 -6.86589 0)
(199.007 -6.31416 0)
(200.459 -5.49164 0)
(202.485 -4.81659 0)
(205.144 -4.67463 0)
(208.474 -5.27307 0)
(211.75 -6.30027 0)
(213.921 -6.86776 0)
(215.067 -6.9088 0)
(215.437 -6.79467 0)
(215.465 -6.8379 0)
(215.519 -6.87647 0)
(215.685 -7.05942 0)
(215.969 -7.38613 0)
(216.299 -7.75582 0)
(216.619 -8.06368 0)
(216.954 -8.35068 0)
(217.353 -8.71383 0)
(217.802 -9.2095 0)
(218.272 -9.76015 0)
(218.741 -10.3073 0)
(219.233 -10.861 0)
(219.738 -11.4672 0)
(220.258 -12.1314 0)
(220.77 -12.8428 0)
(221.286 -13.5848 0)
(221.786 -14.3612 0)
(222.275 -15.1701 0)
(222.741 -16.0142 0)
(223.188 -16.8956 0)
(223.6 -17.8154 0)
(223.976 -18.7625 0)
(224.305 -19.7283 0)
(224.589 -20.7176 0)
(224.814 -21.7399 0)
(224.973 -22.7881 0)
(225.065 -23.8398 0)
(225.094 -24.8776 0)
(225.063 -25.8971 0)
(224.973 -26.9039 0)
(224.833 -27.9012 0)
(224.639 -28.8969 0)
(224.385 -29.8713 0)
(224.077 -30.8308 0)
(223.721 -31.7734 0)
(223.322 -32.6926 0)
(222.886 -33.5839 0)
(222.416 -34.4471 0)
(221.909 -35.2839 0)
(221.354 -36.0924 0)
(220.772 -36.8744 0)
(220.19 -37.628 0)
(219.671 -38.376 0)
(219.135 -39.1046 0)
(218.513 -39.7897 0)
(217.922 -40.4773 0)
(217.329 -41.1481 0)
(216.725 -41.8011 0)
(216.081 -42.4178 0)
(215.456 -43.0264 0)
(214.83 -43.6232 0)
(214.193 -44.2097 0)
(213.545 -44.7812 0)
(212.905 -45.3393 0)
(212.276 -45.8812 0)
(211.668 -46.4178 0)
(211.047 -46.9384 0)
(210.426 -47.454 0)
(209.8 -47.9515 0)
(209.188 -48.4384 0)
(208.577 -48.9068 0)
(207.966 -49.3616 0)
(207.366 -49.814 0)
(206.757 -50.2478 0)
(206.169 -50.6851 0)
(205.569 -51.1021 0)
(204.979 -51.5196 0)
(204.384 -51.9247 0)
(203.8 -52.3256 0)
(203.23 -52.7125 0)
(202.692 -53.0959 0)
(202.171 -53.457 0)
(201.687 -53.8196 0)
(201.212 -54.1668 0)
(200.749 -54.5121 0)
(200.298 -54.865 0)
(199.82 -55.1841 0)
(199.385 -55.5464 0)
(198.897 -55.8397 0)
(198.461 -56.1801 0)
(197.992 -56.4646 0)
(197.555 -56.7628 0)
(197.122 -57.0377 0)
(196.705 -57.3006 0)
(196.311 -57.5619 0)
(195.927 -57.7988 0)
(195.589 -58.057 0)
(195.262 -58.2842 0)
(195.006 -58.5511 0)
(194.71 -58.7589 0)
(194.421 -58.9886 0)
(194.057 -59.1312 0)
(193.659 -59.2939 0)
(193.23 -59.4098 0)
(192.797 -59.5394 0)
(192.374 -59.6487 0)
(191.981 -59.7717 0)
(191.628 -59.8913 0)
(191.323 -60.0251 0)
(191.064 -60.1595 0)
(190.852 -60.3067 0)
(190.682 -60.4526 0)
(190.575 -60.6254 0)
(190.548 -60.8158 0)
(190.497 -60.9818 0)
(171.774 53.3853 0)
(175.51 6.09721 0)
(188.718 -2.00791 0)
(194.464 -4.90059 0)
(195.767 -6.37928 0)
(196.771 -6.90568 0)
(197.851 -6.85722 0)
(199.018 -6.30456 0)
(200.468 -5.47589 0)
(202.488 -4.78533 0)
(205.147 -4.62513 0)
(208.467 -5.20962 0)
(211.761 -6.24334 0)
(213.939 -6.83554 0)
(215.084 -6.89814 0)
(215.462 -6.7946 0)
(215.491 -6.84033 0)
(215.541 -6.8768 0)
(215.701 -7.05431 0)
(215.986 -7.37476 0)
(216.321 -7.74435 0)
(216.646 -8.05306 0)
(216.983 -8.33813 0)
(217.384 -8.69609 0)
(217.837 -9.18714 0)
(218.312 -9.73589 0)
(218.787 -10.2818 0)
(219.286 -10.8332 0)
(219.799 -11.4364 0)
(220.329 -12.0982 0)
(220.852 -12.8079 0)
(221.379 -13.5486 0)
(221.89 -14.3239 0)
(222.392 -15.1322 0)
(222.873 -15.9763 0)
(223.336 -16.8583 0)
(223.765 -17.78 0)
(224.159 -18.73 0)
(224.507 -19.6997 0)
(224.81 -20.6941 0)
(225.054 -21.7227 0)
(225.234 -22.7784 0)
(225.347 -23.8387 0)
(225.398 -24.8862 0)
(225.387 -25.9163 0)
(225.317 -26.9334 0)
(225.194 -27.9407 0)
(225.018 -28.9474 0)
(224.783 -29.9378 0)
(224.491 -30.91 0)
(224.151 -31.8656 0)
(223.768 -32.7986 0)
(223.348 -33.7036 0)
(222.893 -34.5802 0)
(222.402 -35.4302 0)
(221.865 -36.2522 0)
(221.297 -37.0483 0)
(220.727 -37.8156 0)
(220.221 -38.5769 0)
(219.701 -39.3181 0)
(219.094 -40.0163 0)
(218.518 -40.7162 0)
(217.944 -41.3998 0)
(217.362 -42.0654 0)
(216.741 -42.6961 0)
(216.138 -43.319 0)
(215.534 -43.931 0)
(214.916 -44.5306 0)
(214.289 -45.1139 0)
(213.67 -45.681 0)
(213.068 -46.2341 0)
(212.481 -46.7791 0)
(211.887 -47.3109 0)
(211.294 -47.8319 0)
(210.707 -48.3389 0)
(210.128 -48.8315 0)
(209.553 -49.3128 0)
(208.971 -49.779 0)
(208.403 -50.2432 0)
(207.825 -50.6866 0)
(207.267 -51.1305 0)
(206.7 -51.5555 0)
(206.14 -51.9808 0)
(205.574 -52.3955 0)
(205.013 -52.8051 0)
(204.462 -53.2014 0)
(203.939 -53.5906 0)
(203.434 -53.9555 0)
(202.972 -54.3202 0)
(202.524 -54.6617 0)
(202.106 -55.007 0)
(201.69 -55.3427 0)
(201.264 -55.6602 0)
(200.863 -56.0035 0)
(200.41 -56.2838 0)
(200.009 -56.6169 0)
(199.559 -56.8813 0)
(199.147 -57.177 0)
(198.725 -57.4368 0)
(198.324 -57.6944 0)
(197.942 -57.9447 0)
(197.576 -58.1755 0)
(197.255 -58.4263 0)
(196.941 -58.6414 0)
(196.692 -58.8949 0)
(196.402 -59.0927 0)
(196.103 -59.2866 0)
(195.755 -59.4402 0)
(195.373 -59.5785 0)