/*--------------------------------*- C++ -*----------------------------------*\
| =========                 |                                                 |
| \\      /  F ield         | OpenFOAM: The Open Source CFD Toolbox           |
|  \\    /   O peration     | Version:  2406                                  |
|   \\  /    A nd           | Website:  www.openfoam.com                      |
|    \\/     M anipulation  |                                                 |
\*---------------------------------------------------------------------------*/
FoamFile
{
    version     2.0;
    format      ascii;
    arch        "LSB;label=32;scalar=64";
    class       volScalarField;
    location    "0.008";
    object      p;
}
// * * * * * * * * * * * * * * * * * * * * * * * * * * * * * * * * * * * * * //

dimensions      [1 -1 -2 0 0 0 0];

internalField   nonuniform List<scalar> 
78650
(
2790
2790
2790
2790
2790
2790
2790
2790
2790
2790
2790
2790
2790
2790
2790
2790
2790
2790
2790
2790
2790.05
2791.68
2807.13
2854.19
2907.94
2935.56
2939.08
2937.49
2929.68
2920.05
2911.42
2903.56
2896.02
2888.5
2881.32
2874.85
2868.92
2863.43
2858.29
2853.4
2848.62
2843.9
2839.27
2834.74
2830.35
2826.06
2821.9
2817.91
2814.11
2810.53
2807.08
2803.68
2800.2
2796.58
2792.81
2788.91
2784.85
2780.51
2775.87
2770.96
2765.77
2760.19
2754.05
2747.21
2739.6
2731.24
2722.18
2712.39
2701.79
2690.28
2677.71
2663.98
2649
2632.69
2615.01
2595.89
2575.34
2553.38
2529.95
2504.88
2478.18
2449.97
2420.34
2389.51
2357.3
2324.04
2289.4
2253.84
2217.25
2179.7
2141.76
2103.6
2065.39
2027.75
1990.59
1955.02
1919.82
1886.12
1853.05
1821.31
1791.52
1763.12
1737.16
1712.37
1689.47
1667.1
1646.22
1626.6
1607.94
1589.72
1572.65
1556.2
1541.16
1526.84
1513.62
1501.29
1489.46
1478.67
1469.01
1460.95
1445.13
2790
2790
2790
2790
2790
2790
2790
2790
2790
2790
2790
2790
2790
2790
2790
2790
2790
2790
2790
2790
2790.02
2790.91
2801.72
2842.93
2899.99
2934.54
2940.88
2940.82
2934.83
2925.31
2916.16
2908.14
2900.67
2893.32
2886.34
2880.12
2874.42
2869.1
2864.09
2859.29
2854.6
2849.98
2845.47
2841.13
2836.95
2832.94
2829.09
2825.43
2821.99
2818.77
2815.72
2812.73
2809.7
2806.54
2803.26
2799.88
2796.37
2792.66
2788.69
2784.48
2780.04
2775.31
2770.12
2764.3
2757.78
2750.58
2742.73
2734.23
2725.03
2715.01
2704.04
2692.01
2678.81
2664.36
2648.61
2631.49
2612.99
2593.06
2571.61
2548.55
2523.94
2497.84
2470.22
2441.13
2410.47
2378.54
2345.1
2310.76
2275.15
2238.75
2201.68
2163.86
2125.97
2088
2050.33
2013.16
1976.17
1939.9
1905.18
1870.69
1838.21
1806.29
1776.43
1748.09
1720.91
1696.06
1672.69
1651.48
1631.53
1612.42
1595.01
1578.13
1562.89
1548.32
1534.68
1521.58
1509.1
1497.33
1486.36
1476.3
1458.79
2790
2790
2790
2790
2790
2790
2790
2790
2790
2790
2790
2790
2790
2790
2790
2790
2790
2790
2790
2790
2790.01
2790.47
2797.58
2831.94
2890.35
2931.82
2942.39
2944.23
2939.67
2930.43
2920.88
2912.7
2905.32
2898.19
2891.47
2885.5
2880
2874.83
2869.92
2865.21
2860.6
2856.08
2851.71
2847.55
2843.62
2839.89
2836.36
2833.04
2829.95
2827.1
2824.44
2821.86
2819.26
2816.55
2813.74
2810.86
2807.9
2804.8
2801.48
2797.96
2794.27
2790.35
2786.05
2781.2
2775.73
2769.62
2762.93
2755.65
2747.76
2739.15
2729.67
2719.23
2707.7
2695
2681.09
2665.88
2649.34
2631.4
2612.02
2591.13
2568.8
2544.94
2519.49
2492.42
2463.76
2433.69
2402.11
2369.52
2335.55
2300.69
2264.68
2227.88
2190.47
2152.6
2114.99
2077.02
2040.3
2003.3
1968.05
1931.94
1897.63
1863.42
1831.09
1800.38
1769.79
1741.31
1713.49
1687.92
1664.02
1641.06
1619.75
1599.48
1580.93
1563.83
1548.3
1533.97
1520.39
1507.59
1495.7
1485.51
1464.84
2790
2790
2790
2790
2790
2790
2790
2790
2790
2790
2790
2790
2790
2790
2790
2790
2790
2790
2790
2790
2790
2790.22
2794.52
2821.43
2878.56
2927.45
2943.69
2947.6
2944.22
2935.62
2925.79
2917.48
2910.22
2903.35
2896.89
2891.15
2885.8
2880.72
2875.88
2871.21
2866.67
2862.26
2858.04
2854.08
2850.39
2846.96
2843.74
2840.76
2838.01
2835.51
2833.21
2831.02
2828.82
2826.55
2824.18
2821.77
2819.34
2816.82
2814.14
2811.29
2808.3
2805.17
2801.74
2797.86
2793.41
2788.39
2782.85
2776.79
2770.21
2763
2755.04
2746.22
2736.4
2725.52
2713.51
2700.27
2685.75
2669.92
2652.71
2634.06
2613.96
2592.26
2568.89
2543.87
2517.27
2489.17
2459.5
2428.57
2396.06
2362.5
2327.45
2291.49
2254.55
2216.95
2178.93
2140.45
2102.32
2064.56
2027.17
1989.98
1952.98
1917.96
1884.11
1852.82
1822.31
1793.05
1764.56
1737.17
1711.8
1687.14
1664.23
1641.5
1619.99
1599.46
1580.78
1563.69
1547.97
1532.97
1518.99
1506.15
1481.23
2790
2790
2790
2790
2790
2790
2790
2790
2790
2790
2790
2790
2790
2790
2790
2790
2790
2790
2790
2790
2790
2790.09
2792.47
2812.08
2865.32
2920.81
2944.21
2950.76
2948.24
2940.72
2930.82
2922.42
2915.27
2908.68
2902.5
2896.96
2891.73
2886.71
2881.91
2877.29
2872.81
2868.52
2864.47
2860.73
2857.31
2854.18
2851.29
2848.63
2846.23
2844.06
2842.11
2840.28
2838.49
2836.63
2834.7
2832.75
2830.82
2828.86
2826.81
2824.62
2822.32
2819.93
2817.34
2814.38
2810.93
2806.95
2802.49
2797.59
2792.24
2786.35
2779.81
2772.49
2764.28
2755.1
2744.86
2733.48
2720.91
2707.12
2692.03
2675.57
2657.68
2638.23
2617.18
2594.59
2570.49
2544.81
2517.48
2488.65
2458.15
2426.35
2392.88
2358.33
2322.32
2285.39
2247.56
2209.2
2170.46
2132.06
2093.13
2054.78
2015.96
1978.63
1941.59
1906.06
1872.45
1839.68
1808.7
1778.26
1750.69
1724.32
1699.53
1675.64
1652.79
1630.77
1610.41
1591.38
1574.21
1558.29
1544.02
1531.42
1508.44
2790
2790
2790
2790
2790
2790
2790
2790
2790
2790
2790
2790
2790
2790
2790
2790
2790
2790
2790
2790
2790
2790.03
2791.21
2804.29
2850.75
2911.39
2943.9
2953.65
2951.76
2945.76
2936.18
2927.71
2920.67
2914.37
2908.45
2903.05
2897.86
2892.85
2888.06
2883.47
2879.09
2874.94
2871.09
2867.58
2864.43
2861.6
2859.03
2856.69
2854.6
2852.75
2851.12
2849.63
2848.2
2846.75
2845.23
2843.72
2842.26
2840.85
2839.4
2837.85
2836.23
2834.57
2832.78
2830.71
2828.23
2825.28
2821.91
2818.15
2814.01
2809.43
2804.3
2798.51
2791.92
2784.47
2776.05
2766.59
2756.02
2744.32
2731.39
2717.15
2701.53
2684.42
2665.8
2645.69
2623.99
2600.57
2575.42
2548.62
2520.08
2490.09
2458.42
2425.57
2391.16
2355.82
2319.3
2282.06
2244.21
2205.58
2167.05
2128.05
2089.46
2050.46
2012.11
1973.85
1938.01
1902.53
1868.97
1835.44
1803.81
1773.55
1744.88
1717.62
1691.25
1666.22
1642.66
1620.24
1599.65
1580.4
1563.02
1547.78
1518.93
2790
2790
2790
2790
2790
2790
2790
2790
2790
2790
2790
2790
2790
2790
2790
2790
2790
2790
2790
2790
2790
2790.01
2790.53
2798.41
2836.03
2899.04
2941.55
2955.74
2955.17
2950.88
2941.78
2933.26
2926.31
2920.31
2914.6
2909.26
2904.05
2899.02
2894.24
2889.72
2885.46
2881.49
2877.86
2874.61
2871.74
2869.21
2866.94
2864.91
2863.12
2861.56
2860.23
2859.07
2858
2856.93
2855.83
2854.74
2853.74
2852.86
2852.01
2851.09
2850.13
2849.16
2848.13
2846.92
2845.38
2843.42
2841.07
2838.39
2835.39
2832.03
2828.23
2823.85
2818.78
2812.94
2806.22
2798.55
2789.87
2780.14
2769.27
2757.2
2743.86
2729.14
2713.01
2695.39
2676.18
2655.27
2632.7
2608.48
2582.55
2555.08
2525.88
2495.21
2462.74
2429
2393.63
2357.29
2319.83
2281.65
2242.81
2203.73
2164.85
2125.06
2085.86
2046.04
2008.2
1971.44
1936.36
1901.59
1868.1
1835.61
1804.65
1775.53
1747.45
1720.36
1694.51
1669.56
1646.62
1625.32
1605.92
1588.89
1556.47
2790
2790
2790
2790
2790
2790
2790
2790
2790
2790
2790
2790
2790
2790
2790
2790
2790
2790
2790
2790
2790
2790
2790.2
2794.42
2822.24
2883.61
2936
2957.01
2958.84
2955.69
2947.41
2939.23
2932.39
2926.57
2920.92
2915.52
2910.27
2905.25
2900.52
2896.12
2892.02
2888.26
2884.87
2881.88
2879.29
2877.04
2875.05
2873.3
2871.77
2870.48
2869.42
2868.56
2867.81
2867.1
2866.39
2865.72
2865.16
2864.78
2864.51
2864.22
2863.9
2863.6
2863.31
2862.9
2862.26
2861.29
2859.95
2858.33
2856.46
2854.29
2851.78
2848.82
2845.26
2841.03
2836.03
2830.17
2823.41
2815.69
2806.91
2797.05
2786.01
2773.68
2759.98
2744.81
2728.09
2709.78
2689.9
2668.33
2645
2620
2593.19
2564.73
2534.46
2502.76
2469.34
2434.75
2398.64
2361.52
2323.38
2284.56
2245.14
2205.38
2164.91
2124.49
2084.21
2045.03
2006.94
1969.77
1932.92
1897.66
1863.37
1831.77
1801.03
1771.52
1743.21
1715.2
1689.38
1665.17
1643.12
1623.62
1587.19
2790
2790
2790
2790
2790
2790
2790
2790
2790
2790
2790
2790
2790
2790
2790
2790
2790
2790
2790
2790
2790
2790
2790.07
2792.05
2810.56
2865.88
2927.11
2956.93
2962.13
2960.08
2953.35
2945.75
2938.73
2932.86
2927.18
2921.73
2916.48
2911.51
2906.89
2902.64
2898.73
2895.19
2892.06
2889.33
2887
2885
2883.27
2881.78
2880.49
2879.45
2878.64
2878.05
2877.62
2877.26
2876.95
2876.69
2876.58
2876.67
2876.96
2877.28
2877.6
2877.95
2878.36
2878.72
2878.91
2878.88
2878.51
2877.91
2877.1
2876.06
2874.74
2873.08
2870.93
2868.21
2864.8
2860.63
2855.65
2849.8
2843.01
2835.25
2826.41
2816.39
2805.11
2792.48
2778.42
2762.92
2745.89
2727.16
2706.65
2684.42
2660.36
2634.55
2606.86
2577.49
2546.21
2513.43
2478.91
2443.26
2406.27
2368.32
2329.34
2289.73
2249.83
2209.34
2168.12
2127.08
2086.56
2047.52
2008.55
1971.05
1933.87
1898.64
1865.21
1833.38
1802.23
1771.44
1742.75
1715.02
1689.3
1666.28
1622.58
2790
2790
2790
2790
2790
2790
2790
2790
2790
2790
2790
2790
2790
2790
2790
2790
2790
2790
2790
2790
2790
2790
2790.02
2790.82
2801.72
2847.3
2913.96
2955.18
2964.4
2964.61
2959.74
2952.37
2944.99
2939.02
2933.38
2927.93
2922.73
2917.87
2913.4
2909.32
2905.63
2902.34
2899.46
2896.98
2894.9
2893.12
2891.61
2890.33
2889.26
2888.42
2887.83
2887.49
2887.35
2887.34
2887.41
2887.55
2887.86
2888.44
2889.24
2890.16
2891.1
2892.08
2893.16
2894.28
2895.28
2896.09
2896.68
2897.06
2897.26
2897.34
2897.18
2896.79
2896.03
2894.8
2892.96
2890.48
2887.28
2883.3
2878.5
2872.82
2866.18
2858.46
2849.61
2839.5
2828.05
2815.2
2800.87
2784.85
2767.14
2747.74
2726.56
2703.66
2678.93
2652.45
2624.02
2594
2562.19
2528.99
2494.08
2457.79
2420.07
2381.55
2342.26
2302.1
2261.02
2219.01
2177.41
2136.16
2095.79
2055.91
2016.43
1977.4
1940.4
1904.48
1871.5
1837.67
1806.72
1776.44
1749.08
1725.28
1680.14
2790
2790
2790
2790
2790
2790
2790
2790
2790
2790
2790
2790
2790
2790
2790
2790
2790
2790
2790
2790
2790
2790
2790.01
2790.28
2795.89
2829.64
2896.89
2949.85
2965.79
2969.44
2965.66
2958.54
2951.15
2945.2
2939.63
2934.21
2929.07
2924.31
2920.01
2916.15
2912.68
2909.63
2906.99
2904.73
2902.83
2901.24
2899.92
2898.83
2897.94
2897.3
2896.93
2896.82
2896.97
2897.31
2897.75
2898.31
2899.05
2900.07
2901.4
2902.89
2904.43
2906.02
2907.73
2909.54
2911.33
2912.98
2914.45
2915.75
2916.92
2917.99
2918.95
2919.73
2920.21
2920.36
2919.99
2919.09
2917.56
2915.31
2912.36
2908.64
2904.06
2898.55
2892.05
2884.41
2875.55
2865.41
2853.88
2840.85
2826.27
2810.07
2792.11
2772.42
2750.83
2727.32
2701.79
2674.49
2645.2
2614.21
2581.23
2546.68
2510.49
2473.17
2434.59
2394.99
2354.27
2312.64
2270.45
2228.19
2186.57
2144.82
2104.23
2062.97
2023.5
1984.6
1948.36
1911.43
1876.99
1842.13
1809.16
1778.97
1723.33
2790
2790
2790
2790
2790
2790
2790
2790
2790
2790
2790
2790
2790
2790
2790
2790
2790
2790
2790
2790
2790
2790
2790
2790.08
2792.57
2814.74
2876.63
2940.31
2966.53
2973.53
2970.95
2964.73
2957.42
2951.45
2945.89
2940.49
2935.44
2930.87
2926.81
2923.2
2919.96
2917.11
2914.64
2912.53
2910.78
2909.32
2908.14
2907.2
2906.5
2906.05
2905.88
2906
2906.45
2907.1
2907.92
2908.89
2910.05
2911.51
2913.33
2915.37
2917.48
2919.65
2921.95
2924.42
2926.94
2929.39
2931.7
2933.87
2935.97
2938.02
2940.03
2941.94
2943.66
2945.09
2946.13
2946.72
2946.85
2946.33
2945.22
2943.43
2940.86
2937.52
2933.28
2928.02
2921.67
2914.13
2905.32
2895.14
2883.52
2870.3
2855.36
2838.73
2820.27
2799.95
2777.73
2753.69
2727.6
2699.65
2669.71
2638.07
2604.52
2569.33
2532.48
2494.51
2455.22
2414.69
2372.94
2330.52
2287.72
2244.97
2202.06
2159.49
2117.13
2075.44
2034.92
1996.72
1960.99
1924.69
1891.49
1861.79
1805.45
2790
2790
2790
2790
2790
2790
2790
2790
2790
2790
2790
2790
2790
2790
2790
2790
2790
2790
2790
2790
2790
2790
2790
2790.02
2790.96
2803.73
2855.17
2926.33
2965.45
2976.53
2975.65
2970.78
2963.76
2957.63
2952.06
2946.77
2941.92
2937.6
2933.79
2930.36
2927.26
2924.53
2922.15
2920.15
2918.51
2917.18
2916.14
2915.36
2914.84
2914.6
2914.62
2915.02
2915.71
2916.69
2917.89
2919.27
2920.85
2922.74
2925.01
2927.57
2930.25
2932.97
2935.82
2938.89
2942.09
2945.3
2948.41
2951.41
2954.36
2957.31
2960.28
2963.24
2966.1
2968.76
2971.13
2973.1
2974.64
2975.71
2976.25
2976.32
2975.62
2974.34
2972.27
2969.28
2965.39
2960.43
2954.34
2947.05
2938.45
2928.37
2916.7
2903.44
2888.45
2871.68
2853.03
2832.44
2809.73
2785.12
2758.48
2729.98
2699.33
2666.8
2632.46
2596.78
2559.49
2520.64
2480.08
2438.42
2395.88
2352.75
2309.32
2265.73
2222.07
2178.57
2134.83
2092.68
2049.58
2009.4
1970.23
1933.88
1867.08
2790
2790
2790
2790
2790
2790
2790
2790
2790
2790
2790
2790
2790
2790
2790
2790
2790
2790
2790
2790
2790
2790
2790
2790.01
2790.31
2796.71
2834.91
2908.06
2961.04
2978.37
2980.47
2976.58
2969.91
2963.64
2958.2
2953.22
2948.66
2944.54
2940.85
2937.46
2934.4
2931.74
2929.44
2927.55
2926
2924.8
2923.9
2923.27
2922.94
2922.89
2923.19
2923.79
2924.77
2926.07
2927.64
2929.42
2931.41
2933.7
2936.4
2939.44
2942.63
2945.88
2949.25
2952.86
2956.69
2960.6
2964.46
2968.25
2972
2975.8
2979.67
2983.6
2987.53
2991.35
2994.95
2998.27
3001.26
3003.85
3005.99
3007.67
3008.84
3009.44
3009.53
3008.68
3007.16
3004.67
3001.11
2996.53
2990.74
2983.61
2975.06
2965.05
2953.41
2940.1
2924.99
2907.96
2888.94
2868.07
2845.11
2820.15
2792.99
2763.85
2732.66
2699.68
2664.77
2628.1
2589.5
2549.43
2507.93
2465.52
2422.15
2378.23
2334.09
2289.81
2245.72
2201.14
2157.88
2116.78
2076.63
2041.23
1977.23
2790
2790
2790
2790
2790
2790
2790
2790
2790
2790
2790
2790
2790
2790
2790
2790
2790
2790
2790
2790
2790
2790
2790
2790
2790.09
2792.87
2818.11
2886.6
2952.21
2979.06
2984.6
2981.74
2975.71
2969.62
2964.47
2959.81
2955.4
2951.27
2947.55
2944.17
2941.19
2938.63
2936.45
2934.67
2933.23
2932.15
2931.37
2930.9
2930.75
2930.95
2931.47
2932.34
2933.59
2935.21
2937.14
2939.3
2941.69
2944.36
2947.44
2950.92
2954.6
2958.34
2962.19
2966.3
2970.7
2975.25
2979.82
2984.34
2988.85
2993.42
2998.12
3002.95
3007.85
3012.72
3017.47
3022.01
3026.29
3030.26
3033.89
3037.16
3040.01
3042.36
3044.23
3045.5
3046.12
3046.1
3044.98
3043.1
3040.12
3035.97
3030.61
3023.87
3015.63
3005.84
2994.33
2981
2965.79
2948.71
2929.5
2908.29
2884.91
2859.46
2831.7
2801.85
2769.94
2736.2
2700.44
2662.81
2623.28
2582.43
2539.93
2496.33
2451.47
2406.19
2360.31
2313.97
2267.06
2220.88
2174.14
2131.6
2058.84
2790
2790
2790
2790
2790
2790
2790
2790
2790
2790
2790
2790
2790
2790
2790
2790
2790
2790
2790
2790
2790
2790
2790
2790
2790.02
2791.09
2805.88
2864.12
2939.15
2978.44
2987.57
2986.06
2981.55
2975.87
2970.88
2966.24
2961.71
2957.51
2953.86
2950.62
2947.77
2945.33
2943.24
2941.52
2940.15
2939.16
2938.5
2938.22
2938.26
2938.72
2939.49
2940.64
2942.18
2944.1
2946.37
2948.89
2951.64
2954.67
2958.1
2961.94
2966.06
2970.26
2974.57
2979.13
2984.03
2989.17
2994.38
2999.59
3004.8
3010.09
3015.55
3021.2
3026.99
3032.84
3038.65
3044.33
3049.83
3055.1
3060.11
3064.83
3069.24
3073.31
3076.97
3080.17
3082.78
3084.79
3086.08
3086.62
3086.31
3084.9
3082.49
3078.8
3073.76
3067.34
3059.38
3049.81
3038.52
3025.43
3010.34
2993.33
2974.21
2952.99
2929.45
2903.79
2876
2846.29
2814.47
2780.49
2744.34
2706.39
2666.66
2625.65
2583.02
2539.53
2494.92
2449.9
2404.04
2357.65
2310.73
2267.74
2193.53
2790
2790
2790
2790
2790
2790
2790
2790
2790
2790
2790
2790
2790
2790
2790
2790
2790
2790
2790
2790
2790
2790
2790
2790
2790.01
2790.37
2798.14
2843.11
2922.4
2975.51
2989.07
2990.47
2987.69
2982.03
2976.79
2971.94
2967.37
2963.35
2959.93
2956.87
2954.15
2951.76
2949.7
2948
2946.7
2945.82
2945.32
2945.21
2945.55
2946.23
2947.27
2948.69
2950.5
2952.7
2955.27
2958.12
2961.2
2964.55
2968.28
2972.45
2976.95
2981.58
2986.31
2991.29
2996.65
3002.31
3008.12
3013.96
3019.82
3025.79
3031.95
3038.33
3044.93
3051.66
3058.42
3065.13
3071.73
3078.17
3084.44
3090.49
3096.31
3101.88
3107.16
3112.09
3116.61
3120.64
3124.09
3126.88
3128.97
3130.24
3130.7
3130.03
3128.22
3125.2
3120.73
3114.87
3107.38
3098.17
3087.1
3074.17
3059.15
3042.06
3022.75
3001.28
2977.45
2951.43
2923.09
2892.46
2859.51
2824.32
2787.06
2747.97
2706.92
2664.51
2620.23
2575.21
2528.37
2481.43
2432.58
2384.81
2309.53
2790
2790
2790
2790
2790
2790
2790
2790
2790
2790
2790
2790
2790
2790
2790
2790
2790
2790
2790
2790
2790
2790
2790
2790
2790
2790.12
2793.83
2825.64
2903.11
2969.13
2989.78
2995.19
2993.26
2987.63
2981.92
2977.02
2972.78
2969.14
2965.95
2962.99
2960.28
2957.85
2955.77
2954.09
2952.92
2952.22
2951.94
2952.07
2952.66
2953.57
2954.86
2956.51
2958.55
2960.99
2963.8
2966.93
2970.31
2973.95
2977.95
2982.4
2987.25
2992.27
2997.4
3002.77
3008.53
3014.66
3021
3027.41
3033.87
3040.45
3047.23
3054.29
3061.6
3069.12
3076.74
3084.39
3091.98
3099.5
3106.9
3114.17
3121.29
3128.24
3135
3141.51
3147.73
3153.58
3159.01
3163.93
3168.27
3171.93
3174.82
3176.86
3177.96
3178.17
3176.91
3174.6
3170.74
3165.29
3158.25
3149.46
3138.76
3126.15
3111.46
3094.62
3075.4
3053.98
3030.19
3004.21
2975.88
2945.15
2912.19
2876.97
2839.76
2800.56
2759.26
2716.54
2671.56
2626.39
2577.7
2529.44
2456.77
2790
2790
2790
2790
2790
2790
2790
2790
2790
2790
2790
2790
2790
2790
2790
2790
2790
2790
2790
2790
2790
2790
2790
2790
2790
2790.04
2791.7
2812.64
2883.15
2959.72
2990.22
2999.17
2997.9
2992.43
2986.53
2981.95
2978.21
2974.87
2971.75
2968.73
2965.91
2963.42
2961.36
2959.82
2958.88
2958.44
2958.39
2958.77
2959.56
2960.66
2962.14
2963.96
2966.16
2968.79
2971.81
2975.18
2978.82
2982.73
2986.98
2991.69
2996.83
3002.22
3007.73
3013.46
3019.59
3026.13
3032.95
3039.89
3046.89
3054.02
3061.38
3069.03
3076.99
3085.2
3093.59
3102.07
3110.56
3119.02
3127.44
3135.79
3144.06
3152.24
3160.31
3168.23
3175.97
3183.46
3190.65
3197.47
3203.85
3209.74
3215.04
3219.66
3223.46
3226.42
3228.37
3229.32
3229.21
3227.36
3224.36
3219.66
3213.24
3205.08
3194.92
3182.73
3168.33
3151.78
3132.83
3111.7
3088.1
3062.08
3033.61
3002.62
2969.47
2933.9
2896.37
2856.51
2814.51
2770.61
2724.05
2674.27
2606.39
2790
2790
2790
2790
2790
2790
2790
2790
2790
2790
2790
2790
2790
2790
2790
2790
2790
2790
2790
2790
2790
2790
2790
2790
2790
2790.01
2790.74
2803.88
2864.53
2948.31
2990.14
3002.2
3001.49
2996.67
2991.07
2986.93
2983.55
2980.29
2977.04
2973.85
2970.93
2968.48
2966.6
2965.34
2964.69
2964.52
2964.7
2965.24
2966.16
2967.38
2968.96
2970.89
2973.22
2976
2979.21
2982.8
2986.7
2990.86
2995.36
3000.31
3005.74
3011.46
3017.32
3023.4
3029.85
3036.76
3044
3051.4
3058.9
3066.53
3074.39
3082.57
3091.09
3099.92
3108.99
3118.19
3127.47
3136.78
3146.1
3155.41
3164.7
3173.96
3183.19
3192.36
3201.44
3210.38
3219.13
3227.63
3235.83
3243.66
3251.06
3257.93
3264.21
3269.78
3274.56
3278.4
3281.3
3283.07
3283.74
3282.95
3280.61
3276.72
3270.92
3263.33
3253.68
3241.92
3227.78
3211.41
3192.48
3171.17
3147.27
3120.86
3091.98
3060.59
3027.04
2990.84
2952.6
2911.83
2868.83
2820.99
2758.11
2790
2790
2790
2790
2790
2790
2790
2790
2790
2790
2790
2790
2790
2790
2790
2790
2790
2790
2790
2790
2790
2790
2790
2790
2790
2790
2790.33
2798.44
2848.72
2936.14
2989
3004.35
3004.5
3000.78
2995.65
2991.76
2988.5
2985.1
2981.61
2978.29
2975.41
2973.18
2971.63
2970.7
2970.32
2970.34
2970.64
2971.27
2972.2
2973.47
2975.11
2977.13
2979.58
2982.51
2985.92
2989.75
2993.89
2998.32
3003.06
3008.24
3013.93
3019.96
3026.15
3032.54
3039.29
3046.52
3054.12
3061.93
3069.86
3077.93
3086.25
3094.89
3103.9
3113.26
3122.92
3132.76
3142.73
3152.77
3162.87
3173.01
3183.19
3193.4
3203.63
3213.88
3224.11
3234.3
3244.4
3254.37
3264.15
3273.69
3282.94
3291.82
3300.26
3308.18
3315.51
3322.15
3328.02
3332.95
3336.88
3339.67
3341.22
3341.58
3340.02
3337.06
3332.16
3325.22
3316.23
3305.04
3291.43
3275.57
3257.09
3236.16
3212.56
3186.45
3157.8
3126.27
3092.24
3054.99
3015.21
2970.21
2911.43
2790
2790
2790
2790
2790
2790
2790
2790
2790
2790
2790
2790
2790
2790
2790
2790
2790
2790
2790
2790
2790
2790
2790
2790
2790
2790
2790.16
2795.26
2836.4
2924.45
2986.9
3005.81
3007.4
3004.83
3000.05
2996.22
2992.83
2989.14
2985.46
2982.17
2979.55
2977.67
2976.45
2975.79
2975.58
2975.67
2975.98
2976.61
2977.51
2978.79
2980.5
2982.64
2985.25
2988.37
2992.01
2996.08
3000.48
3005.16
3010.14
3015.54
3021.46
3027.76
3034.26
3040.92
3047.94
3055.43
3063.34
3071.51
3079.81
3088.27
3096.98
3106.02
3115.45
3125.28
3135.43
3145.83
3156.39
3167.06
3177.84
3188.69
3199.63
3210.64
3221.73
3232.9
3244.12
3255.37
3266.62
3277.82
3288.95
3299.95
3310.77
3321.37
3331.67
3341.61
3351.12
3360.12
3368.53
3376.27
3383.21
3389.25
3394.23
3398.1
3400.68
3401.95
3401.88
3399.51
3395.75
3389.71
3381.46
3370.99
3357.88
3342.3
3323.89
3302.97
3279.21
3252.71
3223.36
3190.6
3155.09
3114.23
3060.82
2790
2790
2790
2790
2790
2790
2790
2790
2790
2790
2790
2790
2790
2790
2790
2790
2790
2790
2790
2790
2790
2790
2790
2790
2790
2790
2790.09
2793.5
2827.56
2914.39
2984.41
3006.92
3010.24
3008.54
3004.03
3000.1
2996.43
2992.48
2988.79
2985.75
2983.47
2981.91
2980.93
2980.4
2980.24
2980.31
2980.54
2981.13
2982.02
2983.37
2985.21
2987.53
2990.35
2993.7
2997.57
3001.89
3006.53
3011.45
3016.64
3022.25
3028.37
3034.9
3041.65
3048.56
3055.79
3063.51
3071.68
3080.14
3088.76
3097.55
3106.59
3115.98
3125.78
3135.99
3146.58
3157.44
3168.51
3179.72
3191.06
3202.52
3214.09
3225.78
3237.59
3249.52
3261.56
3273.69
3285.89
3298.13
3310.37
3322.58
3334.72
3346.74
3358.61
3370.25
3381.61
3392.63
3403.24
3413.37
3422.94
3431.85
3440.02
3447.29
3453.58
3458.64
3462.55
3464.93
3465.92
3464.98
3461.92
3456.9
3449.3
3439.45
3426.79
3411.63
3393.41
3372.55
3348.24
3320.38
3289.13
3252.53
3204.32
2790
2790
2790
2790
2790
2790
2790
2790
2790
2790
2790
2790
2790
2790
2790
2790
2790
2790
2790
2790
2790
2790
2790
2790
2790
2790
2790.06
2792.61
2821.82
2906.81
2982.34
3008.08
3012.91
3011.74
3007.39
3003.29
2999.34
2995.3
2991.82
2989.1
2987.12
2985.75
2984.88
2984.37
2984.15
2984.16
2984.31
2984.9
2985.86
2987.36
2989.4
2991.96
2995.01
2998.6
3002.7
3007.24
3012.1
3017.22
3022.61
3028.39
3034.67
3041.4
3048.35
3055.45
3062.87
3070.77
3079.15
3087.85
3096.75
3105.82
3115.15
3124.84
3134.95
3145.5
3156.44
3167.7
3179.19
3190.85
3202.67
3214.62
3226.72
3238.96
3251.36
3263.92
3276.62
3289.47
3302.44
3315.51
3328.65
3341.84
3355.04
3368.22
3381.34
3394.36
3407.22
3419.89
3432.3
3444.41
3456.14
3467.42
3478.16
3488.27
3497.64
3506.14
3513.68
3520.05
3525.16
3528.84
3530.95
3531.49
3529.46
3525.64
3519.03
3509.86
3497.76
3482.93
3464.25
3442.07
3415.47
3383.88
3341.54
2790
2790
2790
2790
2790
2790
2790
2790
2790
2790
2790
2790
2790
2790
2790
2790
2790
2790
2790
2790
2790
2790
2790
2790
2790
2790
2790.05
2792.22
2818.88
2902.47
2981.5
3009.59
3015.4
3014.38
3010.1
3005.8
3001.73
2997.81
2994.63
2992.18
2990.36
2989.05
2988.17
2987.6
2987.29
2987.23
2987.43
2988.06
2989.18
2990.9
2993.2
2996.01
2999.32
3003.12
3007.43
3012.16
3017.21
3022.49
3028.04
3033.96
3040.38
3047.25
3054.36
3061.62
3069.19
3077.24
3085.79
3094.7
3103.82
3113.14
3122.72
3132.67
3143.05
3153.88
3165.13
3176.72
3188.56
3200.59
3212.79
3225.15
3237.67
3250.37
3263.24
3276.29
3289.53
3302.94
3316.52
3330.24
3344.09
3358.04
3372.07
3386.16
3400.27
3414.36
3428.41
3442.36
3456.2
3469.86
3483.31
3496.48
3509.31
3521.74
3533.68
3545.06
3555.76
3565.68
3574.67
3582.59
3589.19
3594.44
3597.93
3599.74
3599.57
3596.22
3590.89
3582.38
3570.2
3554.43
3532.9
3507.2
3471.26
2790
2790
2790
2790
2790
2790
2790
2790
2790
2790
2790
2790
2790
2790
2790
2790
2790
2790
2790
2790
2790
2790
2790
2790
2790
2790
2790.04
2792.11
2818.21
2901.59
2981.98
3011.44
3017.67
3016.58
3012.29
3007.83
3003.73
3000.02
2997.11
2994.82
2993.05
2991.72
2990.79
2990.15
2989.78
2989.69
2990.02
2990.77
2992.12
2994.08
2996.64
2999.71
3003.23
3007.23
3011.72
3016.61
3021.8
3027.23
3032.9
3038.93
3045.46
3052.45
3059.69
3067.08
3074.78
3082.96
3091.66
3100.74
3110.07
3119.6
3129.4
3139.58
3150.19
3161.27
3172.78
3184.64
3196.76
3209.1
3221.61
3234.3
3247.17
3260.22
3273.46
3286.91
3300.56
3314.41
3328.46
3342.68
3357.07
3371.61
3386.27
3401.03
3415.88
3430.79
3445.72
3460.64
3475.54
3490.38
3505.12
3519.72
3534.14
3548.34
3562.23
3575.78
3588.88
3601.47
3613.44
3624.68
3635.08
3644.43
3652.67
3659.35
3664.67
3667.84
3669.24
3667.77
3663.24
3655.02
3640.21
3622.31
3593.09
2790
2790
2790
2790
2790
2790
2790
2790
2790
2790
2790
2790
2790
2790
2790
2790
2790
2790
2790
2790
2790
2790
2790
2790
2790
2790
2790.05
2792.19
2818.89
2903.46
2983.99
3013.47
3019.58
3018.43
3014.09
3009.54
3005.45
3001.85
2999.1
2996.91
2995.15
2993.81
2992.84
2992.15
2991.78
2991.72
2992.19
2993.12
2994.68
2996.9
2999.7
3002.98
3006.69
3010.86
3015.49
3020.51
3025.82
3031.36
3037.14
3043.27
3049.9
3056.99
3064.33
3071.84
3079.65
3087.96
3096.81
3106.06
3115.56
3125.29
3135.3
3145.68
3156.51
3167.8
3179.53
3191.63
3203.99
3216.58
3229.35
3242.3
3255.44
3268.78
3282.32
3296.08
3310.05
3324.24
3338.64
3353.24
3368.04
3383
3398.12
3413.38
3428.77
3444.26
3459.83
3475.45
3491.11
3506.78
3522.44
3538.06
3553.6
3569.04
3584.32
3599.42
3614.27
3628.83
3643.02
3656.78
3670.01
3682.61
3694.44
3705.32
3715.13
3723.47
3730.36
3735.24
3738.29
3738.37
3732.93
3725.3
3707.32
2790
2790
2790
2790
2790
2790
2790
2790
2790
2790
2790
2790
2790
2790
2790
2790
2790
2790
2790
2790
2790
2790
2790
2790
2790
2790
2790.06
2792.54
2821.84
2909.25
2988.04
3015.71
3021.22
3019.89
3015.49
3010.97
3006.9
3003.26
3000.56
2998.45
2996.74
2995.42
2994.48
2993.79
2993.44
2993.5
2994.06
2995.17
2996.93
2999.35
3002.34
3005.79
3009.65
3013.96
3018.71
3023.85
3029.27
3034.9
3040.76
3046.99
3053.72
3060.91
3068.36
3075.98
3083.91
3092.35
3101.35
3110.75
3120.42
3130.32
3140.51
3151.08
3162.1
3173.59
3185.52
3197.81
3210.38
3223.17
3236.16
3249.33
3262.7
3276.27
3290.05
3304.05
3318.27
3332.72
3347.4
3362.28
3377.38
3392.66
3408.11
3423.72
3439.49
3455.38
3471.39
3487.48
3503.64
3519.86
3536.12
3552.4
3568.68
3584.92
3601.11
3617.21
3633.17
3648.97
3664.55
3679.89
3694.93
3709.61
3723.83
3737.5
3750.42
3762.49
3773.44
3783.13
3791.19
3797.25
3800.76
3800.69
3796.35
2790
2790
2790
2790
2790
2790
2790
2790
2790
2790
2790
2790
2790
2790
2790
2790
2790
2790
2790
2790
2790
2790
2790
2790
2790
2790
2790.08
2793.31
2827.35
2918.03
2993.1
3017.87
3022.52
3020.95
3016.49
3012.09
3008.07
3004.32
3001.53
2999.47
2997.83
2996.61
2995.77
2995.15
2994.87
2995.06
2995.72
2996.97
2998.88
3001.45
3004.58
3008.14
3012.1
3016.51
3021.37
3026.61
3032.11
3037.83
3043.78
3050.12
3056.96
3064.26
3071.82
3079.55
3087.61
3096.21
3105.36
3114.93
3124.76
3134.82
3145.18
3155.93
3167.13
3178.8
3190.91
3203.37
3216.12
3229.09
3242.25
3255.6
3269.15
3282.9
3296.87
3311.06
3325.48
3340.13
3355.01
3370.11
3385.41
3400.91
3416.6
3432.45
3448.46
3464.61
3480.88
3497.25
3513.71
3530.25
3546.85
3563.48
3580.14
3596.79
3613.46
3630.09
3646.69
3663.15
3679.43
3695.56
3711.44
3727.08
3742.4
3757.33
3771.73
3785.59
3798.7
3811.04
3822.23
3832.17
3840.35
3845.33
3850.87
2790
2790
2790
2790
2790
2790
2790
2790
2790
2790
2790
2790
2790
2790
2790
2790
2790
2790
2790
2790
2790
2790
2790
2790
2790
2790
2790.14
2794.76
2835.52
2929.25
2998.83
3019.92
3023.36
3021.56
3017.05
3012.81
3008.92
3005.06
3002.09
3000.03
2998.48
2997.37
2996.66
2996.2
2996.05
2996.41
2997.17
2998.53
3000.54
3003.2
3006.4
3010.04
3014.09
3018.59
3023.54
3028.86
3034.44
3040.22
3046.27
3052.72
3059.69
3067.11
3074.76
3082.6
3090.81
3099.57
3108.88
3118.59
3128.57
3138.78
3149.31
3160.22
3171.6
3183.44
3195.71
3208.34
3221.24
3234.35
3247.66
3261.17
3274.87
3288.77
3302.89
3317.24
3331.81
3346.61
3361.64
3376.87
3392.32
3407.96
3423.78
3439.77
3455.9
3472.18
3488.57
3505.06
3521.62
3538.27
3554.99
3571.77
3588.53
3605.28
3622.02
3638.7
3655.4
3672.03
3688.65
3705.09
3721.3
3737.15
3752.5
3767.36
3781.6
3795.18
3807.91
3819.69
3830.21
3839.49
3846.88
3851.77
3856.29
2790
2790
2790
2790
2790
2790
2790
2790
2790
2790
2790
2790
2790
2790
2790
2790
2790
2790
2790
2790
2790
2790
2790
2790
2790
2790
2790.25
2797.18
2846.57
2942.14
3004.71
3021.89
3023.65
3021.64
3017.18
3013.13
3009.41
3005.55
3002.37
3000.17
2998.65
2997.66
2997.13
2996.86
2996.87
2997.41
2998.29
2999.78
3001.88
3004.61
3007.85
3011.52
3015.63
3020.22
3025.27
3030.67
3036.32
3042.19
3048.33
3054.91
3062.01
3069.54
3077.29
3085.24
3093.59
3102.51
3111.97
3121.81
3131.9
3142.25
3152.92
3164
3175.54
3187.54
3199.96
3212.72
3225.75
3238.99
3252.42
3266.03
3279.85
3293.86
3308.1
3322.55
3337.23
3352.12
3367.23
3382.55
3398.07
3413.77
3429.64
3445.65
3461.8
3478.08
3494.48
3510.95
3527.47
3544.05
3560.66
3577.34
3594.07
3610.83
3627.53
3644.11
3660.39
3676.39
3692
3707.21
3722.02
3736.34
3750.1
3763.31
3775.83
3787.41
3797.91
3807.11
3814.79
3820.64
3824.31
3825.56
3822.72
2790
2790
2790
2790
2790
2790
2790
2790
2790
2790
2790
2790
2790
2790
2790
2790
2790
2790
2790
2790
2790
2790
2790
2790
2790
2790.01
2790.48
2801.04
2860.48
2955.79
3010.17
3023.89
3023.67
3021.23
3016.85
3013.03
3009.5
3005.79
3002.49
3000.07
2998.47
2997.54
2997.13
2997.04
2997.24
2998
2999.04
3000.62
3002.81
3005.59
3008.87
3012.6
3016.77
3021.44
3026.57
3032.04
3037.77
3043.71
3049.96
3056.68
3063.93
3071.56
3079.4
3087.48
3095.98
3105.07
3114.67
3124.62
3134.83
3145.29
3156.09
3167.31
3178.98
3191.12
3203.67
3216.55
3229.67
3243
3256.52
3270.21
3284.11
3298.19
3312.49
3327
3341.72
3356.65
3371.78
3387.09
3402.6
3418.26
3434.1
3450.05
3466.12
3482.29
3498.55
3514.94
3531.43
3547.96
3564.45
3580.79
3596.93
3612.82
3628.45
3643.81
3658.78
3673.47
3687.82
3701.65
3714.92
3727.55
3739.4
3750.25
3760.06
3768.6
3775.79
3781.35
3785.17
3787.16
3786.28
3783.58
3775.93
2790
2790
2790
2790
2790
2790
2790
2790
2790
2790
2790
2790
2790
2790
2790
2790
2790
2790
2790
2790
2790
2790
2790
2790
2790
2790.02
2790.95
2806.86
2876.9
2969.27
3014.68
3025.73
3023.97
3020.33
3015.86
3012.35
3009.13
3005.66
3002.44
2999.89
2998.1
2997.08
2996.69
2996.75
2997.16
2998.09
2999.31
3001.04
3003.34
3006.2
3009.53
3013.3
3017.55
3022.31
3027.51
3033.06
3038.85
3044.88
3051.25
3058.11
3065.48
3073.2
3081.12
3089.31
3097.97
3107.2
3116.92
3126.98
3137.29
3147.86
3158.78
3170.12
3181.92
3194.17
3206.82
3219.77
3232.95
3246.33
3259.88
3273.62
3287.54
3301.66
3315.98
3330.48
3345.2
3360.1
3375.19
3390.45
3405.88
3421.43
3437.14
3452.97
3468.96
3485.04
3501.13
3517.13
3532.96
3548.63
3564.12
3579.36
3594.49
3609.38
3623.96
3638.22
3652.07
3665.34
3677.97