/*--------------------------------*- C++ -*----------------------------------*\
| =========                 |                                                 |
| \\      /  F ield         | OpenFOAM: The Open Source CFD Toolbox           |
|  \\    /   O peration     | Version:  2412                                  |
|   \\  /    A nd           | Website:  www.openfoam.com                      |
|    \\/     M anipulation  |                                                 |
\*---------------------------------------------------------------------------*/
FoamFile
{
    version     2.0;
    format      ascii;
    arch        "LSB;label=32;scalar=64";
    class       volScalarField;
    location    "0.008";
    object      p;
}
// * * * * * * * * * * * * * * * * * * * * * * * * * * * * * * * * * * * * * //

dimensions      [1 -1 -2 0 0 0 0];

internalField   nonuniform List<scalar> 
78650
(
2790
2790
2790
2790
2790
2790
2790
2790
2790
2790
2790
2790
2790
2790
2790
2790
2790
2790
2790
2790
2790
2790
2790
2790
2790
2790
2790
2790
2790
2790
2790
2790
2790
2790
2790
2790
2790.02
2790.62
2798.8
2835.01
2893.93
2935.48
2946.63
2947.58
2943.1
2934.28
2924.69
2916.7
2909.5
2902.53
2895.88
2889.82
2884.11
2878.81
2873.9
2869.28
2864.89
2860.71
2856.71
2852.86
2849.14
2845.54
2842.1
2838.81
2835.63
2832.52
2829.43
2826.34
2823.23
2820.12
2817
2813.77
2810.28
2806.38
2802.03
2797.31
2792.22
2786.61
2780.28
2773.07
2764.93
2755.8
2745.64
2734.33
2721.69
2707.51
2691.62
2673.82
2653.9
2631.8
2607.25
2580.43
2550.96
2519.05
2484.1
2446.77
2406.43
2363.98
2318.86
2271.75
2222.87
2172.65
2121.62
2069.98
2018.79
1966.71
1917.78
1868.26
1821.66
1776.72
1733.87
1695.94
1659.44
1627.14
1597.04
1568.89
1542.3
1517.21
1496.33
1479.26
1445.15
2790
2790
2790
2790
2790
2790
2790
2790
2790
2790
2790
2790
2790
2790
2790
2790
2790
2790
2790
2790
2790
2790
2790
2790
2790
2790
2790
2790
2790
2790
2790
2790
2790
2790
2790
2790
2790.01
2790.3
2795.49
2824.48
2882.4
2930.93
2947.26
2950.48
2947.09
2939.03
2929.13
2920.92
2913.77
2907
2900.55
2894.66
2889.12
2883.97
2879.19
2874.69
2870.41
2866.34
2862.47
2858.77
2855.22
2851.84
2848.64
2845.62
2842.75
2839.99
2837.29
2834.62
2831.98
2829.36
2826.76
2824.12
2821.29
2818.12
2814.55
2810.65
2806.45
2801.84
2796.64
2790.66
2783.85
2776.15
2767.52
2757.88
2747.06
2734.87
2721.12
2705.6
2688.11
2668.55
2646.65
2622.48
2595.67
2566.37
2534.11
2499.36
2461.49
2421.31
2378.09
2332.7
2284.88
2235.06
2183.77
2131.28
2078.67
2026.06
1974.61
1924.2
1873.58
1827.07
1780.12
1737.81
1696.38
1657.9
1622.8
1591.94
1564.36
1538.49
1514.25
1492.9
1452.64
2790
2790
2790
2790
2790
2790
2790
2790
2790
2790
2790
2790
2790
2790
2790
2790
2790
2790
2790
2790
2790
2790
2790
2790
2790
2790
2790
2790
2790
2790
2790
2790
2790
2790
2790
2790
2790
2790.14
2793.23
2815.21
2869.81
2924.39
2947.39
2953.33
2950.59
2943.46
2933.5
2925.18
2918.11
2911.57
2905.3
2899.57
2894.18
2889.17
2884.51
2880.12
2875.94
2871.97
2868.22
2864.67
2861.31
2858.15
2855.2
2852.46
2849.91
2847.49
2845.17
2842.93
2840.75
2838.62
2836.53
2834.46
2832.26
2829.79
2826.97
2823.86
2820.51
2816.86
2812.7
2807.89
2802.31
2795.93
2788.73
2780.64
2771.5
2761.13
2749.36
2735.95
2720.71
2703.54
2684.17
2662.61
2638.54
2612.08
2582.87
2551.15
2516.4
2479.17
2438.81
2396.06
2350.35
2302.36
2252.28
2200.29
2146.68
2092.63
2037.42
1984.96
1930.64
1880.2
1830.83
1782.9
1739.82
1697.25
1657.78
1619.58
1586.76
1556.92
1531.06
1509.13
1466.69
2790
2790
2790
2790
2790
2790
2790
2790
2790
2790
2790
2790
2790
2790
2790
2790
2790
2790
2790
2790
2790
2790
2790
2790
2790
2790
2790
2790
2790
2790
2790
2790
2790
2790
2790
2790
2790
2790.06
2791.74
2807.25
2856.03
2915.68
2946.9
2955.93
2953.65
2947.76
2938.15
2929.82
2922.76
2916.38
2910.28
2904.68
2899.41
2894.51
2889.94
2885.61
2881.5
2877.62
2873.99
2870.59
2867.42
2864.48
2861.78
2859.32
2857.07
2854.99
2853.04
2851.21
2849.46
2847.8
2846.21
2844.66
2843.06
2841.27
2839.18
2836.82
2834.29
2831.53
2828.4
2824.71
2820.36
2815.28
2809.49
2802.93
2795.46
2786.93
2777.17
2765.92
2753.03
2738.33
2721.57
2702.73
2681.5
2657.96
2631.73
2602.86
2570.86
2536.11
2498.05
2457.35
2413.44
2367.29
2318.64
2267.87
2215.34
2161.17
2106.75
2051.94
1997.83
1941.81
1891.06
1838.05
1790.79
1743.83
1700.9
1659.33
1621.27
1585.76
1553.53
1526.73
1475.94
2790
2790
2790
2790
2790
2790
2790
2790
2790
2790
2790
2790
2790
2790
2790
2790
2790
2790
2790
2790
2790
2790
2790
2790
2790
2790
2790
2790
2790
2790
2790
2790
2790
2790
2790
2790
2790
2790.02
2790.85
2800.98
2842.09
2904.6
2944.68
2957.83
2956.43
2952
2943.06
2934.68
2927.51
2921.28
2915.36
2909.89
2904.74
2899.92
2895.41
2891.13
2887.07
2883.28
2879.78
2876.54
2873.57
2870.87
2868.43
2866.26
2864.31
2862.56
2860.97
2859.53
2858.21
2857
2855.88
2854.84
2853.8
2852.63
2851.23
2849.61
2847.85
2845.93
2843.75
2841.13
2837.92
2834.07
2829.59
2824.43
2818.51
2811.67
2803.74
2794.49
2783.74
2771.34
2757.04
2740.81
2722.35
2701.68
2678.42
2652.58
2623.73
2592.13
2557.27
2519.62
2478.7
2435.16
2388.32
2338.83
2286.7
2232.48
2177.16
2119.3
2064.06
2005.84
1950.23
1895.73
1842.57
1793.53
1746.63
1702.97
1662.56
1625.77
1591.55
1561.4
1505.42
2790
2790
2790
2790
2790
2790
2790
2790
2790
2790
2790
2790
2790
2790
2790
2790
2790
2790
2790
2790
2790
2790
2790
2790
2790
2790
2790
2790
2790
2790
2790
2790
2790
2790
2790
2790
2790
2790.01
2790.38
2796.37
2828.57
2890.68
2940.02
2958.69
2959.3
2956.27
2948.14
2939.75
2932.51
2926.46
2920.73
2915.35
2910.24
2905.45
2900.95
2896.7
2892.7
2889.01
2885.65
2882.6
2879.85
2877.38
2875.2
2873.31
2871.65
2870.21
2868.96
2867.9
2866.99
2866.2
2865.53
2864.96
2864.44
2863.88
2863.14
2862.22
2861.2
2860.09
2858.81
2857.21
2855.11
2852.46
2849.26
2845.49
2841.09
2835.92
2829.82
2822.58
2814.01
2803.95
2792.16
2778.59
2762.94
2745.19
2724.96
2702.27
2676.71
2648.42
2616.96
2582.65
2544.99
2504.35
2460.12
2413.15
2363.02
2310.24
2255.14
2198.72
2140.77
2081.92
2021.11
1963.78
1903.96
1847.81
1792.5
1742.48
1694.26
1651.74
1614.28
1582.91
1519.89
2790
2790
2790
2790
2790
2790
2790
2790
2790
2790
2790
2790
2790
2790
2790
2790
2790
2790
2790
2790
2790
2790
2790
2790
2790
2790
2790
2790
2790
2790
2790
2790
2790
2790
2790
2790
2790
2790
2790.15
2793.34
2816.52
2874.71
2932.44
2958.5
2962.4
2960.23
2953.17
2945.07
2937.78
2931.86
2926.25
2920.88
2915.75
2910.95
2906.46
2902.25
2898.34
2894.79
2891.6
2888.75
2886.23
2884
2882.09
2880.46
2879.08
2877.93
2877.02
2876.32
2875.79
2875.41
2875.18
2875.05
2875.02
2875.02
2874.91
2874.67
2874.34
2873.99
2873.55
2872.9
2871.86
2870.33
2868.33
2865.84
2862.83
2859.19
2854.77
2849.36
2842.8
2834.89
2825.44
2814.35
2801.38
2786.46
2769.28
2749.83
2727.7
2702.91
2675
2644.11
2609.69
2572.02
2530.67
2486.22
2438.06
2387.12
2333.38
2277.37
2219.32
2159.91
2099.58
2039.83
1980.53
1921.73
1864.7
1811.4
1756.17
1706.14
1658.66
1618.29
1542.62
2790
2790
2790
2790
2790
2790
2790
2790
2790
2790
2790
2790
2790
2790
2790
2790
2790
2790
2790
2790
2790
2790
2790
2790
2790
2790
2790
2790
2790
2790
2790
2790
2790
2790
2790
2790
2790
2790
2790.05
2791.55
2806.65
2857.3
2921.24
2957.34
2964.71
2963.96
2958.34
2950.72
2943.33
2937.44
2931.85
2926.42
2921.25
2916.45
2912.01
2907.89
2904.11
2900.73
2897.73
2895.09
2892.79
2890.79
2889.12
2887.74
2886.61
2885.74
2885.13
2884.76
2884.61
2884.63
2884.79
2885.08
2885.5
2886.01
2886.5
2886.9
2887.26
2887.63
2887.99
2888.21
2888.19
2887.74
2886.93
2885.7
2884.03
2881.88
2879.11
2875.51
2870.94
2865.18
2858.07
2849.48
2839.19
2827.12
2812.96
2796.66
2777.79
2756.33
2731.8
2704.25
2673.23
2638.95
2601.08
2559.86
2514.72
2466.38
2414.28
2359.32
2301.39
2240.6
2178.65
2113.61
2051.15
1986.4
1926.08
1868.81
1810.9
1762.12
1717
1675.87
1595.85
2790
2790
2790
2790
2790
2790
2790
2790
2790
2790
2790
2790
2790
2790
2790
2790
2790
2790
2790
2790
2790
2790
2790
2790
2790
2790
2790
2790
2790
2790
2790
2790
2790
2790
2790
2790
2790
2790
2790.02
2790.63
2799.41
2839.86
2906.78
2953.43
2965.91
2967.73
2963.7
2956.42
2948.95
2943.01
2937.38
2931.88
2926.69
2921.95
2917.6
2913.62
2910
2906.8
2903.99
2901.56
2899.46
2897.68
2896.24
2895.08
2894.2
2893.59
2893.27
2893.21
2893.4
2893.8
2894.34
2895.02
2895.87
2896.85
2897.9
2898.91
2899.91
2900.97
2902.1
2903.17
2904.04
2904.62
2904.87
2904.84
2904.41
2903.64
2902.38
2900.42
2897.67
2893.88
2888.91
2882.64
2874.86
2865.48
2854.24
2841.06
2825.55
2807.66
2786.94
2763.39
2736.59
2706.61
2673.07
2635.96
2594.8
2550.03
2500.97
2448.61
2392.48
2333.25
2271.18
2206.86
2141.71
2073.91
2006.16
1935.48
1872.08
1809.22
1754.43
1708.19
1620.07
2790
2790
2790
2790
2790
2790
2790
2790
2790
2790
2790
2790
2790
2790
2790
2790
2790
2790
2790
2790
2790
2790
2790
2790
2790
2790
2790
2790
2790
2790
2790
2790
2790
2790
2790
2790
2790
2790
2790
2790.22
2794.72
2823.93
2888.8
2946.13
2966.59
2971.54
2968.66
2962.12
2954.52
2948.42
2942.78
2937.29
2932.17
2927.54
2923.34
2919.52
2916.08
2913.06
2910.44
2908.2
2906.28
2904.69
2903.45
2902.5
2901.83
2901.46
2901.39
2901.64
2902.15
2902.88
2903.77
2904.82
2906.06
2907.49
2909.06
2910.65
2912.27
2913.97
2915.81
2917.7
2919.47
2921.01
2922.29
2923.33
2924.14
2924.67
2924.86
2924.49
2923.54
2921.72
2918.84
2914.85
2909.54
2902.8
2894.41
2884.27
2872
2857.53
2840.42
2820.62
2797.71
2771.63
2741.94
2708.54
2671.07
2629.7
2583.87
2534.46
2480.66
2423.53
2362.89
2299.35
2233.27
2166.37
2098.47
2029.2
1962.84
1896.58
1832.67
1776.2
1670.68
2790
2790
2790
2790
2790
2790
2790
2790
2790
2790
2790
2790
2790
2790
2790
2790
2790
2790
2790
2790
2790
2790
2790
2790
2790
2790
2790
2790
2790
2790
2790
2790
2790
2790
2790
2790
2790
2790
2790
2790.07
2792.07
2810.92
2868.65
2934.92
2966.04
2974.68
2973.14
2967.53
2960.07
2953.84
2948.21
2942.77
2937.75
2933.27
2929.23
2925.57
2922.29
2919.43
2916.97
2914.89
2913.14
2911.71
2910.65
2909.89
2909.43
2909.27
2909.44
2909.97
2910.77
2911.81
2913.04
2914.44
2916.04
2917.88
2919.94
2922.1
2924.3
2926.62
2929.12
2931.75
2934.36
2936.8
2939.05
2941.14
2943.06
2944.8
2946.28
2947.37
2947.94
2947.96
2947.02
2945.17
2942.14
2937.85
2932.14
2924.88
2915.78
2904.72
2891.28
2875.4
2856.6
2834.77
2809.42
2780.41
2747.42
2710.33
2668.64
2622.88
2572.18
2517.45
2457.82
2394.51
2327.96
2258.01
2186.2
2113.98
2038.19
1969.5
1902.7
1847.78
1743.19
2790
2790
2790
2790
2790
2790
2790
2790
2790
2790
2790
2790
2790
2790
2790
2790
2790
2790
2790
2790
2790
2790
2790
2790
2790
2790
2790
2790
2790
2790
2790
2790
2790
2790
2790
2790
2790
2790
2790
2790.02
2790.79
2801.51
2848.12
2919.43
2963.58
2976.98
2977.15
2972.73
2965.67
2959.26
2953.66
2948.36
2943.51
2939.2
2935.32
2931.79
2928.64
2925.91
2923.58
2921.64
2920.01
2918.73
2917.82
2917.21
2916.96
2916.99
2917.4
2918.15
2919.22
2920.55
2922.09
2923.82
2925.76
2927.98
2930.49
2933.18
2935.96
2938.85
2941.97
2945.3
2948.7
2952.01
2955.17
2958.22
2961.19
2964.08
2966.84
2969.35
2971.43
2973
2973.94
2974.15
2973.36
2971.49
2968.38
2963.89
2957.81
2949.99
2940.04
2927.88
2913.01
2895.32
2874.32
2849.9
2821.7
2789.47
2752.82
2711.79
2665.67
2615.24
2559.4
2499.13
2433.93
2365.13
2293.18
2217.71
2139.87
2059.61
1980.08
1912
1787.15
2790
2790
2790
2790
2790
2790
2790
2790
2790
2790
2790
2790
2790
2790
2790
2790
2790
2790
2790
2790
2790
2790
2790
2790
2790
2790
2790
2790
2790
2790
2790
2790
2790
2790
2790
2790
2790
2790
2790
2790
2790.26
2795.6
2829.42
2900.21
2957.24
2977.83
2980.87
2977.64
2971.17
2964.64
2959.19
2954.12
2949.46
2945.28
2941.48
2938.03
2934.97
2932.34
2930.12
2928.29
2926.78
2925.63
2924.83
2924.37
2924.27
2924.53
2925.11
2926.08
2927.39
2929
2930.83
2932.88
2935.15
2937.73
2940.67
2943.87
2947.2
2950.66
2954.35
2958.32
2962.44
2966.56
2970.58
2974.53
2978.46
2982.4
2986.29
2990.05
2993.57
2996.7
2999.29
3001.23
3002.42
3002.8
3002.13
3000.27
2997.07
2992.33
2985.78
2977.26
2966.37
2952.97
2936.57
2917
2893.81
2866.63
2835.09
2798.92
2757.57
2711.48
2659.56
2602.91
2540.43
2473.82
2402.57
2327.87
2250.03
2171.69
2087.51
2015.49
1881.15
2790
2790
2790
2790
2790
2790
2790
2790
2790
2790
2790
2790
2790
2790
2790
2790
2790
2790
2790
2790
2790
2790
2790
2790
2790
2790
2790
2790
2790
2790
2790
2790
2790
2790
2790
2790
2790
2790
2790
2790
2790.08
2792.39
2814.26
2878.61
2946.63
2977.6
2984.03
2982
2976.57
2970.2
2964.95
2960.04
2955.45
2951.3
2947.54
2944.15
2941.18
2938.63
2936.49
2934.74
2933.34
2932.3
2931.6
2931.3
2931.33
2931.79
2932.56
2933.73
2935.28
2937.13
2939.25
2941.6
2944.2
2947.12
2950.45
2954.13
2957.99
2961.99
2966.22
2970.76
2975.56
2980.43
2985.26
2990.06
2994.88
2999.78
3004.74
3009.68
3014.5
3019.06
3023.25
3026.96
3030.04
3032.38
3033.91
3034.54
3034.12
3032.31
3029
3023.89
3016.73
3007.33
2995.25
2980.26
2961.83
2939.64
2913.29
2882.33
2846.33
2805.27
2758.21
2705.95
2647.21
2583.28
2512.69
2437.32
2357.43
2275.64
2188.36
2111.18
1969.58
2790
2790
2790
2790
2790
2790
2790
2790
2790
2790
2790
2790
2790
2790
2790
2790
2790
2790
2790
2790
2790
2790
2790
2790
2790
2790
2790
2790
2790
2790
2790
2790
2790
2790
2790
2790
2790
2790
2790
2790
2790.02
2790.9
2803.47
2856.59
2931.99
2975.85
2985.99
2985.88
2982.07
2975.89
2970.6
2965.7
2961.14
2957.01
2953.33
2950.03
2947.16
2944.68
2942.6
2940.92
2939.6
2938.65
2938.05
2937.87
2938.11
2938.71
2939.68
2941.05
2942.81
2944.91
2947.29
2949.94
2952.86
2956.12
2959.81
2963.93
2968.3
2972.82
2977.55
2982.62
2988.02
2993.58
2999.17
3004.75
3010.41
3016.18
3022.09
3028.09
3034.09
3039.95
3045.57
3050.83
3055.63
3059.89
3063.49
3066.28
3068.2
3069.12
3068.97
3067.14
3063.69
3058.15
3050.35
3039.94
3026.44
3009.55
2988.8
2963.7
2933.83
2898.85
2858.01
2811.64
2758.3
2698.93
2632.22
2559.67
2480.53
2395.43
2306.72
2218.18
2068.3
2790
2790
2790
2790
2790
2790
2790
2790
2790
2790
2790
2790
2790
2790
2790
2790
2790
2790
2790
2790
2790
2790
2790
2790
2790
2790
2790
2790
2790
2790
2790
2790
2790
2790
2790
2790
2790
2790
2790
2790
2790
2790.3
2796.74
2836.57
2913.8
2970.92
2986.82
2990.22
2987.3
2981.44
2975.91
2970.92
2966.48
2962.52
2958.95
2955.73
2952.89
2950.42
2948.36
2946.71
2945.47
2944.63
2944.17
2944.12
2944.56
2945.32
2946.49
2948.05
2950.02
2952.35
2954.99
2957.93
2961.16
2964.74
2968.77
2973.29
2978.13
2983.13
2988.34
2993.89
2999.82
3006.01
3012.29
3018.61
3025.03
3031.6
3038.38
3045.34
3052.41
3059.46
3066.4
3073.1
3079.49
3085.47
3090.96
3095.89
3100.12
3103.46
3105.84
3107.07
3107.14
3105.2
3101.46
3095.31
3086.51
3074.72
3059.44
3040.17
3016.48
2987.73
2953.31
2913.09
2865.98
2812.65
2751.58
2683.53
2606.71
2524.27
2434.72
2344.87
2193.29
2790
2790
2790
2790
2790
2790
2790
2790
2790
2790
2790
2790
2790
2790
2790
2790
2790
2790
2790
2790
2790
2790
2790
2790
2790
2790
2790
2790
2790
2790
2790
2790
2790
2790
2790
2790
2790
2790
2790
2790
2790
2790.09
2793.07
2820.29
2893.39
2962.43
2987.08
2994.14
2992.11
2986.49
2980.64
2975.74
2971.64
2967.87
2964.38
2961.17
2958.3
2955.8
2953.74
2952.15
2951.03
2950.31
2950.02
2950.12
2950.75
2951.68
2953.02
2954.76
2956.92
2959.45
2962.34
2965.56
2969.09
2972.98
2977.32
2982.19
2987.46
2992.92
2998.57
3004.55
3010.96
3017.71
3024.62
3031.62
3038.73
3046.04
3053.59
3061.41
3069.42
3077.54
3085.64
3093.64
3101.44
3108.98
3116.17
3122.95
3129.23
3134.9
3139.86
3143.78
3146.65
3148.23
3148.45
3146.45
3142.33
3135.47
3125.54
3111.98
3094.34
3071.89
3044.09
3010.41
2969.88
2922.73
2867.73
2805.19
2733.13
2654.25
2563.35
2472.46
2325.79
2790
2790
2790
2790
2790
2790
2790
2790
2790
2790
2790
2790
2790
2790
2790
2790
2790
2790
2790
2790
2790
2790
2790
2790
2790
2790
2790
2790
2790
2790
2790
2790
2790
2790
2790
2790
2790
2790
2790
2790
2790
2790.03
2791.3
2808.45
2872.71
2950.88
2986.85
2997.24
2996.04
2990.91
2985.13
2980.54
2976.79
2973.14
2969.6
2966.3
2963.35
2960.84
2958.86
2957.4
2956.45
2955.89
2955.75
2956.02
2956.77
2957.84
2959.33
2961.22
2963.54
2966.28
2969.39
2972.87
2976.69
2980.87
2985.5
2990.68
2996.32
3002.19
3008.24
3014.61
3021.44
3028.68
3036.16
3043.78
3051.52
3059.47
3067.72
3076.3
3085.16
3094.22
3103.38
3112.54
3121.62
3130.56
3139.29
3147.76
3155.89
3163.61
3170.79
3177.31
3183.01
3187.55
3190.9
3192.75
3193.04
3190.76
3185.98
3177.87
3166.22
3150.23
3129.46
3103.11
3070.36
3030.95
2983.48
2927.49
2861.64
2785.96
2698.54
2603.4
2464.85
2790
2790
2790
2790
2790
2790
2790
2790
2790
2790
2790
2790
2790
2790
2790
2790
2790
2790
2790
2790
2790
2790
2790
2790
2790
2790
2790
2790
2790
2790
2790
2790
2790
2790
2790
2790
2790
2790
2790
2790
2790
2790.01
2790.52
2800.69
2853.73
2937.24
2985.53
2999.34
2999.09
2995.08
2989.71
2985.37
2981.79
2978.07
2974.37
2970.96
2968.02
2965.62
2963.83
2962.58
2961.81
2961.41
2961.38
2961.77
2962.59
2963.77
2965.36
2967.38
2969.86
2972.79
2976.12
2979.85
2983.93
2988.38
2993.28
2998.73
3004.68
3010.91
3017.33
3024.05
3031.24
3038.91
3046.9
3055.06
3063.38
3071.92
3080.79
3090.03
3099.64
3109.54
3119.63
3129.81
3140.02
3150.19
3160.28
3170.23
3180
3189.53
3198.71
3207.48
3215.64
3223.06
3229.59
3234.79
3238.63
3240.73
3241.04
3238.26
3232.64
3222.98
3209.24
3190.21
3165.3
3133.84
3094.61
3047.39
2990.68
2922.41
2842.81
2747.86
2619.37
2790
2790
2790
2790
2790
2790
2790
2790
2790
2790
2790
2790
2790
2790
2790
2790
2790
2790
2790
2790
2790
2790
2790
2790
2790
2790
2790
2790
2790
2790
2790
2790
2790
2790
2790
2790
2790
2790
2790
2790
2790
2790
2790.21
2796.03
2837.83
2922.64
2982.52
3000.44
3001.94
2999.26
2994.31
2990.03
2986.35
2982.41
2978.57
2975.19
2972.44
2970.32
2968.79
2967.77
2967.15
2966.84
2966.86
2967.32
2968.15
2969.41
2971.1
2973.26
2975.9
2979.02
2982.57
2986.53
2990.86
2995.55
3000.68
3006.36
3012.57
3019.11
3025.85
3032.88
3040.4
3048.44
3056.87
3065.52
3074.34
3083.41
3092.82
3102.65
3112.91
3123.54
3134.45
3145.53
3156.73
3167.98
3179.26
3190.52
3201.72
3212.84
3223.79
3234.51
3244.86
3254.74
3263.95
3272.33
3279.69
3285.51
3289.8
3292.05
3292.26
3288.56
3281.6
3269.53
3252.5
3229.02
3197.97
3158.82
3109.16
3047.71
2974.88
2885.8
2766.21
2790
2790
2790
2790
2790
2790
2790
2790
2790
2790
2790
2790
2790
2790
2790
2790
2790
2790
2790
2790
2790
2790
2790
2790
2790
2790
2790
2790
2790
2790
2790
2790
2790
2790
2790
2790
2790
2790
2790
2790
2790
2790
2790.09
2793.41
2825.56
2908.36
2978.01
3000.94
3004.83
3003.34
2998.74
2994.23
2990.18
2986.05
2982.28
2979.17
2976.75
2974.94
2973.66
2972.8
2972.25
2971.95
2971.93
2972.41
2973.27
2974.63
2976.47
2978.8
2981.63
2984.96
2988.72
2992.89
2997.44
3002.35
3007.68
3013.54
3019.96
3026.76
3033.78
3041.09
3048.89
3057.26
3066.07
3075.14
3084.41
3093.93
3103.83
3114.18
3125
3136.26
3147.87
3159.73
3171.79
3183.98
3196.29
3208.67
3221.12
3233.59
3246.06
3258.47
3270.72
3282.73
3294.33
3305.44
3315.81
3325.23
3333.49
3339.94
3344.61
3346.81
3346.44
3341.06
3331.84
3316.44
3294.65
3265.58
3226.32
3175.44
3111.01
3029.2
2919.32
2790
2790
2790
2790
2790
2790
2790
2790
2790
2790
2790
2790
2790
2790
2790
2790
2790
2790
2790
2790
2790
2790
2790
2790
2790
2790
2790
2790
2790
2790
2790
2790
2790
2790
2790
2790
2790
2790
2790
2790
2790
2790
2790.04
2792.02
2816.76
2895.58
2972.93
3001.46
3007.72
3007.03
3002.64
2997.7
2993.27
2989.22
2985.77
2983.03
2980.95
2979.38
2978.21
2977.38
2976.78
2976.45
2976.38
2976.91
2977.88
2979.41
2981.46
2984.02
2987.07
2990.62
2994.59
2998.95
3003.69
3008.78
3014.27
3020.28
3026.87
3033.88
3041.15
3048.7
3056.75
3065.39
3074.52
3083.96
3093.62
3103.56
3113.87
3124.67
3135.98
3147.78
3159.99
3172.52
3185.31
3198.3
3211.49
3224.84
3238.34
3251.97
3265.73
3279.57
3293.43
3307.24
3320.89
3334.29
3347.26
3359.67
3371.26
3381.77
3390.9
3397.91
3402.87
3404.86
3403.54
3396.51
3384.01
3364.35
3334.9
3294.44
3238.62
3166.15
3065.03
2790
2790
2790
2790
2790
2790
2790
2790
2790
2790
2790
2790
2790
2790
2790
2790
2790
2790
2790
2790
2790
2790
2790
2790
2790
2790
2790
2790
2790
2790
2790
2790
2790
2790
2790
2790
2790
2790
2790
2790
2790
2790
2790.03
2791.29
2810.89
2885.26
2968.2
3002.26
3010.42
3010.17
3005.79
3000.46
2995.98
2992.25
2989.19
2986.76
2984.86
2983.37
2982.19
2981.25
2980.53
2980.14
2980.17
2980.81
2981.99
2983.77
2986.09
2988.91
2992.21
2995.97
3000.13
3004.67
3009.56
3014.8
3020.43
3026.55
3033.26
3040.45
3047.92
3055.69
3063.95
3072.83
3082.24
3092
3102
3112.29
3122.98
3134.16
3145.89
3158.15
3170.88
3183.98
3197.38
3211.05
3224.97
3239.13
3253.51
3268.12
3282.94
3297.97
3313.17
3328.48
3343.83
3359.15
3374.33
3389.25
3403.71
3417.57
3430.5
3442.2
3452.17
3459.66
3464.52
3465.67
3461.64
3451.32
3432.28
3403.61
3358.09
3298.31
3208.24
2790
2790
2790
2790
2790
2790
2790
2790
2790
2790
2790
2790
2790
2790
2790
2790
2790
2790
2790
2790
2790
2790
2790
2790
2790
2790
2790
2790
2790
2790
2790
2790
2790
2790
2790
2790
2790
2790
2790
2790
2790
2790
2790.02
2790.97
2807.31
2877.91
2964.53
3003.28
3012.8
3012.71
3008.28
3002.81
2998.57
2995.26
2992.47
2990.16
2988.29
2986.72
2985.4
2984.31
2983.51
2983.11
2983.36
2984.21
2985.68
2987.75
2990.35
2993.43
2996.97
3000.93
3005.27
3009.96
3014.98
3020.35
3026.08
3032.3
3039.12
3046.45
3054.1
3062.07
3070.53
3079.62
3089.27
3099.3
3109.61
3120.22
3131.22
3142.75
3154.83
3167.49
3180.64
3194.22
3208.14
3222.37
3236.9
3251.72
3266.84
3282.24
3297.94
3313.94
3330.22
3346.74
3363.48
3380.36
3397.33
3414.29
3431.12
3447.72
3463.8
3479.23
3493.51
3506.38
3517.03
3524.87
3529.36
3529.7
3521.4
3504.7
3469.8
3423.44
3345.5
2790
2790
2790
2790
2790
2790
2790
2790
2790
2790
2790
2790
2790
2790
2790
2790
2790
2790
2790
2790
2790
2790
2790
2790
2790
2790
2790
2790
2790
2790
2790
2790
2790
2790
2790
2790
2790
2790
2790
2790
2790
2790
2790.01
2790.82
2805.68
2873.95
2963.04
3004.62
3014.91
3014.67
3010.27
3004.93
3001.08
2998.1
2995.42
2993.09
2991.1
2989.37
2987.9
2986.7
2985.91
2985.62
2986.12
2987.24
2989
2991.35
2994.22
2997.54
3001.28
3005.42
3009.92
3014.73
3019.87
3025.34
3031.16
3037.47
3044.4
3051.86
3059.69
3067.84
3076.48
3085.77
3095.64
3105.92
3116.5
3127.38
3138.68
3150.49
3162.89
3175.87
3189.39
3203.36
3217.72
3232.42
3247.45
3262.81
3278.51
3294.56
3310.97
3327.74
3344.88
3362.37
3380.2
3398.32
3416.7
3435.28
3453.99
3472.75
3491.41
3509.82
3527.72
3544.87
3560.71
3574.82
3585.93
3593.83
3596.98
3592.18
3570.65
3539.59
3475.39
2790
2790
2790
2790
2790
2790
2790
2790
2790
2790
2790
2790
2790
2790
2790
2790
2790
2790
2790
2790
2790
2790
2790
2790
2790
2790
2790
2790
2790
2790
2790
2790
2790
2790
2790
2790
2790
2790
2790
2790
2790
2790
2790.01
2790.8
2805.4
2873.32
2963.33
3006.38
3016.93
3016.38
3011.95
3006.8
3003.26
3000.5
2997.87
2995.47
2993.35
2991.5
2989.94
2988.69
2987.98
2987.92
2988.62
2990
2992.02
2994.6
2997.68
3001.18
3005.09
3009.37
3013.98
3018.9
3024.14
3029.7
3035.63
3042.04
3049.09
3056.7
3064.71
3073.04
3081.87
3091.35
3101.43
3111.94
3122.76
3133.89
3145.44
3157.51
3170.18
3183.46
3197.28
3211.59
3226.3
3241.38
3256.82
3272.62
3288.8
3305.36
3322.33
3339.71
3357.53
3375.77
3394.44
3413.52
3432.98
3452.8
3472.95
3493.37
3513.99
3534.71
3555.37
3575.78
3595.66
3614.59
3632.01
3646.98
3658.64
3664.89
3660.45
3643.73
3597.21
2790
2790
2790
2790
2790
2790
2790
2790
2790
2790
2790
2790
2790
2790
2790
2790
2790
2790
2790
2790
2790
2790
2790
2790
2790
2790
2790
2790
2790
2790
2790
2790
2790
2790
2790
2790
2790
2790
2790
2790
2790
2790
2790.01
2790.84
2806.03
2875.71
2965.78
3008.49
3018.81
3018.04
3013.49
3008.41
3004.96
3002.3
2999.74
2997.34
2995.18
2993.3
2991.74
2990.53
2989.93
2990.1
2990.99
2992.58
2994.78
2997.52
3000.74
3004.35
3008.35
3012.72
3017.41
3022.41
3027.74
3033.41
3039.45
3046
3053.2
3060.99
3069.18
3077.7
3086.73
3096.42
3106.71
3117.43
3128.47
3139.83
3151.61
3163.93
3176.85
3190.38
3204.48
3219.07
3234.08
3249.48
3265.25
3281.41
3297.97
3314.94
3332.35
3350.22
3368.56
3387.38
3406.69
3426.48
3446.75
3467.49
3488.7
3510.33
3532.37
3554.77
3577.42
3600.26
3623.09
3645.7
3667.76
3688.54
3707.58
3722.38
3732.01
3730.72
3709.83
2790
2790
2790
2790
2790
2790
2790
2790
2790
2790
2790
2790
2790
2790
2790
2790
2790
2790
2790
2790
2790
2790
2790
2790
2790
2790
2790
2790
2790
2790
2790
2790
2790
2790
2790
2790
2790
2790
2790
2790
2790
2790
2790.02
2791.02
2808.25
2881.66
2970.7
3010.9
3020.48
3019.57
3014.92
3009.78
3006.2
3003.49
3001.04
2998.74
2996.66
2994.87
2993.41
2992.32
2991.86
2992.23
2993.27
2995
2997.29
3000.12
3003.39
3007.06
3011.09
3015.5
3020.24
3025.32
3030.74
3036.52
3042.71
3049.43
3056.82
3064.81
3073.19
3081.92
3091.16
3101.05
3111.55
3122.48
3133.72
3145.29
3157.29
3169.83
3182.99
3196.75
3211.09
3225.93
3241.2
3256.87
3272.92
3289.38
3306.25
3323.55
3341.31
3359.55
3378.3
3397.56
3417.35
3437.67
3458.53
3479.93
3501.87
3524.34
3547.35
3570.87
3594.86
3619.3
3644.03
3669.03
3694.03
3718.76
3742.74
3764.87
3783.32
3792.62
3796.77
2790
2790
2790
2790
2790
2790
2790
2790
2790
2790
2790
2790
2790
2790
2790
2790
2790
2790
2790
2790
2790
2790
2790
2790
2790
2790
2790
2790
2790
2790
2790
2790
2790
2790
2790
2790
2790
2790
2790
2790
2790
2790
2790.03
2791.4
2812.3
2890.72
2977.15
3013.38
3021.85
3020.84
3016.18
3010.98
3007.16
3004.22
3001.8
2999.62
2997.72
2996.11
2994.85
2993.95
2993.66
2994.19
2995.34
2997.14
2999.49
3002.34
3005.61
3009.26
3013.3
3017.73
3022.53
3027.69
3033.23
3039.16
3045.52
3052.44
3060.05
3068.24
3076.83
3085.78
3095.24
3105.35
3116.06
3127.18
3138.62
3150.39
3162.59
3175.35
3188.72
3202.71
3217.27
3232.33
3247.82
3263.72
3280
3296.7
3313.82
3331.39
3349.43
3367.96
3387.01
3406.6
3426.73
3447.43
3468.68
3490.51
3512.92
3535.9
3559.49
3583.63
3608.35
3633.63
3659.41
3685.72
3712.15
3738.64
3764.89
3790.58
3813.62
3830.95
3848.88
2790
2790
2790
2790
2790
2790
2790
2790
2790
2790
2790
2790
2790
2790
2790
2790
2790
2790
2790
2790
2790
2790
2790
2790
2790
2790
2790
2790
2790
2790
2790
2790
2790
2790
2790
2790
2790
2790
2790
2790
2790
2790
2790.05
2792.15
2818.5
2902.57
2984.65
3015.81
3022.88
3021.69
3017.12
3012.03
3008.02
3004.74
3002.2
3000.09
2998.32
2996.9
2995.86
2995.21
2995.13
2995.83
2997.06
2998.89
3001.26
3004.1
3007.37
3011.03
3015.08
3019.54
3024.4
3029.66
3035.33
3041.42
3047.97
3055.11
3062.95
3071.36
3080.14
3089.3
3098.98
3109.31
3120.22
3131.53
3143.15
3155.11
3167.53
3180.5
3194.09
3208.29
3223.05
3238.31
3254
3270.08
3286.56
3303.46
3320.79
3338.57
3356.82
3375.57
3394.84
3414.66
3435.01
3455.94
3477.41
3499.47
3522.09
3545.27
3569.06
3593.41
3618.37
3643.8
3669.67
3696.19
3722.94
3750.14
3776.12
3801.05
3822.84
3839.35
3854.84
2790
2790
2790
2790
2790
2790
2790
2790
2790
2790
2790
2790
2790
2790
2790
2790
2790
2790
2790
2790
2790
2790
2790
2790
2790
2790
2790
2790
2790
2790
2790
2790
2790
2790
2790
2790
2790
2790
2790
2790
2790
2790
2790.09
2793.48
2827.26
2916.61
2992.55
3018.08
3023.44
3022.04
3017.56
3012.79
3008.78
3005.22
3002.42
3000.22
2998.51
2997.27
2996.42
2995.98
2996.08
2996.92
2998.24
3000.14
3002.54
3005.41
3008.69
3012.38
3016.49
3021.03
3026
3031.4
3037.23
3043.48
3050.23
3057.6
3065.65
3074.25
3083.21
3092.56
3102.45
3112.99
3124.08
3135.56
3147.35
3159.49
3172.1
3185.27
3199.06
3213.46
3228.4
3243.83
3259.68
3275.92
3292.56
3309.62
3327.11
3345.04
3363.44
3382.34
3401.74
3421.68
3442.13
3463.15
3484.66
3506.74
3529.33
3552.48
3576.15
3600.25
3625
3650.31
3675.95
3701.3
3726.06
3750.33
3772.8
3793.86
3810.44
3820.19
3822.48
2790
2790
2790
2790
2790
2790
2790
2790
2790
2790
2790
2790
2790
2790
2790
2790
2790
2790
2790
2790
2790
2790
2790
2790
2790
2790
2790
2790
2790
2790
2790
2790
2790
2790
2790
2790
2790
2790
2790
2790
2790
2790
2790.19
2795.75
2838.89
2931.98
3000.21
3020.32
3023.57
3021.93
3017.47
3013.08
3009.3
3005.66
3002.62
3000.25
2998.51
2997.32
2996.6
2996.35
2996.64
2997.58
2998.99
3000.93
3003.39
3006.31
3009.66
3013.43
3017.64
3022.29
3027.39
3032.94
3038.93
3045.36
3052.31
3059.9
3068.16
3076.93
3086.06
3095.58
3105.68
3116.42
3127.68
3139.32
3151.26
3163.56
3176.35
3189.7
3203.67
3218.24
3233.33
3248.9
3264.87
3281.23
3297.98
3315.15
3332.73
3350.76
3369.24
3388.19
3407.64
3427.57
3448
3468.93
3490.33
3512.25
3534.57
3557.43
3580.8
3604.7
3628.56
3652.12
3675.46
3698.16
3720.29
3740.89
3759.34
3773.98
3783.34
3786.05
3775.82
2790
2790
2790
2790
2790
2790
2790
2790
2790
2790
2790
2790
2790
2790
2790
2790
2790
2790
2790
2790
2790
2790
2790
2790
2790
2790
2790
2790
2790
2790
2790
2790
2790
2790
2790
2790
2790
2790
2790
2790
2790
2790.01
2790.41
2799.43
2853.39
2947.72
3007
3022.77
3023.48
3021.35
3016.88
3012.84
3009.32
3005.83
3002.79
3000.34
2998.5
2997.31
2996.62
2996.47
2996.89
2997.92
2999.44
3001.47
3004.01
3007.02
3010.47
3014.35
3018.68
3023.47
3028.71
3034.4
3040.54
3047.13
3054.25
3062.04
3070.47
3079.39
3088.66
3098.35
3108.64
3119.57
3130.99
3142.76
3154.83
3167.28
3180.22
3193.74
3207.86
3222.57
3237.78
3253.45
3269.51
3285.95
3302.76
3319.98
3337.59
3355.64
3374.12
3393.03
3412.41
3432.21
3452.49
3473.2
3494.29
3515.88
3538
3560.39
3582.58
3604.78
3626.46
3648.11
3669.08
3689.1
3707.44
3723.45
3736.09
3744.61
3746.29
3741.92
3723.08
2790
2790
2790
2790
2790
2790
2790
2790
2790
2790
2790
2790
2790
2790
2790
2790
2790
2790
2790
2790
2790
2790
2790
2790
2790
2790
2790
2790
2790
2790
2790
2790
2790
2790
2790
2790
2790
2790
2790
2790
2790
2790.02
2790.86
2805.08
2870.43
2962.93
3012.32
3025.09
3023.76
3020.47
3015.77
3011.95
3008.74
3005.56
3002.69
3000.32
2998.49
2997.31
2996.61
2996.46
2997
2998.11
2999.71
3001.82
3004.47
3007.6
3011.17
3015.18
3019.64
3024.57
3029.96
3035.81
3042.08
3048.82
3056.11
3064.07
3072.65
3081.68
3091.06
3100.91
3111.38
3122.46
3134.01
3145.87
3158.04
3170.62
3183.69
3197.35
3211.6
3226.41
3241.71
3257.43
3273.54
3290
3306.82
3324.03
3341.6
3359.58
3377.95
3396.73
3415.94
3435.5
3455.51
3475.97
3496.85
3517.78
3538.66
3559.36
3579.99
3600.42
3620.43
3639.59
3657.51
3673.76
3687.7
3698.68
3705.78
3708.6
3702.54
3693.36
3670.45
2790
2790
2790
2790
2790
2790
2790
2790
2790
2790
2790
2790
2790
2790
2790
2790
2790
2790
2790
2790
2790
2790
2790
2790
2790
2790
2790
2790
2790
2790
2790
2790
2790
2790
2790
2790
2790
2790
2790
2790
2790
2790.04
2791.75
2813.2
2889.24
2976.91
3016.19
3026.22
3024.39
3019.82
3014.66
3010.77
3007.61
3004.61
3002
2999.87
2998.21
2997.13
2996.51
2996.45
2997.11
2998.29
2999.97
3002.17
3004.89
3008.09
3011.77
3015.91
3020.52
3025.59
3031.11
3037.09
3043.49
3050.37
3057.83
3065.95
3074.65
3083.76
3093.24
3103.24
3113.87
3125.08
3136.71
3148.64
3160.9
3173.56
3186.75
3200.52
3214.86
3229.74
3245.08
3260.81
3276.9