/*--------------------------------*- C++ -*----------------------------------*\
| =========                 |                                                 |
| \\      /  F ield         | OpenFOAM: The Open Source CFD Toolbox           |
|  \\    /   O peration     | Version:  2412                                  |
|   \\  /    A nd           | Website:  www.openfoam.com                      |
|    \\/     M anipulation  |                                                 |
\*---------------------------------------------------------------------------*/
FoamFile
{
    version     2.0;
    format      ascii;
    arch        "LSB;label=32;scalar=64";
    class       volScalarField;
    location    "0.024";
    object      T;
}
// * * * * * * * * * * * * * * * * * * * * * * * * * * * * * * * * * * * * * //

dimensions      [0 0 0 1 0 0 0];

internalField   nonuniform List<scalar> 
78650
(
223
223
223
223
223
223
223
223
223
223
223
223
223
223
223
223
223.006
223.079
223.408
223.965
224.359
224.505
224.467
224.255
223.853
223.466
223.149
222.895
222.723
222.627
222.578
222.527
222.455
222.359
222.257
222.165
222.08
221.997
221.917
221.846
221.788
221.739
221.698
221.661
221.628
221.597
221.57
221.548
221.53
221.515
221.504
221.494
221.486
221.48
221.474
221.47
221.466
221.462
221.459
221.456
221.451
221.445
221.435
221.42
221.402
221.379
221.351
221.316
221.273
221.221
221.157
221.08
220.989
220.883
220.76
220.617
220.452
220.262
220.045
219.798
219.517
219.199
218.841
218.438
217.985
217.478
216.911
216.28
215.581
214.805
213.949
213.018
212.008
210.898
209.661
208.319
206.874
205.327
203.699
201.938
200.123
198.226
196.16
193.99
191.79
189.712
187.707
185.758
183.919
182.085
180.26
178.479
176.706
175.026
173.506
172.153
171.089
170.311
169.858
169.689
168.241
223
223
223
223
223
223
223
223
223
223
223
223
223
223
223
223
223.003
223.05
223.316
223.861
224.327
224.518
224.498
224.343
223.968
223.574
223.247
222.986
222.805
222.7
222.647
222.6
222.536
222.446
222.347
222.256
222.176
222.098
222.021
221.954
221.898
221.854
221.816
221.783
221.753
221.726
221.703
221.684
221.669
221.658
221.651
221.645
221.641
221.64
221.639
221.64
221.643
221.646
221.649
221.654
221.658
221.66
221.659
221.656
221.648
221.637
221.622
221.601
221.573
221.537
221.492
221.434
221.365
221.282
221.183
221.067
220.931
220.774
220.592
220.383
220.144
219.871
219.562
219.212
218.817
218.371
217.872
217.313
216.689
215.992
215.223
214.377
213.445
212.414
211.279
210.061
208.743
207.319
205.77
204.095
202.359
200.541
198.673
196.711
194.619
192.423
190.181
188.04
185.916
183.98
182.126
180.346
178.58
176.858
175.186
173.607
172.269
171.223
170.6
170.303
168.819
223
223
223
223
223
223
223
223
223
223
223
223
223
223
223
223
223.001
223.03
223.233
223.745
224.271
224.522
224.525
224.424
224.083
223.685
223.35
223.081
222.889
222.772
222.716
222.672
222.614
222.532
222.438
222.35
222.274
222.201
222.129
222.065
222.013
221.971
221.937
221.908
221.882
221.858
221.839
221.823
221.811
221.803
221.799
221.798
221.798
221.801
221.807
221.813
221.822
221.831
221.842
221.854
221.866
221.877
221.886
221.893
221.896
221.897
221.894
221.887
221.874
221.854
221.826
221.787
221.738
221.676
221.601
221.511
221.403
221.275
221.126
220.952
220.751
220.52
220.255
219.954
219.611
219.224
218.786
218.292
217.738
217.119
216.435
215.678
214.838
213.902
212.872
211.759
210.534
209.21
207.774
206.235
204.602
202.823
200.972
199.063
197.151
195.093
192.945
190.73
188.429
186.135
183.958
181.912
179.999
178.237
176.606
175.081
173.699
172.436
171.476
170.846
168.834
223
223
223
223
223
223
223
223
223
223
223
223
223
223
223
223
223.001
223.017
223.162
223.619
224.191
224.516
224.555
224.495
224.198
223.806
223.463
223.182
222.976
222.844
222.782
222.741
222.692
222.62
222.532
222.448
222.376
222.309
222.242
222.181
222.131
222.092
222.061
222.036
222.013
221.993
221.976
221.963
221.954
221.95
221.949
221.951
221.957
221.964
221.975
221.987
222.001
222.017
222.035
222.054
222.074
222.094
222.112
222.129
222.143
222.154
222.163
222.169
222.17
222.165
222.154
222.133
222.103
222.062
222.009
221.943
221.862
221.763
221.646
221.506
221.342
221.152
220.931
220.678
220.388
220.057
219.68
219.252
218.77
218.228
217.623
216.943
216.18
215.336
214.415
213.415
212.304
211.092
209.752
208.303
206.725
205.02
203.202
201.287
199.32
197.324
195.31
193.279
191.178
188.932
186.687
184.391
182.12
179.909
177.862
176.109
174.78
173.779
173
172.425
170.211
223
223
223
223
223
223
223
223
223
223
223
223
223
223
223
223
223
223.009
223.105
223.491
224.086
224.494
224.582
224.551
224.314
223.937
223.582
223.286
223.063
222.916
222.848
222.81
222.77
222.71
222.63
222.55
222.483
222.422
222.359
222.302
222.254
222.218
222.189
222.167
222.147
222.131
222.117
222.107
222.101
222.099
222.102
222.108
222.118
222.13
222.146
222.164
222.184
222.206
222.23
222.257
222.284
222.313
222.34
222.366
222.391
222.413
222.434
222.452
222.466
222.476
222.48
222.477
222.466
222.445
222.413
222.37
222.313
222.242
222.154
222.046
221.917
221.764
221.584
221.374
221.131
220.852
220.531
220.165
219.748
219.277
218.745
218.146
217.478
216.741
215.929
215.021
213.997
212.874
211.636
210.313
208.87
207.313
205.654
203.845
201.838
199.798
197.627
195.448
193.36
191.239
189.16
187.034
184.86
182.698
180.478
178.23
176.156
174.503
173.52
173.068
171.033
223
223
223
223
223
223
223
223
223
223
223
223
223
223
223
223
223
223.004
223.062
223.366
223.956
224.448
224.594
224.599
224.431
224.077
223.707
223.392
223.152
222.991
222.916
222.881
222.85
222.803
222.734
222.66
222.596
222.54
222.483
222.428
222.382
222.348
222.322
222.302
222.285
222.272
222.26
222.253
222.25
222.251
222.257
222.267
222.281
222.298
222.319
222.342
222.369
222.397
222.428
222.461
222.497
222.533
222.569
222.605
222.639
222.672
222.704
222.734
222.761
222.785
222.804
222.816
222.822
222.821
222.81
222.789
222.756
222.711
222.65
222.573
222.478
222.361
222.22
222.054
221.858
221.629
221.364
221.057
220.706
220.304
219.846
219.326
218.743
218.091
217.361
216.541
215.624
214.622
213.508
212.299
210.962
209.532
207.984
206.331
204.531
202.603
200.536
198.28
195.968
193.629
191.235
188.957
186.735
184.624
182.604
180.7
178.785
176.95
175.337
174.219
171.292
223
223
223
223
223
223
223
223
223
223
223
223
223
223
223
223
223
223.002
223.033
223.254
223.806
224.373
224.595
224.648
224.539
224.217
223.831
223.499
223.245
223.072
222.989
222.956
222.933
222.899
222.843
222.775
222.715
222.663
222.611
222.559
222.515
222.481
222.457
222.44
222.426
222.415
222.406
222.402
222.401
222.405
222.414
222.428
222.447
222.469
222.495
222.524
222.556
222.591
222.629
222.669
222.712
222.756
222.801
222.846
222.89
222.933
222.975
223.017
223.057
223.094
223.127
223.156
223.178
223.194
223.202
223.203
223.192
223.172
223.137
223.089
223.024
222.94
222.836
222.709
222.555
222.373
222.158
221.906
221.614
221.277
220.888
220.446
219.947
219.384
218.745
218.023
217.218
216.326
215.327
214.231
213.013
211.7
210.247
208.675
207.006
205.172
203.304
201.227
199.077
196.843
194.393
191.895
189.352
186.799
184.32
182.087
180.223
178.746
177.506
176.521
173.514
223
223
223
223
223
223
223
223
223
223
223
223
223
223
223
223
223
223.001
223.016
223.162
223.641
224.264
224.588
224.694
224.628
224.351
223.96
223.615
223.348
223.162
223.067
223.035
223.018
222.997
222.955
222.895
222.838
222.791
222.742
222.693
222.65
222.616
222.594
222.579
222.568
222.56
222.554
222.552
222.554
222.561
222.573
222.592
222.615
222.642
222.673
222.708
222.746
222.788
222.831
222.878
222.928
222.98
223.034
223.087
223.14
223.193
223.246
223.299
223.35
223.4
223.447
223.49
223.529
223.562
223.588
223.607
223.619
223.621
223.613
223.592
223.557
223.506
223.436
223.347
223.235
223.098
222.932
222.734
222.499
222.224
221.905
221.536
221.112
220.625
220.068
219.443
218.746
217.968
217.09
216.114
215.018
213.819
212.471
211.011
209.414
207.699
205.826
203.835
201.727
199.609
197.418
195.09
192.735
190.246
187.579
184.839
182.273
180.05
178.509
177.583
174.582
223
223
223
223
223
223
223
223
223
223
223
223
223
223
223
223
223
223
223.007
223.093
223.476
224.12
224.564
224.726
224.69
224.478
224.098
223.742
223.461
223.259
223.15
223.116
223.106
223.096
223.069
223.018
222.964
222.92
222.875
222.828
222.785
222.752
222.731
222.718
222.71
222.706
222.703
222.703
222.709
222.719
222.735
222.757
222.785
222.817
222.854
222.895
222.939
222.986
223.036
223.09
223.147
223.206
223.268
223.33
223.392
223.455
223.518
223.58
223.643
223.705
223.765
223.823
223.877
223.926
223.97
224.008
224.039
224.063
224.077
224.082
224.075
224.054
224.017
223.962
223.887
223.791
223.669
223.52
223.339
223.122
222.865
222.564
222.214
221.808
221.345
220.82
220.224
219.544
218.768
217.898
216.914
215.827
214.612
213.302
211.848
210.263
208.539
206.661
204.595
202.342
200.077
197.641
195.202
192.82
190.436
188.103
185.667
183.333
181.158
179.537
175.548
223
223
223
223
223
223
223
223
223
223
223
223
223
223
223
223
223
223
223.002
223.048
223.326
223.944
224.504
224.738
224.733
224.599
224.248
223.88
223.581
223.364
223.24
223.202
223.197
223.195
223.182
223.141
223.09
223.048
223.007
222.962
222.92
222.887
222.868
222.856
222.852
222.852
222.853
222.856
222.864
222.878
222.897
222.924
222.957
222.994
223.036
223.082
223.132
223.186
223.242
223.302
223.366
223.432
223.502
223.572
223.643
223.715
223.787
223.86
223.933
224.007
224.079
224.15
224.218
224.283
224.344
224.399
224.45
224.494
224.531
224.558
224.577
224.584
224.579
224.558
224.521
224.463
224.385
224.282
224.152
223.99
223.793
223.557
223.277
222.947
222.563
222.12
221.61
221.026
220.361
219.612
218.76
217.809
216.74
215.571
214.258
212.823
211.233
209.499
207.659
205.594
203.394
201.018
198.408
195.749
193.075
190.39
187.897
185.765
183.928
182.478
178.552
223
223
223
223
223
223
223
223
223
223
223
223
223
223
223
223
223
223
223.001
223.021
223.202
223.749
224.394
224.731
224.774
224.706
224.398
224.022
223.707
223.477
223.338
223.292
223.288
223.289
223.287
223.257
223.211
223.172
223.135
223.093
223.053
223.021
223.003
222.994
222.993
222.998
223.002
223.009
223.02
223.038
223.062
223.093
223.13
223.173
223.22
223.272
223.327
223.387
223.45
223.516
223.586
223.659
223.736
223.814
223.894
223.974
224.056
224.138
224.222
224.306
224.39
224.474
224.556
224.635
224.711
224.784
224.852
224.915
224.972
225.023
225.065
225.098
225.12
225.129
225.126
225.105
225.066
225.005
224.921
224.81
224.668
224.493
224.278
224.021
223.717
223.359
222.941
222.456
221.898
221.26
220.527
219.703
218.768
217.727
216.54
215.234
213.773
212.178
210.426
208.533
206.459
204.292
201.898
199.281
196.675
193.729
190.793
188.118
185.867
184.214
179.917
223
223
223
223
223
223
223
223
223
223
223
223
223
223
223
223
223
223
223
223.008
223.113
223.553
224.239
224.698
224.814
224.782
224.539
224.172
223.846
223.6
223.441
223.379
223.371
223.376
223.382
223.365
223.328
223.293
223.261
223.225
223.186
223.156
223.138
223.132
223.134
223.144
223.152
223.163
223.178
223.2
223.228
223.263
223.305
223.353
223.405
223.462
223.523
223.588
223.657
223.729
223.805
223.885
223.968
224.055
224.142
224.231
224.321
224.412
224.505
224.6
224.695
224.79
224.885
224.978
225.069
225.157
225.242
225.323
225.4
225.471
225.536
225.594
225.643
225.681
225.707
225.72
225.721
225.7
225.661
225.597
225.507
225.388
225.235
225.045
224.812
224.529
224.193
223.8
223.342
222.814
222.202
221.504
220.698
219.783
218.733
217.572
216.26
214.811
213.188
211.414
209.488
207.352
205.118
202.638
200.062
197.465
194.587
191.951
189.348
187.219
182.157
223
223
223
223
223
223
223
223
223
223
223
223
223
223
223
223
223
223
223
223.003
223.056
223.374
224.048
224.633
224.828
224.835
224.675
224.333
223.992
223.721
223.541
223.46
223.445
223.456
223.474
223.468
223.441
223.412
223.386
223.356
223.321
223.292
223.276
223.271
223.278
223.292
223.304
223.319
223.339
223.364
223.396
223.435
223.482
223.534
223.591
223.653
223.719
223.789
223.863
223.941
224.023
224.109
224.2
224.293
224.388
224.485
224.583
224.683
224.785
224.889
224.995
225.101
225.208
225.314
225.418
225.521
225.622
225.72
225.815
225.905
225.991
226.071
226.144
226.209
226.265
226.308
226.339
226.355
226.357
226.337
226.296
226.229
226.133
226.004
225.839
225.632
225.38
225.076
224.714
224.285
223.78
223.192
222.504
221.718
220.816
219.808
218.657
217.372
215.917
214.311
212.523
210.55
208.35
205.974
203.336
200.709
197.737
195.078
192.635
190.662
185.901
223
223
223
223
223
223
223
223
223
223
223
223
223
223
223
223
223
223
223
223.001
223.024
223.23
223.836
224.522
224.817
224.887
224.799
224.493
224.131
223.838
223.639
223.539
223.518
223.535
223.566
223.569
223.553
223.53
223.51
223.488
223.458
223.431
223.416
223.414
223.424
223.442
223.459
223.478
223.501
223.531
223.567
223.61
223.66
223.716
223.778
223.844
223.914
223.99
224.069
224.152
224.24
224.331
224.428
224.527
224.63
224.734
224.84
224.948
225.059
225.172
225.287
225.403
225.521
225.639
225.756
225.873
225.988
226.102
226.213
226.322
226.427
226.528
226.624
226.713
226.795
226.868
226.931
226.981
227.018
227.039
227.044
227.025
226.982
226.911
226.808
226.669
226.49
226.265
225.987
225.651
225.249
224.776
224.216
223.571
222.821
221.966
220.972
219.85
218.565
217.132
215.51
213.716
211.722
209.51
207.13
204.423
201.615
198.5
195.563
193.071
187.53
223
223
223
223
223
223
223
223
223
223
223
223
223
223
223
223
223
223
223
223
223.009
223.128
223.623
224.366
224.791
224.937
224.887
224.634
224.266
223.956
223.741
223.622
223.593
223.611
223.657
223.671
223.662
223.645
223.633
223.621
223.598
223.574
223.561
223.56
223.574
223.594
223.616
223.64
223.667
223.7
223.74
223.786
223.84
223.9
223.965
224.035
224.11
224.189
224.273
224.361
224.454
224.551
224.653
224.758
224.867
224.979
225.092
225.208
225.326
225.448
225.572
225.698
225.826
225.955
226.084
226.213
226.342
226.47
226.597
226.722
226.845
226.965
227.082
227.194
227.3
227.399
227.49
227.572
227.642
227.699
227.741
227.766
227.773
227.755
227.71
227.635
227.525
227.375
227.181
226.936
226.634
226.269
225.828
225.309
224.69
223.97
223.122
222.153
221.029
219.757
218.305
216.689
214.872
212.841
210.592
208.139
205.556
202.829
200.018
197.597
192.13
223
223
223
223
223
223
223
223
223
223
223
223
223
223
223
223
223
223
223
223
223.003
223.064
223.432
224.174
224.747
224.963
224.944
224.761
224.404
224.081
223.847
223.708
223.668
223.684
223.745
223.773
223.77
223.761
223.757
223.754
223.74
223.721
223.709
223.709
223.726
223.75
223.776
223.804
223.836
223.872
223.915
223.965
224.021
224.083
224.152
224.225
224.303
224.386
224.475
224.567
224.665
224.766
224.873
224.984
225.099
225.217
225.337
225.46
225.586
225.715
225.847
225.982
226.119
226.259
226.399
226.54
226.681
226.822
226.963
227.104
227.243
227.381
227.516
227.649
227.777
227.901
228.018
228.128
228.229
228.32
228.4
228.464
228.512
228.541
228.55
228.533
228.487
228.406
228.286
228.124
227.912
227.644
227.31
226.903
226.407
225.818
225.116
224.302
223.346
222.25
220.978
219.539
217.893
216.039
213.933
211.573
208.961
206.362
203.27
200.775
195.609
223
223
223
223
223
223
223
223
223
223
223
223
223
223
223
223
223
223
223
223
223.001
223.029
223.278
223.966
224.664
224.967
224.984
224.874
224.543
224.206
223.948
223.793
223.741
223.754
223.827
223.875
223.88
223.878
223.881
223.886
223.88
223.865
223.855
223.857
223.876
223.904
223.935
223.968
224.004
224.044
224.09
224.142
224.2
224.265
224.336
224.412
224.494
224.581
224.673
224.769
224.871
224.977
225.089
225.205
225.326
225.45
225.576
225.705
225.838
225.974
226.114
226.257
226.403
226.551
226.702
226.853
227.006
227.159
227.314
227.468
227.622
227.776
227.929
228.08
228.228
228.373
228.514
228.649
228.778
228.899
229.011
229.112
229.2
229.272
229.326
229.359
229.371
229.355
229.306
229.22
229.091
228.913
228.678
228.38
228.006
227.553
227.002
226.351
225.571
224.662
223.588
222.353
220.919
219.286
217.409
215.298
212.915
210.429
207.533
204.777
199.348
223
223
223
223
223
223
223
223
223
223
223
223
223
223
223
223
223
223
223
223
223
223.012
223.168
223.762
224.541
224.952
225.025
224.969
224.673
224.321
224.044
223.878
223.815
223.825
223.905
223.977
223.992
223.993
224.001
224.012
224.011
224.001
223.994
223.999
224.022
224.054
224.09
224.128
224.168
224.212
224.261
224.315
224.376
224.443
224.517
224.596
224.681
224.771
224.866
224.967
225.073
225.183
225.299
225.42
225.546
225.675
225.807
225.942
226.081
226.224
226.371
226.521
226.675
226.832
226.991
227.152
227.315
227.48
227.646
227.813
227.98
228.149
228.317
228.484
228.651
228.816
228.978
229.136
229.29
229.439
229.58
229.714
229.837
229.948
230.045
230.125
230.186
230.224
230.239
230.223
230.17
230.076
229.933
229.737
229.478
229.15
228.733
228.223
227.593
226.841
225.934
224.871
223.619
222.175
220.494
218.581
216.409
214.045
211.497
208.965
204.221
223
223
223
223
223
223
223
223
223
223
223
223
223
223
223
223
223
223
223
223
223
223.005
223.097
223.579
224.394
224.92
225.066
225.034
224.783
224.426
224.137
223.966
223.89
223.896
223.979
224.072
224.097
224.1
224.11
224.127
224.132
224.127
224.123
224.132
224.159
224.196
224.238
224.281
224.325
224.372
224.424
224.481
224.544
224.615
224.691
224.774
224.862
224.956
225.054
225.159
225.268
225.383
225.502
225.628
225.758
225.892
226.03
226.171
226.315
226.464
226.617
226.774
226.935
227.099
227.267
227.437
227.61
227.785
227.961
228.14
228.32
228.501
228.683
228.866
229.049
229.231
229.412
229.591
229.767
229.94
230.107
230.269
230.424
230.569
230.704
230.826
230.933
231.022
231.089
231.132
231.149
231.133
231.075
230.972
230.813
230.594
230.297
229.919
229.435
228.844
228.114
227.243
226.193
224.959
223.501
221.812
219.826
217.613
215.068
212.456
207.926
223
223
223
223
223
223
223
223
223
223
223
223
223
223
223
223
223
223
223
223
223
223.002
223.054
223.429
224.239
224.878
225.093
225.077
224.876
224.525
224.23
224.052
223.963
223.962
224.044
224.155
224.192
224.198
224.211
224.234
224.246
224.245
224.244
224.256
224.288
224.329
224.376
224.423
224.471
224.522
224.577
224.637
224.704
224.778
224.859
224.945
225.037
225.134
225.236
225.344
225.458
225.576
225.699
225.828
225.963
226.101
226.244
226.39
226.54
226.694
226.853
227.016
227.183
227.355
227.53
227.708
227.889
228.073
228.259
228.448
228.638
228.831
229.026
229.222
229.419
229.617
229.815
230.012
230.208
230.402
230.593
230.78
230.963
231.139
231.307
231.465
231.613
231.746
231.864
231.962
232.036
232.085
232.104
232.086
232.02
231.903
231.722
231.474
231.137
230.709
230.158
229.481
228.637
227.619
226.39
224.927
223.205
221.257
219
216.601
212.609
223
223
223
223
223
223
223
223
223
223
223
223
223
223
223
223
223
223
223
223
223
223.001
223.03
223.315
224.091
224.828
225.104
225.108
224.957
224.619
224.32
224.13
224.028
224.02
224.102
224.23
224.281
224.292
224.307
224.335
224.355
224.358
224.36
224.374
224.408
224.452
224.503
224.554
224.606
224.66
224.718
224.783
224.855
224.932
225.017
225.108
225.204
225.304
225.411
225.522
225.639
225.761
225.888
226.021
226.159
226.302
226.449
226.6
226.754
226.913
227.077
227.246
227.419
227.597
227.779
227.964
228.153
228.345
228.54
228.737
228.938
229.141
229.347
229.555
229.765
229.977
230.19
230.403
230.616
230.829
231.04
231.25
231.456
231.659
231.856
232.047
232.229
232.401
232.562
232.708
232.837
232.944
233.026
233.079
233.099
233.078
233.002
232.872
232.664
232.377
231.979
231.467
230.8
229.976
228.949
227.701
226.204
224.423
222.366
219.991
216.473
223
223
223
223
223
223
223
223
223
223
223
223
223
223
223
223
223
223
223
223
223
223
223.018
223.234
223.962
224.773
225.103
225.139
225.027
224.704
224.397
224.194
224.083
224.07
224.156
224.302
224.369
224.385
224.404
224.436
224.461
224.467
224.47
224.485
224.519
224.566
224.62
224.675
224.73
224.788
224.85
224.92
224.996
225.078
225.167
225.263
225.363
225.467
225.577
225.692
225.813
225.939
226.069
226.205
226.347
226.494
226.645
226.8
226.959
227.123
227.292
227.465
227.644
227.827
228.015
228.207
228.403
228.602
228.804
229.01
229.219
229.432
229.647
229.865
230.087
230.31
230.536
230.763
230.992
231.221
231.45
231.679
231.907
232.132
232.355
232.573
232.786
232.992
233.19
233.377
233.552
233.711
233.852
233.97
234.059
234.116
234.137
234.111
234.019
233.862
233.61
233.265
232.784
232.166
231.354
230.338
229.073
227.522
225.72
223.51
220.378
223
223
223
223
223
223
223
223
223
223
223
223
223
223
223
223
223
223
223
223
223
223
223.011
223.181
223.86
224.72
225.1
225.171
225.087
224.774
224.458
224.245
224.131
224.118
224.213
224.376
224.457
224.48
224.501
224.535
224.564
224.571
224.574
224.589
224.625
224.674
224.73
224.788
224.847
224.909
224.976
225.049
225.13
225.217
225.31
225.409
225.513
225.622
225.735
225.854
225.979
226.108
226.242
226.381
226.527
226.677
226.832
226.991
227.154
227.322
227.495
227.673
227.857
228.045
228.238
228.436
228.638
228.843
229.052
229.265
229.482
229.703
229.927
230.154
230.385
230.619
230.856
231.096
231.337
231.581
231.825
232.071
232.316
232.562
232.806
233.048
233.287
233.522
233.752
233.975
234.189
234.392
234.582
234.756
234.91
235.037
235.134
235.195
235.215
235.179
235.07
234.883
234.583
234.169
233.586
232.827
231.812
230.509
228.912
226.881
224.017
223
223
223
223
223
223
223
223
223
223
223
223
223
223
223
223
223
223
223
223
223
223
223.008
223.15
223.788
224.679
225.101
225.202
225.134
224.824
224.501
224.285
224.175
224.166
224.275
224.453
224.546
224.574
224.596
224.632
224.662
224.67
224.673
224.689
224.726
224.778
224.838
224.899
224.962
225.026
225.097
225.174
225.259
225.349
225.446
225.549
225.657
225.769
225.886
226.008
226.136
226.268
226.406
226.549
226.697
226.851
227.01
227.172
227.339
227.511
227.688
227.871
228.058
228.251
228.449
228.652
228.859
229.07
229.285
229.505
229.728
229.956
230.188
230.423
230.663
230.906
231.153
231.403
231.656
231.911
232.169
232.428
232.69
232.952
233.214
233.477
233.738
233.997
234.254
234.507
234.754
234.995
235.227
235.448
235.655
235.844
236.012
236.151
236.257
236.322
236.341
236.291
236.152
235.912
235.526
234.985
234.199
233.153
231.773
229.964
227.366
223
223
223
223
223
223
223
223
223
223
223
223
223
223
223
223
223
223
223
223
223
223
223.007
223.135
223.75
224.659
225.109
225.229
225.165
224.855
224.53
224.317
224.215
224.213
224.34
224.533
224.633
224.665
224.688
224.726
224.756
224.764
224.768
224.787
224.827
224.883
224.946
225.011
225.076
225.144
225.217
225.297
225.384
225.477
225.577
225.683
225.794
225.909
226.029
226.154
226.285
226.421
226.562
226.707
226.859
227.017
227.178
227.344
227.515
227.69
227.871
228.057
228.249
228.446
228.649
228.856
229.068
229.284
229.504
229.729
229.959
230.193
230.431
230.673
230.92
231.171
231.427
231.686
231.948
232.214
232.483
232.755
233.029
233.306
233.584
233.863
234.143
234.423
234.702
234.98
235.256
235.528
235.795
236.055
236.307
236.546
236.772
236.979
237.164
237.315
237.43
237.497
237.509
237.429
237.248
236.943
236.447
235.722
234.599
233.05
230.643
223
223
223
223
223
223
223
223
223
223
223
223
223
223
223
223
223
223
223
223
223
223
223.007
223.133
223.744
224.66
225.125
225.251
225.184
224.871
224.549
224.344
224.252
224.259
224.409
224.613
224.716
224.75
224.775
224.816
224.847
224.857
224.863
224.886
224.93
224.99
225.057
225.125
225.192
225.262
225.337
225.419
225.508
225.603
225.705
225.813
225.925
226.043
226.165
226.294
226.428
226.566
226.71
226.859
227.013
227.174
227.339
227.508
227.682
227.861
228.045
228.235
228.43
228.631
228.837
229.049
229.265
229.486
229.711
229.941
230.175
230.415
230.659
230.908
231.161
231.419
231.681
231.948
232.219
232.494
232.773
233.055
233.34
233.629
233.92
234.214
234.51
234.807
235.105
235.404
235.703
236.001
236.297
236.59
236.878
237.16
237.433
237.695
237.942
238.169
238.374
238.539
238.667
238.736
238.743
238.635
238.396
237.957
237.138
235.994
233.822
223
223
223
223
223
223
223
223
223
223
223
223
223
223
223
223
223
223
223
223
223
223
223.007
223.138
223.766
224.687
225.148
225.266
225.192
224.874
224.557
224.367
224.286
224.305
224.482
224.693
224.794
224.829
224.858
224.903
224.935
224.947
224.956
224.984
225.034
225.099
225.169
225.24
225.309
225.379
225.456
225.539
225.629
225.725
225.829
225.938
226.052
226.171
226.296
226.427
226.563
226.705
226.851
227.002
227.16
227.323
227.491
227.664
227.84
228.022
228.21
228.403
228.602
228.807
229.016
229.231
229.452
229.676
229.906
230.14
230.38
230.624
230.873
231.127
231.386
231.65
231.919
232.193
232.471
232.754
233.041
233.332
233.627
233.926
234.229
234.535
234.844
235.156
235.47
235.786
236.104
236.423
236.743
237.063
237.382
237.698
238.01
238.316
238.615
238.903
239.177
239.429
239.657
239.836
239.97
240.031
240.029
239.844
239.404
238.75
237.12
223
223
223
223
223
223
223
223
223
223
223
223
223
223
223
223
223
223
223
223
223
223
223.009
223.158
223.822
224.739
225.177
225.276
225.186
224.864
224.558
224.387
224.321
224.356
224.56
224.77
224.866
224.902
224.936
224.985
225.019
225.033
225.047
225.081
225.137
225.206
225.279
225.352
225.422
225.494
225.572
225.657
225.748
225.845
225.949
226.059
226.175
226.295
226.421
226.554
226.693
226.837
226.985
227.139
227.3
227.466
227.637
227.812
227.991
228.177
228.367
228.564
228.766
228.974
229.187
229.405
229.629
229.858
230.091
230.33
230.573
230.822
231.076
231.335
231.599
231.869
232.143
232.423
232.708
232.998
233.292
233.591
233.894
234.203
234.515
234.831
235.152
235.476
235.803
236.135
236.469
236.806
237.145
237.487
237.83
238.174
238.518
238.86
239.2
239.536
239.864
240.182
240.486
240.767
241.021
241.219
241.386
241.454
241.369
241.082
240.242
223
223
223
223
223
223
223
223
223
223
223
223
223
223
223
223
223
223
223
223
223
223
223.012
223.193
223.907
224.808
225.21
225.283
225.166
224.837
224.553
224.404
224.357
224.417
224.647
224.847
224.932
224.968
225.008
225.061
225.097
225.113
225.132
225.172
225.234
225.308
225.383
225.457
225.529
225.603
225.683
225.77
225.862
225.961
226.066
226.176
226.293
226.414
226.542
226.676
226.817
226.963
227.114
227.27
227.433
227.602
227.775
227.953
228.135
228.323
228.517
228.717
228.922
229.133
229.349
229.571
229.798
230.03
230.267
230.509
230.757
231.01
231.268
231.532
231.801
232.075
232.355
232.641
232.932
233.228
233.528
233.835
234.146
234.462
234.783
235.108
235.439
235.774
236.113
236.456
236.804
237.156
237.512
237.872
238.235
238.602
238.971
239.341
239.713
240.085
240.456
240.825
241.187
241.541
241.879
242.195
242.481
242.724
242.912
242.938
242.809
223
223
223
223
223
223
223
223
223
223
223
223
223
223
223
223
223
223
223
223
223
223
223.019
223.247
224.02
224.888
225.246
225.287
225.134
224.796
224.538
224.418
224.393
224.491
224.743
224.926
224.997
225.031
225.076
225.132
225.168
225.187
225.211
225.258
225.325
225.403
225.481
225.556
225.629
225.706
225.788
225.877
225.971
226.071
226.177
226.289
226.405
226.528
226.657
226.793
226.936
227.083
227.236
227.395
227.56
227.731
227.907
228.087
228.273
228.463
228.66
228.862
229.07
229.284
229.503
229.728
229.959
230.194
230.435
230.68
230.932
231.189
231.451
231.719
231.992
232.271
232.556
232.847
233.143
233.444
233.751
234.064
234.382
234.705
235.033
235.367
235.706
236.05
236.399
236.754
237.113
237.478
237.847
238.222
238.601
238.986
239.374
239.766
240.162
240.562
240.964
241.368
241.771
242.173
242.567
242.954
243.321
243.684
244.006
244.236
244.466
223
223
223
223
223
223
223
223
223
223
223
223
223
223
223
223
223
223
223
223
223
223.001
223.03
223.323
224.155
224.972
225.28
225.287
225.091
224.747
224.517
224.427
224.428
224.577
224.843
225.006
225.063
225.096
225.145
225.2
225.235
225.255
225.285
225.338
225.411
225.491
225.57
225.646
225.721
225.8
225.885
225.977
226.074
226.176
226.283
226.396
226.513
226.637
226.767
226.905
227.049
227.198
227.353
227.514
227.681
227.855
228.033
228.215
228.403
228.596
228.796
229.001
229.212
229.428
229.65
229.878
230.111
230.35
230.594
230.843
231.098
231.358
231.625
231.896
232.174
232.458
232.747
233.042
233.344
233.65
233.963
234.281
234.605
234.935
235.27
235.611
235.957
236.31
236.667
237.031
237.4
237.774
238.155
238.541
238.933
239.331
239.734
240.142
240.555
240.973
241.395
241.82
242.248
242.676
243.102
243.521
243.926
244.326
244.682
244.986
245.261
223
223
223
223
223
223
223
223
223
223
223
223
223
223
223
223
223
223
223
223
223
223.002
223.049
223.425
224.307
225.052
225.308
225.283
225.037
224.696
224.499
224.432
224.465
224.673
224.941
225.084
225.13
225.163
225.215
225.268
225.3
225.321
225.356
225.416
225.493
225.574
225.654
225.73
225.806
225.887
225.976
226.07
226.17
226.274
226.383
226.497
226.616
226.741
226.873
227.012
227.157
227.308
227.464
227.627
227.797
227.972
228.152
228.337
228.527
228.723
228.924
229.132
229.345
229.564
229.789
230.02
230.256
230.498
230.744
230.997
231.255
231.519
231.788
232.064
232.345
232.633
232.927
233.226
233.532
233.844
234.161
234.485
234.814
235.149
235.491
235.838
236.191
236.55
236.915
237.285
237.662
238.045
238.434
238.829
239.229
239.636
240.048
240.466
240.888
241.315
241.746
242.18
242.614
243.048
243.476
243.891
244.292
244.678
245.019
245.268
245.47
223
223
223
223
223
223
223
223
223
223
223
223
223
223
223
223
223
223
223
223
223
223.004
223.08
223.554
224.466
225.121
225.321
225.272
224.978
224.649
224.486
224.441
224.512
224.77
225.027
225.15
225.191
225.228
225.283
225.333
225.361
225.384
225.424
225.49
225.57
225.652
225.73
225.806
225.884
225.968
226.059
226.157
226.259
226.366
226.477
226.592
226.712
226.839
226.972
227.113
227.26
227.412
227.57
227.735
227.906
228.083
228.265
228.451
228.644
228.842
229.046
229.256
229.472
229.693
229.921
230.154
230.393
230.637
230.887
231.142
231.403
231.67
231.943
232.222
232.507
232.799
233.096
233.4
233.71
234.026
234.348
234.676
235.01
235.35
235.696
236.049
236.407
236.771
237.141
237.518
237.9
238.289
238.683
239.084
239.489
239.901
240.317
240.738
241.162
241.589
242.017
242.447
242.871
243.288
243.691
244.081
244.434
244.754
245.016
245.179
245.269
223
223
223
223
223
223
223
223
223
223
223
223
223
223
223
223
223
223
223
223
223
223.007
223.128
223.707
224.624
225.18