/*--------------------------------*- C++ -*----------------------------------*\
| =========                 |                                                 |
| \\      /  F ield         | OpenFOAM: The Open Source CFD Toolbox           |
|  \\    /   O peration     | Version:  2406                                  |
|   \\  /    A nd           | Website:  www.openfoam.com                      |
|    \\/     M anipulation  |                                                 |
\*---------------------------------------------------------------------------*/
FoamFile
{
    version     2.0;
    format      ascii;
    arch        "LSB;label=32;scalar=64";
    class       volVectorField;
    location    "0.024";
    object      U;
}
// * * * * * * * * * * * * * * * * * * * * * * * * * * * * * * * * * * * * * //

dimensions      [0 1 -1 0 0 0 0];

internalField   nonuniform List<vector> 
78650
(
(209.919 0.0416033 0)
(209.312 0.289531 0)
(207.884 1.00702 0)
(206.559 1.77672 0)
(205.865 2.22102 0)
(205.892 2.32006 0)
(206.321 2.2038 0)
(207.378 1.79964 0)
(208.581 1.35458 0)
(209.714 1.11357 0)
(210.633 0.897277 0)
(211.438 0.841246 0)
(212.046 0.907604 0)
(212.407 1.12941 0)
(212.674 1.43502 0)
(212.971 1.77721 0)
(213.399 2.10379 0)
(213.908 2.42055 0)
(214.42 2.76358 0)
(214.873 3.17229 0)
(215.283 3.63837 0)
(215.681 4.14047 0)
(216.065 4.66845 0)
(216.422 5.21982 0)
(216.748 5.79304 0)
(217.045 6.39173 0)
(217.323 7.02056 0)
(217.586 7.6853 0)
(217.83 8.3897 0)
(218.063 9.13178 0)
(218.283 9.90804 0)
(218.479 10.7166 0)
(218.651 11.5557 0)
(218.805 12.4258 0)
(218.945 13.3289 0)
(219.069 14.2674 0)
(219.174 15.2407 0)
(219.265 16.2436 0)
(219.346 17.2723 0)
(219.417 18.3272 0)
(219.477 19.41 0)
(219.528 20.5222 0)
(219.573 21.6638 0)
(219.616 22.8342 0)
(219.658 24.0322 0)
(219.701 25.2581 0)
(219.746 26.5127 0)
(219.793 27.7968 0)
(219.844 29.1102 0)
(219.902 30.4524 0)
(219.976 31.8229 0)
(220.066 33.2212 0)
(220.172 34.6483 0)
(220.307 36.1064 0)
(220.462 37.5973 0)
(220.645 39.122 0)
(220.866 40.6808 0)
(221.118 42.2743 0)
(221.415 43.9033 0)
(221.766 45.5673 0)
(222.162 47.2654 0)
(222.624 48.9979 0)
(223.163 50.7635 0)
(223.764 52.5608 0)
(224.454 54.3899 0)
(225.243 56.248 0)
(226.118 58.1327 0)
(227.115 60.0402 0)
(228.229 61.9651 0)
(229.458 63.9049 0)
(230.842 65.8546 0)
(232.368 67.8092 0)
(234.034 69.7662 0)
(235.887 71.7108 0)
(237.902 73.6324 0)
(240.095 75.5251 0)
(242.495 77.3847 0)
(245.083 79.2033 0)
(247.875 80.9561 0)
(250.901 82.6197 0)
(254.135 84.218 0)
(257.612 85.7153 0)
(261.298 87.0888 0)
(265.175 88.2954 0)
(269.215 89.3588 0)
(273.413 90.2986 0)
(277.908 91.0889 0)
(282.973 91.6188 0)
(288.174 91.8991 0)
(292.974 92.0536 0)
(297.15 92.1801 0)
(301.486 92.2137 0)
(307.05 91.9418 0)
(312.821 91.211 0)
(317.813 90.3401 0)
(321.972 89.7474 0)
(326.432 88.9439 0)
(331.055 88.03 0)
(335.698 86.878 0)
(339.913 85.6871 0)
(344.765 84.0033 0)
(348.522 82.6057 0)
(353.072 80.8444 0)
(356.4 79.6169 0)
(360.423 77.8646 0)
(363.339 76.6327 0)
(366.738 74.9608 0)
(369.198 74.1306 0)
(372.183 72.8579 0)
(374.337 72.3916 0)
(377.08 71.2585 0)
(378.984 70.74 0)
(381.076 69.6214 0)
(382.087 69.0572 0)
(382.625 68.1116 0)
(382.828 67.8171 0)
(383.827 67.3447 0)
(385.783 67.0768 0)
(388.581 66.7149 0)
(392.098 66.3876 0)
(393.335 68.2571 0)
(209.951 0.0222227 0)
(209.494 0.199068 0)
(208.17 0.827629 0)
(206.69 1.64358 0)
(205.82 2.1511 0)
(205.795 2.27133 0)
(206.051 2.23521 0)
(207.021 1.928 0)
(208.24 1.48613 0)
(209.389 1.22202 0)
(210.312 0.985831 0)
(211.13 0.910453 0)
(211.751 0.94521 0)
(212.116 1.1486 0)
(212.365 1.44931 0)
(212.633 1.79866 0)
(213.025 2.1402 0)
(213.503 2.46887 0)
(214.002 2.80846 0)
(214.446 3.20681 0)
(214.84 3.66206 0)
(215.219 4.15366 0)
(215.583 4.67012 0)
(215.922 5.20952 0)
(216.229 5.77129 0)
(216.507 6.35891 0)
(216.767 6.97706 0)
(217.009 7.63205 0)
(217.234 8.32729 0)
(217.449 9.06045 0)
(217.649 9.82831 0)
(217.823 10.6282 0)
(217.973 11.4577 0)
(218.107 12.3171 0)
(218.225 13.2086 0)
(218.323 14.1345 0)
(218.402 15.0937 0)
(218.467 16.0814 0)
(218.519 17.0943 0)
(218.559 18.1327 0)
(218.588 19.198 0)
(218.606 20.2925 0)
(218.616 21.417 0)
(218.621 22.5704 0)
(218.623 23.7516 0)
(218.625 24.9602 0)
(218.627 26.1971 0)
(218.629 27.4633 0)
(218.632 28.7581 0)
(218.639 30.0822 0)
(218.659 31.4348 0)
(218.689 32.8156 0)
(218.733 34.225 0)
(218.801 35.6657 0)
(218.886 37.1391 0)
(218.993 38.6471 0)
(219.133 40.19 0)
(219.297 41.7685 0)
(219.5 43.384 0)
(219.751 45.0363 0)
(220.038 46.7246 0)
(220.385 48.4503 0)
(220.799 50.2123 0)
(221.266 52.0093 0)
(221.815 53.8427 0)
(222.451 55.7102 0)
(223.164 57.6097 0)
(223.99 59.539 0)
(224.921 61.4943 0)
(225.958 63.4744 0)
(227.141 65.475 0)
(228.456 67.4894 0)
(229.903 69.5141 0)
(231.529 71.5392 0)
(233.307 73.5613 0)
(235.259 75.5769 0)
(237.414 77.571 0)
(239.745 79.5245 0)
(242.27 81.4229 0)
(245.014 83.2626 0)
(247.943 85.0564 0)
(251.084 86.7675 0)
(254.412 88.3755 0)
(257.942 89.8538 0)
(261.685 91.2384 0)
(265.726 92.4643 0)
(270.005 93.5562 0)
(274.388 94.4375 0)
(278.614 95.1599 0)
(282.936 95.7635 0)
(287.952 96.1328 0)
(293.46 96.2002 0)
(298.893 96.1756 0)
(303.413 96.1598 0)
(307.995 95.9256 0)
(313.18 95.2837 0)
(318.067 94.5739 0)
(322.776 93.8436 0)
(327.14 93.1415 0)
(331.405 92.3379 0)
(335.787 91.2581 0)
(339.729 90.3606 0)
(343.995 89.1392 0)
(347.73 88.0751 0)
(351.78 86.5834 0)
(355.173 85.3677 0)
(358.912 83.8779 0)
(361.85 82.9159 0)
(365.276 81.5648 0)
(367.827 80.655 0)
(370.748 79.2987 0)
(373.03 78.3339 0)
(375.457 77.0778 0)
(377.322 76.242 0)
(379.156 75.1134 0)
(380.354 74.3175 0)
(381.609 73.3222 0)
(383.072 72.8344 0)
(385.612 72.3151 0)
(389.366 71.9455 0)
(391.093 73.6872 0)
(209.974 0.0120683 0)
(209.65 0.129499 0)
(208.483 0.65479 0)
(206.887 1.48741 0)
(205.808 2.05967 0)
(205.707 2.22054 0)
(205.812 2.2607 0)
(206.657 2.04345 0)
(207.868 1.60237 0)
(209.032 1.31049 0)
(209.965 1.05192 0)
(210.801 0.957126 0)
(211.441 0.957766 0)
(211.818 1.14445 0)
(212.054 1.44362 0)
(212.295 1.80308 0)
(212.649 2.16273 0)
(213.09 2.50552 0)
(213.573 2.84186 0)
(214.008 3.22827 0)
(214.388 3.67127 0)
(214.747 4.15182 0)
(215.092 4.6568 0)
(215.412 5.18469 0)
(215.7 5.73592 0)
(215.96 6.31381 0)
(216.201 6.92303 0)
(216.424 7.57021 0)
(216.629 8.25821 0)
(216.826 8.98447 0)
(217.005 9.74588 0)
(217.157 10.5388 0)
(217.287 11.3603 0)
(217.399 12.2108 0)
(217.493 13.0923 0)
(217.566 14.0073 0)
(217.619 14.9537 0)
(217.655 15.9276 0)
(217.678 16.9268 0)
(217.687 17.9505 0)
(217.684 19 0)
(217.668 20.079 0)
(217.642 21.1885 0)
(217.608 22.3277 0)
(217.57 23.495 0)
(217.53 24.6895 0)
(217.488 25.9123 0)
(217.443 27.1645 0)
(217.398 28.4449 0)
(217.354 29.7545 0)
(217.318 31.093 0)
(217.289 32.46 0)
(217.273 33.8549 0)
(217.276 35.2813 0)
(217.29 36.7401 0)
(217.324 38.2334 0)
(217.385 39.7622 0)
(217.464 41.3267 0)
(217.579 42.9289 0)
(217.733 44.5686 0)
(217.917 46.245 0)
(218.156 47.96 0)
(218.452 49.7124 0)
(218.795 51.501 0)
(219.212 53.3277 0)
(219.705 55.1907 0)
(220.266 57.0883 0)
(220.93 59.0197 0)
(221.685 60.9809 0)
(222.536 62.97 0)
(223.522 64.9845 0)
(224.622 67.0205 0)
(225.843 69.077 0)
(227.229 71.1458 0)
(228.749 73.2213 0)
(230.431 75.2982 0)
(232.3 77.365 0)
(234.328 79.4141 0)
(236.547 81.4441 0)
(238.985 83.4505 0)
(241.61 85.4219 0)
(244.455 87.3136 0)
(247.518 89.1126 0)
(250.813 90.8199 0)
(254.308 92.4653 0)
(258.002 93.9798 0)
(261.812 95.4032 0)
(265.86 96.634 0)
(270.235 97.6462 0)
(275.03 98.4571 0)
(279.956 99.1282 0)
(284.485 99.6057 0)
(288.631 100.019 0)
(293.226 100.23 0)
(298.593 100.255 0)
(303.993 100.081 0)
(309.097 99.7267 0)
(314.214 99.1495 0)
(319.398 98.2585 0)
(324.088 97.3663 0)
(328.963 96.3493 0)
(333.209 95.5429 0)
(337.469 94.645 0)
(341.469 93.6992 0)
(345.269 92.6993 0)
(348.926 91.7477 0)
(352.451 90.7459 0)
(355.596 89.9395 0)
(358.869 88.7152 0)
(361.557 87.7787 0)
(364.62 86.37 0)
(367.081 85.4824 0)
(370.012 84.1808 0)
(372.104 83.3329 0)
(374.176 82.0746 0)
(375.483 81.2791 0)
(376.982 80.1879 0)
(378.708 79.6053 0)
(381.484 79.009 0)
(385.929 78.3545 0)
(387.669 80.6307 0)
(209.986 0.00565183 0)
(209.774 0.0774978 0)
(208.796 0.489425 0)
(207.137 1.30174 0)
(205.832 1.9405 0)
(205.625 2.16485 0)
(205.606 2.27678 0)
(206.295 2.14622 0)
(207.479 1.72175 0)
(208.661 1.40707 0)
(209.608 1.12844 0)
(210.465 1.01654 0)
(211.123 0.991547 0)
(211.515 1.16487 0)
(211.741 1.46136 0)
(211.959 1.8246 0)
(212.275 2.19545 0)
(212.671 2.54875 0)
(213.131 2.8803 0)
(213.555 3.25158 0)
(213.921 3.67934 0)
(214.261 4.14732 0)
(214.586 4.6405 0)
(214.887 5.15705 0)
(215.155 5.69791 0)
(215.397 6.26591 0)
(215.62 6.86567 0)
(215.823 7.50388 0)
(216.011 8.18271 0)
(216.189 8.89991 0)
(216.347 9.65239 0)
(216.477 10.4355 0)
(216.587 11.2461 0)
(216.679 12.0845 0)
(216.75 12.9531 0)
(216.798 13.8539 0)
(216.826 14.784 0)
(216.835 15.7411 0)
(216.828 16.7234 0)
(216.808 17.7289 0)
(216.776 18.7585 0)
(216.728 19.8187 0)
(216.668 20.9104 0)
(216.598 22.0314 0)
(216.522 23.1801 0)
(216.442 24.3559 0)
(216.358 25.5598 0)
(216.27 26.7927 0)
(216.18 28.0524 0)
(216.089 29.3411 0)
(216.001 30.6584 0)
(215.916 32.0055 0)
(215.843 33.3795 0)
(215.782 34.7855 0)
(215.729 36.2235 0)
(215.695 37.6959 0)
(215.678 39.2042 0)
(215.676 40.7484 0)
(215.704 42.3314 0)
(215.764 43.9528 0)
(215.847 45.6121 0)
(215.979 47.3123 0)
(216.158 49.052 0)
(216.375 50.8303 0)
(216.661 52.6502 0)
(217.01 54.5103 0)
(217.418 56.4095 0)
(217.919 58.3483 0)
(218.499 60.3229 0)
(219.166 62.3331 0)
(219.959 64.3782 0)
(220.851 66.4527 0)
(221.858 68.5544 0)
(223.021 70.6778 0)
(224.305 72.82 0)
(225.745 74.9785 0)
(227.363 77.1409 0)
(229.13 79.2974 0)
(231.085 81.4444 0)
(233.244 83.5712 0)
(235.571 85.6598 0)
(238.105 87.6839 0)
(240.843 89.6543 0)
(243.784 91.5874 0)
(246.928 93.4787 0)
(250.315 95.2483 0)
(253.904 96.9024 0)
(257.783 98.3715 0)
(261.857 99.7264 0)
(266.056 100.902 0)
(270.243 101.971 0)
(274.642 102.92 0)
(279.651 103.679 0)
(284.887 104.14 0)
(290.154 104.454 0)
(294.628 104.683 0)
(299.415 104.646 0)
(304.141 104.545 0)
(309.377 104.202 0)
(314.107 103.804 0)
(319.442 103.115 0)
(324.219 102.219 0)
(329.27 101.013 0)
(333.955 99.7061 0)
(338.481 98.3779 0)
(342.819 97.1245 0)
(346.963 95.8831 0)
(350.634 94.8032 0)
(354.39 93.5062 0)
(357.513 92.5648 0)
(360.986 91.3116 0)
(363.792 90.6402 0)
(367.078 89.563 0)
(369.42 88.9906 0)
(371.72 87.8838 0)
(372.997 87.1927 0)
(374.203 86.0503 0)
(375.502 85.6558 0)
(378.162 85.2848 0)
(382.729 84.9179 0)
(384.337 88.0083 0)
(209.994 0.00242972 0)
(209.866 0.0422902 0)
(209.099 0.342288 0)
(207.469 1.09329 0)
(205.952 1.80065 0)
(205.556 2.10759 0)
(205.422 2.28007 0)
(205.934 2.21988 0)
(207.063 1.82952 0)
(208.256 1.49197 0)
(209.221 1.18728 0)
(210.1 1.05157 0)
(210.782 1.00114 0)
(211.201 1.16357 0)
(211.424 1.46062 0)
(211.621 1.82979 0)
(211.895 2.21294 0)
(212.24 2.57771 0)
(212.669 2.90538 0)
(213.082 3.2596 0)
(213.436 3.67012 0)
(213.757 4.1245 0)
(214.063 4.60555 0)
(214.344 5.11072 0)
(214.594 5.64148 0)
(214.818 6.20035 0)
(215.022 6.79216 0)
(215.206 7.42317 0)
(215.375 8.09475 0)
(215.534 8.80502 0)
(215.669 9.55038 0)
(215.778 10.3252 0)
(215.867 11.1261 0)
(215.937 11.9536 0)
(215.984 12.8107 0)
(216.007 13.6977 0)
(216.009 14.612 0)
(215.989 15.5536 0)
(215.951 16.5197 0)
(215.901 17.508 0)
(215.836 18.522 0)
(215.756 19.5647 0)
(215.66 20.6384 0)
(215.553 21.7425 0)
(215.438 22.8752 0)
(215.317 24.0354 0)
(215.19 25.2229 0)
(215.058 26.4376 0)
(214.921 27.681 0)
(214.782 28.9525 0)
(214.642 30.2529 0)
(214.499 31.5839 0)
(214.368 32.9391 0)
(214.244 34.3273 0)
(214.125 35.747 0)
(214.022 37.2009 0)
(213.93 38.6911 0)
(213.849 40.2165 0)
(213.794 41.7811 0)
(213.763 43.384 0)
(213.75 45.0249 0)
(213.782 46.7077 0)
(213.851 48.4301 0)
(213.952 50.1917 0)
(214.115 51.9962 0)
(214.331 53.8415 0)
(214.598 55.7273 0)
(214.95 57.6548 0)
(215.366 59.6201 0)
(215.861 61.6242 0)
(216.469 63.6663 0)
(217.162 65.7415 0)
(217.96 67.851 0)
(218.896 69.9924 0)
(219.936 72.1613 0)
(221.123 74.3533 0)
(222.47 76.5581 0)
(223.949 78.7742 0)
(225.607 81.0051 0)
(227.452 83.2364 0)
(229.459 85.45 0)
(231.679 87.6387 0)
(234.111 89.8148 0)
(236.752 91.9649 0)
(239.612 94.0439 0)
(242.703 96.0043 0)
(245.967 97.8852 0)
(249.453 99.647 0)
(253.065 101.37 0)
(256.98 102.953 0)
(261.223 104.382 0)
(265.75 105.575 0)
(270.458 106.669 0)
(274.963 107.543 0)
(279.29 108.332 0)
(284.084 108.913 0)
(289.412 109.285 0)
(294.335 109.448 0)
(299.46 109.438 0)
(304.196 109.352 0)
(308.925 109.14 0)
(313.769 108.705 0)
(318.335 108.187 0)
(323.057 107.56 0)
(327.621 106.896 0)
(332.152 106.094 0)
(336.741 105.028 0)
(340.969 103.868 0)
(345.314 102.515 0)
(348.996 101.404 0)
(353.033 100.072 0)
(356.186 99.1848 0)
(359.928 97.9326 0)
(362.533 97.1519 0)
(365.271 95.8325 0)
(367.015 94.8177 0)
(368.754 93.4537 0)
(370.574 92.7439 0)
(373.615 92.1443 0)
(378.211 91.7723 0)
(380.05 94.028 0)
(209.997 0.000890032 0)
(209.928 0.0204753 0)
(209.372 0.219521 0)
(207.858 0.870112 0)
(206.137 1.63097 0)
(205.496 2.05713 0)
(205.258 2.23712 0)
(205.596 2.25914 0)
(206.635 1.93908 0)
(207.829 1.58188 0)
(208.814 1.24894 0)
(209.721 1.10596 0)
(210.432 1.04547 0)
(210.882 1.19671 0)
(211.105 1.48503 0)
(211.283 1.84749 0)
(211.513 2.23106 0)
(211.8 2.60162 0)
(212.188 2.92623 0)
(212.587 3.26339 0)
(212.93 3.65678 0)
(213.233 4.09852 0)
(213.519 4.56933 0)
(213.781 5.06512 0)
(214.012 5.58714 0)
(214.218 6.13731 0)
(214.403 6.72059 0)
(214.568 7.34241 0)
(214.721 8.00394 0)
(214.859 8.70417 0)
(214.971 9.4389 0)
(215.059 10.2018 0)
(215.129 10.9896 0)
(215.177 11.8033 0)
(215.2 12.645 0)
(215.2 13.5118 0)
(215.174 14.4104 0)
(215.125 15.3348 0)
(215.061 16.2805 0)
(214.981 17.2484 0)
(214.886 18.2413 0)
(214.775 19.2631 0)
(214.646 20.3161 0)
(214.503 21.3998 0)
(214.351 22.5122 0)
(214.191 23.6515 0)
(214.025 24.8174 0)
(213.852 26.0108 0)
(213.671 27.2318 0)
(213.485 28.4811 0)
(213.296 29.7589 0)
(213.106 31.0627 0)
(212.92 32.3952 0)
(212.733 33.762 0)
(212.552 35.1565 0)
(212.383 36.5842 0)
(212.218 38.05 0)
(212.063 39.5501 0)
(211.928 41.0902 0)
(211.809 42.6693 0)
(211.704 44.2864 0)
(211.636 45.9471 0)
(211.596 47.6483 0)
(211.582 49.3901 0)
(211.622 51.1776 0)
(211.704 53.0081 0)
(211.83 54.8825 0)
(212.03 56.8031 0)
(212.281 58.7656 0)
(212.606 60.7724 0)
(213.03 62.8239 0)
(213.524 64.9148 0)
(214.118 67.0471 0)
(214.838 69.2179 0)
(215.649 71.4222 0)
(216.601 73.66 0)
(217.697 75.9256 0)
(218.912 78.2169 0)
(220.302 80.5282 0)
(221.865 82.839 0)
(223.578 85.141 0)
(225.493 87.4419 0)
(227.595 89.7427 0)
(229.881 92.0147 0)
(232.376 94.2247 0)
(235.084 96.3708 0)
(237.985 98.4922 0)
(241.159 100.559 0)
(244.554 102.568 0)
(248.24 104.39 0)
(252.052 106.112 0)
(256.034 107.665 0)
(260.116 109.075 0)
(264.49 110.402 0)
(269.35 111.6 0)
(274.306 112.459 0)
(279.452 113.242 0)
(284.292 113.782 0)
(289.495 114.189 0)
(294.642 114.308 0)
(299.758 114.207 0)
(305.036 113.904 0)
(309.769 113.627 0)
(314.652 113.246 0)
(319.239 112.852 0)
(323.495 112.431 0)
(327.929 111.774 0)
(331.956 111.114 0)
(336.086 110.245 0)
(339.842 109.541 0)
(343.752 108.568 0)
(347.118 107.859 0)
(350.935 106.665 0)
(353.913 105.806 0)
(357.041 104.448 0)
(359.134 103.382 0)
(361.142 101.884 0)
(363.054 100.86 0)
(366.287 99.9689 0)
(371.966 99.2585 0)
(374.06 102.299 0)
(209.999 0.000283497 0)
(209.965 0.00864505 0)
(209.599 0.127159 0)
(208.283 0.647534 0)
(206.446 1.43657 0)
(205.485 1.96654 0)
(205.103 2.16621 0)
(205.304 2.27665 0)
(206.199 2.0368 0)
(207.364 1.65066 0)
(208.376 1.28704 0)
(209.317 1.14612 0)
(210.062 1.08432 0)
(210.551 1.22065 0)
(210.778 1.49452 0)
(210.938 1.84647 0)
(211.125 2.22623 0)
(211.349 2.60135 0)
(211.689 2.92596 0)
(212.071 3.24686 0)
(212.404 3.62252 0)
(212.691 4.05061 0)
(212.959 4.5102 0)
(213.202 4.9958 0)
(213.414 5.50881 0)
(213.603 6.05122 0)
(213.769 6.62797 0)
(213.915 7.24286 0)
(214.05 7.89687 0)
(214.166 8.58922 0)
(214.254 9.31472 0)
(214.321 10.0668 0)
(214.37 10.8423 0)
(214.394 11.6426 0)
(214.394 12.4654 0)
(214.365 13.3195 0)
(214.31 14.2008 0)
(214.235 15.1055 0)
(214.141 16.0326 0)
(214.031 16.9819 0)
(213.904 17.9557 0)
(213.76 18.9579 0)
(213.597 19.9912 0)
(213.418 21.0557 0)
(213.227 22.1492 0)
(213.028 23.2699 0)
(212.82 24.4169 0)
(212.603 25.5905 0)
(212.378 26.7914 0)
(212.145 28.0201 0)
(211.906 29.2767 0)
(211.662 30.5618 0)
(211.418 31.8755 0)
(211.174 33.2176 0)
(210.933 34.5899 0)
(210.697 35.9956 0)
(210.459 37.4414 0)
(210.231 38.9166 0)
(210.018 40.4312 0)
(209.812 41.9867 0)
(209.621 43.5788 0)
(209.458 45.2155 0)
(209.315 46.8929 0)
(209.195 48.61 0)
(209.121 50.3738 0)
(209.078 52.1799 0)
(209.075 54.0305 0)
(209.136 55.9281 0)
(209.236 57.8681 0)
(209.404 59.8548 0)
(209.658 61.888 0)
(209.967 63.9624 0)
(210.37 66.0821 0)
(210.88 68.2461 0)
(211.465 70.4505 0)
(212.181 72.6974 0)
(213.02 74.9802 0)
(213.965 77.295 0)
(215.075 79.6396 0)
(216.337 82.005 0)
(217.736 84.3965 0)
(219.327 86.8176 0)
(221.093 89.2469 0)
(223.045 91.6505 0)
(225.217 94.0181 0)
(227.6 96.3668 0)
(230.182 98.7088 0)
(233.001 101.002 0)
(236.006 103.224 0)
(239.26 105.308 0)
(242.66 107.334 0)
(246.383 109.214 0)
(250.331 111.036 0)
(254.532 112.652 0)
(258.869 114.127 0)
(263.272 115.39 0)
(267.712 116.549 0)
(272.447 117.568 0)
(277.239 118.399 0)
(282.428 119.086 0)
(287.423 119.553 0)
(292.691 119.888 0)
(298.058 119.967 0)
(303.211 119.801 0)
(308.909 119.271 0)
(313.691 118.638 0)
(319.19 117.781 0)
(323.749 117.038 0)
(328.728 116.026 0)
(332.962 115.252 0)
(337.485 114.224 0)
(341.197 113.567 0)
(345.495 112.484 0)
(348.927 111.702 0)
(352.579 110.466 0)
(354.973 109.627 0)
(357.085 108.409 0)
(358.926 107.823 0)
(362.14 107.333 0)
(367.78 107.047 0)
(369.628 110.874 0)
(210 7.42109e-05 0)
(209.985 0.00308258 0)
(209.769 0.0649263 0)
(208.718 0.443562 0)
(206.833 1.20129 0)
(205.539 1.83746 0)
(204.964 2.09525 0)
(205.062 2.27027 0)
(205.758 2.09547 0)
(206.871 1.71532 0)
(207.924 1.34958 0)
(208.909 1.22451 0)
(209.684 1.15552 0)
(210.209 1.26185 0)
(210.444 1.50954 0)
(210.586 1.84442 0)
(210.734 2.21086 0)
(210.894 2.58469 0)
(211.176 2.9126 0)
(211.535 3.22217 0)
(211.859 3.584 0)
(212.131 4.00279 0)
(212.38 4.45624 0)
(212.603 4.93595 0)
(212.797 5.44193 0)
(212.968 5.9763 0)
(213.114 6.54388 0)
(213.244 7.14766 0)
(213.36 7.78982 0)
(213.452 8.46967 0)
(213.517 9.18142 0)
(213.565 9.9186 0)
(213.592 10.6784 0)
(213.594 11.459 0)
(213.567 12.2656 0)
(213.512 13.1006 0)
(213.433 13.9605 0)
(213.33 14.8441 0)
(213.208 15.7494 0)
(213.069 16.6765 0)
(212.913 17.6278 0)
(212.738 18.607 0)
(212.543 19.6172 0)
(212.33 20.6587 0)
(212.103 21.7294 0)
(211.866 22.8271 0)
(211.619 23.9505 0)
(211.363 25.0999 0)
(211.096 26.276 0)
(210.819 27.4794 0)
(210.534 28.71 0)
(210.242 29.9679 0)
(209.946 31.2536 0)
(209.647 32.5686 0)
(209.346 33.9143 0)
(209.045 35.2931 0)
(208.746 36.7045 0)
(208.45 38.1516 0)
(208.162 39.6359 0)
(207.87 41.1654 0)
(207.597 42.7257 0)
(207.342 44.3306 0)
(207.096 45.9797 0)
(206.874 47.6678 0)
(206.686 49.4052 0)
(206.519 51.1859 0)
(206.388 53.0131 0)
(206.307 54.89 0)
(206.255 56.8114 0)
(206.266 58.7841 0)
(206.348 60.8069 0)
(206.472 62.8751 0)
(206.684 64.9953 0)
(206.987 67.1646 0)
(207.355 69.3783 0)
(207.848 71.6414 0)
(208.444 73.9473 0)
(209.135 76.2946 0)
(209.983 78.6835 0)
(210.962 81.105 0)
(212.069 83.558 0)
(213.357 86.0343 0)
(214.801 88.512 0)
(216.416 90.9854 0)
(218.234 93.473 0)
(220.239 95.9876 0)
(222.436 98.5111 0)
(224.867 100.992 0)
(227.505 103.407 0)
(230.398 105.74 0)
(233.5 108.043 0)
(236.906 110.232 0)
(240.419 112.385 0)
(244.196 114.36 0)
(248.117 116.281 0)
(252.354 118.028 0)
(256.859 119.652 0)
(261.58 121.079 0)
(266.243 122.234 0)
(271.307 123.255 0)
(275.94 124.108 0)
(280.955 124.853 0)
(285.884 125.406 0)
(290.548 125.808 0)
(295.83 125.931 0)
(300.519 126.035 0)
(305.716 125.92 0)
(310.425 125.817 0)
(315.529 125.371 0)
(320.042 124.902 0)
(325.085 124.046 0)
(329.21 123.411 0)
(334.126 122.468 0)
(337.99 121.716 0)
(342.218 120.495 0)
(345.197 119.413 0)
(347.811 118.002 0)
(350.02 117.273 0)
(353.515 116.657 0)
(359.258 116.279 0)
(361.186 119.779 0)
(210 1.56745e-05 0)
(209.995 0.000892769 0)
(209.882 0.0285846 0)
(209.119 0.273595 0)
(207.321 0.947656 0)
(205.712 1.66885 0)
(204.87 2.03842 0)
(204.876 2.18868 0)
(205.333 2.10486 0)
(206.353 1.77834 0)
(207.452 1.42901 0)
(208.48 1.30554 0)
(209.279 1.21466 0)
(209.841 1.27914 0)
(210.097 1.50093 0)
(210.226 1.82394 0)
(210.343 2.17531 0)
(210.443 2.54242 0)
(210.655 2.87254 0)
(210.984 3.16943 0)
(211.3 3.51466 0)
(211.562 3.92261 0)
(211.793 4.36994 0)
(211.998 4.84519 0)
(212.175 5.34666 0)
(212.325 5.87659 0)
(212.452 6.43831 0)
(212.563 7.03378 0)
(212.657 7.66609 0)
(212.724 8.334 0)
(212.767 9.03215 0)
(212.795 9.75408 0)
(212.798 10.4965 0)
(212.774 11.2598 0)
(212.721 12.0494 0)
(212.64 12.8642 0)
(212.534 13.704 0)
(212.403 14.5664 0)
(212.252 15.4504 0)
(212.083 16.3561 0)
(211.896 17.2859 0)
(211.689 18.2433 0)
(211.461 19.2315 0)
(211.213 20.2512 0)
(210.949 21.3005 0)
(210.673 22.3768 0)
(210.386 23.4786 0)
(210.088 24.6058 0)
(209.778 25.7589 0)
(209.456 26.9387 0)
(209.123 28.1454 0)
(208.78 29.3793 0)
(208.43 30.6407 0)
(208.075 31.9305 0)
(207.716 33.2499 0)
(207.353 34.6009 0)
(206.988 35.9858 0)
(206.622 37.4058 0)
(206.257 38.8635 0)
(205.895 40.3566 0)
(205.54 41.8889 0)
(205.197 43.4619 0)
(204.85 45.086 0)
(204.533 46.739 0)
(204.237 48.4422 0)
(203.955 50.1904 0)
(203.708 51.9844 0)
(203.498 53.8284 0)
(203.309 55.7161 0)
(203.178 57.6566 0)
(203.102 59.6467 0)
(203.058 61.6827 0)
(203.097 63.7735 0)
(203.206 65.9147 0)
(203.371 68.1045 0)
(203.649 70.351 0)
(204.005 72.6458 0)
(204.447 74.9887 0)
(205.034 77.3822 0)
(205.726 79.8187 0)
(206.536 82.2995 0)
(207.514 84.8209 0)
(208.626 87.3718 0)
(209.903 89.9596 0)
(211.374 92.5895 0)
(213.018 95.2387 0)
(214.852 97.8696 0)
(216.903 100.457 0)
(219.145 103.015 0)
(221.611 105.56 0)
(224.282 108.102 0)
(227.227 110.579 0)
(230.346 113.015 0)
(233.814 115.308 0)
(237.434 117.575 0)
(241.361 119.664 0)
(245.436 121.681 0)
(249.74 123.498 0)
(254.303 125.21 0)
(258.99 126.659 0)
(264.006 127.998 0)
(269.024 129.041 0)
(274.383 129.977 0)
(279.286 130.59 0)
(284.767 131.159 0)
(289.786 131.474 0)
(294.78 131.709 0)
(299.829 131.835 0)
(304.486 131.863 0)
(309.072 131.779 0)
(313.932 131.341 0)
(318.154 131.024 0)
(322.838 130.49 0)
(326.91 130.198 0)
(331.371 129.488 0)
(334.849 128.668 0)
(337.895 127.308 0)
(340.357 126.393 0)
(344.106 125.755 0)
(350.875 125.411 0)
(352.781 129.947 0)
(210 2.33208e-06 0)
(209.998 0.000192554 0)
(209.947 0.0105109 0)
(209.455 0.148619 0)
(207.872 0.690608 0)
(205.988 1.45974 0)
(204.834 1.93134 0)
(204.734 2.07573 0)
(204.954 2.08309 0)
(205.835 1.87006 0)
(206.965 1.53352 0)
(208.032 1.38881 0)
(208.854 1.26957 0)
(209.452 1.29273 0)
(209.741 1.48984 0)
(209.861 1.79567 0)
(209.949 2.1266 0)
(209.997 2.48194 0)
(210.135 2.82227 0)
(210.418 3.12357 0)
(210.723 3.4607 0)
(210.975 3.8602 0)
(211.192 4.3016 0)
(211.38 4.7716 0)
(211.54 5.26624 0)
(211.671 5.78763 0)
(211.779 6.33766 0)
(211.87 6.91926 0)
(211.939 7.53647 0)
(211.982 8.18803 0)
(212.006 8.86817 0)
(212.013 9.56975 0)
(211.989 10.295 0)
(211.94 11.0397 0)
(211.863 11.8075 0)
(211.757 12.6004 0)
(211.624 13.4174 0)
(211.467 14.2565 0)
(211.289 15.1168 0)
(211.091 15.9989 0)
(210.875 16.9048 0)
(210.638 17.8378 0)
(210.38 18.8009 0)
(210.099 19.7954 0)
(209.8 20.8196 0)
(209.488 21.8708 0)
(209.163 22.9469 0)
(208.827 24.0475 0)
(208.478 25.1732 0)
(208.114 26.3247 0)
(207.737 27.5024 0)
(207.348 28.7065 0)
(206.949 29.9373 0)
(206.543 31.1958 0)
(206.129 32.4834 0)
(205.709 33.8018 0)
(205.284 35.1526 0)
(204.853 36.5379 0)
(204.42 37.9591 0)
(203.985 39.4182 0)
(203.551 40.9162 0)
(203.118 42.4555 0)
(202.694 44.0331 0)
(202.28 45.6543 0)
(201.878 47.3211 0)
(201.48 49.0374 0)
(201.118 50.7939 0)
(200.776 52.6031 0)
(200.452 54.4577 0)
(200.179 56.3689 0)
(199.942 58.3311 0)
(199.733 60.3414 0)
(199.597 62.4117 0)
(199.511 64.5341 0)
(199.477 66.7095 0)
(199.545 68.9456 0)
(199.67 71.2314 0)
(199.878 73.5719 0)
(200.216 75.9718 0)
(200.635 78.4206 0)
(201.168 80.9193 0)
(201.852 83.4638 0)
(202.652 86.0467 0)
(203.604 88.6777 0)
(204.727 91.3502 0)
(205.997 94.0384 0)
(207.447 96.7308 0)
(209.105 99.4377 0)
(210.95 102.178 0)
(213.016 104.943 0)
(215.306 107.694 0)
(217.846 110.374 0)
(220.572 113.002 0)
(223.594 115.547 0)
(226.733 118.089 0)
(230.195 120.488 0)
(233.771 122.84 0)
(237.669 124.998 0)
(241.726 127.085 0)
(246.041 129.001 0)
(250.611 130.885 0)
(255.153 132.381 0)
(260.234 133.983 0)
(265.051 135.226 0)
(270.331 136.451 0)
(275.747 137.287 0)
(280.985 137.799 0)
(286.762 138.264 0)
(292.02 138.472 0)
(297.348 138.508 0)
(302.946 138.261 0)
(307.88 137.822 0)
(313.336 137.288 0)
(318.067 136.885 0)
(323.005 136.327 0)
(326.921 135.687 0)
(330.46 134.488 0)
(333.243 133.493 0)
(336.989 132.893 0)
(343.474 132.87 0)
(345.207 137.063 0)
(210 1.24579e-07 0)
(210 2.24813e-05 0)
(209.98 0.00308328 0)
(209.7 0.0693917 0)
(208.438 0.456123 0)
(206.408 1.20911 0)
(204.889 1.75136 0)
(204.633 1.97234 0)
(204.63 2.059 0)
(205.326 1.94219 0)
(206.449 1.61241 0)
(207.551 1.43977 0)
(208.402 1.30342 0)
(209.039 1.29184 0)
(209.377 1.46234 0)
(209.502 1.73502 0)
(209.557 2.04837 0)
(209.568 2.38416 0)
(209.639 2.7384 0)
(209.86 3.04959 0)
(210.15 3.38117 0)
(210.392 3.77565 0)
(210.593 4.21429 0)
(210.764 4.68057 0)
(210.906 5.16856 0)
(211.015 5.68075 0)
(211.104 6.21824 0)
(211.171 6.78576 0)
(211.213 7.38741 0)
(211.234 8.02149 0)
(211.242 8.67947 0)
(211.218 9.36676 0)
(211.17 10.0713 0)
(211.097 10.7956 0)
(210.995 11.5423 0)
(210.864 12.3133 0)
(210.704 13.1077 0)
(210.52 13.9238 0)
(210.314 14.7609 0)
(210.087 15.62 0)
(209.841 16.5029 0)
(209.574 17.4125 0)
(209.284 18.3518 0)
(208.97 19.3222 0)
(208.635 20.3223 0)
(208.284 21.3495 0)
(207.921 22.4012 0)
(207.545 23.4767 0)
(207.154 24.5764 0)
(206.748 25.7011 0)
(206.326 26.8513 0)
(205.89 28.0274 0)
(205.441 29.2297 0)
(204.982 30.4588 0)
(204.513 31.7162 0)
(204.036 33.0034 0)
(203.549 34.3223 0)
(203.055 35.6747 0)
(202.553 37.0621 0)
(202.047 38.4857 0)
(201.536 39.9473 0)
(201.024 41.4484 0)
(200.513 42.9908 0)
(200.005 44.5754 0)
(199.504 46.2029 0)
(199.014 47.872 0)
(198.543 49.5887 0)
(198.077 51.3584 0)
(197.632 53.1695 0)
(197.23 55.0339 0)
(196.845 56.951 0)
(196.491 58.9151 0)
(196.197 60.9418 0)
(195.935 63.0189 0)
(195.722 65.1518 0)
(195.594 67.3479 0)
(195.502 69.5954 0)
(195.49 71.9059 0)
(195.585 74.2811 0)
(195.738 76.7081 0)
(196.002 79.1948 0)
(196.394 81.7414 0)
(196.877 84.3441 0)
(197.504 87.01 0)
(198.282 89.7229 0)
(199.194 92.4634 0)
(200.286 95.24 0)
(201.569 98.0657 0)
(203.016 100.938 0)
(204.665 103.832 0)
(206.52 106.714 0)
(208.593 109.57 0)
(210.873 112.43 0)
(213.429 115.274 0)
(216.154 118.111 0)
(219.22 120.845 0)
(222.432 123.551 0)
(226.004 126.101 0)
(229.701 128.625 0)
(233.684 130.947 0)
(237.824 133.19 0)
(242.263 135.269 0)
(246.76 137.077 0)
(251.49 138.851 0)
(256.093 140.361 0)
(261.315 141.775 0)
(266.077 142.913 0)
(271.287 144.009 0)
(276.354 144.992 0)
(281.236 145.759 0)
(286.448 146.304 0)
(291.413 146.528 0)
(296.489 146.561 0)
(301.622 146.522 0)
(306.413 146.407 0)
(310.809 146.137 0)
(314.753 145.334 0)
(317.899 144.31 0)
(321.641 143.509 0)
(329.022 142.909 0)
(330.552 147.794 0)
(210 -6.61061e-08 0)
(210 -3.30197e-06 0)
(209.993 0.000648639 0)
(209.856 0.0269632 0)
(208.955 0.266482 0)
(206.962 0.929927 0)
(205.085 1.53806 0)
(204.546 1.88325 0)
(204.368 2.00552 0)
(204.837 1.96142 0)
(205.915 1.67156 0)
(207.053 1.48869 0)
(207.936 1.33665 0)
(208.61 1.28854 0)
(209.005 1.42347 0)
(209.137 1.66832 0)
(209.17 1.96213 0)
(209.133 2.3013 0)
(209.16 2.66731 0)
(209.313 2.99435 0)
(209.577 3.325 0)
(209.806 3.71154 0)
(209.991 4.14072 0)
(210.142 4.59604 0)
(210.264 5.07101 0)
(210.354 5.56827 0)
(210.422 6.08903 0)
(210.462 6.63964 0)
(210.479 7.22287 0)
(210.485 7.8338 0)
(210.465 8.47588 0)
(210.418 9.14069 0)
(210.346 9.82417 0)
(210.248 10.5268 0)
(210.122 11.2513 0)
(209.966 11.9993 0)
(209.782 12.7702 0)
(209.572 13.5623 0)
(209.339 14.3753 0)
(209.084 15.2101 0)
(208.809 16.0686 0)
(208.514 16.9531 0)
(208.194 17.8664 0)
(207.849 18.81 0)
(207.481 19.783 0)
(207.095 20.7828 0)
(206.695 21.8066 0)
(206.282 22.8532 0)
(205.854 23.9227 0)
(205.409 25.0161 0)
(204.947 26.1342 0)
(204.468 27.2772 0)
(203.975 28.4455 0)
(203.469 29.6399 0)
(202.951 30.8615 0)
(202.421 32.112 0)
(201.879 33.393 0)
(201.326 34.7064 0)
(200.763 36.0537 0)
(200.19 37.4366 0)
(199.609 38.8566 0)
(199.021 40.315 0)
(198.429 41.8133 0)
(197.836 43.3529 0)
(197.243 44.9353 0)
(196.654 46.5624 0)
(196.071 48.2361 0)
(195.497 49.955 0)
(194.938 51.7212 0)
(194.407 53.5397 0)
(193.866 55.4213 0)
(193.373 57.3386 0)
(192.917 59.3221 0)
(192.479 61.3584 0)
(192.091 63.4546 0)
(191.767 65.6159 0)
(191.464 67.8281 0)
(191.243 70.1088 0)
(191.104 72.4544 0)
(191.007 74.8544 0)
(191.017 77.3232 0)
(191.129 79.8561 0)
(191.318 82.4465 0)
(191.644 85.1008 0)
(192.097 87.8064 0)
(192.664 90.5627 0)
(193.393 93.3903 0)
(194.278 96.2872 0)
(195.31 99.2309 0)
(196.536 102.196 0)
(197.957 105.167 0)
(199.577 108.156 0)
(201.41 111.178 0)
(203.49 114.208 0)
(205.756 117.231 0)
(208.325 120.204 0)
(211.052 123.175 0)
(214.128 126.067 0)
(217.341 128.954 0)
(220.926 131.696 0)
(224.664 134.386 0)
(228.71 136.892 0)
(232.994 139.353 0)
(237.519 141.619 0)
(242.262 143.686 0)
(247.192 145.548 0)
(252.342 147.212 0)
(257.445 148.582 0)
(263.101 149.942 0)
(267.962 150.847 0)
(273.647 151.86 0)
(278.745 152.511 0)
(283.974 152.983 0)
(289.642 153.269 0)
(294.611 153.55 0)
(299.623 153.706 0)
(303.928 153.494 0)
(307.296 153.076 0)
(311.312 152.858 0)
(318.912 153.061 0)
(320.148 159.179 0)
(210 -2.87777e-08 0)
(210 -2.27541e-06 0)
(209.998 5.81122e-05 0)
(209.94 0.00828071 0)
(209.372 0.134498 0)
(207.601 0.652272 0)
(205.448 1.30932 0)
(204.502 1.78809 0)
(204.173 1.86925 0)
(204.416 1.91613 0)
(205.384 1.72946 0)
(206.539 1.53552 0)
(207.455 1.34964 0)
(208.172 1.25762 0)