/*--------------------------------*- C++ -*----------------------------------*\
| =========                 |                                                 |
| \\      /  F ield         | OpenFOAM: The Open Source CFD Toolbox           |
|  \\    /   O peration     | Version:  2412                                  |
|   \\  /    A nd           | Website:  www.openfoam.com                      |
|    \\/     M anipulation  |                                                 |
\*---------------------------------------------------------------------------*/
FoamFile
{
    version     2.0;
    format      ascii;
    arch        "LSB;label=32;scalar=64";
    class       volVectorField;
    location    "0.024";
    object      U;
}
// * * * * * * * * * * * * * * * * * * * * * * * * * * * * * * * * * * * * * //

dimensions      [0 1 -1 0 0 0 0];

internalField   nonuniform List<vector> 
78650
(
(210 2.92177e-13 0)
(210 3.59504e-12 0)
(210 -9.51698e-12 0)
(210 -7.6822e-13 0)
(210 4.80934e-12 0)
(210 -9.65725e-12 0)
(210 -7.04887e-12 0)
(210 -2.77671e-13 0)
(210 -1.13137e-12 0)
(210 1.10058e-12 0)
(210 5.17119e-12 0)
(210 1.34342e-11 0)
(210 5.30029e-11 0)
(210 7.08521e-09 0)
(210 7.79426e-07 0)
(210 8.2847e-05 0)
(209.982 0.00451271 0)
(209.752 0.0813315 0)
(208.745 0.496531 0)
(207.087 1.28989 0)
(205.8 1.91108 0)
(205.558 2.1245 0)
(205.533 2.24408 0)
(206.196 2.14848 0)
(207.369 1.73423 0)
(208.568 1.40822 0)
(209.523 1.13524 0)
(210.362 1.05155 0)
(210.991 1.05586 0)
(211.36 1.2356 0)
(211.606 1.51987 0)
(211.862 1.8547 0)
(212.192 2.19477 0)
(212.58 2.53516 0)
(212.978 2.90465 0)
(213.348 3.32585 0)
(213.705 3.78889 0)
(214.059 4.27307 0)
(214.4 4.77329 0)
(214.704 5.30138 0)
(214.965 5.86516 0)
(215.198 6.46684 0)
(215.415 7.10356 0)
(215.614 7.77501 0)
(215.807 8.47401 0)
(215.975 9.20165 0)
(216.118 9.95937 0)
(216.24 10.7482 0)
(216.339 11.5699 0)
(216.415 12.4258 0)
(216.475 13.3154 0)
(216.522 14.2383 0)
(216.555 15.1958 0)
(216.575 16.189 0)
(216.582 17.217 0)
(216.579 18.2787 0)
(216.562 19.3745 0)
(216.533 20.5039 0)
(216.492 21.6678 0)
(216.441 22.8663 0)
(216.383 24.0987 0)
(216.323 25.3637 0)
(216.263 26.6641 0)
(216.208 27.9979 0)
(216.159 29.3695 0)
(216.116 30.781 0)
(216.082 32.2319 0)
(216.067 33.7251 0)
(216.069 35.2608 0)
(216.093 36.8399 0)
(216.15 38.4653 0)
(216.236 40.1371 0)
(216.369 41.857 0)
(216.547 43.625 0)
(216.782 45.4424 0)
(217.082 47.3108 0)
(217.452 49.2308 0)
(217.908 51.2032 0)
(218.453 53.2278 0)
(219.108 55.3035 0)
(219.873 57.4294 0)
(220.782 59.6027 0)
(221.823 61.8219 0)
(223.046 64.0794 0)
(224.427 66.3722 0)
(226.025 68.6917 0)
(227.828 71.0335 0)
(229.868 73.3801 0)
(232.167 75.7171 0)
(234.733 78.0475 0)
(237.613 80.3474 0)
(240.781 82.5902 0)
(244.296 84.736 0)
(248.179 86.7771 0)
(252.447 88.7099 0)
(257.124 90.3731 0)
(262.074 91.8528 0)
(267.378 93.0972 0)
(273.216 94.2163 0)
(279.394 94.9788 0)
(286.225 95.4257 0)
(292.927 95.3505 0)
(300.133 94.9295 0)
(306.969 94.2795 0)
(314.214 93.2732 0)
(320.788 92.3567 0)
(327.91 91.023 0)
(334.154 89.7499 0)
(340.451 88.1806 0)
(346.624 86.275 0)
(352.012 84.5479 0)
(357.566 82.4536 0)
(362.667 80.3878 0)
(367.489 78.1278 0)
(371.641 75.6441 0)
(374.443 73.2909 0)
(376.797 70.7223 0)
(379.317 69.1684 0)
(383.816 68.0267 0)
(390.968 66.8979 0)
(393.725 70.6376 0)
(210 1.4402e-12 0)
(210 6.70642e-13 0)
(210 -7.66269e-12 0)
(210 -6.62604e-12 0)
(210 -5.39985e-13 0)
(210 -9.10724e-12 0)
(210 3.65995e-12 0)
(210 -1.14939e-12 0)
(210 -1.14042e-11 0)
(210 -7.03741e-12 0)
(210 9.39523e-12 0)
(210 1.35452e-11 0)
(210 1.5035e-11 0)
(210 1.78276e-09 0)
(210 2.19144e-07 0)
(210 2.80073e-05 0)
(209.991 0.00207144 0)
(209.84 0.0478697 0)
(209.018 0.36236 0)
(207.374 1.10368 0)
(205.905 1.78586 0)
(205.514 2.06741 0)
(205.395 2.24293 0)
(205.901 2.21137 0)
(207.017 1.8335 0)
(208.228 1.49401 0)
(209.206 1.20153 0)
(210.07 1.10102 0)
(210.715 1.07959 0)
(211.101 1.24322 0)
(211.344 1.5218 0)
(211.581 1.85961 0)
(211.883 2.20715 0)
(212.242 2.55278 0)
(212.623 2.91764 0)
(212.982 3.32895 0)
(213.321 3.78281 0)
(213.657 4.2581 0)
(213.98 4.74694 0)
(214.27 5.26088 0)
(214.516 5.81025 0)
(214.733 6.39787 0)
(214.932 7.02248 0)
(215.114 7.68287 0)
(215.289 8.37169 0)
(215.438 9.08992 0)
(215.564 9.83711 0)
(215.669 10.6145 0)
(215.75 11.4243 0)
(215.807 12.2668 0)
(215.848 13.1416 0)
(215.874 14.0496 0)
(215.884 14.9921 0)
(215.879 15.9696 0)
(215.862 16.9807 0)
(215.832 18.0253 0)
(215.787 19.1038 0)
(215.729 20.2151 0)
(215.657 21.3601 0)
(215.572 22.5392 0)
(215.478 23.7514 0)
(215.381 24.9957 0)
(215.277 26.277 0)
(215.178 27.5881 0)
(215.082 28.9362 0)
(214.987 30.3246 0)
(214.899 31.7518 0)
(214.824 33.221 0)
(214.761 34.7333 0)
(214.715 36.2882 0)
(214.696 37.8897 0)
(214.699 39.5377 0)
(214.743 41.2349 0)
(214.822 42.9812 0)
(214.95 44.778 0)
(215.134 46.6276 0)
(215.38 48.5311 0)
(215.698 50.4901 0)
(216.095 52.5053 0)
(216.588 54.5769 0)
(217.178 56.7046 0)
(217.897 58.8869 0)
(218.732 61.1225 0)
(219.736 63.4077 0)
(220.882 65.7421 0)
(222.229 68.12 0)
(223.767 70.5334 0)
(225.531 72.9689 0)
(227.541 75.4226 0)
(229.806 77.8933 0)
(232.366 80.3475 0)
(235.205 82.762 0)
(238.39 85.1049 0)
(241.905 87.3689 0)
(245.74 89.5527 0)
(249.968 91.5572 0)
(254.496 93.4837 0)
(259.505 95.1451 0)
(264.824 96.5989 0)
(270.425 97.755 0)
(276.396 98.6801 0)
(282.554 99.3244 0)
(289.316 99.6407 0)
(295.939 99.5619 0)
(303.539 99.0315 0)
(310.428 98.1086 0)
(318.182 96.796 0)
(325.282 95.1694 0)
(332.071 93.4997 0)
(339.185 91.4178 0)
(345.394 89.5563 0)
(351.709 87.5026 0)
(357.636 85.4803 0)
(363.04 83.4644 0)
(367.689 81.3401 0)
(370.928 79.252 0)
(373.023 76.908 0)
(374.688 75.35 0)
(378.783 74.144 0)
(386.907 72.9583 0)
(390.277 77.5013 0)
(210 9.46859e-13 0)
(210 -2.37352e-12 0)
(210 -9.89374e-12 0)
(210 -1.01405e-11 0)
(210 1.01029e-11 0)
(210 8.78323e-12 0)
(210 8.53956e-12 0)
(210 -1.09139e-11 0)
(210 -5.25139e-12 0)
(210 7.21795e-12 0)
(210 1.78961e-11 0)
(210 1.12589e-11 0)
(210 7.97906e-12 0)
(210 8.56853e-10 0)
(210 8.85343e-08 0)
(210 9.73275e-06 0)
(209.995 0.000885765 0)
(209.903 0.0263047 0)
(209.271 0.251772 0)
(207.721 0.916131 0)
(206.078 1.64916 0)
(205.469 2.02593 0)
(205.268 2.22201 0)
(205.625 2.24171 0)
(206.651 1.91749 0)
(207.859 1.56224 0)
(208.862 1.24096 0)
(209.755 1.1177 0)
(210.427 1.07043 0)
(210.842 1.22177 0)
(211.087 1.49895 0)
(211.307 1.84278 0)
(211.579 2.19989 0)
(211.902 2.55257 0)
(212.264 2.91365 0)
(212.61 3.31474 0)
(212.932 3.75859 0)
(213.248 4.22467 0)
(213.553 4.70237 0)
(213.83 5.20272 0)
(214.061 5.73843 0)
(214.264 6.31289 0)
(214.445 6.9264 0)
(214.611 7.57663 0)
(214.768 8.25641 0)
(214.898 8.96646 0)
(215.008 9.70467 0)
(215.095 10.4727 0)
(215.156 11.2724 0)
(215.195 12.1036 0)
(215.218 12.9652 0)
(215.222 13.8597 0)
(215.207 14.7885 0)
(215.178 15.7517 0)
(215.135 16.748 0)
(215.077 17.7779 0)
(215.005 18.8403 0)
(214.917 19.9353 0)
(214.813 21.0634 0)
(214.694 22.2252 0)
(214.563 23.4203 0)
(214.424 24.6488 0)
(214.281 25.9083 0)
(214.136 27.2017 0)
(213.992 28.5305 0)
(213.845 29.9002 0)
(213.703 31.3056 0)
(213.569 32.7519 0)
(213.441 34.2427 0)
(213.328 35.775 0)
(213.235 37.3538 0)
(213.158 38.9791 0)
(213.117 40.6529 0)
(213.103 42.3761 0)
(213.132 44.1495 0)
(213.207 45.9759 0)
(213.336 47.8563 0)
(213.528 49.793 0)
(213.788 51.7866 0)
(214.133 53.8381 0)
(214.561 55.9472 0)
(215.103 58.114 0)
(215.748 60.3376 0)
(216.543 62.6169 0)
(217.462 64.95 0)
(218.563 67.3323 0)
(219.832 69.7596 0)
(221.304 72.2272 0)
(222.995 74.731 0)
(224.917 77.2587 0)
(227.109 79.7848 0)
(229.559 82.3082 0)
(232.338 84.8191 0)
(235.426 87.3147 0)
(238.881 89.7622 0)
(242.773 92.0927 0)
(246.991 94.391 0)
(251.699 96.4385 0)
(256.702 98.3908 0)
(262.213 99.99 0)
(268.054 101.295 0)
(274.211 102.305 0)
(280.46 103.093 0)
(286.921 103.576 0)
(293.461 103.762 0)
(300.384 103.514 0)
(307.229 102.923 0)
(314.566 101.9 0)
(321.687 100.521 0)
(329.163 98.8479 0)
(336.714 96.6334 0)
(343.465 94.3712 0)
(350.196 92.063 0)
(356.254 89.8184 0)
(360.912 87.9147 0)
(364.637 85.806 0)
(367.178 83.6016 0)
(369.667 82.0286 0)
(374.473 80.5474 0)
(383.127 79.2205 0)
(386.139 84.263 0)
(210 -1.00109e-12 0)
(210 1.36961e-12 0)
(210 -5.25019e-12 0)
(210 6.01877e-12 0)
(210 2.00393e-11 0)
(210 1.09389e-11 0)
(210 -6.22139e-12 0)
(210 -7.04312e-12 0)
(210 -1.79628e-12 0)
(210 1.24307e-11 0)
(210 8.90024e-12 0)
(210 6.02637e-12 0)
(210 9.67783e-13 0)
(210 1.6151e-10 0)
(210 1.65156e-08 0)
(210 2.17008e-06 0)
(209.998 0.000318701 0)
(209.946 0.0129401 0)
(209.488 0.161711 0)
(208.085 0.722807 0)
(206.314 1.48897 0)
(205.454 1.96019 0)
(205.151 2.16385 0)
(205.384 2.25134 0)
(206.292 2.00737 0)
(207.479 1.64227 0)
(208.507 1.2947 0)
(209.433 1.16276 0)
(210.132 1.10162 0)
(210.579 1.2405 0)
(210.829 1.50957 0)
(211.034 1.849 0)
(211.275 2.20541 0)
(211.558 2.55915 0)
(211.893 2.91378 0)
(212.225 3.30225 0)
(212.529 3.73399 0)
(212.825 4.19025 0)
(213.111 4.65736 0)
(213.373 5.14479 0)
(213.59 5.66711 0)
(213.779 6.22854 0)
(213.942 6.83119 0)
(214.092 7.47114 0)
(214.231 8.14196 0)
(214.343 8.8432 0)
(214.437 9.57109 0)
(214.507 10.3281 0)
(214.55 11.1155 0)
(214.574 11.9318 0)
(214.58 12.776 0)
(214.56 13.6564 0)
(214.522 14.5704 0)
(214.47 15.5163 0)
(214.403 16.4952 0)
(214.32 17.5068 0)
(214.22 18.5509 0)
(214.104 19.627 0)
(213.97 20.7353 0)
(213.819 21.8765 0)
(213.655 23.0505 0)
(213.48 24.2563 0)
(213.298 25.4945 0)
(213.111 26.7652 0)
(212.921 28.071 0)
(212.73 29.4126 0)
(212.538 30.7931 0)
(212.349 32.2132 0)
(212.159 33.6801 0)
(211.983 35.1839 0)
(211.819 36.7339 0)
(211.667 38.3312 0)
(211.544 39.977 0)
(211.441 41.6736 0)
(211.374 43.4199 0)
(211.344 45.2202 0)
(211.359 47.0753 0)
(211.426 48.9886 0)
(211.55 50.9611 0)
(211.747 52.995 0)
(212.014 55.0906 0)
(212.381 57.2498 0)
(212.836 59.4715 0)
(213.425 61.7568 0)
(214.122 64.1035 0)
(214.985 66.5116 0)
(215.999 68.9776 0)
(217.202 71.4961 0)
(218.606 74.0615 0)
(220.227 76.6662 0)
(222.1 79.2988 0)
(224.221 81.9595 0)
(226.659 84.6236 0)
(229.382 87.2671 0)
(232.441 89.8535 0)
(235.844 92.3677 0)
(239.541 94.8644 0)
(243.741 97.1657 0)
(248.189 99.4349 0)
(253.214 101.419 0)
(258.664 103.297 0)
(264.628 104.784 0)
(271.083 106 0)
(277.839 106.833 0)
(284.517 107.454 0)
(291.781 107.684 0)
(298.55 107.781 0)
(305.563 107.488 0)
(313.086 106.695 0)
(319.439 105.913 0)
(326.941 104.498 0)
(333.724 102.994 0)
(340.776 101.143 0)
(348.248 98.8539 0)
(354.453 96.2688 0)
(359.403 93.5856 0)
(362.918 90.704 0)
(365.569 88.8826 0)
(370.425 87.4588 0)
(379.468 85.989 0)
(383.002 90.6619 0)
(210 7.52642e-12 0)
(210 8.55063e-12 0)
(210 2.4069e-12 0)
(210 1.56117e-11 0)
(210 4.47999e-12 0)
(210 -1.04948e-11 0)
(210 -7.22695e-12 0)
(210 -3.08727e-13 0)
(210 4.7635e-12 0)
(210 5.53535e-12 0)
(210 3.51654e-12 0)
(210 6.77257e-12 0)
(210 4.35614e-12 0)
(210 4.34034e-11 0)
(210 2.93643e-09 0)
(210 4.27925e-07 0)
(209.999 9.84025e-05 0)
(209.972 0.00569695 0)
(209.666 0.0955189 0)
(208.472 0.540912 0)
(206.633 1.30504 0)
(205.494 1.86612 0)
(205.035 2.09995 0)
(205.187 2.26097 0)
(205.929 2.07296 0)
(207.062 1.6977 0)
(208.121 1.32425 0)
(209.087 1.18727 0)
(209.822 1.1184 0)
(210.309 1.24429 0)
(210.569 1.50364 0)
(210.759 1.83723 0)
(210.968 2.19156 0)
(211.206 2.54583 0)
(211.51 2.89454 0)
(211.824 3.26978 0)
(212.113 3.68817 0)
(212.389 4.13419 0)
(212.656 4.59081 0)
(212.904 5.06517 0)
(213.107 5.57356 0)
(213.284 6.12153 0)
(213.429 6.71316 0)
(213.565 7.34291 0)
(213.685 8.00561 0)
(213.779 8.69903 0)
(213.858 9.41809 0)
(213.909 10.1658 0)
(213.934 10.9424 0)
(213.943 11.7431 0)
(213.926 12.5764 0)
(213.883 13.4435 0)
(213.823 14.3413 0)
(213.746 15.2715 0)
(213.653 16.2343 0)
(213.543 17.2295 0)
(213.415 18.2563 0)
(213.27 19.3144 0)
(213.106 20.4039 0)
(212.923 21.5256 0)
(212.723 22.6798 0)
(212.51 23.8658 0)
(212.288 25.0832 0)
(212.06 26.3325 0)
(211.825 27.6156 0)
(211.585 28.9353 0)
(211.341 30.2929 0)
(211.095 31.6911 0)
(210.85 33.1281 0)
(210.611 34.6075 0)
(210.378 36.1328 0)
(210.152 37.7049 0)
(209.95 39.3203 0)
(209.759 40.9897 0)
(209.603 42.7069 0)
(209.473 44.4795 0)
(209.382 46.3053 0)
(209.334 48.1893 0)
(209.334 50.132 0)
(209.395 52.1365 0)
(209.516 54.203 0)
(209.723 56.3344 0)
(210.006 58.5295 0)
(210.406 60.791 0)
(210.898 63.1169 0)
(211.538 65.5092 0)
(212.307 67.965 0)
(213.244 70.4838 0)
(214.356 73.063 0)
(215.662 75.6956 0)
(217.196 78.3729 0)
(218.954 81.0951 0)
(220.995 83.848 0)
(223.292 86.623 0)
(225.932 89.3985 0)
(228.917 92.1533 0)
(232.243 94.8672 0)
(236.029 97.4229 0)
(240.037 99.9743 0)
(244.616 102.251 0)
(249.393 104.504 0)
(254.756 106.458 0)
(260.586 108.273 0)
(266.802 109.725 0)
(273.762 110.98 0)
(280.614 111.64 0)
(288.574 111.959 0)
(295.549 111.88 0)
(303.946 111.392 0)
(310.744 110.884 0)
(318.226 110.029 0)
(325.088 109.178 0)
(331.762 108.005 0)
(338.711 106.411 0)
(345.082 104.506 0)
(350.746 102.116 0)
(354.9 99.4026 0)
(358.226 96.8662 0)
(363.207 95.2031 0)
(373.643 93.4449 0)
(377.483 99.2613 0)
(210 6.79469e-12 0)
(210 -2.77948e-12 0)
(210 -4.65868e-13 0)
(210 1.13855e-11 0)
(210 -9.02524e-12 0)
(210 -6.57275e-12 0)
(210 -5.79149e-12 0)
(210 9.77906e-13 0)
(210 7.14744e-12 0)
(210 -3.97525e-12 0)
(210 1.68578e-12 0)
(210 2.0392e-12 0)
(210 4.59988e-12 0)
(210 -7.94522e-12 0)
(210 -7.19282e-10 0)
(210 -5.99582e-09 0)
(210 2.22373e-05 0)
(209.987 0.00215072 0)
(209.8 0.0504935 0)
(208.847 0.374165 0)
(207.016 1.092 0)
(205.601 1.74281 0)
(204.947 2.05478 0)
(205.019 2.22252 0)
(205.566 2.10402 0)
(206.624 1.75688 0)
(207.722 1.38524 0)
(208.739 1.25401 0)
(209.507 1.17183 0)
(210.031 1.27287 0)
(210.301 1.51237 0)
(210.478 1.83228 0)
(210.654 2.17748 0)
(210.844 2.5277 0)
(211.11 2.87031 0)
(211.405 3.2323 0)
(211.68 3.63677 0)
(211.935 4.07325 0)
(212.181 4.52179 0)
(212.413 4.98637 0)
(212.604 5.4837 0)
(212.766 6.02082 0)
(212.895 6.60309 0)
(213.016 7.22323 0)
(213.115 7.87789 0)
(213.193 8.56212 0)
(213.257 9.27051 0)
(213.29 10.0063 0)
(213.302 10.7666 0)
(213.295 11.5502 0)
(213.254 12.3697 0)
(213.193 13.218 0)
(213.11 14.0984 0)
(213.01 15.0106 0)
(212.892 15.9544 0)
(212.757 16.9299 0)
(212.603 17.9364 0)
(212.43 18.9734 0)
(212.237 20.0411 0)
(212.024 21.1402 0)
(211.793 22.2711 0)
(211.546 23.4332 0)
(211.287 24.6263 0)
(211.019 25.8507 0)
(210.743 27.1081 0)
(210.458 28.4004 0)
(210.167 29.7297 0)
(209.871 31.0979 0)
(209.57 32.5071 0)
(209.27 33.9583 0)
(208.973 35.4526 0)
(208.684 36.9897 0)
(208.408 38.5731 0)
(208.13 40.2157 0)
(207.888 41.8966 0)
(207.66 43.6368 0)
(207.467 45.4301 0)
(207.306 47.2834 0)
(207.184 49.196 0)
(207.111 51.1722 0)
(207.086 53.2124 0)
(207.134 55.321 0)
(207.244 57.4972 0)
(207.456 59.7454 0)
(207.744 62.0632 0)
(208.164 64.4558 0)
(208.694 66.9203 0)
(209.376 69.4568 0)
(210.215 72.0616 0)
(211.232 74.7314 0)
(212.455 77.4655 0)
(213.884 80.2616 0)
(215.576 83.099 0)
(217.508 85.9651 0)
(219.76 88.8438 0)
(222.309 91.7253 0)
(225.191 94.5956 0)
(228.495 97.4107 0)
(232.077 100.258 0)
(236.254 102.921 0)
(240.619 105.602 0)
(245.606 107.935 0)
(250.858 110.174 0)
(256.627 112.081 0)
(262.891 113.799 0)
(269.205 115.132 0)
(276.485 116.312 0)
(283.417 116.92 0)
(291.275 117.267 0)
(299.412 116.961 0)
(307.528 116.184 0)
(316.291 114.738 0)
(323.694 113.344 0)
(332.259 111.427 0)
(339.155 110.058 0)
(346.049 107.894 0)
(350.573 105.801 0)
(354.224 103.374 0)
(359.42 101.538 0)
(369.98 100.019 0)
(373.484 106.913 0)
(210 -2.60693e-13 0)
(210 -3.20316e-12 0)
(210 8.01269e-12 0)
(210 3.36298e-12 0)
(210 -2.15691e-12 0)
(210 -1.52786e-12 0)
(210 -2.8745e-12 0)
(210 1.78546e-12 0)
(210 -1.01729e-11 0)
(210 -5.43944e-12 0)
(210 -3.83567e-13 0)
(210 8.32553e-12 0)
(210 5.75863e-12 0)
(210 -1.00131e-11 0)
(210 -4.98893e-10 0)
(210 -3.92777e-08 0)
(210 2.42258e-06 0)
(209.995 0.000674744 0)
(209.892 0.0235106 0)
(209.192 0.237227 0)
(207.475 0.868421 0)
(205.801 1.58858 0)
(204.901 1.9977 0)
(204.882 2.14277 0)
(205.219 2.08873 0)
(206.172 1.81768 0)
(207.307 1.46096 0)
(208.369 1.32164 0)
(209.165 1.21364 0)
(209.73 1.27837 0)
(210.021 1.49573 0)
(210.19 1.80355 0)
(210.335 2.14052 0)
(210.475 2.48691 0)
(210.697 2.82611 0)
(210.971 3.17539 0)
(211.233 3.56423 0)
(211.47 3.98867 0)
(211.696 4.42687 0)
(211.913 4.87955 0)
(212.095 5.36399 0)
(212.244 5.8893 0)
(212.359 6.46189 0)
(212.466 7.07311 0)
(212.542 7.7212 0)
(212.603 8.39806 0)
(212.648 9.09849 0)
(212.664 9.82334 0)
(212.664 10.5664 0)
(212.63 11.3426 0)
(212.571 12.1443 0)
(212.489 12.9768 0)
(212.383 13.8406 0)
(212.258 14.7354 0)
(212.115 15.6611 0)
(211.952 16.6175 0)
(211.771 17.6045 0)
(211.569 18.6213 0)
(211.347 19.668 0)
(211.103 20.7452 0)
(210.839 21.8537 0)
(210.556 22.9933 0)
(210.259 24.1635 0)
(209.951 25.3643 0)
(209.632 26.5972 0)
(209.302 27.8643 0)
(208.963 29.1678 0)
(208.614 30.5094 0)
(208.259 31.8903 0)
(207.9 33.3119 0)
(207.54 34.7761 0)
(207.182 36.2855 0)
(206.827 37.8424 0)
(206.485 39.4422 0)
(206.159 41.0924 0)
(205.833 42.8046 0)
(205.545 44.5595 0)
(205.276 46.3761 0)
(205.043 48.2514 0)
(204.847 50.1905 0)
(204.692 52.1931 0)
(204.596 54.2636 0)
(204.551 56.4014 0)
(204.593 58.6119 0)
(204.697 60.8927 0)
(204.918 63.251 0)
(205.229 65.6833 0)
(205.671 68.1933 0)
(206.247 70.7807 0)
(206.977 73.4458 0)
(207.887 76.1859 0)
(208.98 78.9959 0)
(210.307 81.8709 0)
(211.848 84.8158 0)
(213.684 87.8227 0)
(215.797 90.8719 0)
(218.252 93.9405 0)
(221.091 97.0106 0)
(224.236 100.119 0)
(227.931 103.121 0)
(231.84 106.16 0)
(236.453 108.899 0)
(241.276 111.646 0)
(246.741 114.053 0)
(252.585 116.298 0)
(258.994 118.14 0)
(265.526 119.703 0)
(272.786 120.981 0)
(279.46 121.962 0)
(287.492 122.507 0)
(294.632 122.635 0)
(303.072 122.295 0)
(310.742 121.698 0)
(319.771 120.633 0)
(327.739 119.069 0)
(335.182 116.88 0)
(340.884 114.25 0)
(344.964 111.893 0)
(350.512 110.311 0)
(361.736 108.696 0)
(365.341 115.485 0)
(210 -1.42086e-12 0)
(210 6.67052e-12 0)
(210 9.30951e-12 0)
(210 3.26949e-12 0)
(210 -2.55605e-12 0)
(210 -1.59324e-11 0)
(210 -7.55825e-12 0)
(210 -7.8064e-12 0)
(210 -1.46894e-11 0)
(210 5.31385e-12 0)
(210 1.17166e-11 0)
(210 1.8915e-11 0)
(210 6.51349e-12 0)
(210 6.23549e-12 0)
(210 -2.22269e-10 0)
(210 -2.22893e-08 0)
(210 -8.97506e-07 0)
(209.998 0.000158265 0)
(209.948 0.00933134 0)
(209.481 0.134356 0)
(207.975 0.642788 0)
(206.089 1.39743 0)
(204.899 1.88715 0)
(204.777 2.04154 0)
(204.91 2.06634 0)
(205.726 1.90106 0)
(206.878 1.56066 0)
(207.982 1.39961 0)
(208.803 1.26173 0)
(209.406 1.28932 0)
(209.728 1.48289 0)
(209.894 1.77369 0)
(210.009 2.09572 0)
(210.102 2.43295 0)
(210.275 2.7721 0)
(210.52 3.11516 0)
(210.767 3.49455 0)
(210.984 3.91254 0)
(211.189 4.34604 0)
(211.39 4.79179 0)
(211.561 5.26612 0)
(211.697 5.78091 0)
(211.8 6.34269 0)
(211.89 6.94349 0)
(211.944 7.58227 0)
(211.991 8.24807 0)
(212.018 8.93709 0)
(212.022 9.64299 0)
(212 10.3744 0)
(211.948 11.1302 0)
(211.872 11.9134 0)
(211.769 12.7264 0)
(211.641 13.5702 0)
(211.493 14.4446 0)
(211.325 15.3491 0)
(211.138 16.2836 0)
(210.93 17.2479 0)
(210.702 18.2415 0)
(210.452 19.2641 0)
(210.18 20.3165 0)
(209.886 21.3994 0)
(209.571 22.513 0)
(209.239 23.6567 0)
(208.893 24.8305 0)
(208.535 26.0354 0)
(208.164 27.2735 0)
(207.78 28.5466 0)
(207.384 29.8567 0)
(206.978 31.2055 0)
(206.564 32.5944 0)
(206.146 34.0248 0)
(205.725 35.4983 0)
(205.305 37.017 0)
(204.887 38.5843 0)
(204.474 40.202 0)
(204.076 41.8667 0)
(203.695 43.5852 0)
(203.318 45.3684 0)
(202.975 47.2034 0)
(202.658 49.1028 0)
(202.373 51.0676 0)
(202.135 53.1024 0)
(201.935 55.2071 0)
(201.807 57.3871 0)
(201.727 59.6405 0)
(201.748 61.9762 0)
(201.841 64.3906 0)
(202.05 66.8896 0)
(202.371 69.4718 0)
(202.832 72.1381 0)
(203.449 74.8882 0)
(204.231 77.7216 0)
(205.221 80.6364 0)
(206.405 83.6276 0)
(207.859 86.6816 0)
(209.553 89.7874 0)
(211.56 92.9428 0)
(213.893 96.1418 0)
(216.529 99.381 0)
(219.642 102.573 0)
(222.985 105.801 0)
(227.019 108.863 0)
(231.225 112.006 0)
(236.203 114.85 0)
(241.484 117.703 0)
(247.455 120.187 0)
(254.003 122.479 0)
(261.071 124.383 0)
(268.486 125.762 0)
(276.253 126.802 0)
(284.254 127.467 0)
(291.292 128.003 0)
(299.905 128.041 0)
(306.952 127.973 0)
(315.77 127.225 0)
(323.587 125.823 0)
(329.961 123.773 0)
(335.253 121.153 0)
(340.865 119.438 0)
(353.224 117.522 0)
(356.73 125.321 0)
(210 4.04994e-12 0)
(210 1.51745e-11 0)
(210 -2.07269e-12 0)
(210 -8.31492e-12 0)
(210 -1.69162e-11 0)
(210 -1.81427e-11 0)
(210 -4.21487e-12 0)
(210 -1.6089e-12 0)
(210 -9.04871e-13 0)
(210 9.38244e-12 0)
(210 1.43392e-11 0)
(210 1.02987e-11 0)
(210 -5.65552e-12 0)
(210 -2.01083e-12 0)
(210 -7.61861e-11 0)
(210 -8.07493e-09 0)
(210 -5.61026e-07 0)
(209.999 1.86692e-05 0)
(209.978 0.00303285 0)
(209.699 0.0667411 0)
(208.484 0.437177 0)
(206.502 1.17016 0)
(204.987 1.72539 0)
(204.694 1.94656 0)
(204.655 2.04746 0)
(205.292 1.97059 0)
(206.419 1.64446 0)
(207.555 1.44875 0)
(208.41 1.28521 0)
(209.057 1.28481 0)
(209.426 1.45663 0)
(209.596 1.72569 0)
(209.684 2.02569 0)
(209.736 2.3461 0)
(209.857 2.68381 0)
(210.07 3.021 0)
(210.304 3.39092 0)
(210.503 3.80227 0)
(210.688 4.23195 0)
(210.871 4.67254 0)
(211.034 5.13865 0)
(211.156 5.64468 0)
(211.249 6.19669 0)
(211.318 6.7882 0)
(211.349 7.41763 0)
(211.38 8.07365 0)
(211.387 8.75094 0)
(211.377 9.44087 0)
(211.331 10.1588 0)
(211.262 10.8975 0)
(211.165 11.6626 0)
(211.04 12.4564 0)
(210.89 13.2806 0)
(210.718 14.1348 0)
(210.525 15.0186 0)
(210.312 15.9316 0)
(210.077 16.8738 0)
(209.821 17.8447 0)
(209.543 18.844 0)
(209.241 19.8724 0)
(208.915 20.9307 0)
(208.567 22.0192 0)
(208.198 23.1375 0)
(207.814 24.2854 0)
(207.415 25.4637 0)
(207.001 26.674 0)
(206.572 27.9185 0)
(206.129 29.1989 0)
(205.671 30.517 0)
(205.203 31.8742 0)
(204.726 33.2718 0)
(204.244 34.7117 0)
(203.756 36.1958 0)
(203.268 37.7259 0)
(202.781 39.3038 0)
(202.299 40.9332 0)
(201.823 42.6161 0)
(201.362 44.3505 0)
(200.92 46.1425 0)
(200.487 48.0012 0)
(200.083 49.9206 0)
(199.716 51.9055 0)
(199.378 53.9615 0)
(199.1 56.092 0)
(198.857 58.2964 0)
(198.702 60.5829 0)
(198.599 62.948 0)
(198.596 65.3995 0)
(198.685 67.9382 0)
(198.89 70.5677 0)
(199.224 73.2898 0)
(199.701 76.1043 0)
(200.358 79.0128 0)
(201.183 82.0146 0)
(202.245 85.1088 0)
(203.516 88.2906 0)
(205.082 91.5551 0)
(206.94 94.8829 0)
(209.11 98.2554 0)
(211.706 101.63 0)
(214.562 105.056 0)
(218.034 108.409 0)
(221.673 111.834 0)
(226.09 115.023 0)
(230.653 118.266 0)
(235.974 121.204 0)
(241.672 124.08 0)
(247.987 126.539 0)
(255.137 128.962 0)
(262.242 130.641 0)
(270.927 132.417 0)
(278.689 132.989 0)
(288.378 133.492 0)
(296.694 133.322 0)
(306.534 132.902 0)
(315.245 132.008 0)
(322.478 130.387 0)
(328.49 128.135 0)
(334.528 126.738 0)
(346.977 125.481 0)
(350.366 134.249 0)
(210 3.85392e-12 0)
(210 -1.89918e-12 0)
(210 -1.09086e-11 0)
(210 -1.3548e-11 0)
(210 -1.81182e-11 0)
(210 -7.78975e-12 0)
(210 5.50359e-12 0)
(210 3.24952e-12 0)
(210 -4.86891e-12 0)
(210 1.18426e-11 0)
(210 1.18514e-11 0)
(210 1.12415e-12 0)
(210 -6.29768e-12 0)
(210 -9.00576e-13 0)
(210 -2.00455e-11 0)
(210 -2.4517e-09 0)
(210 -2.18434e-07 0)
(210 -5.29363e-06 0)
(209.992 0.000732721 0)
(209.845 0.0281357 0)
(208.954 0.266504 0)
(207.023 0.917309 0)
(205.188 1.5353 0)
(204.631 1.86954 0)
(204.446 2.00758 0)
(204.876 1.99346 0)
(205.939 1.70988 0)
(207.105 1.5009 0)
(207.997 1.31784 0)
(208.687 1.28841 0)
(209.11 1.42844 0)
(209.288 1.67054 0)
(209.347 1.95222 0)
(209.367 2.25984 0)
(209.435 2.60417 0)
(209.609 2.94687 0)
(209.827 3.31322 0)
(210.008 3.71891 0)
(210.174 4.14426 0)
(210.339 4.57939 0)
(210.492 5.03579 0)
(210.601 5.5303 0)
(210.685 6.06871 0)
(210.73 6.64837 0)
(210.745 7.26233 0)
(210.756 7.90453 0)
(210.746 8.56321 0)
(210.712 9.24118 0)
(210.651 9.93834 0)
(210.563 10.6574 0)
(210.446 11.402 0)
(210.301 12.1746 0)
(210.129 12.9768 0)
(209.934 13.8086 0)
(209.717 14.6693 0)
(209.479 15.5585 0)
(209.219 16.4763 0)
(208.937 17.4222 0)
(208.632 18.3959 0)
(208.303 19.3978 0)
(207.948 20.4287 0)
(207.568 21.4893 0)
(207.167 22.5792 0)
(206.747 23.6981 0)
(206.311 24.8464 0)
(205.858 26.0256 0)
(205.388 27.2376 0)
(204.901 28.4843 0)
(204.398 29.7675 0)
(203.881 31.0887 0)
(203.351 32.4493 0)
(202.811 33.8509 0)
(202.263 35.2954 0)
(201.708 36.7849 0)
(201.15 38.3216 0)
(200.59 39.9074 0)
(200.034 41.5447 0)
(199.482 43.2368 0)
(198.937 44.987 0)
(198.404 46.7952 0)
(197.891 48.6655 0)
(197.395 50.6055 0)
(196.914 52.619 0)
(196.487 54.6999 0)
(196.079 56.86 0)
(195.748 59.1039 0)
(195.449 61.4302 0)
(195.239 63.8455 0)
(195.098 66.3511 0)
(195.057 68.9508 0)
(195.126 71.6471 0)
(195.318 74.4418 0)
(195.663 77.3388 0)
(196.156 80.3356 0)
(196.857 83.4342 0)
(197.739 86.6303 0)
(198.886 89.924 0)
(200.284 93.3019 0)
(201.979 96.76 0)
(204.044 100.291 0)
(206.384 103.919 0)
(209.276 107.563 0)
(212.381 111.285 0)
(216.241 114.882 0)
(220.266 118.569 0)
(225.128 121.96 0)
(230.233 125.341 0)
(236.078 128.4 0)
(242.334 131.273 0)
(249.206 133.826 0)
(256.565 136.07 0)
(264.369 137.953 0)
(272.614 139.363 0)
(281.367 140.39 0)
(290.63 140.957 0)
(299.723 140.86 0)
(307.841 139.855 0)
(314.795 137.848 0)
(321.191 136.556 0)
(334.309 135.292 0)
(337.275 144.553 0)
(210 2.31136e-12 0)
(210 -9.87254e-12 0)
(210 -9.03471e-12 0)
(210 -6.3033e-12 0)
(210 -1.00208e-11 0)
(210 2.5264e-12 0)
(210 2.63354e-12 0)
(210 -3.83261e-12 0)
(210 2.33402e-12 0)
(210 2.58708e-11 0)
(210 1.19425e-11 0)
(210 -3.32872e-12 0)
(210 -5.94138e-12 0)
(210 -4.50309e-13 0)
(210 -5.25159e-12 0)
(210 -6.36682e-10 0)
(210 -6.70927e-08 0)
(210 -4.18688e-06 0)
(209.997 8.94538e-05 0)
(209.93 0.00963307 0)
(209.345 0.142665 0)
(207.616 0.66208 0)
(205.546 1.32962 0)
(204.607 1.78302 0)
(204.284 1.89255 0)
(204.515 1.95847 0)
(205.459 1.77356 0)
(206.631 1.5528 0)
(207.562 1.33698 0)
(208.299 1.26774 0)
(208.782 1.36718 0)
(208.983 1.58652 0)
(209.02 1.85658 0)
(209.019 2.15948 0)
(209.044 2.51004 0)
(209.17 2.85719 0)
(209.365 3.21963 0)
(209.527 3.62059 0)
(209.672 4.04247 0)
(209.817 4.47288 0)
(209.957 4.91913 0)
(210.053 5.40052 0)
(210.126 5.92443 0)
(210.145 6.49174 0)
(210.153 7.08363 0)
(210.135 7.7163 0)
(210.103 8.35929 0)
(210.05 9.01866 0)
(209.971 9.69696 0)
(209.863 10.3965 0)
(209.726 11.1206 0)
(209.56 11.872 0)
(209.365 12.6523 0)
(209.146 13.4617 0)
(208.905 14.2996 0)
(208.642 15.1655 0)
(208.356 16.0592 0)
(208.047 16.9805 0)
(207.714 17.929 0)
(207.356 18.9049 0)
(206.972 19.9091 0)
(206.561 20.9423 0)
(206.126 22.0044 0)
(205.67 23.095 0)
(205.196 24.2142 0)
(204.703 25.3633 0)
(204.191 26.5441 0)
(203.66 27.7585 0)
(203.111 29.0081 0)
(202.544 30.2946 0)
(201.961 31.6193 0)
(201.364 32.9839 0)
(200.756 34.3899 0)
(200.137 35.8394 0)
(199.51 37.3345 0)
(198.877 38.8774 0)
(198.24 40.4703 0)
(197.603 42.1153 0)
(196.968 43.8157 0)
(196.338 45.5749 0)
(195.716 47.3968 0)
(195.106 49.2823 0)
(194.518 51.2325 0)
(193.955 53.256 0)
(193.395 55.3629 0)
(192.91 57.5389 0)
(192.436 59.8023 0)
(192.046 62.1527 0)
(191.698 64.5961 0)
(191.438 67.1348 0)
(191.258 69.7744 0)
(191.18 72.518 0)
(191.226 75.3711 0)
(191.396 78.3336 0)
(191.743 81.414 0)
(192.241 84.6093 0)
(192.972 87.9239 0)
(193.915 91.3474 0)
(195.134 94.8841 0)
(196.668 98.5299 0)
(198.472 102.283 0)
(200.753 106.093 0)
(203.261 109.99 0)
(206.456 113.869 0)
(209.829 117.854 0)
(214.077 121.688 0)
(218.563 125.61 0)
(223.925 129.252 0)
(229.705 132.89 0)
(236.185 136.146 0)
(243.193 139.062 0)
(251.029 141.667 0)
(258.857 143.573 0)
(267.916 145.151 0)
(275.8 146.53 0)
(286.224 147.623 0)
(294.263 147.669 0)
(302.24 146.207 0)
(309.009 145.263 0)
(322.845 144.335 0)
(325.15 154.901 0)
(210 -4.66813e-13 0)
(210 -8.46248e-12 0)
(210 -1.12068e-11 0)
(210 -1.19471e-11 0)
(210 -1.11055e-11 0)
(210 2.08299e-12 0)
(210 -4.74449e-12 0)
(210 -1.87441e-12 0)
(210 1.12229e-11 0)
(210 8.16094e-12 0)
(210 -6.00648e-12 0)
(210 -4.10495e-12 0)
(210 -1.59809e-12 0)
(210 5.93181e-12 0)
(210 1.34447e-11 0)
(210 -1.34524e-10 0)
(210 -1.74358e-08 0)
(210 -1.44228e-06 0)
(209.999 -2.38313e-05 0)
(209.972 0.00243478 0)
(209.632 0.0647978 0)
(208.226 0.434626 0)
(206.02 1.09284 0)
(204.675 1.64329 0)
(204.14 1.75221 0)
(204.232 1.93427 0)
(205 1.83233 0)
(206.135 1.58855 0)
(207.106 1.32849 0)
(207.896 1.23606 0)
(208.44 1.313 0)
(208.672 1.52327 0)
(208.699 1.78501 0)
(208.674 2.08836 0)
(208.67 2.43238 0)
(208.745 2.78996 0)
(208.909 3.14601 0)
(209.049 3.5352 0)
(209.17 3.94697 0)
(209.291 4.36958 0)
(209.415 4.80461 0)
(209.5 5.27147 0)
(209.557 5.78017 0)
(209.559 6.32874 0)
(209.553 6.90624 0)
(209.508 7.52057 0)
(209.456 8.1447 0)
(209.383 8.78582 0)
(209.283 9.44469 0)
(209.156 10.1243 0)
(208.998 10.8276 0)
(208.811 11.5569 0)
(208.595 12.3142 0)
(208.354 13.0999 0)
(208.089 13.9133 0)
(207.802 14.7541 0)
(207.491 15.6221 0)
(207.157 16.5171 0)
(206.797 17.4387 0)
(206.413 18.387 0)
(206.001 19.3624 0)
(205.562 20.366 0)
(205.096 21.3977 0)
(204.608 22.4573 0)
(204.099 23.5447 0)
(203.57 24.6607 0)
(203.021 25.807 0)
(202.451 26.9855 0)
(201.86 28.198 0)
(201.248 29.446 0)
(200.618 30.7309 0)
(199.97 32.0543 0)
(199.308 33.4177 0)
(198.631 34.8231 0)
(197.941 36.2725 0)
(197.239 37.7683 0)
(196.53 39.3126 0)
(195.813 40.9076 0)
(195.093 42.5565 0)
(194.37 44.262 0)
(193.648 46.028 0)
(192.93 47.8579 0)
(192.22 49.7563 0)
(191.519 51.7251 0)
(190.842 53.7629 0)
(190.2 55.8808 0)
(189.539 58.0983 0)
(188.973 60.3835 0)
(188.418 62.7692 0)
(187.946 65.2515 0)
(187.528 67.8371 0)
(187.198 70.5279 0)
(186.965 73.3303 0)
(186.837 76.2461 0)
(186.856 79.2854 0)
(187.001 82.4438 0)
(187.347 85.7312 0)
(187.865 89.1415 0)
(188.628 92.6854 0)
(189.652 96.3556 0)
(190.934 100.145 0)
(192.626 104.033 0)
(194.553 108.034 0)
(197.086 112.096 0)
(199.807 116.268 0)
(203.326 120.408 0)
(207.024 124.674 0)
(211.654 128.766 0)
(216.569 132.888 0)
(222.345 136.751 0)
(228.694 140.609 0)
(235.844 144.027 0)
(243.961 147.165 0)
(252.759 149.748 0)
(261.928 151.733 0)
(272.345 153.55 0)
(281.981 154.194 0)
(290.724 153.378 0)
(297.766 152.862 0)
(311.277 152.501 0)
(313.46 162.773 0)
(210 -9.90219e-13 0)
(210 -7.23392e-12 0)
(210 -7.95753e-12 0)
(210 -1.74406e-11 0)
(210 1.84462e-12 0)
(210 7.28464e-12 0)
(210 -1.80779e-12 0)