/*--------------------------------*- C++ -*----------------------------------*\
| =========                 |                                                 |
| \\      /  F ield         | OpenFOAM: The Open Source CFD Toolbox           |
|  \\    /   O peration     | Version:  2412                                  |
|   \\  /    A nd           | Website:  www.openfoam.com                      |
|    \\/     M anipulation  |                                                 |
\*---------------------------------------------------------------------------*/
FoamFile
{
    version     2.0;
    format      ascii;
    arch        "LSB;label=32;scalar=64";
    class       volScalarField;
    location    "0.111";
    object      T;
}
// * * * * * * * * * * * * * * * * * * * * * * * * * * * * * * * * * * * * * //

dimensions      [0 0 0 1 0 0 0];

internalField   nonuniform List<scalar> 
78650
(
244.332
225.646
224.622
224.583
224.414
224.247
224.079
223.934
223.815
223.722
223.647
223.578
223.502
223.405
223.291
223.17
223.055
222.952
222.86
222.778
222.704
222.638
222.581
222.531
222.487
222.449
222.416
222.383
222.35
222.314
222.274
222.231
222.184
222.134
222.081
222.026
221.97
221.914
221.86
221.807
221.756
221.708
221.662
221.619
221.579
221.542
221.507
221.476
221.448
221.422
221.4
221.381
221.364
221.35
221.338
221.328
221.319
221.312
221.305
221.299
221.292
221.284
221.276
221.264
221.251
221.233
221.211
221.184
221.15
221.108
221.057
220.996
220.923
220.835
220.732
220.612
220.472
220.31
220.123
219.908
219.662
219.381
219.062
218.701
218.292
217.834
217.319
216.745
216.105
215.396
214.611
213.751
212.802
211.774
210.638
209.42
208.094
206.671
205.156
203.507
201.739
199.949
198.1
196.074
194.108
192.263
190.451
188.619
186.633
184.636
182.728
180.973
179.434
178.045
176.803
175.649
174.679
173.87
173.311
172.966
171.467
243.563
225.553
224.682
224.615
224.444
224.284
224.116
223.963
223.834
223.734
223.657
223.59
223.52
223.432
223.323
223.203
223.087
222.981
222.887
222.804
222.73
222.665
222.607
222.557
222.514
222.478
222.446
222.416
222.385
222.352
222.317
222.278
222.236
222.19
222.142
222.092
222.04
221.988
221.937
221.888
221.841
221.797
221.754
221.715
221.679
221.645
221.615
221.588
221.564
221.544
221.526
221.512
221.5
221.492
221.485
221.481
221.479
221.478
221.478
221.479
221.481
221.482
221.482
221.481
221.478
221.472
221.462
221.448
221.428
221.402
221.368
221.325
221.271
221.206
221.126
221.031
220.919
220.788
220.635
220.456
220.25
220.012
219.741
219.431
219.078
218.679
218.228
217.722
217.157
216.528
215.828
215.056
214.198
213.257
212.213
211.091
209.862
208.551
207.138
205.612
203.996
202.23
200.478
198.559
196.547
194.583
192.615
190.783
188.915
186.977
185.058
183.175
181.362
179.677
178.172
176.858
175.826
174.995
174.372
173.938
172.305
242.823
225.374
224.744
224.654
224.48
224.32
224.151
223.991
223.855
223.747
223.665
223.6
223.535
223.456
223.354
223.237
223.12
223.011
222.916
222.832
222.757
222.692
222.635
222.586
222.544
222.507
222.477
222.449
222.421
222.392
222.36
222.326
222.288
222.248
222.204
222.158
222.111
222.063
222.016
221.971
221.927
221.886
221.848
221.812
221.78
221.751
221.725
221.702
221.683
221.666
221.654
221.644
221.638
221.635
221.634
221.636
221.64
221.646
221.654
221.662
221.672
221.681
221.691
221.699
221.706
221.711
221.714
221.712
221.706
221.695
221.678
221.652
221.618
221.573
221.516
221.445
221.36
221.257
221.134
220.99
220.82
220.622
220.393
220.13
219.828
219.483
219.092
218.651
218.154
217.597
216.973
216.279
215.505
214.652
213.704
212.676
211.541
210.323
208.99
207.55
206.006
204.335
202.572
200.766
198.84
196.912
194.888
192.827
190.952
189.056
187.184
185.309
183.31
181.363
179.527
177.866
176.548
175.538
174.899
174.611
173.07
242.163
225.256
224.771
224.689
224.519
224.354
224.184
224.022
223.877
223.76
223.672
223.606
223.546
223.476
223.384
223.272
223.155
223.044
222.947
222.861
222.787
222.721
222.665
222.616
222.575
222.539
222.509
222.483
222.458
222.432
222.405
222.374
222.341
222.306
222.267
222.226
222.183
222.139
222.096
222.055
222.015
221.978
221.944
221.912
221.883
221.858
221.836
221.818
221.803
221.791
221.783
221.778
221.777
221.78
221.785
221.792
221.802
221.815
221.829
221.845
221.862
221.88
221.898
221.916
221.933
221.948
221.962
221.973
221.98
221.983
221.981
221.972
221.957
221.931
221.895
221.848
221.787
221.712
221.619
221.507
221.373
221.214
221.028
220.811
220.559
220.269
219.937
219.558
219.127
218.642
218.094
217.482
216.797
216.038
215.193
214.268
213.242
212.131
210.9
209.575
208.142
206.609
204.933
203.166
201.269
199.297
197.343
195.212
193.114
191.101
189.109
187.306
185.451
183.602
181.754
179.941
178.262
176.81
175.78
175.154
173.09
241.438
225.139
224.777
224.7
224.544
224.384
224.216
224.051
223.899
223.773
223.678
223.611
223.554
223.492
223.41
223.306
223.191
223.08
222.98
222.893
222.818
222.753
222.697
222.649
222.608
222.573
222.544
222.52
222.497
222.475
222.45
222.424
222.396
222.365
222.331
222.295
222.257
222.218
222.179
222.141
222.106
222.072
222.042
222.014
221.989
221.968
221.95
221.936
221.925
221.918
221.915
221.915
221.92
221.927
221.937
221.951
221.967
221.986
222.007
222.03
222.054
222.08
222.106
222.133
222.16
222.186
222.211
222.234
222.254
222.271
222.283
222.29
222.292
222.285
222.27
222.245
222.207
222.158
222.093
222.011
221.91
221.787
221.639
221.464
221.258
221.018
220.739
220.418
220.051
219.634
219.162
218.63
218.031
217.361
216.611
215.779
214.848
213.828
212.699
211.486
210.155
208.717
207.176
205.479
203.716
201.8
199.902
197.868
195.721
193.576
191.316
189.091
187.084
185.172
183.394
181.76
180.209
178.829
177.7
176.864
174.505
240.66
225.101
224.772
224.703
224.557
224.405
224.243
224.079
223.922
223.788
223.685
223.613
223.559
223.504
223.433
223.339
223.229
223.117
223.015
222.927
222.85
222.785
222.73
222.683
222.643
222.609
222.582
222.559
222.538
222.518
222.498
222.475
222.452
222.425
222.397
222.366
222.333
222.298
222.264
222.23
222.199
222.169
222.143
222.119
222.098
222.081
222.067
222.057
222.051
222.048
222.05
222.055
222.064
222.076
222.092
222.111
222.134
222.159
222.186
222.216
222.248
222.281
222.316
222.352
222.388
222.423
222.459
222.493
222.525
222.555
222.582
222.604
222.621
222.633
222.637
222.633
222.618
222.593
222.555
222.502
222.433
222.344
222.234
222.1
221.939
221.748
221.522
221.259
220.954
220.604
220.201
219.743
219.221
218.632
217.968
217.227
216.395
215.48
214.463
213.36
212.137
210.806
209.348
207.78
206.105
204.308
202.371
200.446
198.391
196.341
194.236
191.924
189.644
187.294
185.03
182.978
181.195
179.74
178.681
178.015
175.805
239.797
225.079
224.755
224.694
224.56
224.422
224.269
224.108
223.948
223.805
223.692
223.614
223.559
223.511
223.451
223.369
223.266
223.156
223.053
222.962
222.884
222.819
222.765
222.719
222.68
222.648
222.621
222.6
222.581
222.564
222.547
222.528
222.509
222.487
222.464
222.438
222.41
222.38
222.351
222.322
222.294
222.269
222.246
222.226
222.21
222.197
222.187
222.181
222.179
222.181
222.187
222.197
222.211
222.229
222.25
222.275
222.303
222.334
222.368
222.404
222.443
222.484
222.527
222.571
222.616
222.662
222.708
222.753
222.797
222.839
222.879
222.916
222.949
222.978
223
223.014
223.021
223.02
223.007
222.982
222.941
222.884
222.809
222.712
222.592
222.445
222.268
222.057
221.808
221.519
221.183
220.797
220.355
219.855
219.287
218.648
217.925
217.121
216.222
215.23
214.117
212.899
211.551
210.094
208.511
206.811
204.954
202.992
200.931
198.782
196.765
194.629
192.495
190.322
188.006
185.788
183.629
181.724
180.166
179.052
176.093
238.88
225.121
224.731
224.669
224.553
224.425
224.288
224.135
223.974
223.823
223.7
223.616
223.558
223.513
223.464
223.394
223.302
223.196
223.092
222.999
222.92
222.855
222.801
222.757
222.719
222.688
222.663
222.643
222.626
222.612
222.597
222.583
222.567
222.55
222.532
222.511
222.488
222.464
222.44
222.415
222.392
222.371
222.352
222.336
222.324
222.315
222.31
222.308
222.311
222.317
222.327
222.342
222.361
222.383
222.41
222.44
222.474
222.511
222.551
222.594
222.64
222.688
222.739
222.791
222.845
222.899
222.955
223.011
223.066
223.12
223.173
223.224
223.272
223.316
223.356
223.39
223.416
223.435
223.446
223.447
223.435
223.41
223.367
223.307
223.226
223.122
222.992
222.832
222.639
222.41
222.139
221.823
221.457
221.035
220.549
219.996
219.365
218.659
217.86
216.969
215.966
214.865
213.649
212.33
210.873
209.285
207.581
205.681
203.733
201.584
199.358
197.08
194.707
192.497
190.253
188.152
186.115
184.298
182.753
181.533
178.383
237.885
225.1
224.691
224.631
224.53
224.418
224.293
224.155
224.001
223.846
223.713
223.619
223.557
223.513
223.47
223.413
223.334
223.235
223.132
223.037
222.956
222.89
222.837
222.794
222.759
222.73
222.706
222.688
222.673
222.661
222.65
222.639
222.627
222.615
222.601
222.585
222.568
222.549
222.529
222.51
222.491
222.474
222.46
222.448
222.44
222.435
222.434
222.437
222.444
222.454
222.469
222.489
222.512
222.54
222.572
222.607
222.647
222.69
222.736
222.786
222.838
222.894
222.951
223.012
223.074
223.137
223.202
223.268
223.334
223.4
223.465
223.529
223.591
223.651
223.707
223.758
223.804
223.844
223.876
223.9
223.914
223.917
223.906
223.879
223.834
223.769
223.681
223.568
223.425
223.251
223.04
222.79
222.493
222.147
221.744
221.281
220.749
220.146
219.456
218.68
217.803
216.832
215.744
214.542
213.199
211.729
210.123
208.402
206.56
204.603
202.46
200.254
197.816
195.321
192.809
190.226
187.876
185.741
184.04
182.79
179.321
236.837
225.144
224.653
224.572
224.483
224.391
224.285
224.165
224.028
223.875
223.733
223.625
223.555
223.509
223.471
223.425
223.36
223.272
223.173
223.077
222.993
222.925
222.873
222.832
222.799
222.773
222.751
222.735
222.722
222.712
222.704
222.696
222.688
222.68
222.671
222.66
222.648
222.635
222.62
222.605
222.592
222.579
222.569
222.562
222.558
222.557
222.561
222.568
222.579
222.594
222.613
222.637
222.665
222.698
222.735
222.776
222.82
222.869
222.921
222.977
223.036
223.098
223.163
223.231
223.301
223.373
223.447
223.522
223.599
223.675
223.752
223.829
223.904
223.978
224.049
224.117
224.182
224.241
224.294
224.341
224.379
224.408
224.425
224.431
224.421
224.394
224.348
224.279
224.185
224.063
223.909
223.72
223.491
223.217
222.892
222.514
222.073
221.565
220.978
220.312
219.553
218.704
217.742
216.663
215.45
214.119
212.645
211.036
209.286
207.4
205.376
203.245
201.039
198.659
196.317
193.74
191.286
188.958
186.861
185.218
181.179
235.737
225.087
224.65
224.539
224.442
224.355
224.265
224.166
224.051
223.909
223.761
223.638
223.556
223.503
223.467
223.429
223.378
223.304
223.212
223.116
223.03
222.96
222.908
222.868
222.838
222.815
222.796
222.782
222.772
222.765
222.759
222.754
222.749
222.745
222.741
222.735
222.729
222.72
222.711
222.701
222.692
222.685
222.679
222.677
222.677
222.681
222.688
222.699
222.715
222.734
222.758
222.786
222.819
222.856
222.898
222.944
222.994
223.049
223.107
223.168
223.234
223.303
223.375
223.45
223.527
223.608
223.69
223.775
223.861
223.948
224.036
224.124
224.212
224.299
224.385
224.469
224.55
224.628
224.7
224.768
224.829
224.883
224.927
224.96
224.981
224.988
224.98
224.952
224.903
224.828
224.727
224.595
224.428
224.223
223.974
223.676
223.322
222.907
222.42
221.863
221.222
220.492
219.649
218.696
217.622
216.436
215.108
213.642
212.007
210.213
208.278
206.154
203.967
201.494
199.013
196.397
193.877
191.587
189.508
187.897
183.999
234.595
225.065
224.608
224.47
224.368
224.291
224.223
224.15
224.054
223.932
223.791
223.658
223.56
223.499
223.46
223.428
223.389
223.33
223.248
223.155
223.067
222.995
222.942
222.904
222.876
222.856
222.841
222.83
222.823
222.819
222.816
222.813
222.812
222.811
222.811
222.81
222.809
222.806
222.802
222.797
222.793
222.79
222.789
222.791
222.796
222.804
222.816
222.831
222.851
222.875
222.903
222.936
222.973
223.015
223.062
223.113
223.168
223.227
223.291
223.359
223.43
223.505
223.584
223.666
223.751
223.839
223.929
224.023
224.118
224.215
224.313
224.412
224.512
224.612
224.712
224.81
224.907
225.002
225.093
225.18
225.262
225.339
225.409
225.47
225.52
225.558
225.584
225.594
225.588
225.56
225.509
225.43
225.322
225.18
224.999
224.775
224.501
224.174
223.784
223.329
222.796
222.18
221.463
220.651
219.73
218.695
217.518
216.198
214.707
213.069
211.286
209.368
207.27
204.96
202.445
199.935
197.091
194.552
192.087
190.094
185.416
233.44
225.028
224.614
224.423
224.296
224.218
224.167
224.116
224.042
223.937
223.811
223.68
223.571
223.499
223.454
223.423
223.393
223.347
223.278
223.191
223.103
223.029
222.975
222.937
222.912
222.895
222.884
222.877
222.874
222.873
222.872
222.873
222.875
222.878
222.881
222.885
222.888
222.89
222.891
222.892
222.893
222.895
222.899
222.906
222.915
222.927
222.943
222.963
222.986
223.015
223.047
223.084
223.126
223.173
223.224
223.28
223.34
223.405
223.474
223.547
223.624
223.705
223.79
223.879
223.971
224.067
224.165
224.266
224.37
224.477
224.585
224.695
224.806
224.918
225.03
225.142
225.254
225.364
225.472
225.577
225.679
225.777
225.87
225.956
226.033
226.101
226.158
226.202
226.232
226.245
226.241
226.212
226.158
226.074
225.958
225.805
225.609
225.367
225.069
224.713
224.285
223.782
223.19
222.511
221.724
220.822
219.781
218.598
217.262
215.797
214.162
212.357
210.367
208.194
205.843
203.418
200.635
198.017
195.574
193.637
189.188
232.283
224.975
224.608
224.386
224.231
224.144
224.096
224.058
224.009
223.927
223.814
223.693
223.585
223.502
223.45
223.418
223.393
223.36
223.304
223.226
223.139
223.063
223.007
222.97
222.947
222.933
222.925
222.923
222.924
222.927
222.93
222.934
222.938
222.944
222.951
222.959
222.967
222.973
222.979
222.985
222.992
222.999
223.007
223.018
223.032
223.049
223.069
223.093
223.121
223.153
223.19
223.232
223.278
223.329
223.385
223.445
223.51
223.58
223.654
223.733
223.815
223.902
223.993
224.088
224.187
224.289
224.395
224.504
224.616
224.731
224.849
224.968
225.09
225.213
225.337
225.462
225.587
225.712
225.836
225.958
226.078
226.196
226.309
226.418
226.521
226.616
226.703
226.78
226.845
226.896
226.93
226.947
226.947
226.916
226.861
226.771
226.645
226.479
226.264
225.997
225.667
225.273
224.801
224.248
223.593
222.828
221.937
220.926
219.777
218.484
216.996
215.337
213.489
211.468
209.255
206.747
204.14
201.289
198.53
196.133
190.973
231.123
224.924
224.587
224.354
224.171
224.063
224.003
223.97
223.937
223.882
223.795
223.69
223.589
223.508
223.451
223.417
223.394
223.368
223.326
223.257
223.174
223.096
223.038
223.001
222.98
222.969
222.964
222.966
222.973
222.979
222.986
222.993
223.001
223.01
223.02
223.032
223.044
223.055
223.066
223.077
223.088
223.1
223.114
223.129
223.148
223.169
223.193
223.222
223.254
223.29
223.331
223.377
223.427
223.483
223.543
223.608
223.678
223.752
223.831
223.915
224.003
224.095
224.192
224.293
224.398
224.507
224.62
224.736
224.856
224.979
225.105
225.234
225.365
225.498
225.634
225.77
225.908
226.046
226.185
226.323
226.459
226.595
226.728
226.858
226.984
227.103
227.217
227.323
227.419
227.505
227.578
227.635
227.675
227.695
227.697
227.667
227.608
227.513
227.377
227.196
226.962
226.671
226.311
225.876
225.346
224.72
223.988
223.145
222.163
221.026
219.708
218.237
216.574
214.713
212.64
210.355
207.888
205.387
202.699
200.422
195.409
229.981
224.81
224.545
224.318
224.113
223.98
223.905
223.869
223.845
223.812
223.756
223.675
223.587
223.511
223.455
223.421
223.398
223.378
223.345
223.286
223.207
223.128
223.068
223.03
223.011
223.003
223.002
223.009
223.02
223.031
223.041
223.053
223.063
223.075
223.088
223.103
223.119
223.135
223.151
223.166
223.182
223.199
223.217
223.238
223.261
223.286
223.315
223.348
223.384
223.425
223.47
223.519
223.574
223.634
223.698
223.767
223.842
223.921
224.005
224.093
224.186
224.284
224.386
224.493
224.604
224.719
224.838
224.961
225.088
225.219
225.353
225.49
225.63
225.773
225.918
226.065
226.215
226.366
226.517
226.669
226.821
226.973
227.124
227.273
227.419
227.562
227.7
227.832
227.958
228.075
228.182
228.278
228.36
228.424
228.471
228.496
228.499
228.468
228.405
228.302
228.154
227.956
227.698
227.373
226.967
226.478
225.892
225.195
224.361
223.382
222.244
220.949
219.455
217.763
215.837
213.689
211.31
208.788
205.97
203.545
198.628
228.88
224.605
224.482
224.286
224.083
223.935
223.841
223.786
223.753
223.726
223.69
223.637
223.57
223.505
223.454
223.42
223.4
223.386
223.363
223.315
223.241
223.161
223.097
223.058
223.041
223.035
223.037
223.049
223.065
223.08
223.095
223.11
223.124
223.139
223.155
223.174
223.193
223.213
223.233
223.253
223.274
223.295
223.318
223.343
223.37
223.401
223.434
223.471
223.511
223.556
223.605
223.659
223.717
223.781
223.849
223.923
224.002
224.085
224.174
224.267
224.364
224.467
224.574
224.686
224.803
224.924
225.049
225.178
225.312
225.45
225.591
225.736
225.885
226.036
226.191
226.348
226.508
226.67
226.834
226.999
227.165
227.332
227.499
227.665
227.83
227.993
228.153
228.309
228.461
228.606
228.744
228.873
228.991
229.097
229.188
229.261
229.313
229.343
229.348
229.317
229.25
229.138
228.974
228.754
228.465
228.105
227.653
227.099
226.425
225.628
224.689
223.593
222.305
220.835
219.143
217.229
215.044
212.628
210.07
207.495
202.605
227.921
224.333
224.373
224.259
224.08
223.916
223.803
223.727
223.678
223.644
223.615
223.58
223.533
223.483
223.442
223.414
223.398
223.388
223.375
223.342
223.277
223.197
223.129
223.087
223.07
223.066
223.07
223.088
223.109
223.128
223.148
223.167
223.184
223.202
223.221
223.242
223.265
223.289
223.313
223.337
223.362
223.388
223.416
223.445
223.477
223.512
223.549
223.59
223.635
223.684
223.737
223.794
223.857
223.924
223.997
224.075
224.157
224.245
224.338
224.435
224.537
224.645
224.757
224.874
224.995
225.122
225.253
225.388
225.528
225.672
225.82
225.972
226.128
226.288
226.451
226.617
226.787
226.959
227.134
227.311
227.49
227.67
227.851
228.033
228.215
228.396
228.576
228.753
228.928
229.099
229.264
229.424
229.575
229.717
229.847
229.965
230.066
230.147
230.206
230.24
230.247
230.213
230.139
230.016
229.835
229.591
229.266
228.851
228.335
227.706
226.94
226.02
224.921
223.639
222.133
220.408
218.413
216.231
213.786
211.359
206.971
227.176
224.047
224.182
224.168
224.056
223.905
223.782
223.687
223.616
223.566
223.532
223.504
223.476
223.444
223.417
223.397
223.389
223.385
223.377
223.359
223.31
223.235
223.163
223.117
223.099
223.096
223.103
223.125
223.15
223.174
223.198
223.222
223.243
223.263
223.285
223.309
223.335
223.363
223.391
223.419
223.448
223.478
223.51
223.544
223.58
223.619
223.661
223.706
223.755
223.807
223.864
223.926
223.992
224.063
224.14
224.221
224.308
224.4
224.496
224.598
224.705
224.816
224.933
225.054
225.181
225.312
225.448
225.589
225.735
225.885
226.039
226.198
226.361
226.528
226.699
226.874
227.052
227.234
227.418
227.606
227.796
227.988
228.182
228.378
228.575
228.773
228.97
229.166
229.361
229.554
229.745
229.93
230.111
230.285
230.45
230.606
230.749
230.878
230.99
231.08
231.146
231.184
231.193
231.158
231.075
230.935
230.725
230.442
230.07
229.595
228.994
228.254
227.353
226.275
224.984
223.465
221.68
219.672
217.327
214.901
210.844
226.621
223.725
223.917
224.016
223.997
223.887
223.765
223.657
223.568
223.499
223.451
223.42
223.399
223.383
223.37
223.364
223.367
223.371
223.371
223.361
223.332
223.271
223.201
223.15
223.13
223.127
223.137
223.163
223.192
223.219
223.247
223.275
223.3
223.323
223.347
223.374
223.403
223.434
223.466
223.498
223.531
223.565
223.601
223.639
223.679
223.722
223.768
223.818
223.87
223.927
223.987
224.053
224.122
224.197
224.278
224.363
224.453
224.549
224.65
224.755
224.866
224.982
225.102
225.228
225.359
225.495
225.636
225.782
225.933
226.088
226.249
226.413
226.583
226.756
226.934
227.116
227.302
227.492
227.686
227.883
228.083
228.286
228.492
228.7
228.91
229.122
229.335
229.548
229.761
229.974
230.186
230.395
230.601
230.803
230.999
231.189
231.37
231.54
231.697
231.839
231.963
232.062
232.135
232.177
232.185
232.142
232.046
231.888
231.652
231.327
230.894
230.338
229.635
228.767
227.703
226.424
224.91
223.139
221.094
218.781
215.206
226.23
223.394
223.609
223.809
223.882
223.853
223.745
223.633
223.531
223.444
223.377
223.333
223.311
223.304
223.305
223.312
223.329
223.348
223.358
223.357
223.34
223.297
223.236
223.185
223.162
223.159
223.17
223.2
223.232
223.263
223.295
223.326
223.355
223.381
223.408
223.437
223.469
223.503
223.538
223.574
223.61
223.649
223.688
223.73
223.775
223.822
223.872
223.925
223.982
224.042
224.106
224.175
224.248
224.327
224.411
224.5
224.594
224.693
224.797
224.907
225.021
225.141
225.265
225.395
225.53
225.671
225.816
225.967
226.122
226.283
226.448
226.618
226.793
226.973
227.157
227.346
227.539
227.736
227.938
228.143
228.352
228.565
228.781
229
229.222
229.447
229.673
229.901
230.13
230.36
230.59
230.82
231.049
231.275
231.498
231.717
231.93
232.136
232.333
232.519
232.691
232.846
232.982
233.091
233.171
233.216
233.225
233.174
233.061
232.867
232.584
232.19
231.666
230.99
230.129
229.063
227.753
226.163
224.321
222.099
218.942
225.981
223.097
223.266
223.544
223.727
223.773
223.718
223.613
223.502
223.405
223.324
223.265
223.23
223.221
223.225
223.244
223.273
223.308
223.334
223.342
223.337
223.31
223.265
223.219
223.196
223.193
223.205
223.238
223.273
223.307
223.342
223.376
223.408
223.437
223.467
223.499
223.533
223.57
223.608
223.647
223.687
223.729
223.772
223.818
223.866
223.917
223.971
224.028
224.089
224.153
224.221
224.293
224.37
224.452
224.539
224.631
224.729
224.832
224.939
225.052
225.17
225.293
225.422
225.556
225.695
225.839
225.988
226.143
226.303
226.468
226.638
226.813
226.993
227.178
227.368
227.563
227.762
227.966
228.175
228.388
228.605
228.826
229.051
229.279
229.511
229.747
229.985
230.226
230.469
230.714
230.96
231.207
231.455
231.702
231.948
232.192
232.433
232.67
232.901
233.125
233.339
233.542
233.73
233.9
234.049
234.168
234.254
234.3
234.303
234.234
234.099
233.865
233.525
233.048
232.405
231.573
230.5
229.166
227.581
225.59
222.777
225.841
222.848
222.946
223.229
223.521
223.654
223.655
223.584
223.476
223.378
223.294
223.226
223.173
223.148
223.148
223.166
223.202
223.251
223.296
223.32
223.325
223.312
223.284
223.25
223.228
223.226
223.241
223.275
223.313
223.35
223.388
223.425
223.46
223.492
223.524
223.558
223.595
223.634
223.675
223.717
223.761
223.806
223.853
223.902
223.954
224.009
224.067
224.127
224.191
224.259
224.33
224.406
224.486
224.572
224.662
224.758
224.859
224.965
225.076
225.192
225.313
225.44
225.572
225.709
225.851
225.999
226.152
226.311
226.475
226.644
226.818
226.998
227.183
227.373
227.567
227.767
227.972
228.182
228.397
228.616
228.84
229.069
229.301
229.538
229.779
230.024
230.273
230.525
230.78
231.037
231.297
231.56
231.824
232.089
232.354
232.62
232.885
233.147
233.407
233.663
233.913
234.156
234.389
234.61
234.815
235.001
235.164
235.291
235.385
235.433
235.435
235.343
235.175
234.881
234.454
233.856
233.024
231.931
230.538
228.747
226.206
225.784
222.702
222.686
222.894
223.242
223.481
223.561
223.534
223.444
223.353
223.274
223.207
223.149
223.103
223.084
223.092
223.124
223.181
223.241
223.286
223.306
223.304
223.291
223.273
223.259
223.259
223.278
223.314
223.353
223.392
223.433
223.473
223.51
223.544
223.578
223.615
223.654
223.696
223.74
223.785
223.832
223.88
223.931
223.983
224.039
224.097
224.158
224.222
224.29
224.361
224.436
224.515
224.598
224.687
224.781
224.879
224.983
225.093
225.207
225.326
225.451
225.58
225.715
225.856
226.002
226.153
226.309
226.472
226.639
226.812
226.99
227.174
227.363
227.557
227.756
227.961
228.171
228.386
228.606
228.831
229.061
229.296
229.535
229.779
230.028
230.281
230.539
230.8
231.065
231.333
231.605
231.88
232.158
232.438
232.72
233.004
233.288
233.573
233.857
234.14
234.42
234.696
234.967
235.23
235.484
235.725
235.949
236.152
236.33
236.468
236.567
236.611
236.593
236.459
236.226
235.837
235.252
234.44
233.293
231.762
229.479
225.755
222.603
222.473
222.586
222.923
223.263
223.43
223.46
223.41
223.331
223.258
223.197
223.138
223.084
223.045
223.033
223.051
223.102
223.173
223.24
223.277
223.289
223.292
223.289
223.286
223.292
223.315
223.352
223.393
223.435
223.477
223.519
223.558
223.595
223.631
223.67
223.712
223.756
223.802
223.85
223.9
223.951
224.005
224.061
224.12
224.181
224.246
224.313
224.384
224.459
224.537
224.619
224.705
224.797
224.894
224.996
225.103
225.215
225.332
225.455
225.582
225.715
225.853
225.996
226.145
226.299
226.459
226.624
226.795
226.971
227.153
227.34
227.533
227.731
227.934
228.143
228.357
228.577
228.802
229.032
229.267
229.507
229.753
230.003
230.258
230.518
230.783
231.053
231.326
231.604
231.886
232.172
232.461
232.754
233.05
233.348
233.649
233.952
234.256
234.561
234.866
235.17
235.472
235.77
236.063
236.35
236.625
236.889
237.134
237.356
237.549
237.698
237.804
237.844
237.806
237.638
237.319
236.79
235.892
234.665
232.595
225.698
222.501
222.323
222.361
222.62
223.009
223.273
223.365
223.359
223.309
223.248
223.192
223.134
223.075
223.025
222.997
222.996
223.027
223.1
223.185
223.241
223.273
223.287
223.299
223.309
223.324
223.352
223.39
223.433
223.476
223.521
223.564
223.605
223.643
223.682
223.723
223.767
223.814
223.862
223.913
223.965
224.019
224.076
224.135
224.197
224.262
224.33
224.401
224.475
224.552
224.633
224.719
224.808
224.903
225.003
225.108
225.218
225.333
225.453
225.578
225.708
225.843
225.984
226.13
226.282
226.439
226.602
226.77
226.944
227.123
227.308
227.498
227.694
227.896
228.103
228.315
228.533
228.757
228.986
229.221
229.461
229.706
229.956
230.212
230.473
230.739
231.011
231.287
231.568
231.854
232.144
232.439
232.738
233.041
233.349
233.66
233.974
234.292
234.613
234.936
235.261
235.588
235.915
236.242
236.567
236.89
237.208
237.52
237.821
238.11
238.38
238.628
238.84
239
239.098
239.116
239.03
238.773
238.183
237.369
235.608
225.619
222.409
222.22
222.198
222.361
222.742
223.088
223.252
223.294
223.275
223.235
223.19
223.137
223.076
223.015
222.972
222.959
222.972
223.031
223.124
223.202
223.252
223.28
223.305
223.328
223.353
223.387
223.428
223.472
223.517
223.563
223.607
223.65
223.69
223.73
223.773
223.82
223.869
223.92
223.973
224.028
224.085
224.145
224.207
224.272
224.34
224.411
224.485
224.562
224.642
224.726
224.814
224.907
225.005
225.107
225.215
225.328
225.445
225.568
225.696
225.829
225.967
226.11
226.259
226.413
226.573
226.738
226.909
227.086
227.268
227.456
227.649
227.848
228.053
228.263
228.479
228.701
228.928
229.161
229.399
229.643
229.893
230.148
230.408
230.674
230.946
231.223
231.505
231.793
232.085
232.383
232.685
232.993
233.305
233.622
233.944
234.27
234.601
234.935
235.273
235.615
235.96
236.307
236.657
237.008
237.36
237.712
238.062
238.408
238.749
239.079
239.397
239.694
239.965
240.187
240.352
240.465
240.492
240.236
239.838
238.615
225.508
222.337
222.132
222.068
222.155
222.484
222.879
223.121
223.211
223.23
223.216
223.185
223.14
223.078
223.011
222.954
222.928
222.932
222.976
223.067
223.161
223.23
223.274
223.31
223.345
223.38
223.42
223.464
223.51
223.557
223.604
223.649
223.692
223.734
223.777
223.822
223.87
223.922
223.975
224.03
224.088
224.148
224.211
224.276
224.344
224.414
224.488
224.565
224.645
224.728
224.815
224.906
225.002
225.102
225.208
225.318
225.433
225.554
225.679
225.809
225.944
226.085
226.231
226.382
226.539
226.701
226.869
227.043
227.222
227.406
227.597
227.793
227.995
228.202
228.416
228.635
228.859
229.09
229.326
229.568
229.816
230.07
230.329
230.594
230.864
231.141
231.423
231.71
232.003
232.301
232.605
232.915
233.229
233.55
233.875
234.206
234.541
234.882
235.228
235.579
235.934
236.294
236.658
237.026
237.398
237.774
238.152
238.532
238.913
239.293
239.671
240.045
240.41
240.764
241.09
241.385
241.627
241.835
241.939
241.823
241.328
225.357
222.276
222.045
221.954
221.991
222.248
222.661
222.971
223.116
223.172
223.188
223.177
223.141
223.081
223.008
222.941
222.904
222.901
222.934
223.022
223.125
223.208
223.267
223.315
223.361
223.406
223.452
223.499
223.546
223.595
223.642
223.689
223.733
223.776
223.82
223.868
223.919
223.972
224.028
224.085
224.146
224.208
224.274
224.341
224.412
224.486
224.562
224.642
224.725
224.811
224.9
224.994
225.092
225.196
225.304
225.417
225.534
225.657
225.785
225.917
226.055
226.198
226.346
226.499
226.659
226.823
226.994
227.17
227.351
227.539
227.732
227.93
228.135
228.345
228.561
228.783
229.011
229.245
229.484
229.73
229.981
230.238
230.501
230.77
231.045
231.325
231.612
231.904
232.202
232.506
232.816
233.131
233.452
233.779
234.112
234.45
234.795
235.144
235.5
235.861
236.227
236.6
236.978
237.361
237.749
238.143
238.541
238.944
239.351
239.761
240.174
240.586
240.999
241.408
241.806
242.191
242.549
242.886
243.196
243.36
243.434
225.162
222.216
221.962
221.853
221.855
222.042
222.449
222.811
223.012
223.108
223.151
223.166
223.139
223.082
223.004
222.93
222.884
222.876
222.904
222.989
223.097
223.19
223.263
223.321
223.376
223.429
223.481
223.531
223.58
223.63
223.679
223.726
223.771
223.816
223.862
223.912
223.965
224.02
224.078
224.138
224.201
224.266
224.334
224.405
224.478
224.554
224.634
224.716
224.801
224.889
224.981
225.078
225.179
225.285
225.395
225.511
225.631
225.756
225.886
226.02
226.16
226.305
226.456
226.612
226.773
226.94
227.113
227.291
227.475
227.665
227.86
228.061
228.268
228.481
228.7
228.924
229.155
229.391
229.634
229.883
230.137
230.398
230.664
230.937
231.215
231.5
231.791
232.088
232.39
232.699
233.014
233.334
233.661
233.994
234.333
234.678
235.03
235.387
235.751
236.121
236.497
236.879
237.268
237.662
238.063
238.471
238.884
239.304
239.729
240.16
240.595
241.034
241.477
241.92
242.362
242.796
243.214
243.63
244.016
244.317
244.619
224.919
222.141
221.885
221.759
221.739
221.871
222.254
222.654
222.904
223.038
223.111
223.145
223.13
223.081
223.001
222.92
222.868
222.858
222.884
222.967
223.077
223.179
223.26
223.328
223.391
223.451
223.507
223.56
223.612
223.663
223.712
223.76
223.807
223.853
223.901
223.953
224.008
224.066
224.126
224.188
224.254
224.321
224.392
224.465
224.541
224.62
224.701
224.786
224.873
224.964
225.059
225.158
225.262
225.37
225.483
225.601
225.723
225.85
225.982
226.119
226.261
226.408