/*--------------------------------*- C++ -*----------------------------------*\
| =========                 |                                                 |
| \\      /  F ield         | OpenFOAM: The Open Source CFD Toolbox           |
|  \\    /   O peration     | Version:  2412                                  |
|   \\  /    A nd           | Website:  www.openfoam.com                      |
|    \\/     M anipulation  |                                                 |
\*---------------------------------------------------------------------------*/
FoamFile
{
    version     2.0;
    format      ascii;
    arch        "LSB;label=32;scalar=64";
    class       volScalarField;
    location    "0.105";
    object      T;
}
// * * * * * * * * * * * * * * * * * * * * * * * * * * * * * * * * * * * * * //

dimensions      [0 0 0 1 0 0 0];

internalField   nonuniform List<scalar> 
78650
(
242.077
225.891
225.043
224.891
224.681
224.497
224.311
224.132
223.961
223.807
223.68
223.583
223.514
223.46
223.411
223.355
223.281
223.186
223.076
222.962
222.854
222.756
222.668
222.587
222.513
222.445
222.384
222.328
222.276
222.227
222.181
222.138
222.099
222.063
222.029
221.995
221.962
221.928
221.895
221.861
221.829
221.797
221.767
221.737
221.708
221.68
221.653
221.628
221.605
221.583
221.563
221.545
221.528
221.514
221.5
221.488
221.478
221.468
221.459
221.45
221.441
221.431
221.419
221.405
221.388
221.367
221.342
221.312
221.275
221.23
221.177
221.113
221.037
220.948
220.843
220.72
220.578
220.414
220.225
220.009
219.761
219.479
219.158
218.795
218.387
217.928
217.413
216.84
216.203
215.499
214.715
213.851
212.897
211.871
210.747
209.546
208.231
206.805
205.275
203.605
201.844
200.073
198.267
196.382
194.452
192.504
190.554
188.62
186.758
184.85
182.954
181.184
179.525
178.03
176.73
175.554
174.601
173.831
173.344
173.097
171.691
241.297
225.799
225.112
224.939
224.715
224.521
224.334
224.158
223.99
223.835
223.701
223.597
223.52
223.463
223.415
223.365
223.299
223.212
223.107
222.995
222.887
222.788
222.7
222.62
222.546
222.479
222.42
222.366
222.316
222.269
222.224
222.184
222.147
222.113
222.082
222.051
222.021
221.991
221.961
221.932
221.903
221.876
221.85
221.825
221.8
221.777
221.755
221.735
221.716
221.7
221.685
221.672
221.661
221.652
221.645
221.639
221.635
221.632
221.63
221.629
221.628
221.627
221.625
221.62
221.614
221.605
221.592
221.575
221.552
221.523
221.487
221.441
221.385
221.317
221.236
221.139
221.025
220.891
220.736
220.555
220.347
220.109
219.835
219.524
219.171
218.771
218.321
217.816
217.251
216.619
215.912
215.13
214.265
213.323
212.282
211.161
209.926
208.601
207.168
205.63
203.983
202.214
200.384
198.529
196.615
194.665
192.787
190.838
188.961
187.114
185.19
183.347
181.538
179.785
178.245
176.88
175.794
174.961
174.367
173.999
172.419
240.539
225.673
225.138
224.963
224.738
224.54
224.356
224.185
224.02
223.864
223.725
223.612
223.527
223.465
223.417
223.371
223.314
223.236
223.138
223.029
222.92
222.821
222.732
222.652
222.58
222.514
222.456
222.404
222.356
222.311
222.269
222.23
222.196
222.164
222.136
222.108
222.082
222.055
222.029
222.003
221.979
221.956
221.934
221.913
221.894
221.875
221.858
221.843
221.829
221.818
221.809
221.801
221.796
221.793
221.791
221.792
221.794
221.798
221.804
221.81
221.817
221.825
221.832
221.837
221.841
221.843
221.843
221.839
221.83
221.816
221.795
221.768
221.731
221.684
221.624
221.552
221.464
221.359
221.234
221.088
220.916
220.717
220.487
220.222
219.919
219.574
219.182
218.741
218.243
217.684
217.058
216.365
215.595
214.749
213.807
212.776
211.634
210.416
209.093
207.667
206.14
204.483
202.718
200.868
198.992
196.953
194.944
192.935
190.885
189.032
187.143
185.274
183.442
181.582
179.76
178.113
176.717
175.592
174.869
174.501
172.843
239.852
225.578
225.142
224.965
224.744
224.554
224.376
224.21
224.05
223.896
223.753
223.631
223.536
223.468
223.418
223.375
223.325
223.257
223.167
223.063
222.956
222.855
222.766
222.686
222.614
222.55
222.493
222.443
222.397
222.355
222.316
222.279
222.246
222.217
222.191
222.167
222.144
222.121
222.099
222.077
222.056
222.037
222.02
222.004
221.989
221.975
221.963
221.952
221.944
221.937
221.933
221.932
221.931
221.934
221.938
221.945
221.954
221.965
221.977
221.991
222.006
222.021
222.037
222.052
222.067
222.079
222.09
222.098
222.103
222.103
222.098
222.087
222.069
222.041
222.003
221.953
221.891
221.813
221.718
221.604
221.468
221.308
221.12
220.901
220.649
220.358
220.025
219.646
219.216
218.73
218.184
217.574
216.89
216.129
215.276
214.338
213.3
212.18
210.944
209.618
208.187
206.655
205.036
203.273
201.469
199.57
197.548
195.57
193.419
191.262
189.247
187.245
185.377
183.614
181.807
180.127
178.618
177.248
176.172
175.453
173.322
239.096
225.494
225.109
224.95
224.743
224.559
224.392
224.235
224.08
223.929
223.785
223.655
223.549
223.471
223.418
223.376
223.333
223.275
223.195
223.097
222.992
222.892
222.802
222.722
222.651
222.587
222.531
222.483
222.44
222.4
222.364
222.33
222.299
222.273
222.249
222.228
222.208
222.189
222.17
222.153
222.136
222.121
222.108
222.096
222.086
222.077
222.07
222.064
222.06
222.059
222.061
222.064
222.07
222.077
222.088
222.101
222.116
222.133
222.152
222.173
222.196
222.22
222.244
222.269
222.293
222.316
222.338
222.358
222.376
222.389
222.399
222.404
222.403
222.394
222.377
222.349
222.31
222.258
222.191
222.107
222.004
221.879
221.73
221.554
221.346
221.105
220.825
220.504
220.137
219.719
219.246
218.714
218.111
217.436
216.676
215.839
214.91
213.901
212.785
211.577
210.241
208.79
207.218
205.537
203.712
201.856
199.869
197.868
195.849
193.654
191.543
189.33
187.157
185.122
183.18
181.435
179.914
178.675
177.763
177.121
174.987
238.282
225.449
225.086
224.934
224.739
224.559
224.398
224.254
224.11
223.965
223.82
223.683
223.565
223.477
223.418
223.376
223.338
223.289
223.22
223.131
223.031
222.931
222.84
222.76
222.689
222.626
222.571
222.524
222.484
222.447
222.413
222.382
222.354
222.33
222.31
222.291
222.274
222.259
222.244
222.231
222.218
222.207
222.198
222.191
222.186
222.182
222.179
222.178
222.18
222.184
222.19
222.199
222.21
222.223
222.24
222.258
222.28
222.304
222.329
222.358
222.388
222.419
222.452
222.486
222.519
222.552
222.585
222.616
222.646
222.673
222.697
222.717
222.732
222.741
222.743
222.736
222.72
222.693
222.652
222.598
222.526
222.436
222.324
222.189
222.026
221.834
221.607
221.344
221.038
220.687
220.284
219.825
219.303
218.714
218.051
217.316
216.493
215.583
214.561
213.446
212.213
210.886
209.441
207.883
206.221
204.413
202.534
200.485
198.508
196.365
194.25
192.104
189.897
187.714
185.491
183.352
181.374
179.655
178.44
177.682
175.291
237.386
225.415
225.072
224.917
224.727
224.549
224.395
224.26
224.134
223.999
223.858
223.717
223.589
223.488
223.419
223.375
223.34
223.299
223.242
223.164
223.07
222.972
222.88
222.799
222.728
222.666
222.612
222.567
222.528
222.495
222.464
222.436
222.412
222.39
222.372
222.357
222.343
222.332
222.321
222.311
222.302
222.295
222.291
222.288
222.288
222.288
222.291
222.295
222.301
222.31
222.322
222.336
222.353
222.372
222.394
222.419
222.446
222.476
222.509
222.544
222.581
222.621
222.662
222.704
222.746
222.789
222.832
222.875
222.917
222.956
222.994
223.028
223.059
223.085
223.105
223.117
223.122
223.118
223.104
223.076
223.034
222.975
222.898
222.8
222.678
222.53
222.351
222.14
221.89
221.6
221.264
220.879
220.437
219.936
219.366
218.725
217.997
217.183
216.27
215.267
214.147
212.926
211.58
210.128
208.553
206.845
205.044
203.09
201.027
198.909
196.681
194.531
192.316
190.182
188.051
186.003
184.078
182.387
180.85
179.639
176.602
236.434
225.426
225.041
224.881
224.694
224.52
224.376
224.252
224.14
224.027
223.898
223.758
223.621
223.506
223.425
223.375
223.341
223.307
223.261
223.194
223.109
223.014
222.923
222.841
222.77
222.708
222.655
222.611
222.575
222.544
222.517
222.492
222.47
222.452
222.437
222.425
222.415
222.406
222.399
222.394
222.389
222.386
222.386
222.388
222.392
222.397
222.405
222.414
222.425
222.439
222.456
222.476
222.498
222.522
222.55
222.581
222.614
222.651
222.69
222.731
222.776
222.823
222.871
222.922
222.973
223.026
223.079
223.132
223.185
223.236
223.287
223.335
223.381
223.423
223.46
223.492
223.516
223.533
223.542
223.541
223.527
223.5
223.455
223.394
223.311
223.206
223.074
222.914
222.72
222.49
222.219
221.902
221.534
221.111
220.624
220.071
219.438
218.727
217.924
217.033
216.036
214.942
213.73
212.409
210.959
209.385
207.678
205.858
203.856
201.802
199.544
197.237
194.845
192.388
190.025
187.633
185.471
183.671
182.348
181.483
178.683
235.428
225.464
225.023
224.818
224.627
224.464
224.335
224.231
224.135
224.039
223.932
223.804
223.663
223.534
223.439
223.38
223.343
223.313
223.277
223.222
223.147
223.058
222.968
222.885
222.814
222.752
222.7
222.657
222.622
222.594
222.57
222.549
222.531
222.516
222.504
222.495
222.488
222.483
222.48
222.478
222.478
222.479
222.483
222.489
222.498
222.508
222.52
222.534
222.551
222.57
222.592
222.617
222.645
222.675
222.708
222.744
222.784
222.826
222.872
222.92
222.971
223.026
223.082
223.141
223.201
223.262
223.325
223.388
223.452
223.515
223.578
223.639
223.699
223.756
223.81
223.859
223.903
223.941
223.972
223.993
224.005
224.007
223.993
223.965
223.919
223.852
223.763
223.649
223.505
223.33
223.118
222.866
222.569
222.224
221.822
221.358
220.823
220.218
219.529
218.757
217.884
216.911
215.816
214.608
213.266
211.81
210.219
208.495
206.661
204.691
202.619
200.413
198.232
195.824
193.444
190.933
188.409
186.088
184.022
182.549
178.963
234.362
225.432
225.036
224.8
224.583
224.412
224.287
224.194
224.116
224.037
223.949
223.842
223.709
223.574
223.464
223.392
223.349
223.32
223.29
223.247
223.184
223.103
223.015
222.932
222.86
222.798
222.746
222.704
222.671
222.645
222.624
222.606
222.592
222.581
222.572
222.567
222.563
222.562
222.562
222.565
222.568
222.574
222.581
222.592
222.605
222.62
222.637
222.656
222.678
222.702
222.729
222.759
222.792
222.828
222.867
222.909
222.954
223.003
223.054
223.109
223.167
223.228
223.292
223.358
223.427
223.497
223.568
223.641
223.715
223.79
223.864
223.938
224.011
224.083
224.152
224.218
224.28
224.337
224.389
224.434
224.47
224.496
224.512
224.516
224.505
224.476
224.428
224.358
224.263
224.141
223.986
223.796
223.566
223.292
222.966
222.586
222.142
221.634
221.046
220.379
219.614
218.754
217.78
216.695
215.481
214.145
212.665
211.055
209.298
207.381
205.342
203.098
200.826
198.442
195.971
193.71
191.301
189.244
187.298
185.662
181.621
233.234
225.471
225.039
224.774
224.532
224.35
224.222
224.135
224.073
224.015
223.946
223.857
223.746
223.618
223.501
223.415
223.361
223.329
223.302
223.269
223.218
223.147
223.064
222.981
222.908
222.845
222.793
222.752
222.72
222.696
222.678
222.665
222.654
222.646
222.642
222.64
222.64
222.642
222.646
222.652
222.66
222.669
222.681
222.696
222.713
222.733
222.755
222.779
222.805
222.835
222.867
222.902
222.941
222.982
223.026
223.074
223.125
223.179
223.237
223.298
223.362
223.43
223.501
223.575
223.651
223.73
223.81
223.892
223.976
224.061
224.147
224.233
224.318
224.404
224.488
224.569
224.648
224.724
224.795
224.86
224.92
224.971
225.013
225.045
225.064
225.07
225.06
225.031
224.98
224.905
224.803
224.67
224.502
224.296
224.046
223.747
223.393
222.978
222.492
221.933
221.285
220.549
219.707
218.761
217.695
216.511
215.185
213.726
212.117
210.366
208.454
206.383
204.09
201.727
199.124
196.493
193.791
191.25
189.245
187.789
183.997
232.059
225.419
225.075
224.764
224.491
224.287
224.15
224.064
224.013
223.975
223.927
223.856
223.761
223.651
223.539
223.446
223.382
223.343
223.316
223.289
223.25
223.191
223.115
223.033
222.959
222.895
222.842
222.801
222.77
222.749
222.734
222.723
222.716
222.712
222.711
222.714
222.718
222.724
222.732
222.741
222.752
222.766
222.782
222.801
222.822
222.847
222.873
222.902
222.933
222.967
223.005
223.045
223.089
223.135
223.185
223.238
223.294
223.354
223.418
223.485
223.556
223.63
223.708
223.789
223.873
223.959
224.048
224.139
224.232
224.327
224.423
224.52
224.618
224.716
224.813
224.91
225.005
225.097
225.186
225.272
225.352
225.427
225.494
225.554
225.602
225.639
225.663
225.673
225.665
225.636
225.584
225.504
225.395
225.252
225.07
224.845
224.571
224.243
223.851
223.394
222.857
222.239
221.526
220.715
219.79
218.746
217.561
216.241
214.764
213.147
211.368
209.424
207.33
205.099
202.702
200.027
197.474
194.72
192.124
190.019
185.336
230.87
225.315
225.07
224.761
224.476
224.253
224.097
223.998
223.944
223.913
223.884
223.835
223.758
223.659
223.559
223.472
223.407
223.363
223.334
223.31
223.28
223.233
223.165
223.087
223.011
222.945
222.891
222.85
222.821
222.801
222.788
222.781
222.778
222.778
222.781
222.788
222.796
222.806
222.817
222.83
222.846
222.863
222.883
222.905
222.931
222.96
222.992
223.025
223.061
223.1
223.142
223.187
223.236
223.288
223.343
223.401
223.463
223.529
223.598
223.671
223.748
223.828
223.913
224.001
224.092
224.186
224.282
224.382
224.484
224.588
224.694
224.802
224.911
225.02
225.131
225.241
225.351
225.459
225.565
225.669
225.769
225.865
225.955
226.039
226.115
226.182
226.237
226.28
226.308
226.32
226.315
226.285
226.23
226.145
226.028
225.874
225.677
225.434
225.134
224.776
224.346
223.844
223.253
222.571
221.779
220.871
219.83
218.657
217.326
215.85
214.204
212.389
210.384
208.173
205.897
203.381
200.751
198.211
195.73
193.636
188.696
229.694
225.136
225.008
224.767
224.486
224.248
224.07
223.948
223.877
223.841
223.818
223.788
223.734
223.652
223.561
223.481
223.42
223.378
223.35
223.331
223.31
223.275
223.217
223.143
223.067
222.998
222.943
222.901
222.872
222.854
222.843
222.839
222.84
222.844
222.851
222.861
222.874
222.888
222.903
222.92
222.939
222.96
222.983
223.01
223.04
223.073
223.109
223.147
223.187
223.231
223.278
223.328
223.381
223.438
223.498
223.562
223.629
223.7
223.775
223.854
223.936
224.023
224.113
224.208
224.306
224.407
224.511
224.618
224.729
224.842
224.957
225.075
225.194
225.315
225.437
225.56
225.683
225.806
225.928
226.049
226.167
226.283
226.395
226.502
226.603
226.697
226.782
226.857
226.921
226.97
227.004
227.02
227.018
226.987
226.93
226.839
226.712
226.544
226.328
226.061
225.732
225.338
224.864
224.306
223.647
222.883
221.998
220.986
219.827
218.523
217.043
215.393
213.544
211.5
209.238
206.848
204.12
201.445
198.748
196.682
192.084
228.602
224.892
224.92
224.771
224.499
224.247
224.052
223.91
223.818
223.767
223.741
223.719
223.684
223.624
223.548
223.476
223.419
223.38
223.356
223.341
223.33
223.31
223.267
223.2
223.125
223.053
222.994
222.951
222.922
222.906
222.897
222.896
222.901
222.909
222.919
222.934
222.951
222.969
222.989
223.009
223.032
223.056
223.083
223.114
223.148
223.185
223.225
223.268
223.312
223.36
223.412
223.466
223.525
223.587
223.652
223.72
223.792
223.869
223.949
224.033
224.122
224.214
224.31
224.411
224.515
224.623
224.734
224.849
224.967
225.088
225.213
225.34
225.469
225.6
225.733
225.868
226.004
226.141
226.277
226.413
226.548
226.682
226.813
226.941
227.065
227.183
227.295
227.399
227.494
227.579
227.651
227.706
227.745
227.765
227.765
227.734
227.675
227.578
227.442
227.26
227.025
226.731
226.366
225.926
225.397
224.773
224.04
223.189
222.199
221.065
219.762
218.297
216.629
214.769
212.683
210.399
207.984
205.194
202.31
199.788
194.53
227.68
224.616
224.772
224.711
224.494
224.242
224.036
223.882
223.773
223.703
223.661
223.635
223.608
223.568
223.513
223.455
223.407
223.373
223.352
223.341
223.337
223.33
223.307
223.256
223.185
223.111
223.049
223.003
222.973
222.958
222.951
222.952
222.962
222.974
222.987
223.005
223.027
223.05
223.073
223.098
223.124
223.152
223.183
223.216
223.254
223.295
223.34
223.386
223.436
223.488
223.543
223.603
223.666
223.732
223.802
223.875
223.952
224.034
224.119
224.209
224.302
224.4
224.502
224.608
224.719
224.833
224.951
225.073
225.198
225.327
225.459
225.595
225.733
225.874
226.017
226.163
226.31
226.459
226.609
226.759
226.91
227.06
227.209
227.356
227.501
227.642
227.778
227.909
228.033
228.149
228.255
228.349
228.43
228.493
228.539
228.562
228.565
228.532
228.469
228.364
228.214
228.014
227.754
227.43
227.027
226.54
225.953
225.254
224.424
223.456
222.326
221.033
219.541
217.862
215.951
213.844
211.507
209.059
206.423
204.092
199.183
226.947
224.292
224.526
224.56
224.45
224.227
224.018
223.86
223.745
223.661
223.601
223.558
223.525
223.493
223.454
223.412
223.376
223.351
223.335
223.329
223.333
223.337
223.331
223.3
223.241
223.169
223.104
223.054
223.023
223.008
223.003
223.007
223.021
223.036
223.053
223.076
223.101
223.128
223.156
223.185
223.215
223.247
223.28
223.317
223.358
223.403
223.452
223.503
223.556
223.613
223.673
223.736
223.803
223.874
223.949
224.027
224.108
224.194
224.285
224.379
224.478
224.581
224.688
224.8
224.916
225.036
225.161
225.289
225.421
225.557
225.697
225.84
225.987
226.137
226.29
226.445
226.604
226.764
226.926
227.089
227.253
227.418
227.584
227.748
227.912
228.073
228.231
228.386
228.536
228.679
228.816
228.944
229.061
229.166
229.256
229.327
229.378
229.407
229.411
229.379
229.31
229.197
229.033
228.813
228.524
228.159
227.703
227.145
226.471
225.668
224.716
223.608
222.312
220.823
219.092
217.139
214.932
212.51
209.948
207.325
202.517
226.409
223.913
224.194
224.338
224.339
224.205
224.014
223.853
223.734
223.641
223.565
223.502
223.453
223.414
223.379
223.348
223.326
223.31
223.305
223.31
223.324
223.337
223.339
223.327
223.287
223.225
223.159
223.107
223.074
223.059
223.055
223.061
223.079
223.098
223.119
223.145
223.174
223.205
223.238
223.27
223.304
223.339
223.377
223.417
223.461
223.51
223.562
223.617
223.675
223.735
223.799
223.866
223.938
224.013
224.092
224.174
224.26
224.351
224.446
224.545
224.648
224.756
224.868
224.985
225.107
225.233
225.363
225.497
225.635
225.778
225.925
226.076
226.23
226.388
226.549
226.714
226.882
227.053
227.226
227.401
227.577
227.756
227.936
228.116
228.296
228.476
228.654
228.83
229.003
229.172
229.336
229.494
229.644
229.785
229.915
230.031
230.131
230.21
230.268
230.301
230.307
230.272
230.197
230.072
229.887
229.639
229.312
228.898
228.383
227.753
226.988
226.074
224.984
223.714
222.222
220.505
218.507
216.3
213.859
211.345
206.802
226.079
223.549
223.79
224.037
224.157
224.138
224.003
223.859
223.737
223.638
223.553
223.477
223.409
223.35
223.306
223.274
223.257
223.251
223.254
223.272
223.295
223.321
223.335
223.334
223.316
223.271
223.211
223.157
223.123
223.107
223.105
223.114
223.136
223.158
223.183
223.212
223.245
223.281
223.317
223.354
223.391
223.43
223.471
223.514
223.561
223.613
223.669
223.728
223.79
223.854
223.921
223.993
224.068
224.147
224.23
224.317
224.407
224.502
224.601
224.705
224.813
224.925
225.042
225.164
225.29
225.422
225.557
225.697
225.841
225.99
226.143
226.301
226.462
226.627
226.797
226.97
227.146
227.326
227.509
227.695
227.883
228.074
228.267
228.461
228.656
228.852
229.048
229.243
229.436
229.628
229.816
230.001
230.18
230.353
230.517
230.672
230.814
230.942
231.053
231.141
231.206
231.243
231.25
231.212
231.127
230.987
230.78
230.5
230.13
229.656
229.059
228.322
227.421
226.341
225.05
223.539
221.775
219.805
217.522
215.181
211.182
225.924
223.264
223.39
223.658
223.897
223.994
223.966
223.864
223.748
223.649
223.559
223.475
223.396
223.322
223.259
223.21
223.183
223.179
223.189
223.215
223.254
223.296
223.325
223.332
223.326
223.301
223.255
223.205
223.17
223.154
223.153
223.166
223.191
223.217
223.246
223.278
223.315
223.354
223.394
223.435
223.476
223.519
223.563
223.609
223.66
223.715
223.774
223.836
223.902
223.97
224.041
224.116
224.195
224.278
224.365
224.455
224.55
224.648
224.752
224.859
224.972
225.088
225.21
225.336
225.467
225.603
225.744
225.889
226.038
226.193
226.352
226.515
226.683
226.855
227.032
227.212
227.397
227.585
227.777
227.972
228.171
228.372
228.576
228.783
228.991
229.201
229.413
229.624
229.836
230.048
230.258
230.465
230.67
230.871
231.066
231.255
231.434
231.603
231.759
231.9
232.022
232.12
232.192
232.232
232.24
232.197
232.101
231.938
231.698
231.367
230.927
230.362
229.649
228.771
227.696
226.4
224.851
223.032
220.93
218.56
215.008
225.891
223.062
223.075
223.254
223.553
223.775
223.865
223.841
223.754
223.662
223.57
223.481
223.398
223.322
223.251
223.184
223.134
223.114
223.119
223.145
223.193
223.251
223.299
223.321
223.324
223.313
223.285
223.245
223.214
223.199
223.199
223.215
223.244
223.274
223.306
223.342
223.382
223.425
223.469
223.514
223.559
223.605
223.652
223.702
223.755
223.813
223.875
223.941
224.01
224.082
224.156
224.235
224.318
224.404
224.495
224.589
224.687
224.789
224.896
225.008
225.124
225.245
225.371
225.501
225.637
225.777
225.922
226.072
226.227
226.386
226.55
226.719
226.893
227.071
227.254
227.441
227.633
227.829
228.029
228.232
228.44
228.651
228.865
229.083
229.303
229.526
229.751
229.977
230.205
230.434
230.662
230.891
231.118
231.343
231.565
231.782
231.994
232.199
232.395
232.58
232.75
232.904
233.039
233.146
233.225
233.268
233.275
233.221
233.106
232.913
232.632
232.243
231.725
231.057
230.204
229.15
227.863
226.307
224.501
222.291
219.14
225.931
222.958
222.859
222.917
223.16
223.472
223.692
223.765
223.737
223.668
223.582
223.497
223.41
223.329
223.255
223.185
223.123
223.08
223.067
223.081
223.124
223.191
223.257
223.298
223.312
223.312
223.3
223.276
223.251
223.24
223.242
223.263
223.295
223.329
223.365
223.405
223.448
223.495
223.543
223.591
223.639
223.688
223.739
223.792
223.848
223.909
223.974
224.043
224.115
224.19
224.268
224.35
224.436
224.526
224.62
224.718
224.82
224.926
225.036
225.152
225.271
225.396
225.525
225.66
225.799
225.944
226.093
226.247
226.406
226.57
226.739
226.913
227.092
227.276
227.465
227.658
227.856
228.058
228.265
228.477
228.692
228.911
229.135
229.362
229.593
229.827
230.063
230.302
230.544
230.787
231.032
231.278
231.524
231.77
232.015
232.258
232.498
232.734
232.963
233.186
233.399
233.6
233.787
233.956
234.103
234.22
234.305
234.35
234.355
234.287
234.153
233.917
233.578
233.101
232.457
231.622
230.539
229.183
227.57
225.567
222.741
226.003
222.921
222.731
222.679
222.8
223.112
223.446
223.63
223.681
223.653
223.582
223.506
223.427
223.347
223.267
223.192
223.125
223.072
223.044
223.04
223.064
223.124
223.201
223.261
223.292
223.303
223.303
223.294
223.281
223.276
223.283
223.309
223.344
223.382
223.422
223.465
223.512
223.562
223.614
223.665
223.717
223.769
223.823
223.879
223.938
224.002
224.07
224.142
224.217
224.295
224.376
224.461
224.551
224.644
224.741
224.842
224.947
225.056
225.17
225.289
225.413
225.541
225.674
225.811
225.955
226.103
226.256
226.414
226.577
226.746
226.919
227.097
227.281
227.47
227.663
227.862
228.065
228.274
228.487
228.705
228.927
229.154
229.385
229.621
229.86
230.104
230.351
230.601
230.855
231.111
231.37
231.63
231.893
232.157
232.421
232.685
232.949
233.211
233.47
233.724
233.973
234.215
234.446
234.666
234.87
235.054
235.215
235.342
235.434
235.48
235.478
235.38
235.205
234.903
234.464
233.854
233.018
231.933
230.558
228.78
226.257
226.058
222.907
222.645
222.514
222.538
222.756
223.131
223.437
223.577
223.601
223.564
223.503
223.435
223.371
223.291
223.21
223.135
223.074
223.037
223.024
223.029
223.069
223.142
223.213
223.262
223.286
223.298
223.301
223.302
223.306
223.321
223.352
223.391
223.433
223.477
223.524
223.575
223.628
223.683
223.737
223.792
223.848
223.904
223.963
224.025
224.092
224.163
224.238
224.316
224.397
224.481
224.569
224.661
224.758
224.858
224.962
225.07
225.182
225.299
225.421
225.548
225.679
225.816
225.957
226.103
226.255
226.412
226.574
226.741
226.912
227.09
227.272
227.46
227.653
227.852
228.055
228.263
228.477
228.696
228.919
229.148
229.381
229.619
229.862
230.109
230.361
230.617
230.876
231.14
231.407
231.678
231.951
232.227
232.506
232.787
233.069
233.353
233.636
233.919
234.201
234.48
234.755
235.024
235.286
235.538
235.778
236.001
236.202
236.379
236.514
236.613
236.656
236.64
236.516
236.293
235.916
235.34
234.525
233.366
231.82
229.518
226.095
222.902
222.593
222.395
222.348
222.46
222.798
223.185
223.426
223.508
223.51
223.479
223.432
223.383
223.319
223.241
223.159
223.086
223.038
223.015
223.014
223.036
223.093
223.164
223.225
223.264
223.287
223.302
223.315
223.33
223.355
223.392
223.435
223.482
223.53
223.581
223.635
223.691
223.749
223.807
223.865
223.923
223.983
224.044
224.109
224.179
224.253
224.33
224.411
224.495
224.582
224.673
224.768
224.867
224.97
225.077
225.188
225.303
225.423
225.548
225.678
225.812
225.952
226.096
226.245
226.4
226.56
226.725
226.896
227.071
227.252
227.438
227.63
227.827
228.029
228.237
228.45
228.668
228.891
229.12
229.354
229.593
229.837
230.085
230.339
230.598
230.862
231.129
231.401
231.678
231.958
232.243
232.531
232.822
233.117
233.414
233.714
234.016
234.319
234.622
234.926
235.229
235.529
235.826
236.118
236.403
236.677
236.939
237.183
237.405
237.597
237.746
237.851
237.888
237.842
237.66
237.329
236.791
235.895
234.677
232.619
226.091
222.882
222.554
222.305
222.211
222.248
222.491
222.897
223.225
223.381
223.425
223.426
223.41
223.382
223.337
223.276
223.197
223.114
223.049
223.013
223.005
223.015
223.061
223.127
223.19
223.239
223.273
223.299
223.323
223.35
223.385
223.429
223.478
223.529
223.581
223.636
223.693
223.753
223.814
223.874
223.935
223.996
224.058
224.123
224.191
224.263
224.339
224.42
224.503
224.589
224.679
224.772
224.87
224.972
225.078
225.188
225.302
225.42
225.542
225.67
225.802
225.94
226.082
226.229
226.381
226.539
226.702
226.87
227.044
227.222
227.406
227.596
227.791
227.991
228.197
228.409
228.625
228.848
229.076
229.309
229.547
229.791
230.04
230.294
230.554
230.819
231.089
231.364
231.643
231.927
232.216
232.51
232.808
233.11
233.416
233.726
234.039
234.356
234.676
234.998
235.322
235.647
235.973
236.298
236.622
236.944
237.261
237.571
237.871
238.159
238.427
238.671
238.88
239.038
239.136
239.157
239.076
238.824
238.234
237.416
235.645
226.049
222.843
222.514
222.236
222.107
222.094
222.235
222.605
222.992
223.223
223.318
223.352
223.366
223.365
223.345
223.3
223.237
223.154
223.073
223.02
223.002
223.003
223.037
223.097
223.161
223.216
223.259
223.295
223.329
223.367
223.412
223.464
223.519
223.574
223.631
223.689
223.75
223.812
223.876
223.939
224.002
224.066
224.131
224.198
224.269
224.344
224.423
224.506
224.592
224.68
224.773
224.869
224.969
225.074
225.182
225.294
225.411
225.531
225.657
225.787
225.922
226.062
226.206
226.356
226.511
226.672
226.838
227.009
227.185
227.366
227.553
227.746
227.944
228.148
228.357
228.572
228.792
229.018
229.25
229.487
229.73
229.978
230.232
230.491
230.755
231.026
231.301
231.582
231.868
232.159
232.455
232.757
233.063
233.374
233.689
234.01
234.335
234.664
234.997
235.335
235.675
236.019
236.365
236.714
237.064
237.415
237.765
238.114
238.458
238.797
239.126
239.444
239.741
240.013
240.235
240.398
240.506
240.527
240.267
239.867
238.643
225.985
222.789
222.465
222.174
222.019
221.969
222.04
222.339
222.749
223.044
223.193
223.263
223.307
223.333
223.339
223.312
223.269
223.197
223.108
223.036
223.003
223
223.022
223.076
223.14
223.199
223.249
223.293
223.335
223.383
223.437
223.497
223.558
223.618
223.678
223.74
223.804
223.87
223.936
224.002
224.067
224.133
224.2
224.27
224.344
224.422
224.504
224.589
224.677
224.768
224.863
224.961
225.064
225.171
225.282
225.397
225.516
225.639
225.766
225.899
226.036
226.179
226.326
226.478
226.636
226.799
226.967
227.141
227.32
227.504
227.694
227.889
228.09
228.297
228.509
228.727
228.951
229.18
229.415
229.656
229.902
230.155
230.412
230.676
230.945
231.22
231.501
231.787
232.078
232.375
232.678
232.986
233.299
233.618
233.942
234.272
234.606
234.946
235.291
235.64
235.994
236.353
236.716
237.083
237.454
237.828
238.205
238.584
238.963
239.342
239.719
240.092
240.455
240.807
241.131
241.423
241.664
241.872
241.976
241.859
241.361
225.896
222.719
222.403
222.114
221.941
221.865
221.891
222.112
222.515
222.859
223.059
223.166
223.239
223.293
223.32
223.315
223.285
223.232
223.147
223.061
223.011
223.001
223.015
223.065
223.129
223.19
223.244
223.293
223.343
223.399
223.462
223.528
223.595
223.66
223.724
223.79
223.857
223.925
223.994
224.062
224.129
224.198
224.267
224.34
224.416
224.497
224.581
224.669
224.759
224.852
224.949
225.05
225.155
225.265
225.378
225.495
225.616
225.741
225.872
226.006
226.146
226.291
226.44
226.595
226.755
226.921
227.091
227.267
227.449
227.635
227.828
228.026
228.23
228.439
228.654
228.875
229.102
229.334
229.573
229.817
230.067
230.323
230.584
230.852
231.125
231.405
231.69
231.981
232.278
232.58
232.888
233.202
233.522
233.848
234.179
234.516
234.859
235.208
235.562
235.922
236.288
236.659
237.036
237.418
237.805
238.197
238.595
238.996
239.402
239.811
240.222
240.634
241.045
241.453
241.85
242.234
242.591
242.927
243.235
243.398
243.469
225.78
222.639
222.325
222.05
221.867
221.772
221.773
221.924
222.301
222.679
222.924
223.066
223.166
223.245
223.293
223.308
223.292
223.253
223.181
223.09
223.027
223.009
223.017
223.063
223.126
223.188
223.245
223.299
223.355
223.418
223.488
223.56
223.631
223.7
223.769
223.838
223.908
223.979
224.049
224.119
224.189
224.259
224.331
224.406
224.485
224.568
224.655
224.745
224.838
224.933
225.032
225.135
225.243
225.354
225.47
225.589
225.712
225.84
225.972
226.109
226.251
226.398
226.55
226.707
226.869
227.037
227.21
227.388
227.571
227.761
227.955
228.156
228.362
228.574
228.792
229.016
229.245
229.481
229.722
229.97
230.223
230.482
230.747
231.018
231.296
231.579
231.869
232.164
232.465
232.773
233.086
233.406
233.731
234.063
234.4
234.744
235.095
235.451
235.813
236.182
236.557
236.939
237.326
237.72
238.12
238.526
238.938
239.356
239.78
240.21
240.644
241.082
241.524
241.966
242.406
242.839
243.256
243.671
244.056
244.356
244.657
225.626
222.549
222.241
221.984
221.798
221.688
221.67
221.771
222.114
222.515
222.797
222.969
223.093
223.193
223.26
223.293
223.288
223.258
223.203
223.119
223.049
223.023
223.027
223.065
223.13
223.195
223.254
223.31
223.371
223.439
223.514
223.591
223.666
223.739
223.811
223.884
223.957
224.03
224.102
224.174
224.246
224.318
224.392
224.47
224.551
224.637
224.726
224.818
224.913
225.01
225.111
225.217
225.326
225.44
225.557
225.679
225.804
225.934
226.068