/*--------------------------------*- C++ -*----------------------------------*\
| =========                 |                                                 |
| \\      /  F ield         | OpenFOAM: The Open Source CFD Toolbox           |
|  \\    /   O peration     | Version:  2412                                  |
|   \\  /    A nd           | Website:  www.openfoam.com                      |
|    \\/     M anipulation  |                                                 |
\*---------------------------------------------------------------------------*/
FoamFile
{
    version     2.0;
    format      ascii;
    arch        "LSB;label=32;scalar=64";
    class       volVectorField;
    location    "0.105";
    object      U;
}
// * * * * * * * * * * * * * * * * * * * * * * * * * * * * * * * * * * * * * //

dimensions      [0 1 -1 0 0 0 0];

internalField   nonuniform List<vector> 
78650
(
(153.612 34.5771 0)
(187.03 -7.47293 0)
(194.988 -7.66783 0)
(198.812 -6.60658 0)
(201.574 -6.69727 0)
(203.483 -6.42647 0)
(204.903 -6.29987 0)
(205.948 -6.25338 0)
(206.736 -6.26552 0)
(207.339 -6.28427 0)
(207.807 -6.26667 0)
(208.172 -6.21312 0)
(208.466 -6.15028 0)
(208.716 -6.08988 0)
(208.951 -6.03523 0)
(209.205 -5.98177 0)
(209.514 -5.93374 0)
(209.891 -5.8947 0)
(210.312 -5.85841 0)
(210.741 -5.81666 0)
(211.147 -5.75741 0)
(211.521 -5.67304 0)
(211.864 -5.56056 0)
(212.187 -5.4221 0)
(212.496 -5.25864 0)
(212.788 -5.06954 0)
(213.061 -4.85317 0)
(213.318 -4.6117 0)
(213.562 -4.34674 0)
(213.797 -4.0598 0)
(214.023 -3.74923 0)
(214.238 -3.4138 0)
(214.442 -3.05231 0)
(214.638 -2.66513 0)
(214.827 -2.25315 0)
(215.011 -1.81738 0)
(215.193 -1.35819 0)
(215.372 -0.874816 0)
(215.547 -0.366487 0)
(215.717 0.167808 0)
(215.882 0.72964 0)
(216.04 1.3201 0)
(216.192 1.93931 0)
(216.336 2.58724 0)
(216.471 3.26381 0)
(216.599 3.96888 0)
(216.716 4.70302 0)
(216.821 5.46736 0)
(216.913 6.26208 0)
(216.992 7.08687 0)
(217.059 7.94176 0)
(217.112 8.82686 0)
(217.152 9.74295 0)
(217.179 10.6909 0)
(217.192 11.6706 0)
(217.192 12.6825 0)
(217.18 13.7273 0)
(217.156 14.8052 0)
(217.122 15.9174 0)
(217.078 17.0643 0)
(217.026 18.2466 0)
(216.968 19.4644 0)
(216.908 20.7181 0)
(216.847 22.0086 0)
(216.788 23.3372 0)
(216.733 24.7057 0)
(216.684 26.1149 0)
(216.645 27.5646 0)
(216.625 29.058 0)
(216.621 30.5954 0)
(216.638 32.1774 0)
(216.689 33.8067 0)
(216.773 35.4826 0)
(216.899 37.2068 0)
(217.077 38.9811 0)
(217.305 40.8059 0)
(217.606 42.6829 0)
(217.972 44.6114 0)
(218.434 46.592 0)
(218.984 48.6235 0)
(219.648 50.7049 0)
(220.435 52.8341 0)
(221.356 55.0083 0)
(222.438 57.2239 0)
(223.68 59.479 0)
(225.124 61.7637 0)
(226.748 64.0754 0)
(228.63 66.3957 0)
(230.711 68.7351 0)
(233.114 71.0483 0)
(235.719 73.3503 0)
(238.717 75.5533 0)
(241.921 77.7506 0)
(245.629 79.7839 0)
(249.535 81.8586 0)
(253.975 83.5977 0)
(258.573 85.2857 0)
(263.706 86.6342 0)
(269.358 87.8082 0)
(275.183 88.6109 0)
(281.04 89.2261 0)
(287.364 89.4177 0)
(294.202 89.1569 0)
(300.899 88.6821 0)
(307.473 88.0687 0)
(313.849 87.1893 0)
(320.334 86.0056 0)
(326.908 84.5692 0)
(333.123 82.9347 0)
(338.49 81.4474 0)
(343.585 79.9367 0)
(348.603 78.0663 0)
(352.988 76.421 0)
(358.162 74.2857 0)
(362.144 72.2401 0)
(364.95 70.2817 0)
(367.004 68.3373 0)
(369.159 67.3986 0)
(373.477 66.3427 0)
(380.214 65.222 0)
(382.756 68.8658 0)
(156.045 34.2663 0)
(187.248 -6.44348 0)
(195.513 -7.39663 0)
(199.127 -6.47311 0)
(201.7 -6.50583 0)
(203.496 -6.23571 0)
(204.85 -6.13168 0)
(205.871 -6.12154 0)
(206.641 -6.15478 0)
(207.236 -6.18249 0)
(207.719 -6.17437 0)
(208.114 -6.13369 0)
(208.435 -6.08352 0)
(208.697 -6.03142 0)
(208.926 -5.98069 0)
(209.161 -5.92776 0)
(209.443 -5.87622 0)
(209.792 -5.832 0)
(210.194 -5.79231 0)
(210.615 -5.74998 0)
(211.02 -5.69255 0)
(211.393 -5.61074 0)
(211.734 -5.5013 0)
(212.052 -5.36581 0)
(212.354 -5.20565 0)
(212.639 -5.02022 0)
(212.903 -4.80786 0)
(213.15 -4.57014 0)
(213.383 -4.30885 0)
(213.608 -4.02562 0)
(213.823 -3.71914 0)
(214.028 -3.38826 0)
(214.221 -3.03151 0)
(214.405 -2.64914 0)
(214.58 -2.2421 0)
(214.75 -1.81154 0)
(214.916 -1.3577 0)
(215.077 -0.879979 0)
(215.235 -0.377934 0)
(215.387 0.14937 0)
(215.534 0.703444 0)
(215.673 1.28541 0)
(215.805 1.89566 0)
(215.928 2.53422 0)
(216.043 3.20076 0)
(216.15 3.89506 0)
(216.245 4.61778 0)
(216.329 5.36998 0)
(216.398 6.15188 0)
(216.454 6.96324 0)
(216.498 7.80428 0)
(216.527 8.67487 0)
(216.543 9.57535 0)
(216.544 10.5073 0)
(216.53 11.4706 0)
(216.503 12.465 0)
(216.462 13.4918 0)
(216.408 14.5511 0)
(216.343 15.6436 0)
(216.266 16.7703 0)
(216.179 17.9318 0)
(216.083 19.1284 0)
(215.983 20.3603 0)
(215.88 21.6283 0)
(215.775 22.9337 0)
(215.671 24.2781 0)
(215.569 25.6637 0)
(215.475 27.0888 0)
(215.393 28.5575 0)
(215.322 30.0705 0)
(215.267 31.6273 0)
(215.24 33.2324 0)
(215.238 34.8846 0)
(215.271 36.5856 0)
(215.348 38.3379 0)
(215.467 40.142 0)
(215.649 42.0008 0)
(215.884 43.9136 0)
(216.204 45.8826 0)
(216.599 47.9066 0)
(217.095 49.9863 0)
(217.7 52.121 0)
(218.424 54.3096 0)
(219.292 56.5501 0)
(220.305 58.8402 0)
(221.505 61.1724 0)
(222.872 63.5452 0)
(224.481 65.946 0)
(226.276 68.378 0)
(228.374 70.8031 0)
(230.669 73.2322 0)
(233.34 75.6075 0)
(236.221 77.9884 0)
(239.561 80.2534 0)
(243.066 82.5356 0)
(247.105 84.561 0)
(251.287 86.5854 0)
(255.96 88.2463 0)
(260.796 89.8104 0)
(266.043 91.0777 0)
(271.705 92.0841 0)
(277.808 92.7745 0)
(284.199 93.2741 0)
(290.641 93.4311 0)
(297.194 93.2637 0)
(304.069 92.7978 0)
(311.123 91.7889 0)
(317.354 90.7436 0)
(324.525 89.1777 0)
(330.74 87.5159 0)
(336.34 86.1519 0)
(342.273 84.4034 0)
(347.382 82.9093 0)
(352.899 81.0643 0)
(357.473 79.2418 0)
(360.909 77.2342 0)
(363.481 74.8871 0)
(365.565 73.0527 0)
(369.306 71.6866 0)
(376.419 70.4913 0)
(379.179 74.6641 0)
(157.437 32.8674 0)
(188.374 -5.63325 0)
(196.074 -6.95657 0)
(199.344 -6.11167 0)
(201.713 -6.18766 0)
(203.473 -6.00248 0)
(204.832 -5.96132 0)
(205.822 -5.99362 0)
(206.542 -6.04294 0)
(207.114 -6.07836 0)
(207.611 -6.08005 0)
(208.04 -6.05197 0)
(208.393 -6.01345 0)
(208.671 -5.9695 0)
(208.901 -5.9241 0)
(209.121 -5.87411 0)
(209.376 -5.82117 0)
(209.693 -5.77306 0)
(210.071 -5.73081 0)
(210.479 -5.68856 0)
(210.88 -5.63365 0)
(211.253 -5.5552 0)
(211.592 -5.44965 0)
(211.907 -5.31778 0)
(212.203 -5.16144 0)
(212.481 -4.98024 0)
(212.738 -4.77242 0)
(212.975 -4.53888 0)
(213.198 -4.28157 0)
(213.411 -4.00216 0)
(213.615 -3.69974 0)
(213.81 -3.37318 0)
(213.994 -3.02085 0)
(214.166 -2.64293 0)
(214.328 -2.24047 0)
(214.484 -1.81473 0)
(214.634 -1.36589 0)
(214.778 -0.893539 0)
(214.919 -0.397498 0)
(215.054 0.123157 0)
(215.182 0.669818 0)
(215.303 1.24365 0)
(215.415 1.84529 0)
(215.517 2.47478 0)
(215.611 3.13156 0)
(215.697 3.81555 0)
(215.771 4.52736 0)
(215.832 5.26794 0)
(215.88 6.03772 0)
(215.913 6.83629 0)
(215.933 7.6642 0)
(215.938 8.52165 0)
(215.929 9.40763 0)
(215.904 10.3248 0)
(215.864 11.2724 0)
(215.809 12.2504 0)
(215.739 13.2613 0)
(215.655 14.3038 0)
(215.557 15.3789 0)
(215.446 16.4877 0)
(215.323 17.6308 0)
(215.19 18.8084 0)
(215.049 20.0209 0)
(214.903 21.2692 0)
(214.752 22.5543 0)
(214.6 23.8776 0)
(214.444 25.2431 0)
(214.294 26.6454 0)
(214.152 28.0902 0)
(214.015 29.5808 0)
(213.892 31.1137 0)
(213.79 32.695 0)
(213.705 34.3239 0)
(213.651 36.0005 0)
(213.633 37.7286 0)
(213.649 39.5082 0)
(213.719 41.3429 0)
(213.834 43.232 0)
(214.023 45.1785 0)
(214.276 47.181 0)
(214.618 49.241 0)
(215.054 51.3584 0)
(215.596 53.5324 0)
(216.264 55.762 0)
(217.063 58.0454 0)
(218.026 60.3793 0)
(219.14 62.763 0)
(220.467 65.1875 0)
(221.961 67.6519 0)
(223.73 70.1318 0)
(225.684 72.6377 0)
(227.984 75.1348 0)
(230.487 77.6567 0)
(233.407 80.1141 0)
(236.511 82.5764 0)
(240.139 84.8528 0)
(243.903 87.1567 0)
(248.255 89.1831 0)
(252.829 91.2189 0)
(258.009 92.9301 0)
(263.58 94.4591 0)
(269.36 95.5806 0)
(275.195 96.4844 0)
(281.487 97.129 0)
(288.154 97.4052 0)
(294.228 97.4109 0)
(301.377 97.0345 0)
(307.755 96.3657 0)
(314.736 95.3972 0)
(321.877 93.9651 0)
(328.008 92.4201 0)
(334.686 90.6423 0)
(340.602 89.0159 0)
(345.977 87.373 0)
(350.529 85.8753 0)
(354.647 83.98 0)
(357.656 81.8982 0)
(360.335 80.4058 0)
(364.866 79.0228 0)
(372.57 77.5535 0)
(375.544 81.5634 0)
(159.514 31.0056 0)
(189.79 -5.36117 0)
(196.574 -6.40063 0)
(199.602 -5.73319 0)
(201.87 -5.86848 0)
(203.594 -5.79146 0)
(204.884 -5.81576 0)
(205.78 -5.86817 0)
(206.43 -5.92469 0)
(206.988 -5.96518 0)
(207.504 -5.97537 0)
(207.966 -5.95928 0)
(208.351 -5.93341 0)
(208.65 -5.89979 0)
(208.884 -5.86174 0)
(209.094 -5.81626 0)
(209.322 -5.76226 0)
(209.606 -5.7097 0)
(209.955 -5.66321 0)
(210.346 -5.61896 0)
(210.741 -5.56511 0)
(211.113 -5.48944 0)
(211.452 -5.3878 0)
(211.763 -5.25963 0)
(212.053 -5.10713 0)
(212.324 -4.93028 0)
(212.572 -4.72737 0)
(212.799 -4.49851 0)
(213.01 -4.2458 0)
(213.21 -3.97075 0)
(213.403 -3.67304 0)
(213.587 -3.35151 0)
(213.759 -3.00449 0)
(213.919 -2.63204 0)
(214.068 -2.23529 0)
(214.209 -1.8154 0)
(214.343 -1.37252 0)
(214.47 -0.906542 0)
(214.593 -0.417432 0)
(214.71 0.0957003 0)
(214.821 0.63403 0)
(214.923 1.19881 0)
(215.016 1.79091 0)
(215.097 2.41032 0)
(215.17 3.0563 0)
(215.234 3.72907 0)
(215.287 4.429 0)
(215.327 5.15667 0)
(215.352 5.91323 0)
(215.364 6.69795 0)
(215.36 7.51146 0)
(215.341 8.35409 0)
(215.309 9.22282 0)
(215.259 10.1237 0)
(215.193 11.0545 0)
(215.111 12.0159 0)
(215.013 13.0077 0)
(214.901 14.0308 0)
(214.773 15.0858 0)
(214.631 16.1737 0)
(214.475 17.2952 0)
(214.306 18.4507 0)
(214.128 19.6405 0)
(213.941 20.8652 0)
(213.748 22.1264 0)
(213.549 23.4255 0)
(213.348 24.7625 0)
(213.145 26.1396 0)
(212.947 27.5574 0)
(212.747 29.0232 0)
(212.56 30.5269 0)
(212.387 32.078 0)
(212.223 33.6793 0)
(212.087 35.3273 0)
(211.976 37.028 0)
(211.894 38.78 0)
(211.855 40.5881 0)
(211.852 42.452 0)
(211.912 44.3755 0)
(212.024 46.3576 0)
(212.213 48.4011 0)
(212.481 50.5067 0)
(212.841 52.6747 0)
(213.312 54.9059 0)
(213.897 57.1998 0)
(214.629 59.5553 0)
(215.496 61.971 0)
(216.558 64.4403 0)
(217.776 66.9618 0)
(219.252 69.5214 0)
(220.901 72.1269 0)
(222.873 74.7511 0)
(225.039 77.4076 0)
(227.592 80.0232 0)
(230.336 82.6374 0)
(233.566 85.1273 0)
(236.953 87.644 0)
(240.932 89.9358 0)
(245.031 92.2401 0)
(249.643 94.2194 0)
(254.497 96.1647 0)
(259.962 97.8767 0)
(265.988 99.3396 0)
(272.12 100.299 0)
(278.995 101.148 0)
(285.641 101.392 0)
(292.529 101.451 0)
(299.839 101.005 0)
(306.085 100.611 0)
(313.432 99.7868 0)
(320.365 98.5334 0)
(327.032 97.061 0)
(333.775 95.3087 0)
(340.362 93.1119 0)
(345.691 91.4053 0)
(351.04 89.2499 0)
(354.037 87.4736 0)
(356.001 86.1062 0)
(359.843 85.2176 0)
(368.355 83.7701 0)
(371.446 88.8404 0)
(161.151 28.7404 0)
(190.972 -4.9167 0)
(197.185 -5.87041 0)
(200.028 -5.43128 0)
(202.162 -5.62502 0)
(203.774 -5.6174 0)
(204.919 -5.66159 0)
(205.698 -5.73247 0)
(206.307 -5.80214 0)
(206.855 -5.85094 0)
(207.38 -5.86915 0)
(207.869 -5.86203 0)
(208.288 -5.84737 0)
(208.616 -5.82563 0)
(208.863 -5.79729 0)
(209.068 -5.75719 0)
(209.273 -5.70407 0)
(209.523 -5.64914 0)
(209.837 -5.59934 0)
(210.204 -5.55334 0)
(210.588 -5.50098 0)
(210.957 -5.42907 0)
(211.297 -5.33248 0)
(211.605 -5.209 0)
(211.891 -5.06116 0)
(212.155 -4.88942 0)
(212.397 -4.69211 0)
(212.614 -4.46863 0)
(212.813 -4.22107 0)
(213.001 -3.95072 0)
(213.181 -3.6579 0)
(213.353 -3.34139 0)
(213.513 -2.99963 0)
(213.661 -2.63255 0)
(213.798 -2.24135 0)
(213.924 -1.82705 0)
(214.042 -1.38987 0)
(214.153 -0.930103 0)
(214.258 -0.44771 0)
(214.357 0.0581251 0)
(214.45 0.588318 0)
(214.533 1.14427 0)
(214.606 1.72696 0)
(214.667 2.33641 0)
(214.719 2.97159 0)
(214.761 3.63326 0)
(214.791 4.32156 0)
(214.81 5.03658 0)
(214.813 5.77992 0)
(214.801 6.55043 0)
(214.774 7.3492 0)
(214.732 8.17619 0)
(214.673 9.03222 0)
(214.599 9.91639 0)
(214.507 10.8301 0)
(214.398 11.7736 0)
(214.272 12.7475 0)
(214.13 13.7522 0)
(213.971 14.7882 0)
(213.796 15.8565 0)
(213.606 16.9578 0)
(213.402 18.0925 0)
(213.185 19.261 0)
(212.957 20.4639 0)
(212.721 21.7023 0)
(212.476 22.9776 0)
(212.225 24.2915 0)
(211.97 25.6446 0)
(211.713 27.0393 0)
(211.458 28.4738 0)
(211.207 29.9524 0)
(210.964 31.476 0)
(210.723 33.0528 0)
(210.507 34.6696 0)
(210.307 36.3408 0)
(210.132 38.0627 0)
(209.992 39.8409 0)
(209.879 41.6748 0)
(209.82 43.5682 0)
(209.803 45.5203 0)
(209.853 47.5339 0)
(209.969 49.6104 0)
(210.164 51.7507 0)
(210.455 53.9563 0)
(210.845 56.227 0)
(211.362 58.5631 0)
(211.998 60.9635 0)
(212.806 63.4267 0)
(213.75 65.9521 0)
(214.921 68.5339 0)
(216.241 71.1748 0)
(217.849 73.8556 0)
(219.632 76.5773 0)
(221.774 79.2945 0)
(224.114 82.0371 0)
(226.917 84.735 0)
(229.897 87.4794 0)
(233.443 90.1028 0)
(237.157 92.7788 0)
(241.509 95.1868 0)
(246.063 97.5459 0)
(251.122 99.5554 0)
(256.482 101.446 0)
(262.315 103.002 0)
(268.313 104.239 0)
(275.09 105.317 0)
(281.485 105.924 0)
(288.909 106.29 0)
(295.958 106.093 0)
(302.701 105.719 0)
(310.205 104.916 0)
(316.443 104.038 0)
(323.33 102.899 0)
(330.459 101.45 0)
(336.526 99.8971 0)
(343.298 97.6182 0)
(347.525 95.1554 0)
(351.053 92.5802 0)
(355.867 90.599 0)
(364.8 89.2543 0)
(368.105 94.761 0)
(163.388 26.3278 0)
(192.302 -4.86671 0)
(197.925 -5.50725 0)
(200.487 -5.18441 0)
(202.429 -5.36089 0)
(203.905 -5.37163 0)
(204.934 -5.46635 0)
(205.634 -5.58548 0)
(206.202 -5.67337 0)
(206.73 -5.72941 0)
(207.254 -5.75183 0)
(207.764 -5.75191 0)
(208.221 -5.74961 0)
(208.583 -5.74331 0)
(208.848 -5.72743 0)
(209.052 -5.69288 0)
(209.238 -5.64174 0)
(209.454 -5.58524 0)
(209.731 -5.53124 0)
(210.067 -5.4814 0)
(210.435 -5.42849 0)
(210.8 -5.35943 0)
(211.14 -5.26764 0)
(211.446 -5.14892 0)
(211.727 -5.00578 0)
(211.986 -4.83915 0)
(212.219 -4.64754 0)
(212.426 -4.42983 0)
(212.613 -4.18786 0)
(212.787 -3.92275 0)
(212.953 -3.63539 0)
(213.111 -3.32447 0)
(213.258 -2.98881 0)
(213.393 -2.62812 0)
(213.517 -2.24353 0)
(213.628 -1.83578 0)
(213.729 -1.40539 0)
(213.823 -0.952946 0)
(213.911 -0.478318 0)
(213.992 0.0191864 0)
(214.066 0.540232 0)
(214.13 1.08638 0)
(214.183 1.65839 0)
(214.223 2.25682 0)
(214.255 2.88035 0)
(214.275 3.52987 0)
(214.283 4.20525 0)
(214.28 4.90592 0)
(214.261 5.63404 0)
(214.226 6.39061 0)
(214.175 7.17441 0)
(214.109 7.9853 0)
(214.027 8.82334 0)
(213.929 9.68973 0)
(213.812 10.5851 0)
(213.676 11.5098 0)
(213.523 12.4641 0)
(213.353 13.4482 0)
(213.165 14.4628 0)
(212.96 15.5088 0)
(212.738 16.587 0)
(212.5 17.6979 0)
(212.248 18.842 0)
(211.982 20.0197 0)
(211.706 21.2321 0)
(211.419 22.4806 0)
(211.123 23.7662 0)
(210.819 25.0903 0)
(210.511 26.4543 0)
(210.199 27.8602 0)
(209.886 29.309 0)
(209.575 30.8032 0)
(209.273 32.3409 0)
(208.98 33.9267 0)
(208.693 35.5686 0)
(208.428 37.2563 0)
(208.189 38.9996 0)
(207.97 40.8003 0)
(207.796 42.6616 0)
(207.651 44.5842 0)
(207.564 46.5693 0)
(207.528 48.6203 0)
(207.559 50.7382 0)
(207.669 52.9263 0)
(207.864 55.1849 0)
(208.168 57.5164 0)
(208.576 59.9203 0)
(209.135 62.3977 0)
(209.815 64.9463 0)
(210.7 67.5637 0)
(211.721 70.2468 0)
(213.01 72.9833 0)
(214.464 75.7715 0)
(216.249 78.589 0)
(218.223 81.4597 0)
(220.614 84.3348 0)
(223.185 87.2561 0)
(226.276 90.0851 0)
(229.517 92.9269 0)
(233.36 95.5767 0)
(237.369 98.2505 0)
(241.992 100.643 0)
(246.887 102.981 0)
(252.335 105.028 0)
(258.265 106.888 0)
(264.541 108.367 0)
(271.35 109.505 0)
(277.94 110.272 0)
(285.838 110.885 0)
(292.57 110.889 0)
(300.723 110.535 0)
(307.774 109.872 0)
(315.074 108.929 0)
(321.899 108.041 0)
(328.447 106.945 0)
(334.815 105.268 0)
(339.464 103.308 0)
(343.132 101.404 0)
(347.953 100.111 0)
(357.133 98.555 0)
(360.151 104.017 0)
(165.575 23.7272 0)
(193.562 -4.61479 0)
(198.651 -5.21352 0)
(200.932 -4.94885 0)
(202.719 -5.09211 0)
(204.092 -5.14497 0)
(205.025 -5.2747 0)
(205.641 -5.42152 0)
(206.111 -5.54135 0)
(206.593 -5.60706 0)
(207.104 -5.63585 0)
(207.633 -5.6418 0)
(208.129 -5.6499 0)
(208.531 -5.65894 0)
(208.821 -5.65555 0)
(209.028 -5.62786 0)
(209.202 -5.58014 0)
(209.391 -5.52443 0)
(209.628 -5.46753 0)
(209.928 -5.41418 0)
(210.273 -5.36079 0)
(210.63 -5.29522 0)
(210.968 -5.20912 0)
(211.274 -5.09641 0)
(211.551 -4.9591 0)
(211.804 -4.79863 0)
(212.03 -4.6136 0)
(212.228 -4.40263 0)
(212.404 -4.16695 0)
(212.565 -3.90765 0)
(212.717 -3.62602 0)
(212.86 -3.32086 0)
(212.994 -2.99145 0)
(213.115 -2.63724 0)
(213.224 -2.25924 0)
(213.32 -1.85793 0)
(213.406 -1.4343 0)
(213.483 -0.989078 0)
(213.553 -0.522062 0)
(213.616 -0.0327143 0)
(213.672 0.479285 0)
(213.716 1.01603 0)
(213.749 1.57742 0)
(213.769 2.16469 0)
(213.779 2.77637 0)
(213.777 3.41343 0)
(213.763 4.07528 0)
(213.737 4.76337 0)
(213.695 5.47775 0)
(213.638 6.21861 0)
(213.564 6.98629 0)
(213.474 7.78084 0)
(213.367 8.60245 0)
(213.242 9.45152 0)
(213.1 10.3287 0)
(212.938 11.2345 0)
(212.757 12.1692 0)
(212.558 13.1332 0)
(212.34 14.127 0)
(212.104 15.1515 0)
(211.85 16.2075 0)
(211.577 17.2957 0)
(211.288 18.4164 0)
(210.984 19.5701 0)
(210.667 20.7577 0)
(210.337 21.9804 0)
(209.994 23.2398 0)
(209.641 24.537 0)
(209.28 25.8733 0)
(208.913 27.2496 0)
(208.542 28.6678 0)
(208.168 30.1297 0)
(207.795 31.6382 0)
(207.424 33.1947 0)
(207.064 34.7975 0)
(206.717 36.4507 0)
(206.383 38.1602 0)
(206.062 39.9267 0)
(205.781 41.7471 0)
(205.517 43.6323 0)
(205.307 45.5781 0)
(205.133 47.5913 0)
(205.018 49.6701 0)
(204.966 51.8196 0)
(204.987 54.0399 0)
(205.099 56.3349 0)
(205.298 58.7044 0)
(205.628 61.152 0)
(206.06 63.6754 0)
(206.671 66.2777 0)
(207.398 68.9553 0)
(208.362 71.7084 0)
(209.466 74.536 0)
(210.864 77.4293 0)
(212.435 80.3934 0)
(214.387 83.3887 0)
(216.515 86.4306 0)
(219.132 89.441 0)
(221.92 92.4953 0)
(225.303 95.4529 0)
(228.881 98.4449 0)
(233.11 101.225 0)
(237.574 104 0)
(242.608 106.491 0)
(247.973 108.857 0)
(253.865 110.883 0)
(260.309 112.736 0)
(266.814 114.042 0)
(274.118 115.224 0)
(281.294 115.807 0)
(288.821 116.107 0)
(297.019 115.906 0)
(304.503 115.272 0)
(312.889 114.236 0)
(320.115 113.042 0)
(328.044 110.993 0)
(333.271 109.133 0)
(337.433 106.755 0)
(341.923 106.083 0)
(352.194 105.165 0)
(355.087 112.801 0)
(168.168 21.0137 0)
(194.92 -4.51573 0)
(199.208 -4.65293 0)
(201.307 -4.54425 0)
(203.003 -4.71994 0)
(204.295 -4.85262 0)
(205.118 -5.05246 0)
(205.638 -5.24397 0)
(206.07 -5.37635 0)
(206.482 -5.47386 0)
(206.963 -5.51596 0)
(207.495 -5.5304 0)
(208.022 -5.5483 0)
(208.465 -5.57116 0)
(208.786 -5.57986 0)
(209.005 -5.56002 0)
(209.176 -5.5166 0)
(209.343 -5.46199 0)
(209.541 -5.40255 0)
(209.798 -5.34512 0)
(210.114 -5.28949 0)
(210.458 -5.2257 0)
(210.793 -5.14401 0)
(211.099 -5.03694 0)
(211.373 -4.90518 0)
(211.62 -4.75055 0)
(211.839 -4.57178 0)
(212.028 -4.36757 0)
(212.191 -4.13823 0)
(212.339 -3.88512 0)
(212.475 -3.60952 0)
(212.603 -3.31065 0)
(212.721 -2.98825 0)
(212.827 -2.64143 0)
(212.921 -2.2709 0)
(213 -1.87703 0)
(213.07 -1.46125 0)
(213.13 -1.02425 0)
(213.183 -0.566084 0)
(213.227 -0.0857507 0)
(213.264 0.416384 0)
(213.289 0.942615 0)
(213.303 1.49122 0)
(213.303 2.06604 0)
(213.29 2.66615 0)
(213.266 3.29001 0)
(213.23 3.93799 0)
(213.182 4.61055 0)
(213.118 5.30879 0)
(213.038 6.03343 0)
(212.94 6.78449 0)
(212.826 7.56171 0)
(212.695 8.36505 0)
(212.546 9.19496 0)
(212.379 10.0522 0)
(212.191 10.9373 0)
(211.984 11.8508 0)
(211.757 12.7928 0)
(211.512 13.7639 0)
(211.246 14.7646 0)
(210.961 15.7959 0)
(210.657 16.8585 0)
(210.334 17.9529 0)
(209.994 19.0795 0)
(209.639 20.239 0)
(209.269 21.4327 0)
(208.885 22.6619 0)
(208.487 23.9278 0)
(208.078 25.2318 0)
(207.659 26.5752 0)
(207.233 27.9598 0)
(206.799 29.387 0)
(206.362 30.8587 0)
(205.925 32.3766 0)
(205.489 33.9435 0)
(205.057 35.5612 0)
(204.636 37.2313 0)
(204.229 38.9539 0)
(203.845 40.7341 0)
(203.458 42.5874 0)
(203.127 44.4893 0)
(202.814 46.4644 0)
(202.555 48.5062 0)
(202.342 50.6228 0)
(202.188 52.8128 0)
(202.108 55.0814 0)
(202.101 57.4287 0)
(202.203 59.8605 0)
(202.393 62.3742 0)
(202.74 64.9763 0)
(203.185 67.661 0)
(203.843 70.433 0)
(204.625 73.2844 0)
(205.674 76.213 0)
(206.878 79.217 0)
(208.422 82.2766 0)
(210.132 85.3987 0)
(212.29 88.5395 0)
(214.618 91.7405 0)
(217.495 94.9068 0)
(220.552 98.1185 0)
(224.226 101.217 0)
(228.129 104.352 0)
(232.682 107.271 0)
(237.546 110.147 0)
(242.991 112.733 0)
(248.823 115.135 0)
(255.281 117.215 0)
(261.949 118.851 0)
(269.376 120.293 0)
(276.378 121.24 0)
(284.419 121.834 0)
(291.673 122.058 0)
(299.415 121.897 0)
(307.304 121.466 0)
(315.509 120.336 0)
(321.852 118.982 0)
(328.037 116.87 0)
(334.139 114.648 0)
(344.826 112.727 0)
(348.035 119.056 0)
(170.909 18.2367 0)
(196.095 -4.45024 0)
(199.643 -4.1376 0)
(201.758 -4.08071 0)
(203.385 -4.28385 0)
(204.563 -4.51462 0)
(205.262 -4.80418 0)
(205.707 -5.04545 0)
(206.069 -5.21397 0)
(206.431 -5.33296 0)
(206.843 -5.40218 0)
(207.343 -5.43041 0)
(207.879 -5.4568 0)
(208.357 -5.48958 0)
(208.719 -5.50807 0)
(208.968 -5.49467 0)
(209.145 -5.45705 0)
(209.295 -5.40383 0)
(209.459 -5.34355 0)
(209.674 -5.28314 0)
(209.955 -5.22449 0)
(210.278 -5.16146 0)
(210.607 -5.08394 0)
(210.912 -4.98368 0)
(211.184 -4.85914 0)
(211.426 -4.71212 0)
(211.637 -4.54132 0)
(211.818 -4.34541 0)
(211.971 -4.12347 0)
(212.106 -3.8774 0)
(212.228 -3.60813 0)
(212.339 -3.31592 0)
(212.442 -3.00067 0)
(212.532 -2.66132 0)
(212.609 -2.29827 0)
(212.672 -1.912 0)
(212.726 -1.50428 0)
(212.77 -1.07507 0)
(212.806 -0.625716 0)
(212.831 -0.154382 0)
(212.848 0.337396 0)
(212.854 0.852047 0)
(212.847 1.39081 0)
(212.827 1.9537 0)
(212.793 2.5403 0)
(212.748 3.15051 0)
(212.69 3.7843 0)
(212.618 4.44223 0)
(212.531 5.12508 0)
(212.428 5.8334 0)
(212.307 6.56736 0)
(212.168 7.32689 0)
(212.013 8.11201 0)
(211.839 8.92305 0)
(211.646 9.76064 0)
(211.432 10.6254 0)
(211.198 11.5177 0)
(210.944 12.4379 0)
(210.669 13.3864 0)
(210.374 14.3638 0)
(210.058 15.371 0)
(209.72 16.4087 0)
(209.363 17.4775 0)
(208.987 18.5779 0)
(208.594 19.7104 0)
(208.183 20.876 0)
(207.756 22.0763 0)
(207.313 23.3124 0)
(206.855 24.5856 0)
(206.385 25.8971 0)
(205.903 27.2485 0)
(205.412 28.6413 0)
(204.912 30.0777 0)
(204.406 31.5594 0)
(203.898 33.0882 0)
(203.39 34.6656 0)
(202.886 36.2948 0)
(202.388 37.9788 0)
(201.899 39.7212 0)
(201.427 41.5167 0)
(200.983 43.3753 0)
(200.537 45.311 0)
(200.149 47.2999 0)
(199.79 49.3655 0)
(199.483 51.5044 0)
(199.233 53.7226 0)
(199.043 56.02 0)
(198.942 58.4031 0)
(198.911 60.8704 0)
(199.013 63.4306 0)
(199.194 66.0778 0)
(199.56 68.8238 0)
(200.023 71.6606 0)
(200.72 74.5979 0)
(201.549 77.6279 0)
(202.682 80.7432 0)
(203.969 83.9424 0)
(205.665 87.2107 0)
(207.521 90.5697 0)
(209.892 93.9613 0)
(212.454 97.4247 0)
(215.619 100.839 0)
(219.027 104.283 0)
(223.083 107.569 0)
(227.422 110.85 0)
(232.412 113.881 0)
(237.784 116.83 0)
(243.741 119.449 0)
(250.274 121.866 0)
(257.354 123.941 0)
(264.888 125.465 0)
(272.729 126.57 0)
(281.156 127.221 0)
(288.696 127.506 0)
(298.011 127.458 0)
(305.176 127.354 0)
(312.198 126.181 0)
(317.569 124.66 0)
(322.631 123.75 0)
(333.709 122.008 0)
(336.206 129.699 0)
(173.974 15.5416 0)
(196.955 -3.96238 0)
(200.432 -3.90401 0)
(202.423 -3.95825 0)
(203.96 -4.09869 0)
(204.986 -4.32705 0)
(205.539 -4.62153 0)
(205.877 -4.87097 0)
(206.16 -5.05543 0)
(206.46 -5.18119 0)
(206.805 -5.27315 0)
(207.225 -5.32243 0)
(207.721 -5.36855 0)
(208.214 -5.41524 0)
(208.625 -5.44078 0)
(208.917 -5.43321 0)
(209.111 -5.39912 0)
(209.251 -5.34676 0)
(209.387 -5.28716 0)
(209.563 -5.2257 0)
(209.802 -5.16337 0)
(210.097 -5.09881 0)
(210.415 -5.0229 0)
(210.72 -4.92775 0)
(210.992 -4.80909 0)
(211.229 -4.66846 0)
(211.433 -4.50466 0)
(211.605 -4.31633 0)
(211.748 -4.10151 0)
(211.871 -3.86251 0)
(211.976 -3.59971 0)
(212.072 -3.31485 0)
(212.156 -3.0072 0)
(212.229 -2.67602 0)
(212.288 -2.32142 0)
(212.333 -1.94366 0)
(212.372 -1.54483 0)
(212.398 -1.12449 0)
(212.417 -0.686072 0)
(212.423 -0.224374 0)
(212.421 0.25764 0)
(212.407 0.760952 0)
(212.381 1.28656 0)
(212.341 1.83568 0)
(212.286 2.4085 0)
(212.219 3.00443 0)
(212.138 3.62322 0)
(212.044 4.26518 0)
(211.935 4.93112 0)
(211.809 5.62178 0)
(211.665 6.33749 0)
(211.503 7.07818 0)
(211.323 7.84378 0)
(211.124 8.63451 0)
(210.907 9.45091 0)
(210.668 10.2936 0)
(210.409 11.1632 0)
(210.128 12.0598 0)
(209.825 12.9839 0)
(209.502 13.936 0)
(209.157 14.9169 0)
(208.789 15.9274 0)
(208.4 16.9681 0)
(207.991 18.0394 0)
(207.562 19.1418 0)
(207.114 20.2764 0)
(206.648 21.4443 0)
(206.163 22.647 0)
(205.662 23.8857 0)
(205.145 25.1615 0)
(204.613 26.4759 0)
(204.068 27.8306 0)
(203.511 29.2276 0)
(202.943 30.6685 0)
(202.369 32.1555 0)
(201.788 33.6902 0)
(201.206 35.2752 0)
(200.623 36.9129 0)
(200.044 38.6067 0)
(199.471 40.36 0)
(198.907 42.1762 0)
(198.363 44.0514 0)
(197.846 45.9951 0)
(197.335 48.0189 0)
(196.874 50.1096 0)
(196.453 52.2805 0)
(196.08 54.5339 0)
(195.777 56.8768 0)
(195.53 59.3074 0)
(195.393 61.835 0)
(195.319 64.4535 0)
(195.406 67.1784 0)
(195.572 69.9972 0)
(195.946 72.9244 0)
(196.433 75.9474 0)
(197.187 79.0741 0)
(198.075 82.3002 0)
(199.322 85.6249 0)
(200.711 89.0429 0)
(202.565 92.5211 0)
(204.584 96.0748 0)
(207.157 99.6396 0)
(209.952 103.26 0)
(213.369 106.825 0)
(217.08 110.431 0)
(221.472 113.879 0)
(226.199 117.307 0)
(231.59 120.489 0)
(237.401 123.531 0)
(243.808 126.197 0)
(250.943 128.713 0)
(258.138 130.562 0)
(266.665 132.552 0)
(274.713 133.456 0)
(283.651 134.327 0)
(293.674 134.485 0)
(301.127 133.689 0)
(308.849 131.407 0)
(314.646 130.516 0)
(326.546 129.834 0)
(328.862 139.719 0)
(177.206 12.7833 0)
(198.136 -3.76396 0)
(200.878 -3.4249 0)
(202.803 -3.46845 0)
(204.306 -3.68583 0)
(205.237 -4.00993 0)
(205.713 -4.35681 0)
(206.007 -4.64425 0)
(206.242 -4.85989 0)
(206.48 -5.01621 0)
(206.782 -5.11815 0)
(207.149 -5.19963 0)
(207.587 -5.27584 0)
(208.064 -5.34655 0)
(208.501 -5.38461 0)
(208.832 -5.3827 0)
(209.05 -5.34983 0)
(209.194 -5.29789 0)
(209.318 -5.23967 0)
(209.462 -5.17757 0)
(209.654 -5.11068 0)
(209.913 -5.04293 0)
(210.215 -4.96751 0)
(210.518 -4.87766 0)
(210.79 -4.76619 0)
(211.024 -4.63387 0)
(211.222 -4.47935 0)
(211.386 -4.30052 0)
(211.52 -4.09464 0)
(211.631 -3.86385 0)
(211.721 -3.60841 0)
(211.802 -3.3314 0)
(211.868 -3.03126 0)
(211.923 -2.70817 0)
(211.963 -2.36214 0)
(211.992 -1.99323 0)
(212.013 -1.60434 0)
(212.023 -1.19356 0)
(212.023 -0.76211 0)
(212.011 -0.311196 0)
(211.99 0.159648 0)
(211.957 0.651069 0)
(211.912 1.16426 0)
(211.851 1.70019 0)
(211.776 2.25911 0)
(211.687 2.84059 0)
(211.584 3.44426 0)
(211.468 4.07036 0)
(211.336 4.71962 0)
(211.187 5.39277 0)
(211.019 6.09024 0)
(210.833 6.81204 0)
(210.629 7.55808 0)
(210.406 8.32851 0)
(210.164 9.12383 0)
(209.9 9.94464 0)
(209.614 10.7915 0)
(209.306 11.6648 0)
(208.977 12.5647 0)
(208.624 13.4917 0)
(208.25 14.4467 0)
(207.852 15.4303 0)
(207.43 16.4434 0)
(206.987 17.4862 0)
(206.522 18.5593 0)
(206.037 19.6636 0)
(205.531 20.8002 0)
(205.005 21.9703 0)
(204.459 23.1755 0)
(203.894 24.4166 0)
(203.312 25.6951 0)
(202.714 27.0125 0)
(202.101 28.3707 0)
(201.473 29.7714 0)
(200.833 31.2168 0)
(200.183 32.7083 0)
(199.526 34.2486 0)
(198.863 35.8399 0)
(198.199 37.4852 0)
(197.532 39.1871 0)
(196.871 40.9487 0)
(196.218 42.7739 0)
(195.576 44.666 0)
(194.953 46.6229 0)
(194.362 48.6526 0)
(193.783 50.7661 0)
(193.248 52.9568 0)
(192.767 55.2313 0)
(192.328 57.5965 0)
(191.978 60.0599 0)
(191.673 62.6175 0)
(191.503 65.2859 0)
(191.388 68.0526 0)
(191.451 70.9403 0)
(191.598 73.9357 0)
(191.974 77.0562 0)
(192.461 80.2891 0)
(193.264 83.6454 0)
(194.193 87.111 0)
(195.544 90.6852 0)
(197.044 94.3656 0)
(199.068 98.1203 0)
(201.306 101.963 0)
(204.138 105.827 0)
(207.265 109.761 0)
(211.05 113.635 0)
(215.198 117.537 0)
(220.067 121.237 0)
(225.331 124.89 0)
(231.273 128.254 0)
(237.664 131.379 0)
(244.749 134.084 0)
(252.182 136.359 0)
(260.387 138.315 0)
(267.99 139.625 0)
(277.891 140.954 0)
(286.043 141.491 0)
(294.625 140.927 0)
(301.951 140.194 0)
(314.319 139.318 0)
(317.06 147.787 0)
(180.85 10.2416 0)
(199.186 -3.36926 0)
(201.334 -3.02759 0)
(203.201 -3.10141 0)
(204.608 -3.33361 0)
(205.451 -3.71377 0)
(205.909 -4.09063 0)
(206.208 -4.40397 0)
(206.424 -4.64468 0)
(206.613 -4.82939 0)
(206.853 -4.96118 0)
(207.18 -5.05244 0)
(207.568 -5.15723 0)
(207.98 -5.25613 0)
(208.377 -5.3244 0)
(208.714 -5.33963 0)
(208.96 -5.31018 0)
(209.127 -5.25728 0)
(209.252 -5.19926 0)
(209.369 -5.13621 0)
(209.517 -5.06596 0)
(209.735 -4.99467 0)
(210.013 -4.91885 0)
(210.309 -4.83274 0)
(210.58 -4.72658 0)
(210.813 -4.60003 0)
(211.008 -4.45213 0)
(211.166 -4.28002 0)
(211.291 -4.08161 0)
(211.389 -3.85795 0)
(211.465 -3.61027 0)
(211.529 -3.34129 0)
(211.576 -3.04889 0)
(211.612 -2.73431 0)
(211.635 -2.39913 0)
(211.646 -2.04045 0)
(211.646 -1.65883 0)
(211.638 -1.25833 0)
(211.62 -0.838039 0)
(211.591 -0.398082 0)
(211.551 0.0614033 0)
(211.499 0.540641 0)
(211.434 1.04055 0)
(211.354 1.56223 0)
(211.258 2.10621 0)
(211.147 2.67219 0)
(211.023 3.25977 0)
(210.885 3.86902 0)
(210.731 4.50054 0)
(210.56 5.15509 0)
(210.369 5.83318 0)
(210.16 6.53491 0)
(209.933 7.26021 0)
(209.686 8.00913 0)
(209.419 8.78209 0)
(209.131 9.57966 0)
(208.82 10.4024 0)
(208.487 11.2507 0)
(208.131 12.1248 0)
(207.752 13.0252 0)
(207.35 13.9524 0)
(206.923 14.9073 0)
(206.472 15.8905 0)
(205.997 16.9026 0)
(205.5 17.944 0)
(204.98 19.0154 0)
(204.438 20.1178 0)
(203.874 21.2526 0)
(203.289 22.4209 0)
(202.681 23.624 0)
(202.054 24.8632 0)
(201.408 26.1397 0)
(200.744 27.4555 0)
(200.061 28.8123 0)
(199.362 30.2122 0)
(198.648 31.6568 0)
(197.923 33.1485 0)
(197.186 34.6895 0)
(196.442 36.2829 0)
(195.689 37.9313 0)
(194.934 39.6381 0)
(194.177 41.4058 0)
(193.425 43.2386 0)
(192.68 45.1402 0)
(191.947 47.1151 0)
(191.231 49.163 0)
(190.548 51.2903 0)
(189.886 53.5072 0)
(189.251 55.8176 0)
(188.692 58.2171 0)
(188.161 60.7168 0)
(187.746 63.3296 0)
(187.364 66.0435 0)
(187.139 68.8819 0)
(186.976 71.8284 0)
(187.01 74.9071 0)
(187.132 78.1025 0)
(187.527 81.4371 0)
(188.023 84.8898 0)
(188.891 88.4799 0)
(189.878 92.1897 0)
(191.34 96.0234 0)
(192.978 99.9781 0)
(195.169 104.029 0)
(197.638 108.189 0)
(200.723 112.372 0)
(204.174 116.618 0)
(208.36 120.785 0)
(212.949 124.986 0)
(218.328 128.971 0)
(224.192 132.889 0)
(230.812 136.438 0)
(238.122 139.708 0)