/*--------------------------------*- C++ -*----------------------------------*\
| =========                 |                                                 |
| \\      /  F ield         | OpenFOAM: The Open Source CFD Toolbox           |
|  \\    /   O peration     | Version:  2412                                  |
|   \\  /    A nd           | Website:  www.openfoam.com                      |
|    \\/     M anipulation  |                                                 |
\*---------------------------------------------------------------------------*/
FoamFile
{
    version     2.0;
    format      ascii;
    arch        "LSB;label=32;scalar=64";
    class       volScalarField;
    location    "0.053";
    object      T;
}
// * * * * * * * * * * * * * * * * * * * * * * * * * * * * * * * * * * * * * //

dimensions      [0 0 0 1 0 0 0];

internalField   nonuniform List<scalar> 
9831
(
187.507
214.734
187.296
214.674
218.302
218.361
218.513
218.709
218.931
219.178
219.431
219.669
219.883
220.076
220.253
220.421
220.584
220.743
220.899
221.053
221.207
221.362
221.517
221.668
221.808
221.937
222.059
222.183
222.309
222.434
222.553
222.666
222.777
222.889
223.003
223.119
223.236
223.353
223.468
223.583
223.697
223.811
223.923
224.033
224.142
224.248
224.352
224.454
224.553
224.649
224.742
224.831
187.087
214.614
218.267
218.33
218.489
218.689
218.914
219.163
219.418
219.658
219.874
220.067
220.246
220.414
220.577
220.736
220.892
221.047
221.201
221.356
221.511
221.662
221.802
221.93
222.052
222.177
222.303
222.428
222.546
222.659
222.771
222.883
222.997
223.114
223.231
223.347
223.463
223.578
223.692
223.805
223.918
224.028
224.137
224.243
224.348
224.45
224.549
224.645
224.738
224.827
224.911
224.991
186.888
214.556
218.232
218.3
218.465
218.67
218.898
219.149
219.405
219.647
219.864
220.059
220.238
220.408
220.571
220.73
220.886
221.041
221.195
221.35
221.506
221.656
221.796
221.923
222.046
222.17
222.297
222.421
222.54
222.653
222.765
222.877
222.992
223.108
223.225
223.342
223.457
223.572
223.687
223.8
223.913
224.023
224.132
224.238
224.343
224.445
224.544
224.641
224.734
224.823
224.908
224.988
225.062
225.131
186.691
214.498
218.198
218.27
218.441
218.651
218.882
219.135
219.393
219.636
219.855
220.051
220.231
220.401
220.565
220.724
220.881
221.035
221.19
221.345
221.5
221.65
221.789
221.917
222.039
222.164
222.291
222.415
222.533
222.647
222.759
222.871
222.986
223.102
223.219
223.336
223.452
223.567
223.681
223.795
223.907
224.018
224.127
224.234
224.338
224.44
224.54
224.637
224.73
224.819
224.904
224.985
225.059
225.128
225.191
225.246
225.295
225.336
225.37
225.396
225.415
225.427
225.43
225.426
225.414
225.396
225.372
225.34
225.303
225.259
225.211
225.157
225.099
225.036
224.97
224.9
224.827
224.752
224.675
224.596
224.516
224.434
224.352
224.27
224.187
224.104
224.022
223.941
223.86
223.78
223.701
223.624
223.548
223.473
223.4
223.329
223.26
223.192
223.126
223.062
223
222.94
222.881
222.825
222.77
222.717
222.665
222.616
222.568
222.522
222.478
222.436
222.396
222.359
222.323
222.289
222.257
222.229
222.201
186.503
214.44
218.164
218.24
218.417
218.632
218.866
219.121
219.381
219.626
219.846
220.043
220.224
220.395
220.559
220.719
220.875
221.029
221.184
221.339
221.494
221.644
221.783
221.911
222.033
222.158
222.284
222.409
222.527
222.641
222.752
222.865
222.98
223.097
223.214
223.331
223.446
223.562
223.676
223.79
223.902
224.013
224.122
224.229
224.334
224.436
224.536
224.633
224.726
224.816
224.901
224.982
225.057
225.126
225.189
225.245
225.294
225.336
225.37
225.397
225.416
225.429
225.434
225.43
225.42
225.403
225.379
225.349
225.313
225.272
225.225
225.173
225.117
225.056
224.992
224.925
224.854
224.782
224.707
224.631
224.553
224.474
224.395
224.315
224.235
224.155
224.076
223.997
223.919
223.842
223.766
223.692
223.619
223.547
223.477
223.408
223.341
223.276
223.212
223.151
223.091
223.033
222.977
222.923
222.87
222.819
222.77
222.722
222.676
222.632
222.59
222.55
222.512
222.476
222.442
222.409
222.378
222.352
222.325
222.312
222.257
186.317
214.384
218.131
218.211
218.394
218.615
218.851
219.108
219.369
219.615
219.837
220.035
220.217
220.388
220.553
220.713
220.869
221.024
221.178
221.334
221.488
221.638
221.777
221.904
222.027
222.151
222.278
222.402
222.521
222.635
222.746
222.859
222.974
223.091
223.208
223.325
223.441
223.556
223.671
223.785
223.897
224.008
224.117
224.224
224.329
224.432
224.532
224.629
224.723
224.813
224.899
224.98
225.055
225.125
225.188
225.244
225.294
225.336
225.371
225.399
225.419
225.433
225.438
225.436
225.427
225.411
225.389
225.361
225.326
225.287
225.241
225.192
225.137
225.079
225.017
224.953
224.885
224.815
224.743
224.669
224.594
224.518
224.442
224.365
224.288
224.211
224.135
224.059
223.984
223.91
223.837
223.765
223.694
223.625
223.558
223.492
223.428
223.365
223.304
223.245
223.188
223.132
223.078
223.026
222.976
222.927
222.88
222.834
222.79
222.748
222.707
222.669
222.633
222.598
222.566
222.534
222.504
222.48
222.455
222.445
222.392
186.141
214.329
218.098
218.182
218.372
218.597
218.836
219.094
219.358
219.605
219.828
220.028
220.21
220.382
220.547
220.707
220.864
221.018
221.173
221.328
221.483
221.632
221.771
221.898
222.021
222.145
222.272
222.396
222.515
222.628
222.74
222.853
222.969
223.085
223.203
223.32
223.436
223.551
223.666
223.78
223.892
224.003
224.112
224.22
224.325
224.428
224.528
224.626
224.72
224.81
224.896
224.978
225.054
225.124
225.187
225.244
225.294
225.337
225.373
225.401
225.423
225.437
225.444
225.443
225.435
225.421
225.4
225.374
225.341
225.303
225.26
225.213
225.161
225.105
225.046
224.983
224.918
224.851
224.782
224.711
224.639
224.566
224.492
224.418
224.344
224.271
224.197
224.125
224.052
223.981
223.911
223.842
223.775
223.709
223.644
223.581
223.519
223.459
223.401
223.344
223.289
223.236
223.185
223.135
223.086
223.039
222.994
222.951
222.908
222.868
222.83
222.793
222.759
222.726
222.694
222.664
222.635
222.612
222.588
222.583
222.533
185.966
214.275
218.064
218.153
218.35
218.58
218.821
219.082
219.347
219.596
219.82
220.02
220.204
220.376
220.542
220.702
220.858
221.013
221.167
221.323
221.477
221.626
221.765
221.892
222.014
222.139
222.266
222.39
222.508
222.622
222.734
222.848
222.963
223.08
223.197
223.314
223.43
223.546
223.66
223.774
223.887
223.998
224.108
224.215
224.32
224.424
224.524
224.622
224.717
224.808
224.894
224.976
225.053
225.123
225.187
225.245
225.295
225.339
225.375
225.405
225.428
225.443
225.451
225.452
225.445
225.432
225.414
225.389
225.358
225.322
225.282
225.236
225.187
225.133
225.077
225.017
224.955
224.89
224.824
224.756
224.687
224.617
224.547
224.476
224.405
224.335
224.264
224.195
224.126
224.058
223.991
223.925
223.86
223.797
223.735
223.674
223.615
223.558
223.502
223.448
223.396
223.345
223.296
223.248
223.202
223.157
223.114
223.072
223.032
222.993
222.957
222.922
222.889
222.857
222.827
222.798
222.768
222.746
222.725
222.727
222.681
185.801
214.221
218.028
218.123
218.328
218.564
218.807
219.069
219.335
219.586
219.811
220.013
220.197
220.37
220.536
220.696
220.853
221.008
221.162
221.317
221.472
221.621
221.759
221.886
222.008
222.133
222.26
222.384
222.502
222.616
222.728
222.842
222.957
223.074
223.191
223.308
223.425
223.54
223.655
223.769
223.882
223.993
224.103
224.21
224.316
224.42
224.521
224.619
224.714
224.805
224.893
224.975
225.052
225.123
225.188
225.246
225.297
225.342
225.379
225.409
225.433
225.45
225.459
225.461
225.456
225.445
225.428
225.406
225.377
225.343
225.305
225.262
225.215
225.164
225.111
225.054
224.994
224.933
224.87
224.805
224.739
224.673
224.605
224.538
224.47
224.403
224.336
224.269
224.203
224.138
224.074
224.011
223.95
223.889
223.83
223.772
223.716
223.662
223.608
223.557
223.507
223.458
223.411
223.366
223.322
223.279
223.238
223.198
223.16
223.123
223.088
223.055
223.024
222.994
222.965
222.936
222.907
222.886
222.868
222.873
222.831
185.638
214.169
217.991
218.094
218.308
218.547
218.793
219.057
219.325
219.577
219.803
220.006
220.191
220.364
220.53
220.691
220.848
221.002
221.157
221.312
221.466
221.615
221.753
221.88
222.002
222.127
222.254
222.378
222.496
222.61
222.723
222.836
222.951
223.068
223.186
223.303
223.419
223.535
223.65
223.764
223.877
223.988
224.098
224.206
224.312
224.416
224.517
224.616
224.711
224.803
224.891
224.974
225.052
225.123
225.188
225.247
225.299
225.345
225.383
225.415
225.44
225.457
225.469
225.473
225.469
225.46
225.445
225.424
225.398
225.367
225.331
225.29
225.246
225.198
225.147
225.093
225.037
224.979
224.919
224.857
224.795
224.731
224.667
224.603
224.539
224.475
224.411
224.348
224.285
224.223
224.162
224.103
224.044
223.986
223.93
223.875
223.822
223.77
223.719
223.67
223.622
223.576
223.532
223.488
223.446
223.406
223.367
223.329
223.292
223.257
223.224
223.193
223.163
223.134
223.106
223.078
223.051
223.033
223.017
223.024
222.982
185.484
214.116
217.953
218.066
218.287
218.531
218.779
219.044
219.314
219.568
219.795
219.999
220.184
220.359
220.525
220.686
220.842
220.997
221.152
221.307
221.461
221.609
221.747
221.874
221.996
222.121
222.248
222.372
222.49
222.604
222.717
222.83
222.946
223.063
223.18
223.297
223.414
223.53
223.645
223.759
223.872
223.984
224.093
224.202
224.308
224.412
224.514
224.613
224.709
224.802
224.89
224.973
225.052
225.124
225.19
225.249
225.302
225.349
225.389
225.421
225.448
225.466
225.479
225.485
225.483
225.476
225.463
225.445
225.421
225.392
225.359
225.321
225.28
225.235
225.187
225.136
225.083
225.028
224.971
224.913
224.854
224.794
224.733
224.672
224.611
224.551
224.49
224.43
224.371
224.312
224.254
224.198
224.142
224.087
224.034
223.982
223.931
223.882
223.834
223.787
223.742
223.699
223.656
223.615
223.575
223.537
223.499
223.463
223.429
223.396
223.365
223.335
223.306
223.279
223.251
223.225
223.2
223.184
223.17
223.177
223.136
185.332
214.063
217.915
218.037
218.268
218.516
218.765
219.032
219.304
219.558
219.787
219.992
220.178
220.353
220.52
220.681
220.837
220.992
221.147
221.302
221.456
221.604
221.741
221.868
221.99
222.115
222.242
222.366
222.484
222.598
222.711
222.824
222.94
223.057
223.175
223.292
223.408
223.524
223.64
223.754
223.867
223.979
224.089
224.197
224.304
224.408
224.511
224.61
224.707
224.8
224.889
224.973
225.052
225.125
225.192
225.252
225.306
225.354
225.395
225.429
225.456
225.477
225.491
225.499
225.499
225.494
225.483
225.467
225.446
225.419
225.389
225.354
225.315
225.274
225.229
225.181
225.132
225.08
225.027
224.972
224.916
224.86
224.803
224.745
224.688
224.63
224.573
224.517
224.461
224.405
224.351
224.297
224.244
224.193
224.143
224.093
224.045
223.999
223.953
223.909
223.867
223.825
223.785
223.746
223.708
223.672
223.637
223.602
223.57
223.539
223.509
223.481
223.454
223.427
223.4
223.377
223.353
223.34
223.327
223.334
223.294
185.189
214.01
217.876
218.009
218.249
218.5
218.752
219.021
219.293
219.55
219.78
219.985
220.172
220.348
220.515
220.675
220.832
220.987
221.142
221.297
221.45
221.598
221.735
221.862
221.984
222.109
222.236
222.36
222.478
222.592
222.705
222.818
222.934
223.051
223.169
223.286
223.403
223.519
223.634
223.749
223.862
223.974
224.084
224.193
224.3
224.405
224.508
224.608
224.705
224.799
224.888
224.973
225.053
225.126
225.194
225.255
225.311
225.359
225.401
225.437
225.466
225.488
225.504
225.514
225.517
225.513
225.505
225.491
225.472
225.449
225.421
225.389
225.354
225.315
225.274
225.23
225.183
225.135
225.085
225.034
224.982
224.929
224.875
224.821
224.767
224.714
224.66
224.607
224.554
224.502
224.451
224.4
224.351
224.302
224.255
224.208
224.163
224.119
224.076
224.035
223.995
223.956
223.918
223.881
223.846
223.811
223.778
223.745
223.715
223.685
223.657
223.631
223.605
223.579
223.554
223.532
223.511
223.499
223.488
223.495
223.455
185.047
213.957
217.837
217.982
218.23
218.485
218.739
219.009
219.283
219.541
219.772
219.978
220.166
220.342
220.509
220.671
220.827
220.982
221.137
221.292
221.445
221.593
221.729
221.856
221.978
222.103
222.23
222.354
222.472
222.586
222.699
222.813
222.928
223.046
223.163
223.281
223.398
223.514
223.629
223.744
223.857
223.969
224.08
224.189
224.296
224.402
224.505
224.606
224.703
224.798
224.888
224.973
225.054
225.128
225.197
225.259
225.315
225.365
225.409
225.446
225.476
225.5
225.518
225.53
225.535
225.534
225.528
225.517
225.501
225.48
225.455
225.427
225.394
225.359
225.321
225.28
225.238
225.193
225.147
225.099
225.051
225.001
224.952
224.901
224.851
224.801
224.75
224.701
224.651
224.603
224.555
224.507
224.461
224.415
224.371
224.327
224.285
224.244
224.204
224.165
224.127
224.09
224.055
224.02
223.987
223.954
223.923
223.892
223.863
223.836
223.81
223.784
223.76
223.735
223.711
223.692
223.672
223.662
223.652
223.659
223.619
184.915
213.904
217.797
217.956
218.212
218.471
218.726
218.998
219.274
219.532
219.765
219.972
220.16
220.337
220.504
220.666
220.823
220.978
221.132
221.287
221.44
221.587
221.724
221.85
221.973
222.098
222.224
222.348
222.466
222.58
222.693
222.807
222.923
223.04
223.158
223.275
223.392
223.508
223.624
223.739
223.852
223.965
224.075
224.185
224.292
224.398
224.502
224.603
224.702
224.797
224.888
224.974
225.055
225.131
225.2
225.264
225.321
225.372
225.417
225.456
225.488
225.514
225.533
225.547
225.555
225.556
225.552
225.544
225.531
225.513
225.492
225.466
225.438
225.406
225.371
225.334
225.295
225.254
225.211
225.168
225.123
225.077
225.031
224.984
224.938
224.891
224.844
224.798
224.752
224.707
224.662
224.618
224.575
224.532
224.491
224.45
224.41
224.372
224.334
224.298
224.263
224.228
224.195
224.163
224.131
224.101
224.071
224.043
224.016
223.99
223.965
223.941
223.918
223.895
223.872
223.855
223.838
223.829
223.82
223.826
223.787
184.783
213.852
217.757
217.93
218.195
218.456
218.714
218.987
219.264
219.524
219.757
219.965
220.155
220.332
220.5
220.661
220.818
220.973
221.127
221.282
221.435
221.582
221.718
221.844
221.967
222.092
222.218
222.342
222.46
222.574
222.687
222.801
222.917
223.034
223.152
223.27
223.387
223.503
223.619
223.734
223.847
223.96
224.071
224.181
224.289
224.395
224.5
224.602
224.701
224.797
224.888
224.975
225.057
225.133
225.204
225.269
225.327
225.38
225.427
225.467
225.501
225.528
225.55
225.566
225.576
225.58
225.579
225.573
225.563
225.549
225.53
225.508
225.483
225.454
225.423
225.39
225.355
225.317
225.279
225.239
225.198
225.156
225.113
225.071
225.028
224.985
224.942
224.899
224.856
224.814
224.773
224.732
224.692
224.653
224.614
224.577
224.54
224.504
224.469
224.435
224.402
224.37
224.339
224.309
224.28
224.251
224.224
224.197
224.172
224.148
224.125
224.102
224.08
224.058
224.038
224.023
224.007
224
223.992
223.997
223.959
184.661
213.799
217.716
217.904
218.178
218.442
218.701
218.976
219.254
219.516
219.75
219.959
220.149
220.326
220.495
220.656
220.813
220.968
221.123
221.277
221.43
221.577
221.713
221.838
221.961
222.086
222.212
222.336
222.454
222.568
222.681
222.795
222.911
223.028
223.147
223.264
223.381
223.498
223.614
223.729
223.842
223.955
224.067
224.177
224.285
224.392
224.497
224.6
224.7
224.796
224.889
224.976
225.059
225.136
225.208
225.274
225.334
225.388
225.437
225.478
225.514
225.544
225.568
225.586
225.598
225.605
225.607
225.604
225.597
225.586
225.571
225.552
225.53
225.506
225.478
225.449
225.417
225.384
225.349
225.313
225.276
225.238
225.199
225.16
225.121
225.081
225.042
225.003
224.964
224.925
224.887
224.85
224.813
224.777
224.741
224.706
224.672
224.639
224.607
224.576
224.545
224.516
224.487
224.459
224.432
224.405
224.38
224.355
224.332
224.31
224.288
224.267
224.246
224.226
224.207
224.193
224.18
224.174
224.166
224.171
224.134
184.539
213.747
217.676
217.879
218.161
218.428
218.689
218.966
219.245
219.508
219.743
219.953
220.143
220.321
220.49
220.651
220.809
220.964
221.118
221.272
221.425
221.571
221.707
221.833
221.955
222.08
222.206
222.33
222.448
222.562
222.675
222.789
222.905
223.023
223.141
223.259
223.376
223.493
223.608
223.723
223.838
223.951
224.062
224.173
224.282
224.389
224.495
224.598
224.699
224.796
224.89
224.978
225.062
225.14
225.213
225.28
225.342
225.398
225.447
225.491
225.529
225.56
225.586
225.607
225.622
225.632
225.637
225.637
225.633
225.625
225.613
225.598
225.58
225.559
225.535
225.51
225.482
225.452
225.422
225.389
225.356
225.322
225.287
225.252
225.217
225.181
225.146
225.11
225.075
225.04
225.005
224.971
224.937
224.904
224.871
224.84
224.808
224.778
224.749
224.72
224.692
224.665
224.638
224.612
224.587
224.563
224.539
224.517
224.495
224.475
224.454
224.435
224.415
224.397
224.38
224.368
224.356
224.352
224.344
224.348
224.313
184.426
213.696
217.636
217.853
218.145
218.415
218.677
218.955
219.236
219.5
219.736
219.947
220.138
220.316
220.485
220.647
220.804
220.959
221.114
221.268
221.42
221.566
221.701
221.827
221.949
222.075
222.201
222.324
222.442
222.556
222.669
222.783
222.899
223.017
223.135
223.253
223.371
223.487
223.603
223.718
223.833
223.946
224.058
224.169
224.279
224.387
224.493
224.597
224.698
224.796
224.891
224.98
225.065
225.144
225.218
225.287
225.35
225.407
225.459
225.504
225.544
225.578
225.606
225.629
225.647
225.66
225.668
225.671
225.67
225.666
225.657
225.646
225.632
225.615
225.595
225.573
225.549
225.524
225.497
225.469
225.439
225.409
225.379
225.347
225.316
225.284
225.252
225.22
225.188
225.157
225.126
225.095
225.064
225.034
225.005
224.976
224.948
224.92
224.893
224.867
224.842
224.817
224.793
224.769
224.746
224.724
224.702
224.682
224.662
224.643
224.624
224.606
224.588
224.571
224.556
224.546
224.536
224.533
224.525
224.529
224.496
184.313
213.644
217.596
217.829
218.128
218.401
218.666
218.945
219.227
219.492
219.729
219.941
220.133
220.312
220.481
220.642
220.8
220.955
221.109
221.263
221.415
221.561
221.696
221.821
221.944
222.069
222.195
222.318
222.436
222.55
222.663
222.778
222.894
223.011
223.13
223.248
223.365
223.482
223.598
223.713
223.828
223.941
224.054
224.165
224.275
224.384
224.491
224.596
224.698
224.797
224.892
224.982
225.068
225.149
225.224
225.294
225.359
225.418
225.471
225.518
225.56
225.596
225.627
225.653
225.673
225.689
225.7
225.707
225.709
225.708
225.704
225.696
225.685
225.672
225.656
225.638
225.619
225.597
225.575
225.55
225.525
225.499
225.473
225.445
225.418
225.39
225.362
225.333
225.305
225.277
225.249
225.222
225.195
225.168
225.141
225.116
225.09
225.065
225.041
225.018
224.995
224.972
224.95
224.929
224.908
224.888
224.868
224.85
224.832
224.814
224.797
224.781
224.764
224.749
224.735
224.727
224.718
224.718
224.712
224.714
224.683
184.209
213.593
217.556
217.804
218.112
218.388
218.654
218.935
219.218
219.484
219.722
219.935
220.127
220.307
220.476
220.638
220.795
220.95
221.105
221.259
221.41
221.556
221.691
221.816
221.938
222.063
222.189
222.312
222.43
222.544
222.657
222.772
222.888
223.006
223.124
223.242
223.36
223.477
223.593
223.708
223.823
223.937
224.05
224.162
224.272
224.381
224.489
224.595
224.698
224.798
224.893
224.985
225.072
225.153
225.23
225.302
225.368
225.429
225.484
225.533
225.577
225.616
225.649
225.677
225.701
225.719
225.734
225.744
225.75
225.752
225.751
225.747
225.741
225.732
225.72
225.706
225.691
225.673
225.655
225.635
225.614
225.592
225.569
225.546
225.522
225.498
225.474
225.449
225.425
225.4
225.376
225.352
225.328
225.304
225.281
225.258
225.235
225.213
225.192
225.171
225.151
225.131
225.111
225.092
225.073
225.055
225.038
225.021
225.005
224.989
224.974
224.958
224.943
224.93
224.917
224.911
224.904
224.905
224.899
224.902
224.872
184.104
213.542
217.516
217.779
218.096
218.375
218.643
218.925
219.21
219.477
219.716
219.929
220.122
220.302
220.472
220.634
220.791
220.946
221.1
221.254
221.406
221.551
221.685
221.81
221.933
222.058
222.183
222.306
222.424
222.538
222.652
222.766
222.882
223
223.118
223.237
223.354
223.471
223.587
223.703
223.818
223.932
224.046
224.158
224.269
224.379
224.488
224.594
224.698
224.799
224.895
224.988
225.076
225.159
225.237
225.31
225.378
225.441
225.498
225.549
225.595
225.636
225.672
225.703
225.729
225.751
225.769
225.782
225.792
225.798
225.801
225.801
225.798
225.793
225.785
225.776
225.764
225.751
225.737
225.721
225.704
225.687
225.668
225.649
225.629
225.609
225.588
225.568
225.547
225.526
225.505
225.485
225.464
225.444
225.423
225.403
225.384
225.365
225.346
225.327
225.309
225.292
225.275
225.258
225.241
225.225
225.21
225.195
225.181
225.167
225.153
225.139
225.125
225.114
225.103
225.098
225.093
225.095
225.09
225.092
225.065
184.009
213.491
217.476
217.755
218.081
218.363
218.632
218.916
219.201
219.469
219.709
219.923
220.117
220.297
220.467
220.629
220.787
220.942
221.096
221.249
221.401
221.546
221.68
221.805
221.927
222.052
222.178
222.3
222.418
222.532
222.646
222.76
222.876
222.994
223.113
223.231
223.349
223.466
223.582
223.698
223.813
223.928
224.042
224.154
224.266
224.377
224.486
224.594
224.698
224.8
224.897
224.991
225.08
225.164
225.244
225.319
225.389
225.453
225.512
225.566
225.614
225.657
225.696
225.73
225.759
225.784
225.805
225.822
225.835
225.845
225.852
225.856
225.857
225.856
225.853
225.847
225.84
225.831
225.821
225.81
225.797
225.784
225.769
225.754
225.738
225.722
225.705
225.689
225.672
225.654
225.637
225.62
225.602
225.585
225.568
225.551
225.535
225.518
225.502
225.487
225.471
225.456
225.441
225.427
225.412
225.399
225.385
225.372
225.36
225.347
225.335
225.323
225.311
225.301
225.292
225.29
225.285
225.288
225.283
225.285
225.26
183.913
213.44
217.437
217.731
218.066
218.351
218.622
218.906
219.193
219.462
219.703
219.917
220.112
220.293
220.463
220.625
220.782
220.937
221.091
221.245
221.396
221.541
221.674
221.799
221.921
222.046
222.172
222.295
222.412
222.526
222.64
222.754
222.871
222.989
223.107
223.226
223.343
223.46
223.577
223.693
223.809
223.923
224.038
224.151
224.263
224.375
224.485
224.593
224.699
224.801
224.9
224.995
225.085
225.171
225.252
225.328
225.4
225.466
225.527
225.583
225.634
225.68
225.721
225.758
225.79
225.818
225.842
225.863
225.88
225.894
225.904
225.912
225.918
225.921
225.921
225.92
225.918
225.913
225.907
225.9
225.892
225.883
225.873
225.862
225.85
225.838
225.825
225.812
225.799
225.785
225.772
225.758
225.744
225.73
225.716
225.702
225.688
225.675
225.662
225.649
225.636
225.623
225.61
225.598
225.586
225.574
225.563
225.552
225.541
225.53
225.519
225.508
225.498
225.49
225.483
225.483
225.481
225.483
225.479
225.48
225.458
183.825
213.389
217.397
217.707
218.05
218.339
218.611
218.897
219.185
219.455
219.696
219.912
220.107
220.288
220.458
220.621
220.778
220.933
221.087
221.241
221.391
221.536
221.669
221.794
221.916
222.041
222.166
222.289
222.406
222.52
222.634
222.748
222.865
222.983
223.102
223.22
223.338
223.455
223.572
223.688
223.804
223.919
224.034
224.148
224.261
224.373
224.484
224.593
224.699
224.803
224.903
224.998
225.09
225.177
225.26
225.338
225.411
225.48
225.543
225.601
225.654
225.702
225.747
225.786
225.822
225.853
225.881
225.905
225.926
225.943
225.958
225.97
225.98
225.987
225.992
225.996
225.997
225.997
225.996
225.993
225.989
225.984
225.978
225.971
225.964
225.955
225.947
225.938
225.928
225.918
225.908
225.898
225.887
225.876
225.866
225.855
225.844
225.834
225.823
225.813
225.802
225.792
225.782
225.772
225.762
225.753
225.743
225.734
225.725
225.716
225.707
225.697
225.688
225.683
225.679
225.68
225.679
225.682
225.677
225.678
225.659
183.736
213.338
217.357
217.684
218.036
218.327
218.601
218.888
219.177
219.448
219.69
219.906
220.102
220.284
220.454
220.617
220.774
220.929
221.083
221.236
221.387
221.531
221.664
221.788
221.91
222.035
222.161
222.283
222.4
222.514
222.628
222.742
222.859
222.977
223.096
223.214
223.332
223.45
223.566
223.683
223.799
223.915
224.03
224.144
224.258
224.371
224.483
224.593
224.7
224.805
224.905
225.002
225.095
225.184
225.269
225.348
225.424
225.494
225.559
225.619
225.675
225.726
225.773
225.816
225.854
225.889
225.921
225.948
225.973
225.994
226.013
226.029
226.043
226.055
226.064
226.072
226.078
226.083
226.085
226.087
226.087
226.087
226.085
226.083
226.079
226.075
226.071
226.066
226.06
226.054
226.047
226.04
226.033
226.026
226.018
226.011
226.003
225.995
225.987
225.979
225.972
225.964
225.956
225.948
225.941
225.933
225.926
225.918
225.911
225.904
225.896
225.888
225.881
225.879
225.876
225.878
225.877
225.88
225.877
225.878
225.861
183.657
213.287
217.317
217.66
218.021
218.315
218.591
218.879
219.169
219.441
219.684
219.901
220.097
220.279
220.45
220.613
220.77
220.925
221.079
221.232
221.382
221.526
221.659
221.783
221.905
222.03
222.155
222.277
222.394
222.509
222.622
222.737
222.853
222.971
223.09
223.209
223.327
223.444
223.561
223.678
223.794
223.91
224.026
224.141
224.256
224.37
224.482
224.593
224.701
224.807
224.909
225.007
225.101
225.192
225.278
225.359
225.436
225.508
225.576
225.638
225.697
225.75
225.8
225.846
225.888
225.926
225.961
225.992
226.021
226.046
226.069
226.09
226.108
226.124
226.138
226.15
226.161
226.17
226.177
226.183
226.188
226.192
226.194
226.196
226.197
226.197
226.196
226.195
226.193
226.191
226.188
226.184
226.181
226.177
226.172
226.168
226.163
226.158
226.153
226.148
226.143
226.138
226.132
226.127
226.122
226.116
226.111
226.106
226.1
226.094
226.088
226.082
226.078
226.079
226.077
226.079
226.079
226.082
226.079
226.082
226.067
183.575
213.235
217.277
217.637
218.007
218.304
218.581
218.87
219.161
219.434
219.678
219.896
220.093
220.275
220.446
220.609
220.766
220.921
221.075
221.228
221.378
221.521
221.653
221.777
221.899
222.024
222.149
222.271
222.388
222.503
222.616
222.731
222.847
222.966
223.084
223.203
223.321
223.439
223.556
223.673
223.79
223.906
224.022
224.138
224.253
224.368
224.482
224.593
224.703
224.809
224.912
225.012
225.108
225.199
225.287
225.371
225.449
225.523
225.593
225.658
225.719
225.776
225.829
225.877
225.922
225.964
226.003
226.038
226.07
226.1
226.127
226.152
226.174
226.194
226.213
226.23
226.244
226.258
226.27
226.28
226.29
226.298
226.305
226.311
226.316
226.321
226.324
226.327
226.329
226.33
226.331
226.331
226.331
226.33
226.329
226.328
226.326
226.324
226.322
226.319
226.317
226.314
226.311
226.308
226.304
226.301
226.298
226.295
226.291
226.286
226.282
226.278
226.276
226.278
226.278
226.281
226.282
226.285
226.283
226.286
226.273
183.502
213.183
217.237
217.615
217.994
218.293
218.571
218.862
219.154
219.427
219.672
219.89
220.088
220.271
220.442
220.605
220.762
220.917
221.071
221.223
221.373
221.516
221.648
221.772
221.894
222.019
222.144
222.265
222.382
222.497
222.61
222.725
222.842
222.96
223.079
223.197
223.315
223.433
223.55
223.668
223.785
223.902
224.019
224.135
224.251
224.367
224.481
224.594
224.704
224.812
224.916
225.017
225.114
225.208
225.297
225.382
225.463
225.539
225.611
225.678
225.742
225.801
225.857
225.909
225.958
226.003
226.045
226.084
226.12
226.154
226.185
226.214
226.241
226.266
226.289
226.31
226.33
226.348
226.364
226.379
226.393
226.406
226.417
226.428
226.437
226.445
226.453
226.459
226.465
226.47
226.475
226.479
226.482
226.485
226.487
226.489
226.49
226.491
226.492
226.492
226.492
226.492
226.491
226.491
226.49
226.489
226.488
226.486
226.484
226.481
226.48
226.479
226.479
226.482
226.481
226.486
226.488
226.491
226.491
226.495
226.485
183.427
213.131
217.196
217.593
217.981
218.282
218.562
218.853
219.146
219.421
219.666
219.885
220.083
220.266
220.438
220.601
220.758
220.913
221.067
221.219
221.368
221.511
221.643
221.767
221.889
222.013
222.138
222.259
222.377
222.491
222.604
222.719
222.836
222.954
223.073
223.192
223.31
223.428
223.545
223.663
223.78
223.898
224.015
224.132
224.249
224.366
224.481
224.595
224.706
224.814
224.92
225.022
225.121
225.216
225.307
225.394
225.477
225.555
225.629
225.699
225.765
225.828
225.887
225.942
225.994
226.042
226.088
226.131
226.171
226.209
226.245
226.278
226.309
226.339
226.366
226.392
226.416
226.439
226.46
226.479
226.498
226.515
226.531
226.546
226.559
226.572
226.584
226.594
226.604
226.613
226.621
226.629
226.636
226.642
226.647
226.652
226.657
226.661
226.664
226.667
226.67
226.672
226.674
226.675
226.677
226.678
226.679
226.679
226.678
226.678
226.679
226.68
226.682
226.686
226.686
226.69
226.692
226.697
226.699
226.704
226.696
183.36
213.078
217.156
217.571
217.968
218.271
218.552
218.845
219.139
219.414
219.661
219.88
220.079
220.262
220.434
220.597
220.754
220.909
221.063
221.215
221.364
221.506
221.638
221.761
221.883
222.008
222.132
222.254
222.371
222.485
222.598
222.713
222.83
222.948
223.067
223.186
223.304
223.422
223.54
223.658
223.776
223.894
224.012
224.129
224.247
224.364
224.481
224.595
224.708
224.817
224.924
225.028
225.128
225.225
225.318
225.407
225.491
225.572
225.648
225.721
225.789
225.855
225.916
225.975
226.03
226.082
226.132
226.179
226.223
226.265
226.305
226.343
226.379
226.412
226.445
226.475
226.504
226.531
226.557
226.581
226.604
226.625
226.646
226.665
226.683
226.7
226.715
226.73
226.744
226.757
226.769
226.78
226.79
226.8
226.808
226.817
226.824
226.831
226.838
226.844
226.849
226.854
226.858
226.862
226.866
226.869
226.872
226.874
226.876
226.878
226.88
226.884
226.888
226.893
226.895
226.9
226.902
226.907
226.912
226.918
226.914
183.292
213.025
217.115
217.55
217.955
218.261
218.543
218.837
219.132
219.408
219.655
219.875
220.074
220.258
220.43
220.593
220.75
220.905
221.059
221.211
221.359
221.501
221.633
221.756
221.878
222.002
222.127
222.248
222.365
222.479
222.592
222.707
222.824
222.942
223.061
223.18
223.298
223.416
223.534
223.653
223.771
223.889
224.008
224.127
224.245
224.363
224.481
224.596
224.71
224.821
224.929
225.034
225.136
225.234
225.329
225.419
225.506
225.589
225.667
225.742
225.814
225.882
225.947
226.009
226.067
226.123
226.177
226.227
226.276
226.322
226.366
226.408
226.448
226.487
226.523
226.558
226.592
226.623
226.654
226.683
226.71
226.737
226.761
226.785
226.807
226.829
226.849
226.868
226.885
226.902
226.918
226.933
226.947
226.96
226.972
226.983
226.994
227.004
227.013
227.022
227.03
227.037
227.044
227.051
227.057
227.062
227.067
227.071
227.075
227.078
227.082
227.088
227.092
227.099
227.103
227.11
227.113
227.118
227.124
227.13
227.129
183.23
212.971
217.075
217.53
217.942
218.251
218.534
218.829
219.125
219.401
219.649
219.87
220.07
220.254
220.426
220.589
220.747
220.901
221.055