/*--------------------------------*- C++ -*----------------------------------*\
| =========                 |                                                 |
| \\      /  F ield         | OpenFOAM: The Open Source CFD Toolbox           |
|  \\    /   O peration     | Version:  2412                                  |
|   \\  /    A nd           | Website:  www.openfoam.com                      |
|    \\/     M anipulation  |                                                 |
\*---------------------------------------------------------------------------*/
FoamFile
{
    version     2.0;
    format      ascii;
    arch        "LSB;label=32;scalar=64";
    class       volScalarField;
    location    "0.013";
    object      rho;
}
// * * * * * * * * * * * * * * * * * * * * * * * * * * * * * * * * * * * * * //

dimensions      [1 -3 0 0 0 0 0];

internalField   nonuniform List<scalar> 
9771
(
0.0358058
0.039175
0.0399901
0.0404642
0.0408271
0.0411577
0.0414522
0.0417055
0.0419049
0.0420393
0.0357687
0.0391727
0.0399871
0.040461
0.0408236
0.0411542
0.0414489
0.0417025
0.0419026
0.0420379
0.0357321
0.0391707
0.0399842
0.0404578
0.0408202
0.0411507
0.0414456
0.0416996
0.0419003
0.0420365
0.0356946
0.039169
0.0399812
0.0404547
0.0408168
0.0411473
0.0414423
0.0416967
0.041898
0.042035
0.0356576
0.0391672
0.0399783
0.0404515
0.0408133
0.0411439
0.041439
0.0416938
0.0418957
0.0420335
0.0356195
0.0391659
0.0399753
0.0404484
0.0408099
0.0411404
0.0414357
0.0416908
0.0418934
0.042032
0.0355813
0.0391648
0.0399723
0.0404453
0.0408064
0.0411369
0.0414324
0.0416878
0.041891
0.0420304
0.0421047
0.0421297
0.0421331
0.0421331
0.042133
0.042133
0.042133
0.0421331
0.0421373
0.0422052
0.0424665
0.0428016
0.0429968
0.0430664
0.0430951
0.0431202
0.0431584
0.0432067
0.0432267
0.0432344
0.0432529
0.0432927
0.0355419
0.0391641
0.0399694
0.0404422
0.040803
0.0411334
0.041429
0.0416848
0.0418886
0.0420289
0.042104
0.0421296
0.0421331
0.0421331
0.042133
0.042133
0.042133
0.0421331
0.0421374
0.0422069
0.0424704
0.042804
0.0429977
0.0430674
0.0430967
0.0431217
0.0431585
0.0432056
0.0432244
0.043232
0.043251
0.0432914
0.0433393
0.0433803
0.0434122
0.0434374
0.0434593
0.0434804
0.0355017
0.0391637
0.0399664
0.0404392
0.0407995
0.0411299
0.0414256
0.0416817
0.0418861
0.0420273
0.0421033
0.0421294
0.0421331
0.0421331
0.042133
0.042133
0.042133
0.0421331
0.0421375
0.0422086
0.0424743
0.0428063
0.0429987
0.0430683
0.0430982
0.0431233
0.0431582
0.0432042
0.0432219
0.0432296
0.0432493
0.04329
0.0433375
0.0433777
0.0434089
0.0434337
0.0434553
0.0434764
0.0434984
0.0354645
0.0391635
0.0399636
0.0404361
0.0407961
0.0411264
0.0414222
0.0416787
0.0418836
0.0420256
0.0421025
0.0421293
0.0421331
0.0421331
0.042133
0.042133
0.042133
0.0421331
0.0421375
0.0422105
0.0424782
0.0428086
0.0429998
0.0430694
0.0430997
0.0431247
0.0431574
0.0432027
0.0432194
0.0432272
0.0432475
0.0432886
0.0433355
0.043375
0.0434056
0.0434299
0.0434513
0.0434723
0.0434942
0.0354319
0.0391651
0.0399611
0.0404331
0.0407926
0.0411229
0.0414188
0.0416756
0.0418811
0.042024
0.0421017
0.0421291
0.0421332
0.0421331
0.042133
0.042133
0.042133
0.0421331
0.0421376
0.0422123
0.042482
0.0428109
0.0430008
0.0430704
0.043101
0.043126
0.0431568
0.0432013
0.0432168
0.0432247
0.0432458
0.0432871
0.0433335
0.0433723
0.0434022
0.0434261
0.0434472
0.0434681
0.04349
0.0353995
0.0392375
0.039911
0.0403444
0.0407036
0.0410395
0.0413432
0.041611
0.0418308
0.0419902
0.0420841
0.0421231
0.0421322
0.042133
0.042133
0.042133
0.042133
0.0421333
0.042143
0.0422414
0.0425284
0.0428433
0.0430178
0.0430819
0.0431097
0.0431303
0.043157
0.043182
0.0431908
0.0432004
0.043227
0.0432686
0.0433097
0.0433423
0.0433673
0.0433879
0.043407
0.0434262
0.0434458
0.0434659
0.0434856
0.0435047
0.043523
0.0435411
0.0435593
0.0435773
0.0435946
0.0436114
0.043628
0.0436453
0.0436639
0.0436839
0.0437051
0.0437273
0.04375
0.0437731
0.0437962
0.0438191
0.0438417
0.0438638
0.0438853
0.0439063
0.0439265
0.0439461
0.0439648
0.0439827
0.0439995
0.0440152
0.0440295
0.0440424
0.0440538
0.0440639
0.0440726
0.04408
0.0440861
0.044091
0.0440945
0.0440967
0.0440975
0.0361268
0.0394652
0.039835
0.0401886
0.0405437
0.0408875
0.0412045
0.0414916
0.0417372
0.0419269
0.0420507
0.0421115
0.0421302
0.0421329
0.042133
0.042133
0.0421331
0.0421339
0.0421553
0.0423018
0.0426197
0.0429072
0.0430515
0.0431043
0.0431244
0.0431337
0.0431387
0.0431383
0.04314
0.0431562
0.0431926
0.043231
0.043261
0.0432825
0.0432996
0.0433152
0.0433309
0.0433462
0.0433606
0.0433744
0.0433877
0.0434005
0.0434125
0.0434238
0.0434348
0.0434453
0.0434546
0.0434621
0.0434678
0.0434725
0.0434767
0.0434805
0.0434838
0.0434868
0.0434894
0.0434914
0.0434925
0.0434925
0.0434915
0.0434899
0.0434878
0.0434849
0.043481
0.043476
0.0434701
0.0434632
0.0434551
0.0434459
0.0434354
0.0434238
0.043411
0.0433972
0.0433827
0.0433675
0.0433518
0.0433357
0.0433192
0.0433024
0.0432853
0.0366457
0.0395113
0.039748
0.0400668
0.0404055
0.0407445
0.0410664
0.0413666
0.0416331
0.0418505
0.042005
0.0420922
0.0421257
0.0421325
0.042133
0.042133
0.0421331
0.0421352
0.0421741
0.0423707
0.0427067
0.0429653
0.0430809
0.0431147
0.0431178
0.0431043
0.0430871
0.0430826
0.0430907
0.0431177
0.0431544
0.043183
0.0432019
0.0432155
0.0432275
0.0432392
0.0432501
0.0432593
0.0432667
0.0432734
0.0432802
0.0432867
0.043292
0.0432954
0.0432973
0.0432982
0.0432982
0.0432971
0.0432949
0.0432912
0.0432863
0.0432801
0.0432729
0.0432649
0.0432565
0.0432475
0.0432375
0.0432262
0.043214
0.0432011
0.0431876
0.0431736
0.0431591
0.0431441
0.0431286
0.0431129
0.0430969
0.0430805
0.0430639
0.0430472
0.0430303
0.0430133
0.0429965
0.0429797
0.0429632
0.0429468
0.0429308
0.0429151
0.0428997
0.037102
0.0395255
0.0396929
0.0399837
0.0402915
0.0406182
0.0409392
0.0412471
0.0415291
0.0417692
0.0419513
0.0420655
0.0421176
0.0421315
0.042133
0.042133
0.0421331
0.0421376
0.0421997
0.0424435
0.0427853
0.0430106
0.043094
0.043108
0.0430884
0.0430545
0.0430341
0.0430346
0.0430513
0.0430828
0.0431109
0.0431281
0.0431388
0.0431472
0.043155
0.0431617
0.0431666
0.0431697
0.0431713
0.0431724
0.0431731
0.0431729
0.0431713
0.0431681
0.0431631
0.0431566
0.043149
0.0431407
0.0431316
0.0431216
0.0431104
0.043098
0.0430847
0.0430707
0.0430562
0.0430413
0.0430259
0.04301
0.0429936
0.0429769
0.0429599
0.0429427
0.0429255
0.0429082
0.0428911
0.0428741
0.0428574
0.042841
0.0428249
0.0428091
0.0427936
0.0427785
0.0427638
0.0427494
0.0427355
0.0427218
0.0427086
0.0426959
0.0426835
0.0374727
0.0394951
0.0396617
0.0399274
0.0401981
0.0405056
0.04082
0.0411309
0.0414243
0.0416833
0.0418903
0.0420313
0.0421048
0.0421291
0.0421329
0.042133
0.0421332
0.0421414
0.0422312
0.042516
0.0428511
0.043039
0.0430923
0.0430818
0.0430459
0.0430038
0.0429859
0.0429926
0.0430158
0.0430428
0.0430603
0.0430695
0.043075
0.0430793
0.0430825
0.0430839
0.0430832
0.0430808
0.0430781
0.0430747
0.0430701
0.043064
0.0430567
0.0430485
0.0430392
0.0430285
0.0430165
0.0430035
0.0429897
0.0429752
0.0429601
0.0429446
0.0429287
0.0429126
0.0428961
0.0428793
0.042862
0.0428444
0.0428265
0.0428088
0.0427911
0.0427735
0.0427561
0.0427391
0.0427224
0.0427063
0.0426908
0.0426759
0.0426614
0.0426475
0.0426339
0.0426208
0.042608
0.0425956
0.0425836
0.0425721
0.0425609
0.0425502
0.0425398
0.0377959
0.0394584
0.0396461
0.0398847
0.0401223
0.0404072
0.0407107
0.0410205
0.0413213
0.0415954
0.041824
0.0419903
0.0420869
0.0421248
0.0421325
0.042133
0.0421334
0.0421468
0.0422669
0.0425832
0.0429001
0.0430492
0.0430774
0.0430515
0.0429949
0.0429542
0.0429433
0.0429543
0.0429783
0.0429973
0.0430065
0.0430105
0.0430125
0.0430134
0.0430125
0.0430088
0.043003
0.0429966
0.0429903
0.0429832
0.0429746
0.0429644
0.0429532
0.0429413
0.0429287
0.0429151
0.0429006
0.0428855
0.0428699
0.0428539
0.0428376
0.0428211
0.0428043
0.0427873
0.0427702
0.0427531
0.042736
0.0427191
0.0427025
0.0426862
0.0426701
0.0426543
0.0426387
0.0426236
0.0426088
0.0425946
0.0425809
0.0425678
0.042555
0.0425427
0.0425306
0.042519
0.0425075
0.0424964
0.0424856
0.0424753
0.0424652
0.0424556
0.0424463
0.0380787
0.0394189
0.0396311
0.039849
0.0400605
0.0403208
0.0406103
0.0409158
0.0412208
0.0415067
0.041754
0.0419437
0.0420636
0.0421179
0.0421317
0.042133
0.0421337
0.0421538
0.0423039
0.0426408
0.0429328
0.0430466
0.043053
0.0430128
0.0429463
0.0429073
0.0429044
0.042918
0.0429382
0.0429492
0.0429525
0.0429531
0.0429523
0.04295
0.0429454
0.0429376
0.0429286
0.0429194
0.0429098
0.0428993
0.0428877
0.0428752
0.042862
0.0428478
0.0428328
0.0428171
0.042801
0.042785
0.0427691
0.042753
0.0427365
0.0427196
0.0427023
0.0426848
0.0426675
0.0426506
0.0426344
0.0426189
0.0426039
0.0425892
0.0425744
0.0425598
0.0425453
0.0425312
0.0425173
0.0425038
0.0424907
0.0424779
0.0424653
0.0424532
0.0424415
0.0424305
0.04242
0.0424103
0.0424009
0.0423921
0.0423835
0.0423752
0.0423673
0.0383332
0.0393747
0.0396135
0.0398162
0.0400093
0.0402448
0.0405183
0.040817
0.0411236
0.0414186
0.0416816
0.0418925
0.0420354
0.0421079
0.04213
0.042133
0.0421341
0.0421617
0.0423391
0.0426861
0.0429501
0.0430364
0.0430259
0.042967
0.0429008
0.0428652
0.0428671
0.0428819
0.042897
0.042902
0.0429015
0.0428986
0.0428945
0.0428893
0.0428815
0.042871
0.04286
0.0428489
0.0428369
0.0428237
0.0428099
0.042796
0.0427817
0.0427667
0.0427506
0.042734
0.0427173
0.0427008
0.0426844
0.0426682
0.0426517
0.0426351
0.0426184
0.0426018
0.0425855
0.0425695
0.0425539
0.0425386
0.0425235
0.0425086
0.0424939
0.0424795
0.0424656
0.0424521
0.0424392
0.0424267
0.0424146
0.042403
0.0423918
0.0423812
0.0423709
0.0423613
0.0423519
0.0423431
0.0423344
0.042326
0.0423178
0.0423099
0.0423022
0.0385621
0.0393588
0.0395796
0.0397757
0.0399615
0.0401766
0.0404341
0.0407241
0.04103
0.0413317
0.0416082
0.0418381
0.0420029
0.0420946
0.0421273
0.0421329
0.0421346
0.0421698
0.0423697
0.0427187
0.0429547
0.0430209
0.0429975
0.0429208
0.0428592
0.0428273
0.0428307
0.0428442
0.0428547
0.042857
0.042854
0.0428479
0.0428414
0.0428335
0.0428229
0.0428102
0.0427976
0.0427852
0.0427716
0.0427567
0.0427413
0.0427262
0.0427111
0.0426957
0.0426797
0.0426633
0.0426467
0.0426301
0.0426135
0.0425969
0.0425805
0.0425644
0.0425488
0.0425336
0.0425187
0.0425038
0.0424888
0.0424737
0.0424588
0.0424443
0.0424306
0.0424176
0.0424053
0.0423936
0.0423823
0.0423713
0.0423606
0.0423501
0.0423398
0.0423297
0.0423198
0.0423101
0.0423005
0.0422913
0.0422825
0.0422742
0.0422662
0.0422587
0.0422516
0.0387559
0.0393586
0.0395479
0.0397382
0.0399159
0.0401133
0.0403561
0.0406368
0.0409402
0.0412466
0.0415345
0.0417814
0.0419668
0.0420782
0.0421232
0.0421326
0.042135
0.042177
0.042393
0.0427383
0.0429515
0.0429998
0.0429684
0.042878
0.0428219
0.0427934
0.0427963
0.0428061
0.0428118
0.0428116
0.0428069
0.0427999
0.0427927
0.0427831
0.0427704
0.0427562
0.0427424
0.042729
0.0427146
0.042699
0.0426828
0.0426667
0.0426507
0.0426349
0.0426192
0.0426034
0.0425876
0.0425715
0.042555
0.0425384
0.0425221
0.0425065
0.0424915
0.0424771
0.0424629
0.0424486
0.0424343
0.04242
0.0424061
0.0423927
0.0423802
0.0423683
0.042357
0.0423459
0.0423351
0.0423244
0.0423139
0.0423037
0.0422935
0.0422837
0.0422741
0.0422648
0.0422558
0.0422472
0.0422391
0.0422314
0.0422242
0.0422173
0.0422108
0.0389135
0.0393666
0.0395233
0.039707
0.0398726
0.040054
0.040283
0.0405542
0.0408542
0.0411638
0.0414612
0.0417234
0.041928
0.0420588
0.0421175
0.0421321
0.0421353
0.0421826
0.0424082
0.0427458
0.0429419
0.0429774
0.0429378
0.0428387
0.0427874
0.042762
0.0427651
0.0427711
0.0427723
0.0427679
0.0427605
0.0427533
0.0427465
0.0427361
0.0427222
0.0427071
0.0426927
0.0426787
0.0426642
0.042649
0.0426332
0.042617
0.0426005
0.0425842
0.0425685
0.0425534
0.0425385
0.0425233
0.0425075
0.0424914
0.0424758
0.0424607
0.0424461
0.0424317
0.0424173
0.0424031
0.0423894
0.0423761
0.0423636
0.0423517
0.0423403
0.0423291
0.042318
0.0423069
0.0422958
0.0422849
0.0422741
0.0422636
0.0422534
0.0422435
0.0422341
0.042225
0.0422163
0.0422078
0.0421996
0.0421917
0.0421841
0.0421767
0.0421696
0.039038
0.0393778
0.0395065
0.0396824
0.0398315
0.0399981
0.040214
0.0404758
0.0407717
0.0410833
0.0413888
0.0416647
0.0418872
0.042037
0.0421102
0.0421313
0.0421353
0.0421855
0.0424156
0.0427455
0.0429271
0.0429548
0.0429081
0.0428023
0.0427528
0.0427303
0.0427345
0.0427398
0.0427377
0.0427295
0.0427191
0.0427107
0.0427034
0.0426924
0.0426778
0.0426621
0.042647
0.0426326
0.0426183
0.0426039
0.0425892
0.0425738
0.0425575
0.042541
0.0425252
0.0425106
0.0424965
0.0424822
0.0424672
0.0424521
0.0424377
0.0424237
0.0424094
0.0423947
0.0423798
0.0423654
0.0423522
0.0423401
0.042329
0.0423183
0.0423076
0.0422968
0.0422857
0.0422746
0.0422635
0.0422527
0.0422421
0.042232
0.0422222
0.0422128
0.0422037
0.0421949
0.0421864
0.042178
0.0421697
0.0421616
0.0421537
0.042146
0.0421386
0.0391379
0.0393889
0.0394962
0.0396636
0.0397924
0.0399452
0.0401485
0.0404011
0.0406925
0.0410052
0.0413177
0.041606
0.0418451
0.0420132
0.0421015
0.0421298
0.0421351
0.0421846
0.0424114
0.042736
0.0429072
0.0429343
0.0428829
0.0427717
0.0427188
0.0426978
0.0427021
0.042708
0.0427052
0.0426955
0.0426833
0.0426739
0.0426655
0.0426537
0.0426387
0.0426223
0.0426065
0.0425914
0.042577
0.0425633
0.0425498
0.0425354
0.0425198
0.0425034
0.0424875
0.0424731
0.0424596
0.0424459
0.0424316
0.0424181
0.0424056
0.0423929
0.0423792
0.0423643
0.0423492
0.0423351
0.0423225
0.0423113
0.0423008
0.0422906
0.0422803
0.0422697
0.0422589
0.042248
0.0422375
0.0422274
0.0422178
0.0422085
0.0421995
0.0421906
0.0421819
0.0421733
0.0421649
0.0421565
0.0421481
0.0421398
0.0421317
0.0421237
0.042116
0.0392192
0.0394
0.0394905
0.0396491
0.0397548
0.0398948
0.040086
0.0403297
0.0406162
0.0409294
0.041248
0.0415477
0.0418024
0.041988
0.0420913
0.0421278
0.0421348
0.0421816
0.0423991
0.0427167
0.0428835
0.042916
0.0428613
0.0427493
0.0426923
0.042668
0.0426691
0.0426746
0.0426721
0.0426626
0.0426503
0.0426407
0.0426318
0.0426198
0.0426052
0.0425887
0.0425723
0.0425564
0.0425417
0.0425281
0.0425154
0.0425021
0.0424876
0.0424718
0.0424563
0.0424422
0.042429
0.0424154
0.0424019
0.0423902
0.0423799
0.0423689
0.0423558
0.0423414
0.0423271
0.042314
0.0423024
0.0422917
0.0422814
0.0422711
0.0422607
0.0422503
0.04224
0.04223
0.0422205
0.0422115
0.0422028
0.0421944
0.042186
0.0421777
0.0421696
0.0421618
0.0421541
0.0421464
0.0421387
0.0421309
0.0421232
0.0421157
0.0421084
0.0392842
0.0394095
0.0394878
0.0396369
0.0397184
0.0398463
0.0400262
0.0402611
0.0405427
0.0408559
0.0411799
0.0414902
0.0417596
0.0419619
0.0420802
0.0421253
0.0421344
0.0421763
0.04238
0.0426889
0.0428605
0.0428874
0.0428392
0.0427334
0.0426744
0.0426435
0.0426379
0.0426426
0.0426402
0.0426306
0.0426185
0.0426087
0.0426002
0.0425889
0.0425758
0.0425602
0.0425437
0.0425271
0.042512
0.0424985
0.0424865
0.0424743
0.0424611
0.0424464
0.0424318
0.0424181
0.0424047
0.0423908
0.042378
0.042368
0.0423596
0.0423498
0.0423375
0.0423242
0.0423117
0.0423004
0.0422899
0.0422795
0.042269
0.0422584
0.0422481
0.0422383
0.0422291
0.0422206
0.0422125
0.0422048
0.0421973
0.0421898
0.0421822
0.0421746
0.042167
0.0421595
0.0421521
0.0421449
0.042138
0.0421313
0.0421249
0.0421187
0.0421127
0.039335
0.0394168
0.0394869
0.0396259
0.0396831
0.0397995
0.0399687
0.040195
0.0404716
0.0407846
0.0411135
0.0414337
0.0417171
0.0419354
0.0420684
0.0421224
0.0421339
0.0421692
0.0423547
0.0426535
0.0428382
0.0428554
0.0428171
0.0427199
0.0426595
0.042623
0.0426107
0.0426147
0.0426124
0.0426015
0.042588
0.042577
0.0425692
0.0425594
0.0425484
0.0425344
0.0425186
0.042502
0.0424869
0.0424737
0.0424623
0.042451
0.0424389
0.0424255
0.0424119
0.0423986
0.0423848
0.0423708
0.0423587
0.04235
0.0423427
0.042334
0.0423228
0.0423111
0.0423003
0.0422905
0.0422809
0.0422711
0.0422611
0.0422511
0.0422416
0.0422328
0.0422249
0.0422176
0.0422104
0.0422032
0.0421959
0.0421888
0.042182
0.0421754
0.042169
0.0421628
0.0421569
0.0421513
0.0421461
0.0421416
0.0421376
0.0421337
0.0421296
0.0393731
0.0394235
0.0394849
0.039615
0.0396496
0.0397546
0.0399133
0.0401312
0.0404027
0.0407152
0.0410487
0.0413784
0.0416752
0.041909
0.0420562
0.0421191
0.0421333
0.0421611
0.0423242
0.0426116
0.0428111
0.042826
0.0427988
0.0427089
0.0426434
0.0426036
0.0425865
0.0425904
0.0425896
0.0425774
0.0425607
0.0425467
0.0425389
0.0425313
0.0425226
0.0425103
0.0424954
0.0424793
0.0424644
0.0424519
0.0424413
0.042431
0.0424199
0.0424077
0.042395
0.0423821
0.0423683
0.0423547
0.0423435
0.0423358
0.0423295
0.042322
0.0423122
0.0423017
0.0422918
0.0422828
0.0422744
0.042266
0.0422576
0.0422491
0.0422407
0.0422323
0.0422242
0.0422164
0.0422092
0.0422025
0.0421965
0.0421911
0.0421863
0.0421819
0.0421777
0.0421738
0.04217
0.0421663
0.0421626
0.042159
0.0421553
0.0421516
0.0421476
0.0393997
0.0394286
0.0394807
0.0396012
0.0396179
0.0397121
0.0398602
0.0400696
0.0403359
0.0406478
0.0409857
0.0413245
0.0416343
0.041883
0.0420441
0.0421157
0.0421328
0.042153
0.0422898
0.042563
0.0427764
0.042798
0.0427857
0.0427031
0.042626
0.0425839
0.0425631
0.0425684
0.0425709
0.0425583
0.0425383
0.0425204
0.042512
0.0425062
0.0424991
0.0424876
0.042473
0.0424575
0.0424432
0.042432
0.0424227
0.0424139
0.0424037
0.0423925
0.0423803
0.0423678
0.0423546
0.0423419
0.0423319
0.0423251
0.0423198
0.0423135
0.042305
0.0422953
0.0422859
0.0422774
0.0422701
0.0422633
0.0422565
0.0422493
0.0422416
0.0422335
0.0422254
0.0422179
0.0422113
0.0422059
0.0422017
0.0421982
0.0421952
0.0421925
0.04219
0.0421875
0.0421851
0.0421824
0.0421793
0.0421756
0.0421717
0.0421676
0.0421636
0.0394215
0.0394327
0.0394751
0.0395825
0.0395869
0.0396711
0.0398093
0.04001
0.040271
0.0405821
0.0409243
0.0412721
0.0415946
0.0418578
0.0420323
0.0421124
0.0421323
0.0421458
0.0422536
0.0425073
0.042734
0.0427701
0.0427751
0.0427045
0.0426115
0.0425634
0.0425402
0.042548
0.0425531
0.0425409
0.0425201
0.042501
0.0424917
0.0424862
0.0424783
0.0424665
0.0424516
0.0424369
0.042424
0.0424148
0.042407
0.0423994
0.0423896
0.0423786
0.0423667
0.0423547
0.0423427
0.0423316
0.0423231
0.0423174
0.0423129
0.0423075
0.0423
0.042291
0.0422817
0.0422734
0.0422664
0.0422603
0.0422545
0.0422485
0.0422421
0.0422355
0.0422289
0.0422226
0.0422172
0.0422127
0.0422093
0.0422065
0.0422043
0.0422023
0.0422004
0.0421985
0.0421966
0.0421944
0.042192
0.042189
0.0421858
0.0421825
0.0421791
0.0394396
0.0394355
0.0394685
0.0395589
0.0395561
0.0396307
0.0397601
0.0399521
0.0402078
0.0405182
0.0408646
0.0412214
0.0415564
0.0418337
0.042021
0.0421092
0.0421319
0.0421401
0.0422186
0.0424447
0.0426823
0.0427402
0.0427636
0.0427128
0.0426041
0.0425434
0.0425197
0.0425286
0.0425322
0.0425212
0.0425037
0.0424877
0.0424778
0.0424714
0.0424613
0.0424481
0.0424326
0.0424192
0.0424081
0.0424008
0.0423939
0.0423865
0.0423765
0.0423653
0.0423536
0.0423428
0.0423326
0.0423236
0.0423165
0.0423115
0.0423074
0.0423025
0.0422958
0.0422872
0.0422781
0.0422697
0.0422625
0.0422565
0.0422514
0.0422467
0.0422421
0.0422374
0.0422326
0.0422279
0.0422235
0.0422195
0.0422162
0.0422134
0.042211
0.0422088
0.0422068
0.0422049
0.0422029
0.042201
0.0421989
0.0421966
0.0421942
0.0421918
0.0421893
0.0394499
0.0394365
0.0394605
0.0395301
0.0395252
0.0395907
0.0397119
0.0398957
0.0401462
0.0404559
0.0408066
0.0411725
0.0415199
0.041811
0.0420105
0.0421063
0.0421313
0.0421364
0.0421881
0.0423775
0.0426195
0.0427062
0.0427502
0.0427195
0.0426052
0.0425316
0.0425049
0.0425093
0.0425059
0.0424965
0.0424861
0.0424766
0.0424676
0.0424603
0.0424471
0.0424323
0.0424167
0.0424051
0.042396
0.0423897
0.0423827
0.0423744
0.0423639
0.0423526
0.0423418
0.0423326
0.0423247
0.0423176
0.0423115
0.0423066
0.0423022
0.0422972
0.0422908
0.042283
0.0422746
0.0422665
0.0422596
0.0422538
0.0422494
0.0422456
0.0422423
0.0422391
0.0422358
0.0422323
0.0422287
0.0422251
0.0422215
0.0422183
0.0422152
0.0422125
0.0422098
0.0422074
0.042205
0.0422028
0.0422006
0.0421986
0.0421965
0.0421945
0.0421926
0.0394577
0.0394366
0.0394506
0.0394973
0.0394941
0.0395508
0.0396642
0.03984
0.0400859
0.0403951
0.0407505
0.0411254
0.0414853
0.0417898
0.042001
0.0421038
0.0421307
0.0421343
0.0421643
0.04231
0.0425455
0.0426662
0.0427331
0.0427119
0.0426148
0.0425347
0.0425
0.0424904
0.0424765
0.0424678
0.0424652
0.0424639
0.0424574
0.0424484
0.0424333
0.0424182
0.0424043
0.0423948
0.0423871
0.0423802
0.0423722
0.0423625
0.0423519
0.0423412
0.042332
0.0423246
0.0423186
0.0423128
0.0423073
0.0423018
0.0422967
0.0422912
0.0422852
0.0422783
0.0422712
0.0422643
0.0422583
0.0422532
0.0422494
0.0422463
0.0422437
0.0422413
0.0422387
0.042236
0.0422327
0.0422295
0.0422259
0.0422225
0.042219
0.0422158
0.0422126
0.0422097
0.042207
0.0422044
0.0422021
0.0421999
0.0421979
0.0421961
0.0421943
0.0394642
0.0394346
0.0394378
0.0394625
0.0394628
0.0395108
0.0396166
0.0397849
0.0400266
0.0403359
0.0406962
0.0410804
0.0414527
0.0417705
0.0419926
0.0421016
0.0421304
0.0421334
0.0421481
0.0422482
0.0424617
0.0426167
0.0427055
0.0426933
0.0426253
0.0425516
0.0425083
0.0424775
0.0424526
0.0424406
0.0424424
0.0424462
0.0424422
0.0424324
0.0424185
0.0424055
0.042395
0.0423868
0.0423797
0.042371
0.0423618
0.0423512
0.0423411
0.0423317
0.0423242
0.0423181
0.0423133
0.0423081
0.0423028
0.0422968
0.042291
0.0422853
0.0422798
0.0422741
0.0422685
0.0422631
0.0422583
0.0422541
0.0422507
0.042248
0.0422455
0.0422433
0.0422409
0.0422385
0.0422357
0.0422329
0.0422298
0.0422266
0.0422234
0.0422203
0.0422173
0.0422145
0.0422118
0.0422094
0.0422072
0.0422051
0.0422033
0.0422016
0.0422001
0.0394697
0.0394294
0.0394219
0.0394286
0.0394306
0.03947
0.039569
0.0397302
0.0399683
0.0402783
0.0406439
0.0410377
0.0414224
0.0417531
0.0419856
0.0421
0.0421302
0.0421331
0.042139
0.0421981
0.0423727
0.0425526
0.0426651
0.0426639
0.042627
0.0425802
0.042523
0.0424763
0.0424419
0.0424256
0.0424241
0.0424248
0.0424214
0.0424127
0.0424029
0.0423937
0.0423867
0.0423789
0.0423717
0.0423615
0.0423518
0.0423412
0.0423321
0.0423239
0.0423176
0.042312
0.0423074
0.0423023
0.0422969
0.0422909
0.0422851
0.0422796
0.0422748
0.0422703
0.0422661
0.0422621
0.0422583
0.0422549
0.0422517
0.0422491
0.0422465
0.0422443
0.0422419
0.0422396
0.0422373
0.0422348
0.0422322
0.0422296
0.042227
0.0422245
0.0422221
0.0422198
0.0422176
0.0422157
0.0422139
0.0422123
0.0422108
0.0422095
0.0422083
0.0394726
0.0394219
0.0394035
0.0393965
0.039397
0.039428
0.0395208
0.0396756
0.0399109
0.0402221
0.0405936
0.0409974
0.0413946
0.0417379
0.0419799
0.042099
0.0421301
0.042133
0.0421349
0.0421639
0.042288
0.0424703
0.0426082
0.042627
0.04262
0.0426021
0.0425348
0.0424815
0.0424469
0.0424267
0.0424168
0.0424083
0.0424014
0.0423941
0.0423881
0.0423823
0.0423774
0.0423698
0.0423625
0.0423522
0.042343
0.0423332
0.0423253
0.0423177
0.0423115
0.0423055
0.0423001
0.0422947
0.0422892
0.0422835
0.0422781
0.0422733
0.0422691
0.0422655
0.0422621
0.0422591
0.042256
0.0422531
0.0422503
0.0422476
0.0422451
0.0422428
0.0422406
0.0422383
0.0422362
0.042234
0.0422319
0.0422298
0.0422278
0.0422259
0.042224
0.0422223
0.0422208
0.0422193
0.0422179
0.0422167
0.0422156
0.0422146
0.0422136
0.0394718
0.0394122
0.0393834
0.0393659
0.0393615
0.0393846
0.0394719
0.0396212
0.0398544
0.0401676
0.0405456
0.0409596
0.0413694
0.0417248
0.0419755
0.0420984
0.0421302
0.042133
0.0421335
0.0421448
0.0422189
0.0423762
0.042529
0.0425846
0.0426049
0.0426018
0.0425412
0.0424929
0.0424591
0.042437
0.0424188
0.0424024
0.0423915
0.0423826
0.0423771
0.042372
0.0423672
0.0423602
0.042353
0.0423441
0.042336
0.0423276
0.0423203
0.042313
0.0423062
0.0422995
0.042293
0.0422869
0.042281
0.0422755
0.0422703
0.0422658
0.0422617
0.0422582
0.0422551
0.0422522
0.0422494
0.0422466
0.0422438
0.0422411
0.0422385
0.042236
0.0422338
0.0422315
0.0422295
0.0422276
0.0422258
0.0422241
0.0422225
0.0422209
0.0422194
0.042218
0.0422167
0.0422155
0.0422143
0.0422132
0.0422122
0.0422112
0.0422103
0.0394677
0.0394004
0.0393626
0.0393351
0.0393236
0.0393402
0.0394225
0.0395668
0.0397988
0.0401148
0.0404999
0.0409247
0.041347
0.041714
0.0419726
0.0420984
0.0421302
0.042133
0.0421331
0.0421366
0.0421726
0.0422861
0.0424346
0.0425272
0.0425734
0.0425817
0.0425434
0.0425019
0.0424698
0.0424464
0.0424244
0.0424052
0.0423913
0.04238
0.0423726
0.0423657
0.0423597
0.0423528
0.0423459
0.0423386
0.0423314
0.0423244
0.0423173
0.0423104
0.0423031
0.0422961
0.0422889
0.0422822
0.0422757
0.0422698
0.0422642
0.0422592
0.0422545
0.0422504
0.0422466
0.042243
0.0422397
0.0422364
0.0422332
0.0422301
0.0422271
0.0422243
0.0422217
0.0422192
0.042217
0.0422149
0.042213
0.0422112
0.0422096
0.042208
0.0422065
0.042205
0.0422037
0.0422023
0.0422011
0.0421999
0.0421988
0.0421977
0.0421966
0.0394606
0.039386
0.0393414
0.0393028
0.0392834
0.0392947
0.0393725
0.0395124
0.0397442
0.0400638
0.0404569
0.0408929
0.0413276
0.0417055
0.0419709
0.0420987
0.0421304
0.042133
0.0421331
0.0421338
0.0421477
0.042215
0.0423382
0.0424494
0.0425187
0.0425414
0.0425349
0.0425065
0.0424757
0.0424525
0.0424303
0.0424113
0.042396
0.0423833
0.0423738
0.042365
0.0423575
0.0423502
0.0423434
0.0423369
0.0423302
0.0423241
0.0423173
0.0423109
0.0423039
0.0422972
0.0422901
0.0422834
0.0422767
0.0422704
0.0422644
0.0422587
0.0422533
0.0422483
0.0422435
0.042239
0.0422347
0.0422307
0.0422268
0.0422231
0.0422196
0.0422163
0.0422132
0.0422104
0.0422077
0.0422053
0.042203
0.0422009
0.0421989
0.0421971
0.0421953
0.0421936
0.0421921
0.0421905
0.0421891
0.0421877
0.0421864
0.0421851
0.0421839
0.0394507
0.0393691
0.0393197
0.0392684
0.0392413
0.0392478
0.0393221
0.039458
0.0396907
0.0400149
0.0404168
0.0408643
0.0413111
0.0416992
0.0419704
0.0420993
0.0421305
0.042133
0.042133
0.0421332
0.0421373
0.0421695
0.0422549
0.0423604
0.0424428
0.0424873
0.0425037
0.0424984
0.0424746
0.0424537
0.0424336
0.0424164
0.0424011
0.0423885
0.0423776
0.042368
0.0423597
0.0423521
0.0423452
0.0423389
0.0423326
0.0423269
0.0423207
0.042315
0.0423088
0.042303
0.0422969
0.0422911
0.0422853
0.0422797
0.0422742
0.0422687
0.0422634
0.0422583
0.0422534
0.0422487
0.0422442
0.04224
0.042236
0.0422322
0.0422285
0.0422251
0.0422219
0.0422189
0.0422161
0.0422134
0.042211
0.0422086
0.0422064
0.0422044
0.0422024
0.0422006
0.0421988
0.0421972
0.0421956
0.0421941
0.0421927
0.0421913
0.04219
0.0394382
0.0393496
0.0392966
0.0392314
0.0391979
0.0391994
0.0392711
0.0394038
0.0396386
0.0399684
0.04038
0.0408393
0.0412979
0.0416951
0.0419709
0.0421001
0.0421306
0.042133
0.042133
0.0421331
0.042134
0.0421463
0.042195
0.0422771
0.0423584
0.042417
0.0424521
0.0424657
0.0424597
0.0424458
0.0424301
0.0424166
0.0424029
0.0423917
0.0423808
0.0423714
0.0423629
0.0423555
0.0423487
0.0423427
0.0423368
0.0423315
0.0423261
0.0423211
0.0423159
0.0423111
0.0423063
0.0423017
0.0422972
0.0422928
0.0422884
0.0422842
0.0422799
0.0422757
0.0422716
0.0422676
0.0422637
0.0422599
0.0422563
0.0422529
0.0422496
0.0422465
0.0422435
0.0422407
0.0422379
0.0422354
0.0422329
0.0422306
0.0422284
0.0422263
0.0422243
0.0422224
0.0422207
0.042219
0.0422173
0.0422158
0.0422144
0.042213
0.0422117
0.0394229
0.0393274
0.0392709
0.0391921
0.0391534
0.0391498
0.0392198
0.0393499
0.0395879
0.0399246
0.0403466
0.040818
0.0412877
0.041693
0.0419721
0.0421009
0.0421308
0.042133
0.042133
0.042133
0.0421332
0.0421369
0.0421596
0.0422128
0.0422798
0.0423391
0.042383
0.0424109
0.0424227
0.0424219
0.0424147
0.0424067
0.0423966
0.0423883
0.0423788
0.0423712
0.0423633
0.0423569
0.0423506
0.0423452
0.0423399
0.0423351
0.0423303
0.0423259
0.0423216
0.0423176
0.0423137
0.0423099
0.0423064
0.0423029
0.0422996
0.0422964
0.0422932
0.0422902
0.0422872
0.0422844
0.0422816
0.042279
0.0422764
0.042274
0.0422716
0.0422693
0.0422671
0.0422649
0.0422629
0.0422609
0.042259
0.0422571
0.0422554
0.0422537
0.0422521
0.0422505
0.042249
0.0422476
0.0422463
0.042245
0.0422438
0.0422426
0.0422415
0.0394046
0.0393024
0.0392415
0.0391508
0.0391078
0.0390991
0.0391684
0.039297
0.039539
0.0398839
0.0403171
0.0408005
0.0412806
0.0416929
0.0419736
0.0421018
0.0421309
0.042133
0.042133
0.042133
0.0421331
0.0421339
0.0421424
0.0421714
0.0422183
0.0422677
0.0423099
0.0423426
0.0423654
0.0423775
0.0423811
0.0423804
0.0423767
0.0423729
0.0423672
0.0423626
0.0423566
0.0423521
0.0423468
0.0423427
0.0423381
0.0423343
0.0423303
0.0423268
0.0423232
0.0423198
0.0423167
0.0423135
0.0423107
0.0423078
0.042305
0.0423024
0.0422998
0.0422974
0.042295
0.0422928
0.0422907
0.0422887
0.0422867
0.0422849
0.0422831
0.0422814
0.0422798
0.0422783
0.0422768
0.0422754
0.042274
0.0422728
0.0422715
0.0422703
0.0422692
0.0422681
0.0422671
0.0422661
0.0422652
0.0422643
0.0422634
0.0422626
0.0422618
0.0393832
0.0392745
0.0392079
0.0391072
0.0390612
0.039048
0.0391168
0.0392454
0.0394922
0.0398468
0.0402917
0.0407869
0.0412767
0.0416939
0.0419754
0.0421025
0.042131
0.042133
0.042133
0.042133
0.042133
0.0421332
0.0421356
0.0421487
0.0421772
0.042213
0.0422469
0.042276
0.0422998
0.0423176
0.0423291
0.0423353
0.0423382
0.0423397
0.0423394
0.042339
0.0423369
0.0423352
0.0423322
0.0423301
0.0423272
0.0423249
0.0423221
0.0423198
0.0423171
0.0423147
0.0423122
0.0423098
0.0423076
0.0423053
0.0423031
0.042301
0.0422989
0.0422969
0.042295
0.0422931
0.0422913
0.0422896
0.0422879
0.0422864
0.0422848
0.0422834
0.042282
0.0422806
0.0422793
0.0422781
0.0422769
0.0422758
0.0422747
0.0422737
0.0422727
0.0422717
0.0422708
0.04227
0.0422691
0.0422684
0.0422676
0.0422669
0.0422662
0.0393584
0.0392433
0.0391694
0.0390609
0.039014
0.0389971
0.0390649
0.0391958
0.0394478
0.0398136
0.0402705
0.0407776
0.041276
0.0416958
0.041977
0.0421031
0.042131
0.042133
0.042133
0.042133
0.042133
0.0421331
0.0421335
0.0421381
0.0421529
0.0421764
0.0422012
0.0422231
0.0422418
0.0422574
0.0422697
0.0422783
0.0422844
0.0422888
0.0422927
0.042296
0.0422982
0.0422999
0.0423004
0.0423009
0.0423005
0.0423002
0.0422993
0.0422987
0.0422975
0.0422966
0.0422951
0.0422937
0.0422924
0.0422908
0.0422895
0.042288
0.0422865
0.0422851
0.0422836
0.0422822
0.0422809
0.0422795
0.0422782
0.0422769
0.0422756
0.0422744
0.0422732
0.0422721
0.0422709
0.0422699
0.0422688
0.0422678
0.0422669
0.042266
0.0422651
0.0422642
0.0422634
0.0422626
0.0422619
0.0422611
0.0422604
0.0422598
0.0422592
0.0393295
0.0392084
0.0391258
0.0390117
0.038966
0.0389467
0.0390127
0.0391486
0.0394063
0.0397848
0.0402542
0.0407731
0.041277
0.0416981