/*--------------------------------*- C++ -*----------------------------------*\
| =========                 |                                                 |
| \\      /  F ield         | OpenFOAM: The Open Source CFD Toolbox           |
|  \\    /   O peration     | Version:  2412                                  |
|   \\  /    A nd           | Website:  www.openfoam.com                      |
|    \\/     M anipulation  |                                                 |
\*---------------------------------------------------------------------------*/
FoamFile
{
    version     2.0;
    format      ascii;
    arch        "LSB;label=32;scalar=64";
    class       volScalarField;
    location    "0.099";
    object      T;
}
// * * * * * * * * * * * * * * * * * * * * * * * * * * * * * * * * * * * * * //

dimensions      [0 0 0 1 0 0 0];

internalField   nonuniform List<scalar> 
78650
(
239.302
226.148
225.59
225.304
224.981
224.72
224.506
224.332
224.183
224.044
223.9
223.752
223.609
223.485
223.389
223.323
223.278
223.241
223.203
223.157
223.096
223.019
222.927
222.828
222.726
222.627
222.534
222.448
222.366
222.289
222.216
222.148
222.086
222.03
221.979
221.931
221.886
221.842
221.8
221.759
221.721
221.685
221.652
221.621
221.592
221.565
221.54
221.517
221.496
221.477
221.459
221.444
221.431
221.419
221.408
221.398
221.389
221.38
221.372
221.364
221.355
221.346
221.335
221.323
221.308
221.289
221.265
221.236
221.2
221.156
221.103
221.04
220.964
220.876
220.772
220.651
220.511
220.348
220.16
219.943
219.695
219.412
219.091
218.729
218.321
217.864
217.351
216.778
216.138
215.428
214.638
213.774
212.826
211.802
210.669
209.45
208.111
206.676
205.144
203.513
201.818
200.024
198.174
196.246
194.261
192.331
190.363
188.402
186.552
184.622
182.774
181.158
179.73
178.386
177.038
175.776
174.732
173.862
173.337
173.106
171.726
238.506
226.106
225.608
225.334
224.997
224.725
224.514
224.348
224.206
224.072
223.935
223.79
223.647
223.517
223.413
223.339
223.286
223.247
223.212
223.171
223.117
223.047
222.962
222.866
222.766
222.667
222.575
222.489
222.409
222.333
222.262
222.196
222.136
222.082
222.033
221.988
221.946
221.906
221.867
221.83
221.795
221.763
221.734
221.707
221.682
221.66
221.639
221.621
221.604
221.59
221.578
221.568
221.56
221.554
221.549
221.546
221.543
221.541
221.541
221.54
221.54
221.54
221.538
221.536
221.531
221.524
221.513
221.498
221.476
221.448
221.412
221.366
221.311
221.244
221.164
221.068
220.956
220.824
220.669
220.489
220.281
220.042
219.768
219.457
219.104
218.705
218.257
217.754
217.19
216.558
215.852
215.072
214.207
213.26
212.211
211.086
209.857
208.548
207.142
205.623
203.998
202.248
200.424
198.579
196.713
194.732
192.752
190.718
188.766
186.845
184.958
183.1
181.305
179.695
178.231
176.891
175.781
174.865
174.217
173.826
172.388
237.724
225.969
225.581
225.321
224.994
224.729
224.522
224.359
224.225
224.099
223.969
223.831
223.689
223.556
223.443
223.359
223.299
223.256
223.221
223.184
223.137
223.075
222.996
222.905
222.807
222.709
222.617
222.532
222.453
222.379
222.31
222.245
222.187
222.135
222.088
222.046
222.007
221.97
221.935
221.902
221.871
221.842
221.817
221.794
221.774
221.756
221.74
221.726
221.715
221.705
221.698
221.694
221.692
221.691
221.693
221.695
221.699
221.705
221.711
221.719
221.727
221.735
221.743
221.751
221.757
221.76
221.762
221.759
221.752
221.739
221.719
221.692
221.655
221.609
221.551
221.48
221.394
221.29
221.166
221.021
220.849
220.65
220.419
220.154
219.851
219.508
219.118
218.678
218.181
217.621
216.995
216.301
215.528
214.677
213.731
212.707
211.575
210.359
209.025
207.595
206.067
204.432
202.721
200.877
199.02
197.001
195.041
193.015
190.978
189.04
187.086
185.241
183.35
181.462
179.704
178.14
176.835
175.754
174.942
174.382
172.506
237.006
225.871
225.543
225.305
224.991
224.726
224.519
224.359
224.231
224.117
224
223.871
223.735
223.6
223.481
223.386
223.317
223.268
223.23
223.196
223.156
223.102
223.031
222.945
222.85
222.753
222.661
222.576
222.499
222.426
222.359
222.296
222.24
222.189
222.145
222.105
222.07
222.036
222.005
221.975
221.948
221.923
221.902
221.883
221.867
221.854
221.842
221.833
221.826
221.822
221.82
221.821
221.824
221.829
221.837
221.846
221.856
221.868
221.882
221.897
221.913
221.93
221.947
221.963
221.98
221.994
222.007
222.017
222.023
222.025
222.021
222.01
221.992
221.965
221.928
221.88
221.819
221.743
221.649
221.536
221.401
221.24
221.052
220.833
220.58
220.29
219.959
219.582
219.153
218.669
218.122
217.51
216.819
216.051
215.194
214.26
213.227
212.115
210.89
209.578
208.154
206.612
204.968
203.189
201.341
199.416
197.404
195.447
193.271
191.232
189.148
187.135
185.252
183.374
181.523
179.815
178.353
177.178
176.329
175.742
173.658
236.225
225.78
225.504
225.286
224.983
224.717
224.51
224.353
224.229
224.121
224.016
223.903
223.779
223.648
223.525
223.42
223.34
223.283
223.242
223.209
223.174
223.128
223.065
222.987
222.896
222.8
222.708
222.624
222.547
222.476
222.41
222.349
222.294
222.246
222.204
222.167
222.134
222.104
222.077
222.051
222.027
222.007
221.989
221.975
221.963
221.954
221.947
221.943
221.941
221.941
221.945
221.951
221.959
221.97
221.983
221.999
222.016
222.034
222.055
222.078
222.101
222.126
222.152
222.178
222.204
222.229
222.253
222.275
222.294
222.309
222.32
222.326
222.326
222.317
222.301
222.274
222.237
222.186
222.121
222.038
221.936
221.811
221.662
221.485
221.277
221.037
220.758
220.439
220.073
219.657
219.182
218.647
218.042
217.369
216.617
215.789
214.863
213.846
212.714
211.491
210.15
208.712
207.169
205.527
203.744
201.904
199.907
197.946
195.817
193.637
191.593
189.406
187.328
185.349
183.419
181.552
179.813
178.287
177.234
176.616
174.603
235.399
225.779
225.478
225.259
224.962
224.698
224.494
224.337
224.217
224.115
224.018
223.92
223.813
223.695
223.572
223.461
223.37
223.303
223.256
223.223
223.191
223.152
223.099
223.029
222.943
222.85
222.758
222.674
222.597
222.527
222.463
222.404
222.351
222.305
222.265
222.23
222.201
222.174
222.15
222.129
222.109
222.092
222.078
222.068
222.061
222.057
222.055
222.055
222.058
222.064
222.072
222.083
222.096
222.113
222.132
222.153
222.177
222.202
222.23
222.259
222.291
222.323
222.357
222.392
222.428
222.463
222.498
222.531
222.563
222.592
222.617
222.638
222.653
222.663
222.666
222.66
222.646
222.62
222.581
222.527
222.456
222.367
222.255
222.12
221.957
221.765
221.539
221.276
220.972
220.622
220.221
219.763
219.241
218.654
217.989
217.247
216.412
215.492
214.471
213.364
212.146
210.835
209.401
207.843
206.172
204.373
202.484
200.422
198.436
196.241
194.106
191.924
189.699
187.545
185.448
183.518
181.738
180.121
178.705
177.68
174.999
234.494
225.774
225.436
225.225
224.94
224.675
224.466
224.309
224.191
224.097
224.01
223.922
223.831
223.729
223.616
223.504
223.405
223.327
223.273
223.237
223.209
223.176
223.131
223.07
222.992
222.903
222.812
222.727
222.65
222.581
222.518
222.461
222.41
222.366
222.328
222.296
222.269
222.246
222.226
222.208
222.193
222.18
222.17
222.164
222.162
222.162
222.165
222.17
222.178
222.188
222.202
222.218
222.237
222.259
222.284
222.311
222.341
222.373
222.407
222.443
222.482
222.523
222.565
222.608
222.653
222.698
222.743
222.788
222.832
222.873
222.912
222.947
222.979
223.006
223.026
223.04
223.047
223.044
223.031
223.005
222.963
222.905
222.828
222.73
222.608
222.46
222.282
222.071
221.824
221.535
221.2
220.814
220.371
219.869
219.298
218.656
217.928
217.119
216.212
215.214
214.101
212.887
211.547
210.103
208.536
206.839
205.068
203.117
201.111
198.967
196.704
194.51
192.277
189.995
187.699
185.531
183.581
182.004
180.76
179.812
177.026
233.517
225.743
225.443
225.207
224.92
224.652
224.437
224.274
224.155
224.066
223.988
223.913
223.832
223.745
223.648
223.544
223.442
223.355
223.293
223.253
223.224
223.196
223.16
223.109
223.041
222.957
222.868
222.783
222.707
222.638
222.576
222.52
222.471
222.429
222.394
222.364
222.34
222.32
222.304
222.29
222.279
222.27
222.265
222.263
222.264
222.269
222.277
222.287
222.3
222.315
222.334
222.355
222.379
222.407
222.437
222.471
222.506
222.544
222.585
222.629
222.674
222.722
222.773
222.824
222.878
222.932
222.987
223.043
223.098
223.152
223.204
223.253
223.299
223.342
223.38
223.413
223.44
223.458
223.468
223.469
223.456
223.429
223.385
223.324
223.241
223.136
223.005
222.845
222.652
222.423
222.152
221.837
221.47
221.048
220.561
220.005
219.371
218.661
217.861
216.975
215.98
214.886
213.669
212.347
210.896
209.322
207.615
205.809
203.801
201.748
199.528
197.289
195.009
192.704
190.298
187.979
185.702
183.641
182.039
180.883
177.751
232.474
225.697
225.436
225.208
224.92
224.642
224.413
224.237
224.109
224.018
223.948
223.887
223.821
223.746
223.662
223.57
223.473
223.383
223.315
223.269
223.24
223.215
223.186
223.145
223.087
223.011
222.925
222.842
222.766
222.697
222.636
222.581
222.534
222.493
222.46
222.433
222.413
222.396
222.383
222.373
222.366
222.361
222.36
222.363
222.369
222.378
222.391
222.406
222.424
222.444
222.468
222.494
222.524
222.557
222.593
222.632
222.674
222.718
222.765
222.815
222.868
222.924
222.981
223.041
223.103
223.167
223.231
223.297
223.363
223.428
223.493
223.556
223.617
223.675
223.729
223.78
223.825
223.865
223.897
223.919
223.933
223.935
223.922
223.895
223.848
223.782
223.693
223.579
223.436
223.262
223.051
222.801
222.504
222.158
221.755
221.292
220.761
220.159
219.47
218.693
217.81
216.827
215.728
214.522
213.185
211.734
210.148
208.423
206.574
204.582
202.44
200.227
197.838
195.513
193.098
190.733
188.526
186.477
184.622
183.144
179.439
231.365
225.642
225.43
225.213
224.929
224.641
224.395
224.202
224.061
223.962
223.893
223.842
223.793
223.735
223.663
223.58
223.491
223.405
223.334
223.285
223.254
223.231
223.207
223.176
223.13
223.063
222.983
222.902
222.826
222.758
222.698
222.644
222.598
222.559
222.529
222.504
222.486
222.473
222.464
222.458
222.455
222.454
222.458
222.464
222.475
222.489
222.506
222.526
222.549
222.574
222.603
222.635
222.67
222.708
222.75
222.794
222.842
222.892
222.946
223.002
223.062
223.124
223.189
223.257
223.327
223.399
223.473
223.548
223.625
223.701
223.778
223.853
223.928
224
224.07
224.137
224.201
224.259
224.312
224.359
224.396
224.424
224.44
224.445
224.434
224.406
224.358
224.288
224.194
224.072
223.918
223.728
223.499
223.226
222.902
222.523
222.08
221.569
220.978
220.307
219.543
218.688
217.727
216.66
215.463
214.143
212.68
211.091
209.356
207.455
205.427
203.237
200.929
198.42
195.997
193.295
190.804
188.549
186.665
185.303
181.833
230.212
225.478
225.413
225.237
224.955
224.65
224.386
224.177
224.019
223.906
223.83
223.78
223.743
223.703
223.65
223.578
223.494
223.411
223.341
223.291
223.26
223.24
223.221
223.2
223.167
223.113
223.041
222.963
222.889
222.821
222.762
222.709
222.663
222.626
222.597
222.576
222.561
222.551
222.545
222.543
222.544
222.548
222.555
222.567
222.582
222.6
222.622
222.647
222.675
222.705
222.739
222.776
222.816
222.86
222.907
222.957
223.01
223.067
223.126
223.189
223.255
223.324
223.397
223.472
223.55
223.63
223.713
223.798
223.884
223.971
224.059
224.147
224.234
224.32
224.405
224.488
224.568
224.645
224.717
224.784
224.845
224.898
224.941
224.973
224.992
224.999
224.989
224.96
224.91
224.835
224.733
224.601
224.434
224.229
223.979
223.681
223.326
222.912
222.427
221.87
221.225
220.494
219.656
218.711
217.64
216.45
215.118
213.656
212.043
210.288
208.371
206.265
204.122
201.739
199.372
196.737
194.005
191.554
189.212
187.352
182.981
229.08
225.279
225.348
225.244
224.986
224.665
224.387
224.162
223.989
223.858
223.768
223.712
223.679
223.652
223.617
223.562
223.488
223.408
223.339
223.289
223.258
223.239
223.225
223.212
223.193
223.155
223.096
223.024
222.951
222.885
222.826
222.774
222.73
222.694
222.667
222.648
222.635
222.629
222.627
222.629
222.634
222.642
222.654
222.669
222.689
222.712
222.739
222.768
222.801
222.836
222.875
222.917
222.963
223.011
223.064
223.119
223.178
223.241
223.306
223.375
223.447
223.523
223.602
223.684
223.77
223.858
223.949
224.043
224.138
224.235
224.334
224.433
224.532
224.631
224.73
224.827
224.923
225.017
225.107
225.194
225.276
225.352
225.421
225.481
225.53
225.567
225.592
225.601
225.594
225.566
225.514
225.435
225.326
225.183
225.002
224.779
224.506
224.179
223.787
223.331
222.795
222.179
221.464
220.649
219.718
218.671
217.488
216.173
214.698
213.075
211.291
209.338
207.175
204.888
202.34
199.938
197.173
194.746
192.501
190.702
186.389
228.063
225.003
225.224
225.202
224.999
224.689
224.397
224.159
223.973
223.827
223.72
223.651
223.61
223.585
223.562
223.524
223.465
223.393
223.326
223.277
223.247
223.23
223.22
223.214
223.205
223.185
223.143
223.081
223.013
222.948
222.891
222.84
222.796
222.762
222.736
222.719
222.709
222.706
222.709
222.715
222.723
222.736
222.751
222.771
222.795
222.823
222.855
222.889
222.927
222.967
223.011
223.058
223.108
223.162
223.22
223.281
223.345
223.413
223.484
223.559
223.637
223.719
223.805
223.894
223.987
224.083
224.182
224.284
224.388
224.495
224.603
224.713
224.823
224.935
225.046
225.157
225.268
225.377
225.485
225.59
225.692
225.789
225.881
225.965
226.042
226.109
226.165
226.208
226.237
226.249
226.244
226.214
226.16
226.076
225.96
225.806
225.61
225.367
225.068
224.712
224.284
223.782
223.189
222.506
221.715
220.813
219.781
218.619
217.307
215.85
214.21
212.402
210.416
208.232
205.876
203.324
200.585
197.767
195.162
193.015
188.211
227.178
224.654
225.03
225.093
224.984
224.712
224.419
224.168
223.971
223.815
223.696
223.61
223.552
223.518
223.494
223.464
223.417
223.356
223.295
223.25
223.224
223.211
223.206
223.208
223.206
223.198
223.176
223.131
223.071
223.01
222.955
222.906
222.863
222.829
222.805
222.79
222.783
222.783
222.791
222.8
222.813
222.829
222.849
222.873
222.901
222.934
222.97
223.009
223.052
223.097
223.145
223.197
223.252
223.311
223.374
223.44
223.51
223.583
223.66
223.74
223.824
223.912
224.004
224.1
224.199
224.302
224.409
224.518
224.631
224.747
224.864
224.984
225.105
225.228
225.351
225.475
225.6
225.724
225.847
225.969
226.089
226.206
226.319
226.427
226.529
226.623
226.709
226.785
226.849
226.899
226.933
226.949
226.947
226.917
226.86
226.77
226.644
226.478
226.264
225.998
225.668
225.273
224.798
224.242
223.588
222.829
221.949
220.942
219.789
218.492
217.021
215.382
213.544
211.508
209.275
206.813
204.418
201.628
198.956
196.664
191.497
226.45
224.241
224.722
224.919
224.913
224.729
224.459
224.2
223.986
223.821
223.695
223.599
223.53
223.481
223.441
223.401
223.355
223.3
223.247
223.207
223.186
223.176
223.175
223.185
223.196
223.199
223.192
223.168
223.123
223.069
223.016
222.969
222.929
222.896
222.873
222.859
222.854
222.858
222.87
222.883
222.901
222.921
222.945
222.973
223.005
223.043
223.083
223.128
223.175
223.225
223.278
223.334
223.394
223.458
223.526
223.597
223.672
223.751
223.833
223.918
224.008
224.102
224.2
224.302
224.407
224.517
224.631
224.748
224.868
224.992
225.119
225.248
225.379
225.512
225.647
225.783
225.92
226.057
226.195
226.333
226.469
226.604
226.737
226.866
226.99
227.109
227.222
227.326
227.422
227.507
227.579
227.635
227.674
227.694
227.695
227.664
227.606
227.51
227.374
227.193
226.958
226.666
226.304
225.869
225.343
224.721
223.986
223.131
222.135
220.995
219.688
218.218
216.537
214.655
212.558
210.261
207.714
205.221
202.387
200.183
195.497
225.925
223.817
224.285
224.646
224.763
224.697
224.478
224.242
224.024
223.848
223.71
223.607
223.533
223.476
223.424
223.369
223.311
223.249
223.191
223.149
223.129
223.126
223.131
223.15
223.175
223.191
223.194
223.186
223.162
223.12
223.074
223.03
222.992
222.96
222.939
222.927
222.924
222.932
222.947
222.965
222.987
223.012
223.04
223.072
223.108
223.15
223.195
223.244
223.296
223.35
223.408
223.469
223.534
223.602
223.674
223.751
223.831
223.914
224.002
224.093
224.188
224.287
224.39
224.498
224.61
224.726
224.846
224.97
225.098
225.229
225.364
225.501
225.642
225.785
225.93
226.076
226.225
226.375
226.526
226.678
226.83
226.981
227.131
227.28
227.425
227.567
227.704
227.835
227.96
228.077
228.183
228.278
228.359
228.422
228.467
228.492
228.495
228.464
228.401
228.297
228.149
227.951
227.692
227.368
226.963
226.473
225.882
225.181
224.353
223.391
222.272
220.989
219.508
217.839
215.927
213.78
211.387
208.923
206.02
203.385
198.227
225.628
223.47
223.801
224.244
224.517
224.57
224.469
224.272
224.075
223.9
223.758
223.646
223.558
223.487
223.425
223.365
223.3
223.229
223.161
223.106
223.077
223.072
223.078
223.099
223.134
223.167
223.186
223.191
223.184
223.16
223.124
223.085
223.051
223.022
223.003
222.992
222.991
223.003
223.022
223.045
223.071
223.1
223.132
223.168
223.209
223.254
223.304
223.357
223.414
223.473
223.536
223.601
223.67
223.743
223.82
223.901
223.985
224.074
224.166
224.262
224.362
224.467
224.575
224.688
224.806
224.928
225.054
225.185
225.319
225.458
225.6
225.746
225.895
226.047
226.201
226.358
226.517
226.679
226.842
227.007
227.173
227.339
227.505
227.671
227.835
227.997
228.156
228.312
228.462
228.606
228.744
228.872
228.989
229.094
229.184
229.256
229.308
229.337
229.342
229.311
229.243
229.131
228.967
228.747
228.457
228.095
227.643
227.093
226.427
225.633
224.69
223.59
222.306
220.835
219.127
217.199
215.031
212.679
210.195
207.764
203.025
225.503
223.249
223.413
223.769
224.155
224.349
224.368
224.265
224.1
223.948
223.818
223.706
223.612
223.528
223.454
223.382
223.307
223.231
223.157
223.094
223.051
223.033
223.033
223.048
223.085
223.132
223.169
223.188
223.193
223.185
223.164
223.134
223.105
223.08
223.063
223.055
223.056
223.072
223.094
223.121
223.152
223.186
223.223
223.263
223.307
223.356
223.41
223.468
223.529
223.593
223.66
223.73
223.803
223.881
223.962
224.047
224.136
224.229
224.326
224.427
224.532
224.641
224.755
224.873
224.996
225.123
225.255
225.392
225.533
225.678
225.827
225.98
226.137
226.297
226.46
226.626
226.795
226.967
227.141
227.317
227.496
227.676
227.856
228.038
228.219
228.399
228.578
228.755
228.929
229.098
229.263
229.422
229.572
229.713
229.842
229.959
230.06
230.14
230.199
230.232
230.239
230.205
230.13
230.007
229.825
229.58
229.255
228.844
228.329
227.696
226.925
226.006
224.909
223.624
222.11
220.376
218.362
216.148
213.651
211.119
206.616
225.487
223.163
223.222
223.367
223.693
224.001
224.165
224.173
224.084
223.964
223.854
223.768
223.681
223.592
223.504
223.416
223.329
223.246
223.168
223.1
223.048
223.019
223.01
223.014
223.042
223.089
223.139
223.175
223.192
223.197
223.191
223.173
223.151
223.132
223.119
223.114
223.119
223.137
223.163
223.195
223.231
223.269
223.31
223.354
223.403
223.456
223.514
223.576
223.642
223.71
223.781
223.855
223.933
224.014
224.099
224.189
224.282
224.38
224.481
224.586
224.696
224.809
224.928
225.051
225.179
225.311
225.449
225.591
225.737
225.889
226.044
226.204
226.368
226.535
226.706
226.881
227.059
227.24
227.424
227.611
227.801
227.993
228.187
228.382
228.578
228.775
228.972
229.167
229.362
229.554
229.743
229.928
230.108
230.28
230.445
230.599
230.742
230.87
230.982
231.071
231.137
231.175
231.183
231.146
231.063
230.923
230.716
230.434
230.061
229.585
228.986
228.251
227.353
226.279
224.997
223.491
221.721
219.741
217.443
215.068
211.036
225.527
223.169
223.147
223.12
223.257
223.548
223.834
223.982
224
223.944
223.857
223.785
223.723
223.66
223.577
223.482
223.382
223.286
223.198
223.121
223.06
223.021
223.004
223.003
223.02
223.059
223.112
223.158
223.189
223.204
223.208
223.202
223.19
223.177
223.169
223.168
223.178
223.199
223.229
223.266
223.306
223.349
223.395
223.443
223.496
223.553
223.615
223.681
223.751
223.823
223.899
223.977
224.059
224.144
224.233
224.326
224.424
224.525
224.631
224.74
224.854
224.972
225.095
225.222
225.355
225.492
225.635
225.782
225.934
226.091
226.252
226.418
226.588
226.762
226.941
227.123
227.309
227.498
227.691
227.888
228.087
228.29
228.495
228.703
228.913
229.124
229.336
229.549
229.761
229.973
230.184
230.392
230.598
230.798
230.994
231.182
231.362
231.531
231.688
231.829
231.952
232.051
232.124
232.165
232.173
232.131
232.035
231.874
231.636
231.31
230.879
230.323
229.62
228.755
227.693
226.411
224.883
223.092
221.025
218.698
215.125
225.574
223.221
223.119
222.977
222.961
223.102
223.399
223.677
223.83
223.861
223.827
223.776
223.727
223.68
223.623
223.552
223.457
223.356
223.258
223.169
223.093
223.038
223.01
223.005
223.014
223.047
223.096
223.147
223.185
223.209
223.222
223.225
223.223
223.217
223.214
223.218
223.233
223.258
223.292
223.333
223.378
223.426
223.477
223.529
223.586
223.647
223.713
223.783
223.856
223.933
224.012
224.095
224.18
224.27
224.363
224.46
224.561
224.666
224.775
224.889
225.006
225.128
225.255
225.387
225.524
225.666
225.813
225.964
226.121
226.283
226.45
226.621
226.797
226.978
227.162
227.351
227.544
227.741
227.942
228.147
228.356
228.568
228.784
229.003
229.224
229.448
229.674
229.901
230.129
230.359
230.588
230.817
231.045
231.27
231.492
231.709
231.922
232.127
232.323
232.508
232.68
232.834
232.97
233.078
233.157
233.202
233.209
233.158
233.045
232.854
232.574
232.183
231.661
230.986
230.124
229.053
227.741
226.156
224.329
222.124
218.991
225.611
223.283
223.13
222.894
222.768
222.773
222.958
223.28
223.564
223.712
223.75
223.737
223.707
223.673
223.629
223.579
223.518
223.435
223.341
223.245
223.154
223.08
223.033
223.017
223.02
223.045
223.091
223.143
223.186
223.217
223.236
223.247
223.251
223.253
223.256
223.265
223.284
223.314
223.352
223.398
223.448
223.501
223.555
223.612
223.673
223.738
223.808
223.881
223.959
224.039
224.123
224.209
224.298
224.391
224.488
224.588
224.693
224.802
224.915
225.032
225.153
225.279
225.41
225.545
225.686
225.832
225.983
226.139
226.3
226.467
226.638
226.815
226.996
227.182
227.372
227.567
227.767
227.971
228.179
228.391
228.608
228.829
229.053
229.281
229.513
229.748
229.986
230.226
230.468
230.712
230.957
231.204
231.451
231.697
231.942
232.185
232.425
232.661
232.891
233.114
233.328
233.53
233.717
233.886
234.035
234.152
234.239
234.285
234.29
234.222
234.087
233.852
233.513
233.039
232.399
231.575
230.511
229.179
227.584
225.58
222.752
225.643
223.336
223.145
222.855
222.645
222.553
222.614
222.871
223.221
223.488
223.621
223.658
223.656
223.64
223.613
223.578
223.537
223.489
223.42
223.333
223.238
223.149
223.08
223.046
223.04
223.054
223.094
223.145
223.192
223.227
223.251
223.268
223.278
223.286
223.294
223.309
223.333
223.367
223.41
223.46
223.515
223.572
223.631
223.693
223.757
223.826
223.9
223.977
224.058
224.142
224.229
224.319
224.412
224.508
224.609
224.712
224.82
224.932
225.049
225.169
225.294
225.423
225.557
225.697
225.841
225.991
226.146
226.306
226.471
226.642
226.818
226.998
227.184
227.375
227.571
227.771
227.976
228.186
228.4
228.619
228.843
229.071
229.303
229.54
229.78
230.025
230.273
230.524
230.778
231.035
231.294
231.556
231.819
232.083
232.348
232.612
232.876
233.138
233.397
233.652
233.901
234.143
234.375
234.596
234.8
234.985
235.148
235.275
235.368
235.415
235.415
235.319
235.148
234.851
234.418
233.814
232.977
231.885
230.501
228.722
226.198
225.676
223.369
223.146
222.827
222.568
222.409
222.383
222.522
222.855
223.21
223.441
223.542
223.573
223.577
223.57
223.557
223.535
223.507
223.467
223.407
223.326
223.234
223.151
223.096
223.077
223.08
223.108
223.155
223.202
223.24
223.269
223.29
223.305
223.318
223.331
223.351
223.38
223.419
223.467
223.521
223.58
223.641
223.705
223.771
223.839
223.912
223.989
224.07
224.155
224.243
224.333
224.426
224.522
224.622
224.725
224.832
224.943
225.059
225.178
225.302
225.429
225.562
225.699
225.842
225.99
226.143
226.301
226.465
226.634
226.809
226.988
227.173
227.363
227.559
227.759
227.964
228.174
228.389
228.609
228.834
229.063
229.298
229.537
229.781
230.029
230.281
230.538
230.799
231.063
231.331
231.602
231.876
232.153
232.432
232.714
232.996
233.279
233.563
233.846
234.128
234.407
234.683
234.953
235.216
235.468
235.708
235.932
236.134
236.312
236.448
236.548
236.592
236.579
236.454
236.228
235.847
235.27
234.458
233.307
231.767
229.474
225.711
223.385
223.136
222.798
222.51
222.305
222.224
222.275
222.524
222.904
223.218
223.389
223.461
223.49
223.503
223.513
223.515
223.505
223.484
223.449
223.395
223.319
223.234
223.164
223.129
223.122
223.136
223.173
223.218
223.257
223.288
223.313
223.333
223.349
223.367
223.392
223.426
223.47
223.522
223.58
223.643
223.709
223.777
223.846
223.919
223.995
224.076
224.161
224.249
224.339
224.433
224.529
224.628
224.731
224.838
224.948
225.062
225.18
225.302
225.429
225.559
225.695
225.835
225.981
226.132
226.288
226.45
226.617
226.789
226.967
227.15
227.339
227.533
227.732
227.936
228.146
228.36
228.58
228.804
229.034
229.269
229.509
229.754
230.004
230.259
230.518
230.783
231.051
231.324
231.601
231.882
232.167
232.456
232.748
233.043
233.34
233.64
233.942
234.245
234.549
234.853
235.156
235.457
235.755
236.047
236.333
236.608
236.87
237.115
237.338
237.532
237.681
237.786
237.824
237.779
237.602
237.279
236.746
235.853
234.634
232.575
225.734
223.368
223.116
222.76
222.459
222.228
222.112
222.107
222.255
222.605
222.973
223.21
223.326
223.382
223.417
223.45
223.476
223.487
223.484
223.465
223.436
223.387
223.314
223.239
223.191
223.174
223.177
223.202
223.242
223.279
223.311
223.339
223.362
223.382
223.404
223.433
223.472
223.52
223.577
223.639
223.706
223.775
223.847
223.92
223.996
224.076
224.161
224.249
224.34
224.434
224.53
224.629
224.731
224.837
224.947
225.059
225.176
225.297
225.422
225.551
225.684
225.823
225.966
226.114
226.268
226.427
226.592
226.762
226.937
227.118
227.305
227.497
227.694
227.897
228.104
228.318
228.536
228.76
228.989
229.223
229.462
229.707
229.958
230.213
230.473
230.739
231.01
231.286
231.566
231.851
232.14
232.434
232.733
233.035
233.342
233.652
233.965
234.282
234.602
234.924
235.249
235.574
235.901
236.227
236.551
236.873
237.191
237.502
237.802
238.09
238.359
238.604
238.814
238.974
239.074
239.095
239.016
238.763
238.174
237.36
235.595
225.756
223.337
223.074
222.705
222.407
222.168
222.026
221.983
222.058
222.34
222.727
223.017
223.175
223.259
223.316
223.371
223.421
223.456
223.471
223.468
223.453
223.429
223.378
223.311
223.256
223.231
223.226
223.239
223.272
223.306
223.338
223.368
223.392
223.415
223.441
223.474
223.518
223.571
223.631
223.697
223.767
223.84
223.915
223.992
224.071
224.155
224.243
224.334
224.428
224.525
224.624
224.726
224.831
224.939
225.051
225.167
225.286
225.409
225.537
225.668
225.804
225.945
226.091
226.242
226.399
226.56
226.728
226.9
227.079
227.263
227.452
227.647
227.847
228.053
228.264
228.481
228.703
228.93
229.163
229.401
229.645
229.894
230.149
230.409
230.675
230.946
231.222
231.504
231.791
232.082
232.379
232.681
232.988
233.299
233.615
233.936
234.261
234.59
234.924
235.261
235.602
235.946
236.293
236.642
236.992
237.343
237.694
238.043
238.389
238.728
239.058
239.376
239.675
239.948
240.17
240.334
240.443
240.466
240.209
239.811
238.59
225.775
223.282
223.006
222.636
222.351
222.116
221.957
221.888
221.914
222.117
222.491
222.823
223.022
223.132
223.21
223.285
223.356
223.413
223.448
223.461
223.459
223.45
223.422
223.371
223.319
223.288
223.279
223.283
223.307
223.339
223.37
223.399
223.425
223.45
223.479
223.516
223.564
223.621
223.686
223.755
223.829
223.905
223.982
224.062
224.145
224.232
224.323
224.418
224.514
224.613
224.715
224.819
224.927
225.038
225.152
225.27
225.392
225.517
225.647
225.781
225.92
226.063
226.211
226.365
226.524
226.688
226.858
227.033
227.214
227.401
227.593
227.791
227.994
228.202
228.417
228.636
228.861
229.092
229.328
229.57
229.818
230.071
230.33
230.594
230.864
231.14
231.422
231.708
232.001
232.298
232.601
232.91
233.224
233.543
233.868
234.198
234.532
234.872
235.217
235.567
235.921
236.28
236.644
237.011
237.382
237.757
238.134
238.513
238.893
239.273
239.65
240.023
240.387
240.739
241.064
241.357
241.599
241.809
241.914
241.799
241.303
225.788
223.212
222.917
222.558
222.292
222.068
221.899
221.809
221.803
221.933
222.276
222.638
222.875
223.011
223.106
223.196
223.286
223.361
223.415
223.446
223.457
223.457
223.447
223.415
223.372
223.341
223.329
223.33
223.346
223.375
223.404
223.433
223.46
223.486
223.518
223.559
223.611
223.672
223.74
223.813
223.889
223.968
224.048
224.131
224.217
224.308
224.402
224.499
224.598
224.699
224.803
224.91
225.02
225.133
225.25
225.37
225.493
225.621
225.753
225.889
226.03
226.175
226.326
226.482
226.643
226.81
226.982
227.16
227.344
227.533
227.728
227.928
228.134
228.345
228.562
228.785
229.013
229.247
229.486
229.731
229.982
230.239
230.502
230.77
231.045
231.325
231.611
231.903
232.2
232.503
232.812
233.126
233.447
233.773
234.105
234.442
234.785
235.134
235.489
235.849
236.215
236.586
236.963
237.345
237.733
238.126
238.523
238.925
239.331
239.74
240.152
240.564
240.976
241.384
241.783
242.168
242.525
242.862
243.17
243.334
243.407
225.791
223.13
222.816
222.475
222.229
222.018
221.845
221.737
221.708
221.785
222.084
222.466
222.739
222.9
223.011
223.113
223.215
223.306
223.377
223.425
223.449
223.457
223.457
223.443
223.414
223.388
223.376
223.375
223.387
223.414
223.442
223.47
223.497
223.525
223.559
223.604
223.66
223.724
223.795
223.87
223.949
224.03
224.113
224.198
224.288
224.381
224.478
224.577
224.678
224.782
224.888
224.997
225.109
225.224
225.343
225.465
225.591
225.721
225.855
225.993
226.136
226.283
226.436
226.594
226.758
226.927
227.101
227.282
227.467
227.659
227.856
228.059
228.267
228.481
228.701
228.926
229.157
229.394
229.636
229.884
230.139
230.399
230.665
230.937
231.215
231.499
231.79
232.086
232.388
232.696
233.01
233.33
233.656
233.988
234.326
234.67
235.021
235.377
235.74
236.109
236.484
236.865
237.253
237.647
238.047
238.454
238.866
239.285
239.709
240.139
240.574
241.012
241.454
241.897
242.337
242.77
243.188
243.603
243.989
244.29
244.591
225.759
223.032
222.708
222.388
222.161
221.963
221.79
221.669
221.62
221.662
221.914
222.309
222.618
222.805
222.928
223.038
223.148
223.25
223.336
223.398
223.435
223.452
223.46
223.458
223.445
223.427
223.418
223.418
223.429
223.454
223.481
223.508
223.535
223.564
223.601
223.649
223.708
223.776
223.849
223.927
224.008
224.091
224.176
224.264
224.356
224.452
224.551
224.653
224.756
224.862
224.969
225.08
225.194
225.312
225.432
225.556