/*--------------------------------*- C++ -*----------------------------------*\
| =========                 |                                                 |
| \\      /  F ield         | OpenFOAM: The Open Source CFD Toolbox           |
|  \\    /   O peration     | Version:  2412                                  |
|   \\  /    A nd           | Website:  www.openfoam.com                      |
|    \\/     M anipulation  |                                                 |
\*---------------------------------------------------------------------------*/
FoamFile
{
    version     2.0;
    format      ascii;
    arch        "LSB;label=32;scalar=64";
    class       volScalarField;
    location    "0.072";
    object      T;
}
// * * * * * * * * * * * * * * * * * * * * * * * * * * * * * * * * * * * * * //

dimensions      [0 0 0 1 0 0 0];

internalField   nonuniform List<scalar> 
9922
(
248.435
223.152
225.102
226.14
226.106
226.061
225.892
225.679
225.438
225.176
224.908
224.639
224.372
224.118
223.88
223.662
223.463
223.282
223.116
222.964
222.826
222.7
222.583
222.47
222.357
222.236
222.102
221.95
221.777
221.58
221.359
221.113
220.843
220.549
220.233
219.894
219.534
219.153
218.751
218.328
217.884
217.417
216.928
216.415
215.876
215.312
214.722
214.104
213.456
212.777
212.063
211.311
210.513
209.665
208.769
207.786
206.473
204.043
200.187
196.333
193.421
191.264
189.535
188.041
186.72
185.573
184.545
183.62
182.796
182.056
181.377
180.758
180.177
179.637
179.128
178.653
178.204
177.785
177.391
177.018
176.659
176.315
175.992
175.684
175.392
175.112
174.846
174.588
174.342
174.104
173.879
173.661
173.447
173.238
173.038
172.846
172.662
172.488
172.321
172.159
172.004
171.857
171.719
171.589
171.463
171.337
171.206
171.069
170.927
170.791
170.675
170.597
170.559
170.554
170.572
170.62
170.695
170.777
170.844
170.876
170.814
248.487
223.152
225.083
226.114
226.083
226.045
225.882
225.671
225.433
225.172
224.906
224.637
224.37
224.116
223.879
223.661
223.462
223.28
223.113
222.961
222.823
222.697
222.58
222.467
222.354
222.233
222.099
221.947
221.773
221.576
221.354
221.107
220.836
220.541
220.222
219.881
219.519
219.135
218.73
218.303
217.854
217.382
216.886
216.365
215.816
215.24
214.634
213.996
213.324
212.615
211.864
211.064
210.205
209.278
208.255
206.994
205.116
202.054
198.614
195.586
193.176
191.228
189.538
188.079
186.802
185.653
184.626
183.705
182.865
182.099
181.41
180.78
180.2
179.665
179.163
178.69
178.238
177.811
177.404
177.018
176.657
176.314
175.989
175.678
175.384
175.101
174.831
174.571
174.323
174.085
173.86
173.645
173.444
173.25
173.061
172.877
172.699
172.528
172.364
172.205
172.051
171.905
171.767
171.636
171.508
171.38
171.247
171.106
170.96
170.818
170.694
170.607
170.562
170.551
170.563
170.605
170.677
170.758
170.824
170.858
170.792
248.538
223.155
225.063
226.088
226.059
226.029
225.872
225.664
225.427
225.168
224.903
224.635
224.369
224.115
223.879
223.66
223.46
223.277
223.11
222.958
222.82
222.694
222.577
222.464
222.351
222.23
222.096
221.944
221.77
221.572
221.35
221.102
220.829
220.532
220.212
219.869
219.504
219.117
218.709
218.278
217.825
217.348
216.845
216.316
215.757
215.168
214.547
213.889
213.193
212.453
211.663
210.812
209.889
208.87
207.674
206.08
203.72
200.759
197.799
195.226
193.079
191.219
189.605
188.157
186.864
185.733
184.716
183.795
182.955
182.187
181.478
180.827
180.224
179.68
179.174
178.706
178.259
177.835
177.43
177.049
176.692
176.354
176.031
175.719
175.423
175.138
174.871
174.613
174.365
174.124
173.892
173.666
173.448
173.239
173.041
172.852
172.673
172.503
172.338
172.18
172.029
171.887
171.754
171.628
171.505
171.381
171.253
171.118
170.978
170.842
170.725
170.645
170.604
170.596
170.611
170.656
170.728
170.812
170.878
170.912
170.847
248.59
223.158
225.044
226.061
226.034
226.012
225.861
225.656
225.421
225.164
224.9
224.633
224.367
224.115
223.878
223.659
223.459
223.275
223.107
222.955
222.817
222.691
222.574
222.461
222.348
222.227
222.093
221.941
221.767
221.569
221.345
221.096
220.822
220.523
220.201
219.857
219.489
219.1
218.688
218.254
217.796
217.314
216.805
216.268
215.7
215.098
214.462
213.785
213.065
212.293
211.462
210.558
209.564
208.431
207.045
205.2
202.673
199.939
197.33
195.035
193.038
191.282
189.689
188.261
186.979
185.818
184.787
183.867
183.032
182.269
181.561
180.908
180.3
179.732
179.203
178.717
178.268
177.851
177.457
177.083
176.724
176.379
176.05
175.732
175.431
175.144
174.872
174.609
174.36
174.121
173.896
173.681
173.475
173.273
173.076
172.886
172.705
172.531
172.362
172.2
172.046
171.901
171.764
171.633
171.505
171.377
171.245
171.105
170.96
170.821
170.699
170.615
170.573
170.566
170.584
170.634
170.713
170.803
170.875
170.912
170.851
248.642
223.163
225.024
226.034
226.008
225.995
225.851
225.647
225.416
225.16
224.897
224.63
224.365
224.114
223.877
223.658
223.457
223.272
223.104
222.952
222.814
222.688
222.571
222.459
222.345
222.224
222.09
221.938
221.763
221.565
221.341
221.091
220.815
220.515
220.191
219.844
219.475
219.083
218.668
218.23
217.768
217.281
216.765
216.22
215.642
215.029
214.378
213.683
212.938
212.136
211.264
210.307
209.234
207.978
206.417
204.393
201.947
199.423
197.056
194.93
193.032
191.321
189.799
188.408
187.127
185.964
184.905
183.944
183.085
182.313
181.612
180.969
180.37
179.808
179.274
178.776
178.305
177.87
177.463
177.075
176.709
176.36
176.028
175.709
175.411
175.127
174.86
174.6
174.351
174.11
173.88
173.659
173.45
173.252
173.064
172.881
172.704
172.533
172.368
172.212
172.063
171.922
171.787
171.659
171.535
171.411
171.282
171.145
171.001
170.86
170.735
170.646
170.597
170.584
170.598
170.645
170.72
170.807
170.875
170.912
170.855
248.694
223.17
225.005
226.006
225.983
225.978
225.84
225.639
225.41
225.156
224.894
224.628
224.364
224.112
223.876
223.657
223.455
223.27
223.101
222.949
222.811
222.686
222.568
222.455
222.342
222.221
222.087
221.935
221.76
221.561
221.336
221.085
220.808
220.507
220.181
219.832
219.461
219.066
218.649
218.207
217.741
217.248
216.726
216.173
215.586
214.961
214.295
213.581
212.813
211.981
211.069
210.059
208.905
207.53
205.838
203.73
201.408
199.076
196.885
194.888
193.058
191.407
189.892
188.521
187.276
186.125
185.065
184.095
183.205
182.394
181.661
180.995
180.387
179.837
179.321
178.836
178.367
177.916
177.493
177.104
176.742
176.397
176.071
175.757
175.462
175.179
174.909
174.646
174.394
174.151
173.919
173.694
173.478
173.27
173.072
172.881
172.696
172.518
172.349
172.189
172.038
171.893
171.756
171.626
171.501
171.378
171.251
171.117
170.976
170.839
170.719
170.637
170.598
170.593
170.613
170.666
170.748
170.841
170.913
170.951
170.891
248.746
223.178
224.985
225.977
225.957
225.96
225.828
225.631
225.404
225.152
224.891
224.626
224.362
224.111
223.875
223.655
223.453
223.267
223.099
222.946
222.808
222.683
222.565
222.452
222.339
222.218
222.084
221.931
221.757
221.557
221.331
221.079
220.801
220.498
220.171
219.82
219.447
219.05
218.629
218.184
217.713
217.215
216.687
216.127
215.531
214.895
214.214
213.482
212.691
211.828
210.879
209.814
208.582
207.12
205.358
203.254
201.049
198.867
196.805
194.894
193.147
191.52
190.028
188.649
187.387
186.246
185.2
184.237
183.351
182.537
181.787
181.096
180.456
179.87
179.332
178.844
178.391
177.966
177.559
177.168
176.8
176.448
176.114
175.789
175.48
175.181
174.899
174.628
174.373
174.13
173.9
173.681
173.473
173.274
173.083
172.899
172.72
172.546
172.379
172.221
172.068
171.922
171.782
171.65
171.523
171.397
171.267
171.128
170.98
170.836
170.708
170.616
170.567
170.555
170.57
170.621
170.703
170.798
170.871
170.909
170.848
248.799
223.188
224.965
225.948
225.931
225.942
225.816
225.622
225.398
225.148
224.888
224.623
224.36
224.109
223.873
223.653
223.45
223.264
223.096
222.943
222.806
222.68
222.562
222.449
222.335
222.214
222.08
221.928
221.753
221.553
221.327
221.074
220.794
220.49
220.161
219.809
219.433
219.034
218.61
218.161
217.686
217.183
216.65
216.082
215.476
214.829
214.134
213.385
212.571
211.68
210.692
209.572
208.273
206.747
204.948
202.903
200.795
198.731
196.779
194.953
193.251
191.683
190.212
188.841
187.565
186.384
185.307
184.329
183.439
182.628
181.888
181.205
180.567
179.97
179.406
178.886
178.407
177.969
177.557
177.163
176.79
176.433
176.094
175.766
175.455
175.16
174.887
174.628
174.38
174.139
173.905
173.679
173.464
173.257
173.059
172.869
172.687
172.515
172.351
172.194
172.043
171.898
171.762
171.634
171.513
171.393
171.268
171.136
170.995
170.855
170.731
170.642
170.592
170.578
170.592
170.64
170.721
170.816
170.89
170.93
170.872
248.851
223.199
224.945
225.919
225.905
225.924
225.804
225.614
225.392
225.144
224.885
224.621
224.357
224.107
223.871
223.651
223.448
223.262
223.093
222.94
222.803
222.677
222.56
222.446
222.332
222.211
222.077
221.924
221.749
221.549
221.322
221.068
220.788
220.482
220.152
219.797
219.419
219.018
218.591
218.139
217.66
217.152
216.612
216.037
215.423
214.765
214.056
213.29
212.454
211.535
210.509
209.34
207.987
206.419
204.605
202.634
200.625
198.656
196.766
194.99
193.344
191.808
190.386
189.052
187.792
186.609
185.503
184.478
183.545
182.701
181.941
181.252
180.622
180.042
179.493
178.977
178.481
178.015
177.581
177.177
176.799
176.444
176.111
175.795
175.495
175.209
174.937
174.671
174.414
174.167
173.932
173.707
173.494
173.287
173.088
172.895
172.71
172.533
172.365
172.202
172.045
171.896
171.756
171.623
171.497
171.371
171.241
171.104
170.959
170.817
170.692
170.604
170.558
170.551
170.571
170.627
170.713
170.812
170.89
170.93
170.873
248.903
223.212
224.924
225.889
225.879
225.905
225.792
225.605
225.386
225.14
224.882
224.618
224.355
224.105
223.868
223.648
223.445
223.259
223.09
222.938
222.8
222.674
222.557
222.443
222.329
222.208
222.073
221.921
221.746
221.545
221.317
221.062
220.781
220.474
220.142
219.786
219.406
219.002
218.573
218.118
217.635
217.122
216.576
215.994
215.372
214.703
213.981
213.198
212.341
211.394
210.333
209.122
207.73
206.138
204.334
202.43
200.503
198.614
196.799
195.082
193.46
191.946
190.524
189.202
187.969
186.81
185.718
184.696
183.745
182.87
182.069
181.338
180.673
180.07
179.517
179.013
178.537
178.09
177.662
177.256
176.872
176.511
176.171
175.845
175.534
175.231
174.936
174.653
174.388
174.137
173.902
173.676
173.462
173.257
173.062
172.876
172.698
172.527
172.361
172.2
172.048
171.904
171.768
171.64
171.516
171.393
171.265
171.127
170.98
170.833
170.701
170.605
170.551
170.536
170.548
170.595
170.676
170.773
170.849
170.89
170.833
248.956
223.227
224.904
225.858
225.852
225.886
225.779
225.597
225.38
225.136
224.879
224.616
224.353
224.102
223.866
223.645
223.442
223.256
223.087
222.935
222.797
222.671
222.554
222.44
222.326
222.204
222.07
221.917
221.742
221.541
221.313
221.057
220.774
220.466
220.132
219.775
219.393
218.987
218.555
218.097
217.61
217.092
216.541
215.952
215.321
214.642
213.908
213.109
212.232
211.26
210.167
208.923
207.507
205.906
204.135
202.295
200.443
198.626
196.878
195.214
193.642
192.147
190.732
189.39
188.13
186.958
185.867
184.848
183.903
183.032
182.232
181.495
180.811
180.175
179.583
179.043
178.547
178.097
177.676
177.278
176.894
176.523
176.169
175.833
175.516
175.212
174.929
174.663
174.41
174.164
173.928
173.698
173.478
173.265
173.063
172.87
172.687
172.508
172.335
172.17
172.014
171.866
171.728
171.597
171.473
171.352
171.229
171.098
170.959
170.819
170.693
170.603
170.556
170.547
170.563
170.614
170.698
170.797
170.874
170.915
170.854
249.008
223.243
224.883
225.827
225.826
225.867
225.766
225.588
225.374
225.131
224.876
224.613
224.351
224.1
223.863
223.642
223.439
223.253
223.084
222.932
222.794
222.668
222.551
222.437
222.323
222.201
222.066
221.913
221.738
221.536
221.308
221.051
220.768
220.458
220.123
219.764
219.38
218.972
218.537
218.076
217.586
217.064
216.507
215.912
215.273
214.584
213.838
213.023
212.127
211.132
210.012
208.744
207.313
205.72
203.994
202.214
200.429
198.675
196.976
195.355
193.819
192.367
190.981
189.656
188.389
187.183
186.049
184.992
184.018
183.128
182.32
181.586
180.913
180.29
179.703
179.152
178.628
178.142
177.691
177.275
176.883
176.51
176.163
175.838
175.534
175.241
174.963
174.685
174.421
174.169
173.931
173.702
173.485
173.276
173.079
172.891
172.71
172.534
172.362
172.197
172.04
171.89
171.748
171.613
171.484
171.357
171.227
171.09
170.943
170.795
170.66
170.561
170.506
170.493
170.51
170.563
170.649
170.752
170.831
170.873
170.813
249.061
223.262
224.862
225.795
225.799
225.847
225.752
225.579
225.367
225.127
224.873
224.611
224.348
224.098
223.861
223.639
223.436
223.25
223.081
222.929
222.791
222.665
222.548
222.434
222.319
222.197
222.063
221.91
221.734
221.532
221.303
221.046
220.761
220.45
220.114
219.753
219.367
218.957
218.52
218.056
217.563
217.037
216.475
215.873
215.227
214.528
213.77
212.941
212.028
211.012
209.871
208.587
207.154
205.578
203.894
202.165
200.428
198.714
197.05
195.46
193.955
192.527
191.174
189.882
188.644
187.457
186.321
185.243
184.232
183.297
182.444
181.67
180.971
180.337
179.754
179.219
178.714
178.239
177.782
177.347
176.943
176.569
176.226
175.9
175.584
175.267
174.957
174.669
174.41
174.163
173.926
173.694
173.471
173.256
173.054
172.861
172.677
172.499
172.328
172.167
172.013
171.865
171.726
171.597
171.475
171.357
171.234
171.102
170.959
170.813
170.676
170.572
170.512
170.495
170.509
170.559
170.642
170.745
170.825
170.869
170.814
249.113
223.281
224.84
225.762
225.772
225.827
225.739
225.569
225.361
225.122
224.869
224.608
224.346
224.095
223.858
223.637
223.433
223.246
223.078
222.926
222.788
222.662
222.545
222.431
222.316
222.194
222.059
221.906
221.729
221.528
221.298
221.04
220.754
220.442
220.105
219.742
219.355
218.942
218.504
218.037
217.54
217.01
216.444
215.836
215.182
214.475
213.706
212.864
211.935
210.902
209.745
208.454
207.027
205.471
203.823
202.138
200.448
198.785
197.174
195.627
194.145
192.726
191.364
190.065
188.83
187.656
186.538
185.473
184.467
183.526
182.656
181.855
181.119
180.443
179.821
179.256
178.737
178.265
177.823
177.403
177.003
176.62
176.257
175.91
175.586
175.275
174.986
174.714
174.456
174.204
173.961
173.725
173.499
173.283
173.078
172.88
172.689
172.506
172.331
172.165
172.004
171.85
171.705
171.568
171.44
171.315
171.189
171.055
170.912
170.767
170.633
170.534
170.481
170.469
170.487
170.543
170.633
170.739
170.822
170.867
170.81
249.165
223.304
224.819
225.729
225.746
225.807
225.724
225.56
225.354
225.117
224.866
224.606
224.344
224.093
223.855
223.634
223.43
223.243
223.075
222.923
222.785
222.66
222.542
222.428
222.313
222.19
222.055
221.901
221.725
221.523
221.293
221.034
220.748
220.435
220.096
219.732
219.343
218.929
218.487
218.018
217.518
216.985
216.414
215.801
215.14
214.424
213.645
212.792
211.849
210.802
209.636
208.345
206.925
205.387
203.777
202.139
200.504
198.899
197.34
195.835
194.39
192.995
191.645
190.336
189.072
187.865
186.721
185.639
184.625
183.681
182.811
182.012
181.277
180.6
179.968
179.382
178.829
178.318
177.845
177.41
177.003
176.614
176.246
175.899
175.579
175.279
174.993
174.712
174.442
174.181
173.932
173.692
173.466
173.252
173.05
172.856
172.67
172.494
172.325
172.162
172.006
171.859
171.72
171.587
171.459
171.333
171.203
171.064
170.915
170.763
170.622
170.515
170.453
170.435
170.448
170.5
170.589
170.696
170.78
170.825
170.77
249.218
223.328
224.797
225.695
225.718
225.786
225.709
225.549
225.346
225.112
224.862
224.603
224.342
224.09
223.853
223.63
223.426
223.24
223.071
222.919
222.782
222.657
222.539
222.425
222.309
222.187
222.051
221.897
221.721
221.518
221.287
221.028
220.741
220.427
220.087
219.722
219.331
218.915
218.472
218
217.497
216.96
216.385
215.767
215.1
214.377
213.589
212.725
211.771
210.715
209.544
208.253
206.842
205.332
203.767
202.177
200.59
199.021
197.484
196.001
194.583
193.223
191.907
190.627
189.382
188.172
187.005
185.888
184.831
183.846
182.939
182.113
181.362
180.679
180.053
179.48
178.94
178.435
177.948
177.489
177.062
176.666
176.301
175.956
175.63
175.31
175.009
174.725
174.459
174.202
173.953
173.713
173.485
173.267
173.056
172.852
172.659
172.477
172.3
172.128
171.965
171.813
171.672
171.541
171.417
171.297
171.175
171.047
170.907
170.763
170.628
170.525
170.465
170.449
170.464
170.517
170.608
170.719
170.805
170.85
170.789
249.27
223.354
224.774
225.66
225.691
225.764
225.693
225.538
225.339
225.107
224.859
224.6
224.339
224.088
223.85
223.627
223.423
223.236
223.068
222.916
222.779
222.654
222.536
222.422
222.306
222.183
222.047
221.893
221.716
221.513
221.282
221.022
220.734
220.42
220.078
219.712
219.32
218.902
218.457
217.982
217.477
216.937
216.358
215.735
215.062
214.332
213.537
212.664
211.702
210.639
209.466
208.179
206.785
205.31
203.783
202.227
200.666
199.121
197.616
196.164
194.768
193.418
192.112
190.847
189.623
188.439
187.292
186.184
185.122
184.117
183.177
182.308
181.513
180.788
180.126
179.528
178.978
178.481
178.011
177.569
177.146
176.742
176.362
175.999
175.662
175.346
175.05
174.761
174.484
174.217
173.964
173.725
173.499
173.281
173.07
172.868
172.678
172.497
172.32
172.147
171.982
171.826
171.676
171.534
171.4
171.27
171.139
171.002
170.856
170.707
170.567
170.459
170.398
170.383
170.4
170.456
170.549
170.663
170.753
170.801
170.742
249.322
223.381
224.752
225.625
225.664
225.742
225.677
225.527
225.331
225.102
224.855
224.598
224.337
224.086
223.847
223.624
223.419
223.232
223.064
222.913
222.776
222.651
222.533
222.419
222.303
222.179
222.043
221.888
221.711
221.508
221.277
221.016
220.728
220.412
220.07
219.702
219.309
218.889
218.442
217.966
217.458
216.914
216.332
215.705
215.027
214.291
213.489
212.609
211.64
210.574
209.402
208.124
206.753
205.306
203.803
202.276
200.752
199.257
197.804
196.395
195.027
193.69
192.379
191.097
189.853
188.654
187.503
186.4
185.346
184.347
183.408
182.534
181.727
180.984
180.299
179.669
179.08
178.541
178.041
177.585
177.155
176.748
176.361
175.994
175.653
175.333
175.033
174.742
174.464
174.198
173.949
173.711
173.482
173.257
173.038
172.83
172.636
172.45
172.272
172.104
171.946
171.797
171.655
171.522
171.396
171.272
171.144
171.007
170.859
170.705
170.557
170.443
170.375
170.355
170.368
170.42
170.51
170.623
170.712
170.763
170.708
249.374
223.409
224.729
225.59
225.636
225.72
225.66
225.516
225.323
225.097
224.852
224.595
224.335
224.083
223.844
223.621
223.416
223.229
223.06
222.909
222.773
222.648
222.531
222.416
222.3
222.176
222.039
221.884
221.706
221.503
221.271
221.01
220.721
220.405
220.062
219.693
219.298
218.877
218.428
217.95
217.439
216.893
216.307
215.677
214.994
214.253
213.445
212.56
211.587
210.52
209.353
208.089
206.736
205.31
203.837
202.353
200.881
199.433
198.015
196.631
195.288
193.979
192.693
191.426
190.179
188.96
187.776
186.637
185.551
184.526
183.569
182.681
181.864
181.115
180.427
179.8
179.216
178.676
178.158
177.676
177.224
176.808
176.422
176.06
175.72
175.392
175.083
174.785
174.505
174.237
173.986
173.745
173.512
173.282
173.059
172.847
172.645
172.451
172.267
172.095
171.929
171.765
171.61
171.465
171.332
171.206
171.081
170.949
170.807
170.657
170.513
170.401
170.335
170.315
170.328
170.379
170.467
170.579
170.666
170.713
170.651
249.426
223.44
224.705
225.553
225.608
225.697
225.643
225.504
225.315
225.091
224.848
224.592
224.332
224.081
223.842
223.618
223.412
223.225
223.057
222.906
222.77
222.646
222.528
222.413
222.296
222.172
222.034
221.879
221.701
221.497
221.265
221.004
220.715
220.397
220.053
219.683
219.288
218.865
218.415
217.935
217.422
216.873
216.285
215.65
214.964
214.219
213.406
212.517
211.543
210.477
209.318
208.067
206.732
205.331
203.899
202.457
201.016
199.586
198.181
196.814
195.491
194.203
192.94
191.7
190.482
189.285
188.114
186.971
185.866
184.807
183.807
182.876
182.018
181.232
180.515
179.866
179.272
178.737
178.232
177.761
177.312
176.89
176.493
176.112
175.751
175.404
175.083
174.781
174.498
174.226
173.97
173.723
173.485
173.253
173.033
172.823
172.625
172.437
172.263
172.1
171.938
171.777
171.621
171.473
171.334
171.201
171.069
170.928
170.777
170.619
170.468
170.349
170.277
170.252
170.263
170.315
170.405
170.522
170.614
170.667
170.614
249.477
223.472
224.682
225.517
225.58
225.674
225.625
225.492
225.307
225.086
224.845
224.59
224.33
224.079
223.839
223.615
223.409
223.222
223.054
222.903
222.767
222.643
222.525
222.41
222.293
222.168
222.03
221.874
221.696
221.492
221.259
220.998
220.708
220.39
220.045
219.675
219.278
218.854
218.402
217.92
217.406
216.855
216.264
215.626
214.937
214.188
213.372
212.481
211.507
210.445
209.294
208.055
206.741
205.375
203.978
202.557
201.135
199.732
198.366
197.036
195.736
194.456
193.191
191.945
190.724
189.533
188.375
187.25
186.158
185.107
184.104
183.159
182.277
181.462
180.712
180.026
179.393
178.814
178.277
177.786
177.327
176.897
176.493
176.107
175.746
175.406
175.098
174.807
174.529
174.256
173.996
173.742
173.496
173.257
173.03
172.812
172.606
172.412
172.23
172.053
171.883
171.722
171.574
171.436
171.307
171.184
171.061
170.927
170.781
170.626
170.476
170.357
170.284
170.26
170.273
170.324
170.414
170.529
170.62
170.669
170.61
249.529
223.507
224.658
225.479
225.551
225.65
225.607
225.481
225.299
225.081
224.841
224.587
224.328
224.077
223.837
223.612
223.406
223.218
223.05
222.9
222.765
222.64
222.523
222.407
222.29
222.164
222.026
221.869
221.69
221.486
221.253
220.991
220.701
220.383
220.037
219.666
219.268
218.843
218.39
217.907
217.391
216.838
216.244
215.604
214.912
214.161
213.343
212.451
211.479
210.422
209.28
208.059
206.77
205.431
204.051
202.653
201.27
199.921
198.604
197.31
196.034
194.775
193.522
192.276
191.04
189.825
188.639
187.49
186.385
185.327
184.321
183.372
182.484
181.657
180.896
180.2
179.56
178.973
178.418
177.902
177.419
176.973
176.561
176.178
175.822
175.482
175.159
174.845
174.547
174.261
173.99
173.729
173.482
173.246
173.023
172.812
172.615
172.43
172.248
172.063
171.883
171.715
171.559
171.409
171.268
171.134
171.003
170.867
170.721
170.565
170.414
170.291
170.215
170.19
170.2
170.247
170.335
170.453
170.546
170.598
170.54
249.581
223.542
224.633
225.441
225.523
225.625
225.589
225.469
225.292
225.075
224.837
224.584
224.326
224.075
223.835
223.61
223.402
223.215
223.047
222.897
222.762
222.638
222.52
222.404
222.286
222.16
222.021
221.864
221.685
221.48
221.247
220.985
220.694
220.376
220.03
219.658
219.259
218.833
218.379
217.895
217.377
216.823
216.227
215.585
214.891
214.138
213.319
212.428
211.459
210.409
209.28
208.076
206.809
205.487
204.132
202.781
201.447
200.13
198.827
197.542
196.283
195.046
193.821
192.602
191.391
190.189
189.002
187.835
186.698
185.601
184.557
183.573
182.653
181.8
181.013
180.297
179.643
179.053
178.502
177.996
177.515
177.063
176.638
176.236
175.859
175.494
175.151
174.827
174.53
174.244
173.97
173.706
173.457
173.219
172.995
172.781
172.583
172.395
172.211
172.031
171.863
171.706
171.557
171.414
171.275
171.141
171.008
170.87
170.721
170.562
170.405
170.275
170.194
170.166
170.175
170.224
170.314
170.437
170.534
170.591
170.534
249.633
223.58
224.608
225.402
225.494
225.601
225.571
225.458
225.284
225.07
224.833
224.582
224.324
224.073
223.833
223.607
223.4
223.212
223.044
222.894
222.759
222.635
222.517
222.402
222.283
222.156
222.016
221.859
221.679
221.474
221.24
220.978
220.687
220.368
220.022
219.649
219.25
218.824
218.369
217.883
217.364
216.809
216.212
215.568
214.873
214.119
213.3
212.411
211.446
210.405
209.289
208.102
206.852
205.553
204.239
202.926
201.61
200.303
199.018
197.757
196.517
195.291
194.073
192.863
191.666
190.484
189.32
188.173
187.049
185.954
184.898
183.89
182.939
182.05
181.229
180.476
179.785
179.155
178.573
178.042
177.546
177.082
176.649
176.241
175.868
175.517
175.192
174.877
174.576
174.281
174.002
173.739
173.493
173.259
173.037
172.825
172.62
172.416
172.213
172.021
171.841
171.67
171.508
171.357
171.218
171.088
170.961
170.829
170.685
170.53
170.373
170.241
170.158
170.128
170.136
170.182
170.269
170.388
170.483
170.537
170.476
249.684
223.619
224.582
225.362
225.465
225.575
225.552
225.446
225.276
225.064
224.829
224.579
224.322
224.071
223.831
223.605
223.397
223.209
223.041
222.892
222.757
222.633
222.515
222.399
222.28
222.152
222.012
221.853
221.673
221.467
221.234
220.971
220.68
220.361
220.015
219.642
219.242
218.815
218.359
217.873
217.353
216.796
216.198
215.554
214.858
214.104
213.286
212.4
211.441
210.41
209.307
208.135
206.904
205.639
204.358
203.057
201.76
200.489
199.25
198.031
196.818
195.608
194.395
193.179
191.968
190.769
189.591
188.438
187.316
186.228
185.179
184.173
183.217
182.316
181.477
180.704
179.995
179.347
178.745
178.19
177.669
177.185
176.742
176.333
175.96
175.599
175.245
174.894
174.565
174.26
173.983
173.724
173.481
173.248
173.027
172.814
172.604
172.4
172.208
172.029
171.854
171.682
171.512
171.352
171.206
171.068
170.933
170.792
170.641
170.479
170.316
170.179
170.091
170.059
170.068
170.116
170.207
170.332
170.434
170.494
170.438
249.737
223.659
224.556
225.322
225.436
225.549
225.533
225.434
225.267
225.058
224.825
224.576
224.32
224.07
223.829
223.603
223.395
223.207
223.039
222.889
222.754
222.63
222.512
222.396
222.276
222.148
222.007
221.848
221.667
221.461
221.227
220.964
220.673
220.354
220.007
219.634
219.234
218.806
218.35
217.864
217.343
216.786
216.187
215.542
214.846
214.093
213.277
212.394
211.444
210.423
209.332
208.177
206.972
205.734
204.467
203.19
201.941
200.72
199.515
198.314
197.115
195.925
194.735
193.541
192.344
191.148
189.957
188.779
187.624
186.503
185.425
184.397
183.423
182.503
181.644
180.848
180.118
179.456
178.847
178.293
177.772
177.286
176.834
176.405
176.006
175.615
175.241
174.89
174.585
174.302
174.029
173.762
173.506
173.264
173.032
172.805
172.579
172.361
172.16
171.973
171.797
171.628
171.469
171.323
171.187
171.058
170.927
170.79
170.64
170.478
170.315
170.176
170.086
170.052
170.056
170.099
170.186
170.308
170.409
170.464
170.4
249.788
223.7
224.528
225.281
225.406
225.521
225.512
225.422
225.259
225.052
224.821
224.574
224.318
224.068
223.828
223.602
223.393
223.205
223.036
222.887
222.752
222.628
222.51
222.393
222.273
222.144
222.002
221.842
221.661
221.454
221.22
220.957
220.666
220.347
220
219.627
219.226
218.799
218.342
217.855
217.334
216.777
216.178
215.533
214.837
214.085
213.272
212.396
211.453
210.442
209.365
208.23
207.047
205.826
204.583
203.355
202.146
200.94
199.738
198.543
197.358
196.183
195.009
193.835
192.662
191.491
190.324
189.164
188.015
186.886
185.787
184.729
183.719
182.764
181.871
181.044
180.281
179.586
178.945
178.364
177.823
177.326
176.863
176.427
176.023
175.642
175.295
174.961
174.644
174.337
174.043
173.764
173.505
173.26
173.026
172.799
172.579
172.37
172.171
171.98
171.792
171.613
171.446
171.291
171.145
171.003
170.866
170.725
170.573
170.411
170.248
170.108
170.014
169.977
169.979
170.021
170.111
170.24
170.345
170.405
170.346
249.842
223.743
224.499
225.239
225.376
225.493
225.492
225.41
225.25
225.046
224.817
224.571
224.316
224.067
223.827
223.6
223.392
223.203
223.034
222.884
222.749
222.625
222.507
222.391
222.27
222.14
221.997
221.837
221.654
221.447
221.212
220.95
220.659
220.34
219.993
219.62
219.219
218.791
218.335
217.848
217.327
216.769
216.17
215.526
214.832
214.082
213.274
212.403
211.468
210.468
209.406
208.289
207.125
205.926
204.724
203.53
202.328
201.135
199.96
198.801
197.644
196.482
195.314
194.137
192.958
191.783
190.618
189.467
188.332
187.218
186.13
185.076
184.061
183.094
182.182
181.33
180.542
179.82
179.153
178.547
177.982
177.466
176.986
176.537
176.121
175.724
175.354
174.994
174.651
174.332
174.042
173.766
173.503
173.252
173.006
172.767
172.541
172.336
172.147
171.964
171.785
171.618
171.461
171.311
171.162
171.017
170.875
170.732
170.58
170.417
170.252
170.108
170.012
169.976
169.98
170.024
170.114
170.24
170.341
170.397
170.33
249.894
223.787
224.47
225.196
225.344
225.466
225.473
225.396
225.24
225.039
224.813
224.568
224.314
224.066
223.826
223.599
223.39
223.201
223.032
222.882
222.747
222.623
222.505
222.388
222.266
222.136
221.992
221.831
221.647
221.439
221.205
220.942
220.651
220.332
219.986
219.613
219.212
218.785
218.328
217.841
217.321
216.763
216.165
215.522
214.829
214.083
213.279
212.415
211.489
210.501
209.454
208.354
207.209
206.042
204.871
203.687
202.508
201.359
200.231
199.106
197.97
196.826
195.676
194.513
193.339
192.159
190.978
189.802
188.642
187.506
186.403
185.338
184.315
183.337
182.41
181.537
180.725
179.978
179.291
178.672
178.098
177.575
177.08
176.61
176.166
175.745
175.361
175.007
174.687
174.382
174.087
173.799
173.527
173.271
173.026
172.79
172.565
172.353
172.149
171.953
171.764
171.586
171.421
171.264
171.114
170.971
170.835
170.697
170.548
170.384
170.216
170.07
169.97
169.93
169.928
169.965
170.05
170.177
170.28
170.338
170.274
249.949
223.831
224.44
225.152
225.311
225.438
225.454
225.383
225.231
225.033
224.808
224.565
224.312
224.064
223.825
223.599
223.389
223.199
223.03
222.88
222.745
222.621
222.503
222.385
222.263
222.132
221.987
221.825
221.64
221.432
221.197
220.934
220.643
220.325
219.979
219.606
219.206
218.779
218.323
217.836
217.316
216.759
216.162
215.52
214.83
214.088
213.289
212.432
211.515
210.54
209.507
208.424
207.305
206.166
205.011
203.852
202.724
201.612
200.497
199.376
198.246
197.117
195.985
194.845
193.697
192.542
191.382
190.218
189.056
187.904
186.774
185.675
184.618
183.609
182.652
181.752
180.912
180.137
179.422
178.776
178.179
177.638
177.127
176.65
176.207
175.804
175.439
175.085
174.74
174.396
174.072
173.771
173.496
173.237
172.994
172.768
172.557
172.353
172.154
171.966
171.786
171.611
171.434
171.26
171.099
170.953
170.815
170.673
170.519
170.351
170.181
170.033
169.929
169.886
169.886
169.93
170.027
170.166
170.28
170.345
170.283
250.001
223.876
224.409
225.108
225.279
225.411
225.435
225.369
225.222
225.026
224.804
224.562
224.31
224.064
223.825
223.598
223.388
223.198
223.029
222.878
222.743
222.619
222.501
222.383
222.26
222.128
221.982
221.819
221.633
221.424
221.188
220.926
220.635
220.317
219.972
219.599
219.2
218.773
218.318
217.832
217.312
216.756
216.16
215.521
214.834
214.096
213.303
212.453
211.547
210.584
209.566
208.503
207.407
206.287
205.156
204.044
202.947
201.837
200.729
199.623