/*--------------------------------*- C++ -*----------------------------------*\
| =========                 |                                                 |
| \\      /  F ield         | OpenFOAM: The Open Source CFD Toolbox           |
|  \\    /   O peration     | Version:  2412                                  |
|   \\  /    A nd           | Website:  www.openfoam.com                      |
|    \\/     M anipulation  |                                                 |
\*---------------------------------------------------------------------------*/
FoamFile
{
    version     2.0;
    format      ascii;
    arch        "LSB;label=32;scalar=64";
    class       volScalarField;
    location    "0.022";
    object      T;
}
// * * * * * * * * * * * * * * * * * * * * * * * * * * * * * * * * * * * * * //

dimensions      [0 0 0 1 0 0 0];

internalField   nonuniform List<scalar> 
9922
(
238.067
226.825
226.989
227.108
227.061
226.884
226.582
226.174
225.667
225.05
224.352
223.624
222.852
221.836
220.944
220.352
220.057
219.967
219.97
220.016
220.071
220.086
220.046
219.947
219.812
219.655
219.484
219.307
219.128
218.941
218.732
218.494
218.232
217.949
217.646
217.323
216.976
216.605
216.206
215.777
215.319
214.831
214.311
213.751
213.147
212.5
211.808
211.07
210.283
209.445
208.551
207.595
206.57
205.474
204.298
203.053
201.731
200.295
198.816
197.191
195.62
194.088
192.653
191.344
190.162
189.092
188.104
187.167
186.257
185.366
184.505
183.691
182.929
182.245
181.632
181.102
180.619
180.188
179.799
179.445
179.116
178.806
178.514
178.24
177.984
177.736
177.487
177.237
176.997
176.764
176.543
176.329
176.124
175.925
175.735
175.552
175.376
175.205
175.041
174.883
174.732
174.588
174.453
174.325
174.2
174.075
173.944
173.807
173.666
173.532
173.42
173.345
173.31
173.303
173.32
173.367
173.444
173.529
173.596
173.628
173.566
238.027
226.817
226.98
227.099
227.054
226.875
226.568
226.153
225.639
225.021
224.332
223.621
222.871
221.868
220.973
220.367
220.057
219.956
219.955
219.999
220.057
220.076
220.041
219.947
219.811
219.653
219.48
219.302
219.123
218.936
218.727
218.489
218.226
217.943
217.639
217.314
216.966
216.593
216.192
215.761
215.3
214.808
214.283
213.718
213.109
212.454
211.754
211.007
210.209
209.357
208.446
207.469
206.421
205.298
204.107
202.807
201.484
199.989
198.487
196.879
195.303
193.816
192.438
191.177
190.024
188.959
187.962
187.02
186.12
185.252
184.408
183.599
182.833
182.143
181.525
180.991
180.52
180.116
179.753
179.419
179.103
178.801
178.513
178.231
177.953
177.67
177.4
177.142
176.899
176.666
176.446
176.232
176.028
175.831
175.643
175.462
175.289
175.123
174.963
174.809
174.663
174.524
174.393
174.269
174.149
174.029
173.902
173.77
173.632
173.501
173.391
173.319
173.286
173.283
173.302
173.353
173.434
173.524
173.595
173.632
173.572
237.985
226.81
226.972
227.09
227.046
226.865
226.554
226.13
225.609
224.991
224.312
223.617
222.89
221.901
221.003
220.383
220.057
219.945
219.939
219.982
220.043
220.065
220.035
219.946
219.811
219.651
219.476
219.297
219.118
218.931
218.722
218.484
218.22
217.937
217.633
217.306
216.957
216.582
216.179
215.746
215.281
214.787
214.258
213.688
213.073
212.412
211.705
210.948
210.14
209.275
208.348
207.353
206.286
205.143
203.927
202.626
201.226
199.779
198.193
196.661
195.122
193.677
192.341
191.105
189.962
188.903
187.914
186.973
186.052
185.137
184.249
183.421
182.668
182.014
181.439
180.948
180.51
180.12
179.755
179.406
179.076
178.759
178.455
178.157
177.874
177.607
177.357
177.112
176.877
176.647
176.427
176.215
176.012
175.816
175.63
175.451
175.28
175.114
174.956
174.803
174.657
174.517
174.385
174.261
174.14
174.019
173.892
173.757
173.617
173.484
173.37
173.294
173.256
173.25
173.267
173.317
173.397
173.485
173.555
173.591
173.533
237.941
226.804
226.964
227.081
227.039
226.855
226.539
226.107
225.579
224.961
224.291
223.614
222.909
221.935
221.034
220.401
220.057
219.935
219.923
219.965
220.028
220.054
220.029
219.946
219.811
219.649
219.472
219.292
219.112
218.925
218.717
218.479
218.215
217.931
217.626
217.299
216.948
216.572
216.167
215.731
215.264
214.766
214.233
213.659
213.039
212.373
211.659
210.895
210.076
209.199
208.258
207.248
206.165
205.009
203.762
202.464
201.018
199.573
198.012
196.493
195.035
193.642
192.332
191.108
189.969
188.9
187.876
186.873
185.897
184.971
184.114
183.332
182.619
181.99
181.42
180.92
180.47
180.066
179.691
179.341
179.012
178.702
178.409
178.129
177.862
177.598
177.337
177.078
176.83
176.591
176.366
176.15
175.946
175.748
175.559
175.377
175.203
175.035
174.874
174.719
174.57
174.429
174.295
174.168
174.046
173.925
173.798
173.663
173.523
173.389
173.275
173.198
173.16
173.154
173.173
173.226
173.309
173.401
173.473
173.511
173.457
237.893
226.798
226.956
227.072
227.031
226.845
226.523
226.083
225.548
224.93
224.269
223.61
222.928
221.969
221.067
220.42
220.059
219.925
219.908
219.947
220.012
220.042
220.023
219.946
219.812
219.647
219.469
219.287
219.107
218.92
218.712
218.473
218.21
217.925
217.62
217.292
216.94
216.563
216.156
215.718
215.248
214.748
214.211
213.633
213.008
212.336
211.616
210.845
210.017
209.129
208.176
207.154
206.06
204.891
203.636
202.291
200.891
199.371
197.893
196.37
194.935
193.566
192.268
191.047
189.903
188.819
187.783
186.788
185.838
184.932
184.068
183.262
182.531
181.895
181.332
180.852
180.425
180.042
179.683
179.343
179.019
178.708
178.407
178.108
177.814
177.524
177.25
176.99
176.747
176.514
176.292
176.08
175.877
175.681
175.495
175.315
175.144
174.979
174.821
174.67
174.524
174.385
174.254
174.13
174.011
173.892
173.767
173.635
173.497
173.364
173.249
173.172
173.135
173.129
173.148
173.201
173.285
173.378
173.451
173.487
173.426
237.843
226.793
226.949
227.063
227.024
226.834
226.507
226.058
225.516
224.897
224.247
223.605
222.948
222.005
221.102
220.441
220.063
219.915
219.893
219.93
219.995
220.029
220.016
219.945
219.812
219.645
219.465
219.283
219.102
218.915
218.706
218.468
218.204
217.92
217.614
217.286
216.933
216.554
216.145
215.705
215.234
214.73
214.191
213.608
212.98
212.303
211.578
210.799
209.963
209.066
208.103
207.072
205.969
204.786
203.529
202.152
200.761
199.256
197.773
196.307
194.874
193.511
192.224
191.016
189.884
188.823
187.803
186.798
185.801
184.83
183.93
183.136
182.449
181.857
181.328
180.865
180.437
180.042
179.67
179.317
178.978
178.65
178.334
178.03
177.746
177.477
177.223
176.974
176.735
176.5
176.276
176.061
175.856
175.659
175.471
175.288
175.113
174.944
174.783
174.627
174.477
174.334
174.199
174.071
173.948
173.825
173.697
173.562
173.421
173.284
173.166
173.085
173.045
173.038
173.055
173.105
173.188
173.282
173.355
173.391
173.331
237.79
226.789
226.942
227.054
227.016
226.824
226.489
226.032
225.483
224.864
224.224
223.6
222.967
222.041
221.138
220.465
220.068
219.907
219.878
219.911
219.978
220.016
220.009
219.945
219.813
219.644
219.462
219.279
219.097
218.91
218.701
218.463
218.2
217.915
217.609
217.28
216.927
216.546
216.136
215.694
215.22
214.715
214.172
213.587
212.954
212.273
211.542
210.757
209.914
209.009
208.04
207.002
205.891
204.7
203.424
202.08
200.629
199.207
197.707
196.294
194.902
193.557
192.283
191.084
189.953
188.862
187.777
186.712
185.687
184.74
183.888
183.129
182.45
181.848
181.307
180.829
180.392
179.997
179.628
179.28
178.945
178.624
178.317
178.023
177.739
177.456
177.181
176.914
176.661
176.418
176.189
175.97
175.764
175.565
175.375
175.191
175.015
174.846
174.685
174.529
174.381
174.24
174.107
173.982
173.861
173.742
173.618
173.486
173.347
173.212
173.095
173.016
172.977
172.971
172.991
173.045
173.133
173.231
173.309
173.35
173.293
237.735
226.785
226.936
227.045
227.009
226.812
226.472
226.005
225.448
224.83
224.2
223.595
222.985
222.077
221.176
220.49
220.075
219.898
219.863
219.892
219.958
220.002
220.001
219.943
219.814
219.644
219.459
219.274
219.092
218.904
218.695
218.458
218.195
217.91
217.604
217.275
216.921
216.539
216.127
215.684
215.209
214.701
214.156
213.567
212.931
212.246
211.51
210.72
209.871
208.96
207.985
206.942
205.826
204.629
203.336
202.004
200.572
199.147
197.711
196.285
194.914
193.589
192.323
191.118
189.964
188.834
187.746
186.702
185.698
184.748
183.862
183.069
182.378
181.79
181.274
180.821
180.404
180.02
179.651
179.295
178.952
178.617
178.292
177.973
177.665
177.373
177.103
176.85
176.608
176.373
176.148
175.933
175.729
175.532
175.344
175.162
174.988
174.821
174.661
174.506
174.357
174.216
174.083
173.956
173.834
173.712
173.585
173.451
173.309
173.17
173.05
172.967
172.924
172.915
172.933
172.986
173.072
173.167
173.244
173.283
173.222
237.676
226.781
226.929
227.037
227.001
226.801
226.453
225.977
225.413
224.795
224.176
223.59
223.004
222.115
221.214
220.517
220.083
219.89
219.847
219.872
219.938
219.988
219.993
219.941
219.814
219.643
219.457
219.271
219.087
218.899
218.69
218.453
218.191
217.906
217.6
217.27
216.915
216.533
216.12
215.675
215.199
214.689
214.141
213.55
212.911
212.222
211.482
210.687
209.833
208.918
207.94
206.894
205.773
204.571
203.288
201.92
200.562
199.102
197.713
196.299
194.931
193.621
192.365
191.159
189.997
188.891
187.81
186.723
185.662
184.668
183.785
183.03
182.38
181.815
181.305
180.842
180.409
180.005
179.618
179.248
178.893
178.553
178.23
177.923
177.634
177.359
177.097
176.839
176.587
176.343
176.111
175.89
175.68
175.478
175.285
175.099
174.921
174.749
174.583
174.421
174.267
174.122
173.985
173.855
173.731
173.608
173.481
173.348
173.207
173.069
172.948
172.865
172.825
172.819
172.841
172.9
172.994
173.098
173.182
173.227
173.173
237.614
226.778
226.924
227.029
226.993
226.789
226.434
225.947
225.376
224.758
224.151
223.584
223.022
222.152
221.255
220.546
220.092
219.883
219.832
219.852
219.916
219.974
219.984
219.937
219.815
219.644
219.455
219.267
219.083
218.893
218.684
218.448
218.187
217.902
217.596
217.266
216.911
216.527
216.113
215.668
215.19
214.678
214.129
213.535
212.893
212.201
211.457
210.659
209.802
208.885
207.904
206.855
205.73
204.523
203.248
201.894
200.527
199.129
197.723
196.377
195.043
193.749
192.505
191.302
190.127
188.965
187.8
186.672
185.622
184.671
183.822
183.064
182.392
181.805
181.282
180.819
180.391
179.993
179.61
179.245
178.896
178.562
178.24
177.922
177.613
177.313
177.03
176.757
176.501
176.258
176.029
175.809
175.602
175.401
175.211
175.027
174.853
174.684
174.522
174.364
174.215
174.074
173.942
173.816
173.695
173.576
173.454
173.324
173.187
173.051
172.93
172.849
172.81
172.804
172.826
172.885
172.978
173.081
173.164
173.205
173.146
237.548
226.776
226.918
227.021
226.985
226.776
226.413
225.917
225.338
224.721
224.126
223.578
223.04
222.191
221.297
220.577
220.104
219.876
219.816
219.832
219.894
219.959
219.974
219.933
219.816
219.645
219.454
219.264
219.078
218.888
218.679
218.444
218.183
217.899
217.593
217.263
216.907
216.522
216.108
215.661
215.182
214.669
214.118
213.522
212.877
212.183
211.437
210.636
209.777
208.858
207.877
206.825
205.697
204.491
203.213
201.912
200.516
199.179
197.797
196.464
195.161
193.884
192.644
191.434
190.234
189.013
187.844
186.736
185.688
184.708
183.82
183.04
182.373
181.808
181.311
180.864
180.433
180.02
179.623
179.246
178.883
178.528
178.185
177.852
177.545
177.26
176.994
176.735
176.487
176.248
176.019
175.799
175.59
175.387
175.194
175.008
174.83
174.658
174.491
174.33
174.177
174.032
173.894
173.763
173.638
173.515
173.39
173.257
173.116
172.977
172.853
172.767
172.723
172.714
172.734
172.791
172.885
172.993
173.076
173.118
173.061
237.479
226.773
226.913
227.013
226.978
226.763
226.392
225.885
225.299
224.683
224.1
223.572
223.058
222.23
221.34
220.61
220.117
219.87
219.801
219.811
219.871
219.943
219.963
219.928
219.818
219.647
219.453
219.26
219.073
218.883
218.675
218.44
218.179
217.895
217.589
217.259
216.903
216.518
216.103
215.656
215.176
214.662
214.109
213.511
212.864
212.168
211.42
210.618
209.759
208.839
207.857
206.804
205.675
204.472
203.202
201.907
200.575
199.212
197.894
196.546
195.243
193.973
192.733
191.513
190.309
189.132
187.949
186.787
185.687
184.693
183.832
183.092
182.449
181.878
181.357
180.878
180.422
179.998
179.595
179.215
178.848
178.494
178.159
177.844
177.551
177.263
176.979
176.7
176.437
176.185
175.949
175.724
175.51
175.304
175.107
174.918
174.739
174.565
174.4
174.242
174.093
173.95
173.814
173.687
173.566
173.447
173.326
173.197
173.059
172.922
172.799
172.713
172.67
172.664
172.687
172.751
172.85
172.962
173.049
173.092
173.033
237.406
226.772
226.908
227.006
226.97
226.749
226.369
225.852
225.258
224.644
224.074
223.567
223.077
222.27
221.386
220.645
220.133
219.867
219.786
219.79
219.848
219.925
219.95
219.922
219.82
219.65
219.453
219.258
219.069
218.878
218.67
218.437
218.176
217.892
217.587
217.256
216.9
216.514
216.099
215.651
215.171
214.656
214.102
213.502
212.854
212.156
211.408
210.605
209.746
208.828
207.844
206.791
205.663
204.468
203.22
201.911
200.635
199.281
197.971
196.674
195.385
194.126
192.892
191.666
190.436
189.206
187.978
186.807
185.739
184.785
183.934
183.173
182.496
181.897
181.361
180.885
180.446
180.036
179.632
179.241
178.863
178.497
178.15
177.818
177.504
177.197
176.908
176.636
176.384
176.142
175.912
175.69
175.478
175.275
175.081
174.895
174.716
174.545
174.382
174.228
174.079
173.935
173.798
173.669
173.547
173.426
173.301
173.168
173.025
172.882
172.752
172.658
172.61
172.6
172.62
172.679
172.773
172.883
172.967
173.01
172.953
237.329
226.77
226.904
226.999
226.962
226.735
226.346
225.817
225.215
224.604
224.048
223.561
223.095
222.311
221.432
220.683
220.151
219.865
219.771
219.769
219.825
219.907
219.936
219.916
219.822
219.654
219.454
219.255
219.064
218.873
218.666
218.433
218.173
217.889
217.584
217.254
216.897
216.511
216.096
215.648
215.167
214.652
214.097
213.496
212.848
212.149
211.4
210.598
209.74
208.821
207.838
206.786
205.663
204.476
203.242
201.978
200.676
199.398
198.082
196.824
195.566
194.322
193.091
191.857
190.599
189.323
188.098
186.939
185.857
184.866
183.981
183.207
182.541
181.961
181.437
180.956
180.493
180.049
179.619
179.208
178.814
178.444
178.101
177.782
177.481
177.187
176.909
176.639
176.381
176.13
175.89
175.66
175.442
175.235
175.035
174.843
174.658
174.481
174.314
174.154
173.998
173.849
173.709
173.577
173.453
173.33
173.205
173.072
172.929
172.786
172.656
172.563
172.516
172.508
172.53
172.591
172.688
172.801
172.889
172.938
172.885
237.247
226.768
226.899
226.992
226.954
226.721
226.321
225.78
225.171
224.563
224.021
223.555
223.114
222.352
221.48
220.723
220.172
219.864
219.755
219.747
219.8
219.887
219.922
219.909
219.824
219.657
219.455
219.253
219.06
218.869
218.663
218.43
218.169
217.886
217.581
217.251
216.894
216.509
216.093
215.646
215.165
214.649
214.093
213.492
212.842
212.144
211.397
210.596
209.74
208.823
207.841
206.79
205.672
204.496
203.279
202.06
200.766
199.504
198.235
196.95
195.702
194.464
193.227
191.981
190.729
189.477
188.226
187.022
185.909
184.923
184.069
183.325
182.662
182.056
181.495
180.976
180.487
180.045
179.619
179.212
178.823
178.464
178.126
177.795
177.472
177.155
176.857
176.574
176.309
176.056
175.817
175.589
175.374
175.168
174.971
174.78
174.597
174.424
174.26
174.101
173.947
173.801
173.664
173.536
173.415
173.295
173.172
173.04
172.898
172.754
172.624
172.528
172.474
172.461
172.477
172.533
172.624
172.733
172.817
172.862
172.804
237.161
226.767
226.895
226.985
226.945
226.706
226.295
225.742
225.126
224.521
223.995
223.549
223.131
222.393
221.529
220.765
220.196
219.865
219.74
219.724
219.775
219.865
219.907
219.901
219.825
219.661
219.456
219.251
219.057
218.865
218.659
218.426
218.166
217.884
217.579
217.249
216.893
216.507
216.092
215.644
215.163
214.647
214.092
213.491
212.842
212.145
211.398
210.599
209.744
208.828
207.848
206.801
205.692
204.532
203.337
202.116
200.894
199.608
198.372
197.105
195.862
194.63
193.393
192.134
190.85
189.56
188.3
187.116
186.043
185.083
184.219
183.439
182.735
182.101
181.531
181.025
180.549
180.1
179.652
179.228
178.827
178.452
178.092
177.74
177.408
177.104
176.823
176.556
176.303
176.056
175.819
175.589
175.37
175.159
174.956
174.761
174.574
174.395
174.222
174.054
173.894
173.743
173.602
173.469
173.342
173.218
173.089
172.953
172.808
172.661
172.525
172.423
172.364
172.349
172.366
172.425
172.521
172.636
172.726
172.775
172.723
237.069
226.765
226.891
226.979
226.936
226.69
226.267
225.702
225.079
224.478
223.967
223.543
223.149
222.433
221.579
220.809
220.222
219.867
219.726
219.702
219.748
219.841
219.892
219.894
219.825
219.665
219.458
219.25
219.054
218.861
218.655
218.423
218.163
217.881
217.577
217.248
216.891
216.507
216.091
215.644
215.164
214.648
214.093
213.493
212.845
212.149
211.404
210.606
209.753
208.839
207.861
206.821
205.724
204.582
203.405
202.192
200.992
199.756
198.505
197.303
196.084
194.864
193.627
192.358
191.055
189.752
188.494
187.307
186.207
185.207
184.312
183.521
182.826
182.21
181.644
181.109
180.59
180.098
179.631
179.21
178.813
178.439
178.078
177.733
177.411
177.106
176.815
176.533
176.266
176.007
175.759
175.521
175.295
175.078
174.871
174.674
174.487
174.308
174.135
173.969
173.814
173.669
173.531
173.401
173.277
173.155
173.031
172.899
172.759
172.615
172.48
172.38
172.325
172.313
172.332
172.39
172.484
172.597
172.685
172.731
172.672
236.974
226.764
226.887
226.973
226.927
226.674
226.238
225.66
225.03
224.434
223.939
223.537
223.165
222.474
221.63
220.855
220.251
219.873
219.713
219.681
219.721
219.816
219.876
219.885
219.824
219.668
219.46
219.25
219.051
218.858
218.652
218.419
218.159
217.878
217.575
217.246
216.891
216.506
216.092
215.645
215.165
214.65
214.096
213.496
212.85
212.155
211.412
210.617
209.766
208.854
207.881
206.85
205.767
204.641
203.485
202.315
201.096
199.911
198.683
197.474
196.271
195.054
193.806
192.523
191.219
189.915
188.638
187.427
186.316
185.331
184.465
183.694
182.989
182.333
181.715
181.138
180.605
180.131
179.683
179.263
178.852
178.454
178.071
177.709
177.369
177.052
176.76
176.485
176.225
175.971
175.727
175.492
175.269
175.053
174.85
174.655
174.47
174.29
174.117
173.952
173.797
173.647
173.503
173.366
173.236
173.109
172.981
172.845
172.7
172.55
172.41
172.304
172.241
172.222
172.235
172.288
172.38
172.496
172.587
172.636
172.581
236.872
226.763
226.883
226.967
226.917
226.656
226.207
225.615
224.979
224.389
223.911
223.531
223.181
222.515
221.682
220.904
220.283
219.881
219.701
219.659
219.694
219.788
219.858
219.875
219.821
219.672
219.464
219.25
219.049
218.855
218.649
218.416
218.156
217.875
217.573
217.245
216.89
216.507
216.093
215.647
215.168
214.654
214.101
213.502
212.857
212.165
211.424
210.631
209.782
208.875
207.908
206.887
205.818
204.712
203.583
202.437
201.254
200.046
198.87
197.648
196.446
195.227
193.973
192.678
191.356
190.043
188.779
187.601
186.528
185.554
184.666
183.852
183.1
182.409
181.785
181.226
180.695
180.19
179.705
179.258
178.828
178.422
178.042
177.693
177.365
177.061
176.775
176.495
176.223
175.956
175.702
175.458
175.227
175.005
174.795
174.594
174.402
174.214
174.035
173.866
173.707
173.552
173.405
173.267
173.138
173.014
172.891
172.76
172.618
172.471
172.333
172.227
172.166
172.151
172.169
172.23
172.33
172.452
172.547
172.598
172.542
236.766
226.76
226.878
226.96
226.906
226.638
226.174
225.569
224.927
224.343
223.883
223.525
223.197
222.556
221.735
220.955
220.319
219.892
219.69
219.638
219.667
219.76
219.839
219.862
219.816
219.676
219.469
219.251
219.047
218.852
218.646
218.413
218.153
217.873
217.571
217.244
216.891
216.509
216.095
215.65
215.172
214.659
214.107
213.511
212.867
212.177
211.439
210.649
209.803
208.9
207.942
206.933
205.881
204.798
203.686
202.545
201.412
200.215
199.036
197.872
196.685
195.474
194.221
192.924
191.602
190.293
189.03
187.841
186.738
185.728
184.809
183.978
183.231
182.558
181.928
181.321
180.739
180.203
179.715
179.281
178.86
178.458
178.073
177.71
177.365
177.04
176.732
176.435
176.153
175.885
175.633
175.393
175.165
174.946
174.739
174.54
174.35
174.165
173.991
173.827
173.669
173.516
173.372
173.237
173.111
172.989
172.864
172.729
172.583
172.428
172.281
172.166
172.1
172.081
172.096
172.153
172.249
172.367
172.46
172.509
172.45
236.653
226.756
226.873
226.954
226.894
226.617
226.139
225.52
224.873
224.296
223.855
223.519
223.212
222.598
221.789
221.008
220.357
219.906
219.68
219.617
219.639
219.729
219.817
219.848
219.811
219.682
219.475
219.252
219.046
218.85
218.643
218.41
218.151
217.87
217.569
217.244
216.892
216.511
216.099
215.654
215.177
214.666
214.116
213.521
212.88
212.192
211.457
210.67
209.828
208.931
207.982
206.988
205.956
204.891
203.795
202.673
201.538
200.41
199.227
198.081
196.914
195.702
194.435
193.121
191.786
190.47
189.201
188.006
186.907
185.915
185.02
184.199
183.437
182.712
182.018
181.375
180.8
180.288
179.794
179.325
178.874
178.45
178.049
177.678
177.335
177.017
176.715
176.425
176.15
175.887
175.635
175.39
175.155
174.927
174.712
174.506
174.31
174.121
173.942
173.769
173.602
173.442
173.293
173.153
173.022
172.894
172.765
172.626
172.476
172.318
172.172
172.06
171.998
171.982
172.002
172.063
172.165
172.292
172.392
172.447
172.394
236.533
226.754
226.871
226.949
226.88
226.594
226.102
225.469
224.817
224.249
223.827
223.513
223.227
222.639
221.843
221.063
220.4
219.924
219.673
219.596
219.61
219.696
219.794
219.832
219.805
219.687
219.482
219.255
219.045
218.848
218.64
218.407
218.149
217.868
217.568
217.244
216.893
216.513
216.102
215.659
215.184
214.675
214.126
213.533
212.894
212.209
211.477
210.693
209.857
208.968
208.03
207.052
206.038
204.991
203.917
202.821
201.696
200.575
199.445
198.274
197.102
195.883
194.605
193.284
191.951
190.648
189.407
188.251
187.183
186.193
185.272
184.41
183.592
182.82
182.123
181.504
180.914
180.349
179.813
179.323
178.873
178.466
178.077
177.711
177.364
177.026
176.706
176.399
176.111
175.835
175.574
175.32
175.078
174.847
174.63
174.425
174.232
174.047
173.871
173.697
173.532
173.375
173.23
173.093
172.965
172.841
172.716
172.582
172.436
172.282
172.137
172.022
171.953
171.931
171.944
171.999
172.095
172.217
172.313
172.364
172.304
236.405
226.753
226.873
226.948
226.865
226.568
226.061
225.415
224.76
224.2
223.799
223.507
223.241
222.679
221.898
221.12
220.445
219.945
219.668
219.575
219.581
219.662
219.769
219.815
219.798
219.692
219.49
219.259
219.045
218.846
218.638
218.406
218.147
217.867
217.567
217.244
216.895
216.517
216.107
215.665
215.192
214.684
214.137
213.547
212.911
212.229
211.5
210.72
209.89
209.01
208.086
207.123
206.127
205.1
204.047
202.973
201.889
200.748
199.645
198.514
197.343
196.125
194.854
193.546
192.226
190.934
189.697
188.53
187.436
186.415
185.465
184.579
183.759
183.009
182.302
181.617
180.97
180.394
179.874
179.398
178.942
178.508
178.093
177.706
177.338
176.99
176.669
176.37
176.089
175.819
175.562
175.311
175.072
174.842
174.624
174.415
174.218
174.028
173.843
173.664
173.493
173.331
173.178
173.033
172.897
172.768
172.639
172.501
172.352
172.193
172.039
171.913
171.837
171.812
171.826
171.883
171.983
172.109
172.211
172.269
172.216
236.273
226.759
226.878
226.949
226.849
226.538
226.018
225.359
224.701
224.151
223.771
223.501
223.255
222.719
221.954
221.178
220.494
219.971
219.666
219.555
219.551
219.627
219.741
219.798
219.79
219.696
219.498
219.263
219.045
218.844
218.636
218.405
218.146
217.866
217.567
217.245
216.897
216.52
216.112
215.672
215.2
214.695
214.15
213.562
212.929
212.25
211.525
210.751
209.928
209.059
208.149
207.202
206.223
205.216
204.181
203.125
202.063
200.969
199.845
198.752
197.598
196.382
195.102
193.781
192.454
191.157
189.913
188.745
187.661
186.657
185.72
184.84
184.01
183.209
182.432
181.712
181.081
180.51
179.959
179.44
178.95
178.504
178.095
177.718
177.356
177.012
176.69
176.382
176.09
175.806
175.535
175.274
175.026
174.787
174.56
174.343
174.138
173.943
173.756
173.579
173.411
173.251
173.098
172.955
172.823
172.697
172.571
172.437
172.292
172.135
171.983
171.861
171.789
171.767
171.78
171.833
171.927
172.048
172.144
172.197
172.135
236.138
226.767
226.886
226.951
226.833
226.506
225.971
225.301
224.639
224.102
223.743
223.496
223.268
222.759
222.009
221.239
220.546
220.001
219.667
219.535
219.522
219.591
219.711
219.779
219.781
219.698
219.507
219.269
219.047
218.842
218.635
218.404
218.146
217.866
217.567
217.246
216.9
216.524
216.117
215.679
215.21
214.706
214.164
213.579
212.949
212.274
211.553
210.786
209.972
209.114
208.218
207.288
206.328
205.339
204.32
203.279
202.224
201.181
200.081
198.952
197.797
196.573
195.283
193.96
192.643
191.374
190.175
189.048
187.987
186.98
186.021
185.101
184.211
183.355
182.577
181.886
181.22
180.583
179.998
179.49
179.016
178.579
178.155
177.744
177.356
176.995
176.659
176.344
176.048
175.762
175.491
175.233
174.99
174.757
174.536
174.324
174.122
173.929
173.747
173.574
173.407
173.242
173.083
172.934
172.795
172.661
172.525
172.383
172.23
172.068
171.91
171.779
171.696
171.665
171.671
171.717
171.808
171.932
172.033
172.089
172.032
236.004
226.779
226.896
226.952
226.816
226.471
225.921
225.239
224.576
224.051
223.716
223.491
223.28
222.798
222.066
221.3
220.602
220.035
219.671
219.517
219.493
219.554
219.677
219.759
219.771
219.698
219.515
219.277
219.049
218.842
218.634
218.405
218.147
217.867
217.568
217.248
216.903
216.528
216.123
215.687
215.22
214.719
214.179
213.597
212.971
212.3
211.585
210.825
210.021
209.176
208.295
207.382
206.439
205.465
204.464
203.444
202.415
201.367
200.318
199.193
198.029
196.802
195.523
194.221
192.927
191.682
190.493
189.361
188.279
187.245
186.257
185.311
184.41
183.577
182.793
182.028
181.31
180.684
180.12
179.595
179.086
178.609
178.153
177.738
177.362
177.017
176.689
176.37
176.065
175.77
175.492
175.227
174.978
174.739
174.511
174.29
174.078
173.877
173.688
173.507
173.329
173.154
172.989
172.837
172.696
172.56
172.426
172.288
172.143
171.986
171.831
171.699
171.617
171.588
171.601
171.652
171.747
171.872
171.972
172.027
171.964
235.872
226.793
226.904
226.953
226.798
226.434
225.867
225.175
224.511
224
223.69
223.486
223.292
222.837
222.122
221.363
220.66
220.075
219.68
219.5
219.464
219.517
219.64
219.737
219.758
219.697
219.525
219.287
219.053
218.842
218.635
218.406
218.149
217.868
217.57
217.25
216.906
216.533
216.13
215.696
215.232
214.733
214.196
213.617
212.994
212.329
211.62
210.869
210.076
209.245
208.379
207.482
206.554
205.596
204.615
203.621
202.615
201.581
200.533
199.458
198.299
197.077
195.802
194.503
193.213
191.956
190.754
189.622
188.551
187.53
186.548
185.607
184.706
183.832
182.965
182.163
181.465
180.821
180.205
179.639
179.115
178.652
178.215
177.813
177.422
177.044
176.686
176.34
176.014
175.711
175.431
175.168
174.92
174.681
174.453
174.231
174.021
173.823
173.636
173.455
173.277
173.106
172.949
172.803
172.664
172.528
172.393
172.254
172.104
171.939
171.773
171.631
171.54
171.505
171.508
171.55
171.636
171.758
171.858
171.914
171.854
235.739
226.806
226.909
226.952
226.779
226.394
225.811
225.108
224.444
223.949
223.663
223.482
223.303
222.875
222.178
221.427
220.721
220.119
219.694
219.486
219.436
219.479
219.6
219.711
219.743
219.693
219.535
219.297
219.058
218.843
218.636
218.409
218.152
217.871
217.572
217.253
216.909
216.538
216.137
215.706
215.244
214.748
214.214
213.638
213.02
212.36
211.659
210.918
210.137
209.32
208.469
207.588
206.675
205.736
204.774
203.796
202.81
201.82
200.759
199.67
198.509
197.287
196.009
194.715
193.444
192.223
191.07
189.971
188.917
187.892
186.888
185.909
184.955
184.023
183.168
182.387
181.631
180.916
180.29
179.744
179.224
178.732
178.264
177.831
177.417
177.031
176.669
176.328
176.013
175.725
175.454
175.189
174.933
174.684
174.444
174.213
173.996
173.79
173.594
173.401
173.217
173.043
172.881
172.726
172.575
172.43
172.289
172.146
171.994
171.831
171.671
171.533
171.443
171.407
171.413
171.459
171.551
171.678
171.783
171.843
171.782
235.599
226.817
226.912
226.949
226.759
226.352
225.751
225.038
224.376
223.896
223.637
223.478
223.314
222.913
222.234
221.491
220.786
220.168
219.713
219.474
219.409
219.44
219.557
219.683
219.725
219.688
219.545
219.309
219.064
218.846
218.638
218.411
218.155
217.874
217.576
217.257
216.914
216.544
216.145
215.717
215.257
214.764
214.233
213.662
213.049
212.395
211.703
210.972
210.204
209.401
208.566
207.7
206.805
205.883
204.937
203.975
203.007
202.031
201.003
199.888
198.726
197.507
196.241
194.969
193.727
192.55
191.414
190.314
189.241
188.189
187.161
186.154
185.18
184.273
183.424
182.581
181.781
181.09
180.454
179.847
179.277
178.761
178.295
177.877
177.47
177.073
176.693
176.345
176.029
175.728
175.437
175.15
174.876
174.613
174.367
174.136
173.923
173.718
173.521
173.33
173.151
172.982
172.821
172.662
172.509
172.368
172.235
172.101
171.957
171.798
171.635
171.488
171.385
171.341
171.341
171.38
171.467
171.592
171.695
171.753
171.689
235.448
226.827
226.914
226.943
226.737
226.307
225.687
224.966
224.308
223.844
223.61
223.474
223.325
222.95
222.29
221.556
220.852
220.221
219.739
219.467
219.383
219.402
219.51
219.652
219.706
219.681
219.554
219.321
219.071
218.849
218.64
218.415
218.159
217.879
217.58
217.261
216.919
216.551
216.155
215.729
215.272
214.782
214.254
213.687
213.08
212.434
211.75
211.031
210.276
209.488
208.668
207.819
206.941
206.037
205.11
204.168
203.211
202.237
201.236
200.155
199.006
197.792
196.538
195.282
194.052
192.854
191.71
190.618
189.552
188.511
187.489
186.485
185.517
184.574
183.629
182.765
182.001
181.261
180.557
179.922
179.363
178.869
178.391
177.927
177.483
177.062
176.683
176.35
176.037
175.723
175.419
175.126
174.854
174.598
174.362
174.138
173.923
173.711
173.507
173.31
173.126
172.948
172.772
172.599
172.439
172.295
172.16
172.023
171.871
171.701
171.526
171.374
171.273
171.235
171.241
171.288
171.383
171.517
171.629
171.694
171.635
235.284
226.835
226.917
226.936
226.712
226.257
225.619
224.892
224.238
223.791
223.583
223.47
223.336
222.988
222.345
221.621
220.92
220.28
219.77
219.464
219.358
219.362
219.462
219.617
219.685
219.673
219.56
219.334
219.08
218.854
218.643
218.418
218.164
217.884
217.586
217.267
216.926
216.56
216.165
215.742
215.288
214.801
214.278
213.716
213.115
212.476
211.803
211.095
210.354
209.58
208.777
207.944
207.083
206.198
205.291
204.368
203.429
202.471