/*--------------------------------*- C++ -*----------------------------------*\
| =========                 |                                                 |
| \\      /  F ield         | OpenFOAM: The Open Source CFD Toolbox           |
|  \\    /   O peration     | Version:  2406                                  |
|   \\  /    A nd           | Website:  www.openfoam.com                      |
|    \\/     M anipulation  |                                                 |
\*---------------------------------------------------------------------------*/
FoamFile
{
    version     2.0;
    format      ascii;
    arch        "LSB;label=32;scalar=64";
    class       volScalarField;
    location    "0.034";
    object      p;
}
// * * * * * * * * * * * * * * * * * * * * * * * * * * * * * * * * * * * * * //

dimensions      [1 -1 -2 0 0 0 0];

internalField   nonuniform List<scalar> 
78650
(
3028.54
2828.39
2831.33
2837.78
2844.44
2847.32
2846.24
2841.95
2835.46
2828.35
2820.7
2812.86
2806.74
2803.95
2804.06
2806.77
2810.59
2812.38
2811.36
2807.85
2802.42
2795.84
2789.05
2782.56
2776.45
2770.52
2764.68
2758.99
2753.57
2748.44
2743.61
2739.02
2734.64
2730.44
2726.43
2722.61
2719
2715.55
2712.26
2709.1
2706.07
2703.16
2700.35
2697.63
2694.95
2692.29
2689.58
2686.8
2683.91
2680.91
2677.75
2674.42
2670.88
2667.09
2663
2658.56
2653.73
2648.46
2642.7
2636.37
2629.4
2621.72
2613.27
2604
2593.85
2582.75
2570.62
2557.36
2542.87
2527.06
2509.81
2491.13
2470.97
2449.27
2425.98
2401.01
2374.29
2345.87
2315.65
2283.62
2249.8
2214.31
2177
2138
2097.19
2054.71
2011.22
1966.93
1921.77
1876.05
1829.74
1783.41
1737.86
1693.25
1648.72
1604.91
1563.39
1524.56
1488.22
1453.51
1419.56
1386.55
1355.49
1325.77
1298.95
1273.85
1250.6
1228.06
1206.31
1186.02
1167.17
1149.52
1132.97
1117.94
1104.54
1092.57
1081.53
1071.33
1061.9
1054.49
1039
3012.98
2812.88
2808.22
2810.9
2818.53
2825.93
2829.76
2830.15
2827.72
2823.38
2817.79
2811.28
2805.26
2801.36
2800.28
2801.74
2805.44
2808.56
2809.46
2807.61
2803.37
2797.72
2791.38
2785.08
2779.16
2773.47
2767.9
2762.42
2757.17
2752.2
2747.55
2743.17
2739.01
2735.06
2731.3
2727.74
2724.4
2721.25
2718.26
2715.42
2712.73
2710.17
2707.72
2705.38
2703.11
2700.87
2698.62
2696.32
2693.94
2691.46
2688.87
2686.13
2683.21
2680.09
2676.71
2673.04
2669.01
2664.59
2659.74
2654.39
2648.47
2641.9
2634.63
2626.61
2617.78
2608.09
2597.46
2585.78
2572.96
2558.91
2543.54
2526.83
2508.7
2489.04
2467.81
2444.92
2420.34
2394.13
2366.17
2336.36
2304.68
2271.13
2235.73
2198.86
2160.49
2120.83
2079.67
2036.5
1991.83
1946.98
1902.39
1857.68
1812.84
1768.27
1724.92
1682.5
1640.58
1598.78
1557.6
1517.64
1480.04
1444.26
1410.69
1378.1
1346.89
1318.11
1291.48
1266.5
1243.46
1221.86
1201.52
1182.1
1163.77
1146.91
1131.38
1116.59
1102.53
1089.09
1076.98
1066.31
1046.71
3009.18
2808.07
2795.68
2791.78
2795.37
2801.91
2808.23
2812.11
2813.49
2812.94
2811.05
2807.53
2802.84
2798.63
2796.56
2796.69
2799.23
2803.22
2805.62
2805.72
2803.25
2798.57
2792.95
2787.01
2781.32
2775.92
2770.72
2765.59
2760.57
2755.77
2751.29
2747.12
2743.2
2739.5
2736.01
2732.73
2729.68
2726.83
2724.16
2721.66
2719.31
2717.11
2715.04
2713.09
2711.24
2709.43
2707.65
2705.83
2703.96
2702.02
2699.99
2697.84
2695.55
2693.08
2690.41
2687.47
2684.24
2680.66
2676.69
2672.28
2667.36
2661.86
2655.73
2648.9
2641.33
2632.96
2623.72
2613.53
2602.29
2589.93
2576.31
2561.4
2545.13
2527.44
2508.31
2487.62
2465.28
2441.3
2415.58
2388.08
2358.81
2327.77
2294.9
2260.33
2223.82
2185.67
2145.85
2104.83
2062.58
2019.37
1975.18
1930.54
1885.29
1839.99
1795.06
1750.48
1706.68
1662.97
1620.14
1577.83
1536.88
1497.28
1460.09
1425.71
1393.65
1363.61
1335.02
1307.78
1282.59
1258.42
1235.74
1214.29
1194.61
1176.28
1159.21
1143.24
1128.37
1114.48
1101.9
1090.64
1066.85
3007.01
2808.41
2794.19
2786.12
2784.05
2784.88
2787.49
2790.86
2794.22
2797.3
2799.18
2799.32
2797.56
2794.73
2792.48
2791.71
2792.65
2795.87
2799.64
2801.56
2801.25
2798.4
2793.58
2788.19
2782.75
2777.62
2772.85
2768.23
2763.63
2759.12
2754.84
2750.86
2747.18
2743.75
2740.54
2737.55
2734.8
2732.26
2729.93
2727.76
2725.77
2723.93
2722.24
2720.69
2719.24
2717.88
2716.55
2715.21
2713.85
2712.43
2710.95
2709.39
2707.71
2705.89
2703.9
2701.69
2699.23
2696.46
2693.36
2689.86
2685.93
2681.48
2676.46
2670.81
2664.48
2657.44
2649.61
2640.91
2631.27
2620.58
2608.74
2595.71
2581.41
2565.76
2548.72
2530.15
2509.99
2488.26
2464.87
2439.77
2412.88
2384.09
2353.36
2320.83
2286.53
2250.73
2213.22
2174.12
2133.28
2090.62
2046.26
2000.93
1955.14
1908.99
1863.09
1817.43
1772.05
1727.52
1684.64
1642.82
1601.22
1560.64
1520.81
1483.39
1446.93
1412.55
1380.12
1349.7
1322
1295.41
1270.46
1246.99
1225.42
1205.07
1185.93
1168.32
1152.4
1137.84
1125.04
1113.83
1093.83
3006.96
2810.95
2795.48
2786
2781.97
2779.53
2777.66
2776.55
2777
2779.29
2782.58
2785.8
2787.62
2787.67
2786.74
2785.99
2786.03
2787.43
2790.79
2794.53
2796.47
2795.97
2793.11
2788.52
2783.27
2778.34
2773.86
2769.73
2765.75
2761.83
2757.96
2754.27
2750.87
2747.73
2744.84
2742.18
2739.76
2737.57
2735.58
2733.79
2732.17
2730.72
2729.42
2728.28
2727.26
2726.35
2725.49
2724.65
2723.8
2722.91
2721.99
2721.01
2719.94
2718.76
2717.45
2715.96
2714.26
2712.29
2710.04
2707.44
2704.45
2701.02
2697.07
2692.56
2687.43
2681.65
2675.14
2667.85
2659.7
2650.59
2640.44
2629.17
2616.7
2602.97
2587.94
2571.52
2553.6
2534.18
2513.11
2490.38
2465.96
2439.73
2411.67
2381.79
2350.02
2316.43
2280.92
2243.82
2205.01
2165.03
2123.86
2081.18
2037.58
1992.69
1947.33
1901.44
1855.84
1809.93
1764.58
1720.29
1675.56
1631.97
1589.42
1549.03
1509.08
1470.02
1433.11
1398.28
1366.1
1335.69
1307.47
1280.88
1255.96
1231.8
1208.69
1187.39
1168.22
1150.61
1134.76
1121.07
1093.04
3005.77
2815.95
2799.13
2787.61
2782.38
2779.18
2776.27
2773.08
2770.07
2768.51
2769.01
2771.21
2774.09
2776.52
2777.78
2778.02
2778.06
2778.45
2780.2
2783.74
2787.75
2790.04
2789.93
2787.43
2783.21
2778.46
2774.02
2770.08
2766.56
2763.37
2760.22
2757.11
2754.11
2751.33
2748.8
2746.51
2744.46
2742.64
2741.04
2739.63
2738.41
2737.35
2736.47
2735.76
2735.18
2734.71
2734.33
2733.98
2733.64
2733.3
2732.93
2732.52
2732.06
2731.52
2730.87
2730.08
2729.12
2727.94
2726.52
2724.8
2722.74
2720.29
2717.4
2714
2710.06
2705.53
2700.34
2694.46
2687.81
2680.3
2671.83
2662.35
2651.76
2640.01
2627.03
2612.72
2596.99
2579.8
2561.07
2540.76
2518.79
2494.97
2469.26
2441.71
2412.29
2381.08
2348.03
2313.25
2276.49
2238.12
2197.81
2156.12
2112.97
2068.46
2023.29
1976.96
1930.95
1885.2
1839.93
1794.74
1749.56
1704.1
1660.74
1618.58
1578.32
1538.82
1500.8
1464.3
1430.2
1398.17
1368.35
1339.28
1311.78
1285.21
1260.43
1237.36
1215.93
1195.6
1177.48
1160.8
1126.03
3002.64
2822.17
2804.98
2791.55
2784.49
2780.26
2776.86
2773.2
2769.43
2766.36
2764.44
2763.62
2764
2765.44
2767.16
2768.33
2768.7
2768.61
2768.96
2770.86
2774.7
2779.18
2782.13
2782.69
2781.06
2777.66
2773.68
2769.9
2766.59
2763.74
2761.25
2758.93
2756.6
2754.33
2752.25
2750.4
2748.78
2747.39
2746.23
2745.26
2744.48
2743.86
2743.41
2743.15
2743.04
2743.05
2743.16
2743.33
2743.52
2743.72
2743.91
2744.09
2744.24
2744.33
2744.35
2744.26
2744.03
2743.63
2743.03
2742.17
2741
2739.52
2737.65
2735.32
2732.51
2729.17
2725.24
2720.69
2715.44
2709.42
2702.53
2694.73
2685.9
2676
2664.96
2652.7
2639.15
2624.25
2607.86
2589.96
2570.46
2549.26
2526.35
2501.69
2475.15
2446.71
2416.3
2383.96
2349.7
2313.81
2276
2236.85
2196
2153.72
2109.92
2064.15
2017.19
1970.52
1923.81
1877.07
1831.25
1784.39
1738.51
1693.11
1649.41
1606.54
1565.03
1524.34
1485.99
1450.65
1417.77
1385.89
1355.6
1326.92
1301.03
1277.16
1254.37
1232.59
1213.58
1197.87
1168.94
2995.83
2828.36
2811.5
2796.77
2788.36
2783.27
2779.34
2775.22
2770.85
2767.01
2764.23
2762.37
2761.28
2760.81
2760.85
2761.15
2761.17
2760.57
2759.63
2759.36
2760.9
2764.71
2769.5
2773.17
2774.73
2774.05
2771.85
2768.94
2766.03
2763.48
2761.37
2759.6
2758.07
2756.53
2755.06
2753.76
2752.64
2751.74
2751.04
2750.55
2750.24
2750.1
2750.12
2750.33
2750.7
2751.21
2751.82
2752.5
2753.23
2753.98
2754.75
2755.51
2756.26
2756.98
2757.65
2758.26
2758.75
2759.09
2759.27
2759.27
2758.98
2758.45
2757.57
2756.3
2754.61
2752.44
2749.75
2746.52
2742.67
2738.14
2732.85
2726.72
2719.67
2711.64
2702.58
2692.37
2680.96
2668.25
2654.16
2638.66
2621.65
2603.01
2582.68
2560.58
2536.61
2510.82
2483.21
2453.75
2422.37
2389.14
2353.93
2317.11
2278.26
2238
2196.11
2153.03
2108.91
2063.59
2017.37
1969.93
1923.52
1876.2
1828.75
1781.36
1734.95
1689.29
1644.01
1599.48
1556.17
1515.45
1477.1
1440.46
1406.05
1373.3
1343.01
1314.63
1287.33
1260.39
1234.92
1213.59
1171.28
2985.27
2833.59
2817.79
2802.15
2792.94
2787.62
2783.74
2779.68
2774.93
2770.12
2766.16
2763.37
2761.46
2760.23
2759.57
2759.23
2758.77
2757.73
2755.89
2753.77
2752.59
2753.44
2756.34
2760.7
2764.56
2766.74
2767.05
2766
2764.25
2762.44
2760.84
2759.54
2758.53
2757.76
2757.03
2756.36
2755.81
2755.47
2755.33
2755.39
2755.62
2756.01
2756.57
2757.28
2758.17
2759.2
2760.35
2761.58
2762.87
2764.2
2765.54
2766.9
2768.27
2769.62
2770.95
2772.23
2773.44
2774.54
2775.5
2776.29
2776.89
2777.23
2777.33
2777.08
2776.46
2775.43
2773.93
2771.94
2769.39
2766.24
2762.44
2757.88
2752.49
2746.22
2738.99
2730.74
2721.39
2710.88
2699.09
2685.98
2671.45
2655.39
2637.77
2618.45
2597.32
2574.38
2549.54
2522.7
2493.86
2463.06
2430.26
2395.7
2359.03
2320.72
2280.45
2238.87
2195.73
2151
2104.88
2056.95
2009.65
1963.39
1916.04
1869.4
1823.17
1778.76
1734.82
1690.67
1646.47
1603.5
1562.79
1523.8
1487.52
1452.3
1418.82
1387.11
1357.81
1329.95
1302.91
1277.84
1228.02
2971.86
2838.08
2823.96
2807.45
2797.56
2792.34
2788.99
2785.55
2781.01
2775.71
2770.72
2766.71
2763.7
2761.6
2760.33
2759.55
2758.82
2757.6
2755.52
2752.76
2750.21
2748.81
2748.98
2750.82
2754.08
2757.58
2759.88
2760.79
2760.7
2760.1
2759.38
2758.75
2758.3
2758.08
2758.03
2758.09
2758.26
2758.59
2759.09
2759.76
2760.57
2761.54
2762.65
2763.92
2765.34
2766.92
2768.62
2770.41
2772.27
2774.17
2776.1
2778.05
2780.02
2782
2783.98
2785.93
2787.84
2789.67
2791.39
2792.99
2794.43
2795.66
2796.66
2797.38
2797.8
2797.89
2797.55
2796.81
2795.59
2793.8
2791.46
2788.46
2784.72
2780.2
2774.82
2768.51
2761.21
2752.82
2743.24
2732.44
2720.32
2706.79
2691.77
2675.12
2656.77
2636.78
2615.03
2591.42
2565.94
2538.53
2509.15
2477.85
2444.39
2409.05
2371.64
2332.74
2291.86
2249.46
2205.28
2159.71
2113.25
2066.19
2016.89
1967.09
1916.13
1866.91
1818.93
1771.61
1723.7
1676.46
1631.28
1588.31
1548.27
1509.88
1472.54
1437.26
1405.13
1376.77
1351.92
1330.02
1284.48
2956.23
2841.73
2830.02
2812.97
2802.34
2797
2794.09
2791.33
2787.39
2782.23
2776.88
2772.23
2768.48
2765.54
2763.41
2761.94
2760.68
2759.1
2756.75
2753.64
2750.35
2747.73
2746.65
2746.59
2747.8
2750.24
2752.9
2755.01
2756.24
2756.79
2756.99
2757.04
2757.28
2757.75
2758.43
2759.26
2760.16
2761.18
2762.33
2763.63
2765.08
2766.65
2768.36
2770.22
2772.22
2774.37
2776.64
2779.02
2781.47
2783.96
2786.49
2789.05
2791.64
2794.25
2796.88
2799.5
2802.09
2804.64
2807.12
2809.5
2811.75
2813.84
2815.75
2817.43
2818.83
2819.93
2820.7
2821.09
2821.14
2820.63
2819.68
2818.14
2815.92
2813.04
2809.37
2804.89
2799.52
2793.18
2785.78
2777.29
2767.58
2756.58
2744.21
2730.35
2714.93
2697.92
2679.11
2658.43
2635.86
2611.33
2584.8
2556.29
2525.72
2493.29
2458.78
2422.41
2383.85
2343.85
2302.14
2258.87
2213.97
2167.67
2120.96
2072.83
2024.07
1975.05
1927.2
1879.34
1831.13
1781.81
1733.44
1685.79
1640.47
1597.12
1554.74
1514.25
1475.23
1438.31
1405.31
1375.3
1314.36
2938.95
2844.3
2835.82
2819.06
2807.53
2801.5
2798.54
2796.17
2792.87
2788.29
2783.24
2778.68
2774.89
2771.71
2769.08
2766.99
2765.14
2763.07
2760.31
2756.66
2752.48
2748.78
2746.37
2745.5
2745.69
2746.74
2748.7
2750.93
2752.75
2754.05
2754.98
2755.72
2756.53
2757.62
2758.89
2760.28
2761.78
2763.42
2765.21
2767.14
2769.21
2771.41
2773.73
2776.18
2778.77
2781.5
2784.35
2787.32
2790.35
2793.44
2796.56
2799.72
2802.92
2806.15
2809.41
2812.68
2815.95
2819.2
2822.4
2825.53
2828.57
2831.49
2834.26
2836.85
2839.22
2841.35
2843.2
2844.71
2845.88
2846.67
2847.03
2846.98
2846.26
2845.01
2843.04
2840.35
2836.87
2832.51
2827.21
2820.9
2813.48
2804.89
2795.04
2783.79
2771.08
2756.83
2740.91
2723.31
2703.98
2682.78
2659.63
2634.49
2607.32
2578.18
2546.76
2513.17
2477.42
2440.27
2401.14
2359.95
2316.29
2271.2
2225.14
2178.23
2130.23
2080.26
2031.09
1981.96
1934.18
1884.65
1836.22
1787.15
1739.62
1694.46
1650.68
1608.59
1568.55
1530.3
1496.13
1467.29
1414.02
2920.89
2845.59
2840.87
2825.6
2812.91
2805.67
2802.28
2800.13
2797.5
2793.74
2789.33
2785.21
2781.82
2778.91
2776.3
2773.98
2771.74
2769.22
2766.06
2762.05
2757.28
2752.32
2748.31
2746.14
2745.51
2745.74
2747.06
2748.94
2750.99
2752.85
2754.36
2755.66
2756.83
2758.09
2759.64
2761.42
2763.41
2765.57
2767.91
2770.43
2773.1
2775.89
2778.81
2781.85
2785.03
2788.34
2791.78
2795.33
2798.96
2802.64
2806.37
2810.13
2813.94
2817.79
2821.68
2825.59
2829.52
2833.46
2837.37
2841.24
2845.04
2848.76
2852.37
2855.83
2859.12
2862.21
2865.06
2867.66
2869.96
2871.93
2873.52
2874.69
2875.42
2875.65
2875.29
2874.29
2872.6
2870.1
2866.81
2862.61
2857.43
2851.22
2843.87
2835.26
2825.34
2814.02
2801.16
2786.78
2770.71
2752.8
2732.99
2711.26
2687.6
2661.96
2634.05
2603.98
2571.87
2538.04
2501.85
2463.36
2422.39
2380
2336.26
2291.07
2243.86
2194.72
2143.73
2092.92
2043.27
1992.23
1940.47
1886.81
1833.78
1783.1
1733.61
1686.33
1639.61
1594.85
1551.69
1514.14
1441.43
2903.05
2845.98
2844.7
2832.04
2818.06
2809.5
2805.65
2803.73
2801.82
2798.99
2795.29
2791.61
2788.61
2786.11
2783.78
2781.54
2779.21
2776.46
2773.05
2768.85
2763.9
2758.43
2753.11
2749.02
2746.9
2746.45
2746.89
2748.38
2750.52
2752.8
2754.87
2756.56
2758.01
2759.48
2761.18
2763.18
2765.46
2767.99
2770.77
2773.76
2776.95
2780.28
2783.74
2787.34
2791.07
2794.93
2798.93
2803.04
2807.25
2811.51
2815.82
2820.18
2824.57
2829.02
2833.51
2838.05
2842.61
2847.2
2851.78
2856.36
2860.89
2865.37
2869.77
2874.06
2878.23
2882.24
2886.06
2889.68
2893.05
2896.15
2898.96
2901.43
2903.5
2905.12
2906.25
2906.85
2906.95
2906.25
2904.91
2902.74
2899.66
2895.69
2890.69
2884.59
2877.3
2868.7
2858.7
2847.28
2834.26
2819.53
2803.07
2784.8
2764.64
2742.47
2718.15
2691.78
2663.32
2632.79
2599.87
2564.97
2527.9
2489.05
2448.22
2405.81
2361.42
2315.04
2266.91
2217.76
2168.75
2120.53
2071.22
2020.37
1968.45
1917.49
1866.65
1817.74
1769.06
1722.54
1678.42
1637.12
1558.7
2886.03
2845.93
2846.88
2837.54
2822.81
2813.3
2809.09
2807.41
2806.18
2804.25
2801.25
2797.85
2795
2792.72
2790.64
2788.6
2786.39
2783.67
2780.19
2775.97
2771.11
2765.71
2760.04
2754.77
2750.85
2748.84
2748.39
2749
2750.75
2753.16
2755.76
2758.12
2760.1
2761.87
2763.71
2765.81
2768.22
2770.96
2774.01
2777.36
2780.94
2784.72
2788.65
2792.74
2796.97
2801.35
2805.87
2810.52
2815.27
2820.09
2824.97
2829.89
2834.86
2839.89
2844.97
2850.11
2855.29
2860.51
2865.75
2871
2876.23
2881.44
2886.6
2891.69
2896.68
2901.56
2906.3
2910.88
2915.26
2919.42
2923.33
2926.97
2930.29
2933.25
2935.8
2937.87
2939.45
2940.48
2940.91
2940.71
2939.65
2937.86
2935.12
2931.43
2926.66
2920.73
2913.56
2905.09
2895.16
2883.71
2870.68
2855.91
2839.31
2820.81
2800.34
2777.85
2753.09
2726
2696.71
2665.66
2632.31
2596.46
2557.89
2517.42
2475.04
2430.83
2384.34
2336.1
2286.7
2236.64
2186.31
2135.01
2081.36
2027.08
1973.38
1918.83
1867.58
1817.31
1771.47
1731.34
1652.64
2869.68
2845.09
2847.9
2842.25
2827.91
2817.5
2812.85
2811.29
2810.57
2809.43
2807.07
2803.81
2800.89
2798.65
2796.74
2794.91
2792.91
2790.34
2786.95
2782.79
2778.08
2772.96
2767.54
2762.09
2757.2
2753.66
2751.83
2751.46
2752.14
2754.14
2756.97
2759.98
2762.68
2764.99
2767.14
2769.38
2771.86
2774.67
2777.85
2781.4
2785.27
2789.38
2793.69
2798.18
2802.84
2807.67
2812.65
2817.79
2823.04
2828.38
2833.78
2839.24
2844.76
2850.33
2855.97
2861.67
2867.43
2873.24
2879.1
2884.98
2890.88
2896.77
2902.64
2908.47
2914.24
2919.93
2925.53
2931
2936.33
2941.49
2946.46
2951.21
2955.71
2959.92
2963.8
2967.3
2970.4
2973.02
2975.1
2976.61
2977.48
2977.74
2977.14
2975.75
2973.42
2969.98
2965.52
2959.86
2952.9
2944.6
2934.84
2923.45
2910.34
2895.47
2878.76
2860.07
2839.15
2816.06
2791
2764.12
2734.75
2702.72
2668
2631.44
2593.18
2553.21
2510.82
2466.09
2419.12
2370.89
2321.7
2271.75
2220.87
2168.1
2115.36
2059.79
2005.54
1948.91
1895.24
1845.28
1754.88
2853.65
2843.79
2848.68
2846.24
2833.48
2822
2816.76
2815.13
2814.77
2814.22
2812.43
2809.3
2806.3
2804.11
2802.38
2800.76
2798.95
2796.52
2793.22
2789.13
2784.55
2779.67
2774.61
2769.51
2764.61
2760.36
2757.32
2755.81
2755.56
2756.42
2758.76
2762.04
2765.41
2768.4
2771.07
2773.63
2776.25
2779.12
2782.34
2785.98
2790
2794.34
2798.93
2803.75
2808.76
2813.96
2819.35
2824.91
2830.61
2836.42
2842.31
2848.26
2854.28
2860.37
2866.54
2872.77
2879.08
2885.46
2891.89
2898.38
2904.9
2911.43
2917.98
2924.51
2931.01
2937.46
2943.86
2950.17
2956.38
2962.46
2968.4
2974.18
2979.76
2985.12
2990.21
2995.01
2999.46
3003.54
3007.2
3010.38
3013
3015.03
3016.42
3017.11
3017.17
3016.08
3014.21
3011.21
3007.06
3001.74
2995.08
2986.97
2977.34
2966.1
2953.14
2938.33
2921.52
2902.71
2881.85
2858.82
2833.32
2805.5
2775.29
2742.99
2708.52
2671.92
2632.66
2590.78
2546.25
2500.09
2452.5
2404.07
2354.15
2302.96
2250.28
2196.68
2142.54
2087.26
2033.38
1984.02
1894.85
2838.11
2842.86
2850.26
2849.35
2838.77
2826.49
2820.56
2818.72
2818.55
2818.37
2817.14
2814.35
2811.47
2809.43
2807.91
2806.46
2804.74
2802.34
2799.04
2794.99
2790.5
2785.77
2780.97
2776.28
2771.8
2767.65
2764.12
2761.68
2760.56
2760.48
2761.67
2764.53
2768.22
2771.84
2775.13
2778.18
2781.11
2784.12
2787.39
2791.06
2795.16
2799.64
2804.43
2809.48
2814.77
2820.28
2826.01
2831.93
2838.01
2844.24
2850.56
2856.96
2863.44
2870
2876.64
2883.37
2890.19
2897.08
2904.05
2911.09
2918.18
2925.32
2932.48
2939.65
2946.82
2953.98
2961.11
2968.19
2975.21
2982.14
2988.98
2995.7
3002.28
3008.7
3014.93
3020.92
3026.64
3032.07
3037.16
3041.87
3046.13
3049.92
3053.17
3055.78
3057.76
3059.01
3059.5
3059.09
3057.62
3055.17
3051.47
3046.55
3040.25
3032.47
3023.1
3012.05
2999.22
2984.46
2967.55
2948.43
2927.17
2903.98
2878.43
2850.38
2819.65
2786.58
2751.14
2713.36
2673.07
2630.59
2585.96
2540
2492.19
2443.2
2392.15
2340
2286.35
2233.65
2175.82
2123.21
2032.02
2825.92
2840.99
2850.88
2851.22
2843.4
2830.88
2824.08
2821.92
2821.84
2821.94
2821.31
2819.15
2816.6
2814.78
2813.45
2812.08
2810.34
2807.84
2804.45
2800.39
2795.98
2791.37
2786.73
2782.29
2778.23
2774.54
2771.18
2768.39
2766.57
2765.84
2766.03
2767.82
2771.29
2775.26
2779.09
2782.73
2786.13
2789.42
2792.82
2796.54
2800.68
2805.24
2810.16
2815.39
2820.89
2826.65
2832.65
2838.87
2845.28
2851.86
2858.56
2865.36
2872.25
2879.24
2886.32
2893.5
2900.78
2908.15
2915.61
2923.16
2930.78
2938.47
2946.2
2953.97
2961.76
2969.57
2977.37
2985.16
2992.93
3000.65
3008.3
3015.89
3023.38
3030.76
3038
3045.07
3051.94
3058.58
3064.97
3071.06
3076.8
3082.15
3087.06
3091.5
3095.41
3098.68
3101.26
3103.1
3104.12
3104.37
3103.42
3101.53
3098.39
3093.87
3088.03
3080.68
3071.74
3061.02
3048.34
3033.68
3017.09
2998.52
2977.49
2953.88
2927.6
2899.08
2868.35
2835.37
2799.83
2761.59
2720.75
2677.82
2632.75
2586.21
2537.32
2486.98
2434.35
2380.68
2325.54
2270.8
2182.68
2817.07
2837.67
2850.35
2852.54
2847.34
2835.02
2827.26
2824.78
2824.75
2825.27
2825.23
2823.81
2821.66
2820.06
2818.85
2817.51
2815.66
2812.97
2809.44
2805.36
2801.02
2796.53
2792
2787.71
2783.94
2780.68
2777.78
2775.15
2773.06
2771.84
2771.49
2772.14
2774.86
2778.81
2782.98
2787.13
2791.07
2794.77
2798.42
2802.26
2806.45
2811.07
2816.08
2821.44
2827.1
2833.05
2839.27
2845.74
2852.43
2859.31
2866.33
2873.48
2880.74
2888.1
2895.57
2903.15
2910.84
2918.65
2926.56
2934.57
2942.67
2950.85
2959.1
2967.41
2975.76
2984.15
2992.56
3000.99
3009.43
3017.85
3026.24
3034.6
3042.91
3051.16
3059.32
3067.36
3075.27
3083.01
3090.57
3097.91
3104.98
3111.75
3118.18
3124.23
3129.86
3135
3139.59
3143.57
3146.82
3149.35
3151.04
3151.87
3151.87
3150.35
3147.91
3144
3138.65
3131.74
3123.11
3112.67
3100.3
3085.87
3069.14
3050.18
3028.81
3005.18
2979.08
2950.57
2919.34
2885.34
2848.68
2809.52
2768.17
2724.92
2679.38
2632.4
2582.64
2532.47
2478.37
2424.99
2342.93
2810.45
2833.73
2849.37
2853.77
2850.54
2838.5
2830.1
2827.39
2827.52
2828.64
2829.1
2828.24
2826.51
2825.08
2823.97
2822.6
2820.58
2817.67
2813.98
2809.87
2805.62
2801.24
2796.83
2792.64
2789.03
2786.09
2783.62
2781.39
2779.45
2777.99
2777.34
2777.37
2779.05
2782.6
2786.83
2791.35
2795.81
2799.99
2804
2808.04
2812.34
2817.02
2822.11
2827.56
2833.35
2839.46
2845.85
2852.52
2859.44
2866.57
2873.88
2881.33
2888.9
2896.59
2904.4
2912.34
2920.41
2928.6
2936.91
2945.33
2953.86
2962.5
2971.21
2980.01
2988.87
2997.78
3006.75
3015.75
3024.79
3033.84
3042.9
3051.96
3061
3070.02
3079
3087.91
3096.74
3105.46
3114.05
3122.49
3130.75
3138.78
3146.55
3154.04
3161.2
3167.98
3174.33
3180.19
3185.52
3190.23
3194.27
3197.49
3199.94
3201.44
3202.01
3201.41
3199.52
3196.39
3191.7
3185.45
3177.39
3167.45
3155.57
3141.7
3125.5
3106.87
3085.55
3061.77
3035.28
3006.22
2974.45
2939.93
2902.95
2863.4
2821.68
2777.63
2731.04
2682.69
2630.75
2576.6
2499.72
2805.64
2829.91
2848.45
2854.94
2852.72
2841.35
2832.76
2829.92
2830.27
2832.03
2832.91
2832.38
2831.01
2829.74
2828.69
2827.26
2825.02
2821.86
2818.02
2813.89
2809.71
2805.45
2801.16
2797.07
2793.57
2790.83
2788.7
2786.89
2785.28
2783.92
2783.13
2782.91
2783.8
2786.72
2790.76
2795.44
2800.31
2804.99
2809.4
2813.73
2818.21
2822.99
2828.16
2833.7
2839.59
2845.83
2852.37
2859.21
2866.32
2873.67
2881.21
2888.91
2896.75
2904.73
2912.84
2921.1
2929.49
2938.02
2946.68
2955.47
2964.39
2973.42
2982.55
2991.77
3001.08
3010.46
3019.92
3029.43
3039
3048.61
3058.26
3067.93
3077.62
3087.32
3097.01
3106.69
3116.32
3125.9
3135.4
3144.81
3154.1
3163.24
3172.2
3180.95
3189.46
3197.69
3205.6
3213.14
3220.25
3226.89
3233
3238.52
3243.39
3247.47
3250.72
3253.06
3254.39
3254.75
3253.61
3251.21
3247.2
3241.44
3234.03
3224.66
3213.12
3199.26
3182.92
3164.23
3142.88
3119.03
3092.26
3062.67
3030.24
2994.86
2957.06
2916.26
2873.3
2827.76
2779.93
2727.17
2657.67
2802.37
2826.65
2847.78
2855.73
2854.17
2843.81
2835.21
2832.33
2832.93
2835.35
2836.59
2836.25
2835.17
2834.03
2833.02
2831.45
2828.9
2825.46
2821.48
2817.33
2813.2
2809.05
2804.87
2800.88
2797.48
2794.9
2793.02
2791.58
2790.34
2789.28
2788.57
2788.32
2788.84
2791.11
2794.79
2799.46
2804.61
2809.71
2814.56
2819.24
2823.95
2828.88
2834.14
2839.78
2845.77
2852.12
2858.79
2865.77
2873.05
2880.57
2888.31
2896.23
2904.3
2912.53
2920.9
2929.42
2938.1
2946.93
2955.9
2965.01
2974.26
2983.64
2993.14
3002.74
3012.45
3022.24
3032.12
3042.08
3052.12
3062.22
3072.38
3082.59
3092.85
3103.14
3113.46
3123.8
3134.14
3144.46
3154.76
3165.01
3175.19
3185.29
3195.27
3205.11
3214.79
3224.27
3233.53
3242.51
3251.18
3259.5
3267.4
3274.86
3281.81
3288.17
3293.88
3298.85
3302.96
3306.19
3308.37
3309.48
3309.6
3307.84
3304.99
3300.22
3293.66
3285.17
3274.49
3261.54
3245.98
3227.9
3206.81
3182.95
3155.95
3126.01
3093.11
3056.79
3017.64
2974.83
2929.27
2877.97
2810.55
2800.33
2824.22
2847.24
2856.28
2855.23
2845.76
2837.41
2834.59
2835.48
2838.54
2840.1
2839.89
2839.04
2838.01
2836.93
2835.08
2832.14
2828.4
2824.27
2820.09
2815.99
2811.91
2807.84
2803.98
2800.71
2798.29
2796.62
2795.49
2794.62
2793.93
2793.47
2793.35
2793.85
2795.64
2798.92
2803.45
2808.74
2814.19
2819.45
2824.5
2829.49
2834.61
2840.01
2845.74
2851.83
2858.28
2865.07
2872.18
2879.6
2887.28
2895.19
2903.29
2911.57
2920
2928.59
2937.35
2946.27
2955.36
2964.6
2973.99
2983.53
2993.22
3003.03
3012.97
3023.02
3033.17
3043.42
3053.77
3064.21
3074.74
3085.35
3096.03
3106.77
3117.58
3128.44
3139.35
3150.29
3161.25
3172.22
3183.18
3194.14
3205.05
3215.9
3226.67
3237.34
3247.89
3258.29
3268.51
3278.51
3288.25
3297.71
3306.84
3315.58
3323.9
3331.73
3339
3345.65
3351.6
3356.78
3360.99
3364.31
3366.41
3367.39
3367.02
3364.77
3361.08
3355.32
3347.41
3337.13
3324.37
3308.76
3290.42
3268.79
3244.27
3216.3
3184.94
3150.16
3111.27
3069.4
3021.33
2958.61
2799.34
2822.8
2847.02
2856.75
2856.03
2847.21
2839.28
2836.71
2837.93
2841.64
2843.44
2843.33
2842.65
2841.63
2840.31
2838.02
2834.63
2830.6
2826.32
2822.1
2818.01
2814.01
2810.07
2806.36
2803.28
2801.04
2799.62
2798.74
2798.21
2797.91
2797.78
2797.93
2798.56
2800.13
2803.08
2807.43
2812.75
2818.45
2824.08
2829.49
2834.78
2840.13
2845.68
2851.54
2857.73
2864.28
2871.18
2878.41
2885.95
2893.76
2901.82
2910.08
2918.52
2927.14
2935.92
2944.88
2954.02
2963.32
2972.79
2982.43
2992.22
3002.17
3012.26
3022.48
3032.83
3043.29
3053.87
3064.55
3075.35
3086.24
3097.23
3108.31
3119.47
3130.72
3142.04
3153.44
3164.89
3176.4
3187.94
3199.51
3211.11
3222.71
3234.3
3245.86
3257.36
3268.81
3280.17
3291.42
3302.54
3313.48
3324.23
3334.75
3345.01
3354.97
3364.57
3373.77
3382.5
3390.72
3398.36
3405.32
3411.53
3416.85
3421.19
3424.49
3426.56
3427.4
3426.68
3424.1
3419.83
3413.32
3404.45
3393.04
3378.53
3361.11
3339.85
3315.14
3285.62
3251.05
3211.98
3165.79
3105.1
2799.12
2822.5
2847.17
2857.24
2856.65
2848.2
2840.84
2838.71
2840.37
2844.72
2846.64
2846.56
2845.91
2844.74
2842.98
2840.15
2836.3
2832
2827.6
2823.35
2819.29
2815.4
2811.61
2808.1
2805.26
2803.28
2802.12
2801.5
2801.27
2801.34
2801.59
2802.07
2802.92
2804.48
2807.22
2811.39
2816.69
2822.56
2828.49
2834.23
2839.83
2845.42
2851.15
2857.14
2863.46
2870.11
2877.12
2884.45
2892.11
2900.05
2908.23
2916.63
2925.22
2933.99
2942.94
2952.07
2961.38
2970.88
2980.55
2990.39
3000.4
3010.58
3020.91
3031.38
3041.98
3052.71
3063.56
3074.54
3085.63
3096.84
3108.16
3119.58
3131.11
3142.73
3154.45
3166.26
3178.15
3190.11
3202.14
3214.23
3226.37
3238.55
3250.75
3262.96
3275.16
3287.35
3299.51
3311.62
3323.66
3335.59
3347.41
3359.08
3370.59
3381.9
3392.97
3403.76
3414.24
3424.36
3434.06
3443.3
3452
3460.1
3467.52
3474.16
3479.88
3484.58
3488.16
3490.38
3491.3
3490.35
3487.32
3482.16
3474.32
3463.77
3449.86
3432.88
3410.78
3383.77
3349.76
3308.27
3251.39
2799.38
2823.1
2847.75
2857.75
2857.07
2848.78
2842.13
2840.61
2842.94
2847.83
2849.72
2849.53
2848.67
2847.07
2844.73
2841.33
2837.11
2832.57
2828.06
2823.84
2819.92
2816.2
2812.6
2809.35
2806.8
2805.15
2804.26
2803.93
2803.96
2804.38
2804.97
2805.8
2806.92
2808.61
2811.28
2815.31
2820.56
2826.53
2832.69
2838.73
2844.61
2850.45
2856.37
2862.51
2868.94
2875.71
2882.82
2890.27
2898.03
2906.08
2914.39
2922.91
2931.63
2940.54
2949.63
2958.92
2968.39
2978.05
2987.9
2997.92
3008.13
3018.5
3029.03
3039.72
3050.54
3061.51
3072.6
3083.83
3095.18
3106.66
3118.26
3129.98
3141.81
3153.76
3165.81
3177.98
3190.24
3202.6
3215.04
3227.56
3240.16
3252.82
3265.54
3278.3
3291.08
3303.89
3316.71
3329.53
3342.32
3355.07
3367.76
3380.38
3392.9
3405.3
3417.56
3429.64
3441.52
3453.17
3464.54
3475.6
3486.29
3496.57
3506.36
3515.6
3524.21
3532.09
3539.13
3545.2
3550.24
3554.05
3556.5
3557.5
3556.58
3553.35
3547.82
3539.52
3527.07
3510.38
3485.02
3454.17
3407.47
2800.38
2824.84
2848.92
2858.29
2857.32
2849.01
2843.2
2842.47
2845.77
2850.93
2852.64
2852.19
2850.79
2848.51
2845.53
2841.6
2837.07
2832.35
2827.8
2823.68
2819.94
2816.44
2813.12
2810.19
2808
2806.72
2806.15
2806.07
2806.44
2807.11
2808.01
2809.18
2810.61
2812.48
2815.2
2819.17
2824.39
2830.43
2836.77
2843.05
2849.19
2855.25
2861.37
2867.66
2874.22
2881.1
2888.32
2895.87
2903.74
2911.9
2920.31
2928.94
2937.78
2946.81
2956.03
2965.45
2975.06
2984.87
2994.87
3005.05
3015.42
3025.97
3036.69
3047.56
3058.58
3069.75
3081.05
3092.5
3104.08
3115.8
3127.64
3139.62
3151.72
3163.95
3176.3
3188.77
3201.35
3214.04
3226.84
3239.73
3252.72
3265.79
3278.95
3292.17
3305.45
3318.77
3332.14
3345.55
3358.97
3372.39
3385.79
3399.18
3412.53
3425.82
3439.04
3452.16
3465.16
3478.02
3490.71
3503.21
3515.48
3527.47
3539.16
3550.49
3561.43
3571.91
3581.87
3591.22
3599.87
3607.71
3614.55
3620.28
3624.74
3627.59
3628.91
3628.18
3624.74
3618.23
3605.05
3588.9
3559.97
2802.28
2827.47
2850.35
2858.74
2857.36
2849.07
2844.18
2844.33
2848.86
2853.92
2855.21
2854.34
2852.13
2849.11
2845.54
2841.07
2836.03
2831.1
2826.7
2822.87
2819.46
2816.27
2813.25
2810.72
2808.97
2808.06
2807.83
2808.08
2808.75
2809.61
2810.79
2812.29
2814.01
2816.11
2818.93
2822.91
2828.11
2834.21
2840.69
2847.17
2853.54
2859.82
2866.12
2872.56
2879.26
2886.26
2893.59
2901.25
2909.22
2917.48
2926
2934.74
2943.68
2952.82
2962.16
2971.7
2981.44
2991.38
3001.51
3011.84
3022.36
3033.06
3043.94
3054.98
3066.17
3077.52
3089.01
3100.65
3112.43
3124.36
3136.43
3148.63
3160.97
3173.45
3186.06
3198.8
3211.67
3224.66
3237.76
3250.98
3264.3
3277.74
3291.27
3304.88
3318.57
3332.34
3346.18
3360.07
3374.01
3387.98
3401.97
3415.98
3430
3444
3457.99
3471.93
3485.81
3499.62
3513.34
3526.94
3540.42
3553.73
3566.85
3579.75
3592.4
3604.75
3616.74
3628.34
3639.48
3650.1
3660.13
3669.49
3678.04
3685.64
3692.14
3697.41
3701.29
3703.15
3702.18
3697.68
3688.85
2805.15
2830.84
2851.93
2859.01
2857.19
2849.19
2845.2
2846.26
2852
2856.66
2857.21
2855.64
2852.63
2849
2844.58
2839.33
2834.06
2829.29
2825.21
2821.71
2818.61
2815.73
2813.11
2811
2809.73
2809.25
2809.35
2810.01
2810.9
2811.95
2813.4
2815.18
2817.18
2819.51
2822.5
2826.54
2831.77
2837.91
2844.48
2851.13
2857.68
2864.15
2870.62
2877.21
2884.04
2891.16
2898.6
2906.37
2914.45
2922.81
2931.42
2940.26
2949.3
2958.54
2967.98
2977.64
2987.49
2997.55
3007.81
3018.27
3028.92
3039.77
3050.79
3061.97
3073.32
3084.83
3096.49
3108.3
3120.26
3132.37
3144.63
3157.04
3169.59
3182.29
3195.12
3208.1
3221.22
3234.47
3247.84
3261.34
3274.97
3288.71
3302.57
3316.53
3330.58
3344.72
3358.95
3373.26
3387.63
3402.06
3416.54
3431.05
3445.6
3460.17
3474.75
3489.32
3503.88
3518.41
3532.89
3547.31
3561.66
3575.9
3590.02
3604
3617.8
3631.42
3644.8
3657.93
3670.72
3683.16
3695.17
3706.71
3717.66
3727.97
3737.49
3746.17
3753.76
3760.07
3765.05
3767.19
3769.82
2809.15
2834.72
2853.57
2859.04
2856.78
2849.48
2846.46
2848.56
2854.8
2858.72
2858.39
2855.99
2852.32
2847.71
2842.4
2836.88
2831.74
2827.25
2823.48
2820.29
2817.51
2814.98
2812.76
2811.18
2810.37
2810.31
2810.85
2811.84
2812.88
2814.13
2815.82
2817.86
2820.13
2822.7
2825.88
2830.03
2835.3
2841.5
2848.16
2854.94
2861.65
2868.27
2874.9
2881.63
2888.59
2895.82
2903.38
2911.25
2919.43
2927.89
2936.59
2945.52
2954.65
2963.99
2973.53
2983.28
2993.24
3003.41
3013.78
3024.35
3035.12
3046.09
3057.24
3068.56
3080.05
3091.7
3103.51