/*--------------------------------*- C++ -*----------------------------------*\
| =========                 |                                                 |
| \\      /  F ield         | OpenFOAM: The Open Source CFD Toolbox           |
|  \\    /   O peration     | Version:  2412                                  |
|   \\  /    A nd           | Website:  www.openfoam.com                      |
|    \\/     M anipulation  |                                                 |
\*---------------------------------------------------------------------------*/
FoamFile
{
    version     2.0;
    format      ascii;
    arch        "LSB;label=32;scalar=64";
    class       volScalarField;
    location    "0.034";
    object      p;
}
// * * * * * * * * * * * * * * * * * * * * * * * * * * * * * * * * * * * * * //

dimensions      [1 -1 -2 0 0 0 0];

internalField   nonuniform List<scalar> 
78650
(
2790
2790
2790
2790
2790
2790
2790
2790
2790
2790.12
2791.84
2800.49
2816.69
2829.62
2832.65
2831.65
2820.92
2803.87
2789.63
2779.98
2773.55
2768.62
2763.51
2757.79
2751.91
2746.55
2741.9
2737.69
2733.34
2728.58
2724.15
2721.59
2721.09
2722.63
2726.45
2730.7
2733.37
2734.17
2733.83
2732.58
2731.08
2729.86
2728.95
2728.19
2727.48
2726.8
2726.16
2725.59
2725.09
2724.67
2724.31
2723.98
2723.69
2723.43
2723.21
2723
2722.78
2722.5
2722.16
2721.72
2721.19
2720.53
2719.74
2718.77
2717.58
2716.13
2714.35
2712.2
2709.64
2706.63
2703.13
2699.06
2694.36
2688.94
2682.71
2675.58
2667.44
2658.2
2647.78
2636.08
2622.97
2608.33
2591.98
2573.75
2553.49
2531.07
2506.42
2479.33
2449.78
2417.41
2382.42
2343.92
2302.74
2257.88
2210.72
2160.26
2105.84
2047.31
1985.67
1921.9
1857.34
1792.91
1727.55
1663.07
1598.48
1538.3
1479.07
1420.46
1366.76
1313.16
1259.88
1210.11
1167.41
1131.18
1098.63
1067.35
1040.01
1015.18
994.559
978.053
942.258
2790
2790
2790
2790
2790
2790
2790
2790
2790
2790.06
2791.14
2797.97
2813.54
2828.3
2833.04
2833.21
2825.09
2808.64
2793.43
2782.99
2776.22
2771.42
2766.71
2761.38
2755.72
2750.4
2745.78
2741.71
2737.74
2733.39
2728.82
2725.29
2723.87
2724.29
2726.97
2731.3
2735.1
2736.97
2737.29
2736.72
2735.52
2734.35
2733.51
2732.88
2732.34
2731.85
2731.41
2731.03
2730.73
2730.52
2730.39
2730.3
2730.25
2730.25
2730.3
2730.37
2730.45
2730.49
2730.49
2730.41
2730.26
2730.02
2729.66
2729.15
2728.46
2727.55
2726.35
2724.83
2722.95
2720.66
2717.93
2714.7
2710.91
2706.48
2701.32
2695.36
2688.48
2680.6
2671.64
2661.51
2650.1
2637.26
2622.85
2606.71
2588.72
2568.74
2546.65
2522.19
2495.25
2465.51
2433.07
2397.25
2358.69
2316.5
2272.18
2224.42
2173.95
2120.91
2064.35
2005.27
1942.43
1879.02
1813.78
1749.46
1683.95
1617.55
1554.18
1490.26
1431.47
1375.46
1321.66
1270.9
1221.38
1176.68
1137.71
1101.86
1069.7
1039.15
1012.74
990.447
948.528
2790
2790
2790
2790
2790
2790
2790
2790
2790
2790.03
2790.67
2795.76
2810.09
2826.34
2833.17
2834.67
2828.91
2813.41
2797.26
2786.04
2778.97
2774.29
2769.99
2765.07
2759.67
2754.42
2749.78
2745.75
2742.02
2738.08
2733.74
2729.68
2727.27
2726.77
2728.1
2731.81
2736.26
2739.38
2740.6
2740.64
2739.99
2739.01
2738.22
2737.68
2737.3
2737.01
2736.76
2736.58
2736.49
2736.49
2736.59
2736.73
2736.93
2737.19
2737.5
2737.86
2738.24
2738.61
2738.94
2739.23
2739.46
2739.61
2739.68
2739.63
2739.43
2739.06
2738.44
2737.53
2736.3
2734.71
2732.74
2730.32
2727.41
2723.92
2719.79
2714.92
2709.24
2702.64
2695.05
2686.39
2676.54
2665.39
2652.81
2638.65
2622.76
2604.97
2585.13
2563.06
2538.72
2511.8
2482.2
2449.34
2413.74
2374.88
2333.57
2288.29
2239.95
2187.81
2132.57
2075.09
2014.71
1953.6
1890.05
1823.94
1758.56
1690.01
1624.64
1557.81
1492.72
1432.27
1372.98
1319.13
1267.1
1218.9
1175.42
1135.96
1101.46
1069.12
1039.54
1012.75
961.072
2790
2790
2790
2790
2790
2790
2790
2790
2790
2790.01
2790.36
2793.91
2806.43
2823.75
2833.09
2835.95
2832.22
2818.17
2801.36
2789.37
2781.97
2777.34
2773.4
2768.91
2763.79
2758.64
2753.96
2749.9
2746.25
2742.63
2738.7
2734.57
2731.31
2729.92
2730.17
2732.58
2736.94
2741.16
2743.66
2744.46
2744.37
2743.79
2743.12
2742.66
2742.4
2742.27
2742.24
2742.26
2742.36
2742.57
2742.88
2743.26
2743.7
2744.2
2744.78
2745.42
2746.09
2746.77
2747.43
2748.06
2748.66
2749.2
2749.68
2750.08
2750.35
2750.47
2750.41
2750.1
2749.51
2748.6
2747.34
2745.71
2743.63
2741.06
2737.91
2734.12
2729.59
2724.25
2718
2710.79
2702.51
2693.06
2682.3
2670.09
2656.27
2640.7
2623.25
2603.75
2582.09
2557.95
2531.28
2501.71
2469.59
2434.33
2396.23
2354.07
2308.79
2259.42
2206.95
2151.25
2091.97
2029.27
1965.27
1898.23
1832.06
1764.41
1695.95
1629.72
1562.04
1498.18
1434.96
1374.66
1317.19
1262.81
1211.88
1165.87
1126.73
1092.41
1064.36
1040.72
990.669
2790
2790
2790
2790
2790
2790
2790
2790
2790
2790
2790.18
2792.46
2802.76
2820.44
2832.64
2837.05
2834.64
2822.82
2805.86
2793.06
2785.23
2780.54
2776.91
2772.85
2768.05
2763.01
2758.31
2754.16
2750.49
2747.05
2743.52
2739.7
2736.07
2733.77
2733.17
2734.22
2737.7
2742.38
2746.18
2748.17
2748.73
2748.62
2748.2
2747.85
2747.7
2747.72
2747.88
2748.1
2748.41
2748.82
2749.34
2749.95
2750.63
2751.38
2752.22
2753.13
2754.1
2755.08
2756.07
2757.05
2758
2758.93
2759.82
2760.65
2761.39
2762.01
2762.47
2762.72
2762.76
2762.51
2761.97
2761.09
2759.82
2758.12
2755.91
2753.14
2749.72
2745.56
2740.59
2734.74
2727.92
2720.04
2710.96
2700.57
2688.72
2675.27
2660.06
2642.94
2623.81
2602.44
2578.74
2552.34
2523.38
2491.21
2456.02
2417
2375.12
2329.62
2281.4
2229.78
2174.88
2116.5
2054.97
1989.93
1921.97
1853.61
1782.42
1712.21
1641.54
1572.46
1505.91
1441.92
1381.41
1323.82
1267.58
1214.34
1164.78
1118.21
1080.09
1049.91
989.753
2790
2790
2790
2790
2790
2790
2790
2790
2790
2790
2790.08
2791.42
2799.3
2816.41
2831.44
2837.65
2836.42
2827.48
2810.94
2797.21
2788.79
2783.9
2780.53
2776.9
2772.43
2767.52
2762.79
2758.55
2754.81
2751.43
2748.2
2744.83
2741.33
2738.4
2737
2737.02
2739.01
2743.3
2748.01
2751.41
2753.03
2753.46
2753.41
2753.24
2753.2
2753.37
2753.68
2754.11
2754.62
2755.24
2755.97
2756.8
2757.72
2758.71
2759.8
2760.98
2762.23
2763.52
2764.82
2766.13
2767.44
2768.74
2770.02
2771.27
2772.46
2773.57
2774.55
2775.35
2775.96
2776.35
2776.48
2776.33
2775.86
2775.02
2773.7
2771.92
2769.55
2766.55
2762.83
2758.32
2752.94
2746.61
2739.22
2730.65
2720.76
2709.4
2696.44
2681.72
2665.13
2646.4
2625.44
2601.89
2575.76
2546.41
2514.07
2478.26
2439.69
2397.57
2352.3
2303.11
2250.49
2194.47
2134.63
2072.13
2005.56
1937.86
1867.72
1796.77
1723.87
1650.64
1579.48
1508.8
1441.75
1380.62
1323.02
1270.84
1223.06
1177.85
1134.24
1095.07
1021.13
2790
2790
2790
2790
2790
2790
2790
2790
2790
2790
2790.03
2790.74
2796.27
2811.8
2829.2
2837.76
2837.76
2831.96
2816.4
2801.71
2792.62
2787.41
2784.24
2780.99
2776.84
2772.05
2767.3
2762.99
2759.2
2755.82
2752.78
2749.84
2746.78
2743.75
2741.63
2740.89
2741.57
2744.62
2749.39
2753.96
2756.96
2758.33
2758.75
2758.84
2758.94
2759.21
2759.68
2760.3
2761.02
2761.84
2762.78
2763.84
2764.98
2766.22
2767.56
2769
2770.53
2772.12
2773.74
2775.38
2777.04
2778.7
2780.37
2782.03
2783.66
2785.24
2786.72
2788.07
2789.26
2790.26
2791.04
2791.58
2791.84
2791.83
2791.4
2790.57
2789.21
2787.3
2784.75
2781.49
2777.46
2772.58
2766.75
2759.86
2751.77
2742.37
2731.51
2719.04
2704.82
2688.66
2670.47
2649.93
2626.97
2601.09
2572.57
2540.99
2506.63
2468.57
2426.97
2381.08
2331.34
2277.81
2220.63
2159.75
2094.82
2026.82
1956.1
1884.05
1812.04
1736.9
1664.33
1589.22
1514.33
1441.88
1373.22
1310.04
1254.45
1206.07
1165.94
1132.32
1060.33
2790
2790
2790
2790
2790
2790
2790
2790
2790
2790
2790.01
2790.34
2793.86
2806.94
2825.69
2837.36
2838.97
2835.84
2822.02
2806.67
2796.84
2791.16
2787.99
2785.01
2781.14
2776.51
2771.8
2767.5
2763.73
2760.39
2757.45
2754.81
2752.25
2749.54
2747.09
2745.68
2745.48
2746.92
2750.82
2755.88
2760.22
2762.87
2764.08
2764.58
2764.88
2765.27
2765.86
2766.65
2767.57
2768.6
2769.76
2771.02
2772.4
2773.87
2775.45
2777.14
2778.95
2780.83
2782.76
2784.72
2786.71
2788.73
2790.78
2792.83
2794.89
2796.91
2798.88
2800.76
2802.5
2804.09
2805.51
2806.74
2807.71
2808.42
2808.84
2808.93
2808.56
2807.72
2806.31
2804.28
2801.56
2798.1
2793.8
2788.58
2782.29
2774.83
2766.06
2755.81
2743.97
2730.36
2714.88
2697.22
2677.3
2654.73
2629.68
2601.64
2570.65
2535.82
2497.43
2454.98
2408.96
2359.29
2305.92
2249.12
2188.48
2123.15
2055.23
1982.14
1910.25
1833.73
1757.74
1682.87
1608.15
1535.25
1461.85
1390.76
1321.79
1258.1
1201.83
1155.69
1063.18
2790
2790
2790
2790
2790
2790
2790
2790
2790
2790
2790
2790.14
2792.14
2802.24
2821.14
2836.08
2839.99
2838.71
2827.68
2812.23
2801.4
2794.98
2791.58
2788.78
2785.24
2780.9
2776.33
2772.11
2768.44
2765.18
2762.31
2759.84
2757.66
2755.45
2753.15
2751.29
2750.47
2750.75
2753.07
2757.61
2762.75
2766.81
2769.18
2770.35
2771
2771.55
2772.26
2773.18
2774.28
2775.52
2776.88
2778.36
2779.96
2781.66
2783.48
2785.43
2787.5
2789.66
2791.9
2794.18
2796.5
2798.87
2801.29
2803.73
2806.2
2808.67
2811.11
2813.49
2815.78
2817.94
2819.97
2821.84
2823.53
2825
2826.2
2827.1
2827.66
2827.83
2827.51
2826.65
2825.19
2823.04
2820.16
2816.46
2811.83
2806.15
2799.31
2791.15
2781.57
2770.39
2757.52
2742.66
2725.72
2706.32
2684.5
2659.69
2631.91
2600.49
2565.76
2527.26
2485.28
2439.53
2389.69
2335.78
2277.34
2214.93
2148.39
2077.75
2002.85
1926.88
1846.51
1768.88
1689.57
1613.03
1538.46
1468.6
1400.91
1338.94
1279.72
1226.36
1121.23
2790
2790
2790
2790
2790
2790
2790
2790
2790
2790
2790
2790.05
2791.05
2798.1
2815.71
2833.66
2840.32
2840.77
2833.28
2818.33
2806.09
2798.69
2794.96
2792.35
2789.26
2785.34
2781.03
2776.95
2773.39
2770.26
2767.47
2765.08
2763.12
2761.33
2759.47
2757.59
2756.3
2755.91
2756.71
2759.87
2764.88
2769.94
2773.66
2775.89
2777.14
2777.99
2778.83
2779.86
2781.11
2782.54
2784.11
2785.81
2787.62
2789.55
2791.6
2793.78
2796.11
2798.55
2801.08
2803.68
2806.32
2809.03
2811.8
2814.62
2817.48
2820.37
2823.27
2826.13
2828.94
2831.66
2834.27
2836.76
2839.11
2841.29
2843.27
2845.01
2846.45
2847.53
2848.23
2848.49
2848.26
2847.42
2845.95
2843.74
2840.73
2836.81
2831.87
2825.76
2818.37
2809.53
2799.12
2786.91
2772.81
2756.47
2737.88
2716.52
2692.48
2665.29
2635.21
2601.64
2564.55
2523.33
2477.79
2428.05
2373.61
2315.08
2252.02
2184.98
2111.96
2037.18
1955.49
1871.92
1788.84
1701.36
1616.89
1534.34
1455.9
1385.02
1323.93
1274.72
1171.59
2790
2790
2790
2790
2790
2790
2790
2790
2790
2790
2790
2790.02
2790.45
2794.84
2809.88
2829.88
2839.94
2842.6
2838.25
2824.47
2810.71
2802.39
2798.29
2795.85
2793.26
2789.87
2785.92
2781.99
2778.56
2775.58
2772.9
2770.57
2768.69
2767.18
2765.75
2764.2
2762.75
2761.93
2761.88
2763.32
2767.22
2772.5
2777.35
2780.88
2783.08
2784.47
2785.56
2786.72
2788.08
2789.66
2791.42
2793.33
2795.37
2797.52
2799.79
2802.21
2804.79
2807.5
2810.32
2813.22
2816.19
2819.22
2822.34
2825.53
2828.78
2832.08
2835.41
2838.75
2842.06
2845.31
2848.49
2851.58
2854.57
2857.43
2860.14
2862.65
2864.93
2866.94
2868.61
2869.88
2870.72
2871.09
2870.95
2870.14
2868.67
2866.33
2863.13
2858.91
2853.57
2846.95
2838.94
2829.34
2818.07
2804.8
2789.45
2771.57
2751.24
2728
2701.95
2672.34
2639.08
2601.54
2559.69
2513.55
2462.77
2407.84
2347.99
2284.07
2216.24
2142.91
2067.56
1986.49
1906.96
1821.42
1734.13
1649.93
1560.97
1477.15
1396.39
1328.18
1195.13
2790
2790
2790
2790
2790
2790
2790
2790
2790
2790
2790
2790
2790.17
2792.57
2804.18
2824.78
2838.96
2844.14
2841.81
2830.21
2815.6
2806.41
2801.78
2799.39
2797.26
2794.47
2790.96
2787.25
2783.93
2781.1
2778.58
2776.33
2774.47
2773.08
2771.94
2770.79
2769.54
2768.51
2768.04
2768.31
2770.53
2775.03
2780.34
2785.03
2788.47
2790.73
2792.31
2793.68
2795.15
2796.85
2798.77
2800.88
2803.14
2805.51
2808.01
2810.65
2813.47
2816.44
2819.54
2822.73
2826
2829.36
2832.8
2836.34
2839.96
2843.66
2847.4
2851.19
2854.97
2858.73
2862.45
2866.11
2869.71
2873.22
2876.62
2879.87
2882.95
2885.81
2888.41
2890.7
2892.63
2894.12
2895.16
2895.69
2895.74
2894.98
2893.52
2891.11
2887.74
2883.24
2877.51
2870.37
2861.72
2851.26
2838.91
2824.28
2807.4
2787.79
2765.44
2739.62
2710.31
2677
2639.78
2598.4
2552.42
2502.07
2446.4
2385.76
2319.49
2248.51
2172.69
2091.07
2004.18
1918.08
1829.41
1744.94
1657.23
1575.77
1499.06
1429.64
1291.29
2790
2790
2790
2790
2790
2790
2790
2790
2790
2790
2790
2790
2790.05
2791.2
2799.22
2818.68
2836.96
2844.72
2844.02
2835.76
2821.04
2810.71
2805.35
2802.88
2801.19
2799.06
2796.11
2792.67
2789.43
2786.72
2784.34
2782.18
2780.34
2778.96
2777.93
2777.1
2776.19
2775.28
2774.63
2774.4
2775.18
2778.23
2783.1
2788.43
2793.05
2796.47
2798.84
2800.64
2802.31
2804.11
2806.16
2808.44
2810.9
2813.5
2816.22
2819.09
2822.13
2825.35
2828.72
2832.2
2835.77
2839.44
2843.21
2847.08
2851.06
2855.14
2859.29
2863.5
2867.74
2871.99
2876.23
2880.44
2884.61
2888.74
2892.79
2896.75
2900.59
2904.25
2907.72
2910.94
2913.86
2916.45
2918.66
2920.41
2921.66
2922.38
2922.52
2921.82
2920.31
2917.79
2914.2
2909.39
2903.25
2895.54
2886.17
2874.77
2861.32
2845.35
2826.82
2805.17
2780.48
2752.25
2720.44
2684.55
2644.16
2599.17
2548.78
2493.52
2432.36
2366.12
2294.24
2217.21
2132.8
2044.02
1950.29
1848.09
1751.73
1653.6
1565.66
1491.89
1342.88
2790
2790
2790
2790
2790
2790
2790
2790
2790
2790
2790
2790
2790.02
2790.49
2795.42
2812.14
2833.31
2844.54
2845.57
2840.82
2826.77
2815.06
2808.98
2806.38
2805.12
2803.64
2801.31
2798.14
2794.94
2792.26
2789.98
2787.92
2786.11
2784.72
2783.73
2783.06
2782.47
2781.88
2781.33
2780.99
2781.08
2782.62
2786.32
2791.47
2796.85
2801.45
2804.89
2807.4
2809.44
2811.41
2813.57
2815.98
2818.62
2821.42
2824.36
2827.45
2830.72
2834.18
2837.8
2841.55
2845.42
2849.38
2853.46
2857.65
2861.97
2866.4
2870.94
2875.55
2880.22
2884.93
2889.66
2894.39
2899.11
2903.81
2908.49
2913.11
2917.65
2922.08
2926.36
2930.46
2934.33
2937.94
2941.24
2944.19
2946.75
2948.81
2950.33
2951.26
2951.53
2950.93
2949.41
2946.8
2943
2937.83
2931.21
2922.82
2912.6
2900.1
2885.31
2867.73
2847.42
2823.77
2796.64
2765.41
2729.73
2689.29
2643.5
2592.8
2536.25
2474.53
2406.72
2333.36
2254.84
2169.92
2084.43
1988.65
1891.35
1794.38
1691.49
1598.91
1420.47
2790
2790
2790
2790
2790
2790
2790
2790
2790
2790
2790
2790
2790
2790.18
2792.86
2805.89
2828.14
2843.46
2846.92
2844.76
2832.29
2819.45
2812.78
2809.97
2809.03
2808.06
2806.25
2803.36
2800.17
2797.5
2795.32
2793.37
2791.65
2790.28
2789.3
2788.72
2788.34
2788.08
2787.85
2787.64
2787.6
2788.23
2790.52
2794.78
2800.21
2805.64
2810.22
2813.7
2816.37
2818.66
2820.96
2823.48
2826.26
2829.26
2832.42
2835.73
2839.21
2842.9
2846.76
2850.78
2854.93
2859.18
2863.55
2868.06
2872.7
2877.48
2882.37
2887.37
2892.46
2897.61
2902.8
2908.02
2913.26
2918.51
2923.77
2929.01
2934.22
2939.36
2944.4
2949.32
2954.07
2958.62
2962.93
2966.97
2970.67
2974.02
2976.93
2979.3
2981.08
2982.19
2982.58
2982.07
2980.52
2977.81
2973.79
2968.26
2961.11
2951.94
2940.76
2927.06
2910.86
2891.49
2868.81
2842.19
2811.4
2776.08
2735.79
2690.55
2639.32
2582.44
2518.75
2449
2372.62
2289.95
2199.56
2105.87
2000.77
1903.31
1802.85
1719.06
1551.53
2790
2790
2790
2790
2790
2790
2790
2790
2790
2790
2790
2790
2790
2790.06
2791.36
2800.55
2822
2841.32
2847.83
2847.2
2837.53
2824.2
2816.77
2813.57
2812.7
2811.98
2810.65
2808.18
2805.12
2802.49
2800.42
2798.6
2796.99
2795.67
2794.74
2794.2
2793.96
2793.92
2794.06
2794.16
2794.31
2794.66
2795.91
2798.91
2803.68
2809.35
2814.81
2819.36
2822.89
2825.72
2828.28
2830.93
2833.83
2836.99
2840.34
2843.86
2847.56
2851.46
2855.56
2859.83
2864.24
2868.76
2873.42
2878.22
2883.17
2888.27
2893.5
2898.87
2904.33
2909.89
2915.52
2921.2
2926.92
2932.69
2938.49
2944.31
2950.13
2955.93
2961.69
2967.37
2972.94
2978.37
2983.63
2988.68
2993.48
2998
3002.18
3005.96
3009.26
3011.99
3014.06
3015.4
3015.95
3015.55
3013.96
3011.11
3006.79
3000.78
2993
2983
2970.72
2955.55
2937.45
2915.83
2890.57
2861.19
2827.22
2788.36
2743.73
2693.42
2636.25
2572.95
2502.21
2424.77
2339.53
2246.38
2148.37
2037.71
1922.06
1816.76
1622.16
2790
2790
2790
2790
2790
2790
2790
2790
2790
2790
2790
2790
2790
2790.02
2790.58
2796.48
2815.57
2838.05
2847.83
2848.95
2842.45
2829.23
2820.65
2816.85
2815.85
2815.34
2814.61
2812.74
2809.96
2807.37
2805.37
2803.66
2802.16
2800.93
2800.09
2799.62
2799.49
2799.6
2800.01
2800.45
2800.93
2801.42
2802.23
2804.14
2807.8
2813.03
2818.87
2824.32
2828.83
2832.41
2835.43
2838.3
2841.32
2844.6
2848.12
2851.84
2855.74
2859.85
2864.17
2868.68
2873.34
2878.13
2883.06
2888.13
2893.38
2898.78
2904.34
2910.05
2915.88
2921.82
2927.86
2933.97
2940.15
2946.4
2952.71
2959.07
2965.47
2971.89
2978.3
2984.68
2991.01
2997.25
3003.37
3009.36
3015.16
3020.75
3026.09
3031.12
3035.77
3039.98
3043.69
3046.78
3049.14
3050.72
3051.42
3051.14
3049.51
3046.51
3041.87
3035.33
3026.77
3015.7
3002.09
2985.35
2965.33
2941.36
2912.98
2879.7
2840.81
2796.24
2744.89
2687.16
2621.7
2549.49
2469.29
2381.92
2286.95
2188.37
2078.53
1977.25
1786.03
2790
2790
2790
2790
2790
2790
2790
2790
2790
2790
2790
2790
2790
2790
2790.23
2793.71
2809.48
2833.75
2847.05
2850.51
2846.74
2834.08
2824.15
2819.69
2818.64
2818.44
2818.37
2817.19
2814.75
2812.19
2810.21
2808.58
2807.22
2806.12
2805.42
2805.06
2805.04
2805.3
2805.84
2806.55
2807.39
2808.18
2809.01
2810.31
2812.88
2817.19
2822.82
2828.77
2834.17
2838.63
2842.27
2845.5
2848.69
2852.09
2855.75
2859.64
2863.73
2868.04
2872.57
2877.3
2882.2
2887.24
2892.42
2897.76
2903.27
2908.96
2914.82
2920.85
2927.01
2933.31
2939.72
2946.24
2952.84
2959.54
2966.31
2973.17
2980.1
2987.08
2994.09
3001.12
3008.14
3015.12
3022.05
3028.89
3035.61
3042.2
3048.61
3054.79
3060.7
3066.28
3071.45
3076.15
3080.3
3083.8
3086.49
3088.32
3089.19
3089.03
3087.31
3084.08
3079
3071.82
3062.42
3050.18
3034.95
3016
2992.99
2965.37
2932.55
2894.24
2849.38
2798.06
2738.9
2672.42
2596.87
2512.91
2419.55
2316.84
2207.43
2099.5
1913.62
2790
2790
2790
2790
2790
2790
2790
2790
2790
2790
2790
2790
2790
2790
2790.09
2792.02
2804.22
2828.75
2845.83
2851.95
2849.74
2838.19
2827.4
2822.45
2821.41
2821.55
2822
2821.4
2819.34
2816.85
2814.91
2813.39
2812.2
2811.28
2810.75
2810.54
2810.65
2811.08
2811.68
2812.56
2813.68
2814.82
2815.88
2817.03
2818.86
2822.13
2827.05
2833.01
2839.01
2844.32
2848.72
2852.44
2855.91
2859.45
2863.23
2867.26
2871.52
2876.01
2880.74
2885.68
2890.8
2896.08
2901.5
2907.08
2912.85
2918.82
2924.96
2931.28
2937.76
2944.39
2951.15
2958.04
2965.04
2972.14
2979.36
2986.68
2994.1
3001.6
3009.16
3016.78
3024.44
3032.1
3039.75
3047.37
3054.93
3062.41
3069.79
3077.01
3084.05
3090.85
3097.35
3103.49
3109.21
3114.41
3119.03
3122.95
3125.98
3128.08
3129.12
3129.07
3127.22
3123.73
3118.14
3110.14
3099.51
3085.64
3068.31
3046.88
3020.84
2989.68
2952.38
2908.69
2857.31
2798.52
2730.62
2653.79
2566.1
2468.47
2362.11
2249.09
2062.37
2790
2790
2790
2790
2790
2790
2790
2790
2790
2790
2790
2790
2790
2790
2790.03
2791.07
2800.09
2823.6
2844.4
2852.72
2851.63
2841.91
2830.56
2825.27
2824.16
2824.59
2825.48
2825.26
2823.62
2821.32
2819.48
2818.13
2817.15
2816.45
2816.09
2816.05
2816.32
2816.9
2817.57
2818.54
2819.82
2821.26
2822.63
2823.91
2825.43
2827.88
2831.89
2837.39
2843.6
2849.57
2854.73
2859.07
2862.91
2866.66
2870.56
2874.71
2879.12
2883.77
2888.68
2893.81
2899.15
2904.64
2910.28
2916.1
2922.11
2928.31
2934.72
2941.31
2948.08
2955.01
2962.1
2969.32
2976.68
2984.16
2991.78
2999.51
3007.38
3015.35
3023.42
3031.57
3039.8
3048.07
3056.38
3064.71
3073.03
3081.32
3089.56
3097.73
3105.79
3113.7
3121.4
3128.85
3135.99
3142.75
3149.06
3154.82
3159.94
3164.32
3167.72
3170.12
3171.33
3171.35
3169.3
3165.4
3159.12
3150.18
3138.24
3122.61
3102.79
3078.06
3047.5
3010.67
2966.32
2914.33
2853.22
2782.99
2701.91
2612.26
2508.64
2402.77
2232.28
2790
2790
2790
2790
2790
2790
2790
2790
2790
2790
2790
2790
2790
2790
2790.01
2790.57
2797.11
2818.81
2842.54
2853.07
2852.95
2845.15
2833.58
2827.99
2826.79
2827.4
2828.73
2828.8
2827.61
2825.62
2823.95
2822.83
2822.07
2821.61
2821.39
2821.49
2821.92
2822.61
2823.36
2824.4
2825.78
2827.43
2829.12
2830.68
2832.22
2834.23
2837.4
2842.18
2848.19
2854.52
2860.35
2865.34
2869.65
2873.66
2877.71
2881.98
2886.51
2891.31
2896.38
2901.69
2907.22
2912.91
2918.76
2924.79
2931.02
2937.45
2944.1
2950.94
2957.97
2965.19
2972.57
2980.11
2987.79
2995.62
3003.6
3011.72
3019.99
3028.39
3036.92
3045.56
3054.31
3063.14
3072.04
3081
3090
3099.02
3108.05
3117.06
3126.03
3134.92
3143.69
3152.3
3160.7
3168.84
3176.66
3184.06
3190.99
3197.33
3202.99
3207.87
3211.65
3214.35
3215.7
3215.73
3213.45
3209.11
3201.97
3191.64
3177.59
3159.13
3135.45
3105.95
3069.34
3025.38
2972.51
2909.76
2835.25
2748.4
2647.12
2536.63
2376.31
2790
2790
2790
2790
2790
2790
2790
2790
2790
2790
2790
2790
2790
2790
2790.01
2790.32
2795.11
2814.78
2840.38
2853.12
2854.03
2847.84
2836.34
2830.46
2829.17
2829.95
2831.78
2832.18
2831.37
2829.76
2828.35
2827.47
2826.92
2826.61
2826.49
2826.67
2827.23
2828.02
2828.88
2830
2831.48
2833.3
2835.28
2837.17
2838.93
2840.83
2843.46
2847.47
2852.99
2859.37
2865.67
2871.27
2876.09
2880.44
2884.68
2889.07
2893.71
2898.63
2903.85
2909.32
2915.02
2920.9
2926.95
2933.17
2939.6
2946.24
2953.11
2960.18
2967.46
2974.93
2982.57
2990.4
2998.38
3006.53
3014.83
3023.3
3031.93
3040.72
3049.66
3058.74
3067.94
3077.27
3086.7
3096.22
3105.83
3115.5
3125.22
3134.98
3144.75
3154.52
3164.24
3173.87
3183.39
3192.75
3201.9
3210.77
3219.31
3227.41
3235.02
3242
3248.26
3253.68
3257.87
3260.88
3262.38
3262.38
3259.65
3254.55
3246.19
3234.21
3217.82
3196.31
3168.33
3133.34
3089.45
3035.95
2970.95
2892.37
2801.06
2692.2
2543.73
2790
2790
2790
2790
2790
2790
2790
2790
2790
2790
2790
2790
2790
2790
2790
2790.2
2793.83
2811.69
2838.39
2853.06
2854.96
2849.98
2838.72
2832.61
2831.3
2832.36
2834.68
2835.45
2834.98
2833.74
2832.6
2831.94
2831.53
2831.3
2831.23
2831.47
2832.13
2833
2833.99
2835.25
2836.86
2838.84
2841.07
2843.3
2845.38
2847.4
2849.79
2853.2
2858.1
2864.27
2870.81
2876.91
2882.23
2886.96
2891.43
2895.95
2900.69
2905.73
2911.07
2916.69
2922.55
2928.6
2934.82
2941.22
2947.83
2954.67
2961.74
2969.02
2976.52
2984.21
2992.11
3000.18
3008.44
3016.87
3025.47
3034.25
3043.21
3052.35
3061.66
3071.12
3080.74
3090.51
3100.41
3110.44
3120.58
3130.83
3141.17
3151.59
3162.08
3172.61
3183.16
3193.7
3204.2
3214.63
3224.94
3235.09
3245.03
3254.67
3263.98
3272.83
3281.19
3288.88
3295.78
3301.75
3306.36
3309.68
3311.3
3311.2
3308.06
3302.17
3292.29
3277.98
3257.93
3231.47
3196.56
3152.5
3095.75
3024.07
2937.94
2831.94
2690.69
2790
2790
2790
2790
2790
2790
2790
2790
2790
2790
2790
2790
2790
2790
2790
2790.14
2793.09
2809.58
2836.88
2853.05
2855.79
2851.6
2840.64
2834.48
2833.23
2834.74
2837.53
2838.63
2838.42
2837.48
2836.6
2836.09
2835.79
2835.6
2835.58
2835.9
2836.64
2837.61
2838.76
2840.18
2841.93
2844.08
2846.52
2849.07
2851.49
2853.76
2856.14
2859.18
2863.51
2869.29
2875.87
2882.32
2888.11
2893.22
2897.95
2902.62
2907.48
2912.62
2918.07
2923.83
2929.83
2936.04
2942.41
2948.97
2955.75
2962.77
2970.02
2977.49
2985.19
2993.09
3001.2
3009.51
3018.01
3026.69
3035.57
3044.63
3053.89
3063.34
3072.97
3082.79
3092.78
3102.93
3113.25
3123.73
3134.34
3145.1
3155.98
3166.98
3178.09
3189.29
3200.57
3211.89
3223.24
3234.6
3245.92
3257.19
3268.34
3279.32
3290.1
3300.6
3310.76
3320.46
3329.62
3338.08
3345.69
3352.3
3357.42
3361.09
3362.83
3362.49
3358.48
3351.06
3338.71
3320.87
3295.52
3262.03
3215.96
3155.26
3077.24
2976.9
2842.23
2790
2790
2790
2790
2790
2790
2790
2790
2790
2790
2790
2790
2790
2790
2790
2790.12
2792.77
2808.46
2836.12
2853.15
2856.5
2852.72
2842.11
2836.12
2835.08
2837.15
2840.38
2841.7
2841.66
2840.93
2840.24
2839.87
2839.67
2839.58
2839.65
2840.08
2840.91
2842
2843.3
2844.87
2846.78
2849.08
2851.7
2854.48
2857.22
2859.78
2862.29
2865.18
2869.08
2874.44
2880.89
2887.56
2893.72
2899.2
2904.2
2909.05
2914.02
2919.26
2924.83
2930.71
2936.84
2943.19
2949.7
2956.41
2963.35
2970.52
2977.94
2985.59
2993.46
3001.56
3009.86
3018.38
3027.09
3036.01
3045.12
3054.44
3063.96
3073.69
3083.61
3093.74
3104.05
3114.56
3125.25
3136.11
3147.15
3158.35
3169.7
3181.21
3192.87
3204.66
3216.57
3228.58
3240.67
3252.83
3265.03
3277.24
3289.44
3301.58
3313.62
3325.52
3337.23
3348.66
3359.77
3370.38
3380.46
3389.78
3398.2
3405.5
3411.16
3415.2
3417.03
3416.28
3411.43
3402.47
3387.46
3365.92
3333.04
3285.95
3216.59
3122.97
2991.81
2790
2790
2790
2790
2790
2790
2790
2790
2790
2790
2790
2790
2790
2790
2790
2790.12
2792.72
2808.27
2836.11
2853.44
2857.09
2853.37
2843.18
2837.58
2836.9
2839.64
2843.24
2844.64
2844.64
2844.02
2843.51
2843.31
2843.25
2843.32
2843.53
2844.1
2845.06
2846.28
2847.71
2849.41
2851.46
2853.88
2856.64
2859.6
2862.59
2865.43
2868.15
2871.03
2874.68
2879.66
2885.91
2892.67
2899.13
2904.94
2910.21
2915.25
2920.34
2925.68
2931.35
2937.35
2943.61
2950.08
2956.73
2963.57
2970.65
2977.97
2985.53
2993.34
3001.38
3009.65
3018.14
3026.84
3035.75
3044.88
3054.21
3063.75
3073.51
3083.49
3093.68
3104.09
3114.7
3125.51
3136.53
3147.74
3159.15
3170.74
3182.52
3194.48
3206.61
3218.92
3231.38
3243.99
3256.72
3269.58
3282.53
3295.58
3308.67
3321.8
3334.93
3348.02
3361.05
3373.96
3386.7
3399.18
3411.33
3422.99
3434.1
3444.43
3453.81
3461.99
3468.4
3472.93
3474.91
3473.67
3467.13
3455.3
3434.64
3402.48
3346.88
3269.5
3143.61
2790
2790
2790
2790
2790
2790
2790
2790
2790
2790
2790
2790
2790
2790
2790
2790.13
2792.84
2808.88
2836.9
2854.05
2857.57
2853.61
2843.99
2838.93
2838.71
2842.21
2846.07
2847.42
2847.38
2846.85
2846.5
2846.45
2846.57
2846.87
2847.25
2847.99
2849.11
2850.46
2852
2853.82
2855.98
2858.5
2861.34
2864.42
2867.6
2870.69
2873.63
2876.61
2880.15
2884.85
2890.89
2897.67
2904.34
2910.44
2915.97
2921.19
2926.41
2931.86
2937.64
2943.74
2950.12
2956.71
2963.47
2970.45
2977.65
2985.11
2992.82
3000.77
3008.96
3017.38
3026.03
3034.91
3044
3053.31
3062.84
3072.59
3082.57
3092.78
3103.21
3113.86
3124.73
3135.83
3147.14
3158.67
3170.41
3182.35
3194.5
3206.86
3219.42
3232.18
3245.13
3258.27
3271.56
3285.02
3298.64
3312.39
3326.27
3340.25
3354.31
3368.42
3382.57
3396.74
3410.86
3424.9
3438.8
3452.45
3465.81
3478.7
3491.06
3502.62
3513.18
3522.34
3529.49
3534.37
3536.21
3533.99
3526.05
3509.44
3472.59
3420.2
3314.08
2790
2790
2790
2790
2790
2790
2790
2790
2790
2790
2790
2790
2790
2790
2790
2790.15
2793.28
2810.44
2838.55
2854.87
2857.88
2853.44
2844.59
2840.3
2840.55
2844.87
2848.84
2850.06
2849.93
2849.48
2849.25
2849.36
2849.72
2850.21
2850.79
2851.73
2853.02
2854.5
2856.15
2858.07
2860.32
2862.92
2865.84
2869
2872.3
2875.6
2878.75
2881.88
2885.41
2889.95
2895.8
2902.56
2909.39
2915.72
2921.47
2926.87
2932.23
2937.8
2943.69
2949.9
2956.39
2963.09
2969.97
2977.05
2984.38
2991.97
2999.81
3007.9
3016.23
3024.79
3033.59
3042.63
3051.89
3061.37
3071.09
3081.03
3091.21
3101.62
3112.27
3123.15
3134.27
3145.62
3157.2
3169.01
3181.05
3193.32
3205.81
3218.52
3231.46
3244.63
3258.02
3271.62
3285.42
3299.41
3313.6
3327.99
3342.54
3357.26
3372.13
3387.13
3402.25
3417.47
3432.78
3448.14
3463.5
3478.82
3494.05
3509.09
3523.88
3538.24
3552.06
3565.1
3577.18
3587.76
3596.28
3602.06
3604.43
3600.35
3583.06
3553.77
3488.21
2790
2790
2790
2790
2790
2790
2790
2790
2790
2790
2790
2790
2790
2790
2790
2790.21
2794.09
2812.88
2840.78
2855.8
2858.05
2852.96
2845
2841.7
2842.51
2847.63
2851.52
2852.52
2852.34
2851.94
2851.83
2852.1
2852.7
2853.35
2854.13
2855.28
2856.73
2858.34
2860.1
2862.12
2864.46
2867.13
2870.1
2873.32
2876.72
2880.17
2883.52
2886.81
2890.4
2894.88
2900.61
2907.34
2914.27
2920.8
2926.75
2932.31
2937.81
2943.49
2949.49
2955.82
2962.41
2969.21
2976.19
2983.39
2990.84
2998.54
3006.51
3014.72
3023.18
3031.88
3040.83
3050.01
3059.42
3069.07
3078.96
3089.08
3099.45
3110.06
3120.91
3132.01
3143.35
3154.93
3166.76
3178.84
3191.16
3203.72
3216.53
3229.57
3242.87
3256.41
3270.19
3284.22
3298.47
3312.95
3327.66
3342.61
3357.77
3373.14
3388.71
3404.48
3420.44
3436.58
3452.9
3469.37
3485.97
3502.68
3519.45
3536.24
3553.02
3569.68
3586.17
3602.32
3618
3632.9
3646.74
3658.88
3668.97
3675.65
3677.48
3666.1
3644.69
2790
2790
2790
2790
2790
2790
2790
2790
2790
2790
2790
2790
2790
2790
2790.01
2790.34
2795.38
2816.16
2843.41
2856.76
2858.07
2852.25
2845.28
2843.08
2844.77
2850.52
2854.13
2854.84
2854.62
2854.28
2854.29
2854.76
2855.54
2856.31
2857.29
2858.63
2860.24
2861.98
2863.85
2865.98
2868.42
2871.16
2874.18
2877.44
2880.9
2884.47
2887.98
2891.43
2895.12
2899.6
2905.28
2911.99
2919
2925.67
2931.79
2937.51
2943.14
2948.94
2955.06
2961.5
2968.19
2975.08
2982.16
2989.47
2997.02
3004.84
3012.92
3021.26
3029.84
3038.67
3047.74
3057.06
3066.62
3076.43
3086.47
3096.76
3107.3
3118.09
3129.13
3140.43
3151.98
3163.78
3175.85
3188.17
3200.75
3213.58
3226.67
3240.03
3253.64
3267.52
3281.67
3296.08
3310.74
3325.66
3340.84
3356.28
3371.97
3387.92
3404.11
3420.56
3437.24
3454.18
3471.35
3488.77
3506.4
3524.25
3542.29
3560.51
3578.87
3597.35
3615.88
3634.39
3652.79
3670.94
3688.67
3705.71
3721.71
3735.71
3747.26
3751.67
3756.66
2790
2790
2790
2790
2790
2790
2790
2790
2790
2790
2790
2790
2790
2790
2790.01
2790.56
2797.25
2820.19
2846.18
2857.65
2857.93
2851.41
2845.49
2844.45
2847.31
2853.47
2856.65
2857.05
2856.81
2856.55
2856.7
2857.38
2858.28
2859.16
2860.31
2861.83
2863.58
2865.43
2867.42
2869.67
2872.2
2875.02
2878.08
2881.37
2884.87
2888.52
2892.17
2895.77
2899.58
2904.11
2909.78
2916.49
2923.57
2930.36
2936.6
2942.45
2948.21
2954.14
2960.38
2966.92
2973.71
2980.69
2987.86
2995.27
3002.93
3010.86
3019.05
3027.49
3036.19
3045.14
3054.34
3063.79
3073.49
3083.44
3093.64
3104.09
3114.79
3125.76
3136.98
3148.47
3160.22
3172.23
3184.51
3197.07
3209.89
3222.98
3236.35
3249.99
3263.9
3278.11
3292.59
3307.36
3322.4
3337.71
3353.32
3369.21
3385.39
3401.85
3418.59
3435.62
3452.93
3470.54
3488.44
3506.65
3525.13
3543.91
3562.95
3582.28
3601.84
3621.67
3641.67
3661.85
3682.12
3702.42
3722.56
3742.36
3761.37
3779.44
3794.97
3806.78
3819.71
2790
2790
2790
2790
2790
2790
2790
2790
2790
2790
2790
2790
2790
2790
2790.03
2790.95
2799.83
2824.82
2848.81
2858.3
2857.66
2850.59
2845.77
2845.8
2850.06
2856.31
2859.02
2859.18
2858.93
2858.78
2859.12
2859.97
2860.95
2861.95
2863.26
2864.94
2866.8
2868.76
2870.86
2873.2
2875.83
2878.72
2881.81
2885.12
2888.66
2892.37
2896.12
2899.85
2903.78
2908.4
2914.11
2920.84
2927.97
2934.84
2941.19
2947.16
2953.03
2959.08
2965.44
2972.08
2978.96
2986.02
2993.29
3000.79
3008.55
3016.58
3024.87
3033.42
3042.23
3051.29
3060.6
3070.18
3080.01
3090.09
3100.43
3111.03
3121.89
3133.01
3144.41
3156.07
3168
3180.21
3192.7
3205.47
3218.52
3231.85
3245.46