/*--------------------------------*- C++ -*----------------------------------*\
| =========                 |                                                 |
| \\      /  F ield         | OpenFOAM: The Open Source CFD Toolbox           |
|  \\    /   O peration     | Version:  2412                                  |
|   \\  /    A nd           | Website:  www.openfoam.com                      |
|    \\/     M anipulation  |                                                 |
\*---------------------------------------------------------------------------*/
FoamFile
{
    version     2.0;
    format      ascii;
    arch        "LSB;label=32;scalar=64";
    class       volScalarField;
    location    "0.034";
    object      rho;
}
// * * * * * * * * * * * * * * * * * * * * * * * * * * * * * * * * * * * * * //

dimensions      [1 -3 0 0 0 0 0];

internalField   nonuniform List<scalar> 
78650
(
0.042133
0.042133
0.042133
0.042133
0.042133
0.042133
0.042133
0.042133
0.0421331
0.0421343
0.0421526
0.0422446
0.0424166
0.0425537
0.0425857
0.0425751
0.0424613
0.0422804
0.0421289
0.0420263
0.0419577
0.0419051
0.0418507
0.0417896
0.0417268
0.0416695
0.0416198
0.0415747
0.0415282
0.0414772
0.0414298
0.0414023
0.041397
0.0414135
0.0414544
0.0414999
0.0415285
0.041537
0.0415334
0.04152
0.0415039
0.0414909
0.0414812
0.0414732
0.0414655
0.0414581
0.0414512
0.041445
0.0414396
0.0414351
0.0414312
0.0414277
0.0414245
0.0414217
0.0414194
0.0414173
0.041415
0.0414122
0.0414085
0.0414037
0.0413979
0.0413909
0.0413824
0.0413721
0.0413593
0.0413436
0.0413243
0.041301
0.0412734
0.0412411
0.0412035
0.0411598
0.0411095
0.0410514
0.0409848
0.0409083
0.040821
0.0407216
0.0406091
0.0404825
0.0403403
0.0401814
0.0400039
0.0398059
0.0395855
0.0393406
0.0390703
0.0387718
0.0384442
0.0380832
0.0376929
0.0372643
0.0368017
0.0362868
0.0357379
0.0351473
0.0345148
0.0338474
0.0331481
0.0324127
0.0316499
0.0308755
0.0300663
0.0292657
0.0284431
0.0276355
0.026879
0.0261355
0.0254408
0.0247671
0.0241111
0.0234966
0.0229136
0.0223814
0.0219016
0.0214367
0.0210041
0.020588
0.020215
0.01989
0.0193528
0.042133
0.042133
0.042133
0.042133
0.042133
0.042133
0.042133
0.042133
0.0421331
0.0421337
0.0421452
0.0422178
0.0423831
0.0425396
0.0425898
0.0425917
0.0425056
0.0423311
0.0421694
0.0420583
0.0419861
0.041935
0.0418848
0.041828
0.0417675
0.0417107
0.0416612
0.0416178
0.0415753
0.0415287
0.0414798
0.041442
0.0414268
0.0414313
0.04146
0.0415063
0.041547
0.041567
0.0415704
0.0415643
0.0415514
0.041539
0.04153
0.0415233
0.0415175
0.0415122
0.0415074
0.0415033
0.0415001
0.0414978
0.0414964
0.0414954
0.0414948
0.0414947
0.0414952
0.0414962
0.0414971
0.0414977
0.0414977
0.0414968
0.0414951
0.0414924
0.0414886
0.0414833
0.0414759
0.0414661
0.0414531
0.0414365
0.0414162
0.0413916
0.0413623
0.0413277
0.0412872
0.0412398
0.0411847
0.041121
0.0410473
0.0409629
0.0408666
0.0407573
0.0406338
0.0404949
0.0403389
0.0401643
0.0399695
0.0397524
0.0395113
0.0392429
0.0389461
0.0386171
0.038258
0.0378613
0.0374323
0.036959
0.0364578
0.0359136
0.0353367
0.0347253
0.0340655
0.033373
0.0326273
0.0318883
0.0311044
0.0303277
0.0295308
0.0286969
0.0278874
0.0270871
0.0263161
0.0255996
0.024892
0.0242294
0.023586
0.0229879
0.0224453
0.0219307
0.0214604
0.020987
0.0205318
0.0201053
0.0194176
0.042133
0.042133
0.042133
0.042133
0.042133
0.042133
0.042133
0.042133
0.042133
0.0421333
0.0421401
0.0421943
0.0423465
0.0425189
0.0425913
0.0426071
0.042546
0.0423817
0.0422102
0.0420908
0.0420154
0.0419656
0.0419197
0.0418673
0.0418096
0.0417536
0.041704
0.041661
0.041621
0.041579
0.0415325
0.041489
0.0414632
0.0414579
0.0414721
0.0415119
0.0415595
0.0415928
0.0416058
0.0416062
0.0415993
0.0415888
0.0415804
0.0415747
0.0415707
0.0415674
0.0415648
0.0415627
0.0415617
0.0415617
0.0415627
0.0415642
0.0415663
0.041569
0.0415724
0.0415763
0.0415805
0.0415846
0.0415882
0.0415912
0.0415935
0.0415951
0.0415959
0.0415954
0.0415934
0.0415893
0.0415825
0.0415726
0.0415592
0.0415421
0.041521
0.0414951
0.041464
0.0414268
0.0413827
0.0413309
0.0412702
0.0411998
0.0411184
0.0410253
0.0409192
0.0407989
0.0406631
0.0405102
0.0403386
0.0401461
0.0399307
0.0396899
0.039423
0.0391277
0.0388045
0.0384455
0.0380517
0.0376158
0.0371525
0.0366488
0.0361112
0.0355244
0.0348913
0.0342168
0.0334971
0.0327576
0.0319912
0.0311942
0.0304173
0.0295862
0.0287414
0.0279114
0.027062
0.0262718
0.0255149
0.0248138
0.0241446
0.0235142
0.0229259
0.0223712
0.0218617
0.0213662
0.0209033
0.0204617
0.0196911
0.042133
0.042133
0.042133
0.042133
0.042133
0.042133
0.042133
0.042133
0.042133
0.0421332
0.0421369
0.0421746
0.0423077
0.0424914
0.0425904
0.0426206
0.0425811
0.0424321
0.0422537
0.0421262
0.0420474
0.0419981
0.0419561
0.0419082
0.0418536
0.0417986
0.0417487
0.0417053
0.0416662
0.0416276
0.0415855
0.0415414
0.0415065
0.0414916
0.0414942
0.0415201
0.0415668
0.0416119
0.0416386
0.0416471
0.0416461
0.0416399
0.0416328
0.041628
0.0416252
0.0416238
0.0416233
0.0416235
0.0416245
0.0416268
0.04163
0.041634
0.0416387
0.0416441
0.0416502
0.0416571
0.0416644
0.0416718
0.041679
0.0416857
0.041692
0.0416977
0.0417028
0.0417071
0.0417101
0.0417114
0.0417105
0.041707
0.0417006
0.0416906
0.0416772
0.0416597
0.0416376
0.0416102
0.0415767
0.0415364
0.0414883
0.0414314
0.0413647
0.0412875
0.0411985
0.0410968
0.040981
0.0408495
0.0407008
0.0405331
0.0403448
0.0401336
0.0398982
0.0396351
0.039343
0.0390162
0.0386581
0.0382639
0.0378395
0.0373692
0.036861
0.0363055
0.0357169
0.0350937
0.0344288
0.0337023
0.0329519
0.0321432
0.031335
0.0305214
0.0296758
0.0288562
0.0280006
0.0271472
0.0263178
0.0255026
0.024756
0.0240658
0.0234067
0.0227863
0.0222195
0.0216652
0.0211675
0.0207235
0.0199768
0.042133
0.042133
0.042133
0.042133
0.042133
0.042133
0.042133
0.042133
0.042133
0.0421331
0.0421349
0.0421592
0.0422687
0.0424564
0.0425856
0.0426323
0.0426068
0.0424815
0.0423015
0.0421655
0.0420821
0.0420322
0.0419935
0.0419503
0.041899
0.0418453
0.0417952
0.0417509
0.0417117
0.0416749
0.0416371
0.0415962
0.0415574
0.0415328
0.0415264
0.0415376
0.0415749
0.0416249
0.0416655
0.0416867
0.0416927
0.0416915
0.041687
0.0416834
0.0416819
0.0416821
0.0416837
0.041686
0.0416892
0.0416935
0.0416991
0.0417056
0.0417128
0.0417208
0.0417297
0.0417395
0.0417499
0.0417606
0.0417713
0.0417817
0.0417918
0.0418016
0.0418111
0.04182
0.041828
0.0418346
0.0418393
0.0418419
0.0418421
0.0418393
0.0418335
0.0418241
0.0418106
0.0417925
0.041769
0.0417397
0.0417034
0.0416593
0.0416065
0.0415441
0.0414711
0.0413866
0.0412891
0.0411775
0.0410503
0.040906
0.0407428
0.0405582
0.0403507
0.0401178
0.0398588
0.0395696
0.0392518
0.0388996
0.0385141
0.0380823
0.0376123
0.0370983
0.0365549
0.0359725
0.0353478
0.0346793
0.0339708
0.033217
0.0324042
0.0315914
0.0307477
0.0299017
0.029054
0.0281921
0.027355
0.0265042
0.0256669
0.024899
0.0241678
0.0234824
0.0228329
0.022187
0.0215619
0.0209865
0.0200007
0.042133
0.042133
0.042133
0.042133
0.042133
0.042133
0.042133
0.042133
0.042133
0.0421331
0.0421339
0.0421481
0.0422319
0.0424136
0.0425729
0.0426387
0.0426256
0.0425309
0.0423554
0.0422096
0.0421201
0.042068
0.0420321
0.0419934
0.0419458
0.0418934
0.041843
0.0417977
0.0417578
0.0417216
0.0416871
0.0416511
0.0416137
0.0415824
0.0415673
0.0415676
0.0415889
0.0416348
0.0416851
0.0417214
0.0417387
0.0417432
0.0417428
0.041741
0.0417407
0.0417424
0.0417457
0.0417501
0.0417555
0.0417621
0.0417699
0.0417788
0.0417885
0.0417991
0.0418107
0.0418232
0.0418367
0.0418506
0.0418647
0.0418787
0.0418925
0.0419063
0.0419199
0.0419333
0.041946
0.0419578
0.0419682
0.0419766
0.0419829
0.0419869
0.0419883
0.0419866
0.0419816
0.0419726
0.0419588
0.0419399
0.041915
0.0418833
0.0418439
0.041796
0.0417386
0.041671
0.0415919
0.0415001
0.0413942
0.0412727
0.0411339
0.0409758
0.0407972
0.040595
0.0403677
0.0401119
0.0398288
0.0395115
0.0391586
0.0387612
0.0383299
0.0378614
0.0373604
0.0368129
0.0362195
0.0355781
0.0348806
0.0341515
0.0333546
0.0325424
0.0316983
0.0308261
0.0299612
0.0290707
0.028204
0.0273602
0.0264941
0.0256558
0.0248435
0.0241026
0.0234423
0.0228203
0.0222327
0.0216638
0.0206243
0.042133
0.042133
0.042133
0.042133
0.042133
0.042133
0.042133
0.042133
0.042133
0.042133
0.0421334
0.0421409
0.0421997
0.0423647
0.0425491
0.0426398
0.0426399
0.0425783
0.0424134
0.0422574
0.0421607
0.0421054
0.0420715
0.042037
0.0419927
0.0419417
0.041891
0.0418451
0.0418047
0.0417686
0.0417361
0.0417047
0.041672
0.0416396
0.0416169
0.041609
0.0416163
0.0416489
0.0416999
0.0417485
0.0417806
0.0417953
0.0417997
0.0418008
0.0418019
0.0418048
0.0418097
0.0418163
0.0418239
0.0418326
0.0418426
0.0418538
0.0418661
0.0418793
0.0418935
0.0419088
0.0419252
0.0419423
0.0419597
0.0419773
0.0419948
0.0420125
0.0420302
0.0420479
0.0420654
0.0420821
0.0420978
0.0421121
0.0421246
0.0421351
0.0421433
0.042149
0.0421518
0.0421517
0.0421472
0.0421385
0.0421243
0.0421042
0.0420773
0.0420429
0.0420002
0.0419482
0.041886
0.0418123
0.0417259
0.0416256
0.0415098
0.0413768
0.0412248
0.041051
0.0408547
0.040633
0.0403853
0.0401051
0.0397931
0.0394448
0.0390672
0.0386514
0.0381956
0.0376875
0.0371321
0.0365322
0.0358891
0.0351983
0.0344646
0.0336752
0.0328451
0.0319649
0.0310831
0.0301527
0.0292232
0.0283141
0.0274276
0.0265556
0.025677
0.0248042
0.023973
0.0231826
0.0225092
0.021945
0.020888
0.042133
0.042133
0.042133
0.042133
0.042133
0.042133
0.042133
0.042133
0.042133
0.042133
0.0421332
0.0421367
0.0421741
0.0423131
0.042512
0.0426356
0.0426526
0.0426195
0.042473
0.0423101
0.0422056
0.0421452
0.0421115
0.0420798
0.0420386
0.0419893
0.041939
0.0418932
0.041853
0.0418173
0.0417859
0.0417578
0.0417304
0.0417015
0.0416752
0.0416602
0.0416581
0.0416734
0.0417151
0.0417691
0.0418154
0.0418437
0.0418566
0.041862
0.0418653
0.0418695
0.0418758
0.041884
0.0418938
0.0419048
0.041917
0.0419305
0.0419451
0.0419608
0.0419776
0.0419956
0.0420148
0.042035
0.0420557
0.0420767
0.0420979
0.0421193
0.042141
0.0421628
0.0421847
0.0422064
0.0422273
0.042247
0.0422654
0.0422822
0.0422972
0.0423101
0.0423205
0.042328
0.0423325
0.0423335
0.0423298
0.0423212
0.0423065
0.0422851
0.0422565
0.0422198
0.0421742
0.0421185
0.0420515
0.0419721
0.0418788
0.0417699
0.0416439
0.0414985
0.0413324
0.0411424
0.0409279
0.0406836
0.0404107
0.0401043
0.0397667
0.0393864
0.038963
0.0384917
0.0379811
0.0374293
0.0368322
0.0361907
0.0354993
0.0347554
0.0339745
0.0331313
0.0322682
0.0313671
0.0304187
0.0294677
0.0284974
0.0275773
0.0266979
0.0258669
0.0250223
0.0241749
0.0233141
0.0225391
0.0211662
0.042133
0.042133
0.042133
0.042133
0.042133
0.042133
0.042133
0.042133
0.042133
0.042133
0.0421331
0.0421345
0.0421558
0.0422631
0.0424637
0.042622
0.0426634
0.0426499
0.042533
0.0423691
0.0422541
0.0421858
0.0421497
0.0421198
0.0420823
0.042036
0.0419873
0.0419424
0.0419032
0.0418684
0.0418379
0.0418115
0.0417882
0.0417646
0.04174
0.0417201
0.0417114
0.0417144
0.0417391
0.0417876
0.0418424
0.0418857
0.0419111
0.0419236
0.0419305
0.0419365
0.0419439
0.0419537
0.0419653
0.0419785
0.041993
0.0420087
0.0420257
0.0420438
0.0420631
0.0420838
0.0421058
0.042129
0.042153
0.0421774
0.0422021
0.0422272
0.0422527
0.0422787
0.042305
0.0423312
0.0423572
0.0423823
0.0424064
0.0424293
0.0424507
0.0424704
0.0424883
0.0425039
0.0425167
0.0425263
0.0425323
0.0425343
0.0425312
0.0425224
0.0425071
0.0424845
0.042454
0.0424147
0.0423655
0.0423052
0.0422326
0.0421463
0.0420447
0.0419258
0.0417883
0.0416293
0.0414477
0.0412392
0.0410046
0.0407387
0.040441
0.0401011
0.0397214
0.0393
0.0388423
0.0383415
0.03779
0.0371881
0.0365333
0.035829
0.0350681
0.0342477
0.0333628
0.032485
0.0315252
0.0305902
0.0295976
0.0285726
0.0275749
0.0266291
0.0257374
0.0249257
0.0241611
0.0234371
0.0220624
0.042133
0.042133
0.042133
0.042133
0.042133
0.042133
0.042133
0.042133
0.042133
0.042133
0.0421331
0.0421336
0.0421442
0.0422191
0.0424062
0.0425964
0.0426669
0.0426717
0.0425923
0.0424339
0.0423039
0.0422253
0.0421856
0.0421578
0.042125
0.0420833
0.0420374
0.0419939
0.041956
0.0419226
0.0418929
0.0418674
0.0418464
0.0418274
0.0418075
0.0417874
0.0417737
0.0417695
0.041778
0.0418118
0.0418652
0.041919
0.0419588
0.0419825
0.0419959
0.042005
0.042014
0.0420249
0.0420381
0.0420533
0.0420699
0.042088
0.0421073
0.0421278
0.0421495
0.0421727
0.0421975
0.0422235
0.0422506
0.0422783
0.0423065
0.0423351
0.0423644
0.0423943
0.0424247
0.0424554
0.0424861
0.0425165
0.042546
0.0425747
0.0426023
0.0426286
0.0426535
0.0426765
0.0426974
0.0427159
0.0427312
0.0427429
0.0427504
0.0427534
0.0427512
0.0427425
0.0427272
0.0427038
0.042672
0.0426303
0.0425779
0.0425134
0.0424355
0.0423421
0.0422319
0.042102
0.0419515
0.0417771
0.0415791
0.0413517
0.0410935
0.0407978
0.0404695
0.0401055
0.0397047
0.0392563
0.0387563
0.0382057
0.037597
0.0369377
0.0362227
0.0354608
0.0346358
0.0337622
0.0328317
0.0318366
0.0308887
0.0298524
0.028824
0.0277773
0.0266886
0.0256409
0.0246968
0.0238924
0.0223442
0.042133
0.042133
0.042133
0.042133
0.042133
0.042133
0.042133
0.042133
0.042133
0.042133
0.042133
0.0421332
0.0421378
0.0421845
0.0423443
0.0425564
0.0426629
0.0426911
0.042645
0.042499
0.042353
0.0422647
0.042221
0.0421952
0.0421676
0.0421315
0.0420894
0.0420477
0.0420111
0.0419793
0.0419508
0.0419259
0.0419059
0.0418898
0.0418746
0.041858
0.0418426
0.0418337
0.0418333
0.0418486
0.0418902
0.0419463
0.0419981
0.0420357
0.0420592
0.042074
0.0420857
0.0420979
0.0421123
0.0421291
0.0421478
0.0421681
0.0421897
0.0422126
0.0422367
0.0422624
0.0422897
0.0423186
0.0423487
0.0423796
0.0424112
0.0424433
0.0424763
0.04251
0.0425444
0.0425795
0.0426148
0.0426501
0.042685
0.0427192
0.0427527
0.0427854
0.0428169
0.0428471
0.0428757
0.0429023
0.0429265
0.0429478
0.0429656
0.0429792
0.0429883
0.0429924
0.0429912
0.0429827
0.0429671
0.0429424
0.0429085
0.042864
0.0428078
0.0427383
0.0426539
0.0425523
0.0424327
0.0422918
0.0421287
0.0419381
0.0417196
0.0414687
0.0411881
0.0408701
0.0405107
0.0401016
0.0396438
0.0391381
0.0385792
0.0379707
0.0373038
0.036585
0.0358119
0.0349576
0.0340904
0.0331097
0.0321137
0.0311143
0.0300709
0.0290972
0.0280544
0.0270437
0.0259717
0.0249668
0.0231047
0.042133
0.042133
0.042133
0.042133
0.042133
0.042133
0.042133
0.042133
0.042133
0.042133
0.042133
0.0421331
0.0421348
0.0421604
0.0422838
0.0425024
0.0426525
0.0427073
0.0426826
0.0425598
0.0424049
0.0423074
0.0422581
0.0422328
0.04221
0.0421804
0.0421431
0.0421036
0.0420682
0.0420381
0.0420112
0.0419873
0.0419675
0.0419527
0.0419405
0.0419283
0.041915
0.0419039
0.0418989
0.0419018
0.0419255
0.0419734
0.0420299
0.0420799
0.0421166
0.0421407
0.0421575
0.042172
0.0421875
0.0422055
0.042226
0.0422484
0.0422723
0.0422975
0.042324
0.0423521
0.0423819
0.0424134
0.0424464
0.0424804
0.0425152
0.0425508
0.0425872
0.0426246
0.0426629
0.042702
0.0427417
0.0427817
0.0428216
0.0428612
0.0429003
0.0429389
0.0429768
0.0430138
0.0430497
0.043084
0.0431166
0.0431468
0.0431743
0.0431986
0.0432191
0.043235
0.0432461
0.0432519
0.0432524
0.0432444
0.0432289
0.0432035
0.0431682
0.0431212
0.0430612
0.0429861
0.0428946
0.0427839
0.042653
0.0424977
0.0423184
0.0421104
0.0418738
0.0415995
0.0412858
0.0409278
0.0405277
0.0400826
0.039587
0.0390409
0.0384308
0.0377613
0.0370276
0.0362374
0.0353738
0.034447
0.0334096
0.0323813
0.0312672
0.0301286
0.0290134
0.0279524
0.0269546
0.0260506
0.0242725
0.042133
0.042133
0.042133
0.042133
0.042133
0.042133
0.042133
0.042133
0.042133
0.042133
0.042133
0.0421331
0.0421336
0.0421458
0.0422311
0.0424377
0.0426314
0.0427135
0.0427061
0.0426186
0.0424626
0.042353
0.042296
0.0422698
0.0422518
0.0422292
0.0421979
0.0421612
0.0421268
0.042098
0.0420726
0.0420496
0.04203
0.0420153
0.0420044
0.0419955
0.0419858
0.0419761
0.0419692
0.0419667
0.041975
0.0420074
0.0420594
0.042116
0.0421653
0.0422017
0.042227
0.0422461
0.0422637
0.0422828
0.0423045
0.0423287
0.0423548
0.0423823
0.0424112
0.0424416
0.0424738
0.0425079
0.0425437
0.0425807
0.0426187
0.0426576
0.0426974
0.0427383
0.0427803
0.0428234
0.0428673
0.0429118
0.0429565
0.0430012
0.0430457
0.04309
0.043134
0.0431774
0.0432201
0.0432618
0.0433022
0.0433408
0.0433774
0.0434114
0.0434422
0.0434696
0.0434931
0.0435115
0.0435248
0.0435323
0.0435337
0.0435263
0.0435104
0.0434842
0.0434469
0.0433966
0.0433322
0.0432512
0.0431525
0.0430324
0.0428908
0.0427227
0.0425269
0.0422958
0.0420306
0.0417278
0.0413875
0.041003
0.0405681
0.0400808
0.0395318
0.0389254
0.0382487
0.0375124
0.036711
0.0358448
0.0349139
0.0338994
0.0328531
0.0316578
0.0304841
0.029246
0.027994
0.0268685
0.0247104
0.042133
0.042133
0.042133
0.042133
0.042133
0.042133
0.042133
0.042133
0.042133
0.042133
0.042133
0.042133
0.0421332
0.0421383
0.0421907
0.0423683
0.0425927
0.0427116
0.0427225
0.0426722
0.0425234
0.0423992
0.0423346
0.042307
0.0422936
0.0422779
0.0422531
0.0422195
0.0421854
0.0421569
0.0421326
0.0421107
0.0420915
0.0420767
0.0420661
0.042059
0.0420527
0.0420465
0.0420406
0.0420369
0.0420379
0.0420542
0.0420936
0.0421484
0.0422057
0.0422546
0.0422913
0.0423179
0.0423395
0.0423603
0.0423831
0.0424087
0.0424366
0.0424664
0.0424976
0.0425303
0.0425648
0.0426014
0.0426398
0.0426797
0.0427207
0.0427627
0.0428058
0.04285
0.0428956
0.0429424
0.0429902
0.0430389
0.0430882
0.0431377
0.0431873
0.043237
0.0432866
0.043336
0.0433852
0.0434337
0.0434814
0.043528
0.0435731
0.0436162
0.043657
0.0436949
0.0437296
0.0437607
0.0437877
0.0438093
0.0438253
0.0438348
0.0438377
0.0438314
0.0438157
0.0437887
0.0437492
0.0436952
0.0436257
0.0435374
0.04343
0.0432985
0.0431424
0.042956
0.0427408
0.0424911
0.042204
0.0418711
0.0414883
0.0410527
0.0405573
0.0400054
0.0393855
0.0387035
0.0379471
0.0371212
0.0362262
0.0352509
0.0342412
0.0331432
0.0319796
0.0308644
0.0296428
0.028473
0.0261929
0.042133
0.042133
0.042133
0.042133
0.042133
0.042133
0.042133
0.042133
0.042133
0.042133
0.042133
0.042133
0.0421331
0.0421349
0.0421635
0.0423019
0.0425379
0.0427001
0.0427368
0.0427139
0.0425819
0.0424457
0.0423749
0.0423452
0.0423351
0.0423248
0.0423056
0.0422749
0.042241
0.0422126
0.0421894
0.0421687
0.0421504
0.0421358
0.0421254
0.0421192
0.0421152
0.0421124
0.0421099
0.0421078
0.0421073
0.042114
0.0421383
0.0421835
0.0422413
0.0422991
0.0423478
0.0423848
0.042413
0.0424372
0.0424616
0.0424882
0.0425177
0.0425495
0.0425829
0.042618
0.0426548
0.0426937
0.0427346
0.0427773
0.0428212
0.0428663
0.0429124
0.0429599
0.0430089
0.0430592
0.0431108
0.0431635
0.0432171
0.0432712
0.0433256
0.0433804
0.0434354
0.0434905
0.0435457
0.0436007
0.0436553
0.0437092
0.0437622
0.0438138
0.0438637
0.0439114
0.0439566
0.0439989
0.0440378
0.0440728
0.0441032
0.0441279
0.0441463
0.0441579
0.0441621
0.044157
0.0441411
0.0441129
0.0440711
0.0440133
0.0439386
0.0438427
0.0437255
0.0435821
0.0434127
0.0432097
0.0429704
0.0426881
0.0423615
0.0419867
0.0415582
0.041076
0.0405288
0.0399183
0.0392286
0.0384664
0.0376217
0.0366943
0.035661
0.034594
0.0333394
0.0320877
0.0308129
0.0297054
0.0275859
0.042133
0.042133
0.042133
0.042133
0.042133
0.042133
0.042133
0.042133
0.042133
0.042133
0.042133
0.042133
0.0421331
0.0421336
0.0421475
0.0422452
0.0424729
0.0426775
0.0427464
0.0427397
0.0426374
0.0424961
0.0424173
0.0423834
0.0423741
0.0423664
0.0423524
0.0423261
0.0422936
0.0422657
0.0422436
0.0422243
0.0422071
0.0421932
0.0421832
0.0421775
0.042175
0.0421745
0.042176
0.0421771
0.0421787
0.0421824
0.0421957
0.0422275
0.0422782
0.0423384
0.0423965
0.0424448
0.0424822
0.0425121
0.0425392
0.0425672
0.0425979
0.0426313
0.0426668
0.042704
0.0427431
0.0427843
0.0428276
0.0428728
0.0429195
0.0429674
0.0430166
0.0430671
0.0431192
0.0431729
0.043228
0.0432845
0.043342
0.0434004
0.0434593
0.0435188
0.0435788
0.0436393
0.0437
0.043761
0.043822
0.0438827
0.043943
0.0440024
0.0440608
0.0441176
0.0441726
0.0442254
0.0442757
0.0443229
0.0443665
0.0444057
0.04444
0.0444684
0.0444899
0.044504
0.0445098
0.0445059
0.0444896
0.0444601
0.0444151
0.0443523
0.0442711
0.044167
0.0440393
0.0438805
0.0436901
0.0434625
0.0431968
0.0428875
0.042529
0.0421175
0.0416421
0.0411031
0.0404872
0.0398002
0.0390262
0.0381743
0.037234
0.0361918
0.0351129
0.0338031
0.0324258
0.031097
0.0286293
0.042133
0.042133
0.042133
0.042133
0.042133
0.042133
0.042133
0.042133
0.042133
0.042133
0.042133
0.042133
0.042133
0.0421332
0.0421392
0.042202
0.0424047
0.0426429
0.0427463
0.0427582
0.0426894
0.0425495
0.0424585
0.0424181
0.0424075
0.0424021
0.0423944
0.0423745
0.042345
0.0423175
0.0422963
0.042278
0.0422621
0.042249
0.0422401
0.0422351
0.0422338
0.042235
0.0422393
0.0422439
0.042249
0.0422542
0.0422628
0.0422831
0.042322
0.0423775
0.0424396
0.0424974
0.0425452
0.0425831
0.0426149
0.0426452
0.0426772
0.0427119
0.0427491
0.0427884
0.0428296
0.042873
0.0429185
0.0429662
0.0430155
0.0430662
0.0431182
0.0431716
0.0432267
0.0432836
0.043342
0.043402
0.0434633
0.0435257
0.0435889
0.0436529
0.0437175
0.0437829
0.043849
0.0439155
0.0439824
0.0440494
0.0441164
0.0441831
0.0442492
0.0443144
0.0443783
0.0444407
0.0445012
0.0445595
0.0446151
0.0446673
0.0447155
0.0447591
0.0447975
0.0448296
0.0448542
0.0448707
0.0448782
0.0448756
0.0448587
0.0448275
0.0447791
0.0447113
0.0446225
0.0445071
0.0443653
0.044191
0.0439822
0.0437316
0.0434338
0.0430827
0.04267
0.0421952
0.0416453
0.0410231
0.0403139
0.039526
0.0386416
0.0376672
0.0365878
0.0354511
0.0341583
0.032946
0.0306784
0.042133
0.042133
0.042133
0.042133
0.042133
0.042133
0.042133
0.042133
0.042133
0.042133
0.042133
0.042133
0.042133
0.0421331
0.0421355
0.0421725
0.04234
0.0425973
0.0427381
0.0427747
0.0427348
0.0426008
0.0424956
0.0424483
0.0424372
0.042435
0.0424343
0.0424217
0.0423958
0.0423687
0.0423477
0.0423303
0.0423159
0.0423042
0.0422967
0.0422929
0.0422927
0.0422956
0.0423012
0.0423088
0.0423177
0.0423261
0.0423348
0.0423486
0.0423759
0.0424217
0.0424814
0.0425446
0.0426018
0.0426489
0.0426874
0.0427214
0.0427552
0.0427911
0.0428298
0.0428709
0.0429141
0.0429594
0.0430071
0.0430571
0.0431088
0.0431621
0.0432167
0.0432729
0.0433309
0.0433906
0.0434522
0.0435154
0.0435802
0.0436462
0.0437133
0.0437814
0.0438504
0.0439204
0.0439912
0.0440628
0.0441351
0.044208
0.0442811
0.0443544
0.0444276
0.0445004
0.0445725
0.0446436
0.0447136
0.0447821
0.0448487
0.0449128
0.044974
0.0450315
0.045085
0.0451336
0.0451766
0.0452128
0.0452407
0.0452598
0.0452689
0.0452674
0.0452494
0.045216
0.0451635
0.0450893
0.0449924
0.0448662
0.0447085
0.0445113
0.0442713
0.0439827
0.0436393
0.0432375
0.0427658
0.0422241
0.0415967
0.0408861
0.0400704
0.0391536
0.0381189
0.0369549
0.0356701
0.0343309
0.0320457
0.042133
0.042133
0.042133
0.042133
0.042133
0.042133
0.042133
0.042133
0.042133
0.042133
0.042133
0.042133
0.042133
0.0421331
0.042134
0.0421545
0.0422842
0.0425445
0.0427252
0.0427899
0.0427665
0.0426443
0.04253
0.0424776
0.0424665
0.042468
0.0424728
0.0424664
0.0424445
0.0424182
0.0423975
0.0423814
0.0423688
0.042359
0.0423533
0.0423512
0.0423523
0.0423569
0.0423633
0.0423726
0.0423845
0.0423965
0.0424077
0.0424199
0.0424394
0.042474
0.0425263
0.0425894
0.042653
0.0427091
0.0427556
0.0427949
0.0428315
0.0428689
0.0429088
0.0429513
0.0429963
0.0430436
0.0430933
0.0431454
0.0431994
0.0432551
0.0433123
0.043371
0.0434316
0.0434941
0.0435586
0.0436249
0.0436928
0.0437623
0.043833
0.0439049
0.043978
0.0440521
0.0441274
0.0442038
0.0442811
0.0443592
0.044438
0.0445174
0.044597
0.0446767
0.0447562
0.0448353
0.0449138
0.0449914
0.0450679
0.0451427
0.0452154
0.0452855
0.0453525
0.0454158
0.0454747
0.0455284
0.0455761
0.0456166
0.045648
0.0456698
0.0456804
0.0456797
0.0456604
0.0456245
0.0455672
0.0454849
0.045375
0.0452312
0.0450518
0.0448302
0.0445605
0.0442371
0.0438485
0.0433918
0.0428519
0.0422303
0.0415079
0.0406842
0.0397337
0.0386606
0.0374597
0.0361648
0.0339894
0.042133
0.042133
0.042133
0.042133
0.042133
0.042133
0.042133
0.042133
0.042133
0.042133
0.042133
0.042133
0.042133
0.042133
0.0421334
0.0421444
0.0422404
0.0424898
0.0427101
0.0427981
0.0427865
0.0426836
0.0425635
0.0425075
0.0424957
0.0425002
0.0425096
0.0425073
0.0424899
0.0424656
0.042446
0.0424317
0.0424213
0.0424139
0.04241
0.0424097
0.0424125
0.0424186
0.0424257
0.042436
0.0424497
0.0424648
0.0424794
0.0424929
0.0425091
0.042535
0.0425775
0.0426358
0.0427016
0.0427647
0.0428192
0.0428649
0.0429054
0.0429449
0.0429861
0.0430299
0.0430764
0.0431254
0.043177
0.043231
0.0432872
0.0433451
0.0434046
0.0434658
0.0435288
0.0435938
0.0436609
0.04373
0.0438009
0.0438734
0.0439475
0.0440229
0.0440996
0.0441776
0.0442569
0.0443376
0.0444194
0.0445023
0.0445862
0.044671
0.0447565
0.0448424
0.0449286
0.0450148
0.045101
0.0451868
0.0452722
0.0453566
0.0454398
0.0455211
0.0456004
0.045677
0.0457504
0.0458198
0.0458846
0.0459439
0.0459966
0.0460417
0.0460765
0.046101
0.0461133
0.0461134
0.0460926
0.0460528
0.0459885
0.0458967
0.0457744
0.0456141
0.0454101
0.0451546
0.0448377
0.0444543
0.0439901
0.0434436
0.0427983
0.0420512
0.0411768
0.0401917
0.0390279
0.0378095
0.0358559
0.042133
0.042133
0.042133
0.042133
0.042133
0.042133
0.042133
0.042133
0.042133
0.042133
0.042133
0.042133
0.042133
0.042133
0.0421332
0.0421391
0.0422087
0.0424391
0.0426904
0.0428017
0.0428004
0.042718
0.0425955
0.0425363
0.0425236
0.04253
0.0425441
0.0425448
0.0425322
0.0425111
0.0424935
0.0424816
0.0424735
0.0424686
0.0424662
0.0424673
0.0424719
0.0424792
0.0424872
0.0424982
0.0425128
0.0425303
0.0425482
0.0425647
0.042581
0.0426022
0.0426359
0.0426865
0.0427501
0.042817
0.0428785
0.0429311
0.0429765
0.0430189
0.0430616
0.0431066
0.0431543
0.0432048
0.043258
0.0433139
0.043372
0.043432
0.0434936
0.043557
0.0436223
0.0436897
0.0437592
0.0438308
0.0439044
0.0439798
0.0440569
0.0441355
0.0442156
0.0442971
0.0443801
0.0444646
0.0445506
0.0446379
0.0447264
0.0448161
0.0449068
0.0449984
0.0450906
0.0451833
0.0452763
0.0453695
0.0454628
0.0455558
0.0456482
0.0457395
0.0458296
0.0459179
0.046004
0.0460874
0.0461675
0.0462433
0.0463144
0.0463794
0.0464374
0.0464872
0.0465256
0.046553
0.0465668
0.0465671
0.0465439
0.0464996
0.0464267
0.0463212
0.0461773
0.045988
0.0457449
0.0454413
0.0450637
0.0446093
0.0440606
0.0434047
0.0426164
0.0416828
0.0405723
0.0393336
0.0375313
0.042133
0.042133
0.042133
0.042133
0.042133
0.042133
0.042133
0.042133
0.042133
0.042133
0.042133
0.042133
0.042133
0.042133
0.0421331
0.0421364
0.0421873
0.0423963
0.0426676
0.0428023
0.0428119
0.0427465
0.0426247
0.0425624
0.0425488
0.042557
0.0425764
0.0425806
0.0425721
0.042555
0.04254
0.0425307
0.0425249
0.0425216
0.0425203
0.0425222
0.0425282
0.0425365
0.0425456
0.0425575
0.0425732
0.0425924
0.0426134
0.0426334
0.042652
0.0426721
0.0427
0.0427425
0.0428009
0.0428683
0.0429347
0.0429937
0.0430445
0.0430903
0.043135
0.0431812
0.0432301
0.0432819
0.0433366
0.0433941
0.0434541
0.0435159
0.0435795
0.0436449
0.0437122
0.0437818
0.0438535
0.0439275
0.0440036
0.0440816
0.0441613
0.0442428
0.0443259
0.0444106
0.044497
0.044585
0.0446746
0.0447658
0.0448585
0.0449526
0.045048
0.0451445
0.045242
0.0453404
0.0454395
0.0455392
0.0456395
0.04574
0.0458406
0.0459408
0.0460404
0.046139
0.0462365
0.0463321
0.0464256
0.0465162
0.0466034
0.0466862
0.046764
0.0468351
0.0468987
0.0469535
0.0469961
0.0470267
0.0470421
0.0470423
0.0470149
0.0469631
0.0468779
0.046756
0.046589
0.0463694
0.0460837
0.0457258
0.0452753
0.0447231
0.0440456
0.0432121
0.0422231
0.0410233
0.0393783
0.042133
0.042133
0.042133
0.042133
0.042133
0.042133
0.042133
0.042133
0.042133
0.042133
0.042133
0.042133
0.042133
0.042133
0.0421331
0.0421351
0.0421738
0.0423635
0.0426465
0.0428016
0.0428217
0.0427691
0.0426499
0.0425852
0.0425713
0.0425826
0.0426071
0.0426153
0.0426103
0.0425971
0.0425851
0.0425781
0.0425738
0.0425713
0.0425705
0.0425731
0.0425801
0.0425893
0.0425998
0.0426131
0.0426301
0.0426511
0.0426747
0.0426983
0.0427203
0.0427417
0.0427669
0.042803
0.0428549
0.04292
0.042989
0.0430532
0.0431093
0.043159
0.0432061
0.0432537
0.0433036
0.0433566
0.0434126
0.0434716
0.0435331
0.0435967
0.0436621
0.0437292
0.0437985
0.04387
0.0439438
0.0440199
0.0440982
0.0441785
0.0442607
0.0443448
0.0444306
0.0445182
0.0446076
0.0446987
0.0447917
0.0448864
0.0449828
0.0450808
0.0451803
0.0452813
0.0453835
0.045487
0.0455915
0.045697
0.0458034
0.0459106
0.0460183
0.0461263
0.0462342
0.0463419
0.0464492
0.0465556
0.0466607
0.0467641
0.0468653
0.0469636
0.0470584
0.0471484
0.0472331
0.0473109
0.0473807
0.0474412
0.047488
0.0475216
0.0475381
0.0475369
0.0475049
0.0474453
0.0473454
0.0472005
0.0469971
0.0467281
0.0463716
0.0459193
0.045331
0.0445771
0.0436556
0.0425046
0.0409694
0.042133
0.042133
0.042133
0.042133
0.042133
0.042133
0.042133
0.042133
0.042133
0.042133
0.042133
0.042133
0.042133
0.042133
0.0421331
0.0421346
0.0421659
0.0423411
0.0426305
0.0428015
0.0428304
0.0427862
0.0426703
0.042605
0.0425917
0.0426077
0.0426373
0.042649
0.0426468
0.0426368
0.0426274
0.042622
0.0426188
0.0426169
0.0426166
0.04262
0.0426278
0.0426382
0.0426503
0.0426653
0.0426839
0.0427065
0.0427324
0.0427593
0.0427849
0.0428089
0.042834
0.0428662
0.042912
0.042973
0.0430423
0.0431102
0.0431711
0.0432249
0.0432747
0.0433239
0.0433749
0.0434289
0.0434861
0.0435465
0.0436095
0.0436746
0.0437416
0.0438104
0.0438813
0.0439546
0.0440303
0.0441083
0.0441886
0.0442711
0.0443555
0.0444419
0.0445302
0.0446203
0.0447124
0.0448064
0.0449023
0.0450002
0.0450998
0.0452013
0.0453045
0.0454094
0.0455159
0.0456238
0.045733
0.0458435
0.0459553
0.0460683
0.0461823
0.046297
0.0464122
0.0465278
0.0466435
0.0467592
0.0468744
0.0469888
0.0471021
0.0472138
0.0473233
0.0474297
0.0475326
0.0476305
0.047723
0.0478083
0.0478851
0.0479518
0.0480034
0.0480405
0.0480581
0.0480549
0.048015
0.0479405
0.0478159
0.0476361
0.0473803
0.0470417
0.0465725
0.0459445
0.045121
0.0440452
0.0426019
0.042133
0.042133
0.042133
0.042133
0.042133
0.042133
0.042133
0.042133
0.042133
0.042133
0.042133
0.042133
0.042133
0.042133
0.0421331
0.0421343
0.0421625
0.0423292
0.0426224
0.0428026
0.042838
0.042798
0.0426858
0.0426224
0.0426113
0.0426333
0.0426675
0.0426814
0.042681
0.0426732
0.0426659
0.042662
0.04266
0.042659
0.0426597
0.0426642
0.042673
0.0426846
0.0426983
0.0427149
0.0427352
0.0427594
0.0427871
0.0428165
0.0428454
0.0428725
0.042899
0.0429295
0.0429708
0.0430273
0.0430953
0.0431654
0.0432302
0.0432879
0.0433405
0.0433915
0.0434437
0.0434987
0.0435571
0.0436186
0.043683
0.0437495
0.0438179
0.0438882
0.0439607
0.0440356