/*--------------------------------*- C++ -*----------------------------------*\
| =========                 |                                                 |
| \\      /  F ield         | OpenFOAM: The Open Source CFD Toolbox           |
|  \\    /   O peration     | Version:  2412                                  |
|   \\  /    A nd           | Website:  www.openfoam.com                      |
|    \\/     M anipulation  |                                                 |
\*---------------------------------------------------------------------------*/
FoamFile
{
    version     2.0;
    format      ascii;
    arch        "LSB;label=32;scalar=64";
    class       volScalarField;
    location    "0.043";
    object      p;
}
// * * * * * * * * * * * * * * * * * * * * * * * * * * * * * * * * * * * * * //

dimensions      [1 -1 -2 0 0 0 0];

internalField   nonuniform List<scalar> 
78650
(
2790
2790
2790
2790
2790.03
2790.69
2795.28
2806.5
2817.36
2822.11
2821.01
2813.09
2797.74
2784.07
2774.68
2768.06
2762.21
2755.45
2747.59
2740.37
2736.15
2735.08
2736.16
2739.57
2742.75
2743.99
2743.99
2743.15
2741.68
2740.32
2739.17
2737.99
2736.67
2735.3
2733.93
2732.59
2731.26
2729.96
2728.73
2727.6
2726.58
2725.68
2724.87
2724.12
2723.41
2722.74
2722.09
2721.48
2720.88
2720.31
2719.75
2719.21
2718.7
2718.21
2717.71
2717.16
2716.57
2715.92
2715.19
2714.38
2713.44
2712.36
2711.12
2709.67
2707.99
2706.05
2703.78
2701.16
2698.15
2694.68
2690.71
2686.16
2680.95
2674.98
2668.17
2660.43
2651.7
2641.87
2630.87
2618.56
2604.84
2589.52
2572.43
2553.39
2532.28
2509.06
2483.51
2455.5
2424.75
2391.47
2355.52
2316.96
2274.69
2229.52
2180.47
2128.52
2073.28
2014.71
1953.46
1889.48
1826.49
1762.68
1696.62
1628.32
1560.65
1495.17
1435.28
1380.02
1325.89
1274.52
1224.23
1176.34
1131.92
1090.28
1054.35
1023.27
997.326
975.01
955.29
937.854
899.103
2790
2790
2790
2790
2790.02
2790.4
2793.79
2804.04
2816.11
2822.2
2821.92
2816.34
2801.98
2787.83
2778.01
2771.25
2765.59
2759.26
2751.69
2744.09
2738.72
2736.78
2737.09
2739.79
2743.51
2745.62
2746.1
2745.71
2744.52
2743.19
2742.1
2741.07
2739.93
2738.71
2737.46
2736.24
2735.05
2733.9
2732.82
2731.83
2730.97
2730.24
2729.6
2729.04
2728.53
2728.05
2727.61
2727.21
2726.83
2726.48
2726.15
2725.86
2725.6
2725.37
2725.14
2724.89
2724.61
2724.29
2723.91
2723.45
2722.91
2722.25
2721.44
2720.47
2719.3
2717.9
2716.22
2714.23
2711.89
2709.16
2705.98
2702.28
2697.99
2693.03
2687.32
2680.76
2673.29
2664.82
2655.29
2644.57
2632.53
2619.05
2603.95
2587.12
2568.37
2547.56
2524.41
2498.84
2470.66
2440.04
2406.68
2370.55
2331.01
2288.77
2242.76
2194.09
2141.94
2086.26
2028.39
1968.89
1905.85
1841.48
1775.91
1709.33
1644.07
1576.77
1509.28
1447.75
1387.64
1331.11
1279.09
1228.82
1181.52
1137.11
1096.12
1059.07
1026.73
998.25
975.557
956.633
917.117
2790
2790
2790
2790
2790.01
2790.22
2792.58
2801.47
2814.28
2822.09
2822.72
2819.18
2806.22
2791.79
2781.51
2774.49
2768.9
2762.91
2755.72
2748.07
2741.88
2738.88
2738.51
2740.26
2744.11
2747.14
2748.24
2748.21
2747.45
2746.2
2745.13
2744.21
2743.24
2742.17
2741.06
2739.97
2738.92
2737.91
2736.98
2736.16
2735.45
2734.88
2734.43
2734.06
2733.74
2733.47
2733.23
2733.05
2732.89
2732.77
2732.67
2732.62
2732.61
2732.65
2732.7
2732.75
2732.77
2732.77
2732.74
2732.65
2732.49
2732.24
2731.88
2731.38
2730.7
2729.84
2728.74
2727.36
2725.69
2723.66
2721.24
2718.37
2714.97
2710.97
2706.3
2700.86
2694.59
2687.41
2679.25
2669.99
2659.55
2647.79
2634.55
2619.69
2603
2584.34
2563.53
2540.52
2515.18
2487.51
2457.12
2423.87
2387.3
2347.89
2304.96
2259.81
2210.97
2159.14
2103.89
2044.79
1981.51
1917.39
1853.13
1785.64
1718.82
1652.95
1583.45
1516.33
1452.05
1388.31
1330.18
1275.02
1223.24
1176.69
1133.6
1093.02
1056.1
1019.81
989.053
964.33
918.419
2790
2790
2790
2790
2790
2790.11
2791.64
2798.94
2811.9
2821.6
2823.43
2821.51
2810.47
2796.1
2785.26
2777.8
2772.16
2766.45
2759.72
2752.31
2745.64
2741.54
2740.4
2741.27
2744.67
2748.42
2750.36
2750.75
2750.39
2749.35
2748.28
2747.43
2746.61
2745.71
2744.76
2743.81
2742.89
2742.04
2741.26
2740.59
2740.05
2739.65
2739.37
2739.18
2739.06
2738.99
2738.97
2738.99
2739.05
2739.15
2739.29
2739.47
2739.72
2740
2740.33
2740.66
2740.99
2741.31
2741.61
2741.88
2742.09
2742.24
2742.29
2742.24
2742.05
2741.71
2741.17
2740.38
2739.34
2737.99
2736.3
2734.22
2731.68
2728.61
2724.95
2720.6
2715.5
2709.57
2702.76
2694.97
2686.11
2676.05
2664.64
2651.75
2637.2
2620.87
2602.56
2582.2
2559.55
2534.49
2506.66
2476.06
2442.55
2406.47
2367.23
2325.27
2279.03
2229.87
2176.61
2120.17
2061.3
1997.73
1933.42
1866.07
1796.64
1729.36
1661.34
1590.84
1524.87
1457.61
1393.43
1333.16
1274.49
1220.96
1171.64
1127.82
1090.62
1057.31
1024.52
994.486
936.393
2790
2790
2790
2790
2790
2790.05
2790.97
2796.57
2809.07
2820.55
2823.97
2823.31
2814.73
2800.75
2789.18
2781.15
2775.36
2769.92
2763.68
2756.69
2749.9
2744.89
2742.86
2743.01
2745.41
2749.46
2752.38
2753.37
2753.35
2752.65
2751.62
2750.79
2750.08
2749.34
2748.55
2747.76
2747
2746.3
2745.68
2745.17
2744.78
2744.55
2744.46
2744.47
2744.55
2744.68
2744.86
2745.1
2745.38
2745.71
2746.08
2746.5
2746.98
2747.53
2748.13
2748.75
2749.38
2750.01
2750.64
2751.26
2751.85
2752.38
2752.85
2753.24
2753.53
2753.67
2753.68
2753.47
2753.06
2752.38
2751.39
2750.08
2748.36
2746.18
2743.48
2740.17
2736.19
2731.46
2725.92
2719.5
2712.11
2703.62
2693.93
2682.89
2670.34
2656.15
2640.11
2622.12
2601.98
2579.59
2554.71
2527.34
2497.28
2464.51
2428.4
2389.19
2345.86
2299.81
2249.63
2196.62
2140.71
2080.07
2015.98
1950.56
1882.21
1811.12
1743.39
1671.17
1601.48
1532.27
1463.41
1399.88
1337.35
1278.3
1221.83
1168.04
1120.4
1079.13
1046.83
1020.61
963.277
2790
2790
2790
2790
2790
2790.02
2790.51
2794.49
2805.84
2818.82
2824.16
2824.78
2818.86
2805.64
2793.2
2784.53
2778.59
2773.44
2767.71
2761.24
2754.65
2749.07
2745.97
2745.34
2746.65
2750.39
2754.13
2755.96
2756.32
2755.99
2755.1
2754.27
2753.63
2753.04
2752.44
2751.83
2751.24
2750.7
2750.25
2749.9
2749.68
2749.62
2749.71
2749.92
2750.19
2750.53
2750.92
2751.37
2751.87
2752.43
2753.03
2753.69
2754.41
2755.21
2756.07
2756.97
2757.9
2758.84
2759.79
2760.74
2761.69
2762.61
2763.49
2764.31
2765.05
2765.68
2766.19
2766.55
2766.72
2766.69
2766.38
2765.81
2764.89
2763.57
2761.79
2759.48
2756.59
2753.02
2748.74
2743.66
2737.72
2730.81
2722.82
2713.62
2703.05
2690.97
2677.21
2661.67
2644.14
2624.48
2602.43
2577.98
2550.91
2521.13
2488.16
2452.09
2412.14
2369.21
2322.04
2272.44
2218.94
2162.4
2101.72
2037.07
1970.44
1899.42
1828.33
1755.83
1681
1610.13
1536.63
1467.19
1400.93
1337.83
1280.76
1226.9
1174.68
1123.51
1077.74
1039.98
967.61
2790
2790
2790
2790
2790
2790.01
2790.24
2792.82
2802.44
2816.35
2823.97
2826.11
2822.46
2810.46
2797.28
2788.08
2781.98
2777.09
2771.83
2765.87
2759.65
2753.87
2749.77
2748.26
2748.69
2751.41
2755.51
2758.37
2759.32
2759.3
2758.7
2757.9
2757.31
2756.84
2756.42
2756.01
2755.62
2755.26
2754.97
2754.79
2754.74
2754.85
2755.13
2755.53
2756.01
2756.56
2757.16
2757.83
2758.55
2759.33
2760.16
2761.05
2762.02
2763.07
2764.2
2765.38
2766.6
2767.84
2769.11
2770.4
2771.71
2773
2774.28
2775.51
2776.7
2777.81
2778.84
2779.74
2780.48
2781.05
2781.42
2781.55
2781.4
2780.92
2780.04
2778.67
2776.81
2774.35
2771.25
2767.43
2762.85
2757.39
2750.97
2743.46
2734.73
2724.64
2713.04
2699.8
2684.7
2667.65
2648.45
2627.05
2603.14
2576.53
2546.77
2513.97
2477.69
2438.6
2395.78
2350.14
2299.7
2246.1
2188.65
2126.67
2061.87
1992.69
1920.2
1849.18
1773.8
1700.08
1624.5
1548.06
1474.9
1402.64
1334.78
1275.36
1222.59
1175.58
1131.13
1090.46
1007.48
2790
2790
2790
2790
2790
2790
2790.1
2791.59
2799.1
2813.12
2823.4
2827.22
2825.09
2815.07
2801.69
2791.97
2785.62
2780.89
2776.06
2770.6
2764.82
2759.16
2754.41
2751.82
2751.41
2752.83
2756.61
2760.37
2762.22
2762.58
2762.31
2761.64
2761.09
2760.73
2760.48
2760.29
2760.11
2759.94
2759.85
2759.83
2759.96
2760.25
2760.7
2761.3
2761.99
2762.75
2763.56
2764.44
2765.38
2766.38
2767.44
2768.57
2769.78
2771.07
2772.46
2773.91
2775.41
2776.96
2778.54
2780.16
2781.8
2783.47
2785.12
2786.77
2788.39
2789.96
2791.47
2792.89
2794.2
2795.37
2796.38
2797.17
2797.74
2798.03
2798.04
2797.6
2796.75
2795.36
2793.4
2790.82
2787.56
2783.54
2778.67
2772.85
2765.95
2757.83
2748.32
2737.33
2724.66
2710.21
2693.76
2675.14
2654.06
2630.45
2604.07
2575
2542.78
2507.54
2468.3
2425.64
2378.25
2327.9
2272.85
2214.47
2151.75
2085.14
2014.72
1941.82
1867.97
1789.97
1715.32
1636.98
1562.43
1487.2
1412.66
1337.9
1269.1
1208.76
1160.44
1122.98
1043.58
2790
2790
2790
2790
2790
2790
2790.04
2790.8
2796.11
2809.25
2822.06
2827.68
2826.84
2819.61
2806.56
2796.16
2789.43
2784.8
2780.4
2775.4
2770.03
2764.64
2759.62
2756
2754.65
2755.04
2757.69
2761.8
2764.76
2765.81
2765.86
2765.47
2765
2764.71
2764.62
2764.66
2764.72
2764.76
2764.86
2765.03
2765.32
2765.78
2766.42
2767.22
2768.12
2769.09
2770.12
2771.21
2772.37
2773.59
2774.88
2776.24
2777.69
2779.23
2780.86
2782.58
2784.37
2786.21
2788.1
2790.04
2792.03
2794.05
2796.09
2798.13
2800.17
2802.19
2804.18
2806.11
2807.96
2809.7
2811.32
2812.79
2814.08
2815.11
2815.88
2816.33
2816.44
2816.08
2815.23
2813.82
2811.79
2809.1
2805.66
2801.38
2796.15
2789.85
2782.31
2773.45
2763.07
2751.08
2737.25
2721.47
2703.51
2683.26
2660.4
2634.86
2606.18
2574.4
2538.72
2499.52
2455.91
2409.24
2357.86
2303.33
2244.16
2180.68
2113.99
2040.44
1967.34
1887.87
1809.5
1728.29
1649.24
1571.69
1496.55
1426.06
1354.46
1286.02
1219.51
1163.59
1056.33
2790
2790
2790
2790
2790
2790
2790.01
2790.36
2793.71
2805.01
2819.6
2827.61
2828.09
2823.82
2811.7
2800.54
2793.42
2788.85
2784.87
2780.29
2775.22
2770.08
2765.07
2760.79
2758.38
2757.9
2759.18
2762.89
2766.8
2768.89
2769.42
2769.33
2769.01
2768.83
2768.85
2769.12
2769.41
2769.69
2769.99
2770.35
2770.82
2771.46
2772.28
2773.27
2774.37
2775.56
2776.8
2778.1
2779.47
2780.91
2782.43
2784.02
2785.69
2787.47
2789.36
2791.34
2793.4
2795.53
2797.72
2799.97
2802.28
2804.65
2807.05
2809.48
2811.92
2814.38
2816.82
2819.24
2821.61
2823.91
2826.11
2828.21
2830.16
2831.93
2833.5
2834.78
2835.74
2836.35
2836.57
2836.31
2835.52
2834.14
2832.09
2829.33
2825.73
2821.22
2815.61
2808.82
2800.66
2791.06
2779.79
2766.73
2751.62
2734.34
2714.64
2692.46
2667.4
2639.32
2607.58
2572.49
2533.39
2490.99
2443.95
2393.54
2337.94
2278.33
2213.88
2145.36
2073.41
1996.49
1914.58
1833.24
1745.76
1662.59
1575.56
1496.29
1421.81
1355.58
1295.25
1241.3
1130.58
2790
2790
2790
2790
2790
2790
2790
2790.14
2792.01
2800.81
2816.01
2826.89
2829.16
2827.17
2816.76
2805.14
2797.65
2793
2789.32
2785.07
2780.2
2775.23
2770.42
2765.92
2762.62
2761.29
2761.54
2764.05
2768.29
2771.59
2772.99
2773.26
2773.18
2773.09
2773.22
2773.66
2774.2
2774.73
2775.24
2775.8
2776.46
2777.26
2778.26
2779.44
2780.74
2782.13
2783.58
2785.1
2786.68
2788.34
2790.07
2791.89
2793.79
2795.81
2797.93
2800.17
2802.5
2804.91
2807.4
2809.95
2812.59
2815.29
2818.05
2820.85
2823.69
2826.57
2829.46
2832.35
2835.22
2838.05
2840.82
2843.52
2846.12
2848.59
2850.88
2852.97
2854.81
2856.34
2857.51
2858.28
2858.62
2858.5
2857.76
2856.42
2854.31
2851.43
2847.59
2842.73
2836.66
2829.32
2820.49
2810.06
2797.81
2783.63
2767.25
2748.5
2726.96
2702.55
2674.83
2644.04
2609.49
2571.46
2528.79
2482.32
2430.42
2374.69
2313.8
2248.53
2178.41
2104.68
2023.68
1943.68
1857.77
1770.46
1682.3
1592.06
1501.88
1415.98
1342.28
1283.79
1163.99
2790
2790
2790
2790
2790
2790
2790
2790.05
2790.96
2797.11
2811.58
2825.24
2829.82
2829.37
2821.67
2810.15
2802.09
2797.08
2793.51
2789.57
2784.95
2780.16
2775.6
2771.24
2767.48
2765.28
2764.75
2765.88
2769.62
2773.84
2776.42
2777.32
2777.49
2777.55
2777.77
2778.32
2779.07
2779.84
2780.58
2781.34
2782.19
2783.17
2784.34
2785.7
2787.19
2788.79
2790.44
2792.16
2793.95
2795.82
2797.77
2799.8
2801.93
2804.16
2806.52
2809.01
2811.6
2814.28
2817.05
2819.9
2822.84
2825.87
2828.97
2832.13
2835.35
2838.62
2841.93
2845.27
2848.62
2851.96
2855.27
2858.55
2861.76
2864.88
2867.89
2870.73
2873.38
2875.79
2877.92
2879.72
2881.13
2882.11
2882.64
2882.71
2882.08
2880.81
2878.7
2875.69
2871.62
2866.43
2859.91
2851.99
2842.43
2831.08
2817.69
2802.12
2784.08
2763.5
2739.99
2713.56
2683.42
2649.62
2611.2
2568.85
2521.34
2469.82
2412.64
2351.24
2284.55
2212.8
2137.57
2054.07
1971.59
1882.2
1794.24
1707.63
1617.22
1531.66
1444.2
1367.05
1217.28
2790
2790
2790
2790
2790
2790
2790
2790.01
2790.4
2794.21
2806.75
2822.47
2829.77
2830.99
2826.23
2815.34
2806.38
2800.86
2797.37
2793.85
2789.59
2785.01
2780.66
2776.57
2772.75
2769.88
2768.66
2768.83
2771.27
2775.72
2779.5
2781.4
2782.02
2782.25
2782.54
2783.14
2784.04
2785.03
2786
2786.97
2788.01
2789.17
2790.5
2792.03
2793.71
2795.5
2797.35
2799.27
2801.26
2803.33
2805.49
2807.73
2810.07
2812.53
2815.12
2817.84
2820.68
2823.63
2826.67
2829.81
2833.05
2836.39
2839.82
2843.34
2846.92
2850.58
2854.3
2858.07
2861.88
2865.71
2869.54
2873.36
2877.15
2880.9
2884.58
2888.14
2891.56
2894.79
2897.81
2900.55
2902.99
2905.09
2906.76
2907.99
2908.73
2908.94
2908.42
2907.15
2904.96
2901.77
2897.45
2891.9
2884.91
2876.36
2866
2853.7
2839.16
2822.27
2802.61
2780.06
2753.95
2724.31
2690.43
2652.82
2610.44
2563.87
2511.55
2454.83
2392.3
2324.46
2250.36
2170.45
2086.13
1994.59
1900.64
1805.78
1710.64
1621.6
1539.39
1466.85
1319.01
2790
2790
2790
2790
2790
2790
2790
2790
2790.14
2792.22
2802.02
2818.6
2829
2832.45
2829.98
2820.17
2810.41
2804.48
2801.12
2798.07
2794.25
2789.86
2785.66
2781.84
2778.25
2775.12
2773.25
2772.77
2773.85
2777.64
2782.25
2785.33
2786.66
2787.16
2787.54
2788.16
2789.13
2790.28
2791.46
2792.64
2793.87
2795.21
2796.72
2798.4
2800.26
2802.23
2804.27
2806.38
2808.57
2810.83
2813.18
2815.63
2818.18
2820.85
2823.65
2826.6
2829.68
2832.88
2836.19
2839.6
2843.13
2846.76
2850.51
2854.35
2858.29
2862.31
2866.41
2870.59
2874.83
2879.12
2883.44
2887.78
2892.13
2896.46
2900.77
2905.01
2909.15
2913.16
2917.01
2920.66
2924.07
2927.19
2930
2932.45
2934.46
2935.99
2936.97
2937.35
2936.98
2935.73
2933.5
2930.15
2925.56
2919.59
2912.04
2902.74
2891.45
2878.03
2862.08
2843.46
2821.63
2796.65
2767.9
2735.58
2698.64
2657.41
2610.61
2559.08
2501.18
2438.23
2369.13
2294.25
2213.19
2126.4
2034.37
1932.32
1831.9
1725.37
1624.27
1536.56
1363.79
2790
2790
2790
2790
2790
2790
2790
2790
2790.05
2791.04
2797.91
2813.89
2827.67
2833.32
2832.24
2824.64
2814.55
2808.2
2804.85
2802.19
2798.81
2794.67
2790.59
2787.02
2783.78
2780.75
2778.44
2777.45
2777.64
2780.04
2784.69
2788.88
2791.19
2792.16
2792.68
2793.31
2794.29
2795.56
2796.92
2798.31
2799.74
2801.26
2802.93
2804.78
2806.79
2808.94
2811.17
2813.46
2815.83
2818.28
2820.83
2823.47
2826.22
2829.09
2832.1
2835.26
2838.57
2842.02
2845.58
2849.26
2853.06
2856.98
2861.03
2865.2
2869.47
2873.84
2878.31
2882.88
2887.53
2892.26
2897.05
2901.88
2906.75
2911.64
2916.53
2921.41
2926.23
2930.97
2935.6
2940.09
2944.39
2948.48
2952.31
2955.85
2959.06
2961.88
2964.24
2966.05
2967.24
2967.76
2967.52
2966.28
2964.01
2960.47
2955.61
2949.21
2941.06
2930.99
2918.65
2903.91
2886.34
2865.94
2842.04
2814.62
2782.69
2746.5
2704.84
2658.27
2605.42
2547.39
2482.72
2412.18
2335.17
2251.57
2162.8
2068.54
1969.96
1870.83
1766.64
1670.66
1481.33
2790
2790
2790
2790
2790
2790
2790
2790
2790.01
2790.43
2794.75
2808.81
2825.35
2833.45
2833.67
2828.75
2818.79
2811.94
2808.44
2806.08
2803.19
2799.44
2795.55
2792.18
2789.28
2786.54
2784.1
2782.62
2782.24
2783.28
2787.13
2792.01
2795.42
2797.06
2797.85
2798.54
2799.51
2800.85
2802.37
2803.95
2805.57
2807.28
2809.12
2811.12
2813.29
2815.6
2818
2820.47
2823.02
2825.65
2828.38
2831.21
2834.14
2837.21
2840.42
2843.78
2847.31
2850.98
2854.79
2858.72
2862.78
2866.98
2871.31
2875.77
2880.35
2885.06
2889.88
2894.81
2899.85
2904.98
2910.2
2915.5
2920.85
2926.26
2931.71
2937.17
2942.63
2948.04
2953.4
2958.67
2963.81
2968.8
2973.6
2978.18
2982.5
2986.52
2990.18
2993.43
2996.17
2998.28
2999.72
3000.43
3000.39
2999.11
2996.78
2993.02
2987.8
2980.87
2971.98
2961
2947.5
2931.38
2911.96
2889.16
2862.13
2831.05
2794.84
2753.83
2706.81
2654.53
2595.36
2529.75
2456.29
2376.1
2288.79
2195.18
2090.74
1984.15
1874.19
1783.24
1608.79
2790
2790
2790
2790
2790
2790
2790
2790
2790
2790.16
2792.62
2803.96
2821.87
2832.98
2834.8
2832.2
2822.87
2815.48
2811.78
2809.73
2807.41
2804.18
2800.53
2797.28
2794.6
2792.13
2789.76
2787.93
2787.14
2787.34
2789.81
2794.66
2799.08
2801.61
2802.85
2803.68
2804.68
2806.05
2807.71
2809.46
2811.28
2813.18
2815.19
2817.35
2819.68
2822.15
2824.72
2827.36
2830.08
2832.89
2835.79
2838.8
2841.92
2845.16
2848.56
2852.13
2855.86
2859.75
2863.79
2867.96
2872.27
2876.72
2881.33
2886.08
2890.96
2895.98
2901.13
2906.4
2911.81
2917.33
2922.96
2928.69
2934.51
2940.4
2946.36
2952.38
2958.43
2964.47
2970.5
2976.49
2982.41
2988.23
2993.92
2999.45
3004.79
3009.9
3014.73
3019.25
3023.36
3027.02
3030.13
3032.55
3034.27
3035.17
3035.27
3034.03
3031.6
3027.61
3021.97
3014.46
3004.74
2992.62
2977.55
2959.48
2937.69
2912.26
2882.23
2847.73
2807.45
2761.73
2709.16
2650.33
2583.49
2509.64
2427.54
2338.88
2244.08
2133.59
2016.29
1906.04
1703.86
2790
2790
2790
2790
2790
2790
2790
2790
2790
2790.06
2791.34
2799.8
2817.67
2831.79
2835.82
2834.67
2826.51
2818.81
2814.99
2813.24
2811.49
2808.79
2805.37
2802.13
2799.52
2797.26
2795.09
2793.19
2792.07
2791.81
2793.02
2797.13
2802.22
2805.72
2807.55
2808.64
2809.71
2811.13
2812.9
2814.84
2816.84
2818.93
2821.11
2823.44
2825.93
2828.56
2831.29
2834.11
2836.99
2839.96
2843.04
2846.21
2849.51
2852.93
2856.51
2860.26
2864.19
2868.28
2872.53
2876.94
2881.48
2886.18
2891.04
2896.05
2901.22
2906.53
2911.98
2917.59
2923.33
2929.21
2935.22
2941.35
2947.59
2953.93
2960.37
2966.89
2973.48
2980.11
2986.75
2993.4
3000.03
3006.62
3013.13
3019.54
3025.82
3031.94
3037.87
3043.57
3048.97
3054.01
3058.61
3062.72
3066.26
3069.04
3071.06
3072.17
3072.38
3071.15
3068.58
3064.31
3058.15
3049.9
3039.13
3025.77
3009.11
2989.1
2964.73
2935.99
2901.57
2861.68
2814.93
2761.8
2700.79
2632.63
2555.32
2470.63
2377.23
2277.73
2168.8
2066.06
1879.09
2790
2790
2790
2790
2790
2790
2790
2790
2790
2790.02
2790.65
2796.57
2813.27
2830.07
2836.44
2836.17
2829.77
2822.08
2818.13
2816.6
2815.27
2813.04
2809.84
2806.6
2804.05
2801.96
2800.03
2798.26
2796.98
2796.46
2796.88
2799.81
2804.98
2809.34
2811.9
2813.36
2814.57
2816.04
2817.91
2820.01
2822.19
2824.46
2826.83
2829.32
2831.97
2834.77
2837.67
2840.65
2843.71
2846.84
2850.08
2853.42
2856.88
2860.48
2864.23
2868.16
2872.27
2876.56
2881.01
2885.63
2890.4
2895.33
2900.43
2905.7
2911.13
2916.71
2922.46
2928.36
2934.42
2940.64
2947
2953.51
2960.14
2966.9
2973.78
2980.78
2987.87
2995.03
3002.25
3009.51
3016.79
3024.07
3031.33
3038.54
3045.68
3052.72
3059.64
3066.39
3072.95
3079.24
3085.2
3090.78
3095.9
3100.49
3104.46
3107.62
3109.95
3111.27
3111.57
3110.34
3107.55
3102.92
3096.14
3087.07
3075.05
3059.95
3040.85
3017.73
2989.41
2956.01
2916.18
2870.1
2816.16
2754.6
2683.57
2603.93
2513.69
2414.16
2306.37
2189.15
2000.68
2790
2790
2790
2790
2790
2790
2790
2790
2790
2790.01
2790.31
2794.27
2809.13
2827.9
2836.48
2837.32
2832.71
2825.26
2821.08
2819.63
2818.61
2816.84
2813.95
2810.79
2808.3
2806.38
2804.69
2803.16
2801.9
2801.24
2801.23
2802.97
2807.65
2812.63
2815.94
2817.87
2819.27
2820.82
2822.76
2824.99
2827.33
2829.77
2832.31
2834.98
2837.8
2840.77
2843.84
2846.99
2850.2
2853.5
2856.89
2860.39
2864.02
2867.77
2871.69
2875.79
2880.08
2884.55
2889.2
2894.02
2899
2904.15
2909.47
2914.97
2920.65
2926.49
2932.51
2938.69
2945.05
2951.57
2958.26
2965.11
2972.11
2979.25
2986.53
2993.96
3001.5
3009.15
3016.88
3024.69
3032.56
3040.48
3048.42
3056.35
3064.27
3072.15
3079.96
3087.68
3095.28
3102.7
3109.91
3116.83
3123.4
3129.58
3135.26
3140.37
3144.81
3148.37
3151.01
3152.55
3152.95
3151.68
3148.65
3143.56
3135.93
3125.67
3111.99
3094.85
3073.16
3046.91
3014.57
2976.17
2930.15
2876.66
2813.87
2741.58
2657.52
2564.81
2459.42
2350.45
2172.2
2790
2790
2790
2790
2790
2790
2790
2790
2790
2790
2790.15
2792.76
2805.55
2825.46
2836.13
2838.35
2835.29
2828.14
2823.67
2822.28
2821.58
2820.32
2817.82
2814.8
2812.41
2810.63
2809.15
2807.86
2806.74
2806.05
2805.81
2806.74
2810.55
2815.76
2819.77
2822.2
2823.85
2825.48
2827.47
2829.8
2832.28
2834.87
2837.57
2840.41
2843.4
2846.53
2849.77
2853.08
2856.46
2859.9
2863.45
2867.11
2870.89
2874.8
2878.87
2883.13
2887.59
2892.24
2897.07
2902.08
2907.26
2912.62
2918.15
2923.88
2929.78
2935.87
2942.13
2948.57
2955.2
2962.01
2969
2976.17
2983.5
2991
2998.66
3006.47
3014.43
3022.52
3030.73
3039.05
3047.45
3055.94
3064.49
3073.09
3081.71
3090.33
3098.95
3107.54
3116.07
3124.5
3132.8
3140.91
3148.78
3156.37
3163.59
3170.39
3176.66
3182.32
3187.25
3191.22
3194.18
3195.92
3196.38
3195
3191.58
3185.9
3177.34
3165.77
3150.1
3130.22
3104.63
3073.29
3034.36
2987.91
2932.28
2867.05
2790.57
2703.28
2601.48
2493.48
2329.35
2790
2790
2790
2790
2790
2790
2790
2790
2790
2790
2790.08
2791.83
2802.7
2823.04
2835.61
2839.35
2837.37
2830.43
2825.94
2824.7
2824.33
2823.58
2821.5
2818.68
2816.37
2814.71
2813.38
2812.29
2811.39
2810.76
2810.47
2810.96
2813.85
2818.92
2823.48
2826.44
2828.37
2830.1
2832.13
2834.52
2837.11
2839.82
2842.66
2845.66
2848.8
2852.09
2855.49
2858.95
2862.47
2866.07
2869.75
2873.56
2877.48
2881.55
2885.77
2890.19
2894.81
2899.63
2904.63
2909.82
2915.19
2920.74
2926.48
2932.4
2938.52
2944.83
2951.32
2958.01
2964.89
2971.96
2979.23
2986.68
2994.32
3002.14
3010.14
3018.3
3026.64
3035.14
3043.77
3052.53
3061.42
3070.42
3079.52
3088.7
3097.94
3107.24
3116.58
3125.94
3135.3
3144.63
3153.9
3163.07
3172.1
3180.94
3189.53
3197.84
3205.76
3213.23
3220.14
3226.37
3231.83
3236.24
3239.54
3241.5
3242.04
3240.54
3236.69
3230.14
3220.04
3206.3
3187.57
3163.76
3132.99
3095.32
3048.52
2991.67
2922.67
2839.62
2743.13
2631.84
2479.68
2790
2790
2790
2790
2790
2790
2790
2790
2790
2790
2790.04
2791.28
2800.61
2820.93
2835.25
2840.23
2838.81
2832.28
2828.01
2827
2826.93
2826.66
2824.99
2822.38
2820.14
2818.55
2817.34
2816.43
2815.75
2815.31
2815.1
2815.41
2817.59
2822.26
2827.18
2830.64
2832.87
2834.71
2836.77
2839.21
2841.88
2844.68
2847.63
2850.75
2854.04
2857.46
2861
2864.6
2868.25
2871.97
2875.8
2879.74
2883.8
2888.01
2892.38
2896.94
2901.72
2906.7
2911.87
2917.22
2922.77
2928.5
2934.42
2940.54
2946.86
2953.37
2960.08
2966.99
2974.1
2981.42
2988.93
2996.66
3004.57
3012.69
3020.99
3029.48
3038.15
3047.01
3056.03
3065.2
3074.52
3083.97
3093.56
3103.26
3113.07
3122.97
3132.95
3142.99
3153.08
3163.21
3173.34
3183.44
3193.48
3203.42
3213.22
3222.83
3232.2
3241.26
3249.91
3258.09
3265.67
3272.53
3278.56
3283.44
3287.1
3289.27
3289.82
3288
3283.41
3275.78
3264.04
3248
3225.77
3197.29
3159.99
3113.55
3054.8
2981.16
2893.03
2784.18
2638.68
2790
2790
2790
2790
2790
2790
2790
2790
2790
2790
2790.03
2790.99
2799.24
2819.34
2835.12
2840.88
2839.79
2833.87
2829.94
2829.2
2829.4
2829.53
2828.23
2825.84
2823.67
2822.14
2821.03
2820.28
2819.84
2819.62
2819.59
2819.92
2821.66
2825.82
2830.92
2834.82
2837.34
2839.31
2841.42
2843.9
2846.64
2849.51
2852.54
2855.75
2859.14
2862.68
2866.33
2870.04
2873.81
2877.64
2881.59
2885.65
2889.84
2894.18
2898.69
2903.4
2908.33
2913.46
2918.78
2924.3
2930.01
2935.91
2942.01
2948.32
2954.82
2961.52
2968.43
2975.54
2982.87
2990.41
2998.16
3006.12
3014.29
3022.67
3031.25
3040.03
3049.02
3058.2
3067.56
3077.09
3086.8
3096.66
3106.68
3116.85
3127.15
3137.58
3148.12
3158.77
3169.51
3180.33
3191.21
3202.13
3213.05
3223.95
3234.8
3245.55
3256.18
3266.61
3276.8
3286.67
3296.13
3305.08
3313.41
3320.96
3327.63
3333.03
3337.13
3339.55
3340.14
3337.97
3332.56
3323.38
3308.99
3289.14
3261.21
3224.81
3175.06
3109.76
3027.27
2922.6
2782.41
2790
2790
2790
2790
2790
2790
2790
2790
2790
2790
2790.03
2790.87
2798.53
2818.43
2835.2
2841.41
2840.56
2835.23
2831.72
2831.28
2831.82
2832.23
2831.2
2829.05
2826.98
2825.53
2824.53
2823.92
2823.68
2823.69
2823.88
2824.34
2825.85
2829.56
2834.67
2838.92
2841.75
2843.88
2846.07
2848.61
2851.4
2854.33
2857.41
2860.68
2864.13
2867.75
2871.48
2875.28
2879.14
2883.08
2887.12
2891.29
2895.61
2900.07
2904.71
2909.56
2914.62
2919.9
2925.38
2931.05
2936.91
2942.98
2949.24
2955.72
2962.39
2969.27
2976.36
2983.66
2991.19
2998.93
3006.89
3015.07
3023.47
3032.09
3040.93
3049.97
3059.24
3068.71
3078.38
3088.24
3098.28
3108.51
3118.92
3129.5
3140.24
3151.13
3162.17
3173.35
3184.66
3196.1
3207.63
3219.26
3230.96
3242.69
3254.45
3266.19
3277.9
3289.53
3301.03
3312.35
3323.42
3334.17
3344.5
3354.3
3363.47
3371.82
3379.25
3385.27
3389.8
3392.4
3392.89
3389.97
3383.07
3371.45
3353.37
3328.46
3291.9
3241.17
3168.72
3071.03
2934.94
2790
2790
2790
2790
2790
2790
2790
2790
2790
2790
2790.03
2790.85
2798.41
2818.28
2835.43
2841.92
2841.2
2836.39
2833.35
2833.27
2834.18
2834.78
2833.92
2832.02
2830.11
2828.8
2827.91
2827.43
2827.33
2827.56
2827.96
2828.55
2829.97
2833.36
2838.4
2842.93
2846.04
2848.37
2850.67
2853.29
2856.14
2859.11
2862.22
2865.52
2869.02
2872.69
2876.47
2880.34
2884.27
2888.28
2892.41
2896.69
2901.11
2905.68
2910.45
2915.43
2920.63
2926.05
2931.67
2937.48
2943.5
2949.71
2956.14
2962.77
2969.61
2976.65
2983.91
2991.39
2999.1
3007.03
3015.19
3023.57
3032.19
3041.03
3050.1
3059.38
3068.9
3078.64
3088.58
3098.74
3109.09
3119.65
3130.4
3141.35
3152.48
3163.79
3175.27
3186.93
3198.74
3210.71
3222.82
3235.07
3247.44
3259.9
3272.45
3285.05
3297.69
3310.35
3322.97
3335.54
3347.99
3360.28
3372.32
3384.06
3395.38
3406.18
3416.33
3425.61
3433.9
3440.58
3445.7
3448.61
3449.12
3445.51
3437.44
3423.52
3400.34
3364.74
3304.64
3220.8
3088.57
2790
2790
2790
2790
2790
2790
2790
2790
2790
2790
2790.03
2790.89
2798.7
2818.87
2835.98
2842.41
2841.72
2837.39
2834.88
2835.15
2836.49
2837.16
2836.43
2834.78
2833.11
2831.98
2831.21
2830.82
2830.87
2831.24
2831.8
2832.51
2833.94
2837.13
2842.07
2846.8
2850.2
2852.72
2855.17
2857.89
2860.81
2863.81
2866.93
2870.25
2873.76
2877.46
2881.28
2885.19
2889.17
2893.25
2897.46
2901.82
2906.34
2911.03
2915.91
2921.02
2926.35
2931.91
2937.66
2943.61
2949.77
2956.13
2962.7
2969.48
2976.47
2983.67
2991.09
2998.74
3006.61
3014.72
3023.06
3031.63
3040.45
3049.49
3058.77
3068.28
3078.03
3088.01
3098.21
3108.63
3119.27
3130.12
3141.18
3152.46
3163.94
3175.62
3187.5
3199.57
3211.83
3224.28
3236.91
3249.7
3262.66
3275.76
3288.99
3302.34
3315.8
3329.33
3342.93
3356.57
3370.2
3383.79
3397.3
3410.66
3423.81
3436.68
3449.15
3461.11
3472.43
3482.84
3492.26
3499.87
3505.77
3508.83
3508.99
3503.63
3492.64
3472.1
3430.9
3372.29
3259.36
2790
2790
2790
2790
2790
2790
2790
2790
2790
2790
2790.03
2791.04
2799.59
2820.21
2836.83
2842.89
2842.18
2838.3
2836.37
2837.01
2838.68
2839.34
2838.71
2837.32
2835.95
2835.06
2834.42
2834.14
2834.32
2834.81
2835.47
2836.28
2837.78
2840.88
2845.73
2850.6
2854.22
2856.93
2859.52
2862.33
2865.3
2868.33
2871.47
2874.79
2878.33
2882.04
2885.89
2889.83
2893.86
2897.99
2902.27
2906.71
2911.32
2916.11
2921.11
2926.34
2931.8
2937.48
2943.36
2949.45
2955.74
2962.24
2968.96
2975.88
2983.02
2990.37
2997.93
3005.73
3013.77
3022.04
3030.55
3039.31
3048.3
3057.54
3067.02
3076.74
3086.7
3096.9
3107.34
3118
3128.9
3140.02
3151.37
3162.95
3174.75
3186.77
3199.01
3211.46
3224.12
3237
3250.08
3263.37
3276.85
3290.52
3304.36
3318.37
3332.53
3346.84
3361.29
3375.85
3390.49
3405.21
3419.96
3434.7
3449.4
3464
3478.44
3492.67
3506.52
3519.92
3532.65
3544.43
3555.12
3563.73
3570.6
3574.21
3574.86
3567.39
3547.29
3513.48
3440.39
2790
2790
2790
2790
2790
2790
2790
2790
2790
2790
2790.05
2791.35
2801.05
2822.16
2837.85
2843.35
2842.59
2839.16
2837.85
2838.96
2840.8
2841.34
2840.77
2839.62
2838.59
2837.96
2837.5
2837.36
2837.67
2838.26
2839.01
2839.93
2841.51
2844.61
2849.41
2854.33
2858.09
2860.94
2863.63
2866.52
2869.55
2872.61
2875.76
2879.11
2882.67
2886.41
2890.28
2894.25
2898.31
2902.49
2906.84
2911.36
2916.05
2920.94
2926.05
2931.4
2936.98
2942.79
2948.79
2955
2961.43
2968.06
2974.91
2981.97
2989.24
2996.73
3004.44
3012.39
3020.58
3029.01
3037.68
3046.61
3055.78
3065.2
3074.86
3084.78
3094.94
3105.35
3116.01
3126.91
3138.04
3149.42
3161.04
3172.9
3185
3197.33
3209.9
3222.7
3235.74
3249.01
3262.51
3276.24
3290.2
3304.38
3318.77
3333.37
3348.17
3363.16
3378.35
3393.72
3409.25
3424.93
3440.74
3456.67
3472.67
3488.73
3504.81
3520.87
3536.83
3552.63
3568.11
3583.2
3597.72
3611.38
3623.95
3634.24
3642.78
3646.8
3645.81
3630.71
3604.22
2790
2790
2790
2790
2790
2790
2790
2790
2790
2790
2790.08
2791.87
2803.11
2824.61
2838.97
2843.74
2842.9
2840.05
2839.37
2840.99
2842.87
2843.22
2842.67
2841.71
2841.01
2840.63
2840.4
2840.45
2840.9
2841.6
2842.45
2843.5
2845.2
2848.36
2853.09
2857.99
2861.78
2864.68
2867.44
2870.4
2873.47
2876.57
2879.76
2883.15
2886.75
2890.52
2894.41
2898.41
2902.51
2906.75
2911.16
2915.75
2920.53
2925.52
2930.73
2936.2
2941.9
2947.83
2953.95
2960.28
2966.83
2973.6
2980.57
2987.76
2995.16
3002.78
3010.63
3018.72
3027.05
3035.63
3044.46
3053.55
3062.88
3072.47
3082.32
3092.41
3102.77
3113.38
3124.24
3135.36
3146.72
3158.33
3170.2
3182.32
3194.69
3207.31
3220.19
3233.31
3246.69
3260.32
3274.21
3288.35
3302.74
3317.37
3332.26
3347.38
3362.75
3378.35
3394.19
3410.27
3426.57
3443.08
3459.81
3476.73
3493.84
3511.12
3528.55
3546.11
3563.77
3581.51
3599.21
3616.87
3634.27
3651.38
3667.86
3683.56
3698.13
3710.3
3720.17
3722.49
3724.61
2790
2790
2790
2790
2790
2790
2790
2790
2790
2790
2790.14
2792.68
2805.77
2827.38
2840.13
2844.03
2843.12
2840.96
2840.94
2843.1
2844.89
2845.02
2844.46
2843.67
2843.24
2843.09
2843.09
2843.37
2843.97
2844.8
2845.77
2846.95
2848.79
2852.02
2856.7
2861.48
2865.21
2868.12
2870.91
2873.91
2877.03
2880.19
2883.45
2886.9
2890.55
2894.36
2898.3
2902.32
2906.46
2910.76
2915.23
2919.89
2924.76
2929.84
2935.16
2940.74
2946.56
2952.6
2958.84
2965.29
2971.96
2978.84
2985.94
2993.25
3000.77
3008.52
3016.5
3024.73
3033.2
3041.92
3050.9
3060.14
3069.63
3079.39
3089.4
3099.67
3110.21
3121.01
3132.07
3143.39
3154.97
3166.81
3178.91
3191.28
3203.91
3216.81
3229.98
3243.41
3257.11
3271.08
3285.32
3299.84
3314.63
3329.69
3345.02
3360.63
3376.5
3392.65
3409.08
3425.77
3442.74
3459.98
3477.48
3495.25
3513.27
3531.54
3550.06
3568.82
3587.8
3606.98
3626.32
3645.78
3665.25
3684.73
3703.94
3722.87
3740.91
3758.09
3772.63
3783.52
3795.73
2790
2790
2790
2790
2790
2790
2790
2790
2790
2790.01
2790.25
2793.87
2809
2830.3
2841.27
2844.24
2843.38
2841.88
2842.51
2845.21
2846.82
2846.75
2846.17
2845.55
2845.33
2845.37
2845.59
2846.09
2846.84
2847.81
2848.91
2850.22