/*--------------------------------*- C++ -*----------------------------------*\
| =========                 |                                                 |
| \\      /  F ield         | OpenFOAM: The Open Source CFD Toolbox           |
|  \\    /   O peration     | Version:  2406                                  |
|   \\  /    A nd           | Website:  www.openfoam.com                      |
|    \\/     M anipulation  |                                                 |
\*---------------------------------------------------------------------------*/
FoamFile
{
    version     2.0;
    format      ascii;
    arch        "LSB;label=32;scalar=64";
    class       volScalarField;
    location    "0.043";
    object      p;
}
// * * * * * * * * * * * * * * * * * * * * * * * * * * * * * * * * * * * * * //

dimensions      [1 -1 -2 0 0 0 0];

internalField   nonuniform List<scalar> 
78650
(
3407.94
2859.32
2822.97
2820.13
2819.98
2819.18
2816.59
2810.57
2801.5
2792.16
2784.57
2778.43
2772.78
2766.76
2760.17
2753.44
2747.32
2742.39
2738.68
2735.87
2733.52
2731.27
2728.88
2726.29
2723.54
2720.76
2718.07
2715.52
2713.13
2710.92
2708.87
2707.02
2705.36
2703.9
2702.62
2701.48
2700.45
2699.51
2698.62
2697.78
2696.97
2696.16
2695.35
2694.5
2693.6
2692.62
2691.54
2690.34
2688.99
2687.49
2685.79
2683.85
2681.65
2679.14
2676.31
2673.12
2669.52
2665.44
2660.83
2655.62
2649.76
2643.2
2635.87
2627.71
2618.66
2608.65
2597.58
2585.4
2571.98
2557.29
2541.26
2523.79
2504.82
2484.23
2461.91
2437.88
2412.1
2384.53
2355.25
2324.19
2291.38
2256.9
2220.69
2182.94
2143.6
2102.82
2060.79
2017.71
1974.44
1930.08
1885.21
1839.14
1794.24
1750.53
1706.24
1662.91
1621.04
1581.82
1542.98
1505.6
1471.72
1441.31
1413.1
1385.55
1360.69
1335.74
1311.6
1287.08
1263.68
1242.18
1223.25
1206.33
1190.63
1176.63
1163.99
1152.88
1142.82
1133.22
1123.97
1116.07
1099.79
3393.64
2862.79
2827.89
2824.73
2824.23
2823.63
2821.97
2817.25
2808.79
2798.94
2790.46
2783.78
2778.13
2772.5
2766.38
2759.9
2753.68
2748.38
2744.25
2741.16
2738.7
2736.46
2734.16
2731.66
2728.98
2726.27
2723.63
2721.15
2718.85
2716.75
2714.82
2713.11
2711.6
2710.32
2709.22
2708.27
2707.46
2706.76
2706.12
2705.54
2704.99
2704.48
2703.97
2703.45
2702.89
2702.27
2701.58
2700.79
2699.88
2698.84
2697.64
2696.24
2694.6
2692.71
2690.52
2688.02
2685.15
2681.88
2678.12
2673.84
2668.97
2663.46
2657.25
2650.29
2642.52
2633.87
2624.24
2613.6
2601.83
2588.9
2574.7
2559.07
2541.97
2523.31
2503.05
2481.24
2457.78
2432.62
2405.77
2377.1
2346.64
2314.43
2280.45
2244.86
2207.55
2168.86
2128.79
2087.28
2044.58
2000.64
1956.16
1912.39
1868.42
1824.76
1780.94
1737.24
1692.84
1650.97
1611.93
1573.77
1536.9
1500.66
1467.48
1436.24
1406.67
1379.13
1353.53
1329.51
1307.63
1286.35
1265.92
1245.48
1225.8
1207.21
1189.57
1173.47
1159.04
1146.11
1135.02
1125.49
1106.3
3381.09
2864.84
2835.02
2830.42
2828.77
2828.4
2827.47
2824.14
2816.72
2806.72
2797.27
2789.73
2783.68
2778.17
2772.47
2766.41
2760.33
2754.81
2750.29
2746.82
2744.15
2741.85
2739.59
2737.18
2734.59
2731.95
2729.37
2726.96
2724.74
2722.74
2720.94
2719.36
2718
2716.88
2715.96
2715.21
2714.62
2714.15
2713.75
2713.43
2713.16
2712.94
2712.73
2712.53
2712.32
2712.07
2711.76
2711.38
2710.91
2710.32
2709.61
2708.74
2707.66
2706.36
2704.81
2702.98
2700.84
2698.33
2695.41
2692.01
2688.08
2683.58
2678.45
2672.62
2666.06
2658.68
2650.42
2641.22
2630.98
2619.63
2607.08
2593.22
2578.03
2561.43
2543.34
2523.74
2502.47
2479.48
2454.75
2428.2
2399.84
2369.7
2337.75
2304.07
2268.63
2231.75
2193.16
2153.34
2112.24
2069.95
2026.65
1982.65
1938.07
1894
1849.4
1806.11
1763.84
1720.68
1679
1636.99
1597.66
1559.36
1521.97
1487.28
1454.17
1422.51
1392.32
1363.96
1338.85
1316.39
1296.09
1276.31
1257.25
1238.75
1221.23
1204.58
1189.01
1174.39
1161.42
1149.43
1125
3368.71
2869.96
2841.53
2836.22
2833.69
2833.29
2832.86
2830.72
2824.71
2815.1
2804.86
2796.25
2789.49
2783.8
2778.35
2772.77
2767.09
2761.62
2756.82
2752.96
2749.96
2747.51
2745.23
2742.88
2740.39
2737.84
2735.33
2733
2730.86
2728.94
2727.25
2725.8
2724.57
2723.61
2722.85
2722.29
2721.92
2721.66
2721.5
2721.43
2721.43
2721.48
2721.57
2721.69
2721.8
2721.9
2721.96
2721.98
2721.92
2721.78
2721.54
2721.17
2720.65
2719.91
2718.97
2717.79
2716.33
2714.57
2712.45
2709.91
2706.91
2703.39
2699.3
2694.59
2689.22
2683.11
2676.21
2668.45
2659.74
2650.02
2639.21
2627.2
2613.97
2599.36
2583.29
2565.71
2546.5
2525.64
2503.16
2478.96
2453.05
2425.4
2395.94
2364.67
2331.61
2296.89
2260.37
2222.61
2183.19
2142.21
2099.93
2056.1
2011.69
1966.78
1921.52
1875.5
1830.82
1785.05
1741.29
1697.94
1656.16
1616.39
1577.05
1540.5
1505.37
1472.66
1441.31
1410.01
1380.59
1352.68
1326.93
1303.08
1280.99
1261.16
1243.89
1228.33
1213.5
1199.22
1186.31
1175.35
1155.28
3352.91
2875.9
2848.38
2842.24
2838.71
2837.91
2837.64
2836.4
2831.97
2823.36
2812.88
2803.3
2795.6
2789.42
2784
2778.85
2773.71
2768.59
2763.77
2759.61
2756.25
2753.53
2751.14
2748.81
2746.41
2743.95
2741.54
2739.29
2737.23
2735.41
2733.83
2732.48
2731.4
2730.58
2729.97
2729.6
2729.43
2729.4
2729.47
2729.65
2729.92
2730.25
2730.63
2731.05
2731.49
2731.94
2732.37
2732.78
2733.14
2733.43
2733.65
2733.77
2733.78
2733.61
2733.27
2732.73
2731.95
2730.91
2729.57
2727.86
2725.73
2723.16
2720.08
2716.45
2712.21
2707.31
2701.69
2695.28
2688.01
2679.82
2670.62
2660.32
2648.85
2636.1
2622
2606.54
2589.6
2571.16
2551.19
2529.53
2506.14
2480.94
2453.86
2424.92
2394.14
2361.54
2327.07
2291.09
2253.16
2214.08
2173.54
2131.9
2089.48
2045.22
2001.29
1956.51
1912.41
1865.91
1819.76
1775.19
1730.79
1688.84
1647.11
1607.24
1569.02
1532.39
1498.67
1465.2
1433.28
1402.19
1373.34
1345.73
1319.38
1294.08
1270.52
1249.5
1230.38
1212.18
1195.13
1180.8
1151.19
3330.91
2882.67
2856.17
2848.29
2843.34
2841.66
2841.29
2840.69
2837.77
2830.75
2820.92
2810.82
2802.13
2795.16
2789.45
2784.54
2780
2775.49
2771.01
2766.81
2763.14
2760.07
2757.45
2755.04
2752.67
2750.3
2748
2745.84
2743.87
2742.14
2740.67
2739.43
2738.47
2737.79
2737.33
2737.15
2737.16
2737.34
2737.65
2738.06
2738.57
2739.17
2739.84
2740.56
2741.32
2742.1
2742.89
2743.68
2744.43
2745.15
2745.82
2746.42
2746.92
2747.3
2747.53
2747.61
2747.48
2747.14
2746.55
2745.64
2744.38
2742.72
2740.61
2738.03
2734.91
2731.19
2726.84
2721.78
2715.95
2709.3
2701.72
2693.14
2683.51
2672.7
2660.66
2647.35
2632.61
2616.39
2598.6
2579.13
2557.95
2535.03
2510.35
2483.9
2455.64
2425.52
2393.55
2359.95
2324.44
2287.59
2248.75
2208.36
2166.19
2122.73
2079.17
2034.71
1990
1944.72
1899.48
1855.03
1809.81
1765.38
1722.12
1678.8
1638.66
1598.95
1561.95
1526.1
1491.17
1458.3
1428.38
1401.15
1375.85
1350.71
1325.99
1302.29
1280.84
1260.57
1241.26
1223.29
1187.72
3300.28
2887.54
2864.12
2855.32
2848.58
2845.44
2844.52
2843.94
2841.93
2836.8
2828.5
2818.52
2809.03
2801.15
2794.89
2789.96
2785.86
2782.04
2778.2
2774.32
2770.58
2767.2
2764.26
2761.65
2759.22
2756.9
2754.69
2752.64
2750.79
2749.16
2747.8
2746.66
2745.83
2745.26
2744.96
2744.94
2745.14
2745.53
2746.05
2746.7
2747.46
2748.33
2749.27
2750.29
2751.37
2752.49
2753.63
2754.79
2755.94
2757.07
2758.18
2759.25
2760.26
2761.17
2761.97
2762.63
2763.14
2763.47
2763.6
2763.48
2763.04
2762.28
2761.11
2759.53
2757.46
2754.87
2751.72
2747.93
2743.45
2738.23
2732.17
2725.21
2717.28
2708.29
2698.16
2686.82
2674.15
2660.11
2644.65
2627.66
2609.14
2589
2567.15
2543.52
2518.05
2490.65
2461.37
2430.22
2397.04
2362.18
2325.23
2286.97
2246.89
2205.63
2162.9
2119.09
2073.13
2027.11
1980.27
1933.58
1886.05
1838.9
1794.49
1749.44
1706.23
1663.91
1623.53
1584.71
1545.88
1508.68
1472.97
1440.52
1411.08
1383.32
1356.83
1331.27
1307.98
1287.58
1270.3
1255.81
1227.32
3260.1
2887.95
2871.13
2863.19
2855.82
2850.69
2848.1
2846.79
2844.88
2841.31
2834.92
2825.87
2816.18
2807.55
2800.61
2795.37
2791.43
2788.16
2785.08
2781.86
2778.43
2774.96
2771.73
2768.82
2766.2
2763.8
2761.63
2759.67
2757.94
2756.42
2755.17
2754.14
2753.43
2752.97
2752.83
2752.96
2753.34
2753.91
2754.65
2755.53
2756.53
2757.64
2758.86
2760.17
2761.54
2762.98
2764.46
2765.98
2767.51
2769.05
2770.59
2772.11
2773.59
2775.01
2776.35
2777.59
2778.72
2779.71
2780.52
2781.12
2781.48
2781.58
2781.32
2780.73
2779.72
2778.21
2776.23
2773.7
2770.55
2766.76
2762.22
2756.89
2750.68
2743.49
2735.27
2725.95
2715.41
2703.64
2690.52
2675.93
2659.84
2642.12
2622.7
2601.54
2578.6
2553.78
2527.12
2498.6
2468.21
2436.14
2402.01
2366.25
2328.47
2289.56
2249.02
2207.08
2164.08
2119.84
2075.22
2029.16
1983.26
1935.8
1889.66
1842.84
1796.86
1751.73
1708.21
1667.74
1627.36
1588.41
1549.15
1511.5
1476.41
1443.53
1412.74
1382.36
1352.45
1324.29
1299.69
1278.43
1238.28
3211.49
2880.5
2873.4
2869.17
2863.83
2857.96
2853.41
2850.25
2847.6
2844.7
2839.86
2832.29
2823.21
2814.24
2806.64
2800.91
2796.83
2793.85
2791.42
2789
2786.24
2783.08
2779.79
2776.62
2773.69
2771.09
2768.85
2766.93
2765.3
2763.91
2762.78
2761.87
2761.26
2760.92
2760.91
2761.21
2761.74
2762.5
2763.45
2764.55
2765.78
2767.15
2768.63
2770.22
2771.89
2773.65
2775.46
2777.33
2779.24
2781.17
2783.13
2785.09
2787.04
2788.97
2790.84
2792.64
2794.36
2795.98
2797.47
2798.8
2799.92
2800.81
2801.42
2801.73
2801.75
2801.29
2800.44
2799.09
2797.19
2794.72
2791.59
2787.76
2783.14
2777.65
2771.24
2763.83
2755.33
2745.68
2734.77
2722.5
2708.85
2693.7
2676.98
2658.67
2638.65
2616.78
2593.05
2567.37
2539.72
2510.14
2478.42
2444.9
2409.37
2372.36
2333.16
2292.52
2250.13
2206.65
2162.3
2116.69
2070.93
2023.36
1976.17
1929.33
1882.38
1836.62
1790.82
1747.75
1705.63
1664.52
1623.62
1583.72
1546.79
1512.67
1481.97
1452.37
1423.88
1396.21
1370.73
1347.91
1305.86
3160.69
2864.79
2868.04
2868.86
2866.55
2863.28
2859.38
2854.68
2850.87
2847.66
2843.58
2837.61
2829.81
2821.08
2813.1
2806.84
2802.37
2799.35
2797.3
2795.59
2793.66
2791.21
2788.26
2785.06
2781.86
2778.92
2776.44
2774.43
2772.83
2771.54
2770.54
2769.76
2769.26
2769.06
2769.18
2769.63
2770.3
2771.25
2772.39
2773.7
2775.16
2776.76
2778.5
2780.35
2782.31
2784.36
2786.5
2788.71
2790.97
2793.28
2795.63
2798.02
2800.42
2802.82
2805.2
2807.54
2809.83
2812.05
2814.18
2816.2
2818.06
2819.74
2821.2
2822.39
2823.29
2823.89
2824.12
2823.94
2823.28
2822.14
2820.4
2818.06
2815.03
2811.22
2806.61
2801.08
2794.56
2787
2778.29
2768.35
2757.13
2744.49
2730.37
2714.7
2697.35
2678.24
2657.39
2634.71
2610.22
2583.86
2555.49
2525.28
2492.92
2458.63
2422.08
2384.21
2344.37
2303.01
2259.84
2215.55
2169.88
2123.25
2074.43
2026.08
1976.58
1928.05
1878.78
1831.42
1785.78
1740.72
1696.55
1652.21
1609.56
1569.1
1532.03
1496.91
1464.15
1432.62
1403.48
1378.82
1326.01
3119.34
2839.64
2852.24
2862.67
2865.23
2864.85
2862.54
2858.59
2854.48
2850.69
2846.75
2842.16
2835.94
2828.14
2820.24
2813.48
2808.37
2804.95
2802.92
2801.62
2800.42
2798.83
2796.61
2793.78
2790.57
2787.34
2784.53
2782.29
2780.6
2779.35
2778.44
2777.8
2777.39
2777.31
2777.59
2778.17
2778.99
2780.11
2781.44
2782.96
2784.64
2786.47
2788.46
2790.57
2792.81
2795.16
2797.61
2800.14
2802.76
2805.44
2808.18
2810.97
2813.81
2816.68
2819.55
2822.41
2825.25
2828.06
2830.81
2833.49
2836.06
2838.48
2840.73
2842.79
2844.61
2846.16
2847.38
2848.26
2848.75
2848.86
2848.42
2847.49
2845.94
2843.68
2840.73
2836.95
2832.32
2826.77
2820.19
2812.5
2803.64
2793.48
2781.95
2769.01
2754.54
2738.48
2720.77
2701.25
2679.84
2656.5
2631.19
2603.95
2574.44
2542.89
2509.41
2474.58
2437.48
2398.45
2357.4
2315.46
2272.43
2227.8
2181.81
2134.17
2086.63
2038.55
1990.74
1942.24
1896.18
1849.96
1805.24
1759.64
1714.77
1670.19
1628.72
1588.98
1551.84
1515.55
1479.92
1447.12
1382.49
3094.33
2814.84
2826.9
2844.85
2856.34
2861.52
2861.66
2859.6
2856.28
2852.11
2848.54
2845.26
2840.96
2834.94
2827.86
2820.9
2815.12
2811.08
2808.71
2807.42
2806.58
2805.69
2804.33
2802.27
2799.48
2796.24
2793.14
2790.56
2788.64
2787.3
2786.43
2785.88
2785.59
2785.61
2786.06
2786.79
2787.76
2789.03
2790.55
2792.26
2794.15
2796.21
2798.42
2800.79
2803.29
2805.91
2808.66
2811.51
2814.45
2817.48
2820.59
2823.77
2827.03
2830.33
2833.67
2837.02
2840.39
2843.75
2847.09
2850.39
2853.63
2856.77
2859.78
2862.64
2865.32
2867.79
2870.01
2871.95
2873.54
2874.78
2875.62
2876.02
2875.97
2875.24
2873.95
2871.91
2869.12
2865.5
2860.95
2855.42
2848.82
2841.04
2832.05
2821.74
2809.98
2796.73
2781.87
2765.25
2746.85
2726.65
2704.56
2680.47
2654.16
2625.88
2595.71
2563.7
2529.06
2492.32
2453.55
2413.65
2372.01
2328.45
2282.66
2235.35
2187.29
2138.16
2089.65
2038.12
1988.58
1938.76
1891.45
1843.63
1796.98
1750.47
1706.16
1664.81
1627.43
1592.76
1560.74
1532.62
1475.41
3084.41
2806.55
2809.71
2821.27
2835.67
2848.57
2855.5
2857.12
2855.29
2851.99
2848.84
2845.84
2842.84
2839.42
2834.3
2828.12
2822.15
2817.53
2814.57
2812.93
2812.13
2811.64
2810.99
2809.85
2807.93
2805.18
2802.12
2799.29
2797.07
2795.51
2794.56
2794.04
2793.83
2793.92
2794.52
2795.41
2796.53
2797.96
2799.65
2801.55
2803.64
2805.92
2808.36
2810.97
2813.73
2816.62
2819.65
2822.81
2826.08
2829.45
2832.91
2836.48
2840.12
2843.85
2847.64
2851.47
2855.34
2859.23
2863.14
2867.04
2870.91
2874.72
2878.46
2882.09
2885.59
2888.92
2892.06
2894.97
2897.62
2899.97
2901.99
2903.61
2904.81
2905.53
2905.76
2905.35
2904.29
2902.51
2899.87
2896.43
2892.03
2886.59
2880.06
2872.32
2863.25
2852.83
2840.93
2827.42
2812.29
2795.46
2776.81
2756.27
2733.75
2709.33
2682.81
2654.16
2623.11
2590.23
2555.25
2518.48
2479.56
2438.88
2396.11
2351.74
2305.91
2259.11
2210.85
2161.76
2111.17
2060.9
2010.79
1961.27
1910.81
1860.14
1808.95
1759.99
1711.99
1667.73
1626.11
1587.67
1511.76
3085.34
2809.52
2803.07
2805.75
2813.29
2826.12
2838.87
2846.86
2849.11
2848.18
2845.99
2844.06
2842.38
2840.37
2837.52
2833.47
2828.68
2824.18
2820.72
2818.55
2817.49
2817.1
2816.84
2816.43
2815.52
2813.68
2811.11
2808.34
2805.87
2804.01
2802.84
2802.25
2802.04
2802.17
2802.88
2803.92
2805.2
2806.8
2808.67
2810.76
2813.05
2815.53
2818.19
2821.03
2824.03
2827.19
2830.49
2833.93
2837.5
2841.19
2844.99
2848.91
2852.93
2857.05
2861.26
2865.54
2869.88
2874.27
2878.7
2883.16
2887.63
2892.08
2896.49
2900.84
2905.11
2909.26
2913.28
2917.12
2920.76
2924.16
2927.3
2930.14
2932.64
2934.72
2936.34
2937.46
2938.02
2938.09
2937.29
2935.85
2933.53
2930.27
2926.05
2920.74
2914.27
2906.6
2897.59
2887.14
2875.2
2861.63
2846.32
2829.21
2810.23
2789.22
2765.94
2740.52
2713.13
2683.96
2652.22
2618.11
2581.76
2543.91
2504.09
2462.27
2418.23
2372.69
2325.81
2277.66
2228.53
2178.36
2127.68
2077.72
2027.83
1978.56
1927.88
1879.26
1830.17
1785.93
1745.88
1710.62
1645.9
3084.71
2813.67
2803.25
2802.99
2803.48
2807.88
2817.12
2827.73
2835.49
2839.01
2840.12
2840.27
2840.04
2839.43
2837.86
2835.55
2832.88
2829.67
2826.39
2823.88
2822.44
2821.91
2821.77
2821.78
2821.7
2820.95
2819.33
2817.09
2814.73
2812.7
2811.3
2810.55
2810.29
2810.4
2811.15
2812.33
2813.76
2815.52
2817.56
2819.84
2822.33
2825.01
2827.88
2830.94
2834.17
2837.58
2841.14
2844.85
2848.72
2852.72
2856.84
2861.1
2865.48
2869.98
2874.59
2879.3
2884.08
2888.95
2893.88
2898.87
2903.91
2908.96
2914.01
2919.04
2924.02
2928.94
2933.77
2938.48
2943.04
2947.42
2951.59
2955.53
2959.19
2962.53
2965.51
2968.06
2970.12
2971.68
2972.67
2973.06
2972.75
2971.6
2969.65
2966.7
2962.76
2957.71
2951.46
2943.91
2934.97
2924.47
2912.38
2898.64
2883.12
2865.65
2846.08
2824.62
2801.3
2775.99
2747.96
2717.54
2685.01
2650.89
2614.59
2575.96
2534.73
2491.62
2446.72
2400.32
2352.07
2302.24
2251.32
2199.41
2147.69
2095.85
2042.6
1989.92
1932.95
1879.21
1827.7
1781.08
1696.49
3081.84
2817.93
2806.31
2804.24
2802.9
2802.46
2804.01
2808.96
2815.64
2821.65
2826.24
2829.77
2832.58
2834.34
2835.2
2835.03
2834.44
2833
2830.97
2828.84
2827.3
2826.54
2826.33
2826.52
2826.97
2827.06
2826.51
2825.18
2823.33
2821.41
2819.85
2818.9
2818.51
2818.55
2819.23
2820.5
2822.06
2823.99
2826.21
2828.68
2831.37
2834.25
2837.34
2840.61
2844.07
2847.71
2851.52
2855.49
2859.63
2863.91
2868.35
2872.92
2877.63
2882.48
2887.46
2892.56
2897.77
2903.07
2908.47
2913.95
2919.5
2925.11
2930.76
2936.41
2942.06
2947.69
2953.28
2958.8
2964.21
2969.51
2974.65
2979.63
2984.4
2988.92
2993.15
2997.05
3000.57
3003.67
3006.28
3008.34
3009.82
3010.64
3010.84
3010.08
3008.53
3005.96
3002.28
2997.53
2991.52
2984.14
2975.38
2965.12
2953.22
2939.56
2924.07
2906.73
2887.38
2865.92
2842.04
2816.06
2787.84
2757.61
2724.98
2690.03
2652.55
2612.95
2571.23
2527.73
2482.31
2435.41
2387.04
2337.81
2287.72
2237.01
2186.25
2133.68
2082.58
2029.72
1979.83
1935.04
1852.83
3076.8
2822.34
2811.11
2808.29
2805.25
2803.1
2801.73
2800.98
2801.16
2803.37
2807.42
2812.77
2818.95
2825.17
2829.99
2832.68
2833.72
2833.89
2833.22
2832.35
2831.36
2830.63
2830.33
2830.48
2831.16
2831.82
2832.07
2831.78
2830.85
2829.51
2828.14
2827.14
2826.66
2826.63
2827.21
2828.48
2830.14
2832.2
2834.6
2837.26
2840.14
2843.23
2846.52
2850
2853.68
2857.55
2861.59
2865.81
2870.21
2874.77
2879.49
2884.36
2889.39
2894.57
2899.91
2905.38
2910.98
2916.7
2922.53
2928.48
2934.52
2940.65
2946.84
2953.08
2959.35
2965.64
2971.93
2978.19
2984.4
2990.53
2996.57
3002.49
3008.26
3013.86
3019.24
3024.36
3029.18
3033.66
3037.76
3041.43
3044.62
3047.23
3049.25
3050.59
3051.22
3051.13
3049.89
3047.85
3044.64
3040.24
3034.59
3027.54
3019.01
3008.89
2997.07
2983.36
2967.6
2949.84
2930.07
2908.31
2884.07
2857.49
2828.48
2797.35
2763.75
2727.81
2689.49
2649.11
2606.58
2562.16
2515.47
2467.18
2417.08
2366.1
2314
2261.09
2206.73
2151.89
2094.39
2042.37
1950.88
3070.07
2826.02
2815.95
2813.44
2810.38
2806.89
2803.48
2800.27
2796.64
2792.96
2791.9
2794.27
2800.18
2808.59
2817.72
2825.02
2829.15
2831.88
2833.47
2834.09
2834.28
2834.11
2833.97
2834.13
2834.79
2835.8
2836.72
2837.22
2837.24
2836.73
2835.86
2835.06
2834.59
2834.52
2835.02
2836.21
2837.92
2840.1
2842.64
2845.49
2848.58
2851.87
2855.37
2859.06
2862.95
2867.03
2871.31
2875.76
2880.4
2885.22
2890.21
2895.36
2900.68
2906.16
2911.82
2917.63
2923.59
2929.69
2935.93
2942.29
2948.78
2955.38
2962.08
2968.85
2975.69
2982.58
2989.5
2996.44
3003.37
3010.28
3017.13
3023.91
3030.62
3037.2
3043.64
3049.89
3055.91
3061.68
3067.15
3072.28
3077.03
3081.34
3085.16
3088.41
3091.01
3092.95
3094.12
3094.54
3093.97
3092.36
3089.66
3085.63
3080.37
3073.69
3065.49
3055.57
3043.85
3030.37
3015.07
2997.81
2978.08
2956.05
2931.76
2905.45
2876.71
2845.55
2811.81
2775.7
2737.22
2696.48
2653.37
2608.48
2561.44
2513.22
2463.16
2412.47
2360.28
2307.78
2252.25
2200.44
2110.71
3062.47
2828.89
2820.08
2818.36
2816.09
2812.5
2807.9
2802.7
2797.15
2790.5
2784.45
2781.91
2783.47
2789.65
2799.99
2811.96
2821.99
2828.22
2832.24
2834.26
2835.44
2836.28
2836.89
2837.32
2837.94
2839
2840.29
2841.45
2842.25
2842.59
2842.53
2842.27
2842.05
2842.07
2842.57
2843.68
2845.38
2847.63
2850.31
2853.33
2856.61
2860.11
2863.82
2867.72
2871.82
2876.12
2880.61
2885.29
2890.16
2895.22
2900.46
2905.88
2911.47
2917.24
2923.2
2929.33
2935.63
2942.08
2948.68
2955.44
2962.34
2969.38
2976.54
2983.8
2991.16
2998.6
3006.11
3013.67
3021.26
3028.86
3036.46
3044.03
3051.57
3059.04
3066.43
3073.69
3080.8
3087.72
3094.42
3100.87
3107.02
3112.83
3118.26
3123.24
3127.73
3131.66
3134.93
3137.51
3139.31
3140.28
3140.46
3139.33
3137.28
3133.91
3129.16
3122.97
3115.19
3105.72
3094.45
3081.23
3065.8
3048.27
3028.51
3006.6
2982.16
2955.27
2925.65
2893.52
2858.92
2821.9
2782.53
2740.92
2697.03
2651.44
2603.64
2554.76
2503.61
2452.01
2397.83
2344.06
2258.53
3055.02
2831.41
2823.46
2822.3
2821.04
2818.23
2813.34
2806.72
2799.18
2791.25
2783.13
2776.6
2773.75
2775.18
2782.07
2794.35
2808.46
2820.12
2827.63
2831.93
2834.95
2837.12
2838.78
2839.93
2840.82
2841.91
2843.34
2844.88
2846.28
2847.38
2848.13
2848.56
2848.84
2849.17
2849.78
2850.88
2852.58
2854.87
2857.64
2860.81
2864.28
2867.98
2871.89
2875.99
2880.3
2884.8
2889.5
2894.4
2899.49
2904.77
2910.25
2915.91
2921.75
2927.79
2934.02
2940.44
2947.04
2953.81
2960.75
2967.86
2975.14
2982.57
2990.14
2997.85
3005.67
3013.6
3021.63
3029.74
3037.92
3046.15
3054.41
3062.69
3070.97
3079.24
3087.48
3095.65
3103.73
3111.69
3119.5
3127.13
3134.55
3141.73
3148.6
3155.14
3161.29
3167
3172.21
3176.86
3180.89
3184.18
3186.72
3188.37
3189.13
3188.93
3187.29
3184.59
3180.39
3174.64
3167.22
3158.05
3147.06
3134.14
3118.98
3101.59
3081.77
3059.66
3034.88
3007.64
2977.79
2945.46
2910.71
2873.39
2833.73
2791.67
2747.19
2700.92
2652.02
2602.72
2549.59
2496.59
2418.02
3048.5
2833.64
2826.24
2825.48
2824.93
2822.95
2818.37
2811.23
2802.37
2792.81
2783.71
2775.46
2769.79
2767.59
2769.6
2777.74
2791.83
2807.52
2820.13
2828.25
2833.44
2836.79
2839.46
2841.63
2843.25
2844.52
2845.94
2847.61
2849.36
2851.05
2852.56
2853.79
2854.76
2855.57
2856.47
2857.68
2859.41
2861.72
2864.57
2867.86
2871.49
2875.38
2879.49
2883.8
2888.3
2893.01
2897.91
2903.01
2908.31
2913.81
2919.5
2925.39
2931.46
2937.74
2944.23
2950.91
2957.79
2964.86
2972.11
2979.54
2987.15
2994.94
3002.89
3010.99
3019.24
3027.61
3036.11
3044.72
3053.43
3062.22
3071.08
3079.98
3088.93
3097.92
3106.91
3115.89
3124.83
3133.7
3142.49
3151.17
3159.7
3168.07
3176.23
3184.15
3191.77
3199.06
3205.97
3212.45
3218.43
3223.86
3228.67
3232.76
3236.03
3238.47
3239.95
3240.5
3239.77
3237.71
3234.28
3229.24
3222.67
3214.27
3203.82
3191.29
3176.55
3159.69
3140.28
3118.49
3093.92
3066.77
3036.87
3004.24
2969.15
2931.32
2891.31
2848.65
2803.6
2756.23
2705.86
2651.74
2577.73
3043.08
2835.41
2828.65
2828.23
2828.18
2826.72
2822.31
2814.91
2805.56
2795.1
2784.88
2775.93
2768.65
2764.72
2763.67
2766.58
2776.47
2792.33
2808.77
2821.37
2829.5
2834.84
2838.97
2842.44
2845.1
2846.84
2848.35
2850.06
2852
2854.07
2856.16
2858.12
2859.82
2861.26
2862.58
2864.05
2865.88
2868.25
2871.17
2874.56
2878.33
2882.39
2886.69
2891.19
2895.89
2900.79
2905.89
2911.18
2916.68
2922.37
2928.27
2934.36
2940.66
2947.16
2953.88
2960.8
2967.94
2975.27
2982.79
2990.51
2998.43
3006.53
3014.82
3023.27
3031.89
3040.66
3049.57
3058.62
3067.79
3077.07
3086.45
3095.91
3105.44
3115.04
3124.69
3134.37
3144.06
3153.74
3163.38
3172.96
3182.47
3191.89
3201.17
3210.28
3219.2
3227.88
3236.28
3244.36
3252.07
3259.36
3266.16
3272.43
3278.08
3283.04
3287.21
3290.51
3292.85
3294.13
3294.42
3293.04
3290.47
3286.18
3280.08
3272.23
3262.27
3250.25
3235.76
3218.92
3199.22
3176.94
3151.69
3123.75
3092.99
3059.35
3023.25
2984.11
2942.79
2898.76
2852.5
2801.09
2733.62
3039.23
2837.13
2830.97
2830.76
2831.06
2829.82
2825.17
2817.33
2807.86
2797.27
2786.54
2776.86
2769.02
2763.76
2761.44
2761.48
2765.98
2778.1
2795.38
2811.76
2823.79
2831.9
2837.9
2842.6
2846.25
2848.79
2850.57
2852.3
2854.29
2856.56
2859.05
2861.61
2864.01
2866.13
2868
2869.83
2871.87
2874.35
2877.35
2880.84
2884.74
2888.95
2893.42
2898.1
2902.99
2908.08
2913.37
2918.85
2924.53
2930.41
2936.5
2942.79
2949.28
2955.99
2962.92
2970.06
2977.42
2984.99
2992.77
3000.75
3008.93
3017.32
3025.9
3034.67
3043.62
3052.73
3062.01
3071.44
3081.01
3090.73
3100.56
3110.5
3120.54
3130.68
3140.9
3151.19
3161.53
3171.9
3182.28
3192.65
3203
3213.31
3223.56
3233.71
3243.73
3253.6
3263.29
3272.75
3281.95
3290.84
3299.39
3307.52
3315.18
3322.32
3328.86
3334.73
3339.85
3344.06
3347.36
3349.54
3350.64
3350.64
3348.66
3345.54
3340.39
3333.35
3324.17
3312.81
3298.89
3282.58
3263.35
3241.53
3216.58
3188.82
3158.04
3123.81
3086.61
3045.61
3001.84
2952.34
2887.45
3037.37
2838.82
2833.2
2833.14
2833.58
2832.31
2826.91
2818.56
2809
2798.63
2788.08
2778.18
2769.84
2763.9
2760.63
2759.91
2760.88
2767.86
2782.71
2800.76
2816.27
2827.54
2835.68
2841.92
2846.84
2850.39
2852.64
2854.49
2856.48
2858.83
2861.55
2864.54
2867.55
2870.33
2872.79
2875.06
2877.4
2880.05
2883.16
2886.76
2890.77
2895.12
2899.74
2904.6
2909.66
2914.93
2920.39
2926.05
2931.91
2937.97
2944.23
2950.7
2957.38
2964.27
2971.39
2978.74
2986.3
2994.09
3002.08
3010.29
3018.72
3027.36
3036.2
3045.25
3054.48
3063.9
3073.49
3083.26
3093.19
3103.27
3113.5
3123.85
3134.33
3144.93
3155.64
3166.45
3177.35
3188.3
3199.31
3210.35
3221.41
3232.48
3243.54
3254.57
3265.53
3276.41
3287.18
3297.81
3308.27
3318.52
3328.54
3338.26
3347.66
3356.66
3365.23
3373.31
3380.82
3387.7
3393.83
3399.15
3403.44
3406.8
3408.91
3409.86
3409.33
3406.91
3402.89
3396.79
3388.43
3377.76
3364.23
3348.05
3328.51
3306.2
3280.4
3251.3
3218.67
3181.87
3141.91
3095.73
3035.46
3037.28
2840.47
2835.31
2835.38
2835.64
2834.02
2827.52
2818.71
2808.96
2798.81
2788.88
2779.44
2771.05
2764.55
2760.68
2759.28
2759.34
2762.36
2773.06
2790.24
2807.92
2822.17
2832.75
2840.83
2847.07
2851.58
2854.47
2856.55
2858.58
2860.95
2863.81
2867.09
2870.58
2873.93
2876.96
2879.72
2882.41
2885.29
2888.54
2892.25
2896.39
2900.87
2905.64
2910.65
2915.89
2921.32
2926.95
2932.78
2938.8
2945.03
2951.46
2958.1
2964.94
2972.01
2979.3
2986.83
2994.58
3002.56
3010.75
3019.17
3027.81
3036.67
3045.74
3055.03
3064.51
3074.19
3084.06
3094.12
3104.35
3114.76
3125.32
3136.03
3146.88
3157.88
3169.01
3180.26
3191.62
3203.07
3214.61
3226.21
3237.87
3249.58
3261.32
3273.08
3284.82
3296.54
3308.22
3319.82
3331.33
3342.71
3353.95
3365
3375.83
3386.4
3396.67
3406.58
3416.09
3425.13
3433.64
3441.54
3448.76
3455.18
3460.69
3465.18
3468.61
3470.73
3471.59
3470.72
3467.93
3463.24
3456.08
3446.53
3433.92
3418.59
3399.49
3377.16
3350.11
3318.22
3281.67
3238.2
3180.88
3038.83
2841.93
2837.39
2837.57
2837.4
2834.65
2827.34
2817.93
2807.83
2797.97
2788.81
2780.22
2772.34
2765.74
2761.27
2759.31
2759
2760.21
2767.25
2781.99
2800.05
2816.36
2829.25
2839.2
2846.83
2852.45
2856.12
2858.58
2860.7
2863.08
2865.98
2869.44
2873.25
2877.08
2880.63
2883.86
2886.93
2890.08
2893.52
2897.37
2901.63
2906.24
2911.15
2916.31
2921.7
2927.29
2933.09
2939.07
2945.25
2951.64
2958.23
2965.02
2972.02
2979.25
2986.7
2994.39
3002.31
3010.46
3018.83
3027.43
3036.26
3045.32
3054.6
3064.09
3073.8
3083.71
3093.82
3104.13
3114.62
3125.3
3136.16
3147.17
3158.35
3169.67
3181.16
3192.78
3204.53
3216.41
3228.39
3240.46
3252.62
3264.86
3277.17
3289.53
3301.93
3314.34
3326.76
3339.16
3351.53
3363.84
3376.08
3388.22
3400.22
3412.06
3423.71
3435.13
3446.28
3457.12
3467.61
3477.67
3487.26
3496.29
3504.7
3512.38
3519.26
3525.15
3529.97
3533.55
3535.74
3536.5
3535.21
3531.91
3526.17
3517.88
3506.26
3491.79
3472.32
3448.18
3416.89
3378.76
3325.86
3042.2
2843.15
2839.31
2839.46
2838.83
2834.45
2826.1
2815.97
2805.8
2796.41
2788.03
2780.43
2773.43
2767.25
2762.52
2759.94
2759.29
2759.97
2764.52
2776.44
2793.52
2810.79
2825.5
2837.3
2846.43
2853.1
2857.57
2860.45
2862.73
2865.14
2868.07
2871.63
2875.69
2879.89
2883.89
2887.56
2891.01
2894.45
2898.1
2902.11
2906.5
2911.24
2916.28
2921.58
2927.11
2932.85
2938.8
2944.93
2951.26
2957.79
2964.52
2971.46
2978.61
2985.98
2993.59
3001.43
3009.51
3017.81
3026.35
3035.12
3044.12
3053.35
3062.81
3072.5
3082.4
3092.52
3102.84
3113.36
3124.09
3135.01
3146.12
3157.4
3168.85
3180.47
3192.25
3204.19
3216.29
3228.52
3240.87
3253.34
3265.92
3278.61
3291.39
3304.25
3317.18
3330.17
3343.2
3356.25
3369.32
3382.39
3395.43
3408.44
3421.39
3434.26
3447.01
3459.64
3472.1
3484.38
3496.42
3508.19
3519.64
3530.72
3541.37
3551.52
3561.12
3570.07
3578.3
3585.67
3592.04
3597.31
3601.26
3603.73
3604.63
3603.29
3599.52
3593.41
3583.28
3569.24
3546.85
3519.72
3477.49
3047.96
2844.82
2840.81
2840.61
2839.23
2833.51
2823.83
2813.1
2803.1
2794.33
2786.78
2780.15
2774.16
2768.79
2764.25
2761.26
2760.24
2760.66
2763.85
2773.43
2788.72
2805.88
2821.79
2835.27
2845.87
2853.57
2858.79
2862.17
2864.68
2867.16
2870.12
2873.76
2877.99
2882.48
2886.86
2890.93
2894.72
2898.45
2902.33
2906.5
2911.03
2915.9
2921.07
2926.5
2932.17
2938.05
2944.14
2950.41
2956.88
2963.55
2970.42
2977.49
2984.77
2992.28
3000.03
3008.01
3016.23
3024.67
3033.36
3042.27
3051.43
3060.82
3070.45
3080.3
3090.38
3100.68
3111.19
3121.91
3132.84
3143.97
3155.3
3166.81
3178.5
3190.37
3202.42
3214.64
3227.02
3239.56
3252.23
3265.05
3277.98
3291.05
3304.23
3317.51
3330.89
3344.35
3357.89
3371.48
3385.13
3398.81
3412.52
3426.23
3439.94
3453.62
3467.26
3480.84
3494.34
3507.73
3520.99
3534.1
3547.02
3559.71
3572.14
3584.27
3596.03
3607.39
3618.28
3628.62
3638.33
3647.26
3655.34
3662.33
3668.21
3672.62
3675.48
3676.63
3675.37
3670.93
3660.62
3647.4
3622.47
3056.45
2846.11
2841.86
2841.24
2838.67
2831.2
2820.37
2809.59
2800.13
2792.11
2785.34
2779.56
2774.54
2770.11
2766.14
2763.09
2761.8
2761.94
2764.13
2772.24
2785.66
2801.83
2818.33
2833.21
2845.15
2853.89
2859.84
2863.73
2866.52
2869.13
2872.17
2875.88
2880.25
2884.96
2889.63
2894.02
2898.13
2902.12
2906.21
2910.55
2915.22
2920.22
2925.51
2931.06
2936.86
2942.87
2949.09
2955.5
2962.1
2968.9
2975.9
2983.1
2990.52
2998.16
3006.04
3014.15
3022.5
3031.09
3039.91
3048.97
3058.27
3067.81
3077.59
3087.6
3097.84
3108.3
3118.99
3129.89
3141
3152.33
3163.85
3175.57
3187.48
3199.58
3211.86
3224.33
3236.96
3249.76
3262.72
3275.83
3289.07
3302.46
3315.98
3329.62
3343.38
3357.24
3371.2
3385.24
3399.36
3413.54
3427.78
3442.07
3456.38
3470.72
3485.05
3499.38
3513.68
3527.94
3542.13
3556.25
3570.25
3584.14
3597.86
3611.4
3624.71
3637.75
3650.5
3662.89
3674.89
3686.43
3697.43
3707.78
3717.42
3726.16
3733.88
3740.37
3745.65
3748.92
3750.04
3747.18
3741.36
3067.53
2847.77
2842.72
2841.07
2836.98
2827.38
2815.96
2805.69
2797.12
2789.93
2783.9
2778.87
2774.68
2771.13
2767.88
2765.08
2763.62
2763.44
2764.99
2771.82
2783.84
2798.84
2815.31
2831.2
2844.4
2854.14
2860.8
2865.2
2868.31
2871.09
2874.22
2878.01
2882.48
2887.35
2892.24
2896.89
2901.26
2905.49
2909.79
2914.3
2919.11
2924.22
2929.63
2935.31
2941.22
2947.35
2953.69
2960.22
2966.94
2973.86
2980.98
2988.3
2995.84
3003.6
3011.6
3019.84
3028.32
3037.03
3045.98
3055.17
3064.61
3074.29
3084.21
3094.36
3104.75
3115.37
3126.2
3137.27
3148.55
3160.05
3171.76
3183.67
3195.77
3208.07
3220.57
3233.25
3246.12
3259.16
3272.37
3285.73
3299.25
3312.92
3326.73
3340.68
3354.76
3368.96
3383.26
3397.67
3412.18
3426.77
3441.43
3456.17
3470.96
3485.79
3500.66
3515.54
3530.43
3545.32
3560.19
3575.02
3589.79
3604.49
3619.08
3633.57
3647.9
3662.08
3676.03
3689.74
3703.17
3716.26
3728.95
3741.17
3752.86
3763.9
3774.12
3783.44
3791.75
3798.68
3804.42
3807.24
3810.91
3079.54
2848.44
2842.83
2840.18
2833.53
2822.38
2811.18
2801.82
2794.22
2787.85
2782.5
2778.11
2774.65
2771.86
2769.3
2766.87
2765.34
2764.88
2766.06
2771.74
2782.65
2796.52
2812.74
2829.42
2843.76
2854.42
2861.72
2866.59
2870.02
2873
2876.25
2880.13
2884.67
2889.65
2894.7
2899.54
2904.12
2908.56
2913.04
2917.7
2922.65
2927.89
2933.42
2939.21
2945.24
2951.5
2957.95
2964.6
2971.44
2978.47
2985.71
2993.14
3000.79
3008.68