/*--------------------------------*- C++ -*----------------------------------*\
| =========                 |                                                 |
| \\      /  F ield         | OpenFOAM: The Open Source CFD Toolbox           |
|  \\    /   O peration     | Version:  2406                                  |
|   \\  /    A nd           | Website:  www.openfoam.com                      |
|    \\/     M anipulation  |                                                 |
\*---------------------------------------------------------------------------*/
FoamFile
{
    version     2.0;
    format      ascii;
    arch        "LSB;label=32;scalar=64";
    class       volVectorField;
    location    "0.043";
    object      U;
}
// * * * * * * * * * * * * * * * * * * * * * * * * * * * * * * * * * * * * * //

dimensions      [0 1 -1 0 0 0 0];

internalField   nonuniform List<vector> 
78650
(
(174.319 27.2241 0)
(199.686 -3.25351 0)
(203.144 -2.71213 0)
(205.418 -2.03041 0)
(206.635 -1.80897 0)
(207.014 -1.49816 0)
(207.397 -1.24296 0)
(208.093 -1.0795 0)
(209.067 -1.03538 0)
(210.062 -1.02184 0)
(210.894 -1.0095 0)
(211.571 -0.967145 0)
(212.167 -0.890464 0)
(212.765 -0.804511 0)
(213.393 -0.688625 0)
(214.03 -0.529717 0)
(214.615 -0.304022 0)
(215.102 -0.00635219 0)
(215.507 0.342304 0)
(215.855 0.727435 0)
(216.162 1.14118 0)
(216.452 1.57454 0)
(216.746 2.01933 0)
(217.049 2.47334 0)
(217.355 2.94047 0)
(217.654 3.4286 0)
(217.942 3.94453 0)
(218.216 4.49337 0)
(218.474 5.07837 0)
(218.718 5.70124 0)
(218.944 6.36292 0)
(219.153 7.06512 0)
(219.344 7.80672 0)
(219.512 8.58951 0)
(219.663 9.41009 0)
(219.798 10.266 0)
(219.912 11.1584 0)
(220.008 12.0855 0)
(220.094 13.0441 0)
(220.171 14.0338 0)
(220.235 15.0552 0)
(220.288 16.1085 0)
(220.332 17.1931 0)
(220.371 18.3084 0)
(220.405 19.4546 0)
(220.435 20.6316 0)
(220.465 21.8394 0)
(220.496 23.0784 0)
(220.529 24.3488 0)
(220.568 25.6515 0)
(220.615 26.9868 0)
(220.676 28.3548 0)
(220.751 29.7555 0)
(220.841 31.1895 0)
(220.955 32.6584 0)
(221.095 34.1625 0)
(221.261 35.7014 0)
(221.463 37.2752 0)
(221.709 38.8835 0)
(221.996 40.5252 0)
(222.336 42.201 0)
(222.743 43.9108 0)
(223.203 45.6534 0)
(223.738 47.4291 0)
(224.361 49.2359 0)
(225.054 51.0721 0)
(225.851 52.9361 0)
(226.754 54.8233 0)
(227.756 56.73 0)
(228.897 58.6515 0)
(230.165 60.5855 0)
(231.561 62.5316 0)
(233.133 64.477 0)
(234.843 66.4141 0)
(236.723 68.3297 0)
(238.793 70.2106 0)
(241.031 72.0531 0)
(243.459 73.8531 0)
(246.104 75.5921 0)
(248.925 77.2745 0)
(251.962 78.8795 0)
(255.212 80.3907 0)
(258.653 81.8108 0)
(262.316 83.093 0)
(266.187 84.2592 0)
(270.296 85.2721 0)
(274.569 86.144 0)
(278.902 86.8404 0)
(283.61 87.3521 0)
(288.556 87.5261 0)
(293.586 87.5582 0)
(297.965 87.5555 0)
(302.155 87.4454 0)
(306.85 87.1008 0)
(312.462 86.5064 0)
(317.472 85.7799 0)
(322.161 85.0117 0)
(326.434 84.1387 0)
(330.075 83.2665 0)
(333.423 82.2247 0)
(336.72 81.1895 0)
(340.353 80.2893 0)
(344.951 79.2354 0)
(349.336 77.9437 0)
(353.821 76.3459 0)
(356.644 75.1472 0)
(359.205 73.836 0)
(361.227 73.0571 0)
(363.509 72.0573 0)
(365.617 71.4394 0)
(367.978 70.5269 0)
(369.891 70.0465 0)
(372.201 69.0537 0)
(373.564 68.4583 0)
(374.847 67.3705 0)
(375.615 66.6743 0)
(376.76 65.883 0)
(378.318 65.5434 0)
(380.652 65.1623 0)
(383.742 64.8171 0)
(384.945 66.3728 0)
(174.958 26.9305 0)
(199.247 -2.76762 0)
(203.072 -2.4474 0)
(205.441 -1.9986 0)
(206.416 -1.83135 0)
(206.677 -1.54958 0)
(206.986 -1.30886 0)
(207.604 -1.14254 0)
(208.549 -1.08089 0)
(209.583 -1.07647 0)
(210.464 -1.06176 0)
(211.168 -1.02659 0)
(211.757 -0.951481 0)
(212.322 -0.861355 0)
(212.906 -0.73975 0)
(213.51 -0.572918 0)
(214.085 -0.337624 0)
(214.591 -0.03745 0)
(215.024 0.30944 0)
(215.388 0.692855 0)
(215.696 1.10523 0)
(215.979 1.53672 0)
(216.261 1.97943 0)
(216.55 2.43126 0)
(216.842 2.8956 0)
(217.127 3.37982 0)
(217.402 3.8911 0)
(217.663 4.43457 0)
(217.905 5.01363 0)
(218.133 5.62964 0)
(218.34 6.28378 0)
(218.531 6.97705 0)
(218.702 7.70923 0)
(218.848 8.48179 0)
(218.978 9.29047 0)
(219.089 10.1349 0)
(219.174 11.0159 0)
(219.245 11.9299 0)
(219.305 12.8744 0)
(219.353 13.8501 0)
(219.386 14.8572 0)
(219.407 15.8952 0)
(219.418 16.9637 0)
(219.422 18.0626 0)
(219.419 19.1919 0)
(219.41 20.3514 0)
(219.399 21.5415 0)
(219.386 22.7625 0)
(219.373 24.0144 0)
(219.364 25.2983 0)
(219.358 26.6147 0)
(219.363 27.9641 0)
(219.378 29.3463 0)
(219.404 30.7615 0)
(219.451 32.2121 0)
(219.517 33.6982 0)
(219.605 35.2198 0)
(219.722 36.7776 0)
(219.877 38.3715 0)
(220.067 40.0004 0)
(220.303 41.6653 0)
(220.596 43.3667 0)
(220.935 45.1033 0)
(221.342 46.8766 0)
(221.827 48.6855 0)
(222.373 50.5276 0)
(223.014 52.4026 0)
(223.749 54.3077 0)
(224.575 56.242 0)
(225.531 58.2035 0)
(226.598 60.1862 0)
(227.784 62.1844 0)
(229.138 64.1863 0)
(230.624 66.1889 0)
(232.278 68.189 0)
(234.117 70.1815 0)
(236.116 72.1635 0)
(238.304 74.1261 0)
(240.703 76.0478 0)
(243.273 77.9248 0)
(246.058 79.7319 0)
(249.047 81.4584 0)
(252.225 83.0997 0)
(255.618 84.6158 0)
(259.169 86.0325 0)
(262.914 87.2902 0)
(266.834 88.4259 0)
(270.978 89.3657 0)
(275.346 90.1941 0)
(279.735 90.8274 0)
(284.039 91.32 0)
(288.479 91.6765 0)
(293.651 91.832 0)
(298.609 91.7171 0)
(303.434 91.4718 0)
(307.852 91.0969 0)
(311.974 90.7214 0)
(316.388 90.1475 0)
(320.632 89.5268 0)
(325.135 88.6692 0)
(330.382 87.4207 0)
(335.236 86.0444 0)
(340.057 84.6595 0)
(343.666 83.7001 0)
(346.904 82.813 0)
(349.823 82.0206 0)
(353.11 80.7105 0)
(355.934 79.6108 0)
(359.175 78.2083 0)
(361.518 77.4675 0)
(364.006 76.5413 0)
(365.988 76.1065 0)
(368.093 75.3175 0)
(369.724 74.7794 0)
(371.254 73.7918 0)
(372.163 73.0436 0)
(373.067 72.0025 0)
(374.189 71.5203 0)
(376.389 71.0052 0)
(379.905 70.494 0)
(381.344 72.3281 0)
(174.829 26.3187 0)
(198.936 -2.53718 0)
(203.313 -2.49934 0)
(205.385 -2.06172 0)
(206.119 -1.86335 0)
(206.321 -1.61659 0)
(206.595 -1.41484 0)
(207.128 -1.2449 0)
(208.001 -1.16101 0)
(209.037 -1.15759 0)
(209.976 -1.15341 0)
(210.734 -1.11713 0)
(211.346 -1.03656 0)
(211.892 -0.936056 0)
(212.433 -0.810806 0)
(212.989 -0.639926 0)
(213.537 -0.402191 0)
(214.052 -0.102835 0)
(214.513 0.243819 0)
(214.898 0.629501 0)
(215.214 1.04454 0)
(215.495 1.47703 0)
(215.767 1.91918 0)
(216.041 2.36914 0)
(216.318 2.83029 0)
(216.59 3.31008 0)
(216.851 3.81643 0)
(217.098 4.3547 0)
(217.326 4.92845 0)
(217.538 5.53873 0)
(217.727 6.18684 0)
(217.901 6.87296 0)
(218.05 7.59798 0)
(218.175 8.36233 0)
(218.285 9.16152 0)
(218.368 9.9974 0)
(218.427 10.8694 0)
(218.472 11.7726 0)
(218.505 12.7058 0)
(218.523 13.6706 0)
(218.524 14.6661 0)
(218.513 15.6919 0)
(218.49 16.7477 0)
(218.458 17.8336 0)
(218.416 18.9494 0)
(218.368 20.0953 0)
(218.314 21.2712 0)
(218.256 22.4781 0)
(218.197 23.7156 0)
(218.138 24.9847 0)
(218.08 26.2861 0)
(218.028 27.6205 0)
(217.983 28.9881 0)
(217.947 30.388 0)
(217.926 31.8235 0)
(217.921 33.2944 0)
(217.932 34.801 0)
(217.969 36.3444 0)
(218.036 37.9244 0)
(218.132 39.5399 0)
(218.269 41.1923 0)
(218.457 42.882 0)
(218.682 44.6079 0)
(218.97 46.372 0)
(219.325 48.1729 0)
(219.732 50.0088 0)
(220.228 51.8807 0)
(220.806 53.7861 0)
(221.464 55.724 0)
(222.24 57.6913 0)
(223.113 59.682 0)
(224.096 61.6943 0)
(225.236 63.7244 0)
(226.489 65.7721 0)
(227.898 67.8339 0)
(229.472 69.9006 0)
(231.188 71.9643 0)
(233.085 74.0146 0)
(235.179 76.0342 0)
(237.434 78.0219 0)
(239.905 79.9603 0)
(242.573 81.8446 0)
(245.438 83.6659 0)
(248.523 85.4058 0)
(251.806 87.0739 0)
(255.326 88.605 0)
(259.01 90.0649 0)
(262.922 91.3529 0)
(266.961 92.5247 0)
(271.178 93.5091 0)
(275.587 94.2828 0)
(280.325 94.8623 0)
(285.011 95.3184 0)
(289.58 95.5852 0)
(293.902 95.7382 0)
(299.055 95.6756 0)
(303.936 95.2994 0)
(308.952 94.721 0)
(314.254 93.8464 0)
(318.913 93.0651 0)
(323.991 92.1777 0)
(327.969 91.5713 0)
(331.681 90.8223 0)
(335.117 89.9502 0)
(338.293 89.0799 0)
(341.738 88.2512 0)
(345.652 87.1794 0)
(348.97 86.3475 0)
(352.807 85.1569 0)
(355.575 84.3884 0)
(358.963 83.1481 0)
(361.392 82.2577 0)
(364.176 81.0114 0)
(366.122 80.2834 0)
(367.95 79.3144 0)
(369.099 78.7293 0)
(370.264 77.8919 0)
(371.643 77.601 0)
(374.152 77.2317 0)
(378.136 76.8843 0)
(379.677 79.4483 0)
(175.2 24.9058 0)
(199.016 -2.37421 0)
(203.442 -2.4746 0)
(205.181 -2.08322 0)
(205.788 -1.92304 0)
(205.987 -1.71959 0)
(206.25 -1.5466 0)
(206.699 -1.36539 0)
(207.455 -1.25465 0)
(208.438 -1.23559 0)
(209.417 -1.22642 0)
(210.246 -1.1868 0)
(210.909 -1.11159 0)
(211.46 -1.00264 0)
(211.967 -0.867748 0)
(212.466 -0.68578 0)
(212.972 -0.443836 0)
(213.48 -0.147426 0)
(213.956 0.195801 0)
(214.362 0.580048 0)
(214.695 0.993861 0)
(214.983 1.42411 0)
(215.25 1.86368 0)
(215.512 2.31086 0)
(215.772 2.76855 0)
(216.03 3.24372 0)
(216.277 3.74471 0)
(216.51 4.27703 0)
(216.723 4.84428 0)
(216.919 5.44739 0)
(217.093 6.08761 0)
(217.249 6.76447 0)
(217.378 7.48009 0)
(217.486 8.23312 0)
(217.574 9.02013 0)
(217.631 9.84479 0)
(217.666 10.7038 0)
(217.688 11.5929 0)
(217.696 12.5116 0)
(217.683 13.4619 0)
(217.655 14.4411 0)
(217.614 15.451 0)
(217.559 16.4901 0)
(217.493 17.5584 0)
(217.417 18.6561 0)
(217.331 19.7831 0)
(217.239 20.9397 0)
(217.139 22.1275 0)
(217.037 23.3445 0)
(216.931 24.5929 0)
(216.825 25.873 0)
(216.721 27.1854 0)
(216.618 28.5322 0)
(216.523 29.9101 0)
(216.439 31.3237 0)
(216.366 32.7731 0)
(216.304 34.258 0)
(216.263 35.7803 0)
(216.245 37.34 0)
(216.251 38.9362 0)
(216.291 40.5706 0)
(216.373 42.244 0)
(216.485 43.9552 0)
(216.654 45.7073 0)
(216.879 47.499 0)
(217.149 49.3292 0)
(217.498 51.2003 0)
(217.916 53.1095 0)
(218.406 55.0564 0)
(219.005 57.0399 0)
(219.686 59.0562 0)
(220.473 61.1057 0)
(221.4 63.1846 0)
(222.428 65.2877 0)
(223.605 67.4087 0)
(224.937 69.5381 0)
(226.403 71.6706 0)
(228.049 73.8022 0)
(229.882 75.9234 0)
(231.865 78.0352 0)
(234.06 80.1232 0)
(236.44 82.1799 0)
(239.013 84.1892 0)
(241.795 86.1339 0)
(244.777 88.0047 0)
(247.974 89.771 0)
(251.327 91.4745 0)
(254.931 93.0074 0)
(258.681 94.472 0)
(262.72 95.7288 0)
(266.985 96.8763 0)
(271.297 97.7977 0)
(275.528 98.615 0)
(280.28 99.3156 0)
(284.991 99.7277 0)
(289.754 100.048 0)
(294.719 100.184 0)
(299.222 100.191 0)
(304.483 99.9113 0)
(308.73 99.6295 0)
(313.364 99.0582 0)
(317.504 98.4801 0)
(321.75 97.8058 0)
(326.391 96.9687 0)
(330.803 96.1719 0)
(335.658 95.1338 0)
(339.615 94.1004 0)
(343.129 93.1083 0)
(346.603 92.0137 0)
(349.486 91.2989 0)
(352.765 90.2362 0)
(355.486 89.4954 0)
(358.885 88.2869 0)
(361.267 87.4508 0)
(363.811 86.217 0)
(365.264 85.3352 0)
(366.653 84.203 0)
(368.184 83.509 0)
(370.817 82.8493 0)
(374.757 82.4706 0)
(376.311 84.4583 0)
(175.433 23.1531 0)
(199.159 -2.40387 0)
(203.42 -2.43197 0)
(204.901 -2.10354 0)
(205.464 -1.9937 0)
(205.691 -1.81615 0)
(205.964 -1.65833 0)
(206.345 -1.47538 0)
(206.961 -1.34583 0)
(207.842 -1.30876 0)
(208.831 -1.29926 0)
(209.729 -1.25768 0)
(210.459 -1.19299 0)
(211.036 -1.08549 0)
(211.522 -0.946355 0)
(211.971 -0.760298 0)
(212.425 -0.519391 0)
(212.904 -0.227702 0)
(213.374 0.112815 0)
(213.791 0.497377 0)
(214.143 0.91228 0)
(214.445 1.34268 0)
(214.713 1.78138 0)
(214.965 2.22651 0)
(215.211 2.68072 0)
(215.453 3.15086 0)
(215.685 3.64602 0)
(215.903 4.1722 0)
(216.101 4.73314 0)
(216.281 5.32981 0)
(216.439 5.96315 0)
(216.577 6.63218 0)
(216.686 7.33997 0)
(216.777 8.08292 0)
(216.842 8.86044 0)
(216.872 9.67631 0)
(216.884 10.5234 0)
(216.883 11.3997 0)
(216.862 12.3064 0)
(216.819 13.2445 0)
(216.76 14.2117 0)
(216.687 15.2076 0)
(216.6 16.2322 0)
(216.499 17.2855 0)
(216.385 18.3677 0)
(216.261 19.479 0)
(216.128 20.62 0)
(215.986 21.7901 0)
(215.838 22.9904 0)
(215.685 24.2217 0)
(215.529 25.4842 0)
(215.372 26.7783 0)
(215.211 28.1093 0)
(215.057 29.4675 0)
(214.909 30.8613 0)
(214.767 32.2917 0)
(214.635 33.7574 0)
(214.517 35.2604 0)
(214.418 36.8014 0)
(214.336 38.3789 0)
(214.285 39.9949 0)
(214.266 41.65 0)
(214.273 43.343 0)
(214.331 45.078 0)
(214.435 46.8531 0)
(214.576 48.6673 0)
(214.791 50.5241 0)
(215.062 52.4201 0)
(215.398 54.3562 0)
(215.831 56.3326 0)
(216.331 58.3448 0)
(216.929 60.3935 0)
(217.651 62.475 0)
(218.458 64.5843 0)
(219.406 66.7209 0)
(220.492 68.8808 0)
(221.698 71.0631 0)
(223.073 73.2668 0)
(224.614 75.4825 0)
(226.294 77.7052 0)
(228.18 79.9174 0)
(230.244 82.1087 0)
(232.499 84.2672 0)
(234.969 86.3839 0)
(237.649 88.4455 0)
(240.536 90.4413 0)
(243.628 92.3807 0)
(246.988 94.1855 0)
(250.463 95.9502 0)
(254.197 97.5115 0)
(258.021 99.0299 0)
(262.113 100.359 0)
(266.484 101.535 0)
(270.955 102.451 0)
(275.551 103.266 0)
(279.989 103.922 0)
(284.928 104.463 0)
(289.38 104.723 0)
(294.221 104.804 0)
(298.832 104.762 0)
(303.303 104.668 0)
(308.525 104.295 0)
(313.111 103.825 0)
(318.404 103.085 0)
(322.644 102.503 0)
(327.013 101.787 0)
(330.913 101.086 0)
(334.563 100.308 0)
(338.407 99.2294 0)
(341.683 98.373 0)
(345.156 97.3412 0)
(348.079 96.7623 0)
(351.369 95.8284 0)
(354.041 95.1596 0)
(356.67 94.0842 0)
(358.374 93.3864 0)
(359.967 92.3467 0)
(361.573 91.6753 0)
(364.191 90.931 0)
(368.782 90.0482 0)
(370.447 92.5297 0)
(176.445 21.0626 0)
(199.469 -2.44866 0)
(203.309 -2.38945 0)
(204.567 -2.08405 0)
(205.155 -2.0187 0)
(205.466 -1.87244 0)
(205.764 -1.72048 0)
(206.09 -1.55013 0)
(206.562 -1.4125 0)
(207.307 -1.36463 0)
(208.246 -1.34938 0)
(209.177 -1.31251 0)
(209.963 -1.24893 0)
(210.575 -1.13119 0)
(211.064 -0.982427 0)
(211.488 -0.798392 0)
(211.899 -0.568633 0)
(212.329 -0.290638 0)
(212.763 0.0412367 0)
(213.17 0.422089 0)
(213.536 0.835514 0)
(213.857 1.26508 0)
(214.136 1.70303 0)
(214.386 2.1466 0)
(214.621 2.59776 0)
(214.849 3.06301 0)
(215.064 3.55202 0)
(215.266 4.07127 0)
(215.449 4.62467 0)
(215.613 5.21338 0)
(215.755 5.8378 0)
(215.876 6.49705 0)
(215.967 7.19425 0)
(216.042 7.92422 0)
(216.081 8.69105 0)
(216.088 9.49366 0)
(216.085 10.3217 0)
(216.057 11.1858 0)
(216.006 12.0795 0)
(215.937 13.0007 0)
(215.851 13.9502 0)
(215.748 14.928 0)
(215.63 15.9342 0)
(215.496 16.9685 0)
(215.349 18.031 0)
(215.189 19.1217 0)
(215.018 20.2411 0)
(214.837 21.3896 0)
(214.648 22.5675 0)
(214.451 23.7755 0)
(214.248 25.0146 0)
(214.04 26.2861 0)
(213.83 27.5881 0)
(213.619 28.9234 0)
(213.412 30.2921 0)
(213.205 31.6983 0)
(213.005 33.1384 0)
(212.816 34.6143 0)
(212.637 36.1292 0)
(212.472 37.6816 0)
(212.331 39.2731 0)
(212.215 40.9051 0)
(212.118 42.5756 0)
(212.066 44.2901 0)
(212.049 46.046 0)
(212.063 47.8431 0)
(212.141 49.6863 0)
(212.264 51.572 0)
(212.445 53.5023 0)
(212.71 55.478 0)
(213.029 57.4942 0)
(213.44 59.5536 0)
(213.961 61.6541 0)
(214.556 63.7912 0)
(215.284 65.9675 0)
(216.133 68.1775 0)
(217.089 70.4173 0)
(218.209 72.6825 0)
(219.478 74.9612 0)
(220.881 77.2478 0)
(222.482 79.5329 0)
(224.243 81.8133 0)
(226.186 84.0839 0)
(228.33 86.3372 0)
(230.671 88.5566 0)
(233.2 90.734 0)
(235.943 92.8596 0)
(238.916 94.9027 0)
(242.034 96.9114 0)
(245.466 98.7638 0)
(249.019 100.59 0)
(252.882 102.192 0)
(256.856 103.714 0)
(261.015 105.003 0)
(265.464 106.349 0)
(269.917 107.342 0)
(274.752 108.282 0)
(279.409 108.832 0)
(284.333 109.268 0)
(289.528 109.445 0)
(294.501 109.374 0)
(299.825 109.227 0)
(304.652 108.968 0)
(309.195 108.745 0)
(314.012 108.219 0)
(317.988 107.934 0)
(322.638 107.304 0)
(326.617 106.778 0)
(331.202 105.799 0)
(335.062 104.899 0)
(339.177 103.79 0)
(342.514 103.059 0)
(346.282 102.068 0)
(349.215 101.328 0)
(352.351 100.138 0)
(354.388 99.2835 0)
(356.091 98.1462 0)
(357.532 97.7275 0)
(360.213 97.4523 0)
(365.11 97.1415 0)
(366.666 100.749 0)
(177.975 18.814 0)
(199.862 -2.24222 0)
(203.128 -2.33666 0)
(204.153 -2.07378 0)
(204.822 -2.04173 0)
(205.268 -1.91462 0)
(205.593 -1.7524 0)
(205.901 -1.59195 0)
(206.283 -1.46491 0)
(206.884 -1.41701 0)
(207.705 -1.39029 0)
(208.605 -1.35194 0)
(209.426 -1.29224 0)
(210.091 -1.18393 0)
(210.612 -1.04178 0)
(211.035 -0.861972 0)
(211.414 -0.640725 0)
(211.787 -0.373348 0)
(212.157 -0.0509213 0)
(212.526 0.321851 0)
(212.889 0.728948 0)
(213.227 1.15442 0)
(213.522 1.59006 0)
(213.78 2.03159 0)
(214.012 2.47948 0)
(214.229 2.93966 0)
(214.429 3.42239 0)
(214.614 3.93476 0)
(214.78 4.48101 0)
(214.926 5.06264 0)
(215.053 5.67931 0)
(215.155 6.33049 0)
(215.23 7.01816 0)
(215.287 7.73768 0)
(215.297 8.49582 0)
(215.29 9.28036 0)
(215.261 10.1013 0)
(215.205 10.9526 0)
(215.128 11.8313 0)
(215.031 12.738 0)
(214.916 13.6727 0)
(214.782 14.6353 0)
(214.631 15.6253 0)
(214.464 16.6426 0)
(214.281 17.6875 0)
(214.084 18.7602 0)
(213.873 19.8611 0)
(213.651 20.9905 0)
(213.418 22.1487 0)
(213.176 23.3366 0)
(212.925 24.5549 0)
(212.666 25.8044 0)
(212.402 27.0861 0)
(212.134 28.3999 0)
(211.865 29.7473 0)
(211.597 31.1281 0)
(211.33 32.5441 0)
(211.07 33.9965 0)
(210.814 35.4883 0)
(210.566 37.0178 0)
(210.34 38.583 0)
(210.129 40.19 0)
(209.936 41.8351 0)
(209.78 43.5251 0)
(209.65 45.2568 0)
(209.547 47.0289 0)
(209.5 48.8483 0)
(209.486 50.7097 0)
(209.526 52.6169 0)
(209.637 54.5708 0)
(209.791 56.5663 0)
(210.03 58.6088 0)
(210.361 60.6959 0)
(210.753 62.8233 0)
(211.268 64.9953 0)
(211.881 67.2051 0)
(212.591 69.4503 0)
(213.455 71.7318 0)
(214.448 74.0427 0)
(215.563 76.3829 0)
(216.864 78.7492 0)
(218.307 81.1363 0)
(219.925 83.5362 0)
(221.742 85.9376 0)
(223.75 88.3249 0)
(225.947 90.6933 0)
(228.379 93.0265 0)
(231.021 95.3077 0)
(233.849 97.5446 0)
(236.958 99.6627 0)
(240.159 101.749 0)
(243.674 103.634 0)
(247.267 105.505 0)
(251.167 107.161 0)
(255.168 108.739 0)
(259.404 110.141 0)
(263.719 111.332 0)
(268.325 112.443 0)
(272.789 113.359 0)
(277.736 114.188 0)
(282.357 114.724 0)
(287.103 115.111 0)
(291.984 115.283 0)
(296.34 115.35 0)
(301.602 115.148 0)
(305.961 114.984 0)
(311.061 114.619 0)
(315.412 114.293 0)
(319.969 113.725 0)
(324.274 113.079 0)
(328.414 112.359 0)
(332.355 111.756 0)
(336.457 111.061 0)
(339.867 110.475 0)
(343.753 109.398 0)
(346.429 108.294 0)
(348.838 106.865 0)
(350.926 105.986 0)
(353.969 105.348 0)
(358.705 104.985 0)
(360.409 107.625 0)
(180.42 16.6028 0)
(200.659 -1.85686 0)
(202.872 -2.30217 0)
(203.636 -2.15358 0)
(204.359 -2.12592 0)
(204.94 -1.96612 0)
(205.366 -1.76877 0)
(205.73 -1.60925 0)
(206.106 -1.51575 0)
(206.589 -1.45619 0)
(207.247 -1.41265 0)
(208.044 -1.37221 0)
(208.857 -1.31467 0)
(209.567 -1.21916 0)
(210.14 -1.09254 0)
(210.585 -0.920494 0)
(210.952 -0.707983 0)
(211.271 -0.448963 0)
(211.566 -0.137247 0)
(211.874 0.223726 0)
(212.205 0.62142 0)
(212.539 1.04243 0)
(212.847 1.47774 0)
(213.118 1.92056 0)
(213.358 2.36838 0)
(213.573 2.82585 0)
(213.763 3.30338 0)
(213.931 3.8086 0)
(214.08 4.34629 0)
(214.209 4.91852 0)
(214.32 5.52467 0)
(214.403 6.16482 0)
(214.465 6.83914 0)
(214.498 7.54687 0)
(214.488 8.28754 0)
(214.466 9.05851 0)
(214.412 9.86456 0)
(214.332 10.6995 0)
(214.23 11.5619 0)
(214.107 12.451 0)
(213.964 13.367 0)
(213.802 14.31 0)
(213.621 15.2798 0)
(213.422 16.2762 0)
(213.206 17.2993 0)
(212.975 18.3494 0)
(212.729 19.4269 0)
(212.469 20.5321 0)
(212.197 21.6654 0)
(211.912 22.8276 0)
(211.617 24.0195 0)
(211.312 25.2419 0)
(210.999 26.4953 0)
(210.68 27.7804 0)
(210.355 29.0982 0)
(210.027 30.45 0)
(209.697 31.8369 0)
(209.368 33.2602 0)
(209.041 34.72 0)
(208.721 36.2163 0)
(208.413 37.7512 0)
(208.108 39.3312 0)
(207.822 40.9458 0)
(207.564 42.604 0)
(207.319 44.3081 0)
(207.103 46.0522 0)
(206.93 47.8467 0)
(206.78 49.6849 0)
(206.679 51.5717 0)
(206.633 53.5082 0)
(206.62 55.4897 0)
(206.686 57.5242 0)
(206.827 59.6072 0)
(207.019 61.735 0)
(207.326 63.914 0)
(207.712 66.1367 0)
(208.191 68.4044 0)
(208.811 70.7198 0)
(209.537 73.0739 0)
(210.379 75.4651 0)
(211.395 77.8885 0)
(212.534 80.3347 0)
(213.842 82.7991 0)
(215.333 85.275 0)
(216.992 87.7526 0)
(218.827 90.2296 0)
(220.884 92.6924 0)
(223.122 95.1344 0)
(225.561 97.5545 0)
(228.258 99.9222 0)
(231.121 102.27 0)
(234.33 104.488 0)
(237.645 106.701 0)
(241.305 108.718 0)
(245.052 110.717 0)
(249.085 112.472 0)
(253.311 114.151 0)
(257.704 115.607 0)
(262.216 116.88 0)
(266.841 117.974 0)
(271.711 118.891 0)
(276.285 119.585 0)
(281.601 120.26 0)
(286.261 120.637 0)
(291.67 120.88 0)
(296.37 120.996 0)
(301.281 120.984 0)
(305.891 120.87 0)
(310.143 120.716 0)
(314.837 120.24 0)
(318.889 119.779 0)
(323.267 119.083 0)
(327.056 118.584 0)
(330.676 118.152 0)
(334.18 117.532 0)
(337.1 116.725 0)
(339.711 115.437 0)
(341.891 114.377 0)
(345.12 113.673 0)
(351.041 113.197 0)
(352.864 116.898 0)
(183.544 14.7211 0)
(201.836 -1.27692 0)
(202.799 -2.13076 0)
(203.245 -2.25653 0)
(203.833 -2.20615 0)
(204.479 -2.06141 0)
(205.065 -1.84737 0)
(205.559 -1.67668 0)
(205.98 -1.57269 0)
(206.392 -1.49822 0)
(206.883 -1.42531 0)
(207.54 -1.38415 0)
(208.294 -1.32957 0)
(209.025 -1.25363 0)
(209.647 -1.14955 0)
(210.131 -0.989692 0)
(210.501 -0.784526 0)
(210.781 -0.532372 0)
(211.015 -0.233053 0)
(211.254 0.110963 0)
(211.528 0.491038 0)
(211.829 0.897943 0)
(212.133 1.324 0)
(212.418 1.76231 0)
(212.674 2.20732 0)
(212.898 2.66152 0)
(213.084 3.13451 0)
(213.242 3.63394 0)
(213.374 4.16484 0)
(213.485 4.72976 0)
(213.578 5.32804 0)
(213.641 5.95962 0)
(213.688 6.62329 0)
(213.693 7.32206 0)
(213.672 8.04365 0)
(213.625 8.80789 0)
(213.548 9.5987 0)
(213.444 10.4186 0)
(213.315 11.2652 0)
(213.165 12.1381 0)
(212.994 13.0373 0)
(212.802 13.9624 0)
(212.59 14.9135 0)
(212.358 15.8906 0)
(212.109 16.8938 0)
(211.841 17.9234 0)
(211.557 18.9798 0)
(211.258 20.0632 0)
(210.944 21.1741 0)
(210.617 22.3131 0)
(210.276 23.4811 0)
(209.923 24.6789 0)
(209.559 25.9073 0)
(209.186 27.167 0)
(208.804 28.4587 0)
(208.417 29.7832 0)
(208.024 31.1419 0)
(207.628 32.5359 0)
(207.23 33.9665 0)
(206.834 35.4348 0)
(206.441 36.9419 0)
(206.056 38.4861 0)
(205.683 40.0693 0)
(205.329 41.6943 0)
(204.973 43.3734 0)
(204.654 45.0804 0)
(204.362 46.8396 0)
(204.088 48.6437 0)
(203.859 50.4966 0)
(203.671 52.3996 0)
(203.509 54.3471 0)
(203.419 56.3497 0)
(203.384 58.4007 0)
(203.395 60.4989 0)
(203.508 62.6535 0)
(203.678 64.8553 0)
(203.933 67.1091 0)
(204.312 69.4167 0)
(204.774 71.7676 0)
(205.346 74.1644 0)
(206.073 76.6069 0)
(206.904 79.0876 0)
(207.896 81.6086 0)
(209.053 84.1644 0)
(210.359 86.7451 0)
(211.843 89.346 0)
(213.543 91.9511 0)
(215.416 94.5529 0)
(217.505 97.1421 0)
(219.823 99.6958 0)
(222.307 102.216 0)
(225.072 104.657 0)
(227.953 107.092 0)
(231.189 109.389 0)
(234.485 111.679 0)
(238.149 113.755 0)
(241.896 115.808 0)
(245.941 117.677 0)
(250.17 119.522 0)
(254.568 121.046 0)
(259.308 122.587 0)
(263.966 123.664 0)
(269.053 124.761 0)
(273.847 125.479 0)
(278.93 126.109 0)
(283.998 126.503 0)
(288.826 126.81 0)
(294.077 127.034 0)
(298.716 127.153 0)
(303.95 127.029 0)
(308.531 126.708 0)
(313.5 126.122 0)
(318.045 125.569 0)
(322.484 125.055 0)
(326.823 124.478 0)
(330.22 123.802 0)
(333.267 122.702 0)
(335.75 121.737 0)
(339.156 121.023 0)
(345.118 120.822 0)
(346.89 124.879 0)
(186.909 13.4991 0)
(203.547 -0.926287 0)
(203.019 -1.84551 0)
(203.198 -1.95611 0)
(203.599 -2.08501 0)
(204.143 -2.08035 0)
(204.722 -1.89953 0)
(205.289 -1.75559 0)
(205.775 -1.62855 0)
(206.177 -1.50768 0)
(206.594 -1.4394 0)
(207.125 -1.4058 0)
(207.777 -1.35388 0)
(208.48 -1.29697 0)
(209.126 -1.20715 0)
(209.646 -1.06039 0)
(210.03 -0.864097 0)
(210.299 -0.622082 0)
(210.498 -0.335128 0)
(210.68 -0.00606083 0)
(210.881 0.358951 0)
(211.115 0.754337 0)
(211.379 1.17429 0)
(211.655 1.61283 0)
(211.922 2.06092 0)
(212.16 2.51735 0)
(212.356 2.98935 0)
(212.513 3.48391 0)
(212.636 4.00619 0)
(212.731 4.55975 0)
(212.806 5.14514 0)
(212.853 5.76209 0)
(212.882 6.41055 0)
(212.866 7.09108 0)
(212.831 7.79814 0)
(212.762 8.54483 0)
(212.663 9.31848 0)
(212.536 10.1217 0)
(212.383 10.9506 0)
(212.208 11.8043 0)
(212.01 12.683 0)
(211.791 13.5869 0)
(211.55 14.5161 0)
(211.288 15.4705 0)
(211.007 16.45 0)
(210.707 17.4549 0)
(210.39 18.4856 0)
(210.055 19.5424 0)
(209.704 20.6259 0)
(209.337 21.7365 0)
(208.956 22.8752 0)
(208.559 24.0428 0)
(208.149 25.2402 0)
(207.727 26.468 0)
(207.295 27.7269 0)
(206.852 29.0179 0)
(206.402 30.3425 0)
(205.944 31.7017 0)
(205.48 33.0966 0)
(205.014 34.5281 0)
(204.547 35.9974 0)
(204.081 37.5057 0)
(203.621 39.0543 0)
(203.167 40.6455 0)
(202.726 42.2757 0)
(202.301 43.9509 0)
(201.89 45.6746 0)
(201.49 47.4463 0)
(201.134 49.2623 0)
(200.801 51.1321 0)
(200.492 53.0479 0)
(200.244 55.0239 0)
(200.033 57.0501 0)
(199.863 59.1271 0)
(199.781 61.2652 0)
(199.739 63.4516 0)
(199.78 65.6956 0)
(199.927 67.9977 0)
(200.138 70.3481 0)
(200.457 72.7542 0)
(200.91 75.2146 0)
(201.448 77.7197 0)
(202.142 80.2736 0)
(202.979 82.8676 0)
(203.948 85.4931 0)
(205.089 88.15 0)
(206.425 90.83 0)
(207.909 93.5316 0)
(209.605 96.2504 0)
(211.503 98.9733 0)
(213.587 101.697 0)
(215.936 104.398 0)
(218.451 107.085 0)
(221.287 109.667 0)
(224.212 112.236 0)
(227.518 114.658 0)
(230.877 117.089 0)
(234.597 119.291 0)
(238.399 121.458 0)
(242.461 123.426 0)
(246.652 125.291 0)
(251.116 127.002 0)
(255.604 128.442 0)
(260.444 129.802 0)
(264.983 130.894 0)
(270.201 131.957 0)
(274.857 132.762 0)
(280.014 133.46 0)
(284.599 134.033 0)
(289.496 134.367 0)
(294.131 134.547 0)
(299.03 134.438 0)
(303.726 134.305 0)
(308.502 134.14 0)
(312.971 133.931 0)
(316.773 133.68 0)
(320.338 132.999 0)
(323.195 132.334 0)
(326.662 131.689 0)
(332.899 131.048 0)
(334.356 135.158 0)
(189.607 12.9714 0)
(205.414 -0.281048 0)
(204.453 -1.34343 0)
(203.832 -1.66094 0)
(203.88 -1.86606 0)
(204.166 -1.88471 0)
(204.554 -1.86353 0)
(205.028 -1.78407 0)
(205.52 -1.64093 0)
(205.968 -1.5393 0)
(206.377 -1.50893 0)
(206.802 -1.48237 0)
(207.317 -1.43658 0)
(207.93 -1.3835 0)
(208.556 -1.28542 0)
(209.099 -1.14066 0)
(209.518 -0.955885 0)
(209.812 -0.728605 0)
(210.01 -0.456392 0)
(210.159 -0.145426 0)
(210.298 0.198504 0)
(210.456 0.57254 0)
(210.655 0.973647 0)
(210.893 1.39984 0)
(211.153 1.84223 0)
(211.404 2.29692 0)
(211.618 2.76884 0)
(211.783 3.26315 0)
(211.904 3.78342 0)
(211.986 4.33284 0)
(212.041 4.91244 0)
(212.069 5.52097 0)
(212.073 6.15972 0)
(212.043 6.82184 0)
(211.984 7.52177 0)
(211.892 8.25223 0)
(211.773 9.0082 0)
(211.622 9.79367 0)
(211.445 10.6049 0)
(211.244 11.4407 0)
(211.019 12.3005 0)
(210.771 13.1841 0)
(210.501 14.0919 0)
(210.209 15.024 0)
(209.896 15.9806 0)
(209.563 16.9621 0)
(209.21 17.9688 0)
(208.838 19.0009 0)
(208.448 20.059 0)
(208.04 21.1435 0)
(207.616 22.2551 0)
(207.175 23.3948 0)
(206.717 24.5635 0)
(206.245 25.7618 0)
(205.76 26.9905 0)
(205.262 28.2504 0)
(204.752 29.5428 0)
(204.233 30.8688 0)
(203.704 32.2296 0)
(203.167 33.6264 0)
(202.626 35.06 0)
(202.083 36.5312 0)
(201.54 38.0415 0)
(200.999 39.5922 0)
(200.463 41.1856 0)
(199.936 42.8225 0)
(199.419 44.5031 0)
(198.919 46.2268 0)
(198.444 47.9997 0)
(197.973 49.8305 0)
(197.535 51.6988 0)
(197.143 53.6266 0)
(196.771 55.6069 0)
(196.444 57.6381 0)
(196.184 59.7326 0)
(195.949 61.8752 0)
(195.794 64.0815 0)
(195.722 66.349 0)
(195.692 68.669 0)
(195.767 71.0535 0)
(195.947 73.4982 0)
(196.198 75.995 0)
(196.596 78.5546 0)
(197.112 81.1678 0)
(197.743 83.8321 0)
(198.538 86.5524 0)
(199.499 89.3192 0)
(200.596 92.1243 0)
(201.904 94.9595 0)
(203.387 97.8119 0)
(205.057 100.679 0)
(206.963 103.546 0)
(209.054 106.399 0)
(211.432 109.201 0)
(213.944 112.021 0)
(216.816 114.779 0)
(219.783 117.538 0)
(223.165 120.102 0)
(226.628 122.651 0)
(230.417 125.029 0)
(234.322 127.398 0)
(238.509 129.535 0)
(242.958 131.537 0)
(247.598 133.283 0)
(252.366 134.821 0)
(257.324 136.256 0)
(262.372 137.442 0)
(267.403 138.437 0)
(272.661 139.352 0)
(277.469 140.029 0)
(282.687 140.617 0)
(287.599 140.952 0)
(292.705 141.087 0)
(297.501 141.147 0)
(302.365 141.097 0)
(306.397 141 0)
(309.931 140.606 0)
(312.764 140.12 0)
(316.212 139.933 0)
(323.003 139.895 0)
(324.196 145.424 0)
(191.053 12.6386 0)
(206.981 0.494034 0)
(206.414 -0.679253 0)
(205.238 -1.1181 0)
(204.563 -1.46336 0)
(204.383 -1.63529 0)
(204.527 -1.61958 0)
(204.913 -1.56947 0)
(205.393 -1.51372 0)
(205.869 -1.5181 0)
(206.261 -1.52929 0)
(206.588 -1.52861 0)
(206.939 -1.53453 0)
(207.398 -1.49147 0)
(207.951 -1.39744 0)
(208.5 -1.26117 0)
(208.962 -1.08483 0)
(209.296 -0.85771 0)
(209.51 -0.581117 0)
(209.642 -0.268471 0)
(209.738 0.0712644 0)
(209.83 0.435085 0)
(209.951 0.822203 0)
(210.119 1.23536 0)
(210.336 1.67061 0)
(210.578 2.12108 0)
(210.806 2.58967 0)
(210.991 3.07914 0)
(211.124 3.59135 0)
(211.206 4.12944 0)
(211.251 4.69542 0)
(211.265 5.2885 0)
(211.248 5.91098 0)
(211.207 6.5505 0)
(211.125 7.23623 0)
(211.011 7.94887 0)
(210.871 8.68641 0)
(210.698 9.45244 0)
(210.498 10.2436 0)
(210.272 11.0587 0)
(210.021 11.8972 0)
(209.747 12.7589 0)
(209.449 13.6436 0)
(209.128 14.5514 0)
(208.786 15.4826 0)
(208.422 16.4373 0)
(208.037 17.4161 0)
(207.632 18.4193 0)
(207.207 19.4473 0)
(206.763 20.5008 0)
(206.301 21.5805 0)
(205.82 22.6871 0)
(205.32 23.8217 0)
(204.804 24.9849 0)
(204.271 26.1775 0)
(203.723 27.4003 0)
(203.161 28.6544 0)
(202.586 29.9412 0)
(201.998 31.2618 0)
(201.398 32.6172 0)
(200.79 34.0086 0)
(200.174 35.437 0)
(199.554 36.9037 0)
(198.931 38.4099 0)
(198.307 39.9573 0)
(197.686 41.5475 0)
(197.068 43.1821 0)
(196.46 44.8629 0)
(195.861 46.5923 0)
(195.276 48.3678 0)
(194.71 50.1938 0)
(194.175 52.0743 0)
(193.633 54.0198 0)
(193.153 56.0048 0)
(192.712 58.0576 0)
(192.288 60.1605 0)
(191.941 62.3335 0)
(191.65 64.5674 0)
(191.394 66.8549 0)
(191.237 69.2132 0)
(191.159 71.6324 0)
(191.143 74.1097 0)
(191.264 76.6586 0)
(191.471 79.2648 0)
(191.783 81.9295 0)
(192.245 84.6572 0)
(192.842 87.4352 0)
(193.565 90.2581 0)
(194.485 93.1281 0)
(195.553 96.0377 0)
(196.806 98.9863 0)
(198.274 101.958 0)
(199.929 104.937 0)
(201.831 107.919 0)
(203.887 110.933 0)
(206.255 113.913 0)
(208.727 116.866 0)
(211.595 119.698 0)
(214.532 122.55 0)
(217.845 125.303 0)
(221.236 128.06 0)
(224.977 130.6 0)
(228.868 133.037 0)
(233.063 135.277 0)
(237.442 137.49 0)
(241.907 139.356 0)
(246.771 141.366 0)
(251.416 142.841 0)
(256.745 144.492 0)
(261.342 145.675 0)
(266.781 147.033 0)
(271.382 147.915 0)
(277.007 148.663 0)
(281.816 149.05 0)
(287.853 149.472 0)
(292.659 149.605 0)
(297.377 149.508 0)
(300.978 149.256 0)
(304.686 148.986 0)
(310.857 149.036 0)
(312.089 153.555 0)
(191.051 12.1282 0)