/*--------------------------------*- C++ -*----------------------------------*\
| =========                 |                                                 |
| \\      /  F ield         | OpenFOAM: The Open Source CFD Toolbox           |
|  \\    /   O peration     | Version:  2412                                  |
|   \\  /    A nd           | Website:  www.openfoam.com                      |
|    \\/     M anipulation  |                                                 |
\*---------------------------------------------------------------------------*/
FoamFile
{
    version     2.0;
    format      ascii;
    arch        "LSB;label=32;scalar=64";
    class       volVectorField;
    location    "0.043";
    object      U;
}
// * * * * * * * * * * * * * * * * * * * * * * * * * * * * * * * * * * * * * //

dimensions      [0 1 -1 0 0 0 0];

internalField   nonuniform List<vector> 
78650
(
(210 1.01894e-11 0)
(210 3.48207e-10 0)
(210 4.01743e-08 0)
(210 4.86085e-06 0)
(209.998 0.000473538 0)
(209.948 0.0143613 0)
(209.612 0.136965 0)
(208.813 0.490199 0)
(208.008 0.8647 0)
(207.771 1.02106 0)
(207.763 1.12194 0)
(208.365 1.01844 0)
(209.455 0.63551 0)
(210.483 0.380839 0)
(211.229 0.282099 0)
(211.804 0.339454 0)
(212.341 0.461431 0)
(212.947 0.595139 0)
(213.636 0.732256 0)
(214.284 0.92508 0)
(214.705 1.21077 0)
(214.877 1.56564 0)
(214.889 1.91635 0)
(214.696 2.33201 0)
(214.529 2.75368 0)
(214.526 3.15683 0)
(214.616 3.56023 0)
(214.766 3.96039 0)
(214.962 4.36924 0)
(215.145 4.80272 0)
(215.311 5.26767 0)
(215.486 5.76004 0)
(215.668 6.27795 0)
(215.85 6.82066 0)
(216.025 7.38586 0)
(216.185 7.975 0)
(216.335 8.5886 0)
(216.479 9.22905 0)
(216.614 9.89993 0)
(216.74 10.604 0)
(216.854 11.3421 0)
(216.954 12.1137 0)
(217.042 12.9167 0)
(217.12 13.7484 0)
(217.188 14.6075 0)
(217.243 15.4926 0)
(217.285 16.4034 0)
(217.315 17.3393 0)
(217.333 18.3 0)
(217.339 19.2859 0)
(217.332 20.2978 0)
(217.313 21.3367 0)
(217.28 22.4036 0)
(217.236 23.4994 0)
(217.182 24.624 0)
(217.121 25.7775 0)
(217.052 26.961 0)
(216.979 28.1758 0)
(216.9 29.4231 0)
(216.819 30.7034 0)
(216.738 32.0176 0)
(216.657 33.3666 0)
(216.582 34.7521 0)
(216.512 36.175 0)
(216.45 37.636 0)
(216.404 39.1372 0)
(216.374 40.679 0)
(216.36 42.2623 0)
(216.378 43.8905 0)
(216.421 45.5636 0)
(216.497 47.2826 0)
(216.621 49.0494 0)
(216.785 50.863 0)
(217.014 52.7256 0)
(217.307 54.6369 0)
(217.669 56.5975 0)
(218.122 58.6095 0)
(218.656 60.673 0)
(219.305 62.7886 0)
(220.054 64.9555 0)
(220.946 67.1727 0)
(221.971 69.4359 0)
(223.16 71.7372 0)
(224.535 74.0675 0)
(226.1 76.426 0)
(227.904 78.809 0)
(229.91 81.2197 0)
(232.212 83.6214 0)
(234.726 86.0202 0)
(237.611 88.3752 0)
(240.729 90.7432 0)
(244.304 93.0002 0)
(248.105 95.2392 0)
(252.407 97.1712 0)
(256.883 99.0867 0)
(261.982 100.748 0)
(267.65 102.175 0)
(273.846 103.254 0)
(280.186 104.154 0)
(286.097 104.955 0)
(292.813 105.33 0)
(300.639 105.034 0)
(308.402 104.324 0)
(315.322 103.683 0)
(322.507 102.449 0)
(329.442 101.065 0)
(338.059 98.8812 0)
(345.571 96.468 0)
(352.773 93.9231 0)
(359.66 91.2775 0)
(365.791 88.9853 0)
(371.895 86.4619 0)
(377.036 84.2259 0)
(381.431 81.8383 0)
(384.94 78.9718 0)
(386.967 76.5348 0)
(388.816 73.9733 0)
(391.604 72.7196 0)
(397.535 71.2576 0)
(406.551 70.101 0)
(409.86 74.6303 0)
(210 7.42847e-12 0)
(210 1.14657e-10 0)
(210 1.64446e-08 0)
(210 1.8656e-06 0)
(209.999 0.000207419 0)
(209.97 0.00780735 0)
(209.718 0.0926377 0)
(208.98 0.397348 0)
(208.096 0.789269 0)
(207.753 0.995723 0)
(207.672 1.12099 0)
(208.119 1.07494 0)
(209.148 0.728247 0)
(210.2 0.452586 0)
(210.968 0.323117 0)
(211.551 0.367449 0)
(212.068 0.490543 0)
(212.633 0.635769 0)
(213.29 0.784501 0)
(213.959 0.97401 0)
(214.464 1.24391 0)
(214.7 1.58596 0)
(214.767 1.92275 0)
(214.63 2.31631 0)
(214.419 2.74013 0)
(214.344 3.15002 0)
(214.4 3.54414 0)
(214.508 3.95078 0)
(214.677 4.35934 0)
(214.855 4.78632 0)
(215.011 5.24522 0)
(215.169 5.73323 0)
(215.331 6.24745 0)
(215.497 6.78526 0)
(215.656 7.34537 0)
(215.8 7.92923 0)
(215.935 8.53657 0)
(216.062 9.16998 0)
(216.181 9.83287 0)
(216.289 10.5278 0)
(216.385 11.256 0)
(216.466 12.017 0)
(216.535 12.8087 0)
(216.593 13.6288 0)
(216.64 14.476 0)
(216.674 15.3488 0)
(216.695 16.2465 0)
(216.703 17.1689 0)
(216.699 18.1156 0)
(216.681 19.0869 0)
(216.65 20.0835 0)
(216.605 21.1065 0)
(216.548 22.1565 0)
(216.476 23.2349 0)
(216.394 24.3415 0)
(216.303 25.4766 0)
(216.203 26.6408 0)
(216.097 27.8359 0)
(215.983 29.0629 0)
(215.865 30.3223 0)
(215.744 31.6151 0)
(215.622 32.9423 0)
(215.502 34.3055 0)
(215.383 35.7057 0)
(215.27 37.1433 0)
(215.169 38.6212 0)
(215.078 40.1393 0)
(215 41.6984 0)
(214.949 43.3026 0)
(214.917 44.9515 0)
(214.911 46.6467 0)
(214.946 48.3905 0)
(215.014 50.182 0)
(215.137 52.0243 0)
(215.316 53.9168 0)
(215.554 55.8606 0)
(215.872 57.8585 0)
(216.261 59.9108 0)
(216.753 62.0202 0)
(217.33 64.1855 0)
(218.038 66.4064 0)
(218.863 68.6795 0)
(219.839 71.0034 0)
(220.983 73.3758 0)
(222.299 75.7956 0)
(223.834 78.2522 0)
(225.559 80.7375 0)
(227.569 83.2262 0)
(229.786 85.7305 0)
(232.353 88.2219 0)
(235.136 90.7264 0)
(238.319 93.1544 0)
(241.708 95.5758 0)
(245.613 97.8039 0)
(249.694 100.032 0)
(254.338 101.945 0)
(259.239 103.797 0)
(264.584 105.404 0)
(270.256 106.851 0)
(276.608 107.962 0)
(283.644 108.684 0)
(290.653 109.045 0)
(297.626 109.079 0)
(304.839 108.829 0)
(312.771 107.97 0)
(319.893 106.97 0)
(327.792 105.574 0)
(335.422 103.705 0)
(342.521 101.593 0)
(350.196 99.0526 0)
(357.6 96.307 0)
(364.272 93.7017 0)
(370.512 91.1768 0)
(376.163 88.7481 0)
(380.885 86.1455 0)
(384.018 83.6142 0)
(386.124 80.8547 0)
(388.483 79.0741 0)
(393.882 77.2517 0)
(403.366 75.8568 0)
(407.546 80.3416 0)
(210 -3.00169e-12 0)
(210 5.38945e-11 0)
(210 5.55954e-09 0)
(210 5.97375e-07 0)
(209.999 7.69034e-05 0)
(209.983 0.00381854 0)
(209.807 0.0585291 0)
(209.16 0.309071 0)
(208.231 0.707638 0)
(207.741 0.968208 0)
(207.596 1.09874 0)
(207.9 1.11225 0)
(208.835 0.817804 0)
(209.896 0.520116 0)
(210.693 0.35361 0)
(211.292 0.384452 0)
(211.797 0.510048 0)
(212.325 0.667003 0)
(212.941 0.826153 0)
(213.605 1.01286 0)
(214.172 1.26421 0)
(214.493 1.5827 0)
(214.603 1.93346 0)
(214.549 2.29603 0)
(214.323 2.71658 0)
(214.173 3.13059 0)
(214.179 3.52708 0)
(214.255 3.93332 0)
(214.385 4.34054 0)
(214.552 4.76221 0)
(214.703 5.21543 0)
(214.846 5.6993 0)
(214.989 6.20999 0)
(215.138 6.743 0)
(215.281 7.29801 0)
(215.409 7.87647 0)
(215.528 8.47778 0)
(215.64 9.10454 0)
(215.742 9.75981 0)
(215.832 10.4459 0)
(215.91 11.1644 0)
(215.972 11.9151 0)
(216.022 12.6962 0)
(216.06 13.505 0)
(216.086 14.3409 0)
(216.098 15.2021 0)
(216.097 16.0873 0)
(216.083 16.9969 0)
(216.055 17.9305 0)
(216.014 18.8881 0)
(215.958 19.8706 0)
(215.888 20.8792 0)
(215.804 21.9133 0)
(215.705 22.9763 0)
(215.593 24.0673 0)
(215.471 25.1862 0)
(215.34 26.3338 0)
(215.199 27.5121 0)
(215.049 28.7212 0)
(214.894 29.9624 0)
(214.732 31.2367 0)
(214.568 32.5448 0)
(214.401 33.8883 0)
(214.234 35.2686 0)
(214.07 36.6855 0)
(213.913 38.1424 0)
(213.763 39.6396 0)
(213.623 41.1767 0)
(213.503 42.7586 0)
(213.398 44.3848 0)
(213.314 46.0569 0)
(213.264 47.7777 0)
(213.24 49.5461 0)
(213.265 51.3657 0)
(213.336 53.2356 0)
(213.458 55.1572 0)
(213.652 57.1334 0)
(213.906 59.1642 0)
(214.252 61.2532 0)
(214.673 63.3989 0)
(215.209 65.6035 0)
(215.847 67.8648 0)
(216.62 70.1828 0)
(217.539 72.5535 0)
(218.611 74.9722 0)
(219.88 77.431 0)
(221.322 79.9281 0)
(223.023 82.456 0)
(224.909 85.0275 0)
(227.111 87.6207 0)
(229.516 90.24 0)
(232.299 92.8132 0)
(235.3 95.3735 0)
(238.786 97.8179 0)
(242.469 100.312 0)
(246.758 102.565 0)
(251.197 104.86 0)
(256.315 106.847 0)
(261.902 108.664 0)
(267.928 110.102 0)
(273.91 111.279 0)
(280.357 112.264 0)
(287.464 112.823 0)
(294.416 113.002 0)
(302.429 112.818 0)
(310.147 112.068 0)
(317.359 111.312 0)
(325.25 110.012 0)
(332.814 108.349 0)
(340.253 106.486 0)
(348.359 104.048 0)
(355.185 101.709 0)
(362.045 99.1993 0)
(368.81 96.4463 0)
(374.097 93.6617 0)
(377.613 90.9914 0)
(380.179 87.7991 0)
(382.642 85.8782 0)
(388.53 84.3989 0)
(399.099 83.0301 0)
(403.412 88.2707 0)
(210 -1.24692e-11 0)
(210 1.35482e-11 0)
(210 1.26036e-09 0)
(210 1.43432e-07 0)
(210 2.38484e-05 0)
(209.991 0.0016658 0)
(209.876 0.0338873 0)
(209.34 0.226436 0)
(208.394 0.612239 0)
(207.756 0.924884 0)
(207.529 1.0674 0)
(207.717 1.13125 0)
(208.527 0.905654 0)
(209.576 0.592382 0)
(210.404 0.392578 0)
(211.029 0.415217 0)
(211.529 0.543905 0)
(212.024 0.71058 0)
(212.598 0.879015 0)
(213.238 1.06436 0)
(213.838 1.29941 0)
(214.244 1.59755 0)
(214.404 1.94322 0)
(214.421 2.28266 0)
(214.229 2.68526 0)
(214.021 3.10304 0)
(213.956 3.50845 0)
(214 3.90564 0)
(214.09 4.31953 0)
(214.236 4.73981 0)
(214.382 5.18649 0)
(214.514 5.66461 0)
(214.639 6.17058 0)
(214.77 6.69856 0)
(214.894 7.24858 0)
(215.006 7.82114 0)
(215.11 8.41555 0)
(215.206 9.03461 0)
(215.29 9.68114 0)
(215.363 10.3574 0)
(215.422 11.065 0)
(215.466 11.8041 0)
(215.497 12.5733 0)
(215.515 13.3698 0)
(215.519 14.1931 0)
(215.51 15.041 0)
(215.489 15.9122 0)
(215.453 16.8073 0)
(215.402 17.7264 0)
(215.338 18.6689 0)
(215.259 19.6353 0)
(215.165 20.6266 0)
(215.055 21.6444 0)
(214.93 22.689 0)
(214.791 23.761 0)
(214.64 24.8607 0)
(214.479 25.9888 0)
(214.306 27.146 0)
(214.124 28.3337 0)
(213.933 29.5531 0)
(213.735 30.805 0)
(213.531 32.0899 0)
(213.323 33.41 0)
(213.11 34.7665 0)
(212.899 36.158 0)
(212.691 37.5882 0)
(212.484 39.0601 0)
(212.285 40.5702 0)
(212.101 42.1251 0)
(211.926 43.7243 0)
(211.769 45.3684 0)
(211.637 47.0615 0)
(211.525 48.8023 0)
(211.455 50.5951 0)
(211.42 52.439 0)
(211.429 54.3358 0)
(211.499 56.2889 0)
(211.62 58.2982 0)
(211.821 60.3687 0)
(212.085 62.4992 0)
(212.451 64.6939 0)
(212.902 66.9504 0)
(213.474 69.27 0)
(214.175 71.6497 0)
(215.016 74.0879 0)
(216.036 76.5828 0)
(217.213 79.1345 0)
(218.626 81.7365 0)
(220.211 84.3877 0)
(222.095 87.062 0)
(224.17 89.7565 0)
(226.598 92.4336 0)
(229.241 95.1309 0)
(232.324 97.787 0)
(235.608 100.487 0)
(239.473 103.013 0)
(243.483 105.562 0)
(248.116 107.744 0)
(252.907 109.927 0)
(258.256 111.835 0)
(264.184 113.547 0)
(270.491 114.923 0)
(277.606 116.128 0)
(284.528 116.76 0)
(291.87 117.221 0)
(299.84 117.204 0)
(307.454 116.717 0)
(315.437 115.946 0)
(324.086 114.561 0)
(331.565 113.164 0)
(339.624 111.165 0)
(346.879 109.143 0)
(354.198 106.912 0)
(361.758 104.279 0)
(368.027 101.646 0)
(373.217 98.4346 0)
(376.458 95.095 0)
(379 92.0984 0)
(383.826 90.8008 0)
(394.898 89.4309 0)
(398.844 96.1043 0)
(210 3.88692e-12 0)
(210 1.76921e-11 0)
(210 1.34727e-10 0)
(210 1.63514e-08 0)
(210 5.48964e-06 0)
(209.996 0.00062915 0)
(209.927 0.017709 0)
(209.511 0.154544 0)
(208.598 0.508929 0)
(207.819 0.864526 0)
(207.473 1.03318 0)
(207.575 1.14262 0)
(208.219 0.97316 0)
(209.228 0.654396 0)
(210.096 0.428677 0)
(210.755 0.44619 0)
(211.258 0.576283 0)
(211.723 0.748404 0)
(212.251 0.921594 0)
(212.855 1.10213 0)
(213.462 1.32177 0)
(213.938 1.59533 0)
(214.166 1.92506 0)
(214.237 2.25616 0)
(214.13 2.63808 0)
(213.891 3.05892 0)
(213.742 3.47041 0)
(213.736 3.86871 0)
(213.795 4.28331 0)
(213.906 4.7036 0)
(214.044 5.14595 0)
(214.168 5.62049 0)
(214.279 6.12283 0)
(214.392 6.64623 0)
(214.496 7.19117 0)
(214.591 7.75753 0)
(214.679 8.3452 0)
(214.758 8.95669 0)
(214.824 9.59448 0)
(214.879 10.2606 0)
(214.919 10.9571 0)
(214.945 11.6841 0)
(214.956 12.4411 0)
(214.954 13.2242 0)
(214.936 14.0357 0)
(214.906 14.8702 0)
(214.862 15.7286 0)
(214.803 16.61 0)
(214.73 17.5142 0)
(214.641 18.4416 0)
(214.538 19.3925 0)
(214.419 20.3679 0)
(214.283 21.3686 0)
(214.131 22.396 0)
(213.964 23.4507 0)
(213.783 24.5326 0)
(213.59 25.6423 0)
(213.385 26.7807 0)
(213.168 27.9492 0)
(212.941 29.1488 0)
(212.704 30.3803 0)
(212.459 31.6447 0)
(212.207 32.9432 0)
(211.95 34.276 0)
(211.69 35.6454 0)
(211.43 37.052 0)
(211.165 38.5026 0)
(210.909 39.9866 0)
(210.661 41.5146 0)
(210.417 43.0884 0)
(210.189 44.7056 0)
(209.978 46.3719 0)
(209.782 48.0854 0)
(209.621 49.8506 0)
(209.488 51.6665 0)
(209.391 53.5347 0)
(209.346 55.4594 0)
(209.344 57.4397 0)
(209.412 59.4814 0)
(209.533 61.583 0)
(209.744 63.7497 0)
(210.027 65.9788 0)
(210.416 68.2737 0)
(210.917 70.6329 0)
(211.538 73.0562 0)
(212.315 75.5426 0)
(213.228 78.0894 0)
(214.353 80.6934 0)
(215.63 83.3536 0)
(217.178 86.061 0)
(218.898 88.8169 0)
(220.945 91.6038 0)
(223.203 94.4404 0)
(225.866 97.2735 0)
(228.741 100.133 0)
(232.142 102.884 0)
(235.7 105.677 0)
(239.932 108.206 0)
(244.289 110.791 0)
(249.377 113.087 0)
(254.765 115.27 0)
(260.544 117.021 0)
(266.915 118.703 0)
(273.742 120.031 0)
(280.784 120.923 0)
(287.963 121.57 0)
(296.509 121.662 0)
(303.725 121.498 0)
(312.733 120.684 0)
(320.289 119.701 0)
(328.397 118.234 0)
(336.758 116.401 0)
(344.429 114.497 0)
(352.238 112.124 0)
(358.645 109.891 0)
(364.094 107.091 0)
(367.999 104.073 0)
(371.794 101.822 0)
(378.623 99.6478 0)
(390.464 97.7626 0)
(395.143 103.55 0)
(210 9.62023e-12 0)
(210 3.79102e-12 0)
(210 -4.66883e-11 0)
(210 -5.58321e-09 0)
(210 5.70152e-07 0)
(209.998 0.000197921 0)
(209.961 0.00815816 0)
(209.662 0.0962658 0)
(208.826 0.398342 0)
(207.922 0.784608 0)
(207.433 1.01385 0)
(207.462 1.11024 0)
(207.922 1.01655 0)
(208.865 0.72667 0)
(209.779 0.492443 0)
(210.478 0.496594 0)
(210.984 0.617114 0)
(211.419 0.786816 0)
(211.904 0.962364 0)
(212.466 1.14013 0)
(213.055 1.34979 0)
(213.571 1.60336 0)
(213.883 1.90964 0)
(213.998 2.25137 0)
(213.979 2.60564 0)
(213.763 3.01665 0)
(213.545 3.43206 0)
(213.467 3.83946 0)
(213.495 4.24608 0)
(213.567 4.67316 0)
(213.69 5.11167 0)
(213.807 5.57916 0)
(213.908 6.0746 0)
(214.003 6.59152 0)
(214.085 7.13021 0)
(214.162 7.68934 0)
(214.234 8.2693 0)
(214.294 8.87198 0)
(214.342 9.49983 0)
(214.378 10.1549 0)
(214.4 10.8396 0)
(214.409 11.5521 0)
(214.4 12.295 0)
(214.374 13.0676 0)
(214.336 13.8641 0)
(214.285 14.6842 0)
(214.219 15.5271 0)
(214.138 16.3928 0)
(214.042 17.2811 0)
(213.931 18.1919 0)
(213.804 19.1256 0)
(213.66 20.0829 0)
(213.5 21.0651 0)
(213.323 22.0731 0)
(213.129 23.1077 0)
(212.921 24.1689 0)
(212.698 25.2573 0)
(212.463 26.3737 0)
(212.214 27.5193 0)
(211.953 28.6952 0)
(211.681 29.9025 0)
(211.398 31.1418 0)
(211.107 32.4143 0)
(210.807 33.7214 0)
(210.502 35.0641 0)
(210.192 36.4447 0)
(209.881 37.8618 0)
(209.569 39.3186 0)
(209.261 40.8165 0)
(208.95 42.3625 0)
(208.655 43.9466 0)
(208.369 45.5802 0)
(208.093 47.2615 0)
(207.845 48.9945 0)
(207.615 50.7794 0)
(207.417 52.6161 0)
(207.258 54.5103 0)
(207.135 56.4608 0)
(207.071 58.4741 0)
(207.049 60.5488 0)
(207.105 62.6919 0)
(207.218 64.9009 0)
(207.425 67.1814 0)
(207.724 69.5318 0)
(208.13 71.9525 0)
(208.672 74.4431 0)
(209.339 77.0019 0)
(210.195 79.6315 0)
(211.187 82.3288 0)
(212.427 85.0877 0)
(213.827 87.903 0)
(215.532 90.7654 0)
(217.428 93.6831 0)
(219.683 96.6194 0)
(222.136 99.5885 0)
(225.061 102.502 0)
(228.159 105.442 0)
(231.906 108.221 0)
(235.759 111.085 0)
(240.329 113.646 0)
(245.038 116.317 0)
(250.503 118.708 0)
(256.367 120.838 0)
(262.837 122.762 0)
(269.914 124.316 0)
(276.836 125.423 0)
(285.026 126.299 0)
(292.477 126.676 0)
(300.546 126.707 0)
(309.232 126.13 0)
(317.417 125.253 0)
(326.594 123.784 0)
(334.964 122.077 0)
(343.391 119.956 0)
(351.462 117.396 0)
(357.881 114.477 0)
(362.014 111.406 0)
(364.896 109.191 0)
(370.676 107.85 0)
(383.494 106.192 0)
(388.006 113.542 0)
(210 4.47672e-12 0)
(210 -1.93812e-12 0)
(210 -3.31073e-11 0)
(210 -4.63292e-09 0)
(210 -2.02239e-07 0)
(209.999 4.68167e-05 0)
(209.981 0.00322366 0)
(209.787 0.0538055 0)
(209.072 0.291284 0)
(208.086 0.687521 0)
(207.43 0.964715 0)
(207.378 1.05861 0)
(207.647 1.02885 0)
(208.498 0.812676 0)
(209.448 0.572319 0)
(210.184 0.544516 0)
(210.696 0.645357 0)
(211.105 0.80794 0)
(211.549 0.985234 0)
(212.07 1.16078 0)
(212.628 1.3595 0)
(213.155 1.59404 0)
(213.544 1.87691 0)
(213.721 2.21213 0)
(213.775 2.55192 0)
(213.643 2.94608 0)
(213.385 3.36787 0)
(213.214 3.78255 0)
(213.192 4.19085 0)
(213.231 4.62263 0)
(213.324 5.06107 0)
(213.432 5.52467 0)
(213.524 6.01623 0)
(213.603 6.52867 0)
(213.664 7.06121 0)
(213.723 7.61258 0)
(213.774 8.18453 0)
(213.815 8.77812 0)
(213.844 9.39612 0)
(213.862 10.0394 0)
(213.867 10.7089 0)
(213.856 11.4086 0)
(213.824 12.1397 0)
(213.779 12.8967 0)
(213.719 13.6789 0)
(213.645 14.4846 0)
(213.557 15.3129 0)
(213.453 16.1633 0)
(213.333 17.0356 0)
(213.198 17.9299 0)
(213.047 18.8464 0)
(212.879 19.786 0)
(212.694 20.7498 0)
(212.49 21.7389 0)
(212.269 22.7541 0)
(212.031 23.7957 0)
(211.778 24.8641 0)
(211.51 25.9598 0)
(211.228 27.0842 0)
(210.932 28.2383 0)
(210.622 29.4232 0)
(210.301 30.6395 0)
(209.968 31.8884 0)
(209.626 33.1707 0)
(209.274 34.488 0)
(208.916 35.8415 0)
(208.551 37.2332 0)
(208.183 38.6636 0)
(207.814 40.1351 0)
(207.447 41.6462 0)
(207.084 43.202 0)
(206.723 44.8061 0)
(206.369 46.4566 0)
(206.038 48.1544 0)
(205.715 49.9067 0)
(205.423 51.7088 0)
(205.158 53.5689 0)
(204.924 55.4839 0)
(204.739 57.4609 0)
(204.587 59.4982 0)
(204.504 61.6036 0)
(204.464 63.774 0)
(204.507 66.0166 0)
(204.626 68.3294 0)
(204.837 70.7144 0)
(205.164 73.1741 0)
(205.595 75.7079 0)
(206.191 78.3199 0)
(206.903 81.0042 0)
(207.837 83.7638 0)
(208.906 86.5968 0)
(210.248 89.5057 0)
(211.758 92.4866 0)
(213.6 95.511 0)
(215.643 98.5801 0)
(218.125 101.647 0)
(220.799 104.766 0)
(224.056 107.838 0)
(227.453 111.021 0)
(231.613 113.995 0)
(235.85 117.022 0)
(240.812 119.688 0)
(246.056 122.347 0)
(251.9 124.636 0)
(258.396 126.827 0)
(265.268 128.476 0)
(272.504 129.912 0)
(280.507 130.957 0)
(287.922 131.642 0)
(297.323 131.786 0)
(305.181 131.575 0)
(313.986 130.787 0)
(322.485 129.752 0)
(330.958 128.304 0)
(339.335 126.687 0)
(348.195 123.749 0)
(353.813 120.316 0)
(358.614 116.282 0)
(364.687 114.251 0)
(377.982 112.863 0)
(381.614 122.097 0)
(210 1.06105e-13 0)
(210 8.62308e-12 0)
(210 -1.51539e-11 0)
(210 -1.99013e-09 0)
(210 -1.45084e-07 0)
(210 5.47579e-06 0)
(209.992 0.00104605 0)
(209.878 0.0263155 0)
(209.316 0.194734 0)
(208.299 0.57005 0)
(207.471 0.888241 0)
(207.321 0.999314 0)
(207.418 1.04235 0)
(208.136 0.910756 0)
(209.101 0.658032 0)
(209.871 0.589166 0)
(210.395 0.668434 0)
(210.783 0.822236 0)
(211.191 1.00096 0)
(211.675 1.17629 0)
(212.196 1.36792 0)
(212.707 1.59219 0)
(213.137 1.8606 0)
(213.397 2.1793 0)
(213.498 2.53537 0)
(213.466 2.90581 0)
(213.23 3.32085 0)
(212.984 3.73973 0)
(212.883 4.15626 0)
(212.891 4.57788 0)
(212.949 5.02016 0)
(213.042 5.4767 0)
(213.127 5.95812 0)
(213.19 6.46183 0)
(213.234 6.98581 0)
(213.272 7.52952 0)
(213.301 8.09305 0)
(213.322 8.67633 0)
(213.332 9.28267 0)
(213.333 9.91067 0)
(213.317 10.5684 0)
(213.285 11.2546 0)
(213.235 11.969 0)
(213.168 12.7109 0)
(213.086 13.4779 0)
(212.989 14.2679 0)
(212.879 15.0798 0)
(212.753 15.9133 0)
(212.611 16.7682 0)
(212.452 17.6445 0)
(212.278 18.5424 0)
(212.086 19.4626 0)
(211.876 20.4063 0)
(211.647 21.3746 0)
(211.4 22.3682 0)
(211.135 23.3875 0)
(210.854 24.433 0)
(210.556 25.5051 0)
(210.244 26.6049 0)
(209.916 27.7336 0)
(209.572 28.8922 0)
(209.215 30.0816 0)
(208.845 31.3026 0)
(208.463 32.5564 0)
(208.069 33.8445 0)
(207.666 35.168 0)
(207.254 36.5279 0)
(206.835 37.9258 0)
(206.412 39.3633 0)
(205.984 40.8426 0)
(205.555 42.3655 0)
(205.128 43.9325 0)
(204.707 45.5448 0)
(204.297 47.2049 0)
(203.88 48.926 0)
(203.498 50.6868 0)
(203.129 52.5084 0)
(202.787 54.3856 0)
(202.482 56.3259 0)
(202.202 58.3271 0)
(201.978 60.3976 0)
(201.786 62.5343 0)
(201.665 64.7463 0)
(201.603 67.0317 0)
(201.618 69.3942 0)
(201.73 71.8364 0)
(201.934 74.3563 0)
(202.281 76.9601 0)
(202.729 79.643 0)
(203.375 82.4145 0)
(204.138 85.2654 0)
(205.149 88.1965 0)
(206.316 91.1959 0)
(207.783 94.257 0)
(209.43 97.389 0)
(211.464 100.577 0)
(213.684 103.844 0)
(216.428 107.111 0)
(219.325 110.439 0)
(222.907 113.635 0)
(226.583 116.925 0)
(231.094 119.938 0)
(235.702 123.036 0)
(241.087 125.808 0)
(246.879 128.482 0)
(253.394 130.864 0)
(260.298 132.898 0)
(268.008 134.702 0)
(275.979 135.939 0)
(284.186 136.902 0)
(293.185 137.282 0)
(301.486 137.247 0)
(311.26 136.647 0)
(320.004 135.823 0)
(328.804 134.604 0)
(336.481 132.804 0)
(342.529 130.389 0)
(347.864 127.756 0)
(355.051 125.488 0)
(368.949 123.277 0)
(373.466 130.75 0)
(210 4.69967e-12 0)
(210 2.06984e-11 0)
(210 -9.59957e-12 0)
(210 -6.63842e-10 0)
(210 -6.14891e-08 0)
(210 -1.70386e-06 0)
(209.997 0.000254088 0)
(209.938 0.0109577 0)
(209.537 0.11678 0)
(208.569 0.4414 0)
(207.584 0.789761 0)
(207.286 0.952471 0)
(207.242 1.04714 0)
(207.783 0.981575 0)
(208.727 0.727299 0)
(209.535 0.62566 0)
(210.08 0.68244 0)
(210.455 0.823361 0)
(210.829 0.999221 0)
(211.279 1.17117 0)
(211.764 1.35288 0)
(212.245 1.56544 0)
(212.687 1.82238 0)
(213.024 2.12861 0)
(213.185 2.48928 0)
(213.235 2.84969 0)
(213.086 3.25297 0)
(212.8 3.67783 0)
(212.601 4.09871 0)
(212.551 4.52115 0)
(212.577 4.96312 0)
(212.642 5.41707 0)
(212.717 5.89238 0)
(212.765 6.39042 0)
(212.796 6.90322 0)
(212.812 7.43691 0)
(212.817 7.99011 0)
(212.817 8.56225 0)
(212.807 9.15561 0)
(212.787 9.77312 0)
(212.752 10.4155 0)
(212.701 11.0855 0)
(212.63 11.7843 0)
(212.542 12.5105 0)
(212.437 13.2616 0)
(212.318 14.0355 0)
(212.185 14.8309 0)
(212.036 15.6474 0)
(211.871 16.4848 0)
(211.689 17.343 0)
(211.491 18.2223 0)
(211.274 19.1233 0)
(211.039 20.047 0)
(210.785 20.9947 0)
(210.511 21.9672 0)
(210.218 22.9651 0)
(209.907 23.9885 0)
(209.578 25.038 0)
(209.234 26.1145 0)
(208.872 27.2192 0)
(208.494 28.3532 0)
(208.099 29.5172 0)
(207.69 30.7123 0)
(207.267 31.9392 0)
(206.83 33.1994 0)
(206.38 34.494 0)
(205.92 35.8247 0)
(205.449 37.1924 0)
(204.97 38.5989 0)
(204.484 40.0452 0)
(203.994 41.5334 0)
(203.5 43.0657 0)
(203.006 44.6445 0)
(202.513 46.2722 0)
(202.03 47.9447 0)
(201.558 49.6694 0)
(201.088 51.455 0)
(200.645 53.289 0)
(200.228 55.1841 0)
(199.832 57.1404 0)
(199.482 59.1647 0)
(199.154 61.2544 0)
(198.888 63.4182 0)
(198.665 65.6542 0)
(198.507 67.967 0)
(198.428 70.3604 0)
(198.425 72.8337 0)
(198.542 75.3956 0)
(198.741 78.0409 0)
(199.111 80.782 0)
(199.576 83.6079 0)
(200.261 86.5322 0)
(201.075 89.5471 0)
(202.156 92.6579 0)
(203.401 95.8595 0)
(204.998 99.1394 0)
(206.772 102.499 0)
(209.011 105.898 0)
(211.414 109.36 0)
(214.44 112.772 0)
(217.571 116.262 0)
(221.505 119.608 0)
(225.513 123.076 0)
(230.379 126.236 0)
(235.449 129.439 0)
(241.279 132.329 0)
(247.775 135.093 0)
(254.564 137.342 0)
(262.409 139.514 0)
(269.619 141.055 0)
(278.889 142.324 0)
(286.912 142.947 0)
(297.31 143.203 0)
(306.05 143.039 0)
(316.958 142.008 0)
(325.923 140.242 0)
(332.602 137.979 0)
(337.832 135.352 0)
(343.96 134.257 0)
(359.26 132.545 0)
(363.554 142.401 0)
(210 1.70938e-12 0)
(210 -5.91513e-12 0)
(210 -1.77577e-11 0)
(210 -1.68197e-10 0)
(210 -2.00043e-08 0)
(210 -1.30891e-06 0)
(209.999 3.15926e-05 0)
(209.972 0.00371002 0)
(209.716 0.0611396 0)
(208.874 0.314157 0)
(207.769 0.673594 0)
(207.263 0.914382 0)
(207.115 1.00799 0)
(207.458 1.01421 0)
(208.342 0.796733 0)
(209.187 0.672686 0)
(209.755 0.691695 0)
(210.122 0.813078 0)
(210.465 0.98538 0)
(210.881 1.16148 0)
(211.336 1.34407 0)
(211.784 1.55374 0)
(212.212 1.80757 0)
(212.592 2.10679 0)
(212.834 2.45488 0)
(212.931 2.83519 0)
(212.891 3.21202 0)
(212.632 3.6263 0)
(212.352 4.04868 0)
(212.212 4.47381 0)
(212.201 4.90665 0)
(212.235 5.36167 0)
(212.293 5.82553 0)
(212.328 6.31192 0)
(212.35 6.80924 0)
(212.341 7.33687 0)
(212.323 7.87929 0)
(212.3 8.43906 0)
(212.269 9.01888 0)
(212.229 9.62103 0)
(212.175 10.2483 0)
(212.104 10.9028 0)
(212.013 11.5852 0)
(211.903 12.2945 0)
(211.776 13.0287 0)
(211.635 13.7853 0)
(211.479 14.5631 0)
(211.308 15.3615 0)
(211.121 16.1803 0)
(210.916 17.0193 0)
(210.694 17.8788 0)
(210.454 18.7592 0)
(210.196 19.6615 0)
(209.917 20.5868 0)
(209.618 21.5361 0)
(209.298 22.5101 0)
(208.959 23.5089 0)
(208.603 24.5331 0)
(208.229 25.5835 0)
(207.836 26.661 0)
(207.426 27.767 0)
(206.998 28.9021 0)
(206.554 30.0673 0)
(206.093 31.2635 0)
(205.617 32.492 0)
(205.126 33.7539 0)
(204.621 35.0508 0)
(204.103 36.3837 0)
(203.574 37.7542 0)
(203.035 39.1637 0)
(202.487 40.6143 0)
(201.932 42.1074 0)
(201.371 43.6452 0)
(200.809 45.2296 0)
(200.246 46.8635 0)
(199.685 48.5484 0)
(199.134 50.2836 0)
(198.597 52.0736 0)
(198.068 53.9263 0)
(197.554 55.8388 0)
(197.079 57.8145 0)
(196.614 59.859 0)
(196.204 61.9782 0)
(195.819 64.1718 0)
(195.489 66.4435 0)
(195.218 68.7984 0)
(195.01 71.2356 0)
(194.902 73.7646 0)
(194.862 76.3792 0)
(194.971 79.0956 0)
(195.156 81.901 0)
(195.537 84.8128 0)
(196.028 87.8156 0)
(196.757 90.9201 0)
(197.629 94.12 0)
(198.807 97.4217 0)
(200.137 100.819 0)
(201.878 104.291 0)
(203.779 107.84 0)
(206.247 111.423 0)
(208.856 115.112 0)
(212.207 118.766 0)
(215.655 122.547 0)
(219.996 126.141 0)
(224.468 129.839 0)
(229.8 133.197 0)
(235.48 136.508 0)
(241.941 139.547 0)
(249.029 142.409 0)
(256.606 144.627 0)
(265.021 146.569 0)
(273.811 147.976 0)
(282.13 149.049 0)
(292.369 149.62 0)
(301.346 149.845 0)
(312.553 149.081 0)
(320.811 147.176 0)
(328.835 143.468 0)
(336.208 140.963 0)
(351.498 139.793 0)
(355.465 150.608 0)
(210 1.07794e-12 0)
(210 -1.28598e-11 0)
(210 -1.85257e-11 0)
(210 -5.78405e-11 0)
(210 -5.44026e-09 0)
(210 -4.5878e-07 0)
(210 -8.03177e-06 0)
(209.989 0.000927436 0)
(209.845 0.027177 0)
(209.18 0.200905 0)
(208.037 0.549863 0)
(207.292 0.849612 0)
(207.024 0.941979 0)
(207.193 1.01256 0)
(207.963 0.871517 0)
(208.824 0.71696 0)
(209.417 0.678834 0)
(209.787 0.780795 0)
(210.108 0.954448 0)
(210.491 1.14353 0)
(210.917 1.33329 0)
(211.338 1.54101 0)
(211.739 1.7899 0)
(212.127 2.08147 0)
(212.435 2.41964 0)
(212.587 2.79908 0)
(212.625 3.16566 0)
(212.462 3.56357 0)
(212.145 3.9854 0)
(211.903 4.40849 0)
(211.818 4.83994 0)
(211.825 5.28342 0)
(211.856 5.746 0)
(211.883 6.22099 0)
(211.891 6.711 0)
(211.864 7.22304 0)
(211.823 7.75253 0)
(211.776 8.29939 0)
(211.723 8.86528 0)
(211.661 9.45288 0)
(211.587 10.0649 0)
(211.495 10.7034 0)
(211.384 11.3694 0)
(211.254 12.062 0)
(211.105 12.779 0)
(210.942 13.5181 0)
(210.764 14.2777 0)
(210.571 15.0573 0)
(210.361 15.8569 0)
(210.133 16.6763 0)
(209.888 17.5158 0)
(209.625 18.3757 0)
(209.341 19.2569 0)
(209.038 20.1603 0)
(208.712 21.0871 0)
(208.366 22.0377 0)
(207.999 23.0127 0)
(207.613 24.0124 0)
(207.208 25.0375 0)
(206.784 26.0889 0)
(206.341 27.168 0)
(205.878 28.2755 0)
(205.397 29.4123 0)
(204.898 30.5792 0)
(204.381 31.7774 0)
(203.848 33.0082 0)
(203.297 34.2729 0)
(202.732 35.5726 0)
(202.152 36.9088 0)
(201.558 38.2828 0)
(200.953 39.6965 0)
(200.337 41.1514 0)
(199.712 42.6499 0)
(199.08 44.1934 0)
(198.443 45.7841 0)
(197.804 47.4236 0)
(197.168 49.1153 0)
(196.534 50.8615 0)
(195.91 52.663 0)
(195.301 54.5213 0)
(194.71 56.4447 0)
(194.117 58.4392 0)
(193.58 60.4967 0)
(193.05 62.6306 0)
(192.572 64.8409 0)
(192.133 67.1344 0)
(191.745 69.5096 0)
(191.436 71.9772 0)
(191.178 74.5319 0)
(191.045 77.1924 0)
(190.965 79.9446 0)
(191.057 82.8126 0)
(191.231 85.7807 0)
(191.612 88.8708 0)
(192.11 92.0713 0)
(192.875 95.3916 0)
(193.782 98.8138 0)
(195.057 102.339 0)
(196.486 105.965 0)
(198.415 109.686 0)
(200.484 113.523 0)
(203.212 117.394 0)
(206.047 121.375 0)
(209.717 125.267 0)
(213.478 129.271 0)
(218.187 133.044 0)
(223.119 136.904 0)
(228.899 140.461 0)
(235.227 143.96 0)
(242.441 147.096 0)
(249.754 149.679 0)
(258.681 152.286 0)
(266.851 154.088 0)
(276.963 155.619 0)
(286.169 156.733 0)
(296.319 156.95 0)
(304.878 156.337 0)
(312.407 154.565 0)
(319.907 153.367 0)
(335.387 152.096 0)
(338.737 162.451 0)
(210 -3.12617e-12 0)
(210 -1.44205e-11 0)
(210 -1.71967e-11 0)
(210 -1.65402e-11 0)
(210 -1.27602e-09 0)
(210 -1.32265e-07 0)
(210 -6.8875e-06 0)
(209.996 0.000115114 0)
(209.925 0.00975307 0)
(209.456 0.113362 0)
(208.361 0.414996 0)
(207.397 0.756868 0)
(206.952 0.87483 0)
(207.002 1.01158 0)
(207.6 0.925356 0)
(208.444 0.74028 0)
(209.073 0.656595 0)
(209.458 0.755766 0)
(209.764 0.94012 0)
(210.113 1.14355 0)
(210.507 1.33786 0)
(210.904 1.53973 0)
(211.276 1.78023 0)
(211.647 2.06484 0)
(211.984 2.39295 0)
(212.206 2.75502 0)
(212.281 3.13805 0)
(212.234 3.5052 0)
(211.953 3.91015 0)
(211.633 4.32969 0)
(211.451 4.7586 0)
(211.404 5.19861 0)
(211.411 5.65152 0)
(211.424 6.11675 0)
(211.419 6.59705 0)
(211.38 7.09646 0)
(211.317 7.61385 0)
(211.245 8.14777 0)
(211.168 8.69954 0)
(211.084 9.27193 0)
(210.989 9.86787 0)
(210.878 10.4897 0)
(210.748 11.1387 0)
(210.596 11.8141 0)
(210.427 12.5138 0)
(210.241 13.2353 0)
(210.041 13.9768 0)
(209.825 14.7376 0)
(209.594 15.5175 0)
(209.344 16.3165 0)
(209.077 17.1347 0)
(208.79 17.9725 0)
(208.484 18.8307 0)
(208.157 19.7104 0)
(207.808 20.6125 0)
(207.437 21.5378 0)
(207.044 22.4868 0)
(206.631 23.4597 0)
(206.198 24.4571 0)
(205.745 25.48 0)
(205.272 26.5294 0)
(204.777 27.6063 0)
(204.263 28.7115 0)
(203.729 29.8458 0)
(203.177 31.0103 0)
(202.605 32.2062 0)
(202.014 33.4349 0)
(201.406 34.6973 0)
(200.78 35.995 0)
(200.138 37.3293 0)
(199.482 38.7019 0)
(198.81 40.1143 0)
(198.126 41.5689 0)
(197.43 43.0671 0)
(196.725 44.6113 0)
(196.013 46.2031 0)
(195.296 47.845 0)
(194.577 49.5393 0)
(193.86 51.2896 0)
(193.147 53.0989 0)
(192.44 54.9699 0)
(191.748 56.9012 0)
(191.08 58.9043 0)
(190.395 60.9898 0)
(189.771 63.1395 0)
(189.162 65.3751 0)
(188.597 67.6948 0)
(188.088 70.1081 0)
(187.621 72.6095 0)
(187.255 75.2171 0)
(186.928 77.9165 0)
(186.749 80.7362 0)
(186.631 83.6563 0)
(186.693 86.7019 0)
(186.851 89.8559 0)
(187.242 93.1387 0)
(187.751 96.5362 0)
(188.576 100.072 0)
(189.529 103.736 0)
(190.915 107.539 0)
(192.432 111.464 0)
(194.536 115.473 0)
(196.763 119.589 0)
(199.757 123.717 0)
(202.856 127.971 0)
(206.902 132.126 0)
(211.103 136.409 0)
(216.271 140.447 0)
(221.767 144.516 0)
(228.075 148.292 0)
(235.285 151.978 0)
(243.001 154.999 0)
(252.097 157.992 0)
(261.028 160.141 0)
(271.385 162.226 0)
(282.684 163.369 0)
(291.924 163.251 0)
(300.227 161.592 0)
(307.08 161.363 0)
(323.293 161.249 0)
(325.609 174.317 0)
(210 -3.8357e-12 0)
(210 -1.30932e-11 0)
(210 -7.69163e-12 0)
(210 -2.8154e-12 0)
(210 -2.76237e-10 0)
(210 -3.26922e-08 0)