/*--------------------------------*- C++ -*----------------------------------*\
| =========                 |                                                 |
| \\      /  F ield         | OpenFOAM: The Open Source CFD Toolbox           |
|  \\    /   O peration     | Version:  2412                                  |
|   \\  /    A nd           | Website:  www.openfoam.com                      |
|    \\/     M anipulation  |                                                 |
\*---------------------------------------------------------------------------*/
FoamFile
{
    version     2.0;
    format      ascii;
    arch        "LSB;label=32;scalar=64";
    class       volVectorField;
    location    "0.048";
    object      U;
}
// * * * * * * * * * * * * * * * * * * * * * * * * * * * * * * * * * * * * * //

dimensions      [0 1 -1 0 0 0 0];

internalField   nonuniform List<vector> 
9816
(
(189.73 -29.8289 0)
(189.671 -30.1978 0)
(189.63 -30.5594 0)
(189.6 -30.9129 0)
(189.588 -31.2583 0)
(189.58 -31.5924 0)
(189.57 -31.9198 0)
(189.578 -32.2331 0)
(189.596 -32.5376 0)
(189.617 -32.8319 0)
(189.648 -33.1167 0)
(189.679 -33.3924 0)
(189.721 -33.6583 0)
(189.758 -33.9149 0)
(189.808 -34.1606 0)
(189.839 -34.3956 0)
(189.888 -34.6209 0)
(189.933 -34.8357 0)
(189.927 -35.0431 0)
(190.035 -35.2534 0)
(190.181 -35.4574 0)
(190.35 -35.6631 0)
(190.549 -35.861 0)
(190.761 -36.0557 0)
(190.975 -36.2396 0)
(191.166 -36.4144 0)
(191.321 -36.571 0)
(191.392 -36.7224 0)
(191.333 -36.8276 0)
(191.038 -36.8118 0)
(190.333 -36.8209 0)
(189.162 -36.6371 0)
(187.503 -36.5099 0)
(185.412 -36.1105 0)
(182.801 -35.8422 0)
(179.69 -35.2244 0)
(175.956 -34.7349 0)
(171.721 -33.8132 0)
(166.944 -33.1756 0)
(161.914 -32.2554 0)
(156.863 -31.6982 0)
(152.519 -30.4733 0)
(197.152 -29.7331 0)
(197.174 -29.9368 0)
(197.194 -30.1297 0)
(197.213 -30.3121 0)
(197.235 -30.485 0)
(197.232 -30.6458 0)
(197.252 -30.8006 0)
(197.257 -30.9461 0)
(197.277 -31.0856 0)
(197.283 -31.2166 0)
(197.305 -31.3432 0)
(197.312 -31.462 0)
(197.334 -31.5767 0)
(197.348 -31.6848 0)
(197.343 -31.786 0)
(197.383 -31.8855 0)
(197.37 -31.9836 0)
(197.432 -32.0811 0)
(197.539 -32.1779 0)
(197.68 -32.2752 0)
(197.83 -32.3716 0)
(197.968 -32.4598 0)
(198.075 -32.5415 0)
(198.153 -32.6067 0)
(198.183 -32.683 0)
(198.092 -32.698 0)
(197.653 -32.6449 0)
(196.657 -32.545 0)
(195.041 -32.3146 0)
(192.796 -32.0443 0)
(189.96 -31.5802 0)
(186.527 -31.1296 0)
(182.597 -30.4283 0)
(178.265 -29.8607 0)
(173.856 -29.0585 0)
(169.625 -28.5764 0)
(165.998 -27.817 0)
(163.084 -27.6057 0)
(161.011 -27.3397 0)
(159.664 -27.111 0)
(158.92 -26.8096 0)
(158.553 -26.9755 0)
(200.419 -29.0263 0)
(200.425 -29.1654 0)
(200.436 -29.2995 0)
(200.444 -29.4291 0)
(200.464 -29.5544 0)
(200.482 -29.6774 0)
(200.513 -29.798 0)
(200.552 -29.9154 0)
(200.587 -30.0327 0)
(200.635 -30.1441 0)
(200.672 -30.2572 0)
(200.725 -30.3613 0)
(200.75 -30.4699 0)
(200.805 -30.5648 0)
(200.817 -30.6713 0)
(200.886 -30.7626 0)
(200.964 -30.8641 0)
(201.068 -30.9549 0)
(201.168 -31.0502 0)
(201.262 -31.1264 0)
(201.313 -31.2049 0)
(201.308 -31.282 0)
(201.204 -31.3167 0)
(200.893 -31.3094 0)
(200.216 -31.2443 0)
(199.03 -31.1028 0)
(197.246 -30.8879 0)
(194.793 -30.529 0)
(191.615 -30.0816 0)
(187.776 -29.5117 0)
(183.459 -28.8873 0)
(178.953 -28.2288 0)
(174.597 -27.5967 0)
(170.725 -27.0162 0)
(167.57 -26.6294 0)
(165.239 -26.3894 0)
(163.732 -26.0238 0)
(162.834 -25.8673 0)
(162.372 -26.0094 0)
(162.204 -26.0895 0)
(162.174 -26.0691 0)
(162.221 -26.0228 0)
(202.642 -28.884 0)
(202.694 -29.0066 0)
(202.729 -29.1354 0)
(202.794 -29.2518 0)
(202.848 -29.3763 0)
(202.929 -29.4874 0)
(203.004 -29.6063 0)
(203.097 -29.711 0)
(203.175 -29.8219 0)
(203.264 -29.9163 0)
(203.33 -30.0169 0)
(203.404 -30.0988 0)
(203.453 -30.1884 0)
(203.521 -30.2608 0)
(203.582 -30.3386 0)
(203.652 -30.4048 0)
(203.711 -30.4708 0)
(203.76 -30.5234 0)
(203.776 -30.5786 0)
(203.746 -30.6279 0)
(203.634 -30.637 0)
(203.354 -30.6447 0)
(202.795 -30.5716 0)
(201.813 -30.4928 0)
(200.297 -30.273 0)
(198.115 -30.0324 0)
(195.208 -29.5903 0)
(191.561 -29.1468 0)
(187.339 -28.5197 0)
(182.785 -27.9469 0)
(178.28 -27.2956 0)
(174.165 -26.8074 0)
(170.758 -26.3076 0)
(168.187 -25.9101 0)
(166.422 -25.8371 0)
(165.355 -25.8114 0)
(164.835 -25.6011 0)
(164.624 -25.4865 0)
(164.566 -25.5189 0)
(164.567 -25.6391 0)
(164.628 -25.7516 0)
(164.801 -25.7874 0)
(204.312 -28.8145 0)
(204.377 -28.9133 0)
(204.429 -29.0171 0)
(204.496 -29.106 0)
(204.553 -29.1963 0)
(204.616 -29.2738 0)
(204.669 -29.3482 0)
(204.716 -29.4121 0)
(204.749 -29.4701 0)
(204.768 -29.5196 0)
(204.772 -29.5638 0)
(204.777 -29.6014 0)
(204.767 -29.6365 0)
(204.775 -29.6669 0)
(204.771 -29.6969 0)
(204.78 -29.7217 0)
(204.784 -29.7472 0)
(204.768 -29.7743 0)
(204.711 -29.7833 0)
(204.582 -29.7904 0)
(204.324 -29.7642 0)
(203.845 -29.7305 0)
(203.029 -29.6232 0)
(201.723 -29.4825 0)
(199.79 -29.2231 0)
(197.122 -28.9066 0)
(193.722 -28.4633 0)
(189.703 -27.9681 0)
(185.313 -27.4246 0)
(180.885 -26.8615 0)
(176.763 -26.3469 0)
(173.226 -25.9327 0)
(170.442 -25.6737 0)
(168.504 -25.2646 0)
(167.276 -25.1267 0)
(166.615 -25.2324 0)
(166.356 -25.2476 0)
(166.29 -25.187 0)
(166.278 -25.1258 0)
(166.297 -25.1082 0)
(166.354 -25.1485 0)
(166.503 -25.2393 0)
(205.432 -28.7672 0)
(205.458 -28.8343 0)
(205.475 -28.8961 0)
(205.487 -28.9501 0)
(205.491 -28.9981 0)
(205.487 -29.0399 0)
(205.475 -29.0764 0)
(205.451 -29.1075 0)
(205.42 -29.1333 0)
(205.383 -29.1551 0)
(205.346 -29.1744 0)
(205.312 -29.1922 0)
(205.285 -29.2098 0)
(205.272 -29.2292 0)
(205.253 -29.2446 0)
(205.25 -29.262 0)
(205.239 -29.2795 0)
(205.208 -29.2947 0)
(205.133 -29.2934 0)
(204.977 -29.2983 0)
(204.678 -29.2544 0)
(204.135 -29.2256 0)
(203.24 -29.0891 0)
(201.837 -28.9651 0)
(199.819 -28.6761 0)
(197.084 -28.3883 0)
(193.667 -27.9337 0)
(189.68 -27.4734 0)
(185.38 -26.9465 0)
(181.088 -26.4006 0)
(177.133 -25.959 0)
(173.813 -25.5741 0)
(171.29 -25.2442 0)
(169.579 -24.9592 0)
(168.534 -25.0194 0)
(168.005 -25.0122 0)
(167.791 -24.9362 0)
(167.73 -24.8528 0)
(167.711 -24.8443 0)
(167.716 -24.8835 0)
(167.738 -24.9735 0)
(167.836 -25.0418 0)
(206.082 -28.8388 0)
(206.064 -28.8809 0)
(206.04 -28.9175 0)
(206.012 -28.9495 0)
(205.98 -28.9774 0)
(205.943 -29.0017 0)
(205.902 -29.0226 0)
(205.857 -29.0407 0)
(205.809 -29.0568 0)
(205.763 -29.0714 0)
(205.72 -29.0854 0)
(205.684 -29.099 0)
(205.657 -29.1136 0)
(205.642 -29.1299 0)
(205.625 -29.1432 0)
(205.623 -29.1586 0)
(205.611 -29.1755 0)
(205.576 -29.1854 0)
(205.494 -29.1849 0)
(205.323 -29.1812 0)
(204.997 -29.1399 0)
(204.415 -29.0939 0)
(203.459 -28.9593 0)
(201.989 -28.815 0)
(199.911 -28.5307 0)
(197.155 -28.2322 0)
(193.768 -27.7894 0)
(189.876 -27.3386 0)
(185.727 -26.8237 0)
(181.633 -26.3175 0)
(177.906 -25.9172 0)
(174.815 -25.5207 0)
(172.479 -25.2025 0)
(170.876 -25.0493 0)
(169.889 -25.0925 0)
(169.394 -24.973 0)
(169.192 -24.8692 0)
(169.103 -24.846 0)
(169.083 -24.89 0)
(169.075 -24.9766 0)
(169.091 -25.0426 0)
(169.159 -25.058 0)
(206.536 -28.9241 0)
(206.493 -28.9562 0)
(206.449 -28.9853 0)
(206.404 -29.0118 0)
(206.359 -29.0368 0)
(206.314 -29.0595 0)
(206.268 -29.0813 0)
(206.222 -29.1012 0)
(206.178 -29.1209 0)
(206.136 -29.1396 0)
(206.101 -29.1588 0)
(206.077 -29.1801 0)
(206.052 -29.1989 0)
(206.044 -29.2206 0)
(206.028 -29.2393 0)
(206.029 -29.2592 0)
(206.015 -29.2835 0)
(205.969 -29.2927 0)
(205.867 -29.2982 0)
(205.663 -29.2862 0)
(205.286 -29.2513 0)
(204.639 -29.1866 0)
(203.608 -29.0585 0)
(202.069 -28.8896 0)
(199.929 -28.6104 0)
(197.14 -28.2911 0)
(193.762 -27.8597 0)
(189.943 -27.404 0)
(185.936 -26.914 0)
(182.045 -26.4257 0)
(178.549 -26.0493 0)
(175.679 -25.6776 0)
(173.522 -25.3846 0)
(172.046 -25.2363 0)
(171.137 -25.2742 0)
(170.678 -25.1688 0)
(170.487 -25.0746 0)
(170.404 -25.0494 0)
(170.385 -25.0876 0)
(170.378 -25.1656 0)
(170.393 -25.2292 0)
(170.45 -25.2441 0)
(207.001 -28.9871 0)
(206.958 -29.0223 0)
(206.916 -29.0562 0)
(206.88 -29.0911 0)
(206.842 -29.123 0)
(206.816 -29.1585 0)
(206.782 -29.1896 0)
(206.762 -29.2249 0)
(206.733 -29.2565 0)
(206.724 -29.2915 0)
(206.702 -29.3252 0)
(206.702 -29.3588 0)
(206.694 -29.3929 0)
(206.697 -29.4254 0)
(206.699 -29.4575 0)
(206.702 -29.4898 0)
(206.681 -29.5246 0)
(206.616 -29.5406 0)
(206.48 -29.5515 0)
(206.222 -29.5386 0)
(205.768 -29.5051 0)
(205.026 -29.4285 0)
(203.884 -29.3001 0)
(202.236 -29.1101 0)
(200.002 -28.8358 0)
(197.157 -28.4957 0)
(193.773 -28.0789 0)
(190.014 -27.6189 0)
(186.133 -27.1567 0)
(182.42 -26.6823 0)
(179.125 -26.3286 0)
(176.443 -26.0028 0)
(174.445 -25.7358 0)
(173.092 -25.5477 0)
(172.262 -25.591 0)
(171.838 -25.5512 0)
(171.659 -25.4821 0)
(171.594 -25.4274 0)
(171.574 -25.4345 0)
(171.573 -25.4752 0)
(171.58 -25.5478 0)
(171.627 -25.5901 0)
(207.537 -29.0928 0)
(207.527 -29.1344 0)
(207.504 -29.1774 0)
(207.504 -29.219 0)
(207.495 -29.2646 0)
(207.505 -29.3065 0)
(207.508 -29.3535 0)
(207.524 -29.3961 0)
(207.535 -29.4431 0)
(207.555 -29.4861 0)
(207.573 -29.5307 0)
(207.592 -29.5732 0)
(207.611 -29.6138 0)
(207.625 -29.6536 0)
(207.639 -29.6892 0)
(207.638 -29.7268 0)
(207.607 -29.7624 0)
(207.524 -29.7756 0)
(207.358 -29.7904 0)
(207.053 -29.7665 0)
(206.531 -29.7403 0)
(205.707 -29.6424 0)
(204.471 -29.529 0)
(202.743 -29.3134 0)
(200.454 -29.0677 0)
(197.612 -28.7145 0)
(194.287 -28.3411 0)
(190.65 -27.8942 0)
(186.919 -27.4796 0)
(183.359 -27.0342 0)
(180.191 -26.6894 0)
(177.588 -26.3944 0)
(175.613 -26.1962 0)
(174.262 -25.9542 0)
(173.411 -25.9153 0)
(172.937 -25.9482 0)
(172.725 -25.9342 0)
(172.656 -25.8823 0)
(172.63 -25.8463 0)
(172.625 -25.8476 0)
(172.629 -25.8816 0)
(172.646 -25.9437 0)
(208.096 -29.3123 0)
(208.117 -29.3536 0)
(208.136 -29.4005 0)
(208.165 -29.443 0)
(208.196 -29.4886 0)
(208.232 -29.5311 0)
(208.267 -29.574 0)
(208.302 -29.6138 0)
(208.333 -29.652 0)
(208.361 -29.6871 0)
(208.385 -29.7192 0)
(208.403 -29.7482 0)
(208.416 -29.774 0)
(208.422 -29.7969 0)
(208.423 -29.8177 0)
(208.412 -29.8388 0)
(208.376 -29.8547 0)
(208.292 -29.8551 0)
(208.126 -29.8599 0)
(207.828 -29.8254 0)
(207.325 -29.8009 0)
(206.542 -29.6982 0)
(205.378 -29.6067 0)
(203.763 -29.3998 0)
(201.628 -29.2008 0)
(198.986 -28.8782 0)
(195.886 -28.5635 0)
(192.473 -28.1654 0)
(188.927 -27.7885 0)
(185.471 -27.4027 0)
(182.311 -27.0523 0)
(179.608 -26.7812 0)
(177.461 -26.5408 0)
(175.882 -26.3458 0)
(174.808 -26.2379 0)
(174.139 -26.2593 0)
(173.789 -26.2035 0)
(173.634 -26.1446 0)
(173.568 -26.1168 0)
(173.547 -26.138 0)
(173.539 -26.1818 0)
(173.539 -26.2218 0)
(208.617 -29.6138 0)
(208.645 -29.6508 0)
(208.675 -29.686 0)
(208.707 -29.7175 0)
(208.736 -29.7458 0)
(208.762 -29.7696 0)
(208.781 -29.7893 0)
(208.792 -29.8047 0)
(208.794 -29.8163 0)
(208.79 -29.8253 0)
(208.781 -29.8322 0)
(208.77 -29.8377 0)
(208.758 -29.8423 0)
(208.744 -29.8455 0)
(208.73 -29.8495 0)
(208.711 -29.8486 0)
(208.678 -29.8558 0)
(208.617 -29.8405 0)
(208.496 -29.847 0)
(208.279 -29.801 0)
(207.9 -29.7979 0)
(207.302 -29.6941 0)
(206.385 -29.6503 0)
(205.093 -29.4639 0)
(203.345 -29.3352 0)
(201.137 -29.0595 0)
(198.472 -28.821 0)
(195.446 -28.4786 0)
(192.178 -28.1573 0)
(188.848 -27.7992 0)
(185.637 -27.473 0)
(182.721 -27.1601 0)
(180.225 -26.9245 0)
(178.23 -26.7037 0)
(176.74 -26.5357 0)
(175.707 -26.4313 0)
(175.044 -26.4458 0)
(174.68 -26.3821 0)
(174.506 -26.327 0)
(174.425 -26.3063 0)
(174.396 -26.3306 0)
(174.385 -26.376 0)
(208.987 -29.8643 0)
(208.988 -29.884 0)
(208.984 -29.8997 0)
(208.975 -29.9123 0)
(208.96 -29.9218 0)
(208.941 -29.9277 0)
(208.919 -29.9308 0)
(208.896 -29.9327 0)
(208.874 -29.9337 0)
(208.853 -29.9343 0)
(208.834 -29.9344 0)
(208.816 -29.9341 0)
(208.797 -29.9329 0)
(208.778 -29.9318 0)
(208.759 -29.9294 0)
(208.737 -29.9277 0)
(208.706 -29.9238 0)
(208.655 -29.9216 0)
(208.571 -29.9072 0)
(208.424 -29.8994 0)
(208.18 -29.8589 0)
(207.778 -29.8368 0)
(207.162 -29.7444 0)
(206.249 -29.6864 0)
(204.988 -29.5152 0)
(203.31 -29.3915 0)
(201.212 -29.129 0)
(198.692 -28.9194 0)
(195.839 -28.5848 0)
(192.748 -28.3029 0)
(189.588 -27.9496 0)
(186.514 -27.6517 0)
(183.696 -27.345 0)
(181.256 -27.0979 0)
(179.271 -26.9037 0)
(177.761 -26.7493 0)
(176.699 -26.6013 0)
(176.004 -26.5553 0)
(175.59 -26.5715 0)
(175.379 -26.5475 0)
(175.29 -26.5032 0)
(175.246 -26.4863 0)
(209.214 -30.0468 0)
(209.182 -30.0568 0)
(209.146 -30.064 0)
(209.108 -30.0689 0)
(209.068 -30.0721 0)
(209.027 -30.0739 0)
(208.988 -30.0751 0)
(208.953 -30.0758 0)
(208.921 -30.0766 0)
(208.893 -30.0772 0)
(208.869 -30.078 0)
(208.846 -30.0786 0)
(208.826 -30.0792 0)
(208.806 -30.0798 0)
(208.785 -30.0793 0)
(208.764 -30.0804 0)
(208.738 -30.0769 0)
(208.699 -30.0807 0)
(208.638 -30.0693 0)
(208.538 -30.0691 0)
(208.378 -30.0456 0)
(208.121 -30.0298 0)
(207.722 -29.9842 0)
(207.121 -29.9286 0)
(206.253 -29.8435 0)
(205.053 -29.7158 0)
(203.466 -29.5681 0)
(201.468 -29.3449 0)
(199.065 -29.1194 0)
(196.327 -28.8106 0)
(193.351 -28.5207 0)
(190.296 -28.1814 0)
(187.319 -27.881 0)
(184.584 -27.5798 0)
(182.209 -27.3413 0)
(180.271 -27.145 0)
(178.792 -26.9594 0)
(177.731 -26.8484 0)
(177.017 -26.8512 0)
(176.592 -26.807 0)
(176.369 -26.739 0)
(176.252 -26.705 0)
(209.411 -30.1686 0)
(209.372 -30.1762 0)
(209.331 -30.1829 0)
(209.288 -30.1895 0)
(209.246 -30.1957 0)
(209.204 -30.2023 0)
(209.166 -30.209 0)
(209.131 -30.2161 0)
(209.1 -30.2236 0)
(209.073 -30.2312 0)
(209.051 -30.2399 0)
(209.03 -30.2475 0)
(209.015 -30.2571 0)
(208.997 -30.2645 0)
(208.981 -30.2734 0)
(208.963 -30.2806 0)
(208.944 -30.2894 0)
(208.92 -30.2932 0)
(208.885 -30.3055 0)
(208.826 -30.3 0)
(208.729 -30.3107 0)
(208.573 -30.2888 0)
(208.319 -30.2898 0)
(207.927 -30.2368 0)
(207.329 -30.2064 0)
(206.466 -30.0987 0)
(205.264 -30.0047 0)
(203.682 -29.819 0)
(201.687 -29.6332 0)
(199.308 -29.3661 0)
(196.608 -29.0914 0)
(193.709 -28.7762 0)
(190.759 -28.4615 0)
(187.918 -28.163 0)
(185.334 -27.8826 0)
(183.113 -27.6473 0)
(181.311 -27.4564 0)
(179.928 -27.3436 0)
(178.933 -27.2228 0)
(178.253 -27.129 0)
(177.807 -27.1271 0)
(177.537 -27.1408 0)
(209.582 -30.3259 0)
(209.555 -30.3342 0)
(209.531 -30.3447 0)
(209.505 -30.354 0)
(209.484 -30.3663 0)
(209.46 -30.3771 0)
(209.444 -30.3914 0)
(209.424 -30.4042 0)
(209.414 -30.4192 0)
(209.4 -30.4342 0)
(209.395 -30.4492 0)
(209.388 -30.4652 0)
(209.386 -30.4805 0)
(209.382 -30.4961 0)
(209.378 -30.5111 0)
(209.371 -30.5257 0)
(209.363 -30.5398 0)
(209.356 -30.5535 0)
(209.346 -30.5686 0)
(209.32 -30.5817 0)
(209.27 -30.5872 0)
(209.177 -30.5937 0)
(209.017 -30.5837 0)
(208.75 -30.575 0)
(208.329 -30.5305 0)
(207.689 -30.4856 0)
(206.773 -30.3807 0)
(205.515 -30.2708 0)
(203.885 -30.0844 0)
(201.867 -29.8898 0)
(199.505 -29.6252 0)
(196.874 -29.3567 0)
(194.099 -29.0544 0)
(191.32 -28.7616 0)
(188.683 -28.4847 0)
(186.311 -28.2314 0)
(184.283 -28.0251 0)
(182.64 -27.8501 0)
(181.369 -27.7414 0)
(180.428 -27.6411 0)
(179.754 -27.5651 0)
(179.279 -27.5462 0)
(209.765 -30.5828 0)
(209.757 -30.5979 0)
(209.754 -30.612 0)
(209.751 -30.6283 0)
(209.752 -30.6432 0)
(209.752 -30.6601 0)
(209.757 -30.6753 0)
(209.76 -30.6919 0)
(209.766 -30.7069 0)
(209.772 -30.7223 0)
(209.779 -30.7364 0)
(209.785 -30.7498 0)
(209.79 -30.7621 0)
(209.793 -30.7732 0)
(209.794 -30.7832 0)
(209.792 -30.7921 0)
(209.788 -30.8001 0)
(209.784 -30.8072 0)
(209.778 -30.8144 0)
(209.765 -30.8208 0)
(209.737 -30.822 0)
(209.68 -30.8222 0)
(209.575 -30.8148 0)
(209.395 -30.7999 0)
(209.1 -30.7758 0)
(208.643 -30.7259 0)
(207.966 -30.669 0)
(207.019 -30.5571 0)
(205.747 -30.4465 0)
(204.135 -30.2535 0)
(202.176 -30.0772 0)
(199.927 -29.8108 0)
(197.457 -29.5824 0)
(194.89 -29.2841 0)
(192.338 -29.0449 0)
(189.935 -28.7719 0)
(187.767 -28.5699 0)
(185.907 -28.3632 0)
(184.371 -28.2268 0)
(183.148 -28.0952 0)
(182.192 -28.0165 0)
(181.459 -27.9409 0)
(209.991 -30.9453 0)
(209.995 -30.9617 0)
(210.001 -30.9763 0)
(210.005 -30.9905 0)
(210.01 -31.0026 0)
(210.012 -31.0138 0)
(210.012 -31.0231 0)
(210.01 -31.0312 0)
(210.006 -31.0377 0)
(210.001 -31.043 0)
(209.993 -31.0472 0)
(209.984 -31.0504 0)
(209.972 -31.0528 0)
(209.959 -31.0541 0)
(209.945 -31.0546 0)
(209.93 -31.0542 0)
(209.914 -31.0541 0)
(209.897 -31.0519 0)
(209.879 -31.0522 0)
(209.859 -31.0472 0)
(209.829 -31.0495 0)
(209.786 -31.0372 0)
(209.716 -31.0382 0)
(209.605 -31.0142 0)
(209.422 -31.0054 0)
(209.133 -30.9603 0)
(208.688 -30.9239 0)
(208.04 -30.8444 0)
(207.137 -30.7568 0)
(205.946 -30.6269 0)
(204.445 -30.4704 0)
(202.644 -30.2837 0)
(200.587 -30.0637 0)
(198.343 -29.8356 0)
(196.011 -29.5853 0)
(193.694 -29.3514 0)
(191.494 -29.1177 0)
(189.493 -28.9169 0)
(187.742 -28.7359 0)
(186.254 -28.5878 0)
(185.018 -28.4669 0)
(184.003 -28.3674 0)
(210.164 -31.3408 0)
(210.152 -31.35 0)
(210.139 -31.3573 0)
(210.123 -31.3629 0)
(210.106 -31.3668 0)
(210.087 -31.369 0)
(210.067 -31.3698 0)
(210.046 -31.3695 0)
(210.025 -31.3684 0)
(210.003 -31.3664 0)
(209.98 -31.3639 0)
(209.958 -31.3608 0)
(209.935 -31.3575 0)
(209.913 -31.3538 0)
(209.89 -31.3498 0)
(209.868 -31.3458 0)
(209.845 -31.3413 0)
(209.822 -31.3376 0)
(209.799 -31.332 0)
(209.774 -31.3292 0)
(209.746 -31.3208 0)
(209.705 -31.3204 0)
(209.648 -31.3053 0)
(209.561 -31.302 0)
(209.435 -31.2779 0)
(209.244 -31.2649 0)
(208.961 -31.2236 0)
(208.54 -31.1847 0)
(207.939 -31.1118 0)
(207.11 -31.0266 0)
(206.02 -30.9071 0)
(204.651 -30.7591 0)
(203.009 -30.5872 0)
(201.132 -30.3789 0)
(199.081 -30.1687 0)
(196.944 -29.9279 0)
(194.81 -29.7126 0)
(192.774 -29.4814 0)
(190.901 -29.2963 0)
(189.236 -29.1069 0)
(187.783 -28.9682 0)
(186.539 -28.8281 0)
(210.272 -31.7175 0)
(210.241 -31.7223 0)
(210.209 -31.7259 0)
(210.178 -31.7285 0)
(210.146 -31.7302 0)
(210.114 -31.7312 0)
(210.082 -31.7317 0)
(210.05 -31.7316 0)
(210.019 -31.7312 0)
(209.988 -31.7304 0)
(209.958 -31.7294 0)
(209.929 -31.7283 0)
(209.901 -31.7271 0)
(209.874 -31.7257 0)
(209.848 -31.7247 0)
(209.822 -31.723 0)
(209.797 -31.7222 0)
(209.772 -31.72 0)
(209.747 -31.7195 0)
(209.721 -31.7164 0)
(209.693 -31.7163 0)
(209.659 -31.711 0)
(209.613 -31.7118 0)
(209.548 -31.6994 0)
(209.452 -31.6983 0)
(209.316 -31.674 0)
(209.112 -31.6663 0)
(208.818 -31.6191 0)
(208.388 -31.5925 0)
(207.789 -31.5057 0)
(206.968 -31.4392 0)
(205.901 -31.2979 0)
(204.564 -31.1723 0)
(202.975 -30.9754 0)
(201.167 -30.7898 0)
(199.213 -30.5592 0)
(197.192 -30.3405 0)
(195.198 -30.1139 0)
(193.308 -29.9037 0)
(191.575 -29.7131 0)
(190.024 -29.5399 0)
(188.657 -29.394 0)
(210.396 -32.0556 0)
(210.36 -32.0612 0)
(210.326 -32.0668 0)
(210.292 -32.072 0)
(210.26 -32.0772 0)
(210.228 -32.0822 0)
(210.196 -32.0868 0)
(210.165 -32.0916 0)
(210.134 -32.096 0)
(210.105 -32.1006 0)
(210.076 -32.1049 0)
(210.049 -32.1096 0)
(210.024 -32.1141 0)
(210.001 -32.1191 0)
(209.979 -32.1239 0)
(209.957 -32.1289 0)
(209.936 -32.1337 0)
(209.915 -32.1382 0)
(209.893 -32.1432 0)
(209.871 -32.1463 0)
(209.849 -32.1523 0)
(209.822 -32.1522 0)
(209.789 -32.1611 0)
(209.742 -32.1548 0)
(209.673 -32.1617 0)
(209.572 -32.1468 0)
(209.42 -32.1463 0)
(209.192 -32.1152 0)
(208.853 -32.0935 0)
(208.365 -32.0331 0)
(207.681 -31.9673 0)
(206.766 -31.8616 0)
(205.593 -31.7304 0)
(204.164 -31.5718 0)
(202.509 -31.3745 0)
(200.683 -31.1766 0)
(198.769 -30.9422 0)
(196.848 -30.7383 0)
(195.009 -30.5108 0)
(193.295 -30.3336 0)
(191.745 -30.1417 0)
(190.357 -30.004 0)
(210.548 -32.3689 0)
(210.519 -32.3775 0)
(210.492 -32.3854 0)
(210.467 -32.3942 0)
(210.444 -32.4031 0)
(210.422 -32.4116 0)
(210.402 -32.4215 0)
(210.381 -32.43 0)
(210.364 -32.4403 0)
(210.344 -32.449 0)
(210.331 -32.46 0)
(210.314 -32.4694 0)
(210.304 -32.4805 0)
(210.293 -32.4912 0)
(210.285 -32.5021 0)
(210.277 -32.513 0)
(210.268 -32.5238 0)
(210.258 -32.5343 0)
(210.246 -32.5444 0)
(210.232 -32.5539 0)
(210.22 -32.5632 0)
(210.209 -32.5726 0)
(210.193 -32.5841 0)
(210.165 -32.5891 0)
(210.121 -32.5966 0)
(210.048 -32.5952 0)
(209.931 -32.5945 0)
(209.745 -32.5792 0)
(209.456 -32.5567 0)
(209.025 -32.5133 0)
(208.408 -32.4484 0)
(207.568 -32.3586 0)
(206.481 -32.2326 0)
(205.144 -32.0872 0)
(203.59 -31.901 0)
(201.868 -31.712 0)
(200.057 -31.4944 0)
(198.235 -31.294 0)
(196.48 -31.0863 0)
(194.84 -30.9061 0)
(193.341 -30.7343 0)
(191.989 -30.5867 0)
(210.728 -32.7009 0)
(210.706 -32.7113 0)
(210.693 -32.7233 0)
(210.676 -32.7352 0)
(210.668 -32.7469 0)
(210.658 -32.7597 0)
(210.654 -32.7717 0)
(210.648 -32.785 0)
(210.646 -32.7973 0)
(210.643 -32.8108 0)
(210.644 -32.8234 0)
(210.646 -32.8368 0)
(210.65 -32.8497 0)
(210.655 -32.8625 0)
(210.66 -32.8748 0)
(210.663 -32.8864 0)
(210.664 -32.8973 0)
(210.663 -32.9074 0)
(210.66 -32.9168 0)
(210.655 -32.9255 0)
(210.649 -32.9338 0)
(210.649 -32.9418 0)
(210.646 -32.951 0)
(210.633 -32.9577 0)
(210.608 -32.9606 0)
(210.559 -32.9636 0)
(210.47 -32.9573 0)
(210.317 -32.9501 0)
(210.069 -32.9221 0)
(209.687 -32.8912 0)
(209.132 -32.8234 0)
(208.366 -32.7501 0)
(207.371 -32.6276 0)
(206.143 -32.5009 0)
(204.711 -32.3269 0)
(203.121 -32.1571 0)
(201.446 -31.9581 0)
(199.756 -31.7747 0)
(198.119 -31.5858 0)
(196.578 -31.4189 0)
(195.155 -31.2599 0)
(193.853 -31.1221 0)
(210.932 -33.0775 0)
(210.924 -33.0923 0)
(210.921 -33.1054 0)
(210.919 -33.1197 0)
(210.92 -33.1327 0)
(210.921 -33.1462 0)
(210.924 -33.1585 0)
(210.928 -33.1708 0)
(210.933 -33.1819 0)
(210.937 -33.1926 0)
(210.942 -33.2022 0)
(210.945 -33.211 0)
(210.948 -33.2185 0)
(210.948 -33.225 0)
(210.945 -33.2302 0)
(210.94 -33.2344 0)
(210.931 -33.2379 0)
(210.92 -33.2403 0)
(210.908 -33.2414 0)
(210.896 -33.2425 0)
(210.885 -33.2431 0)
(210.876 -33.244 0)
(210.867 -33.2449 0)
(210.854 -33.2451 0)
(210.834 -33.2427 0)
(210.799 -33.2421 0)
(210.737 -33.2317 0)
(210.626 -33.2263 0)
(210.439 -33.196 0)
(210.135 -33.1754 0)
(209.684 -33.1083 0)
(209.043 -33.0566 0)
(208.201 -32.9397 0)
(207.143 -32.8447 0)
(205.902 -32.6819 0)
(204.506 -32.5487 0)
(203.024 -32.3636 0)
(201.509 -32.2144 0)
(200.025 -32.0372 0)
(198.603 -31.8959 0)
(197.268 -31.7434 0)
(196.019 -31.6204 0)
(211.135 -33.4817 0)
(211.13 -33.493 0)
(211.126 -33.5026 0)
(211.122 -33.5115 0)
(211.118 -33.5189 0)
(211.113 -33.5254 0)
(211.108 -33.5306 0)
(211.101 -33.5347 0)
(211.094 -33.5377 0)
(211.085 -33.54 0)
(211.074 -33.5414 0)
(211.062 -33.5415 0)
(211.047 -33.5408 0)
(211.031 -33.5392 0)
(211.012 -33.537 0)
(210.99 -33.5339 0)
(210.968 -33.5307 0)
(210.944 -33.5267 0)
(210.922 -33.5229 0)
(210.902 -33.5194 0)
(210.885 -33.5153 0)
(210.87 -33.5131 0)
(210.858 -33.5081 0)
(210.842 -33.508 0)
(210.822 -33.5009 0)
(210.791 -33.4987 0)
(210.742 -33.4887 0)
(210.658 -33.4796 0)
(210.521 -33.4615 0)
(210.301 -33.434 0)
(209.966 -33.3968 0)
(209.485 -33.3361 0)
(208.833 -33.2681 0)
(208.003 -33.1659 0)
(207.001 -33.0632 0)
(205.859 -32.9265 0)
(204.612 -32.7995 0)
(203.315 -32.6485 0)
(202.007 -32.5163 0)
(200.726 -32.3711 0)
(199.485 -32.2473 0)
(198.293 -32.1156 0)
(211.258 -33.8712 0)
(211.24 -33.8755 0)
(211.222 -33.8785 0)
(211.203 -33.8803 0)
(211.184 -33.881 0)
(211.164 -33.8808 0)
(211.144 -33.8798 0)
(211.123 -33.878 0)
(211.101 -33.8756 0)
(211.079 -33.8726 0)
(211.056 -33.8692 0)
(211.032 -33.8652 0)
(211.007 -33.8609 0)
(210.981 -33.8561 0)
(210.953 -33.8511 0)
(210.925 -33.8459 0)
(210.896 -33.8406 0)
(210.868 -33.8353 0)
(210.842 -33.8304 0)
(210.818 -33.8252 0)
(210.797 -33.8215 0)
(210.779 -33.8163 0)
(210.763 -33.8142 0)
(210.749 -33.8081 0)
(210.729 -33.808 0)
(210.701 -33.7983 0)
(210.657 -33.7968 0)
(210.589 -33.7814 0)
(210.48 -33.773 0)
(210.315 -33.7471 0)
(210.068 -33.7215 0)
(209.716 -33.6772 0)
(209.238 -33.6223 0)
(208.619 -33.5522 0)
(207.856 -33.4626 0)
(206.96 -33.3665 0)
(205.955 -33.2487 0)
(204.871 -33.1356 0)
(203.743 -33.005 0)
(202.596 -32.8866 0)
(201.449 -32.7558 0)
(200.31 -32.6387 0)
(211.323 -34.251 0)
(211.295 -34.2523 0)
(211.266 -34.2534 0)
(211.238 -34.2534 0)
(211.21 -34.2533 0)
(211.182 -34.2523 0)
(211.154 -34.2514 0)
(211.126 -34.2497 0)
(211.098 -34.2481 0)
(211.07 -34.2459 0)
(211.042 -34.2438 0)
(211.013 -34.2412 0)
(210.984 -34.2387 0)
(210.954 -34.2358 0)
(210.924 -34.233 0)
(210.894 -34.2299 0)
(210.864 -34.227 0)
(210.835 -34.2242 0)
(210.808 -34.2213 0)
(210.783 -34.2194 0)
(210.761 -34.2166 0)
(210.741 -34.2156 0)
(210.724 -34.2129 0)
(210.707 -34.2128 0)
(210.688 -34.2093 0)
(210.662 -34.2099 0)
(210.624 -34.2013 0)
(210.565 -34.2009 0)
(210.474 -34.1824 0)
(210.334 -34.1764 0)
(210.132 -34.1411 0)
(209.844 -34.1204 0)
(209.459 -34.0618 0)
(208.958 -34.0156 0)
(208.339 -33.9302 0)
(207.599 -33.8525 0)
(206.753 -33.7432 0)
(205.817 -33.6383 0)
(204.82 -33.5147 0)
(203.779 -33.3954 0)
(202.714 -33.2669 0)
(201.633 -33.1437 0)
(211.404 -34.635 0)
(211.371 -34.6377 0)
(211.34 -34.6409 0)
(211.31 -34.6431 0)
(211.281 -34.6458 0)
(211.252 -34.6475 0)
(211.224 -34.6498 0)
(211.197 -34.6514 0)
(211.17 -34.6535 0)
(211.143 -34.6549 0)
(211.117 -34.6568 0)
(211.09 -34.6581 0)
(211.064 -34.6598 0)
(211.038 -34.6609 0)
(211.012 -34.6625 0)
(210.986 -34.6636 0)
(210.96 -34.6651 0)
(210.935 -34.6663 0)
(210.911 -34.6679 0)
(210.889 -34.6694 0)
(210.87 -34.671 0)
(210.852 -34.6733 0)
(210.837 -34.6746 0)
(210.823 -34.6784 0)
(210.808 -34.6779 0)
(210.789 -34.6841 0)
(210.757 -34.6774 0)
(210.704 -34.6824 0)
(210.619 -34.6652 0)
(210.482 -34.662 0)
(210.278 -34.628 0)
(209.98 -34.6031 0)
(209.574 -34.5452 0)
(209.044 -34.4857 0)
(208.39 -34.4015 0)
(207.622 -34.3063 0)
(206.763 -34.2014 0)
(205.842 -34.0832 0)
(204.883 -33.9686 0)
(203.909 -33.8434 0)
(202.929 -33.7266 0)
(201.946 -33.6016 0)
(211.531 -35.0394 0)
(211.5 -35.0465 0)
(211.471 -35.0538 0)
(211.443 -35.0605 0)
(211.417 -35.0674 0)
(211.391 -35.0737 0)
(211.368 -35.0803 0)
(211.344 -35.0864 0)
(211.322 -35.0929 0)
(211.301 -35.0987 0)
(211.28 -35.1049 0)
(211.26 -35.1105 0)
(211.24 -35.1163 0)
(211.22 -35.1215 0)
(211.201 -35.127 0)
(211.182 -35.132 0)
(211.163 -35.1373 0)
(211.145 -35.142 0)
(211.128 -35.1471 0)
(211.111 -35.1515 0)
(211.095 -35.1562 0)
(211.082 -35.1606 0)
(211.072 -35.1659 0)
(211.063 -35.1709 0)
(211.051 -35.1752 0)
(211.03 -35.1791 0)
(210.993 -35.1767 0)
(210.925 -35.1759 0)
(210.812 -35.1594 0)
(210.63 -35.1459 0)
(210.36 -35.1047 0)
(209.98 -35.0664 0)
(209.483 -34.994 0)
(208.864 -34.9234 0)
(208.136 -34.8224 0)
(207.313 -34.7222 0)
(206.423 -34.604 0)
(205.493 -34.4866 0)
(204.549 -34.3659 0)
(203.61 -34.2455 0)
(202.684 -34.1305 0)
(201.775 -34.0139 0)
(211.729 -35.4709 0)
(211.701 -35.4837 0)
(211.676 -35.4965 0)
(211.652 -35.5087 0)
(211.63 -35.521 0)
(211.609 -35.5325 0)
(211.59 -35.5441 0)
(211.572 -35.5548 0)
(211.555 -35.5657 0)
(211.539 -35.5758 0)
(211.524 -35.586 0)
(211.508 -35.5954 0)
(211.493 -35.6047 0)
(211.478 -35.6132 0)
(211.463 -35.6216 0)
(211.448 -35.6293 0)
(211.434 -35.6372 0)
(211.421 -35.6443 0)
(211.407 -35.6513 0)
(211.393 -35.6576 0)
(211.38 -35.6637 0)
(211.369 -35.6696 0)
(211.358 -35.676 0)
(211.345 -35.6805 0)
(211.324 -35.6864 0)
(211.284 -35.6836 0)
(211.214 -35.6824 0)
(211.099 -35.6686 0)
(210.917 -35.6501 0)
(210.65 -35.6175 0)
(210.279 -35.5697 0)
(209.794 -35.5116 0)
(209.195 -35.4291 0)
(208.486 -35.3445 0)
(207.69 -35.2339 0)
(206.826 -35.1303 0)
(205.926 -35.0074 0)
(205.014 -34.8973 0)
(204.116 -34.7783 0)
(203.244 -34.6721 0)
(202.402 -34.5646 0)
(201.587 -34.4642 0)
(212.007 -35.9149 0)
(211.984 -35.9335 0)
(211.963 -35.9515 0)
(211.943 -35.969 0)
(211.925 -35.986 0)
(211.908 -36.0023 0)
(211.893 -36.0181 0)
(211.877 -36.0329 0)
(211.863 -36.0473 0)
(211.848 -36.0607 0)
(211.835 -36.0738 0)
(211.82 -36.0858 0)
(211.805 -36.0972 0)
(211.789 -36.1077 0)
(211.774 -36.1176 0)
(211.758 -36.1268 0)
(211.743 -36.1357 0)
(211.728 -36.1438 0)
(211.713 -36.1513 0)
(211.697 -36.158 0)
(211.682 -36.1646 0)
(211.666 -36.1705 0)
(211.649 -36.1766 0)
(211.623 -36.1787 0)
(211.582 -36.1837 0)
(211.514 -36.1746 0)
(211.403 -36.1734 0)
(211.232 -36.1451 0)
(210.98 -36.1291 0)
(210.634 -36.0743 0)
(210.177 -36.0319 0)
(209.612 -35.9496 0)
(208.941 -35.876 0)
(208.183 -35.774 0)
(207.359 -35.6756 0)
(206.499 -35.5668 0)
(205.627 -35.4577 0)
(204.767 -35.3544 0)
(203.936 -35.2474 0)
(203.138 -35.1555 0)
(202.375 -35.0559 0)
(201.639 -34.9744 0)
(212.343 -36.3363 0)
(212.327 -36.3582 0)
(212.311 -36.3791 0)
(212.296 -36.3994 0)
(212.282 -36.4189 0)
(212.267 -36.4375 0)
(212.254 -36.4553 0)
(212.24 -36.4721 0)
(212.226 -36.4881 0)
(212.211 -36.503 0)
(212.195 -36.517 0)
(212.179 -36.53 0)
(212.161 -36.542 0)
(212.142 -36.553 0)
(212.124 -36.5634 0)
(212.105 -36.573 0)
(212.086 -36.5821 0)
(212.068 -36.5906 0)
(212.049 -36.5983 0)
(212.03 -36.6056 0)
(212.011 -36.6123 0)
(211.991 -36.6185 0)
(211.966 -36.6236 0)
(211.929 -36.6272 0)
(211.872 -36.6276 0)
(211.78 -36.6202 0)
(211.639 -36.6127 0)
(211.431 -36.5848 0)
(211.137 -36.5625 0)
(210.747 -36.5059 0)
(210.249 -36.461 0)
(209.651 -36.3759 0)
(208.959 -36.3064 0)
(208.198 -36.2025 0)
(207.386 -36.1152 0)
(206.554 -36.0065 0)
(205.721 -35.913 0)
(204.911 -35.8113 0)
(204.134 -35.7225 0)
(203.397 -35.6335 0)
(202.698 -35.5537 0)
(202.032 -35.4761 0)
(212.689 -36.6966 0)
(212.677 -36.7173 0)
(212.666 -36.7371 0)
(212.654 -36.756 0)
(212.643 -36.774 0)
(212.632 -36.7911 0)
(212.62 -36.8074 0)
(212.608 -36.8228 0)
(212.594 -36.8372 0)
(212.579 -36.8506 0)
(212.562 -36.863 0)
(212.544 -36.8745 0)
(212.525 -36.8851 0)
(212.505 -36.895 0)
(212.486 -36.9043 0)
(212.467 -36.9132 0)
(212.448 -36.9216 0)
(212.429 -36.9297 0)
(212.41 -36.9371 0)
(212.391 -36.9444 0)
(212.372 -36.951 0)
(212.35 -36.9576 0)
(212.324 -36.9617 0)
(212.284 -36.9673 0)
(212.22 -36.9645 0)
(212.12 -36.9606 0)
(211.969 -36.9486 0)
(211.749 -36.9256 0)
(211.444 -36.8988 0)
(211.044 -36.8482 0)
(210.544 -36.8015 0)
(209.95 -36.7237 0)
(209.274 -36.657 0)
(208.54 -36.5622 0)
(207.767 -36.4829 0)
(206.983 -36.3853 0)
(206.207 -36.3039 0)
(205.46 -36.2146 0)
(204.75 -36.1396 0)
(204.08 -36.0631 0)
(203.446 -35.9964 0)
(202.842 -35.9306 0)
(212.993 -36.9892 0)
(212.981 -37.0062 0)
(212.972 -37.0222 0)
(212.962 -37.0375 0)
(212.952 -37.0519 0)
(212.943 -37.0655 0)
(212.933 -37.0784 0)
(212.922 -37.0906 0)
(212.91 -37.102 0)
(212.895 -37.1124 0)
(212.879 -37.1221 0)
(212.863 -37.1311 0)
(212.845 -37.1395 0)