/*--------------------------------*- C++ -*----------------------------------*\
| =========                 |                                                 |
| \\      /  F ield         | OpenFOAM: The Open Source CFD Toolbox           |
|  \\    /   O peration     | Version:  2412                                  |
|   \\  /    A nd           | Website:  www.openfoam.com                      |
|    \\/     M anipulation  |                                                 |
\*---------------------------------------------------------------------------*/
FoamFile
{
    version     2.0;
    format      ascii;
    arch        "LSB;label=32;scalar=64";
    class       volScalarField;
    location    "0.009";
    object      rho;
}
// * * * * * * * * * * * * * * * * * * * * * * * * * * * * * * * * * * * * * //

dimensions      [1 -3 0 0 0 0 0];

internalField   nonuniform List<scalar> 
9922
(
0.0455232
0.0437617
0.0430663
0.0425426
0.0422483
0.0421492
0.0421338
0.042133
0.042133
0.042133
0.042133
0.042133
0.042133
0.042133
0.042133
0.042133
0.042133
0.042133
0.042133
0.042133
0.042133
0.042133
0.0421331
0.0421353
0.0421648
0.0422746
0.0424085
0.0424641
0.0424439
0.0422883
0.041981
0.0416797
0.0414247
0.0411937
0.0409696
0.0407474
0.0405275
0.0403108
0.0400975
0.0398872
0.0396803
0.039476
0.0392747
0.0390755
0.0388784
0.0386826
0.0384878
0.0382938
0.0381007
0.0379083
0.0377167
0.037526
0.0373364
0.0371481
0.0369614
0.0367765
0.0365936
0.0364136
0.0362373
0.0360654
0.0358973
0.0357321
0.0355698
0.0354113
0.0352566
0.035106
0.0349601
0.0348191
0.0346832
0.034552
0.0344258
0.034304
0.0341865
0.0340728
0.0339634
0.0338582
0.0337564
0.0336579
0.0335636
0.0334732
0.0333857
0.0333012
0.0332213
0.0331453
0.0330721
0.0329999
0.0329313
0.032867
0.0328053
0.0327464
0.0326893
0.0326346
0.0325826
0.0325327
0.0324852
0.0324381
0.0323938
0.0323502
0.0323093
0.03227
0.0322328
0.0321968
0.0321626
0.0321297
0.0320987
0.0320698
0.0320428
0.0320181
0.0319934
0.0319692
0.0319429
0.0319152
0.0318858
0.0318565
0.0318275
0.0317971
0.0317667
0.0317367
0.0317096
0.0316865
0.0316562
0.045472
0.0437445
0.0430473
0.0425281
0.0422419
0.0421478
0.0421337
0.042133
0.042133
0.042133
0.042133
0.042133
0.042133
0.042133
0.042133
0.042133
0.042133
0.042133
0.042133
0.042133
0.042133
0.042133
0.0421331
0.042135
0.0421629
0.0422708
0.0424076
0.0424671
0.0424499
0.0423033
0.0419997
0.0416983
0.0414434
0.0412132
0.0409905
0.0407696
0.0405511
0.0403357
0.0401237
0.0399147
0.0397088
0.0395055
0.0393051
0.0391068
0.0389105
0.0387156
0.0385216
0.0383285
0.0381361
0.0379446
0.0377539
0.0375639
0.0373751
0.0371878
0.037002
0.0368178
0.0366356
0.036456
0.0362801
0.0361086
0.0359407
0.0357755
0.0356132
0.0354549
0.0353007
0.0351504
0.0350043
0.0348632
0.0347272
0.0345966
0.0344709
0.0343497
0.0342319
0.034118
0.0340083
0.0339028
0.0338011
0.0337035
0.0336101
0.0335194
0.0334312
0.0333467
0.0332667
0.0331901
0.0331163
0.0330456
0.0329782
0.0329157
0.0328553
0.0327965
0.0327399
0.0326849
0.0326325
0.0325817
0.0325335
0.0324857
0.0324409
0.0323969
0.0323557
0.0323162
0.0322784
0.032242
0.0322069
0.0321738
0.0321424
0.0321134
0.0320865
0.0320618
0.0320372
0.0320129
0.0319867
0.031959
0.0319296
0.0319002
0.0318713
0.0318409
0.0318104
0.0317803
0.0317531
0.0317301
0.0316991
0.045419
0.0437263
0.0430275
0.0425134
0.0422355
0.0421465
0.0421336
0.042133
0.042133
0.042133
0.042133
0.042133
0.042133
0.042133
0.042133
0.042133
0.042133
0.042133
0.042133
0.042133
0.042133
0.042133
0.0421331
0.0421348
0.042161
0.042267
0.0424065
0.04247
0.0424558
0.0423181
0.0420185
0.0417171
0.0414621
0.0412328
0.0410114
0.040792
0.0405748
0.0403606
0.0401499
0.039942
0.0397372
0.0395349
0.0393355
0.0391381
0.0389427
0.0387486
0.0385554
0.0383631
0.0381717
0.0379811
0.0377912
0.0376021
0.0374142
0.0372275
0.0370423
0.0368588
0.0366771
0.0364979
0.0363225
0.0361515
0.035984
0.0358193
0.0356572
0.0354988
0.0353444
0.0351939
0.0350481
0.0349074
0.0347717
0.034641
0.0345152
0.0343937
0.0342763
0.0341627
0.0340534
0.0339478
0.0338461
0.0337483
0.0336541
0.0335626
0.0334743
0.0333908
0.0333116
0.0332356
0.0331627
0.0330939
0.0330275
0.0329636
0.0329022
0.0328418
0.0327845
0.0327287
0.0326752
0.0326236
0.0325744
0.0325279
0.0324838
0.0324419
0.0324017
0.0323635
0.0323259
0.0322897
0.0322547
0.032222
0.0321909
0.0321626
0.0321366
0.0321126
0.0320886
0.0320651
0.0320391
0.0320116
0.0319821
0.0319525
0.0319232
0.0318923
0.0318613
0.0318308
0.0318033
0.0317801
0.0317491
0.0453637
0.0437072
0.0430071
0.0424984
0.0422291
0.0421452
0.0421335
0.042133
0.042133
0.042133
0.042133
0.042133
0.042133
0.042133
0.042133
0.042133
0.042133
0.042133
0.042133
0.042133
0.042133
0.042133
0.0421331
0.0421346
0.0421592
0.042263
0.0424052
0.0424727
0.0424616
0.0423327
0.0420373
0.041736
0.041481
0.0412524
0.0410323
0.0408142
0.0405983
0.0403855
0.0401761
0.0399693
0.0397656
0.0395643
0.0393658
0.0391694
0.0389748
0.0387816
0.0385893
0.0383979
0.0382074
0.0380177
0.0378287
0.0376405
0.0374533
0.0372674
0.037083
0.0369002
0.0367191
0.0365404
0.0363654
0.0361945
0.0360272
0.0358625
0.0357006
0.0355424
0.0353882
0.0352378
0.0350918
0.0349508
0.0348152
0.0346849
0.0345594
0.0344381
0.0343204
0.0342066
0.0340968
0.0339912
0.0338897
0.0337922
0.0336977
0.0336058
0.0335178
0.0334348
0.0333556
0.0332799
0.0332075
0.0331389
0.0330728
0.0330074
0.0329453
0.032885
0.0328281
0.0327729
0.0327197
0.0326685
0.0326192
0.0325737
0.0325297
0.0324888
0.0324487
0.0324104
0.0323723
0.0323357
0.0323009
0.0322678
0.0322372
0.0322088
0.0321832
0.0321594
0.032136
0.0321131
0.0320869
0.0320596
0.0320302
0.0320006
0.0319713
0.0319403
0.0319093
0.0318786
0.0318511
0.0318277
0.0317965
0.0453061
0.0436868
0.042986
0.0424832
0.0422228
0.042144
0.0421334
0.042133
0.042133
0.042133
0.042133
0.042133
0.042133
0.042133
0.042133
0.042133
0.042133
0.042133
0.042133
0.042133
0.042133
0.042133
0.0421331
0.0421345
0.0421575
0.042259
0.0424036
0.0424754
0.0424673
0.0423469
0.0420563
0.041755
0.0414999
0.0412721
0.0410533
0.0408365
0.040622
0.0404104
0.0402022
0.0399966
0.0397939
0.0395937
0.0393962
0.0392006
0.039007
0.0388146
0.0386233
0.0384328
0.0382432
0.0380545
0.0378664
0.0376791
0.0374927
0.0373076
0.0371238
0.0369415
0.0367609
0.0365826
0.036408
0.0362376
0.0360707
0.0359062
0.0357443
0.035586
0.0354315
0.0352811
0.0351352
0.0349945
0.0348589
0.0347284
0.0346027
0.0344812
0.0343637
0.0342501
0.0341405
0.0340347
0.0339329
0.0338346
0.0337392
0.0336472
0.03356
0.033478
0.0333998
0.0333247
0.0332526
0.0331825
0.0331156
0.0330492
0.0329861
0.0329258
0.0328683
0.0328134
0.0327606
0.0327103
0.0326623
0.0326175
0.0325742
0.0325335
0.0324939
0.032456
0.0324192
0.0323834
0.0323499
0.032317
0.0322872
0.0322586
0.0322326
0.0322083
0.0321849
0.0321619
0.0321359
0.0321089
0.0320799
0.0320509
0.032022
0.0319913
0.0319605
0.03193
0.0319026
0.0318794
0.0318497
0.0452458
0.0436652
0.0429642
0.0424677
0.0422166
0.0421429
0.0421334
0.042133
0.042133
0.042133
0.042133
0.042133
0.042133
0.042133
0.042133
0.042133
0.042133
0.042133
0.042133
0.042133
0.042133
0.042133
0.0421331
0.0421343
0.0421558
0.0422549
0.0424017
0.042478
0.042473
0.0423609
0.0420753
0.0417743
0.041519
0.0412918
0.0410742
0.0408587
0.0406455
0.0404352
0.0402283
0.0400239
0.0398223
0.0396231
0.0394265
0.039232
0.0390392
0.0388478
0.0386574
0.0384679
0.0382793
0.0380914
0.0379043
0.0377178
0.0375321
0.0373477
0.0371646
0.036983
0.036803
0.0366252
0.0364508
0.0362806
0.0361138
0.0359494
0.0357876
0.0356294
0.0354751
0.0353246
0.0351784
0.0350374
0.0349018
0.0347716
0.0346461
0.0345245
0.0344066
0.0342926
0.0341826
0.0340768
0.033975
0.0338765
0.033781
0.0336891
0.0336027
0.033521
0.0334424
0.0333663
0.0332932
0.0332217
0.0331541
0.0330889
0.0330267
0.0329673
0.0329102
0.0328557
0.0328038
0.0327544
0.0327073
0.0326615
0.0326177
0.0325752
0.0325348
0.0324958
0.0324594
0.0324238
0.0323907
0.0323577
0.0323274
0.032298
0.0322711
0.0322461
0.0322224
0.032199
0.0321732
0.0321463
0.0321176
0.0320888
0.0320599
0.0320292
0.0319984
0.0319678
0.0319403
0.031917
0.031887
0.0451825
0.043642
0.0429417
0.0424521
0.0422105
0.0421418
0.0421333
0.042133
0.042133
0.042133
0.042133
0.042133
0.042133
0.042133
0.042133
0.042133
0.042133
0.042133
0.042133
0.042133
0.042133
0.042133
0.0421331
0.0421342
0.0421542
0.0422507
0.0423995
0.0424805
0.0424786
0.0423745
0.0420943
0.0417936
0.0415381
0.0413116
0.0410952
0.0408811
0.0406692
0.0404601
0.0402543
0.0400511
0.0398507
0.0396525
0.039457
0.0392634
0.0390716
0.0388811
0.0386917
0.0385031
0.0383155
0.0381286
0.0379423
0.0377566
0.0375718
0.0373882
0.0372057
0.0370246
0.0368451
0.0366677
0.0364938
0.0363239
0.0361574
0.035993
0.0358312
0.0356728
0.0355182
0.0353676
0.0352215
0.0350805
0.0349449
0.0348143
0.0346884
0.0345667
0.0344489
0.0343349
0.0342249
0.0341188
0.0340164
0.033917
0.0338207
0.0337295
0.0336439
0.0335624
0.0334833
0.0334063
0.0333326
0.0332615
0.0331938
0.0331294
0.0330675
0.0330077
0.03295
0.032895
0.032843
0.0327937
0.0327472
0.0327014
0.032658
0.0326153
0.0325754
0.0325368
0.0325007
0.0324659
0.032433
0.0324005
0.0323701
0.0323408
0.0323136
0.032289
0.0322651
0.0322415
0.0322158
0.0321888
0.0321601
0.0321313
0.0321024
0.0320716
0.0320405
0.0320096
0.0319821
0.0319588
0.0319289
0.0451158
0.0436173
0.0429183
0.0424363
0.0422045
0.0421408
0.0421333
0.042133
0.042133
0.042133
0.042133
0.042133
0.042133
0.042133
0.042133
0.042133
0.042133
0.042133
0.042133
0.042133
0.042133
0.042133
0.0421331
0.042134
0.0421526
0.0422464
0.042397
0.0424829
0.0424841
0.0423877
0.0421135
0.0418133
0.0415574
0.0413315
0.0411162
0.0409034
0.0406927
0.040485
0.0402805
0.0400784
0.0398791
0.039682
0.0394875
0.0392949
0.0391041
0.0389146
0.0387261
0.0385386
0.0383519
0.0381659
0.0379805
0.0377957
0.0376116
0.0374286
0.0372468
0.0370663
0.0368873
0.0367103
0.0365367
0.036367
0.0362005
0.0360363
0.0358745
0.0357162
0.0355616
0.0354107
0.0352642
0.035123
0.0349873
0.0348568
0.034731
0.0346089
0.0344906
0.0343761
0.0342658
0.0341596
0.0340569
0.0339569
0.0338609
0.0337706
0.0336852
0.0336024
0.0335218
0.0334441
0.0333701
0.0333004
0.0332334
0.0331688
0.0331071
0.0330472
0.0329899
0.032935
0.0328826
0.0328333
0.0327863
0.0327407
0.0326973
0.0326552
0.0326149
0.0325763
0.0325389
0.0325033
0.0324691
0.0324364
0.0324057
0.032377
0.0323504
0.0323265
0.0323031
0.0322802
0.0322545
0.0322275
0.0321985
0.0321693
0.03214
0.0321087
0.0320771
0.0320458
0.0320179
0.0319945
0.0319639
0.0450456
0.0435907
0.0428942
0.0424204
0.0421986
0.0421398
0.0421332
0.042133
0.042133
0.042133
0.042133
0.042133
0.042133
0.042133
0.042133
0.042133
0.042133
0.042133
0.042133
0.042133
0.042133
0.042133
0.0421331
0.0421339
0.0421511
0.0422421
0.0423942
0.0424852
0.0424896
0.0424007
0.0421327
0.041833
0.0415768
0.0413514
0.0411374
0.0409259
0.0407165
0.0405099
0.0403066
0.0401058
0.0399076
0.0397116
0.0395181
0.0393265
0.0391367
0.0389482
0.0387607
0.0385742
0.0383884
0.0382034
0.0380189
0.0378349
0.0376516
0.0374693
0.0372881
0.0371082
0.0369297
0.0367532
0.0365799
0.0364104
0.0362441
0.0360798
0.0359179
0.0357594
0.0356046
0.0354536
0.035307
0.0351656
0.0350296
0.0348988
0.0347725
0.0346503
0.0345319
0.0344174
0.0343069
0.0342
0.0340962
0.0339956
0.0339001
0.0338103
0.0337242
0.0336404
0.0335595
0.0334827
0.0334096
0.0333403
0.033273
0.0332063
0.0331431
0.0330827
0.0330254
0.0329709
0.0329186
0.0328694
0.0328218
0.0327772
0.0327341
0.0326937
0.0326538
0.0326159
0.0325781
0.0325422
0.0325073
0.0324749
0.0324442
0.0324161
0.0323902
0.032367
0.0323441
0.0323219
0.0322964
0.0322696
0.0322404
0.0322111
0.0321817
0.0321502
0.0321183
0.0320868
0.0320588
0.0320357
0.0320055
0.0449715
0.0435623
0.0428693
0.0424043
0.0421929
0.0421389
0.0421332
0.042133
0.042133
0.042133
0.042133
0.042133
0.042133
0.042133
0.042133
0.042133
0.042133
0.042133
0.042133
0.042133
0.042133
0.042133
0.0421331
0.0421338
0.0421497
0.0422377
0.0423912
0.0424873
0.042495
0.0424133
0.0421521
0.041853
0.0415963
0.0413715
0.0411586
0.0409483
0.0407402
0.0405349
0.0403329
0.0401332
0.0399362
0.0397413
0.0395489
0.0393583
0.0391695
0.038982
0.0387955
0.0386099
0.0384251
0.038241
0.0380574
0.0378742
0.0376917
0.03751
0.0373295
0.0371501
0.0369721
0.036796
0.036623
0.0364537
0.0362873
0.0361231
0.0359612
0.0358027
0.0356478
0.0354964
0.0353494
0.0352077
0.0350716
0.0349406
0.0348142
0.0346914
0.0345725
0.0344575
0.0343466
0.0342393
0.0341351
0.0340349
0.0339399
0.0338494
0.0337619
0.0336774
0.0335967
0.0335204
0.0334474
0.0333763
0.0333082
0.0332407
0.033177
0.0331175
0.033061
0.0330077
0.0329562
0.0329066
0.0328585
0.0328128
0.0327687
0.0327274
0.0326868
0.0326483
0.0326102
0.0325738
0.0325383
0.0325051
0.0324735
0.0324448
0.0324183
0.0323945
0.0323714
0.0323491
0.0323237
0.0322971
0.0322681
0.0322389
0.0322097
0.0321782
0.0321463
0.0321146
0.0320863
0.0320628
0.0320322
0.0448938
0.0435319
0.0428435
0.0423881
0.0421873
0.0421381
0.0421331
0.042133
0.042133
0.042133
0.042133
0.042133
0.042133
0.042133
0.042133
0.042133
0.042133
0.042133
0.042133
0.042133
0.042133
0.042133
0.042133
0.0421337
0.0421483
0.0422333
0.0423879
0.0424892
0.0425003
0.0424255
0.0421714
0.0418732
0.041616
0.0413916
0.0411798
0.0409709
0.040764
0.0405599
0.0403591
0.0401607
0.0399649
0.0397711
0.0395798
0.0393903
0.0392025
0.0390159
0.0388304
0.0386458
0.038462
0.0382788
0.0380961
0.0379137
0.0377319
0.037551
0.0373711
0.0371923
0.0370148
0.0368391
0.0366664
0.0364972
0.0363309
0.0361666
0.0360045
0.0358458
0.0356906
0.0355391
0.0353919
0.0352499
0.0351133
0.0349819
0.0348549
0.034732
0.0346128
0.0344976
0.0343862
0.0342781
0.0341733
0.034073
0.0339775
0.033886
0.0337982
0.0337145
0.0336342
0.0335573
0.0334836
0.0334101
0.0333406
0.0332742
0.0332109
0.033152
0.0330957
0.0330427
0.0329918
0.0329414
0.0328934
0.0328464
0.032802
0.0327594
0.0327191
0.0326804
0.0326436
0.0326078
0.0325733
0.0325399
0.0325081
0.0324784
0.0324511
0.0324263
0.0324028
0.03238
0.0323548
0.0323283
0.0322997
0.0322709
0.0322419
0.0322107
0.032179
0.0321474
0.0321192
0.0320956
0.0320654
0.0448121
0.0434994
0.0428168
0.0423718
0.0421819
0.0421373
0.0421331
0.042133
0.042133
0.042133
0.042133
0.042133
0.042133
0.042133
0.042133
0.042133
0.042133
0.042133
0.042133
0.042133
0.042133
0.042133
0.042133
0.0421336
0.042147
0.0422288
0.0423843
0.0424909
0.0425055
0.0424374
0.0421909
0.0418936
0.0416358
0.0414119
0.0412012
0.0409935
0.0407878
0.040585
0.0403855
0.0401883
0.0399937
0.039801
0.0396108
0.0394223
0.0392355
0.03905
0.0388655
0.0386819
0.038499
0.0383168
0.0381349
0.0379533
0.0377723
0.0375921
0.0374127
0.0372345
0.0370574
0.0368822
0.0367098
0.0365407
0.0363743
0.0362099
0.0360479
0.0358891
0.0357337
0.0355817
0.035434
0.0352916
0.0351548
0.0350231
0.0348957
0.0347721
0.0346524
0.0345366
0.0344247
0.0343162
0.0342113
0.0341107
0.0340145
0.0339228
0.0338351
0.0337509
0.0336696
0.0335912
0.033516
0.0334422
0.0333729
0.0333091
0.0332476
0.0331889
0.0331326
0.0330784
0.0330267
0.0329755
0.0329274
0.0328796
0.0328346
0.0327907
0.0327501
0.0327108
0.0326744
0.0326386
0.0326048
0.0325714
0.03254
0.0325099
0.0324824
0.0324569
0.0324334
0.0324107
0.0323855
0.0323591
0.0323307
0.0323019
0.0322729
0.0322414
0.0322095
0.0321775
0.032149
0.0321251
0.0320945
0.0447266
0.0434645
0.0427894
0.0423555
0.0421766
0.0421366
0.0421331
0.042133
0.042133
0.042133
0.042133
0.042133
0.042133
0.042133
0.042133
0.042133
0.042133
0.042133
0.042133
0.042133
0.042133
0.042133
0.042133
0.0421336
0.0421458
0.0422244
0.0423805
0.0424923
0.0425107
0.0424489
0.0422104
0.0419142
0.0416558
0.0414322
0.0412226
0.0410162
0.0408118
0.0406102
0.0404119
0.0402159
0.0400225
0.039831
0.0396419
0.0394545
0.0392688
0.0390842
0.0389008
0.0387181
0.0385362
0.0383549
0.0381739
0.0379931
0.0378129
0.0376333
0.0374546
0.0372769
0.0371004
0.0369256
0.0367534
0.0365844
0.0364179
0.0362534
0.0360912
0.0359321
0.0357765
0.0356243
0.0354763
0.0353334
0.035196
0.0350637
0.0349359
0.0348119
0.0346918
0.0345756
0.0344631
0.0343539
0.0342482
0.0341468
0.0340504
0.033959
0.0338711
0.0337855
0.0337032
0.0336243
0.0335485
0.0334764
0.0334077
0.0333441
0.0332828
0.0332232
0.0331657
0.0331094
0.0330558
0.0330047
0.0329566
0.0329103
0.0328661
0.0328236
0.0327831
0.0327447
0.0327082
0.032673
0.0326396
0.0326073
0.032577
0.0325482
0.0325219
0.0324974
0.0324743
0.0324518
0.0324266
0.0324
0.0323713
0.0323424
0.032313
0.0322811
0.0322487
0.0322162
0.0321876
0.0321638
0.0321342
0.0446367
0.0434273
0.0427608
0.0423392
0.0421716
0.042136
0.0421331
0.042133
0.042133
0.042133
0.042133
0.042133
0.042133
0.042133
0.042133
0.042133
0.042133
0.042133
0.042133
0.042133
0.042133
0.042133
0.042133
0.0421335
0.0421446
0.0422199
0.0423763
0.0424935
0.0425158
0.04246
0.04223
0.0419351
0.041676
0.0414527
0.0412441
0.041039
0.0408358
0.0406354
0.0404384
0.0402436
0.0400514
0.0398611
0.0396731
0.0394868
0.0393021
0.0391186
0.0389361
0.0387545
0.0385735
0.0383931
0.038213
0.0380331
0.0378536
0.0376748
0.0374966
0.0373194
0.0371434
0.036969
0.036797
0.036628
0.0364615
0.0362969
0.0361346
0.0359754
0.0358195
0.0356668
0.0355182
0.0353748
0.0352371
0.0351044
0.0349759
0.0348512
0.0347304
0.0346136
0.0345005
0.0343907
0.0342846
0.0341832
0.0340871
0.0339951
0.0339052
0.0338182
0.0337357
0.033657
0.0335815
0.0335106
0.0334424
0.0333767
0.0333144
0.033254
0.033196
0.0331387
0.0330839
0.0330332
0.0329846
0.0329393
0.0328954
0.032854
0.0328132
0.0327747
0.032737
0.032701
0.0326664
0.0326336
0.0326031
0.0325748
0.0325488
0.0325246
0.0325018
0.0324793
0.0324542
0.0324274
0.0323981
0.0323683
0.0323383
0.0323056
0.0322723
0.032239
0.0322096
0.032185
0.0321548
0.0445426
0.0433877
0.0427308
0.0423229
0.0421669
0.0421355
0.0421331
0.042133
0.042133
0.042133
0.042133
0.042133
0.042133
0.042133
0.042133
0.042133
0.042133
0.042133
0.042133
0.042133
0.042133
0.042133
0.042133
0.0421334
0.0421435
0.0422154
0.0423719
0.0424945
0.0425209
0.0424706
0.0422496
0.0419562
0.0416963
0.0414733
0.0412658
0.0410619
0.04086
0.0406608
0.040465
0.0402714
0.0400804
0.0398912
0.0397044
0.0395192
0.0393355
0.0391531
0.0389716
0.038791
0.038611
0.0384315
0.0382523
0.0380732
0.0378945
0.0377164
0.0375388
0.0373622
0.0371867
0.0370127
0.0368409
0.0366719
0.0365052
0.0363404
0.0361779
0.0360185
0.0358623
0.0357093
0.0355602
0.0354163
0.0352778
0.0351444
0.0350154
0.0348902
0.034769
0.0346516
0.0345377
0.034427
0.0343202
0.0342189
0.0341224
0.0340287
0.0339376
0.0338514
0.0337694
0.0336902
0.0336146
0.0335426
0.0334736
0.0334058
0.0333416
0.0332806
0.0332223
0.033166
0.0331121
0.033062
0.0330134
0.0329679
0.0329244
0.0328835
0.0328436
0.0328053
0.0327676
0.0327315
0.0326963
0.0326628
0.0326312
0.0326021
0.0325751
0.0325506
0.0325279
0.0325047
0.03248
0.0324532
0.0324237
0.0323937
0.0323635
0.0323305
0.0322968
0.0322632
0.0322334
0.0322082
0.032178
0.0444438
0.0433458
0.0426981
0.0423064
0.0421624
0.042135
0.0421331
0.042133
0.042133
0.042133
0.042133
0.042133
0.042133
0.042133
0.042133
0.042133
0.042133
0.042133
0.042133
0.042133
0.042133
0.042133
0.042133
0.0421334
0.0421425
0.042211
0.0423672
0.0424951
0.042526
0.0424808
0.0422693
0.0419776
0.0417168
0.0414941
0.0412875
0.0410848
0.0408841
0.0406862
0.0404916
0.0402993
0.0401095
0.0399215
0.0397358
0.0395517
0.0393691
0.0391877
0.0390073
0.0388276
0.0386486
0.0384701
0.0382918
0.0381135
0.0379356
0.0377582
0.0375812
0.0374051
0.03723
0.0370564
0.0368848
0.0367158
0.036549
0.0363841
0.0362214
0.0360618
0.0359052
0.0357516
0.035602
0.0354575
0.0353185
0.0351845
0.0350547
0.0349288
0.0348068
0.0346887
0.034574
0.0344627
0.034356
0.0342544
0.0341565
0.0340613
0.0339705
0.0338847
0.0338017
0.0337207
0.0336444
0.0335714
0.0335019
0.0334347
0.0333702
0.0333092
0.0332511
0.0331969
0.0331448
0.0330943
0.0330455
0.0329982
0.0329537
0.032911
0.0328707
0.0328314
0.0327938
0.0327569
0.0327212
0.0326869
0.0326538
0.0326235
0.032595
0.0325696
0.032546
0.0325216
0.0324969
0.0324703
0.0324412
0.0324117
0.0323822
0.0323496
0.0323164
0.032283
0.0322534
0.0322284
0.0321978
0.0443404
0.0433009
0.0426632
0.0422898
0.0421581
0.0421345
0.042133
0.042133
0.042133
0.042133
0.042133
0.042133
0.042133
0.042133
0.042133
0.042133
0.042133
0.042133
0.042133
0.042133
0.042133
0.042133
0.042133
0.0421333
0.0421415
0.0422066
0.0423621
0.0424954
0.0425311
0.0424904
0.0422891
0.0419991
0.0417375
0.041515
0.0413094
0.0411079
0.0409085
0.0407117
0.0405183
0.0403272
0.0401386
0.0399518
0.0397673
0.0395843
0.0394028
0.0392225
0.0390431
0.0388644
0.0386864
0.0385089
0.0383314
0.038154
0.0379768
0.0378001
0.0376238
0.0374482
0.0372736
0.0371004
0.036929
0.0367599
0.0365929
0.0364277
0.0362648
0.0361049
0.0359481
0.0357941
0.0356439
0.0354987
0.0353589
0.0352241
0.0350936
0.0349671
0.0348445
0.0347257
0.0346101
0.0344982
0.0343909
0.0342883
0.0341891
0.0340941
0.0340041
0.0339169
0.0338317
0.0337502
0.0336733
0.0336004
0.0335307
0.0334647
0.0334004
0.0333389
0.0332805
0.0332264
0.0331747
0.0331233
0.0330747
0.0330265
0.0329814
0.032937
0.0328958
0.0328559
0.0328183
0.0327815
0.0327463
0.032712
0.0326794
0.0326488
0.0326203
0.0325942
0.0325701
0.0325462
0.0325219
0.0324957
0.0324669
0.0324376
0.0324083
0.032376
0.032343
0.0323096
0.03228
0.0322558
0.032225
0.0442317
0.0432522
0.0426259
0.042273
0.0421542
0.0421342
0.042133
0.042133
0.042133
0.042133
0.042133
0.042133
0.042133
0.042133
0.042133
0.042133
0.042133
0.042133
0.042133
0.042133
0.042133
0.042133
0.042133
0.0421333
0.0421406
0.0422022
0.0423568
0.0424955
0.0425361
0.0424996
0.0423089
0.0420209
0.0417585
0.041536
0.0413314
0.041131
0.0409328
0.0407373
0.0405451
0.0403552
0.0401679
0.0399823
0.0397989
0.039617
0.0394367
0.0392574
0.039079
0.0389014
0.0387244
0.0385478
0.0383712
0.0381947
0.0380183
0.0378422
0.0376665
0.0374914
0.0373173
0.0371445
0.0369733
0.0368041
0.0366369
0.0364715
0.0363084
0.0361483
0.035991
0.0358364
0.0356856
0.0355397
0.0353993
0.0352637
0.0351324
0.035005
0.0348815
0.0347619
0.0346456
0.0345332
0.0344253
0.0343217
0.0342223
0.0341274
0.0340358
0.0339458
0.0338594
0.0337797
0.0337034
0.0336305
0.0335607
0.0334941
0.0334303
0.0333686
0.03331
0.0332539
0.0332002
0.0331478
0.0330984
0.0330499
0.0330037
0.0329582
0.0329151
0.0328741
0.0328348
0.0327974
0.0327617
0.0327273
0.0326951
0.0326641
0.0326363
0.0326105
0.0325869
0.0325626
0.0325385
0.0325122
0.0324829
0.0324528
0.0324226
0.0323894
0.0323554
0.0323213
0.0322912
0.0322667
0.0322348
0.0441176
0.043199
0.0425866
0.0422563
0.0421505
0.0421339
0.042133
0.042133
0.042133
0.042133
0.042133
0.042133
0.042133
0.042133
0.042133
0.042133
0.042133
0.042133
0.042133
0.042133
0.042133
0.042133
0.042133
0.0421332
0.0421398
0.0421978
0.0423512
0.0424953
0.042541
0.0425084
0.0423287
0.042043
0.0417797
0.0415573
0.0413535
0.0411544
0.0409574
0.040763
0.040572
0.0403833
0.0401972
0.0400128
0.0398306
0.0396499
0.0394706
0.0392924
0.0391151
0.0389385
0.0387625
0.0385869
0.0384112
0.0382355
0.0380599
0.0378846
0.0377094
0.0375348
0.0373612
0.0371888
0.0370177
0.0368485
0.036681
0.0365153
0.036352
0.0361916
0.036034
0.0358789
0.0357273
0.0355807
0.0354394
0.035303
0.0351708
0.0350426
0.0349185
0.034798
0.0346809
0.0345676
0.0344588
0.0343546
0.0342551
0.0341591
0.0340651
0.0339744
0.0338896
0.0338109
0.0337346
0.0336594
0.0335881
0.0335198
0.0334556
0.0333946
0.0333357
0.033277
0.0332209
0.0331677
0.0331171
0.0330687
0.0330221
0.0329776
0.0329345
0.0328942
0.0328543
0.0328172
0.0327806
0.0327467
0.0327138
0.0326835
0.0326554
0.0326299
0.0326067
0.0325826
0.032559
0.0325327
0.0325036
0.0324732
0.0324423
0.0324085
0.0323737
0.0323388
0.0323078
0.0322824
0.03225
0.0439966
0.0431401
0.0425454
0.0422396
0.0421472
0.0421337
0.042133
0.042133
0.042133
0.042133
0.042133
0.042133
0.042133
0.042133
0.042133
0.042133
0.042133
0.042133
0.042133
0.042133
0.042133
0.042133
0.042133
0.0421332
0.042139
0.0421935
0.0423453
0.0424946
0.0425456
0.042517
0.0423484
0.0420652
0.0418011
0.0415787
0.0413757
0.0411778
0.040982
0.0407888
0.040599
0.0404116
0.0402266
0.0400435
0.0398624
0.0396828
0.0395047
0.0393276
0.0391513
0.0389758
0.0388008
0.0386261
0.0384514
0.0382765
0.0381017
0.0379271
0.0377525
0.0375785
0.0374053
0.0372333
0.0370624
0.0368931
0.0367254
0.0365594
0.0363958
0.0362351
0.0360769
0.0359212
0.035769
0.0356216
0.0354795
0.0353422
0.035209
0.0350799
0.0349549
0.0348335
0.0347156
0.0346016
0.0344922
0.0343877
0.034287
0.0341888
0.0340935
0.0340044
0.0339208
0.0338397
0.0337618
0.0336852
0.0336128
0.0335449
0.0334806
0.0334196
0.0333598
0.0332995
0.0332422
0.0331883
0.0331363
0.0330873
0.03304
0.0329967
0.0329543
0.0329149
0.0328749
0.0328377
0.0328002
0.0327657
0.0327312
0.0326997
0.0326704
0.0326441
0.03262
0.0325966
0.0325735
0.0325472
0.0325185
0.0324886
0.0324583
0.0324248
0.0323903
0.0323555
0.0323246
0.0322987
0.0322659
0.0438678
0.0430747
0.0425028
0.0422234
0.0421442
0.0421335
0.042133
0.042133
0.042133
0.042133
0.042133
0.042133
0.042133
0.042133
0.042133
0.042133
0.042133
0.042133
0.042133
0.042133
0.042133
0.042133
0.042133
0.0421332
0.0421383
0.0421893
0.042339
0.0424936
0.04255
0.0425255
0.0423679
0.0420877
0.0418228
0.0416003
0.0413981
0.0412014
0.0410068
0.0408148
0.0406262
0.0404399
0.0402561
0.0400742
0.0398943
0.0397159
0.0395389
0.0393629
0.0391877
0.0390132
0.0388392
0.0386656
0.0384917
0.0383177
0.0381437
0.0379698
0.0377958
0.0376223
0.0374496
0.037278
0.0371072
0.0369378
0.0367697
0.0366035
0.0364396
0.0362786
0.0361201
0.0359638
0.0358107
0.0356624
0.0355194
0.0353811
0.0352471
0.0351171
0.0349911
0.0348688
0.0347499
0.0346351
0.0345251
0.0344197
0.0343173
0.0342179
0.0341237
0.0340352
0.0339501
0.0338656
0.0337857
0.0337103
0.0336385
0.0335716
0.0335065
0.0334423
0.03338
0.0333197
0.033263
0.0332093
0.0331575
0.0331087
0.0330621
0.0330191
0.0329774
0.0329382
0.0328992
0.0328622
0.0328254
0.0327904
0.0327556
0.0327229
0.0326933
0.0326662
0.0326416
0.032618
0.0325943
0.0325682
0.0325394
0.0325097
0.03248
0.0324468
0.0324127
0.0323782
0.0323475
0.0323221
0.0322907
0.0437288
0.0430016
0.042459
0.0422078
0.0421415
0.0421333
0.042133
0.042133
0.042133
0.042133
0.042133
0.042133
0.042133
0.042133
0.042133
0.042133
0.042133
0.042133
0.042133
0.042133
0.042133
0.042133
0.042133
0.0421332
0.0421377
0.0421852
0.0423325
0.0424922
0.0425542
0.0425338
0.0423873
0.0421104
0.0418448
0.0416221
0.0414207
0.041225
0.0410317
0.0408408
0.0406534
0.0404683
0.0402858
0.0401051
0.0399264
0.0397491
0.0395732
0.0393983
0.0392242
0.0390508
0.0388779
0.0387052
0.0385323
0.0383591
0.0381859
0.0380127
0.0378393
0.0376664
0.0374942
0.0373229
0.0371523
0.0369827
0.0368144
0.0366478
0.0364836
0.0363222
0.0361632
0.0360063
0.0358524
0.0357033
0.0355593
0.03542
0.0352849
0.0351539
0.0350269
0.0349037
0.034784
0.0346685
0.0345578
0.0344509
0.0343472
0.0342478
0.0341538
0.0340631
0.033975
0.0338904
0.0338106
0.0337372
0.0336666
0.0335982
0.0335311
0.0334627
0.0333983
0.0333393
0.0332838
0.0332312
0.0331803
0.0331319
0.0330852
0.0330404
0.0329967
0.0329549
0.0329156
0.0328774
0.0328412
0.0328057
0.0327717
0.0327391
0.0327099
0.0326826
0.0326578
0.0326335
0.032609
0.0325826
0.032553
0.0325223
0.0324914
0.0324573
0.0324221
0.0323865
0.0323551
0.032329
0.0322973
0.0435782
0.0429202
0.0424146
0.0421931
0.0421392
0.0421332
0.042133
0.042133
0.042133
0.042133
0.042133
0.042133
0.042133
0.042133
0.042133
0.042133
0.042133
0.042133
0.042133
0.042133
0.042133
0.042133
0.042133
0.0421331
0.0421371
0.0421812
0.0423257
0.0424903
0.0425582
0.0425419
0.0424065
0.0421332
0.0418671
0.0416442
0.0414434
0.0412489
0.0410568
0.0408671
0.0406808
0.0404969
0.0403156
0.040136
0.0399585
0.0397825
0.0396077
0.0394339
0.0392609
0.0390885
0.0389166
0.038745
0.038573
0.0384007
0.0382283
0.0380558
0.0378831
0.0377106
0.0375389
0.037368
0.0371976
0.0370278
0.0368592
0.0366923
0.0365278
0.036366
0.0362065
0.0360489
0.0358942
0.0357441
0.0355991
0.0354588
0.0353227
0.0351906
0.0350626
0.0349383
0.0348177
0.0347013
0.0345894
0.0344813
0.0343771
0.0342776
0.034182
0.0340891
0.0340003
0.0339183
0.0338395
0.0337639
0.0336917
0.0336193
0.0335497
0.0334804
0.0334166
0.0333595
0.0333047
0.0332522
0.0332014
0.0331526
0.0331049
0.0330586
0.0330131
0.0329697
0.0329296
0.0328904
0.0328543
0.0328186
0.0327861
0.0327545
0.0327265
0.0326994
0.0326749
0.0326504
0.0326259
0.0325992
0.0325693
0.0325378
0.032506
0.032471
0.032435
0.0323985
0.0323662
0.032339
0.032307
0.0434132
0.0428301
0.0423702
0.0421798
0.0421374
0.0421331
0.042133
0.042133
0.042133
0.042133
0.042133
0.042133
0.042133
0.042133
0.042133
0.042133
0.042133
0.042133
0.042133
0.042133
0.042133
0.042133
0.042133
0.0421331
0.0421365
0.0421773
0.0423186
0.0424879
0.0425619
0.04255
0.0424253
0.0421563
0.0418897
0.0416665
0.0414662
0.0412729
0.041082
0.0408935
0.0407083
0.0405256
0.0403455
0.0401672
0.0399909
0.0398159
0.0396423
0.0394697
0.0392978
0.0391265
0.0389556
0.038785
0.0386139
0.0384425
0.0382709
0.0380991
0.037927
0.0377551
0.0375839
0.0374134
0.0372431
0.0370732
0.0369043
0.036737
0.0365721
0.03641
0.0362499
0.0360916
0.035936
0.0357849
0.0356389
0.0354975
0.0353602
0.035227
0.035098
0.0349727
0.0348512
0.0347339
0.0346209
0.0345119
0.0344069
0.0343058
0.0342082
0.0341152
0.0340281
0.033946
0.0338665
0.0337864
0.0337109
0.0336365
0.0335661
0.0335013
0.0334402
0.0333831
0.0333269
0.0332714
0.0332182
0.0331669
0.033117
0.0330694
0.0330234
0.0329795
0.0329385
0.0328987
0.0328611
0.0328249
0.0327911
0.0327591
0.0327304
0.0327027
0.0326779
0.0326531
0.0326285
0.0326016
0.0325716
0.0325401
0.032508
0.0324729
0.0324366
0.0323999
0.0323673
0.0323397
0.0323074
0.0432301
0.0427303
0.0423266
0.0421681
0.0421359
0.0421331
0.042133
0.042133
0.042133
0.042133
0.042133
0.042133
0.042133
0.042133
0.042133
0.042133
0.042133
0.042133
0.042133
0.042133
0.042133
0.042133
0.042133
0.0421331
0.0421361
0.0421736
0.0423112
0.0424849
0.0425655
0.0425579
0.0424438
0.0421796
0.0419126
0.0416889
0.0414893
0.0412971
0.0411075
0.0409201
0.040736
0.0405544
0.0403755
0.0401984
0.0400233
0.0398495
0.0396771
0.0395056
0.0393347
0.0391645
0.0389948
0.0388251
0.038655
0.0384845
0.0383137
0.0381426
0.0379712
0.0377998
0.0376291
0.037459
0.0372888
0.0371188
0.0369495
0.0367819
0.0366166
0.0364541
0.0362935
0.0361345
0.035978
0.0358258
0.0356786
0.0355361
0.0353977
0.0352634