/*--------------------------------*- C++ -*----------------------------------*\
| =========                 |                                                 |
| \\      /  F ield         | OpenFOAM: The Open Source CFD Toolbox           |
|  \\    /   O peration     | Version:  2412                                  |
|   \\  /    A nd           | Website:  www.openfoam.com                      |
|    \\/     M anipulation  |                                                 |
\*---------------------------------------------------------------------------*/
FoamFile
{
    version     2.0;
    format      ascii;
    arch        "LSB;label=32;scalar=64";
    class       volVectorField;
    location    "0.087";
    object      U;
}
// * * * * * * * * * * * * * * * * * * * * * * * * * * * * * * * * * * * * * //

dimensions      [0 1 -1 0 0 0 0];

internalField   nonuniform List<vector> 
9816
(
(188.362 -29.634 0)
(188.314 -29.9781 0)
(188.317 -30.3198 0)
(188.298 -30.6599 0)
(188.281 -30.9896 0)
(188.292 -31.3176 0)
(188.315 -31.6393 0)
(188.331 -31.9539 0)
(188.368 -32.2605 0)
(188.4 -32.5594 0)
(188.45 -32.8496 0)
(188.496 -33.1314 0)
(188.551 -33.4036 0)
(188.606 -33.6664 0)
(188.663 -33.9192 0)
(188.717 -34.1626 0)
(188.779 -34.3948 0)
(188.781 -34.6201 0)
(188.882 -34.8368 0)
(188.934 -35.0571 0)
(189.071 -35.2673 0)
(189.234 -35.478 0)
(189.425 -35.6826 0)
(189.634 -35.8827 0)
(189.858 -36.073 0)
(190.079 -36.2536 0)
(190.275 -36.4165 0)
(190.419 -36.5596 0)
(190.467 -36.6985 0)
(190.376 -36.7878 0)
(190.068 -36.7697 0)
(189.444 -36.7846 0)
(188.498 -36.6402 0)
(187.241 -36.5525 0)
(185.753 -36.3246 0)
(184.054 -36.1056 0)
(182.177 -35.8575 0)
(180.172 -35.4933 0)
(178.054 -35.2964 0)
(175.977 -34.8164 0)
(173.952 -34.7424 0)
(172.219 -34.216 0)
(196.116 -29.3737 0)
(196.255 -29.5861 0)
(196.417 -29.7802 0)
(196.568 -29.9685 0)
(196.716 -30.145 0)
(196.863 -30.3137 0)
(197.016 -30.4689 0)
(197.16 -30.618 0)
(197.306 -30.7543 0)
(197.442 -30.8827 0)
(197.569 -30.9993 0)
(197.675 -31.1074 0)
(197.76 -31.2059 0)
(197.82 -31.2981 0)
(197.896 -31.3807 0)
(197.934 -31.4645 0)
(198.025 -31.5455 0)
(198.149 -31.6261 0)
(198.302 -31.7066 0)
(198.467 -31.7834 0)
(198.619 -31.8573 0)
(198.738 -31.9169 0)
(198.809 -31.9733 0)
(198.83 -32.0286 0)
(198.78 -32.0597 0)
(198.592 -32.0389 0)
(198.171 -32.0305 0)
(197.461 -31.9143 0)
(196.419 -31.8264 0)
(195.084 -31.609 0)
(193.483 -31.4208 0)
(191.694 -31.1452 0)
(189.776 -30.8628 0)
(187.825 -30.5906 0)
(185.977 -30.2803 0)
(184.352 -30.0981 0)
(183.094 -29.8656 0)
(182.217 -29.8134 0)
(181.714 -29.7004 0)
(181.462 -29.7169 0)
(181.377 -29.6859 0)
(181.362 -29.7606 0)
(199.933 -28.0856 0)
(200.016 -28.1699 0)
(200.091 -28.2433 0)
(200.148 -28.3095 0)
(200.19 -28.3678 0)
(200.235 -28.4204 0)
(200.274 -28.4681 0)
(200.315 -28.5119 0)
(200.345 -28.5515 0)
(200.365 -28.5862 0)
(200.376 -28.6154 0)
(200.391 -28.644 0)
(200.417 -28.6751 0)
(200.432 -28.7027 0)
(200.47 -28.7383 0)
(200.54 -28.7687 0)
(200.638 -28.8081 0)
(200.755 -28.8415 0)
(200.86 -28.88 0)
(200.935 -28.9051 0)
(200.976 -28.9331 0)
(200.995 -28.9582 0)
(200.981 -28.9629 0)
(200.891 -28.9734 0)
(200.652 -28.9371 0)
(200.162 -28.8962 0)
(199.336 -28.7691 0)
(198.102 -28.6235 0)
(196.47 -28.3818 0)
(194.505 -28.1289 0)
(192.369 -27.8268 0)
(190.253 -27.5382 0)
(188.356 -27.286 0)
(186.824 -27.1225 0)
(185.738 -26.9306 0)
(185.053 -26.8028 0)
(184.677 -26.9004 0)
(184.506 -26.916 0)
(184.465 -26.8432 0)
(184.453 -26.8052 0)
(184.465 -26.8236 0)
(184.521 -26.8893 0)
(201.542 -26.6468 0)
(201.551 -26.6777 0)
(201.557 -26.706 0)
(201.56 -26.7319 0)
(201.564 -26.7582 0)
(201.571 -26.7822 0)
(201.589 -26.8117 0)
(201.601 -26.8343 0)
(201.625 -26.8629 0)
(201.638 -26.8861 0)
(201.666 -26.9142 0)
(201.702 -26.9429 0)
(201.756 -26.9721 0)
(201.829 -27.0042 0)
(201.924 -27.0384 0)
(202.036 -27.0755 0)
(202.15 -27.1099 0)
(202.245 -27.1436 0)
(202.31 -27.1684 0)
(202.347 -27.1933 0)
(202.366 -27.2138 0)
(202.358 -27.229 0)
(202.277 -27.2219 0)
(202.035 -27.2048 0)
(201.53 -27.1256 0)
(200.663 -27.0284 0)
(199.398 -26.8372 0)
(197.746 -26.6368 0)
(195.821 -26.357 0)
(193.774 -26.1011 0)
(191.808 -25.8378 0)
(190.098 -25.6416 0)
(188.781 -25.4249 0)
(187.865 -25.3445 0)
(187.306 -25.385 0)
(187.032 -25.2954 0)
(186.92 -25.2239 0)
(186.883 -25.2499 0)
(186.872 -25.3182 0)
(186.886 -25.3834 0)
(186.946 -25.4057 0)
(187.088 -25.428 0)
(202.52 -25.6074 0)
(202.546 -25.6464 0)
(202.586 -25.6848 0)
(202.621 -25.7269 0)
(202.666 -25.7668 0)
(202.705 -25.8115 0)
(202.755 -25.8524 0)
(202.798 -25.8983 0)
(202.851 -25.94 0)
(202.902 -25.9868 0)
(202.965 -26.0307 0)
(203.039 -26.0785 0)
(203.128 -26.1243 0)
(203.228 -26.1728 0)
(203.334 -26.217 0)
(203.429 -26.2604 0)
(203.504 -26.296 0)
(203.55 -26.3272 0)
(203.57 -26.3568 0)
(203.564 -26.3801 0)
(203.507 -26.3809 0)
(203.339 -26.3782 0)
(202.987 -26.3228 0)
(202.37 -26.2633 0)
(201.449 -26.1192 0)
(200.195 -25.9717 0)
(198.654 -25.7395 0)
(196.902 -25.523 0)
(195.087 -25.2663 0)
(193.362 -25.0421 0)
(191.87 -24.8585 0)
(190.699 -24.7408 0)
(189.884 -24.5766 0)
(189.368 -24.4967 0)
(189.09 -24.5978 0)
(188.971 -24.5985 0)
(188.947 -24.5453 0)
(188.946 -24.5106 0)
(188.961 -24.5155 0)
(188.99 -24.5522 0)
(189.079 -24.6124 0)
(189.247 -24.67 0)
(203.584 -25.1103 0)
(203.654 -25.1729 0)
(203.732 -25.2329 0)
(203.81 -25.2953 0)
(203.89 -25.3543 0)
(203.965 -25.4145 0)
(204.04 -25.4699 0)
(204.11 -25.5259 0)
(204.182 -25.5765 0)
(204.251 -25.6277 0)
(204.327 -25.673 0)
(204.404 -25.7188 0)
(204.483 -25.7571 0)
(204.552 -25.7945 0)
(204.606 -25.8229 0)
(204.638 -25.8494 0)
(204.648 -25.8748 0)
(204.631 -25.8871 0)
(204.568 -25.893 0)
(204.42 -25.8816 0)
(204.141 -25.8591 0)
(203.683 -25.7957 0)
(202.995 -25.7226 0)
(202.049 -25.578 0)
(200.816 -25.433 0)
(199.334 -25.2091 0)
(197.667 -25.0079 0)
(195.943 -24.7531 0)
(194.285 -24.5563 0)
(192.829 -24.3541 0)
(191.658 -24.1825 0)
(190.799 -24.0773 0)
(190.233 -24.0812 0)
(189.926 -23.9858 0)
(189.78 -23.9047 0)
(189.72 -23.9187 0)
(189.704 -23.9712 0)
(189.703 -23.9972 0)
(189.714 -23.9902 0)
(189.754 -23.9855 0)
(189.835 -23.9636 0)
(189.971 -23.9665 0)
(204.624 -24.9619 0)
(204.706 -25.0152 0)
(204.784 -25.0637 0)
(204.856 -25.1073 0)
(204.921 -25.1454 0)
(204.977 -25.1794 0)
(205.024 -25.2079 0)
(205.062 -25.2343 0)
(205.097 -25.2556 0)
(205.127 -25.2757 0)
(205.156 -25.2915 0)
(205.181 -25.3061 0)
(205.203 -25.3172 0)
(205.217 -25.3272 0)
(205.224 -25.3372 0)
(205.222 -25.3444 0)
(205.202 -25.3425 0)
(205.142 -25.3454 0)
(205.016 -25.3249 0)
(204.78 -25.3096 0)
(204.39 -25.2493 0)
(203.788 -25.1906 0)
(202.936 -25.0682 0)
(201.806 -24.9437 0)
(200.419 -24.7565 0)
(198.822 -24.5721 0)
(197.112 -24.3486 0)
(195.4 -24.1497 0)
(193.811 -23.9495 0)
(192.444 -23.7717 0)
(191.362 -23.6282 0)
(190.576 -23.5983 0)
(190.075 -23.5015 0)
(189.796 -23.3876 0)
(189.652 -23.388 0)
(189.595 -23.445 0)
(189.58 -23.4594 0)
(189.585 -23.4419 0)
(189.601 -23.4128 0)
(189.635 -23.379 0)
(189.695 -23.3725 0)
(189.802 -23.3844 0)
(205.204 -24.743 0)
(205.237 -24.7582 0)
(205.266 -24.7708 0)
(205.289 -24.781 0)
(205.308 -24.7885 0)
(205.321 -24.7943 0)
(205.331 -24.7985 0)
(205.337 -24.8005 0)
(205.337 -24.8003 0)
(205.334 -24.7994 0)
(205.331 -24.7964 0)
(205.328 -24.7935 0)
(205.325 -24.7886 0)
(205.319 -24.7847 0)
(205.308 -24.7778 0)
(205.286 -24.7713 0)
(205.245 -24.7575 0)
(205.166 -24.7478 0)
(205.028 -24.7177 0)
(204.789 -24.6956 0)
(204.413 -24.6293 0)
(203.842 -24.5772 0)
(203.045 -24.4525 0)
(201.984 -24.3513 0)
(200.675 -24.1605 0)
(199.143 -24.0085 0)
(197.481 -23.7756 0)
(195.782 -23.6039 0)
(194.173 -23.389 0)
(192.743 -23.2391 0)
(191.574 -23.0595 0)
(190.679 -23.0059 0)
(190.057 -22.9513 0)
(189.677 -22.8412 0)
(189.466 -22.7783 0)
(189.366 -22.8157 0)
(189.332 -22.8566 0)
(189.325 -22.8577 0)
(189.332 -22.8419 0)
(189.349 -22.8099 0)
(189.384 -22.7892 0)
(189.447 -22.7897 0)
(205.322 -24.4155 0)
(205.321 -24.4135 0)
(205.316 -24.409 0)
(205.307 -24.4035 0)
(205.295 -24.3958 0)
(205.279 -24.388 0)
(205.261 -24.3789 0)
(205.24 -24.3699 0)
(205.219 -24.3612 0)
(205.199 -24.3521 0)
(205.179 -24.3449 0)
(205.162 -24.3364 0)
(205.143 -24.3311 0)
(205.124 -24.3224 0)
(205.101 -24.3194 0)
(205.072 -24.3056 0)
(205.025 -24.3036 0)
(204.95 -24.2811 0)
(204.819 -24.2739 0)
(204.607 -24.2277 0)
(204.26 -24.2004 0)
(203.741 -24.1112 0)
(202.995 -24.0391 0)
(202.008 -23.8942 0)
(200.772 -23.7598 0)
(199.334 -23.5702 0)
(197.757 -23.3849 0)
(196.137 -23.1851 0)
(194.574 -22.9952 0)
(193.157 -22.8361 0)
(191.963 -22.6631 0)
(191.018 -22.5665 0)
(190.327 -22.5281 0)
(189.874 -22.4538 0)
(189.613 -22.362 0)
(189.474 -22.3554 0)
(189.417 -22.4048 0)
(189.399 -22.4294 0)
(189.397 -22.4239 0)
(189.404 -22.4094 0)
(189.421 -22.3821 0)
(189.457 -22.3751 0)
(205.225 -24.1168 0)
(205.211 -24.1121 0)
(205.198 -24.107 0)
(205.184 -24.1037 0)
(205.173 -24.0989 0)
(205.163 -24.0975 0)
(205.155 -24.0934 0)
(205.149 -24.0936 0)
(205.146 -24.091 0)
(205.142 -24.0899 0)
(205.138 -24.0888 0)
(205.134 -24.0877 0)
(205.13 -24.0895 0)
(205.123 -24.0879 0)
(205.108 -24.0864 0)
(205.077 -24.0837 0)
(205.021 -24.0778 0)
(204.922 -24.0669 0)
(204.756 -24.0469 0)
(204.495 -24.0159 0)
(204.102 -23.9627 0)
(203.536 -23.894 0)
(202.767 -23.7881 0)
(201.77 -23.6682 0)
(200.554 -23.5033 0)
(199.147 -23.3353 0)
(197.62 -23.1333 0)
(196.054 -22.9461 0)
(194.552 -22.756 0)
(193.201 -22.5924 0)
(192.069 -22.4404 0)
(191.181 -22.3549 0)
(190.535 -22.2992 0)
(190.115 -22.1948 0)
(189.86 -22.1447 0)
(189.723 -22.182 0)
(189.663 -22.2141 0)
(189.646 -22.2016 0)
(189.647 -22.1815 0)
(189.654 -22.1574 0)
(189.668 -22.1521 0)
(189.692 -22.1634 0)
(205.285 -23.9861 0)
(205.274 -23.9907 0)
(205.263 -23.9963 0)
(205.252 -24.0016 0)
(205.243 -24.0078 0)
(205.235 -24.014 0)
(205.229 -24.0216 0)
(205.224 -24.0288 0)
(205.224 -24.0377 0)
(205.227 -24.047 0)
(205.232 -24.0569 0)
(205.234 -24.0672 0)
(205.233 -24.0773 0)
(205.226 -24.0852 0)
(205.208 -24.0908 0)
(205.173 -24.0942 0)
(205.105 -24.092 0)
(204.982 -24.0828 0)
(204.775 -24.0604 0)
(204.448 -24.0224 0)
(203.966 -23.9635 0)
(203.3 -23.8794 0)
(202.428 -23.7649 0)
(201.345 -23.6255 0)
(200.073 -23.4555 0)
(198.653 -23.2732 0)
(197.155 -23.074 0)
(195.658 -22.8853 0)
(194.248 -22.7005 0)
(192.996 -22.5379 0)
(191.953 -22.4134 0)
(191.141 -22.3311 0)
(190.566 -22.225 0)
(190.19 -22.158 0)
(189.966 -22.1912 0)
(189.856 -22.2011 0)
(189.817 -22.172 0)
(189.809 -22.1397 0)
(189.81 -22.1261 0)
(189.819 -22.1309 0)
(189.826 -22.1542 0)
(189.853 -22.1852 0)
(205.462 -24.0125 0)
(205.457 -24.029 0)
(205.457 -24.0473 0)
(205.452 -24.0646 0)
(205.454 -24.0832 0)
(205.449 -24.1014 0)
(205.455 -24.1204 0)
(205.464 -24.1396 0)
(205.476 -24.1599 0)
(205.492 -24.179 0)
(205.503 -24.1992 0)
(205.508 -24.2177 0)
(205.507 -24.2353 0)
(205.494 -24.2517 0)
(205.463 -24.2624 0)
(205.403 -24.2695 0)
(205.296 -24.2662 0)
(205.115 -24.2553 0)
(204.826 -24.2229 0)
(204.39 -24.1751 0)
(203.771 -24.0923 0)
(202.945 -23.9911 0)
(201.909 -23.8484 0)
(200.678 -23.6913 0)
(199.294 -23.5008 0)
(197.817 -23.3087 0)
(196.325 -23.1063 0)
(194.894 -22.9171 0)
(193.595 -22.7441 0)
(192.482 -22.5995 0)
(191.584 -22.4857 0)
(190.908 -22.3788 0)
(190.431 -22.3301 0)
(190.12 -22.3191 0)
(189.944 -22.2772 0)
(189.86 -22.2375 0)
(189.824 -22.2375 0)
(189.814 -22.2595 0)
(189.814 -22.2743 0)
(189.819 -22.2737 0)
(189.836 -22.2685 0)
(189.876 -22.2673 0)
(205.711 -24.1674 0)
(205.721 -24.1935 0)
(205.735 -24.2174 0)
(205.742 -24.2431 0)
(205.756 -24.2662 0)
(205.769 -24.2907 0)
(205.788 -24.3138 0)
(205.807 -24.3371 0)
(205.828 -24.3581 0)
(205.843 -24.3787 0)
(205.852 -24.3967 0)
(205.854 -24.4132 0)
(205.847 -24.4288 0)
(205.822 -24.4385 0)
(205.771 -24.4443 0)
(205.677 -24.4411 0)
(205.514 -24.4314 0)
(205.254 -24.4028 0)
(204.861 -24.3623 0)
(204.303 -24.2901 0)
(203.551 -24.2045 0)
(202.593 -24.079 0)
(201.431 -23.9402 0)
(200.093 -23.7664 0)
(198.625 -23.5866 0)
(197.097 -23.3918 0)
(195.587 -23.2029 0)
(194.174 -23.0271 0)
(192.926 -22.8655 0)
(191.887 -22.7304 0)
(191.077 -22.6269 0)
(190.484 -22.5757 0)
(190.091 -22.4958 0)
(189.85 -22.4338 0)
(189.716 -22.438 0)
(189.653 -22.4633 0)
(189.631 -22.4544 0)
(189.63 -22.4375 0)
(189.637 -22.4175 0)
(189.648 -22.403 0)
(189.666 -22.4059 0)
(189.703 -22.42 0)
(205.982 -24.3424 0)
(205.995 -24.3604 0)
(206.007 -24.3758 0)
(206.017 -24.3901 0)
(206.027 -24.4034 0)
(206.037 -24.4153 0)
(206.047 -24.4257 0)
(206.056 -24.4347 0)
(206.062 -24.4421 0)
(206.064 -24.4492 0)
(206.061 -24.4558 0)
(206.053 -24.4623 0)
(206.033 -24.4639 0)
(205.994 -24.4675 0)
(205.925 -24.4596 0)
(205.807 -24.4546 0)
(205.618 -24.4298 0)
(205.328 -24.4038 0)
(204.906 -24.3475 0)
(204.321 -24.2879 0)
(203.551 -24.1851 0)
(202.575 -24.0778 0)
(201.404 -23.925 0)
(200.057 -23.7722 0)
(198.589 -23.5828 0)
(197.057 -23.407 0)
(195.539 -23.2103 0)
(194.104 -23.0473 0)
(192.82 -22.8845 0)
(191.732 -22.751 0)
(190.869 -22.6312 0)
(190.226 -22.5982 0)
(189.792 -22.5342 0)
(189.531 -22.4487 0)
(189.385 -22.4229 0)
(189.319 -22.4591 0)
(189.295 -22.477 0)
(189.292 -22.4668 0)
(189.299 -22.4491 0)
(189.31 -22.4205 0)
(189.328 -22.4059 0)
(189.36 -22.4096 0)
(206.066 -24.4193 0)
(206.069 -24.4249 0)
(206.072 -24.4296 0)
(206.076 -24.434 0)
(206.079 -24.4376 0)
(206.081 -24.441 0)
(206.084 -24.4437 0)
(206.085 -24.4463 0)
(206.084 -24.4484 0)
(206.081 -24.4495 0)
(206.077 -24.4495 0)
(206.068 -24.4484 0)
(206.046 -24.4472 0)
(206.004 -24.4412 0)
(205.931 -24.432 0)
(205.811 -24.4183 0)
(205.623 -24.3918 0)
(205.337 -24.3629 0)
(204.928 -24.3034 0)
(204.36 -24.2485 0)
(203.615 -24.1418 0)
(202.669 -24.048 0)
(201.534 -23.8932 0)
(200.223 -23.7585 0)
(198.787 -23.571 0)
(197.275 -23.4085 0)
(195.763 -23.2199 0)
(194.317 -23.0576 0)
(193.002 -22.8992 0)
(191.864 -22.7605 0)
(190.926 -22.6619 0)
(190.199 -22.5742 0)
(189.674 -22.4879 0)
(189.32 -22.4397 0)
(189.1 -22.4591 0)
(188.987 -22.438 0)
(188.942 -22.4037 0)
(188.926 -22.3779 0)
(188.924 -22.3718 0)
(188.928 -22.3816 0)
(188.934 -22.397 0)
(188.95 -22.4012 0)
(206.022 -24.4751 0)
(206.019 -24.4721 0)
(206.014 -24.4686 0)
(206.01 -24.4645 0)
(206.003 -24.4601 0)
(205.997 -24.4546 0)
(205.989 -24.4494 0)
(205.982 -24.4424 0)
(205.972 -24.4373 0)
(205.962 -24.4292 0)
(205.948 -24.4236 0)
(205.931 -24.4127 0)
(205.9 -24.4079 0)
(205.854 -24.3892 0)
(205.776 -24.3833 0)
(205.658 -24.351 0)
(205.474 -24.3392 0)
(205.207 -24.2834 0)
(204.82 -24.254 0)
(204.296 -24.1642 0)
(203.604 -24.1049 0)
(202.74 -23.9737 0)
(201.687 -23.8722 0)
(200.471 -23.7022 0)
(199.108 -23.563 0)
(197.658 -23.3717 0)
(196.171 -23.2139 0)
(194.719 -23.0278 0)
(193.357 -22.8809 0)
(192.145 -22.7238 0)
(191.112 -22.6174 0)
(190.28 -22.5118 0)
(189.646 -22.4226 0)
(189.189 -22.3572 0)
(188.878 -22.3683 0)
(188.695 -22.337 0)
(188.605 -22.2916 0)
(188.562 -22.2606 0)
(188.545 -22.2612 0)
(188.542 -22.2804 0)
(188.543 -22.2962 0)
(188.548 -22.2958 0)
(205.895 -24.5342 0)
(205.883 -24.525 0)
(205.868 -24.5166 0)
(205.854 -24.5066 0)
(205.838 -24.4985 0)
(205.824 -24.4882 0)
(205.806 -24.4809 0)
(205.791 -24.4704 0)
(205.773 -24.4638 0)
(205.757 -24.4528 0)
(205.735 -24.4475 0)
(205.713 -24.4339 0)
(205.678 -24.4322 0)
(205.629 -24.4106 0)
(205.551 -24.4094 0)
(205.439 -24.3736 0)
(205.265 -24.3694 0)
(205.02 -24.3094 0)
(204.662 -24.2928 0)
(204.178 -24.1966 0)
(203.526 -24.1511 0)
(202.703 -24.0123 0)
(201.69 -23.925 0)
(200.516 -23.7485 0)
(199.194 -23.616 0)
(197.78 -23.4207 0)
(196.316 -23.2588 0)
(194.872 -23.0729 0)
(193.502 -22.9104 0)
(192.259 -22.7592 0)
(191.182 -22.6223 0)
(190.291 -22.527 0)
(189.595 -22.4325 0)
(189.08 -22.3572 0)
(188.719 -22.3163 0)
(188.483 -22.3266 0)
(188.353 -22.2916 0)
(188.291 -22.256 0)
(188.263 -22.2376 0)
(188.254 -22.2433 0)
(188.252 -22.2613 0)
(188.253 -22.2735 0)
(205.744 -24.6478 0)
(205.725 -24.6398 0)
(205.707 -24.6326 0)
(205.689 -24.6249 0)
(205.671 -24.619 0)
(205.654 -24.6118 0)
(205.637 -24.607 0)
(205.621 -24.6001 0)
(205.603 -24.5961 0)
(205.586 -24.5887 0)
(205.564 -24.5857 0)
(205.539 -24.5758 0)
(205.501 -24.5752 0)
(205.447 -24.557 0)
(205.364 -24.5554 0)
(205.246 -24.5231 0)
(205.067 -24.5154 0)
(204.814 -24.4588 0)
(204.452 -24.4342 0)
(203.966 -24.342 0)
(203.317 -24.2846 0)
(202.501 -24.1503 0)
(201.5 -24.0477 0)
(200.335 -23.8757 0)
(199.024 -23.7285 0)
(197.617 -23.5371 0)
(196.163 -23.3628 0)
(194.727 -23.1793 0)
(193.364 -23.0078 0)
(192.126 -22.8573 0)
(191.051 -22.7129 0)
(190.156 -22.6156 0)
(189.45 -22.5201 0)
(188.923 -22.4406 0)
(188.552 -22.3869 0)
(188.308 -22.4014 0)
(188.17 -22.3765 0)
(188.106 -22.3417 0)
(188.078 -22.3165 0)
(188.067 -22.3161 0)
(188.066 -22.3327 0)
(188.067 -22.3507 0)
(205.647 -24.8307 0)
(205.63 -24.8273 0)
(205.614 -24.8246 0)
(205.599 -24.8222 0)
(205.585 -24.8205 0)
(205.572 -24.8191 0)
(205.559 -24.8181 0)
(205.546 -24.8174 0)
(205.532 -24.8163 0)
(205.516 -24.8158 0)
(205.497 -24.8137 0)
(205.47 -24.8131 0)
(205.43 -24.8079 0)
(205.367 -24.8027 0)
(205.271 -24.7881 0)
(205.126 -24.7733 0)
(204.914 -24.7396 0)
(204.612 -24.7059 0)
(204.197 -24.6401 0)
(203.644 -24.5767 0)
(202.939 -24.4665 0)
(202.064 -24.3649 0)
(201.025 -24.2062 0)
(199.826 -24.0664 0)
(198.505 -23.8694 0)
(197.094 -23.7048 0)
(195.658 -23.4944 0)
(194.242 -23.3294 0)
(192.914 -23.1383 0)
(191.712 -22.9975 0)
(190.679 -22.845 0)
(189.826 -22.7527 0)
(189.163 -22.6644 0)
(188.676 -22.5854 0)
(188.341 -22.5272 0)
(188.126 -22.5432 0)
(188.008 -22.5328 0)
(187.955 -22.5038 0)
(187.937 -22.4749 0)
(187.93 -22.4674 0)
(187.931 -22.4757 0)
(187.934 -22.495 0)
(205.618 -25.0709 0)
(205.608 -25.0713 0)
(205.598 -25.0727 0)
(205.589 -25.0738 0)
(205.582 -25.0758 0)
(205.574 -25.0775 0)
(205.568 -25.0796 0)
(205.56 -25.0817 0)
(205.55 -25.0828 0)
(205.538 -25.0851 0)
(205.52 -25.0826 0)
(205.491 -25.0875 0)
(205.443 -25.074 0)
(205.36 -25.0774 0)
(205.235 -25.0448 0)
(205.042 -25.0414 0)
(204.771 -24.9785 0)
(204.388 -24.9585 0)
(203.887 -24.8539 0)
(203.23 -24.8036 0)
(202.423 -24.6506 0)
(201.439 -24.5582 0)
(200.307 -24.361 0)
(199.026 -24.2251 0)
(197.652 -24.0017 0)
(196.214 -23.8372 0)
(194.782 -23.6163 0)
(193.399 -23.4503 0)
(192.127 -23.2621 0)
(191.001 -23.1209 0)
(190.054 -22.9865 0)
(189.29 -22.8947 0)
(188.714 -22.7989 0)
(188.302 -22.7356 0)
(188.025 -22.7284 0)
(187.858 -22.7166 0)
(187.777 -22.674 0)
(187.741 -22.645 0)
(187.727 -22.6413 0)
(187.726 -22.6577 0)
(187.727 -22.6735 0)
(187.732 -22.6776 0)
(205.622 -25.349 0)
(205.614 -25.3488 0)
(205.608 -25.3486 0)
(205.601 -25.3485 0)
(205.595 -25.3483 0)
(205.588 -25.3481 0)
(205.581 -25.3475 0)
(205.572 -25.3463 0)
(205.56 -25.3453 0)
(205.544 -25.3416 0)
(205.518 -25.3407 0)
(205.476 -25.3314 0)
(205.407 -25.3261 0)
(205.301 -25.3052 0)
(205.138 -25.2899 0)
(204.904 -25.2483 0)
(204.57 -25.213 0)
(204.117 -25.1381 0)
(203.517 -25.0701 0)
(202.759 -24.9503 0)
(201.825 -24.8392 0)
(200.725 -24.6712 0)
(199.468 -24.5167 0)
(198.095 -24.3117 0)
(196.64 -24.1289 0)
(195.166 -23.9128 0)
(193.725 -23.729 0)
(192.377 -23.5329 0)
(191.165 -23.3772 0)
(190.127 -23.2277 0)
(189.277 -23.1129 0)
(188.618 -23.0141 0)
(188.132 -22.9635 0)
(187.8 -22.9126 0)
(187.595 -22.8558 0)
(187.476 -22.8357 0)
(187.417 -22.8514 0)
(187.394 -22.8529 0)
(187.39 -22.8397 0)
(187.394 -22.8258 0)
(187.4 -22.81 0)
(187.411 -22.8035 0)
(205.558 -25.6174 0)
(205.55 -25.6115 0)
(205.54 -25.6062 0)
(205.533 -25.6 0)
(205.522 -25.5949 0)
(205.512 -25.5881 0)
(205.498 -25.5831 0)
(205.484 -25.5749 0)
(205.465 -25.5708 0)
(205.444 -25.5588 0)
(205.408 -25.5582 0)
(205.356 -25.5358 0)
(205.27 -25.5348 0)
(205.146 -25.4951 0)
(204.953 -25.4894 0)
(204.683 -25.42 0)
(204.294 -25.3997 0)
(203.779 -25.2862 0)
(203.092 -25.2372 0)
(202.242 -25.0701 0)
(201.197 -24.9798 0)
(199.992 -24.7626 0)
(198.627 -24.6288 0)
(197.168 -24.3824 0)
(195.642 -24.219 0)
(194.134 -23.9775 0)
(192.685 -23.8107 0)
(191.364 -23.6065 0)
(190.203 -23.4664 0)
(189.236 -23.3256 0)
(188.466 -23.216 0)
(187.888 -23.1215 0)
(187.475 -23.0917 0)
(187.203 -23.0593 0)
(187.047 -22.9944 0)
(186.963 -22.9599 0)
(186.924 -22.9703 0)
(186.913 -22.9868 0)
(186.91 -22.9874 0)
(186.915 -22.9782 0)
(186.923 -22.9609 0)
(186.938 -22.9376 0)
(205.406 -25.8661 0)
(205.394 -25.8535 0)
(205.379 -25.8425 0)
(205.366 -25.8299 0)
(205.351 -25.8194 0)
(205.338 -25.8069 0)
(205.321 -25.7969 0)
(205.305 -25.7843 0)
(205.284 -25.7749 0)
(205.258 -25.761 0)
(205.215 -25.7526 0)
(205.153 -25.7308 0)
(205.054 -25.7191 0)
(204.908 -25.6821 0)
(204.688 -25.6602 0)
(204.378 -25.5956 0)
(203.938 -25.551 0)
(203.354 -25.4444 0)
(202.59 -25.3617 0)
(201.646 -25.2043 0)
(200.508 -25.0736 0)
(199.206 -24.8701 0)
(197.76 -24.6954 0)
(196.228 -24.4677 0)
(194.661 -24.2702 0)
(193.129 -24.0515 0)
(191.689 -23.8624 0)
(190.396 -23.6842 0)
(189.285 -23.5316 0)
(188.378 -23.403 0)
(187.672 -23.3054 0)
(187.152 -23.2508 0)
(186.799 -23.1767 0)
(186.576 -23.1191 0)
(186.446 -23.1147 0)
(186.381 -23.1286 0)
(186.356 -23.1148 0)
(186.352 -23.0949 0)
(186.355 -23.0725 0)
(186.361 -23.058 0)
(186.369 -23.0556 0)
(186.383 -23.0639 0)
(205.188 -26.1254 0)
(205.167 -26.1106 0)
(205.148 -26.0946 0)
(205.128 -26.0809 0)
(205.111 -26.0652 0)
(205.09 -26.053 0)
(205.076 -26.0373 0)
(205.056 -26.0272 0)
(205.041 -26.0105 0)
(205.011 -26.0031 0)
(204.967 -25.9814 0)
(204.893 -25.9724 0)
(204.782 -25.9369 0)
(204.607 -25.9212 0)
(204.353 -25.8587 0)
(203.981 -25.825 0)
(203.477 -25.7193 0)
(202.798 -25.6525 0)
(201.943 -25.4919 0)
(200.885 -25.3795 0)
(199.653 -25.1658 0)
(198.249 -25.0071 0)
(196.735 -24.7598 0)
(195.146 -24.5718 0)
(193.562 -24.3239 0)
(192.032 -24.1369 0)
(190.629 -23.9229 0)
(189.388 -23.766 0)
(188.348 -23.6101 0)
(187.513 -23.507 0)
(186.886 -23.4006 0)
(186.438 -23.3306 0)
(186.139 -23.3051 0)
(185.956 -23.2904 0)
(185.862 -23.2445 0)
(185.82 -23.215 0)
(185.804 -23.2091 0)
(185.803 -23.2199 0)
(185.805 -23.2259 0)
(185.809 -23.2244 0)
(185.82 -23.218 0)
(185.844 -23.2059 0)
(204.968 -26.4333 0)
(204.943 -26.4202 0)
(204.92 -26.4069 0)
(204.897 -26.3947 0)
(204.877 -26.3827 0)
(204.858 -26.3714 0)
(204.841 -26.3605 0)
(204.824 -26.3497 0)
(204.803 -26.3387 0)
(204.769 -26.3273 0)
(204.712 -26.3104 0)
(204.618 -26.2897 0)
(204.468 -26.2601 0)
(204.238 -26.2174 0)
(203.901 -26.1632 0)
(203.431 -26.0817 0)
(202.799 -25.9889 0)
(201.988 -25.8543 0)
(200.984 -25.7125 0)
(199.792 -25.5218 0)
(198.426 -25.3319 0)
(196.927 -25.0993 0)
(195.338 -24.8794 0)
(193.725 -24.6354 0)
(192.148 -24.4171 0)
(190.674 -24.1977 0)
(189.352 -24.0151 0)
(188.223 -23.8454 0)
(187.302 -23.7131 0)
(186.59 -23.6164 0)
(186.071 -23.5453 0)
(185.723 -23.4615 0)
(185.501 -23.4268 0)
(185.373 -23.4398 0)
(185.313 -23.4287 0)
(185.294 -23.4025 0)
(185.291 -23.3768 0)
(185.294 -23.3642 0)
(185.301 -23.3639 0)
(185.311 -23.374 0)
(185.333 -23.3842 0)
(185.381 -23.3899 0)
(204.823 -26.7958 0)
(204.798 -26.7889 0)
(204.775 -26.7814 0)
(204.753 -26.7755 0)
(204.733 -26.7687 0)
(204.713 -26.7632 0)
(204.693 -26.7564 0)
(204.668 -26.7496 0)
(204.63 -26.7407 0)
(204.567 -26.7263 0)
(204.464 -26.7034 0)
(204.302 -26.6752 0)
(204.059 -26.6242 0)
(203.706 -26.571 0)
(203.223 -26.475 0)
(202.577 -26.3822 0)
(201.757 -26.2285 0)
(200.74 -26.0836 0)
(199.54 -25.8709 0)
(198.161 -25.6731 0)
(196.648 -25.4179 0)
(195.04 -25.1852 0)
(193.407 -24.9201 0)
(191.805 -24.6864 0)
(190.305 -24.4487 0)
(188.954 -24.2508 0)
(187.796 -24.0718 0)
(186.85 -23.9255 0)
(186.117 -23.8043 0)
(185.579 -23.7424 0)
(185.211 -23.6869 0)
(184.987 -23.6093 0)
(184.856 -23.5764 0)
(184.792 -23.5952 0)
(184.767 -23.6007 0)
(184.764 -23.586 0)
(184.771 -23.5689 0)
(184.782 -23.5442 0)
(184.803 -23.5319 0)
(184.839 -23.5354 0)
(184.903 -23.5503 0)
(185.004 -23.5717 0)
(204.792 -27.1953 0)
(204.77 -27.1935 0)
(204.749 -27.1924 0)
(204.728 -27.1902 0)
(204.706 -27.1892 0)
(204.682 -27.1848 0)
(204.647 -27.1823 0)
(204.594 -27.1715 0)
(204.508 -27.1605 0)
(204.376 -27.1303 0)
(204.174 -27.1043 0)
(203.886 -27.0402 0)
(203.479 -26.9862 0)
(202.937 -26.8716 0)
(202.221 -26.7719 0)
(201.327 -26.5951 0)
(200.229 -26.435 0)
(198.945 -26.1971 0)
(197.484 -25.9766 0)
(195.896 -25.6973 0)
(194.225 -25.4391 0)
(192.545 -25.1546 0)
(190.916 -24.8985 0)
(189.406 -24.649 0)
(188.066 -24.4364 0)
(186.933 -24.2495 0)
(186.021 -24.0947 0)
(185.324 -23.9834 0)
(184.823 -23.9138 0)
(184.494 -23.8339 0)
(184.295 -23.7672 0)
(184.183 -23.7647 0)
(184.132 -23.7745 0)
(184.118 -23.7571 0)
(184.123 -23.7356 0)
(184.134 -23.7092 0)
(184.155 -23.6914 0)
(184.192 -23.6923 0)
(184.254 -23.7041 0)
(184.353 -23.7215 0)
(184.493 -23.744 0)
(184.676 -23.7653 0)
(204.822 -27.6042 0)
(204.801 -27.6036 0)
(204.778 -27.6007 0)
(204.752 -27.6001 0)
(204.721 -27.5936 0)
(204.678 -27.5926 0)
(204.613 -27.5766 0)
(204.51 -27.5686 0)
(204.355 -27.53 0)
(204.119 -27.5073 0)
(203.787 -27.4298 0)
(203.318 -27.377 0)
(202.698 -27.2418 0)
(201.882 -27.1376 0)
(200.869 -26.9314 0)
(199.632 -26.7584 0)
(198.201 -26.4843 0)
(196.585 -26.244 0)
(194.854 -25.9271 0)
(193.055 -25.6484 0)
(191.278 -25.3324 0)
(189.587 -25.0624 0)
(188.057 -24.7937 0)
(186.73 -24.5743 0)
(185.641 -24.3781 0)
(184.79 -24.2371 0)
(184.165 -24.1278 0)
(183.741 -24.0244 0)
(183.473 -23.9536 0)
(183.317 -23.9469 0)
(183.24 -23.935 0)
(183.216 -23.8947 0)
(183.218 -23.8609 0)
(183.231 -23.8372 0)
(183.255 -23.8282 0)
(183.296 -23.8331 0)
(183.366 -23.8434 0)
(183.476 -23.8522 0)
(183.627 -23.8682 0)
(183.819 -23.88 0)
(184.048 -23.8976 0)
(184.311 -23.913 0)
(204.821 -27.9683 0)
(204.799 -27.96 0)
(204.772 -27.9562 0)
(204.743 -27.9456 0)
(204.7 -27.9442 0)
(204.636 -27.9241 0)
(204.53 -27.918 0)
(204.371 -27.8749 0)
(204.123 -27.855 0)
(203.768 -27.7704 0)
(203.259 -27.7178 0)
(202.577 -27.5702 0)
(201.669 -27.4587 0)
(200.535 -27.2327 0)
(199.146 -27.0413 0)
(197.538 -26.7403 0)
(195.73 -26.4719 0)
(193.804 -26.1265 0)
(191.826 -25.8173 0)
(189.897 -25.4792 0)
(188.096 -25.1862 0)
(186.502 -24.9069 0)
(185.159 -24.675 0)
(184.092 -24.4829 0)
(183.29 -24.3494 0)
(182.732 -24.2265 0)
(182.375 -24.1195 0)
(182.159 -24.0843 0)
(182.045 -24.0822 0)
(182.001 -24.0404 0)
(181.995 -23.9949 0)
(182.008 -23.9573 0)
(182.033 -23.9342 0)
(182.076 -23.9332 0)
(182.148 -23.9417 0)
(182.263 -23.951 0)
(182.427 -23.9668 0)
(182.638 -23.9784 0)
(182.89 -23.9979 0)
(183.177 -24.0099 0)
(183.49 -24.0345 0)
(183.818 -24.0573 0)
(204.729 -28.2511 0)
(204.71 -28.242 0)
(204.697 -28.2287 0)
(204.671 -28.2228 0)
(204.623 -28.2047 0)
(204.533 -28.1935 0)
(204.384 -28.1571 0)
(204.145 -28.127 0)
(203.789 -28.0551 0)
(203.269 -27.9815 0)
(202.55 -27.8514 0)
(201.587 -27.7035 0)
(200.357 -27.4951 0)
(198.847 -27.2525 0)
(197.075 -26.9623 0)
(195.087 -26.6358 0)
(192.958 -26.2918 0)
(190.787 -25.9295 0)
(188.676 -25.5877 0)
(186.732 -25.2583 0)
(185.032 -24.9777 0)
(183.633 -24.7247 0)
(182.545 -24.5451 0)
(181.757 -24.4087 0)
(181.234 -24.2754 0)
(180.913 -24.1771 0)
(180.729 -24.1702 0)
(180.641 -24.157 0)
(180.616 -24.1063 0)
(180.62 -24.0598 0)
(180.636 -24.0198 0)
(180.669 -23.9992 0)
(180.725 -24.0022 0)
(180.824 -24.0161 0)
(180.98 -24.0298 0)
(181.197 -24.052 0)
(181.468 -24.0701 0)
(181.783 -24.0942 0)
(182.128 -24.1129 0)
(182.487 -24.1389 0)
(182.847 -24.1667 0)
(183.198 -24.2028 0)
(204.568 -28.4769 0)
(204.568 -28.4656 0)
(204.56 -28.4548 0)
(204.532 -28.4438 0)
(204.47 -28.4226 0)
(204.344 -28.4009 0)
(204.129 -28.3513 0)
(203.78 -28.3005 0)
(203.264 -28.196 0)
(202.522 -28.0875 0)
(201.525 -27.8993 0)
(200.224 -27.7038 0)
(198.622 -27.4159 0)
(196.72 -27.1235 0)
(194.583 -26.7521 0)
(192.282 -26.3919 0)
(189.938 -25.9922 0)
(187.662 -25.6296 0)
(185.579 -25.2777 0)
(183.773 -24.9835 0)
(182.308 -24.7176 0)
(181.191 -24.5346 0)
(180.4 -24.4183 0)
(179.895 -24.2869 0)
(179.603 -24.175 0)
(179.445 -24.1704 0)
(179.378 -24.1796 0)
(179.363 -24.1494 0)
(179.374 -24.1113 0)
(179.397 -24.066 0)
(179.448 -24.039 0)
(179.536 -24.0421 0)
(179.682 -24.0617 0)
(179.897 -24.0981 0)
(180.177 -24.1354 0)
(180.506 -24.1844 0)
(180.865 -24.2216 0)
(181.237 -24.2596 0)
(181.604 -24.2847 0)
(181.955 -24.3105 0)
(182.285 -24.333 0)
(182.592 -24.3603 0)
(204.417 -28.7678 0)
(204.411 -28.7547 0)
(204.385 -28.7396 0)
(204.323 -28.7161 0)
(204.198 -28.6841 0)
(203.979 -28.6324 0)
(203.624 -28.5609 0)
(203.088 -28.4542 0)
(202.316 -28.3114 0)
(201.264 -28.1186 0)
(199.894 -27.8748 0)
(198.193 -27.5766 0)
(196.18 -27.2266 0)
(193.911 -26.839 0)
(191.48 -26.4231 0)
(189.006 -26.0066 0)
(186.626 -25.6002 0)
(184.461 -25.2395 0)
(182.612 -24.9281 0)
(181.138 -24.6601 0)
(180.045 -24.4653 0)
(179.294 -24.3827 0)
(178.836 -24.2772 0)
(178.599 -24.1527 0)
(178.484 -24.1273 0)
(178.448 -24.1564 0)
(178.446 -24.1633 0)
(178.462 -24.1482 0)
(178.511 -24.1269 0)
(178.613 -24.1009 0)
(178.781 -24.1031 0)
(179.023 -24.1272 0)
(179.332 -24.1735 0)
(179.687 -24.2302 0)
(180.058 -24.2934 0)
(180.427 -24.3511 0)
(180.779 -24.4041 0)
(181.107 -24.4423 0)
(181.408 -24.4733 0)
(181.682 -24.4907 0)
(181.933 -24.5066 0)
(182.164 -24.5176 0)
(204.262 -29.1263 0)
(204.221 -29.1038 0)
(204.134 -29.0846 0)
(203.983 -29.0318 0)
(203.721 -28.9878 0)
(203.319 -28.8803 0)
(202.712 -28.777 0)
(201.861 -28.5874 0)
(200.703 -28.381 0)
(199.214 -28.088 0)
(197.379 -27.7541 0)
(195.228 -27.3609 0)
(192.83 -26.9251 0)
(190.29 -26.4783 0)
(187.746 -26.0245 0)
(185.338 -25.6054 0)
(183.198 -25.2234 0)
(181.417 -24.9204 0)
(180.04 -24.7039 0)
(179.076 -24.4859 0)
(178.456 -24.3524 0)
(178.101 -24.3657 0)
(177.934 -24.3532 0)
(177.887 -24.278 0)
(177.886 -24.2286 0)
(177.903 -24.2153 0)
(177.94 -24.2405 0)
(178.036 -24.2722 0)
(178.205 -24.3105 0)
(178.452 -24.3392 0)
(178.752 -24.3837 0)
(179.09 -24.4033 0)
(179.451 -24.4438 0)
(179.825 -24.4687 0)
(180.194 -24.5191 0)
(180.551 -24.5578 0)
(180.882 -24.6138 0)
(181.185 -24.6571 0)
(181.453 -24.7068 0)
(181.693 -24.7441 0)
(181.906 -24.7818 0)
(182.1 -24.8088 0)
(204.061 -29.4943 0)
(203.938 -29.4692 0)
(203.732 -29.4131 0)
(203.404 -29.3396 0)
(202.907 -29.2363 0)
(202.19 -29.0729 0)
(201.19 -28.8867 0)
(199.872 -28.5966 0)
(198.19 -28.2942 0)
(196.17 -27.8717 0)
(193.837 -27.4559 0)
(191.303 -26.9489 0)
(188.678 -26.485 0)