/*--------------------------------*- C++ -*----------------------------------*\
| =========                 |                                                 |
| \\      /  F ield         | OpenFOAM: The Open Source CFD Toolbox           |
|  \\    /   O peration     | Version:  2412                                  |
|   \\  /    A nd           | Website:  www.openfoam.com                      |
|    \\/     M anipulation  |                                                 |
\*---------------------------------------------------------------------------*/
FoamFile
{
    version     2.0;
    format      ascii;
    arch        "LSB;label=32;scalar=64";
    class       volScalarField;
    location    "0.076";
    object      rho;
}
// * * * * * * * * * * * * * * * * * * * * * * * * * * * * * * * * * * * * * //

dimensions      [1 -3 0 0 0 0 0];

internalField   nonuniform List<scalar> 
9831
(
0.0266469
0.0389785
0.0266069
0.0389722
0.0403229
0.0402141
0.0401964
0.0402206
0.0402686
0.0403185
0.0403685
0.0404223
0.0404896
0.0405823
0.0407073
0.0408582
0.0410166
0.0411654
0.0412983
0.0414178
0.0415298
0.0416384
0.0417426
0.0418398
0.0419283
0.0420093
0.042085
0.0421577
0.0422283
0.0422973
0.0423649
0.0424314
0.0424968
0.0425615
0.0426252
0.042688
0.0427495
0.0428098
0.0428689
0.0429269
0.0429839
0.0430398
0.0430941
0.0431466
0.043197
0.0432452
0.043291
0.0433345
0.0433758
0.0434146
0.043451
0.0434849
0.0265716
0.0389668
0.040317
0.040205
0.0401875
0.040213
0.0402624
0.0403133
0.0403642
0.0404192
0.0404881
0.0405829
0.04071
0.0408623
0.0410211
0.0411697
0.0413021
0.0414212
0.041533
0.0416412
0.041745
0.0418417
0.0419298
0.0420104
0.0420859
0.0421583
0.0422288
0.0422976
0.042365
0.0424313
0.0424967
0.0425612
0.0426249
0.0426876
0.042749
0.0428093
0.0428683
0.0429264
0.0429834
0.0430392
0.0430935
0.043146
0.0431963
0.0432444
0.0432901
0.0433336
0.0433748
0.0434137
0.0434501
0.0434839
0.0435152
0.0435436
0.026526
0.0389624
0.040311
0.0401959
0.0401786
0.0402055
0.0402564
0.0403081
0.04036
0.0404161
0.0404867
0.0405835
0.0407127
0.0408664
0.0410256
0.0411739
0.0413058
0.0414246
0.0415361
0.041644
0.0417474
0.0418436
0.0419312
0.0420115
0.0420867
0.0421589
0.0422292
0.0422978
0.0423651
0.0424313
0.0424965
0.042561
0.0426246
0.0426872
0.0427485
0.0428087
0.0428677
0.0429258
0.0429829
0.0430387
0.043093
0.0431453
0.0431956
0.0432436
0.0432893
0.0433328
0.0433739
0.0434128
0.0434491
0.043483
0.0435142
0.0435428
0.0435684
0.0435911
0.0264976
0.0389579
0.0403049
0.0401867
0.0401699
0.0401982
0.0402504
0.0403031
0.0403559
0.0404132
0.0404854
0.0405842
0.0407155
0.0408704
0.04103
0.0411779
0.0413095
0.0414279
0.0415391
0.0416467
0.0417497
0.0418455
0.0419326
0.0420126
0.0420875
0.0421596
0.0422296
0.0422981
0.0423652
0.0424312
0.0424964
0.0425608
0.0426243
0.0426868
0.0427481
0.0428082
0.0428672
0.0429252
0.0429823
0.0430381
0.0430923
0.0431446
0.0431948
0.0432427
0.0432884
0.0433319
0.0433731
0.0434119
0.0434483
0.0434821
0.0435134
0.043542
0.0435677
0.0435904
0.0436102
0.0436267
0.0436401
0.0436503
0.0436573
0.0436609
0.0436611
0.0436579
0.0436516
0.0436423
0.0436301
0.0436149
0.043597
0.0435764
0.0435533
0.0435279
0.0435004
0.0434709
0.0434395
0.0434066
0.0433723
0.0433367
0.0433001
0.0432626
0.0432243
0.0431856
0.0431464
0.043107
0.0430674
0.0430279
0.0429884
0.0429493
0.0429104
0.042872
0.042834
0.0427966
0.0427599
0.0427238
0.0426885
0.0426539
0.0426202
0.0425873
0.0425552
0.0425241
0.0424938
0.0424644
0.0424358
0.0424082
0.0423815
0.0423557
0.0423308
0.0423067
0.0422836
0.0422613
0.0422398
0.0422191
0.0421991
0.0421798
0.0421611
0.042143
0.0421256
0.0421088
0.0420925
0.0420787
0.0420627
0.0264611
0.0389541
0.0402987
0.0401774
0.0401612
0.040191
0.0402446
0.0402981
0.0403518
0.0404103
0.0404841
0.040585
0.0407183
0.0408745
0.0410343
0.041182
0.0413131
0.0414311
0.0415421
0.0416494
0.041752
0.0418473
0.0419341
0.0420137
0.0420884
0.0421602
0.0422301
0.0422983
0.0423653
0.0424312
0.0424962
0.0425605
0.042624
0.0426864
0.0427476
0.0428076
0.0428666
0.0429247
0.0429818
0.0430376
0.0430917
0.0431439
0.043194
0.0432419
0.0432876
0.043331
0.0433722
0.043411
0.0434474
0.0434813
0.0435126
0.0435413
0.043567
0.0435899
0.0436097
0.0436265
0.04364
0.0436503
0.0436575
0.0436615
0.043662
0.0436592
0.0436534
0.0436446
0.0436329
0.0436183
0.043601
0.0435811
0.0435588
0.0435342
0.0435075
0.043479
0.0434486
0.0434167
0.0433835
0.043349
0.0433135
0.0432772
0.0432402
0.0432027
0.0431647
0.0431266
0.0430883
0.0430501
0.043012
0.0429741
0.0429365
0.0428994
0.0428628
0.0428267
0.0427913
0.0427565
0.0427224
0.0426891
0.0426566
0.0426249
0.042594
0.042564
0.0425349
0.0425066
0.0424791
0.0424526
0.0424269
0.042402
0.0423781
0.042355
0.0423328
0.0423114
0.0422908
0.0422709
0.0422518
0.0422332
0.0422153
0.0421979
0.0421813
0.0421651
0.0421497
0.0421367
0.0421212
0.0421105
0.0420821
0.0264341
0.0389513
0.0402923
0.0401681
0.0401526
0.0401839
0.0402388
0.0402932
0.0403479
0.0404074
0.0404828
0.0405858
0.040721
0.0408785
0.0410386
0.0411859
0.0413166
0.0414343
0.0415451
0.0416521
0.0417543
0.0418491
0.0419355
0.0420147
0.0420892
0.0421608
0.0422305
0.0422986
0.0423654
0.0424312
0.0424961
0.0425603
0.0426236
0.0426859
0.0427471
0.042807
0.042866
0.0429241
0.0429812
0.043037
0.0430911
0.0431432
0.0431933
0.0432411
0.0432868
0.0433302
0.0433714
0.0434102
0.0434467
0.0434806
0.043512
0.0435406
0.0435665
0.0435895
0.0436095
0.0436263
0.0436401
0.0436507
0.0436582
0.0436625
0.0436634
0.043661
0.0436557
0.0436474
0.0436363
0.0436224
0.0436058
0.0435867
0.0435652
0.0435415
0.0435158
0.0434882
0.0434589
0.0434281
0.043396
0.0433627
0.0433284
0.0432934
0.0432576
0.0432214
0.0431847
0.043148
0.043111
0.0430742
0.0430374
0.0430009
0.0429647
0.0429289
0.0428936
0.0428589
0.0428247
0.0427912
0.0427584
0.0427264
0.0426951
0.0426646
0.042635
0.0426061
0.0425781
0.0425509
0.0425245
0.042499
0.0424744
0.0424505
0.0424276
0.0424054
0.0423841
0.0423636
0.0423439
0.0423248
0.0423064
0.0422886
0.0422714
0.0422548
0.0422389
0.0422237
0.0422092
0.0421977
0.0421819
0.0421707
0.0421423
0.0264031
0.0389492
0.0402857
0.0401588
0.0401441
0.040177
0.0402332
0.0402884
0.0403439
0.0404046
0.0404817
0.0405867
0.0407239
0.0408825
0.0410428
0.0411898
0.04132
0.0414375
0.041548
0.0416547
0.0417565
0.0418509
0.0419369
0.0420158
0.0420901
0.0421615
0.0422309
0.0422989
0.0423655
0.0424311
0.042496
0.0425601
0.0426233
0.0426855
0.0427466
0.0428065
0.0428655
0.0429236
0.0429806
0.0430364
0.0430904
0.0431425
0.0431925
0.0432403
0.043286
0.0433294
0.0433706
0.0434094
0.0434459
0.0434799
0.0435114
0.0435401
0.0435661
0.0435892
0.0436094
0.0436264
0.0436405
0.0436513
0.0436591
0.0436638
0.0436651
0.0436632
0.0436584
0.0436508
0.0436403
0.043627
0.0436112
0.0435929
0.0435724
0.0435496
0.0435249
0.0434983
0.0434701
0.0434405
0.0434096
0.0433775
0.0433445
0.0433108
0.0432763
0.0432415
0.0432062
0.0431708
0.0431352
0.0430998
0.0430644
0.0430293
0.0429945
0.0429601
0.0429262
0.0428928
0.04286
0.0428279
0.0427964
0.0427657
0.0427356
0.0427064
0.0426779
0.0426503
0.0426234
0.0425973
0.0425721
0.0425476
0.042524
0.0425012
0.0424792
0.042458
0.0424376
0.042418
0.0423991
0.0423808
0.0423632
0.0423462
0.0423297
0.0423138
0.0422988
0.0422847
0.0422709
0.0422598
0.0422441
0.0422331
0.0422053
0.0263772
0.0389474
0.040279
0.0401494
0.0401357
0.0401701
0.0402277
0.0402837
0.0403401
0.0404019
0.0404805
0.0405876
0.0407268
0.0408865
0.0410469
0.0411936
0.0413234
0.0414406
0.0415508
0.0416573
0.0417587
0.0418527
0.0419383
0.0420169
0.0420909
0.0421621
0.0422314
0.0422991
0.0423656
0.0424311
0.0424959
0.0425599
0.042623
0.0426851
0.0427461
0.0428059
0.0428649
0.042923
0.0429801
0.0430358
0.0430898
0.0431418
0.0431917
0.0432395
0.0432851
0.0433286
0.0433698
0.0434087
0.0434452
0.0434793
0.0435108
0.0435397
0.0435658
0.0435891
0.0436094
0.0436267
0.043641
0.0436522
0.0436603
0.0436654
0.0436672
0.0436659
0.0436617
0.0436547
0.0436449
0.0436324
0.0436175
0.0436001
0.0435804
0.0435587
0.043535
0.0435096
0.0434826
0.0434542
0.0434245
0.0433938
0.0433621
0.0433297
0.0432966
0.0432632
0.0432293
0.0431953
0.0431612
0.0431272
0.0430933
0.0430596
0.0430262
0.0429933
0.0429607
0.0429288
0.0428973
0.0428665
0.0428364
0.0428069
0.0427782
0.0427502
0.0427229
0.0426964
0.0426707
0.0426457
0.0426216
0.0425982
0.0425756
0.0425538
0.0425327
0.0425125
0.042493
0.0424742
0.0424561
0.0424387
0.0424218
0.0424055
0.0423897
0.0423746
0.0423603
0.0423473
0.0423339
0.0423227
0.0423075
0.0422973
0.0422699
0.0263554
0.0389458
0.0402721
0.04014
0.0401275
0.0401635
0.0402222
0.040279
0.0403363
0.0403993
0.0404795
0.0405886
0.0407297
0.0408904
0.041051
0.0411973
0.0413268
0.0414436
0.0415537
0.0416598
0.0417609
0.0418545
0.0419397
0.042018
0.0420917
0.0421627
0.0422318
0.0422994
0.0423657
0.0424311
0.0424957
0.0425597
0.0426227
0.0426847
0.0427455
0.0428054
0.0428643
0.0429224
0.0429795
0.0430352
0.0430891
0.0431411
0.0431909
0.0432387
0.0432843
0.0433278
0.0433691
0.043408
0.0434446
0.0434787
0.0435104
0.0435394
0.0435657
0.0435891
0.0436096
0.0436272
0.0436418
0.0436533
0.0436618
0.0436674
0.0436697
0.043669
0.0436654
0.043659
0.04365
0.0436384
0.0436243
0.0436079
0.0435893
0.0435686
0.0435461
0.0435218
0.043496
0.0434689
0.0434405
0.0434111
0.0433808
0.0433498
0.0433182
0.0432862
0.0432538
0.0432213
0.0431887
0.0431561
0.0431237
0.0430915
0.0430595
0.043028
0.0429969
0.0429664
0.0429363
0.0429069
0.0428781
0.04285
0.0428225
0.0427958
0.0427697
0.0427445
0.0427199
0.0426961
0.042673
0.0426507
0.0426291
0.0426083
0.0425882
0.0425689
0.0425503
0.0425324
0.0425152
0.0424985
0.0424824
0.0424668
0.0424518
0.0424374
0.0424239
0.0424118
0.0423987
0.0423875
0.0423729
0.0423637
0.042337
0.0263298
0.0389448
0.040265
0.0401305
0.0401193
0.0401569
0.0402168
0.0402744
0.0403326
0.0403967
0.0404785
0.0405896
0.0407325
0.0408943
0.041055
0.041201
0.04133
0.0414466
0.0415564
0.0416623
0.0417631
0.0418562
0.041941
0.042019
0.0420926
0.0421634
0.0422323
0.0422997
0.0423659
0.0424311
0.0424956
0.0425594
0.0426224
0.0426842
0.042745
0.0428048
0.0428638
0.0429219
0.0429789
0.0430346
0.0430884
0.0431403
0.0431901
0.0432379
0.0432835
0.043327
0.0433683
0.0434073
0.043444
0.0434782
0.04351
0.0435391
0.0435656
0.0435892
0.04361
0.0436279
0.0436428
0.0436547
0.0436636
0.0436697
0.0436727
0.0436727
0.0436696
0.043664
0.0436559
0.0436451
0.043632
0.0436165
0.043599
0.0435795
0.0435581
0.0435351
0.0435106
0.0434848
0.0434578
0.0434298
0.0434009
0.0433714
0.0433412
0.0433107
0.0432799
0.0432489
0.0432178
0.0431867
0.0431558
0.0431251
0.0430947
0.0430646
0.043035
0.0430059
0.0429772
0.0429492
0.0429217
0.0428949
0.0428687
0.0428433
0.0428185
0.0427944
0.042771
0.0427483
0.0427263
0.042705
0.0426845
0.0426647
0.0426455
0.0426271
0.0426094
0.0425924
0.0425759
0.0425601
0.0425447
0.0425298
0.0425155
0.042502
0.0424892
0.0424778
0.042465
0.042454
0.0424401
0.0424318
0.0424058
0.0263131
0.0389443
0.0402577
0.040121
0.0401113
0.0401505
0.0402116
0.0402699
0.0403289
0.0403941
0.0404776
0.0405906
0.0407353
0.0408981
0.0410589
0.0412046
0.0413333
0.0414496
0.0415592
0.0416648
0.0417652
0.0418579
0.0419424
0.0420201
0.0420934
0.042164
0.0422327
0.0423
0.042366
0.0424311
0.0424955
0.0425592
0.042622
0.0426838
0.0427445
0.0428043
0.0428632
0.0429213
0.0429783
0.0430339
0.0430877
0.0431395
0.0431893
0.0432371
0.0432828
0.0433263
0.0433676
0.0434067
0.0434435
0.0434778
0.0435097
0.043539
0.0435656
0.0435895
0.0436106
0.0436287
0.043644
0.0436564
0.0436657
0.0436723
0.043676
0.0436767
0.0436742
0.0436695
0.0436622
0.0436524
0.0436402
0.0436258
0.0436094
0.0435911
0.0435709
0.0435492
0.043526
0.0435016
0.043476
0.0434495
0.0434221
0.0433941
0.0433655
0.0433365
0.0433072
0.0432778
0.0432482
0.0432187
0.0431893
0.0431602
0.0431313
0.0431028
0.0430746
0.0430469
0.0430197
0.0429931
0.042967
0.0429415
0.0429167
0.0428925
0.0428689
0.0428461
0.0428238
0.0428023
0.0427814
0.0427612
0.0427417
0.0427228
0.0427047
0.0426872
0.0426704
0.0426542
0.0426386
0.0426234
0.0426088
0.0425947
0.0425812
0.0425684
0.0425562
0.0425455
0.042533
0.0425222
0.0425091
0.0425017
0.0424766
0.0262936
0.0389444
0.0402502
0.0401114
0.0401033
0.0401442
0.0402064
0.0402655
0.0403253
0.0403917
0.0404767
0.0405916
0.040738
0.0409017
0.0410627
0.0412081
0.0413365
0.0414525
0.0415619
0.0416673
0.0417673
0.0418596
0.0419437
0.0420212
0.0420942
0.0421646
0.0422332
0.0423002
0.0423661
0.0424311
0.0424954
0.042559
0.0426217
0.0426834
0.042744
0.0428037
0.0428626
0.0429207
0.0429777
0.0430333
0.043087
0.0431388
0.0431885
0.0432363
0.043282
0.0433256
0.043367
0.0434061
0.043443
0.0434774
0.0435095
0.043539
0.0435658
0.0435899
0.0436113
0.0436298
0.0436455
0.0436583
0.0436682
0.0436753
0.0436797
0.0436811
0.0436794
0.0436755
0.0436691
0.0436603
0.0436492
0.043636
0.0436207
0.0436036
0.0435848
0.0435644
0.0435426
0.0435196
0.0434955
0.0434705
0.0434447
0.0434182
0.0433912
0.0433638
0.043336
0.0433082
0.0432803
0.0432524
0.0432246
0.043197
0.0431696
0.0431426
0.0431159
0.0430897
0.043064
0.0430388
0.0430141
0.04299
0.0429664
0.0429435
0.0429212
0.0428995
0.0428784
0.042858
0.0428382
0.0428191
0.0428006
0.0427827
0.0427655
0.042749
0.042733
0.0427176
0.0427028
0.0426884
0.0426746
0.0426612
0.0426485
0.0426364
0.0426248
0.0426146
0.0426025
0.0425921
0.0425797
0.0425732
0.0425488
0.0262765
0.0389455
0.0402426
0.0401018
0.0400954
0.0401381
0.0402013
0.0402611
0.0403218
0.0403893
0.0404758
0.0405926
0.0407406
0.0409052
0.0410663
0.0412115
0.0413396
0.0414554
0.0415646
0.0416697
0.0417694
0.0418613
0.041945
0.0420222
0.0420951
0.0421653
0.0422336
0.0423005
0.0423663
0.0424311
0.0424953
0.0425588
0.0426214
0.0426829
0.0427435
0.0428031
0.0428621
0.0429201
0.0429771
0.0430326
0.0430863
0.043138
0.0431878
0.0432355
0.0432812
0.0433249
0.0433663
0.0434056
0.0434425
0.0434771
0.0435093
0.043539
0.0435661
0.0435905
0.0436122
0.0436311
0.0436472
0.0436605
0.0436709
0.0436786
0.0436837
0.0436859
0.043685
0.043682
0.0436765
0.0436688
0.0436588
0.0436467
0.0436327
0.0436168
0.0435994
0.0435804
0.0435601
0.0435385
0.0435159
0.0434925
0.0434682
0.0434433
0.0434179
0.0433921
0.0433661
0.0433399
0.0433136
0.0432873
0.0432611
0.0432351
0.0432093
0.0431839
0.0431587
0.043134
0.0431098
0.043086
0.0430627
0.0430399
0.0430177
0.0429961
0.0429751
0.0429546
0.0429347
0.0429154
0.0428968
0.0428787
0.0428612
0.0428443
0.0428281
0.0428124
0.0427974
0.0427828
0.0427688
0.0427552
0.0427421
0.0427295
0.0427175
0.042706
0.042695
0.0426854
0.0426737
0.0426636
0.042652
0.0426464
0.0426228
0.0262623
0.0389467
0.0402348
0.0400922
0.0400876
0.0401321
0.0401963
0.0402569
0.0403184
0.0403869
0.040475
0.0405935
0.0407431
0.0409086
0.0410699
0.0412149
0.0413427
0.0414582
0.0415672
0.0416721
0.0417714
0.041863
0.0419464
0.0420233
0.0420959
0.0421659
0.0422341
0.0423008
0.0423664
0.0424312
0.0424952
0.0425586
0.042621
0.0426825
0.042743
0.0428026
0.0428615
0.0429196
0.0429765
0.0430319
0.0430855
0.0431372
0.043187
0.0432347
0.0432805
0.0433242
0.0433657
0.043405
0.0434421
0.0434769
0.0435093
0.0435392
0.0435665
0.0435912
0.0436132
0.0436325
0.0436491
0.0436629
0.0436739
0.0436822
0.0436881
0.0436911
0.0436913
0.0436891
0.0436846
0.0436779
0.0436691
0.0436582
0.0436455
0.043631
0.0436149
0.0435974
0.0435786
0.0435586
0.0435375
0.0435157
0.043493
0.0434698
0.0434461
0.043422
0.0433976
0.0433731
0.0433484
0.0433238
0.0432992
0.0432749
0.0432507
0.0432268
0.0432032
0.04318
0.0431572
0.0431349
0.043113
0.0430916
0.0430707
0.0430504
0.0430306
0.0430114
0.0429927
0.0429745
0.0429569
0.0429399
0.0429234
0.0429076
0.0428923
0.0428775
0.0428633
0.0428496
0.0428364
0.0428235
0.0428112
0.0427993
0.0427881
0.0427773
0.0427668
0.0427578
0.0427464
0.0427367
0.0427259
0.0427212
0.0426983
0.0262499
0.0389481
0.040227
0.0400824
0.0400799
0.0401262
0.0401914
0.0402527
0.040315
0.0403846
0.0404741
0.0405945
0.0407456
0.0409119
0.0410734
0.0412182
0.0413457
0.041461
0.0415698
0.0416744
0.0417734
0.0418646
0.0419477
0.0420243
0.0420967
0.0421665
0.0422346
0.0423011
0.0423666
0.0424312
0.0424951
0.0425583
0.0426207
0.042682
0.0427424
0.042802
0.0428609
0.042919
0.0429759
0.0430312
0.0430848
0.0431364
0.0431862
0.043234
0.0432798
0.0433235
0.0433651
0.0434046
0.0434418
0.0434767
0.0435092
0.0435394
0.043567
0.043592
0.0436144
0.0436342
0.0436512
0.0436656
0.0436772
0.0436862
0.0436927
0.0436967
0.0436979
0.0436965
0.0436931
0.0436876
0.0436799
0.0436703
0.0436589
0.0436458
0.0436311
0.0436151
0.0435978
0.0435794
0.04356
0.0435398
0.0435188
0.0434973
0.0434752
0.0434529
0.0434302
0.0434073
0.0433844
0.0433615
0.0433386
0.0433159
0.0432933
0.043271
0.043249
0.0432274
0.0432061
0.0431852
0.0431648
0.0431448
0.0431253
0.0431062
0.0430877
0.0430697
0.0430522
0.0430352
0.0430187
0.0430028
0.0429873
0.0429725
0.0429581
0.0429443
0.0429309
0.0429181
0.0429056
0.0428936
0.0428819
0.0428708
0.0428603
0.0428502
0.0428402
0.0428317
0.0428207
0.0428116
0.0428013
0.0427975
0.0427754
0.0262397
0.0389502
0.0402189
0.0400727
0.0400722
0.0401205
0.0401866
0.0402486
0.0403117
0.0403824
0.0404734
0.0405954
0.040748
0.0409152
0.0410769
0.0412214
0.0413487
0.0414638
0.0415724
0.0416768
0.0417754
0.0418663
0.041949
0.0420253
0.0420975
0.0421672
0.042235
0.0423014
0.0423667
0.0424312
0.042495
0.0425581
0.0426203
0.0426816
0.0427419
0.0428015
0.0428603
0.0429184
0.0429752
0.0430305
0.043084
0.0431356
0.0431854
0.0432332
0.043279
0.0433228
0.0433646
0.0434041
0.0434415
0.0434766
0.0435093
0.0435397
0.0435676
0.043593
0.0436158
0.043636
0.0436536
0.0436685
0.0436808
0.0436905
0.0436979
0.0437027
0.0437049
0.0437046
0.0437023
0.0436979
0.0436915
0.0436832
0.0436731
0.0436615
0.0436483
0.0436338
0.0436181
0.0436013
0.0435836
0.0435651
0.0435458
0.043526
0.0435058
0.0434851
0.0434642
0.0434431
0.0434219
0.0434007
0.0433795
0.0433584
0.0433375
0.0433169
0.0432964
0.0432763
0.0432566
0.0432372
0.0432181
0.0431995
0.0431814
0.0431637
0.0431464
0.0431296
0.0431133
0.0430974
0.043082
0.0430671
0.0430528
0.0430389
0.0430255
0.0430125
0.0430001
0.042988
0.0429764
0.0429651
0.0429543
0.0429439
0.0429341
0.0429246
0.0429152
0.0429072
0.0428967
0.0428881
0.0428785
0.0428752
0.0428543
0.0262302
0.0389527
0.0402107
0.0400628
0.0400646
0.0401149
0.0401819
0.0402445
0.0403085
0.0403802
0.0404726
0.0405964
0.0407505
0.0409185
0.0410803
0.0412246
0.0413516
0.0414665
0.041575
0.0416791
0.0417774
0.0418679
0.0419503
0.0420264
0.0420984
0.0421678
0.0422355
0.0423017
0.0423669
0.0424312
0.0424949
0.0425579
0.04262
0.0426811
0.0427414
0.0428009
0.0428597
0.0429178
0.0429746
0.0430298
0.0430833
0.0431348
0.0431846
0.0432324
0.0432783
0.0433222
0.043364
0.0434037
0.0434412
0.0434765
0.0435095
0.0435401
0.0435683
0.0435941
0.0436173
0.043638
0.0436561
0.0436717
0.0436847
0.0436951
0.0437033
0.043709
0.0437123
0.0437131
0.0437117
0.0437086
0.0437034
0.0436965
0.0436879
0.0436777
0.0436661
0.0436532
0.0436391
0.043624
0.043608
0.0435912
0.0435737
0.0435557
0.0435372
0.0435183
0.0434992
0.0434799
0.0434604
0.043441
0.0434215
0.0434022
0.0433829
0.0433639
0.0433451
0.0433266
0.0433083
0.0432904
0.0432728
0.0432557
0.0432389
0.0432225
0.0432065
0.043191
0.0431758
0.0431612
0.0431469
0.0431331
0.0431197
0.0431068
0.0430944
0.0430824
0.0430708
0.0430596
0.0430487
0.0430382
0.0430282
0.0430186
0.0430095
0.0430006
0.0429917
0.0429842
0.0429742
0.0429661
0.042957
0.0429541
0.0429344
0.0262219
0.0389553
0.0402022
0.040053
0.0400571
0.0401094
0.0401772
0.0402405
0.0403053
0.0403781
0.040472
0.0405975
0.040753
0.0409218
0.0410836
0.0412278
0.0413545
0.0414692
0.0415775
0.0416814
0.0417794
0.0418695
0.0419516
0.0420274
0.0420992
0.0421685
0.042236
0.0423021
0.042367
0.0424313
0.0424948
0.0425577
0.0426196
0.0426807
0.0427408
0.0428003
0.0428592
0.0429171
0.0429739
0.0430291
0.0430825
0.043134
0.0431838
0.0432317
0.0432776
0.0433216
0.0433635
0.0434033
0.043441
0.0434765
0.0435097
0.0435406
0.0435692
0.0435953
0.043619
0.0436402
0.0436589
0.0436751
0.0436888
0.0437001
0.0437091
0.0437157
0.04372
0.0437221
0.0437219
0.0437199
0.0437161
0.0437106
0.0437034
0.0436948
0.0436847
0.0436735
0.0436611
0.0436477
0.0436335
0.0436185
0.0436028
0.0435866
0.0435699
0.0435529
0.0435356
0.0435181
0.0435004
0.0434827
0.043465
0.0434474
0.0434298
0.0434124
0.0433952
0.0433783
0.0433616
0.0433452
0.0433291
0.0433133
0.0432979
0.0432828
0.0432681
0.0432538
0.0432399
0.0432263
0.0432132
0.0432004
0.0431881
0.0431762
0.0431647
0.0431536
0.0431429
0.0431325
0.0431225
0.0431128
0.0431035
0.0430947
0.0430863
0.043078
0.0430697
0.0430628
0.0430532
0.0430456
0.0430371
0.0430347
0.0430162
0.0262169
0.0389583
0.0401935
0.0400431
0.0400497
0.040104
0.0401727
0.0402366
0.0403022
0.040376
0.0404713
0.0405985
0.0407555
0.040925
0.0410869
0.0412309
0.0413573
0.0414718
0.04158
0.0416836
0.0417813
0.0418711
0.0419528
0.0420284
0.0421
0.0421691
0.0422364
0.0423024
0.0423672
0.0424313
0.0424947
0.0425574
0.0426193
0.0426802
0.0427403
0.0427998
0.0428586
0.0429165
0.0429732
0.0430283
0.0430817
0.0431332
0.043183
0.0432309
0.0432769
0.043321
0.043363
0.0434029
0.0434408
0.0434765
0.04351
0.0435412
0.0435701
0.0435967
0.0436208
0.0436425
0.0436618
0.0436787
0.0436931
0.0437053
0.0437152
0.0437227
0.043728
0.0437313
0.0437325
0.0437316
0.0437292
0.0437251
0.0437194
0.0437123
0.0437039
0.0436943
0.0436837
0.0436721
0.0436596
0.0436464
0.0436326
0.0436182
0.0436034
0.0435883
0.0435728
0.0435571
0.0435413
0.0435254
0.0435095
0.0434936
0.0434777
0.0434621
0.0434465
0.0434312
0.043416
0.0434011
0.0433865
0.0433722
0.0433582
0.0433444
0.0433311
0.043318
0.0433053
0.0432929
0.0432809
0.0432693
0.043258
0.0432471
0.0432366
0.0432264
0.0432165
0.043207
0.0431978
0.0431889
0.0431804
0.0431723
0.0431646
0.0431571
0.0431494
0.0431431
0.0431338
0.0431266
0.0431186
0.0431167
0.0430995
0.0262146
0.0389615
0.0401846
0.0400333
0.0400424
0.0400987
0.0401682
0.0402328
0.0402991
0.040374
0.0404708
0.0405997
0.040758
0.0409282
0.0410902
0.0412339
0.0413601
0.0414744
0.0415824
0.0416858
0.0417832
0.0418727
0.0419541
0.0420294
0.0421008
0.0421697
0.0422369
0.0423027
0.0423674
0.0424313
0.0424946
0.0425572
0.0426189
0.0426797
0.0427398
0.0427992
0.042858
0.0429159
0.0429725
0.0430276
0.0430809
0.0431324
0.0431822
0.0432302
0.0432762
0.0433204
0.0433625
0.0434026
0.0434407
0.0434766
0.0435103
0.0435419
0.0435712
0.0435981
0.0436228
0.0436451
0.043665
0.0436826
0.0436978
0.0437107
0.0437216
0.0437302
0.0437365
0.043741
0.0437435
0.043744
0.0437429
0.0437403
0.0437362
0.0437307
0.043724
0.0437162
0.0437073
0.0436975
0.0436869
0.0436756
0.0436636
0.0436512
0.0436382
0.0436249
0.0436114
0.0435976
0.0435836
0.0435695
0.0435554
0.0435412
0.0435271
0.0435131
0.0434992
0.0434855
0.0434719
0.0434585
0.0434454
0.0434325
0.0434198
0.0434075
0.0433954
0.0433836
0.0433721
0.0433608
0.0433499
0.0433394
0.0433291
0.0433192
0.0433097
0.0433004
0.0432915
0.0432828
0.0432744
0.0432663
0.0432586
0.0432512
0.0432442
0.0432376
0.0432304
0.0432246
0.0432158
0.0432091
0.0432016
0.0432002
0.0431843
0.0262119
0.038965
0.0401753
0.0400234
0.0400353
0.0400936
0.0401638
0.040229
0.0402961
0.040372
0.0404702
0.0406008
0.0407606
0.0409314
0.0410934
0.0412369
0.0413629
0.041477
0.0415848
0.041688
0.0417851
0.0418742
0.0419554
0.0420305
0.0421016
0.0421704
0.0422374
0.042303
0.0423676
0.0424314
0.0424945
0.042557
0.0426185
0.0426793
0.0427392
0.0427986
0.0428574
0.0429152
0.0429718
0.0430268
0.0430801
0.0431316
0.0431814
0.0432294
0.0432756
0.0433198
0.0433621
0.0434023
0.0434406
0.0434767
0.0435108
0.0435426
0.0435723
0.0435997
0.0436249
0.0436477
0.0436683
0.0436866
0.0437026
0.0437164
0.0437282
0.0437378
0.0437453
0.0437509
0.0437547
0.0437567
0.043757
0.0437558
0.0437533
0.0437495
0.0437445
0.0437385
0.0437314
0.0437235
0.0437147
0.0437053
0.0436953
0.0436847
0.0436737
0.0436623
0.0436506
0.0436387
0.0436266
0.0436144
0.0436021
0.0435897
0.0435774
0.0435651
0.0435529
0.0435408
0.0435288
0.043517
0.0435054
0.0434939
0.0434827
0.0434717
0.0434609
0.0434504
0.0434401
0.0434301
0.0434204
0.0434109
0.0434017
0.0433929
0.0433843
0.043376
0.0433679
0.0433601
0.0433525
0.0433452
0.0433383
0.0433317
0.0433253
0.0433196
0.0433128
0.0433073
0.043299
0.0432929
0.043286
0.0432848
0.0432701
0.0262101
0.0389685
0.0401658
0.0400136
0.0400283
0.0400885
0.0401594
0.0402253
0.0402932
0.0403701
0.0404697
0.040602
0.0407631
0.0409346
0.0410966
0.0412398
0.0413656
0.0414796
0.0415872
0.0416902
0.041787
0.0418758
0.0419566
0.0420315
0.0421025
0.042171
0.0422379
0.0423033
0.0423677
0.0424314
0.0424944
0.0425567
0.0426182
0.0426788
0.0427387
0.042798
0.0428567
0.0429146
0.0429711
0.043026
0.0430793
0.0431308
0.0431806
0.0432287
0.0432749
0.0433192
0.0433616
0.0434021
0.0434405
0.0434769
0.0435113
0.0435435
0.0435736
0.0436014
0.0436271
0.0436506
0.0436718
0.0436908
0.0437077
0.0437224
0.0437352
0.0437459
0.0437545
0.0437614
0.0437665
0.04377
0.0437718
0.0437722
0.0437713
0.0437691
0.0437659
0.0437617
0.0437565
0.0437504
0.0437436
0.0437361
0.043728
0.0437194
0.0437104
0.043701
0.0436912
0.0436812
0.043671
0.0436606
0.0436502
0.0436396
0.043629
0.0436185
0.0436079
0.0435975
0.0435871
0.0435768
0.0435667
0.0435567
0.0435469
0.0435372
0.0435278
0.0435185
0.0435094
0.0435006
0.043492
0.0434836
0.0434755
0.0434676
0.04346
0.0434526
0.0434454
0.0434385
0.0434317
0.0434253
0.0434191
0.0434132
0.0434076
0.0434026
0.0433963
0.043391
0.0433835
0.0433781
0.0433718
0.043371
0.0433574
0.026215
0.0389723
0.040156
0.0400038
0.0400214
0.0400835
0.0401551
0.0402217
0.0402903
0.0403682
0.0404693
0.0406032
0.0407657
0.0409377
0.0410997
0.0412427
0.0413683
0.0414821
0.0415896
0.0416924
0.0417889
0.0418773
0.0419579
0.0420325
0.0421033
0.0421717
0.0422384
0.0423036
0.0423679
0.0424314
0.0424943
0.0425565
0.0426178
0.0426783
0.0427381
0.0427974
0.0428561
0.0429139
0.0429704
0.0430252
0.0430784
0.0431299
0.0431798
0.0432279
0.0432742
0.0433187
0.0433612
0.0434018
0.0434405
0.0434771
0.0435118
0.0435444
0.0435749
0.0436032
0.0436295
0.0436535
0.0436754
0.0436952
0.0437129
0.0437286
0.0437424
0.0437541
0.0437639
0.043772
0.0437785
0.0437834
0.0437868
0.0437888
0.0437896
0.0437891
0.0437877
0.0437853
0.043782
0.0437778
0.0437729
0.0437674
0.0437613
0.0437547
0.0437476
0.0437401
0.0437324
0.0437243
0.043716
0.0437075
0.0436989
0.0436902
0.0436814
0.0436726
0.0436638
0.043655
0.0436462
0.0436376
0.043629
0.0436205
0.0436121
0.0436038
0.0435957
0.0435878
0.04358
0.0435724
0.0435649
0.0435577
0.0435507
0.0435438
0.0435372
0.0435307
0.0435245
0.0435184
0.0435125
0.0435069
0.0435015
0.0434964
0.0434915
0.0434874
0.0434814
0.0434763
0.0434695
0.0434649
0.0434592
0.0434587
0.0434465
0.0262193
0.0389762
0.040146
0.0399941
0.0400146
0.0400786
0.0401509
0.0402181
0.0402875
0.0403664
0.0404689
0.0406045
0.0407682
0.0409408
0.0411028
0.0412456
0.0413709
0.0414846
0.041592
0.0416945
0.0417907
0.0418788
0.0419591
0.0420335
0.0421041
0.0421723
0.0422388
0.042304
0.0423681
0.0424314
0.0424942
0.0425562
0.0426174
0.0426778
0.0427376
0.0427968
0.0428555
0.0429132
0.0429696
0.0430244
0.0430776
0.0431291
0.043179
0.0432272
0.0432736
0.0433181
0.0433608
0.0434016
0.0434405
0.0434774
0.0435124
0.0435454
0.0435763
0.0436051
0.0436319
0.0436566
0.0436792
0.0436998
0.0437183
0.043735
0.0437498
0.0437627
0.0437737
0.0437831
0.043791
0.0437974
0.0438024
0.0438061
0.0438086
0.0438099
0.0438103
0.0438097
0.0438083
0.0438061
0.0438033
0.0437998
0.0437956
0.043791
0.043786
0.0437805
0.0437747
0.0437686
0.0437623
0.0437557
0.043749
0.0437421
0.0437351
0.0437281
0.043721
0.0437138
0.0437067
0.0436996
0.0436925
0.0436855
0.0436786
0.0436717
0.0436649
0.0436582
0.0436517
0.0436452
0.0436389
0.0436328
0.0436268
0.043621
0.0436153
0.0436098
0.0436045
0.0435992
0.0435942
0.0435894
0.0435849
0.0435805
0.0435762
0.0435729
0.0435672
0.0435623
0.0435564
0.0435527
0.0435476
0.0435474
0.0435365
0.0262182
0.0389796
0.0401357
0.0399844
0.040008
0.0400738
0.0401468
0.0402146
0.0402847
0.0403646
0.0404686
0.0406058
0.0407707
0.0409439
0.0411059
0.0412484
0.0413735
0.0414871
0.0415943
0.0416966
0.0417925
0.0418804
0.0419604
0.0420345
0.0421049
0.042173
0.0422393
0.0423043
0.0423682
0.0424315
0.0424941
0.0425559
0.042617
0.0426773
0.042737
0.0427962
0.0428548
0.0429125
0.0429688
0.0430236
0.0430767
0.0431283
0.0431782
0.0432264
0.0432729
0.0433176
0.0433604
0.0434014
0.0434405
0.0434777
0.043513
0.0435464
0.0435778
0.0436071
0.0436345
0.0436598
0.0436832
0.0437045
0.0437239
0.0437415
0.0437574
0.0437714
0.0437836
0.0437944
0.0438037
0.0438116
0.0438182
0.0438235
0.0438278
0.043831
0.0438332
0.0438345
0.043835
0.0438348
0.0438339
0.0438324
0.0438303
0.0438278
0.0438247
0.0438213
0.0438175
0.0438134
0.043809
0.0438044
0.0437996
0.0437946
0.0437894
0.0437842
0.0437788
0.0437734
0.0437679
0.0437624
0.0437569
0.0437514
0.0437459
0.0437405
0.0437351
0.0437298
0.0437245
0.0437193
0.0437142
0.0437092
0.0437043
0.0436996
0.0436949
0.0436904
0.043686
0.0436817
0.0436775
0.0436736
0.0436699
0.0436663
0.0436626
0.0436599
0.0436546
0.0436503
0.0436452
0.0436422
0.0436377
0.0436377
0.0436283
0.0262245
0.0389828
0.040125
0.0399747
0.0400015
0.040069
0.0401427
0.0402111
0.040282
0.0403629
0.0404683
0.0406071
0.0407733
0.0409469
0.0411089
0.0412512
0.0413761
0.0414895
0.0415966
0.0416987
0.0417943
0.0418819
0.0419616
0.0420355
0.0421058
0.0421736
0.0422398
0.0423046
0.0423684
0.0424315
0.0424939
0.0425557
0.0426166
0.0426768
0.0427365
0.0427956
0.0428542
0.0429118
0.042968
0.0430228
0.0430759
0.0431274
0.0431774
0.0432257
0.0432722
0.043317
0.04336
0.0434012
0.0434406
0.0434781
0.0435138
0.0435475
0.0435793
0.0436092
0.0436371
0.0436631
0.0436872
0.0437094
0.0437297
0.0437482
0.0437652
0.0437804
0.0437939
0.0438061
0.0438168
0.0438263
0.0438345
0.0438416
0.0438476
0.0438527
0.0438568
0.0438601
0.0438626
0.0438644
0.0438655
0.0438661
0.0438661
0.0438656
0.0438646
0.0438632
0.0438615
0.0438594
0.043857
0.0438543
0.0438514
0.0438483
0.043845
0.0438415
0.0438379
0.0438342
0.0438304
0.0438265
0.0438225
0.0438186
0.0438145
0.0438105
0.0438064
0.0438024
0.0437984
0.0437944
0.0437904
0.0437866
0.0437828
0.043779
0.0437753
0.0437717
0.0437682
0.0437648
0.0437615
0.0437584
0.0437555
0.0437526
0.0437494
0.043747
0.0437424
0.0437388
0.0437345
0.0437321
0.0437283
0.0437287
0.0437203
0.0262351
0.0389863