/*--------------------------------*- C++ -*----------------------------------*\
| =========                 |                                                 |
| \\      /  F ield         | OpenFOAM: The Open Source CFD Toolbox           |
|  \\    /   O peration     | Version:  2406                                  |
|   \\  /    A nd           | Website:  www.openfoam.com                      |
|    \\/     M anipulation  |                                                 |
\*---------------------------------------------------------------------------*/
FoamFile
{
    version     2.0;
    format      ascii;
    arch        "LSB;label=32;scalar=64";
    class       volScalarField;
    location    "0.005";
    object      T;
}
// * * * * * * * * * * * * * * * * * * * * * * * * * * * * * * * * * * * * * //

dimensions      [0 0 0 1 0 0 0];

internalField   nonuniform List<scalar> 
78650
(
223
223
223
223
223
223
223
223
223
223
223
223
223
223
223
223
223
223
223
223
223
223
223
223
223
223
223
223
223
223.005
223.125
223.924
225.654
227.103
227.602
227.703
227.627
227.463
227.27
227.114
226.979
226.855
226.742
226.634
226.532
226.432
226.331
226.229
226.13
226.033
225.939
225.846
225.755
225.666
225.577
225.486
225.392
225.292
225.184
225.069
224.946
224.817
224.679
224.526
224.359
224.179
223.986
223.776
223.542
223.282
222.998
222.692
222.364
222.012
221.631
221.216
220.764
220.272
219.741
219.169
218.558
217.907
217.217
216.487
215.721
214.919
214.082
213.216
212.322
211.405
210.468
209.517
208.555
207.598
206.638
205.698
204.76
203.849
202.962
202.106
201.273
200.48
199.708
198.989
198.311
197.664
197.065
196.495
195.961
195.468
195.003
194.561
194.148
193.765
193.427
193.119
192.876
192.679
192.519
192.418
192.043
223
223
223
223
223
223
223
223
223
223
223
223
223
223
223
223
223
223
223
223
223
223
223
223
223
223
223
223
223
223.002
223.071
223.664
225.279
226.921
227.612
227.782
227.728
227.577
227.391
227.234
227.105
226.987
226.878
226.775
226.677
226.581
226.483
226.386
226.293
226.203
226.117
226.034
225.952
225.872
225.793
225.713
225.63
225.541
225.447
225.346
225.239
225.127
225.007
224.875
224.729
224.572
224.404
224.222
224.019
223.792
223.541
223.269
222.979
222.666
222.327
221.957
221.551
221.108
220.625
220.102
219.539
218.936
218.293
217.609
216.887
216.126
215.327
214.494
213.629
212.736
211.817
210.878
209.923
208.957
207.987
207.017
206.052
205.102
204.162
203.261
202.361
201.51
200.668
199.865
199.118
198.385
197.693
197.038
196.41
195.828
195.279
194.754
194.263
193.807
193.396
193.006
192.683
192.406
192.19
192.024
191.551
223
223
223
223
223
223
223
223
223
223
223
223
223
223
223
223
223
223
223
223
223
223
223
223
223
223
223
223
223
223.001
223.038
223.452
224.891
226.68
227.598
227.855
227.817
227.687
227.513
227.356
227.231
227.12
227.016
226.917
226.823
226.729
226.635
226.543
226.456
226.375
226.297
226.222
226.15
226.079
226.01
225.941
225.869
225.792
225.71
225.622
225.53
225.435
225.333
225.221
225.096
224.96
224.815
224.659
224.486
224.289
224.07
223.832
223.576
223.302
223.003
222.676
222.315
221.918
221.483
221.01
220.499
219.948
219.358
218.726
218.057
217.347
216.597
215.811
214.986
214.13
213.24
212.323
211.381
210.419
209.443
208.457
207.47
206.485
205.512
204.557
203.616
202.689
201.808
200.938
200.126
199.324
198.554
197.847
197.156
196.495
195.885
195.286
194.724
194.193
193.703
193.255
192.873
192.55
192.29
192.094
191.553
223
223
223
223
223
223
223
223
223
223
223
223
223
223
223
223
223
223
223
223
223
223
223
223
223
223
223
223
223
223
223.018
223.284
224.489
226.363
227.543
227.91
227.899
227.802
227.641
227.484
227.362
227.259
227.16
227.063
226.97
226.879
226.789
226.703
226.622
226.549
226.48
226.414
226.35
226.288
226.228
226.169
226.107
226.041
225.971
225.897
225.82
225.74
225.656
225.564
225.46
225.345
225.223
225.093
224.949
224.784
224.598
224.393
224.173
223.937
223.679
223.396
223.082
222.734
222.349
221.928
221.469
220.971
220.434
219.857
219.24
218.581
217.882
217.142
216.362
215.545
214.69
213.805
212.889
211.948
210.985
210.006
209.016
208.017
207.024
206.022
205.051
204.073
203.153
202.221
201.318
200.458
199.617
198.825
198.068
197.335
196.65
195.985
195.354
194.764
194.222
193.698
193.255
192.869
192.553
192.295
191.648
223
223
223
223
223
223
223
223
223
223
223
223
223
223
223
223
223
223
223
223
223
223
223
223
223
223
223
223
223
223
223.008
223.163
224.105
225.979
227.42
227.945
227.985
227.914
227.77
227.615
227.5
227.403
227.306
227.209
227.118
227.03
226.944
226.864
226.792
226.726
226.666
226.608
226.552
226.499
226.448
226.398
226.346
226.291
226.233
226.172
226.11
226.045
225.978
225.904
225.821
225.727
225.627
225.521
225.403
225.268
225.113
224.94
224.754
224.553
224.334
224.092
223.822
223.52
223.185
222.814
222.407
221.964
221.483
220.964
220.406
219.806
219.166
218.484
217.762
216.999
216.196
215.356
214.478
213.569
212.629
211.665
210.679
209.679
208.668
207.656
206.649
205.647
204.65
203.682
202.716
201.801
200.897
200.02
199.203
198.396
197.632
196.898
196.192
195.528
194.907
194.321
193.811
193.37
193.005
192.716
191.993
223
223
223
223
223
223
223
223
223
223
223
223
223
223
223
223
223
223
223
223
223
223
223
223
223
223
223
223
223
223
223.003
223.084
223.758
225.521
227.218
227.962
228.061
228.025
227.904
227.755
227.645
227.55
227.453
227.356
227.267
227.183
227.104
227.031
226.966
226.908
226.855
226.805
226.758
226.713
226.67
226.629
226.587
226.542
226.495
226.447
226.398
226.349
226.298
226.243
226.179
226.106
226.028
225.945
225.854
225.749
225.625
225.485
225.332
225.167
224.986
224.787
224.562
224.308
224.022
223.703
223.35
222.962
222.538
222.077
221.577
221.037
220.456
219.833
219.168
218.46
217.709
216.919
216.087
215.221
214.318
213.386
212.425
211.443
210.444
209.43
208.403
207.383
206.357
205.355
204.351
203.37
202.424
201.478
200.588
199.701
198.856
198.059
197.283
196.54
195.841
195.185
194.603
194.083
193.641
193.276
192.42
223
223
223
223
223
223
223
223
223
223
223
223
223
223
223
223
223
223
223
223
223
223
223
223
223
223
223
223
223
223
223.001
223.039
223.475
225.017
226.929
227.935
228.125
228.14
228.045
227.9
227.789
227.695
227.598
227.503
227.417
227.339
227.267
227.202
227.144
227.094
227.048
227.006
226.965
226.928
226.894
226.861
226.829
226.794
226.758
226.722
226.687
226.652
226.617
226.579
226.535
226.482
226.424
226.363
226.297
226.22
226.125
226.016
225.894
225.761
225.617
225.456
225.273
225.064
224.825
224.556
224.255
223.921
223.554
223.152
222.714
222.237
221.721
221.165
220.566
219.925
219.24
218.512
217.741
216.929
216.074
215.185
214.259
213.305
212.321
211.316
210.299
209.264
208.229
207.177
206.151
205.123
204.14
203.132
202.165
201.221
200.301
199.431
198.591
197.781
196.989
196.243
195.594
195.003
194.505
194.097
193.149
223
223
223
223
223
223
223
223
223
223
223
223
223
223
223
223
223
223
223
223
223
223
223
223
223
223
223
223
223
223
223
223.015
223.266
224.502
226.52
227.848
228.193
228.252
228.182
228.044
227.932
227.839
227.744
227.652
227.572
227.501
227.436
227.378
227.327
227.283
227.245
227.209
227.175
227.145
227.118
227.093
227.07
227.045
227.019
226.996
226.974
226.954
226.935
226.914
226.888
226.855
226.817
226.777
226.735
226.684
226.62
226.54
226.45
226.35
226.241
226.119
225.978
225.814
225.623
225.404
225.156
224.876
224.566
224.223
223.845
223.431
222.98
222.488
221.955
221.378
220.758
220.094
219.385
218.634
217.838
217.003
216.127
215.216
214.27
213.297
212.298
211.278
210.24
209.193
208.149
207.099
206.052
205.013
203.985
203.006
202.019
201.069
200.152
199.25
198.413
197.594
196.866
196.195
195.608
195.111
194.004
223
223
223
223
223
223
223
223
223
223
223
223
223
223
223
223
223
223
223
223
223
223
223
223
223
223
223
223
223
223
223
223.005
223.132
224.025
226.007
227.665
228.229
228.348
228.312
228.192
228.079
227.984
227.891
227.804
227.73
227.667
227.609
227.558
227.513
227.476
227.443
227.413
227.386
227.362
227.342
227.325
227.31
227.295
227.28
227.269
227.261
227.255
227.25
227.245
227.237
227.223
227.205
227.184
227.163
227.138
227.101
227.05
226.989
226.919
226.843
226.756
226.654
226.531
226.385
226.213
226.014
225.786
225.531
225.246
224.929
224.578
224.194
223.771
223.309
222.806
222.26
221.67
221.036
220.356
219.629
218.859
218.042
217.186
216.286
215.353
214.386
213.391
212.372
211.332
210.275
209.208
208.132
207.072
206.018
204.978
203.937
202.912
201.935
200.972
200.062
199.135
198.318
197.557
196.912
196.373
195.176
223
223
223
223
223
223
223
223
223
223
223
223
223
223
223
223
223
223
223
223
223
223
223
223
223
223
223
223
223
223
223
223.002
223.057
223.629
225.412
227.366
228.232
228.441
228.442
228.341
228.223
228.126
228.04
227.961
227.897
227.84
227.788
227.741
227.702
227.67
227.642
227.618
227.596
227.578
227.563
227.554
227.548
227.543
227.54
227.54
227.545
227.553
227.563
227.573
227.581
227.585
227.586
227.584
227.584
227.582
227.572
227.55
227.517
227.477
227.433
227.38
227.316
227.235
227.133
227.007
226.857
226.682
226.481
226.252
225.995
225.707
225.386
225.03
224.637
224.204
223.73
223.212
222.651
222.043
221.389
220.69
219.943
219.154
218.319
217.445
216.529
215.578
214.594
213.582
212.545
211.485
210.414
209.33
208.256
207.171
206.111
205.042
203.999
202.964
201.955
200.991
200.077
199.247
198.508
197.878
196.514
223
223
223
223
223
223
223
223
223
223
223
223
223
223
223
223
223
223
223
223
223
223
223
223
223
223
223
223
223
223
223
223
223.021
223.341
224.788
226.933
228.171
228.522
228.562
228.481
228.363
228.27
228.195
228.127
228.068
228.015
227.966
227.924
227.89
227.863
227.841
227.821
227.804
227.791
227.782
227.78
227.784
227.79
227.798
227.809
227.826
227.847
227.871
227.895
227.919
227.94
227.958
227.975
227.995
228.014
228.027
228.032
228.027
228.014
227.998
227.977
227.947
227.904
227.842
227.76
227.655
227.528
227.378
227.204
227.004
226.777
226.521
226.232
225.91
225.552
225.154
224.716
224.235
223.709
223.137
222.518
221.851
221.138
220.375
219.568
218.713
217.819
216.883
215.913
214.908
213.876
212.818
211.741
210.646
209.545
208.444
207.34
206.245
205.169
204.11
203.066
202.075
201.174
200.362
199.664
198.196
223
223
223
223
223
223
223
223
223
223
223
223
223
223
223
223
223
223
223
223
223
223
223
223
223
223
223
223
223
223
223
223
223.007
223.161
224.204
226.369
228.009
228.582
228.664
228.609
228.509
228.426
228.359
228.293
228.235
228.184
228.141
228.105
228.076
228.054
228.034
228.018
228.007
228
227.998
228.005
228.017
228.034
228.053
228.075
228.103
228.136
228.173
228.211
228.25
228.287
228.321
228.355
228.393
228.433
228.47
228.499
228.52
228.535
228.546
228.555
228.558
228.55
228.529
228.49
228.429
228.35
228.249
228.127
227.983
227.814
227.619
227.395
227.141
226.852
226.527
226.164
225.761
225.314
224.823
224.286
223.701
223.069
222.388
221.66
220.883
220.061
219.191
218.281
217.329
216.345
215.326
214.277
213.2
212.102
210.993
209.875
208.748
207.632
206.523
205.514
204.379
203.382
202.458
201.653
200.019
223
223
223
223
223
223
223
223
223
223
223
223
223
223
223
223
223
223
223
223
223
223
223
223
223
223
223
223
223
223
223
223
223.002
223.065
223.725
225.703
227.718
228.596
228.742
228.735
228.663
228.586
228.517
228.449
228.394
228.35
228.314
228.285
228.26
228.24
228.223
228.211
228.205
228.205
228.213
228.227
228.249
228.275
228.304
228.337
228.375
228.419
228.467
228.518
228.57
228.623
228.673
228.723
228.777
228.836
228.895
228.947
228.992
229.032
229.069
229.104
229.136
229.161
229.174
229.175
229.156
229.12
229.065
228.992
228.9
228.786
228.65
228.49
228.302
228.084
227.834
227.549
227.227
226.863
226.459
226.009
225.513
224.97
224.377
223.737
223.045
222.305
221.515
220.679
219.795
218.87
217.9
216.895
215.854
214.785
213.689
212.571
211.441
210.297
209.156
208.006
206.925
205.826
204.848
203.993
202.27
223
223
223
223
223
223
223
223
223
223
223
223
223
223
223
223
223
223
223
223
223
223
223
223
223
223
223
223
223
223
223
223
223
223.023
223.386
225.005
227.281
228.542
228.811
228.878
228.818
228.735
228.661
228.6
228.556
228.521
228.489
228.461
228.436
228.417
228.405
228.399
228.401
228.41
228.426
228.448
228.478
228.513
228.551
228.593
228.64
228.694
228.753
228.815
228.88
228.947
229.013
229.078
229.147
229.223
229.302
229.376
229.444
229.506
229.567
229.629
229.689
229.745
229.791
229.826
229.846
229.853
229.843
229.817
229.774
229.713
229.633
229.531
229.405
229.253
229.073
228.86
228.614
228.329
228.007
227.642
227.234
226.781
226.28
225.73
225.131
224.482
223.781
223.031
222.23
221.382
220.486
219.55
218.569
217.553
216.495
215.408
214.293
213.158
212.021
210.872
209.757
208.608
207.545
206.605
204.765
223
223
223
223
223
223
223
223
223
223
223
223
223
223
223
223
223
223
223
223
223
223
223
223
223
223
223
223
223
223
223
223
223
223.007
223.18
224.359
226.705
228.388
228.872
229.003
228.953
228.87
228.8
228.753
228.719
228.688
228.656
228.626
228.603
228.589
228.584
228.587
228.597
228.614
228.636
228.665
228.701
228.743
228.789
228.839
228.896
228.959
229.028
229.101
229.179
229.259
229.339
229.418
229.501
229.592
229.688
229.783
229.872
229.955
230.038
230.122
230.207
230.29
230.368
230.435
230.491
230.533
230.563
230.579
230.584
230.571
230.543
230.497
230.431
230.343
230.23
230.09
229.919
229.715
229.476
229.198
228.88
228.519
228.112
227.659
227.157
226.606
226.003
225.349
224.643
223.886
223.077
222.219
221.31
220.359
219.359
218.325
217.245
216.137
214.998
213.85
212.701
211.598
210.45
209.47
207.601
223
223
223
223
223
223
223
223
223
223
223
223
223
223
223
223
223
223
223
223
223
223
223
223
223
223
223
223
223
223
223
223
223
223.002
223.074
223.836
226.031
228.116
228.908
229.099
229.067
229.003
228.948
228.911
228.88
228.845
228.81
228.782
228.765
228.76
228.765
228.776
228.792
228.813
228.84
228.873
228.915
228.964
229.018
229.077
229.142
229.214
229.293
229.376
229.464
229.556
229.649
229.741
229.836
229.94
230.053
230.166
230.275
230.378
230.481
230.585
230.693
230.802
230.907
231.006
231.094
231.172
231.239
231.295
231.34
231.373
231.392
231.399
231.388
231.359
231.309
231.234
231.132
231.002
230.841
230.643
230.411
230.138
229.823
229.464
229.06
228.607
228.104
227.551
226.945
226.288
225.578
224.816
224.002
223.141
222.227
221.27
220.259
219.212
218.118
217.004
215.868
214.74
213.623
212.556
210.686
223
223
223
223
223
223
223
223
223
223
223
223
223
223
223
223
223
223
223
223
223
223
223
223
223
223
223
223
223
223
223
223
223
223
223.027
223.466
225.333
227.728
228.891
229.172
229.174
229.144
229.098
229.062
229.026
228.986
228.953
228.933
228.927
228.933
228.944
228.959
228.978
229.001
229.03
229.068
229.115
229.172
229.235
229.303
229.377
229.457
229.545
229.637
229.734
229.836
229.941
230.045
230.152
230.268
230.394
230.524
230.651
230.773
230.893
231.016
231.144
231.275
231.406
231.531
231.649
231.758
231.858
231.95
232.033
232.107
232.171
232.223
232.262
232.287
232.296
232.284
232.25
232.191
232.105
231.987
231.838
231.653
231.43
231.167
230.861
230.51
230.111
229.665
229.166
228.616
228.011
227.354
226.642
225.876
225.056
224.186
223.264
222.299
221.278
220.231
219.135
218.053
216.921
215.837
214.016
223
223
223
223
223
223
223
223
223
223
223
223
223
223
223
223
223
223
223
223
223
223
223
223
223
223
223
223
223
223
223
223
223
223
223.009
223.238
224.687
227.237
228.809
229.223
229.286
229.283
229.239
229.196
229.154
229.116
229.093
229.085
229.091
229.103
229.116
229.131
229.149
229.174
229.207
229.251
229.306
229.371
229.443
229.52
229.6
229.688
229.782
229.882
229.988
230.098
230.213
230.329
230.446
230.572
230.71
230.856
231
231.139
231.276
231.415
231.561
231.712
231.864
232.014
232.159
232.297
232.428
232.552
232.669
232.78
232.883
232.978
233.063
233.136
233.196
233.24
233.265
233.273
233.254
233.211
233.139
233.034
232.897
232.723
232.51
232.255
231.958
231.613
231.22
230.778
230.283
229.737
229.136
228.481
227.771
227.004
226.184
225.307
224.377
223.407
222.391
221.375
220.296
219.216
217.555
223
223
223
223
223
223
223
223
223
223
223
223
223
223
223
223
223
223
223
223
223
223
223
223
223
223
223
223
223
223
223
223
223
223
223.003
223.114
224.154
226.678
228.648
229.255
229.397
229.411
229.363
229.312
229.27
229.244
229.235
229.238
229.249
229.261
229.272
229.284
229.303
229.332
229.372
229.424
229.487
229.56
229.64
229.723
229.809
229.902
230.002
230.109
230.221
230.339
230.463
230.589
230.717
230.853
231.002
231.161
231.321
231.475
231.627
231.782
231.943
232.111
232.282
232.454
232.622
232.785
232.943
233.096
233.243
233.386
233.524
233.656
233.782
233.899
234.006
234.102
234.182
234.246
234.291
234.315
234.32
234.29
234.238
234.15
234.028
233.869
233.671
233.43
233.144
232.812
232.428
231.994
231.506
230.965
230.369
229.717
229.013
228.25
227.436
226.566
225.652
224.698
223.701
222.613
221.097
223
223
223
223
223
223
223
223
223
223
223
223
223
223
223
223
223
223
223
223
223
223
223
223
223
223
223
223
223
223
223
223
223
223
223.001
223.053
223.758
226.106
228.419
229.277
229.501
229.521
229.466
229.415
229.385
229.373
229.375
229.383
229.392
229.401
229.409
229.423
229.446
229.482
229.53
229.59
229.661
229.74
229.824
229.912
230.002
230.098
230.202
230.314
230.433
230.558
230.691
230.827
230.965
231.111
231.27
231.441
231.614
231.783
231.949
232.117
232.291
232.473
232.661
232.851
233.04
233.226
233.407
233.585
233.759
233.93
234.098
234.263
234.424
234.579
234.728
234.868
234.997
235.114
235.215
235.299
235.363
235.406
235.425
235.421
235.379
235.31
235.204
235.059
234.875
234.647
234.373
234.051
233.678
233.252
232.77
232.234
231.639
230.986
230.28
229.517
228.716
227.873
226.996
226.014
224.662
223
223
223
223
223
223
223
223
223
223
223
223
223
223
223
223
223
223
223
223
223
223
223
223
223
223
223
223
223
223
223
223
223
223
223
223.025
223.49
225.577
228.148
229.287
229.592
229.609
229.554
229.516
229.501
229.5
229.507
229.513
229.518
229.523
229.532
229.55
229.581
229.626
229.682
229.749
229.824
229.906
229.993
230.082
230.174
230.272
230.38
230.497
230.623
230.756
230.898
231.044
231.192
231.347
231.515
231.696
231.881
232.063
232.241
232.42
232.606
232.8
233.002
233.208
233.414
233.619
233.82
234.019
234.216
234.411
234.605
234.798
234.989
235.177
235.361
235.54
235.712
235.874
236.025
236.163
236.287
236.392
236.477
236.542
236.581
236.596
236.58
236.528
236.444
236.317
236.151
235.939
235.68
235.372
235.01
234.598
234.126
233.6
233.016
232.37
231.676
230.927
230.141
229.25
228.027
223
223
223
223
223
223
223
223
223
223
223
223
223
223
223
223
223
223
223
223
223
223
223
223
223
223
223
223
223
223
223
223
223
223
223
223.012
223.322
225.13
227.867
229.285
229.667
229.68
229.636
229.617
229.614
229.619
229.625
229.628
229.628
229.633
229.646
229.671
229.711
229.764
229.827
229.898
229.975
230.057
230.143
230.233
230.326
230.427
230.538
230.662
230.795
230.936
231.086
231.242
231.4
231.564
231.74
231.929
232.124
232.317
232.505
232.694
232.888
233.093
233.306
233.525
233.746
233.967
234.185
234.402
234.617
234.833
235.049
235.265
235.481
235.697
235.911
236.122
236.329
236.53
236.724
236.907
237.08
237.24
237.384
237.511
237.618
237.703
237.764
237.797
237.805
237.77
237.707
237.598
237.446
237.249
237
236.701
236.345
235.938
235.471
234.951
234.381
233.757
233.093
232.324
231.261
223
223
223
223
223
223
223
223
223
223
223
223
223
223
223
223
223
223
223
223
223
223
223
223
223
223
223
223
223
223
223
223
223
223
223
223.007
223.222
224.788
227.609
229.271
229.726
229.742
229.717
229.714
229.718
229.725
229.729
229.727
229.725
229.733
229.752
229.786
229.834
229.893
229.961
230.034
230.111
230.191
230.276
230.366
230.461
230.565
230.681
230.811
230.952
231.101
231.259
231.423
231.59
231.762
231.945
232.141
232.344
232.545
232.742
232.938
233.141
233.353
233.576
233.805
234.038
234.271
234.503
234.734
234.965
235.197
235.431
235.666
235.903
236.141
236.38
236.618
236.854
237.087
237.316
237.538
237.753
237.958
238.153
238.334
238.502
238.652
238.783
238.892
238.977
239.034
239.064
239.064
239.014
238.934
238.804
238.626
238.395
238.11
237.763
237.364
236.902
236.388
235.825
235.165
234.238
223
223
223
223
223
223
223
223
223
223
223
223
223
223
223
223
223
223
223
223
223
223
223
223
223
223
223
223
223
223
223
223
223
223
223
223.005
223.167
224.552
227.405
229.26
229.774
229.801
229.795
229.803
229.81
229.816
229.817
229.814
229.813
229.825
229.852
229.894
229.948
230.012
230.082
230.155
230.23
230.309
230.393
230.484
230.581
230.689
230.811
230.948
231.096
231.253
231.418
231.59
231.764
231.942
232.131
232.332
232.541
232.749
232.952
233.155
233.364
233.582
233.812
234.05
234.292
234.535
234.778
235.021
235.264
235.509
235.757
236.007
236.26
236.516
236.775
237.034
237.294
237.553
237.809
238.062
238.31
238.553
238.787
239.013
239.229
239.432
239.621
239.795
239.949
240.082
240.19
240.272
240.322
240.341
240.321
240.253
240.143
239.979
239.76
239.491
239.157
238.774
238.324
237.79
237.015
223
223
223
223
223
223
223
223
223
223
223
223
223
223
223
223
223
223
223
223
223
223
223
223
223
223
223
223
223
223
223
223
223
223
223
223.004
223.143
224.419
227.281
229.264
229.821
229.862
229.868
229.882
229.889
229.893
229.893
229.89
229.892
229.91
229.944
229.992
230.052
230.118
230.188
230.261
230.335
230.413
230.497
230.589
230.69
230.802
230.93
231.073
231.229
231.392
231.564
231.742
231.922
232.105
232.297
232.502
232.716
232.929
233.138
233.346
233.559
233.783
234.018
234.261
234.51
234.761
235.012
235.264
235.518
235.773
236.031
236.294
236.56
236.83
237.103
237.379
237.657
237.935
238.213
238.49
238.764
239.035
239.302
239.563
239.817
240.063
240.3
240.525
240.738
240.937
241.117
241.278
241.416
241.527
241.608
241.653
241.664
241.617
241.531
241.386
241.181
240.927
240.585
240.181
239.552
223
223
223
223
223
223
223
223
223
223
223
223
223
223
223
223
223
223
223
223
223
223
223
223
223
223
223
223
223
223
223
223
223
223
223
223.003
223.135
224.387
227.255
229.287
229.871
229.922
229.932
229.947
229.955
229.959
229.959
229.957
229.964
229.986
230.026
230.079
230.141
230.208
230.28
230.352
230.426
230.504
230.59
230.684
230.789
230.906
231.039
231.189
231.35
231.519
231.695
231.878
232.063
232.25
232.445
232.653
232.87
233.087
233.3
233.512
233.729
233.957
234.195
234.444
234.697
234.954
235.212
235.471
235.732
235.995
236.262
236.533
236.809
237.089
237.374
237.662
237.953
238.246
238.54
238.834
239.128
239.42
239.709
239.996
240.279
240.556
240.828
241.092
241.348
241.593
241.828
242.048
242.253
242.439
242.605
242.742
242.853
242.922
242.961
242.959
242.902
242.8
242.591
242.351
241.87
223
223
223
223
223
223
223
223
223
223
223
223
223
223
223
223
223
223
223
223
223
223
223
223
223
223
223
223
223
223
223
223
223
223
223
223.003
223.139
224.409
227.303
229.345
229.928
229.977
229.985
230.001
230.009
230.014
230.016
230.017
230.027
230.053
230.096
230.151
230.215
230.284
230.356
230.429
230.505
230.584
230.672
230.77
230.879
231.001
231.138
231.293
231.459
231.632
231.812
231.998
232.186
232.376
232.574
232.784
233.003
233.224
233.44
233.655
233.876
234.106
234.348
234.6
234.858
235.119
235.382
235.647
235.913
236.183
236.456
236.734
237.017
237.305
237.597
237.894
238.194
238.498
238.803
239.109
239.416
239.723
240.029
240.334
240.636
240.936
241.232
241.524
241.811
242.092
242.366
242.631
242.887
243.131
243.361
243.574
243.765
243.928
244.059
244.167
244.261
244.311
244.272
244.23
243.976
223
223
223
223
223
223
223
223
223
223
223
223
223
223
223
223
223
223
223
223
223
223
223
223
223
223
223
223
223
223
223
223
223
223
223
223.004
223.158
224.527
227.468
229.443
229.99
230.028
230.029
230.044
230.054
230.061
230.065
230.07
230.082
230.11
230.154
230.211
230.276
230.346
230.42
230.495
230.572
230.655
230.746
230.848
230.961
231.086
231.228
231.386
231.555
231.732
231.914
232.103
232.293
232.485
232.685
232.898
233.119
233.342
233.561
233.778
234.001
234.235
234.479
234.734
234.995
235.26
235.527
235.796
236.067
236.342
236.62
236.903
237.191
237.485
237.783
238.086
238.393
238.703
239.016
239.331
239.646
239.962
240.278
240.594
240.909
241.222
241.533
241.842
242.147
242.449
242.746
243.039
243.326
243.606
243.877
244.138
244.384
244.613
244.817
245.001
245.169
245.332
245.478
245.553
245.522
223
223
223
223
223
223
223
223
223
223
223
223
223
223
223
223
223
223
223
223
223
223
223
223
223
223
223
223
223
223
223
223
223
223
223
223.006
223.201
224.744
227.715
229.559
230.05
230.076
230.066
230.078
230.089
230.099
230.106
230.115
230.13
230.159
230.203
230.259
230.325
230.396
230.472
230.55
230.63
230.717
230.812
230.918
231.034
231.162
231.307
231.467
231.639
231.817
232.002
232.192
232.384
232.578
232.78
232.995
233.219
233.444
233.664
233.885
234.11
234.346
234.594
234.851
235.115
235.383
235.654
235.926
236.201
236.479
236.76
237.047
237.339
237.636
237.939
238.245
238.556
238.871
239.188
239.507
239.828
240.149
240.47
240.792
241.113
241.433
241.752
242.07
242.385
242.697
243.005
243.31
243.61
243.904
244.192
244.473
244.744
245.003
245.246
245.476
245.698
245.929
246.158
246.329
246.471
223
223
223
223
223
223
223
223
223
223
223
223
223
223
223
223
223
223
223
223
223
223
223
223
223
223
223
223
223
223
223
223
223
223
223
223.01
223.279
225.059
228.022
229.684
230.104
230.119
230.098
230.105
230.117
230.128
230.138
230.151
230.168
230.198
230.241
230.298
230.364
230.437
230.515
230.595
230.679
230.77
230.87
230.979
231.098
231.229
231.376
231.538
231.711
231.891
232.076
232.267
232.46
232.656
232.861
233.078
233.304
233.53
233.752
233.974
234.202
234.441
234.691
234.951
235.218
235.489
235.762
236.037
236.315
236.595
236.88
237.17
237.465
237.764
238.069
238.378
238.692
239.008
239.326
239.647
239.968
240.291
240.614
240.937
241.259
241.58
241.899
242.219
242.536
242.853
243.166
243.475
243.776
244.069
244.354
244.629
244.892
245.139
245.368
245.581
245.784
245.99
246.184
246.328
246.434
223
223
223
223
223
223
223
223
223
223
223
223
223
223
223
223
223
223
223
223
223
223
223
223
223
223
223
223
223
223
223
223
223
223
223
223.017
223.406
225.47
228.364
229.806
230.148
230.155
230.127
230.127
230.138
230.15
230.162
230.178
230.197
230.228
230.272
230.328
230.394
230.468
230.548
230.631
230.719
230.815
230.919
231.032
231.153
231.287
231.435
231.599
231.772
231.952
232.139
232.331
232.525
232.723
232.93
233.15
233.377
233.603
233.827
234.05
234.28
234.522
234.775
235.037
235.307
235.579
235.854
236.131
236.41
236.692
236.979
237.269
237.565
237.866
238.172
238.481
238.795
239.111
239.43
239.75
240.07
240.391
240.713
241.035
241.356
241.676
241.992
242.303
242.608
242.905
243.195
243.479
243.752
244.016
244.272
244.517
244.745
244.953
245.137
245.299
245.445
245.58
245.692
245.746
245.687
223
223
223
223
223
223
223
223
223
223
223
223
223
223
223
223
223
223
223
223
223
223
223
223
223
223
223
223
223
223
223
223
223
223
223.001
223.033
223.598
225.964
228.712
229.916
230.182
230.181
230.149
230.145
230.153
230.165
230.179
230.196
230.218
230.25
230.294
230.35
230.417
230.492
230.573
230.659
230.751
230.851
230.959
231.074
231.198
231.334
231.484
231.648
231.822
232.003
232.19
232.382
232.577
232.777
232.987
233.209
233.438
233.665
233.888
234.113
234.346
234.59
234.845
235.11
235.38
235.654
235.93
236.207
236.487
236.771
237.058
237.349
237.645
237.946
238.25
238.559
238.87
239.184
239.501
239.821
240.141
240.459
240.774
241.085
241.391
241.691
241.986
242.273
242.555
242.83
243.097
243.353
243.599
243.831
244.046
244.243
244.418
244.567
244.691
244.791
244.874
244.922
244.919
244.908
244.785
223
223
223
223
223
223
223
223
223
223
223
223
223
223
223
223
223
223
223
223
223
223
223
223
223
223
223
223
223
223
223
223
223
223
223.001
223.063
223.875
226.516
229.04
230.006
230.204
230.199
230.165
230.156
230.162
230.173
230.188
230.208
230.232
230.265
230.309
230.365
230.431
230.507
230.59
230.679
230.774
230.878
230.99
231.108
231.234
231.371
231.523
231.688
231.862
232.043
232.23
232.423
232.618
232.82
233.033
233.258
233.487
233.714
233.938
234.164
234.398
234.645
234.902
235.168
235.439
235.713
235.988
236.266
236.545
236.828
237.114
237.405
237.7
237.999
238.302
238.61
238.92
239.231
239.541
239.849
240.153
240.453
240.749
241.042
241.33
241.612
241.888
242.156
242.414
242.66
242.893
243.112
243.316
243.501
243.666
243.806
243.921
244.008
244.068
244.105
244.109
244.084
244.014
243.935
243.75
223
223
223
223
223
223
223
223
223
223
223
223
223
223
223
223
223
223
223
223
223
223
223
223
223
223
223
223
223
223
223
223
223
223
223.003
223.118
224.249
227.093
229.331
230.073
230.215
230.208
230.175
230.163
230.166
230.177
230.193
230.213
230.239
230.273
230.317
230.372
230.438
230.515
230.599
230.69
230.789
230.896
231.01
231.131
231.259
231.399
231.552
231.718
231.892
232.073
232.261
232.454
232.65
232.854
233.069
233.296
233.525
233.751
233.975
234.202
234.439
234.687
234.945
235.212
235.482
235.755
236.03
236.306
236.585
236.867
237.153
237.444
237.738
238.035
238.333
238.632
238.931
239.228
239.521
239.814
240.104
240.39
240.672
240.947
241.214
241.472
241.72
241.957
242.181
242.39
242.583
242.757
242.913
243.046
243.155
243.238
243.292
243.325
243.327
243.302
243.246
243.175
243.069
242.948
242.736
223
223
223
223
223
223
223
223
223
223
223
223
223
223
223
223
223
223
223
223
223
223
223
223
223
223
223
223
223
223
223
223
223
223
223.007
223.215
224.719
227.658
229.576
230.121
230.219
230.209
230.18
230.165
230.165
230.173
230.19
230.213
230.241
230.276
230.32
230.375
230.441
230.518
230.603
230.696
230.797
230.906
231.023
231.145
231.274
231.415
231.571
231.738
231.912
232.094
232.283
232.475
232.673
232.879
233.097
233.324
233.552
233.777
234.001
234.229
234.467
234.716
234.976
235.242
235.511
235.783
236.058
236.333
236.611
236.891
237.172
237.455
237.739
238.024
238.31
238.597
238.884
239.17
239.454
239.733
240.006
240.272
240.531
240.781
241.021
241.249
241.465
241.666
241.851
242.019
242.168
242.295
242.402
242.485
242.54
242.575
242.579
242.563
242.514
242.451
242.359
242.257
242.136
241.995
241.772
223
223
223
223
223
223
223
223
223
223
223
223
223
223
223
223
223
223
223
223
223
223
223
223
223
223
223
223
223
223
223
223
223
223
223.017
223.369