/*--------------------------------*- C++ -*----------------------------------*\
| =========                 |                                                 |
| \\      /  F ield         | OpenFOAM: The Open Source CFD Toolbox           |
|  \\    /   O peration     | Version:  2406                                  |
|   \\  /    A nd           | Website:  www.openfoam.com                      |
|    \\/     M anipulation  |                                                 |
\*---------------------------------------------------------------------------*/
FoamFile
{
    version     2.0;
    format      ascii;
    arch        "LSB;label=32;scalar=64";
    class       volScalarField;
    location    "0.028";
    object      rho;
}
// * * * * * * * * * * * * * * * * * * * * * * * * * * * * * * * * * * * * * //

dimensions      [1 -3 0 0 0 0 0];

internalField   nonuniform List<scalar> 
78650
(
0.0430196
0.0426745
0.0426818
0.0425977
0.0424042
0.0422113
0.0420658
0.0419616
0.0418892
0.0418407
0.0417957
0.041742
0.0416775
0.0416115
0.0415535
0.0415046
0.041461
0.0414202
0.0413819
0.041346
0.0413127
0.0412821
0.0412544
0.0412292
0.0412059
0.0411837
0.0411615
0.0411384
0.0411135
0.0410869
0.0410593
0.041032
0.0410062
0.0409821
0.0409598
0.0409392
0.0409203
0.0409032
0.0408875
0.0408727
0.0408578
0.0408425
0.0408265
0.0408099
0.0407927
0.0407748
0.0407557
0.0407354
0.0407133
0.0406893
0.040663
0.0406342
0.0406026
0.0405678
0.0405296
0.0404876
0.0404411
0.0403896
0.0403323
0.0402687
0.0401978
0.040119
0.0400315
0.0399347
0.0398275
0.0397094
0.0395792
0.039436
0.0392793
0.0391082
0.0389214
0.0387182
0.0384971
0.0382566
0.0379964
0.0377161
0.0374167
0.0370971
0.0367548
0.0363897
0.0360051
0.035601
0.0351758
0.0347265
0.0342513
0.0337499
0.0332321
0.0327026
0.0321713
0.031643
0.0311052
0.0305526
0.0300007
0.0294493
0.0288915
0.0283313
0.027798
0.0273119
0.0268321
0.0263584
0.0259037
0.0254657
0.0250574
0.0246588
0.0242747
0.0239057
0.0235661
0.023255
0.0229806
0.0227344
0.0225094
0.0222924
0.0220746
0.0218648
0.0216696
0.0214893
0.0213237
0.0211597
0.0210016
0.0208542
0.0206274
0.0429369
0.0426676
0.0426887
0.0426317
0.0424566
0.0422626
0.0421115
0.0420019
0.0419258
0.0418768
0.0418351
0.0417866
0.0417266
0.0416629
0.0416059
0.041558
0.0415155
0.0414757
0.0414379
0.0414024
0.0413691
0.0413384
0.0413107
0.0412861
0.0412645
0.0412451
0.0412269
0.0412082
0.0411877
0.0411647
0.0411396
0.0411135
0.0410878
0.0410633
0.0410403
0.0410193
0.0410003
0.0409835
0.0409689
0.0409557
0.0409431
0.0409306
0.0409178
0.0409047
0.0408915
0.0408778
0.0408635
0.0408481
0.0408314
0.0408131
0.040793
0.0407706
0.0407458
0.0407182
0.0406877
0.0406538
0.040616
0.0405738
0.0405264
0.0404733
0.0404138
0.0403471
0.0402725
0.0401894
0.0400969
0.0399943
0.0398809
0.0397556
0.0396176
0.0394658
0.039299
0.0391168
0.0389181
0.038702
0.0384684
0.038216
0.0379442
0.0376511
0.0373352
0.036997
0.0366379
0.0362563
0.035853
0.0354296
0.0349875
0.0345295
0.0340543
0.0335611
0.0330478
0.0325191
0.0319819
0.0314374
0.0308821
0.0303323
0.0297887
0.0292614
0.0287273
0.0281952
0.0276763
0.0271747
0.0266983
0.0262284
0.0257831
0.0253652
0.0249817
0.0246129
0.0242618
0.0239192
0.0235919
0.0232821
0.0229948
0.0227225
0.0224703
0.0222325
0.0220078
0.021797
0.021596
0.021396
0.0212054
0.0210243
0.0207418
0.042851
0.0426568
0.0426947
0.0426626
0.0425112
0.0423168
0.0421577
0.0420407
0.0419603
0.0419106
0.0418724
0.0418296
0.041775
0.0417145
0.0416587
0.0416116
0.0415703
0.0415314
0.0414944
0.0414594
0.0414265
0.0413961
0.0413686
0.0413445
0.0413239
0.0413064
0.0412911
0.0412763
0.0412602
0.0412417
0.0412205
0.0411972
0.0411732
0.0411494
0.0411267
0.0411057
0.0410868
0.0410704
0.0410566
0.0410447
0.041034
0.0410238
0.0410138
0.0410039
0.0409942
0.0409845
0.0409745
0.0409639
0.0409523
0.0409394
0.0409251
0.0409089
0.0408907
0.0408701
0.040847
0.0408209
0.0407914
0.0407581
0.0407202
0.0406772
0.0406285
0.0405732
0.0405108
0.0404407
0.0403619
0.040274
0.040176
0.040067
0.0399463
0.0398127
0.0396656
0.0395044
0.039328
0.0391355
0.0389259
0.0386977
0.0384498
0.038181
0.0378909
0.0375808
0.0372521
0.0369026
0.036532
0.036139
0.0357229
0.035286
0.0348272
0.0343482
0.0338474
0.0333317
0.0328035
0.0322758
0.0317439
0.0312069
0.0306624
0.0301121
0.0295661
0.0290199
0.0284802
0.027935
0.0274167
0.0269143
0.0264378
0.0259774
0.0255368
0.0251156
0.0247176
0.0243503
0.0240192
0.023708
0.0234158
0.0231324
0.0228582
0.022599
0.0223548
0.0221245
0.0219089
0.0216949
0.0214903
0.0212967
0.020958
0.0427552
0.0426454
0.0427034
0.0426916
0.042568
0.0423754
0.0422059
0.0420798
0.0419948
0.041944
0.0419091
0.0418722
0.0418236
0.0417668
0.0417122
0.0416659
0.0416255
0.0415876
0.0415513
0.041517
0.0414849
0.0414552
0.0414284
0.041405
0.0413852
0.0413691
0.0413558
0.0413439
0.0413317
0.0413176
0.0413006
0.0412811
0.04126
0.0412382
0.0412169
0.0411967
0.0411784
0.0411626
0.0411495
0.0411387
0.0411297
0.0411215
0.0411139
0.0411067
0.0411001
0.0410938
0.0410877
0.0410814
0.0410745
0.0410667
0.0410578
0.0410475
0.0410354
0.0410214
0.0410052
0.0409866
0.0409651
0.0409402
0.0409114
0.0408781
0.0408398
0.0407956
0.0407452
0.0406876
0.0406224
0.0405489
0.0404662
0.0403736
0.0402704
0.0401556
0.0400283
0.0398878
0.0397327
0.0395621
0.0393754
0.0391711
0.0389488
0.0387076
0.038447
0.0381672
0.0378666
0.0375422
0.037195
0.0368258
0.036436
0.0360278
0.035599
0.0351526
0.0346874
0.0342023
0.0337015
0.0331784
0.0326431
0.0320935
0.0315449
0.0309865
0.0304374
0.0298735
0.0293269
0.0287826
0.0282546
0.0277448
0.0272414
0.0267632
0.0262954
0.0258424
0.0254026
0.02498
0.0245855
0.0242105
0.0238586
0.0235272
0.023227
0.0229565
0.02271
0.0224785
0.0222549
0.0220369
0.0218305
0.0216406
0.0213176
0.0426435
0.0426351
0.0427196
0.0427174
0.042623
0.0424364
0.0422559
0.0421201
0.042031
0.0419787
0.0419467
0.0419155
0.0418732
0.0418204
0.0417672
0.0417212
0.0416816
0.0416445
0.041609
0.0415754
0.0415443
0.0415159
0.0414903
0.0414681
0.0414495
0.0414346
0.0414229
0.0414131
0.0414038
0.0413932
0.0413803
0.0413647
0.0413471
0.0413283
0.0413093
0.041291
0.0412741
0.0412595
0.0412476
0.0412382
0.0412308
0.0412246
0.0412191
0.0412145
0.0412107
0.0412077
0.0412052
0.0412029
0.0412004
0.0411974
0.0411937
0.0411889
0.0411828
0.0411751
0.0411656
0.0411542
0.0411403
0.0411235
0.0411035
0.0410795
0.0410511
0.0410176
0.0409784
0.0409329
0.0408805
0.0408205
0.0407523
0.0406751
0.0405881
0.0404905
0.0403813
0.0402599
0.040125
0.0399763
0.039813
0.0396336
0.0394373
0.0392228
0.0389895
0.0387372
0.0384647
0.0381706
0.0378562
0.0375209
0.037164
0.0367849
0.0363819
0.0359578
0.0355103
0.0350441
0.0345592
0.0340505
0.0335288
0.0329922
0.0324575
0.0319094
0.0313666
0.0308122
0.0302538
0.0297027
0.0291525
0.0286239
0.0280898
0.0275767
0.0270872
0.0266163
0.0261707
0.0257389
0.0253278
0.0249223
0.0245367
0.0241615
0.02381
0.023481
0.0231711
0.0228712
0.0225769
0.0222967
0.0220414
0.0218151
0.0214185
0.0425284
0.0426257
0.0427294
0.0427381
0.042673
0.0424991
0.042309
0.0421642
0.0420709
0.042016
0.041986
0.0419601
0.0419241
0.0418759
0.0418241
0.0417778
0.0417385
0.0417023
0.0416675
0.0416349
0.0416051
0.0415781
0.0415542
0.0415337
0.0415166
0.0415032
0.0414929
0.0414848
0.0414776
0.0414698
0.04146
0.0414479
0.0414338
0.0414183
0.0414023
0.0413866
0.041372
0.0413593
0.041349
0.0413414
0.0413358
0.0413316
0.0413283
0.041326
0.0413249
0.0413248
0.0413256
0.041327
0.0413286
0.04133
0.041331
0.0413315
0.0413309
0.0413292
0.0413261
0.0413215
0.0413149
0.0413059
0.0412941
0.0412791
0.0412602
0.0412369
0.0412087
0.0411749
0.041135
0.0410884
0.0410344
0.0409723
0.0409016
0.0408211
0.0407303
0.0406285
0.0405144
0.0403875
0.0402468
0.0400907
0.0399187
0.0397302
0.0395242
0.0392996
0.0390546
0.038788
0.0385012
0.0381932
0.0378636
0.0375122
0.0371388
0.0367451
0.036329
0.0358952
0.0354397
0.034967
0.0344752
0.0339641
0.0334415
0.0329018
0.0323478
0.0317877
0.0312243
0.0306648
0.0300959
0.029536
0.0289727
0.0284172
0.0278867
0.0273713
0.0268816
0.026405
0.0259525
0.0255181
0.0251229
0.0247493
0.0244011
0.0240671
0.0237503
0.0234392
0.0231249
0.0228093
0.0224936
0.0222007
0.0217079
0.0424286
0.0425986
0.0427238
0.0427549
0.0427155
0.0425611
0.0423661
0.0422132
0.0421145
0.0420559
0.0420272
0.042006
0.0419763
0.041933
0.0418827
0.0418358
0.0417964
0.0417609
0.0417271
0.0416957
0.0416673
0.0416421
0.0416202
0.0416017
0.0415866
0.041575
0.0415663
0.0415598
0.0415544
0.0415486
0.0415412
0.0415318
0.0415206
0.041508
0.0414951
0.0414824
0.0414706
0.0414605
0.0414526
0.0414471
0.0414438
0.041442
0.0414413
0.0414415
0.041443
0.0414458
0.0414498
0.0414547
0.0414602
0.0414659
0.0414715
0.0414769
0.0414817
0.0414858
0.0414888
0.0414906
0.0414911
0.0414895
0.0414857
0.0414794
0.0414697
0.0414561
0.0414383
0.0414156
0.0413875
0.0413534
0.0413127
0.0412649
0.0412092
0.0411448
0.0410711
0.0409873
0.0408923
0.0407855
0.0406661
0.0405329
0.0403855
0.0402225
0.0400425
0.0398448
0.0396286
0.0393936
0.0391407
0.0388675
0.0385728
0.0382553
0.0379148
0.0375519
0.0371661
0.0367598
0.0363284
0.0358789
0.0354072
0.0349173
0.0344058
0.0338811
0.0333345
0.0327859
0.0322301
0.031675
0.0311039
0.030533
0.0299727
0.0294099
0.0288737
0.0283395
0.0278287
0.0273232
0.0268301
0.0263469
0.0258954
0.0254698
0.025065
0.0246748
0.0243021
0.0239579
0.0236422
0.023344
0.0230585
0.0227924
0.022287
0.042343
0.0425498
0.0427117
0.0427682
0.0427451
0.0426241
0.0424309
0.0422687
0.042162
0.042099
0.0420704
0.042053
0.0420291
0.0419909
0.0419425
0.0418949
0.0418551
0.0418204
0.041788
0.0417581
0.0417315
0.0417082
0.0416884
0.0416721
0.0416591
0.0416496
0.0416427
0.041638
0.0416342
0.04163
0.0416245
0.0416171
0.041608
0.0415978
0.0415875
0.0415777
0.0415688
0.0415615
0.0415563
0.0415535
0.041553
0.041554
0.041556
0.0415589
0.041563
0.0415686
0.0415757
0.041584
0.0415932
0.041603
0.041613
0.0416231
0.041633
0.0416424
0.0416513
0.0416593
0.0416662
0.0416719
0.0416757
0.0416774
0.0416765
0.0416723
0.0416647
0.0416528
0.0416361
0.0416143
0.0415866
0.0415527
0.041512
0.0414635
0.0414067
0.0413409
0.041265
0.0411786
0.0410805
0.0409698
0.0408459
0.0407075
0.0405539
0.0403841
0.0401969
0.0399914
0.0397672
0.0395218
0.039255
0.0389666
0.0386568
0.0383258
0.0379728
0.0375984
0.0372
0.0367828
0.0363412
0.0358821
0.0354021
0.0349004
0.0343853
0.0338522
0.0333091
0.0327497
0.0321793
0.0316002
0.0310443
0.0304711
0.0299051
0.0293406
0.0287909
0.0282615
0.0277433
0.0272334
0.0267422
0.0262743
0.0258285
0.0253961
0.024974
0.0245704
0.0241949
0.0238409
0.0235225
0.0232348
0.0227
0.0422708
0.0424861
0.0426896
0.0427745
0.0427675
0.0426856
0.0425016
0.0423291
0.0422127
0.0421451
0.042115
0.0421
0.0420806
0.0420476
0.0420021
0.0419544
0.0419145
0.0418811
0.0418505
0.0418225
0.0417979
0.0417767
0.0417591
0.0417448
0.0417341
0.0417266
0.0417217
0.0417189
0.0417167
0.0417142
0.0417104
0.0417046
0.0416971
0.0416887
0.0416803
0.0416729
0.0416667
0.0416621
0.0416598
0.0416599
0.0416624
0.0416664
0.0416714
0.0416774
0.0416846
0.0416933
0.0417035
0.0417153
0.0417282
0.041742
0.0417563
0.0417709
0.0417857
0.0418005
0.0418149
0.0418289
0.0418424
0.0418548
0.041866
0.0418754
0.0418827
0.0418874
0.0418893
0.0418878
0.041882
0.0418719
0.0418564
0.0418356
0.0418086
0.0417748
0.0417338
0.0416846
0.0416265
0.0415589
0.0414809
0.0413915
0.0412904
0.041176
0.0410474
0.0409037
0.0407437
0.040567
0.0403732
0.0401601
0.0399276
0.0396752
0.0394022
0.0391076
0.0387906
0.0384503
0.0380858
0.0376996
0.0372874
0.0368556
0.0363996
0.0359264
0.0354331
0.0349217
0.0343948
0.03384
0.0332834
0.0327136
0.0321538
0.0315782
0.0309893
0.0304071
0.0298195
0.0292624
0.0287173
0.0281829
0.027656
0.0271454
0.0266598
0.0262018
0.025767
0.0253371
0.024919
0.0245078
0.0241231
0.0237649
0.0230874
0.0422152
0.042414
0.0426505
0.0427745
0.0427858
0.042741
0.042575
0.0423945
0.0422684
0.0421947
0.0421604
0.0421452
0.0421291
0.0421021
0.0420614
0.042015
0.0419754
0.0419435
0.0419151
0.0418893
0.0418668
0.0418478
0.0418322
0.04182
0.0418112
0.0418055
0.0418025
0.0418015
0.0418011
0.0418002
0.041798
0.0417939
0.0417878
0.0417807
0.0417738
0.0417682
0.0417641
0.041762
0.0417623
0.0417653
0.0417706
0.0417777
0.0417861
0.0417954
0.0418058
0.0418176
0.0418312
0.0418463
0.0418629
0.0418806
0.041899
0.0419181
0.0419376
0.0419574
0.0419772
0.0419969
0.0420164
0.0420353
0.0420534
0.0420704
0.0420857
0.042099
0.0421098
0.0421177
0.0421224
0.0421236
0.0421202
0.0421123
0.0420991
0.0420795
0.042054
0.0420212
0.0419806
0.0419317
0.0418733
0.0418048
0.0417254
0.0416339
0.0415297
0.041412
0.0412799
0.0411323
0.0409682
0.0407854
0.0405841
0.0403635
0.0401226
0.0398601
0.0395754
0.0392677
0.0389368
0.0385843
0.0382075
0.0378102
0.0373882
0.0369474
0.0364822
0.0359976
0.0354914
0.0349669
0.0344279
0.033874
0.0333064
0.0327377
0.0321467
0.0315648
0.0309673
0.0303882
0.0298287
0.0292794
0.0287339
0.0281923
0.0276606
0.0271593
0.0266988
0.0262534
0.025828
0.0254086
0.0250162
0.0246665
0.0240607
0.0421769
0.04234
0.042594
0.0427651
0.0428033
0.042783
0.042648
0.042466
0.042329
0.0422453
0.042204
0.0421872
0.0421741
0.0421543
0.0421208
0.0420772
0.0420382
0.0420078
0.0419817
0.0419582
0.0419379
0.0419211
0.0419075
0.0418971
0.0418901
0.041886
0.0418848
0.0418853
0.0418868
0.0418874
0.0418868
0.0418843
0.0418798
0.041874
0.0418684
0.0418642
0.0418619
0.0418619
0.0418646
0.0418698
0.0418778
0.0418881
0.0418997
0.0419124
0.0419262
0.0419414
0.0419583
0.0419771
0.0419974
0.042019
0.0420417
0.0420651
0.0420893
0.042114
0.042139
0.0421643
0.0421896
0.0422148
0.0422397
0.0422637
0.0422866
0.0423081
0.0423277
0.042345
0.0423594
0.0423707
0.0423784
0.0423822
0.0423822
0.0423759
0.0423648
0.0423473
0.0423228
0.042291
0.0422508
0.0422019
0.0421434
0.0420743
0.041994
0.0419015
0.0417954
0.0416747
0.0415385
0.0413855
0.041216
0.0410288
0.0408225
0.0405963
0.0403493
0.0400803
0.0397896
0.0394771
0.0391407
0.0387816
0.0383968
0.0379907
0.0375588
0.0371066
0.0366292
0.0361339
0.0356215
0.0350917
0.0345397
0.0339739
0.0333966
0.0328145
0.0322145
0.0316047
0.0310162
0.0304334
0.0298567
0.0292835
0.0286986
0.0281276
0.027585
0.0270627
0.0265695
0.0260786
0.0255977
0.0251687
0.0243415
0.0421537
0.0422721
0.0425218
0.0427414
0.0428121
0.0428119
0.0427201
0.0425443
0.0423925
0.0422947
0.0422452
0.0422271
0.0422178
0.0422055
0.0421806
0.0421413
0.042103
0.0420739
0.0420501
0.042029
0.042011
0.0419962
0.0419845
0.0419758
0.0419703
0.0419676
0.0419676
0.0419697
0.0419725
0.0419747
0.0419756
0.0419747
0.0419719
0.0419677
0.0419635
0.0419606
0.0419597
0.0419615
0.0419659
0.0419733
0.0419837
0.0419967
0.0420115
0.0420274
0.0420446
0.0420631
0.0420835
0.0421057
0.0421297
0.0421552
0.042182
0.0422097
0.0422384
0.0422678
0.0422978
0.0423284
0.0423593
0.0423904
0.0424216
0.0424524
0.0424826
0.0425117
0.0425395
0.0425656
0.0425895
0.042611
0.0426295
0.0426445
0.0426558
0.0426631
0.0426659
0.0426634
0.0426549
0.0426401
0.0426177
0.0425878
0.0425493
0.0425011
0.042443
0.0423737
0.0422923
0.0421982
0.0420905
0.041968
0.0418305
0.041676
0.0415031
0.041311
0.0410988
0.0408655
0.040611
0.0403346
0.0400344
0.0397109
0.0393619
0.0389903
0.0385926
0.0381731
0.0377284
0.0372661
0.0367811
0.0362722
0.0357393
0.0351859
0.0346333
0.0340654
0.0334965
0.0328839
0.032294
0.0316962
0.031121
0.0305483
0.029975
0.0293974
0.0288381
0.0282835
0.0277657
0.0272548
0.0267553
0.0262795
0.0253512
0.0421415
0.0422169
0.0424402
0.0426984
0.0428108
0.0428374
0.0427846
0.0426233
0.042455
0.0423437
0.0422864
0.0422673
0.0422614
0.0422553
0.0422393
0.042206
0.0421693
0.0421417
0.0421201
0.0421013
0.0420853
0.0420723
0.0420621
0.0420548
0.0420504
0.042049
0.04205
0.0420535
0.0420573
0.0420611
0.0420637
0.0420644
0.0420633
0.0420609
0.0420583
0.0420569
0.0420576
0.042061
0.042067
0.0420762
0.0420886
0.042104
0.0421216
0.0421406
0.042161
0.0421828
0.0422065
0.0422322
0.0422599
0.0422894
0.0423202
0.0423522
0.0423853
0.0424194
0.0424543
0.04249
0.0425264
0.0425632
0.0426004
0.0426377
0.0426748
0.0427113
0.0427469
0.0427812
0.042814
0.0428449
0.0428734
0.0428992
0.042922
0.0429412
0.0429564
0.0429671
0.042973
0.0429742
0.0429682
0.0429562
0.0429364
0.042908
0.0428714
0.0428249
0.042768
0.0426998
0.0426192
0.0425249
0.0424163
0.0422915
0.04215
0.0419914
0.0418147
0.0416188
0.0414032
0.0411661
0.0409063
0.040624
0.0403171
0.0399871
0.0396322
0.0392552
0.0388532
0.0384292
0.0379769
0.0375007
0.0369995
0.0364811
0.0359486
0.0354078
0.0348492
0.0342533
0.0336424
0.0330255
0.0324142
0.031813
0.0312185
0.030614
0.0300246
0.0294277
0.0288642
0.0283291
0.0278317
0.0273793
0.026564
0.042136
0.0421779
0.0423571
0.0426361
0.0428026
0.0428607
0.0428328
0.0426959
0.042519
0.0423959
0.0423306
0.0423084
0.0423045
0.0423027
0.0422954
0.0422707
0.0422375
0.0422113
0.0421915
0.0421743
0.0421598
0.0421479
0.042139
0.0421328
0.0421294
0.042129
0.0421313
0.0421357
0.0421407
0.0421458
0.0421501
0.0421527
0.0421533
0.0421528
0.042152
0.0421522
0.0421545
0.0421593
0.042167
0.0421778
0.0421921
0.0422096
0.0422296
0.0422515
0.0422748
0.0422997
0.0423266
0.0423556
0.0423868
0.0424199
0.0424547
0.0424908
0.0425282
0.0425667
0.0426062
0.0426468
0.0426883
0.0427305
0.0427734
0.0428168
0.0428603
0.0429037
0.0429466
0.0429888
0.0430299
0.0430697
0.0431077
0.0431436
0.0431771
0.0432079
0.0432354
0.0432594
0.043279
0.0432942
0.0433043
0.0433089
0.0433078
0.0432984
0.0432821
0.0432568
0.0432223
0.0431776
0.0431219
0.0430543
0.0429742
0.04288
0.0427715
0.0426475
0.0425067
0.0423476
0.0421694
0.0419703
0.0417499
0.0415079
0.0412426
0.0409544
0.0406422
0.0403072
0.039945
0.0395571
0.0391415
0.0387061
0.0382467
0.0377635
0.0372542
0.0367279
0.0361867
0.0356249
0.0350265
0.0344228
0.0337935
0.0331819
0.0325829
0.031972
0.0313555
0.030705
0.03007
0.0294435
0.0288413
0.0282874
0.0272481
0.042134
0.0421542
0.0422824
0.0425579
0.0427842
0.0428721
0.0428627
0.0427647
0.0425884
0.0424515
0.0423764
0.042349
0.0423457
0.0423486
0.0423488
0.0423342
0.0423058
0.0422805
0.0422617
0.0422455
0.0422318
0.0422209
0.042213
0.0422079
0.0422059
0.0422065
0.0422104
0.0422158
0.042222
0.0422284
0.0422342
0.0422387
0.0422414
0.0422428
0.0422439
0.0422459
0.0422498
0.0422563
0.0422657
0.0422781
0.0422939
0.0423133
0.0423356
0.0423601
0.0423862
0.042414
0.0424438
0.0424759
0.0425104
0.0425471
0.0425856
0.0426257
0.0426672
0.04271
0.0427541
0.0427993
0.0428457
0.0428932
0.0429415
0.0429907
0.0430403
0.0430902
0.04314
0.0431896
0.0432385
0.0432866
0.0433334
0.0433787
0.0434222
0.0434635
0.0435023
0.0435381
0.0435707
0.0435995
0.0436241
0.0436436
0.043658
0.0436666
0.0436693
0.0436641
0.0436512
0.0436297
0.043598
0.0435566
0.0435037
0.0434383
0.0433599
0.043267
0.0431584
0.043033
0.0428902
0.0427284
0.0425476
0.0423471
0.0421245
0.0418795
0.0416108
0.0413186
0.0409997
0.0406558
0.0402871
0.0398986
0.0394831
0.0390384
0.0385628
0.0380686
0.0375601
0.0370366
0.0364899
0.0359118
0.0353206
0.0347179
0.0341215
0.0335288
0.0329369
0.0323185
0.0317121
0.0310699
0.0304664
0.0299135
0.0289173
0.0421333
0.0421418
0.0422237
0.0424712
0.0427455
0.0428738
0.042884
0.0428267
0.0426599
0.0425075
0.0424222
0.042389
0.0423858
0.0423942
0.0424012
0.0423944
0.0423714
0.0423468
0.0423286
0.0423133
0.0423005
0.0422907
0.0422841
0.0422804
0.0422797
0.0422821
0.0422873
0.0422941
0.0423016
0.0423092
0.0423164
0.0423226
0.0423273
0.0423307
0.0423336
0.0423373
0.042343
0.0423511
0.0423621
0.0423761
0.0423935
0.0424147
0.042439
0.0424658
0.0424945
0.042525
0.0425576
0.0425925
0.04263
0.0426699
0.0427119
0.0427557
0.042801
0.0428479
0.0428961
0.0429458
0.0429968
0.0430491
0.0431025
0.043157
0.0432123
0.0432682
0.0433245
0.0433808
0.043437
0.0434928
0.0435478
0.0436018
0.0436546
0.0437058
0.0437552
0.0438023
0.0438468
0.0438883
0.0439265
0.0439608
0.0439909
0.0440158
0.0440352
0.0440486
0.0440553
0.0440561
0.0440464
0.0440292
0.0440014
0.0439625
0.0439125
0.0438496
0.0437731
0.0436821
0.0435758
0.0434523
0.0433116
0.0431516
0.0429706
0.0427678
0.042542
0.0422931
0.0420197
0.0417229
0.0414011
0.0410555
0.0406803
0.0402763
0.0398424
0.0393868
0.0389109
0.0384184
0.0379019
0.0373595
0.0367855
0.0361873
0.0355744
0.0349569
0.0343375
0.0337105
0.0330599
0.0323978
0.0317406
0.0311247
0.0300023
0.0421331
0.0421363
0.0421832
0.0423861
0.0426871
0.0428658
0.0429035
0.0428761
0.0427268
0.0425623
0.0424685
0.0424292
0.0424259
0.0424385
0.0424515
0.0424493
0.0424316
0.0424084
0.0423913
0.0423775
0.0423662
0.0423579
0.0423529
0.042351
0.0423518
0.0423561
0.0423627
0.0423709
0.0423795
0.0423881
0.0423965
0.0424043
0.0424108
0.0424161
0.0424208
0.0424262
0.0424334
0.0424432
0.0424557
0.0424713
0.0424904
0.0425132
0.0425395
0.0425686
0.0425997
0.0426327
0.0426678
0.0427054
0.0427456
0.0427885
0.0428337
0.042881
0.04293
0.0429806
0.0430328
0.0430867
0.043142
0.0431988
0.0432571
0.0433166
0.0433773
0.0434388
0.0435011
0.0435638
0.0436267
0.0436896
0.0437522
0.0438143
0.0438756
0.0439359
0.0439949
0.0440522
0.0441076
0.0441607
0.0442112
0.0442587
0.0443026
0.0443427
0.0443783
0.0444089
0.0444335
0.0444523
0.0444642
0.0444691
0.0444657
0.0444522
0.0444296
0.044395
0.0443489
0.0442897
0.0442165
0.0441279
0.044023
0.0439001
0.0437584
0.0435972
0.0434149
0.043211
0.0429849
0.0427367
0.0424626
0.0421626
0.0418351
0.0414838
0.0411056
0.0407015
0.0402707
0.0398192
0.0393442
0.0388461
0.0383173
0.037762
0.0371828
0.0365893
0.0359891
0.0353779
0.0347588
0.0341161
0.0334496
0.0328149
0.0316662
0.0421331
0.0421342
0.0421585
0.0423114
0.0426161
0.0428482
0.0429199
0.0429072
0.0427869
0.0426183
0.0425166
0.0424696
0.0424643
0.0424784
0.0424975
0.0424994
0.0424868
0.0424663
0.042451
0.0424394
0.0424302
0.0424239
0.0424206
0.0424201
0.0424229
0.0424287
0.0424366
0.042446
0.0424556
0.0424651
0.0424745
0.0424837
0.0424918
0.0424988
0.0425052
0.0425122
0.0425208
0.0425319
0.042546
0.0425631
0.0425837
0.0426082
0.0426364
0.0426677
0.0427012
0.0427366
0.042774
0.042814
0.0428567
0.0429022
0.0429504
0.0430008
0.0430531
0.0431073
0.0431632
0.0432208
0.0432801
0.0433411
0.0434037
0.0434679
0.0435334
0.0436002
0.0436679
0.0437364
0.0438054
0.0438748
0.0439443
0.0440138
0.0440829
0.0441515
0.0442193
0.044286
0.0443514
0.0444152
0.0444771
0.0445367
0.0445936
0.0446474
0.0446977
0.044744
0.0447858
0.0448225
0.0448535
0.044878
0.0448957
0.0449057
0.0449084
0.0449
0.0448822
0.0448528
0.0448105
0.0447555
0.044686
0.0446008
0.0444996
0.0443811
0.0442431
0.0440848
0.0439054
0.0437035
0.0434759
0.0432233
0.0429459
0.0426461
0.0423183
0.0419604
0.0415714
0.0411572
0.0407191
0.0402592
0.0397723
0.0392615
0.0387214
0.0381604
0.0375797
0.0369865
0.0363783
0.0357672
0.0351018
0.0344915
0.0334333
0.042133
0.0421334
0.0421452
0.0422522
0.0425405
0.042821
0.042926
0.0429277
0.0428415
0.0426758
0.042564
0.0425076
0.042498
0.0425129
0.0425396
0.0425469
0.0425389
0.0425218
0.0425088
0.0424998
0.042493
0.0424886
0.0424868
0.0424876
0.0424924
0.0424995
0.0425089
0.0425195
0.0425299
0.0425401
0.0425503
0.0425605
0.0425701
0.0425786
0.0425864
0.0425947
0.0426046
0.0426171
0.0426325
0.0426511
0.0426732
0.0426993
0.0427293
0.0427627
0.0427985
0.0428362
0.042876
0.0429181
0.0429632
0.0430112
0.043062
0.0431153
0.0431708
0.0432281
0.0432874
0.0433485
0.0434115
0.0434764
0.043543
0.0436115
0.0436815
0.043753
0.0438257
0.0438995
0.0439742
0.0440496
0.0441255
0.0442016
0.0442778
0.0443539
0.0444297
0.044505
0.0445794
0.0446528
0.0447248
0.0447953
0.0448638
0.04493
0.0449935
0.0450538
0.0451107
0.0451634
0.0452117
0.045255
0.0452925
0.0453234
0.0453473
0.0453633
0.0453711
0.0453711
0.0453571
0.0453344
0.0452979
0.0452478
0.0451834
0.0451028
0.0450045
0.0448874
0.0447502
0.0445916
0.0444104
0.0442072
0.04398
0.0437289
0.0434496
0.0431421
0.0428052
0.0424422
0.0420543
0.0416429
0.0412064
0.0407453
0.0402535
0.0397362
0.0391863
0.0386168
0.0380217
0.0374099
0.0367748
0.0361307
0.0350987
0.042133
0.0421332
0.0421387
0.0422099
0.0424678
0.0427837
0.0429234
0.0429462
0.0428894
0.0427313
0.0426056
0.042541
0.0425276
0.0425444
0.0425798
0.0425936
0.0425893
0.0425757
0.0425649
0.0425582
0.0425536
0.0425509
0.0425504
0.0425533
0.0425596
0.0425685
0.0425795
0.0425912
0.0426024
0.042613
0.0426237
0.0426347
0.0426454
0.0426552
0.0426643
0.0426737
0.0426847
0.0426983
0.0427149
0.0427349
0.0427585
0.0427862
0.042818
0.0428534
0.0428914
0.0429314
0.0429733
0.0430176
0.0430648
0.0431151
0.0431683
0.0432242
0.0432824
0.0433427
0.043405
0.0434692
0.0435356
0.0436039
0.0436742
0.0437465
0.0438206
0.0438963
0.0439736
0.0440522
0.0441319
0.0442126
0.0442942
0.0443763
0.0444589
0.0445418
0.0446247
0.0447076
0.0447901
0.0448721
0.0449533
0.0450335
0.0451124
0.0451897
0.0452651
0.0453381
0.0454086
0.0454759
0.0455396
0.0455994
0.0456547
0.0457049
0.0457494
0.0457876
0.0458181
0.0458412
0.0458554
0.045861
0.0458556
0.0458376
0.0458079
0.0457631
0.045704
0.0456283
0.0455351
0.0454232
0.0452919
0.0451398
0.0449637
0.0447634
0.0445368
0.0442858
0.0440067
0.0437004
0.0433656
0.0430038
0.0426155
0.0422
0.0417576
0.0412902
0.0407927
0.0402744
0.0397216
0.0391595
0.0385482
0.0379428
0.0370059
0.042133
0.0421331
0.0421357
0.0421821
0.0424039
0.0427408
0.0429163
0.0429642
0.0429294
0.0427784
0.0426396
0.0425715
0.0425558
0.0425748
0.0426194
0.0426396
0.0426378
0.0426272
0.0426183
0.0426134
0.0426109
0.04261
0.0426114
0.0426165
0.0426249
0.0426359
0.0426484
0.042661
0.0426726
0.0426833
0.0426942
0.0427057
0.0427173
0.0427281
0.0427382
0.0427485
0.0427605
0.0427751
0.0427928
0.0428141
0.0428392
0.0428684
0.042902
0.0429394
0.0429795
0.0430216
0.0430657
0.043112
0.0431612
0.0432136
0.043269
0.0433273
0.043388
0.0434509
0.043516
0.0435832
0.0436525
0.043724
0.0437976
0.0438734
0.0439511
0.0440307
0.0441121
0.044195
0.0442793
0.0443648
0.0444514
0.044539
0.0446273
0.0447162
0.0448055
0.0448952
0.0449849
0.0450745
0.0451639
0.0452527
0.0453408
0.0454279
0.0455137
0.045598
0.0456803
0.0457604
0.0458379
0.0459123
0.0459832
0.0460502
0.0461128
0.0461702
0.0462221
0.0462676
0.0463057
0.046336
0.0463577
0.0463698
0.046373
0.0463619
0.04634
0.046303
0.0462499
0.0461809
0.0460934
0.045986
0.0458564
0.0457045
0.0455291
0.0453303
0.0451039
0.0448498
0.0445647
0.0442515
0.0439098
0.0435392
0.0431423
0.0427157
0.0422611
0.0417764
0.0412582
0.0407158
0.0401294
0.0395096
0.0386612
0.042133
0.0421331
0.0421344
0.042165
0.0423525
0.0426974
0.0429099
0.042981
0.0429566
0.0428148
0.0426696
0.0426006
0.0425838
0.0426047
0.0426581
0.042684
0.0426836
0.0426755
0.0426679
0.0426649
0.0426648
0.0426667
0.0426703
0.0426779
0.0426888
0.0427018
0.0427154
0.0427283
0.0427397
0.0427502
0.0427609
0.0427727
0.0427848
0.0427964
0.0428073
0.0428185
0.0428314
0.0428469
0.0428659
0.0428885
0.0429151
0.0429459
0.0429812
0.0430206
0.0430628
0.043107
0.043153
0.0432013
0.0432524
0.0433067
0.0433642
0.0434246
0.0434876
0.043553
0.0436205
0.0436902
0.0437623
0.0438366
0.0439132
0.043992
0.044073
0.0441561
0.0442411
0.0443278
0.0444161
0.0445059
0.044597
0.0446893
0.0447826
0.0448768
0.0449717
0.0450673
0.0451633
0.0452596
0.0453561
0.0454525
0.0455486
0.0456443
0.0457392
0.0458332
0.045926
0.0460173
0.0461067
0.0461939
0.0462787
0.0463605
0.0464389
0.0465134
0.0465835
0.0466487
0.0467084
0.0467619
0.0468084
0.0468466
0.0468765
0.0468965
0.0469065
0.0469066
0.046889
0.0468609
0.0468152
0.0467524
0.0466718
0.0465716
0.0464497
0.0463051
0.0461348
0.0459387
0.0457135
0.0454615
0.0451798
0.04487
0.0445324
0.0441646
0.0437703
0.0433408
0.042881
0.0423827
0.0418469
0.0412489
0.0404646
0.042133
0.0421331
0.0421338
0.042155
0.0423147
0.0426591
0.0429052
0.0429928
0.0429745
0.0428439
0.0426961
0.0426276
0.0426109
0.0426337
0.0426954
0.042726
0.0427265
0.0427201
0.0427142
0.0427132
0.0427166
0.0427214
0.0427278
0.0427382
0.0427513
0.0427655
0.0427794
0.0427917
0.0428023
0.042812
0.0428224
0.0428342
0.0428468
0.0428591
0.0428707
0.0428829
0.0428967
0.0429135
0.0429337
0.0429578
0.0429859
0.0430185
0.0430556
0.0430969
0.0431411
0.0431873
0.0432353
0.0432854
0.0433382
0.0433943
0.0434537
0.0435161
0.0435812
0.0436487
0.0437185
0.0437905
0.0438649
0.0439417
0.044021
0.0441026
0.0441864
0.0442726
0.0443607
0.0444508
0.0445427
0.0446362
0.0447313
0.0448277
0.0449255
0.0450243
0.0451242
0.045225
0.0453265
0.0454287
0.0455313
0.0456342
0.0457374
0.0458404
0.0459433
0.0460458
0.0461476
0.0462484
0.0463482
0.0464464
0.046543
0.0466375
0.0467295
0.0468187
0.0469047
0.046987
0.047065
0.0471382
0.0472059
0.0472677
0.0473227
0.0473701
0.0474083
0.047438
0.0474567
0.047465
0.0474605
0.0474396
0.0474051
0.0473516
0.0472791
0.0471854
0.0470689
0.0469285
0.0467609
0.0465664
0.04634
0.0460846
0.0457964
0.0454774
0.0451273
0.0447397
0.0443194
0.0438559
0.0433574
0.0427939
0.0420609
0.042133
0.042133
0.0421336
0.0421497
0.0422896
0.04263
0.042902
0.0430013
0.0429876
0.0428655
0.0427183
0.0426517
0.0426365
0.0426621
0.0427316
0.0427656
0.0427666
0.0427613
0.0427576
0.0427599
0.0427669
0.0427748
0.0427841
0.0427969
0.0428114
0.0428257
0.0428387
0.0428496
0.0428587
0.0428673
0.0428773
0.0428892
0.0429024
0.0429153
0.0429279
0.0429411
0.0429562
0.0429743
0.0429961
0.0430218
0.0430517
0.0430861
0.0431251
0.0431683
0.0432145
0.0432626
0.0433124
0.0433642
0.0434188
0.0434765
0.0435377
0.0436019
0.0436689
0.0437384
0.0438101
0.0438843
0.0439608
0.0440398
0.0441214
0.0442054
0.0442919
0.0443807
0.0444717
0.0445647
0.0446597
0.0447565
0.044855
0.0449551
0.0450566
0.0451595
0.0452637
0.0453689
0.0454752
0.0455823
0.0456903
0.0457988
0.0459079
0.0460173
0.0461269
0.0462365
0.046346
0.046455
0.0465635
0.0466712
0.0467777
0.046883
0.0469866
0.0470883
0.0471878
0.0472845
0.0473782
0.0474683
0.0475545
0.0476361
0.0477126
0.0477834
0.0478477
0.0479046
0.047953
0.047992
0.0480208
0.048038
0.0480438
0.048033
0.048007
0.0479635
0.0479
0.0478156
0.0477071
0.0475735
0.0474102
0.0472191
0.0469941
0.0467394
0.0464491
0.0461217
0.0457548
0.0453378
0.0448814
0.0443535
0.0436725
0.042133
0.042133
0.0421335
0.0421475
0.0422764
0.0426131
0.0429019
0.0430088
0.0429976
0.0428802
0.0427358
0.0426724
0.0426602
0.0426906
0.0427671
0.0428034
0.0428046
0.0427998
0.0427985
0.0428049
0.0428155
0.0428264
0.0428384
0.0428528
0.0428676
0.0428809
0.042892
0.0429007
0.042908
0.0429157
0.0429253
0.0429375
0.0429512
0.0429651
0.0429787
0.0429932
0.0430097
0.0430294
0.0430529
0.0430805
0.0431123