/*--------------------------------*- C++ -*----------------------------------*\
| =========                 |                                                 |
| \\      /  F ield         | OpenFOAM: The Open Source CFD Toolbox           |
|  \\    /   O peration     | Version:  2412                                  |
|   \\  /    A nd           | Website:  www.openfoam.com                      |
|    \\/     M anipulation  |                                                 |
\*---------------------------------------------------------------------------*/
FoamFile
{
    version     2.0;
    format      ascii;
    arch        "LSB;label=32;scalar=64";
    class       volScalarField;
    location    "0.028";
    object      T;
}
// * * * * * * * * * * * * * * * * * * * * * * * * * * * * * * * * * * * * * //

dimensions      [0 0 0 1 0 0 0];

internalField   nonuniform List<scalar> 
78650
(
223
223
223
223
223
223
223
223
223
223
223
223
223
223.005
223.073
223.365
223.842
224.185
224.257
224.23
223.976
223.562
223.189
222.915
222.729
222.614
222.529
222.44
222.334
222.218
222.106
222.004
221.911
221.828
221.754
221.686
221.621
221.561
221.506
221.458
221.417
221.381
221.351
221.323
221.296
221.269
221.239
221.21
221.183
221.162
221.149
221.145
221.147
221.155
221.165
221.179
221.193
221.206
221.218
221.226
221.231
221.232
221.228
221.22
221.205
221.184
221.154
221.116
221.069
221.01
220.939
220.854
220.754
220.636
220.5
220.344
220.164
219.958
219.724
219.457
219.156
218.816
218.433
218.003
217.523
216.99
216.396
215.737
215.006
214.204
213.318
212.346
211.27
210.111
208.849
207.49
206.03
204.448
202.755
200.938
199.003
196.961
194.88
192.775
190.68
188.459
186.308
184.168
182.03
179.982
177.986
176.116
174.26
172.513
171.063
169.811
168.796
167.945
167.419
167.235
165.745
223
223
223
223
223
223
223
223
223
223
223
223
223
223.003
223.047
223.284
223.755
224.154
224.268
224.27
224.079
223.683
223.289
222.994
222.796
222.676
222.595
222.516
222.419
222.31
222.203
222.103
222.013
221.931
221.858
221.791
221.729
221.67
221.615
221.568
221.527
221.493
221.466
221.443
221.424
221.405
221.385
221.364
221.342
221.325
221.313
221.309
221.31
221.317
221.329
221.343
221.36
221.379
221.396
221.412
221.425
221.435
221.442
221.445
221.443
221.435
221.421
221.398
221.368
221.327
221.276
221.212
221.134
221.041
220.932
220.804
220.655
220.483
220.286
220.06
219.802
219.509
219.176
218.802
218.382
217.912
217.384
216.796
216.142
215.417
214.608
213.714
212.724
211.649
210.469
209.197
207.816
206.329
204.738
203.044
201.287
199.434
197.5
195.401
193.291
191.104
188.882
186.688
184.453
182.356
180.295
178.356
176.523
174.677
172.926
171.411
170.238
169.28
168.547
168.101
166.287
223
223
223
223
223
223
223
223
223
223
223
223
223
223.001
223.028
223.211
223.656
224.105
224.273
224.309
224.173
223.803
223.39
223.073
222.866
222.741
222.664
222.593
222.506
222.405
222.302
222.205
222.116
222.036
221.964
221.898
221.837
221.78
221.726
221.68
221.64
221.608
221.582
221.563
221.55
221.538
221.527
221.515
221.502
221.49
221.483
221.481
221.484
221.492
221.505
221.521
221.54
221.562
221.585
221.607
221.627
221.646
221.663
221.676
221.686
221.691
221.691
221.683
221.669
221.646
221.613
221.569
221.513
221.444
221.359
221.258
221.139
220.998
220.835
220.645
220.428
220.178
219.892
219.568
219.201
218.788
218.324
217.804
217.223
216.576
215.853
215.055
214.172
213.209
212.145
210.984
209.704
208.312
206.803
205.164
203.418
201.574
199.694
197.694
195.612
193.492
191.266
189.14
186.912
184.693
182.524
180.308
178.209
176.269
174.418
172.695
171.279
170.211
169.565
169.264
167.5
223
223
223
223
223
223
223
223
223
223
223
223
223
223.001
223.016
223.148
223.549
224.039
224.273
224.344
224.256
223.922
223.497
223.161
222.943
222.811
222.736
222.673
222.596
222.503
222.404
222.31
222.222
222.143
222.071
222.007
221.947
221.891
221.84
221.795
221.756
221.726
221.702
221.686
221.676
221.67
221.666
221.662
221.658
221.655
221.654
221.657
221.664
221.675
221.689
221.708
221.73
221.755
221.781
221.809
221.836
221.862
221.887
221.91
221.931
221.947
221.959
221.966
221.967
221.961
221.946
221.921
221.885
221.838
221.777
221.702
221.61
221.5
221.37
221.216
221.037
220.83
220.59
220.315
220.002
219.647
219.246
218.793
218.283
217.711
217.072
216.365
215.579
214.711
213.746
212.688
211.524
210.262
208.891
207.408
205.796
204.048
202.148
200.217
198.155
196.109
193.916
191.653
189.432
187.093
184.876
182.654
180.378
178.224
176.171
174.247
172.564
171.123
170.21
169.731
167.762
223
223
223
223
223
223
223
223
223
223
223
223
223
223
223.008
223.096
223.438
223.951
224.266
224.375
224.317
224.038
223.612
223.258
223.027
222.885
222.81
222.755
222.688
222.604
222.51
222.417
222.33
222.251
222.18
222.116
222.058
222.005
221.955
221.913
221.877
221.848
221.827
221.813
221.806
221.804
221.806
221.809
221.813
221.818
221.826
221.835
221.848
221.864
221.883
221.904
221.929
221.957
221.988
222.02
222.053
222.087
222.119
222.151
222.181
222.209
222.234
222.253
222.268
222.277
222.279
222.272
222.257
222.23
222.192
222.141
222.075
221.994
221.894
221.773
221.63
221.461
221.264
221.035
220.771
220.468
220.124
219.733
219.29
218.793
218.233
217.609
216.909
216.129
215.255
214.292
213.227
212.069
210.808
209.442
207.96
206.357
204.62
202.77
200.808
198.682
196.571
194.246
192.001
189.651
187.269
184.966
182.62
180.369
178.207
176.236
174.541
173.081
171.918
171.091
168.53
223
223
223
223
223
223
223
223
223
223
223
223
223
223
223.004
223.058
223.329
223.841
224.241
224.395
224.363
224.151
223.741
223.369
223.118
222.966
222.889
222.84
222.782
222.707
222.618
222.526
222.44
222.361
222.29
222.228
222.172
222.121
222.074
222.034
222.001
221.976
221.957
221.946
221.942
221.943
221.948
221.957
221.967
221.98
221.996
222.013
222.034
222.056
222.08
222.106
222.135
222.168
222.203
222.24
222.278
222.317
222.357
222.397
222.436
222.474
222.509
222.541
222.57
222.593
222.61
222.62
222.623
222.616
222.6
222.572
222.532
222.477
222.406
222.318
222.209
222.078
221.922
221.738
221.522
221.272
220.984
220.654
220.277
219.849
219.363
218.817
218.199
217.507
216.73
215.869
214.916
213.87
212.717
211.447
210.051
208.537
206.908
205.127
203.274
201.236
199.18
196.99
194.706
192.42
189.997
187.633
185.186
182.797
180.338
177.928
175.878
174.288
173.275
172.679
170.258
223
223
223
223
223
223
223
223
223
223
223
223
223
223
223.002
223.031
223.23
223.711
224.187
224.402
224.398
224.26
223.879
223.489
223.216
223.052
222.971
222.926
222.876
222.809
222.725
222.636
222.55
222.472
222.402
222.341
222.289
222.241
222.197
222.16
222.13
222.108
222.092
222.085
222.083
222.087
222.096
222.108
222.124
222.143
222.165
222.19
222.218
222.248
222.279
222.312
222.347
222.384
222.425
222.467
222.511
222.556
222.602
222.65
222.697
222.744
222.79
222.834
222.874
222.911
222.943
222.969
222.989
223.001
223.005
222.999
222.982
222.953
222.91
222.851
222.774
222.678
222.559
222.415
222.244
222.041
221.805
221.531
221.215
220.853
220.439
219.971
219.44
218.842
218.169
217.419
216.581
215.651
214.612
213.46
212.192
210.812
209.314
207.7
205.943
204.064
201.988
199.899
197.594
195.312
192.898
190.496
188.082
185.595
183.218
180.845
178.503
176.293
174.546
173.44
170.415
223
223
223
223
223
223
223
223
223
223
223
223
223
223
223.001
223.015
223.148
223.569
224.099
224.396
224.431
224.356
224.021
223.62
223.325
223.148
223.057
223.011
222.967
222.908
222.831
222.745
222.661
222.584
222.516
222.458
222.409
222.364
222.325
222.29
222.264
222.245
222.233
222.229
222.23
222.237
222.248
222.264
222.284
222.307
222.335
222.367
222.402
222.439
222.478
222.518
222.559
222.603
222.649
222.697
222.747
222.799
222.852
222.906
222.961
223.017
223.073
223.127
223.179
223.229
223.274
223.316
223.352
223.381
223.403
223.418
223.423
223.419
223.402
223.372
223.326
223.263
223.18
223.076
222.948
222.792
222.606
222.387
222.13
221.831
221.486
221.091
220.637
220.124
219.54
218.884
218.141
217.308
216.373
215.336
214.195
212.946
211.572
210.066
208.421
206.643
204.692
202.651
200.44
198.103
195.735
193.203
190.722
188.057
185.416
182.984
180.712
178.878
177.25
175.964
172.264
223
223
223
223
223
223
223
223
223
223
223
223
223
223
223
223.006
223.086
223.426
223.978
224.369
224.462
224.428
224.161
223.764
223.447
223.248
223.142
223.091
223.051
223.002
222.935
222.855
222.774
222.7
222.634
222.579
222.533
222.493
222.457
222.426
222.403
222.388
222.38
222.378
222.383
222.392
222.406
222.425
222.448
222.476
222.508
222.544
222.585
222.629
222.675
222.723
222.772
222.822
222.875
222.93
222.987
223.045
223.105
223.166
223.229
223.294
223.358
223.422
223.486
223.547
223.606
223.662
223.713
223.759
223.799
223.833
223.859
223.876
223.883
223.88
223.863
223.831
223.782
223.714
223.624
223.51
223.37
223.201
222.998
222.759
222.478
222.152
221.775
221.344
220.849
220.286
219.642
218.915
218.097
217.186
216.175
215.051
213.803
212.426
210.911
209.266
207.498
205.535
203.498
201.2
198.9
196.426
193.901
191.31
188.605
185.982
183.306
180.823
178.954
177.755
174.203
223
223
223
223
223
223
223
223
223
223
223
223
223
223
223
223.002
223.044
223.293
223.83
224.313
224.474
224.48
224.299
223.923
223.576
223.347
223.222
223.166
223.132
223.094
223.04
222.968
222.892
222.82
222.757
222.704
222.662
222.626
222.595
222.568
222.548
222.535
222.53
222.532
222.539
222.551
222.568
222.59
222.617
222.648
222.683
222.723
222.768
222.818
222.871
222.925
222.981
223.039
223.1
223.162
223.226
223.291
223.358
223.426
223.497
223.569
223.643
223.717
223.79
223.863
223.934
224.003
224.069
224.13
224.187
224.239
224.285
224.323
224.353
224.373
224.383
224.382
224.365
224.333
224.28
224.208
224.112
223.99
223.84
223.657
223.437
223.176
222.87
222.515
222.102
221.629
221.084
220.467
219.768
218.981
218.095
217.092
215.967
214.72
213.343
211.834
210.178
208.384
206.423
204.298
201.982
199.591
197.074
194.521
191.793
189.117
186.444
184.013
181.744
179.959
175.718
223
223
223
223
223
223
223
223
223
223
223
223
223
223
223
223.001
223.02
223.184
223.663
224.22
224.467
224.529
224.424
224.083
223.705
223.445
223.302
223.241
223.213
223.187
223.146
223.084
223.013
222.945
222.885
222.835
222.797
222.765
222.738
222.714
222.698
222.687
222.685
222.69
222.699
222.714
222.734
222.759
222.789
222.823
222.862
222.905
222.954
223.008
223.065
223.126
223.189
223.254
223.321
223.391
223.462
223.535
223.61
223.686
223.765
223.845
223.927
224.01
224.094
224.177
224.26
224.342
224.421
224.497
224.57
224.639
224.703
224.761
224.812
224.856
224.89
224.914
224.926
224.927
224.909
224.874
224.818
224.74
224.637
224.506
224.343
224.145
223.906
223.625
223.293
222.906
222.454
221.936
221.34
220.658
219.879
218.993
218
216.896
215.669
214.311
212.798
211.136
209.316
207.337
205.109
202.731
200.18
197.574
194.757
191.898
189.064
186.438
184.188
182.418
177.605
223
223
223
223
223
223
223
223
223
223
223
223
223
223
223
223
223.008
223.103
223.492
224.088
224.447
224.573
224.515
224.231
223.838
223.549
223.389
223.321
223.297
223.278
223.25
223.201
223.137
223.074
223.018
222.971
222.936
222.908
222.885
222.865
222.851
222.843
222.842
222.85
222.862
222.879
222.901
222.93
222.963
223.001
223.043
223.089
223.141
223.198
223.26
223.325
223.394
223.465
223.539
223.616
223.695
223.775
223.858
223.942
224.028
224.116
224.207
224.299
224.392
224.486
224.58
224.673
224.765
224.855
224.943
225.027
225.108
225.185
225.257
225.322
225.38
225.43
225.469
225.497
225.513
225.515
225.498
225.463
225.405
225.322
225.212
225.072
224.895
224.68
224.42
224.111
223.747
223.323
222.83
222.261
221.604
220.855
220.009
219.054
217.976
216.761
215.397
213.892
212.224
210.397
208.41
206.22
203.876
201.367
198.733
195.817
193.009
190.167
187.633
185.63
180.71
223
223
223
223
223
223
223
223
223
223
223
223
223
223
223
223
223.003
223.051
223.335
223.923
224.404
224.594
224.573
224.371
223.984
223.665
223.483
223.402
223.378
223.366
223.353
223.319
223.266
223.208
223.155
223.11
223.077
223.052
223.033
223.016
223.004
222.998
222.999
223.01
223.024
223.043
223.069
223.1
223.137
223.178
223.224
223.273
223.328
223.388
223.453
223.523
223.597
223.673
223.754
223.837
223.923
224.011
224.101
224.193
224.287
224.384
224.483
224.584
224.686
224.79
224.894
224.999
225.103
225.206
225.308
225.407
225.504
225.598
225.688
225.774
225.853
225.926
225.991
226.047
226.091
226.123
226.141
226.145
226.128
226.092
226.031
225.943
225.825
225.674
225.484
225.253
224.973
224.639
224.241
223.774
223.228
222.599
221.877
221.046
220.097
219.017
217.797
216.437
214.915
213.236
211.367
209.303
207.042
204.525
201.98
199.031
196.106
193.327
190.736
188.601
183.398
223
223
223
223
223
223
223
223
223
223
223
223
223
223
223
223
223.001
223.022
223.207
223.738
224.319
224.595
224.614
224.498
224.137
223.788
223.58
223.483
223.459
223.455
223.454
223.438
223.396
223.343
223.292
223.247
223.215
223.194
223.177
223.164
223.155
223.151
223.154
223.167
223.184
223.206
223.235
223.27
223.31
223.354
223.403
223.456
223.514
223.577
223.646
223.72
223.798
223.879
223.964
224.053
224.146
224.241
224.338
224.437
224.539
224.644
224.751
224.86
224.972
225.085
225.2
225.315
225.43
225.546
225.66
225.774
225.885
225.995
226.103
226.207
226.307
226.401
226.49
226.571
226.643
226.706
226.757
226.794
226.816
226.822
226.807
226.77
226.706
226.613
226.486
226.323
226.117
225.863
225.553
225.185
224.749
224.239
223.642
222.945
222.142
221.222
220.174
218.992
217.653
216.158
214.473
212.595
210.515
208.248
205.735
203.047
200.01
197.018
194.098
191.643
185.915
223
223
223
223
223
223
223
223
223
223
223
223
223
223
223
223
223
223.009
223.116
223.552
224.188
224.574
224.653
224.599
224.284
223.913
223.681
223.567
223.541
223.544
223.553
223.549
223.518
223.47
223.422
223.379
223.348
223.328
223.316
223.307
223.3
223.298
223.304
223.319
223.339
223.365
223.398
223.436
223.479
223.527
223.58
223.636
223.697
223.763
223.836
223.914
223.996
224.082
224.171
224.266
224.364
224.465
224.569
224.676
224.785
224.897
225.012
225.13
225.25
225.373
225.497
225.622
225.749
225.875
226.002
226.129
226.254
226.379
226.502
226.624
226.742
226.856
226.966
227.071
227.168
227.258
227.338
227.408
227.464
227.506
227.532
227.541
227.528
227.489
227.422
227.323
227.187
227.012
226.789
226.515
226.181
225.779
225.297
224.725
224.059
223.285
222.392
221.366
220.186
218.849
217.329
215.633
213.719
211.602
209.278
206.729
203.857
200.92
198.062
195.766
190.606
223
223
223
223
223
223
223
223
223
223
223
223
223
223
223
223
223
223.003
223.059
223.385
224.026
224.527
224.683
224.662
224.419
224.046
223.789
223.655
223.622
223.626
223.642
223.646
223.628
223.589
223.545
223.505
223.475
223.457
223.448
223.443
223.44
223.441
223.449
223.467
223.491
223.521
223.557
223.599
223.646
223.697
223.752
223.812
223.876
223.946
224.022
224.104
224.19
224.28
224.375
224.474
224.577
224.684
224.794
224.907
225.023
225.142
225.264
225.39
225.518
225.65
225.783
225.918
226.054
226.192
226.33
226.468
226.607
226.745
226.883
227.02
227.156
227.289
227.418
227.544
227.665
227.78
227.887
227.986
228.075
228.153
228.217
228.265
228.296
228.307
228.295
228.256
228.185
228.079
227.933
227.742
227.497
227.192
226.818
226.368
225.833
225.2
224.456
223.585
222.572
221.411
220.075
218.565
216.842
214.919
212.742
210.33
207.768
204.763
201.686
198.929
193.073
223
223
223
223
223
223
223
223
223
223
223
223
223
223
223
223
223
223.001
223.027
223.249
223.848
224.453
224.688
224.706
224.544
224.184
223.899
223.74
223.695
223.697
223.722
223.735
223.728
223.7
223.664
223.627
223.599
223.583
223.576
223.574
223.575
223.579
223.59
223.611
223.638
223.672
223.712
223.757
223.808
223.862
223.921
223.984
224.051
224.124
224.204
224.29
224.38
224.475
224.573
224.677
224.785
224.897
225.012
225.131
225.253
225.379
225.508
225.641
225.777
225.917
226.058
226.203
226.349
226.496
226.645
226.795
226.945
227.096
227.248
227.399
227.55
227.7
227.848
227.993
228.134
228.272
228.404
228.529
228.647
228.756
228.854
228.94
229.011
229.065
229.1
229.115
229.105
229.064
228.989
228.874
228.715
228.505
228.238
227.905
227.497
226.999
226.401
225.686
224.846
223.866
222.723
221.413
219.896
218.177
216.202
214.006
211.576
209.008
206.132
203.609
198.371
223
223
223
223
223
223
223
223
223
223
223
223
223
223
223
223
223
223
223.011
223.151
223.672
224.35
224.673
224.747
224.653
224.319
223.998
223.818
223.761
223.762
223.797
223.823
223.823
223.808
223.78
223.748
223.721
223.705
223.7
223.702
223.708
223.714
223.729
223.752
223.784
223.821
223.864
223.913
223.966
224.024
224.085
224.151
224.222
224.298
224.381
224.471
224.565
224.664
224.767
224.874
224.987
225.103
225.224
225.348
225.476
225.608
225.743
225.883
226.026
226.172
226.322
226.475
226.63
226.786
226.945
227.105
227.267
227.429
227.593
227.758
227.923
228.088
228.251
228.414
228.575
228.733
228.887
229.037
229.181
229.318
229.447
229.567
229.675
229.77
229.849
229.91
229.95
229.968
229.96
229.916
229.836
229.712
229.539
229.308
229.009
228.63
228.163
227.593
226.91
226.096
225.132
224.004
222.675
221.144
219.371
217.365
215.086
212.546
209.841
206.979
201.731
223
223
223
223
223
223
223
223
223
223
223
223
223
223
223
223
223
223
223.005
223.087
223.512
224.224
224.646
224.789
224.734
224.432
224.088
223.894
223.826
223.826
223.87
223.912
223.919
223.911
223.891
223.864
223.839
223.825
223.822
223.829
223.838
223.848
223.867
223.894
223.928
223.968
224.014
224.065
224.121
224.182
224.246
224.315
224.388
224.468
224.554
224.647
224.745
224.848
224.955
225.066
225.183
225.304
225.429
225.558
225.691
225.828
225.969
226.115
226.264
226.418
226.575
226.735
226.898
227.064
227.231
227.401
227.573
227.746
227.921
228.097
228.275
228.454
228.633
228.811
228.989
229.165
229.339
229.51
229.678
229.84
229.996
230.146
230.287
230.417
230.536
230.641
230.729
230.796
230.842
230.862
230.856
230.808
230.721
230.582
230.386
230.125
229.791
229.367
228.844
228.202
227.421
226.486
225.372
224.071
222.538
220.764
218.702
216.436
213.926
211.363
206.665
223
223
223
223
223
223
223
223
223
223
223
223
223
223
223
223
223
223
223.002
223.049
223.379
224.088
224.618
224.816
224.785
224.531
224.174
223.969
223.89
223.89
223.94
223.998
224.012
224.008
223.995
223.975
223.954
223.943
223.943
223.956
223.969
223.983
224.005
224.035
224.072
224.114
224.162
224.216
224.274
224.336
224.403
224.475
224.551
224.633
224.722
224.818
224.92
225.027
225.137
225.253
225.373
225.498
225.628
225.761
225.899
226.041
226.187
226.338
226.493
226.652
226.816
226.983
227.154
227.327
227.503
227.681
227.862
228.045
228.23
228.417
228.606
228.797
228.989
229.182
229.375
229.567
229.759
229.949
230.137
230.322
230.503
230.679
230.849
231.012
231.165
231.308
231.437
231.552
231.65
231.724
231.775
231.799
231.793
231.74
231.644
231.49
231.276
230.981
230.598
230.105
229.489
228.729
227.803
226.693
225.363
223.801
221.966
219.903
217.506
215.03
210.848
223
223
223
223
223
223
223
223
223
223
223
223
223
223
223
223
223
223
223.001
223.028
223.279
223.957
224.58
224.83
224.82
224.614
224.257
224.042
223.952
223.949
224.005
224.078
224.101
224.101
224.095
224.082
224.067
224.06
224.065
224.082
224.1
224.117
224.141
224.174
224.213
224.258
224.308
224.363
224.423
224.488
224.558
224.632
224.711
224.796
224.887
224.985
225.09
225.2
225.314
225.433
225.557
225.686
225.819
225.957
226.099
226.245
226.396
226.551
226.711
226.876
227.046
227.22
227.397
227.577
227.76
227.946
228.135
228.327
228.521
228.718
228.918
229.12
229.323
229.529
229.735
229.942
230.149
230.357
230.563
230.768
230.97
231.169
231.365
231.555
231.738
231.915
232.081
232.236
232.378
232.504
232.611
232.693
232.75
232.776
232.769
232.709
232.598
232.417
232.163
231.815
231.366
230.789
230.066
229.172
228.072
226.739
225.142
223.264
221.097
218.651
214.969
223
223
223
223
223
223
223
223
223
223
223
223
223
223
223
223
223
223
223
223.016
223.208
223.844
224.534
224.838
224.848
224.684
224.331
224.108
224.008
224.001
224.064
224.152
224.188
224.193
224.194
224.187
224.178
224.175
224.185
224.206
224.226
224.246
224.272
224.307
224.349
224.397
224.449
224.507
224.57
224.638
224.71
224.786
224.868
224.955
225.048
225.149
225.256
225.369
225.486
225.608
225.735
225.867
226.004
226.145
226.291
226.441
226.596
226.756
226.921
227.09
227.265
227.444
227.627
227.814
228.004
228.197
228.393
228.593
228.795
229.001
229.209
229.421
229.635
229.852
230.07
230.289
230.511
230.733
230.955
231.177
231.398
231.617
231.835
232.049
232.259
232.465
232.663
232.854
233.034
233.203
233.358
233.496
233.613
233.703
233.765
233.793
233.782
233.711
233.585
233.38
233.091
232.688
232.156
231.465
230.584
229.492
228.149
226.512
224.602
222.283
218.979
223
223
223
223
223
223
223
223
223
223
223
223
223
223
223
223
223
223
223
223.01
223.161
223.754
224.489
224.842
224.874
224.739
224.395
224.163
224.057
224.048
224.122
224.224
224.272
224.286
224.291
224.29
224.284
224.284
224.297
224.322
224.344
224.366
224.394
224.432
224.477
224.529
224.585
224.646
224.712
224.783
224.858
224.937
225.021
225.11
225.205
225.308
225.417
225.532
225.652
225.777
225.907
226.042
226.182
226.326
226.475
226.629
226.788
226.951
227.12
227.294
227.474
227.658
227.846
228.038
228.234
228.433
228.636
228.842
229.052
229.266
229.482
229.703
229.926
230.152
230.381
230.611
230.845
231.079
231.316
231.552
231.79
232.027
232.264
232.499
232.732
232.962
233.188
233.409
233.623
233.829
234.025
234.209
234.377
234.527
234.655
234.754
234.821
234.851
234.837
234.75
234.597
234.343
233.984
233.483
232.811
231.937
230.797
229.367
227.659
225.532
222.523
223
223
223
223
223
223
223
223
223
223
223
223
223
223
223
223
223
223
223
223.008
223.133
223.692
224.454
224.845
224.898
224.781
224.444
224.207
224.101
224.092
224.179
224.297
224.356
224.377
224.386
224.388
224.384
224.385
224.401
224.428
224.451
224.475
224.507
224.548
224.597
224.653
224.714
224.78
224.85
224.925
225.003
225.085
225.171
225.262
225.359
225.463
225.574
225.692
225.814
225.941
226.073
226.21
226.353
226.501
226.653
226.81
226.972
227.139
227.311
227.489
227.673
227.861
228.054
228.251
228.452
228.657
228.866
229.078
229.294
229.514
229.738
229.966
230.197
230.432
230.67
230.91
231.154
231.4
231.648
231.897
232.149
232.401
232.654
232.907
233.16
233.411
233.661
233.907
234.15
234.388
234.619
234.842
235.054
235.254
235.437
235.602
235.742
235.849
235.921
235.949
235.924
235.814
235.627
235.319
234.877
234.264
233.412
232.28
230.797
228.851
226.075
223
223
223
223
223
223
223
223
223
223
223
223
223
223
223
223
223
223
223
223.007
223.12
223.658
224.439
224.85
224.919
224.809
224.478
224.241
224.141
224.136
224.239
224.37
224.437
224.464
224.476
224.48
224.477
224.479
224.497
224.525
224.551
224.578
224.612
224.657
224.711
224.772
224.837
224.908
224.982
225.061
225.142
225.227
225.315
225.408
225.507
225.613
225.726
225.845
225.969
226.098
226.233
226.373
226.518
226.668
226.823
226.983
227.148
227.318
227.493
227.675
227.862
228.054
228.252
228.453
228.658
228.868
229.082
229.299
229.521
229.747
229.977
230.212
230.45
230.692
230.938
231.187
231.439
231.695
231.953
232.214
232.477
232.743
233.01
233.278
233.547
233.817
234.086
234.354
234.621
234.886
235.146
235.402
235.651
235.893
236.123
236.341
236.541
236.721
236.874
236.991
237.07
237.099
237.065
236.933
236.697
236.308
235.714
234.862
233.609
231.907
229.33
223
223
223
223
223
223
223
223
223
223
223
223
223
223
223
223
223
223
223
223.006
223.118
223.653
224.441
224.862
224.937
224.823
224.496
224.269
224.18
224.18
224.302
224.442
224.514
224.544
224.559
224.565
224.563
224.567
224.589
224.619
224.647
224.676
224.714
224.762
224.82
224.885
224.955
225.03
225.108
225.19
225.275
225.363
225.454
225.55
225.651
225.759
225.873
225.994
226.12
226.251
226.387
226.529
226.676
226.829
226.986
227.149
227.316
227.489
227.668
227.852
228.043
228.239
228.439
228.645
228.854
229.068
229.286
229.509
229.735
229.967
230.202
230.443
230.687
230.936
231.188
231.445
231.705
231.969
232.236
232.507
232.781
233.057
233.336
233.617
233.901
234.185
234.472
234.758
235.045
235.332
235.617
235.901
236.181
236.457
236.726
236.988
237.239
237.477
237.697
237.897
238.065
238.194
238.276
238.296
238.229
238.047
237.73
237.21
236.287
234.981
232.605
223
223
223
223
223
223
223
223
223
223
223
223
223
223
223
223
223
223
223
223.007
223.123
223.673
224.463
224.88
224.95
224.825
224.501
224.292
224.218
224.228
224.368
224.513
224.584
224.616
224.633
224.641
224.643
224.651
224.677
224.71
224.741
224.773
224.813
224.865
224.926
224.994
225.067
225.145
225.227
225.313
225.401
225.492
225.586
225.684
225.787
225.897
226.014
226.137
226.264
226.397
226.535
226.679
226.828
226.983
227.143
227.308
227.478
227.653
227.834
228.022
228.215
228.414
228.618
228.827
229.04
229.258
229.48
229.707
229.938
230.174
230.415
230.66
230.91
231.164
231.423
231.686
231.953
232.224
232.5
232.779
233.061
233.347
233.637
233.929
234.224
234.522
234.823
235.125
235.429
235.735
236.041
236.347
236.653
236.957
237.259
237.558
237.85
238.136
238.41
238.673
238.915
239.137
239.323
239.467
239.553
239.57
239.491
239.252
238.692
237.905
236.039
223
223
223
223
223
223
223
223
223
223
223
223
223
223
223
223
223
223
223
223.008
223.141
223.721
224.508
224.903
224.959
224.814
224.497
224.312
224.256
224.282
224.441
224.583
224.65
224.681
224.699
224.71
224.716
224.73
224.761
224.798
224.832
224.866
224.91
224.964
225.028
225.098
225.174
225.255
225.34
225.428
225.519
225.613
225.71
225.811
225.917
226.03
226.149
226.273
226.403
226.537
226.677
226.823
226.974
227.131
227.293
227.46
227.632
227.81
227.994
228.184
228.38
228.582
228.789
229.001
229.218
229.439
229.664
229.895
230.13
230.371
230.616
230.866
231.121
231.381
231.645
231.914
232.187
232.465
232.747
233.033
233.324
233.618
233.917
234.219
234.525
234.834
235.147
235.462
235.781
236.102
236.426
236.751
237.078
237.406
237.735
238.063
238.39
238.714
239.033
239.346
239.649
239.941
240.213
240.464
240.668
240.824
240.925
240.946
240.744
240.377
239.342
223
223
223
223
223
223
223
223
223
223
223
223
223
223
223
223
223
223
223
223.011
223.172
223.796
224.566
224.928
224.964
224.791
224.483
224.328
224.292
224.344
224.521
224.656
224.714
224.741
224.758
224.771
224.781
224.803
224.84
224.881
224.917
224.955
225.002
225.06
225.125
225.197
225.275
225.358
225.445
225.536
225.63
225.727
225.827
225.931
226.04
226.155
226.277
226.403
226.535
226.671
226.813
226.96
227.114
227.273
227.437
227.606
227.78
227.96
228.146
228.339
228.538
228.743
228.953
229.167
229.387
229.611
229.84
230.074
230.314
230.558
230.807
231.062
231.321
231.586
231.855
232.129
232.408
232.692
232.98
233.273
233.571
233.873
234.18
234.491
234.806
235.125
235.448
235.776
236.107
236.442
236.781
237.122
237.467
237.815
238.165
238.518
238.872
239.226
239.581
239.934
240.284
240.63
240.965
241.291
241.592
241.874
242.113
242.328
242.454
242.393
242.143
223
223
223
223
223
223
223
223
223
223
223
223
223
223
223
223
223
223
223
223.017
223.219
223.894
224.633
224.953
224.963
224.758
224.465
224.339
224.327
224.414
224.607
224.732
224.779
224.8
224.816
224.828
224.843
224.871
224.913
224.958
224.998
225.039
225.09
225.15
225.218
225.291
225.37
225.455
225.544
225.637
225.733
225.833
225.936
226.044
226.156
226.274
226.398
226.527
226.66
226.798
226.942
227.092
227.248
227.408
227.574
227.746
227.922
228.104
228.292
228.487
228.689
228.896
229.109
229.326
229.548
229.776
230.008
230.245
230.488
230.736
230.989
231.248
231.511
231.78
232.054
232.333
232.617
232.906
233.201
233.5
233.804
234.113
234.427
234.745
235.069
235.397
235.73
236.067
236.409
236.756
237.107
237.462
237.822
238.186
238.555
238.927
239.302
239.681
240.063
240.447
240.831
241.216
241.6
241.979
242.349
242.71
243.047
243.377
243.664
243.851
244.034
223
223
223
223
223
223
223
223
223
223
223
223
223
223
223
223
223
223
223.001
223.027
223.286
224.012
224.701
224.973
224.958
224.717
224.449
224.346
224.36
224.491
224.692
224.807
224.846
224.862
224.874
224.886
224.904
224.937
224.985
225.032
225.074
225.119
225.173
225.236
225.306
225.381
225.461
225.547
225.637
225.732
225.83
225.932
226.038
226.149
226.265
226.386
226.512
226.644
226.779
226.92
227.065
227.217
227.375
227.537
227.705
227.878
228.057
228.241
228.431
228.629
228.833
229.043
229.257
229.477
229.702
229.932
230.168
230.408
230.654
230.906
231.162
231.425
231.692
231.966
232.244
232.527
232.816
233.111
233.41
233.715
234.025
234.34
234.661
234.986
235.317
235.653
235.994
236.34
236.692
237.049
237.41
237.777
238.149
238.526
238.909
239.296
239.688
240.085
240.487
240.892
241.3
241.711
242.124
242.536
242.945
243.346
243.732
244.114
244.452
244.732
245.004
223
223
223
223
223
223
223
223
223
223
223
223
223
223
223
223
223
223
223.002
223.044
223.376
224.144
224.764
224.984
224.945
224.672
224.44
224.356
224.394
224.568
224.771
224.875
224.909
224.922
224.933
224.945
224.966
225.005
225.055
225.103
225.147
225.195
225.253
225.319
225.39
225.466
225.547
225.633
225.725
225.82
225.92
226.025
226.134
226.248
226.367
226.491
226.62
226.754
226.892
227.034
227.182
227.336
227.495
227.66
227.83
228.004
228.184
228.371
228.564
228.763
228.969
229.181
229.399
229.621
229.848
230.081
230.319
230.562
230.811
231.066
231.326
231.592
231.863
232.14
232.423
232.71
233.004
233.303
233.607
233.917
234.232
234.553
234.879
235.211
235.549
235.891
236.24
236.594
236.953
237.318
237.689
238.065
238.446
238.833
239.227
239.625
240.028
240.437
240.85
241.267
241.689
242.112
242.537
242.96
243.379
243.787
244.178
244.56
244.891
245.16
245.363
223
223
223
223
223
223
223
223
223
223
223
223
223
223
223
223
223
223
223.003
223.072
223.488
224.282
224.819
224.983
224.922
224.629
224.436
224.377
224.441
224.647
224.839
224.931
224.962
224.976
224.988
225.002
225.027
225.071
225.123
225.171
225.217
225.268
225.329
225.397
225.47
225.547
225.629
225.716
225.807
225.904
226.005
226.112
226.224
226.341
226.463
226.59
226.722
226.858
226.998
227.143
227.293
227.448
227.61
227.776
227.947
228.123
228.305
228.494
228.689
228.891
229.099
229.313
229.532
229.757
229.986
230.221
230.462
230.708
230.96
231.218
231.481
231.75
232.025
232.306