/*--------------------------------*- C++ -*----------------------------------*\
| =========                 |                                                 |
| \\      /  F ield         | OpenFOAM: The Open Source CFD Toolbox           |
|  \\    /   O peration     | Version:  2412                                  |
|   \\  /    A nd           | Website:  www.openfoam.com                      |
|    \\/     M anipulation  |                                                 |
\*---------------------------------------------------------------------------*/
FoamFile
{
    version     2.0;
    format      ascii;
    arch        "LSB;label=32;scalar=64";
    class       volVectorField;
    location    "0.028";
    object      U;
}
// * * * * * * * * * * * * * * * * * * * * * * * * * * * * * * * * * * * * * //

dimensions      [0 1 -1 0 0 0 0];

internalField   nonuniform List<vector> 
78650
(
(210 -1.96111e-12 0)
(210 1.33259e-12 0)
(210 -1.31095e-11 0)
(210 -3.81875e-12 0)
(210 8.02574e-12 0)
(210 -6.41744e-12 0)
(210 -1.04558e-12 0)
(210 2.32137e-12 0)
(210 3.71986e-12 0)
(210 5.49062e-11 0)
(210 6.41235e-09 0)
(210 7.1212e-07 0)
(210 7.92029e-05 0)
(209.983 0.00426704 0)
(209.77 0.0744922 0)
(208.88 0.442436 0)
(207.425 1.10806 0)
(206.478 1.61362 0)
(206.108 1.86006 0)
(206.266 1.97738 0)
(207.057 1.72359 0)
(208.3 1.25111 0)
(209.426 0.834919 0)
(210.337 0.707412 0)
(210.974 0.746145 0)
(211.374 0.936594 0)
(211.732 1.19976 0)
(212.11 1.48377 0)
(212.528 1.757 0)
(212.973 2.03809 0)
(213.424 2.34796 0)
(213.859 2.69315 0)
(214.266 3.06933 0)
(214.635 3.47859 0)
(214.968 3.92654 0)
(215.279 4.41663 0)
(215.582 4.94648 0)
(215.872 5.51463 0)
(216.14 6.11621 0)
(216.371 6.74996 0)
(216.575 7.40939 0)
(216.739 8.10031 0)
(216.889 8.824 0)
(217.04 9.58093 0)
(217.171 10.378 0)
(217.294 11.2106 0)
(217.429 12.0703 0)
(217.556 12.9576 0)
(217.661 13.8714 0)
(217.734 14.8103 0)
(217.77 15.7741 0)
(217.765 16.7612 0)
(217.737 17.7642 0)
(217.68 18.7969 0)
(217.601 19.8533 0)
(217.507 20.9364 0)
(217.401 22.0499 0)
(217.289 23.1957 0)
(217.176 24.3751 0)
(217.064 25.5878 0)
(216.954 26.8376 0)
(216.845 28.1289 0)
(216.746 29.456 0)
(216.653 30.8239 0)
(216.569 32.2334 0)
(216.5 33.6854 0)
(216.443 35.1811 0)
(216.409 36.7187 0)
(216.398 38.3006 0)
(216.416 39.9261 0)
(216.47 41.5969 0)
(216.562 43.3134 0)
(216.701 45.0776 0)
(216.889 46.8907 0)
(217.138 48.754 0)
(217.449 50.6677 0)
(217.843 52.6321 0)
(218.317 54.6469 0)
(218.898 56.7121 0)
(219.575 58.8272 0)
(220.388 60.9915 0)
(221.324 63.2027 0)
(222.423 65.4555 0)
(223.684 67.745 0)
(225.132 70.0668 0)
(226.784 72.4161 0)
(228.652 74.7849 0)
(230.778 77.1533 0)
(233.142 79.5193 0)
(235.836 81.8441 0)
(238.764 84.154 0)
(242.112 86.3542 0)
(245.678 88.5481 0)
(249.739 90.5485 0)
(254.039 92.5275 0)
(258.878 94.2509 0)
(264.192 95.7979 0)
(269.907 97.0211 0)
(275.762 98.0272 0)
(281.765 98.7999 0)
(288.488 99.0968 0)
(295.435 98.9433 0)
(302.893 98.6415 0)
(310.393 97.8489 0)
(317.852 96.4152 0)
(324.498 95.303 0)
(331.385 94.0484 0)
(337.743 92.6236 0)
(343.91 90.8732 0)
(350.085 88.5876 0)
(355.618 86.3546 0)
(361.972 83.4732 0)
(366.997 81.1153 0)
(372.174 78.649 0)
(376.317 76.139 0)
(378.788 73.9196 0)
(380.883 71.3003 0)
(383.388 70.0547 0)
(388.586 69.2226 0)
(396.794 68.2596 0)
(399.921 72.5731 0)
(210 1.18539e-12 0)
(210 6.97375e-13 0)
(210 -9.38517e-12 0)
(210 -5.24163e-12 0)
(210 2.88818e-12 0)
(210 -1.20066e-12 0)
(210 9.22524e-12 0)
(210 4.27127e-12 0)
(210 -7.24775e-12 0)
(210 1.23535e-11 0)
(210 1.86813e-09 0)
(210 2.25846e-07 0)
(210 2.8293e-05 0)
(209.991 0.00200073 0)
(209.851 0.044388 0)
(209.116 0.324987 0)
(207.679 0.954463 0)
(206.553 1.52593 0)
(206.046 1.82687 0)
(206.134 1.95362 0)
(206.745 1.77957 0)
(207.931 1.34589 0)
(209.11 0.92334 0)
(210.074 0.785389 0)
(210.734 0.798939 0)
(211.142 0.970132 0)
(211.483 1.22236 0)
(211.83 1.50173 0)
(212.213 1.77287 0)
(212.633 2.0492 0)
(213.067 2.35189 0)
(213.49 2.68972 0)
(213.884 3.05926 0)
(214.242 3.46181 0)
(214.562 3.90347 0)
(214.861 4.38783 0)
(215.151 4.91263 0)
(215.431 5.4748 0)
(215.689 6.06961 0)
(215.913 6.69521 0)
(216.109 7.34571 0)
(216.261 8.02691 0)
(216.399 8.73757 0)
(216.526 9.48079 0)
(216.622 10.2624 0)
(216.714 11.0754 0)
(216.815 11.9155 0)
(216.909 12.7847 0)
(216.988 13.6809 0)
(217.046 14.604 0)
(217.072 15.5546 0)
(217.064 16.5287 0)
(217.029 17.5227 0)
(216.965 18.5448 0)
(216.879 19.5903 0)
(216.771 20.6618 0)
(216.648 21.7621 0)
(216.513 22.8931 0)
(216.371 24.0562 0)
(216.224 25.2534 0)
(216.077 26.4862 0)
(215.93 27.754 0)
(215.785 29.06 0)
(215.643 30.4068 0)
(215.506 31.7943 0)
(215.38 33.2205 0)
(215.262 34.6921 0)
(215.163 36.2043 0)
(215.081 37.762 0)
(215.024 39.3625 0)
(214.995 41.0088 0)
(214.999 42.701 0)
(215.042 44.4415 0)
(215.128 46.2316 0)
(215.265 48.0734 0)
(215.456 49.9677 0)
(215.719 51.9156 0)
(216.05 53.917 0)
(216.477 55.9734 0)
(216.988 58.0845 0)
(217.621 60.2509 0)
(218.363 62.4705 0)
(219.253 64.7419 0)
(220.289 67.0631 0)
(221.497 69.4302 0)
(222.893 71.8356 0)
(224.495 74.2715 0)
(226.338 76.727 0)
(228.408 79.2039 0)
(230.787 81.6734 0)
(233.396 84.1471 0)
(236.403 86.552 0)
(239.627 88.9494 0)
(243.328 91.1928 0)
(247.233 93.4098 0)
(251.596 95.3825 0)
(256.168 97.2805 0)
(261.173 98.9558 0)
(266.633 100.424 0)
(272.66 101.576 0)
(279.274 102.379 0)
(285.877 102.742 0)
(292.309 102.981 0)
(299.143 102.985 0)
(306.514 102.446 0)
(313.995 101.351 0)
(322.274 99.7087 0)
(329.681 97.8801 0)
(336.567 96.2665 0)
(342.861 94.8963 0)
(348.892 93.243 0)
(354.534 91.4328 0)
(360.485 89.2781 0)
(366.346 86.8852 0)
(371.425 84.2815 0)
(374.855 81.8295 0)
(377.484 78.9536 0)
(379.933 76.4864 0)
(384.524 74.7242 0)
(393.085 73.5351 0)
(396.242 78.5396 0)
(210 1.01259e-12 0)
(210 -2.17083e-12 0)
(210 -7.12549e-12 0)
(210 -5.52209e-12 0)
(210 1.69418e-11 0)
(210 1.16802e-11 0)
(210 1.1201e-11 0)
(210 -7.48063e-12 0)
(210 -3.34274e-12 0)
(210 1.50068e-11 0)
(210 8.05231e-10 0)
(210 8.53907e-08 0)
(210 9.63708e-06 0)
(209.996 0.000858241 0)
(209.909 0.0245495 0)
(209.339 0.227258 0)
(207.976 0.796705 0)
(206.673 1.42418 0)
(205.997 1.79153 0)
(206.021 1.90744 0)
(206.448 1.809 0)
(207.544 1.4335 0)
(208.769 1.00842 0)
(209.788 0.852777 0)
(210.475 0.831008 0)
(210.899 0.982148 0)
(211.229 1.22374 0)
(211.546 1.49795 0)
(211.892 1.76635 0)
(212.285 2.03724 0)
(212.704 2.33146 0)
(213.115 2.66037 0)
(213.499 3.02241 0)
(213.846 3.41847 0)
(214.155 3.8549 0)
(214.443 4.33528 0)
(214.72 4.85723 0)
(214.988 5.41571 0)
(215.236 6.00597 0)
(215.451 6.62541 0)
(215.636 7.26928 0)
(215.777 7.94309 0)
(215.907 8.64341 0)
(216.012 9.37622 0)
(216.08 10.1443 0)
(216.147 10.939 0)
(216.215 11.7613 0)
(216.272 12.6114 0)
(216.319 13.4882 0)
(216.351 14.3938 0)
(216.357 15.3283 0)
(216.338 16.2871 0)
(216.287 17.275 0)
(216.213 18.2868 0)
(216.114 19.323 0)
(215.993 20.3856 0)
(215.852 21.4766 0)
(215.694 22.5972 0)
(215.525 23.7483 0)
(215.348 24.9311 0)
(215.166 26.1475 0)
(214.979 27.4003 0)
(214.79 28.6902 0)
(214.601 30.0175 0)
(214.415 31.383 0)
(214.236 32.7882 0)
(214.055 34.2421 0)
(213.894 35.7291 0)
(213.742 37.2636 0)
(213.613 38.8403 0)
(213.506 40.4635 0)
(213.426 42.1319 0)
(213.379 43.8482 0)
(213.368 45.6137 0)
(213.401 47.431 0)
(213.48 49.301 0)
(213.621 51.2255 0)
(213.821 53.2041 0)
(214.106 55.239 0)
(214.464 57.3295 0)
(214.931 59.4778 0)
(215.493 61.6824 0)
(216.186 63.9434 0)
(217.009 66.2576 0)
(217.986 68.6218 0)
(219.131 71.0333 0)
(220.46 73.4907 0)
(222.001 75.9878 0)
(223.746 78.52 0)
(225.771 81.0626 0)
(228.013 83.6196 0)
(230.621 86.1453 0)
(233.438 88.6804 0)
(236.708 91.1326 0)
(240.197 93.5966 0)
(244.205 95.9083 0)
(248.499 98.1732 0)
(253.292 100.191 0)
(258.47 102.038 0)
(264.053 103.604 0)
(269.806 104.924 0)
(276.348 106.024 0)
(282.757 106.577 0)
(289.756 106.799 0)
(296.814 106.735 0)
(304.024 106.235 0)
(311.512 105.558 0)
(319.358 104.411 0)
(327.126 102.587 0)
(334.295 100.603 0)
(341.644 98.4265 0)
(348.03 96.7308 0)
(354.155 95.2045 0)
(360.433 93.2072 0)
(365.052 91.245 0)
(368.616 88.9735 0)
(371.438 86.4646 0)
(374.359 84.8784 0)
(379.88 83.1919 0)
(388.96 81.5321 0)
(392.736 85.6014 0)
(210 -2.81454e-13 0)
(210 4.38488e-12 0)
(210 -2.95538e-13 0)
(210 1.17786e-11 0)
(210 2.63593e-11 0)
(210 1.07592e-11 0)
(210 -3.06825e-12 0)
(210 -6.13453e-12 0)
(210 8.59933e-13 0)
(210 1.24707e-11 0)
(210 1.51532e-10 0)
(210 1.69545e-08 0)
(210 2.22925e-06 0)
(209.998 0.000314349 0)
(209.949 0.0122183 0)
(209.533 0.146982 0)
(208.293 0.633524 0)
(206.845 1.29848 0)
(205.98 1.72784 0)
(205.928 1.84781 0)
(206.174 1.81773 0)
(207.163 1.54323 0)
(208.425 1.12482 0)
(209.498 0.937969 0)
(210.204 0.875429 0)
(210.648 1.00388 0)
(210.969 1.23113 0)
(211.256 1.49702 0)
(211.564 1.76314 0)
(211.927 2.03273 0)
(212.329 2.32418 0)
(212.729 2.64895 0)
(213.101 3.00677 0)
(213.437 3.39796 0)
(213.736 3.82895 0)
(214.012 4.30365 0)
(214.276 4.82021 0)
(214.533 5.37192 0)
(214.768 5.95415 0)
(214.974 6.56326 0)
(215.145 7.19657 0)
(215.276 7.85852 0)
(215.398 8.54516 0)
(215.483 9.2657 0)
(215.533 10.0184 0)
(215.582 10.7943 0)
(215.618 11.5997 0)
(215.641 12.4298 0)
(215.655 13.2864 0)
(215.653 14.1723 0)
(215.635 15.0847 0)
(215.591 16.0298 0)
(215.525 17.0014 0)
(215.436 17.9982 0)
(215.324 19.0202 0)
(215.189 20.0683 0)
(215.033 21.1442 0)
(214.858 22.2493 0)
(214.667 23.3845 0)
(214.464 24.5507 0)
(214.252 25.7494 0)
(214.031 26.9819 0)
(213.805 28.2498 0)
(213.574 29.555 0)
(213.342 30.8986 0)
(213.109 32.2827 0)
(212.882 33.7041 0)
(212.662 35.1667 0)
(212.443 36.6781 0)
(212.246 38.2255 0)
(212.063 39.8204 0)
(211.904 41.4604 0)
(211.771 43.1491 0)
(211.667 44.8869 0)
(211.599 46.6768 0)
(211.568 48.5201 0)
(211.59 50.4194 0)
(211.661 52.3748 0)
(211.806 54.3892 0)
(212.011 56.4624 0)
(212.312 58.5982 0)
(212.694 60.7952 0)
(213.193 63.0552 0)
(213.805 65.3765 0)
(214.557 67.759 0)
(215.458 70.2014 0)
(216.527 72.7004 0)
(217.791 75.2478 0)
(219.249 77.8384 0)
(220.967 80.4588 0)
(222.89 83.1155 0)
(225.152 85.7791 0)
(227.62 88.4703 0)
(230.516 91.1079 0)
(233.619 93.74 0)
(237.2 96.2394 0)
(241.013 98.7046 0)
(245.295 100.985 0)
(249.863 103.19 0)
(254.899 105.21 0)
(260.466 107.06 0)
(266.472 108.576 0)
(273.233 109.783 0)
(280.115 110.481 0)
(287.497 110.948 0)
(294.775 110.962 0)
(301.502 110.874 0)
(308.55 110.478 0)
(316.152 109.511 0)
(323.679 108.141 0)
(331.849 106.369 0)
(340.211 103.783 0)
(346.998 101.397 0)
(354.533 98.6061 0)
(360.219 96.4383 0)
(364.923 94.1664 0)
(367.809 92.1115 0)
(369.872 90.7709 0)
(374.403 89.7558 0)
(384.539 87.9039 0)
(388.377 93.4068 0)
(210 1.17094e-11 0)
(210 1.268e-11 0)
(210 5.06285e-12 0)
(210 2.06283e-11 0)
(210 1.27507e-12 0)
(210 -1.42976e-11 0)
(210 -4.11815e-12 0)
(210 -7.46385e-14 0)
(210 7.08839e-12 0)
(210 7.69473e-12 0)
(210 2.6293e-11 0)
(210 2.59229e-09 0)
(210 4.0547e-07 0)
(209.999 9.79073e-05 0)
(209.974 0.00543305 0)
(209.693 0.0875555 0)
(208.631 0.477253 0)
(207.088 1.14539 0)
(205.999 1.62779 0)
(205.848 1.78197 0)
(205.937 1.82987 0)
(206.783 1.65099 0)
(208.043 1.23373 0)
(209.164 1.00139 0)
(209.904 0.894437 0)
(210.381 1.003 0)
(210.701 1.21744 0)
(210.961 1.47419 0)
(211.23 1.73622 0)
(211.562 2.00272 0)
(211.945 2.29003 0)
(212.334 2.60987 0)
(212.697 2.96396 0)
(213.023 3.35176 0)
(213.311 3.77905 0)
(213.576 4.24975 0)
(213.826 4.76258 0)
(214.07 5.30907 0)
(214.291 5.88454 0)
(214.486 6.48421 0)
(214.641 7.10787 0)
(214.762 7.75809 0)
(214.872 8.43243 0)
(214.935 9.14152 0)
(214.974 9.87882 0)
(215.007 10.6382 0)
(215.014 11.428 0)
(215.009 12.2408 0)
(214.99 13.0788 0)
(214.956 13.9441 0)
(214.904 14.8389 0)
(214.834 15.7624 0)
(214.743 16.7152 0)
(214.631 17.6961 0)
(214.498 18.7036 0)
(214.345 19.738 0)
(214.17 20.8006 0)
(213.974 21.8923 0)
(213.76 23.0136 0)
(213.531 24.165 0)
(213.288 25.3477 0)
(213.034 26.5634 0)
(212.77 27.8138 0)
(212.498 29.0995 0)
(212.221 30.4219 0)
(211.941 31.7822 0)
(211.659 33.1833 0)
(211.378 34.6255 0)
(211.106 36.1059 0)
(210.843 37.6284 0)
(210.585 39.2007 0)
(210.349 40.8122 0)
(210.132 42.4724 0)
(209.94 44.1814 0)
(209.777 45.9426 0)
(209.645 47.7567 0)
(209.557 49.6266 0)
(209.509 51.5524 0)
(209.524 53.5374 0)
(209.59 55.5812 0)
(209.741 57.6884 0)
(209.96 59.8574 0)
(210.282 62.0919 0)
(210.701 64.3902 0)
(211.242 66.7529 0)
(211.914 69.1787 0)
(212.735 71.6667 0)
(213.727 74.2156 0)
(214.89 76.8249 0)
(216.28 79.4876 0)
(217.857 82.2024 0)
(219.741 84.9442 0)
(221.819 87.7207 0)
(224.293 90.4862 0)
(226.969 93.2823 0)
(230.118 96.0269 0)
(233.52 98.7819 0)
(237.438 101.424 0)
(241.694 104.007 0)
(246.4 106.383 0)
(251.445 108.576 0)
(256.958 110.526 0)
(262.981 112.248 0)
(269.255 113.536 0)
(276.269 114.671 0)
(283.441 115.461 0)
(291.295 115.649 0)
(298.452 115.592 0)
(306.636 115.114 0)
(314.025 114.396 0)
(320.96 113.603 0)
(328.763 112.101 0)
(335.627 110.534 0)
(343.64 108.363 0)
(350.403 106.209 0)
(357.155 103.194 0)
(361.663 99.7706 0)
(365.203 96.4586 0)
(370.52 94.5717 0)
(381.082 93.3842 0)
(384.692 100.306 0)
(210 9.07249e-12 0)
(210 -4.30722e-12 0)
(210 3.49152e-12 0)
(210 1.13356e-11 0)
(210 -9.35046e-12 0)
(210 -5.95789e-12 0)
(210 -7.05378e-12 0)
(210 -3.43288e-12 0)
(210 -2.62191e-12 0)
(210 -4.90697e-12 0)
(210 -7.55144e-12 0)
(210 -7.40876e-10 0)
(210 -9.50716e-09 0)
(210 2.26485e-05 0)
(209.988 0.00207878 0)
(209.815 0.0467493 0)
(208.963 0.333226 0)
(207.398 0.964993 0)
(206.08 1.50274 0)
(205.785 1.71647 0)
(205.743 1.83384 0)
(206.407 1.7414 0)
(207.634 1.3429 0)
(208.806 1.07562 0)
(209.585 0.928939 0)
(210.103 1.01192 0)
(210.425 1.20874 0)
(210.658 1.45673 0)
(210.888 1.71974 0)
(211.187 1.99074 0)
(211.548 2.28088 0)
(211.926 2.59888 0)
(212.279 2.94889 0)
(212.595 3.33101 0)
(212.873 3.75107 0)
(213.126 4.21358 0)
(213.362 4.71843 0)
(213.591 5.25584 0)
(213.797 5.82093 0)
(213.979 6.40787 0)
(214.117 7.01869 0)
(214.229 7.65331 0)
(214.321 8.31347 0)
(214.365 9.00778 0)
(214.396 9.72501 0)
(214.409 10.4706 0)
(214.398 11.2437 0)
(214.369 12.0389 0)
(214.323 12.8585 0)
(214.258 13.7045 0)
(214.176 14.5786 0)
(214.074 15.4821 0)
(213.953 16.4148 0)
(213.814 17.3753 0)
(213.657 18.3627 0)
(213.483 19.3775 0)
(213.288 20.4207 0)
(213.072 21.4933 0)
(212.837 22.5957 0)
(212.584 23.7279 0)
(212.316 24.8907 0)
(212.033 26.0854 0)
(211.737 27.3133 0)
(211.429 28.5758 0)
(211.112 29.8741 0)
(210.787 31.2094 0)
(210.458 32.5828 0)
(210.127 33.9955 0)
(209.796 35.4496 0)
(209.468 36.946 0)
(209.15 38.4828 0)
(208.845 40.0629 0)
(208.545 41.6956 0)
(208.268 43.3716 0)
(208.013 45.0992 0)
(207.783 46.8805 0)
(207.587 48.7186 0)
(207.423 50.6139 0)
(207.31 52.5694 0)
(207.239 54.5854 0)
(207.24 56.6673 0)
(207.294 58.8142 0)
(207.44 61.0312 0)
(207.666 63.317 0)
(207.999 65.6738 0)
(208.445 68.1019 0)
(209.025 70.6024 0)
(209.755 73.1741 0)
(210.64 75.8136 0)
(211.732 78.5145 0)
(213.001 81.2742 0)
(214.548 84.0822 0)
(216.275 86.9457 0)
(218.364 89.8331 0)
(220.643 92.7594 0)
(223.364 95.6571 0)
(226.309 98.5623 0)
(229.723 101.387 0)
(233.43 104.181 0)
(237.613 106.861 0)
(242.18 109.464 0)
(247.217 111.862 0)
(252.718 114.066 0)
(258.897 116.02 0)
(265.247 117.489 0)
(272.334 118.864 0)
(279.924 119.836 0)
(287.595 120.173 0)
(295.855 120.249 0)
(304.342 119.67 0)
(311.935 118.862 0)
(319.782 117.937 0)
(327.322 116.945 0)
(334.3 115.891 0)
(341.529 114.383 0)
(347.82 112.217 0)
(352.47 109.569 0)
(356.456 107.109 0)
(362.383 105.098 0)
(373.505 103.187 0)
(377.597 109.051 0)
(210 1.76091e-13 0)
(210 -1.16095e-12 0)
(210 1.51547e-11 0)
(210 4.36323e-12 0)
(210 -3.55761e-12 0)
(210 -1.95801e-12 0)
(210 -4.29453e-12 0)
(210 -1.06979e-12 0)
(210 -9.73075e-12 0)
(210 -4.00883e-12 0)
(210 -3.83414e-12 0)
(210 -5.26464e-10 0)
(210 -4.21675e-08 0)
(210 2.56457e-06 0)
(209.995 0.000659983 0)
(209.899 0.0220035 0)
(209.269 0.213267 0)
(207.781 0.769534 0)
(206.263 1.36157 0)
(205.743 1.6634 0)
(205.58 1.8141 0)
(206.04 1.78991 0)
(207.194 1.43823 0)
(208.409 1.14191 0)
(209.243 0.955994 0)
(209.81 0.998969 0)
(210.144 1.17079 0)
(210.357 1.40584 0)
(210.55 1.66931 0)
(210.815 1.94912 0)
(211.15 2.24864 0)
(211.514 2.56956 0)
(211.857 2.918 0)
(212.161 3.29554 0)
(212.427 3.70845 0)
(212.668 4.16224 0)
(212.887 4.65827 0)
(213.101 5.18605 0)
(213.291 5.74021 0)
(213.459 6.31424 0)
(213.579 6.91179 0)
(213.681 7.53033 0)
(213.749 8.17677 0)
(213.776 8.8537 0)
(213.798 9.55232 0)
(213.791 10.2842 0)
(213.763 11.0406 0)
(213.714 11.821 0)
(213.644 12.6251 0)
(213.553 13.4538 0)
(213.442 14.3087 0)
(213.311 15.1913 0)
(213.159 16.1024 0)
(212.989 17.0419 0)
(212.803 18.0091 0)
(212.6 19.0041 0)
(212.379 20.0279 0)
(212.137 21.0816 0)
(211.876 22.1654 0)
(211.596 23.2794 0)
(211.299 24.4236 0)
(210.985 25.5992 0)
(210.655 26.8072 0)
(210.311 28.0487 0)
(209.954 29.3247 0)
(209.586 30.6364 0)
(209.21 31.9854 0)
(208.827 33.3729 0)
(208.44 34.7997 0)
(208.054 36.2667 0)
(207.67 37.7765 0)
(207.291 39.3307 0)
(206.923 40.9275 0)
(206.569 42.5706 0)
(206.224 44.2687 0)
(205.9 46.0159 0)
(205.604 47.8169 0)
(205.331 49.676 0)
(205.103 51.595 0)
(204.906 53.5745 0)
(204.772 55.619 0)
(204.679 57.7277 0)
(204.667 59.9066 0)
(204.719 62.1547 0)
(204.864 64.4756 0)
(205.105 66.8701 0)
(205.46 69.3398 0)
(205.944 71.885 0)
(206.564 74.506 0)
(207.362 77.204 0)
(208.312 79.9787 0)
(209.506 82.8251 0)
(210.863 85.7396 0)
(212.552 88.7025 0)
(214.419 91.7229 0)
(216.699 94.7691 0)
(219.195 97.8679 0)
(222.161 100.949 0)
(225.431 104.027 0)
(229.178 107.018 0)
(233.293 109.952 0)
(237.87 112.745 0)
(242.858 115.389 0)
(248.324 117.784 0)
(254.43 119.942 0)
(260.98 121.708 0)
(267.772 123.25 0)
(275.253 124.454 0)
(282.318 125.26 0)
(290.716 125.725 0)
(299.016 125.497 0)
(307.789 124.831 0)
(317.404 123.467 0)
(325.771 121.696 0)
(334.118 119.828 0)
(341.353 117.826 0)
(346.163 115.753 0)
(349.746 113.727 0)
(355.049 112.792 0)
(367.491 111.201 0)
(371.44 118.984 0)
(210 -5.1831e-13 0)
(210 9.37797e-12 0)
(210 6.99642e-12 0)
(210 -5.40795e-12 0)
(210 -9.07237e-12 0)
(210 -1.71172e-11 0)
(210 -1.11751e-11 0)
(210 -1.20308e-11 0)
(210 -1.20465e-11 0)
(210 4.40975e-12 0)
(210 1.28165e-11 0)
(210 -2.36266e-10 0)
(210 -2.32075e-08 0)
(210 -8.82024e-07 0)
(209.998 0.000157303 0)
(209.951 0.00883135 0)
(209.527 0.122081 0)
(208.21 0.57284 0)
(206.528 1.19147 0)
(205.721 1.598 0)
(205.445 1.74075 0)
(205.717 1.79998 0)
(206.748 1.54032 0)
(207.986 1.22375 0)
(208.878 0.986494 0)
(209.496 0.989586 0)
(209.85 1.14689 0)
(210.047 1.37883 0)
(210.211 1.64761 0)
(210.444 1.93584 0)
(210.75 2.2418 0)
(211.096 2.56122 0)
(211.425 2.9032 0)
(211.714 3.27188 0)
(211.967 3.67405 0)
(212.194 4.11594 0)
(212.397 4.60018 0)
(212.592 5.116 0)
(212.766 5.65703 0)
(212.917 6.21663 0)
(213.022 6.79871 0)
(213.111 7.40022 0)
(213.153 8.03139 0)
(213.17 8.68604 0)
(213.173 9.37002 0)
(213.15 10.0839 0)
(213.105 10.8233 0)
(213.039 11.5871 0)
(212.95 12.3748 0)
(212.838 13.1871 0)
(212.703 14.0245 0)
(212.545 14.8878 0)
(212.364 15.7778 0)
(212.164 16.6948 0)
(211.947 17.6388 0)
(211.715 18.6101 0)
(211.465 19.6101 0)
(211.197 20.6401 0)
(210.909 21.7004 0)
(210.603 22.791 0)
(210.278 23.9116 0)
(209.936 25.0629 0)
(209.576 26.2458 0)
(209.2 27.4614 0)
(208.808 28.7106 0)
(208.401 29.9946 0)
(207.983 31.3147 0)
(207.554 32.6721 0)
(207.118 34.068 0)
(206.676 35.5036 0)
(206.233 36.9799 0)
(205.79 38.4984 0)
(205.352 40.062 0)
(204.918 41.6728 0)
(204.496 43.3307 0)
(204.089 45.0385 0)
(203.693 46.8039 0)
(203.313 48.6272 0)
(202.971 50.5054 0)
(202.649 52.4476 0)
(202.381 54.4553 0)
(202.141 56.5303 0)
(201.971 58.6772 0)
(201.848 60.8959 0)
(201.805 63.1912 0)
(201.841 65.5646 0)
(201.976 68.0184 0)
(202.22 70.5548 0)
(202.584 73.1749 0)
(203.101 75.8797 0)
(203.757 78.6651 0)
(204.631 81.5291 0)
(205.656 84.4687 0)
(206.977 87.4811 0)
(208.455 90.5687 0)
(210.309 93.7084 0)
(212.353 96.9032 0)
(214.834 100.106 0)
(217.58 103.334 0)
(220.783 106.547 0)
(224.357 109.761 0)
(228.406 112.915 0)
(232.901 116.005 0)
(237.93 118.927 0)
(243.418 121.664 0)
(249.514 124.102 0)
(256.195 126.292 0)
(263.298 128.142 0)
(270.784 129.53 0)
(278.344 130.544 0)
(286.743 131.149 0)
(294.256 131.447 0)
(303.254 131.444 0)
(311.909 130.897 0)
(320.368 129.827 0)
(329.763 127.794 0)
(336.472 125.005 0)
(342.314 121.639 0)
(348.695 119.373 0)
(361.328 117.957 0)
(365.341 126.074 0)
(210 4.99859e-12 0)
(210 1.79453e-11 0)
(210 -5.17919e-12 0)
(210 -1.12199e-11 0)
(210 -1.89594e-11 0)
(210 -1.93098e-11 0)
(210 -1.01286e-11 0)
(210 -5.3884e-12 0)
(210 -3.35608e-13 0)
(210 7.84814e-12 0)
(210 1.04833e-11 0)
(210 -8.50689e-11 0)
(210 -8.38304e-09 0)
(210 -5.75467e-07 0)
(209.999 1.93798e-05 0)
(209.979 0.00290209 0)
(209.723 0.061244 0)
(208.648 0.391173 0)
(206.902 1.00203 0)
(205.781 1.49178 0)
(205.327 1.65032 0)
(205.465 1.80522 0)
(206.307 1.62865 0)
(207.519 1.28371 0)
(208.481 0.988598 0)
(209.166 0.963622 0)
(209.559 1.1165 0)
(209.75 1.34788 0)
(209.887 1.61833 0)
(210.085 1.91024 0)
(210.352 2.22048 0)
(210.673 2.53744 0)
(210.984 2.8718 0)
(211.258 3.23057 0)
(211.497 3.62123 0)
(211.71 4.05054 0)
(211.895 4.52224 0)
(212.071 5.02586 0)
(212.227 5.55356 0)
(212.359 6.09883 0)
(212.453 6.66459 0)
(212.524 7.24958 0)
(212.543 7.86304 0)
(212.551 8.49636 0)
(212.533 9.16479 0)
(212.494 9.85926 0)
(212.432 10.582 0)
(212.347 11.3303 0)
(212.24 12.103 0)
(212.11 12.8997 0)
(211.955 13.7203 0)
(211.775 14.5654 0)
(211.569 15.4359 0)
(211.34 16.3323 0)
(211.092 17.2548 0)
(210.827 18.2036 0)
(210.546 19.1804 0)
(210.246 20.1865 0)
(209.927 21.2231 0)
(209.589 22.2901 0)
(209.233 23.3872 0)
(208.859 24.5149 0)
(208.466 25.674 0)
(208.054 26.8651 0)
(207.625 28.0892 0)
(207.179 29.347 0)
(206.718 30.64 0)
(206.242 31.9692 0)
(205.756 33.3359 0)
(205.26 34.741 0)
(204.758 36.1858 0)
(204.252 37.6719 0)
(203.746 39.201 0)
(203.241 40.7749 0)
(202.741 42.3968 0)
(202.246 44.0697 0)
(201.762 45.7943 0)
(201.296 47.5714 0)
(200.846 49.4085 0)
(200.406 51.3112 0)
(200.018 53.2692 0)
(199.644 55.2972 0)
(199.335 57.3953 0)
(199.057 59.5661 0)
(198.849 61.8118 0)
(198.702 64.1363 0)
(198.638 66.5422 0)
(198.664 69.0327 0)
(198.79 71.61 0)
(199.045 74.278 0)
(199.418 77.0363 0)
(199.974 79.891 0)
(200.658 82.8382 0)
(201.602 85.88 0)
(202.686 89.0085 0)
(204.116 92.2177 0)
(205.716 95.5076 0)
(207.728 98.8576 0)
(209.985 102.273 0)
(212.685 105.713 0)
(215.734 109.173 0)
(219.234 112.602 0)
(223.162 115.987 0)
(227.595 119.249 0)
(232.489 122.412 0)
(237.972 125.387 0)
(244.034 128.183 0)
(250.765 130.737 0)
(258.323 132.986 0)
(265.877 134.476 0)
(274.657 135.8 0)
(282.834 136.473 0)
(291.283 136.963 0)
(300.013 137.141 0)
(307.757 137.152 0)
(316.736 136.28 0)
(323.665 134.704 0)
(329.445 132.384 0)
(335.846 130.814 0)
(349.087 129.096 0)
(352.544 137.656 0)
(210 3.63533e-12 0)
(210 -4.68079e-12 0)
(210 -1.21118e-11 0)
(210 -1.44678e-11 0)
(210 -1.84181e-11 0)
(210 -1.03914e-11 0)
(210 6.3839e-13 0)
(210 3.51726e-12 0)
(210 -1.81574e-12 0)
(210 9.88405e-12 0)
(210 1.24167e-11 0)
(210 -2.17895e-11 0)
(210 -2.51367e-09 0)
(210 -2.22979e-07 0)
(210 -4.87437e-06 0)
(209.992 0.000712176 0)
(209.856 0.0260709 0)
(209.059 0.240024 0)
(207.357 0.788004 0)
(205.928 1.34831 0)
(205.238 1.59522 0)
(205.273 1.76513 0)
(205.878 1.66783 0)
(207.02 1.32945 0)
(208.061 1.00898 0)
(208.827 0.976468 0)
(209.27 1.12117 0)
(209.456 1.33932 0)
(209.569 1.59883 0)
(209.73 1.88558 0)
(209.952 2.1962 0)
(210.24 2.50991 0)
(210.531 2.83511 0)
(210.789 3.18183 0)
(211.014 3.55887 0)
(211.211 3.97365 0)
(211.381 4.43097 0)
(211.536 4.92141 0)
(211.673 5.43552 0)
(211.785 5.96695 0)
(211.868 6.51679 0)
(211.917 7.08667 0)
(211.919 7.67911 0)
(211.91 8.29867 0)
(211.875 8.94905 0)
(211.819 9.62532 0)
(211.74 10.3301 0)
(211.637 11.0617 0)
(211.512 11.8188 0)
(211.365 12.6 0)
(211.192 13.4043 0)
(210.993 14.2313 0)
(210.766 15.082 0)
(210.513 15.957 0)
(210.238 16.8568 0)
(209.944 17.7817 0)
(209.632 18.7332 0)
(209.301 19.7131 0)
(208.951 20.7226 0)
(208.582 21.7621 0)
(208.195 22.8314 0)
(207.79 23.9307 0)
(207.366 25.0607 0)
(206.923 26.2221 0)
(206.46 27.4158 0)
(205.978 28.6425 0)
(205.479 29.9035 0)
(204.962 31.1996 0)
(204.43 32.5322 0)
(203.886 33.9023 0)
(203.331 35.311 0)
(202.767 36.7597 0)
(202.199 38.2503 0)
(201.627 39.7848 0)
(201.054 41.3654 0)
(200.482 42.9947 0)
(199.914 44.6761 0)
(199.351 46.4129 0)
(198.798 48.2066 0)
(198.265 50.0559 0)
(197.755 51.9691 0)
(197.241 53.959 0)
(196.794 56.0062 0)
(196.357 58.1331 0)
(195.986 60.3353 0)
(195.655 62.6204 0)
(195.395 64.9885 0)
(195.204 67.4438 0)
(195.1 69.9895 0)
(195.102 72.6308 0)
(195.205 75.3672 0)
(195.466 78.2044 0)
(195.839 81.1354 0)
(196.442 84.1698 0)
(197.165 87.2989 0)
(198.196 90.531 0)
(199.365 93.8565 0)
(200.911 97.27 0)
(202.663 100.767 0)
(204.831 104.326 0)
(207.317 107.943 0)
(210.235 111.586 0)
(213.582 115.241 0)
(217.42 118.851 0)
(221.73 122.408 0)
(226.596 125.826 0)
(231.93 129.139 0)
(237.86 132.245 0)
(244.361 135.111 0)
(251.587 137.592 0)
(259.109 139.673 0)
(268.067 141.632 0)
(276.497 142.514 0)
(287.124 143.262 0)
(296.038 143.162 0)
(306.836 142.471 0)
(314.752 141.197 0)
(321.243 138.785 0)
(327.261 137.927 0)
(341.091 137.072 0)
(343.65 148.035 0)
(210 1.32893e-12 0)
(210 -1.32989e-11 0)
(210 -1.13921e-11 0)
(210 -1.07906e-11 0)
(210 -1.17334e-11 0)
(210 1.59526e-12 0)
(210 1.33564e-12 0)
(210 -3.78059e-12 0)
(210 2.98898e-13 0)
(210 2.3055e-11 0)
(210 1.08528e-11 0)
(210 -7.67841e-12 0)
(210 -6.51805e-10 0)
(210 -6.8783e-08 0)
(210 -4.12084e-06 0)
(209.997 9.10353e-05 0)
(209.934 0.00902938 0)
(209.405 0.129134 0)
(207.878 0.574225 0)
(206.19 1.17577 0)
(205.204 1.5206 0)
(205.138 1.66702 0)
(205.488 1.63766 0)
(206.507 1.37907 0)
(207.628 1.06368 0)
(208.479 1.00898 0)
(208.975 1.12103 0)
(209.162 1.31146 0)
(209.255 1.55483 0)
(209.38 1.83697 0)
(209.552 2.15124 0)
(209.8 2.46633 0)
(210.067 2.78356 0)
(210.307 3.11757 0)
(210.518 3.47969 0)
(210.701 3.87824 0)
(210.856 4.31889 0)
(210.991 4.79395 0)
(211.11 5.2926 0)
(211.205 5.80855 0)
(211.276 6.34144 0)
(211.303 6.89447 0)
(211.297 7.46462 0)
(211.268 8.07008 0)
(211.217 8.70176 0)
(211.145 9.36097 0)
(211.048 10.0491 0)
(210.927 10.7646 0)
(210.784 11.5062 0)
(210.618 12.272 0)
(210.427 13.0604 0)
(210.209 13.871 0)
(209.963 14.7039 0)
(209.688 15.56 0)
(209.387 16.4395 0)
(209.065 17.3426 0)
(208.723 18.2705 0)
(208.361 19.2252 0)
(207.978 20.2083 0)
(207.576 21.2206 0)
(207.155 22.2623 0)
(206.716 23.3335 0)
(206.258 24.435 0)
(205.779 25.5676 0)
(205.28 26.7319 0)
(204.759 27.9287 0)
(204.219 29.1589 0)
(203.659 30.4234 0)
(203.081 31.7235 0)
(202.487 33.0599 0)
(201.879 34.4337 0)
(201.259 35.8463 0)
(200.629 37.2993 0)
(199.992 38.7946 0)
(199.35 40.3345 0)
(198.703 41.9214 0)
(198.054 43.5582 0)
(197.406 45.2473 0)
(196.762 46.9921 0)
(196.126 48.7961 0)
(195.499 50.6617 0)
(194.893 52.5848 0)
(194.319 54.5772 0)
(193.73 56.6564 0)
(193.219 58.7915 0)
(192.722 61.0137 0)
(192.293 63.3185 0)
(191.911 65.7119 0)
(191.601 68.1962 0)
(191.372 70.7775 0)
(191.226 73.4572 0)
(191.206 76.2449 0)
(191.279 79.1368 0)
(191.543 82.1488 0)
(191.905 85.2676 0)
(192.537 88.5095 0)
(193.288 91.857 0)
(194.384 95.3225 0)
(195.653 98.8925 0)
(197.313 102.561 0)
(199.251 106.317 0)
(201.595 110.147 0)
(204.345 114.036 0)
(207.547 117.952 0)
(211.24 121.891 0)
(215.507 125.787 0)
(220.255 129.623 0)
(225.654 133.235 0)
(231.596 136.742 0)
(238.205 139.964 0)
(245.271 142.708 0)
(253.423 145.257 0)
(261.45 147.18 0)
(270.379 148.932 0)
(279.658 150.347 0)
(289.522 151.092 0)
(299.094 150.876 0)
(307.442 149.159 0)
(314.814 147.605 0)
(329.004 146.314 0)
(332.064 155.742 0)
(210 -1.68518e-12 0)
(210 -1.06588e-11 0)
(210 -1.24142e-11 0)
(210 -1.27414e-11 0)
(210 -1.01069e-11 0)
(210 -2.15402e-12 0)
(210 -9.76375e-12 0)
(210 -5.72125e-12 0)
(210 6.98101e-12 0)
(210 8.15438e-12 0)
(210 -7.02621e-12 0)
(210 9.93888e-13 0)
(210 -1.40602e-10 0)
(210 -1.79194e-08 0)
(210 -1.45266e-06 0)
(209.999 -2.15495e-05 0)
(209.974 0.0023203 0)
(209.664 0.0591468 0)
(208.415 0.379078 0)
(206.564 0.975013 0)
(205.253 1.39185 0)
(205.057 1.55236 0)
(205.156 1.60149 0)
(206.001 1.45258 0)
(207.175 1.13671 0)
(208.114 1.04593 0)
(208.663 1.1103 0)
(208.862 1.2719 0)
(208.942 1.50242 0)
(209.036 1.78093 0)
(209.158 2.09546 0)
(209.357 2.41026 0)
(209.596 2.71695 0)
(209.817 3.03702 0)
(210.012 3.38464 0)
(210.179 3.76885 0)
(210.319 4.19545 0)
(210.432 4.65833 0)
(210.532 5.14486 0)
(210.608 5.6482 0)
(210.665 6.16677 0)
(210.67 6.70445 0)
(210.656 7.25564 0)
(210.608 7.8464 0)
(210.54 8.46027 0)
(210.451 9.1026 0)
(210.337 9.77427 0)
(210.198 10.4737 0)
(210.037 11.199 0)
(209.852 11.9476 0)
(209.644 12.7179 0)
(209.409 13.5092 0)
(209.146 14.3219 0)
(208.852 15.1566 0)
(208.53 16.0137 0)
(208.184 16.8933 0)
(207.817 17.7962 0)
(207.427 18.7241 0)
(207.016 19.6788 0)
(206.584 20.6615 0)
(206.131 21.6726 0)
(205.66 22.7124 0)
(205.169 23.7816 0)
(204.657 24.8811 0)
(204.124 26.0115 0)
(203.569 27.1736 0)
(202.992 28.3683 0)
(202.393 29.5963 0)
(201.774 30.8588 0)
(201.135 32.1566 0)
(200.48 33.4908 0)
(199.809 34.8624 0)
(199.125 36.2732 0)
(198.429 37.7247 0)
(197.723 39.2195 0)
(197.007 40.7596 0)
(196.285 42.3481 0)
(195.556 43.9876 0)
(194.825 45.6809 0)
(194.092 47.4309 0)
(193.364 49.241 0)
(192.645 51.1154 0)
(191.932 53.0577 0)
(191.24 55.0633 0)
(190.58 57.1467 0)
(189.908 59.3203 0)
(189.31 61.5637 0)
(188.735 63.8992 0)
(188.225 66.3272 0)
(187.772 68.8545 0)
(187.39 71.4819 0)
(187.107 74.2188 0)
(186.901 77.0609 0)
(186.855 80.025 0)
(186.891 83.0966 0)
(187.16 86.3021 0)
(187.521 89.6217 0)
(188.186 93.0826 0)
(188.984 96.6626 0)
(190.139 100.374 0)
(191.525 104.203 0)
(193.294 108.148 0)
(195.429 112.195 0)
(197.978 116.328 0)
(201.002 120.526 0)
(204.55 124.734 0)
(208.604 128.953 0)
(213.342 133.088 0)
(218.565 137.204 0)
(224.522 141.17 0)
(231.235 144.939 0)
(238.607 148.084 0)
(247.041 151.141 0)
(255.114 153.453 0)
(265.283 155.696 0)
(273.658 157.24 0)
(283.685 158.077 0)
(291.899 157.528 0)
(298.778 157.094 0)
(313.654 156.474 0)
(316.008 167.87 0)
(210 -1.94092e-12 0)
(210 -8.05147e-12 0)
(210 -7.53588e-12 0)
(210 -1.4664e-11 0)
(210 6.09197e-12 0)
(210 4.9552e-12 0)