/*--------------------------------*- C++ -*----------------------------------*\
| =========                 |                                                 |
| \\      /  F ield         | OpenFOAM: The Open Source CFD Toolbox           |
|  \\    /   O peration     | Version:  2412                                  |
|   \\  /    A nd           | Website:  www.openfoam.com                      |
|    \\/     M anipulation  |                                                 |
\*---------------------------------------------------------------------------*/
FoamFile
{
    version     2.0;
    format      ascii;
    arch        "LSB;label=32;scalar=64";
    class       volScalarField;
    location    "0.116";
    object      T;
}
// * * * * * * * * * * * * * * * * * * * * * * * * * * * * * * * * * * * * * //

dimensions      [0 0 0 1 0 0 0];

internalField   nonuniform List<scalar> 
9857
(
217.666
220.842
220.773
217.238
220.738
220.708
220.78
221.132
221.649
222.064
222.329
222.511
222.652
222.744
222.795
222.809
222.808
222.812
222.835
222.903
222.99
223.081
223.172
223.26
223.339
223.408
223.468
223.523
216.795
220.635
220.648
220.739
221.112
221.636
222.046
222.31
222.5
222.648
222.746
222.8
222.814
222.813
222.815
222.833
222.899
222.984
223.074
223.166
223.256
223.336
223.406
223.467
223.523
216.133
220.53
220.593
220.706
221.1
221.627
222.031
222.294
222.492
222.646
222.749
222.804
222.819
222.817
222.816
222.83
222.892
222.975
223.064
223.158
223.25
223.332
223.403
223.465
223.523
215.292
220.401
220.538
220.682
221.101
221.625
222.021
222.285
222.488
222.645
222.751
222.806
222.823
222.82
222.816
222.824
222.881
222.962
223.052
223.149
223.243
223.327
223.4
223.464
223.523
214.414
220.245
220.481
220.668
221.116
221.639
222.023
222.285
222.489
222.646
222.753
222.808
222.824
222.819
222.811
222.814
222.867
222.948
223.04
223.14
223.236
223.322
223.396
223.462
223.523
213.491
220.056
220.417
220.654
221.14
221.662
222.037
222.295
222.494
222.646
222.752
222.805
222.82
222.812
222.8
222.802
222.851
222.934
223.029
223.131
223.23
223.318
223.393
223.46
223.524
212.535
219.867
220.356
220.642
221.171
221.694
222.059
222.31
222.5
222.647
222.747
222.795
222.808
222.799
222.787
222.79
222.834
222.922
223.02
223.124
223.225
223.313
223.39
223.459
223.524
223.59
211.553
219.717
220.295
220.632
221.204
221.727
222.084
222.327
222.508
222.648
222.74
222.782
222.793
222.784
222.773
222.777
222.818
222.911
223.012
223.118
223.22
223.309
223.387
223.458
223.525
223.593
210.562
219.548
220.264
220.643
221.237
221.758
222.11
222.346
222.52
222.649
222.731
222.768
222.777
222.769
222.758
222.765
222.804
222.902
223.005
223.113
223.215
223.305
223.384
223.456
223.526
223.596
223.668
209.533
219.39
220.179
220.603
221.249
221.78
222.13
222.362
222.529
222.65
222.725
222.756
222.763
222.755
222.745
222.752
222.792
222.894
222.999
223.108
223.21
223.301
223.381
223.455
223.526
223.598
223.673
208.467
219.206
220.136
220.604
221.272
221.801
222.145
222.372
222.535
222.652
222.722
222.749
222.752
222.743
222.732
222.741
222.781
222.888
222.994
223.104
223.206
223.296
223.377
223.453
223.527
223.601
223.678
223.756
207.369
219.016
220.112
220.628
221.31
221.822
222.151
222.371
222.536
222.654
222.721
222.745
222.744
222.733
222.722
222.731
222.772
222.882
222.99
223.098
223.2
223.291
223.374
223.451
223.527
223.604
223.682
223.762
206.234
218.828
220.124
220.679
221.357
221.84
222.148
222.366
222.533
222.653
222.722
222.743
222.739
222.725
222.713
222.721
222.765
222.876
222.984
223.093
223.195
223.286
223.37
223.449
223.527
223.606
223.687
223.768
223.85
223.933
224.018
224.103
224.188
224.275
224.362
224.451
224.54
224.631
224.723
224.817
224.912
225.01
225.11
225.212
225.317
225.424
225.533
225.646
225.761
225.879
226.001
226.125
226.251
226.381
226.513
226.648
226.787
226.929
227.075
227.225
205.054
218.638
220.132
220.725
221.398
221.852
222.143
222.355
222.526
222.652
222.723
222.744
222.736
222.719
222.705
222.712
222.757
222.869
222.978
223.086
223.188
223.28
223.365
223.446
223.527
223.609
223.691
223.774
223.857
223.942
224.027
224.113
224.2
224.287
224.376
224.465
224.555
224.646
224.739
224.833
224.929
225.028
225.128
225.231
225.336
225.443
225.552
225.665
225.78
225.898
226.019
226.143
226.269
226.398
226.529
226.664
226.801
226.942
227.087
227.236
203.855
218.419
220.14
220.775
221.433
221.856
222.13
222.339
222.516
222.649
222.723
222.743
222.733
222.712
222.696
222.702
222.75
222.861
222.972
223.08
223.182
223.275
223.361
223.444
223.527
223.611
223.695
223.78
223.864
223.95
224.037
224.124
224.211
224.299
224.388
224.478
224.569
224.661
224.754
224.849
224.946
225.045
225.146
225.249
225.353
225.461
225.57
225.683
225.798
225.916
226.037
226.16
226.285
226.413
226.544
226.677
226.814
226.954
227.097
227.244
202.648
218.187
220.163
220.836
221.473
221.856
222.112
222.32
222.505
222.645
222.722
222.741
222.729
222.704
222.686
222.691
222.742
222.853
222.965
223.073
223.175
223.269
223.357
223.442
223.528
223.613
223.699
223.785
223.871
223.958
224.046
224.134
224.222
224.311
224.401
224.491
224.583
224.675
224.769
224.864
224.962
225.061
225.162
225.265
225.37
225.478
225.587
225.7
225.815
225.933
226.053
226.175
226.3
226.427
226.556
226.689
226.824
226.963
227.106
227.251
201.422
217.953
220.206
220.9
221.51
221.854
222.094
222.302
222.493
222.639
222.718
222.737
222.722
222.694
222.674
222.68
222.734
222.845
222.958
223.066
223.169
223.264
223.353
223.441
223.528
223.616
223.703
223.79
223.878
223.966
224.054
224.143
224.232
224.322
224.412
224.503
224.595
224.688
224.783
224.879
224.977
225.077
225.178
225.281
225.386
225.493
225.603
225.716
225.831
225.948
226.068
226.189
226.313
226.439
226.568
226.699
226.834
226.971
227.112
227.257
200.181
217.723
220.257
220.963
221.542
221.853
222.077
222.285
222.48
222.631
222.712
222.73
222.713
222.682
222.662
222.669
222.726
222.837
222.951
223.059
223.162
223.258
223.35
223.439
223.529
223.618
223.707
223.795
223.884
223.973
224.063
224.152
224.242
224.332
224.423
224.515
224.607
224.701
224.796
224.893
224.991
225.091
225.193
225.296
225.401
225.508
225.618
225.731
225.845
225.962
226.081
226.202
226.325
226.45
226.577
226.708
226.841
226.977
227.117
227.26
198.92
217.52
220.304
221.028
221.57
221.85
222.061
222.268
222.468
222.621
222.702
222.719
222.701
222.669
222.649
222.658
222.718
222.829
222.944
223.052
223.156
223.254
223.347
223.438
223.529
223.62
223.71
223.8
223.89
223.98
224.071
224.161
224.252
224.342
224.434
224.526
224.619
224.713
224.809
224.906
225.005
225.105
225.207
225.31
225.415
225.523
225.632
225.745
225.859
225.975
226.093
226.213
226.335
226.459
226.586
226.715
226.847
226.982
227.12
227.262
197.629
217.335
220.319
221.067
221.592
221.846
222.046
222.252
222.454
222.609
222.689
222.706
222.687
222.655
222.636
222.647
222.71
222.823
222.938
223.045
223.151
223.249
223.344
223.438
223.53
223.623
223.714
223.805
223.896
223.987
224.078
224.169
224.26
224.352
224.444
224.536
224.63
224.725
224.821
224.919
225.018
225.118
225.22
225.323
225.428
225.536
225.646
225.758
225.871
225.987
226.104
226.223
226.344
226.467
226.593
226.721
226.851
226.985
227.122
227.262
196.346
217.173
220.338
221.105
221.606
221.84
222.031
222.235
222.439
222.594
222.674
222.691
222.673
222.642
222.624
222.637
222.704
222.817
222.933
223.04
223.146
223.246
223.342
223.437
223.531
223.625
223.717
223.809
223.902
223.994
224.086
224.177
224.269
224.361
224.453
224.546
224.64
224.736
224.833
224.931
225.03
225.13
225.232
225.335
225.441
225.548
225.658
225.769
225.883
225.998
226.114
226.232
226.352
226.474
226.598
226.725
226.854
226.987
227.122
227.26
195.099
216.958
220.363
221.136
221.617
221.833
222.017
222.219
222.423
222.579
222.659
222.677
222.66
222.629
222.612
222.628
222.698
222.812
222.927
223.034
223.141
223.242
223.34
223.437
223.532
223.627
223.721
223.814
223.907
224
224.093
224.185
224.277
224.37
224.462
224.556
224.65
224.746
224.844
224.942
225.042
225.142
225.243
225.347
225.452
225.56
225.669
225.78
225.893
226.007
226.123
226.24
226.359
226.48
226.603
226.728
226.856
226.987
227.121
227.257
193.882
216.693
220.384
221.161
221.631
221.825
222.001
222.202
222.407
222.563
222.644
222.663
222.646
222.616
222.601
222.619
222.694
222.808
222.923
223.029
223.137
223.24
223.339
223.437
223.533
223.629
223.724
223.818
223.912
224.006
224.099
224.192
224.285
224.378
224.471
224.565
224.66
224.757
224.854
224.953
225.052
225.153
225.254
225.358
225.463
225.571
225.68
225.79
225.902
226.016
226.13
226.246
226.364
226.484
226.606
226.73
226.857
226.986
227.118
227.252
192.681
216.474
220.424
221.179
221.643
221.816
221.984
222.185
222.39
222.548
222.63
222.65
222.633
222.604
222.59
222.611
222.689
222.804
222.918
223.025
223.133
223.237
223.338
223.437
223.534
223.631
223.727
223.822
223.917
224.012
224.105
224.199
224.292
224.385
224.479
224.574
224.669
224.766
224.864
224.963
225.062
225.163
225.264
225.368
225.473
225.581
225.689
225.8
225.911
226.023
226.137
226.252
226.369
226.487
226.608
226.731
226.856
226.984
227.114
227.246
191.461
216.277
220.469
221.216
221.647
221.805
221.965
222.166
222.374
222.533
222.616
222.636
222.62
222.592
222.579
222.603
222.685
222.801
222.914
223.021
223.13
223.234
223.337
223.437
223.536
223.633
223.73
223.826
223.922
224.017
224.111
224.205
224.299
224.392
224.487
224.582
224.678
224.776
224.874
224.972
225.072
225.172
225.274
225.378
225.483
225.59
225.698
225.808
225.918
226.03
226.143
226.257
226.372
226.49
226.609
226.731
226.854
226.98
227.108
227.239
190.204
216.112
220.434
221.215
221.643
221.791
221.947
222.148
222.358
222.519
222.602
222.622
222.606
222.579
222.568
222.595
222.681
222.797
222.91
223.017
223.126
223.232
223.335
223.437
223.537
223.635
223.733
223.83
223.926
224.022
224.117
224.211
224.305
224.399
224.494
224.59
224.687
224.784
224.882
224.981
225.081
225.181
225.283
225.387
225.492
225.599
225.707
225.815
225.925
226.036
226.147
226.26
226.375
226.491
226.609
226.729
226.851
226.975
227.102
227.23
188.977
215.969
220.43
221.219
221.633
221.775
221.931
222.131
222.342
222.503
222.586
222.606
222.591
222.565
222.557
222.587
222.677
222.794
222.907
223.014
223.123
223.23
223.334
223.437
223.537
223.637
223.736
223.834
223.931
224.027
224.122
224.217
224.311
224.406
224.501
224.598
224.695
224.792
224.891
224.989
225.089
225.19
225.292
225.395
225.5
225.607
225.714
225.822
225.931
226.041
226.151
226.263
226.377
226.492
226.608
226.727
226.847
226.97
227.094
227.221
187.797
215.748
220.447
221.223
221.618
221.758
221.915
222.115
222.326
222.486
222.568
222.589
222.575
222.551
222.546
222.579
222.673
222.79
222.903
223.011
223.12
223.228
223.333
223.437
223.538
223.639
223.738
223.837
223.935
224.032
224.127
224.222
224.317
224.412
224.508
224.605
224.702
224.8
224.898
224.997
225.097
225.198
225.3
225.403
225.508
225.614
225.721
225.828
225.936
226.045
226.154
226.265
226.377
226.491
226.607
226.724
226.842
226.963
227.086
227.21
186.61
215.547
220.445
221.219
221.602
221.74
221.899
222.1
222.309
222.467
222.549
222.571
222.558
222.537
222.535
222.572
222.669
222.787
222.899
223.007
223.117
223.226
223.332
223.437
223.539
223.641
223.741
223.84
223.939
224.036
224.132
224.227
224.322
224.418
224.515
224.612
224.71
224.807
224.905
225.004
225.104
225.205
225.307
225.411
225.515
225.621
225.727
225.833
225.94
226.048
226.157
226.267
226.378
226.49
226.604
226.719
226.837
226.955
227.076
227.198
185.453
215.358
220.447
221.218
221.586
221.721
221.882
222.082
222.29
222.447
222.529
222.552
222.541
222.523
222.524
222.565
222.664
222.783
222.895
223.004
223.114
223.224
223.331
223.436
223.54
223.642
223.743
223.844
223.942
224.04
224.136
224.232
224.328
224.425
224.522
224.619
224.716
224.814
224.912
225.011
225.111
225.212
225.314
225.418
225.522
225.627
225.732
225.838
225.944
226.051
226.158
226.267
226.377
226.488
226.601
226.715
226.83
226.947
227.065
227.185
227.307
227.429
227.553
227.678
227.805
227.932
228.06
228.188
228.317
228.445
228.573
228.7
228.826
228.95
229.072
229.192
229.308
229.42
229.528
229.631
229.728
229.819
229.904
229.982
230.052
230.114
230.167
230.212
230.248
230.275
230.293
230.302
230.304
230.295
230.278
230.254
230.221
230.182
230.136
184.329
215.144
220.451
221.226
221.577
221.703
221.862
222.062
222.269
222.425
222.508
222.532
222.523
222.508
222.513
222.558
222.66
222.779
222.89
223.001
223.112
223.222
223.33
223.436
223.541
223.644
223.746
223.847
223.946
224.043
224.14
224.236
224.333
224.43
224.528
224.625
224.722
224.82
224.919
225.018
225.118
225.219
225.321
225.424
225.528
225.632
225.737
225.842
225.947
226.053
226.16
226.267
226.376
226.486
226.597
226.709
226.823
226.938
227.054
227.172
227.29
227.41
227.531
227.654
227.776
227.9
228.024
228.148
228.273
228.397
228.52
228.642
228.763
228.881
228.997
229.111
229.22
229.326
229.427
229.523
229.613
229.697
229.774
229.844
229.907
229.961
230.007
230.044
230.073
230.093
230.105
230.108
230.103
230.088
230.066
230.037
230
229.957
229.907
229.853
229.792
229.728
229.658
229.588
229.512
229.436
229.359
229.279
229.199
183.236
214.925
220.427
221.231
221.58
221.687
221.839
222.038
222.246
222.403
222.487
222.513
222.506
222.494
222.503
222.553
222.656
222.775
222.886
222.998
223.109
223.221
223.329
223.436
223.541
223.645
223.748
223.849
223.949
224.047
224.144
224.241
224.338
224.436
224.533
224.631
224.728
224.826
224.925
225.024
225.124
225.225
225.327
225.43
225.533
225.637
225.741
225.845
225.949
226.054
226.16
226.267
226.374
226.482
226.592
226.703
226.814
226.927
227.042
227.157
227.273
227.39
227.509
227.627
227.747
227.867
227.987
228.108
228.228
228.347
228.465
228.582
228.697
228.81
228.921
229.028
229.131
229.23
229.324
229.413
229.496
229.573
229.643
229.705
229.76
229.807
229.846
229.876
229.898
229.911
229.916
229.914
229.902
229.882
229.855
229.821
229.78
229.733
229.681
229.623
229.56
229.494
229.423
229.351
229.275
229.199
229.121
229.041
228.961
228.88
228.799
228.718
228.638
228.56
228.484
228.412
228.344
228.28
228.217
228.149
228.053
182.151
214.73
220.416
221.23
221.587
221.675
221.816
222.013
222.222
222.381
222.465
222.493
222.489
222.479
222.493
222.548
222.653
222.771
222.883
222.995
223.107
223.219
223.329
223.436
223.542
223.647
223.75
223.852
223.952
224.05
224.147
224.245
224.343
224.441
224.538
224.636
224.734
224.832
224.931
225.03
225.13
225.231
225.333
225.435
225.538
225.641
225.744
225.848
225.951
226.055
226.16
226.265
226.372
226.479
226.587
226.696
226.806
226.917
227.029
227.141
227.255
227.37
227.485
227.6
227.717
227.833
227.949
228.066
228.181
228.296
228.409
228.521
228.631
228.738
228.843
228.944
229.041
229.133
229.221
229.302
229.378
229.448
229.51
229.566
229.613
229.653
229.684
229.708
229.723
229.73
229.729
229.72
229.702
229.678
229.646
229.607
229.563
229.512
229.457
229.397
229.331
229.264
229.191
229.118
229.041
228.965
228.887
228.806
228.727
228.646
228.566
228.486
228.407
228.329
228.255
228.184
228.117
228.054
227.992
227.926
227.832
181.047
214.538
220.419
221.233
221.593
221.666
221.797
221.99
222.199
222.358
222.444
222.474
222.472
222.465
222.482
222.543
222.65
222.767
222.879
222.992
223.105
223.218
223.328
223.436
223.543
223.649
223.752
223.854
223.954
224.053
224.151
224.249
224.348
224.446
224.543
224.641
224.739
224.837
224.936
225.036
225.136
225.237
225.338
225.44
225.543
225.645
225.747
225.85
225.953
226.056
226.159
226.264
226.369
226.474
226.581
226.688
226.796
226.905
227.015
227.125
227.236
227.348
227.46
227.572
227.685
227.798
227.91
228.022
228.133
228.243
228.352
228.459
228.563
228.665
228.763
228.858
228.949
229.034
229.115
229.19
229.259
229.321
229.377
229.425
229.465
229.498
229.522
229.539
229.548
229.549
229.542
229.526
229.504
229.474
229.438
229.395
229.347
229.293
229.235
229.172
229.105
229.035
228.961
228.887
228.811
228.733
228.655
228.575
228.496
228.416
228.335
228.256
228.178
228.101
228.028
227.958
227.893
227.831
227.77
227.705
227.613
179.899
214.362
220.352
221.227
221.598
221.664
221.786
221.972
222.177
222.335
222.422
222.454
222.456
222.45
222.472
222.539
222.647
222.764
222.876
222.99
223.103
223.217
223.327
223.436
223.544
223.65
223.754
223.857
223.957
224.056
224.155
224.253
224.352
224.45
224.548
224.646
224.744
224.842
224.941
225.041
225.141
225.242
225.343
225.445
225.547
225.648
225.75
225.852
225.954
226.056
226.159
226.262
226.365
226.469
226.574
226.68
226.786
226.893
227
227.108
227.217
227.325
227.435
227.544
227.653
227.762
227.87
227.978
228.085
228.19
228.294
228.395
228.494
228.59
228.683
228.771
228.856
228.935
229.009
229.077
229.139
229.194
229.243
229.284
229.317
229.343
229.361
229.371
229.374
229.369
229.355
229.334
229.307
229.273
229.232
229.186
229.134
229.077
229.015
228.951
228.881
228.81
228.735
228.66
228.583
228.504
228.426
228.346
228.267
228.187
228.107
228.029
227.951
227.876
227.803
227.734
227.669
227.608
227.548
227.484
227.393
178.784
214.223
220.291
221.226
221.6
221.664
221.784
221.961
222.158
222.314
222.401
222.435
222.439
222.437
222.463
222.535
222.645
222.761
222.873
222.987
223.102
223.216
223.327
223.436
223.545
223.651
223.756
223.859
223.959
224.059
224.158
224.257
224.356
224.454
224.552
224.65
224.748
224.847
224.946
225.046
225.146
225.246
225.348
225.449
225.55
225.651
225.752
225.853
225.954
226.056
226.157
226.259
226.361
226.464
226.567
226.671
226.775
226.88
226.985
227.091
227.196
227.302
227.408
227.514
227.62
227.725
227.829
227.933
228.035
228.136
228.234
228.33
228.424
228.514
228.601
228.683
228.761
228.834
228.901
228.963
229.018
229.066
229.108
229.142
229.168
229.187
229.199
229.203
229.2
229.188
229.169
229.143
229.111
229.072
229.028
228.978
228.922
228.863
228.798
228.732
228.66
228.588
228.511
228.435
228.358
228.279
228.2
228.12
228.041
227.962
227.882
227.804
227.727
227.652
227.58
227.512
227.448
227.388
227.329
227.265
227.174
177.731
214.018
220.257
221.221
221.601
221.67
221.787
221.955
222.143
222.294
222.38
222.416
222.423
222.424
222.455
222.531
222.642
222.758
222.871
222.986
223.1
223.215
223.326
223.437
223.545
223.653
223.758
223.861
223.962
224.062
224.161
224.261
224.36
224.458
224.556
224.655
224.753
224.852
224.951
225.05
225.15
225.251
225.352
225.452
225.553
225.654
225.754
225.854
225.955
226.055
226.155
226.256
226.357
226.458
226.56
226.662
226.764
226.867
226.97
227.073
227.175
227.278
227.381
227.484
227.586
227.687
227.788
227.887
227.985
228.08
228.174
228.265
228.353
228.438
228.518
228.595
228.666
228.733
228.793
228.848
228.896
228.938
228.973
229
229.02
229.032
229.038
229.036
229.026
229.009
228.985
228.954
228.917
228.874
228.826
228.772
228.713
228.651
228.584
228.515
228.442
228.368
228.291
228.214
228.135
228.056
227.977
227.897
227.818
227.738
227.659
227.582
227.505
227.431
227.359
227.292
227.229
227.169
227.11
227.047
226.958
176.723
213.768
220.235
221.208
221.604
221.681
221.796
221.955
222.131
222.276
222.361
222.397
222.407
222.412
222.448
222.528
222.64
222.755
222.869
222.984
223.099
223.214
223.326
223.437
223.546
223.654
223.759
223.862
223.964
224.064
224.164
224.264
224.363
224.462
224.56
224.659
224.757
224.856
224.955
225.055
225.155
225.255
225.355
225.456
225.556
225.656
225.756
225.855
225.954
226.054
226.153
226.253
226.352
226.452
226.552
226.652
226.753
226.853
226.953
227.054
227.154
227.254
227.354
227.453
227.551
227.649
227.745
227.84
227.933
228.024
228.113
228.198
228.281
228.36
228.435
228.505
228.57
228.63
228.684
228.732
228.774
228.809
228.837
228.858
228.871
228.878
228.878
228.869
228.853
228.831
228.802
228.766
228.725
228.678
228.625
228.568
228.507
228.442
228.373
228.302
228.226
228.151
228.073
227.995
227.916
227.836
227.757
227.677
227.597
227.518
227.439
227.362
227.286
227.212
227.141
227.075
227.012
226.952
226.894
226.831
226.743
175.717
213.571
220.259
221.188
221.607
221.693
221.808
221.957
222.122
222.26
222.342
222.379
222.391
222.401
222.442
222.525
222.638
222.753
222.867
222.983
223.098
223.214
223.326
223.437
223.547
223.655
223.761
223.864
223.966
224.067
224.167
224.267
224.367
224.465
224.564
224.663
224.761
224.86
224.959
225.059
225.159
225.259
225.359
225.459
225.558
225.658
225.757
225.855
225.954
226.052
226.151
226.249
226.347
226.446
226.544
226.642
226.741
226.839
226.937
227.035
227.132
227.229
227.325
227.421
227.516
227.61
227.702
227.793
227.881
227.967
228.051
228.131
228.208
228.282
228.35
228.415
228.474
228.527
228.575
228.617
228.652
228.68
228.702
228.716
228.723
228.725
228.717
228.703
228.682
228.654
228.62
228.58
228.534
228.483
228.427
228.367
228.303
228.235
228.164
228.091
228.014
227.937
227.858
227.779
227.7
227.619
227.54
227.459
227.379
227.301
227.222
227.145
227.069
226.995
226.925
226.859
226.796
226.737
226.679
226.616
226.528
174.688
213.403
220.252
221.18
221.609
221.705
221.82
221.961
222.115
222.245
222.324
222.36
222.375
222.39
222.436
222.523
222.636
222.751
222.865
222.981
223.098
223.213
223.326
223.437
223.548
223.656
223.762
223.866
223.968
224.069
224.17
224.27
224.37
224.469
224.568
224.666
224.765
224.864
224.963
225.063
225.162
225.262
225.362
225.461
225.561
225.659
225.758
225.855
225.953
226.05
226.148
226.245
226.342
226.439
226.535
226.632
226.728
226.824
226.92
227.015
227.11
227.204
227.297
227.389
227.48
227.57
227.658
227.744
227.828
227.91
227.988
228.063
228.135
228.202
228.265
228.324
228.376
228.424
228.465
228.5
228.529
228.551
228.566
228.574
228.576
228.571
228.557
228.538
228.511
228.479
228.44
228.396
228.346
228.291
228.232
228.169
228.101
228.031
227.957
227.883
227.804
227.727
227.646
227.567
227.486
227.405
227.325
227.245
227.165
227.086
227.007
226.93
226.855
226.782
226.712
226.646
226.584
226.525
226.467
226.404
226.318
173.615
213.245
220.192
221.172
221.611
221.714
221.832
221.966
222.109
222.231
222.307
222.343
222.36
222.379
222.43
222.521
222.634
222.749
222.864
222.981
223.097
223.213
223.326
223.438
223.548
223.657
223.763
223.867
223.97
224.071
224.172
224.273
224.373
224.472
224.571
224.67
224.769
224.868
224.967
225.066
225.166
225.265
225.365
225.464
225.562
225.66
225.758
225.855
225.952
226.048
226.145
226.241
226.336
226.432
226.527
226.621
226.715
226.809
226.902
226.995
227.087
227.178
227.268
227.356
227.444
227.53
227.614
227.696
227.775
227.852
227.925
227.995
228.061
228.123
228.18
228.232
228.279
228.32
228.356
228.384
228.407
228.422
228.431
228.434
228.43
228.418
228.399
228.374
228.343
228.305
228.262
228.213
228.16
228.101
228.039
227.972
227.902
227.83
227.754
227.678
227.598
227.519
227.438
227.357
227.276
227.194
227.114
227.033
226.953
226.874
226.795
226.718
226.643
226.57
226.5
226.435
226.373
226.314
226.256
226.194
226.108
172.544
213.079
220.142
221.166
221.613
221.722
221.843
221.972
222.104
222.217
222.29
222.325
222.345
222.369
222.425
222.518
222.632
222.748
222.863
222.98
223.097
223.213
223.326
223.438
223.549
223.658
223.764
223.869
223.972
224.073
224.175
224.275
224.376
224.475
224.574
224.673
224.772
224.871
224.97
225.069
225.169
225.268
225.367
225.466
225.564
225.661
225.758
225.855
225.951
226.046
226.141
226.236
226.33
226.424
226.517
226.61
226.702
226.794
226.884
226.974
227.063
227.151
227.238
227.323
227.407
227.489
227.569
227.646
227.721
227.793
227.861
227.926
227.987
228.043
228.094
228.141
228.181
228.216
228.245
228.268
228.284
228.294
228.297
228.294
228.283
228.265
228.242
228.211
228.175
228.133
228.085
228.033
227.975
227.913
227.848
227.779
227.706
227.632
227.554
227.476
227.394
227.314
227.232
227.15
227.069
226.986
226.905
226.825
226.744
226.665
226.587
226.51
226.435
226.362
226.293
226.227
226.165
226.107
226.049
225.987
225.9
171.548
212.946
220.111
221.161
221.61
221.727
221.853
221.976
222.098
222.204
222.273
222.308
222.33
222.358
222.419
222.516
222.63
222.746
222.862
222.979
223.097
223.213
223.326
223.438
223.55
223.659
223.766
223.87
223.973
224.075
224.177
224.278
224.378
224.478
224.577
224.676
224.775
224.874
224.973
225.073
225.172
225.271
225.37
225.468
225.565
225.662
225.759
225.854
225.949
226.044
226.138
226.231
226.324
226.416
226.508
226.599
226.689
226.778
226.866
226.954
227.04
227.125
227.208
227.29
227.37
227.448
227.524
227.597
227.667
227.734
227.798
227.857
227.912
227.963
228.009
228.049
228.084
228.113
228.136
228.152
228.162
228.166
228.164
228.154
228.138
228.115
228.086
228.05
228.009
227.963
227.911
227.854
227.793
227.728
227.659
227.588
227.513
227.436
227.356
227.277
227.194
227.112
227.03
226.947
226.865
226.782
226.7
226.619
226.539
226.459
226.381
226.304
226.229
226.156
226.087
226.022
225.961
225.902
225.844
225.783
225.697
170.61
212.7
220.109
221.147
221.603
221.731
221.86
221.98
222.093
222.19
222.256
222.291
222.316
222.348
222.413
222.513
222.629
222.745
222.861
222.979
223.096
223.213
223.326
223.439
223.55
223.66
223.767
223.871
223.975
224.077
224.179
224.28
224.381
224.481
224.58
224.679
224.778
224.877
224.976
225.075
225.175
225.273
225.372
225.469
225.567
225.663
225.758
225.853
225.948
226.041
226.134
226.226
226.318
226.408
226.498
226.587
226.675
226.762
226.848
226.933
227.016
227.098
227.178
227.256
227.333
227.407
227.478
227.547
227.613
227.675
227.733
227.787
227.837
227.882
227.922
227.957
227.986
228.009
228.026
228.036
228.041
228.039
228.03
228.015
227.993
227.965
227.931
227.891
227.845
227.794
227.738
227.678
227.614
227.545
227.474
227.4
227.322
227.244
227.162
227.081
226.997
226.914
226.83
226.747
226.664
226.581
226.499
226.417
226.337
226.257
226.179
226.102
226.027
225.955
225.886
225.821
225.76
225.701
225.644
225.582
225.496
169.716
212.492
220.12
221.119
221.594
221.732
221.865
221.982
222.086
222.176
222.238
222.274
222.301
222.338
222.408
222.51
222.627
222.744
222.861
222.979
223.096
223.213
223.326
223.439
223.551
223.66
223.767
223.872
223.976
224.079
224.181
224.283
224.384
224.483
224.583
224.682
224.781
224.88
224.979
225.078
225.177
225.276
225.374
225.471
225.567
225.663
225.758
225.852
225.946
226.038
226.13
226.221
226.311
226.4
226.488
226.575
226.661
226.746
226.829
226.911
226.992
227.071
227.148
227.223
227.295
227.365
227.433
227.497
227.558
227.615
227.669
227.718
227.762
227.802
227.836
227.865
227.888
227.906
227.917
227.922
227.921
227.913
227.898
227.877
227.85
227.817
227.778
227.733
227.683
227.628
227.568
227.504
227.437
227.365
227.291
227.214
227.134
227.054
226.97
226.888
226.803
226.719
226.635
226.55
226.467
226.383
226.3
226.219
226.138
226.058
225.98
225.903
225.828
225.756
225.687
225.622
225.561
225.503
225.446
225.385
225.299
168.825
212.333
220.124
221.086
221.582
221.731
221.868
221.981
222.078
222.161
222.22
222.256
222.286
222.327
222.402
222.507
222.625
222.743
222.86
222.979
223.096
223.213
223.327
223.44
223.552
223.661
223.768
223.873
223.977
224.081
224.183
224.285
224.386
224.486
224.585
224.684
224.784
224.883
224.982
225.081
225.179
225.278
225.375
225.472
225.568
225.663
225.758
225.851
225.944
226.035
226.126
226.216
226.304
226.392
226.478
226.563
226.647
226.73
226.811
226.89
226.968
227.043
227.117
227.188
227.257
227.324
227.387
227.447
227.503
227.556
227.604
227.648
227.687
227.722
227.75
227.774
227.791
227.802
227.808
227.808
227.8
227.786
227.766
227.74
227.708
227.67
227.626
227.577
227.523
227.463
227.4
227.333
227.262
227.188
227.111
227.032
226.95
226.868
226.782
226.698
226.612
226.527
226.442
226.357
226.273
226.188
226.105
226.024
225.943
225.863
225.785
225.708
225.633
225.561
225.493
225.428
225.367
225.31
225.252
225.191
225.107
167.903
212.211
220.106
221.069
221.567
221.726
221.868
221.977
222.068
222.144
222.202
222.238
222.271
222.317
222.396
222.504
222.623
222.741
222.86
222.978
223.096
223.213
223.327
223.44
223.552
223.662
223.769
223.874
223.979
224.082
224.185
224.287
224.388
224.488
224.588
224.687
224.786
224.885
224.984
225.083
225.182
225.28
225.377
225.473
225.569
225.664
225.757
225.85
225.942
226.032
226.122
226.21
226.298
226.383
226.468
226.551
226.633
226.713
226.792
226.868
226.943
227.016
227.086
227.154
227.22
227.282
227.341
227.397
227.448
227.496
227.54
227.579
227.613
227.641
227.665
227.682
227.694
227.7
227.7
227.694
227.681
227.662
227.636
227.605
227.568
227.525
227.476
227.423
227.365
227.302
227.235
227.164
227.09
227.013
226.934
226.852
226.768
226.684
226.598
226.512
226.425
226.339
226.253
226.167
226.082
225.998
225.914
225.832
225.751
225.671
225.593
225.516
225.441
225.37
225.302
225.237
225.177
225.119
225.062
225.001
224.916
166.943
212.102
220.058
221.054
221.553
221.716
221.864
221.971
222.056
222.127
222.182
222.22
222.256
222.306
222.39
222.5
222.621
222.74
222.859
222.978
223.097
223.213
223.328
223.441
223.553
223.662
223.77
223.875
223.98
224.084
224.187
224.289
224.39
224.49
224.59
224.689
224.788
224.887
224.986
225.085
225.184
225.281
225.378
225.474
225.569
225.663
225.756
225.848
225.939
226.029
226.118
226.205
226.29
226.375
226.458
226.539
226.619
226.697
226.773
226.847
226.919
226.988
227.055
227.12
227.181
227.24
227.295
227.346
227.393
227.437
227.475
227.509
227.538
227.561
227.579
227.591
227.598
227.599
227.593
227.58
227.562
227.538
227.507
227.471
227.429
227.381
227.328
227.271
227.208
227.142
227.071
226.998
226.921
226.842
226.759
226.676
226.59
226.504
226.416
226.329
226.242
226.154
226.068
225.981
225.895
225.811
225.727
225.645
225.563
225.484
225.405
225.329
225.254
225.183
225.115
225.051
224.991
224.933
224.876
224.816
224.732
165.949
211.968
220.001
221.039
221.539
221.705
221.855
221.96
222.041
222.108
222.162
222.201
222.24
222.296
222.383
222.497
222.618
222.739
222.859
222.978
223.097
223.213
223.328
223.441
223.553
223.663
223.77
223.876
223.981
224.085
224.189
224.291
224.392
224.492
224.592
224.691
224.79
224.89
224.988
225.087
225.185
225.283
225.379
225.475
225.57
225.663
225.756
225.847
225.937
226.026
226.113
226.199
226.283
226.366
226.447
226.527
226.604
226.68
226.753
226.825
226.894
226.961
227.025
227.086
227.144
227.198
227.249
227.296
227.339
227.377
227.411
227.44
227.463
227.482
227.494
227.501
227.503
227.498
227.486
227.468
227.445
227.415
227.38
227.339
227.292
227.24
227.183
227.121
227.055