/*--------------------------------*- C++ -*----------------------------------*\
| =========                 |                                                 |
| \\      /  F ield         | OpenFOAM: The Open Source CFD Toolbox           |
|  \\    /   O peration     | Version:  2412                                  |
|   \\  /    A nd           | Website:  www.openfoam.com                      |
|    \\/     M anipulation  |                                                 |
\*---------------------------------------------------------------------------*/
FoamFile
{
    version     2.0;
    format      ascii;
    arch        "LSB;label=32;scalar=64";
    class       volScalarField;
    location    "0.009";
    object      p;
}
// * * * * * * * * * * * * * * * * * * * * * * * * * * * * * * * * * * * * * //

dimensions      [1 -1 -2 0 0 0 0];

internalField   nonuniform List<scalar> 
78650
(
2790
2790
2790
2790
2790
2790
2790
2790
2790
2790
2790
2790
2790
2790
2790
2790
2790
2790
2790
2790
2790
2790
2790
2790
2790
2790
2790
2790
2790
2790
2790
2790
2790
2790
2790.03
2791.01
2801.72
2840.66
2894.53
2927.86
2934.94
2934.37
2928.26
2918.51
2908.99
2900.72
2893.14
2885.68
2878.45
2871.86
2865.74
2860.03
2854.74
2849.84
2845.23
2840.88
2836.77
2832.88
2829.15
2825.53
2822.02
2818.65
2815.45
2812.41
2809.47
2806.58
2803.7
2800.84
2798.01
2795.14
2792.15
2788.95
2785.56
2781.97
2778.11
2773.81
2768.92
2763.37
2757.13
2750.18
2742.42
2733.67
2723.77
2712.54
2699.82
2685.45
2669.33
2651.31
2631.2
2608.98
2584.37
2557.49
2527.9
2495.9
2460.98
2423.71
2383.38
2340.75
2295.58
2248.43
2199.22
2148.53
2096.06
2043.25
1989.92
1937.5
1885.4
1835.17
1787.09
1740.52
1698.22
1659.7
1624.31
1592.73
1562.86
1536.22
1511.61
1487.22
1465.75
1447.51
1412.48
2790
2790
2790
2790
2790
2790
2790
2790
2790
2790
2790
2790
2790
2790
2790
2790
2790
2790
2790
2790
2790
2790
2790
2790
2790
2790
2790
2790
2790
2790
2790
2790
2790
2790
2790.01
2790.52
2797.65
2830.17
2884.93
2924.96
2935.95
2937.1
2932.68
2923.41
2913.42
2904.88
2897.28
2889.95
2882.88
2876.46
2870.51
2864.97
2859.83
2855.06
2850.57
2846.33
2842.32
2838.55
2834.95
2831.5
2828.19
2825.03
2822.08
2819.33
2816.73
2814.21
2811.73
2809.3
2806.93
2804.58
2802.17
2799.61
2796.87
2793.99
2790.91
2787.48
2783.55
2779.04
2773.91
2768.16
2761.71
2754.43
2746.13
2736.65
2725.83
2713.48
2699.53
2683.8
2666.13
2646.44
2624.49
2600.32
2573.52
2544.27
2512.06
2477.24
2439.24
2398.9
2355.7
2310.32
2262.71
2213.12
2161.98
2109.33
2056.02
2002.73
1950.3
1898.13
1848.52
1798.56
1750.59
1707.15
1665.03
1627.64
1592.35
1560.05
1531.82
1506.61
1483.74
1463.19
1421.9
2790
2790
2790
2790
2790
2790
2790
2790
2790
2790
2790
2790
2790
2790
2790
2790
2790
2790
2790
2790
2790
2790
2790
2790
2790
2790
2790
2790
2790
2790
2790
2790
2790
2790
2790.01
2790.26
2794.72
2820.5
2874.02
2920.24
2936.46
2939.89
2936.64
2928.14
2917.79
2909
2901.42
2894.28
2887.4
2881.16
2875.37
2869.98
2864.97
2860.32
2855.93
2851.79
2847.88
2844.22
2840.76
2837.48
2834.35
2831.42
2828.73
2826.28
2824.01
2821.87
2819.8
2817.8
2815.88
2814.03
2812.18
2810.23
2808.14
2805.94
2803.61
2801.01
2798.01
2794.48
2790.4
2785.78
2780.56
2774.63
2767.81
2759.93
2750.85
2740.37
2728.41
2714.81
2699.41
2682.11
2662.7
2641.14
2617.1
2590.65
2561.31
2529.32
2494.27
2456.73
2416.09
2372.91
2326.85
2278.54
2228.15
2175.64
2121.94
2067.16
2013.41
1958.82
1906.28
1855.14
1804.21
1757.74
1712.84
1669.29
1630.27
1591.46
1557.36
1526.53
1500.09
1478.22
1435.39
2790
2790
2790
2790
2790
2790
2790
2790
2790
2790
2790
2790
2790
2790
2790
2790
2790
2790
2790
2790
2790
2790
2790
2790
2790
2790
2790
2790
2790
2790
2790
2790
2790
2790
2790
2790.12
2792.68
2811.8
2861.56
2913.69
2936.54
2942.67
2940.15
2932.77
2922.28
2913.39
2905.86
2898.9
2892.19
2886.1
2880.44
2875.16
2870.26
2865.69
2861.37
2857.29
2853.46
2849.9
2846.57
2843.46
2840.53
2837.83
2835.4
2833.24
2831.31
2829.52
2827.85
2826.25
2824.76
2823.39
2822.06
2820.7
2819.23
2817.69
2816.06
2814.25
2812.13
2809.55
2806.48
2802.96
2798.93
2794.31
2788.96
2782.68
2775.34
2766.75
2756.83
2745.41
2732.35
2717.53
2700.72
2681.87
2660.67
2637.1
2610.7
2581.68
2549.67
2514.98
2476.95
2436.07
2392.02
2345.61
2296.57
2245.22
2191.95
2137.01
2081.43
2025.29
1969.1
1915.7
1862.38
1809.51
1763.03
1715.98
1673.19
1633.04
1594.4
1558.35
1524.61
1496.3
1443.16
2790
2790
2790
2790
2790
2790
2790
2790
2790
2790
2790
2790
2790
2790
2790
2790
2790
2790
2790
2790
2790
2790
2790
2790
2790
2790
2790
2790
2790
2790
2790
2790
2790
2790
2790
2790.05
2791.39
2804.56
2848.41
2904.9
2935.72
2945.16
2943.07
2937.09
2926.96
2918.04
2910.48
2903.65
2897.12
2891.17
2885.63
2880.45
2875.62
2871.11
2866.84
2862.81
2859.07
2855.61
2852.42
2849.48
2846.76
2844.3
2842.13
2840.27
2838.67
2837.25
2835.95
2834.75
2833.67
2832.74
2831.92
2831.11
2830.24
2829.32
2828.36
2827.3
2826
2824.33
2822.23
2819.72
2816.8
2813.41
2809.4
2804.61
2798.88
2792.02
2783.97
2774.55
2763.65
2751.12
2736.78
2720.54
2702.1
2681.44
2658.15
2632.37
2603.72
2572.23
2537.34
2499.49
2458.37
2414.52
2367.48
2317.85
2265.68
2211.33
2154.83
2097.46
2039.51
1981.01
1925.41
1868.3
1814.48
1764.82
1715.81
1674.33
1634.13
1597.94
1564.7
1534.67
1475.85
2790
2790
2790
2790
2790
2790
2790
2790
2790
2790
2790
2790
2790
2790
2790
2790
2790
2790
2790
2790
2790
2790
2790
2790
2790
2790
2790
2790
2790
2790
2790
2790
2790
2790
2790
2790.02
2790.65
2798.92
2834.99
2893.39
2933.26
2946.79
2945.62
2941.41
2932.05
2923.02
2915.34
2908.64
2902.31
2896.51
2891.04
2885.91
2881.1
2876.6
2872.36
2868.38
2864.72
2861.38
2858.34
2855.59
2853.09
2850.87
2848.97
2847.41
2846.11
2845.04
2844.12
2843.29
2842.6
2842.08
2841.72
2841.45
2841.15
2840.83
2840.51
2840.14
2839.63
2838.83
2837.65
2836.14
2834.29
2832.07
2829.36
2826.03
2821.88
2816.75
2810.58
2803.18
2794.47
2784.28
2772.45
2758.86
2743.24
2725.52
2705.33
2682.71
2657.16
2628.71
2596.96
2562.23
2524.15
2483.06
2438.59
2391.41
2341.1
2288.15
2232.92
2175.47
2117.48
2057.55
1999.32
1939.87
1879.62
1824.8
1768.77
1717.39
1668.94
1625.59
1588.71
1558.15
1498.03
2790
2790
2790
2790
2790
2790
2790
2790
2790
2790
2790
2790
2790
2790
2790
2790
2790
2790
2790
2790
2790
2790
2790
2790
2790
2790
2790
2790
2790
2790
2790
2790
2790
2790
2790
2790.01
2790.27
2794.96
2822.4
2879.57
2928.08
2947.24
2948.51
2945.74
2937.2
2928.11
2920.39
2913.84
2907.72
2902
2896.54
2891.4
2886.58
2882.08
2877.86
2873.95
2870.4
2867.2
2864.34
2861.79
2859.52
2857.55
2855.92
2854.63
2853.65
2852.92
2852.34
2851.87
2851.54
2851.44
2851.51
2851.73
2851.98
2852.23
2852.51
2852.81
2853.01
2853.03
2852.74
2852.17
2851.33
2850.19
2848.68
2846.69
2844
2840.47
2836.01
2830.47
2823.76
2815.74
2806.24
2795.14
2782.2
2767.34
2750.22
2730.77
2708.56
2683.63
2655.65
2624.68
2590.24
2552.47
2511.06
2466.49
2418.18
2366.87
2312.48
2255.62
2196.89
2136.56
2074.64
2014.97
1953.83
1895.09
1838.23
1782.27
1729.35
1679.13
1632.16
1591.97
1516.96
2790
2790
2790
2790
2790
2790
2790
2790
2790
2790
2790
2790
2790
2790
2790
2790
2790
2790
2790
2790
2790
2790
2790
2790
2790
2790
2790
2790
2790
2790
2790
2790
2790
2790
2790
2790
2790.1
2792.46
2811.47
2863.72
2919.61
2946.94
2951.46
2949.61
2942.28
2933.52
2925.83
2919.37
2913.35
2907.59
2902.06
2896.87
2892.04
2887.56
2883.41
2879.61
2876.19
2873.16
2870.48
2868.14
2866.1
2864.37
2863
2861.98
2861.29
2860.88
2860.62
2860.49
2860.49
2860.75
2861.24
2861.91
2862.68
2863.48
2864.34
2865.26
2866.16
2866.93
2867.48
2867.8
2867.93
2867.84
2867.48
2866.77
2865.52
2863.54
2860.79
2857.09
2852.37
2846.5
2839.33
2830.73
2820.49
2808.48
2794.39
2778.1
2759.21
2737.77
2713.39
2685.98
2655.04
2620.68
2582.65
2541.15
2495.75
2447.21
2394.96
2339.62
2281.27
2220.78
2158.74
2094.7
2030.27
1964.21
1904.06
1842
1786.81
1735.97
1690.01
1650.07
1572.62
2790
2790
2790
2790
2790
2790
2790
2790
2790
2790
2790
2790
2790
2790
2790
2790
2790
2790
2790
2790
2790
2790
2790
2790
2790
2790
2790
2790
2790
2790
2790
2790
2790
2790
2790
2790
2790.03
2791.08
2802.9
2846.98
2908.14
2945.06
2953.46
2952.98
2947.54
2939.37
2931.53
2924.99
2918.94
2913.1
2907.48
2902.26
2897.46
2893.06
2889.01
2885.35
2882.09
2879.22
2876.74
2874.6
2872.78
2871.3
2870.18
2869.39
2868.98
2868.85
2868.9
2869.1
2869.44
2870.01
2870.87
2871.98
2873.24
2874.57
2875.97
2877.48
2879.04
2880.53
2881.87
2883.03
2884.05
2884.94
2885.65
2886.07
2886.15
2885.62
2884.45
2882.45
2879.56
2875.65
2870.62
2864.34
2856.61
2847.31
2836.14
2823
2807.52
2789.68
2769.04
2745.48
2718.51
2688.18
2654.16
2616.46
2574.81
2529.64
2480.15
2427.2
2370.52
2310.98
2249.14
2183.49
2118.38
2050.25
1984.07
1915.21
1848.36
1786.19
1729.05
1681
1589.63
2790
2790
2790
2790
2790
2790
2790
2790
2790
2790
2790
2790
2790
2790
2790
2790
2790
2790
2790
2790
2790
2790
2790
2790
2790
2790
2790
2790
2790
2790
2790
2790
2790
2790
2790
2790
2790.01
2790.41
2796.92
2830.79
2893
2940.45
2954.4
2956.74
2952.93
2945.25
2937.18
2930.49
2924.37
2918.47
2912.85
2907.68
2902.98
2898.68
2894.77
2891.25
2888.16
2885.46
2883.16
2881.22
2879.6
2878.35
2877.44
2876.88
2876.71
2876.84
2877.17
2877.65
2878.29
2879.18
2880.38
2881.89
2883.61
2885.44
2887.36
2889.41
2891.58
2893.76
2895.84
2897.81
2899.69
2901.51
2903.25
2904.8
2906.06
2906.9
2907.22
2906.91
2905.83
2903.9
2900.94
2896.94
2891.66
2885.02
2876.72
2866.64
2854.43
2840
2822.91
2803.08
2780.07
2753.82
2723.97
2690.42
2652.92
2611.49
2565.51
2515.77
2461.51
2403.75
2342.47
2278.66
2212.07
2144.52
2074.4
2007.53
1937.59
1875.52
1811.51
1755.11
1648.51
2790
2790
2790
2790
2790
2790
2790
2790
2790
2790
2790
2790
2790
2790
2790
2790
2790
2790
2790
2790
2790
2790
2790
2790
2790
2790
2790
2790
2790
2790
2790
2790
2790
2790
2790
2790
2790
2790.14
2793.27
2816.66
2875.14
2932.24
2954.4
2960.35
2957.69
2951.02
2942.77
2935.89
2929.72
2923.85
2918.26
2913.17
2908.59
2904.43
2900.65
2897.28
2894.34
2891.79
2889.66
2887.89
2886.47
2885.42
2884.7
2884.37
2884.39
2884.75
2885.32
2886.06
2887
2888.19
2889.72
2891.6
2893.76
2896.07
2898.48
2901.05
2903.78
2906.6
2909.4
2912.12
2914.79
2917.47
2920.14
2922.74
2925.16
2927.27
2928.93
2930.06
2930.59
2930.53
2929.5
2927.62
2924.61
2920.44
2914.84
2907.7
2898.69
2887.68
2874.29
2858.42
2839.64
2817.81
2792.45
2763.4
2730.34
2693.06
2651.11
2604.93
2553.68
2498.57
2438.84
2375.51
2308.53
2237.7
2164.97
2093.17
2016.61
1944.99
1876.57
1821.56
1716.08
2790
2790
2790
2790
2790
2790
2790
2790
2790
2790
2790
2790
2790
2790
2790
2790
2790
2790
2790
2790
2790
2790
2790
2790
2790
2790
2790
2790
2790
2790
2790
2790
2790
2790
2790
2790
2790
2790.04
2791.35
2805.68
2855.82
2920.03
2953.55
2963.46
2961.83
2956.36
2948.29
2941.31
2935.09
2929.27
2923.77
2918.79
2914.36
2910.33
2906.69
2903.45
2900.65
2898.23
2896.23
2894.61
2893.36
2892.49
2891.94
2891.79
2891.99
2892.52
2893.31
2894.3
2895.52
2897
2898.83
2901.06
2903.62
2906.38
2909.26
2912.31
2915.58
2918.99
2922.45
2925.89
2929.32
2932.8
2936.35
2939.92
2943.41
2946.72
2949.71
2952.31
2954.37
2955.88
2956.74
2956.94
2956.15
2954.39
2951.4
2947.06
2941.07
2933.3
2923.4
2911.26
2896.45
2878.79
2857.77
2833.2
2804.74
2772.09
2734.99
2693.55
2647.02
2596.17
2539.92
2479.63
2414.73
2345.79
2273.22
2195.91
2121.94
2038.77
1959.93
1890.22
1762.54
2790
2790
2790
2790
2790
2790
2790
2790
2790
2790
2790
2790
2790
2790
2790
2790
2790
2790
2790
2790
2790
2790
2790
2790
2790
2790
2790
2790
2790
2790
2790
2790
2790
2790
2790
2790
2790
2790.01
2790.48
2798.21
2837.06
2904.08
2950.16
2964.98
2965.44
2961.38
2953.86
2946.8
2940.5
2934.77
2929.4
2924.56
2920.26
2916.34
2912.79
2909.64
2906.94
2904.63
2902.75
2901.24
2900.14
2899.4
2899.02
2899.01
2899.38
2900.05
2901.02
2902.25
2903.74
2905.51
2907.65
2910.2
2913.15
2916.35
2919.68
2923.19
2926.93
2930.9
2934.99
2939.1
2943.25
2947.48
2951.83
2956.28
2960.77
2965.16
2969.36
2973.25
2976.77
2979.86
2982.38
2984.3
2985.52
2985.97
2985.43
2983.75
2980.71
2976.07
2969.61
2961.17
2950.37
2936.98
2920.51
2900.77
2877.31
2849.85
2818.1
2781.77
2740.17
2693.64
2641.22
2584.12
2521.19
2453.38
2381.07
2305.22
2225.93
2149.97
2066.29
1995.41
1861.76
2790
2790
2790
2790
2790
2790
2790
2790
2790
2790
2790
2790
2790
2790
2790
2790
2790
2790
2790
2790
2790
2790
2790
2790
2790
2790
2790
2790
2790
2790
2790
2790
2790
2790
2790
2790
2790
2790
2790.15
2793.8
2820.8
2885.19
2942.79
2965.28
2969.07
2966.16
2959.27
2952.23
2945.96
2940.42
2935.21
2930.47
2926.23
2922.36
2918.86
2915.79
2913.16
2910.93
2909.14
2907.72
2906.74
2906.1
2905.87
2905.99
2906.49
2907.3
2908.45
2909.91
2911.66
2913.72
2916.15
2919.01
2922.31
2925.92
2929.69
2933.63
2937.82
2942.29
2946.95
2951.71
2956.53
2961.46
2966.55
2971.81
2977.21
2982.62
2987.94
2993.07
2997.93
3002.45
3006.59
3010.27
3013.38
3015.82
3017.47
3018.25
3018.02
3016.33
3013.15
3008.1
3001.02
2991.64
2979.51
2964.43
2945.94
2923.72
2897.35
2866.31
2830.13
2788.83
2741.46
2688.81
2629.86
2565.81
2495.28
2419.23
2337.94
2255.37
2164.43
2085.02
1941.58
2790
2790
2790
2790
2790
2790
2790
2790
2790
2790
2790
2790
2790
2790
2790
2790
2790
2790
2790
2790
2790
2790
2790
2790
2790
2790
2790
2790
2790
2790
2790
2790
2790
2790
2790
2790
2790
2790
2790.04
2791.55
2808.32
2864.83
2931.54
2964.52
2972.11
2970.26
2964.38
2957.66
2951.51
2946.11
2940.97
2936.24
2932.02
2928.18
2924.73
2921.72
2919.15
2916.99
2915.27
2913.95
2913.04
2912.5
2912.37
2912.63
2913.23
2914.18
2915.51
2917.19
2919.21
2921.56
2924.28
2927.43
2931.05
2935.04
2939.23
2943.58
2948.19
2953.12
2958.32
2963.67
2969.13
2974.71
2980.49
2986.5
2992.71
2999.04
3005.39
3011.64
3017.71
3023.56
3029.13
3034.36
3039.19
3043.53
3047.28
3050.24
3052.34
3053.42
3053.47
3051.72
3048.38
3042.92
3035.14
3024.74
3011.25
2994.3
2973.38
2947.97
2917.76
2882.38
2841.03
2794.1
2740.51
2681.26
2614.58
2541.65
2461.7
2376.69
2288.61
2201.88
2051.72
2790
2790
2790
2790
2790
2790
2790
2790
2790
2790
2790
2790
2790
2790
2790
2790
2790
2790
2790
2790
2790
2790
2790
2790
2790
2790
2790
2790
2790
2790
2790
2790
2790
2790
2790
2790
2790
2790
2790.01
2790.57
2799.88
2845.12
2916.82
2962.23
2973.71
2973.75
2969.61
2963.2
2957
2951.59
2946.44
2941.71
2937.53
2933.73
2930.33
2927.37
2924.84
2922.74
2921.07
2919.82
2918.99
2918.55
2918.5
2918.91
2919.61
2920.71
2922.22
2924.14
2926.42
2929.05
2932.05
2935.48
2939.4
2943.73
2948.31
2953.05
2958.05
2963.4
2969.09
2974.99
2981.03
2987.22
2993.63
3000.32
3007.27
3014.44
3021.71
3028.99
3036.18
3043.25
3050.14
3056.82
3063.23
3069.29
3074.92
3080.03
3084.48
3088
3090.55
3091.93
3092.11
3090.29
3086.6
3080.49
3071.65
3059.7
3044.17
3024.58
3000.56
2971.49
2936.78
2896.25
2848.7
2794.75
2732.96
2664.58
2587.42
2504.53
2413.44
2322.9
2171.42
2790
2790
2790
2790
2790
2790
2790
2790
2790
2790
2790
2790
2790
2790
2790
2790
2790
2790
2790
2790
2790
2790
2790
2790
2790
2790
2790
2790
2790
2790
2790
2790
2790
2790
2790
2790
2790
2790
2790
2790.19
2794.86
2827.99
2899.53
2956.93
2974.06
2977.64
2974.74
2968.47
2962.08
2956.55
2951.44
2946.82
2942.73
2939
2935.65
2932.72
2930.21
2928.15
2926.52
2925.35
2924.59
2924.27
2924.33
2924.87
2925.69
2926.95
2928.65
2930.79
2933.32
2936.22
2939.48
2943.16
2947.34
2951.97
2956.9
2962.02
2967.38
2973.11
2979.24
2985.64
2992.22
2998.98
3005.97
3013.26
3020.89
3028.8
3036.91
3045.11
3053.32
3061.47
3069.56
3077.53
3085.35
3092.95
3100.28
3107.26
3113.75
3119.64
3124.79
3128.9
3131.93
3133.64
3133.95
3132.04
3127.88
3120.91
3110.86
3097.21
3079.52
3057.03
3029.16
2995.3
2954.5
2907.06
2851.73
2788.59
2715.48
2635.65
2544
2451.82
2303.11
2790
2790
2790
2790
2790
2790
2790
2790
2790
2790
2790
2790
2790
2790
2790
2790
2790
2790
2790
2790
2790
2790
2790
2790
2790
2790
2790
2790
2790
2790
2790
2790
2790
2790
2790
2790
2790
2790
2790
2790.06
2792.22
2814.64
2881.06
2948.6
2973.89
2981.33
2979.41
2973.27
2966.55
2961.02
2956.19
2951.77
2947.77
2944.07
2940.72
2937.78
2935.26
2933.23
2931.67
2930.62
2929.98
2929.78
2929.99
2930.65
2931.61
2933.02
2934.89
2937.23
2939.99
2943.13
2946.62
2950.52
2954.91
2959.81
2965.05
2970.5
2976.19
2982.27
2988.79
2995.64
3002.71
3009.98
3017.49
3025.34
3033.57
3042.15
3051
3060.03
3069.14
3078.29
3087.44
3096.58
3105.67
3114.67
3123.53
3132.19
3140.54
3148.51
3155.91
3162.63
3168.51
3173.22
3176.68
3178.6
3178.91
3176.61
3171.79
3163.65
3151.92
3135.73
3114.69
3087.95
3054.76
3014.97
2967.34
2911.48
2846
2770.9
2683.81
2589.72
2448.92
2790
2790
2790
2790
2790
2790
2790
2790
2790
2790
2790
2790
2790
2790
2790
2790
2790
2790
2790
2790
2790
2790
2790
2790
2790
2790
2790
2790
2790
2790
2790
2790
2790
2790
2790
2790
2790
2790
2790
2790.02
2790.97
2805.22
2863.16
2937.99
2973.58
2984.29
2983.05
2977.31
2970.68
2965.38
2960.84
2956.57
2952.58
2948.85
2945.43
2942.45
2939.96
2938.02
2936.6
2935.71
2935.23
2935.16
2935.52
2936.29
2937.39
2938.94
2940.96
2943.48
2946.43
2949.76
2953.45
2957.53
2962.11
2967.22
2972.73
2978.48
2984.48
2990.87
2997.73
3004.97
3012.49
3020.22
3028.21
3036.56
3045.32
3054.49
3064.01
3073.77
3083.69
3093.72
3103.82
3113.98
3124.19
3134.42
3144.63
3154.77
3164.77
3174.55
3183.98
3192.97
3201.34
3208.95
3215.62
3220.95
3224.88
3227.03
3227.34
3224.52
3218.73
3208.73
3194.65
3175.19
3149.8
3117.79
3077.82
3029.49
2971.3
2901.51
2820.58
2725.03
2596.09
2790
2790
2790
2790
2790
2790
2790
2790
2790
2790
2790
2790
2790
2790
2790
2790
2790
2790
2790
2790
2790
2790
2790
2790
2790
2790
2790
2790
2790
2790
2790
2790
2790
2790
2790
2790
2790
2790
2790
2790.01
2790.42
2799.15
2847.35
2926.15
2972.51
2986.31
2985.72
2981.11
2974.82
2969.69
2965.38
2961.11
2957
2953.14
2949.67
2946.74
2944.38
2942.63
2941.42
2940.72
2940.4
2940.46
2940.95
2941.82
2943.04
2944.7
2946.86
2949.52
2952.63
2956.13
2959.98
2964.23
2968.97
2974.25
2979.99
2986.01
2992.29
2998.95
3006.11
3013.7
3021.6
3029.74
3038.17
3046.96
3056.2
3065.89
3075.98
3086.38
3097.01
3107.81
3118.74
3129.81
3141.01
3152.32
3163.7
3175.14
3186.58
3197.96
3209.18
3220.15
3230.72
3240.81
3250.21
3258.75
3266.22
3272.1
3276.35
3278.51
3278.61
3274.67
3267.64
3255.43
3238.24
3214.63
3183.57
3144.6
3095.4
3034.38
2961.6
2871.76
2751.12
2790
2790
2790
2790
2790
2790
2790
2790
2790
2790
2790
2790
2790
2790
2790
2790
2790
2790
2790
2790
2790
2790
2790
2790
2790
2790
2790
2790
2790
2790
2790
2790
2790
2790
2790
2790
2790
2790
2790
2790
2790.19
2795.51
2834.53
2914.25
2970.3
2987.48
2988.2
2984.84
2978.92
2973.88
2969.61
2965.14
2960.8
2956.85
2953.46
2950.72
2948.61
2947.09
2946.1
2945.56
2945.36
2945.51
2946.11
2947.04
2948.37
2950.15
2952.43
2955.23
2958.5
2962.15
2966.17
2970.57
2975.45
2980.89
2986.81
2993.07
2999.59
3006.5
3013.92
3021.81
3030.05
3038.55
3047.36
3056.54
3066.19
3076.33
3086.93
3097.89
3109.14
3120.6
3132.27
3144.12
3156.18
3168.41
3180.82
3193.38
3206.05
3218.8
3231.55
3244.23
3256.73
3268.96
3280.78
3292.07
3302.58
3312.1
3320.42
3326.88
3331.55
3333.74
3333.39
3327.98
3318.61
3302.99
3280.85
3251.08
3210.76
3158.59
3093.1
3010.7
2900.01
2790
2790
2790
2790
2790
2790
2790
2790
2790
2790
2790
2790
2790
2790
2790
2790
2790
2790
2790
2790
2790
2790
2790
2790
2790
2790
2790
2790
2790
2790
2790
2790
2790
2790
2790
2790
2790
2790
2790
2790
2790.09
2793.43
2824.89
2903.34
2967.26
2988.13
2990.77
2988.43
2982.82
2977.72
2973.25
2968.48
2963.99
2960.13
2956.97
2954.5
2952.63
2951.31
2950.47
2950.02
2949.89
2950.05
2950.73
2951.73
2953.19
2955.11
2957.55
2960.52
2963.96
2967.79
2971.98
2976.54
2981.56
2987.13
2993.23
2999.69
3006.44
3013.56
3021.19
3029.34
3037.87
3046.69
3055.83
3065.36
3075.38
3085.91
3096.93
3108.37
3120.15
3132.2
3144.49
3157.02
3169.8
3182.83
3196.11
3209.62
3223.34
3237.25
3251.29
3265.42
3279.55
3293.61
3307.49
3321.1
3334.24
3346.8
3358.48
3369.04
3378.16
3385.09
3389.9
3391.65
3389.79
3382.15
3369.07
3348.99
3319.32
3278.82
3222.94
3150.07
3048.77
2790
2790
2790
2790
2790
2790
2790
2790
2790
2790
2790
2790
2790
2790
2790
2790
2790
2790
2790
2790
2790
2790
2790
2790
2790
2790
2790
2790
2790
2790
2790
2790
2790
2790
2790
2790
2790
2790
2790
2790
2790.06
2792.3
2818.19
2894.33
2964.17
2988.77
2993.32
2991.64
2986.25
2980.94
2976.16
2971.24
2966.87
2963.27
2960.36
2958.08
2956.36
2955.13
2954.31
2953.83
2953.7
2953.86
2954.6
2955.72
2957.35
2959.48
2962.13
2965.32
2968.97
2973
2977.37
2982.09
2987.26
2992.97
2999.22
3005.87
3012.8
3020.12
3027.94
3036.3
3045.08
3054.18
3063.61
3073.44
3083.77
3094.63
3106.02
3117.87
3130.1
3142.64
3155.47
3168.57
3181.97
3195.67
3209.68
3223.98
3238.58
3253.45
3268.58
3283.91
3299.39
3314.97
3330.57
3346.12
3361.5
3376.6
3391.19
3405.14
3418.08
3429.76
3439.67
3447.14
3452.02
3453.27
3449.39
3439.11
3419.73
3390.42
3343.93
3282.96
3191.71
2790
2790
2790
2790
2790
2790
2790
2790
2790
2790
2790
2790
2790
2790
2790
2790
2790
2790
2790
2790
2790
2790
2790
2790
2790
2790
2790
2790
2790
2790
2790
2790
2790
2790
2790
2790
2790
2790
2790
2790
2790.04
2791.74
2813.97
2887.79
2961.79
2989.66
2995.71
2994.34
2989.06
2983.42
2978.39
2973.62
2969.67
2966.36
2963.62
2961.42
2959.69
2958.41
2957.49
2956.88
2956.67
2956.91
2957.73
2959.04
2960.91
2963.29
2966.2
2969.63
2973.5
2977.75
2982.31
2987.22
2992.54
2998.39
3004.79
3011.6
3018.71
3026.19
3034.19
3042.73
3051.73
3061.06
3070.74
3080.83
3091.43
3102.58
3114.28
3126.48
3139.09
3152.05
3165.33
3178.91
3192.83
3207.08
3221.69
3236.65
3251.97
3267.64
3283.64
3299.95
3316.53
3333.34
3350.34
3367.47
3384.67
3401.83
3418.82
3435.52
3451.69
3467.16
3481.48
3494.35
3504.87
3512.46
3516.55
3516.37
3507.42
3490.34
3455.11
3408.36
3329.78
2790
2790
2790
2790
2790
2790
2790
2790
2790
2790
2790
2790
2790
2790
2790
2790
2790
2790
2790
2790
2790
2790
2790
2790
2790
2790
2790
2790
2790
2790
2790
2790
2790
2790
2790
2790
2790
2790
2790
2790
2790.03
2791.51
2811.95
2884.31
2960.97
2991.02
2997.92
2996.55
2991.25
2985.28
2980.15
2975.76
2972.31
2969.29
2966.64
2964.4
2962.56
2961.12
2960.02
2959.29
2959
2959.38
2960.35
2961.9
2964.03
2966.67
2969.84
2973.5
2977.6
2982.06
2986.83
2991.91
2997.39
3003.38
3009.93
3016.9
3024.17
3031.79
3039.94
3048.65
3057.83
3067.37
3077.26
3087.58
3098.41
3109.82
3121.79
3134.28
3147.22
3160.53
3174.18
3188.16
3202.51
3217.22
3232.32
3247.82
3263.72
3280.03
3296.73
3313.82
3331.28
3349.07
3367.18
3385.56
3404.19
3422.99
3441.9
3460.81
3479.58
3498.07
3516
3533.13
3548.91
3562.94
3573.98
3581.84
3584.92
3579.79
3557.75
3525.87
3460.66
2790
2790
2790
2790
2790
2790
2790
2790
2790
2790
2790
2790
2790
2790
2790
2790
2790
2790
2790
2790
2790
2790
2790
2790
2790
2790
2790
2790
2790
2790
2790
2790
2790
2790
2790
2790
2790
2790
2790
2790
2790.03
2791.47
2811.62
2883.8
2961.48
2992.72
2999.89
2998.43
2993.02
2986.81
2981.69
2977.59
2974.51
2971.74
2969.19
2966.93
2964.97
2963.39
2962.13
2961.33
2961.08
2961.6
2962.75
2964.52
2966.88
2969.75
2973.13
2977
2981.31
2985.96
2990.91
2996.17
3001.8
3007.95
3014.64
3021.75
3029.17
3036.94
3045.23
3054.09
3063.44
3073.16
3083.24
3093.76
3104.8
3116.43
3128.65
3141.39
3154.6
3168.21
3182.17
3196.49
3211.19
3226.28
3241.79
3257.72
3274.08
3290.9
3308.16
3325.87
3344.01
3362.57
3381.53
3400.88
3420.61
3440.67
3461.04
3481.64
3502.39
3523.22
3543.96
3564.44
3584.36
3603.28
3620.63
3635.43
3646.88
3652.84
3647.9
3630.84
3583.45
2790
2790
2790
2790
2790
2790
2790
2790
2790
2790
2790
2790
2790
2790
2790
2790
2790
2790
2790
2790
2790
2790
2790
2790
2790
2790
2790
2790
2790
2790
2790
2790
2790
2790
2790
2790
2790
2790
2790
2790
2790.03
2791.55
2812.45
2886.22
2963.74
2994.53
3001.53
2999.99
2994.5
2988.25
2983.13
2979.04
2976.06
2973.5
2971.08
2968.88
2966.92
2965.3
2963.99
2963.22
2963.12
2963.75
2965.08
2967.02
2969.55
2972.59
2976.13
2980.16
2984.63
2989.44
2994.55
2999.96
3005.76
3012.06
3018.9
3026.16
3033.72
3041.63
3050.06
3059.08
3068.58
3078.47
3088.73
3099.44
3110.68
3122.52
3134.95
3147.93
3161.38
3175.25
3189.48
3204.08
3219.07
3234.47
3250.31
3266.59
3283.34
3300.56
3318.27
3336.46
3355.13
3374.27
3393.89
3413.97
3434.52
3455.52
3476.96
3498.8
3521.01
3543.56
3566.32
3589.26
3612.15
3634.78
3656.82
3677.56
3696.5
3711.19
3720.57
3718.95
3697.29
2790
2790
2790
2790
2790
2790
2790
2790
2790
2790
2790
2790
2790
2790
2790
2790
2790
2790
2790
2790
2790
2790
2790
2790
2790
2790
2790
2790
2790
2790
2790
2790
2790
2790
2790
2790
2790
2790
2790
2790
2790.04
2791.84
2815.27
2891.89
2967.89
2996.47
3002.87
3001.2
2995.71
2989.62
2984.51
2980.2
2977.01
2974.51
2972.22
2970.16
2968.34
2966.86
2965.65
2964.98
2965.08
2965.85
2967.32
2969.39
2972.03
2975.17
2978.83
2982.98
2987.57
2992.51
2997.76
3003.33
3009.27
3015.73
3022.72
3030.13
3037.83
3045.89
3054.47
3063.64
3073.3
3083.36
3093.79
3104.68
3116.12
3128.16
3140.8
3153.99
3167.66
3181.74
3196.21
3211.05
3226.29
3241.96
3258.08
3274.66
3291.71
3309.27
3327.33
3345.9
3364.98
3384.57
3404.68
3425.3
3446.45
3468.12
3490.31
3513.01
3536.22
3559.9
3584.03
3608.61
3633.44
3658.53
3683.59
3708.34
3732.29
3754.37
3772.72
3781.85
3785.66
2790
2790
2790
2790
2790
2790
2790
2790
2790
2790
2790
2790
2790
2790
2790
2790
2790
2790
2790
2790
2790
2790
2790
2790
2790
2790
2790
2790
2790
2790
2790
2790
2790
2790
2790
2790
2790
2790
2790
2790
2790.06
2792.49
2820.12
2900.26
2973.22
2998.44
3003.77
3001.98
2996.52
2990.77
2985.78
2981.19
2977.65
2975
2972.75
2970.81
2969.17
2967.93
2966.96
2966.51
2966.85
2967.76
2969.34
2971.5
2974.22
2977.45
2981.18
2985.42
2990.1
2995.15
3000.52
3006.21
3012.32
3018.94
3026.1
3033.66
3041.52
3049.75
3058.5
3067.84
3077.67
3087.89
3098.5
3109.58
3121.22
3133.46
3146.3
3159.68
3173.55
3187.83
3202.49
3217.54
3233
3248.9
3265.25
3282.08
3299.39
3317.22
3335.56
3354.42
3373.82
3393.75
3414.21
3435.21
3456.77
3478.88
3501.56
3524.78
3548.59
3572.92
3597.8
3623.25
3649.14
3675.6
3702.14
3728.71
3754.99
3780.73
3803.78
3821.04
3838.9
2790
2790
2790
2790
2790
2790
2790
2790
2790
2790
2790
2790
2790
2790
2790
2790
2790
2790
2790
2790
2790
2790
2790
2790
2790
2790
2790
2790
2790
2790
2790
2790
2790
2790
2790
2790
2790
2790
2790
2790
2790.1
2793.68
2827.27
2910.93
2979.28
3000.55
3004.13
3002.21
2996.87
2991.49
2986.75
2982.12
2978.21
2975.26
2972.92
2971.05
2969.58
2968.56
2967.86
2967.66
2968.26
2969.35
2971.06
2973.32
2976.11
2979.39
2983.19
2987.49
2992.24
2997.38
3002.84
3008.66
3014.91
3021.71
3029.04
3036.76
3044.78
3053.19
3062.14
3071.66
3081.67
3092.07
3102.87
3114.14
3125.97
3138.41
3151.45
3165.02
3179.07
3193.53
3208.37
3223.61
3239.26
3255.36
3271.91
3288.94
3306.47
3324.51
3343.07
3362.16
3381.78
3401.95
3422.64
3443.88
3465.66
3488.01
3510.92
3534.36
3558.39
3582.94
3608.09
3633.71
3659.7
3686.39
3713.23
3740.55
3766.76
3791.83
3813.75
3830.38
3845.98
2790
2790
2790
2790
2790
2790
2790
2790
2790
2790
2790
2790
2790
2790
2790
2790
2790
2790
2790
2790
2790
2790
2790
2790
2790
2790
2790
2790
2790
2790
2790
2790
2790
2790
2790
2790
2790
2790
2790
2790
2790.19
2795.67
2836.98
2923.24
2985.39
3002.95
3004.23
3001.88
2996.67
2991.68
2987.27
2982.83
2978.78
2975.54
2973.03
2971.16
2969.79
2968.94
2968.51
2968.53
2969.36
2970.59
2972.42
2974.78
2977.63
2980.98
2984.84
2989.2
2994.02
2999.23
3004.79
3010.73
3017.14
3024.12
3031.63
3039.51
3047.7
3056.29
3065.44
3075.17
3085.36
3095.93
3106.9
3118.36
3130.39
3143.02
3156.24
3169.98
3184.19
3198.81
3213.82
3229.22
3245.04
3261.3
3278.03
3295.23
3312.93
3331.13
3349.85
3369.09
3388.85
3409.14
3429.93
3451.27
3473.1
3495.48
3518.36
3541.77
3565.7
3590.02
3614.96
3640.38
3666.29
3691.86
3716.82
3741.24
3763.93
3785.15
3801.98
3811.97
3814.7
2790
2790
2790
2790
2790
2790
2790
2790
2790
2790
2790
2790
2790
2790
2790
2790
2790
2790
2790
2790
2790
2790
2790
2790
2790
2790
2790
2790
2790
2790
2790
2790
2790
2790
2790
2790
2790
2790
2790
2790.01
2790.38
2798.88
2849.33
2936.41
2990.83
3005.54
3004.56
3001.13
2995.78
2991.24
2987.15
2983.03
2979.17
2975.9
2973.26
2971.3
2969.99
2969.25
2968.99
2969.21
2970.21
2971.57
2973.5
2975.94
2978.86
2982.25
2986.16
2990.58
2995.45
3000.73
3006.37
3012.44
3019.01
3026.18
3033.86
3041.92
3050.28
3059.08
3068.45
3078.38
3088.75
3099.49
3110.63
3122.27
3134.48
3147.3
3160.68
3174.58
3188.93
3203.69
3218.83
3234.36
3250.31
3266.71
3283.56
3300.88
3318.7
3337
3355.81
3375.11
3394.92
3415.22
3435.99
3457.25
3478.96
3501.19
3523.82
3546.91
3570.51
3594.64
3618.81
3642.6
3666.25
3689.05
3711.4
3732.22
3750.84
3765.73
3775.33
3778.2
3768.3
2790
2790
2790
2790
2790
2790
2790
2790
2790
2790
2790
2790
2790
2790
2790
2790
2790
2790
2790
2790
2790
2790
2790
2790
2790
2790
2790
2790
2790
2790
2790
2790
2790
2790
2790
2790
2790
2790
2790
2790.01
2790.77
2803.8
2864.09
2949.64
2995.1
3007.53
3005.34
3000.55
2994.67
2990.15
2986.3
2982.55
2979.02
2975.96
2973.41
2971.47
2970.22
2969.53
2969.37
2969.74
2970.83
2972.32
2974.35
2976.87
2979.84
2983.28
2987.24
2991.7
2996.62
3001.95
3007.68
3013.86
3020.6
3027.94
3035.8
3044.01
3052.55
3061.57
3071.15
3081.27
3091.81
3102.71
3114.02
3125.83
3138.21
3151.19
3164.73
3178.77
3193.24
3208.1
3223.35
3238.99
3255.04
3271.53
3288.47
3305.86
3323.72
3342.05
3360.87
3380.14
3399.87
3420.05
3440.66
3461.72
3483.11
3505.01
3527.4
3550.09
3572.62
3595.04
3617
3638.84
3660.02
3680.27
3698.82
3715.05
3727.91
3736.61
3738.54
3734.41
3715.8
2790
2790
2790
2790
2790
2790
2790
2790
2790
2790
2790
2790
2790
2790
2790
2790
2790
2790
2790
2790
2790
2790
2790
2790
2790
2790
2790
2790
2790
2790
2790
2790
2790
2790
2790
2790
2790
2790
2790
2790.04
2791.54
2810.91
2880.7
2962.26
2998.46
3008.16
3005.87
3000.19
2993.89
2989.04
2985.05
2981.39
2978.18
2975.47
2973.19
2971.39
2970.23
2969.6
2969.52
2970.04
2971.2
2972.79
2974.87
2977.45
2980.48
2984.01
2988.05
2992.58
2997.56
3002.96
3008.78
3015.09
3021.99
3029.5
3037.51
3045.86
3054.58
3063.79
3073.58
3083.88
3094.56
3105.6
3117.05
3129.03
3141.57
3154.71
3168.38
3182.53
3197.09
3212.04
3227.35
3243.05
3259.16
3275.69
3292.65
3310.05
3327.9
3346.17
3364.9
3384.02
3403.61
3423.54
3443.87
3464.61
3485.82
3507.15
3528.34
3549.41
3570.27
3590.95
3611.18
3630.58
3648.72
3665.2
3679.34
3690.55
3697.83
3700.82
3695.03
3685.99
3663.25
2790
2790
2790
2790
2790
2790
2790
2790
2790
2790
2790
2790
2790
2790
2790
2790
2790
2790
2790
2790
2790
2790
2790
2790
2790
2790
2790
2790
2790
2790
2790
2790
2790
2790
2790
2790
2790
2790
2790
2790.09
2792.94
2820.55
2898.31
2973.57
3001.3
3007.84
3005.59
2999.63
2993.36
2988.31
2984.04
2980.24
2977.04
2974.45
2972.37
2970.77
2969.79
2969.28
2969.3
2970
2971.27