/*--------------------------------*- C++ -*----------------------------------*\
| =========                 |                                                 |
| \\      /  F ield         | OpenFOAM: The Open Source CFD Toolbox           |
|  \\    /   O peration     | Version:  2412                                  |
|   \\  /    A nd           | Website:  www.openfoam.com                      |
|    \\/     M anipulation  |                                                 |
\*---------------------------------------------------------------------------*/
FoamFile
{
    version     2.0;
    format      ascii;
    arch        "LSB;label=32;scalar=64";
    class       volScalarField;
    location    "0.009";
    object      rho;
}
// * * * * * * * * * * * * * * * * * * * * * * * * * * * * * * * * * * * * * //

dimensions      [1 -3 0 0 0 0 0];

internalField   nonuniform List<scalar> 
78650
(
0.042133
0.042133
0.042133
0.042133
0.042133
0.042133
0.042133
0.042133
0.042133
0.042133
0.042133
0.042133
0.042133
0.042133
0.042133
0.042133
0.042133
0.042133
0.042133
0.042133
0.042133
0.042133
0.042133
0.042133
0.042133
0.042133
0.042133
0.042133
0.042133
0.042133
0.042133
0.042133
0.042133
0.042133
0.0421334
0.0421438
0.0422576
0.0426703
0.0432386
0.0435886
0.0436628
0.0436567
0.0435927
0.0434902
0.0433903
0.0433033
0.0432234
0.0431449
0.0430687
0.0429991
0.0429345
0.0428742
0.0428183
0.0427664
0.0427177
0.0426716
0.0426281
0.0425868
0.0425473
0.0425089
0.0424717
0.0424359
0.0424019
0.0423696
0.0423384
0.0423077
0.0422771
0.0422467
0.0422165
0.042186
0.0421542
0.0421202
0.042084
0.0420458
0.0420046
0.0419588
0.0419066
0.0418474
0.0417809
0.0417067
0.0416237
0.0415301
0.0414241
0.0413036
0.0411671
0.0410126
0.040839
0.0406445
0.0404272
0.0401863
0.039919
0.0396259
0.0393024
0.0389513
0.0385665
0.0381542
0.0377058
0.0372295
0.0367218
0.0361889
0.0356291
0.0350485
0.0344433
0.0338297
0.0332051
0.0325865
0.0319665
0.0313641
0.0307827
0.030215
0.0296959
0.0292205
0.0287823
0.0283904
0.0280167
0.0276768
0.027351
0.0270117
0.0266948
0.0264103
0.0259324
0.042133
0.042133
0.042133
0.042133
0.042133
0.042133
0.042133
0.042133
0.042133
0.042133
0.042133
0.042133
0.042133
0.042133
0.042133
0.042133
0.042133
0.042133
0.042133
0.042133
0.042133
0.042133
0.042133
0.042133
0.042133
0.042133
0.042133
0.042133
0.042133
0.042133
0.042133
0.042133
0.042133
0.042133
0.0421332
0.0421386
0.0422144
0.0425593
0.0431375
0.0435582
0.0436733
0.0436854
0.043639
0.0435417
0.0434368
0.0433471
0.043267
0.0431899
0.0431153
0.0430476
0.0429849
0.0429263
0.042872
0.0428216
0.0427741
0.0427292
0.0426869
0.0426469
0.0426088
0.0425722
0.042537
0.0425036
0.0424723
0.042443
0.0424154
0.0423887
0.0423624
0.0423366
0.0423114
0.0422864
0.0422607
0.0422335
0.0422044
0.0421737
0.0421409
0.0421044
0.0420626
0.0420145
0.0419599
0.0418986
0.0418298
0.041752
0.0416634
0.0415619
0.0414461
0.0413138
0.041164
0.0409949
0.0408045
0.040592
0.0403546
0.0400923
0.0398007
0.0394816
0.0391288
0.0387459
0.0383263
0.0378787
0.0373969
0.036888
0.0363507
0.0357878
0.0352031
0.0345969
0.0339787
0.0333558
0.0327383
0.0321187
0.0315249
0.030922
0.0303386
0.0298065
0.0292881
0.0288263
0.0283877
0.0279805
0.0276135
0.0272685
0.0269362
0.0266198
0.0260581
0.042133
0.042133
0.042133
0.042133
0.042133
0.042133
0.042133
0.042133
0.042133
0.042133
0.042133
0.042133
0.042133
0.042133
0.042133
0.042133
0.042133
0.042133
0.042133
0.042133
0.042133
0.042133
0.042133
0.042133
0.042133
0.042133
0.042133
0.042133
0.042133
0.042133
0.042133
0.042133
0.042133
0.042133
0.0421331
0.0421358
0.0421832
0.0424569
0.0430225
0.0435086
0.0436787
0.0437146
0.0436805
0.0435914
0.0434827
0.0433904
0.0433106
0.0432355
0.0431629
0.0430971
0.0430361
0.0429792
0.0429263
0.0428772
0.0428308
0.042787
0.0427457
0.0427069
0.0426702
0.0426355
0.0426024
0.0425713
0.0425428
0.0425167
0.0424927
0.0424699
0.042448
0.0424267
0.0424064
0.0423867
0.042367
0.0423463
0.0423241
0.0423008
0.0422759
0.0422484
0.0422164
0.0421788
0.0421354
0.0420862
0.0420307
0.0419675
0.0418948
0.0418108
0.0417138
0.0416017
0.0414738
0.041328
0.0411626
0.0409767
0.0407675
0.0405347
0.0402744
0.0399873
0.0396677
0.039318
0.0389334
0.0385197
0.0380697
0.0375892
0.0370737
0.0365298
0.0359587
0.0353596
0.0347424
0.0341081
0.0334808
0.0328386
0.0322155
0.031604
0.0309902
0.0304261
0.0298776
0.0293432
0.0288613
0.0283752
0.0279362
0.0275216
0.0271443
0.0268121
0.0262323
0.042133
0.042133
0.042133
0.042133
0.042133
0.042133
0.042133
0.042133
0.042133
0.042133
0.042133
0.042133
0.042133
0.042133
0.042133
0.042133
0.042133
0.042133
0.042133
0.042133
0.042133
0.042133
0.042133
0.042133
0.042133
0.042133
0.042133
0.042133
0.042133
0.042133
0.042133
0.042133
0.042133
0.042133
0.0421331
0.0421343
0.0421615
0.0423646
0.0428911
0.04344
0.0436796
0.0437437
0.0437172
0.0436399
0.0435298
0.0434364
0.0433572
0.0432841
0.0432134
0.0431492
0.0430896
0.0430339
0.0429821
0.0429339
0.0428882
0.0428451
0.0428047
0.042767
0.0427318
0.0426988
0.0426678
0.0426392
0.0426134
0.0425905
0.04257
0.0425511
0.0425333
0.0425163
0.0425006
0.0424859
0.0424719
0.0424574
0.0424418
0.0424254
0.0424081
0.042389
0.0423663
0.042339
0.0423064
0.0422689
0.0422261
0.0421771
0.0421201
0.0420533
0.0419751
0.0418835
0.0417776
0.0416556
0.0415159
0.0413571
0.0411768
0.0409741
0.0407456
0.040491
0.0402051
0.0398897
0.0395407
0.039161
0.0387429
0.0382914
0.0378024
0.0372842
0.0367333
0.0361527
0.0355463
0.0349163
0.034274
0.0336201
0.0329601
0.0323277
0.031691
0.0310547
0.0304918
0.0299186
0.029394
0.0288956
0.0284037
0.0279264
0.0274584
0.0270448
0.0263331
0.042133
0.042133
0.042133
0.042133
0.042133
0.042133
0.042133
0.042133
0.042133
0.042133
0.042133
0.042133
0.042133
0.042133
0.042133
0.042133
0.042133
0.042133
0.042133
0.042133
0.042133
0.042133
0.042133
0.042133
0.042133
0.042133
0.042133
0.042133
0.042133
0.042133
0.042133
0.042133
0.042133
0.042133
0.042133
0.0421335
0.0421478
0.0422877
0.0427522
0.0433476
0.0436709
0.0437698
0.0437478
0.0436852
0.0435789
0.0434852
0.0434058
0.043334
0.0432652
0.0432026
0.0431443
0.0430896
0.0430387
0.0429911
0.042946
0.0429035
0.0428639
0.0428273
0.0427936
0.0427625
0.0427337
0.0427076
0.0426847
0.042665
0.0426479
0.0426329
0.0426191
0.0426064
0.042595
0.0425851
0.0425763
0.0425678
0.0425586
0.0425488
0.0425386
0.0425273
0.0425135
0.0424958
0.0424735
0.0424469
0.0424159
0.04238
0.0423374
0.0422865
0.0422256
0.0421527
0.042067
0.0419667
0.0418504
0.0417167
0.0415634
0.0413894
0.0411917
0.0409695
0.0407185
0.04044
0.0401293
0.0397869
0.039406
0.038991
0.0385381
0.0380526
0.0375288
0.0369728
0.0363846
0.0357675
0.0351211
0.0344597
0.0337861
0.0331002
0.0324428
0.031762
0.0311157
0.0305153
0.0299184
0.0294077
0.028901
0.0284263
0.0279685
0.0275352
0.0267545
0.042133
0.042133
0.042133
0.042133
0.042133
0.042133
0.042133
0.042133
0.042133
0.042133
0.042133
0.042133
0.042133
0.042133
0.042133
0.042133
0.042133
0.042133
0.042133
0.042133
0.042133
0.042133
0.042133
0.042133
0.042133
0.042133
0.042133
0.042133
0.042133
0.042133
0.042133
0.042133
0.042133
0.042133
0.042133
0.0421332
0.0421399
0.0422279
0.0426103
0.0432266
0.0436452
0.0437868
0.0437746
0.0437304
0.0436322
0.0435375
0.0434569
0.0433865
0.0433199
0.0432588
0.0432013
0.0431471
0.0430965
0.043049
0.0430042
0.0429622
0.0429236
0.0428883
0.0428562
0.0428271
0.0428006
0.0427771
0.042757
0.0427404
0.0427267
0.0427154
0.0427056
0.0426967
0.0426894
0.042684
0.0426802
0.0426772
0.0426741
0.0426706
0.0426672
0.0426633
0.0426579
0.0426494
0.0426369
0.0426209
0.0426013
0.0425778
0.0425491
0.0425137
0.0424697
0.0424154
0.0423499
0.0422713
0.0421787
0.0420703
0.0419443
0.0417994
0.0416325
0.0414429
0.0412264
0.0409832
0.040708
0.0404004
0.040056
0.039678
0.0392617
0.0388105
0.0383195
0.0377957
0.0372338
0.0366385
0.0360133
0.0353579
0.0346912
0.0339964
0.0333157
0.0326146
0.0318984
0.0312419
0.0305654
0.0299383
0.0293342
0.0287739
0.0282724
0.0278341
0.0270401
0.042133
0.042133
0.042133
0.042133
0.042133
0.042133
0.042133
0.042133
0.042133
0.042133
0.042133
0.042133
0.042133
0.042133
0.042133
0.042133
0.042133
0.042133
0.042133
0.042133
0.042133
0.042133
0.042133
0.042133
0.042133
0.042133
0.042133
0.042133
0.042133
0.042133
0.042133
0.042133
0.042133
0.042133
0.042133
0.0421331
0.0421359
0.0421858
0.042477
0.0430811
0.0435909
0.0437916
0.0438047
0.0437757
0.0436863
0.0435909
0.0435099
0.0434411
0.0433767
0.0433165
0.0432591
0.0432049
0.0431542
0.0431067
0.0430622
0.043021
0.0429835
0.0429497
0.0429194
0.0428926
0.0428685
0.0428477
0.0428305
0.0428168
0.0428064
0.0427987
0.0427926
0.0427875
0.042784
0.0427829
0.0427837
0.042786
0.0427886
0.0427912
0.0427942
0.0427973
0.0427994
0.0427996
0.0427965
0.0427905
0.0427816
0.0427695
0.0427536
0.0427325
0.042704
0.0426667
0.0426195
0.0425608
0.0424897
0.0424046
0.0423038
0.0421858
0.0420482
0.0418898
0.0417071
0.0414991
0.0412611
0.0409932
0.0406916
0.0403569
0.0399832
0.0395716
0.0391183
0.0386279
0.0380934
0.0375223
0.0369126
0.0362709
0.0356029
0.0349111
0.0341952
0.0334993
0.0327805
0.0320846
0.0314056
0.03073
0.0300785
0.0294403
0.0288181
0.0282612
0.0272814
0.042133
0.042133
0.042133
0.042133
0.042133
0.042133
0.042133
0.042133
0.042133
0.042133
0.042133
0.042133
0.042133
0.042133
0.042133
0.042133
0.042133
0.042133
0.042133
0.042133
0.042133
0.042133
0.042133
0.042133
0.042133
0.042133
0.042133
0.042133
0.042133
0.042133
0.042133
0.042133
0.042133
0.042133
0.042133
0.0421331
0.0421341
0.0421592
0.042361
0.042914
0.0435021
0.0437884
0.0438356
0.0438163
0.0437395
0.0436477
0.043567
0.0434992
0.0434359
0.0433754
0.0433172
0.0432626
0.0432117
0.0431645
0.0431208
0.0430807
0.0430446
0.0430125
0.0429843
0.0429596
0.042938
0.0429198
0.0429053
0.0428944
0.0428871
0.0428827
0.04288
0.0428786
0.0428786
0.0428813
0.0428864
0.0428935
0.0429016
0.04291
0.0429191
0.0429288
0.0429383
0.0429464
0.0429522
0.0429556
0.042957
0.0429559
0.0429521
0.0429447
0.0429315
0.0429106
0.0428815
0.0428424
0.0427926
0.0427305
0.0426547
0.0425636
0.0424551
0.0423277
0.0421779
0.0420045
0.0418032
0.0415742
0.041313
0.0410186
0.0406852
0.0403137
0.0399007
0.0394481
0.0389502
0.0384151
0.0378355
0.0372174
0.036561
0.0358753
0.0351662
0.0344279
0.0336789
0.0329042
0.0321929
0.031451
0.0307794
0.0301412
0.0295387
0.0289904
0.0279891
0.042133
0.042133
0.042133
0.042133
0.042133
0.042133
0.042133
0.042133
0.042133
0.042133
0.042133
0.042133
0.042133
0.042133
0.042133
0.042133
0.042133
0.042133
0.042133
0.042133
0.042133
0.042133
0.042133
0.042133
0.042133
0.042133
0.042133
0.042133
0.042133
0.042133
0.042133
0.042133
0.042133
0.042133
0.042133
0.042133
0.0421334
0.0421445
0.0422701
0.0427371
0.0433816
0.0437687
0.0438566
0.0438515
0.0437945
0.0437089
0.0436267
0.0435581
0.0434946
0.0434332
0.0433742
0.0433193
0.0432688
0.0432224
0.0431798
0.0431411
0.0431068
0.0430765
0.0430503
0.0430278
0.0430085
0.0429929
0.042981
0.0429727
0.0429682
0.0429669
0.0429674
0.0429695
0.0429731
0.0429791
0.0429881
0.0429998
0.0430131
0.0430271
0.0430418
0.0430577
0.0430741
0.0430899
0.043104
0.0431162
0.0431269
0.0431362
0.0431437
0.0431482
0.043149
0.0431434
0.043131
0.04311
0.0430795
0.0430383
0.0429852
0.042919
0.0428373
0.0427391
0.0426209
0.0424817
0.0423175
0.0421279
0.0419082
0.0416566
0.041368
0.0410424
0.0406758
0.0402681
0.0398155
0.0393222
0.0387787
0.0381937
0.0375631
0.0368959
0.0361975
0.0354499
0.0347021
0.033913
0.0331397
0.0323259
0.0315229
0.0307549
0.0300212
0.0293768
0.0282064
0.042133
0.042133
0.042133
0.042133
0.042133
0.042133
0.042133
0.042133
0.042133
0.042133
0.042133
0.042133
0.042133
0.042133
0.042133
0.042133
0.042133
0.042133
0.042133
0.042133
0.042133
0.042133
0.042133
0.042133
0.042133
0.042133
0.042133
0.042133
0.042133
0.042133
0.042133
0.042133
0.042133
0.042133
0.042133
0.042133
0.0421331
0.0421374
0.0422066
0.0425659
0.0432224
0.0437205
0.0438664
0.0438908
0.043851
0.0437705
0.043686
0.0436158
0.0435516
0.0434897
0.0434305
0.0433762
0.0433267
0.0432816
0.0432404
0.0432033
0.0431707
0.0431423
0.043118
0.0430975
0.0430805
0.0430672
0.0430576
0.0430517
0.0430498
0.0430511
0.0430547
0.0430597
0.0430665
0.0430758
0.0430884
0.0431043
0.0431224
0.0431416
0.0431618
0.0431835
0.0432063
0.0432292
0.0432511
0.0432717
0.0432915
0.0433106
0.0433289
0.0433452
0.0433584
0.0433673
0.0433706
0.0433674
0.0433561
0.0433358
0.0433046
0.0432625
0.0432071
0.0431371
0.0430497
0.0429434
0.0428144
0.0426618
0.0424809
0.0422704
0.0420257
0.0417459
0.0414267
0.0410666
0.0406626
0.0402143
0.0397143
0.0391704
0.0385733
0.0379335
0.0372495
0.0365318
0.0357767
0.0350044
0.0341953
0.0334155
0.0325874
0.0318334
0.0310285
0.0302896
0.0289422
0.042133
0.042133
0.042133
0.042133
0.042133
0.042133
0.042133
0.042133
0.042133
0.042133
0.042133
0.042133
0.042133
0.042133
0.042133
0.042133
0.042133
0.042133
0.042133
0.042133
0.042133
0.042133
0.042133
0.042133
0.042133
0.042133
0.042133
0.042133
0.042133
0.042133
0.042133
0.042133
0.042133
0.042133
0.042133
0.042133
0.0421331
0.0421345
0.0421678
0.0424161
0.0430344
0.0436345
0.0438664
0.0439286
0.0439007
0.0438309
0.0437446
0.0436724
0.0436078
0.0435461
0.0434874
0.0434339
0.0433858
0.043342
0.0433022
0.0432667
0.0432358
0.0432089
0.0431864
0.0431677
0.0431528
0.0431417
0.0431341
0.0431306
0.0431307
0.0431346
0.0431405
0.0431483
0.0431582
0.0431707
0.0431868
0.0432066
0.0432293
0.0432535
0.0432789
0.0433059
0.0433347
0.0433643
0.0433936
0.0434222
0.0434503
0.0434783
0.0435063
0.0435336
0.0435591
0.0435812
0.0435985
0.0436104
0.0436161
0.0436154
0.0436046
0.0435849
0.0435533
0.0435096
0.0434508
0.0433758
0.043281
0.0431652
0.0430241
0.0428567
0.0426581
0.0424269
0.0421576
0.0418482
0.041495
0.0410951
0.0406433
0.0401433
0.0395854
0.0389818
0.0383229
0.0376192
0.036869
0.0360691
0.03524
0.034413
0.0335181
0.0326613
0.0318139
0.0311005
0.0297817
0.042133
0.042133
0.042133
0.042133
0.042133
0.042133
0.042133
0.042133
0.042133
0.042133
0.042133
0.042133
0.042133
0.042133
0.042133
0.042133
0.042133
0.042133
0.042133
0.042133
0.042133
0.042133
0.042133
0.042133
0.042133
0.042133
0.042133
0.042133
0.042133
0.042133
0.042133
0.042133
0.042133
0.042133
0.042133
0.042133
0.042133
0.0421335
0.0421474
0.0422997
0.0428305
0.0435065
0.0438576
0.0439611
0.0439441
0.0438867
0.0438023
0.0437293
0.043664
0.0436029
0.0435452
0.043493
0.0434464
0.0434041
0.0433658
0.0433317
0.0433021
0.0432767
0.0432556
0.0432385
0.0432253
0.0432162
0.0432104
0.0432087
0.0432109
0.0432164
0.0432246
0.0432351
0.0432479
0.0432634
0.0432827
0.0433061
0.043333
0.043362
0.0433923
0.0434243
0.0434586
0.0434944
0.0435307
0.0435668
0.0436028
0.0436392
0.0436764
0.0437138
0.0437504
0.043785
0.0438163
0.0438435
0.0438651
0.0438808
0.0438899
0.0438919
0.0438837
0.0438653
0.043834
0.0437886
0.0437259
0.0436445
0.0435407
0.0434133
0.0432576
0.0430717
0.0428499
0.0425902
0.0422884
0.0419411
0.041545
0.0411006
0.0405992
0.0400483
0.0394351
0.0387735
0.038056
0.037288
0.0364725
0.0355943
0.0347421
0.0337643
0.0328072
0.0319293
0.0303543
0.042133
0.042133
0.042133
0.042133
0.042133
0.042133
0.042133
0.042133
0.042133
0.042133
0.042133
0.042133
0.042133
0.042133
0.042133
0.042133
0.042133
0.042133
0.042133
0.042133
0.042133
0.042133
0.042133
0.042133
0.042133
0.042133
0.042133
0.042133
0.042133
0.042133
0.042133
0.042133
0.042133
0.042133
0.042133
0.042133
0.042133
0.0421331
0.0421382
0.0422203
0.0426322
0.043339
0.0438221
0.043977
0.0439817
0.0439393
0.0438606
0.0437867
0.0437207
0.0436606
0.0436042
0.0435535
0.0435083
0.0434671
0.0434298
0.0433967
0.0433683
0.043344
0.0433242
0.0433083
0.0432967
0.0432889
0.0432849
0.0432847
0.0432886
0.0432956
0.0433058
0.0433187
0.0433343
0.043353
0.0433754
0.0434022
0.0434332
0.0434667
0.0435017
0.0435385
0.0435778
0.0436194
0.0436622
0.0437053
0.0437487
0.043793
0.0438385
0.0438851
0.0439319
0.0439779
0.0440218
0.0440624
0.0440991
0.0441313
0.0441577
0.0441777
0.0441905
0.0441952
0.0441895
0.044172
0.0441403
0.0440918
0.0440244
0.0439362
0.0438233
0.0436832
0.0435106
0.0433031
0.0430563
0.0427664
0.0424304
0.0420444
0.0416006
0.0411018
0.0405368
0.0399176
0.0392305
0.038485
0.0376832
0.0368337
0.0359331
0.0350532
0.0340575
0.0331808
0.0315595
0.042133
0.042133
0.042133
0.042133
0.042133
0.042133
0.042133
0.042133
0.042133
0.042133
0.042133
0.042133
0.042133
0.042133
0.042133
0.042133
0.042133
0.042133
0.042133
0.042133
0.042133
0.042133
0.042133
0.042133
0.042133
0.042133
0.042133
0.042133
0.042133
0.042133
0.042133
0.042133
0.042133
0.042133
0.042133
0.042133
0.042133
0.0421331
0.0421347
0.0421735
0.0424599
0.0431403
0.043745
0.0439801
0.0440197
0.0439893
0.0439172
0.0438436
0.0437779
0.0437198
0.0436652
0.0436154
0.043571
0.0435303
0.0434936
0.0434613
0.0434336
0.0434102
0.0433913
0.0433765
0.0433661
0.0433594
0.0433569
0.0433581
0.0433633
0.0433718
0.0433839
0.0433992
0.0434176
0.0434392
0.0434647
0.0434947
0.0435293
0.0435671
0.0436067
0.043648
0.0436919
0.0437387
0.0437875
0.0438373
0.0438877
0.0439392
0.0439924
0.0440474
0.0441037
0.0441602
0.0442157
0.0442691
0.0443197
0.0443668
0.0444099
0.0444482
0.0444806
0.0445059
0.0445231
0.0445312
0.0445288
0.0445113
0.0444783
0.0444257
0.0443521
0.0442544
0.0441279
0.0439705
0.0437772
0.0435444
0.0432674
0.0429404
0.042558
0.0421197
0.0416144
0.0410501
0.0404143
0.0397191
0.0389476
0.0381078
0.0371979
0.0362565
0.0351937
0.0342333
0.0325181
0.042133
0.042133
0.042133
0.042133
0.042133
0.042133
0.042133
0.042133
0.042133
0.042133
0.042133
0.042133
0.042133
0.042133
0.042133
0.042133
0.042133
0.042133
0.042133
0.042133
0.042133
0.042133
0.042133
0.042133
0.042133
0.042133
0.042133
0.042133
0.042133
0.042133
0.042133
0.042133
0.042133
0.042133
0.042133
0.042133
0.042133
0.042133
0.0421335
0.0421496
0.0423276
0.0429256
0.0436272
0.0439722
0.0440514
0.044032
0.0439706
0.0439003
0.0438359
0.0437794
0.0437256
0.0436759
0.0436317
0.0435914
0.0435551
0.0435235
0.0434965
0.0434739
0.0434558
0.0434418
0.0434323
0.0434266
0.0434251
0.0434279
0.0434341
0.0434441
0.043458
0.0434757
0.0434969
0.0435215
0.04355
0.0435831
0.0436211
0.0436628
0.0437067
0.0437523
0.0438005
0.0438521
0.0439065
0.0439624
0.0440194
0.0440777
0.044138
0.0442006
0.0442654
0.0443313
0.0443974
0.0444624
0.0445256
0.0445863
0.0446442
0.0446985
0.0447486
0.0447937
0.0448325
0.0448632
0.044885
0.0448961
0.0448967
0.0448786
0.0448441
0.0447875
0.0447068
0.0445989
0.0444587
0.0442823
0.0440641
0.0437986
0.0434821
0.0431101
0.0426736
0.042176
0.0416049
0.0409699
0.0402503
0.0394564
0.0385751
0.0376216
0.0366089
0.0355839
0.033819
0.042133
0.042133
0.042133
0.042133
0.042133
0.042133
0.042133
0.042133
0.042133
0.042133
0.042133
0.042133
0.042133
0.042133
0.042133
0.042133
0.042133
0.042133
0.042133
0.042133
0.042133
0.042133
0.042133
0.042133
0.042133
0.042133
0.042133
0.042133
0.042133
0.042133
0.042133
0.042133
0.042133
0.042133
0.042133
0.042133
0.042133
0.042133
0.0421332
0.0421391
0.042238
0.0427174
0.0434727
0.0439483
0.0440681
0.0440684
0.0440253
0.0439583
0.0438934
0.0438367
0.0437829
0.0437333
0.0436894
0.0436496
0.0436139
0.0435829
0.0435563
0.0435342
0.0435166
0.0435035
0.0434948
0.0434901
0.0434895
0.0434938
0.0435011
0.0435127
0.0435285
0.0435486
0.0435725
0.0436001
0.0436316
0.0436675
0.0437085
0.0437539
0.0438018
0.0438514
0.0439037
0.0439596
0.044019
0.0440806
0.0441436
0.0442082
0.044275
0.0443446
0.044417
0.0444916
0.0445672
0.0446427
0.0447174
0.0447907
0.0448622
0.0449314
0.0449977
0.0450604
0.0451187
0.0451714
0.0452174
0.0452538
0.0452802
0.0452944
0.0452963
0.0452775
0.0452395
0.0451764
0.045085
0.0449615
0.0448007
0.0445975
0.0443477
0.0440447
0.0436817
0.0432563
0.0427551
0.0421837
0.0415254
0.0407911
0.0399527
0.0390375
0.0380089
0.0369605
0.0352108
0.042133
0.042133
0.042133
0.042133
0.042133
0.042133
0.042133
0.042133
0.042133
0.042133
0.042133
0.042133
0.042133
0.042133
0.042133
0.042133
0.042133
0.042133
0.042133
0.042133
0.042133
0.042133
0.042133
0.042133
0.042133
0.042133
0.042133
0.042133
0.042133
0.042133
0.042133
0.042133
0.042133
0.042133
0.042133
0.042133
0.042133
0.042133
0.0421331
0.0421351
0.0421847
0.0425362
0.0432911
0.043893
0.0440718
0.0441091
0.0440788
0.0440133
0.0439465
0.0438886
0.0438352
0.0437868
0.0437439
0.0437048
0.0436697
0.043639
0.0436126
0.0435909
0.0435738
0.0435615
0.0435536
0.0435502
0.0435507
0.0435564
0.043565
0.0435782
0.043596
0.0436184
0.0436449
0.0436753
0.0437094
0.043748
0.0437917
0.0438402
0.0438917
0.0439452
0.0440012
0.0440611
0.044125
0.0441917
0.0442603
0.0443307
0.0444035
0.0444794
0.0445586
0.0446408
0.044725
0.04481
0.0448951
0.0449795
0.0450631
0.0451456
0.0452263
0.0453049
0.0453805
0.0454524
0.0455193
0.04558
0.045633
0.0456753
0.0457065
0.0457241
0.0457273
0.0457076
0.0456649
0.0455933
0.0454898
0.0453492
0.0451666
0.0449341
0.0446453
0.0442933
0.0438675
0.0433707
0.0427885
0.0421194
0.041336
0.0404675
0.0394502
0.0384032
0.0367153
0.042133
0.042133
0.042133
0.042133
0.042133
0.042133
0.042133
0.042133
0.042133
0.042133
0.042133
0.042133
0.042133
0.042133
0.042133
0.042133
0.042133
0.042133
0.042133
0.042133
0.042133
0.042133
0.042133
0.042133
0.042133
0.042133
0.042133
0.042133
0.042133
0.042133
0.042133
0.042133
0.042133
0.042133
0.042133
0.042133
0.042133
0.042133
0.042133
0.0421337
0.0421567
0.0423946
0.0430968
0.0438058
0.04407
0.0441476
0.0441275
0.0440634
0.0439931
0.0439354
0.0438848
0.0438385
0.0437966
0.0437579
0.0437228
0.043692
0.0436655
0.0436442
0.0436278
0.0436168
0.04361
0.043608
0.0436101
0.043617
0.043627
0.0436418
0.0436614
0.0436859
0.0437148
0.0437476
0.0437842
0.043825
0.0438709
0.0439221
0.0439769
0.0440338
0.0440932
0.0441567
0.0442245
0.0442959
0.0443696
0.0444452
0.0445233
0.0446049
0.0446903
0.0447793
0.0448711
0.0449646
0.0450589
0.0451534
0.045248
0.0453423
0.045436
0.0455288
0.04562
0.0457091
0.0457949
0.0458767
0.0459527
0.0460216
0.0460819
0.0461302
0.0461656
0.0461853
0.0461885
0.0461651
0.0461157
0.0460324
0.0459122
0.0457459
0.0455295
0.045254
0.044911
0.0444985
0.044003
0.0434185
0.0427263
0.0419208
0.0409694
0.0399213
0.0383512
0.042133
0.042133
0.042133
0.042133
0.042133
0.042133
0.042133
0.042133
0.042133
0.042133
0.042133
0.042133
0.042133
0.042133
0.042133
0.042133
0.042133
0.042133
0.042133
0.042133
0.042133
0.042133
0.042133
0.042133
0.042133
0.042133
0.042133
0.042133
0.042133
0.042133
0.042133
0.042133
0.042133
0.042133
0.042133
0.042133
0.042133
0.042133
0.042133
0.0421332
0.0421433
0.0422947
0.042908
0.0436947
0.0440668
0.0441784
0.0441655
0.0441056
0.0440363
0.0439809
0.0439335
0.0438888
0.043847
0.0438079
0.0437721
0.0437409
0.0437147
0.0436944
0.0436795
0.0436701
0.0436651
0.0436643
0.0436681
0.0436761
0.0436876
0.0437038
0.043725
0.0437513
0.0437822
0.043817
0.0438556
0.0438983
0.0439462
0.0439996
0.0440571
0.0441171
0.0441797
0.0442463
0.0443177
0.0443932
0.0444713
0.0445517
0.0446347
0.0447214
0.0448122
0.0449073
0.0450058
0.0451067
0.0452093
0.0453127
0.0454169
0.0455217
0.0456268
0.045732
0.0458369
0.045941
0.0460435
0.0461437
0.0462403
0.0463323
0.0464178
0.0464955
0.0465637
0.046618
0.0466581
0.0466801
0.0466833
0.0466546
0.0465956
0.0464937
0.0463499
0.0461509
0.0458907
0.0455621
0.0451506
0.0446507
0.0440431
0.043304
0.0424323
0.0413864
0.0399719
0.042133
0.042133
0.042133
0.042133
0.042133
0.042133
0.042133
0.042133
0.042133
0.042133
0.042133
0.042133
0.042133
0.042133
0.042133
0.042133
0.042133
0.042133
0.042133
0.042133
0.042133
0.042133
0.042133
0.042133
0.042133
0.042133
0.042133
0.042133
0.042133
0.042133
0.042133
0.042133
0.042133
0.042133
0.042133
0.042133
0.042133
0.042133
0.042133
0.0421331
0.0421375
0.0422303
0.042741
0.0435707
0.0440557
0.0441996
0.0441933
0.0441452
0.0440795
0.044026
0.0439808
0.0439362
0.0438932
0.0438528
0.0438165
0.0437858
0.0437611
0.0437427
0.04373
0.0437226
0.0437193
0.0437198
0.043725
0.043734
0.0437468
0.0437642
0.0437867
0.0438146
0.0438471
0.0438837
0.043924
0.0439684
0.0440179
0.044073
0.0441329
0.0441956
0.0442611
0.0443305
0.044405
0.0444839
0.0445661
0.0446506
0.044738
0.0448292
0.0449249
0.0450252
0.0451295
0.045237
0.0453467
0.045458
0.0455707
0.0456846
0.0457997
0.0459158
0.0460326
0.0461498
0.0462669
0.0463832
0.0464978
0.0466097
0.0467175
0.0468203
0.046916
0.0470027
0.0470787
0.0471384
0.0471816
0.0472035
0.0472046
0.0471647
0.0470934
0.0469695
0.0467946
0.0465543
0.0462376
0.045839
0.0453313
0.0446929
0.0439186
0.0429498
0.0416484
0.042133
0.042133
0.042133
0.042133
0.042133
0.042133
0.042133
0.042133
0.042133
0.042133
0.042133
0.042133
0.042133
0.042133
0.042133
0.042133
0.042133
0.042133
0.042133
0.042133
0.042133
0.042133
0.042133
0.042133
0.042133
0.042133
0.042133
0.042133
0.042133
0.042133
0.042133
0.042133
0.042133
0.042133
0.042133
0.042133
0.042133
0.042133
0.042133
0.0421331
0.042135
0.0421916
0.0426053
0.0434458
0.0440325
0.0442117
0.0442192
0.0441841
0.0441223
0.0440697
0.044025
0.0439783
0.0439329
0.0438916
0.0438561
0.0438274
0.0438053
0.0437894
0.043779
0.0437733
0.0437712
0.0437727
0.043779
0.0437887
0.0438026
0.0438212
0.043845
0.0438744
0.0439085
0.0439467
0.0439886
0.0440346
0.0440855
0.0441422
0.0442041
0.0442692
0.0443372
0.0444091
0.0444862
0.0445682
0.0446538
0.044742
0.0448333
0.0449285
0.0450284
0.0451332
0.0452427
0.0453558
0.0454717
0.0455898
0.0457098
0.0458317
0.0459554
0.0460808
0.0462079
0.0463363
0.0464659
0.0465959
0.0467259
0.046855
0.0469822
0.0471065
0.0472264
0.0473408
0.0474474
0.0475437
0.0476279
0.0476932
0.0477404
0.0477625
0.0477591
0.0477045
0.0476099
0.0474521
0.0472283
0.0469268
0.0465151
0.0459752
0.0452861
0.0444082
0.0432312
0.042133
0.042133
0.042133
0.042133
0.042133
0.042133
0.042133
0.042133
0.042133
0.042133
0.042133
0.042133
0.042133
0.042133
0.042133
0.042133
0.042133
0.042133
0.042133
0.042133
0.042133
0.042133
0.042133
0.042133
0.042133
0.042133
0.042133
0.042133
0.042133
0.042133
0.042133
0.042133
0.042133
0.042133
0.042133
0.042133
0.042133
0.042133
0.042133
0.0421331
0.042134
0.0421695
0.0425033
0.0433312
0.0440008
0.0442185
0.044246
0.0442215
0.044163
0.0441098
0.044063
0.0440132
0.0439663
0.0439259
0.0438928
0.0438669
0.0438474
0.0438335
0.0438247
0.04382
0.0438186
0.0438203
0.0438274
0.0438378
0.043853
0.0438731
0.0438986
0.0439297
0.0439656
0.0440056
0.0440493
0.0440969
0.0441492
0.0442074
0.0442709
0.0443382
0.0444084
0.0444825
0.0445619
0.0446464
0.044735
0.0448265
0.0449211
0.0450198
0.0451233
0.0452321
0.0453459
0.0454638
0.0455851
0.0457091
0.0458354
0.045964
0.046095
0.0462285
0.0463643
0.0465022
0.0466422
0.0467839
0.0469269
0.0470704
0.0472139
0.0473564
0.047497
0.0476346
0.0477674
0.0478941
0.0480118
0.0481182
0.04821
0.0482797
0.0483281
0.0483457
0.0483271
0.0482505
0.0481194
0.0479177
0.0476178
0.0472023
0.0466192
0.0458504
0.0447876
0.042133
0.042133
0.042133
0.042133
0.042133
0.042133
0.042133
0.042133
0.042133
0.042133
0.042133
0.042133
0.042133
0.042133
0.042133
0.042133
0.042133
0.042133
0.042133
0.042133
0.042133
0.042133
0.042133
0.042133
0.042133
0.042133
0.042133
0.042133
0.042133
0.042133
0.042133
0.042133
0.042133
0.042133
0.042133
0.042133
0.042133
0.042133
0.042133
0.042133
0.0421336
0.0421574
0.0424323
0.0432364
0.0439685
0.0442251
0.0442726
0.044255
0.0441987
0.0441433
0.0440934
0.044042
0.0439964
0.0439587
0.0439283
0.0439044
0.0438864
0.0438735
0.0438649
0.0438599
0.0438585
0.0438602
0.0438678
0.0438795
0.0438966
0.0439188
0.0439465
0.0439798
0.0440179
0.0440599
0.0441055
0.0441548
0.0442087
0.0442682
0.0443333
0.0444025
0.0444747
0.0445507
0.044632
0.0447187
0.0448098
0.0449041
0.0450016
0.0451033
0.04521
0.0453222
0.0454396
0.0455617
0.0456875
0.0458164
0.0459481
0.0460824
0.0462196
0.0463598
0.0465028
0.0466488
0.0467975
0.0469488
0.0471025
0.047258
0.0474149
0.0475726
0.0477302
0.0478872
0.0480422
0.0481942
0.0483408
0.0484809
0.0486107
0.0487277
0.0488269
0.0489017
0.0489506
0.0489633
0.0489247
0.0488224
0.0486283
0.04833
0.0478483
0.0472089
0.046262
0.042133
0.042133
0.042133
0.042133
0.042133
0.042133
0.042133
0.042133
0.042133
0.042133
0.042133
0.042133
0.042133
0.042133
0.042133
0.042133
0.042133
0.042133
0.042133
0.042133
0.042133
0.042133
0.042133
0.042133
0.042133
0.042133
0.042133
0.042133
0.042133
0.042133
0.042133
0.042133
0.042133
0.042133
0.042133
0.042133
0.042133
0.042133
0.042133
0.042133
0.0421334
0.0421515
0.0423876
0.0431676
0.0439437
0.0442345
0.0442974
0.0442831
0.044228
0.0441692
0.0441167
0.0440669
0.0440256
0.043991
0.0439624
0.0439393
0.0439212
0.0439078
0.0438981
0.0438917
0.0438895
0.043892
0.0439005
0.0439143
0.0439338
0.0439586
0.043989
0.0440248
0.0440652
0.0441095
0.0441572
0.0442083
0.0442637
0.0443246
0.0443913
0.0444622
0.0445361
0.0446138
0.0446968
0.0447854
0.0448786
0.0449753
0.0450754
0.0451797
0.0452891
0.0454042
0.0455248
0.0456503
0.04578
0.045913
0.0460492
0.0461883
0.0463307
0.0464764
0.0466254
0.0467779
0.0469337
0.0470929
0.0472553
0.0474206
0.0475884
0.0477582
0.0479297
0.0481023
0.0482752
0.0484476
0.048618
0.0487853
0.0489469
0.0491015
0.0492444
0.0493726
0.0494774
0.0495531
0.0495941
0.0495927
0.0495039
0.0493308
0.048967
0.0484768
0.0476681
0.042133
0.042133
0.042133
0.042133
0.042133
0.042133
0.042133
0.042133
0.042133
0.042133
0.042133
0.042133
0.042133
0.042133
0.042133
0.042133
0.042133
0.042133
0.042133
0.042133
0.042133
0.042133
0.042133
0.042133
0.042133
0.042133
0.042133
0.042133
0.042133
0.042133
0.042133
0.042133
0.042133
0.042133
0.042133
0.042133
0.042133
0.042133
0.042133
0.042133
0.0421334
0.0421491
0.0423662
0.0431309
0.0439351
0.0442486
0.0443204
0.0443061
0.0442509
0.0441886
0.044135
0.0440892
0.0440532
0.0440216
0.0439939
0.0439705
0.0439512
0.0439361
0.0439246
0.0439169
0.0439139
0.0439179
0.043928
0.0439441
0.0439664
0.043994
0.044027
0.0440652
0.044108
0.0441545
0.0442042
0.0442572
0.0443142
0.0443766
0.0444447
0.0445172
0.0445928
0.044672
0.0447565
0.0448468
0.0449419
0.0450406
0.0451429
0.0452494
0.0453612
0.0454788
0.0456021
0.0457305
0.0458634
0.046
0.0461399
0.046283
0.0464296
0.0465798
0.0467338
0.0468915
0.0470531
0.0472186
0.047388
0.0475609
0.0477373
0.0479169
0.0480993
0.0482842
0.0484712
0.0486598
0.048849
0.049038
0.0492253
0.0494096
0.049588
0.0497581
0.0499147
0.0500539
0.0501638
0.0502421
0.0502724
0.0502195
0.0499911
0.0496529
0.0489858