/*--------------------------------*- C++ -*----------------------------------*\
| =========                 |                                                 |
| \\      /  F ield         | OpenFOAM: The Open Source CFD Toolbox           |
|  \\    /   O peration     | Version:  2406                                  |
|   \\  /    A nd           | Website:  www.openfoam.com                      |
|    \\/     M anipulation  |                                                 |
\*---------------------------------------------------------------------------*/
FoamFile
{
    version     2.0;
    format      ascii;
    arch        "LSB;label=32;scalar=64";
    class       volScalarField;
    location    "0.009";
    object      rho;
}
// * * * * * * * * * * * * * * * * * * * * * * * * * * * * * * * * * * * * * //

dimensions      [1 -3 0 0 0 0 0];

internalField   nonuniform List<scalar> 
78650
(
0.042133
0.042133
0.042133
0.042133
0.042133
0.042133
0.042133
0.042133
0.042133
0.042133
0.042133
0.042133
0.042133
0.042133
0.042133
0.042133
0.042133
0.0421331
0.0421343
0.042163
0.0423731
0.0428814
0.0433603
0.0435715
0.0435825
0.0435521
0.0434468
0.0433382
0.0432488
0.0431649
0.0430823
0.0429997
0.0429195
0.0428445
0.0427759
0.0427131
0.042655
0.0426009
0.0425493
0.0424989
0.0424494
0.042401
0.0423538
0.0423079
0.0422634
0.0422207
0.04218
0.0421413
0.0421036
0.0420664
0.0420293
0.0419927
0.0419569
0.0419214
0.0418851
0.0418471
0.041807
0.0417646
0.0417189
0.0416684
0.0416121
0.0415499
0.0414824
0.0414096
0.041331
0.0412454
0.0411514
0.0410479
0.0409341
0.0408093
0.0406727
0.0405237
0.0403612
0.0401845
0.0399929
0.0397852
0.0395609
0.0393197
0.0390614
0.0387848
0.0384908
0.0381801
0.0378524
0.0375087
0.0371475
0.036771
0.0363764
0.0359687
0.0355484
0.0351199
0.0346822
0.0342394
0.0337972
0.0333551
0.0329191
0.0324854
0.0320607
0.0316482
0.0312436
0.0308596
0.0304905
0.0301377
0.0298115
0.0294856
0.0291769
0.0288821
0.0286023
0.0283399
0.0280893
0.0278537
0.0276395
0.0274436
0.0272629
0.0270876
0.0269234
0.026769
0.0266226
0.0264817
0.0263443
0.0262199
0.0260072
0.042133
0.042133
0.042133
0.042133
0.042133
0.042133
0.042133
0.042133
0.042133
0.042133
0.042133
0.042133
0.042133
0.042133
0.042133
0.042133
0.042133
0.042133
0.0421336
0.0421503
0.0423055
0.0427714
0.0432995
0.0435707
0.0436053
0.0435862
0.0435
0.0433935
0.0432999
0.0432135
0.0431305
0.0430485
0.0429698
0.0428972
0.0428313
0.0427707
0.0427144
0.0426616
0.042611
0.0425616
0.0425132
0.042466
0.0424206
0.0423769
0.0423352
0.0422955
0.0422581
0.042223
0.0421892
0.0421562
0.0421236
0.0420916
0.0420606
0.0420302
0.0419994
0.0419673
0.0419335
0.0418978
0.0418595
0.0418174
0.0417701
0.0417175
0.04166
0.0415979
0.0415309
0.041458
0.0413778
0.0412892
0.0411913
0.0410832
0.0409644
0.0408343
0.0406918
0.040536
0.0403659
0.0401807
0.0399797
0.0397626
0.0395291
0.039278
0.0390091
0.0387213
0.038414
0.0380882
0.0377439
0.037383
0.0370033
0.0366112
0.0362046
0.0357864
0.0353579
0.0349207
0.034477
0.034034
0.0335885
0.0331516
0.0327136
0.0322882
0.0318629
0.0314532
0.0310651
0.0306839
0.0303275
0.0299767
0.0296406
0.0293349
0.0290399
0.0287619
0.0284945
0.0282317
0.027991
0.0277666
0.0275626
0.0273705
0.0271846
0.0270042
0.0268289
0.0266604
0.0265068
0.0263667
0.0261345
0.042133
0.042133
0.042133
0.042133
0.042133
0.042133
0.042133
0.042133
0.042133
0.042133
0.042133
0.042133
0.042133
0.042133
0.042133
0.042133
0.042133
0.042133
0.0421333
0.0421424
0.0422505
0.0426586
0.0432213
0.0435603
0.0436226
0.0436202
0.0435534
0.0434488
0.0433503
0.0432614
0.0431784
0.0430977
0.0430209
0.042951
0.0428877
0.0428293
0.0427745
0.0427228
0.0426732
0.0426246
0.0425772
0.0425314
0.0424878
0.0424465
0.0424076
0.042371
0.042337
0.0423055
0.0422757
0.0422469
0.0422187
0.0421912
0.0421648
0.0421394
0.042114
0.0420877
0.04206
0.0420308
0.0419997
0.0419654
0.0419268
0.0418834
0.0418355
0.0417838
0.0417279
0.041667
0.0415998
0.0415251
0.0414419
0.0413495
0.0412473
0.0411347
0.0410107
0.0408743
0.0407247
0.0405611
0.0403829
0.0401893
0.0399798
0.0397527
0.0395078
0.0392438
0.0389609
0.0386599
0.0383415
0.0380065
0.0376535
0.0372865
0.0369006
0.0365018
0.0360881
0.0356623
0.0352278
0.0347854
0.0343398
0.0338953
0.0334507
0.0330128
0.0325817
0.032154
0.0317536
0.0313509
0.030962
0.0305945
0.0302331
0.029899
0.0295696
0.0292526
0.0289594
0.028673
0.0284092
0.0281561
0.0279214
0.027698
0.0274858
0.0272808
0.0270809
0.0268872
0.0267046
0.0265385
0.026249
0.042133
0.042133
0.042133
0.042133
0.042133
0.042133
0.042133
0.042133
0.042133
0.042133
0.042133
0.042133
0.042133
0.042133
0.042133
0.042133
0.042133
0.042133
0.0421331
0.0421377
0.0422074
0.0425448
0.04312
0.0435336
0.0436387
0.0436563
0.0436059
0.0435045
0.0434013
0.0433107
0.0432283
0.0431495
0.0430751
0.0430079
0.0429469
0.04289
0.0428361
0.0427851
0.0427361
0.0426883
0.0426419
0.0425976
0.0425559
0.0425171
0.042481
0.0424476
0.0424169
0.0423889
0.0423628
0.042338
0.042314
0.0422908
0.0422688
0.0422481
0.0422278
0.0422071
0.0421852
0.0421622
0.0421378
0.0421112
0.0420809
0.0420464
0.0420081
0.0419663
0.0419211
0.0418718
0.0418174
0.0417565
0.0416881
0.0416115
0.041526
0.0414312
0.0413259
0.0412095
0.041081
0.0409397
0.0407844
0.0406143
0.0404286
0.0402262
0.0400068
0.0397695
0.0395141
0.0392411
0.0389507
0.0386426
0.0383158
0.0379719
0.0376071
0.0372284
0.0368323
0.0364246
0.0360039
0.0355719
0.0351354
0.0346893
0.0342455
0.0337936
0.0333565
0.0329121
0.0324816
0.0320522
0.0316346
0.0312487
0.0308702
0.0305014
0.0301455
0.0297957
0.0294798
0.0291768
0.0288958
0.0286259
0.0283685
0.028124
0.0278973
0.0276803
0.0274758
0.0272721
0.0270736
0.0268821
0.0265424
0.042133
0.042133
0.042133
0.042133
0.042133
0.042133
0.042133
0.042133
0.042133
0.042133
0.042133
0.042133
0.042133
0.042133
0.042133
0.042133
0.042133
0.042133
0.0421331
0.0421351
0.0421763
0.0424374
0.0430005
0.0434863
0.04365
0.0436901
0.0436545
0.0435593
0.0434527
0.0433609
0.0432796
0.0432032
0.0431314
0.0430667
0.0430077
0.0429519
0.0428987
0.0428483
0.0427998
0.0427528
0.0427076
0.0426648
0.0426253
0.0425891
0.042556
0.0425258
0.0424985
0.0424739
0.0424514
0.0424305
0.0424106
0.0423916
0.0423739
0.0423576
0.0423423
0.042327
0.0423108
0.0422938
0.0422759
0.0422565
0.0422343
0.0422084
0.0421791
0.0421469
0.0421119
0.0420737
0.0420313
0.0419834
0.0419289
0.041867
0.0417971
0.0417187
0.041631
0.041533
0.0414242
0.0413034
0.0411697
0.0410222
0.0408605
0.0406834
0.0404907
0.0402811
0.0400535
0.0398078
0.0395436
0.0392601
0.0389567
0.0386338
0.0382899
0.0379306
0.0375522
0.0371603
0.0367511
0.0363303
0.0358974
0.0354557
0.0350091
0.0345574
0.0341089
0.0336553
0.033205
0.0327655
0.0323312
0.0319164
0.0315155
0.0311203
0.0307481
0.0303726
0.0300216
0.0296862
0.0293688
0.0290669
0.028778
0.0285032
0.0282466
0.0280046
0.0277774
0.0275605
0.0273591
0.0271788
0.0268728
0.042133
0.042133
0.042133
0.042133
0.042133
0.042133
0.042133
0.042133
0.042133
0.042133
0.042133
0.042133
0.042133
0.042133
0.042133
0.042133
0.042133
0.042133
0.0421331
0.0421339
0.0421558
0.0423419
0.0428609
0.0434156
0.043656
0.043723
0.0436967
0.0436142
0.0435067
0.0434143
0.0433344
0.0432606
0.0431914
0.043129
0.0430711
0.0430158
0.0429629
0.0429126
0.0428646
0.0428185
0.0427746
0.0427338
0.0426965
0.042663
0.0426331
0.042606
0.0425819
0.0425605
0.0425414
0.0425241
0.042508
0.042493
0.0424794
0.0424674
0.0424568
0.0424466
0.0424359
0.0424245
0.0424128
0.0424002
0.0423857
0.0423683
0.0423478
0.0423249
0.0422998
0.0422722
0.0422415
0.0422063
0.0421656
0.0421183
0.0420641
0.0420022
0.0419321
0.0418529
0.0417639
0.041664
0.0415524
0.0414283
0.0412908
0.0411389
0.040972
0.0407881
0.0405863
0.0403663
0.0401277
0.0398701
0.0395933
0.0392976
0.0389828
0.0386518
0.038301
0.0379343
0.0375474
0.0371479
0.0367325
0.0363057
0.035869
0.0354249
0.0349732
0.0345203
0.0340611
0.0336075
0.0331516
0.0327042
0.0322752
0.0318527
0.0314548
0.0310562
0.0306665
0.0302909
0.0299314
0.0295944
0.0292712
0.0289595
0.0286657
0.0283874
0.0281196
0.0278566
0.0276035
0.027378
0.02698
0.042133
0.042133
0.042133
0.042133
0.042133
0.042133
0.042133
0.042133
0.042133
0.042133
0.042133
0.042133
0.042133
0.042133
0.042133
0.042133
0.042133
0.042133
0.042133
0.0421333
0.0421437
0.0422643
0.0427109
0.0433162
0.0436491
0.0437522
0.0437339
0.043669
0.0435642
0.0434705
0.0433916
0.0433205
0.043254
0.0431932
0.0431359
0.0430806
0.0430276
0.0429775
0.04293
0.0428851
0.0428429
0.0428042
0.0427694
0.0427388
0.0427119
0.042688
0.042667
0.0426487
0.0426329
0.042619
0.0426066
0.0425955
0.0425858
0.0425779
0.0425719
0.0425667
0.0425613
0.0425555
0.0425496
0.0425436
0.0425364
0.042527
0.0425151
0.0425011
0.0424854
0.042468
0.0424483
0.042425
0.0423972
0.0423637
0.042324
0.0422774
0.0422236
0.0421617
0.042091
0.0420107
0.0419197
0.0418175
0.041703
0.041575
0.0414331
0.0412756
0.0411017
0.0409112
0.0407034
0.0404776
0.0402337
0.0399711
0.0396891
0.0393884
0.0390659
0.0387246
0.0383622
0.0379852
0.0375889
0.0371798
0.0367562
0.0363225
0.0358814
0.0354302
0.0349749
0.0345155
0.0340619
0.0336012
0.0331595
0.0327208
0.0323003
0.0318881
0.0314738
0.0310744
0.0306824
0.03032
0.0299779
0.0296518
0.0293375
0.0290298
0.0287422
0.0284627
0.0281932
0.0279403
0.0274622
0.042133
0.042133
0.042133
0.042133
0.042133
0.042133
0.042133
0.042133
0.042133
0.042133
0.042133
0.042133
0.042133
0.042133
0.042133
0.042133
0.042133
0.042133
0.042133
0.0421331
0.0421374
0.0422073
0.0425607
0.0431826
0.0436214
0.0437735
0.0437691
0.0437241
0.0436244
0.0435294
0.0434527
0.0433845
0.0433199
0.0432596
0.0432018
0.0431461
0.0430929
0.0430432
0.0429967
0.0429532
0.042913
0.0428767
0.0428446
0.0428169
0.0427929
0.042772
0.0427539
0.0427384
0.0427255
0.0427148
0.0427058
0.0426983
0.0426923
0.0426883
0.0426865
0.0426861
0.0426858
0.0426853
0.042685
0.0426851
0.042685
0.0426833
0.0426797
0.0426744
0.0426679
0.0426602
0.042651
0.0426393
0.042624
0.042604
0.0425787
0.0425474
0.0425098
0.0424652
0.0424129
0.0423521
0.042282
0.0422016
0.04211
0.0420061
0.0418895
0.0417586
0.0416124
0.0414504
0.0412712
0.041074
0.0408586
0.0406238
0.0403686
0.0400932
0.0397964
0.0394807
0.0391448
0.0387919
0.0384177
0.0380288
0.0376219
0.0372028
0.0367696
0.0363245
0.0358701
0.0354095
0.0349504
0.0344793
0.0340125
0.0335521
0.0331003
0.0326734
0.0322432
0.0318313
0.0314127
0.0310171
0.0306446
0.0302921
0.0299525
0.029617
0.0292965
0.028992
0.0287159
0.0284673
0.0280447
0.042133
0.042133
0.042133
0.042133
0.042133
0.042133
0.042133
0.042133
0.042133
0.042133
0.042133
0.042133
0.042133
0.042133
0.042133
0.042133
0.042133
0.042133
0.042133
0.0421331
0.0421346
0.0421703
0.0424238
0.0430195
0.0435591
0.0437813
0.0438078
0.0437754
0.0436849
0.043592
0.0435174
0.0434508
0.0433868
0.0433259
0.0432672
0.0432111
0.0431582
0.0431094
0.0430642
0.0430226
0.0429847
0.0429509
0.0429214
0.0428964
0.0428753
0.0428572
0.0428418
0.042829
0.0428188
0.0428109
0.0428053
0.0428013
0.042799
0.0427988
0.0428009
0.0428051
0.0428099
0.0428146
0.0428197
0.0428257
0.0428321
0.0428378
0.0428422
0.0428453
0.0428474
0.042849
0.0428498
0.0428488
0.0428452
0.042838
0.0428262
0.042809
0.0427864
0.0427577
0.0427224
0.0426796
0.0426286
0.0425686
0.0424985
0.0424177
0.0423254
0.0422201
0.0421009
0.0419669
0.0418166
0.0416494
0.0414652
0.0412623
0.0410396
0.0407976
0.0405359
0.0402555
0.0399543
0.0396332
0.0392893
0.0389279
0.0385457
0.0381492
0.0377353
0.0373084
0.0368675
0.036416
0.0359541
0.0354856
0.0350069
0.0345359
0.0340607
0.0336001
0.0331431
0.0326931
0.0322505
0.0317999
0.0313763
0.0309763
0.0305973
0.0302283
0.0298494
0.0294794
0.029131
0.0288233
0.0282787
0.042133
0.042133
0.042133
0.042133
0.042133
0.042133
0.042133
0.042133
0.042133
0.042133
0.042133
0.042133
0.042133
0.042133
0.042133
0.042133
0.042133
0.042133
0.042133
0.042133
0.0421335
0.0421493
0.0423114
0.0428371
0.0434567
0.0437784
0.0438394
0.0438214
0.0437482
0.043661
0.0435846
0.0435171
0.0434527
0.0433912
0.0433321
0.0432764
0.0432243
0.0431768
0.0431334
0.0430939
0.0430584
0.0430272
0.0430002
0.0429778
0.0429592
0.0429437
0.0429307
0.0429201
0.0429123
0.042907
0.0429045
0.0429039
0.0429049
0.0429083
0.0429143
0.0429225
0.042932
0.0429417
0.0429521
0.0429636
0.0429764
0.0429891
0.0430011
0.0430122
0.0430228
0.0430333
0.0430436
0.0430531
0.0430607
0.0430653
0.0430667
0.0430636
0.0430557
0.0430429
0.0430242
0.0429992
0.0429672
0.0429273
0.0428786
0.0428205
0.0427519
0.0426716
0.0425787
0.042472
0.0423501
0.0422129
0.0420595
0.0418881
0.0416982
0.04149
0.0412628
0.0410162
0.0407479
0.0404581
0.0401456
0.0398145
0.0394621
0.0390938
0.0387062
0.038303
0.0378809
0.0374452
0.0369981
0.036542
0.0360805
0.035608
0.0351361
0.0346603
0.0342027
0.0337452
0.0333091
0.032847
0.0324038
0.0319684
0.0315639
0.0311897
0.0308098
0.0304359
0.0300639
0.0297152
0.0290837
0.042133
0.042133
0.042133
0.042133
0.042133
0.042133
0.042133
0.042133
0.042133
0.042133
0.042133
0.042133
0.042133
0.042133
0.042133
0.042133
0.042133
0.042133
0.042133
0.042133
0.0421332
0.0421392
0.0422303
0.04265
0.0433151
0.043753
0.0438591
0.0438651
0.0438149
0.0437319
0.0436502
0.0435811
0.0435171
0.043456
0.0433972
0.0433422
0.0432913
0.0432453
0.0432038
0.0431664
0.0431333
0.0431045
0.0430799
0.0430598
0.0430433
0.04303
0.0430191
0.0430107
0.043005
0.0430023
0.0430024
0.0430051
0.0430098
0.0430166
0.0430262
0.0430385
0.0430524
0.0430671
0.0430824
0.0430993
0.043118
0.0431376
0.0431569
0.0431757
0.0431943
0.0432132
0.0432326
0.0432518
0.04327
0.0432861
0.0432991
0.0433087
0.0433144
0.0433162
0.0433129
0.0433043
0.04329
0.0432686
0.0432397
0.0432027
0.0431564
0.0430998
0.0430323
0.0429526
0.0428593
0.0427521
0.0426298
0.0424908
0.0423348
0.042161
0.0419678
0.0417546
0.0415197
0.0412633
0.0409855
0.0406878
0.0403674
0.040028
0.0396672
0.0392884
0.0388876
0.0384701
0.0380362
0.0375901
0.0371305
0.036659
0.0361774
0.0356918
0.0352067
0.0347194
0.0342414
0.0337705
0.0333024
0.0328346
0.0323774
0.0319439
0.0315413
0.0311572
0.0307888
0.0304508
0.0298122
0.042133
0.042133
0.042133
0.042133
0.042133
0.042133
0.042133
0.042133
0.042133
0.042133
0.042133
0.042133
0.042133
0.042133
0.042133
0.042133
0.042133
0.042133
0.042133
0.042133
0.0421331
0.042135
0.0421795
0.042479
0.0431339
0.0436889
0.04387
0.0439142
0.0438767
0.0437975
0.0437144
0.0436447
0.0435816
0.0435209
0.0434626
0.0434086
0.0433593
0.0433153
0.043276
0.0432409
0.0432102
0.0431835
0.0431608
0.0431422
0.0431274
0.0431157
0.0431066
0.0431001
0.0430964
0.0430958
0.0430988
0.0431045
0.0431124
0.0431227
0.0431358
0.0431518
0.0431701
0.0431894
0.0432095
0.0432314
0.0432558
0.0432818
0.0433082
0.0433343
0.0433605
0.0433874
0.0434152
0.0434436
0.0434718
0.0434987
0.0435235
0.0435455
0.0435642
0.0435795
0.043591
0.0435982
0.0436009
0.0435979
0.0435884
0.043572
0.0435474
0.0435139
0.0434709
0.0434168
0.0433507
0.0432718
0.0431788
0.0430705
0.0429466
0.0428054
0.0426456
0.042467
0.0422689
0.0420515
0.0418138
0.0415552
0.0412733
0.0409712
0.0406471
0.0403031
0.0399357
0.0395488
0.0391419
0.0387202
0.0382818
0.0378291
0.0373629
0.0368868
0.0364018
0.0359109
0.035416
0.0349373
0.0344607
0.0339814
0.0334868
0.0329918
0.0325296
0.0320679
0.0316233
0.0312002
0.0304333
0.042133
0.042133
0.042133
0.042133
0.042133
0.042133
0.042133
0.042133
0.042133
0.042133
0.042133
0.042133
0.042133
0.042133
0.042133
0.042133
0.042133
0.042133
0.042133
0.042133
0.042133
0.0421336
0.0421522
0.0423409
0.0429267
0.0435819
0.0438716
0.0439541
0.0439285
0.043861
0.043779
0.0437088
0.0436461
0.0435859
0.0435282
0.0434756
0.0434283
0.0433865
0.0433493
0.043316
0.043287
0.0432617
0.0432403
0.0432229
0.0432093
0.0431991
0.0431916
0.043187
0.0431852
0.0431869
0.0431926
0.0432012
0.0432124
0.0432261
0.0432426
0.0432623
0.0432846
0.0433084
0.0433332
0.04336
0.0433896
0.0434217
0.0434549
0.0434881
0.0435215
0.0435559
0.0435916
0.0436286
0.0436661
0.0437031
0.0437385
0.0437719
0.0438027
0.0438309
0.0438561
0.0438777
0.0438954
0.0439087
0.0439168
0.0439195
0.0439152
0.0439034
0.0438836
0.0438538
0.0438138
0.0437624
0.0436986
0.0436214
0.0435303
0.0434232
0.0432991
0.043158
0.0429991
0.0428212
0.0426225
0.0424017
0.0421577
0.0418924
0.0416038
0.0412945
0.0409624
0.0406098
0.0402345
0.0398405
0.0394265
0.0389961
0.0385488
0.0380896
0.0376184
0.0371352
0.0366454
0.0361527
0.0356707
0.035186
0.0346948
0.0341926
0.0337022
0.0332406
0.0328058
0.0324144
0.0317222
0.042133
0.042133
0.042133
0.042133
0.042133
0.042133
0.042133
0.042133
0.042133
0.042133
0.042133
0.042133
0.042133
0.042133
0.042133
0.042133
0.042133
0.042133
0.042133
0.042133
0.042133
0.0421332
0.0421399
0.042244
0.0427152
0.0434304
0.0438558
0.0439821
0.043974
0.0439237
0.043845
0.0437731
0.0437096
0.0436503
0.0435944
0.0435439
0.043499
0.0434591
0.0434232
0.0433909
0.0433627
0.0433382
0.0433178
0.0433012
0.0432887
0.0432798
0.0432739
0.0432712
0.0432714
0.0432756
0.0432836
0.0432951
0.0433094
0.0433264
0.0433462
0.0433692
0.0433954
0.0434235
0.0434528
0.0434842
0.0435187
0.0435565
0.043596
0.0436359
0.0436762
0.0437176
0.0437607
0.0438056
0.0438517
0.043898
0.0439436
0.0439876
0.0440299
0.04407
0.044108
0.0441435
0.0441761
0.0442052
0.04423
0.0442501
0.0442648
0.0442734
0.0442758
0.0442691
0.0442542
0.0442292
0.0441925
0.0441446
0.0440838
0.0440086
0.0439183
0.0438122
0.0436889
0.0435471
0.0433854
0.0432029
0.0429989
0.0427738
0.0425259
0.0422578
0.0419675
0.0416548
0.0413163
0.0409559
0.0405736
0.0401723
0.0397497
0.0393103
0.038853
0.0383814
0.0378923
0.0373918
0.0368852
0.0363805
0.0358738
0.0353586
0.0348081
0.0342815
0.0337484
0.0332603
0.0324215
0.042133
0.042133
0.042133
0.042133
0.042133
0.042133
0.042133
0.042133
0.042133
0.042133
0.042133
0.042133
0.042133
0.042133
0.042133
0.042133
0.042133
0.042133
0.042133
0.042133
0.042133
0.0421331
0.0421352
0.0421853
0.0425244
0.0432406
0.0438021
0.0439949
0.0440207
0.043982
0.0439079
0.0438348
0.0437719
0.043715
0.0436616
0.043613
0.0435693
0.04353
0.0434944
0.0434625
0.0434349
0.0434112
0.0433918
0.0433762
0.043365
0.0433573
0.043353
0.043352
0.0433547
0.0433609
0.0433713
0.0433856
0.0434029
0.043423
0.0434459
0.0434722
0.0435019
0.0435341
0.0435679
0.0436037
0.0436429
0.0436858
0.0437312
0.0437776
0.0438244
0.0438724
0.0439223
0.0439744
0.0440284
0.0440833
0.0441381
0.044192
0.0442447
0.044296
0.0443457
0.0443936
0.0444394
0.0444827
0.0445229
0.0445595
0.0445918
0.0446189
0.0446404
0.0446554
0.0446631
0.044664
0.0446532
0.0446338
0.0446025
0.0445584
0.0445015
0.0444297
0.0443421
0.0442378
0.0441159
0.0439752
0.0438149
0.0436346
0.0434324
0.0432096
0.0429637
0.0426946
0.0424
0.0420826
0.0417418
0.0413795
0.0409939
0.0405876
0.0401611
0.0397198
0.0392595
0.0387844
0.0382956
0.0378029
0.0373099
0.0368129
0.0363086
0.0357949
0.0352607
0.0347816
0.0339351
0.042133
0.042133
0.042133
0.042133
0.042133
0.042133
0.042133
0.042133
0.042133
0.042133
0.042133
0.042133
0.042133
0.042133
0.042133
0.042133
0.042133
0.042133
0.042133
0.042133
0.042133
0.042133
0.0421336
0.0421548
0.0423728
0.0430277
0.0437049
0.0439964
0.0440615
0.0440336
0.043966
0.0438957
0.0438349
0.0437808
0.0437292
0.0436806
0.0436365
0.0435971
0.0435616
0.0435304
0.0435037
0.043481
0.0434626
0.0434481
0.0434379
0.0434313
0.0434289
0.0434295
0.0434344
0.0434428
0.0434556
0.0434725
0.0434927
0.0435157
0.0435416
0.0435708
0.0436038
0.0436399
0.0436779
0.043718
0.0437615
0.0438092
0.0438601
0.0439124
0.0439654
0.0440194
0.0440756
0.0441343
0.0441954
0.0442581
0.0443214
0.0443844
0.0444467
0.0445082
0.0445687
0.0446282
0.0446863
0.0447428
0.0447972
0.0448489
0.0448974
0.0449422
0.0449825
0.0450176
0.0450463
0.0450684
0.0450827
0.0450888
0.0450859
0.0450707
0.0450453
0.0450062
0.0449532
0.0448857
0.0448023
0.0447019
0.0445833
0.0444451
0.0442853
0.044104
0.0438993
0.0436722
0.043421
0.0431461
0.0428457
0.042522
0.0421742
0.0418027
0.041408
0.0409933
0.0405576
0.0401046
0.0396293
0.0391407
0.0386374
0.038127
0.0376042
0.037066
0.0365078
0.0359775
0.035091
0.042133
0.042133
0.042133
0.042133
0.042133
0.042133
0.042133
0.042133
0.042133
0.042133
0.042133
0.042133
0.042133
0.042133
0.042133
0.042133
0.042133
0.042133
0.042133
0.042133
0.042133
0.042133
0.0421332
0.0421412
0.0422669
0.0428133
0.0435702
0.0439867
0.0440909
0.0440754
0.0440219
0.0439581
0.0438978
0.0438445
0.0437922
0.0437423
0.0436982
0.0436595
0.0436251
0.0435951
0.0435693
0.0435477
0.0435301
0.0435166
0.0435074
0.043502
0.0435008
0.043504
0.0435106
0.0435212
0.0435364
0.0435557
0.0435786
0.0436044
0.043633
0.0436651
0.0437011
0.0437408
0.0437829
0.0438271
0.0438747
0.0439267
0.0439825
0.0440402
0.0440989
0.0441587
0.0442205
0.0442852
0.0443527
0.0444223
0.0444932
0.0445645
0.0446356
0.0447063
0.0447766
0.0448465
0.0449157
0.044984
0.045051
0.0451163
0.0451794
0.0452398
0.0452969
0.04535
0.0453986
0.0454417
0.0454784
0.0455079
0.0455296
0.0455426
0.045547
0.0455391
0.0455195
0.0454869
0.045439
0.0453764
0.0452966
0.0451987
0.0450811
0.0449437
0.0447851
0.0446061
0.0444047
0.0441804
0.0439307
0.0436579
0.043361
0.0430397
0.0426936
0.0423231
0.0419305
0.0415179
0.0410816
0.0406267
0.0401469
0.039656
0.0391441
0.0386246
0.038079
0.0375323
0.0366672
0.042133
0.042133
0.042133
0.042133
0.042133
0.042133
0.042133
0.042133
0.042133
0.042133
0.042133
0.042133
0.042133
0.042133
0.042133
0.042133
0.042133
0.042133
0.042133
0.042133
0.042133
0.042133
0.0421331
0.0421359
0.0422019
0.0426203
0.0434062
0.0439561
0.0441046
0.0441149
0.0440807
0.0440192
0.0439567
0.0439018
0.0438482
0.0437986
0.0437563
0.0437195
0.0436865
0.0436574
0.0436322
0.043611
0.0435938
0.0435812
0.043573
0.0435694
0.0435698
0.0435753
0.0435839
0.0435968
0.0436141
0.0436357
0.0436609
0.0436892
0.0437205
0.0437552
0.043794
0.0438369
0.0438827
0.0439309
0.0439822
0.0440381
0.0440981
0.0441608
0.0442245
0.0442895
0.0443565
0.0444264
0.0444996
0.0445754
0.0446531
0.0447318
0.0448108
0.0448899
0.044969
0.0450482
0.0451274
0.0452063
0.0452848
0.0453624
0.0454387
0.0455133
0.0455857
0.0456552
0.0457213
0.0457833
0.0458404
0.0458919
0.045937
0.0459747
0.0460042
0.0460247
0.0460353
0.0460368
0.0460225
0.0459974
0.0459566
0.0458996
0.0458264
0.0457351
0.0456246
0.0454943
0.0453424
0.045168
0.0449687
0.0447457
0.0444966
0.044223
0.0439234
0.0435976
0.0432476
0.0428735
0.0424774
0.0420597
0.0416176
0.0411576
0.0406689
0.0401721
0.0396307
0.0390919
0.0382723
0.042133
0.042133
0.042133
0.042133
0.042133
0.042133
0.042133
0.042133
0.042133
0.042133
0.042133
0.042133
0.042133
0.042133
0.042133
0.042133
0.042133
0.042133
0.042133
0.042133
0.042133
0.042133
0.0421331
0.042134
0.0421664
0.0424647
0.0432262
0.0438956
0.044108
0.0441582
0.0441367
0.0440744
0.0440083
0.043951
0.0438989
0.0438524
0.0438128
0.0437775
0.0437452
0.0437162
0.0436909
0.0436698
0.0436531
0.0436418
0.0436351
0.0436333
0.0436364
0.0436439
0.0436546
0.0436694
0.0436885
0.043712
0.0437393
0.0437698
0.0438034
0.0438405
0.0438819
0.0439277
0.0439769
0.0440287
0.0440835
0.0441428
0.0442066
0.0442735
0.0443419
0.0444115
0.0444831
0.0445578
0.0446359
0.0447173
0.044801
0.0448863
0.0449724
0.0450589
0.0451459
0.0452334
0.0453214
0.0454098
0.0454984
0.0455868
0.0456747
0.0457618
0.0458476
0.0459316
0.0460134
0.0460922
0.0461674
0.0462384
0.0463045
0.0463651
0.0464192
0.0464662
0.0465044
0.0465338
0.0465529
0.0465614
0.0465583
0.0465384
0.046506
0.0464556
0.0463877
0.0463006
0.0461929
0.0460638
0.0459116
0.0457361
0.0455347
0.0453097
0.0450586
0.044782
0.0444797
0.0441511
0.0437999
0.0434234
0.0430247
0.0425991
0.042147
0.0416696
0.04116
0.0406067
0.0398747
0.042133
0.042133
0.042133
0.042133
0.042133
0.042133
0.042133
0.042133
0.042133
0.042133
0.042133
0.042133
0.042133
0.042133
0.042133
0.042133
0.042133
0.042133
0.042133
0.042133
0.042133
0.042133
0.042133
0.0421334
0.0421488
0.042351
0.0430475
0.0438114
0.0441094
0.0441978
0.0441846
0.0441215
0.0440518
0.0439961
0.0439486
0.0439052
0.0438672
0.0438321
0.0437993
0.0437698
0.0437441
0.0437234
0.0437081
0.0436988
0.0436948
0.0436952
0.0437007
0.0437101
0.0437227
0.0437392
0.0437598
0.0437848
0.0438138
0.0438462
0.0438819
0.0439212
0.0439649
0.0440134
0.0440657
0.0441208
0.0441788
0.0442411
0.0443082
0.0443788
0.0444512
0.044525
0.0446007
0.0446796
0.0447621
0.0448482
0.0449372
0.0450282
0.0451204
0.0452136
0.0453075
0.0454023
0.045498
0.0455946
0.045692
0.0457899
0.045888
0.045986
0.0460836
0.0461803
0.0462758
0.0463694
0.0464606
0.0465488
0.0466335
0.0467138
0.0467894
0.0468594
0.046923
0.0469793
0.0470271
0.0470653
0.0470937
0.0471105
0.0471162
0.0471058
0.0470808
0.047039
0.0469783
0.0468996
0.0468002
0.0466798
0.0465356
0.0463691
0.0461766
0.0459599
0.0457163
0.0454464
0.0451508
0.0448282
0.0444822
0.0441053
0.0437018
0.0432631
0.042792
0.0422618
0.0415689
0.042133
0.042133
0.042133
0.042133
0.042133
0.042133
0.042133
0.042133
0.042133
0.042133
0.042133
0.042133
0.042133
0.042133
0.042133
0.042133
0.042133
0.042133
0.042133
0.042133
0.042133
0.042133
0.042133
0.0421332
0.0421406
0.0422748
0.0428865
0.043715
0.0441108
0.0442295
0.0442203
0.0441611
0.0440931
0.044041
0.0439972
0.0439556
0.0439174
0.0438811
0.0438471
0.0438167
0.0437916
0.0437725
0.0437598
0.0437532
0.0437517
0.0437546
0.043762
0.0437729
0.043787
0.0438047
0.0438264
0.0438526
0.043883
0.0439171
0.0439548
0.0439964
0.0440424
0.0440934
0.0441486
0.0442067
0.0442676
0.0443325
0.0444024
0.0444761
0.044552
0.0446295
0.0447088
0.0447913
0.0448776
0.0449678
0.0450613
0.0451573
0.0452549
0.0453538
0.0454537
0.0455548
0.0456572
0.0457609
0.0458659
0.0459719
0.0460788
0.0461862
0.0462939
0.0464016
0.0465088
0.0466152
0.0467201
0.0468233
0.046924
0.0470218
0.0471162
0.0472065
0.0472921
0.0473722
0.0474459
0.0475124
0.0475708
0.0476194
0.0476577
0.0476843
0.0476987
0.0477013
0.0476838
0.0476531
0.0476021
0.0475311
0.0474387
0.0473236
0.0471829
0.0470181
0.0468254
0.0466068
0.0463599
0.046087
0.0457879
0.0454585
0.0451012
0.0447073
0.0442822
0.0437992
0.0431744
0.042133
0.042133
0.042133
0.042133
0.042133
0.042133
0.042133
0.042133
0.042133
0.042133
0.042133
0.042133
0.042133
0.042133
0.042133
0.042133
0.042133
0.042133
0.042133
0.042133
0.042133
0.042133
0.042133
0.0421331
0.0421369
0.042227
0.0427542
0.0436186
0.0441081
0.0442526
0.0442475
0.044198
0.0441339
0.0440841
0.0440427
0.0440013
0.0439614
0.0439231
0.0438878
0.0438577
0.0438344
0.0438182
0.0438084
0.0438046
0.0438051
0.0438098
0.0438185
0.0438303
0.0438454
0.043864
0.0438866
0.0439139
0.0439458
0.0439818
0.0440217
0.0440656
0.044114
0.0441674
0.0442253
0.0442862
0.0443497
0.0444171
0.0444892
0.0445657
0.0446446
0.0447252
0.0448078
0.0448934
0.0449829
0.0450766
0.045174
0.0452742
0.0453765
0.0454802
0.0455852
0.0456917
0.0457998
0.0459095
0.0460209
0.0461338
0.0462481
0.0463635
0.0464798
0.0465967
0.0467139
0.046831
0.0469476
0.0470633
0.0471777
0.0472903
0.0474006
0.0475082
0.0476126
0.0477129
0.0478087
0.0478991
0.0479832
0.0480604
0.0481294
0.0481893
0.0482382
0.0482764
0.0483011
0.0483127
0.0483092
0.0482836
0.0482424
0.0481785
0.0480924
0.0479837
0.047849
0.0476898
0.0475026
0.0472905
0.0470495
0.0467792
0.0464765
0.046133
0.0457546
0.0453167
0.0447514
0.042133
0.042133
0.042133
0.042133
0.042133
0.042133
0.042133
0.042133
0.042133
0.042133
0.042133
0.042133
0.042133
0.042133
0.042133
0.042133
0.042133
0.042133
0.042133
0.042133
0.042133
0.042133
0.042133
0.0421331
0.0421353
0.0421987
0.0426549
0.0435339
0.0441005
0.0442696
0.0442722
0.0442331
0.044172
0.0441234
0.0440829
0.0440403
0.0439979
0.043958
0.0439228
0.0438947
0.0438741
0.0438607
0.0438534
0.0438515
0.0438533
0.0438585
0.043868
0.0438801
0.0438958
0.0439152
0.0439389
0.0439678
0.0440016
0.0440399
0.0440822
0.0441286
0.0441794
0.0442352
0.0442956
0.0443591
0.044425
0.0444944
0.0445687
0.0446474
0.0447289
0.0448122
0.0448975
0.0449858
0.0450781
0.0451748
0.0452754
0.0453792
0.0454853
0.0455931
0.0457024
0.0458135
0.0459263
0.0460411
0.0461578
0.0462765
0.046397
0.046519
0.0466424
0.0467669
0.0468923
0.0470183
0.0471445
0.0472707
0.0473963
0.0475212
0.0476447
0.0477667
0.0478867
0.0480042
0.0481186
0.0482293
0.0483356
0.0484368
0.0485321
0.0486205
0.0487011
0.0487726
0.0488338
0.048883
0.0489201
0.0489425
0.0489511
0.0489396
0.0489095
0.0488584
0.048782
0.0486825
0.048554
0.0483999
0.0482145
0.0480013
0.0477506
0.0474591
0.0471278
0.0467383
0.0462334
0.042133
0.042133
0.042133
0.042133
0.042133
0.042133
0.042133
0.042133
0.042133
0.042133
0.042133
0.042133
0.042133
0.042133
0.042133
0.042133
0.042133
0.042133
0.042133
0.042133
0.042133
0.042133
0.042133
0.0421331
0.0421346
0.0421833
0.042588
0.0434692
0.0440937
0.0442837
0.0442964
0.0442649
0.0442061
0.0441576
0.0441163
0.0440714
0.0440271
0.0439874
0.0439543
0.043929
0.0439111
0.0438996
0.0438936
0.0438922
0.0438943
0.0438994
0.0439087
0.0439209
0.0439373
0.043958
0.0439834
0.0440144
0.0440506
0.0440913
0.0441363
0.0441852
0.0442385
0.0442967
0.0443594
0.0444252
0.0444933
0.0445646
0.0446407
0.0447213
0.0448051
0.0448907
0.0449784
0.045069
0.0451637
0.0452628
0.0453662
0.0454728
0.0455821
0.0456933
0.0458062
0.045921
0.0460378
0.0461568
0.046278
0.0464013
0.0465268
0.0466542
0.0467834
0.0469141
0.0470461
0.0471793
0.0473133
0.0474478
0.0475826
0.0477172
0.0478515
0.0479851
0.0481177
0.0482489
0.0483783
0.0485054
0.0486297
0.0487506
0.0488674
0.0489795
0.049086
0.049186
0.0492787
0.0493629
0.0494375
0.0495002
0.0495505
0.0495857
0.0496056
0.0496092
0.049586
0.0495454
0.0494767
0.0493832
0.0492603
0.0491102
0.0489193
0.0486888
0.0484083
0.0480735
0.047634
0.042133
0.042133
0.042133
0.042133
0.042133
0.042133
0.042133
0.042133
0.042133
0.042133
0.042133
0.042133
0.042133
0.042133
0.042133
0.042133
0.042133
0.042133
0.042133
0.042133
0.042133
0.042133
0.042133
0.0421331
0.0421343
0.0421767
0.0425524
0.0434328
0.0440935
0.0442983
0.04432
0.0442926
0.0442351
0.0441857
0.0441426
0.0440954
0.0440504
0.0440131
0.0439834
0.0439609
0.0439447
0.0439341
0.0439281
0.043926
0.0439275
0.0439323
0.0439409
0.0439535
0.043971
0.0439934
0.0440211
0.0440546
0.0440934
0.0441368
0.0441843
0.0442358
0.0442914
0.0443518
0.0444166
0.0444845
0.0445545
0.0446276
0.0447053
0.0447876
0.0448733
0.044961
0.0450507
0.0451433
0.04524
0.0453412
0.0454467
0.0455559
0.0456677
0.0457817
0.0458976
0.0460155
0.0461356
0.0462579
0.0463827
0.0465099
0.0466394
0.0467711
0.0469048