/*--------------------------------*- C++ -*----------------------------------*\
| =========                 |                                                 |
| \\      /  F ield         | OpenFOAM: The Open Source CFD Toolbox           |
|  \\    /   O peration     | Version:  2412                                  |
|   \\  /    A nd           | Website:  www.openfoam.com                      |
|    \\/     M anipulation  |                                                 |
\*---------------------------------------------------------------------------*/
FoamFile
{
    version     2.0;
    format      ascii;
    arch        "LSB;label=32;scalar=64";
    class       volScalarField;
    location    "0.107";
    object      rho;
}
// * * * * * * * * * * * * * * * * * * * * * * * * * * * * * * * * * * * * * //

dimensions      [1 -3 0 0 0 0 0];

internalField   nonuniform List<scalar> 
9763
(
0.0423362
0.043055
0.0423437
0.0430208
0.0423539
0.0429924
0.0423627
0.0429849
0.0423724
0.0429775
0.0423804
0.042974
0.0423882
0.0429684
0.0423942
0.0429614
0.042399
0.0429519
0.0424018
0.0429403
0.042404
0.0429262
0.0424052
0.0429103
0.0424056
0.0428926
0.0424052
0.0428736
0.0424044
0.042853
0.0424032
0.0428313
0.0424017
0.0428085
0.0423999
0.0427849
0.0423979
0.0427607
0.0423959
0.0427358
0.0423938
0.0427104
0.0423915
0.0426844
0.042389
0.0426577
0.0423862
0.0426301
0.042383
0.0426015
0.0423793
0.0425719
0.0423753
0.0425411
0.0423709
0.0425092
0.0423661
0.0424762
0.0423612
0.0424424
0.0423564
0.0424076
0.0423524
0.0423723
0.0423495
0.0423365
0.0423478
0.042301
0.0423457
0.0422662
0.0423417
0.0422328
0.0423344
0.0422004
0.0423243
0.0421679
0.0423118
0.0421344
0.042298
0.0420994
0.0420632
0.0420268
0.0419896
0.0585643
0.0431914
0.0430402
0.0428918
0.0427276
0.0426096
0.0424974
0.0424144
0.042331
0.0422645
0.0422013
0.0421474
0.0420942
0.0420453
0.0419991
0.0419556
0.0419144
0.0418749
0.0418362
0.0417969
0.0417557
0.0417117
0.0416643
0.0416134
0.0415593
0.0415024
0.0414433
0.0413825
0.0413205
0.0412583
0.0411965
0.0411361
0.0410775
0.0410214
0.0409681
0.0409183
0.0408725
0.0408312
0.0407947
0.040763
0.0407361
0.0407144
0.040698
0.0406869
0.0406808
0.0406792
0.0406828
0.0406916
0.0407048
0.0407219
0.0407429
0.0407673
0.040795
0.0408255
0.0408587
0.0408932
0.040929
0.0409656
0.0410027
0.0410375
0.0410759
0.0411063
0.04114
0.0411742
0.0412077
0.0412434
0.0412798
0.0413187
0.0413574
0.0413979
0.0414383
0.0414789
0.0415191
0.0415594
0.0415991
0.0416394
0.0416793
0.0417201
0.04176
0.041801
0.0418407
0.0418806
0.0419191
0.0419557
0.0419926
0.0420285
0.0420658
0.0421048
0.0421456
0.0421882
0.0422285
0.0422683
0.0423051
0.0423408
0.0423735
0.0424035
0.0424311
0.0424559
0.0424789
0.0425003
0.0425205
0.0425393
0.0425574
0.0425732
0.042588
0.0425992
0.042608
0.0426125
0.0426137
0.0426107
0.0426022
0.0425889
0.0425698
0.0425476
0.0425232
0.0424979
0.0424722
0.042444
0.0424155
0.0424081
0.0423268
0.0585946
0.0431841
0.0430355
0.0428883
0.0427242
0.0426066
0.0424952
0.0424128
0.0423298
0.0422636
0.0422007
0.0421469
0.0420939
0.0420449
0.0419986
0.0419548
0.0419134
0.0418736
0.0418345
0.0417948
0.0417532
0.0417088
0.041661
0.0416097
0.0415552
0.0414979
0.0414383
0.0413769
0.0413144
0.0412515
0.0411891
0.0411278
0.0410684
0.0410113
0.0409569
0.040906
0.040859
0.0408164
0.0407784
0.0407454
0.0407171
0.040694
0.0406762
0.0406636
0.0406562
0.0406533
0.0406554
0.0406628
0.0406747
0.0406907
0.0407104
0.0407337
0.0407603
0.0407898
0.0408216
0.0408549
0.0408895
0.0409253
0.0409622
0.0409965
0.0410351
0.0410657
0.0410988
0.0411315
0.0411631
0.0411973
0.0412331
0.0412719
0.0413106
0.0413507
0.0413905
0.0414302
0.0414693
0.0415083
0.0415468
0.0415856
0.0416241
0.0416634
0.041702
0.0417418
0.0417807
0.04182
0.0418587
0.041896
0.0419339
0.0419699
0.0420063
0.0420427
0.0420797
0.042117
0.0421535
0.0421899
0.0422238
0.0422565
0.0422861
0.042313
0.0423378
0.0423597
0.0423797
0.042398
0.0424152
0.0424313
0.0424466
0.0424606
0.0424738
0.0424844
0.0424933
0.0424985
0.0425011
0.0425006
0.0424959
0.0424883
0.0424764
0.0424629
0.0424484
0.0424355
0.0424254
0.042419
0.0424164
0.0424165
0.0424162
0.058595
0.0431792
0.0430325
0.0428854
0.0427213
0.0426046
0.0424937
0.0424115
0.0423288
0.0422628
0.0422001
0.0421464
0.0420935
0.0420445
0.0419981
0.0419541
0.0419124
0.0418723
0.0418328
0.0417927
0.0417508
0.041706
0.0416578
0.0416061
0.0415511
0.0414933
0.0414332
0.0413714
0.0413083
0.0412448
0.0411815
0.0411194
0.0410591
0.0410009
0.0409455
0.0408933
0.040845
0.040801
0.0407616
0.0407271
0.0406974
0.0406727
0.0406534
0.0406393
0.0406303
0.0406263
0.0406268
0.0406325
0.0406432
0.0406578
0.0406762
0.0406983
0.0407236
0.0407519
0.0407823
0.0408144
0.0408474
0.0408818
0.0409178
0.0409512
0.0409886
0.0410174
0.0410488
0.0410796
0.0411094
0.0411421
0.0411767
0.0412142
0.0412516
0.0412904
0.0413289
0.0413669
0.0414044
0.0414419
0.0414786
0.0415153
0.0415514
0.0415877
0.0416233
0.0416596
0.0416949
0.0417306
0.0417657
0.0417995
0.0418342
0.0418669
0.0419002
0.0419336
0.0419676
0.042002
0.0420358
0.0420691
0.0420997
0.0421289
0.0421548
0.0421782
0.0421995
0.0422181
0.0422349
0.0422503
0.0422647
0.0422783
0.0422912
0.042303
0.0423139
0.0423229
0.0423301
0.0423341
0.0423358
0.0423342
0.0423288
0.0423199
0.0423073
0.0422929
0.0422781
0.0422655
0.042256
0.0422506
0.0422485
0.0422485
0.0422533
0.0585949
0.0431745
0.0430293
0.0428823
0.0427185
0.0426025
0.0424921
0.0424102
0.0423277
0.042262
0.0421995
0.042146
0.0420932
0.0420442
0.0419976
0.0419535
0.0419115
0.0418711
0.0418312
0.0417908
0.0417485
0.0417033
0.0416547
0.0416026
0.0415472
0.041489
0.0414285
0.0413661
0.0413025
0.0412383
0.0411744
0.0411115
0.0410502
0.0409911
0.0409346
0.0408812
0.0408316
0.0407863
0.0407455
0.0407095
0.0406783
0.0406522
0.0406313
0.0406157
0.0406053
0.0406
0.0405992
0.0406032
0.0406125
0.0406259
0.040643
0.0406638
0.0406879
0.0407149
0.0407441
0.0407748
0.0408064
0.0408395
0.0408747
0.0409073
0.0409434
0.0409702
0.0409997
0.0410288
0.0410569
0.0410878
0.0411205
0.0411559
0.0411909
0.0412274
0.0412637
0.0412999
0.0413359
0.0413719
0.0414072
0.0414423
0.0414763
0.0415102
0.041543
0.0415763
0.0416084
0.0416409
0.0416723
0.0417025
0.0417331
0.0417613
0.0417895
0.0418173
0.0418455
0.0418739
0.0419019
0.0419298
0.0419556
0.0419804
0.0420021
0.0420216
0.0420392
0.0420545
0.0420682
0.0420808
0.0420926
0.0421039
0.0421149
0.0421251
0.0421348
0.0421432
0.0421499
0.0421543
0.0421566
0.0421558
0.0421516
0.0421438
0.0421326
0.0421196
0.0421067
0.0420958
0.0420884
0.0420844
0.0420832
0.0420848
0.0420904
0.0586001
0.0431708
0.0430263
0.0428794
0.0427158
0.0426004
0.0424905
0.0424089
0.0423267
0.0422612
0.042199
0.0421456
0.0420929
0.0420439
0.0419972
0.0419529
0.0419106
0.0418699
0.0418297
0.0417889
0.0417463
0.0417007
0.0416517
0.0415992
0.0415435
0.0414848
0.0414239
0.0413611
0.041297
0.0412322
0.0411675
0.0411038
0.0410417
0.0409816
0.040924
0.0408695
0.0408187
0.040772
0.0407298
0.0406924
0.0406598
0.0406322
0.0406099
0.0405928
0.0405809
0.0405743
0.0405721
0.0405745
0.0405824
0.0405946
0.0406104
0.0406299
0.0406528
0.0406786
0.0407065
0.0407358
0.0407661
0.040798
0.0408324
0.0408638
0.0408984
0.0409232
0.0409511
0.0409789
0.0410058
0.0410349
0.0410653
0.0410981
0.0411305
0.0411646
0.0411988
0.0412331
0.0412676
0.0413024
0.0413366
0.0413706
0.0414033
0.0414352
0.0414654
0.0414956
0.0415242
0.0415527
0.04158
0.0416061
0.0416329
0.0416572
0.0416818
0.0417061
0.041731
0.0417559
0.0417805
0.0418046
0.0418267
0.0418479
0.0418658
0.0418817
0.0418956
0.0419073
0.0419175
0.0419267
0.0419353
0.0419433
0.0419513
0.0419585
0.0419655
0.0419713
0.0419755
0.0419785
0.0419791
0.0419766
0.0419714
0.0419621
0.0419503
0.0419363
0.0419228
0.0419113
0.0419034
0.0418995
0.0418986
0.0419007
0.0419068
0.0586042
0.043167
0.0430232
0.0428764
0.042713
0.0425983
0.042489
0.0424076
0.0423257
0.0422605
0.0421984
0.0421452
0.0420926
0.0420435
0.0419968
0.0419523
0.0419098
0.0418688
0.0418283
0.0417871
0.0417441
0.0416981
0.0416488
0.041596
0.0415398
0.0414808
0.0414194
0.0413561
0.0412915
0.0412261
0.0411608
0.0410963
0.0410333
0.0409723
0.0409137
0.040858
0.040806
0.040758
0.0407145
0.0406756
0.0406416
0.0406126
0.0405887
0.0405701
0.0405568
0.0405488
0.0405453
0.0405464
0.0405527
0.0405636
0.0405782
0.0405965
0.0406182
0.0406428
0.0406694
0.0406974
0.0407266
0.0407573
0.0407907
0.040821
0.0408541
0.0408771
0.0409038
0.0409307
0.0409567
0.0409841
0.0410121
0.041042
0.0410714
0.0411028
0.0411345
0.0411667
0.0411994
0.0412324
0.0412651
0.0412978
0.0413295
0.0413606
0.0413898
0.0414186
0.0414451
0.0414711
0.0414953
0.0415181
0.0415412
0.0415616
0.0415821
0.0416022
0.0416229
0.0416438
0.0416645
0.0416851
0.041704
0.0417223
0.0417372
0.0417505
0.0417618
0.0417711
0.0417789
0.0417859
0.0417922
0.0417983
0.0418041
0.0418095
0.0418148
0.0418185
0.0418215
0.0418227
0.0418216
0.041818
0.0418109
0.0418004
0.0417868
0.0417715
0.041756
0.0417427
0.0417331
0.0417277
0.0417255
0.0417262
0.041724
0.0586081
0.0431635
0.0430199
0.0428733
0.0427102
0.0425962
0.0424874
0.0424064
0.0423247
0.0422597
0.0421979
0.0421448
0.0420923
0.0420432
0.0419964
0.0419517
0.041909
0.0418676
0.0418268
0.0417853
0.0417419
0.0416956
0.0416459
0.0415927
0.0415361
0.0414767
0.0414149
0.0413512
0.041286
0.0412201
0.0411541
0.0410888
0.041025
0.040963
0.0409033
0.0408465
0.0407932
0.0407439
0.040699
0.0406587
0.0406232
0.0405927
0.0405673
0.0405472
0.0405324
0.0405229
0.0405182
0.0405179
0.0405224
0.0405321
0.0405454
0.0405624
0.0405829
0.0406062
0.0406316
0.0406582
0.0406862
0.0407157
0.040748
0.040777
0.0408085
0.0408298
0.0408554
0.0408815
0.0409066
0.0409326
0.0409587
0.0409862
0.0410132
0.0410419
0.0410709
0.0411003
0.0411304
0.0411611
0.0411921
0.0412234
0.0412541
0.0412841
0.0413123
0.0413397
0.0413644
0.0413882
0.0414096
0.0414297
0.0414501
0.0414678
0.0414858
0.0415038
0.0415224
0.0415413
0.0415599
0.0415784
0.0415952
0.0416116
0.0416245
0.041636
0.0416455
0.0416532
0.0416595
0.0416651
0.0416702
0.0416751
0.0416798
0.0416843
0.0416885
0.0416917
0.041694
0.0416947
0.041693
0.0416889
0.0416812
0.0416703
0.0416563
0.0416404
0.0416244
0.0416103
0.0416001
0.0415946
0.041593
0.041595
0.0415995
0.0586116
0.0431598
0.0430165
0.0428702
0.0427074
0.042594
0.0424858
0.042405
0.0423237
0.0422589
0.0421973
0.0421444
0.0420919
0.0420429
0.041996
0.0419511
0.0419081
0.0418665
0.0418253
0.0417835
0.0417397
0.0416931
0.041643
0.0415894
0.0415325
0.0414726
0.0414104
0.0413462
0.0412805
0.041214
0.0411473
0.0410813
0.0410165
0.0409536
0.0408929
0.0408349
0.0407803
0.0407296
0.0406833
0.0406415
0.0406045
0.0405726
0.0405457
0.040524
0.0405077
0.0404966
0.0404906
0.0404889
0.0404918
0.0405
0.0405121
0.0405278
0.040547
0.040569
0.040593
0.0406183
0.0406451
0.0406735
0.0407045
0.0407321
0.0407623
0.0407821
0.0408064
0.0408313
0.0408552
0.0408797
0.0409045
0.0409304
0.0409555
0.040982
0.0410083
0.0410345
0.0410613
0.0410888
0.0411168
0.0411455
0.0411745
0.0412033
0.0412309
0.0412576
0.0412813
0.0413038
0.041323
0.0413407
0.0413579
0.0413724
0.0413871
0.0414018
0.0414173
0.0414335
0.0414496
0.0414659
0.0414806
0.0414954
0.0415068
0.0415171
0.0415255
0.0415322
0.0415378
0.0415427
0.0415473
0.0415517
0.0415561
0.0415604
0.0415643
0.0415675
0.0415697
0.0415702
0.0415685
0.041564
0.0415562
0.0415449
0.0415306
0.041514
0.0414969
0.0414813
0.0414694
0.0414622
0.0414597
0.0414605
0.0414712
0.058615
0.0431555
0.0430131
0.042867
0.0427045
0.0425918
0.0424841
0.0424037
0.0423226
0.0422581
0.0421967
0.042144
0.0420916
0.0420426
0.0419956
0.0419505
0.0419073
0.0418654
0.0418239
0.0417817
0.0417375
0.0416905
0.04164
0.041586
0.0415287
0.0414685
0.0414058
0.0413411
0.041275
0.0412078
0.0411405
0.0410736
0.041008
0.040944
0.0408822
0.0408231
0.0407672
0.0407152
0.0406673
0.0406241
0.0405855
0.040552
0.0405235
0.0405002
0.0404823
0.0404696
0.0404622
0.0404591
0.0404604
0.0404669
0.0404777
0.0404921
0.0405099
0.0405305
0.0405532
0.0405771
0.0406025
0.0406297
0.0406592
0.0406853
0.0407142
0.0407325
0.0407553
0.0407784
0.0408003
0.0408232
0.0408468
0.0408718
0.0408962
0.0409215
0.0409458
0.0409692
0.0409926
0.0410163
0.0410406
0.0410657
0.0410915
0.0411177
0.0411432
0.0411683
0.0411908
0.0412119
0.0412296
0.0412457
0.0412609
0.0412733
0.0412856
0.0412981
0.0413112
0.0413249
0.0413385
0.0413525
0.0413648
0.0413774
0.0413866
0.0413949
0.0414013
0.041406
0.0414097
0.0414127
0.0414154
0.0414181
0.0414208
0.0414234
0.0414257
0.0414274
0.0414281
0.0414269
0.0414238
0.0414176
0.0414083
0.0413953
0.0413794
0.0413609
0.0413418
0.0413237
0.0413088
0.0412984
0.0412934
0.0412941
0.0412896
0.0586187
0.0431509
0.0430095
0.0428638
0.0427016
0.0425896
0.0424825
0.0424024
0.0423216
0.0422573
0.0421961
0.0421436
0.0420913
0.0420422
0.0419951
0.0419499
0.0419065
0.0418642
0.0418224
0.0417798
0.0417353
0.0416879
0.041637
0.0415827
0.041525
0.0414643
0.0414012
0.0413361
0.0412694
0.0412016
0.0411336
0.0410659
0.0409993
0.0409344
0.0408715
0.0408112
0.040754
0.0407005
0.0406512
0.0406064
0.0405663
0.0405311
0.040501
0.0404761
0.0404565
0.0404422
0.0404331
0.0404288
0.0404287
0.0404332
0.0404427
0.0404557
0.0404721
0.0404913
0.0405125
0.0405351
0.0405592
0.0405851
0.0406129
0.0406377
0.0406653
0.0406823
0.0407032
0.0407237
0.040743
0.0407638
0.040786
0.0408101
0.0408336
0.0408577
0.0408802
0.0409013
0.0409217
0.0409419
0.0409626
0.0409841
0.0410063
0.0410293
0.0410522
0.0410752
0.0410961
0.0411159
0.0411323
0.041147
0.0411602
0.0411703
0.0411799
0.0411894
0.0411994
0.0412103
0.0412212
0.0412328
0.0412426
0.041253
0.0412603
0.0412667
0.0412713
0.0412744
0.0412764
0.0412779
0.0412792
0.0412805
0.0412819
0.0412833
0.0412846
0.0412852
0.0412849
0.041283
0.0412791
0.0412722
0.0412623
0.0412487
0.041232
0.0412128
0.0411928
0.0411738
0.0411579
0.0411464
0.0411398
0.0411373
0.0411335
0.0586227
0.0431462
0.0430059
0.0428605
0.0426986
0.0425874
0.0424808
0.042401
0.0423205
0.0422565
0.0421955
0.0421431
0.042091
0.0420419
0.0419947
0.0419493
0.0419056
0.0418631
0.0418209
0.041778
0.0417331
0.0416853
0.041634
0.0415793
0.0415212
0.0414601
0.0413966
0.041331
0.0412637
0.0411954
0.0411266
0.0410581
0.0409907
0.0409247
0.0408607
0.0407991
0.0407406
0.0406857
0.0406348
0.0405884
0.0405467
0.0405098
0.0404781
0.0404515
0.0404302
0.0404143
0.0404035
0.0403977
0.0403961
0.0403989
0.0404067
0.0404184
0.0404333
0.0404511
0.0404708
0.0404919
0.0405145
0.0405392
0.0405651
0.0405884
0.0406146
0.0406301
0.040649
0.0406669
0.0406834
0.040702
0.0407222
0.0407448
0.0407669
0.0407896
0.0408105
0.0408298
0.0408483
0.0408661
0.0408838
0.0409019
0.0409204
0.0409394
0.0409587
0.0409785
0.040997
0.0410151
0.0410302
0.041044
0.0410562
0.0410651
0.0410732
0.041081
0.0410889
0.0410977
0.0411064
0.0411159
0.0411236
0.0411318
0.0411371
0.0411417
0.0411444
0.0411458
0.0411462
0.0411462
0.0411461
0.0411462
0.0411464
0.0411469
0.0411473
0.0411472
0.0411464
0.0411441
0.0411399
0.0411329
0.0411229
0.0411092
0.0410924
0.0410731
0.0410529
0.0410336
0.0410173
0.0410053
0.040998
0.0409943
0.0409919
0.058627
0.0431414
0.0430022
0.0428571
0.0426956
0.0425851
0.0424791
0.0423996
0.0423194
0.0422557
0.0421949
0.0421427
0.0420906
0.0420416
0.0419943
0.0419488
0.0419048
0.0418619
0.0418194
0.0417761
0.0417308
0.0416826
0.041631
0.0415759
0.0415174
0.0414559
0.0413919
0.0413258
0.0412581
0.0411891
0.0411196
0.0410504
0.040982
0.040915
0.0408499
0.0407871
0.0407272
0.0406708
0.0406184
0.0405704
0.040527
0.0404885
0.040455
0.0404267
0.0404037
0.040386
0.0403736
0.0403663
0.0403632
0.0403644
0.0403704
0.0403806
0.0403941
0.0404103
0.0404286
0.0404482
0.0404694
0.0404926
0.0405165
0.0405383
0.040563
0.0405768
0.0405938
0.0406094
0.0406238
0.0406402
0.0406582
0.0406783
0.0406977
0.0407178
0.0407364
0.0407539
0.0407708
0.0407871
0.040803
0.0408188
0.0408345
0.0408503
0.0408662
0.0408826
0.0408982
0.0409137
0.040927
0.0409393
0.04095
0.0409576
0.040964
0.04097
0.040976
0.0409828
0.0409896
0.0409974
0.0410034
0.0410098
0.0410138
0.0410171
0.0410185
0.0410189
0.0410183
0.0410175
0.0410165
0.041016
0.0410159
0.041016
0.0410162
0.0410161
0.0410154
0.0410133
0.0410094
0.0410029
0.0409933
0.0409802
0.0409639
0.040945
0.0409252
0.0409062
0.0408902
0.0408785
0.0408714
0.0408681
0.0408665
0.0586316
0.0431366
0.0429985
0.0428537
0.0426925
0.0425828
0.0424774
0.0423982
0.0423183
0.0422548
0.0421943
0.0421423
0.0420903
0.0420412
0.0419939
0.0419482
0.041904
0.0418608
0.0418179
0.0417743
0.0417286
0.04168
0.041628
0.0415725
0.0415136
0.0414517
0.0413873
0.0413207
0.0412524
0.0411829
0.0411127
0.0410426
0.0409733
0.0409053
0.040839
0.040775
0.0407137
0.0406558
0.0406019
0.0405522
0.0405071
0.0404669
0.0404317
0.0404016
0.0403769
0.0403575
0.0403433
0.0403342
0.0403298
0.0403293
0.0403334
0.0403422
0.0403542
0.0403689
0.0403856
0.0404038
0.0404234
0.0404451
0.0404671
0.0404871
0.0405099
0.0405221
0.0405375
0.0405515
0.0405646
0.0405796
0.0405954
0.0406126
0.0406285
0.0406452
0.0406607
0.0406755
0.0406902
0.0407046
0.0407187
0.0407327
0.0407465
0.0407599
0.0407731
0.0407864
0.040799
0.040812
0.0408232
0.040834
0.0408434
0.0408501
0.0408556
0.0408606
0.0408652
0.0408707
0.0408761
0.0408824
0.040887
0.0408917
0.0408944
0.0408964
0.0408966
0.0408958
0.0408941
0.0408923
0.0408905
0.0408893
0.0408887
0.0408885
0.0408885
0.0408883
0.0408877
0.0408859
0.0408825
0.0408765
0.0408675
0.0408549
0.0408391
0.0408207
0.0408014
0.0407828
0.0407672
0.0407557
0.040749
0.0407461
0.0407454
0.0586365
0.0431316
0.0429947
0.0428503
0.0426894
0.0425805
0.0424756
0.0423968
0.0423171
0.042254
0.0421937
0.0421418
0.04209
0.0420409
0.0419935
0.0419476
0.0419032
0.0418597
0.0418165
0.0417724
0.0417264
0.0416774
0.041625
0.0415691
0.0415099
0.0414476
0.0413827
0.0413157
0.0412468
0.0411767
0.0411058
0.0410348
0.0409646
0.0408955
0.0408282
0.0407629
0.0407002
0.0406409
0.0405853
0.040534
0.0404872
0.0404453
0.0404083
0.0403765
0.0403499
0.0403288
0.0403128
0.040302
0.0402961
0.0402941
0.0402964
0.0403034
0.040314
0.0403272
0.0403423
0.0403592
0.0403773
0.0403973
0.0404176
0.0404357
0.0404565
0.0404671
0.0404811
0.0404941
0.0405063
0.0405203
0.0405341
0.0405484
0.0405607
0.0405736
0.0405857
0.0405976
0.0406098
0.0406218
0.0406335
0.0406453
0.0406569
0.0406683
0.0406796
0.0406907
0.0407011
0.0407115
0.0407204
0.0407289
0.0407362
0.0407412
0.0407453
0.0407491
0.0407528
0.0407571
0.0407616
0.0407669
0.0407704
0.0407738
0.0407756
0.0407766
0.0407759
0.0407743
0.0407718
0.0407692
0.0407669
0.0407654
0.0407646
0.0407643
0.0407644
0.0407644
0.0407641
0.0407628
0.04076
0.0407546
0.0407464
0.0407346
0.0407195
0.0407017
0.040683
0.0406649
0.0406498
0.0406388
0.0406325
0.0406301
0.0406306
0.0586417
0.0431265
0.0429908
0.0428468
0.0426863
0.0425781
0.0424739
0.0423953
0.042316
0.0422531
0.0421931
0.0421414
0.0420896
0.0420406
0.0419931
0.0419471
0.0419024
0.0418586
0.041815
0.0417706
0.0417242
0.0416748
0.0416221
0.0415658
0.0415061
0.0414434
0.0413781
0.0413106
0.0412413
0.0411705
0.0410989
0.0410271
0.0409559
0.0408859
0.0408173
0.0407508
0.0406868
0.0406259
0.0405688
0.0405158
0.0404672
0.0404235
0.0403847
0.0403511
0.0403228
0.0402998
0.0402821
0.0402695
0.0402619
0.0402585
0.0402591
0.0402642
0.0402733
0.0402849
0.0402986
0.0403139
0.0403306
0.0403489
0.0403674
0.0403834
0.0404021
0.040411
0.0404236
0.0404354
0.0404465
0.0404592
0.0404716
0.0404841
0.0404944
0.0405049
0.0405142
0.0405231
0.0405319
0.0405404
0.040549
0.0405579
0.040567
0.0405763
0.0405854
0.0405942
0.0406023
0.0406103
0.0406168
0.0406229
0.0406282
0.0406316
0.0406346
0.0406376
0.0406408
0.0406447
0.0406486
0.0406534
0.0406559
0.0406585
0.0406592
0.0406592
0.0406574
0.040655
0.0406514
0.0406481
0.0406451
0.040643
0.0406419
0.0406412
0.0406412
0.0406412
0.040641
0.0406399
0.0406375
0.0406326
0.040625
0.0406137
0.0405991
0.0405817
0.0405631
0.0405454
0.0405306
0.04052
0.040514
0.0405118
0.040513
0.0586471
0.0431213
0.0429869
0.0428433
0.0426832
0.0425758
0.0424721
0.0423939
0.0423149
0.0422523
0.0421925
0.042141
0.0420893
0.0420403
0.0419927
0.0419465
0.0419016
0.0418575
0.0418136
0.0417688
0.041722
0.0416722
0.0416191
0.0415624
0.0415024
0.0414393
0.0413736
0.0413056
0.0412357
0.0411644
0.0410921
0.0410195
0.0409474
0.0408762
0.0408066
0.0407388
0.0406734
0.040611
0.0405523
0.0404976
0.0404473
0.0404018
0.0403612
0.0403257
0.0402956
0.0402707
0.0402513
0.0402369
0.0402275
0.0402227
0.0402217
0.0402248
0.0402323
0.0402425
0.0402547
0.0402686
0.0402839
0.0403002
0.0403171
0.040331
0.0403476
0.0403551
0.0403663
0.0403764
0.0403855
0.0403958
0.0404061
0.040417
0.0404262
0.0404358
0.040444
0.0404512
0.0404573
0.0404624
0.040467
0.040472
0.0404774
0.0404836
0.0404903
0.0404973
0.0405036
0.0405097
0.040514
0.0405178
0.0405206
0.0405216
0.0405228
0.0405245
0.040527
0.0405303
0.0405338
0.040538
0.0405399
0.040542
0.0405419
0.0405409
0.0405383
0.040535
0.0405308
0.0405269
0.0405234
0.040521
0.0405196
0.0405189
0.0405188
0.0405188
0.0405189
0.040518
0.0405159
0.0405116
0.0405044
0.0404936
0.0404794
0.0404623
0.0404439
0.0404264
0.0404118
0.0404014
0.0403957
0.0403938
0.0403956
0.058653
0.043116
0.0429829
0.0428398
0.04268
0.0425734
0.0424704
0.0423925
0.0423137
0.0422514
0.0421919
0.0421405
0.042089
0.04204
0.0419923
0.041946
0.0419008
0.0418564
0.0418121
0.041767
0.0417198
0.0416697
0.0416162
0.0415591
0.0414987
0.0414352
0.041369
0.0413006
0.0412302
0.0411583
0.0410853
0.0410119
0.0409388
0.0408667
0.0407959
0.0407268
0.04066
0.0405962
0.0405358
0.0404794
0.0404273
0.04038
0.0403375
0.0403002
0.0402682
0.0402415
0.0402202
0.040204
0.0401928
0.0401863
0.0401838
0.0401852
0.0401909
0.0401996
0.0402104
0.0402228
0.0402367
0.0402511
0.0402662
0.0402783
0.0402932
0.0402995
0.0403092
0.040317
0.0403232
0.0403301
0.0403374
0.040346
0.0403541
0.0403632
0.0403711
0.0403777
0.0403827
0.040386
0.040388
0.0403896
0.0403909
0.0403929
0.0403957
0.0403995
0.0404033
0.0404075
0.0404102
0.0404123
0.040413
0.0404122
0.040412
0.0404125
0.0404139
0.0404165
0.0404195
0.0404231
0.0404246
0.040426
0.040425
0.0404232
0.0404196
0.0404154
0.0404103
0.0404057
0.0404016
0.0403987
0.0403968
0.0403959
0.0403955
0.0403953
0.0403953
0.0403945
0.0403924
0.0403882
0.0403812
0.0403707
0.0403566
0.0403395
0.040321
0.0403033
0.0402886
0.0402783
0.0402727
0.0402709
0.0402729
0.0586589
0.0431105
0.0429788
0.0428362
0.0426767
0.042571
0.0424686
0.042391
0.0423126
0.0422506
0.0421913
0.0421401
0.0420887
0.0420397
0.041992
0.0419454
0.0419
0.0418553
0.0418107
0.0417652
0.0417176
0.0416671
0.0416132
0.0415558
0.041495
0.0414311
0.0413645
0.0412956
0.0412248
0.0411522
0.0410785
0.0410044
0.0409304
0.0408572
0.0407852
0.0407149
0.0406468
0.0405814
0.0405194
0.0404612
0.0404074
0.0403582
0.0403139
0.0402747
0.0402407
0.0402122
0.040189
0.0401711
0.0401581
0.0401498
0.0401459
0.0401457
0.0401493
0.0401566
0.040166
0.0401769
0.0401894
0.040202
0.0402153
0.0402259
0.0402396
0.0402449
0.0402531
0.0402584
0.0402614
0.0402644
0.0402679
0.0402732
0.0402787
0.040286
0.0402926
0.0402985
0.0403032
0.0403062
0.0403077
0.0403078
0.0403063
0.0403046
0.0403034
0.0403031
0.0403034
0.0403046
0.040305
0.0403051
0.040304
0.0403017
0.0402999
0.0402992
0.0402995
0.0403009
0.0403031
0.0403061
0.0403071
0.0403079
0.0403063
0.0403038
0.0402996
0.0402946
0.0402889
0.0402836
0.0402789
0.0402755
0.0402731
0.0402719
0.0402712
0.0402709
0.0402709
0.04027
0.040268
0.0402639
0.0402571
0.0402467
0.0402328
0.0402157
0.040197
0.040179
0.0401641
0.0401537
0.0401482
0.0401465
0.0401487
0.0586655
0.043105
0.0429747
0.0428326
0.0426735
0.0425686
0.0424668
0.0423895
0.0423114
0.0422497
0.0421906
0.0421396
0.0420883
0.0420394
0.0419916
0.0419449
0.0418992
0.0418543
0.0418093
0.0417634
0.0417155
0.0416646
0.0416103
0.0415526
0.0414914
0.0414271
0.0413601
0.0412907
0.0412193
0.0411462
0.0410719
0.0409969
0.040922
0.0408477
0.0407746
0.0407031
0.0406335
0.0405666
0.0405029
0.0404431
0.0403874
0.0403364
0.0402901
0.040249
0.0402132
0.0401827
0.0401576
0.0401378
0.040123
0.0401129
0.0401075
0.0401057
0.0401075
0.0401131
0.0401211
0.0401307
0.0401417
0.0401525
0.0401637
0.0401731
0.0401859
0.0401901
0.0401966
0.0401995
0.0401998
0.0401997
0.0401997
0.040201
0.0402028
0.0402069
0.0402108
0.040215
0.0402191
0.0402224
0.0402243
0.040224
0.040221
0.0402162
0.0402111
0.0402066
0.0402032
0.0402012
0.040199
0.0401975
0.0401952
0.0401916
0.0401884
0.0401861
0.0401852
0.0401853
0.0401865
0.0401883
0.0401886
0.0401889
0.0401867
0.0401835
0.0401787
0.040173
0.0401665
0.0401604
0.040155
0.0401509
0.0401479
0.0401461
0.040145
0.0401444
0.040144
0.0401428
0.0401406
0.0401364
0.0401296
0.0401192
0.0401052
0.0400878
0.0400687
0.0400503
0.0400349
0.0400242
0.0400185
0.0400168
0.0400189
0.0586724
0.0430994
0.0429705
0.0428289
0.0426702
0.0425662
0.042465
0.0423881
0.0423103
0.0422489
0.04219
0.0421392
0.042088
0.0420391
0.0419912
0.0419444
0.0418985
0.0418532
0.0418079
0.0417617
0.0417133
0.0416621
0.0416075
0.0415493
0.0414878
0.0414231
0.0413557
0.0412859
0.041214
0.0411403
0.0410652
0.0409895
0.0409136
0.0408384
0.0407641
0.0406913
0.0406204
0.040552
0.0404866
0.040425
0.0403675
0.0403146
0.0402664
0.0402234
0.0401856
0.0401532
0.0401262
0.0401045
0.0400878
0.040076
0.0400687
0.0400655
0.0400658
0.0400694
0.0400761
0.0400844
0.0400938
0.0401029
0.0401121
0.0401203
0.0401323
0.0401354
0.0401402
0.040141
0.04014
0.0401382
0.0401358
0.0401336
0.0401309
0.0401301
0.0401293
0.0401299
0.0401319
0.0401349
0.0401372
0.0401374
0.0401346
0.0401286
0.0401208
0.0401125
0.040105
0.0400992
0.0400942
0.0400902
0.040086
0.0400808
0.040076
0.0400719
0.0400693
0.0400681
0.0400681
0.0400686
0.0400684
0.0400678
0.0400651
0.0400611
0.0400555
0.0400491
0.0400418
0.040035
0.0400288
0.040024
0.0400204
0.0400182
0.0400166
0.0400156
0.0400149
0.0400135
0.0400112
0.0400069
0.0400001
0.0399898
0.0399757
0.0399582
0.0399387
0.0399197
0.0399038
0.0398927
0.0398868
0.039885
0.0398871
0.0586796
0.0430936
0.0429662
0.0428253
0.0426669
0.0425637
0.0424632
0.0423866
0.0423091
0.042248
0.0421894
0.0421387
0.0420877
0.0420388
0.0419909
0.0419439
0.0418977
0.0418522
0.0418065
0.0417599
0.0417112
0.0416596
0.0416046
0.0415461
0.0414842
0.0414191
0.0413513
0.041281
0.0412086
0.0411344
0.0410587
0.0409821
0.0409054
0.040829
0.0407537
0.0406796
0.0406073
0.0405373
0.0404703
0.0404069
0.0403476
0.0402927
0.0402426
0.0401976
0.0401578
0.0401234
0.0400945
0.0400709
0.0400523
0.0400386
0.0400296
0.0400249
0.0400236
0.0400254
0.0400306
0.0400376
0.0400453
0.0400529
0.0400601
0.0400674
0.0400784
0.04008
0.0400828
0.0400814
0.0400796
0.0400777
0.0400747
0.040071
0.0400653
0.0400597
0.0400536
0.0400489
0.0400465
0.0400462
0.0400468
0.0400467
0.0400444
0.0400387
0.0400304
0.0400202
0.0400097
0.0400005
0.0399919
0.0399846
0.0399777
0.03997
0.0399632
0.0399574
0.039953
0.0399502
0.039949
0.0399481
0.0399473
0.0399452
0.0399419
0.039937
0.0399307
0.0399234
0.0399153
0.0399077
0.0399006
0.039895
0.0398907
0.0398877
0.0398856
0.039884
0.0398828
0.0398809
0.0398783
0.0398738
0.0398668
0.0398564
0.0398421
0.0398243
0.0398044
0.0397847
0.0397681
0.0397565
0.0397504
0.0397485
0.0397503
0.0586874
0.0430876
0.0429619
0.0428215
0.0426635
0.0425612
0.0424613
0.0423851
0.0423079
0.0422471
0.0421888
0.0421383
0.0420874
0.0420385
0.0419905
0.0419434
0.041897
0.0418511
0.0418052
0.0417582
0.0417091
0.0416571
0.0416017
0.0415429
0.0414806
0.0414152
0.0413469
0.0412762
0.0412033
0.0411285
0.0410522
0.0409748
0.0408972
0.0408198
0.0407433
0.040668
0.0405943
0.0405228
0.0404541
0.040389
0.0403278
0.040271
0.0402189
0.0401718
0.04013
0.0400936
0.0400628
0.0400372
0.0400168
0.0400012
0.0399903
0.0399839
0.0399812
0.0399815
0.0399849
0.0399905
0.0399966
0.0400027
0.0400083
0.0400148
0.0400244
0.0400241
0.0400249
0.0400212
0.0400179
0.0400156
0.0400128
0.0400093
0.0400032
0.0399958
0.0399861
0.0399762
0.0399679
0.039962
0.0399582
0.0399553
0.0399518
0.0399461
0.039938
0.0399275
0.0399158
0.0399043
0.0398926
0.0398817
0.0398712
0.0398602
0.0398506
0.0398424
0.039836
0.0398314
0.0398285
0.0398257
0.0398239
0.03982
0.039816
0.03981
0.0398027
0.0397945
0.0397855
0.039777
0.0397691
0.0397628
0.0397577
0.0397542
0.0397515
0.0397495
0.0397477
0.0397454
0.0397425
0.0397377
0.0397306
0.0397201
0.0397058
0.0396877
0.0396673
0.0396469
0.0396296
0.0396175
0.039611
0.0396091
0.0396107
0.0586954
0.0430814
0.0429574
0.0428177
0.0426601
0.0425587
0.0424595
0.0423836
0.0423067
0.0422463
0.0421881
0.0421378
0.0420871
0.0420382
0.0419902
0.0419429
0.0418963
0.0418501
0.0418038
0.0417564
0.041707
0.0416546
0.0415989
0.0415397
0.041477
0.0414112
0.0413426
0.0412715
0.0411981
0.0411227
0.0410457
0.0409676
0.040889
0.0408106
0.040733
0.0406564
0.0405813
0.0405083
0.040438
0.040371
0.0403079
0.0402491
0.040195
0.0401459
0.040102
0.0400636
0.0400307
0.0400032
0.0399808
0.0399634
0.0399507
0.0399425
0.0399383
0.0399371
0.0399388
0.0399429
0.0399475
0.0399521
0.0399564
0.0399618
0.0399702
0.0399681
0.0399671
0.0399607
0.039955
0.0399511
0.0399476
0.0399444
0.0399389
0.0399318
0.0399212
0.0399083
0.0398952
0.0398834
0.0398736
0.039866
0.0398595
0.0398525
0.0398443
0.0398338
0.0398216
0.0398086
0.0397943
0.0397803
0.0397661
0.0397517
0.0397389
0.0397281
0.0397195
0.039713
0.0397083
0.0397036
0.0397004
0.0396945
0.0396893
0.0396818
0.0396732
0.0396637
0.0396536
0.039644
0.039635
0.0396277
0.0396218
0.0396175
0.039614
0.0396115
0.0396089
0.039606
0.0396027
0.0395974
0.03959
0.0395791
0.0395646
0.0395462
0.0395253
0.039504
0.0394858
0.0394729
0.039466
0.0394639
0.0394652
0.0587039
0.0430751
0.0429529
0.0428139
0.0426567
0.0425562
0.0424576
0.042382
0.0423055
0.0422454
0.0421875
0.0421374
0.0420868
0.0420379
0.0419898
0.0419424
0.0418956
0.0418491
0.0418024
0.0417547
0.0417049
0.0416522
0.0415961
0.0415365
0.0414735
0.0414073
0.0413383
0.0412668
0.0411929
0.0411169
0.0410393
0.0409604
0.0408809
0.0408015
0.0407227
0.0406449
0.0405684
0.0404939
0.0404219
0.0403531
0.0402881
0.0402274
0.0401712
0.04012
0.040074
0.0400335
0.0399986
0.0399691
0.0399448
0.0399254
0.0399109
0.0399009
0.039895
0.0398925
0.0398927
0.039895
0.039898
0.0399014
0.0399046
0.0399089
0.0399159
0.0399122
0.0399099
0.0399011
0.0398923
0.0398852
0.0398791
0.0398744
0.0398684
0.039862
0.0398525
0.0398395
0.0398246
0.0398085
0.0397933
0.0397803