/*--------------------------------*- C++ -*----------------------------------*\
| =========                 |                                                 |
| \\      /  F ield         | OpenFOAM: The Open Source CFD Toolbox           |
|  \\    /   O peration     | Version:  2412                                  |
|   \\  /    A nd           | Website:  www.openfoam.com                      |
|    \\/     M anipulation  |                                                 |
\*---------------------------------------------------------------------------*/
FoamFile
{
    version     2.0;
    format      ascii;
    arch        "LSB;label=32;scalar=64";
    class       volScalarField;
    location    "0.086";
    object      p;
}
// * * * * * * * * * * * * * * * * * * * * * * * * * * * * * * * * * * * * * //

dimensions      [1 -1 -2 0 0 0 0];

internalField   nonuniform List<scalar> 
9859
(
2800.68
2801.06
2800.63
2799.86
2799.14
2797.97
2796.5
2794.52
2792.35
2789.32
2787.97
2784.7
2783.75
2784.95
2786.46
2788.61
2790.75
2792.59
2794.28
2794.41
2796.27
2797.1
2797.29
2797.66
2797.82
2797.91
2798.06
2798.19
2798.3
2798.44
2798.53
2798.55
2798.56
2798.57
2798.63
2798.78
2799.05
2799.42
2799.87
2800.32
2800.71
2800.95
2801.06
2801.06
2800.98
2800.86
2800.72
2800.6
2800.53
2800.52
2800.57
2800.66
2800.79
2800.95
2801.12
2801.26
2801.34
2801.34
2801.33
2801.35
2801.43
2801.54
2801.7
2801.98
2802.35
2802.62
2802.67
2802.72
2802.98
2800.82
2801.17
2800.74
2799.96
2799.23
2798.05
2796.57
2794.57
2792.38
2789.3
2787.95
2784.74
2783.82
2785.01
2786.53
2788.69
2790.82
2792.67
2794.4
2794.48
2796.37
2797.16
2797.37
2797.73
2797.89
2797.98
2798.14
2798.27
2798.38
2798.52
2798.61
2798.63
2798.64
2798.66
2798.72
2798.87
2799.13
2799.51
2799.96
2800.41
2800.8
2801.04
2801.15
2801.15
2801.07
2800.95
2800.82
2800.7
2800.63
2800.62
2800.66
2800.74
2800.87
2801.03
2801.22
2801.4
2801.52
2801.56
2801.53
2801.5
2801.52
2801.58
2801.7
2801.93
2802.28
2802.6
2802.66
2802.59
2802.76
2803.32
2803.73
2803.62
2803.25
2802.94
2802.99
2803.12
2803.09
2803.12
2803.26
2803.51
2803.8
2804.13
2804.57
2805.1
2805.56
2805.89
2806.03
2806.04
2805.95
2805.77
2805.49
2805.13
2804.71
2804.22
2803.63
2802.97
2802.17
2801.31
2800.42
2799.55
2798.55
2797.68
2796.62
2796.13
2795.77
2795.55
2796.05
2796.86
2799.14
2802.58
2806.5
2808.9
2800.97
2801.3
2800.85
2800.07
2799.32
2798.14
2796.64
2794.63
2792.39
2789.3
2787.93
2784.79
2783.89
2785.07
2786.61
2788.77
2790.9
2792.75
2794.53
2794.58
2796.46
2797.23
2797.45
2797.81
2797.97
2798.07
2798.22
2798.35
2798.47
2798.61
2798.69
2798.72
2798.73
2798.75
2798.81
2798.96
2799.22
2799.6
2800.06
2800.51
2800.89
2801.13
2801.24
2801.25
2801.17
2801.05
2800.91
2800.8
2800.73
2800.72
2800.76
2800.84
2800.96
2801.12
2801.31
2801.52
2801.69
2801.77
2801.76
2801.71
2801.68
2801.7
2801.77
2801.93
2802.2
2802.5
2802.6
2802.48
2802.52
2803.09
2803.73
2803.98
2803.86
2803.53
2803.29
2803.42
2803.8
2803.87
2803.51
2803.47
2803.6
2803.45
2803.36
2803.27
2803.23
2803.26
2803.4
2803.65
2803.93
2804.27
2804.71
2805.22
2805.68
2806.02
2806.15
2806.15
2806.06
2805.87
2805.58
2805.22
2804.79
2804.28
2803.69
2803.01
2802.2
2801.32
2800.41
2799.51
2798.47
2797.57
2796.48
2795.95
2795.53
2795.23
2795.67
2796.31
2798.45
2801.59
2804.97
2806.25
2801.13
2801.43
2800.97
2800.18
2799.42
2798.24
2796.72
2794.69
2792.41
2789.3
2787.91
2784.84
2783.97
2785.14
2786.69
2788.85
2790.98
2792.84
2794.66
2794.69
2796.55
2797.3
2797.54
2797.89
2798.05
2798.15
2798.3
2798.43
2798.56
2798.7
2798.78
2798.81
2798.83
2798.84
2798.9
2799.05
2799.32
2799.7
2800.16
2800.61
2800.99
2801.22
2801.34
2801.35
2801.27
2801.15
2801.02
2800.9
2800.83
2800.82
2800.86
2800.94
2801.05
2801.21
2801.4
2801.61
2801.81
2801.95
2801.99
2801.95
2801.92
2801.92
2801.96
2802.03
2802.17
2802.4
2802.56
2802.49
2802.41
2802.8
2803.43
2803.96
2804.2
2804.1
2803.78
2803.55
2803.74
2804.03
2803.86
2803.65
2803.79
2803.57
2803.51
2803.43
2803.38
2803.41
2803.55
2803.79
2804.07
2804.43
2804.86
2805.35
2805.8
2806.15
2806.28
2806.27
2806.17
2805.98
2805.68
2805.31
2804.86
2804.35
2803.75
2803.06
2802.24
2801.34
2800.39
2799.48
2798.39
2797.45
2796.35
2795.76
2795.27
2794.89
2795.27
2795.73
2797.73
2800.54
2803.33
2803.47
2801.29
2801.56
2801.1
2800.29
2799.53
2798.33
2796.8
2794.75
2792.42
2789.32
2787.9
2784.9
2784.06
2785.21
2786.77
2788.94
2791.07
2792.94
2794.79
2794.81
2796.64
2797.37
2797.63
2797.97
2798.13
2798.24
2798.39
2798.53
2798.65
2798.8
2798.88
2798.91
2798.92
2798.94
2799
2799.15
2799.42
2799.81
2800.26
2800.72
2801.09
2801.32
2801.45
2801.45
2801.37
2801.26
2801.13
2801.01
2800.94
2800.94
2800.98
2801.05
2801.16
2801.3
2801.47
2801.67
2801.88
2802.08
2802.18
2802.19
2802.19
2802.22
2802.26
2802.26
2802.26
2802.38
2802.61
2802.69
2802.57
2802.64
2803.02
2803.62
2804.13
2804.38
2804.24
2803.86
2803.76
2804.06
2804.17
2803.87
2803.86
2803.75
2803.67
2803.59
2803.54
2803.57
2803.71
2803.95
2804.22
2804.59
2805.01
2805.49
2805.94
2806.29
2806.42
2806.4
2806.29
2806.09
2805.79
2805.4
2804.94
2804.42
2803.81
2803.1
2802.27
2801.35
2800.38
2799.44
2798.3
2797.33
2796.2
2795.55
2794.99
2794.53
2794.83
2795.14
2796.96
2799.43
2801.61
2800.61
2773.34
2801.45
2801.7
2801.23
2800.42
2799.63
2798.44
2796.88
2794.82
2792.42
2789.34
2787.88
2784.97
2784.16
2785.29
2786.87
2789.03
2791.17
2793.04
2794.92
2794.96
2796.73
2797.44
2797.71
2798.06
2798.22
2798.34
2798.49
2798.62
2798.75
2798.9
2798.98
2799.01
2799.03
2799.04
2799.11
2799.26
2799.53
2799.92
2800.38
2800.83
2801.2
2801.43
2801.56
2801.56
2801.48
2801.37
2801.24
2801.13
2801.06
2801.06
2801.1
2801.18
2801.28
2801.42
2801.56
2801.72
2801.92
2802.13
2802.3
2802.39
2802.45
2802.53
2802.59
2802.59
2802.5
2802.53
2802.78
2803.07
2803.05
2802.81
2802.79
2803.21
2803.76
2804.25
2804.45
2804.25
2803.96
2804.04
2804.3
2804.12
2803.92
2803.95
2803.84
2803.76
2803.72
2803.74
2803.88
2804.11
2804.37
2804.76
2805.18
2805.64
2806.07
2806.43
2806.57
2806.53
2806.42
2806.21
2805.9
2805.5
2805.03
2804.5
2803.87
2803.15
2802.3
2801.36
2800.36
2799.39
2798.21
2797.2
2796.04
2795.33
2794.71
2794.16
2794.35
2794.52
2796.16
2798.23
2799.76
2797.62
2768.66
2801.63
2801.85
2801.36
2800.54
2799.74
2798.54
2796.96
2794.9
2792.42
2789.37
2787.88
2785.04
2784.27
2785.38
2786.97
2789.13
2791.27
2793.15
2795.05
2795.13
2796.81
2797.52
2797.81
2798.15
2798.32
2798.44
2798.59
2798.73
2798.86
2799
2799.08
2799.12
2799.13
2799.15
2799.22
2799.37
2799.65
2800.03
2800.49
2800.94
2801.31
2801.55
2801.68
2801.68
2801.6
2801.49
2801.36
2801.25
2801.18
2801.18
2801.22
2801.31
2801.42
2801.55
2801.67
2801.79
2801.94
2802.14
2802.34
2802.5
2802.63
2802.75
2802.87
2802.92
2802.88
2802.85
2803.07
2803.49
2803.68
2803.37
2803.03
2803.09
2803.43
2803.9
2804.35
2804.54
2804.36
2804.15
2804.29
2804.35
2804.12
2804.12
2804.03
2803.95
2803.9
2803.93
2804.06
2804.29
2804.55
2804.93
2805.35
2805.8
2806.22
2806.58
2806.72
2806.67
2806.55
2806.34
2806.01
2805.6
2805.12
2804.57
2803.94
2803.2
2802.33
2801.38
2800.35
2799.34
2798.11
2797.06
2795.87
2795.1
2794.4
2793.77
2793.82
2793.9
2795.3
2796.99
2797.82
2794.52
2763.9
2801.81
2802.01
2801.5
2800.68
2799.86
2798.65
2797.05
2794.98
2792.43
2789.4
2787.88
2785.13
2784.4
2785.49
2787.08
2789.24
2791.39
2793.27
2795.18
2795.3
2796.9
2797.61
2797.9
2798.24
2798.42
2798.54
2798.69
2798.83
2798.97
2799.11
2799.19
2799.23
2799.25
2799.27
2799.34
2799.49
2799.77
2800.16
2800.61
2801.06
2801.43
2801.67
2801.8
2801.8
2801.72
2801.61
2801.49
2801.38
2801.31
2801.31
2801.36
2801.45
2801.57
2801.71
2801.82
2801.9
2802.01
2802.16
2802.35
2802.53
2802.68
2802.84
2803.01
2803.16
2803.26
2803.27
2803.38
2803.76
2804.14
2804.09
2803.76
2803.54
2803.54
2803.75
2804.16
2804.63
2804.75
2804.48
2804.34
2804.5
2804.4
2804.28
2804.21
2804.14
2804.1
2804.12
2804.25
2804.48
2804.73
2805.12
2805.53
2805.97
2806.38
2806.73
2806.88
2806.82
2806.69
2806.47
2806.13
2805.71
2805.21
2804.65
2804.01
2803.25
2802.36
2801.38
2800.33
2799.29
2798.01
2796.91
2795.7
2794.86
2794.08
2793.37
2793.26
2793.24
2794.39
2795.66
2795.77
2791.31
2759.16
2802.01
2802.17
2801.65
2800.82
2799.98
2798.76
2797.14
2795.06
2792.45
2789.45
2787.9
2785.23
2784.53
2785.6
2787.2
2789.36
2791.51
2793.4
2795.32
2795.48
2796.98
2797.69
2798
2798.34
2798.52
2798.65
2798.8
2798.95
2799.09
2799.22
2799.31
2799.35
2799.37
2799.39
2799.46
2799.62
2799.9
2800.29
2800.74
2801.18
2801.55
2801.8
2801.93
2801.93
2801.86
2801.74
2801.62
2801.51
2801.45
2801.45
2801.49
2801.59
2801.73
2801.88
2802
2802.08
2802.15
2802.24
2802.38
2802.53
2802.67
2802.81
2803
2803.24
2803.49
2803.62
2803.62
2803.78
2804.17
2804.51
2804.57
2804.39
2804.2
2804.12
2804.25
2804.58
2804.89
2804.87
2804.61
2804.6
2804.64
2804.48
2804.41
2804.35
2804.31
2804.33
2804.46
2804.68
2804.93
2805.32
2805.72
2806.15
2806.55
2806.88
2807.05
2806.98
2806.83
2806.6
2806.26
2805.82
2805.3
2804.73
2804.08
2803.3
2802.39
2801.4
2800.31
2799.23
2797.9
2796.76
2795.51
2794.59
2793.75
2792.95
2792.66
2792.57
2793.43
2794.23
2793.65
2787.98
2754.41
2802.21
2802.35
2801.8
2800.96
2800.1
2798.88
2797.23
2795.14
2792.48
2789.51
2787.93
2785.34
2784.69
2785.74
2787.34
2789.49
2791.65
2793.56
2795.47
2795.66
2797.07
2797.79
2798.11
2798.44
2798.63
2798.76
2798.92
2799.06
2799.21
2799.34
2799.43
2799.47
2799.49
2799.52
2799.6
2799.76
2800.04
2800.43
2800.88
2801.31
2801.68
2801.93
2802.07
2802.07
2801.99
2801.88
2801.76
2801.66
2801.6
2801.59
2801.64
2801.73
2801.88
2802.05
2802.2
2802.32
2802.38
2802.42
2802.48
2802.56
2802.66
2802.78
2802.95
2803.2
2803.52
2803.75
2803.75
2803.66
2803.85
2804.37
2804.83
2804.96
2804.93
2804.83
2804.71
2804.68
2804.86
2805.06
2804.98
2804.8
2804.8
2804.72
2804.63
2804.57
2804.53
2804.55
2804.67
2804.89
2805.14
2805.53
2805.92
2806.33
2806.73
2807.04
2807.22
2807.14
2806.98
2806.74
2806.39
2805.94
2805.4
2804.82
2804.15
2803.35
2802.42
2801.4
2800.29
2799.16
2797.79
2796.6
2795.32
2794.32
2793.39
2792.5
2792.03
2791.84
2792.41
2792.73
2791.44
2784.53
2749.67
2802.42
2802.53
2801.96
2801.12
2800.23
2799
2797.33
2795.22
2792.51
2789.58
2787.98
2785.47
2784.87
2785.89
2787.49
2789.62
2791.8
2793.74
2795.64
2795.83
2797.17
2797.89
2798.22
2798.55
2798.74
2798.88
2799.04
2799.19
2799.33
2799.47
2799.55
2799.6
2799.62
2799.65
2799.74
2799.91
2800.2
2800.58
2801.02
2801.45
2801.82
2802.08
2802.22
2802.21
2802.14
2802.03
2801.91
2801.81
2801.75
2801.74
2801.78
2801.88
2802.03
2802.21
2802.39
2802.56
2802.66
2802.69
2802.69
2802.71
2802.78
2802.88
2803
2803.18
2803.43
2803.7
2803.82
2803.68
2803.6
2803.94
2804.46
2804.85
2805.1
2805.23
2805.19
2805.03
2804.97
2805.12
2805.23
2805.09
2804.99
2804.95
2804.87
2804.8
2804.77
2804.79
2804.91
2805.12
2805.36
2805.75
2806.14
2806.53
2806.92
2807.21
2807.4
2807.32
2807.14
2806.89
2806.52
2806.06
2805.5
2804.9
2804.22
2803.39
2802.45
2801.41
2800.27
2799.08
2797.67
2796.43
2795.11
2794.02
2793.01
2792.02
2791.39
2791.09
2791.34
2791.12
2789.17
2780.94
2744.92
2802.65
2802.71
2802.13
2801.27
2800.36
2799.12
2797.43
2795.31
2792.55
2789.66
2788.05
2785.61
2785.06
2786.06
2787.66
2789.77
2791.96
2793.97
2795.78
2796
2797.28
2797.99
2798.34
2798.67
2798.86
2799
2799.16
2799.31
2799.46
2799.6
2799.69
2799.73
2799.76
2799.8
2799.89
2800.07
2800.35
2800.74
2801.17
2801.6
2801.97
2802.23
2802.37
2802.36
2802.29
2802.19
2802.07
2801.97
2801.91
2801.9
2801.94
2802.03
2802.17
2802.34
2802.54
2802.75
2802.92
2803
2803.02
2803.02
2803.07
2803.16
2803.25
2803.32
2803.43
2803.64
2803.93
2804.03
2803.91
2803.89
2804.11
2804.5
2804.85
2805.15
2805.36
2805.41
2805.34
2805.3
2805.37
2805.37
2805.26
2805.19
2805.12
2805.05
2805.02
2805.04
2805.15
2805.36
2805.6
2805.98
2806.37
2806.75
2807.12
2807.39
2807.58
2807.5
2807.3
2807.04
2806.66
2806.18
2805.61
2804.99
2804.3
2803.45
2802.47
2801.41
2800.23
2798.99
2797.54
2796.25
2794.89
2793.7
2792.62
2791.5
2790.72
2790.27
2790.2
2789.44
2786.83
2777.24
2740.16
2802.88
2802.91
2802.3
2801.44
2800.49
2799.25
2797.54
2795.39
2792.6
2789.77
2788.13
2785.77
2785.27
2786.24
2787.84
2789.92
2792.12
2794.22
2795.92
2796.18
2797.39
2798.1
2798.46
2798.79
2798.98
2799.12
2799.29
2799.45
2799.6
2799.74
2799.83
2799.88
2799.91
2799.95
2800.05
2800.23
2800.52
2800.9
2801.33
2801.75
2802.12
2802.4
2802.53
2802.52
2802.46
2802.35
2802.23
2802.14
2802.08
2802.07
2802.11
2802.19
2802.32
2802.48
2802.67
2802.88
2803.09
2803.26
2803.35
2803.41
2803.47
2803.56
2803.66
2803.7
2803.7
2803.8
2804.13
2804.53
2804.69
2804.56
2804.46
2804.61
2804.85
2805.1
2805.37
2805.61
2805.7
2805.64
2805.58
2805.59
2805.54
2805.46
2805.39
2805.32
2805.29
2805.31
2805.42
2805.62
2805.85
2806.22
2806.61
2806.97
2807.34
2807.59
2807.76
2807.7
2807.48
2807.19
2806.8
2806.31
2805.72
2805.08
2804.37
2803.5
2802.5
2801.41
2800.2
2798.91
2797.41
2796.06
2794.66
2793.37
2792.2
2790.95
2790.05
2789.41
2788.99
2787.67
2784.4
2773.45
2735.41
2803.13
2803.11
2802.47
2801.61
2800.63
2799.39
2797.65
2795.48
2792.65
2789.88
2788.25
2785.95
2785.5
2786.44
2788.03
2790.09
2792.29
2794.46
2796.06
2796.37
2797.51
2798.22
2798.59
2798.92
2799.11
2799.26
2799.43
2799.59
2799.74
2799.88
2799.97
2800.03
2800.06
2800.11
2800.21
2800.4
2800.69
2801.07
2801.5
2801.92
2802.3
2802.57
2802.7
2802.69
2802.63
2802.52
2802.41
2802.32
2802.26
2802.25
2802.29
2802.37
2802.5
2802.64
2802.8
2802.99
2803.19
2803.39
2803.55
2803.67
2803.77
2803.87
2804
2804.13
2804.2
2804.22
2804.39
2804.76
2805.15
2805.28
2805.23
2805.24
2805.31
2805.43
2805.58
2805.76
2805.91
2805.95
2805.89
2805.85
2805.82
2805.75
2805.68
2805.61
2805.57
2805.59
2805.7
2805.89
2806.13
2806.47
2806.87
2807.21
2807.56
2807.79
2807.94
2807.9
2807.66
2807.36
2806.95
2806.44
2805.83
2805.18
2804.45
2803.55
2802.52
2801.41
2800.15
2798.8
2797.28
2795.86
2794.41
2793.02
2791.75
2790.36
2789.35
2788.47
2787.69
2785.87
2781.87
2769.57
2730.66
2803.4
2803.32
2802.65
2801.79
2800.78
2799.53
2797.77
2795.57
2792.71
2790.02
2788.37
2786.15
2785.74
2786.66
2788.24
2790.28
2792.47
2794.7
2796.21
2796.57
2797.64
2798.34
2798.72
2799.05
2799.25
2799.4
2799.57
2799.73
2799.89
2800.03
2800.13
2800.18
2800.23
2800.28
2800.39
2800.58
2800.87
2801.24
2801.67
2802.1
2802.48
2802.75
2802.87
2802.87
2802.81
2802.71
2802.59
2802.5
2802.45
2802.44
2802.48
2802.58
2802.69
2802.84
2802.98
2803.13
2803.3
2803.47
2803.63
2803.77
2803.89
2804
2804.14
2804.34
2804.55
2804.65
2804.66
2804.76
2805.03
2805.36
2805.58
2805.69
2805.78
2805.87
2805.95
2806.02
2806.1
2806.19
2806.21
2806.16
2806.11
2806.06
2805.99
2805.92
2805.88
2805.9
2806.01
2806.19
2806.42
2806.75
2807.14
2807.46
2807.79
2808.01
2808.14
2808.1
2807.86
2807.53
2807.1
2806.58
2805.95
2805.28
2804.53
2803.6
2802.55
2801.41
2800.11
2798.69
2797.14
2795.65
2794.15
2792.64
2791.27
2789.76
2788.62
2787.52
2786.3
2784.02
2779.22
2765.64
2725.95
2803.68
2803.54
2802.83
2801.97
2800.93
2799.68
2797.9
2795.68
2792.8
2790.18
2788.51
2786.38
2786
2786.89
2788.47
2790.49
2792.69
2794.93
2796.35
2796.78
2797.78
2798.47
2798.86
2799.18
2799.39
2799.54
2799.72
2799.88
2800.04
2800.18
2800.29
2800.35
2800.4
2800.46
2800.57
2800.76
2801.05
2801.43
2801.86
2802.29
2802.67
2802.93
2803.06
2803.06
2803
2802.9
2802.79
2802.7
2802.65
2802.64
2802.68
2802.78
2802.92
2803.07
2803.21
2803.35
2803.47
2803.59
2803.7
2803.83
2803.96
2804.08
2804.21
2804.39
2804.62
2804.84
2804.92
2804.9
2804.98
2805.23
2805.54
2805.79
2805.97
2806.14
2806.27
2806.35
2806.4
2806.46
2806.49
2806.48
2806.44
2806.38
2806.32
2806.26
2806.21
2806.23
2806.33
2806.5
2806.72
2807.03
2807.42
2807.73
2808.04
2808.24
2808.34
2808.31
2808.07
2807.7
2807.26
2806.72
2806.07
2805.38
2804.61
2803.65
2802.57
2801.39
2800.05
2798.57
2796.98
2795.42
2793.85
2792.25
2790.74
2789.13
2787.84
2786.48
2784.81
2782.14
2776.46
2761.63
2721.29
2803.97
2803.77
2803.02
2802.16
2801.08
2799.83
2798.03
2795.79
2792.91
2790.35
2788.66
2786.63
2786.28
2787.14
2788.72
2790.73
2792.93
2795.14
2796.49
2796.99
2797.92
2798.6
2799.01
2799.33
2799.53
2799.69
2799.87
2800.04
2800.2
2800.35
2800.45
2800.52
2800.58
2800.64
2800.76
2800.95
2801.24
2801.62
2802.06
2802.49
2802.87
2803.13
2803.25
2803.26
2803.21
2803.11
2803
2802.91
2802.86
2802.85
2802.89
2803
2803.15
2803.31
2803.48
2803.63
2803.74
2803.82
2803.89
2803.99
2804.12
2804.26
2804.39
2804.51
2804.69
2804.92
2805.15
2805.29
2805.35
2805.48
2805.69
2805.93
2806.14
2806.34
2806.52
2806.65
2806.74
2806.78
2806.8
2806.81
2806.78
2806.72
2806.67
2806.62
2806.58
2806.59
2806.68
2806.84
2807.05
2807.35
2807.72
2808.02
2808.3
2808.49
2808.56
2808.52
2808.29
2807.89
2807.42
2806.86
2806.2
2805.49
2804.68
2803.7
2802.59
2801.38
2799.99
2798.46
2796.83
2795.18
2793.56
2791.82
2790.2
2788.51
2786.99
2785.45
2783.26
2780.19
2773.59
2757.58
2716.75
2804.28
2804
2803.22
2802.36
2801.25
2799.99
2798.18
2795.91
2793.04
2790.54
2788.83
2786.9
2786.59
2787.43
2789.01
2791
2793.2
2795.36
2796.64
2797.19
2798.07
2798.74
2799.16
2799.47
2799.68
2799.85
2800.03
2800.2
2800.37
2800.51
2800.63
2800.7
2800.77
2800.84
2800.96
2801.16
2801.45
2801.83
2802.27
2802.7
2803.08
2803.33
2803.46
2803.48
2803.42
2803.33
2803.22
2803.13
2803.08
2803.07
2803.11
2803.21
2803.36
2803.54
2803.73
2803.91
2804.06
2804.16
2804.22
2804.3
2804.41
2804.55
2804.69
2804.82
2804.94
2805.12
2805.38
2805.65
2805.84
2805.96
2806.1
2806.27
2806.45
2806.63
2806.8
2806.95
2807.06
2807.12
2807.14
2807.15
2807.14
2807.09
2807.05
2807
2806.96
2806.97
2807.04
2807.19
2807.4
2807.68
2808.03
2808.32
2808.57
2808.74
2808.79
2808.72
2808.51
2808.08
2807.59
2807.01
2806.33
2805.6
2804.77
2803.76
2802.61
2801.36
2799.91
2798.31
2796.66
2794.92
2793.22
2791.36
2789.64
2787.83
2786.13
2784.28
2781.65
2778.16
2770.61
2753.47
2712.3
2804.61
2804.24
2803.42
2802.56
2801.42
2800.15
2798.33
2796.04
2793.19
2790.77
2789.03
2787.19
2786.91
2787.74
2789.32
2791.3
2793.5
2795.57
2796.8
2797.39
2798.23
2798.89
2799.31
2799.63
2799.84
2800.01
2800.19
2800.37
2800.54
2800.69
2800.81
2800.89
2800.96
2801.04
2801.17
2801.37
2801.66
2802.05
2802.49
2802.92
2803.29
2803.55
2803.68
2803.71
2803.65
2803.55
2803.45
2803.36
2803.31
2803.3
2803.34
2803.44
2803.58
2803.74
2803.95
2804.15
2804.33
2804.48
2804.59
2804.68
2804.77
2804.89
2805.04
2805.2
2805.34
2805.48
2805.65
2805.88
2806.1
2806.3
2806.47
2806.64
2806.81
2806.98
2807.14
2807.27
2807.38
2807.46
2807.5
2807.52
2807.52
2807.48
2807.44
2807.41
2807.38
2807.38
2807.45
2807.58
2807.78
2808.03
2808.36
2808.64
2808.86
2809.01
2809.04
2808.94
2808.74
2808.29
2807.76
2807.16
2806.47
2805.71
2804.84
2803.81
2802.62
2801.33
2799.83
2798.19
2796.49
2794.63
2792.9
2790.86
2789.07
2787.15
2785.16
2783.08
2780.01
2776.02
2767.55
2749.33
2708
2804.95
2804.48
2803.63
2802.77
2801.6
2800.32
2798.48
2796.16
2793.37
2791.03
2789.25
2787.52
2787.26
2788.08
2789.67
2791.63
2793.8
2795.79
2796.97
2797.59
2798.39
2799.05
2799.47
2799.78
2800
2800.18
2800.36
2800.54
2800.72
2800.87
2801
2801.09
2801.17
2801.25
2801.38
2801.59
2801.89
2802.28
2802.72
2803.15
2803.52
2803.77
2803.92
2803.95
2803.89
2803.79
2803.69
2803.61
2803.56
2803.55
2803.59
2803.68
2803.82
2803.98
2804.17
2804.36
2804.55
2804.72
2804.86
2804.98
2805.08
2805.18
2805.32
2805.5
2805.68
2805.84
2805.97
2806.12
2806.31
2806.53
2806.75
2806.95
2807.14
2807.32
2807.49
2807.63
2807.74
2807.83
2807.88
2807.91
2807.92
2807.9
2807.87
2807.84
2807.81
2807.81
2807.86
2807.98
2808.17
2808.41
2808.71
2808.98
2809.17
2809.3
2809.3
2809.17
2808.96
2808.51
2807.94
2807.33
2806.61
2805.82
2804.93
2803.86
2802.63
2801.29
2799.74
2798.03
2796.27
2794.35
2792.49
2790.38
2788.5
2786.36
2784.26
2781.75
2778.38
2773.77
2764.39
2745.17
2703.64
2805.32
2804.74
2803.84
2802.99
2801.78
2800.49
2798.64
2796.3
2793.58
2791.33
2789.51
2787.88
2787.65
2788.46
2790.04
2791.98
2794.12
2796.01
2797.14
2797.79
2798.57
2799.21
2799.64
2799.95
2800.17
2800.35
2800.54
2800.72
2800.9
2801.06
2801.2
2801.3
2801.38
2801.47
2801.61
2801.82
2802.13
2802.52
2802.96
2803.39
2803.76
2804.02
2804.17
2804.2
2804.14
2804.05
2803.95
2803.87
2803.82
2803.81
2803.85
2803.95
2804.09
2804.25
2804.41
2804.6
2804.77
2804.92
2805.06
2805.2
2805.32
2805.44
2805.57
2805.74
2805.93
2806.12
2806.29
2806.45
2806.62
2806.83
2807.06
2807.27
2807.48
2807.67
2807.85
2808
2808.12
2808.22
2808.28
2808.32
2808.34
2808.34
2808.32
2808.3
2808.27
2808.27
2808.33
2808.44
2808.59
2808.81
2809.08
2809.33
2809.49
2809.59
2809.57
2809.42
2809.19
2808.74
2808.14
2807.49
2806.75
2805.93
2805.01
2803.9
2802.63
2801.24
2799.64
2797.89
2796.06
2794.04
2792.1
2789.88
2787.86
2785.62
2783.24
2780.33
2776.68
2771.43
2761.18
2741.04
2699.48
2805.7
2805
2804.06
2803.22
2801.98
2800.67
2798.81
2796.44
2793.82
2791.66
2789.8
2788.28
2788.07
2788.87
2790.43
2792.35
2794.45
2796.23
2797.32
2797.98
2798.74
2799.38
2799.8
2800.11
2800.34
2800.53
2800.72
2800.9
2801.09
2801.26
2801.4
2801.51
2801.61
2801.7
2801.85
2802.07
2802.38
2802.78
2803.22
2803.65
2804.01
2804.28
2804.44
2804.47
2804.41
2804.32
2804.23
2804.15
2804.1
2804.09
2804.13
2804.24
2804.37
2804.54
2804.72
2804.91
2805.06
2805.18
2805.3
2805.43
2805.58
2805.72
2805.86
2806.01
2806.2
2806.4
2806.61
2806.82
2807.01
2807.21
2807.42
2807.64
2807.84
2808.04
2808.23
2808.39
2808.53
2808.63
2808.7
2808.76
2808.79
2808.8
2808.8
2808.78
2808.77
2808.77
2808.8
2808.89
2809.04
2809.23
2809.47
2809.7
2809.84
2809.91
2809.86
2809.68
2809.41
2808.96
2808.34
2807.66
2806.9
2806.05
2805.09
2803.95
2802.62
2801.19
2799.54
2797.69
2795.79
2793.77
2791.61
2789.37
2787.25
2784.76
2782.16
2778.95
2774.97
2769.03
2757.87
2736.82
2695.54
2806.1
2805.26
2804.29
2803.44
2802.19
2800.86
2798.98
2796.61
2794.1
2792.02
2790.13
2788.72
2788.53
2789.32
2790.86
2792.74
2794.78
2796.46
2797.5
2798.18
2798.93
2799.55
2799.97
2800.28
2800.51
2800.71
2800.9
2801.09
2801.28
2801.46
2801.62
2801.73
2801.84
2801.94
2802.1
2802.32
2802.65
2803.04
2803.49
2803.91
2804.28
2804.56
2804.72
2804.75
2804.7
2804.61
2804.52
2804.44
2804.39
2804.38
2804.43
2804.53
2804.67
2804.85
2805.04
2805.22
2805.38
2805.51
2805.63
2805.75
2805.89
2806.04
2806.2
2806.36
2806.54
2806.74
2806.95
2807.17
2807.38
2807.59
2807.81
2808.02
2808.23
2808.43
2808.62
2808.79
2808.94
2809.06
2809.15
2809.22
2809.27
2809.29
2809.29
2809.29
2809.28
2809.28
2809.33
2809.41
2809.52
2809.69
2809.89
2810.09
2810.2
2810.23
2810.16
2809.95
2809.65
2809.2
2808.56
2807.84
2807.04
2806.17
2805.17
2803.98
2802.6
2801.11
2799.41
2797.51
2795.55
2793.41
2791.16
2788.87
2786.55
2783.9
2781.03
2777.49
2773.15
2766.55
2754.59
2732.78
2691.44
2806.53
2805.53
2804.52
2803.68
2802.41
2801.06
2799.18
2796.79
2794.4
2792.4
2790.5
2789.22
2789.05
2789.82
2791.31
2793.16
2795.11
2796.7
2797.68
2798.38
2799.12
2799.72
2800.15
2800.46
2800.7
2800.89
2801.09
2801.28
2801.48
2801.67
2801.83
2801.96
2802.07
2802.19
2802.35
2802.59
2802.92
2803.32
2803.77
2804.19
2804.57
2804.85
2805.02
2805.05
2805
2804.91
2804.83
2804.75
2804.7
2804.69
2804.74
2804.83
2804.97
2805.14
2805.34
2805.54
2805.73
2805.9
2806.03
2806.15
2806.27
2806.42
2806.59
2806.77
2806.96
2807.13
2807.32
2807.53
2807.75
2807.97
2808.21
2808.42
2808.64
2808.84
2809.04
2809.22
2809.38
2809.51
2809.62
2809.7
2809.76
2809.8
2809.82
2809.83
2809.84
2809.84
2809.86
2809.92
2810.02
2810.16
2810.34
2810.5
2810.59
2810.58
2810.47
2810.23
2809.9
2809.42
2808.78
2808.03
2807.2
2806.28
2805.23
2804.01
2802.59
2801.03
2799.31
2797.31
2795.25
2793.07
2790.7
2788.3
2785.81
2783.03
2779.84
2776.06
2771.29
2764.01
2751.22
2728.94
2687.92
2806.97
2805.81
2804.76
2803.91
2802.64
2801.26
2799.38
2797.01
2794.73
2792.79
2790.92
2789.75
2789.6
2790.36
2791.81
2793.59
2795.45
2796.94
2797.88
2798.6
2799.32
2799.9
2800.33
2800.64
2800.88
2801.08
2801.28
2801.48
2801.69
2801.88
2802.05
2802.19
2802.31
2802.44
2802.62
2802.86
2803.2
2803.61
2804.06
2804.49
2804.88
2805.16
2805.32
2805.36
2805.31
2805.24
2805.15
2805.07
2805.03
2805.02
2805.07
2805.16
2805.29
2805.46
2805.66
2805.86
2806.03
2806.21
2806.37
2806.5
2806.63
2806.77
2806.94
2807.13
2807.33
2807.52
2807.72
2807.94
2808.15
2808.37
2808.61
2808.84
2809.06
2809.28
2809.48
2809.67
2809.84
2809.97
2810.1
2810.2
2810.28
2810.33
2810.37
2810.4
2810.42
2810.42
2810.45
2810.49
2810.56
2810.67
2810.8
2810.93
2810.99
2810.93
2810.8
2810.53
2810.17
2809.66
2809
2808.22
2807.35
2806.4
2805.31
2804.01
2802.56
2800.94
2799.16
2797.07
2795
2792.66
2790.21
2787.71
2785.05
2782.11
2778.6
2774.57
2769.35
2761.44
2747.89
2724.94
2684.04
2807.43
2806.09
2805
2804.15
2802.87
2801.47
2799.6
2797.26
2795.09
2793.19
2791.38
2790.31
2790.18
2790.94
2792.33
2794.04
2795.79
2797.18
2798.09
2798.82
2799.52
2800.09
2800.52
2800.83
2801.07
2801.28
2801.48
2801.68
2801.89
2802.1
2802.28
2802.43
2802.56
2802.7
2802.89
2803.15
2803.5
2803.92
2804.37
2804.81
2805.2
2805.49
2805.65
2805.69
2805.65
2805.58
2805.5
2805.42
2805.37
2805.37
2805.41
2805.5
2805.64
2805.82
2806
2806.19
2806.37
2806.54
2806.71
2806.87
2807.01
2807.16
2807.33
2807.52
2807.73
2807.94
2808.14
2808.34
2808.58
2808.82
2809.05
2809.29
2809.52
2809.74
2809.96
2810.16
2810.34
2810.48
2810.62
2810.73
2810.82
2810.9
2810.96
2810.99
2811.02
2811.04
2811.03
2811.06
2811.11
2811.2
2811.3
2811.39
2811.41
2811.32
2811.15
2810.84
2810.44
2809.88
2809.21
2808.42
2807.52
2806.52
2805.36
2804.03
2802.52
2800.85
2799.01
2796.84
2794.71
2792.23
2789.72
2787.09
2784.25
2781.15
2777.36
2773.07
2767.38
2758.84
2744.71
2721.31
2680.76
2807.91
2806.37
2805.25
2804.38
2803.12
2801.69
2799.84
2797.55
2795.48
2793.62
2791.88
2790.89
2790.79
2791.55
2792.88
2794.49
2796.13
2797.43
2798.31
2799.05
2799.73
2800.27
2800.7
2801.02
2801.26
2801.47
2801.67
2801.88
2802.1
2802.32
2802.51
2802.67
2802.81
2802.96
2803.16
2803.44
2803.8
2804.23
2804.7
2805.16
2805.55
2805.82
2805.98
2806.03
2806.01
2805.94
2805.86
2805.79
2805.74
2805.74
2805.78
2805.87
2806.01
2806.19
2806.38
2806.57
2806.75
2806.91
2807.06
2807.22
2807.37
2807.54
2807.72
2807.92
2808.12
2808.34
2808.57
2808.81
2809.09
2809.34
2809.55
2809.76
2809.98
2810.21
2810.43
2810.62
2810.8
2810.97
2811.13
2811.29
2811.4
2811.49
2811.56
2811.61
2811.64
2811.66
2811.69
2811.69
2811.72
2811.76
2811.82
2811.86
2811.84
2811.7
2811.49
2811.16
2810.72
2810.14
2809.43
2808.61
2807.67
2806.63
2805.42
2804.03
2802.48
2800.74
2798.85
2796.6
2794.39
2791.8
2789.2
2786.44
2783.44
2780.13
2776.08
2771.53
2765.36
2756.19
2741.39
2717.53
2677.57
2808.41
2806.65
2805.5
2804.62
2803.36
2801.9
2800.09
2797.86
2795.91
2794.08
2792.41
2791.5
2791.41
2792.19
2793.44
2794.96
2796.48
2797.69
2798.54
2799.27
2799.93
2800.47
2800.9
2801.21
2801.46
2801.66
2801.87
2802.09
2802.32
2802.54
2802.74
2802.92
2803.07
2803.24
2803.45
2803.74
2804.12
2804.57
2805.05
2805.51
2805.9
2806.17
2806.34
2806.4
2806.39
2806.33
2806.25
2806.18
2806.14
2806.13
2806.17
2806.26
2806.39
2806.57
2806.77
2806.97
2807.15
2807.32
2807.48
2807.63
2807.79
2807.97
2808.17
2808.38
2808.59
2808.81
2809.04
2809.26
2809.5
2809.76
2810.02
2810.26
2810.49
2810.72
2810.95
2811.16
2811.37
2811.6
2811.76
2811.86
2811.99
2812.11
2812.22
2812.25
2812.31
2812.34
2812.33
2812.32
2812.32
2812.34
2812.36
2812.36
2812.3
2812.12
2811.87
2811.49
2811.01
2810.39
2809.65
2808.8
2807.83
2806.72
2805.46
2804.03
2802.43
2800.63
2798.67
2796.34
2794.06
2791.35
2788.65
2785.75
2782.6
2779.08
2774.81
2769.95
2763.33
2753.62
2738.29
2714.14
2674.67
2808.92
2806.92
2805.75
2804.85
2803.6
2802.1
2800.34
2798.2
2796.36
2794.57
2792.98
2792.13
2792.06
2792.84
2794.01
2795.43
2796.84
2797.96
2798.78
2799.49
2800.14
2800.67
2801.09
2801.4
2801.65
2801.86
2802.07
2802.3
2802.53
2802.76
2802.98
2803.16
2803.34
2803.52
2803.76
2804.06
2804.46
2804.92
2805.41
2805.87
2806.26
2806.54
2806.71
2806.79
2806.78
2806.73
2806.66
2806.59
2806.55
2806.55
2806.58
2806.67
2806.81
2806.99
2807.18
2807.38
2807.57
2807.75
2807.91
2808.07
2808.24
2808.42
2808.61
2808.82
2809.04
2809.27
2809.52
2809.77
2810.02
2810.29
2810.56
2810.83
2811.09
2811.33
2811.55
2811.73
2811.9
2812.08
2812.28
2812.45
2812.61
2812.74
2812.84
2812.96
2812.98
2813.01
2813.03
2813.01
2812.98
2812.95
2812.93
2812.87
2812.76
2812.54
2812.24
2811.82
2811.31
2810.66
2809.88
2808.99
2807.97
2806.81
2805.51
2804.03
2802.37
2800.5
2798.47
2796.07
2793.69
2790.89
2788.08
2785.05
2781.74
2778
2773.53
2768.35
2761.26
2750.93
2735.09
2710.77
2672
2809.44
2807.18
2806.01
2805.08
2803.85
2802.3
2800.61
2798.56
2796.81
2795.06
2793.59
2792.82
2792.75
2793.49
2794.57
2795.91
2797.21
2798.23
2799.02
2799.72
2800.35
2800.87
2801.29
2801.6
2801.84
2802.05
2802.27
2802.5
2802.75
2802.99
2803.22
2803.42
2803.61
2803.81
2804.07
2804.4
2804.81
2805.28
2805.78
2806.24
2806.63
2806.92
2807.11
2807.2
2807.2
2807.16
2807.09
2807.03
2806.99
2806.98
2807.02
2807.11
2807.25
2807.42
2807.62
2807.81
2808
2808.18
2808.36
2808.52
2808.7
2808.89
2809.09
2809.3
2809.53
2809.77
2810.03
2810.29
2810.55
2810.8
2811.07
2811.32
2811.57
2811.81
2812.05
2812.27
2812.49
2812.7
2812.91
2813.11
2813.29
2813.45
2813.56
2813.63
2813.72
2813.75
2813.73
2813.69
2813.63
2813.58
2813.51
2813.42
2813.25
2812.98
2812.63
2812.17
2811.61
2810.92
2810.09
2809.16
2808.1
2806.91
2805.55
2804.02
2802.29
2800.36
2798.26
2795.78
2793.31
2790.42
2787.49
2784.34
2780.85
2776.91
2772.22
2766.72
2759.21
2748.42
2732.2
2707.7
2669.61
2809.97
2807.43
2806.26
2805.29
2804.08
2802.5
2800.9
2798.91
2797.26
2795.59
2794.24
2793.57
2793.52
2794.14
2795.15
2796.39
2797.57
2798.51
2799.27
2799.94
2800.56
2801.08
2801.49
2801.79
2802.03
2802.25
2802.47
2802.7
2802.96
2803.21
2803.45
2803.67
2803.89
2804.11
2804.39
2804.74
2805.17
2805.65
2806.15
2806.63
2807.03
2807.33
2807.53
2807.62
2807.64
2807.6
2807.55
2807.49
2807.45
2807.45
2807.48
2807.57
2807.71
2807.89
2808.08
2808.28
2808.47
2808.65
2808.83
2809.01
2809.19
2809.39
2809.6
2809.82
2810.06
2810.31
2810.57
2810.84
2811.1
2811.36
2811.63
2811.89
2812.15
2812.4
2812.64
2812.87
2813.1
2813.33
2813.55
2813.76
2813.94
2814.11
2814.25
2814.38
2814.46
2814.49
2814.48
2814.42
2814.33
2814.23
2814.12
2813.97
2813.74
2813.42
2813.02
2812.51
2811.91
2811.18
2810.32
2809.34
2808.24
2806.99
2805.59
2803.99
2802.19
2800.19
2798.01
2795.45
2792.89
2789.94
2786.9
2783.62
2779.95
2775.79
2770.91
2765.12
2757.16
2745.87
2729.31
2704.83
2667.54
2810.49
2807.66
2806.5
2805.48
2804.3