/*--------------------------------*- C++ -*----------------------------------*\
| =========                 |                                                 |
| \\      /  F ield         | OpenFOAM: The Open Source CFD Toolbox           |
|  \\    /   O peration     | Version:  2412                                  |
|   \\  /    A nd           | Website:  www.openfoam.com                      |
|    \\/     M anipulation  |                                                 |
\*---------------------------------------------------------------------------*/
FoamFile
{
    version     2.0;
    format      ascii;
    arch        "LSB;label=32;scalar=64";
    class       volVectorField;
    location    "0.063";
    object      U;
}
// * * * * * * * * * * * * * * * * * * * * * * * * * * * * * * * * * * * * * //

dimensions      [0 1 -1 0 0 0 0];

internalField   nonuniform List<vector> 
78650
(
(208.231 0.906638 0)
(208.658 0.519028 0)
(208.66 0.624958 0)
(209.047 0.548435 0)
(209.78 0.20536 0)
(210.486 -0.13798 0)
(210.611 -0.537371 0)
(210.266 -0.898304 0)
(209.494 -1.21509 0)
(208.435 -1.45598 0)
(207.317 -1.59673 0)
(206.445 -1.64086 0)
(206.029 -1.6567 0)
(205.881 -1.62588 0)
(205.914 -1.55345 0)
(206.028 -1.44546 0)
(206.232 -1.3132 0)
(206.475 -1.15714 0)
(206.767 -1.01069 0)
(207.114 -0.909733 0)
(207.529 -0.84355 0)
(208.014 -0.810042 0)
(208.553 -0.784515 0)
(209.115 -0.747316 0)
(209.669 -0.692505 0)
(210.196 -0.608079 0)
(210.691 -0.495287 0)
(211.161 -0.355966 0)
(211.613 -0.187914 0)
(212.046 0.0139074 0)
(212.461 0.253832 0)
(212.863 0.530978 0)
(213.254 0.844862 0)
(213.63 1.19659 0)
(213.992 1.5861 0)
(214.338 2.01239 0)
(214.667 2.47395 0)
(214.977 2.97001 0)
(215.269 3.49901 0)
(215.542 4.06076 0)
(215.796 4.65648 0)
(216.027 5.28766 0)
(216.238 5.95452 0)
(216.428 6.65668 0)
(216.598 7.39341 0)
(216.753 8.16421 0)
(216.888 8.96884 0)
(217.003 9.80728 0)
(217.104 10.6793 0)
(217.186 11.584 0)
(217.253 12.5212 0)
(217.304 13.4908 0)
(217.339 14.4925 0)
(217.359 15.5267 0)
(217.363 16.5933 0)
(217.354 17.6924 0)
(217.333 18.8242 0)
(217.3 19.9887 0)
(217.258 21.1868 0)
(217.208 22.4193 0)
(217.151 23.6866 0)
(217.089 24.9894 0)
(217.025 26.3284 0)
(216.963 27.7043 0)
(216.906 29.1175 0)
(216.855 30.569 0)
(216.814 32.0608 0)
(216.788 33.5945 0)
(216.78 35.1712 0)
(216.79 36.7915 0)
(216.832 38.4578 0)
(216.908 40.1705 0)
(217.019 41.9295 0)
(217.185 43.7365 0)
(217.408 45.5909 0)
(217.69 47.4932 0)
(218.056 49.4462 0)
(218.493 51.45 0)
(219.035 53.5057 0)
(219.67 55.6117 0)
(220.43 57.7672 0)
(221.323 59.9696 0)
(222.358 62.2166 0)
(223.565 64.5018 0)
(224.935 66.8211 0)
(226.528 69.1612 0)
(228.311 71.5185 0)
(230.368 73.8747 0)
(232.648 76.2408 0)
(235.237 78.5901 0)
(238.092 80.9121 0)
(241.302 83.1546 0)
(244.792 85.3786 0)
(248.754 87.4492 0)
(252.997 89.4768 0)
(257.769 91.17 0)
(262.924 92.7196 0)
(268.593 93.963 0)
(274.463 94.957 0)
(280.604 95.6772 0)
(286.638 96.2376 0)
(292.922 96.4216 0)
(299.435 96.2079 0)
(306.214 95.6174 0)
(313.524 94.6047 0)
(320.549 93.3261 0)
(328.195 91.5405 0)
(334.947 89.6896 0)
(341.907 87.5431 0)
(347.88 85.6512 0)
(353.831 83.4948 0)
(359.099 81.4377 0)
(363.83 79.4671 0)
(368.319 77.2483 0)
(371.606 74.9338 0)
(373.8 72.9113 0)
(376.096 70.6711 0)
(378.88 69.4311 0)
(383.511 68.3894 0)
(390.782 67.2114 0)
(393.418 70.7723 0)
(208.409 0.783441 0)
(208.672 0.522104 0)
(208.638 0.638234 0)
(208.959 0.627825 0)
(209.733 0.363207 0)
(210.552 0.0197128 0)
(211.103 -0.212012 0)
(211.179 -0.476403 0)
(210.756 -0.702057 0)
(209.847 -0.955732 0)
(208.652 -1.19443 0)
(207.508 -1.35303 0)
(206.677 -1.401 0)
(206.222 -1.37777 0)
(206.104 -1.35117 0)
(206.173 -1.28876 0)
(206.301 -1.17228 0)
(206.48 -1.03449 0)
(206.735 -0.896403 0)
(207.064 -0.788346 0)
(207.456 -0.717784 0)
(207.923 -0.687764 0)
(208.446 -0.665342 0)
(208.99 -0.635179 0)
(209.528 -0.582329 0)
(210.045 -0.498709 0)
(210.537 -0.390452 0)
(211.006 -0.256669 0)
(211.449 -0.0929777 0)
(211.866 0.105455 0)
(212.264 0.340388 0)
(212.648 0.610372 0)
(213.021 0.916283 0)
(213.379 1.26058 0)
(213.722 1.6427 0)
(214.049 2.06116 0)
(214.361 2.51442 0)
(214.653 3.00156 0)
(214.927 3.52081 0)
(215.182 4.07211 0)
(215.416 4.6568 0)
(215.627 5.2762 0)
(215.817 5.93051 0)
(215.986 6.61945 0)
(216.135 7.34233 0)
(216.267 8.09882 0)
(216.379 8.88862 0)
(216.471 9.71166 0)
(216.548 10.5678 0)
(216.606 11.4562 0)
(216.648 12.3767 0)
(216.673 13.329 0)
(216.682 14.3128 0)
(216.674 15.3287 0)
(216.651 16.3762 0)
(216.613 17.4559 0)
(216.561 18.5676 0)
(216.497 19.7117 0)
(216.421 20.8884 0)
(216.336 22.0993 0)
(216.242 23.3443 0)
(216.14 24.6244 0)
(216.034 25.9402 0)
(215.927 27.2926 0)
(215.821 28.6823 0)
(215.717 30.1095 0)
(215.621 31.5765 0)
(215.535 33.0853 0)
(215.462 34.637 0)
(215.402 36.2319 0)
(215.368 37.8733 0)
(215.361 39.5615 0)
(215.381 41.2967 0)
(215.449 43.0816 0)
(215.564 44.9155 0)
(215.729 46.7991 0)
(215.969 48.7356 0)
(216.268 50.7252 0)
(216.661 52.771 0)
(217.134 54.8721 0)
(217.718 57.0293 0)
(218.42 59.2402 0)
(219.249 61.5026 0)
(220.236 63.8133 0)
(221.374 66.1712 0)
(222.717 68.5693 0)
(224.236 71.0071 0)
(226.011 73.4719 0)
(227.996 75.9619 0)
(230.277 78.4448 0)
(232.816 80.9124 0)
(235.69 83.3335 0)
(238.839 85.727 0)
(242.394 87.986 0)
(246.154 90.2172 0)
(250.431 92.2024 0)
(254.92 94.1854 0)
(259.986 95.8736 0)
(265.526 97.3908 0)
(271.451 98.5105 0)
(277.721 99.3934 0)
(284.171 99.9545 0)
(290.619 100.349 0)
(297.362 100.362 0)
(304.061 100.153 0)
(310.762 99.5985 0)
(317.82 98.5893 0)
(324.501 97.3434 0)
(331.589 95.5553 0)
(337.873 93.8385 0)
(344.517 91.6086 0)
(350.346 89.5606 0)
(356.237 87.4148 0)
(361.865 85.3262 0)
(367.06 82.9474 0)
(370.882 80.6217 0)
(373.663 77.9076 0)
(375.648 75.991 0)
(379.672 74.618 0)
(387.876 73.1432 0)
(391.111 77.5307 0)
(208.611 0.666037 0)
(208.683 0.521109 0)
(208.586 0.627796 0)
(208.816 0.665163 0)
(209.541 0.481526 0)
(210.495 0.194752 0)
(211.204 -0.0706938 0)
(211.628 -0.147773 0)
(211.632 -0.289123 0)
(211.134 -0.408664 0)
(210.118 -0.597935 0)
(208.811 -0.793828 0)
(207.635 -0.917577 0)
(206.941 -1.04129 0)
(206.592 -1.10306 0)
(206.44 -1.06787 0)
(206.428 -0.991331 0)
(206.544 -0.879685 0)
(206.741 -0.761272 0)
(207.013 -0.659545 0)
(207.384 -0.58787 0)
(207.837 -0.565681 0)
(208.34 -0.547939 0)
(208.859 -0.52773 0)
(209.373 -0.478706 0)
(209.877 -0.403188 0)
(210.365 -0.304292 0)
(210.831 -0.176819 0)
(211.264 -0.0172616 0)
(211.669 0.176975 0)
(212.054 0.404804 0)
(212.424 0.665584 0)
(212.779 0.962046 0)
(213.117 1.29748 0)
(213.441 1.67094 0)
(213.751 2.08094 0)
(214.045 2.52579 0)
(214.321 3.00408 0)
(214.578 3.51411 0)
(214.815 4.05609 0)
(215.031 4.63122 0)
(215.223 5.2405 0)
(215.394 5.88409 0)
(215.543 6.56177 0)
(215.67 7.27291 0)
(215.78 8.01722 0)
(215.868 8.79428 0)
(215.937 9.60398 0)
(215.99 10.4463 0)
(216.023 11.3204 0)
(216.04 12.2262 0)
(216.039 13.1634 0)
(216.02 14.1315 0)
(215.985 15.1314 0)
(215.932 16.1622 0)
(215.864 17.2248 0)
(215.781 18.3192 0)
(215.684 19.4457 0)
(215.574 20.604 0)
(215.452 21.7961 0)
(215.32 23.0218 0)
(215.178 24.2822 0)
(215.029 25.5777 0)
(214.876 26.909 0)
(214.72 28.278 0)
(214.565 29.6834 0)
(214.413 31.1281 0)
(214.268 32.614 0)
(214.131 34.1428 0)
(214.003 35.714 0)
(213.895 37.3313 0)
(213.808 38.9953 0)
(213.743 40.7062 0)
(213.718 42.467 0)
(213.731 44.277 0)
(213.788 46.1369 0)
(213.909 48.0503 0)
(214.082 50.0169 0)
(214.338 52.0407 0)
(214.661 54.1209 0)
(215.084 56.2592 0)
(215.609 58.4538 0)
(216.247 60.7037 0)
(217.026 63.0083 0)
(217.937 65.3663 0)
(219.03 67.7732 0)
(220.276 70.2259 0)
(221.754 72.7139 0)
(223.418 75.2332 0)
(225.353 77.7656 0)
(227.525 80.31 0)
(230.003 82.8479 0)
(232.745 85.3824 0)
(235.868 87.8512 0)
(239.251 90.3098 0)
(243.159 92.5977 0)
(247.26 94.8941 0)
(251.939 96.8542 0)
(256.861 98.7378 0)
(262.315 100.318 0)
(268.287 101.76 0)
(274.539 102.772 0)
(281.41 103.497 0)
(288.112 103.804 0)
(295.443 103.809 0)
(302.173 103.577 0)
(309.43 103.015 0)
(316.153 102.314 0)
(323.425 101.043 0)
(329.985 99.7307 0)
(337.24 97.7889 0)
(343.807 95.8027 0)
(350.152 93.733 0)
(356.469 91.4613 0)
(361.617 89.1746 0)
(365.477 86.8914 0)
(368.201 84.5111 0)
(370.705 82.9326 0)
(375.707 81.49 0)
(384.953 80.0004 0)
(388.595 85.0426 0)
(208.873 0.569998 0)
(208.688 0.486695 0)
(208.525 0.574981 0)
(208.669 0.663221 0)
(209.282 0.567794 0)
(210.264 0.327724 0)
(211.139 0.0860467 0)
(211.725 -0.0125403 0)
(212.016 0.0113471 0)
(211.962 -0.017703 0)
(211.436 -0.0665458 0)
(210.386 -0.197898 0)
(209.112 -0.372191 0)
(208.006 -0.545927 0)
(207.242 -0.667534 0)
(206.882 -0.734602 0)
(206.761 -0.727311 0)
(206.768 -0.670207 0)
(206.841 -0.573346 0)
(207.027 -0.49633 0)
(207.352 -0.443673 0)
(207.791 -0.417814 0)
(208.274 -0.402378 0)
(208.766 -0.383109 0)
(209.256 -0.340164 0)
(209.742 -0.278956 0)
(210.218 -0.192326 0)
(210.671 -0.0723784 0)
(211.091 0.0829242 0)
(211.484 0.273201 0)
(211.858 0.494966 0)
(212.214 0.748527 0)
(212.549 1.0372 0)
(212.865 1.36376 0)
(213.166 1.72776 0)
(213.454 2.12839 0)
(213.729 2.56376 0)
(213.986 3.03173 0)
(214.224 3.53106 0)
(214.442 4.06214 0)
(214.637 4.62569 0)
(214.81 5.22237 0)
(214.96 5.85249 0)
(215.088 6.51602 0)
(215.194 7.21245 0)
(215.281 7.94165 0)
(215.346 8.70297 0)
(215.392 9.49634 0)
(215.421 10.3219 0)
(215.431 11.1788 0)
(215.423 12.0669 0)
(215.396 12.986 0)
(215.352 13.9352 0)
(215.289 14.9163 0)
(215.21 15.9272 0)
(215.113 16.9696 0)
(215.001 18.0431 0)
(214.873 19.1483 0)
(214.732 20.2838 0)
(214.576 21.4535 0)
(214.408 22.6562 0)
(214.229 23.8928 0)
(214.041 25.1639 0)
(213.846 26.47 0)
(213.644 27.8148 0)
(213.441 29.1937 0)
(213.238 30.6115 0)
(213.037 32.0697 0)
(212.839 33.571 0)
(212.648 35.114 0)
(212.471 36.7028 0)
(212.307 38.3384 0)
(212.161 40.0206 0)
(212.047 41.7534 0)
(211.961 43.536 0)
(211.912 45.3693 0)
(211.917 47.2577 0)
(211.965 49.2005 0)
(212.085 51.203 0)
(212.26 53.2645 0)
(212.521 55.3888 0)
(212.87 57.575 0)
(213.317 59.8232 0)
(213.889 62.1335 0)
(214.577 64.5046 0)
(215.432 66.9344 0)
(216.425 69.4204 0)
(217.635 71.9577 0)
(219.014 74.543 0)
(220.646 77.1654 0)
(222.499 79.8228 0)
(224.641 82.4954 0)
(227.048 85.1718 0)
(229.81 87.8067 0)
(232.833 90.4364 0)
(236.316 92.9623 0)
(240.001 95.4865 0)
(244.267 97.7022 0)
(248.658 99.9229 0)
(253.643 101.836 0)
(258.948 103.64 0)
(264.663 105.148 0)
(270.939 106.494 0)
(277.254 107.46 0)
(284.467 108.212 0)
(291.578 108.315 0)
(299.483 107.991 0)
(306.923 107.324 0)
(314.981 106.208 0)
(322.392 104.816 0)
(329.674 103.322 0)
(337.107 101.394 0)
(343.593 99.7158 0)
(350.676 97.437 0)
(356.423 95.3934 0)
(361.335 92.9449 0)
(364.587 90.4345 0)
(367.156 88.3075 0)
(371.784 86.8414 0)
(381.054 85.5464 0)
(384.349 91.3744 0)
(209.129 0.461665 0)
(208.706 0.421279 0)
(208.481 0.542483 0)
(208.555 0.667363 0)
(208.996 0.61643 0)
(209.915 0.415529 0)
(210.908 0.203775 0)
(211.658 0.128952 0)
(212.091 0.134836 0)
(212.261 0.223911 0)
(212.18 0.296133 0)
(211.648 0.316874 0)
(210.615 0.259919 0)
(209.425 0.0889888 0)
(208.436 -0.128018 0)
(207.76 -0.297669 0)
(207.321 -0.363669 0)
(207.081 -0.352937 0)
(207.051 -0.329125 0)
(207.156 -0.287257 0)
(207.391 -0.274297 0)
(207.747 -0.259832 0)
(208.184 -0.247715 0)
(208.66 -0.229883 0)
(209.144 -0.198774 0)
(209.62 -0.151818 0)
(210.076 -0.0830747 0)
(210.501 0.0202222 0)
(210.897 0.163206 0)
(211.276 0.343785 0)
(211.64 0.557544 0)
(211.985 0.804619 0)
(212.304 1.08626 0)
(212.603 1.40357 0)
(212.882 1.75685 0)
(213.148 2.14615 0)
(213.403 2.57017 0)
(213.641 3.02676 0)
(213.86 3.51542 0)
(214.058 4.03625 0)
(214.235 4.58904 0)
(214.388 5.17411 0)
(214.519 5.79202 0)
(214.626 6.44291 0)
(214.71 7.12639 0)
(214.775 7.84232 0)
(214.816 8.58974 0)
(214.839 9.36862 0)
(214.844 10.1792 0)
(214.828 11.0206 0)
(214.794 11.8925 0)
(214.74 12.7959 0)
(214.67 13.7279 0)
(214.579 14.6917 0)
(214.471 15.6835 0)
(214.345 16.7076 0)
(214.202 17.7624 0)
(214.042 18.8476 0)
(213.866 19.9646 0)
(213.676 21.1132 0)
(213.472 22.2945 0)
(213.254 23.5091 0)
(213.025 24.7581 0)
(212.785 26.0424 0)
(212.539 27.3614 0)
(212.286 28.7173 0)
(212.031 30.1107 0)
(211.775 31.5433 0)
(211.516 33.02 0)
(211.262 34.5357 0)
(211.017 36.0959 0)
(210.779 37.7032 0)
(210.555 39.3567 0)
(210.355 41.0606 0)
(210.177 42.8149 0)
(210.029 44.6188 0)
(209.926 46.4778 0)
(209.858 48.3905 0)
(209.852 50.3629 0)
(209.891 52.3941 0)
(210.007 54.4891 0)
(210.195 56.6468 0)
(210.469 58.8681 0)
(210.852 61.1539 0)
(211.336 63.503 0)
(211.967 65.9172 0)
(212.717 68.395 0)
(213.658 70.9361 0)
(214.742 73.536 0)
(216.054 76.1885 0)
(217.565 78.8888 0)
(219.34 81.6226 0)
(221.359 84.3878 0)
(223.701 87.1711 0)
(226.307 89.9892 0)
(229.341 92.7609 0)
(232.617 95.5325 0)
(236.49 98.1247 0)
(240.549 100.779 0)
(245.273 103.091 0)
(250.184 105.385 0)
(255.653 107.324 0)
(261.437 109.049 0)
(267.677 110.494 0)
(274.04 111.655 0)
(280.85 112.528 0)
(287.986 113.019 0)
(295.083 113.172 0)
(302.751 112.936 0)
(310.497 112.128 0)
(317.586 111.176 0)
(325.509 109.751 0)
(332.361 108.341 0)
(339.723 106.416 0)
(346.162 104.457 0)
(351.69 102.078 0)
(355.822 99.4037 0)
(359.219 97.3114 0)
(364.762 95.616 0)
(374.928 93.966 0)
(378.761 99.4072 0)
(209.347 0.334948 0)
(208.796 0.363735 0)
(208.467 0.540569 0)
(208.476 0.639968 0)
(208.739 0.632585 0)
(209.518 0.488497 0)
(210.547 0.293739 0)
(211.447 0.24219 0)
(212.022 0.243305 0)
(212.287 0.333108 0)
(212.378 0.469398 0)
(212.287 0.612347 0)
(211.754 0.71918 0)
(210.847 0.693443 0)
(209.823 0.534993 0)
(208.906 0.336608 0)
(208.21 0.171492 0)
(207.797 0.0614254 0)
(207.592 0.00353365 0)
(207.55 -0.0259048 0)
(207.61 -0.0221323 0)
(207.807 -0.0346212 0)
(208.158 -0.0488545 0)
(208.604 -0.0450936 0)
(209.082 -0.0260272 0)
(209.551 0.0114889 0)
(209.988 0.0745532 0)
(210.385 0.169504 0)
(210.751 0.298021 0)
(211.103 0.45708 0)
(211.442 0.652706 0)
(211.766 0.888529 0)
(212.067 1.16273 0)
(212.347 1.47322 0)
(212.607 1.81834 0)
(212.849 2.19721 0)
(213.079 2.60883 0)
(213.294 3.05235 0)
(213.49 3.52857 0)
(213.665 4.03722 0)
(213.82 4.57693 0)
(213.953 5.14783 0)
(214.063 5.75082 0)
(214.148 6.38616 0)
(214.21 7.05373 0)
(214.251 7.75331 0)
(214.269 8.48371 0)
(214.269 9.24483 0)
(214.25 10.037 0)
(214.209 10.8603 0)
(214.15 11.7127 0)
(214.07 12.5967 0)
(213.975 13.5063 0)
(213.857 14.4497 0)
(213.721 15.4223 0)
(213.567 16.4242 0)
(213.396 17.4561 0)
(213.206 18.5182 0)
(213 19.6109 0)
(212.778 20.735 0)
(212.539 21.8913 0)
(212.286 23.0804 0)
(212.019 24.3029 0)
(211.74 25.5597 0)
(211.451 26.8519 0)
(211.152 28.1795 0)
(210.849 29.5443 0)
(210.54 30.9482 0)
(210.228 32.3915 0)
(209.915 33.8767 0)
(209.607 35.4052 0)
(209.298 36.9817 0)
(209 38.6027 0)
(208.719 40.2713 0)
(208.45 41.9931 0)
(208.208 43.7638 0)
(207.998 45.591 0)
(207.817 47.4725 0)
(207.687 49.4146 0)
(207.592 51.4165 0)
(207.563 53.4847 0)
(207.591 55.6186 0)
(207.692 57.8205 0)
(207.884 60.0927 0)
(208.165 62.4343 0)
(208.574 64.849 0)
(209.086 67.3343 0)
(209.77 69.8914 0)
(210.581 72.5137 0)
(211.604 75.2012 0)
(212.806 77.9521 0)
(214.249 80.7594 0)
(215.916 83.6177 0)
(217.875 86.5087 0)
(220.083 89.4255 0)
(222.666 92.3144 0)
(225.487 95.2101 0)
(228.834 98.0278 0)
(232.364 100.919 0)
(236.594 103.577 0)
(240.982 106.281 0)
(246.081 108.638 0)
(251.537 110.969 0)
(257.545 112.902 0)
(264.054 114.54 0)
(270.687 115.785 0)
(277.899 116.877 0)
(284.976 117.538 0)
(292.115 117.923 0)
(300.032 117.847 0)
(307.476 117.405 0)
(315.238 116.548 0)
(323.223 115.279 0)
(330.649 113.832 0)
(338.147 112.14 0)
(344.95 109.878 0)
(349.646 107.268 0)
(353.127 104.755 0)
(358.132 103.238 0)
(369.318 101.455 0)
(373.061 108.185 0)
(209.535 0.220655 0)
(208.933 0.31171 0)
(208.488 0.51715 0)
(208.428 0.602253 0)
(208.539 0.642707 0)
(209.147 0.564024 0)
(210.119 0.373119 0)
(211.083 0.306437 0)
(211.807 0.326558 0)
(212.218 0.411739 0)
(212.355 0.553242 0)
(212.403 0.725696 0)
(212.244 0.921995 0)
(211.771 1.07969 0)
(211.064 1.10767 0)
(210.257 0.992457 0)
(209.468 0.811629 0)
(208.767 0.654192 0)
(208.237 0.527966 0)
(207.942 0.42609 0)
(207.906 0.337 0)
(208.005 0.269073 0)
(208.25 0.196577 0)
(208.615 0.157854 0)
(209.035 0.152844 0)
(209.459 0.173235 0)
(209.863 0.22549 0)
(210.246 0.31253 0)
(210.611 0.429017 0)
(210.951 0.568089 0)
(211.26 0.74017 0)
(211.546 0.952007 0)
(211.817 1.20832 0)
(212.075 1.50743 0)
(212.317 1.84377 0)
(212.541 2.21295 0)
(212.751 2.6125 0)
(212.942 3.04277 0)
(213.113 3.50565 0)
(213.265 4.00114 0)
(213.4 4.52749 0)
(213.512 5.08477 0)
(213.602 5.67377 0)
(213.666 6.29471 0)
(213.705 6.9477 0)
(213.722 7.6324 0)
(213.717 8.34739 0)
(213.693 9.09265 0)
(213.649 9.86849 0)
(213.581 10.6751 0)
(213.498 11.5074 0)
(213.391 12.3735 0)
(213.266 13.2688 0)
(213.121 14.1919 0)
(212.958 15.144 0)
(212.775 16.1255 0)
(212.572 17.1366 0)
(212.351 18.1774 0)
(212.112 19.2485 0)
(211.855 20.3502 0)
(211.581 21.4835 0)
(211.291 22.6487 0)
(210.985 23.8469 0)
(210.664 25.0787 0)
(210.331 26.3449 0)
(209.987 27.6461 0)
(209.633 28.9835 0)
(209.273 30.3586 0)
(208.905 31.7735 0)
(208.533 33.2294 0)
(208.159 34.7287 0)
(207.786 36.2711 0)
(207.418 37.8588 0)
(207.059 39.4936 0)
(206.701 41.1861 0)
(206.37 42.9194 0)
(206.06 44.7097 0)
(205.774 46.5547 0)
(205.531 48.4596 0)
(205.313 50.4241 0)
(205.153 52.4539 0)
(205.037 54.5488 0)
(204.983 56.7116 0)
(205.005 58.9457 0)
(205.102 61.25 0)
(205.309 63.6295 0)
(205.603 66.0816 0)
(206.047 68.6121 0)
(206.597 71.2166 0)
(207.333 73.9017 0)
(208.219 76.6626 0)
(209.317 79.4933 0)
(210.615 82.3892 0)
(212.178 85.3419 0)
(213.98 88.3453 0)
(216.129 91.3722 0)
(218.532 94.4451 0)
(221.41 97.5045 0)
(224.495 100.6 0)
(228.212 103.524 0)
(232.041 106.509 0)
(236.614 109.203 0)
(241.32 111.932 0)
(246.727 114.34 0)
(252.603 116.643 0)
(258.986 118.523 0)
(265.944 120.251 0)
(273.506 121.516 0)
(280.953 122.131 0)
(289.045 122.575 0)
(297.431 122.479 0)
(305.196 122.086 0)
(314.101 121.1 0)
(321.887 120.101 0)
(330.371 118.472 0)
(337.644 116.459 0)
(343.081 113.895 0)
(347.464 111.205 0)
(353.079 109.419 0)
(364.423 108.023 0)
(368.223 115.191 0)
(209.692 0.133532 0)
(209.102 0.25303 0)
(208.551 0.47085 0)
(208.394 0.575712 0)
(208.399 0.653717 0)
(208.832 0.62468 0)
(209.693 0.442796 0)
(210.637 0.348594 0)
(211.44 0.359131 0)
(211.999 0.460395 0)
(212.274 0.615191 0)
(212.357 0.773882 0)
(212.311 0.991745 0)
(212.09 1.21392 0)
(211.734 1.41208 0)
(211.268 1.50308 0)
(210.67 1.46341 0)
(209.999 1.33644 0)
(209.358 1.16746 0)
(208.888 0.984191 0)
(208.659 0.806558 0)
(208.625 0.639189 0)
(208.68 0.531385 0)
(208.849 0.444851 0)
(209.114 0.406497 0)
(209.445 0.401888 0)
(209.806 0.433202 0)
(210.172 0.499194 0)
(210.525 0.594679 0)
(210.851 0.722887 0)
(211.138 0.88743 0)
(211.385 1.08139 0)
(211.611 1.31349 0)
(211.828 1.58793 0)
(212.041 1.90621 0)
(212.242 2.26225 0)
(212.428 2.65091 0)
(212.592 3.06991 0)
(212.736 3.5193 0)
(212.863 3.99931 0)
(212.972 4.50932 0)
(213.061 5.05004 0)
(213.128 5.62213 0)
(213.168 6.2258 0)
(213.183 6.86118 0)
(213.176 7.52759 0)
(213.147 8.22445 0)
(213.098 8.95059 0)
(213.03 9.70475 0)
(212.939 10.4893 0)
(212.826 11.3057 0)
(212.694 12.1493 0)
(212.544 13.021 0)
(212.373 13.9213 0)
(212.182 14.8505 0)
(211.971 15.8084 0)
(211.74 16.7953 0)
(211.49 17.8111 0)
(211.221 18.8564 0)
(210.933 19.9317 0)
(210.626 21.0377 0)
(210.302 22.1751 0)
(209.96 23.3447 0)
(209.602 24.5471 0)
(209.229 25.7833 0)
(208.842 27.0539 0)
(208.444 28.3599 0)
(208.034 29.7028 0)
(207.616 31.084 0)
(207.19 32.5052 0)
(206.758 33.9683 0)
(206.321 35.4753 0)
(205.884 37.0278 0)
(205.447 38.6285 0)
(205.019 40.2749 0)
(204.602 41.9719 0)
(204.193 43.7264 0)
(203.804 45.5332 0)
(203.448 47.3967 0)
(203.109 49.3225 0)
(202.821 51.3143 0)
(202.561 53.3738 0)
(202.353 55.5023 0)
(202.204 57.7056 0)
(202.116 59.9821 0)
(202.121 62.3387 0)
(202.199 64.7725 0)
(202.408 67.2925 0)
(202.704 69.8921 0)
(203.167 72.5792 0)
(203.76 75.3459 0)
(204.546 78.1931 0)
(205.512 81.1187 0)
(206.717 84.1176 0)
(208.143 87.1841 0)
(209.877 90.3092 0)
(211.851 93.5065 0)
(214.238 96.7293 0)
(216.846 99.9875 0)
(220.028 103.166 0)
(223.36 106.419 0)
(227.448 109.485 0)
(231.656 112.621 0)
(236.636 115.399 0)
(241.849 118.182 0)
(247.697 120.663 0)
(253.956 122.854 0)
(260.79 124.836 0)
(268.104 126.451 0)
(275.19 127.616 0)
(283.77 128.501 0)
(291.083 128.778 0)
(299.938 128.605 0)
(307.684 128.387 0)
(316.627 127.48 0)
(324.28 126.044 0)
(330.522 123.884 0)
(335.627 121.516 0)
(341.606 119.93 0)
(353.786 118.241 0)
(357.28 125.883 0)
(209.814 0.0730895 0)
(209.29 0.18791 0)
(208.659 0.410888 0)
(208.376 0.558399 0)
(208.299 0.643766 0)
(208.568 0.655991 0)
(209.304 0.508768 0)
(210.193 0.399299 0)
(210.995 0.380692 0)
(211.641 0.471304 0)
(212.067 0.619835 0)
(212.238 0.819209 0)
(212.253 1.01254 0)
(212.105 1.25015 0)
(211.882 1.49569 0)
(211.667 1.71989 0)
(211.415 1.88051 0)
(211.024 1.93368 0)
(210.501 1.8564 0)
(209.951 1.68966 0)
(209.504 1.46983 0)
(209.232 1.23769 0)
(209.125 1.03111 0)
(209.139 0.870476 0)
(209.269 0.745049 0)
(209.511 0.68176 0)
(209.814 0.659634 0)
(210.137 0.687603 0)
(210.449 0.755814 0)
(210.733 0.864483 0)
(210.985 1.01148 0)
(211.218 1.19698 0)
(211.431 1.41354 0)
(211.616 1.65618 0)
(211.786 1.94172 0)
(211.947 2.27256 0)
(212.099 2.64595 0)
(212.238 3.05342 0)
(212.36 3.49028 0)
(212.465 3.9554 0)
(212.55 4.44952 0)
(212.614 4.97392 0)
(212.657 5.52933 0)
(212.673 6.11618 0)
(212.664 6.73475 0)
(212.633 7.3842 0)
(212.579 8.06338 0)
(212.509 8.76801 0)
(212.411 9.50748 0)
(212.293 10.2747 0)
(212.155 11.0698 0)
(211.997 11.8934 0)
(211.819 12.7452 0)
(211.62 13.625 0)
(211.401 14.5328 0)
(211.16 15.4687 0)
(210.899 16.4329 0)
(210.618 17.4256 0)
(210.317 18.4471 0)
(209.995 19.498 0)
(209.654 20.5789 0)
(209.294 21.6905 0)
(208.914 22.8335 0)
(208.517 24.0086 0)
(208.102 25.2166 0)
(207.671 26.4582 0)
(207.227 27.7344 0)
(206.769 29.0462 0)
(206.299 30.3956 0)
(205.818 31.7841 0)
(205.327 33.2135 0)
(204.828 34.685 0)
(204.324 36.2007 0)
(203.818 37.7621 0)
(203.312 39.3724 0)
(202.808 41.0329 0)
(202.315 42.7433 0)
(201.837 44.5057 0)
(201.376 46.327 0)
(200.921 48.2119 0)
(200.516 50.1531 0)
(200.124 52.1649 0)
(199.782 54.2435 0)
(199.481 56.3976 0)
(199.231 58.6241 0)
(199.057 60.9311 0)
(198.941 63.3154 0)
(198.936 65.7881 0)
(198.999 68.3423 0)
(199.208 70.9912 0)
(199.521 73.728 0)
(200 76.56 0)
(200.632 79.4853 0)
(201.471 82.5042 0)
(202.505 85.6152 0)
(203.807 88.8174 0)
(205.331 92.1072 0)
(207.222 95.4472 0)
(209.341 98.8387 0)
(211.982 102.237 0)
(214.813 105.721 0)
(218.342 109.117 0)
(222.007 112.6 0)
(226.509 115.839 0)
(231.203 119.143 0)
(236.676 122.114 0)
(242.575 124.97 0)
(248.981 127.392 0)
(256.102 129.764 0)
(263.234 131.385 0)
(271.272 132.82 0)
(279.492 133.792 0)
(287.452 134.414 0)
(296.67 134.637 0)
(305.113 134.403 0)
(314.444 133.328 0)
(321.414 131.742 0)
(327.393 129.335 0)
(333.439 128.027 0)
(346.504 126.721 0)
(349.567 136.177 0)
(209.899 0.0354015 0)
(209.48 0.125945 0)
(208.81 0.3386 0)
(208.377 0.527033 0)
(208.226 0.603025 0)
(208.362 0.663157 0)
(208.96 0.578074 0)
(209.782 0.459841 0)
(210.545 0.399652 0)
(211.209 0.464619 0)
(211.736 0.606967 0)
(212.03 0.803143 0)
(212.114 1.02317 0)
(212.044 1.25274 0)
(211.848 1.50771 0)
(211.661 1.77027 0)
(211.549 2.01087 0)
(211.442 2.19513 0)
(211.237 2.31195 0)
(210.927 2.30298 0)
(210.572 2.15384 0)
(210.254 1.92045 0)
(210.031 1.65922 0)
(209.91 1.41552 0)
(209.898 1.20889 0)
(209.961 1.07311 0)
(210.1 0.97965 0)
(210.288 0.960289 0)
(210.487 0.994749 0)
(210.69 1.07407 0)
(210.9 1.19802 0)
(211.109 1.35742 0)
(211.301 1.55097 0)
(211.472 1.78586 0)
(211.598 2.04924 0)
(211.699 2.34981 0)
(211.793 2.69512 0)
(211.895 3.08182 0)
(211.991 3.50154 0)
(212.069 3.95086 0)
(212.127 4.42834 0)
(212.162 4.93435 0)
(212.177 5.47004 0)
(212.166 6.03707 0)
(212.132 6.63541 0)
(212.076 7.26268 0)
(211.998 7.91908 0)
(211.897 8.60813 0)
(211.774 9.32396 0)
(211.632 10.0683 0)
(211.468 10.8409 0)
(211.284 11.6414 0)
(211.079 12.4694 0)
(210.853 13.3247 0)
(210.607 14.2075 0)
(210.339 15.1177 0)
(210.05 16.0557 0)
(209.74 17.0216 0)
(209.41 18.0156 0)
(209.058 19.0381 0)
(208.686 20.0899 0)
(208.293 21.1715 0)
(207.879 22.2837 0)
(207.446 23.4271 0)
(206.994 24.6026 0)
(206.524 25.8109 0)
(206.038 27.0529 0)
(205.536 28.3297 0)
(205.019 29.6428 0)
(204.488 30.9938 0)
(203.944 32.3845 0)
(203.388 33.8166 0)
(202.823 35.2919 0)
(202.25 36.812 0)
(201.673 38.3788 0)
(201.093 39.9941 0)
(200.516 41.6609 0)
(199.944 43.3814 0)
(199.38 45.158 0)
(198.833 46.9891 0)
(198.312 48.8837 0)
(197.78 50.8565 0)
(197.306 52.8833 0)
(196.851 54.99 0)
(196.44 57.1714 0)
(196.085 59.4365 0)
(195.776 61.7813 0)
(195.56 64.2174 0)
(195.395 66.7378 0)
(195.359 69.3585 0)
(195.405 72.0701 0)
(195.597 74.883 0)
(195.918 77.7945 0)
(196.42 80.8082 0)
(197.091 83.9214 0)
(197.996 87.1333 0)
(199.101 90.4348 0)
(200.531 93.8116 0)
(202.179 97.2719 0)
(204.286 100.802 0)
(206.588 104.427 0)
(209.512 108.038 0)
(212.58 111.743 0)
(216.445 115.331 0)
(220.454 119.008 0)
(225.324 122.394 0)
(230.461 125.816 0)
(236.378 128.953 0)
(242.778 131.931 0)
(250.037 134.568 0)
(257.347 136.506 0)
(266.096 138.511 0)
(273.993 139.59 0)
(283.717 140.467 0)
(292.145 140.865 0)
(302.336 140.593 0)
(310.353 139.582 0)
(317.389 137.437 0)
(323.922 135.834 0)
(337.033 134.401 0)
(340.145 143.206 0)
(209.952 0.014816 0)
(209.652 0.0741831 0)
(209.002 0.261921 0)
(208.433 0.47545 0)
(208.168 0.557737 0)
(208.217 0.665725 0)
(208.655 0.630371 0)
(209.391 0.506039 0)
(210.12 0.416105 0)
(210.772 0.468189 0)
(211.341 0.601749 0)
(211.745 0.7853 0)
(211.897 1.01725 0)
(211.91 1.23795 0)
(211.772 1.50776 0)
(211.589 1.7928 0)
(211.483 2.04095 0)
(211.408 2.2598 0)
(211.358 2.46288 0)
(211.331 2.59218 0)
(211.244 2.61323 0)
(211.099 2.52157 0)
(210.916 2.32025 0)
(210.724 2.075 0)
(210.556 1.82035 0)
(210.442 1.59645 0)
(210.407 1.42018 0)
(210.432 1.31266 0)
(210.543 1.27146 0)
(210.699 1.30272 0)
(210.863 1.38376 0)
(211.031 1.50886 0)
(211.187 1.67495 0)
(211.314 1.88061 0)
(211.412 2.13146 0)
(211.486 2.41896 0)
(211.537 2.72668 0)
(211.587 3.07632 0)
(211.641 3.46733 0)
(211.685 3.89802 0)
(211.714 4.36021 0)
(211.725 4.84994 0)
(211.713 5.3681 0)
(211.675 5.9155 0)
(211.619 6.48933 0)
(211.535 7.09877 0)
(211.429 7.73723 0)
(211.301 8.40392 0)
(211.153 9.09929 0)
(210.983 9.82281 0)
(210.793 10.5741 0)
(210.581 11.3527 0)
(210.349 12.1583 0)
(210.095 12.9907 0)
(209.821 13.85 0)
(209.524 14.7364 0)
(209.205 15.6499 0)
(208.865 16.5906 0)
(208.503 17.5589 0)
(208.119 18.555 0)
(207.714 19.5796 0)
(207.286 20.6333 0)
(206.837 21.7168 0)
(206.367 22.8306 0)
(205.876 23.9757 0)
(205.365 25.1526 0)
(204.835 26.3623 0)
(204.287 27.6057 0)
(203.723 28.8843 0)
(203.141 30.1996 0)
(202.543 31.5533 0)
(201.93 32.9471 0)
(201.305 34.3826 0)
(200.667 35.8613 0)
(200.021 37.3856 0)
(199.367 38.957 0)
(198.71 40.5779 0)
(198.053 42.25 0)
(197.399 43.9766 0)
(196.753 45.7611 0)
(196.114 47.6078 0)
(195.491 49.5121 0)
(194.893 51.486 0)
(194.295 53.5383 0)
(193.743 55.6577 0)
(193.229 57.8573 0)
(192.75 60.1383 0)
(192.347 62.5103 0)
(191.979 64.9677 0)
(191.722 67.5277 0)
(191.52 70.1804 0)
(191.442 72.9419 0)
(191.465 75.8093 0)
(191.64 78.7901 0)
(191.957 81.8821 0)
(192.475 85.0889 0)
(193.175 88.406 0)
(194.157 91.8374 0)
(195.341 95.3884 0)
(196.924 99.0488 0)
(198.702 102.807 0)
(201.032 106.607 0)
(203.517 110.505 0)
(206.724 114.38 0)
(210.07 118.346 0)
(214.306 122.134 0)
(218.735 125.994 0)
(224.012 129.598 0)
(229.672 133.21 0)
(235.994 136.45 0)
(243.009 139.394 0)
(250.529 141.94 0)
(258.77 144.255 0)
(267.187 145.957 0)
(276.099 147.564 0)
(285.997 148.438 0)
(294.254 148.395 0)
(301.692 146.882 0)
(308.157 145.872 0)
(322.042 144.505 0)
(324.582 154.533 0)
(209.98 0.00520409 0)
(209.79 0.0373629 0)
(209.216 0.183204 0)
(208.539 0.404468 0)
(208.133 0.539448 0)
(208.118 0.632298 0)
(208.389 0.640414 0)
(209.013 0.538218 0)
(209.723 0.447786 0)
(210.365 0.496074 0)
(210.937 0.619557 0)
(211.4 0.781528 0)
(211.641 0.990479 0)
(211.692 1.22818 0)
(211.641 1.48105 0)
(211.467 1.77807 0)
(211.36 2.05856 0)
(211.302 2.30531 0)
(211.29 2.50306 0)
(211.283 2.67477 0)
(211.356 2.788 0)
(211.459 2.8103 0)
(211.502 2.76168 0)
(211.48 2.62889 0)
(211.384 2.43161 0)
(211.242 2.2081 0)
(211.107 1.98575 0)
(211.014 1.80724 0)
(210.976 1.68275 0)
(211.006 1.64197 0)
(211.05 1.66052 0)
(211.096 1.74038 0)
(211.157 1.8683 0)
(211.22 2.04376 0)
(211.277 2.26544 0)
(211.32 2.52584 0)
(211.353 2.82691 0)
(211.35 3.14313 0)
(211.335 3.50056 0)
(211.319 3.90049 0)
(211.309 4.33805 0)
(211.29 4.80666 0)
(211.248 5.3037 0)
(211.188 5.82289 0)
(211.098 6.3804 0)
(210.984 6.96593 0)
(210.849 7.58053 0)
(210.694 8.22396 0)
(210.517 8.89561 0)
(210.32 9.59511 0)
(210.102 10.322 0)
(209.864 11.0758 0)
(209.604 11.856 0)
(209.324 12.6625 0)
(209.022 13.4953 0)
(208.698 14.3544 0)
(208.352 15.24 0)
(207.984 16.1522 0)
(207.593 17.0911 0)
(207.18 18.0571 0)
(206.745 19.0507 0)
(206.287 20.0725 0)
(205.806 21.1232 0)
(205.303 22.2033 0)
(204.777 23.3137 0)
(204.23 24.455 0)
(203.661 25.6281 0)
(203.073 26.8339 0)
(202.466 28.0736 0)
(201.839 29.3488 0)
(201.193 30.6611 0)
(200.529 32.0121 0)
(199.849 33.4036 0)
(199.153 34.8369 0)
(198.443 36.3143 0)
(197.722 37.8375 0)
(196.991 39.4088 0)
(196.254 41.0303 0)
(195.514 42.7046 0)
(194.773 44.4346 0)
(194.035 46.2241 0)
(193.302 48.0769 0)
(192.574 49.9972 0)
(191.861 51.9838 0)
(191.172 54.045 0)
(190.496 56.1877 0)
(189.844 58.4142 0)
(189.255 60.7238 0)
(188.685 63.1237 0)
(188.213 65.6278 0)
(187.773 68.2263 0)
(187.444 70.9349 0)
(187.19 73.7501 0)
(187.066 76.6818 0)
(187.059 79.7299 0)
(187.22 82.9034 0)
(187.536 86.2017 0)
(188.083 89.6359 0)
(188.804 93.2027 0)
(189.86 96.8974 0)
(191.099 100.703 0)
(192.826 104.614 0)
(194.724 108.653 0)
(197.286 112.756 0)
(200.017 116.963 0)
(203.589 121.122 0)
(207.363 125.416 0)
(212.066 129.546 0)
(217.081 133.724 0)
(222.976 137.635 0)
(229.43 141.39 0)
(236.617 144.628 0)
(244.8 147.858 0)
(253.136 150.15 0)
(262.921 152.463 0)
(272.836 153.934 0)
(282.394 154.42 0)
(291.253 153.493 0)
(298.448 153.15 0)