/*--------------------------------*- C++ -*----------------------------------*\
| =========                 |                                                 |
| \\      /  F ield         | OpenFOAM: The Open Source CFD Toolbox           |
|  \\    /   O peration     | Version:  2412                                  |
|   \\  /    A nd           | Website:  www.openfoam.com                      |
|    \\/     M anipulation  |                                                 |
\*---------------------------------------------------------------------------*/
FoamFile
{
    version     2.0;
    format      ascii;
    arch        "LSB;label=32;scalar=64";
    class       volVectorField;
    location    "0.023";
    object      U;
}
// * * * * * * * * * * * * * * * * * * * * * * * * * * * * * * * * * * * * * //

dimensions      [0 1 -1 0 0 0 0];

internalField   nonuniform List<vector> 
9771
(
(275.674 45.643 0)
(253.443 -5.00261 0)
(236.142 -7.30854 0)
(228.248 -8.2118 0)
(225.271 -8.48504 0)
(223.425 -8.35783 0)
(221.867 -8.08257 0)
(220.466 -7.63798 0)
(219.085 -7.15824 0)
(217.557 -6.90825 0)
(276.154 45.648 0)
(253.564 -5.03715 0)
(236.18 -7.33405 0)
(228.267 -8.23182 0)
(225.284 -8.50285 0)
(223.437 -8.37465 0)
(221.879 -8.09928 0)
(220.479 -7.6552 0)
(219.098 -7.17774 0)
(217.568 -6.93244 0)
(276.67 45.6545 0)
(253.647 -5.09763 0)
(236.212 -7.36354 0)
(228.288 -8.25 0)
(225.299 -8.51993 0)
(223.449 -8.39111 0)
(221.892 -8.11568 0)
(220.493 -7.67213 0)
(219.112 -7.19695 0)
(217.58 -6.95629 0)
(277.211 45.652 0)
(253.758 -5.12878 0)
(236.249 -7.38782 0)
(228.306 -8.26954 0)
(225.311 -8.53733 0)
(223.461 -8.40756 0)
(221.904 -8.13204 0)
(220.505 -7.68903 0)
(219.125 -7.21614 0)
(217.592 -6.98014 0)
(277.808 45.6376 0)
(253.828 -5.19034 0)
(236.28 -7.41729 0)
(228.327 -8.28733 0)
(225.326 -8.55426 0)
(223.473 -8.42395 0)
(221.917 -8.14842 0)
(220.519 -7.706 0)
(219.139 -7.23544 0)
(217.604 -7.00421 0)
(278.426 45.6182 0)
(253.931 -5.22508 0)
(236.318 -7.44062 0)
(228.345 -8.30685 0)
(225.338 -8.57173 0)
(223.485 -8.44054 0)
(221.929 -8.16496 0)
(220.532 -7.72314 0)
(219.152 -7.25497 0)
(217.617 -7.02861 0)
(279.111 45.5903 0)
(253.99 -5.28393 0)
(236.348 -7.47072 0)
(228.367 -8.32452 0)
(225.353 -8.58879 0)
(223.498 -8.45712 0)
(221.942 -8.18158 0)
(220.546 -7.7404 0)
(219.166 -7.27467 0)
(217.63 -7.05332 0)
(215.762 -7.32952 0)
(213.646 -7.94389 0)
(211.765 -8.36357 0)
(210.19 -8.2621 0)
(209.088 -7.85778 0)
(208.101 -7.41366 0)
(207.22 -7.0888 0)
(206.399 -6.90637 0)
(205.749 -6.79661 0)
(205.275 -6.68529 0)
(204.947 -6.57539 0)
(204.704 -6.52475 0)
(204.477 -6.57807 0)
(204.216 -6.73553 0)
(203.956 -6.98123 0)
(203.722 -7.24555 0)
(203.495 -7.49964 0)
(203.255 -7.75777 0)
(202.992 -8.03255 0)
(202.716 -8.3231 0)
(202.43 -8.61553 0)
(202.141 -8.91012 0)
(279.814 45.5575 0)
(254.077 -5.32524 0)
(236.386 -7.49299 0)
(228.384 -8.34407 0)
(225.366 -8.60635 0)
(223.509 -8.47387 0)
(221.954 -8.19833 0)
(220.559 -7.75781 0)
(219.179 -7.29453 0)
(217.643 -7.0783 0)
(215.772 -7.36064 0)
(213.659 -7.97847 0)
(211.782 -8.39677 0)
(210.208 -8.29162 0)
(209.107 -7.88492 0)
(208.121 -7.44053 0)
(207.241 -7.11518 0)
(206.422 -6.93053 0)
(205.77 -6.81613 0)
(205.294 -6.70108 0)
(204.965 -6.58876 0)
(204.722 -6.53687 0)
(204.494 -6.58935 0)
(204.233 -6.74637 0)
(203.974 -6.99153 0)
(203.741 -7.25595 0)
(203.515 -7.51118 0)
(203.278 -7.771 0)
(203.017 -8.04758 0)
(202.743 -8.33972 0)
(202.46 -8.63368 0)
(202.173 -8.92978 0)
(201.879 -9.22947 0)
(201.586 -9.53536 0)
(201.288 -9.84011 0)
(200.988 -10.1462 0)
(200.678 -10.4526 0)
(200.368 -10.7662 0)
(280.633 45.4998 0)
(254.124 -5.38202 0)
(236.415 -7.52399 0)
(228.406 -8.36166 0)
(225.381 -8.62354 0)
(223.522 -8.49061 0)
(221.967 -8.21511 0)
(220.573 -7.77529 0)
(219.193 -7.3145 0)
(217.656 -7.10352 0)
(215.78 -7.3921 0)
(213.667 -8.01345 0)
(211.794 -8.43026 0)
(210.222 -8.32167 0)
(209.123 -7.91248 0)
(208.138 -7.46794 0)
(207.259 -7.14234 0)
(206.441 -6.95581 0)
(205.789 -6.83697 0)
(205.313 -6.71787 0)
(204.983 -6.60275 0)
(204.74 -6.54915 0)
(204.51 -6.60107 0)
(204.249 -6.75767 0)
(203.992 -7.00228 0)
(203.761 -7.26632 0)
(203.536 -7.52235 0)
(203.3 -7.784 0)
(203.041 -8.06281 0)
(202.77 -8.35693 0)
(202.489 -8.6527 0)
(202.205 -8.95051 0)
(201.914 -9.25194 0)
(201.624 -9.55949 0)
(201.329 -9.86611 0)
(201.032 -10.1743 0)
(200.725 -10.4831 0)
(200.419 -10.7987 0)
(200.106 -11.1135 0)
(281.424 45.3899 0)
(254.195 -5.42961 0)
(236.454 -7.5447 0)
(228.423 -8.38159 0)
(225.393 -8.6415 0)
(223.534 -8.50755 0)
(221.98 -8.23198 0)
(220.586 -7.79287 0)
(219.206 -7.33457 0)
(217.669 -7.12893 0)
(215.789 -7.42368 0)
(213.679 -8.04816 0)
(211.811 -8.46357 0)
(210.242 -8.35161 0)
(209.143 -7.93997 0)
(208.159 -7.49517 0)
(207.281 -7.16908 0)
(206.464 -6.98038 0)
(205.811 -6.85696 0)
(205.333 -6.73409 0)
(205.002 -6.61651 0)
(204.758 -6.56168 0)
(204.528 -6.61267 0)
(204.266 -6.7687 0)
(204.01 -7.01268 0)
(203.78 -7.27686 0)
(203.558 -7.534 0)
(203.323 -7.79729 0)
(203.067 -8.07785 0)
(202.798 -8.37354 0)
(202.52 -8.67085 0)
(202.238 -8.97014 0)
(201.95 -9.27304 0)
(201.663 -9.58206 0)
(201.371 -9.8904 0)
(201.078 -10.2005 0)
(200.775 -10.5112 0)
(200.472 -10.8285 0)
(200.163 -11.1452 0)
(282.182 45.4509 0)
(254.192 -5.61042 0)
(236.478 -7.58229 0)
(228.446 -8.39747 0)
(225.409 -8.65647 0)
(223.547 -8.52338 0)
(221.993 -8.24845 0)
(220.6 -7.80988 0)
(219.219 -7.35382 0)
(217.682 -7.15296 0)
(215.797 -7.45457 0)
(213.687 -8.08476 0)
(211.822 -8.49877 0)
(210.256 -8.38366 0)
(209.158 -7.96878 0)
(208.175 -7.52345 0)
(207.298 -7.19723 0)
(206.483 -7.00659 0)
(205.83 -6.87839 0)
(205.353 -6.75117 0)
(205.021 -6.63051 0)
(204.776 -6.57385 0)
(204.545 -6.62469 0)
(204.284 -6.78021 0)
(204.029 -7.02351 0)
(203.801 -7.28713 0)
(203.579 -7.54505 0)
(203.346 -7.81019 0)
(203.092 -8.09301 0)
(202.825 -8.39071 0)
(202.55 -8.68987 0)
(202.271 -8.99094 0)
(201.986 -9.29562 0)
(201.702 -9.6063 0)
(201.413 -9.91653 0)
(201.123 -10.2288 0)
(200.823 -10.542 0)
(200.524 -10.8611 0)
(200.219 -11.1792 0)
(280.309 35.0577 0)
(253.72 -8.56051 0)
(237.375 -8.49911 0)
(229.05 -8.99906 0)
(225.778 -9.1608 0)
(223.837 -8.95081 0)
(222.255 -8.63246 0)
(220.841 -8.17654 0)
(219.427 -7.74686 0)
(217.858 -7.62479 0)
(215.932 -8.01492 0)
(213.864 -8.66936 0)
(212.025 -9.0188 0)
(210.532 -8.84043 0)
(209.44 -8.37462 0)
(208.461 -7.90918 0)
(207.593 -7.5654 0)
(206.787 -7.33621 0)
(206.133 -7.14868 0)
(205.636 -6.96918 0)
(205.28 -6.81051 0)
(205.012 -6.73118 0)
(204.775 -6.77091 0)
(204.511 -6.92125 0)
(204.26 -7.1552 0)
(204.038 -7.41471 0)
(203.825 -7.68045 0)
(203.604 -7.96111 0)
(203.368 -8.26148 0)
(203.124 -8.57453 0)
(202.873 -8.88809 0)
(202.62 -9.20304 0)
(202.364 -9.52177 0)
(202.108 -9.84609 0)
(201.85 -10.1713 0)
(201.59 -10.5001 0)
(201.322 -10.8328 0)
(201.054 -11.1711 0)
(200.78 -11.5083 0)
(200.51 -11.8522 0)
(200.236 -12.2031 0)
(199.967 -12.5669 0)
(199.691 -12.93 0)
(199.414 -13.2913 0)
(199.127 -13.6484 0)
(198.84 -14.0108 0)
(198.548 -14.3786 0)
(198.26 -14.7554 0)
(197.968 -15.1327 0)
(197.678 -15.5139 0)
(197.387 -15.8978 0)
(197.092 -16.2835 0)
(196.798 -16.6742 0)
(196.499 -17.067 0)
(196.205 -17.4661 0)
(195.911 -17.8686 0)
(195.623 -18.2774 0)
(195.337 -18.6909 0)
(195.056 -19.1107 0)
(194.778 -19.5353 0)
(194.507 -19.9652 0)
(194.242 -20.3988 0)
(193.988 -20.8362 0)
(193.745 -21.2765 0)
(193.515 -21.7194 0)
(193.299 -22.1637 0)
(193.098 -22.6085 0)
(192.911 -23.0535 0)
(192.739 -23.4985 0)
(192.582 -23.9438 0)
(192.439 -24.3886 0)
(192.313 -24.8325 0)
(192.2 -25.2743 0)
(192.105 -25.7143 0)
(192.023 -26.151 0)
(191.957 -26.5834 0)
(191.906 -27.0098 0)
(191.863 -27.43 0)
(191.859 -27.845 0)
(259.303 22.0908 0)
(248.695 -11.865 0)
(238.28 -10.066 0)
(230.122 -10.2099 0)
(226.394 -10.2161 0)
(224.328 -9.80825 0)
(222.716 -9.38397 0)
(221.28 -8.8962 0)
(219.824 -8.52637 0)
(218.164 -8.57281 0)
(216.154 -9.12277 0)
(214.117 -9.77478 0)
(212.333 -9.99044 0)
(210.949 -9.69634 0)
(209.884 -9.14512 0)
(208.924 -8.64949 0)
(208.066 -8.27451 0)
(207.279 -7.97893 0)
(206.622 -7.69555 0)
(206.123 -7.41599 0)
(205.734 -7.1867 0)
(205.435 -7.06668 0)
(205.192 -7.07692 0)
(204.937 -7.20037 0)
(204.704 -7.3988 0)
(204.504 -7.64118 0)
(204.313 -7.91588 0)
(204.118 -8.22088 0)
(203.919 -8.5494 0)
(203.718 -8.88787 0)
(203.515 -9.22559 0)
(203.313 -9.56329 0)
(203.112 -9.90407 0)
(202.913 -10.2497 0)
(202.714 -10.5977 0)
(202.516 -10.9502 0)
(202.314 -11.3099 0)
(202.111 -11.6775 0)
(201.904 -12.046 0)
(201.701 -12.4151 0)
(201.497 -12.7883 0)
(201.303 -13.1749 0)
(201.113 -13.5695 0)
(200.931 -13.9679 0)
(200.749 -14.3638 0)
(200.572 -14.7602 0)
(200.396 -15.1574 0)
(200.228 -15.5581 0)
(200.064 -15.9616 0)
(199.913 -16.37 0)
(199.766 -16.7785 0)
(199.631 -17.1888 0)
(199.505 -17.5986 0)
(199.391 -18.0087 0)
(199.29 -18.4196 0)
(199.2 -18.8313 0)
(199.125 -19.2451 0)
(199.059 -19.6599 0)
(199.012 -20.0762 0)
(198.975 -20.4913 0)
(198.943 -20.9073 0)
(198.927 -21.3134 0)
(198.929 -21.7155 0)
(198.944 -22.1127 0)
(198.976 -22.5046 0)
(199.022 -22.8903 0)
(199.083 -23.2684 0)
(199.157 -23.6384 0)
(199.243 -24.001 0)
(199.341 -24.3561 0)
(199.45 -24.7031 0)
(199.568 -25.0409 0)
(199.698 -25.368 0)
(199.832 -25.6854 0)
(199.979 -25.9902 0)
(200.124 -26.286 0)
(200.286 -26.5664 0)
(200.444 -26.838 0)
(200.617 -27.0949 0)
(247.53 9.52127 0)
(245.8 -15.0767 0)
(238.902 -11.6346 0)
(230.975 -11.5004 0)
(226.865 -11.3017 0)
(224.719 -10.677 0)
(223.08 -10.1351 0)
(221.608 -9.61807 0)
(220.105 -9.31839 0)
(218.352 -9.54347 0)
(216.319 -10.2276 0)
(214.369 -10.8306 0)
(212.687 -10.9019 0)
(211.455 -10.5119 0)
(210.421 -9.90482 0)
(209.478 -9.38753 0)
(208.63 -8.98009 0)
(207.869 -8.62277 0)
(207.205 -8.2592 0)
(206.686 -7.89455 0)
(206.254 -7.60062 0)
(205.919 -7.4253 0)
(205.652 -7.4029 0)
(205.417 -7.48611 0)
(205.201 -7.63992 0)
(205.017 -7.85645 0)
(204.846 -8.12766 0)
(204.678 -8.44295 0)
(204.517 -8.78668 0)
(204.362 -9.14136 0)
(204.211 -9.49673 0)
(204.064 -9.85159 0)
(203.92 -10.2083 0)
(203.782 -10.5692 0)
(203.646 -10.9332 0)
(203.512 -11.3012 0)
(203.377 -11.676 0)
(203.245 -12.0598 0)
(203.113 -12.4475 0)
(202.987 -12.8335 0)
(202.863 -13.2166 0)
(202.75 -13.6036 0)
(202.644 -13.9972 0)
(202.553 -14.3982 0)
(202.469 -14.8004 0)
(202.397 -15.2019 0)
(202.33 -15.6003 0)
(202.275 -15.9964 0)
(202.227 -16.3915 0)
(202.198 -16.7863 0)
(202.171 -17.1836 0)
(202.158 -17.5727 0)
(202.158 -17.9558 0)
(202.173 -18.3329 0)
(202.198 -18.7045 0)
(202.237 -19.0716 0)
(202.288 -19.4344 0)
(202.347 -19.7929 0)
(202.425 -20.1461 0)
(202.51 -20.4921 0)
(202.594 -20.8299 0)
(202.692 -21.1574 0)
(202.802 -21.4745 0)
(202.92 -21.7813 0)
(203.048 -22.0777 0)
(203.182 -22.3632 0)
(203.323 -22.6366 0)
(203.466 -22.899 0)
(203.615 -23.148 0)
(203.759 -23.3876 0)
(203.912 -23.6128 0)
(204.054 -23.8296 0)
(204.205 -24.031 0)
(204.343 -24.2247 0)
(204.487 -24.4039 0)
(204.619 -24.5754 0)
(204.754 -24.7353 0)
(204.888 -24.8851 0)
(205.012 -25.0271 0)
(238.832 -0.676468 0)
(242.717 -17.87 0)
(238.548 -13.116 0)
(231.499 -12.7768 0)
(227.239 -12.3704 0)
(225.044 -11.5571 0)
(223.381 -10.8939 0)
(221.862 -10.3515 0)
(220.304 -10.1398 0)
(218.462 -10.5293 0)
(216.447 -11.3046 0)
(214.605 -11.8236 0)
(213.03 -11.7514 0)
(211.922 -11.2757 0)
(210.915 -10.6479 0)
(209.982 -10.1184 0)
(209.147 -9.67691 0)
(208.429 -9.26167 0)
(207.78 -8.82874 0)
(207.255 -8.39896 0)
(206.801 -8.04833 0)
(206.446 -7.81599 0)
(206.144 -7.73676 0)
(205.926 -7.77374 0)
(205.732 -7.88377 0)
(205.566 -8.06731 0)
(205.415 -8.32066 0)
(205.276 -8.62944 0)
(205.154 -8.97347 0)
(205.044 -9.33358 0)
(204.943 -9.69875 0)
(204.849 -10.0644 0)
(204.762 -10.4303 0)
(204.681 -10.7988 0)
(204.606 -11.1706 0)
(204.535 -11.5455 0)
(204.465 -11.9241 0)
(204.401 -12.3086 0)
(204.342 -12.6977 0)
(204.292 -13.0851 0)
(204.248 -13.4665 0)
(204.212 -13.8441 0)
(204.185 -14.2243 0)
(204.17 -14.6054 0)
(204.164 -14.9879 0)
(204.174 -15.3692 0)
(204.192 -15.7447 0)
(204.222 -16.1134 0)
(204.261 -16.4776 0)
(204.317 -16.838 0)
(204.376 -17.1939 0)
(204.444 -17.5417 0)
(204.523 -17.8794 0)
(204.614 -18.2065 0)
(204.711 -18.524 0)
(204.818 -18.8318 0)
(204.932 -19.1305 0)
(205.052 -19.4199 0)
(205.18 -19.6994 0)
(205.313 -19.9672 0)
(205.438 -20.2243 0)
(205.565 -20.4692 0)
(205.7 -20.7012 0)
(205.833 -20.9225 0)
(205.971 -21.1308 0)
(206.103 -21.33 0)
(206.24 -21.5161 0)
(206.368 -21.694 0)
(206.499 -21.8601 0)
(206.624 -22.0177 0)
(206.746 -22.1664 0)
(206.868 -22.3056 0)
(206.98 -22.4395 0)
(207.098 -22.5621 0)
(207.199 -22.6838 0)
(207.317 -22.7927 0)
(207.414 -22.9046 0)
(207.531 -23.0029 0)
(207.628 -23.1058 0)
(232.611 -8.58232 0)
(239.792 -20.4452 0)
(237.697 -14.7995 0)
(231.826 -13.9632 0)
(227.534 -13.3944 0)
(225.291 -12.4376 0)
(223.619 -11.6595 0)
(222.054 -11.1012 0)
(220.433 -10.9949 0)
(218.519 -11.5246 0)
(216.56 -12.3324 0)
(214.826 -12.7439 0)
(213.409 -12.5452 0)
(212.382 -11.9927 0)
(211.408 -11.3705 0)
(210.493 -10.8371 0)
(209.681 -10.3617 0)
(209.006 -9.89332 0)
(208.368 -9.40012 0)
(207.838 -8.91925 0)
(207.372 -8.51896 0)
(207.002 -8.23569 0)
(206.676 -8.08309 0)
(206.459 -8.06049 0)
(206.289 -8.12524 0)
(206.145 -8.2736 0)
(206.016 -8.49941 0)
(205.906 -8.78619 0)
(205.821 -9.11449 0)
(205.753 -9.46679 0)
(205.699 -9.83101 0)
(205.654 -10.1986 0)
(205.619 -10.5658 0)
(205.591 -10.934 0)
(205.571 -11.3049 0)
(205.558 -11.6786 0)
(205.549 -12.0534 0)
(205.546 -12.4292 0)
(205.552 -12.8051 0)
(205.567 -13.1838 0)
(205.589 -13.5527 0)
(205.621 -13.915 0)
(205.661 -14.2706 0)
(205.709 -14.622 0)
(205.762 -14.9719 0)
(205.828 -15.3178 0)
(205.903 -15.6561 0)
(205.988 -15.985 0)
(206.08 -16.306 0)
(206.185 -16.6192 0)
(206.292 -16.9249 0)
(206.401 -17.2211 0)
(206.517 -17.5061 0)
(206.641 -17.7793 0)
(206.765 -18.0416 0)
(206.895 -18.2923 0)
(207.027 -18.5323 0)
(207.161 -18.7612 0)
(207.295 -18.9794 0)
(207.43 -19.1858 0)
(207.557 -19.3815 0)
(207.675 -19.5679 0)
(207.802 -19.743 0)
(207.924 -19.9105 0)
(208.047 -20.0694 0)
(208.171 -20.2202 0)
(208.288 -20.3661 0)
(208.414 -20.5017 0)
(208.524 -20.6372 0)
(208.65 -20.7593 0)
(208.753 -20.8857 0)
(208.879 -20.9962 0)
(208.978 -21.1149 0)
(209.103 -21.2162 0)
(209.203 -21.3285 0)
(209.33 -21.4235 0)
(209.439 -21.5299 0)
(209.568 -21.6202 0)
(209.681 -21.7206 0)
(227.843 -14.4253 0)
(236.915 -22.508 0)
(236.563 -16.6176 0)
(231.889 -15.0773 0)
(227.719 -14.363 0)
(225.454 -13.3001 0)
(223.793 -12.4276 0)
(222.19 -11.8698 0)
(220.501 -11.8807 0)
(218.55 -12.5193 0)
(216.667 -13.2976 0)
(215.037 -13.5927 0)
(213.786 -13.2848 0)
(212.815 -12.6736 0)
(211.874 -12.0673 0)
(210.989 -11.5353 0)
(210.206 -11.0297 0)
(209.569 -10.5138 0)
(208.943 -9.96852 0)
(208.417 -9.4472 0)
(207.952 -9.00485 0)
(207.575 -8.67452 0)
(207.25 -8.44525 0)
(207.017 -8.34124 0)
(206.86 -8.36088 0)
(206.743 -8.46953 0)
(206.64 -8.65761 0)
(206.558 -8.90869 0)
(206.505 -9.20724 0)
(206.474 -9.53988 0)
(206.46 -9.89279 0)
(206.461 -10.2545 0)
(206.472 -10.6223 0)
(206.491 -10.9845 0)
(206.52 -11.3469 0)
(206.557 -11.7108 0)
(206.602 -12.0748 0)
(206.653 -12.4369 0)
(206.71 -12.7944 0)
(206.776 -13.1469 0)
(206.849 -13.4942 0)
(206.932 -13.8342 0)
(207.02 -14.1647 0)
(207.114 -14.4858 0)
(207.209 -14.8003 0)
(207.313 -15.108 0)
(207.421 -15.4074 0)
(207.538 -15.696 0)
(207.657 -15.9751 0)
(207.786 -16.244 0)
(207.915 -16.5039 0)
(208.04 -16.755 0)
(208.171 -16.9958 0)
(208.302 -17.2269 0)
(208.435 -17.4479 0)
(208.568 -17.6592 0)
(208.702 -17.8607 0)
(208.837 -18.0531 0)
(208.969 -18.2368 0)
(209.102 -18.4115 0)
(209.228 -18.5788 0)
(209.35 -18.739 0)
(209.47 -18.8947 0)
(209.601 -19.0406 0)
(209.718 -19.1878 0)
(209.854 -19.3208 0)
(209.966 -19.4603 0)
(210.104 -19.5815 0)
(210.213 -19.7131 0)
(210.349 -19.8238 0)
(210.456 -19.9469 0)
(210.589 -20.0487 0)
(210.696 -20.1631 0)
(210.827 -20.2574 0)
(210.94 -20.3625 0)
(211.071 -20.4504 0)
(211.19 -20.5454 0)
(211.319 -20.6262 0)
(211.437 -20.7105 0)
(224.063 -18.5253 0)
(234.292 -24.5288 0)
(235.452 -18.1663 0)
(231.696 -16.0769 0)
(227.796 -15.264 0)
(225.542 -14.1271 0)
(223.899 -13.1928 0)
(222.276 -12.6587 0)
(220.522 -12.7867 0)
(218.572 -13.5006 0)
(216.779 -14.2032 0)
(215.253 -14.37 0)
(214.155 -13.9745 0)
(213.227 -13.3262 0)
(212.315 -12.7379 0)
(211.464 -12.2087 0)
(210.715 -11.6771 0)
(210.112 -11.1193 0)
(209.506 -10.5298 0)
(208.989 -9.9748 0)
(208.533 -9.49362 0)
(208.164 -9.11505 0)
(207.846 -8.82525 0)
(207.598 -8.637 0)
(207.444 -8.58424 0)
(207.345 -8.64569 0)
(207.273 -8.79052 0)
(207.22 -9.00071 0)
(207.195 -9.26271 0)
(207.196 -9.56652 0)
(207.218 -9.90153 0)
(207.254 -10.2537 0)
(207.306 -10.606 0)
(207.368 -10.9582 0)
(207.439 -11.3078 0)
(207.517 -11.6555 0)
(207.604 -12.0012 0)
(207.698 -12.3429 0)
(207.795 -12.6781 0)
(207.899 -13.0058 0)
(208.01 -13.3274 0)
(208.128 -13.6419 0)
(208.25 -13.9476 0)
(208.374 -14.2434 0)
(208.498 -14.5309 0)
(208.626 -14.8101 0)
(208.756 -15.0812 0)
(208.891 -15.3414 0)
(209.028 -15.5921 0)
(209.169 -15.8326 0)
(209.31 -16.064 0)
(209.445 -16.2882 0)
(209.585 -16.5034 0)
(209.721 -16.7117 0)
(209.86 -16.911 0)
(209.996 -17.1032 0)
(210.134 -17.2872 0)
(210.274 -17.4629 0)
(210.409 -17.6335 0)
(210.549 -17.7937 0)
(210.676 -17.9524 0)
(210.814 -18.098 0)
(210.929 -18.2478 0)
(211.072 -18.3781 0)
(211.185 -18.5176 0)
(211.326 -18.6339 0)
(211.436 -18.7615 0)
(211.573 -18.8649 0)
(211.68 -18.9795 0)
(211.808 -19.0711 0)
(211.912 -19.1723 0)
(212.031 -19.2534 0)
(212.131 -19.3409 0)
(212.242 -19.4124 0)
(212.34 -19.4865 0)
(212.441 -19.5485 0)
(212.534 -19.6098 0)
(212.625 -19.6621 0)
(212.708 -19.7114 0)
(221.039 -21.3308 0)
(231.753 -26.1536 0)
(234.603 -19.5991 0)
(231.431 -17.0433 0)
(227.781 -16.1128 0)
(225.56 -14.912 0)
(223.935 -13.9487 0)
(222.307 -13.4685 0)
(220.508 -13.6964 0)
(218.59 -14.4544 0)
(216.894 -15.0523 0)
(215.474 -15.0797 0)
(214.504 -14.6188 0)
(213.613 -13.9537 0)
(212.731 -13.382 0)
(211.918 -12.8542 0)
(211.208 -12.3004 0)
(210.638 -11.7064 0)
(210.055 -11.08 0)
(209.552 -10.4945 0)
(209.109 -9.97618 0)
(208.75 -9.55072 0)
(208.443 -9.21033 0)
(208.198 -8.95497 0)
(208.034 -8.81258 0)
(207.947 -8.80834 0)
(207.902 -8.90337 0)
(207.88 -9.0701 0)
(207.882 -9.29228 0)
(207.913 -9.55927 0)
(207.961 -9.86788 0)
(208.024 -10.1935 0)
(208.111 -10.5268 0)
(208.208 -10.8629 0)
(208.314 -11.1963 0)
(208.427 -11.5257 0)
(208.547 -11.8511 0)
(208.673 -12.1722 0)
(208.802 -12.487 0)
(208.935 -12.7941 0)
(209.074 -13.0933 0)
(209.217 -13.3854 0)
(209.363 -13.6697 0)
(209.509 -13.9456 0)
(209.653 -14.2137 0)
(209.799 -14.4728 0)
(209.945 -14.724 0)
(210.095 -14.9653 0)
(210.244 -15.1982 0)
(210.396 -15.422 0)
(210.546 -15.6376 0)
(210.691 -15.8465 0)
(210.839 -16.0469 0)
(210.982 -16.2403 0)
(211.126 -16.4254 0)
(211.269 -16.6014 0)
(211.407 -16.7714 0)
(211.553 -16.9284 0)
(211.684 -17.0841 0)
(211.828 -17.2226 0)
(211.947 -17.3644 0)
(212.085 -17.4847 0)
(212.189 -17.6127 0)
(212.32 -17.7164 0)
(212.419 -17.8288 0)
(212.54 -17.9182 0)
(212.633 -18.0148 0)
(212.741 -18.0918 0)
(212.829 -18.1732 0)
(212.925 -18.2393 0)
(213.006 -18.3066 0)
(213.088 -18.3631 0)
(213.16 -18.4179 0)
(213.23 -18.4655 0)
(213.292 -18.51 0)
(213.351 -18.5495 0)
(213.405 -18.5854 0)
(213.455 -18.6177 0)
(213.5 -18.6468 0)
(218.824 -23.2679 0)
(229.285 -27.1355 0)
(233.536 -20.8187 0)
(231.047 -17.9957 0)
(227.699 -16.915 0)
(225.515 -15.6579 0)
(223.906 -14.6925 0)
(222.288 -14.2907 0)
(220.466 -14.5999 0)
(218.608 -15.3684 0)
(217.014 -15.8441 0)
(215.701 -15.7375 0)
(214.828 -15.2169 0)
(213.975 -14.5566 0)
(213.12 -13.999 0)
(212.345 -13.4691 0)
(211.678 -12.8965 0)
(211.142 -12.2727 0)
(210.59 -11.6157 0)
(210.103 -11.001 0)
(209.672 -10.4474 0)
(209.322 -9.97855 0)
(209.03 -9.59271 0)
(208.797 -9.28649 0)
(208.63 -9.06641 0)
(208.544 -8.97148 0)
(208.519 -9.00177 0)
(208.526 -9.11801 0)
(208.556 -9.29509 0)
(208.613 -9.51893 0)
(208.68 -9.79282 0)
(208.768 -10.0874 0)
(208.88 -10.3951 0)
(209.005 -10.7098 0)
(209.141 -11.0247 0)
(209.283 -11.3364 0)
(209.432 -11.6436 0)
(209.585 -11.9465 0)
(209.74 -12.2435 0)
(209.896 -12.5329 0)
(210.057 -12.8136 0)
(210.22 -13.087 0)
(210.383 -13.3532 0)
(210.545 -13.6118 0)
(210.703 -13.8627 0)
(210.863 -14.1038 0)
(211.021 -14.3365 0)
(211.181 -14.5591 0)
(211.338 -14.7737 0)
(211.497 -14.9785 0)
(211.651 -15.1749 0)
(211.801 -15.3626 0)
(211.948 -15.5413 0)
(212.094 -15.71 0)
(212.231 -15.8717 0)
(212.372 -16.0202 0)
(212.496 -16.1657 0)
(212.632 -16.2943 0)
(212.744 -16.4239 0)
(212.871 -16.5343 0)
(212.969 -16.6483 0)
(213.083 -16.7424 0)
(213.165 -16.8414 0)
(213.266 -16.9223 0)
(213.344 -17.0065 0)
(213.433 -17.0768 0)
(213.505 -17.1479 0)
(213.581 -17.2092 0)
(213.647 -17.2691 0)
(213.713 -17.3225 0)
(213.773 -17.3732 0)
(213.829 -17.4198 0)
(213.882 -17.4635 0)
(213.93 -17.5043 0)
(213.975 -17.5429 0)
(214.018 -17.5792 0)
(214.059 -17.6139 0)
(214.098 -17.6469 0)
(214.135 -17.6787 0)
(217.302 -24.5747 0)
(227.133 -27.7053 0)
(232.335 -21.8632 0)
(230.519 -18.8634 0)
(227.521 -17.6488 0)
(225.403 -16.3654 0)
(223.822 -15.4248 0)
(222.221 -15.1064 0)
(220.398 -15.4906 0)
(218.625 -16.2312 0)
(217.12 -16.5834 0)
(215.938 -16.3528 0)
(215.127 -15.775 0)
(214.312 -15.1324 0)
(213.486 -14.5877 0)
(212.749 -14.0528 0)
(212.126 -13.4646 0)
(211.621 -12.817 0)
(211.106 -12.1347 0)
(210.638 -11.4911 0)
(210.222 -10.9036 0)
(209.882 -10.3943 0)
(209.604 -9.96551 0)
(209.385 -9.61499 0)
(209.224 -9.33449 0)
(209.134 -9.14671 0)
(209.118 -9.08732 0)
(209.148 -9.14163 0)
(209.205 -9.26805 0)
(209.286 -9.44676 0)
(209.372 -9.68376 0)
(209.48 -9.94617 0)
(209.611 -10.2246 0)
(209.758 -10.514 0)
(209.918 -10.807 0)
(210.084 -11.0998 0)
(210.257 -11.3888 0)
(210.434 -11.6737 0)
(210.611 -11.9521 0)
(210.787 -12.2231 0)
(210.965 -12.4847 0)
(211.141 -12.7383 0)
(211.316 -12.984 0)
(211.488 -13.2212 0)
(211.656 -13.4505 0)
(211.823 -13.67 0)
(211.986 -13.8812 0)
(212.149 -14.082 0)
(212.306 -14.2748 0)
(212.462 -14.4563 0)
(212.612 -14.6288 0)
(212.757 -14.7906 0)
(212.894 -14.9441 0)
(213.031 -15.0858 0)
(213.154 -15.2229 0)
(213.281 -15.3468 0)
(213.387 -15.4698 0)
(213.504 -15.5784 0)
(213.597 -15.6884 0)
(213.703 -15.7838 0)
(213.785 -15.8816 0)
(213.88 -15.9658 0)
(213.951 -16.0527 0)
(214.035 -16.1287 0)
(214.105 -16.2057 0)
(214.181 -16.2753 0)
(214.247 -16.3444 0)
(214.314 -16.4085 0)
(214.375 -16.4713 0)
(214.436 -16.5305 0)
(214.493 -16.5885 0)
(214.55 -16.6436 0)
(214.603 -16.6979 0)
(214.656 -16.7495 0)
(214.704 -16.8008 0)
(214.754 -16.8497 0)
(214.801 -16.8985 0)
(214.85 -16.9452 0)
(214.898 -16.992 0)
(216.238 -25.4368 0)
(225.242 -27.9332 0)
(231.012 -22.7157 0)
(229.962 -19.6954 0)
(227.302 -18.3332 0)
(225.236 -17.0437 0)
(223.688 -16.1406 0)
(222.112 -15.9081 0)
(220.311 -16.355 0)
(218.638 -17.0402 0)
(217.22 -17.2724 0)
(216.171 -16.9287 0)
(215.405 -16.3016 0)
(214.624 -15.68 0)
(213.83 -15.147 0)
(213.128 -14.6059 0)
(212.544 -14.0048 0)
(212.07 -13.3386 0)
(211.597 -12.6359 0)
(211.154 -11.9642 0)
(210.753 -11.3433 0)
(210.425 -10.7946 0)
(210.161 -10.3231 0)
(209.955 -9.92823 0)
(209.804 -9.59746 0)
(209.715 -9.3342 0)
(209.699 -9.17706 0)
(209.743 -9.14924 0)
(209.822 -9.21787 0)
(209.925 -9.35006 0)
(210.034 -9.54715 0)
(210.16 -9.78002 0)
(210.306 -10.0264 0)
(210.468 -10.2866 0)
(210.645 -10.5533 0)
(210.828 -10.8235 0)
(211.02 -11.0913 0)
(211.215 -11.3558 0)
(211.41 -11.6138 0)
(211.601 -11.8651 0)
(211.791 -12.107 0)
(211.977 -12.3401 0)
(212.159 -12.5636 0)
(212.336 -12.7777 0)
(212.507 -12.9837 0)
(212.675 -13.1808 0)
(212.836 -13.3703 0)
(212.995 -13.5501 0)
(213.146 -13.7221 0)
(213.295 -13.884 0)
(213.438 -14.0377 0)
(213.575 -14.1826 0)
(213.705 -14.322 0)
(213.834 -14.4522 0)
(213.951 -14.5805 0)
(214.071 -14.6992 0)
(214.176 -14.8186 0)
(214.286 -14.9278 0)
(214.38 -15.0391 0)
(214.483 -15.1397 0)
(214.567 -15.2431 0)
(214.66 -15.3365 0)
(214.737 -15.4322 0)
(214.822 -15.52 0)
(214.896 -15.6084 0)
(214.975 -15.6911 0)
(215.046 -15.7735 0)
(215.118 -15.8511 0)
(215.183 -15.9283 0)
(215.251 -16.001 0)
(215.312 -16.0735 0)
(215.376 -16.1414 0)
(215.435 -16.2092 0)
(215.496 -16.2727 0)
(215.552 -16.3359 0)
(215.61 -16.3954 0)
(215.666 -16.4544 0)
(215.724 -16.5099 0)
(215.78 -16.5649 0)
(215.53 -25.9997 0)
(223.619 -27.9741 0)
(229.602 -23.3714 0)
(229.261 -20.4246 0)
(226.996 -18.9379 0)
(225.007 -17.6874 0)
(223.508 -16.8361 0)
(221.966 -16.69 0)
(220.211 -17.1832 0)
(218.64 -17.7959 0)
(217.314 -17.9088 0)
(216.389 -17.4692 0)
(215.661 -16.8014 0)
(214.913 -16.199 0)
(214.152 -15.6767 0)
(213.482 -15.1303 0)
(212.933 -14.5184 0)
(212.488 -13.8378 0)
(212.059 -13.1196 0)
(211.644 -12.4216 0)
(211.263 -11.7671 0)
(210.946 -11.1776 0)
(210.697 -10.6618 0)
(210.504 -10.2203 0)
(210.363 -9.84278 0)
(210.281 -9.52221 0)
(210.265 -9.28259 0)
(210.312 -9.16054 0)
(210.406 -9.15655 0)
(210.528 -9.23586 0)
(210.663 -9.38542 0)
(210.804 -9.59224 0)
(210.962 -9.80344 0)
(211.135 -10.032 0)
(211.323 -10.2697 0)
(211.517 -10.5144 0)
(211.721 -10.759 0)
(211.928 -11.0022 0)
(212.136 -11.2402 0)
(212.339 -11.4734 0)
(212.538 -11.6983 0)
(212.731 -11.9147 0)
(212.919 -12.1216 0)
(213.1 -12.3199 0)
(213.274 -12.5114 0)
(213.443 -12.6957 0)
(213.605 -12.8736 0)
(213.762 -13.0439 0)
(213.914 -13.2075 0)
(214.06 -13.3644 0)
(214.202 -13.5149 0)
(214.34 -13.6596 0)
(214.471 -13.8007 0)
(214.603 -13.9352 0)
(214.726 -14.0688 0)
(214.852 -14.1948 0)
(214.964 -14.3219 0)
(215.081 -14.4398 0)
(215.183 -14.5599 0)
(215.291 -14.67 0)
(215.383 -14.7823 0)
(215.481 -14.885 0)
(215.564 -14.9888 0)
(215.652 -15.0845 0)
(215.73 -15.18 0)
(215.812 -15.2683 0)
(215.885 -15.3561 0)
(215.961 -15.4371 0)
(216.028 -15.5179 0)
(216.099 -15.5919 0)
(216.162 -15.6656 0)
(216.228 -15.7331 0)
(216.287 -15.7997 0)
(216.348 -15.861 0)
(216.404 -15.9207 0)
(216.461 -15.9761 0)
(216.515 -16.0294 0)
(216.569 -16.0791 0)
(216.621 -16.1267 0)
(215.075 -26.3495 0)
(222.246 -27.8895 0)
(228.224 -23.8752 0)
(228.537 -21.0849 0)
(226.636 -19.4773 0)
(224.725 -18.2978 0)
(223.285 -17.5065 0)
(221.787 -17.4445 0)
(220.098 -17.9687 0)
(218.628 -18.4991 0)
(217.4 -18.4921 0)
(216.587 -17.9762 0)
(215.894 -17.2772 0)
(215.179 -16.6899 0)
(214.451 -16.1772 0)
(213.81 -15.6271 0)
(213.291 -15.0059 0)
(212.876 -14.3145 0)
(212.492 -13.5862 0)
(212.106 -12.8648 0)
(211.743 -12.1761 0)
(211.44 -11.5442 0)
(211.207 -10.9835 0)
(211.029 -10.4934 0)
(210.899 -10.0679 0)
(210.824 -9.7002 0)
(210.811 -9.39853 0)
(210.859 -9.19073 0)
(210.958 -9.09718 0)
(211.094 -9.11006 0)
(211.25 -9.20728 0)
(211.408 -9.37556 0)
(211.58 -9.55711 0)
(211.761 -9.75384 0)
(211.955 -9.96159 0)
(212.158 -10.1801 0)
(212.369 -10.402 0)
(212.584 -10.6256 0)
(212.801 -10.8467 0)
(213.013 -11.0656 0)
(213.222 -11.2782 0)
(213.424 -11.4843 0)
(213.619 -11.6829 0)
(213.807 -11.8751 0)
(213.989 -12.0615 0)
(214.164 -12.2421 0)
(214.333 -12.4168 0)
(214.496 -12.5866 0)
(214.653 -12.751 0)
(214.804 -12.9118 0)
(214.952 -13.0678 0)
(215.097 -13.2186 0)
(215.235 -13.3665 0)
(215.376 -13.5067 0)
(215.506 -13.6464 0)
(215.641 -13.7763 0)
(215.76 -13.9075 0)
(215.885 -14.0271 0)
(215.991 -14.1483 0)
(216.102 -14.2573 0)
(216.196 -14.367 0)
(216.294 -14.4656 0)
(216.376 -14.5636 0)
(216.461 -14.6524 0)
(216.536 -14.7398 0)
(216.614 -14.8194 0)
(216.683 -14.8976 0)
(216.754 -14.9686 0)
(216.816 -15.0385 0)
(216.88 -15.102 0)
(216.937 -15.1641 0)
(216.994 -15.2209 0)
(217.046 -15.2756 0)
(217.096 -15.3263 0)
(217.142 -15.3745 0)
(217.186 -15.4195 0)
(217.228 -15.4619 0)
(217.267 -15.5017 0)
(217.305 -15.539 0)
(214.79 -26.5423 0)
(221.095 -27.7253 0)
(226.917 -24.2512 0)
(227.791 -21.6564 0)
(226.232 -19.9583 0)
(224.392 -18.8725 0)
(223.023 -18.1484 0)
(221.578 -18.1623 0)
(219.977 -18.7086 0)
(218.6 -19.1512 0)
(217.478 -19.0259 0)
(216.758 -18.4493 0)
(216.102 -17.7297 0)
(215.421 -17.1535 0)
(214.728 -16.6489 0)
(214.115 -16.0972 0)
(213.621 -15.4685 0)
(213.236 -14.7698 0)
(212.896 -14.0357 0)
(212.536 -13.2924 0)
(212.19 -12.5701 0)
(211.901 -11.8972 0)
(211.687 -11.2927 0)
(211.525 -10.7536 0)
(211.406 -10.2779 0)
(211.339 -9.8643 0)
(211.331 -9.51212 0)
(211.38 -9.23384 0)
(211.479 -9.05144 0)
(211.622 -8.98178 0)
(211.792 -9.01591 0)
(211.972 -9.13133 0)
(212.157 -9.29037 0)
(212.348 -9.45406 0)
(212.549 -9.63369 0)
(212.757 -9.8266 0)
(212.975 -10.0268 0)
(213.196 -10.233 0)
(213.42 -10.4396 0)
(213.642 -10.6463 0)
(213.861 -10.8491 0)
(214.073 -11.0481 0)
(214.279 -11.2419 0)
(214.477 -11.4309 0)
(214.67 -11.6136 0)
(214.855 -11.7911 0)
(215.035 -11.9633 0)
(215.206 -12.1318 0)
(215.37 -12.2962 0)
(215.53 -12.455 0)
(215.681 -12.6102 0)
(215.834 -12.7558 0)
(215.975 -12.9009 0)
(216.121 -13.0337 0)
(216.251 -13.1682 0)
(216.387 -13.2887 0)
(216.505 -13.4113 0)
(216.626 -13.5201 0)
(216.73 -13.6303 0)
(216.835 -13.7283 0)
(216.924 -13.8259 0)
(217.013 -13.914 0)
(217.09 -14.0002 0)
(217.166 -14.0793 0)
(217.234 -14.156 0)
(217.302 -14.2271 0)
(217.364 -14.2958 0)
(217.426 -14.3596 0)
(217.483 -14.4213 0)
(217.539 -14.479 0)
(217.591 -14.5344 0)
(217.64 -14.5867 0)
(217.686 -14.6366 0)
(217.729 -14.6839 0)
(217.769 -14.7288 0)
(217.807 -14.7715 0)
(217.842 -14.8121 0)
(217.875 -14.8507 0)
(217.907 -14.8874 0)
(214.609 -26.651 0)
(220.125 -27.5508 0)
(225.721 -24.5522 0)
(227.056 -22.1554 0)
(225.771 -20.3908 0)
(224.022 -19.4126 0)
(222.727 -18.7527 0)
(221.346 -18.8391 0)
(219.846 -19.395 0)
(218.556 -19.7583 0)
(217.547 -19.5182 0)
(216.899 -18.8863 0)
(216.283 -18.1586 0)
(215.638 -17.5911 0)
(214.982 -17.0926 0)
(214.395 -16.541 0)
(213.924 -15.9066 0)
(213.567 -15.2037 0)
(213.268 -14.4663 0)
(212.93 -13.702 0)
(212.602 -12.9483 0)
(212.33 -12.2379 0)
(212.134 -11.591 0)
(211.99 -11.0031 0)
(211.885 -10.4747 0)
(211.826 -10.0083 0)
(211.823 -9.60808 0)
(211.872 -9.27475 0)
(211.969 -9.01775 0)
(212.112 -8.86063 0)
(212.291 -8.81876 0)
(212.488 -8.87639 0)
(212.689 -8.99973 0)
(212.895 -9.13754 0)
(213.105 -9.2895 0)
(213.32 -9.45683 0)
(213.544 -9.63533 0)
(213.771 -9.82375 0)
(214.002 -10.0155 0)
(214.233 -10.2093 0)
(214.461 -10.4011 0)
(214.684 -10.5911 0)
(214.901 -10.7771 0)
(215.111 -10.9582 0)
(215.314 -11.1335 0)
(215.511 -11.303 0)
(215.698 -11.4697 0)
(215.879 -11.6301 0)