/*--------------------------------*- C++ -*----------------------------------*\
| =========                 |                                                 |
| \\      /  F ield         | OpenFOAM: The Open Source CFD Toolbox           |
|  \\    /   O peration     | Version:  2412                                  |
|   \\  /    A nd           | Website:  www.openfoam.com                      |
|    \\/     M anipulation  |                                                 |
\*---------------------------------------------------------------------------*/
FoamFile
{
    version     2.0;
    format      ascii;
    arch        "LSB;label=32;scalar=64";
    class       volScalarField;
    location    "0.042";
    object      rho;
}
// * * * * * * * * * * * * * * * * * * * * * * * * * * * * * * * * * * * * * //

dimensions      [1 -3 0 0 0 0 0];

internalField   nonuniform List<scalar> 
9763
(
0.0413035
0.0419387
0.0413009
0.0418784
0.0413127
0.0418526
0.0413229
0.0418328
0.0413251
0.0418351
0.041325
0.0418395
0.0413351
0.0418498
0.0413585
0.0418581
0.0413822
0.0418631
0.0413949
0.0418647
0.041405
0.0418636
0.0414155
0.0418592
0.0414237
0.0418523
0.0414287
0.0418416
0.0414329
0.0418299
0.0414367
0.041816
0.0414402
0.0418019
0.0414435
0.0417866
0.0414471
0.0417714
0.0414509
0.0417557
0.041455
0.0417402
0.0414593
0.0417246
0.0414639
0.0417092
0.0414685
0.0416937
0.0414732
0.0416781
0.0414777
0.0416621
0.041482
0.0416456
0.041486
0.0416283
0.0414895
0.0416102
0.0414926
0.0415911
0.041495
0.0415707
0.0414972
0.0415493
0.041499
0.0415265
0.0415015
0.0415026
0.0415047
0.0414773
0.0415087
0.0414514
0.0415121
0.0414251
0.0415151
0.041399
0.041517
0.0413726
0.0415179
0.0413467
0.0413213
0.0412971
0.0412738
0.0541275
0.0440629
0.0438911
0.0438908
0.0438435
0.0437569
0.0436741
0.0435971
0.0435339
0.0434764
0.0434175
0.0433529
0.0432825
0.0432079
0.0431299
0.043049
0.0429654
0.0428798
0.0427928
0.0427054
0.0426175
0.0425282
0.0424359
0.0423393
0.042238
0.0421319
0.042021
0.041905
0.0417841
0.0416588
0.0415296
0.0413969
0.0412619
0.0411266
0.0409932
0.040864
0.0407411
0.040627
0.0405245
0.0404356
0.0403614
0.0403018
0.0402566
0.0402245
0.040206
0.0401986
0.0402027
0.040217
0.0402384
0.0402666
0.0402991
0.0403373
0.0403742
0.0404069
0.0404426
0.040466
0.0404892
0.0405087
0.0405312
0.0405522
0.0405761
0.0406004
0.0406264
0.0406524
0.0406797
0.0407066
0.040732
0.0407588
0.0407867
0.040816
0.0408461
0.0408764
0.0409072
0.0409367
0.0409659
0.0409958
0.0410267
0.0410583
0.0410905
0.041122
0.0411522
0.0411807
0.0412072
0.0412323
0.0412555
0.0412783
0.0413006
0.0413224
0.0413421
0.0413596
0.041376
0.0413928
0.0414096
0.0414267
0.0414439
0.0414609
0.0414772
0.0414927
0.0415075
0.0415219
0.041535
0.0415475
0.0415574
0.0415656
0.04157
0.0415717
0.0415697
0.0415627
0.0415515
0.0415337
0.0415107
0.041481
0.0414476
0.0414114
0.0413734
0.0413348
0.0412978
0.0412629
0.0412345
0.0412345
0.0411566
0.0541411
0.044059
0.0438844
0.0438861
0.04384
0.0437542
0.0436716
0.043595
0.043532
0.0434746
0.0434159
0.0433513
0.0432808
0.0432061
0.0431278
0.0430467
0.0429629
0.042877
0.0427897
0.0427019
0.0426137
0.042524
0.0424313
0.0423342
0.0422322
0.0421252
0.0420132
0.0418959
0.0417735
0.0416464
0.0415153
0.0413806
0.0412433
0.0411056
0.0409697
0.040838
0.0407127
0.0405964
0.0404917
0.040401
0.0403252
0.0402645
0.0402183
0.0401858
0.0401669
0.040159
0.0401625
0.0401764
0.0401978
0.0402258
0.0402587
0.0402967
0.0403348
0.0403693
0.0404054
0.0404316
0.0404563
0.0404764
0.0404969
0.0405169
0.0405372
0.0405589
0.0405824
0.040608
0.0406366
0.0406672
0.040696
0.0407245
0.0407517
0.0407784
0.0408055
0.0408326
0.0408611
0.040889
0.040918
0.0409485
0.0409812
0.0410149
0.0410493
0.0410827
0.0411139
0.0411425
0.0411679
0.0411908
0.0412111
0.0412296
0.041246
0.0412607
0.0412737
0.0412868
0.0413004
0.0413144
0.0413282
0.041342
0.0413557
0.0413694
0.0413834
0.0413973
0.041411
0.0414245
0.0414374
0.0414501
0.0414611
0.0414712
0.0414777
0.041482
0.0414826
0.0414778
0.0414679
0.0414501
0.0414274
0.0414
0.0413711
0.0413421
0.0413161
0.041295
0.0412801
0.0412709
0.041267
0.0412672
0.0412651
0.054142
0.0440572
0.0438784
0.0438829
0.0438369
0.0437515
0.0436692
0.0435929
0.0435302
0.043473
0.0434144
0.0433497
0.0432792
0.0432043
0.0431259
0.0430446
0.0429605
0.0428743
0.0427867
0.0426986
0.04261
0.0425199
0.0424268
0.0423292
0.0422264
0.0421186
0.0420054
0.0418868
0.0417627
0.0416339
0.0415008
0.0413639
0.0412244
0.0410842
0.0409457
0.0408114
0.0406835
0.0405647
0.0404577
0.040365
0.0402875
0.0402254
0.0401783
0.0401452
0.0401256
0.0401173
0.0401201
0.0401334
0.0401546
0.0401826
0.0402158
0.0402534
0.0402912
0.0403271
0.0403626
0.0403898
0.0404156
0.0404362
0.0404557
0.0404741
0.0404916
0.0405118
0.0405341
0.0405594
0.0405883
0.0406206
0.0406518
0.040682
0.0407087
0.0407339
0.0407587
0.0407828
0.0408079
0.040832
0.0408583
0.0408869
0.0409188
0.0409518
0.0409855
0.041018
0.0410476
0.0410737
0.0410959
0.0411148
0.0411308
0.0411451
0.041158
0.0411703
0.0411823
0.0411946
0.0412069
0.041219
0.0412306
0.041242
0.0412528
0.0412633
0.0412738
0.0412841
0.0412943
0.0413043
0.0413142
0.0413239
0.0413327
0.0413407
0.0413461
0.0413496
0.0413502
0.041346
0.0413373
0.0413213
0.0412996
0.0412723
0.0412419
0.0412105
0.0411816
0.0411575
0.0411398
0.0411282
0.0411217
0.0411195
0.0411224
0.0541349
0.0440558
0.0438722
0.0438795
0.0438339
0.0437489
0.043667
0.0435909
0.0435284
0.0434714
0.0434129
0.0433482
0.0432776
0.0432025
0.043124
0.0430425
0.0429582
0.0428718
0.0427839
0.0426955
0.0426065
0.0425161
0.0424225
0.0423244
0.042221
0.0421123
0.041998
0.0418781
0.0417525
0.041622
0.0414869
0.041348
0.0412062
0.0410636
0.0409226
0.0407857
0.0406554
0.0405342
0.040425
0.0403303
0.0402511
0.0401877
0.0401395
0.0401058
0.0400856
0.0400768
0.040079
0.0400916
0.0401124
0.0401402
0.0401734
0.040211
0.0402485
0.0402859
0.0403214
0.0403501
0.0403763
0.0403972
0.0404158
0.0404326
0.0404489
0.0404681
0.0404903
0.0405168
0.0405466
0.0405789
0.0406098
0.0406409
0.0406675
0.0406918
0.0407145
0.0407368
0.0407608
0.0407832
0.0408075
0.0408336
0.0408632
0.040894
0.0409252
0.0409545
0.0409801
0.041002
0.0410198
0.0410346
0.041047
0.041058
0.0410682
0.0410781
0.0410877
0.0410971
0.0411061
0.0411148
0.0411229
0.0411305
0.0411373
0.0411436
0.0411496
0.0411556
0.0411618
0.0411683
0.0411753
0.0411824
0.0411895
0.0411962
0.0412014
0.0412051
0.0412063
0.0412038
0.0411968
0.0411835
0.0411637
0.0411377
0.0411073
0.0410752
0.0410446
0.0410186
0.0409992
0.0409869
0.0409806
0.0409789
0.0409821
0.0541385
0.0440544
0.0438664
0.0438762
0.0438309
0.0437464
0.0436647
0.043589
0.0435267
0.0434699
0.0434115
0.0433468
0.043276
0.0432009
0.0431222
0.0430405
0.042956
0.0428694
0.0427812
0.0426924
0.0426031
0.0425123
0.0424184
0.0423198
0.0422158
0.0421063
0.0419909
0.0418697
0.0417427
0.0416105
0.0414736
0.0413327
0.0411887
0.0410438
0.0409003
0.0407609
0.0406281
0.0405046
0.0403932
0.0402965
0.0402157
0.040151
0.0401018
0.0400673
0.0400464
0.0400371
0.0400387
0.0400507
0.040071
0.0400985
0.0401317
0.0401696
0.0402068
0.0402454
0.0402804
0.040309
0.040335
0.0403564
0.0403761
0.0403942
0.040411
0.0404297
0.0404503
0.0404751
0.0405042
0.0405367
0.0405685
0.0405998
0.0406254
0.0406487
0.0406692
0.0406894
0.0407118
0.0407335
0.0407583
0.0407847
0.0408136
0.0408423
0.0408702
0.040895
0.0409155
0.0409322
0.040945
0.040955
0.0409631
0.0409703
0.0409773
0.0409843
0.0409917
0.0409991
0.0410064
0.0410133
0.0410194
0.0410247
0.0410289
0.0410323
0.0410349
0.0410374
0.0410398
0.0410426
0.0410459
0.0410496
0.0410536
0.0410575
0.0410606
0.0410628
0.0410629
0.0410598
0.0410527
0.0410396
0.0410203
0.0409947
0.0409643
0.0409317
0.0409001
0.0408732
0.0408532
0.040841
0.0408352
0.0408339
0.0408376
0.0541335
0.044053
0.0438605
0.0438728
0.043828
0.0437439
0.0436625
0.043587
0.0435251
0.0434685
0.0434101
0.0433453
0.0432745
0.0431992
0.0431204
0.0430385
0.0429538
0.042867
0.0427785
0.0426895
0.0425998
0.0425087
0.0424144
0.0423153
0.0422107
0.0421003
0.041984
0.0418615
0.0417331
0.0415992
0.0414604
0.0413175
0.0411715
0.0410242
0.0408783
0.0407364
0.0406012
0.0404754
0.0403619
0.0402633
0.0401808
0.0401148
0.0400645
0.0400291
0.0400075
0.0399977
0.0399988
0.0400103
0.0400301
0.0400572
0.0400903
0.0401284
0.0401654
0.0402051
0.0402393
0.0402675
0.0402933
0.0403153
0.0403361
0.0403563
0.0403746
0.0403934
0.0404131
0.0404364
0.0404632
0.0404931
0.040523
0.0405528
0.0405773
0.0405994
0.0406184
0.0406378
0.0406603
0.0406831
0.0407091
0.040736
0.0407638
0.04079
0.0408141
0.0408342
0.0408499
0.0408621
0.040871
0.0408778
0.0408831
0.0408879
0.0408926
0.0408975
0.0409027
0.0409081
0.0409134
0.0409183
0.0409226
0.0409259
0.0409283
0.0409296
0.0409302
0.0409304
0.0409305
0.040931
0.0409319
0.0409333
0.0409353
0.040937
0.0409386
0.0409392
0.0409379
0.0409339
0.0409255
0.0409119
0.0408918
0.0408656
0.0408338
0.0407994
0.0407654
0.0407361
0.0407139
0.0406999
0.0406928
0.0406899
0.0406867
0.0541351
0.0440519
0.0438544
0.0438693
0.0438249
0.0437413
0.0436602
0.0435851
0.0435234
0.043467
0.0434087
0.0433439
0.043273
0.0431976
0.0431186
0.0430366
0.0429517
0.0428646
0.0427759
0.0426865
0.0425965
0.042505
0.0424103
0.0423108
0.0422056
0.0420944
0.041977
0.0418533
0.0417234
0.0415879
0.0414473
0.0413024
0.0411541
0.0410045
0.0408561
0.0407118
0.0405741
0.040446
0.0403304
0.0402297
0.0401456
0.0400781
0.0400267
0.0399905
0.039968
0.0399576
0.0399582
0.0399692
0.0399886
0.0400153
0.040048
0.0400861
0.0401229
0.0401636
0.0401974
0.0402253
0.0402505
0.040272
0.0402927
0.0403139
0.040334
0.0403545
0.0403743
0.0403957
0.0404186
0.0404436
0.0404694
0.0404966
0.0405203
0.0405421
0.0405611
0.040581
0.0406043
0.040628
0.0406545
0.0406809
0.040707
0.0407302
0.0407508
0.040767
0.040779
0.0407881
0.0407944
0.040799
0.0408025
0.0408058
0.0408093
0.0408133
0.0408179
0.0408228
0.0408277
0.0408321
0.0408358
0.0408384
0.0408398
0.04084
0.0408392
0.040838
0.0408365
0.0408354
0.0408347
0.0408347
0.0408352
0.0408359
0.0408365
0.0408364
0.0408346
0.0408304
0.040822
0.0408086
0.0407889
0.0407628
0.040731
0.0406961
0.0406612
0.0406308
0.0406076
0.0405932
0.0405863
0.0405849
0.0405876
0.0541364
0.0440502
0.043848
0.0438658
0.0438219
0.0437387
0.043658
0.0435832
0.0435217
0.0434655
0.0434073
0.0433425
0.0432715
0.0431959
0.0431168
0.0430346
0.0429495
0.0428622
0.0427732
0.0426835
0.0425932
0.0425013
0.0424063
0.0423063
0.0422005
0.0420884
0.04197
0.041845
0.0417137
0.0415764
0.041434
0.041287
0.0411366
0.0409845
0.0408336
0.0406867
0.0405467
0.0404162
0.0402984
0.0401957
0.0401098
0.0400409
0.0399884
0.0399511
0.0399277
0.0399166
0.0399167
0.0399272
0.0399463
0.0399725
0.0400048
0.0400427
0.0400795
0.040121
0.0401546
0.0401827
0.0402066
0.0402267
0.0402467
0.040268
0.040289
0.0403108
0.0403298
0.0403485
0.0403672
0.0403875
0.0404094
0.0404344
0.0404584
0.040481
0.0405013
0.0405217
0.0405445
0.0405672
0.0405921
0.0406166
0.0406402
0.040661
0.040679
0.0406929
0.0407031
0.0407109
0.0407159
0.0407193
0.0407215
0.0407233
0.0407253
0.0407279
0.0407311
0.0407348
0.0407387
0.0407423
0.0407453
0.0407473
0.0407481
0.0407478
0.0407465
0.0407445
0.0407423
0.0407402
0.0407387
0.0407378
0.0407374
0.0407374
0.0407372
0.0407365
0.0407343
0.0407296
0.0407211
0.0407076
0.040688
0.0406619
0.0406298
0.0405942
0.0405582
0.0405261
0.0405011
0.0404852
0.0404774
0.0404758
0.0404833
0.0541369
0.0440484
0.0438416
0.0438621
0.0438187
0.0437361
0.0436557
0.0435812
0.04352
0.043464
0.0434059
0.043341
0.0432699
0.0431942
0.0431149
0.0430326
0.0429473
0.0428597
0.0427705
0.0426805
0.0425898
0.0424976
0.0424021
0.0423017
0.0421953
0.0420824
0.0419629
0.0418366
0.0417038
0.0415649
0.0414205
0.0412714
0.0411187
0.0409642
0.0408108
0.0406613
0.0405186
0.0403858
0.0402658
0.040161
0.0400732
0.0400028
0.039949
0.0399106
0.0398863
0.0398746
0.039874
0.0398838
0.0399026
0.0399286
0.0399604
0.039998
0.0400346
0.0400763
0.0401094
0.0401383
0.0401621
0.0401815
0.0402002
0.0402198
0.0402397
0.0402611
0.0402789
0.0402955
0.0403109
0.0403279
0.0403471
0.0403703
0.0403942
0.0404178
0.0404397
0.04046
0.040481
0.0405005
0.0405219
0.0405432
0.0405643
0.0405831
0.0405996
0.0406126
0.0406223
0.0406297
0.0406341
0.0406365
0.0406375
0.0406382
0.040639
0.0406403
0.0406424
0.0406451
0.0406479
0.0406505
0.0406524
0.0406533
0.0406529
0.0406513
0.0406486
0.0406451
0.0406412
0.0406374
0.0406339
0.0406312
0.0406291
0.0406274
0.0406257
0.0406235
0.0406199
0.040614
0.0406046
0.0405904
0.0405701
0.0405433
0.0405103
0.0404734
0.0404356
0.0404013
0.0403735
0.0403548
0.040345
0.0403425
0.0403396
0.0541337
0.0440464
0.043835
0.0438584
0.0438155
0.0437334
0.0436533
0.0435792
0.0435183
0.0434625
0.0434044
0.0433396
0.0432683
0.0431925
0.043113
0.0430305
0.042945
0.0428573
0.0427677
0.0426775
0.0425865
0.0424938
0.042398
0.0422971
0.04219
0.0420763
0.0419557
0.0418282
0.0416938
0.0415531
0.0414068
0.0412557
0.0411006
0.0409436
0.0407875
0.0406354
0.0404902
0.040355
0.0402327
0.0401258
0.0400361
0.039964
0.0399089
0.0398694
0.0398441
0.0398316
0.0398303
0.0398394
0.0398579
0.0398835
0.0399151
0.0399522
0.0399885
0.0400302
0.0400628
0.0400931
0.0401177
0.0401379
0.0401551
0.0401715
0.0401887
0.0402087
0.0402249
0.0402403
0.0402538
0.0402691
0.0402868
0.0403094
0.0403337
0.0403578
0.0403801
0.0403989
0.0404166
0.0404313
0.0404475
0.0404646
0.0404831
0.0405009
0.0405175
0.0405312
0.0405416
0.0405493
0.0405533
0.0405546
0.0405541
0.0405528
0.0405517
0.0405512
0.0405514
0.0405522
0.0405532
0.0405542
0.0405546
0.0405542
0.0405527
0.04055
0.0405461
0.0405413
0.0405361
0.0405308
0.0405259
0.0405217
0.0405181
0.040515
0.040512
0.0405085
0.0405038
0.0404971
0.040487
0.0404723
0.0404517
0.0404247
0.0403915
0.0403541
0.0403158
0.0402805
0.0402518
0.0402319
0.0402203
0.040215
0.0402128
0.0541346
0.0440443
0.0438283
0.0438546
0.0438123
0.0437307
0.0436509
0.0435772
0.0435166
0.0434609
0.043403
0.0433381
0.0432668
0.0431907
0.0431111
0.0430284
0.0429428
0.0428548
0.042765
0.0426744
0.042583
0.0424901
0.0423938
0.0422924
0.0421847
0.0420701
0.0419484
0.0418196
0.0416837
0.0415413
0.0413931
0.0412397
0.0410823
0.0409228
0.040764
0.0406091
0.0404614
0.0403237
0.0401991
0.0400901
0.0399984
0.0399246
0.039868
0.0398273
0.039801
0.0397876
0.0397854
0.0397938
0.039812
0.0398373
0.0398686
0.0399053
0.0399413
0.0399831
0.0400148
0.0400461
0.040071
0.0400925
0.0401099
0.0401247
0.0401393
0.0401574
0.040172
0.0401863
0.0401994
0.0402152
0.0402335
0.0402564
0.0402805
0.0403037
0.0403238
0.0403391
0.0403518
0.0403607
0.0403718
0.040385
0.0404016
0.0404193
0.0404369
0.0404519
0.040463
0.0404703
0.040473
0.0404724
0.0404699
0.0404671
0.0404644
0.0404625
0.0404613
0.0404606
0.0404601
0.0404596
0.0404584
0.0404566
0.0404536
0.0404495
0.0404442
0.0404382
0.0404317
0.0404252
0.0404191
0.0404137
0.040409
0.040405
0.0404012
0.0403971
0.0403919
0.0403848
0.0403745
0.04036
0.0403397
0.0403131
0.0402805
0.0402436
0.0402056
0.0401705
0.0401419
0.0401219
0.0401102
0.0401046
0.0401025
0.0541336
0.0440422
0.0438216
0.0438507
0.043809
0.0437279
0.0436485
0.0435751
0.0435148
0.0434594
0.0434016
0.0433366
0.0432652
0.043189
0.0431092
0.0430264
0.0429405
0.0428523
0.0427622
0.0426713
0.0425796
0.0424863
0.0423896
0.0422877
0.0421794
0.0420639
0.0419412
0.041811
0.0416736
0.0415294
0.0413792
0.0412237
0.0410639
0.0409018
0.0407403
0.0405827
0.0404323
0.0402922
0.0401653
0.0400541
0.0399605
0.0398848
0.0398267
0.0397847
0.0397573
0.039743
0.0397399
0.0397474
0.0397651
0.0397901
0.0398212
0.0398578
0.0398936
0.0399354
0.0399655
0.0399972
0.0400226
0.0400456
0.0400644
0.0400798
0.0400929
0.0401097
0.0401237
0.0401384
0.0401525
0.0401698
0.0401893
0.040212
0.040234
0.0402541
0.0402706
0.0402825
0.0402908
0.0402954
0.040303
0.0403136
0.040329
0.0403465
0.0403641
0.0403787
0.0403886
0.0403933
0.0403931
0.0403899
0.0403849
0.04038
0.0403758
0.0403728
0.0403704
0.0403687
0.040367
0.0403652
0.0403628
0.0403598
0.0403556
0.0403504
0.0403441
0.0403371
0.0403296
0.0403221
0.0403151
0.0403088
0.0403034
0.0402988
0.0402945
0.0402901
0.0402847
0.0402776
0.0402676
0.0402534
0.0402338
0.0402081
0.0401764
0.0401407
0.0401036
0.0400694
0.0400414
0.0400219
0.0400107
0.0400058
0.0400041
0.0541341
0.04404
0.0438148
0.0438468
0.0438057
0.0437251
0.0436461
0.043573
0.0435131
0.0434578
0.0434001
0.0433351
0.0432636
0.0431873
0.0431073
0.0430243
0.0429382
0.0428498
0.0427595
0.0426683
0.0425762
0.0424825
0.0423854
0.042283
0.0421741
0.0420578
0.0419339
0.0418024
0.0416634
0.0415175
0.0413653
0.0412076
0.0410454
0.0408808
0.0407165
0.0405561
0.0404031
0.0402605
0.0401311
0.0400178
0.0399221
0.0398447
0.0397849
0.0397416
0.039713
0.0396976
0.0396935
0.0397002
0.0397173
0.039742
0.0397728
0.039809
0.0398447
0.0398871
0.039916
0.0399479
0.0399723
0.0399957
0.040016
0.0400329
0.0400471
0.0400658
0.0400812
0.0400973
0.0401125
0.0401301
0.0401496
0.0401711
0.0401899
0.0402058
0.0402184
0.0402278
0.0402335
0.0402364
0.0402425
0.0402515
0.0402656
0.0402814
0.0402966
0.0403083
0.0403147
0.0403156
0.0403118
0.0403058
0.0402985
0.0402924
0.0402874
0.0402838
0.0402809
0.0402785
0.0402761
0.0402735
0.0402702
0.0402662
0.0402609
0.0402547
0.0402474
0.0402393
0.0402308
0.0402224
0.0402145
0.0402074
0.0402012
0.0401959
0.0401912
0.0401864
0.0401809
0.0401738
0.040164
0.0401503
0.0401313
0.0401065
0.040076
0.0400414
0.0400056
0.0399725
0.0399455
0.0399267
0.0399162
0.039912
0.0399111
0.0541342
0.0440378
0.0438079
0.0438427
0.0438023
0.0437223
0.0436436
0.043571
0.0435113
0.0434563
0.0433986
0.0433336
0.043262
0.0431855
0.0431054
0.0430222
0.042936
0.0428473
0.0427567
0.0426652
0.0425728
0.0424787
0.0423811
0.0422783
0.0421688
0.0420516
0.0419266
0.0417938
0.0416533
0.0415056
0.0413514
0.0411915
0.0410269
0.0408596
0.0406926
0.0405295
0.0403738
0.0402287
0.040097
0.0399814
0.0398836
0.0398043
0.0397429
0.0396982
0.0396683
0.0396519
0.0396467
0.0396524
0.0396688
0.039693
0.0397236
0.0397595
0.039795
0.0398385
0.0398667
0.0398988
0.0399209
0.0399426
0.0399634
0.0399824
0.0399996
0.0400228
0.0400419
0.0400604
0.0400758
0.0400914
0.0401087
0.0401269
0.0401419
0.0401537
0.0401632
0.0401713
0.0401769
0.0401816
0.0401896
0.0401991
0.0402115
0.0402236
0.0402338
0.0402396
0.0402404
0.0402365
0.0402284
0.0402195
0.0402106
0.0402034
0.0401979
0.0401938
0.0401906
0.0401879
0.0401852
0.0401822
0.0401783
0.0401736
0.0401676
0.0401607
0.0401526
0.0401438
0.0401346
0.0401254
0.0401167
0.0401089
0.040102
0.0400961
0.0400908
0.0400857
0.04008
0.0400729
0.0400632
0.0400497
0.0400313
0.0400073
0.0399777
0.0399443
0.0399097
0.0398777
0.0398517
0.0398338
0.0398239
0.0398204
0.0398203
0.0541346
0.0440355
0.0438009
0.0438387
0.0437989
0.0437194
0.0436412
0.0435689
0.0435095
0.0434547
0.0433972
0.0433321
0.0432604
0.0431838
0.0431035
0.0430201
0.0429337
0.0428448
0.042754
0.0426622
0.0425694
0.0424749
0.0423769
0.0422737
0.0421635
0.0420455
0.0419194
0.0417852
0.0416431
0.0414937
0.0413375
0.0411754
0.0410084
0.0408385
0.0406688
0.0405029
0.0403445
0.0401969
0.0400628
0.0399449
0.039845
0.0397637
0.0397006
0.0396543
0.0396232
0.0396056
0.0395993
0.0396039
0.0396195
0.0396432
0.0396733
0.0397089
0.0397443
0.0397887
0.0398167
0.0398497
0.0398701
0.0398898
0.0399087
0.0399276
0.0399477
0.039975
0.0399984
0.0400202
0.0400355
0.0400476
0.0400606
0.0400738
0.0400847
0.0400934
0.0401019
0.0401106
0.0401183
0.0401264
0.0401371
0.0401476
0.0401578
0.0401651
0.0401686
0.040168
0.0401628
0.0401536
0.0401433
0.0401323
0.0401229
0.0401152
0.0401095
0.0401052
0.040102
0.0400991
0.0400962
0.0400928
0.0400884
0.0400831
0.0400765
0.0400688
0.0400601
0.0400507
0.0400408
0.040031
0.0400216
0.0400131
0.0400055
0.0399989
0.039993
0.0399874
0.0399812
0.0399738
0.039964
0.0399506
0.0399324
0.0399087
0.0398797
0.039847
0.0398132
0.0397821
0.0397569
0.0397396
0.0397302
0.0397269
0.0397275
0.0541351
0.0440331
0.0437939
0.0438345
0.0437954
0.0437165
0.0436387
0.0435668
0.0435077
0.0434531
0.0433957
0.0433306
0.0432588
0.043182
0.0431016
0.0430181
0.0429315
0.0428424
0.0427513
0.0426592
0.042566
0.0424711
0.0423728
0.042269
0.0421582
0.0420394
0.0419122
0.0417766
0.041633
0.0414818
0.0413236
0.0411593
0.0409899
0.0408174
0.0406449
0.0404763
0.0403153
0.0401651
0.0400287
0.0399085
0.0398063
0.039723
0.0396581
0.0396103
0.0395779
0.0395591
0.0395516
0.039555
0.0395696
0.0395927
0.0396223
0.0396575
0.0396928
0.0397378
0.0397661
0.0398003
0.0398201
0.0398389
0.0398553
0.0398718
0.0398917
0.0399209
0.0399473
0.0399718
0.0399869
0.0399953
0.0400034
0.0400117
0.0400195
0.0400269
0.0400359
0.0400465
0.040057
0.040068
0.0400798
0.0400893
0.0400963
0.0400987
0.0400971
0.040091
0.040081
0.0400696
0.0400573
0.0400459
0.0400362
0.0400283
0.0400223
0.0400176
0.040014
0.0400107
0.0400073
0.0400032
0.0399983
0.0399922
0.0399849
0.0399767
0.0399675
0.0399577
0.0399475
0.0399374
0.0399277
0.0399187
0.0399107
0.0399036
0.0398972
0.039891
0.0398845
0.0398767
0.0398665
0.039853
0.0398347
0.0398112
0.0397824
0.0397499
0.0397165
0.0396858
0.039661
0.0396442
0.039635
0.0396319
0.0396329
0.0541358
0.0440306
0.0437868
0.0438303
0.0437919
0.0437136
0.0436362
0.0435647
0.0435059
0.0434515
0.0433942
0.0433291
0.0432572
0.0431802
0.0430997
0.043016
0.0429292
0.0428399
0.0427486
0.0426562
0.0425627
0.0424674
0.0423686
0.0422644
0.042153
0.0420333
0.041905
0.0417681
0.0416229
0.0414699
0.0413097
0.0411432
0.0409715
0.0407964
0.0406211
0.0404497
0.040286
0.0401334
0.0399946
0.039872
0.0397676
0.0396821
0.0396154
0.039566
0.0395321
0.039512
0.0395032
0.0395055
0.0395189
0.0395413
0.0395704
0.0396051
0.0396404
0.0396855
0.0397144
0.0397499
0.0397695
0.0397884
0.0398036
0.0398181
0.0398352
0.0398624
0.0398886
0.0399138
0.0399285
0.0399348
0.0399394
0.0399441
0.03995
0.0399571
0.0399672
0.0399796
0.0399916
0.0400031
0.0400135
0.0400204
0.040024
0.0400232
0.0400181
0.0400092
0.0399975
0.0399849
0.0399723
0.039961
0.0399513
0.0399435
0.0399372
0.0399323
0.0399281
0.0399242
0.0399199
0.0399148
0.0399087
0.0399016
0.0398935
0.0398846
0.0398749
0.0398648
0.0398543
0.039844
0.0398341
0.0398248
0.0398164
0.039809
0.0398022
0.0397956
0.0397887
0.0397805
0.0397701
0.0397562
0.0397377
0.039714
0.0396849
0.0396523
0.0396187
0.0395879
0.0395631
0.0395463
0.0395372
0.0395342
0.0395353
0.0541366
0.044028
0.0437797
0.043826
0.0437884
0.0437107
0.0436337
0.0435625
0.0435041
0.0434499
0.0433927
0.0433276
0.0432555
0.0431785
0.0430978
0.043014
0.042927
0.0428375
0.0427459
0.0426531
0.0425593
0.0424636
0.0423645
0.0422597
0.0421477
0.0420272
0.0418978
0.0417596
0.0416129
0.0414581
0.0412959
0.0411272
0.040953
0.0407753
0.0405974
0.0404232
0.0402569
0.0401018
0.0399606
0.0398357
0.039729
0.0396413
0.0395726
0.0395215
0.0394861
0.0394646
0.0394546
0.0394556
0.0394677
0.0394892
0.0395178
0.0395521
0.0395876
0.039632
0.0396607
0.0396969
0.0397177
0.0397387
0.0397547
0.0397687
0.039782
0.0398034
0.0398255
0.0398494
0.039864
0.0398698
0.0398728
0.0398757
0.0398814
0.0398895
0.0399008
0.0399137
0.0399245
0.0399333
0.03994
0.0399432
0.0399441
0.0399412
0.0399349
0.0399258
0.0399141
0.0399015
0.0398889
0.0398774
0.0398675
0.0398594
0.0398528
0.0398474
0.0398426
0.0398376
0.0398321
0.0398255
0.039818
0.0398096
0.0398005
0.0397908
0.0397807
0.0397703
0.0397597
0.0397493
0.0397393
0.03973
0.0397216
0.0397141
0.0397071
0.0397004
0.0396933
0.0396849
0.0396742
0.0396602
0.0396414
0.0396174
0.039588
0.0395549
0.0395208
0.0394895
0.0394644
0.0394474
0.0394383
0.0394353
0.0394366
0.0541376
0.0440253
0.0437725
0.0438217
0.0437848
0.0437077
0.0436312
0.0435604
0.0435022
0.0434484
0.0433912
0.0433261
0.0432539
0.0431767
0.0430959
0.0430119
0.0429248
0.042835
0.0427432
0.0426501
0.042556
0.0424599
0.0423603
0.0422551
0.0421425
0.0420212
0.0418907
0.0417512
0.0416029
0.0414463
0.0412821
0.0411112
0.0409346
0.0407543
0.0405736
0.0403967
0.0402278
0.0400702
0.0399267
0.0397995
0.0396904
0.0396004
0.0395295
0.0394765
0.0394396
0.0394166
0.0394054
0.039405
0.0394156
0.0394363
0.0394643
0.0394981
0.039534
0.0395775
0.0396062
0.0396422
0.0396634
0.0396872
0.0397061
0.0397219
0.0397321
0.0397472
0.0397628
0.0397836
0.039798
0.0398049
0.0398088
0.0398124
0.0398193
0.0398285
0.0398395
0.0398499
0.0398557
0.0398587
0.0398601
0.0398596
0.039859
0.039856
0.039851
0.0398431
0.0398324
0.0398202
0.0398073
0.0397954
0.0397851
0.0397768
0.0397699
0.039764
0.0397582
0.039752
0.0397446
0.0397363
0.039727
0.039717
0.0397067
0.0396961
0.0396853
0.0396744
0.0396636
0.0396531
0.039643
0.0396338
0.0396254
0.0396179
0.039611
0.0396043
0.0395972
0.0395888
0.039578
0.0395638
0.0395449
0.0395205
0.0394906
0.0394569
0.039422
0.0393899
0.0393641
0.0393468
0.0393375
0.0393345
0.0393357
0.0541388
0.0440225
0.0437652
0.0438172
0.0437812
0.0437047
0.0436286
0.0435583
0.0435004
0.0434468
0.0433897
0.0433245
0.0432523
0.0431749
0.043094
0.0430099
0.0429225
0.0428326
0.0427405
0.0426472
0.0425527
0.0424562
0.0423562
0.0422506
0.0421374
0.0420152
0.0418837
0.0417428
0.0415929
0.0414345
0.0412683
0.0410952
0.0409162
0.0407334
0.04055
0.0403704
0.0401989
0.0400388
0.039893
0.0397635
0.039652
0.0395596
0.0394865
0.0394315
0.0393928
0.0393682
0.0393558
0.039354
0.039363
0.0393827
0.03941
0.0394434
0.0394798
0.0395222
0.0395512
0.0395859
0.039606
0.0396315
0.0396547
0.0396758
0.0396862
0.039697
0.039705
0.0397215
0.0397353
0.0397452
0.0397529
0.0397599
0.0397686
0.0397772
0.0397849
0.0397898
0.0397882
0.0397844
0.0397807
0.0397778
0.0397773
0.0397761
0.0397731
0.0397668
0.0397564
0.0397431
0.0397287
0.0397155
0.0397042
0.0396951
0.0396875
0.0396809
0.0396737
0.0396658
0.0396564
0.039646
0.0396348
0.0396233
0.0396117
0.0396001
0.0395885
0.0395771
0.0395658
0.039555
0.0395448
0.0395356
0.0395272
0.0395199
0.0395132
0.0395067
0.0394998
0.0394915
0.039481
0.0394669
0.0394479
0.0394234
0.0393931
0.0393587
0.0393228
0.0392898
0.0392632
0.0392452
0.0392357
0.0392326
0.0392337
0.0541404
0.0440196
0.0437578
0.0438127
0.0437775
0.0437017
0.0436261
0.0435562
0.0434986
0.0434452
0.0433882
0.043323
0.0432506
0.0431732
0.0430921
0.0430078
0.0429203
0.0428301
0.0427378
0.0426442
0.0425494
0.0424526
0.0423521
0.042246
0.0421322
0.0420093
0.0418766
0.0417344
0.041583
0.0414228
0.0412546
0.0410793
0.0408978
0.0407125
0.0405264
0.0403441
0.04017
0.0400075
0.0398593
0.0397275
0.0396136
0.0395188
0.0394432
0.0393861
0.0393455
0.0393193
0.0393055
0.0393022
0.0393096
0.0393281
0.0393548
0.0393877
0.0394246
0.0394661
0.0394957
0.0395295
0.0395484
0.0395738
0.039599
0.0396254
0.0396401
0.0396512
0.0396551
0.0396682
0.0396814
0.0396948
0.0397078
0.0397188
0.039728
0.0397334
0.0397351
0.0397333
0.0397241
0.0397136
0.0397061
0.0397026
0.0397035
0.0397042
0.0397028
0.0396966
0.0396845
0.0396687
0.039652
0.0396371
0.0396247
0.0396148
0.0396063
0.0395984
0.0395896
0.0395796
0.039568
0.0395556
0.0395426
0.0395296
0.0395168
0.0395042
0.0394917
0.0394795
0.0394675
0.0394561
0.0394455
0.039436
0.0394275
0.0394202
0.0394136
0.0394073
0.0394006
0.0393926
0.0393823
0.0393684
0.0393497
0.0393251
0.0392946
0.0392595
0.0392228
0.0391887
0.0391611
0.0391424
0.0391326
0.0391294
0.0391303
0.0541417
0.0440165
0.0437503
0.0438081
0.0437737
0.0436987
0.0436235
0.043554
0.0434968
0.0434436
0.0433867
0.0433215
0.043249
0.0431714
0.0430902
0.0430057
0.0429181
0.0428277
0.0427351
0.0426413
0.0425461
0.0424489
0.0423481
0.0422415
0.0421271
0.0420033
0.0418696
0.0417261
0.0415731
0.0414112
0.0412409
0.0410633
0.0408795
0.0406916
0.0405029
0.040318
0.0401412
0.0399763
0.0398258
0.0396917
0.0395754
0.0394781
0.0394
0.0393405
0.0392979
0.0392699
0.0392546
0.0392497
0.0392556
0.0392729
0.0392988
0.0393311
0.0393683
0.039409
0.0394399
0.039473
0.0394915
0.0395157
0.0395402
0.0395689
0.039589
0.0396044
0.0396104
0.0396234
0.0396361
0.0396521
0.0396687
0.0396817
0.0396892
0.0396901
0.0396864
0.039678
0.0396626
0.0396496
0.0396417
0.0396399
0.0396424
0.0396439
0.0396415
0.0396325
0.0396165
0.0395971
0.0395778
0.0395611
0.0395474
0.0395363
0.0395264
0.0395166
0.0395054
0.039493
0.039479
0.0394646
0.0394499
0.0394357
0.0394218
0.0394082
0.0393948
0.0393816
0.0393687
0.0393565
0.0393452
0.0393351
0.0393263
0.0393187
0.039312
0.0393058
0.0392992
0.0392914
0.0392815
0.039268
0.0392496
0.0392253
0.0391948
0.0391593
0.0391217
0.0390865
0.0390578
0.0390383
0.039028
0.0390247
0.0390255
0.0541435
0.0440133
0.0437428
0.0438035
0.04377
0.0436956
0.0436209
0.0435519
0.043495
0.043442
0.0433852
0.04332
0.0432474
0.0431696
0.0430882
0.0430037
0.0429158
0.0428253
0.0427325
0.0426383
0.0425429
0.0424453
0.042344
0.0422369
0.0421219
0.0419974
0.0418627
0.0417178
0.0415632
0.0413995
0.0412273
0.0410474
0.0408612
0.0406707
0.0404795
0.0402919
0.0401125
0.0399452
0.0397924
0.0396559
0.0395372
0.0394373
0.0393566
0.0392946
0.0392497
0.0392198
0.0392028
0.0391964
0.0392007
0.0392167
0.0392418
0.0392735
0.0393107
0.0393509
0.0393834
0.039417
0.0394358
0.0394583
0.0394804
0.0395082
0.039532
0.0395525
0.0395643
0.0395796
0.0395927
0.0396095
0.0396268
0.0396391
0.0396438
0.0396413
0.0396337
0.039622
0.0396055
0.0395942
0.0395887
0.039589
0.0395913
0.0395908
0.0395844
0.03957
0.0395491
0.0395262
0.0395049
0.0394868
0.0394721
0.0394595
0.0394479
0.0394358
0.0394221
0.039407
0.0393907
0.0393743
0.0393581
0.0393427
0.0393277
0.0393131
0.0392987
0.0392845
0.0392705
0.0392572
0.0392449
0.0392339
0.0392243
0.0392161
0.039209
0.0392024
0.0391957
0.039188
0.0391782
0.039165
0.039147
0.0391231
0.0390928
0.039057
0.0390188
0.0389824
0.0389525
0.0389321
0.0389212
0.0389175
0.0389183
0.0541457
0.0440101
0.0437351
0.0437987
0.0437661
0.0436925
0.0436183
0.0435497
0.0434932
0.0434404
0.0433837
0.0433184
0.0432457
0.0431678
0.0430863
0.0430016
0.0429136
0.0428229
0.0427298
0.0426354
0.0425396
0.0424417
0.04234
0.0422324
0.0421168
0.0419915
0.0418557
0.0417095
0.0415534
0.0413879
0.0412137
0.0410315
0.0408429
0.0406499
0.0404561
0.0402659
0.040084
0.0399142
0.0397591
0.0396204
0.0394992
0.0393966
0.0393132
0.0392485
0.0392012
0.0391692
0.0391504
0.0391423
0.0391451
0.0391597
0.0391838
0.0392149
0.039252
0.0392916
0.0393255
0.0393601
0.0393812
0.0394036
0.0394226
0.0394462
0.0394709
0.0394938
0.0395106
0.0395289
0.0395433
0.0395598
0.0395753
0.0395849
0.0395871
0.0395827
0.0395748
0.0395644
0.0395525
0.0395459
0.0395437
0.0395441
0.0395441
0.0395382