/*--------------------------------*- C++ -*----------------------------------*\
| =========                 |                                                 |
| \\      /  F ield         | OpenFOAM: The Open Source CFD Toolbox           |
|  \\    /   O peration     | Version:  2412                                  |
|   \\  /    A nd           | Website:  www.openfoam.com                      |
|    \\/     M anipulation  |                                                 |
\*---------------------------------------------------------------------------*/
FoamFile
{
    version     2.0;
    format      ascii;
    arch        "LSB;label=32;scalar=64";
    class       volScalarField;
    location    "0.052";
    object      p;
}
// * * * * * * * * * * * * * * * * * * * * * * * * * * * * * * * * * * * * * //

dimensions      [1 -1 -2 0 0 0 0];

internalField   nonuniform List<scalar> 
9816
(
2954.89
2955.64
2956.25
2956.71
2957.04
2957.23
2957.33
2957.32
2957.2
2957.03
2956.76
2956.41
2955.99
2955.51
2954.96
2954.35
2953.61
2953.04
2952.28
2951.5
2950.69
2949.81
2948.89
2947.88
2946.84
2945.67
2944.56
2943.31
2942.29
2941.08
2939.93
2938.8
2937.9
2936.75
2935.5
2934.57
2933.97
2933.15
2931.39
2930.44
2930.41
2928.29
2895.12
2894.76
2894.35
2893.89
2893.4
2892.86
2892.31
2891.75
2891.15
2890.56
2889.97
2889.36
2888.74
2888.11
2887.43
2886.94
2886.32
2885.74
2885.16
2884.58
2884.01
2883.47
2883
2882.52
2882.25
2881.99
2881.81
2881.48
2881.15
2880.6
2880.15
2879.56
2879.34
2878.74
2878.39
2877.85
2877.9
2877.32
2877.77
2877.78
2876.96
2875.96
2869.25
2868.9
2868.54
2868.16
2867.78
2867.4
2867
2866.62
2866.23
2865.85
2865.47
2865.1
2864.71
2864.4
2864.05
2863.73
2863.42
2863.11
2862.83
2862.57
2862.33
2862.12
2861.94
2861.77
2861.47
2861.16
2860.86
2860.6
2860.32
2860.14
2859.94
2859.71
2859.68
2859.66
2858.79
2858.66
2860.12
2860.39
2859.04
2857.79
2857.91
2858.11
2852.73
2852.49
2852.25
2852
2851.76
2851.52
2851.28
2851.04
2850.82
2850.59
2850.36
2850.16
2849.94
2849.75
2849.56
2849.36
2849.17
2849.02
2848.81
2848.67
2848.46
2848.37
2848.14
2848.03
2847.81
2847.68
2847.51
2847.43
2847.24
2847.12
2847.46
2846.94
2845.95
2846.96
2848.37
2847.76
2845.92
2845.65
2845.79
2846.02
2846.7
2847.2
2841.87
2841.75
2841.63
2841.51
2841.39
2841.27
2841.15
2841.04
2840.92
2840.81
2840.69
2840.6
2840.5
2840.4
2840.3
2840.21
2840.11
2840.02
2839.92
2839.83
2839.76
2839.64
2839.57
2839.42
2839.38
2839.31
2839.27
2838.95
2839.34
2839.58
2838.22
2838
2839.79
2840.44
2839.47
2837.92
2837.76
2837.77
2838.2
2838.88
2839.51
2839.73
2834.14
2834.11
2834.06
2834.02
2833.97
2833.92
2833.87
2833.82
2833.74
2833.71
2833.63
2833.6
2833.55
2833.49
2833.44
2833.38
2833.34
2833.28
2833.25
2833.2
2833.16
2833.11
2833.05
2833.02
2833.07
2832.88
2832.78
2833.3
2833.08
2831.61
2832.36
2834.04
2834.11
2832.88
2831.81
2831.66
2831.81
2832.29
2832.96
2833.5
2833.67
2833.37
2828.01
2828.02
2828.02
2828.02
2828.01
2828
2827.97
2827.98
2827.95
2827.93
2827.91
2827.9
2827.88
2827.84
2827.78
2827.77
2827.78
2827.73
2827.76
2827.72
2827.71
2827.69
2827.69
2827.66
2827.7
2827.43
2827.33
2828.59
2828.1
2826.16
2826.41
2827.74
2828.51
2828.59
2828.1
2827.29
2826.83
2826.65
2826.8
2827.23
2827.77
2828.23
2822.95
2823.02
2823.05
2823.1
2823.14
2823.18
2823.18
2823.17
2823.2
2823.24
2823.28
2823.24
2823.19
2823.17
2823.33
2823.3
2823.14
2823.31
2823.25
2823.21
2823.25
2823.23
2823.24
2823.19
2823.28
2823.6
2822.83
2822.4
2823.82
2824.5
2823.54
2822.46
2822.41
2822.69
2823.15
2823.62
2823.91
2823.88
2823.64
2823.28
2822.9
2822.65
2818.91
2818.99
2819.06
2819.13
2819.18
2819.23
2819.28
2819.34
2819.39
2819.42
2819.43
2819.46
2819.52
2819.6
2819.55
2819.6
2819.67
2819.63
2819.67
2819.71
2819.72
2819.72
2819.71
2819.75
2820.14
2819.64
2819.17
2820.34
2821.1
2819.97
2818.94
2819.12
2819.54
2820.2
2820.7
2820.79
2820.55
2820.15
2819.71
2819.38
2819.26
2819.43
2815.73
2815.84
2815.95
2816.06
2816.16
2816.24
2816.33
2816.42
2816.51
2816.59
2816.67
2816.69
2816.77
2816.92
2816.89
2816.95
2817.08
2817.06
2817.11
2817.22
2817.23
2817.28
2817.26
2817.41
2817.59
2816.89
2817.22
2818.47
2817.99
2816.52
2816.51
2816.98
2817.81
2818.36
2818.38
2818.09
2817.61
2817.19
2816.89
2816.86
2817.08
2817.54
2813.16
2813.32
2813.46
2813.6
2813.73
2813.85
2813.96
2814.07
2814.18
2814.27
2814.36
2814.42
2814.47
2814.57
2814.55
2814.66
2814.64
2814.77
2814.7
2814.87
2814.81
2814.92
2814.86
2815.04
2815.08
2814.56
2815.18
2816.1
2815.2
2814
2814.36
2815.05
2815.8
2816.13
2815.94
2815.49
2815.02
2814.73
2814.6
2814.77
2815.14
2815.62
2810.85
2811.01
2811.16
2811.3
2811.43
2811.56
2811.67
2811.78
2811.89
2811.99
2812.09
2812.18
2812.27
2812.39
2812.43
2812.6
2812.58
2812.78
2812.71
2812.91
2812.86
2812.99
2812.96
2813.12
2813.01
2812.7
2813.53
2814.04
2812.87
2812.08
2812.69
2813.54
2814.05
2814.17
2813.84
2813.32
2812.95
2812.78
2812.83
2813.13
2813.57
2814.01
2808.87
2809.05
2809.23
2809.39
2809.55
2809.69
2809.83
2809.97
2810.1
2810.23
2810.35
2810.45
2810.56
2810.66
2810.74
2810.87
2810.9
2811.06
2811.07
2811.22
2811.23
2811.33
2811.43
2811.42
2811.24
2811.66
2812.24
2811.23
2810.6
2811.41
2812.29
2812.47
2812.21
2811.69
2811.27
2811.19
2811.3
2811.63
2812.04
2812.4
2812.59
2812.57
2807.21
2807.41
2807.61
2807.79
2807.96
2808.12
2808.27
2808.41
2808.54
2808.68
2808.79
2808.89
2809.02
2809.08
2809.21
2809.26
2809.38
2809.4
2809.5
2809.55
2809.63
2809.67
2809.7
2809.76
2810.05
2809.69
2809.36
2810.18
2810.77
2810.19
2809.45
2809.48
2809.72
2810.1
2810.49
2810.62
2810.57
2810.41
2810.16
2809.95
2809.83
2809.87
2805.55
2805.76
2805.95
2806.16
2806.33
2806.51
2806.68
2806.83
2806.98
2807.12
2807.26
2807.38
2807.53
2807.62
2807.76
2807.83
2807.97
2808.03
2808.14
2808.19
2808.28
2808.28
2808.34
2808.52
2808.63
2808.09
2808.36
2809.35
2809.18
2808.19
2807.99
2808.26
2808.76
2809.23
2809.41
2809.34
2809.07
2808.78
2808.52
2808.4
2808.44
2808.68
2804.02
2804.22
2804.42
2804.61
2804.79
2804.96
2805.13
2805.29
2805.45
2805.6
2805.74
2805.86
2806.02
2806.1
2806.27
2806.32
2806.5
2806.53
2806.69
2806.72
2806.88
2806.88
2807
2807.11
2807.13
2806.81
2807.41
2807.94
2807.25
2806.53
2806.86
2807.37
2807.87
2808.08
2807.94
2807.63
2807.34
2807.17
2807.12
2807.27
2807.54
2807.87
2802.9
2803.12
2803.33
2803.53
2803.72
2803.9
2804.07
2804.22
2804.36
2804.5
2804.63
2804.71
2804.87
2804.93
2805.11
2805.13
2805.31
2805.32
2805.48
2805.51
2805.62
2805.68
2805.74
2805.87
2805.82
2805.7
2806.21
2806.52
2805.77
2805.34
2805.87
2806.52
2806.71
2806.66
2806.39
2806.05
2805.91
2805.91
2806.08
2806.36
2806.66
2806.88
2801.75
2801.96
2802.15
2802.33
2802.5
2802.67
2802.82
2802.97
2803.12
2803.26
2803.41
2803.53
2803.64
2803.77
2803.84
2803.99
2804.03
2804.2
2804.2
2804.39
2804.36
2804.53
2804.52
2804.7
2804.59
2804.69
2805.01
2804.99
2804.36
2804.59
2805.32
2805.59
2805.38
2804.84
2804.71
2804.72
2804.9
2805.19
2805.46
2805.63
2805.65
2805.55
2800.69
2800.9
2801.09
2801.28
2801.45
2801.62
2801.78
2801.92
2802.07
2802.2
2802.34
2802.48
2802.56
2802.73
2802.76
2802.96
2802.94
2803.16
2803.13
2803.32
2803.32
2803.44
2803.5
2803.56
2803.59
2803.67
2803.94
2803.67
2803.36
2803.91
2804.51
2804.35
2803.79
2803.5
2803.65
2803.9
2804.25
2804.51
2804.59
2804.5
2804.33
2804.11
2799.71
2799.91
2800.11
2800.3
2800.48
2800.65
2800.81
2800.96
2801.11
2801.25
2801.38
2801.51
2801.62
2801.75
2801.84
2801.95
2802.05
2802.12
2802.24
2802.27
2802.4
2802.41
2802.55
2802.54
2802.63
2802.71
2802.82
2802.54
2802.77
2803.3
2803.13
2802.54
2802.48
2802.82
2803.21
2803.44
2803.48
2803.33
2803.1
2802.94
2802.88
2802.94
2798.67
2798.87
2799.06
2799.25
2799.42
2799.58
2799.74
2799.9
2800.05
2800.19
2800.32
2800.46
2800.58
2800.68
2800.81
2800.89
2801.03
2801.06
2801.23
2801.22
2801.39
2801.38
2801.52
2801.53
2801.61
2801.63
2801.73
2801.87
2801.67
2801.64
2802.1
2802.3
2801.96
2801.65
2801.7
2801.91
2802.18
2802.4
2802.44
2802.36
2802.21
2802.07
2797.83
2798.03
2798.22
2798.4
2798.57
2798.74
2798.9
2799.05
2799.19
2799.33
2799.46
2799.59
2799.71
2799.81
2799.93
2800.01
2800.14
2800.21
2800.33
2800.4
2800.48
2800.56
2800.62
2800.7
2800.75
2800.8
2800.85
2800.99
2800.99
2800.75
2801.01
2801.46
2801.36
2800.92
2800.77
2800.96
2801.21
2801.48
2801.64
2801.62
2801.45
2801.25
2797.16
2797.36
2797.56
2797.74
2797.91
2798.08
2798.23
2798.38
2798.52
2798.65
2798.77
2798.89
2799
2799.11
2799.19
2799.31
2799.36
2799.49
2799.51
2799.68
2799.67
2799.85
2799.82
2799.98
2799.97
2800.09
2800.08
2800.17
2800.29
2800.26
2800.07
2800.34
2800.72
2800.62
2800.25
2800.12
2800.28
2800.51
2800.75
2800.89
2800.89
2800.75
2796.58
2796.78
2796.97
2797.15
2797.32
2797.49
2797.64
2797.79
2797.93
2798.07
2798.2
2798.32
2798.44
2798.56
2798.64
2798.78
2798.83
2798.97
2798.99
2799.12
2799.15
2799.26
2799.32
2799.39
2799.46
2799.51
2799.58
2799.62
2799.63
2799.77
2799.87
2799.65
2799.6
2799.95
2800.2
2800.14
2799.89
2799.72
2799.73
2799.89
2800.09
2800.28
2796.07
2796.27
2796.46
2796.64
2796.81
2796.97
2797.13
2797.28
2797.42
2797.55
2797.68
2797.81
2797.93
2798.04
2798.14
2798.25
2798.34
2798.44
2798.53
2798.59
2798.7
2798.72
2798.84
2798.84
2798.96
2798.96
2799.06
2799.05
2799.15
2799.23
2799.15
2799.1
2799.4
2799.55
2799.33
2799.14
2799.17
2799.34
2799.53
2799.66
2799.71
2799.63
2795.64
2795.84
2796.02
2796.21
2796.38
2796.54
2796.7
2796.85
2796.99
2797.13
2797.26
2797.38
2797.5
2797.62
2797.72
2797.82
2797.92
2798
2798.11
2798.16
2798.29
2798.29
2798.42
2798.41
2798.52
2798.52
2798.6
2798.62
2798.67
2798.66
2798.78
2798.86
2798.73
2798.7
2798.9
2799.05
2799.06
2798.97
2798.88
2798.86
2798.92
2799.04
2795.22
2795.42
2795.61
2795.79
2795.96
2796.12
2796.28
2796.43
2796.58
2796.72
2796.85
2796.97
2797.09
2797.21
2797.31
2797.42
2797.51
2797.61
2797.69
2797.77
2797.86
2797.91
2797.99
2798.03
2798.1
2798.14
2798.19
2798.23
2798.28
2798.3
2798.32
2798.44
2798.49
2798.38
2798.38
2798.52
2798.64
2798.67
2798.63
2798.58
2798.56
2798.57
2794.85
2795.03
2795.22
2795.39
2795.56
2795.72
2795.87
2796.02
2796.16
2796.3
2796.43
2796.56
2796.69
2796.81
2796.91
2797.03
2797.13
2797.24
2797.32
2797.42
2797.49
2797.57
2797.65
2797.7
2797.78
2797.81
2797.89
2797.92
2797.99
2798.02
2798.07
2798.09
2798.16
2798.19
2798.19
2798.21
2798.28
2798.33
2798.36
2798.37
2798.37
2798.38
2794.66
2794.87
2795.07
2795.26
2795.44
2795.62
2795.78
2795.94
2796.09
2796.22
2796.35
2796.47
2796.59
2796.69
2796.78
2796.88
2796.95
2797.05
2797.13
2797.21
2797.31
2797.36
2797.46
2797.49
2797.58
2797.61
2797.69
2797.72
2797.78
2797.82
2797.87
2797.89
2797.94
2797.97
2798.01
2798.03
2798.07
2798.09
2798.12
2798.15
2798.17
2798.2
2794.51
2794.71
2794.9
2795.09
2795.26
2795.42
2795.57
2795.71
2795.85
2795.98
2796.11
2796.23
2796.35
2796.46
2796.57
2796.66
2796.78
2796.84
2796.96
2796.98
2797.13
2797.14
2797.29
2797.29
2797.42
2797.43
2797.53
2797.55
2797.62
2797.65
2797.7
2797.74
2797.78
2797.82
2797.85
2797.89
2797.91
2797.95
2797.97
2798
2798.03
2798.05
2794.44
2794.64
2794.84
2795.03
2795.2
2795.37
2795.53
2795.69
2795.83
2795.98
2796.11
2796.24
2796.36
2796.48
2796.59
2796.68
2796.81
2796.86
2797.01
2797.03
2797.19
2797.17
2797.32
2797.31
2797.43
2797.46
2797.54
2797.59
2797.65
2797.69
2797.74
2797.78
2797.83
2797.86
2797.9
2797.93
2797.96
2797.99
2798.02
2798.04
2798.07
2798.1
2794.39
2794.6
2794.8
2794.99
2795.18
2795.35
2795.51
2795.68
2795.82
2795.97
2796.11
2796.24
2796.37
2796.49
2796.61
2796.7
2796.84
2796.9
2797.06
2797.07
2797.23
2797.22
2797.36
2797.35
2797.44
2797.44
2797.5
2797.53
2797.59
2797.63
2797.68
2797.72
2797.76
2797.79
2797.83
2797.86
2797.89
2797.92
2797.95
2797.98
2798.01
2798.03
2794.38
2794.59
2794.79
2794.99
2795.17
2795.35
2795.51
2795.67
2795.82
2795.97
2796.1
2796.24
2796.36
2796.49
2796.6
2796.69
2796.82
2796.88
2797.01
2797.04
2797.18
2797.18
2797.33
2797.34
2797.45
2797.49
2797.56
2797.6
2797.65
2797.7
2797.73
2797.78
2797.81
2797.85
2797.88
2797.91
2797.95
2797.97
2798
2798.03
2798.06
2798.08
2794.4
2794.61
2794.82
2795.01
2795.2
2795.37
2795.54
2795.7
2795.85
2796
2796.14
2796.27
2796.4
2796.52
2796.62
2796.75
2796.83
2796.94
2797.02
2797.11
2797.2
2797.26
2797.36
2797.41
2797.5
2797.55
2797.62
2797.67
2797.71
2797.76
2797.79
2797.84
2797.87
2797.91
2797.94
2797.97
2798
2798.03
2798.06
2798.09
2798.12
2798.14
2794.45
2794.67
2794.88
2795.08
2795.27
2795.44
2795.61
2795.78
2795.93
2796.08
2796.22
2796.35
2796.49
2796.61
2796.71
2796.84
2796.9
2797.05
2797.09
2797.24
2797.26
2797.4
2797.43
2797.54
2797.58
2797.66
2797.69
2797.75
2797.79
2797.83
2797.87
2797.91
2797.95
2797.98
2798.02
2798.05
2798.08
2798.11
2798.14
2798.16
2798.19
2798.21
2794.47
2794.69
2794.9
2795.09
2795.28
2795.46
2795.63
2795.79
2795.94
2796.09
2796.22
2796.36
2796.49
2796.59
2796.73
2796.81
2796.94
2797.02
2797.13
2797.22
2797.32
2797.38
2797.47
2797.51
2797.6
2797.61
2797.68
2797.71
2797.77
2797.8
2797.85
2797.88
2797.92
2797.96
2797.99
2798.02
2798.05
2798.08
2798.1
2798.13
2798.14
2798.18
2794.5
2794.71
2794.92
2795.11
2795.3
2795.47
2795.64
2795.79
2795.94
2796.08
2796.21
2796.34
2796.46
2796.56
2796.68
2796.75
2796.88
2796.92
2797.06
2797.09
2797.2
2797.23
2797.31
2797.34
2797.39
2797.46
2797.5
2797.57
2797.6
2797.65
2797.7
2797.74
2797.78
2797.81
2797.85
2797.88
2797.91
2797.94
2797.97
2798
2798.01
2798.05
2794.45
2794.66
2794.87
2795.06
2795.25
2795.42
2795.59
2795.75
2795.91
2796.05
2796.19
2796.32
2796.44
2796.56
2796.67
2796.76
2796.88
2796.94
2797.06
2797.09
2797.21
2797.23
2797.34
2797.37
2797.47
2797.51
2797.58
2797.62
2797.68
2797.72
2797.77
2797.81
2797.85
2797.88
2797.92
2797.95
2797.98
2798.02
2798.04
2798.07
2798.1
2798.13
2794.38
2794.59
2794.79
2794.98
2795.16
2795.34
2795.5
2795.66
2795.81
2795.95
2796.09
2796.22
2796.32
2796.45
2796.55
2796.65
2796.75
2796.83
2796.94
2797
2797.1
2797.16
2797.25
2797.3
2797.38
2797.43
2797.49
2797.54
2797.59
2797.64
2797.68
2797.72
2797.76
2797.8
2797.83
2797.87
2797.9
2797.93
2797.96
2797.99
2798.01
2798.04
2794.34
2794.54
2794.73
2794.92
2795.09
2795.26
2795.41
2795.56
2795.71
2795.84
2795.98
2796.1
2796.2
2796.33
2796.42
2796.53
2796.63
2796.71
2796.81
2796.88
2796.98
2797.03
2797.12
2797.17
2797.24
2797.3
2797.35
2797.41
2797.45
2797.5
2797.54
2797.58
2797.62
2797.66
2797.69
2797.73
2797.76
2797.79
2797.82
2797.84
2797.87
2797.9
2794.3
2794.5
2794.69
2794.87
2795.04
2795.2
2795.35
2795.5
2795.63
2795.76
2795.89
2796.01
2796.11
2796.23
2796.33
2796.43
2796.53
2796.61
2796.71
2796.77
2796.87
2796.93
2797.01
2797.06
2797.13
2797.18
2797.24
2797.28
2797.34
2797.38
2797.42
2797.47
2797.5
2797.54
2797.57
2797.61
2797.64
2797.67
2797.69
2797.72
2797.75
2797.77
2794.26
2794.45
2794.64
2794.82
2794.98
2795.14
2795.29
2795.44
2795.58
2795.7
2795.83
2795.95
2796.05
2796.16
2796.26
2796.35
2796.46
2796.53
2796.64
2796.69
2796.79
2796.84
2796.92
2796.98
2797.04
2797.09
2797.14
2797.19
2797.24
2797.28
2797.32
2797.36
2797.4
2797.44
2797.47
2797.5
2797.53
2797.56
2797.59
2797.61
2797.64
2797.67
2794.18
2794.38
2794.56
2794.74
2794.91
2795.06
2795.21
2795.36
2795.49
2795.62
2795.75
2795.87
2795.97
2796.07
2796.18
2796.26
2796.38
2796.43
2796.54
2796.59
2796.69
2796.73
2796.81
2796.86
2796.93
2796.98
2797.03
2797.08
2797.12
2797.16
2797.2
2797.24
2797.28
2797.31
2797.35
2797.38
2797.41
2797.44
2797.46
2797.49
2797.51
2797.54
2794.08
2794.27
2794.45
2794.62
2794.79
2794.94
2795.09
2795.23
2795.37
2795.5
2795.61
2795.74
2795.84
2795.94
2796.05
2796.13
2796.24
2796.29
2796.41
2796.45
2796.54
2796.59
2796.67
2796.72
2796.78
2796.83
2796.88
2796.93
2796.97
2797.02
2797.05
2797.09
2797.13
2797.17
2797.2
2797.23
2797.26
2797.29
2797.32
2797.34
2797.37
2797.39
2793.97
2794.16
2794.33
2794.5
2794.66
2794.81
2794.96
2795.1
2795.23
2795.35
2795.47
2795.59
2795.69
2795.78
2795.89
2795.96
2796.07
2796.12
2796.23
2796.27
2796.37
2796.41
2796.49
2796.54
2796.6
2796.65
2796.7
2796.74
2796.79
2796.83
2796.87
2796.91
2796.95
2796.98
2797.01
2797.04
2797.07
2797.1
2797.13
2797.15
2797.18
2797.2
2793.86
2794.04
2794.21
2794.37
2794.53
2794.68
2794.82
2794.96
2795.08
2795.2
2795.32
2795.43
2795.53
2795.63
2795.73
2795.8
2795.91
2795.96
2796.06
2796.11
2796.2
2796.25
2796.32
2796.37
2796.43
2796.48
2796.53
2796.57
2796.62
2796.66
2796.7
2796.73
2796.77
2796.8
2796.84
2796.87
2796.9
2796.92
2796.95
2796.98
2797
2797.02
2793.73
2793.91
2794.08
2794.24
2794.4
2794.54
2794.68
2794.82
2794.94
2795.06
2795.18
2795.29
2795.38
2795.48
2795.57
2795.66
2795.75
2795.82
2795.91
2795.96
2796.05
2796.09
2796.17
2796.21
2796.27
2796.32
2796.37
2796.42
2796.46
2796.5
2796.54
2796.57
2796.61
2796.64
2796.67
2796.7
2796.73
2796.76
2796.78
2796.81
2796.83
2796.85
2793.58
2793.76
2793.92
2794.08
2794.24
2794.38
2794.52
2794.65
2794.78
2794.89
2795.01
2795.12
2795.21
2795.32
2795.4
2795.49
2795.58
2795.65
2795.73
2795.79
2795.87
2795.92
2795.99
2796.03
2796.09
2796.14
2796.18
2796.23
2796.27
2796.31
2796.34
2796.38
2796.41
2796.44
2796.47
2796.5
2796.53
2796.55
2796.58
2796.6
2796.62
2796.65
2793.36
2793.53
2793.7
2793.85
2794
2794.14
2794.28
2794.4
2794.53
2794.64
2794.76
2794.86
2794.94
2795.06
2795.13
2795.24
2795.3
2795.39
2795.46
2795.53
2795.59
2795.65
2795.71
2795.76
2795.82
2795.86
2795.91
2795.95
2795.99
2796.03
2796.07
2796.1
2796.14
2796.17
2796.2
2796.22
2796.25
2796.28
2796.3
2796.32
2796.35
2796.37
2793.12
2793.28
2793.44
2793.58
2793.72
2793.85
2793.98
2794.1
2794.22
2794.33
2794.44
2794.53
2794.63
2794.72
2794.79
2794.9
2794.95
2795.05
2795.1
2795.18
2795.24
2795.3
2795.36
2795.41
2795.46
2795.51
2795.56
2795.6
2795.64
2795.68
2795.71
2795.75
2795.78
2795.81
2795.84
2795.87
2795.9
2795.92
2795.95
2795.97
2795.99
2796.01
2792.82
2792.98
2793.14
2793.29
2793.43
2793.57
2793.69
2793.81
2793.93
2794.05
2794.16
2794.25
2794.34
2794.44
2794.5
2794.61
2794.66
2794.76
2794.81
2794.89
2794.95
2795.01
2795.07
2795.12
2795.17
2795.22
2795.26
2795.3
2795.35
2795.38
2795.42
2795.46
2795.49
2795.52
2795.55
2795.58
2795.6
2795.63
2795.65
2795.67
2795.7
2795.72
2792.58
2792.73
2792.88
2793.02
2793.15
2793.27
2793.38
2793.49
2793.59
2793.7
2793.79
2793.88
2793.95
2794.05
2794.11
2794.2
2794.25
2794.33
2794.39
2794.45
2794.51
2794.57
2794.62
2794.67
2794.72
2794.76
2794.81
2794.85
2794.89
2794.93
2794.96
2795
2795.03
2795.06
2795.09
2795.12
2795.15
2795.17
2795.2
2795.22
2795.24
2795.27
2792.24
2792.39
2792.53
2792.66
2792.79
2792.91
2793.03
2793.14
2793.25
2793.36
2793.46
2793.55
2793.64
2793.73
2793.81
2793.89
2793.96
2794.03
2794.11
2794.16
2794.24
2794.29
2794.35
2794.4
2794.45
2794.5
2794.55
2794.59
2794.64
2794.68
2794.72
2794.75
2794.78
2794.82
2794.85
2794.88
2794.91
2794.93
2794.96
2794.98
2795.01
2795.03
2791.94
2792.09
2792.23
2792.36
2792.49
2792.61
2792.73
2792.84
2792.95
2793.05
2793.15
2793.25
2793.33
2793.41
2793.5
2793.57
2793.65
2793.71
2793.79
2793.84
2793.91
2793.96
2794.02
2794.07
2794.12
2794.16
2794.21
2794.25
2794.29
2794.33
2794.36
2794.4
2794.43
2794.46
2794.49
2794.51
2794.54
2794.56
2794.59
2794.61
2794.63
2794.66
2791.66
2791.8
2791.93
2792.06
2792.18
2792.3
2792.41
2792.51
2792.61
2792.71
2792.8
2792.89
2792.97
2793.04
2793.12
2793.19
2793.26
2793.33
2793.38
2793.45
2793.5
2793.56
2793.61
2793.67
2793.71
2793.76
2793.8
2793.84
2793.88
2793.92
2793.96
2793.99
2794.02
2794.05
2794.08
2794.11
2794.13
2794.16
2794.18
2794.21
2794.23
2794.25
2791.27
2791.39
2791.51
2791.62
2791.73
2791.84
2791.94
2792.04
2792.13
2792.23
2792.31
2792.4
2792.49
2792.56
2792.63
2792.7
2792.77
2792.83
2792.9
2792.96
2793.02
2793.07
2793.13
2793.17
2793.22
2793.27
2793.31
2793.35
2793.39
2793.43
2793.47
2793.5
2793.53
2793.56
2793.59
2793.62
2793.64
2793.67
2793.69
2793.72
2793.74
2793.76
2790.7
2790.82
2790.94
2791.06
2791.18
2791.29
2791.4
2791.51
2791.61
2791.7
2791.8
2791.89
2791.97
2792.05
2792.12
2792.19
2792.25
2792.32
2792.38
2792.44
2792.49
2792.54
2792.58
2792.63
2792.67
2792.71
2792.74
2792.78
2792.81
2792.84
2792.87
2792.9
2792.93
2792.95
2792.97
2793
2793.02
2793.04
2793.06
2793.08
2793.09
2793.11
2790.01
2790.13
2790.25
2790.36
2790.48
2790.58
2790.68
2790.77
2790.86
2790.95
2791.03
2791.1
2791.16
2791.22
2791.28
2791.33
2791.39
2791.44
2791.48
2791.52
2791.55
2791.59
2791.62
2791.65
2791.68
2791.7
2791.73
2791.75
2791.78
2791.8
2791.82
2791.84
2791.86
2791.88
2791.9
2791.92
2791.94
2791.95
2791.97
2791.99
2792
2792.02
2789.35
2789.45
2789.54
2789.62
2789.7
2789.78
2789.85
2789.91
2789.97
2790.03
2790.08
2790.13
2790.17
2790.22
2790.25
2790.29
2790.32
2790.35
2790.38
2790.42
2790.44
2790.46
2790.49
2790.5
2790.52
2790.54
2790.56
2790.57
2790.59
2790.6
2790.62
2790.63
2790.65
2790.66
2790.68
2790.69
2790.71
2790.72
2790.73
2790.75
2790.76
2790.77
2788.49
2788.56
2788.63
2788.69
2788.75
2788.8
2788.85
2788.9
2788.94
2788.99
2789.02
2789.06
2789.09
2789.12
2789.15
2789.18
2789.21
2789.23
2789.26
2789.28
2789.31
2789.33
2789.35
2789.37
2789.39
2789.4
2789.42
2789.42
2789.43
2789.43
2789.43
2789.43
2789.43
2789.44
2789.44
2789.44
2789.44
2789.44
2789.44
2789.44
2789.44
2789.44
2787.82
2787.84
2787.86
2787.87
2787.87
2787.87
2787.87
2787.87
2787.87
2787.87
2787.87
2787.86
2787.87
2787.87
2787.88
2787.88
2787.89
2787.89
2787.9
2787.91
2787.91
2787.92
2787.93
2787.95
2787.96
2787.97
2787.99
2788
2788.02
2788.03
2788.05
2788.06
2788.07
2788.08
2788.08
2788.08
2788.09
2788.09
2788.08
2788.08
2788.08
2788.07
2787.32
2787.32
2787.33
2787.34
2787.34
2787.35
2787.36
2787.38
2787.39
2787.4
2787.42
2787.43
2787.44
2787.46
2787.47
2787.48
2787.49
2787.49
2787.5
2787.5
2787.51
2787.51
2787.51
2787.52
2787.52
2787.53
2787.53
2787.54
2787.54
2787.55
2787.56
2787.57
2787.58
2787.59
2787.6
2787.61
2787.63
2787.64
2787.65
2787.67
2787.68
2787.7
2787.18
2787.19
2787.2
2787.21
2787.22
2787.24
2787.25
2787.25
2787.26
2787.26
2787.26
2787.26
2787.25
2787.24
2787.22
2787.21
2787.18
2787.16
2787.14
2787.11
2787.09
2787.07
2787.04
2787.02
2786.99
2786.97
2786.95
2786.92
2786.9
2786.88
2786.87
2786.85
2786.83
2786.82
2786.8
2786.79
2786.77
2786.76
2786.75
2786.74
2786.73
2786.72
2787.4
2787.39
2787.38
2787.37
2787.36
2787.35
2787.33
2787.32
2787.3
2787.29
2787.27
2787.26
2787.24
2787.22
2787.21
2787.19
2787.18
2787.16
2787.14
2787.13
2787.11
2787.1
2787.09
2787.07
2787.06
2787.05
2787.04
2787.03
2787.02
2787.02
2787.01
2787
2787
2786.99
2786.98
2786.98
2786.97
2786.96
2786.96
2786.95
2786.95
2786.94
2787.85
2787.84
2787.84
2787.85
2787.85
2787.86
2787.86
2787.87
2787.88
2787.89
2787.9
2787.91
2787.92
2787.93
2787.94
2787.95
2787.96
2787.96
2787.96
2787.96
2787.96
2787.95
2787.95
2787.94
2787.93
2787.93
2787.92
2787.91
2787.9
2787.89
2787.88
2787.87
2787.86
2787.85
2787.84
2787.83
2787.82
2787.81
2787.8
2787.79
2787.78
2787.77
2788.75
2788.79
2788.84
2788.88
2788.9
2788.93
2788.94
2788.95
2788.95
2788.96
2788.95
2788.95
2788.95
2788.94
2788.94
2788.93
2788.92
2788.92
2788.91
2788.9
2788.89
2788.88
2788.87
2788.86
2788.85
2788.84
2788.83
2788.82
2788.81
2788.8
2788.79
2788.79
2788.78
2788.77
2788.77
2788.76
2788.76
2788.75
2788.75
2788.74
2788.74
2788.73
2789.85
2789.91
2789.96
2790
2790.03
2790.05
2790.07
2790.07
2790.08
2790.08
2790.08
2790.08
2790.07
2790.07
2790.07
2790.07
2790.08
2790.08
2790.08
2790.09
2790.09
2790.1
2790.1
2790.11
2790.11
2790.12
2790.12
2790.13
2790.14
2790.14
2790.15
2790.16
2790.16
2790.17
2790.17
2790.18
2790.18
2790.19
2790.19
2790.2
2790.21
2790.21
2790.9
2790.97
2791.02
2791.07
2791.11
2791.15
2791.18
2791.21
2791.23
2791.26
2791.28
2791.3
2791.32
2791.34
2791.36
2791.39
2791.4
2791.42
2791.44
2791.46
2791.48
2791.5
2791.51
2791.53
2791.55
2791.56
2791.58
2791.6
2791.6
2791.62
2791.64
2791.64
2791.65
2791.67
2791.67
2791.68
2791.7
2791.7
2791.71
2791.72
2791.72
2791.73
2791.91
2791.98
2792.05
2792.11
2792.17
2792.22
2792.27
2792.32
2792.37
2792.42
2792.46
2792.5
2792.54
2792.58
2792.62
2792.66
2792.68
2792.72
2792.76
2792.77
2792.8
2792.83
2792.84
2792.87
2792.9
2792.91
2792.93
2792.95
2792.96
2792.97
2793
2793
2793.01
2793.03
2793.04
2793.05
2793.06
2793.07
2793.08
2793.09
2793.09
2793.1
2792.9
2792.97
2793.05
2793.12
2793.19
2793.25
2793.32
2793.38
2793.44
2793.49
2793.55
2793.6
2793.65
2793.69
2793.73
2793.78
2793.82
2793.85
2793.89
2793.92
2793.95
2793.98
2794.01
2794.03
2794.06
2794.08
2794.1
2794.12
2794.14
2794.16
2794.18
2794.19
2794.21
2794.22
2794.24
2794.25
2794.26
2794.28
2794.29
2794.3
2794.31
2794.32
2793.81
2793.9
2793.98
2794.05
2794.13
2794.2
2794.27
2794.33
2794.4
2794.46
2794.51
2794.57
2794.62
2794.67
2794.71
2794.76
2794.8
2794.84
2794.88
2794.91
2794.95
2794.98
2795.01
2795.04
2795.07
2795.09
2795.12
2795.14
2795.16
2795.18
2795.2
2795.22
2795.24
2795.26
2795.27
2795.29
2795.3
2795.32
2795.33
2795.34
2795.36
2795.37
2794.62
2794.71
2794.8
2794.88
2794.96
2795.03
2795.1
2795.17
2795.23
2795.3
2795.36
2795.41
2795.46
2795.52
2795.56
2795.61
2795.65
2795.69
2795.73
2795.77
2795.81
2795.84
2795.87
2795.9
2795.93
2795.96
2795.99
2796.01
2796.04
2796.06
2796.08
2796.1
2796.12
2796.14
2796.16
2796.17
2796.19
2796.21
2796.22
2796.23
2796.25
2796.26
2795.32
2795.42
2795.5
2795.59
2795.67
2795.74
2795.82
2795.89
2795.95
2796.02
2796.08
2796.13
2796.19
2796.24
2796.29
2796.34
2796.38
2796.42
2796.46
2796.5
2796.54
2796.57
2796.61
2796.64
2796.67
2796.7
2796.72
2796.75
2796.78
2796.8
2796.82
2796.84
2796.86
2796.88
2796.9
2796.92
2796.94
2796.95
2796.97
2796.98
2797
2797.01
2795.93
2796.02
2796.11
2796.2
2796.28
2796.35
2796.43
2796.49
2796.56
2796.62
2796.68
2796.74
2796.8
2796.85
2796.9
2796.94
2796.99
2797.03
2797.07
2797.11
2797.15
2797.18
2797.22
2797.25
2797.28
2797.31
2797.33
2797.36
2797.39
2797.41
2797.43
2797.45
2797.47
2797.49
2797.51
2797.53
2797.55
2797.56
2797.58
2797.59
2797.61
2797.62
2796.45
2796.54
2796.63
2796.72
2796.79
2796.87
2796.94
2797.01
2797.08
2797.14
2797.2
2797.25
2797.31
2797.36
2797.41
2797.45
2797.5
2797.54
2797.58
2797.62
2797.66
2797.69
2797.72
2797.76
2797.79
2797.81
2797.84
2797.87
2797.89
2797.92
2797.94
2797.96
2797.98
2798
2798.02
2798.03
2798.05
2798.07
2798.08
2798.1
2798.11
2798.13
2796.9
2796.99
2797.07
2797.16
2797.23
2797.31
2797.38
2797.45
2797.51
2797.57
2797.63
2797.69
2797.74
2797.79
2797.84
2797.88
2797.93
2797.97
2798.01
2798.04
2798.08
2798.11
2798.15
2798.18
2798.21
2798.23
2798.26
2798.29
2798.31
2798.33
2798.35
2798.37
2798.39
2798.41
2798.43
2798.45
2798.47
2798.48
2798.5
2798.51
2798.52
2798.54
2797.28
2797.36
2797.45
2797.53
2797.6
2797.67
2797.74
2797.81
2797.87
2797.93
2797.99
2798.04
2798.09
2798.14
2798.19
2798.23
2798.27
2798.31
2798.35
2798.39
2798.42
2798.45
2798.48
2798.51
2798.54
2798.57
2798.6
2798.62
2798.64
2798.67
2798.69
2798.71
2798.73
2798.75
2798.76
2798.78
2798.79
2798.81
2798.82
2798.84
2798.85
2798.87
2797.59
2797.67
2797.75
2797.83
2797.9
2797.97
2798.04
2798.1
2798.16
2798.22
2798.27
2798.32
2798.37
2798.42
2798.46
2798.51
2798.55
2798.58
2798.62
2798.66
2798.69
2798.72
2798.75
2798.78
2798.81
2798.83
2798.86
2798.88
2798.9
2798.92
2798.95
2798.96
2798.98
2799
2799.02
2799.03
2799.05
2799.06
2799.08
2799.09
2799.1
2799.12
2797.85
2797.93
2798
2798.08
2798.15
2798.21
2798.28
2798.34
2798.39
2798.45
2798.5
2798.55
2798.59
2798.64
2798.68
2798.72
2798.76
2798.8
2798.83
2798.87
2798.9
2798.93
2798.96
2798.98
2799.01
2799.03
2799.06
2799.08
2799.1
2799.12
2799.14
2799.16
2799.18
2799.19
2799.21
2799.22
2799.24
2799.25
2799.27
2799.28
2799.29
2799.3
2798.07
2798.15
2798.22
2798.29
2798.35
2798.42
2798.48
2798.53
2798.59
2798.64
2798.69
2798.73
2798.78
2798.82
2798.86
2798.9
2798.94
2798.97
2799
2799.03
2799.06
2799.09
2799.12
2799.15
2799.17
2799.19
2799.22
2799.24
2799.26
2799.28
2799.3
2799.31
2799.33
2799.35
2799.36
2799.38
2799.39
2799.4
2799.42
2799.43
2799.44
2799.45
2798.27
2798.34
2798.41
2798.48
2798.54
2798.6
2798.65
2798.71
2798.76
2798.81
2798.85
2798.9
2798.94
2798.98
2799.02
2799.06
2799.09
2799.12
2799.16
2799.19
2799.21
2799.24
2799.27
2799.29
2799.31
2799.34
2799.36
2799.38
2799.4
2799.42
2799.43
2799.45
2799.47
2799.48
2799.5
2799.51
2799.52
2799.53
2799.55
2799.56
2799.57
2799.58
2798.45
2798.52
2798.58
2798.64
2798.7
2798.76
2798.81
2798.87
2798.91
2798.96
2799.01
2799.05
2799.09
2799.13
2799.16
2799.2
2799.23
2799.26
2799.29
2799.32
2799.35
2799.37
2799.4
2799.42
2799.44
2799.47
2799.49
2799.5
2799.52
2799.54
2799.56
2799.57
2799.59
2799.6
2799.62
2799.63
2799.64
2799.65
2799.67
2799.68
2799.69
2799.7
2798.6
2798.66
2798.73
2798.79
2798.84
2798.9
2798.95
2799
2799.04
2799.09
2799.13
2799.17
2799.21
2799.25
2799.28
2799.31
2799.35
2799.38
2799.4
2799.43
2799.46
2799.48
2799.51
2799.53
2799.55
2799.57
2799.59
2799.61
2799.62
2799.64
2799.66
2799.67
2799.69
2799.7
2799.71
2799.73
2799.74
2799.75
2799.76
2799.77
2799.78
2799.79
2798.72
2798.78
2798.84
2798.9
2798.95
2799
2799.05
2799.1
2799.14
2799.19
2799.23
2799.26
2799.3
2799.33
2799.37
2799.4
2799.43
2799.46
2799.49
2799.51
2799.54
2799.56
2799.58
2799.6
2799.62
2799.64
2799.66
2799.68
2799.7
2799.71
2799.73
2799.74
2799.75
2799.77
2799.78
2799.79
2799.8
2799.81
2799.82
2799.83
2799.84
2799.85
2798.82
2798.88
2798.93
2798.99
2799.04
2799.08
2799.13
2799.17
2799.22
2799.26
2799.29
2799.33
2799.37
2799.4
2799.43
2799.46
2799.49
2799.52
2799.54
2799.57
2799.59
2799.61
2799.63
2799.65
2799.67
2799.69
2799.71
2799.72
2799.74
2799.76
2799.77
2799.78
2799.8
2799.81
2799.82
2799.83
2799.84
2799.85
2799.86
2799.87
2799.88
2799.89
2798.92
2798.97
2799.02
2799.07
2799.12
2799.17
2799.21
2799.25
2799.29
2799.33
2799.37
2799.4
2799.43
2799.47
2799.49
2799.52
2799.55
2799.58
2799.6
2799.62
2799.65
2799.67
2799.69
2799.71
2799.72
2799.74
2799.76
2799.77
2799.79
2799.8
2799.82
2799.83
2799.84
2799.85
2799.86
2799.87
2799.88
2799.89
2799.9
2799.91
2799.92
2799.93
2799.04
2799.09
2799.14
2799.19
2799.23
2799.28
2799.32
2799.36
2799.39
2799.43
2799.46
2799.49
2799.53
2799.55
2799.58
2799.61
2799.63
2799.66
2799.68
2799.7
2799.72
2799.74
2799.76
2799.78
2799.8
2799.82
2799.83
2799.85
2799.86
2799.87
2799.89
2799.9
2799.91
2799.92
2799.93
2799.94
2799.95
2799.96
2799.97
2799.98
2799.99
2799.99
2799.18
2799.23
2799.28
2799.32
2799.36
2799.4
2799.44
2799.48
2799.51
2799.55
2799.58
2799.61
2799.64
2799.66
2799.69
2799.72
2799.74
2799.76
2799.78
2799.8
2799.82
2799.84
2799.86
2799.88
2799.89
2799.91
2799.92
2799.94
2799.95
2799.96
2799.98
2799.99
2800
2800.01
2800.02
2800.03
2800.04
2800.05