/*--------------------------------*- C++ -*----------------------------------*\
| =========                 |                                                 |
| \\      /  F ield         | OpenFOAM: The Open Source CFD Toolbox           |
|  \\    /   O peration     | Version:  2412                                  |
|   \\  /    A nd           | Website:  www.openfoam.com                      |
|    \\/     M anipulation  |                                                 |
\*---------------------------------------------------------------------------*/
FoamFile
{
    version     2.0;
    format      ascii;
    arch        "LSB;label=32;scalar=64";
    class       volVectorField;
    location    "0.094";
    object      U;
}
// * * * * * * * * * * * * * * * * * * * * * * * * * * * * * * * * * * * * * //

dimensions      [0 1 -1 0 0 0 0];

internalField   nonuniform List<vector> 
9831
(
(317.92 171.173 0)
(273.625 1.7793 0)
(318.055 171.849 0)
(273.813 1.85128 0)
(252.219 -3.9096 0)
(241.756 -3.99185 0)
(233.476 -5.98004 0)
(227.802 -7.48812 0)
(224.145 -9.00815 0)
(221.645 -10.029 0)
(220.085 -10.9528 0)
(218.816 -11.5927 0)
(217.734 -12.1013 0)
(216.717 -12.4883 0)
(215.749 -12.7921 0)
(214.826 -13.028 0)
(213.945 -13.2085 0)
(213.102 -13.3456 0)
(212.289 -13.4497 0)
(211.497 -13.5316 0)
(210.719 -13.6023 0)
(209.952 -13.6684 0)
(209.201 -13.731 0)
(208.472 -13.7872 0)
(207.769 -13.8365 0)
(207.092 -13.8794 0)
(206.441 -13.9185 0)
(205.813 -13.9523 0)
(205.211 -13.9787 0)
(204.635 -13.994 0)
(204.084 -13.9957 0)
(203.555 -13.9837 0)
(203.044 -13.96 0)
(202.549 -13.928 0)
(202.063 -13.8908 0)
(201.586 -13.851 0)
(201.114 -13.8101 0)
(200.647 -13.7698 0)
(200.185 -13.7317 0)
(199.726 -13.6972 0)
(199.273 -13.6671 0)
(198.826 -13.6413 0)
(198.388 -13.6192 0)
(197.959 -13.6006 0)
(197.542 -13.5854 0)
(197.138 -13.5739 0)
(196.748 -13.5658 0)
(196.373 -13.5609 0)
(196.017 -13.5583 0)
(195.679 -13.5575 0)
(195.363 -13.5579 0)
(195.07 -13.5594 0)
(318.111 172.384 0)
(273.996 1.92661 0)
(252.356 -3.87546 0)
(241.864 -3.97971 0)
(233.554 -6.0093 0)
(227.856 -7.5344 0)
(224.186 -9.05524 0)
(221.678 -10.0715 0)
(220.113 -10.994 0)
(218.84 -11.6323 0)
(217.756 -12.1397 0)
(216.736 -12.5255 0)
(215.765 -12.8284 0)
(214.839 -13.0637 0)
(213.957 -13.2436 0)
(213.112 -13.3804 0)
(212.297 -13.4844 0)
(211.503 -13.5665 0)
(210.723 -13.6376 0)
(209.955 -13.704 0)
(209.203 -13.7668 0)
(208.474 -13.823 0)
(207.771 -13.8722 0)
(207.095 -13.9151 0)
(206.444 -13.9542 0)
(205.817 -13.9879 0)
(205.215 -14.0141 0)
(204.639 -14.0293 0)
(204.088 -14.0309 0)
(203.56 -14.019 0)
(203.05 -13.9956 0)
(202.554 -13.9641 0)
(202.068 -13.9276 0)
(201.59 -13.8887 0)
(201.118 -13.8488 0)
(200.65 -13.8096 0)
(200.187 -13.7726 0)
(199.728 -13.7393 0)
(199.274 -13.7103 0)
(198.827 -13.6855 0)
(198.389 -13.6644 0)
(197.96 -13.6465 0)
(197.543 -13.632 0)
(197.139 -13.6209 0)
(196.749 -13.6131 0)
(196.374 -13.6081 0)
(196.018 -13.6051 0)
(195.68 -13.6035 0)
(195.364 -13.6027 0)
(195.072 -13.6025 0)
(194.804 -13.6026 0)
(194.562 -13.6027 0)
(318.198 173.145 0)
(274.16 2.05866 0)
(252.489 -3.84048 0)
(241.972 -3.96761 0)
(233.631 -6.03925 0)
(227.906 -7.58155 0)
(224.225 -9.10145 0)
(221.713 -10.1122 0)
(220.143 -11.0334 0)
(218.866 -11.6707 0)
(217.777 -12.1773 0)
(216.754 -12.562 0)
(215.781 -12.8639 0)
(214.853 -13.0985 0)
(213.969 -13.278 0)
(213.122 -13.4146 0)
(212.306 -13.5185 0)
(211.51 -13.6008 0)
(210.727 -13.6724 0)
(209.957 -13.7392 0)
(209.205 -13.8022 0)
(208.475 -13.8584 0)
(207.772 -13.9075 0)
(207.096 -13.9503 0)
(206.445 -13.9894 0)
(205.818 -14.0231 0)
(205.217 -14.0492 0)
(204.642 -14.0642 0)
(204.091 -14.0658 0)
(203.563 -14.054 0)
(203.053 -14.0308 0)
(202.557 -13.9998 0)
(202.071 -13.9641 0)
(201.592 -13.926 0)
(201.119 -13.8872 0)
(200.651 -13.8491 0)
(200.187 -13.8133 0)
(199.727 -13.7811 0)
(199.273 -13.7533 0)
(198.826 -13.7295 0)
(198.387 -13.7093 0)
(197.958 -13.6922 0)
(197.541 -13.6783 0)
(197.137 -13.6677 0)
(196.747 -13.6601 0)
(196.372 -13.6551 0)
(196.015 -13.6517 0)
(195.678 -13.6493 0)
(195.362 -13.6473 0)
(195.069 -13.6454 0)
(194.8 -13.6433 0)
(194.559 -13.6405 0)
(194.345 -13.6369 0)
(194.161 -13.6318 0)
(318.388 174.142 0)
(274.309 2.22833 0)
(252.621 -3.81229 0)
(242.079 -3.95572 0)
(233.708 -6.06799 0)
(227.957 -7.62689 0)
(224.263 -9.14713 0)
(221.744 -10.1533 0)
(220.17 -11.0732 0)
(218.889 -11.7089 0)
(217.798 -12.2144 0)
(216.772 -12.5979 0)
(215.796 -12.899 0)
(214.867 -13.133 0)
(213.98 -13.3121 0)
(213.132 -13.4483 0)
(212.313 -13.5522 0)
(211.515 -13.6348 0)
(210.731 -13.7067 0)
(209.96 -13.774 0)
(209.207 -13.8372 0)
(208.477 -13.8933 0)
(207.775 -13.9424 0)
(207.099 -13.9852 0)
(206.448 -14.0242 0)
(205.822 -14.0579 0)
(205.221 -14.0839 0)
(204.646 -14.0988 0)
(204.096 -14.1004 0)
(203.568 -14.0887 0)
(203.058 -14.0659 0)
(202.562 -14.0354 0)
(202.076 -14.0005 0)
(201.597 -13.9633 0)
(201.123 -13.9255 0)
(200.654 -13.8885 0)
(200.19 -13.8539 0)
(199.729 -13.823 0)
(199.275 -13.7963 0)
(198.827 -13.7736 0)
(198.388 -13.7542 0)
(197.96 -13.7379 0)
(197.543 -13.7247 0)
(197.138 -13.7146 0)
(196.748 -13.7073 0)
(196.373 -13.7022 0)
(196.016 -13.6985 0)
(195.678 -13.6953 0)
(195.362 -13.6921 0)
(195.069 -13.6885 0)
(194.8 -13.6842 0)
(194.558 -13.6787 0)
(194.343 -13.6717 0)
(194.157 -13.6626 0)
(194.002 -13.651 0)
(193.877 -13.6345 0)
(193.786 -13.6162 0)
(193.736 -13.5903 0)
(193.722 -13.5688 0)
(193.729 -13.5366 0)
(193.772 -13.4943 0)
(193.854 -13.4462 0)
(193.972 -13.3906 0)
(194.123 -13.3273 0)
(194.306 -13.2555 0)
(194.521 -13.1751 0)
(194.765 -13.0856 0)
(195.038 -12.987 0)
(195.338 -12.8791 0)
(195.662 -12.7621 0)
(196.009 -12.6362 0)
(196.376 -12.5012 0)
(196.762 -12.3583 0)
(197.165 -12.2062 0)
(197.582 -12.0481 0)
(198.011 -11.8806 0)
(198.451 -11.7097 0)
(198.898 -11.5286 0)
(199.354 -11.3476 0)
(199.81 -11.155 0)
(200.274 -10.9668 0)
(200.733 -10.7651 0)
(201.2 -10.5725 0)
(201.656 -10.3642 0)
(202.12 -10.1696 0)
(202.566 -9.95727 0)
(203.022 -9.76289 0)
(203.456 -9.54923 0)
(203.899 -9.35666 0)
(204.317 -9.14408 0)
(204.745 -8.95473 0)
(205.144 -8.74546 0)
(205.552 -8.56046 0)
(205.931 -8.35632 0)
(206.319 -8.1766 0)
(206.678 -7.97912 0)
(207.045 -7.80559 0)
(207.384 -7.61603 0)
(207.731 -7.44943 0)
(208.051 -7.26858 0)
(208.377 -7.10942 0)
(208.677 -6.93774 0)
(208.981 -6.78635 0)
(209.26 -6.62396 0)
(209.542 -6.48049 0)
(209.8 -6.3274 0)
(210.062 -6.19201 0)
(210.304 -6.0485 0)
(210.552 -5.92152 0)
(210.785 -5.78814 0)
(211.023 -5.66966 0)
(211.244 -5.54616 0)
(211.463 -5.43561 0)
(211.66 -5.32125 0)
(211.844 -5.21775 0)
(211.993 -5.11215 0)
(212.1 -5.01033 0)
(212.2 -4.90614 0)
(212.219 -4.82395 0)
(318.445 174.844 0)
(274.458 2.32668 0)
(252.75 -3.78847 0)
(242.185 -3.9437 0)
(233.783 -6.09748 0)
(228.005 -7.67308 0)
(224.301 -9.19196 0)
(221.776 -10.1926 0)
(220.198 -11.1112 0)
(218.913 -11.7459 0)
(217.819 -12.2507 0)
(216.79 -12.6332 0)
(215.812 -12.9335 0)
(214.88 -13.1668 0)
(213.992 -13.3454 0)
(213.142 -13.4815 0)
(212.321 -13.5854 0)
(211.521 -13.6683 0)
(210.735 -13.7407 0)
(209.963 -13.8083 0)
(209.209 -13.8717 0)
(208.479 -13.9279 0)
(207.776 -13.9768 0)
(207.1 -14.0196 0)
(206.449 -14.0587 0)
(205.823 -14.0923 0)
(205.223 -14.1183 0)
(204.648 -14.133 0)
(204.099 -14.1346 0)
(203.571 -14.1231 0)
(203.061 -14.1006 0)
(202.565 -14.0707 0)
(202.078 -14.0365 0)
(201.599 -14.0003 0)
(201.125 -13.9636 0)
(200.655 -13.9278 0)
(200.19 -13.8943 0)
(199.729 -13.8646 0)
(199.274 -13.839 0)
(198.826 -13.8173 0)
(198.387 -13.7989 0)
(197.958 -13.7834 0)
(197.541 -13.7708 0)
(197.136 -13.7612 0)
(196.745 -13.7542 0)
(196.37 -13.7492 0)
(196.013 -13.745 0)
(195.675 -13.7411 0)
(195.358 -13.7366 0)
(195.065 -13.7313 0)
(194.795 -13.7248 0)
(194.553 -13.7166 0)
(194.337 -13.7064 0)
(194.15 -13.6933 0)
(193.993 -13.6771 0)
(193.867 -13.655 0)
(193.774 -13.6312 0)
(193.723 -13.5983 0)
(193.707 -13.5671 0)
(193.71 -13.5275 0)
(193.75 -13.4753 0)
(193.828 -13.4168 0)
(193.942 -13.3503 0)
(194.088 -13.2751 0)
(194.266 -13.1907 0)
(194.475 -13.0969 0)
(194.713 -12.9934 0)
(194.979 -12.8802 0)
(195.27 -12.7572 0)
(195.586 -12.6246 0)
(195.924 -12.4827 0)
(196.282 -12.3313 0)
(196.658 -12.1718 0)
(197.05 -12.003 0)
(197.457 -11.8279 0)
(197.873 -11.6436 0)
(198.302 -11.4554 0)
(198.736 -11.2577 0)
(199.179 -11.0596 0)
(199.622 -10.8507 0)
(200.073 -10.6456 0)
(200.519 -10.4283 0)
(200.972 -10.2191 0)
(201.413 -9.99586 0)
(201.863 -9.78536 0)
(202.296 -9.55888 0)
(202.737 -9.34929 0)
(203.157 -9.12227 0)
(203.586 -8.91531 0)
(203.99 -8.69023 0)
(204.404 -8.48739 0)
(204.789 -8.26646 0)
(205.184 -8.06891 0)
(205.548 -7.85393 0)
(205.923 -7.66262 0)
(206.268 -7.4551 0)
(206.623 -7.27092 0)
(206.949 -7.0721 0)
(207.284 -6.89573 0)
(207.591 -6.70638 0)
(207.906 -6.53829 0)
(208.194 -6.35881 0)
(208.487 -6.19929 0)
(208.754 -6.02977 0)
(209.026 -5.87892 0)
(209.272 -5.71935 0)
(209.525 -5.57727 0)
(209.757 -5.42791 0)
(209.996 -5.29485 0)
(210.22 -5.15615 0)
(210.448 -5.03214 0)
(210.661 -4.90378 0)
(210.872 -4.78831 0)
(211.06 -4.66953 0)
(211.237 -4.56195 0)
(211.378 -4.45286 0)
(211.463 -4.34591 0)
(211.563 -4.23856 0)
(211.578 -4.1533 0)
(211.657 -4.04323 0)
(211.693 -4.09388 0)
(318.413 175.289 0)
(274.592 2.37747 0)
(252.877 -3.76433 0)
(242.29 -3.93171 0)
(233.858 -6.12591 0)
(228.053 -7.71746 0)
(224.336 -9.23622 0)
(221.806 -10.2324 0)
(220.224 -11.1496 0)
(218.935 -11.7827 0)
(217.839 -12.2865 0)
(216.807 -12.668 0)
(215.827 -12.9675 0)
(214.893 -13.2002 0)
(214.002 -13.3785 0)
(213.15 -13.5143 0)
(212.328 -13.6182 0)
(211.526 -13.7014 0)
(210.739 -13.7742 0)
(209.966 -13.8423 0)
(209.211 -13.9058 0)
(208.481 -13.962 0)
(207.778 -14.0109 0)
(207.103 -14.0537 0)
(206.452 -14.0929 0)
(205.827 -14.1265 0)
(205.227 -14.1523 0)
(204.653 -14.167 0)
(204.104 -14.1686 0)
(203.576 -14.1572 0)
(203.066 -14.1352 0)
(202.57 -14.1059 0)
(202.083 -14.0725 0)
(201.603 -14.0373 0)
(201.129 -14.0016 0)
(200.658 -13.967 0)
(200.193 -13.9347 0)
(199.731 -13.9062 0)
(199.276 -13.8818 0)
(198.828 -13.8612 0)
(198.389 -13.8437 0)
(197.96 -13.829 0)
(197.542 -13.8171 0)
(197.137 -13.808 0)
(196.746 -13.8013 0)
(196.371 -13.7963 0)
(196.013 -13.7918 0)
(195.675 -13.7871 0)
(195.358 -13.7815 0)
(195.064 -13.7745 0)
(194.794 -13.7659 0)
(194.55 -13.755 0)
(194.333 -13.7416 0)
(194.144 -13.7245 0)
(193.985 -13.7038 0)
(193.856 -13.6765 0)
(193.761 -13.6473 0)
(193.708 -13.6075 0)
(193.689 -13.5667 0)
(193.687 -13.5203 0)
(193.722 -13.4583 0)
(193.795 -13.3899 0)
(193.903 -13.3127 0)
(194.043 -13.2261 0)
(194.214 -13.1295 0)
(194.415 -13.0229 0)
(194.645 -12.906 0)
(194.902 -12.7787 0)
(195.184 -12.6413 0)
(195.49 -12.4937 0)
(195.817 -12.3365 0)
(196.163 -12.1696 0)
(196.528 -11.9942 0)
(196.907 -11.8095 0)
(197.3 -11.6181 0)
(197.704 -11.4177 0)
(198.119 -11.2132 0)
(198.538 -10.9996 0)
(198.967 -10.7852 0)
(199.396 -10.5608 0)
(199.832 -10.3396 0)
(200.263 -10.1073 0)
(200.701 -9.88243 0)
(201.128 -9.64485 0)
(201.563 -9.41914 0)
(201.98 -9.17909 0)
(202.407 -8.9549 0)
(202.812 -8.71505 0)
(203.227 -8.49422 0)
(203.616 -8.25707 0)
(204.016 -8.04117 0)
(204.387 -7.80892 0)
(204.768 -7.59915 0)
(205.119 -7.37357 0)
(205.481 -7.1709 0)
(205.813 -6.95353 0)
(206.156 -6.75883 0)
(206.469 -6.55087 0)
(206.793 -6.36481 0)
(207.088 -6.16701 0)
(207.392 -5.99003 0)
(207.668 -5.80277 0)
(207.951 -5.63511 0)
(208.207 -5.45845 0)
(208.469 -5.30018 0)
(208.706 -5.13406 0)
(208.95 -4.98523 0)
(209.173 -4.82991 0)
(209.404 -4.69068 0)
(209.619 -4.54652 0)
(209.839 -4.41685 0)
(210.044 -4.28345 0)
(210.248 -4.16288 0)
(210.429 -4.03941 0)
(210.599 -3.92783 0)
(210.732 -3.81419 0)
(210.795 -3.70331 0)
(210.893 -3.59239 0)
(210.905 -3.50625 0)
(210.983 -3.39274 0)
(211.02 -3.43454 0)
(318.485 175.948 0)
(274.703 2.44751 0)
(253 -3.73513 0)
(242.396 -3.91976 0)
(233.932 -6.15517 0)
(228.099 -7.76266 0)
(224.371 -9.27964 0)
(221.836 -10.2705 0)
(220.25 -11.1864 0)
(218.958 -11.8184 0)
(217.858 -12.3216 0)
(216.825 -12.7021 0)
(215.842 -13.0008 0)
(214.906 -13.233 0)
(214.014 -13.4109 0)
(213.16 -13.5465 0)
(212.336 -13.6505 0)
(211.532 -13.734 0)
(210.743 -13.8073 0)
(209.968 -13.8758 0)
(209.213 -13.9395 0)
(208.482 -13.9957 0)
(207.779 -14.0446 0)
(207.104 -14.0874 0)
(206.454 -14.1267 0)
(205.828 -14.1603 0)
(205.229 -14.1861 0)
(204.656 -14.2007 0)
(204.107 -14.2023 0)
(203.58 -14.1911 0)
(203.07 -14.1695 0)
(202.573 -14.1408 0)
(202.086 -14.1082 0)
(201.605 -14.074 0)
(201.13 -14.0394 0)
(200.66 -14.006 0)
(200.193 -13.9749 0)
(199.731 -13.9476 0)
(199.276 -13.9244 0)
(198.827 -13.9048 0)
(198.388 -13.8882 0)
(197.959 -13.8743 0)
(197.541 -13.8632 0)
(197.135 -13.8547 0)
(196.743 -13.8483 0)
(196.368 -13.8432 0)
(196.009 -13.8384 0)
(195.671 -13.8329 0)
(195.353 -13.8261 0)
(195.058 -13.8175 0)
(194.788 -13.8067 0)
(194.543 -13.7932 0)
(194.324 -13.7765 0)
(194.134 -13.7555 0)
(193.973 -13.7302 0)
(193.842 -13.6976 0)
(193.745 -13.6628 0)
(193.69 -13.6162 0)
(193.667 -13.5653 0)
(193.661 -13.5129 0)
(193.691 -13.4403 0)
(193.76 -13.3618 0)
(193.863 -13.274 0)
(193.997 -13.1758 0)
(194.161 -13.0668 0)
(194.355 -12.9472 0)
(194.577 -12.8166 0)
(194.825 -12.6752 0)
(195.098 -12.523 0)
(195.394 -12.3604 0)
(195.711 -12.1877 0)
(196.046 -12.005 0)
(196.399 -11.8136 0)
(196.766 -11.6128 0)
(197.147 -11.4051 0)
(197.538 -11.1885 0)
(197.939 -10.9675 0)
(198.345 -10.738 0)
(198.76 -10.5071 0)
(199.174 -10.2673 0)
(199.596 -10.03 0)
(200.011 -9.78271 0)
(200.435 -9.54226 0)
(200.846 -9.29043 0)
(201.266 -9.04972 0)
(201.668 -8.79623 0)
(202.08 -8.55774 0)
(202.47 -8.3053 0)
(202.87 -8.07099 0)
(203.244 -7.8221 0)
(203.629 -7.5936 0)
(203.985 -7.35044 0)
(204.353 -7.12899 0)
(204.69 -6.89334 0)
(205.038 -6.67991 0)
(205.356 -6.45326 0)
(205.686 -6.2487 0)
(205.986 -6.03223 0)
(206.297 -5.83716 0)
(206.579 -5.63157 0)
(206.871 -5.4464 0)
(207.135 -5.25203 0)
(207.407 -5.07694 0)
(207.652 -4.89382 0)
(207.903 -4.72882 0)
(208.129 -4.55687 0)
(208.363 -4.40197 0)
(208.576 -4.2414 0)
(208.798 -4.09669 0)
(209.004 -3.94778 0)
(209.216 -3.81319 0)
(209.412 -3.6755 0)
(209.607 -3.55061 0)
(209.78 -3.42328 0)
(209.943 -3.30835 0)
(210.067 -3.19007 0)
(210.113 -3.07688 0)
(210.206 -2.96342 0)
(210.215 -2.87456 0)
(210.292 -2.7589 0)
(210.329 -2.79563 0)
(318.516 176.576 0)
(274.804 2.51877 0)
(253.123 -3.70389 0)
(242.501 -3.90822 0)
(234.006 -6.18348 0)
(228.144 -7.80606 0)
(224.405 -9.32248 0)
(221.864 -10.309 0)
(220.274 -11.2234 0)
(218.979 -11.8539 0)
(217.877 -12.3562 0)
(216.841 -12.7358 0)
(215.856 -13.0338 0)
(214.918 -13.2654 0)
(214.024 -13.4429 0)
(213.168 -13.5785 0)
(212.342 -13.6825 0)
(211.537 -13.7663 0)
(210.746 -13.8401 0)
(209.971 -13.9089 0)
(209.215 -13.9729 0)
(208.484 -14.0291 0)
(207.782 -14.0779 0)
(207.106 -14.1208 0)
(206.457 -14.1601 0)
(205.832 -14.1937 0)
(205.233 -14.2195 0)
(204.66 -14.2341 0)
(204.112 -14.2358 0)
(203.585 -14.2248 0)
(203.075 -14.2036 0)
(202.578 -14.1756 0)
(202.091 -14.1439 0)
(201.61 -14.1106 0)
(201.134 -14.0772 0)
(200.663 -14.0449 0)
(200.196 -14.0152 0)
(199.734 -13.9891 0)
(199.278 -13.967 0)
(198.829 -13.9485 0)
(198.39 -13.9328 0)
(197.96 -13.9198 0)
(197.542 -13.9094 0)
(197.136 -13.9015 0)
(196.744 -13.8954 0)
(196.368 -13.8904 0)
(196.009 -13.8852 0)
(195.67 -13.879 0)
(195.352 -13.8711 0)
(195.056 -13.8609 0)
(194.784 -13.8481 0)
(194.537 -13.832 0)
(194.318 -13.8122 0)
(194.125 -13.7874 0)
(193.961 -13.7576 0)
(193.828 -13.7201 0)
(193.728 -13.6796 0)
(193.669 -13.6264 0)
(193.642 -13.5663 0)
(193.63 -13.5071 0)
(193.655 -13.4253 0)
(193.718 -13.3373 0)
(193.813 -13.239 0)
(193.94 -13.1296 0)
(194.096 -13.0089 0)
(194.281 -12.8769 0)
(194.494 -12.7334 0)
(194.732 -12.5785 0)
(194.993 -12.4124 0)
(195.278 -12.2354 0)
(195.582 -12.048 0)
(195.905 -11.8505 0)
(196.244 -11.6438 0)
(196.597 -11.4278 0)
(196.964 -11.2046 0)
(197.34 -10.9727 0)
(197.726 -10.7362 0)
(198.117 -10.4915 0)
(198.516 -10.2452 0)
(198.914 -9.99061 0)
(199.32 -9.73819 0)
(199.72 -9.47668 0)
(200.128 -9.22142 0)
(200.523 -8.95604 0)
(200.927 -8.70104 0)
(201.313 -8.43473 0)
(201.71 -8.18257 0)
(202.084 -7.91804 0)
(202.469 -7.67076 0)
(202.828 -7.41053 0)
(203.198 -7.16982 0)
(203.539 -6.91605 0)
(203.893 -6.68318 0)
(204.215 -6.43766 0)
(204.55 -6.21362 0)
(204.855 -5.97781 0)
(205.172 -5.76345 0)
(205.459 -5.53849 0)
(205.758 -5.33441 0)
(206.029 -5.121 0)
(206.309 -4.92757 0)
(206.562 -4.72602 0)
(206.823 -4.54339 0)
(207.058 -4.3537 0)
(207.299 -4.18186 0)
(207.515 -4.00393 0)
(207.74 -3.84281 0)
(207.944 -3.67681 0)
(208.157 -3.52643 0)
(208.355 -3.37257 0)
(208.559 -3.23283 0)
(208.748 -3.09061 0)
(208.936 -2.96109 0)
(209.102 -2.82965 0)
(209.257 -2.71064 0)
(209.374 -2.58743 0)
(209.408 -2.47187 0)
(209.497 -2.35507 0)
(209.502 -2.26371 0)
(209.577 -2.14563 0)
(209.612 -2.17691 0)
(318.466 176.947 0)
(274.889 2.58955 0)
(253.243 -3.6694 0)
(242.606 -3.89701 0)
(234.079 -6.21267 0)
(228.187 -7.85023 0)
(224.437 -9.36447 0)
(221.893 -10.3459 0)
(220.3 -11.2589 0)
(219.001 -11.8884 0)
(217.896 -12.3901 0)
(216.857 -12.7689 0)
(215.87 -13.0661 0)
(214.93 -13.2972 0)
(214.035 -13.4744 0)
(213.177 -13.6098 0)
(212.349 -13.714 0)
(211.542 -13.7982 0)
(210.75 -13.8724 0)
(209.973 -13.9417 0)
(209.216 -14.0058 0)
(208.485 -14.0621 0)
(207.783 -14.1109 0)
(207.108 -14.1539 0)
(206.458 -14.1933 0)
(205.834 -14.2269 0)
(205.235 -14.2526 0)
(204.663 -14.2672 0)
(204.115 -14.2689 0)
(203.588 -14.2583 0)
(203.078 -14.2375 0)
(202.581 -14.2102 0)
(202.094 -14.1793 0)
(201.612 -14.1471 0)
(201.136 -14.1148 0)
(200.665 -14.0837 0)
(200.197 -14.0552 0)
(199.734 -14.0303 0)
(199.278 -14.0094 0)
(198.829 -13.992 0)
(198.389 -13.9773 0)
(197.959 -13.9651 0)
(197.541 -13.9555 0)
(197.134 -13.9481 0)
(196.741 -13.9424 0)
(196.364 -13.9374 0)
(196.005 -13.9319 0)
(195.665 -13.9249 0)
(195.346 -13.9158 0)
(195.049 -13.9041 0)
(194.776 -13.8892 0)
(194.528 -13.8705 0)
(194.307 -13.8476 0)
(194.112 -13.8189 0)
(193.946 -13.7846 0)
(193.81 -13.7421 0)
(193.707 -13.6957 0)
(193.645 -13.6359 0)
(193.614 -13.5677 0)
(193.597 -13.4997 0)
(193.617 -13.4092 0)
(193.674 -13.3115 0)
(193.762 -13.2025 0)
(193.882 -13.0818 0)
(194.03 -12.9491 0)
(194.207 -12.8045 0)
(194.41 -12.6477 0)
(194.638 -12.4791 0)
(194.889 -12.2989 0)
(195.162 -12.1074 0)
(195.455 -11.9051 0)
(195.765 -11.6924 0)
(196.092 -11.4704 0)
(196.431 -11.239 0)
(196.784 -11.0002 0)
(197.145 -10.7528 0)
(197.517 -10.5007 0)
(197.892 -10.2407 0)
(198.276 -9.97893 0)
(198.659 -9.70951 0)
(199.049 -9.44195 0)
(199.433 -9.16624 0)
(199.824 -8.8963 0)
(200.204 -8.61744 0)
(200.591 -8.34835 0)
(200.962 -8.06936 0)
(201.342 -7.80382 0)
(201.701 -7.52745 0)
(202.07 -7.26759 0)
(202.413 -6.99637 0)
(202.768 -6.74392 0)
(203.095 -6.48 0)
(203.433 -6.23627 0)
(203.741 -5.98141 0)
(204.062 -5.7474 0)
(204.352 -5.50303 0)
(204.656 -5.27954 0)
(204.93 -5.04676 0)
(205.216 -4.83436 0)
(205.474 -4.61382 0)
(205.742 -4.41283 0)
(205.983 -4.20479 0)
(206.233 -4.01531 0)
(206.455 -3.81972 0)
(206.686 -3.64168 0)
(206.892 -3.45842 0)
(207.107 -3.29169 0)
(207.301 -3.12087 0)
(207.506 -2.96539 0)
(207.694 -2.80714 0)
(207.89 -2.66277 0)
(208.071 -2.51653 0)
(208.251 -2.38281 0)
(208.409 -2.2478 0)
(208.555 -2.12479 0)
(208.664 -1.99739 0)
(208.688 -1.88003 0)
(208.772 -1.75983 0)
(208.772 -1.66671 0)
(208.842 -1.54637 0)
(208.875 -1.57136 0)
(318.433 177.45 0)
(274.955 2.6809 0)
(253.362 -3.63443 0)
(242.711 -3.88623 0)
(234.151 -6.24101 0)
(228.23 -7.89263 0)
(224.469 -9.4059 0)
(221.919 -10.3831 0)
(220.323 -11.2948 0)
(219.021 -11.9227 0)
(217.914 -12.4236 0)
(216.873 -12.8015 0)
(215.884 -13.098 0)
(214.942 -13.3286 0)
(214.044 -13.5056 0)
(213.185 -13.6409 0)
(212.356 -13.7452 0)
(211.547 -13.8297 0)
(210.753 -13.9044 0)
(209.975 -13.9741 0)
(209.218 -14.0384 0)
(208.488 -14.0947 0)
(207.785 -14.1435 0)
(207.11 -14.1866 0)
(206.461 -14.2261 0)
(205.837 -14.2598 0)
(205.24 -14.2855 0)
(204.668 -14.3 0)
(204.12 -14.3019 0)
(203.594 -14.2915 0)
(203.084 -14.2713 0)
(202.587 -14.2446 0)
(202.099 -14.2146 0)
(201.617 -14.1834 0)
(201.141 -14.1523 0)
(200.668 -14.1225 0)
(200.2 -14.0952 0)
(199.738 -14.0716 0)
(199.281 -14.0519 0)
(198.832 -14.0355 0)
(198.391 -14.0218 0)
(197.961 -14.0106 0)
(197.542 -14.0017 0)
(197.135 -13.9949 0)
(196.742 -13.9896 0)
(196.364 -13.9847 0)
(196.005 -13.9788 0)
(195.664 -13.9712 0)
(195.344 -13.9611 0)
(195.046 -13.9478 0)
(194.771 -13.931 0)
(194.522 -13.9098 0)
(194.298 -13.8839 0)
(194.101 -13.8516 0)
(193.931 -13.813 0)
(193.792 -13.7658 0)
(193.685 -13.7135 0)
(193.618 -13.6476 0)
(193.583 -13.5718 0)
(193.561 -13.4943 0)
(193.572 -13.3971 0)
(193.622 -13.2899 0)
(193.703 -13.1706 0)
(193.814 -13.0392 0)
(193.953 -12.8953 0)
(194.119 -12.7388 0)
(194.311 -12.5697 0)
(194.528 -12.3882 0)
(194.767 -12.1946 0)
(195.027 -11.9894 0)
(195.306 -11.7732 0)
(195.602 -11.5463 0)
(195.914 -11.3099 0)
(196.238 -11.064 0)
(196.575 -10.8105 0)
(196.92 -10.5487 0)
(197.276 -10.2819 0)
(197.635 -10.0076 0)
(198.001 -9.73131 0)
(198.367 -9.44796 0)
(198.74 -9.16614 0)
(199.107 -8.87704 0)
(199.482 -8.59325 0)
(199.844 -8.30163 0)
(200.215 -8.0192 0)
(200.569 -7.72815 0)
(200.933 -7.44984 0)
(201.275 -7.16213 0)
(201.628 -6.89016 0)
(201.956 -6.60833 0)
(202.295 -6.34449 0)
(202.607 -6.07066 0)
(202.93 -5.81628 0)
(203.224 -5.55219 0)
(203.531 -5.30829 0)
(203.808 -5.05538 0)
(204.098 -4.82274 0)
(204.359 -4.58206 0)
(204.633 -4.36124 0)
(204.879 -4.13342 0)
(205.136 -3.92471 0)
(205.365 -3.70999 0)
(205.605 -3.51346 0)
(205.817 -3.31177 0)
(206.038 -3.12733 0)
(206.234 -2.93851 0)
(206.439 -2.76596 0)
(206.625 -2.5901 0)
(206.821 -2.42933 0)
(207.001 -2.26651 0)
(207.19 -2.11731 0)
(207.362 -1.96688 0)
(207.535 -1.8288 0)
(207.686 -1.69011 0)
(207.823 -1.5628 0)
(207.924 -1.43149 0)
(207.941 -1.31209 0)
(208.019 -1.18833 0)
(208.014 -1.09348 0)
(208.079 -0.970766 0)
(208.109 -0.989348 0)
(318.407 178.013 0)
(275.002 2.79563 0)
(253.48 -3.59912 0)
(242.816 -3.87578 0)
(234.221 -6.27023 0)
(228.271 -7.93574 0)
(224.5 -9.44648 0)
(221.947 -10.4188 0)
(220.348 -11.3292 0)
(219.042 -11.956 0)
(217.932 -12.4563 0)
(216.889 -12.8335 0)
(215.898 -13.1294 0)
(214.954 -13.3595 0)
(214.055 -13.5362 0)
(213.194 -13.6715 0)
(212.363 -13.7759 0)
(211.552 -13.8609 0)
(210.757 -13.9361 0)
(209.978 -14.0062 0)
(209.22 -14.0707 0)
(208.489 -14.127 0)
(207.787 -14.1759 0)
(207.112 -14.2191 0)
(206.463 -14.2587 0)
(205.839 -14.2924 0)
(205.242 -14.3181 0)
(204.671 -14.3326 0)
(204.124 -14.3346 0)
(203.597 -14.3246 0)
(203.088 -14.3048 0)
(202.59 -14.2789 0)
(202.102 -14.2498 0)
(201.62 -14.2196 0)
(201.143 -14.1897 0)
(200.67 -14.1611 0)
(200.202 -14.1351 0)
(199.738 -14.1128 0)
(199.281 -14.0942 0)
(198.832 -14.0789 0)
(198.391 -14.0662 0)
(197.96 -14.0559 0)
(197.541 -14.0478 0)
(197.133 -14.0416 0)
(196.739 -14.0367 0)
(196.361 -14.0318 0)
(196 -14.0256 0)
(195.658 -14.0174 0)
(195.338 -14.0061 0)
(195.038 -13.9914 0)
(194.762 -13.9726 0)
(194.511 -13.9489 0)
(194.284 -13.9199 0)
(194.085 -13.8838 0)
(193.912 -13.841 0)
(193.77 -13.7888 0)
(193.659 -13.7306 0)
(193.588 -13.6585 0)
(193.548 -13.5755 0)
(193.52 -13.488 0)
(193.525 -13.3832 0)
(193.569 -13.2667 0)
(193.642 -13.137 0)
(193.744 -12.9947 0)
(193.874 -12.8392 0)
(194.031 -12.6705 0)
(194.213 -12.4887 0)
(194.418 -12.294 0)
(194.645 -12.0869 0)
(194.892 -11.8678 0)
(195.158 -11.6374 0)
(195.44 -11.3961 0)
(195.738 -11.1451 0)
(196.047 -10.8845 0)
(196.369 -10.6162 0)
(196.699 -10.3397 0)
(197.038 -10.0581 0)
(197.38 -9.76932 0)
(197.73 -9.47845 0)
(198.08 -9.18109 0)
(198.436 -8.88505 0)
(198.786 -8.58255 0)
(199.143 -8.28502 0)
(199.489 -7.98071 0)
(199.842 -7.68512 0)
(200.18 -7.38216 0)
(200.527 -7.09137 0)
(200.852 -6.79259 0)
(201.189 -6.50891 0)
(201.501 -6.21683 0)
(201.825 -5.94207 0)
(202.12 -5.6588 0)
(202.429 -5.39435 0)
(202.707 -5.12162 0)
(203 -4.86848 0)
(203.262 -4.60767 0)
(203.539 -4.36658 0)
(203.786 -4.1187 0)
(204.047 -3.89017 0)
(204.28 -3.65579 0)
(204.525 -3.44008 0)
(204.742 -3.2194 0)
(204.97 -3.01652 0)
(205.17 -2.80941 0)
(205.381 -2.61922 0)
(205.566 -2.42549 0)
(205.762 -2.24773 0)
(205.938 -2.06742 0)
(206.125 -1.90191 0)
(206.297 -1.73502 0)
(206.477 -1.5815 0)
(206.642 -1.42735 0)
(206.807 -1.28535 0)
(206.949 -1.14345 0)
(207.077 -1.01214 0)
(207.172 -0.877509 0)
(207.181 -0.756369 0)
(207.253 -0.629306 0)
(207.242 -0.533162 0)
(207.301 -0.408353 0)
(207.329 -0.420456 0)
(318.337 178.526 0)
(275.031 2.92293 0)
(253.597 -3.56669 0)
(242.921 -3.86563 0)
(234.292 -6.29865 0)
(228.312 -7.97712 0)
(224.53 -9.48652 0)
(221.972 -10.4549 0)
(220.369 -11.3639 0)
(219.061 -11.9891 0)
(217.949 -12.4887 0)
(216.904 -12.8651 0)
(215.91 -13.1604 0)
(214.965 -13.3901 0)
(214.064 -13.5666 0)
(213.201 -13.7018 0)
(212.368 -13.8064 0)
(211.556 -13.8917 0)
(210.76 -13.9674 0)
(209.98 -14.0379 0)
(209.222 -14.1026 0)
(208.491 -14.159 0)
(207.789 -14.2079 0)
(207.114 -14.2512 0)
(206.466 -14.2909 0)
(205.843 -14.3247 0)
(205.246 -14.3505 0)
(204.676 -14.365 0)
(204.129 -14.3672 0)
(203.603 -14.3574 0)
(203.093 -14.3382 0)
(202.596 -14.313 0)
(202.107 -14.2848 0)
(201.625 -14.2558 0)
(201.147 -14.227 0)
(200.674 -14.1997 0)
(200.205 -14.175 0)
(199.742 -14.1539 0)
(199.284 -14.1366 0)
(198.834 -14.1224 0)
(198.393 -14.1107 0)
(197.962 -14.1013 0)
(197.542 -14.0941 0)
(197.134 -14.0886 0)
(196.739 -14.084 0)
(196.36 -14.0792 0)
(195.999 -14.0729 0)
(195.657 -14.0639 0)
(195.334 -14.0517 0)
(195.034 -14.0356 0)
(194.756 -14.015 0)
(194.502 -13.989 0)
(194.273 -13.9571 0)
(194.07 -13.9175 0)
(193.894 -13.8706 0)
(193.748 -13.8138 0)
(193.633 -13.7499 0)
(193.557 -13.672 0)
(193.511 -13.5824 0)
(193.476 -13.4839 0)
(193.472 -13.375 0)
(193.508 -13.2482 0)
(193.573 -13.1089 0)
(193.665 -12.9565 0)
(193.785 -12.7902 0)
(193.93 -12.6103 0)
(194.099 -12.4167 0)
(194.292 -12.2099 0)
(194.505 -11.9902 0)
(194.738 -11.7582 0)
(194.989 -11.5145 0)
(195.256 -11.2598 0)
(195.537 -10.9952 0)
(195.83 -10.721 0)
(196.135 -10.439 0)
(196.448 -10.1489 0)
(196.769 -9.85354 0)
(197.094 -9.55134 0)
(197.426 -9.24688 0)
(197.757 -8.93644 0)
(198.095 -8.62711 0)
(198.427 -8.31205 0)
(198.767 -8.00163 0)
(199.095 -7.68538 0)
(199.431 -7.37738 0)
(199.75 -7.06316 0)
(200.08 -6.7605 0)
(200.389 -6.45113 0)
(200.709 -6.15619 0)
(201.004 -5.8542 0)
(201.312 -5.56884 0)
(201.592 -5.27632 0)
(201.886 -5.00194 0)
(202.15 -4.7206 0)
(202.428 -4.45822 0)
(202.677 -4.18943 0)
(202.94 -3.93978 0)
(203.174 -3.68452 0)
(203.423 -3.44809 0)
(203.643 -3.2069 0)
(203.877 -2.98393 0)
(204.083 -2.75698 0)
(204.299 -2.54748 0)
(204.49 -2.33464 0)
(204.69 -2.1384 0)
(204.866 -1.93946 0)
(205.052 -1.7562 0)
(205.22 -1.57116 0)
(205.398 -1.40066 0)
(205.562 -1.22945 0)
(205.734 -1.07137 0)
(205.891 -0.913281 0)
(206.049 -0.767156 0)
(206.184 -0.621897 0)
(206.301 -0.486345 0)
(206.391 -0.348408 0)
(206.394 -0.225099 0)
(206.461 -0.0946059 0)
(206.444 0.00300769 0)
(206.497 0.13 0)
(206.522 0.124072 0)
(318.247 179.016 0)
(275.035 3.05011 0)
(253.715 -3.53606 0)
(243.026 -3.85574 0)
(234.361 -6.32799 0)
(228.35 -8.01916 0)
(224.56 -9.52569 0)
(221.999 -10.4895 0)
(220.393 -11.3972 0)
(219.081 -12.0213 0)
(217.966 -12.5205 0)
(216.919 -12.8962 0)
(215.924 -13.1908 0)
(214.976 -13.4201 0)
(214.074 -13.5964 0)
(213.21 -13.7316 0)
(212.375 -13.8364 0)
(211.561 -13.9222 0)
(210.763 -13.9983 0)
(209.982 -14.0693 0)
(209.223 -14.1342 0)
(208.492 -14.1907 0)
(207.79 -14.2396 0)
(207.116 -14.283 0)
(206.468 -14.3229 0)
(205.845 -14.3568 0)
(205.249 -14.3826 0)
(204.679 -14.3971 0)
(204.132 -14.3995 0)
(203.607 -14.3901 0)
(203.097 -14.3714 0)
(202.599 -14.347 0)
(202.111 -14.3197 0)
(201.628 -14.2918 0)
(201.15 -14.2642 0)
(200.676 -14.2382 0)
(200.207 -14.2148 0)
(199.743 -14.195 0)
(199.285 -14.1788 0)
(198.835 -14.1658 0)
(198.393 -14.1551 0)
(197.961 -14.1467 0)
(197.54 -14.1402 0)
(197.131 -14.1354 0)
(196.736 -14.1313 0)
(196.356 -14.1265 0)
(195.994 -14.1199 0)
(195.651 -14.1104 0)
(195.327 -14.0971 0)
(195.025 -14.0796 0)
(194.745 -14.0571 0)
(194.489 -14.0288 0)
(194.257 -13.994 0)
(194.051 -13.9507 0)
(193.872 -13.8996 0)
(193.722 -13.8381 0)
(193.603 -13.7684 0)
(193.521 -13.6847 0)
(193.47 -13.5883 0)
(193.428 -13.4802 0)
(193.417 -13.3637 0)
(193.446 -13.2279 0)
(193.501 -13.0789 0)
(193.584 -12.916 0)
(193.694 -12.7386 0)
(193.828 -12.547 0)
(193.986 -12.3413 0)
(194.166 -12.122 0)
(194.366 -11.8894 0)
(194.585 -11.6442 0)
(194.822 -11.387 0)
(195.073 -11.1187 0)
(195.339 -10.8403 0)
(195.616 -10.5522 0)
(195.904 -10.2563 0)
(196.199 -9.95232 0)
(196.503 -9.64306 0)
(196.811 -9.32727 0)
(197.125 -9.00913 0)
(197.439 -8.68554 0)
(197.759 -8.3629 0)
(198.073 -8.03527 0)
(198.394 -7.71204 0)
(198.704 -7.38392 0)
(199.022 -7.06368 0)
(199.325 -6.73834 0)
(199.637 -6.4241 0)
(199.929 -6.1044 0)
(200.232 -5.7986 0)
(200.511 -5.48708 0)
(200.802 -5.19162 0)
(201.066 -4.89035 0)
(201.344 -4.60663 0)
(201.592 -4.3173 0)
(201.856 -4.04635 0)
(202.09 -3.77028 0)
(202.339 -3.51281 0)
(202.56 -3.2509 0)
(202.795 -3.00734 0)
(203.003 -2.76011 0)
(203.223 -2.53065 0)
(203.417 -2.2982 0)
(203.623 -2.0828 0)
(203.801 -1.86496 0)
(203.991 -1.66336 0)
(204.156 -1.45987 0)
(204.333 -1.27173 0)
(204.491 -1.08255 0)
(204.661 -0.907575 0)
(204.816 -0.732538 0)
(204.98 -0.570343 0)
(205.129 -0.408706 0)
(205.279 -0.258828 0)
(205.406 -0.110629 0)
(205.512 0.0289509 0)
(205.597 0.169888 0)
(205.594 0.295194 0)
(205.655 0.428881 0)
(205.632 0.527621 0)
(205.68 0.656298 0)
(205.7 0.656816 0)
(318.129 179.481 0)
(275.011 3.17287 0)
(253.833 -3.50411 0)
(243.131 -3.84604 0)
(234.429 -6.35659 0)
(228.389 -8.05948 0)
(224.588 -9.56436 0)
(222.023 -10.5245 0)
(220.414 -11.4308 0)
(219.099 -12.0535 0)
(217.983 -12.5519 0)
(216.933 -12.9269 0)
(215.936 -13.221 0)
(214.987 -13.4499 0)
(214.082 -13.6259 0)
(213.217 -13.7612 0)
(212.381 -13.8661 0)
(211.565 -13.9523 0)
(210.766 -14.029 0)
(209.984 -14.1003 0)
(209.225 -14.1655 0)
(208.494 -14.222 0)
(207.793 -14.271 0)
(207.119 -14.3146 0)
(206.471 -14.3546 0)
(205.849 -14.3886 0)
(205.253 -14.4144 0)
(204.684 -14.4291 0)
(204.138 -14.4316 0)
(203.612 -14.4226 0)
(203.103 -14.4045 0)
(202.605 -14.3808 0)
(202.116 -14.3545 0)
(201.633 -14.3277 0)
(201.155 -14.3014 0)