/*--------------------------------*- C++ -*----------------------------------*\
| =========                 |                                                 |
| \\      /  F ield         | OpenFOAM: The Open Source CFD Toolbox           |
|  \\    /   O peration     | Version:  2412                                  |
|   \\  /    A nd           | Website:  www.openfoam.com                      |
|    \\/     M anipulation  |                                                 |
\*---------------------------------------------------------------------------*/
FoamFile
{
    version     2.0;
    format      ascii;
    arch        "LSB;label=32;scalar=64";
    class       volVectorField;
    location    "0.109";
    object      U;
}
// * * * * * * * * * * * * * * * * * * * * * * * * * * * * * * * * * * * * * //

dimensions      [0 1 -1 0 0 0 0];

internalField   nonuniform List<vector> 
9859
(
(201.534 -21.814 0)
(201.552 -22.1032 0)
(201.561 -22.3292 0)
(201.589 -22.5292 0)
(201.608 -22.7358 0)
(201.607 -22.9355 0)
(201.572 -23.12 0)
(201.515 -23.278 0)
(201.504 -23.413 0)
(201.584 -23.5146 0)
(201.738 -23.6034 0)
(201.947 -23.6956 0)
(202.23 -23.7912 0)
(202.525 -23.8993 0)
(202.771 -24.0402 0)
(202.983 -24.1907 0)
(203.179 -24.3546 0)
(203.363 -24.5273 0)
(203.551 -24.6998 0)
(203.738 -24.8777 0)
(203.932 -25.0521 0)
(204.118 -25.2346 0)
(204.309 -25.4178 0)
(204.491 -25.6143 0)
(204.679 -25.8178 0)
(204.866 -26.0366 0)
(205.062 -26.2682 0)
(205.266 -26.5161 0)
(205.482 -26.7798 0)
(205.714 -27.0568 0)
(205.956 -27.3452 0)
(206.214 -27.6379 0)
(206.476 -27.9327 0)
(206.748 -28.2226 0)
(207.017 -28.5091 0)
(207.289 -28.7885 0)
(207.551 -29.0668 0)
(207.812 -29.3431 0)
(208.057 -29.6224 0)
(208.296 -29.9009 0)
(208.514 -30.1783 0)
(208.721 -30.4469 0)
(208.903 -30.7009 0)
(209.072 -30.9322 0)
(209.223 -31.1378 0)
(209.367 -31.3121 0)
(209.467 -31.4448 0)
(209.482 -31.5156 0)
(209.375 -31.4946 0)
(209.092 -31.3527 0)
(208.611 -31.0567 0)
(207.92 -30.6322 0)
(207.07 -30.1345 0)
(206.14 -29.6301 0)
(205.208 -29.16 0)
(204.336 -28.7377 0)
(203.561 -28.3567 0)
(202.895 -28.008 0)
(202.335 -27.6943 0)
(201.874 -27.4164 0)
(201.485 -27.186 0)
(201.185 -27.013 0)
(200.956 -26.8994 0)
(200.789 -26.8207 0)
(200.661 -26.7247 0)
(200.518 -26.6701 0)
(200.367 -26.6781 0)
(200.278 -26.7527 0)
(200.267 -26.8925 0)
(201.547 -21.8116 0)
(201.566 -22.1002 0)
(201.575 -22.3261 0)
(201.602 -22.5257 0)
(201.62 -22.7313 0)
(201.62 -22.93 0)
(201.585 -23.1135 0)
(201.526 -23.2712 0)
(201.512 -23.4058 0)
(201.591 -23.5076 0)
(201.744 -23.5965 0)
(201.952 -23.6892 0)
(202.236 -23.7846 0)
(202.531 -23.8928 0)
(202.777 -24.0339 0)
(202.99 -24.1845 0)
(203.186 -24.3488 0)
(203.37 -24.5221 0)
(203.559 -24.6954 0)
(203.746 -24.8742 0)
(203.941 -25.0497 0)
(204.128 -25.2334 0)
(204.32 -25.418 0)
(204.503 -25.616 0)
(204.693 -25.8207 0)
(204.881 -26.0408 0)
(205.078 -26.2734 0)
(205.283 -26.5223 0)
(205.5 -26.7868 0)
(205.732 -27.0647 0)
(205.976 -27.3541 0)
(206.234 -27.648 0)
(206.497 -27.9444 0)
(206.77 -28.2361 0)
(207.041 -28.5248 0)
(207.316 -28.8069 0)
(207.582 -29.0881 0)
(207.848 -29.3675 0)
(208.099 -29.6499 0)
(208.346 -29.9313 0)
(208.576 -30.2118 0)
(208.794 -30.4836 0)
(208.99 -30.741 0)
(209.172 -30.9757 0)
(209.335 -31.184 0)
(209.49 -31.3607 0)
(209.62 -31.4993 0)
(209.672 -31.5771 0)
(209.616 -31.5748 0)
(209.388 -31.4477 0)
(208.963 -31.1782 0)
(208.322 -30.7606 0)
(207.5 -30.2743 0)
(206.585 -29.7696 0)
(205.655 -29.2943 0)
(204.777 -28.862 0)
(203.99 -28.4668 0)
(203.312 -28.1008 0)
(202.74 -27.7714 0)
(202.267 -27.4882 0)
(201.867 -27.2581 0)
(201.558 -27.0713 0)
(201.321 -26.9373 0)
(201.146 -26.854 0)
(201.01 -26.7709 0)
(200.865 -26.712 0)
(200.703 -26.7097 0)
(200.594 -26.7804 0)
(200.571 -26.912 0)
(200.565 -27.0347 0)
(200.52 -27.1014 0)
(200.45 -27.1046 0)
(200.363 -27.0574 0)
(200.255 -26.9746 0)
(200.164 -26.8774 0)
(200.318 -25.8983 0)
(200.29 -25.7374 0)
(200.262 -25.5604 0)
(200.194 -25.3655 0)
(200.08 -25.1774 0)
(199.953 -25.024 0)
(199.838 -24.9167 0)
(199.753 -24.8454 0)
(199.746 -24.8137 0)
(199.794 -24.8119 0)
(199.848 -24.8077 0)
(199.887 -24.808 0)
(199.909 -24.7881 0)
(199.957 -24.7922 0)
(200.078 -24.8417 0)
(200.252 -24.9163 0)
(200.423 -24.9743 0)
(200.552 -24.9939 0)
(200.634 -24.9676 0)
(200.676 -24.914 0)
(200.684 -24.8498 0)
(200.677 -24.7888 0)
(200.681 -24.7539 0)
(200.715 -24.7563 0)
(200.79 -24.8092 0)
(200.849 -24.8382 0)
(200.856 -24.8591 0)
(200.68 -24.8743 0)
(200.348 -24.9456 0)
(200.045 -25.1277 0)
(199.874 -25.5365 0)
(199.807 -26.1418 0)
(199.411 -26.8533 0)
(198.513 -27.6395 0)
(197.427 -28.8728 0)
(196.304 -31.013 0)
(195.197 -34.5822 0)
(201.562 -21.8092 0)
(201.58 -22.0971 0)
(201.588 -22.3229 0)
(201.615 -22.522 0)
(201.633 -22.7266 0)
(201.633 -22.9242 0)
(201.597 -23.1063 0)
(201.536 -23.2637 0)
(201.52 -23.3981 0)
(201.598 -23.5002 0)
(201.751 -23.5894 0)
(201.958 -23.6826 0)
(202.241 -23.7777 0)
(202.537 -23.8863 0)
(202.783 -24.0276 0)
(202.998 -24.1782 0)
(203.194 -24.343 0)
(203.378 -24.5169 0)
(203.568 -24.691 0)
(203.754 -24.8709 0)
(203.95 -25.0475 0)
(204.138 -25.2327 0)
(204.331 -25.4186 0)
(204.516 -25.6181 0)
(204.707 -25.8241 0)
(204.896 -26.0455 0)
(205.094 -26.2792 0)
(205.301 -26.5291 0)
(205.519 -26.7945 0)
(205.752 -27.0733 0)
(205.995 -27.3638 0)
(206.254 -27.659 0)
(206.518 -27.9569 0)
(206.793 -28.2506 0)
(207.065 -28.5415 0)
(207.343 -28.8262 0)
(207.613 -29.1104 0)
(207.883 -29.3929 0)
(208.14 -29.6783 0)
(208.395 -29.9626 0)
(208.634 -30.2461 0)
(208.866 -30.5209 0)
(209.075 -30.7818 0)
(209.271 -31.02 0)
(209.446 -31.2314 0)
(209.613 -31.4103 0)
(209.765 -31.5532 0)
(209.852 -31.6414 0)
(209.846 -31.6499 0)
(209.674 -31.5451 0)
(209.313 -31.2851 0)
(208.723 -30.8969 0)
(207.939 -30.4163 0)
(207.043 -29.9136 0)
(206.12 -29.4345 0)
(205.237 -28.9936 0)
(204.439 -28.5851 0)
(203.747 -28.2036 0)
(203.162 -27.8553 0)
(202.677 -27.5531 0)
(202.265 -27.3106 0)
(201.945 -27.1165 0)
(201.697 -26.9736 0)
(201.513 -26.8877 0)
(201.366 -26.818 0)
(201.219 -26.7571 0)
(201.049 -26.7434 0)
(200.919 -26.8092 0)
(200.883 -26.9339 0)
(200.873 -27.0553 0)
(200.829 -27.1224 0)
(200.764 -27.1258 0)
(200.681 -27.0794 0)
(200.58 -26.9974 0)
(200.495 -26.8991 0)
(200.469 -26.813 0)
(200.534 -26.7905 0)
(200.644 -26.7855 0)
(200.739 -26.7325 0)
(200.793 -26.6192 0)
(200.801 -26.4584 0)
(200.772 -26.2729 0)
(200.73 -26.0925 0)
(200.689 -25.9293 0)
(200.652 -25.768 0)
(200.611 -25.5916 0)
(200.536 -25.3989 0)
(200.418 -25.2121 0)
(200.286 -25.0574 0)
(200.165 -24.9473 0)
(200.072 -24.8721 0)
(200.055 -24.8332 0)
(200.098 -24.828 0)
(200.154 -24.825 0)
(200.198 -24.8282 0)
(200.219 -24.8097 0)
(200.255 -24.8089 0)
(200.353 -24.8519 0)
(200.507 -24.9248 0)
(200.668 -24.9861 0)
(200.801 -25.0116 0)
(200.895 -24.9921 0)
(200.95 -24.9439 0)
(200.97 -24.8825 0)
(200.971 -24.8233 0)
(200.976 -24.7885 0)
(201.006 -24.7876 0)
(201.078 -24.8402 0)
(201.145 -24.8758 0)
(201.162 -24.903 0)
(201.018 -24.9354 0)
(200.695 -25.0089 0)
(200.382 -25.1801 0)
(200.182 -25.5755 0)
(200.087 -26.178 0)
(199.719 -26.9108 0)
(198.924 -27.7321 0)
(197.906 -28.98 0)
(196.761 -31.1183 0)
(195.821 -34.707 0)
(201.577 -21.8067 0)
(201.595 -22.0939 0)
(201.602 -22.3197 0)
(201.629 -22.5184 0)
(201.647 -22.722 0)
(201.647 -22.9184 0)
(201.611 -23.0995 0)
(201.548 -23.2565 0)
(201.529 -23.3904 0)
(201.606 -23.4927 0)
(201.758 -23.5822 0)
(201.963 -23.6759 0)
(202.247 -23.7708 0)
(202.543 -23.8797 0)
(202.791 -24.0212 0)
(203.006 -24.1719 0)
(203.202 -24.3372 0)
(203.386 -24.5117 0)
(203.576 -24.6867 0)
(203.763 -24.8676 0)
(203.96 -25.0454 0)
(204.149 -25.2319 0)
(204.343 -25.4193 0)
(204.529 -25.6204 0)
(204.721 -25.8279 0)
(204.911 -26.0508 0)
(205.111 -26.2857 0)
(205.319 -26.5367 0)
(205.538 -26.8031 0)
(205.771 -27.0829 0)
(206.016 -27.3745 0)
(206.275 -27.671 0)
(206.54 -27.9705 0)
(206.815 -28.266 0)
(207.09 -28.5593 0)
(207.37 -28.8466 0)
(207.643 -29.1338 0)
(207.917 -29.4192 0)
(208.179 -29.7077 0)
(208.442 -29.9949 0)
(208.691 -30.2813 0)
(208.934 -30.5591 0)
(209.158 -30.8233 0)
(209.369 -31.0651 0)
(209.558 -31.2796 0)
(209.736 -31.4606 0)
(209.904 -31.6055 0)
(210.025 -31.7005 0)
(210.063 -31.7241 0)
(209.952 -31.6327 0)
(209.648 -31.4061 0)
(209.123 -31.0236 0)
(208.382 -30.5613 0)
(207.513 -30.063 0)
(206.6 -29.5807 0)
(205.717 -29.1296 0)
(204.909 -28.7096 0)
(204.201 -28.3173 0)
(203.601 -27.9549 0)
(203.102 -27.6324 0)
(202.678 -27.3709 0)
(202.344 -27.1728 0)
(202.083 -27.0288 0)
(201.887 -26.9365 0)
(201.732 -26.861 0)
(201.581 -26.8019 0)
(201.405 -26.7854 0)
(201.256 -26.8385 0)
(201.205 -26.954 0)
(201.19 -27.0745 0)
(201.148 -27.1439 0)
(201.088 -27.1493 0)
(201.012 -27.1037 0)
(200.918 -27.0208 0)
(200.84 -26.9199 0)
(200.816 -26.8282 0)
(200.881 -26.7992 0)
(200.995 -26.7943 0)
(201.096 -26.7454 0)
(201.158 -26.6374 0)
(201.172 -26.4816 0)
(201.149 -26.2998 0)
(201.11 -26.1221 0)
(201.067 -25.9604 0)
(201.022 -25.7996 0)
(200.97 -25.6246 0)
(200.887 -25.4348 0)
(200.765 -25.2502 0)
(200.629 -25.0949 0)
(200.502 -24.982 0)
(200.402 -24.9032 0)
(200.373 -24.8565 0)
(200.407 -24.8464 0)
(200.461 -24.8443 0)
(200.506 -24.8495 0)
(200.527 -24.8322 0)
(200.554 -24.8285 0)
(200.631 -24.8647 0)
(200.763 -24.9325 0)
(200.912 -24.9935 0)
(201.047 -25.0228 0)
(201.152 -25.0096 0)
(201.22 -24.968 0)
(201.252 -24.9128 0)
(201.261 -24.8584 0)
(201.269 -24.8245 0)
(201.298 -24.8203 0)
(201.367 -24.8679 0)
(201.439 -24.9055 0)
(201.46 -24.937 0)
(201.342 -24.9867 0)
(201.036 -25.0688 0)
(200.716 -25.2337 0)
(200.489 -25.6172 0)
(200.358 -26.2164 0)
(200.017 -26.9675 0)
(199.328 -27.8176 0)
(198.387 -29.0742 0)
(197.226 -31.2033 0)
(196.437 -34.8089 0)
(201.593 -21.8043 0)
(201.61 -22.0908 0)
(201.617 -22.3164 0)
(201.644 -22.5146 0)
(201.661 -22.7171 0)
(201.661 -22.9122 0)
(201.624 -23.0919 0)
(201.558 -23.2486 0)
(201.538 -23.3823 0)
(201.613 -23.4849 0)
(201.765 -23.5748 0)
(201.969 -23.6691 0)
(202.254 -23.7637 0)
(202.55 -23.873 0)
(202.798 -24.0147 0)
(203.015 -24.1657 0)
(203.211 -24.3316 0)
(203.395 -24.5068 0)
(203.586 -24.6826 0)
(203.773 -24.8646 0)
(203.97 -25.0436 0)
(204.16 -25.2316 0)
(204.355 -25.4205 0)
(204.542 -25.6233 0)
(204.736 -25.8322 0)
(204.927 -26.0567 0)
(205.129 -26.2928 0)
(205.337 -26.5451 0)
(205.558 -26.8126 0)
(205.792 -27.0935 0)
(206.037 -27.3862 0)
(206.297 -27.6841 0)
(206.562 -27.9852 0)
(206.839 -28.2827 0)
(207.114 -28.5783 0)
(207.396 -28.8682 0)
(207.672 -29.1583 0)
(207.95 -29.4467 0)
(208.217 -29.7381 0)
(208.487 -30.0283 0)
(208.745 -30.3176 0)
(209 -30.5981 0)
(209.237 -30.8655 0)
(209.464 -31.1107 0)
(209.668 -31.3286 0)
(209.858 -31.5119 0)
(210.037 -31.6581 0)
(210.19 -31.759 0)
(210.266 -31.7935 0)
(210.213 -31.7247 0)
(209.975 -31.5037 0)
(209.511 -31.1596 0)
(208.825 -30.7061 0)
(207.99 -30.2153 0)
(207.095 -29.7318 0)
(206.214 -29.2721 0)
(205.399 -28.8389 0)
(204.677 -28.4333 0)
(204.06 -28.0592 0)
(203.545 -27.7245 0)
(203.107 -27.4475 0)
(202.758 -27.2401 0)
(202.481 -27.0895 0)
(202.273 -26.9868 0)
(202.108 -26.8991 0)
(201.952 -26.8422 0)
(201.772 -26.8286 0)
(201.606 -26.8725 0)
(201.537 -26.9776 0)
(201.518 -27.0956 0)
(201.478 -27.1647 0)
(201.426 -27.1701 0)
(201.356 -27.1257 0)
(201.272 -27.0443 0)
(201.202 -26.9427 0)
(201.181 -26.8458 0)
(201.244 -26.8095 0)
(201.361 -26.8041 0)
(201.467 -26.7592 0)
(201.533 -26.656 0)
(201.552 -26.505 0)
(201.533 -26.3271 0)
(201.496 -26.1522 0)
(201.452 -25.9921 0)
(201.4 -25.832 0)
(201.337 -25.6578 0)
(201.246 -25.4701 0)
(201.12 -25.287 0)
(200.98 -25.1306 0)
(200.849 -25.0149 0)
(200.744 -24.9328 0)
(200.701 -24.8782 0)
(200.721 -24.8622 0)
(200.768 -24.86 0)
(200.812 -24.8665 0)
(200.833 -24.8516 0)
(200.851 -24.8454 0)
(200.91 -24.8763 0)
(201.02 -24.9415 0)
(201.156 -25.0038 0)
(201.29 -25.0368 0)
(201.406 -25.0303 0)
(201.488 -24.9946 0)
(201.532 -24.9432 0)
(201.551 -24.8917 0)
(201.563 -24.8584 0)
(201.594 -24.8522 0)
(201.657 -24.8987 0)
(201.728 -24.9406 0)
(201.753 -24.9781 0)
(201.648 -25.0415 0)
(201.366 -25.1314 0)
(201.048 -25.2896 0)
(200.794 -25.661 0)
(200.623 -26.2528 0)
(200.309 -27.0165 0)
(199.725 -27.8993 0)
(198.856 -29.1819 0)
(197.695 -31.3143 0)
(197.034 -34.9218 0)
(197.815 -40.8128 0)
(201.609 -21.8018 0)
(201.626 -22.0876 0)
(201.632 -22.3132 0)
(201.659 -22.5109 0)
(201.676 -22.7124 0)
(201.677 -22.9062 0)
(201.639 -23.0849 0)
(201.57 -23.2409 0)
(201.548 -23.3741 0)
(201.622 -23.477 0)
(201.773 -23.5672 0)
(201.976 -23.6621 0)
(202.26 -23.7565 0)
(202.558 -23.8664 0)
(202.806 -24.0083 0)
(203.024 -24.1594 0)
(203.22 -24.326 0)
(203.404 -24.5018 0)
(203.596 -24.6785 0)
(203.783 -24.8616 0)
(203.981 -25.0419 0)
(204.171 -25.2314 0)
(204.369 -25.4219 0)
(204.556 -25.6266 0)
(204.752 -25.8372 0)
(204.944 -26.0633 0)
(205.147 -26.3008 0)
(205.356 -26.5545 0)
(205.578 -26.8231 0)
(205.813 -27.1052 0)
(206.059 -27.3992 0)
(206.319 -27.6984 0)
(206.585 -28.0013 0)
(206.862 -28.3007 0)
(207.139 -28.5987 0)
(207.422 -28.8912 0)
(207.7 -29.1841 0)
(207.982 -29.4753 0)
(208.254 -29.7698 0)
(208.53 -30.0628 0)
(208.795 -30.355 0)
(209.062 -30.6381 0)
(209.313 -30.9084 0)
(209.555 -31.1569 0)
(209.775 -31.3781 0)
(209.98 -31.564 0)
(210.168 -31.7113 0)
(210.344 -31.8148 0)
(210.455 -31.8593 0)
(210.462 -31.8039 0)
(210.279 -31.6203 0)
(209.891 -31.2788 0)
(209.263 -30.8513 0)
(208.472 -30.3708 0)
(207.601 -29.8876 0)
(206.728 -29.4191 0)
(205.909 -28.9732 0)
(205.175 -28.5522 0)
(204.541 -28.1635 0)
(204.007 -27.8184 0)
(203.553 -27.5322 0)
(203.189 -27.3113 0)
(202.896 -27.1481 0)
(202.672 -27.0377 0)
(202.495 -26.9465 0)
(202.334 -26.8878 0)
(202.15 -26.8721 0)
(201.972 -26.9084 0)
(201.884 -27.0003 0)
(201.859 -27.115 0)
(201.823 -27.1864 0)
(201.779 -27.1946 0)
(201.719 -27.1514 0)
(201.645 -27.0688 0)
(201.585 -26.9646 0)
(201.566 -26.8628 0)
(201.627 -26.8192 0)
(201.744 -26.8124 0)
(201.852 -26.7713 0)
(201.921 -26.6735 0)
(201.942 -26.5277 0)
(201.925 -26.3535 0)
(201.889 -26.1816 0)
(201.843 -26.0238 0)
(201.784 -25.8652 0)
(201.711 -25.6929 0)
(201.612 -25.5078 0)
(201.481 -25.3266 0)
(201.338 -25.1699 0)
(201.204 -25.0514 0)
(201.095 -24.9659 0)
(201.037 -24.904 0)
(201.041 -24.8809 0)
(201.076 -24.8776 0)
(201.115 -24.8847 0)
(201.135 -24.8721 0)
(201.147 -24.8648 0)
(201.191 -24.8903 0)
(201.281 -24.9501 0)
(201.403 -25.0103 0)
(201.536 -25.0449 0)
(201.662 -25.0441 0)
(201.757 -25.0155 0)
(201.813 -24.9715 0)
(201.842 -24.926 0)
(201.862 -24.8946 0)
(201.896 -24.8866 0)
(201.953 -24.9279 0)
(202.017 -24.9688 0)
(202.041 -25.01 0)
(201.941 -25.0872 0)
(201.69 -25.1897 0)
(201.378 -25.347 0)
(201.1 -25.7086 0)
(200.888 -26.2939 0)
(200.601 -27.0677 0)
(200.115 -27.9763 0)
(199.314 -29.2741 0)
(198.184 -31.4058 0)
(197.623 -35.0066 0)
(198.778 -40.8338 0)
(201.626 -21.7995 0)
(201.643 -22.0845 0)
(201.648 -22.3098 0)
(201.674 -22.5069 0)
(201.692 -22.7073 0)
(201.692 -22.8996 0)
(201.653 -23.077 0)
(201.581 -23.2326 0)
(201.558 -23.3655 0)
(201.63 -23.4687 0)
(201.78 -23.5594 0)
(201.982 -23.655 0)
(202.267 -23.7493 0)
(202.565 -23.8597 0)
(202.815 -24.0018 0)
(203.034 -24.1531 0)
(203.23 -24.3205 0)
(203.415 -24.4971 0)
(203.606 -24.6748 0)
(203.793 -24.8591 0)
(203.992 -25.0407 0)
(204.183 -25.2319 0)
(204.382 -25.4241 0)
(204.571 -25.6306 0)
(204.768 -25.8429 0)
(204.962 -26.0708 0)
(205.166 -26.3098 0)
(205.377 -26.5649 0)
(205.599 -26.8347 0)
(205.835 -27.1182 0)
(206.082 -27.4134 0)
(206.342 -27.7141 0)
(206.608 -28.0187 0)
(206.886 -28.3202 0)
(207.163 -28.6206 0)
(207.449 -28.9157 0)
(207.728 -29.2113 0)
(208.013 -29.5054 0)
(208.289 -29.8027 0)
(208.57 -30.0986 0)
(208.843 -30.3936 0)
(209.119 -30.6793 0)
(209.384 -30.9523 0)
(209.641 -31.2037 0)
(209.877 -31.4282 0)
(210.099 -31.6169 0)
(210.299 -31.7657 0)
(210.49 -31.8697 0)
(210.631 -31.9222 0)
(210.688 -31.8862 0)
(210.573 -31.7064 0)
(210.247 -31.4094 0)
(209.692 -30.9939 0)
(208.952 -30.5265 0)
(208.114 -30.0462 0)
(207.256 -29.5722 0)
(206.437 -29.1143 0)
(205.693 -28.6764 0)
(205.044 -28.2701 0)
(204.492 -27.91 0)
(204.02 -27.6128 0)
(203.638 -27.3812 0)
(203.328 -27.2067 0)
(203.087 -27.087 0)
(202.898 -26.9944 0)
(202.729 -26.9331 0)
(202.54 -26.9153 0)
(202.355 -26.948 0)
(202.249 -27.0286 0)
(202.217 -27.1378 0)
(202.186 -27.2075 0)
(202.153 -27.2153 0)
(202.104 -27.174 0)
(202.042 -27.094 0)
(201.991 -26.9898 0)
(201.976 -26.8835 0)
(202.033 -26.8318 0)
(202.147 -26.8231 0)
(202.255 -26.7853 0)
(202.324 -26.6923 0)
(202.346 -26.5511 0)
(202.328 -26.3807 0)
(202.29 -26.2118 0)
(202.241 -26.0561 0)
(202.175 -25.8989 0)
(202.092 -25.728 0)
(201.985 -25.5448 0)
(201.85 -25.365 0)
(201.705 -25.2073 0)
(201.568 -25.086 0)
(201.454 -24.9973 0)
(201.383 -24.9291 0)
(201.367 -24.8983 0)
(201.387 -24.8924 0)
(201.417 -24.8988 0)
(201.435 -24.8891 0)
(201.443 -24.8811 0)
(201.474 -24.9032 0)
(201.547 -24.9605 0)
(201.657 -25.0206 0)
(201.788 -25.0575 0)
(201.923 -25.0622 0)
(202.03 -25.0397 0)
(202.099 -25.0005 0)
(202.14 -24.9586 0)
(202.169 -24.9281 0)
(202.206 -24.92 0)
(202.257 -24.9613 0)
(202.309 -25.0046 0)
(202.323 -25.0497 0)
(202.223 -25.1367 0)
(202.007 -25.249 0)
(201.708 -25.4064 0)
(201.408 -25.7589 0)
(201.16 -26.3339 0)
(200.9 -27.1103 0)
(200.501 -28.0466 0)
(199.752 -29.3785 0)
(198.681 -31.5217 0)
(198.218 -35.0978 0)
(199.751 -40.8416 0)
(201.644 -21.7973 0)
(201.66 -22.0814 0)
(201.664 -22.3066 0)
(201.691 -22.5031 0)
(201.709 -22.7024 0)
(201.709 -22.8936 0)
(201.669 -23.0698 0)
(201.595 -23.2246 0)
(201.569 -23.3568 0)
(201.639 -23.4602 0)
(201.789 -23.5515 0)
(201.989 -23.6477 0)
(202.275 -23.742 0)
(202.574 -23.8531 0)
(202.824 -23.9954 0)
(203.044 -24.1469 0)
(203.24 -24.3151 0)
(203.426 -24.4923 0)
(203.617 -24.671 0)
(203.805 -24.8566 0)
(204.004 -25.0396 0)
(204.196 -25.2325 0)
(204.397 -25.4266 0)
(204.587 -25.6351 0)
(204.786 -25.8494 0)
(204.981 -26.0793 0)
(205.186 -26.3199 0)
(205.398 -26.5766 0)
(205.622 -26.8477 0)
(205.858 -27.1326 0)
(206.105 -27.4292 0)
(206.367 -27.7314 0)
(206.633 -28.0378 0)
(206.911 -28.3415 0)
(207.189 -28.6442 0)
(207.475 -28.9419 0)
(207.756 -29.2403 0)
(208.043 -29.537 0)
(208.323 -29.8371 0)
(208.609 -30.1356 0)
(208.889 -30.4333 0)
(209.173 -30.7216 0)
(209.449 -30.9972 0)
(209.721 -31.2511 0)
(209.975 -31.4785 0)
(210.213 -31.6702 0)
(210.428 -31.821 0)
(210.627 -31.9243 0)
(210.797 -31.9822 0)
(210.896 -31.9577 0)
(210.837 -31.814 0)
(210.587 -31.5178 0)
(210.103 -31.1347 0)
(209.426 -30.6827 0)
(208.63 -30.2069 0)
(207.795 -29.7281 0)
(206.981 -29.2601 0)
(206.231 -28.8094 0)
(205.568 -28.3871 0)
(204.998 -28.0087 0)
(204.508 -27.6977 0)
(204.108 -27.4559 0)
(203.78 -27.2733 0)
(203.52 -27.1452 0)
(203.318 -27.0488 0)
(203.138 -26.9838 0)
(202.946 -26.963 0)
(202.757 -26.9884 0)
(202.635 -27.0562 0)
(202.596 -27.1588 0)
(202.571 -27.2303 0)
(202.55 -27.2417 0)
(202.514 -27.2021 0)
(202.466 -27.1206 0)
(202.426 -27.0137 0)
(202.414 -26.9038 0)
(202.465 -26.8442 0)
(202.573 -26.8325 0)
(202.678 -26.7981 0)
(202.744 -26.7105 0)
(202.764 -26.5744 0)
(202.743 -26.4077 0)
(202.701 -26.2417 0)
(202.647 -26.0887 0)
(202.575 -25.9339 0)
(202.482 -25.7654 0)
(202.366 -25.5845 0)
(202.227 -25.4062 0)
(202.079 -25.2481 0)
(201.94 -25.1241 0)
(201.823 -25.0318 0)
(201.739 -24.9586 0)
(201.702 -24.9198 0)
(201.702 -24.9101 0)
(201.721 -24.915 0)
(201.736 -24.9076 0)
(201.74 -24.8999 0)
(201.761 -24.9184 0)
(201.821 -24.9708 0)
(201.921 -25.0279 0)
(202.052 -25.0651 0)
(202.193 -25.0738 0)
(202.312 -25.0585 0)
(202.394 -25.0278 0)
(202.447 -24.993 0)
(202.487 -24.9654 0)
(202.528 -24.9578 0)
(202.572 -24.9946 0)
(202.611 -25.0353 0)
(202.603 -25.0823 0)
(202.501 -25.1787 0)
(202.322 -25.304 0)
(202.039 -25.4683 0)
(201.721 -25.814 0)
(201.443 -26.381 0)
(201.208 -27.1595 0)
(200.882 -28.1175 0)
(200.178 -29.4683 0)
(199.191 -31.6172 0)
(198.841 -35.1607 0)
(200.705 -40.8219 0)
(201.662 -21.7951 0)
(201.678 -22.0784 0)
(201.68 -22.3032 0)
(201.707 -22.499 0)
(201.726 -22.6972 0)
(201.726 -22.8868 0)
(201.683 -23.0616 0)
(201.607 -23.2159 0)
(201.58 -23.3477 0)
(201.648 -23.4513 0)
(201.797 -23.5432 0)
(201.996 -23.6403 0)
(202.283 -23.7346 0)
(202.582 -23.8466 0)
(202.834 -23.9891 0)
(203.055 -24.1409 0)
(203.252 -24.3098 0)
(203.437 -24.4877 0)
(203.629 -24.6677 0)
(203.817 -24.8547 0)
(204.017 -25.0392 0)
(204.21 -25.234 0)
(204.412 -25.43 0)
(204.604 -25.6407 0)
(204.804 -25.8569 0)
(205 -26.0889 0)
(205.208 -26.3313 0)
(205.42 -26.5896 0)
(205.645 -26.8622 0)
(205.882 -27.1485 0)
(206.13 -27.4465 0)
(206.392 -27.7505 0)
(206.658 -28.0588 0)
(206.937 -28.3647 0)
(207.215 -28.6698 0)
(207.501 -28.9701 0)
(207.784 -29.2711 0)
(208.073 -29.5704 0)
(208.356 -29.8731 0)
(208.647 -30.174 0)
(208.932 -30.4741 0)
(209.224 -30.7649 0)
(209.51 -31.043 0)
(209.795 -31.2992 0)
(210.065 -31.529 0)
(210.321 -31.7236 0)
(210.552 -31.877 0)
(210.76 -31.9818 0)
(210.951 -32.0384 0)
(211.084 -32.0277 0)
(211.088 -31.8889 0)
(210.896 -31.6392 0)
(210.493 -31.2694 0)
(209.887 -30.836 0)
(209.142 -30.3676 0)
(208.339 -29.8871 0)
(207.539 -29.4112 0)
(206.787 -28.9475 0)
(206.112 -28.5106 0)
(205.526 -28.1164 0)
(205.018 -27.7896 0)
(204.599 -27.537 0)
(204.253 -27.3452 0)
(203.974 -27.2049 0)
(203.757 -27.1001 0)
(203.567 -27.0323 0)
(203.369 -27.0113 0)
(203.179 -27.0329 0)
(203.045 -27.0911 0)
(202.999 -27.185 0)
(202.981 -27.2524 0)
(202.976 -27.2629 0)
(202.954 -27.2258 0)
(202.921 -27.1485 0)
(202.891 -27.0428 0)
(202.882 -26.9293 0)
(202.924 -26.8612 0)
(203.024 -26.846 0)
(203.123 -26.8142 0)
(203.184 -26.731 0)
(203.199 -26.5993 0)
(203.173 -26.4364 0)
(203.125 -26.2733 0)
(203.064 -26.1224 0)
(202.984 -25.9694 0)
(202.882 -25.8029 0)
(202.757 -25.624 0)
(202.614 -25.4467 0)
(202.464 -25.2876 0)
(202.322 -25.1606 0)
(202.201 -25.0648 0)
(202.107 -24.9879 0)
(202.047 -24.9411 0)
(202.026 -24.9264 0)
(202.031 -24.9283 0)
(202.039 -24.9228 0)
(202.041 -24.9157 0)
(202.055 -24.9326 0)
(202.106 -24.9833 0)
(202.199 -25.0399 0)
(202.33 -25.0784 0)
(202.477 -25.091 0)
(202.607 -25.0821 0)
(202.701 -25.0566 0)
(202.768 -25.0254 0)
(202.819 -24.9994 0)
(202.864 -24.9938 0)
(202.9 -25.0326 0)
(202.92 -25.0749 0)
(202.883 -25.1251 0)
(202.78 -25.2256 0)
(202.635 -25.3591 0)
(202.373 -25.5309 0)
(202.04 -25.8716 0)
(201.744 -26.4266 0)
(201.534 -27.1993 0)
(201.263 -28.1798 0)
(200.593 -29.5675 0)
(199.708 -31.7334 0)
(199.499 -35.2366 0)
(201.629 -40.7855 0)
(201.682 -21.7931 0)
(201.696 -22.0756 0)
(201.698 -22.3001 0)
(201.725 -22.4952 0)
(201.745 -22.6923 0)
(201.745 -22.8807 0)
(201.7 -23.0543 0)
(201.621 -23.2074 0)
(201.593 -23.3385 0)
(201.659 -23.4422 0)
(201.806 -23.5347 0)
(202.004 -23.6326 0)
(202.291 -23.7272 0)
(202.591 -23.8402 0)
(202.845 -23.9829 0)
(203.067 -24.135 0)
(203.263 -24.3047 0)
(203.45 -24.4834 0)
(203.642 -24.6644 0)
(203.829 -24.8528 0)
(204.03 -25.039 0)
(204.224 -25.2358 0)
(204.427 -25.4339 0)
(204.621 -25.6469 0)
(204.824 -25.8654 0)
(205.021 -26.0997 0)
(205.23 -26.344 0)
(205.443 -26.6041 0)
(205.669 -26.8782 0)
(205.907 -27.1661 0)
(206.156 -27.4657 0)
(206.418 -27.7715 0)
(206.685 -28.0818 0)
(206.963 -28.3899 0)
(207.242 -28.6976 0)
(207.529 -29.0005 0)
(207.812 -29.3042 0)
(208.103 -29.6059 0)
(208.389 -29.911 0)
(208.683 -30.214 0)
(208.973 -30.5163 0)
(209.271 -30.809 0)
(209.566 -31.0896 0)
(209.863 -31.3479 0)
(210.147 -31.5798 0)
(210.42 -31.7766 0)
(210.668 -31.9328 0)
(210.891 -32.039 0)
(211.093 -32.0952 0)
(211.255 -32.0907 0)
(211.305 -31.9824 0)
(211.186 -31.733 0)
(210.856 -31.4002 0)
(210.328 -30.9848 0)
(209.645 -30.526 0)
(208.883 -30.0472 0)
(208.105 -29.5644 0)
(207.359 -29.0901 0)
(206.677 -28.6382 0)
(206.076 -28.2295 0)
(205.55 -27.8896 0)
(205.113 -27.6231 0)
(204.748 -27.4213 0)
(204.45 -27.2725 0)
(204.218 -27.1619 0)
(204.017 -27.0889 0)
(203.815 -27.0644 0)
(203.623 -27.0782 0)
(203.482 -27.1247 0)
(203.429 -27.2086 0)
(203.421 -27.2769 0)
(203.432 -27.2919 0)
(203.427 -27.2572 0)
(203.409 -27.1779 0)
(203.389 -27.0695 0)
(203.381 -26.9539 0)
(203.413 -26.8785 0)
(203.501 -26.8583 0)
(203.591 -26.8292 0)
(203.645 -26.7515 0)
(203.652 -26.625 0)
(203.619 -26.4657 0)
(203.562 -26.3053 0)
(203.493 -26.1571 0)
(203.404 -26.0069 0)
(203.293 -25.8433 0)
(203.161 -25.6666 0)
(203.014 -25.4905 0)
(202.862 -25.3308 0)
(202.716 -25.2009 0)
(202.59 -25.1011 0)
(202.488 -25.0211 0)
(202.407 -24.9681 0)
(202.363 -24.9474 0)
(202.349 -24.9453 0)
(202.349 -24.9407 0)
(202.348 -24.9343 0)
(202.359 -24.9492 0)
(202.405 -24.9959 0)
(202.494 -25.0491 0)
(202.626 -25.0869 0)
(202.779 -25.1025 0)
(202.918 -25.1003 0)
(203.024 -25.084 0)
(203.103 -25.0605 0)
(203.165 -25.0388 0)
(203.212 -25.036 0)
(203.24 -25.0713 0)
(203.239 -25.1104 0)
(203.172 -25.1637 0)
(203.07 -25.2671 0)
(202.952 -25.4111 0)
(202.711 -25.5972 0)
(202.368 -25.9348 0)
(202.065 -26.481 0)
(201.878 -27.2502 0)
(201.642 -28.2475 0)
(201.007 -29.6563 0)
(200.25 -31.8295 0)
(200.196 -35.2848 0)
(202.525 -40.7209 0)
(201.702 -21.7913 0)
(201.715 -22.0728 0)
(201.715 -22.2968 0)
(201.744 -22.491 0)
(201.764 -22.6869 0)
(201.763 -22.8738 0)
(201.715 -23.046 0)
(201.634 -23.1984 0)
(201.605 -23.3287 0)
(201.668 -23.4327 0)
(201.816 -23.526 0)
(202.012 -23.6249 0)
(202.299 -23.7198 0)
(202.6 -23.8339 0)
(202.856 -23.9769 0)
(203.079 -24.1294 0)
(203.276 -24.3001 0)
(203.463 -24.4795 0)
(203.655 -24.6619 0)
(203.843 -24.8519 0)
(204.044 -25.0399 0)
(204.238 -25.2389 0)
(204.444 -25.4391 0)
(204.639 -25.6544 0)
(204.844 -25.8752 0)
(205.043 -26.1119 0)
(205.253 -26.3583 0)
(205.467 -26.6203 0)
(205.694 -26.896 0)
(205.933 -27.1856 0)
(206.183 -27.4869 0)
(206.445 -27.7946 0)
(206.713 -28.107 0)
(206.991 -28.4175 0)
(207.27 -28.7278 0)
(207.557 -29.0334 0)
(207.84 -29.3398 0)
(208.132 -29.6439 0)
(208.421 -29.951 0)
(208.719 -30.2558 0)
(209.013 -30.5598 0)
(209.317 -30.8542 0)
(209.618 -31.1367 0)
(209.924 -31.3969 0)
(210.22 -31.6304 0)
(210.508 -31.8289 0)
(210.774 -31.9878 0)
(211.014 -32.0965 0)
(211.227 -32.1534 0)
(211.412 -32.1499 0)
(211.507 -32.0498 0)
(211.44 -31.8434 0)
(211.188 -31.5197 0)
(210.743 -31.1252 0)
(210.13 -30.6811 0)
(209.42 -30.2061 0)
(208.674 -29.721 0)
(207.941 -29.2356 0)
(207.259 -28.7703 0)
(206.647 -28.3478 0)
(206.105 -27.9936 0)
(205.65 -27.7156 0)
(205.267 -27.5027 0)
(204.951 -27.3414 0)
(204.704 -27.2215 0)
(204.491 -27.1437 0)
(204.285 -27.1172 0)
(204.093 -27.1279 0)
(203.947 -27.1668 0)
(203.89 -27.2397 0)
(203.894 -27.3002 0)
(203.922 -27.3132 0)
(203.934 -27.2819 0)
(203.93 -27.2087 0)
(203.92 -27.1032 0)
(203.912 -26.985 0)
(203.932 -26.9015 0)
(204.004 -26.8761 0)
(204.081 -26.8485 0)
(204.125 -26.775 0)
(204.124 -26.6528 0)
(204.081 -26.4973 0)
(204.014 -26.3398 0)
(203.935 -26.1935 0)
(203.837 -26.0452 0)
(203.717 -25.8839 0)
(203.58 -25.7095 0)
(203.429 -25.5343 0)
(203.274 -25.3733 0)
(203.125 -25.2404 0)
(202.993 -25.1369 0)
(202.882 -25.0536 0)
(202.783 -24.996 0)
(202.714 -24.9683 0)
(202.68 -24.9607 0)
(202.67 -24.9558 0)
(202.665 -24.9502 0)
(202.675 -24.9646 0)
(202.718 -25.0104 0)
(202.808 -25.0634 0)
(202.943 -25.1019 0)
(203.099 -25.1208 0)
(203.245 -25.1242 0)
(203.362 -25.1132 0)
(203.453 -25.0926 0)
(203.523 -25.0735 0)
(203.571 -25.0743 0)
(203.591 -25.1147 0)
(203.564 -25.1568 0)
(203.473 -25.2129 0)
(203.373 -25.3153 0)
(203.274 -25.4636 0)
(203.054 -25.6622 0)
(202.708 -25.9991 0)
(202.411 -26.5328 0)
(202.245 -27.2917 0)
(202.025 -28.3071 0)
(201.425 -29.7501 0)
(200.812 -31.9343 0)
(200.929 -35.3501 0)
(203.41 -40.6487 0)
(201.723 -21.7897 0)
(201.735 -22.0704 0)
(201.734 -22.2939 0)
(201.764 -22.4873 0)
(201.784 -22.6823 0)
(201.783 -22.8679 0)
(201.733 -23.0385 0)
(201.65 -23.1894 0)
(201.619 -23.319 0)
(201.68 -23.423 0)
(201.826 -23.5171 0)
(202.021 -23.617 0)
(202.309 -23.7124 0)
(202.61 -23.8279 0)
(202.868 -23.9712 0)
(203.093 -24.1241 0)
(203.289 -24.2957 0)
(203.477 -24.476 0)
(203.669 -24.6598 0)
(203.857 -24.8513 0)
(204.059 -25.0412 0)
(204.253 -25.2423 0)
(204.46 -25.4448 0)
(204.657 -25.6629 0)
(204.864 -25.8863 0)
(205.065 -26.1257 0)
(205.277 -26.3742 0)
(205.492 -26.6384 0)
(205.721 -26.9158 0)
(205.96 -27.2072 0)
(206.211 -27.5103 0)
(206.474 -27.8201 0)
(206.742 -28.1347 0)
(207.021 -28.4477 0)
(207.299 -28.7606 0)
(207.586 -29.069 0)
(207.869 -29.3781 0)
(208.162 -29.6846 0)
(208.453 -29.9935 0)
(208.754 -30.2996 0)
(209.053 -30.6048 0)
(209.361 -30.9003 0)
(209.667 -31.1841 0)
(209.98 -31.4456 0)
(210.286 -31.6806 0)
(210.586 -31.8803 0)
(210.867 -32.0414 0)
(211.125 -32.1529 0)
(211.353 -32.2114 0)
(211.555 -32.2084 0)
(211.683 -32.1233 0)
(211.677 -31.9181 0)
(211.488 -31.6312 0)
(211.123 -31.259 0)
(210.59 -30.8272 0)
(209.942 -30.3629 0)
(209.238 -29.8758 0)
(208.529 -29.3838 0)
(207.852 -28.9062 0)
(207.235 -28.4701 0)
(206.68 -28.1031 0)
(206.21 -27.811 0)
(205.811 -27.5887 0)
(205.477 -27.4204 0)
(205.215 -27.2933 0)
(204.991 -27.2086 0)
(204.782 -27.1766 0)
(204.591 -27.1787 0)
(204.442 -27.2063 0)
(204.384 -27.2662 0)
(204.399 -27.3262 0)
(204.444 -27.3448 0)
(204.473 -27.3162 0)
(204.484 -27.2407 0)
(204.481 -27.1325 0)
(204.471 -27.0144 0)
(204.476 -26.9247 0)
(204.529 -26.8925 0)
(204.592 -26.8664 0)
(204.624 -26.7985 0)
(204.613 -26.6818 0)
(204.56 -26.5299 0)
(204.481 -26.3749 0)
(204.39 -26.231 0)
(204.282 -26.086 0)
(204.156 -25.9281 0)
(204.014 -25.7558 0)
(203.861 -25.5816 0)
(203.703 -25.4201 0)
(203.549 -25.2842 0)
(203.41 -25.1764 0)
(203.288 -25.0898 0)
(203.175 -25.0297 0)
(203.083 -24.9958 0)
(203.027 -24.9817 0)
(203.003 -24.9752 0)
(202.994 -24.9695 0)
(203.003 -24.9822 0)
(203.049 -25.0247 0)
(203.141 -25.0745 0)
(203.279 -25.1118 0)
(203.438 -25.1332 0)
(203.588 -25.1426 0)
(203.714 -25.1406 0)
(203.814 -25.1277 0)
(203.89 -25.1149 0)
(203.936 -25.1201 0)
(203.948 -25.1577 0)
(203.897 -25.2009 0)
(203.793 -25.2581 0)
(203.695 -25.3599 0)
(203.607 -25.5154 0)
(203.4 -25.7319 0)
(203.063 -26.0689 0)
(202.781 -26.594 0)
(202.632 -27.3485 0)
(202.412 -28.3778 0)
(201.852 -29.838 0)
(201.405 -32.0171 0)
(201.692 -35.3858 0)
(204.294 -40.5507 0)
(201.744 -21.7883 0)
(201.755 -22.0681 0)
(201.753 -22.291 0)
(201.785 -22.4833 0)
(201.805 -22.6769 0)
(201.802 -22.8609 0)
(201.749 -23.0302 0)
(201.665 -23.18 0)
(201.631 -23.3088 0)
(201.69 -23.4131 0)
(201.835 -23.5081 0)