/*--------------------------------*- C++ -*----------------------------------*\
| =========                 |                                                 |
| \\      /  F ield         | OpenFOAM: The Open Source CFD Toolbox           |
|  \\    /   O peration     | Version:  2406                                  |
|   \\  /    A nd           | Website:  www.openfoam.com                      |
|    \\/     M anipulation  |                                                 |
\*---------------------------------------------------------------------------*/
FoamFile
{
    version     2.0;
    format      ascii;
    arch        "LSB;label=32;scalar=64";
    class       volScalarField;
    location    "0.029";
    object      p;
}
// * * * * * * * * * * * * * * * * * * * * * * * * * * * * * * * * * * * * * //

dimensions      [1 -1 -2 0 0 0 0];

internalField   nonuniform List<scalar> 
78650
(
2905.72
2842.54
2836.91
2819.96
2800.44
2784.79
2773.74
2766.43
2761.75
2757.66
2752.61
2746.54
2740.24
2734.55
2729.56
2725
2720.79
2717.01
2713.73
2710.86
2708.28
2705.81
2703.3
2700.65
2697.89
2695.12
2692.47
2690.08
2688.02
2686.3
2684.9
2683.75
2682.79
2681.93
2681.07
2680.13
2679.03
2677.74
2676.31
2674.78
2673.19
2671.55
2669.83
2668.04
2666.19
2664.3
2662.36
2660.34
2658.22
2655.93
2653.44
2650.72
2647.73
2644.44
2640.81
2636.8
2632.36
2627.47
2622.06
2616.07
2609.43
2602.05
2593.89
2584.87
2574.95
2564.06
2552.12
2538.99
2524.6
2508.89
2491.82
2473.4
2453.52
2432.01
2408.73
2383.58
2356.6
2327.88
2297.31
2264.85
2230.64
2194.68
2156.97
2117.6
2076.46
2033.89
1990.22
1945.36
1899.78
1853.86
1807.55
1762.14
1717.05
1673.41
1631.38
1591
1550.37
1511.03
1473.12
1436.92
1403
1370.59
1341.08
1312.71
1285.91
1259.04
1234.07
1211.1
1190.33
1170.59
1151.58
1133.72
1117.39
1102.63
1089.27
1076.96
1065.53
1054.55
1044.92
1036.55
1020.66
2896.76
2842.33
2839.52
2825.18
2805.6
2789.27
2777.9
2770.48
2765.8
2761.9
2757.12
2751.22
2744.92
2739.14
2734.14
2729.65
2725.53
2721.82
2718.58
2715.79
2713.37
2711.18
2709.08
2706.88
2704.46
2701.79
2698.95
2696.13
2693.5
2691.23
2689.38
2687.94
2686.87
2686.06
2685.41
2684.77
2684.07
2683.22
2682.25
2681.18
2680.07
2678.9
2677.64
2676.32
2674.93
2673.5
2672.02
2670.48
2668.86
2667.11
2665.18
2663.04
2660.67
2658.03
2655.1
2651.83
2648.18
2644.12
2639.6
2634.57
2628.96
2622.69
2615.7
2607.94
2599.34
2589.85
2579.39
2567.85
2555.17
2541.28
2526.09
2509.54
2491.48
2471.78
2450.43
2427.4
2402.72
2376.36
2348.2
2318.23
2286.59
2253.26
2218.26
2181.73
2143.48
2103.59
2061.88
2019.09
1975.65
1931.57
1886.17
1839.77
1793.98
1748.48
1702.47
1657.98
1613.93
1571.56
1530.81
1490.79
1453.73
1419.16
1387.4
1356.86
1328.03
1300.17
1274.68
1250.41
1227.66
1205.54
1184.32
1164.39
1146.15
1129.67
1115.1
1101.86
1089.6
1077.56
1066.24
1055.59
1036
2888.44
2841.82
2841.35
2829.81
2810.46
2793.58
2781.99
2774.52
2769.85
2766.16
2761.71
2756.09
2749.89
2744.1
2739.12
2734.73
2730.72
2727.09
2723.89
2721.1
2718.71
2716.65
2714.8
2712.98
2710.99
2708.67
2705.98
2703.04
2700.06
2697.3
2694.95
2693.1
2691.75
2690.81
2690.17
2689.69
2689.24
2688.74
2688.16
2687.51
2686.85
2686.14
2685.35
2684.5
2683.59
2682.63
2681.63
2680.59
2679.48
2678.27
2676.9
2675.36
2673.6
2671.62
2669.38
2666.84
2663.97
2660.73
2657.08
2652.98
2648.36
2643.14
2637.28
2630.7
2623.36
2615.19
2606.14
2596.1
2585
2572.75
2559.24
2544.44
2528.26
2510.62
2491.54
2470.95
2448.77
2424.92
2399.21
2371.64
2342.32
2311.13
2278.08
2243.25
2206.66
2168.74
2129.35
2088.39
2045.89
2002.16
1958.32
1914.42
1869.77
1824.84
1779.55
1735.21
1691.54
1647.25
1604.44
1560.62
1518.4
1477.33
1437.85
1400.53
1365.55
1333.99
1305.6
1279.1
1253.81
1229.49
1206.69
1185.46
1165.89
1147.76
1131.02
1116.02
1102.64
1090.83
1080.01
1071.23
1052.07
2880.3
2841.68
2842.56
2833.87
2815.42
2798.14
2786.17
2778.46
2773.64
2770.11
2766.04
2760.84
2754.89
2749.17
2744.28
2740.04
2736.19
2732.67
2729.53
2726.76
2724.35
2722.29
2720.55
2718.96
2717.34
2715.46
2713.16
2710.42
2707.4
2704.36
2701.6
2699.31
2697.57
2696.35
2695.57
2695.09
2694.76
2694.47
2694.18
2693.88
2693.62
2693.33
2692.99
2692.59
2692.14
2691.66
2691.13
2690.59
2689.98
2689.3
2688.49
2687.52
2686.38
2685.03
2683.46
2681.64
2679.53
2677.08
2674.29
2671.09
2667.43
2663.26
2658.5
2653.1
2647
2640.15
2632.5
2623.96
2614.45
2603.87
2592.13
2579.21
2565.03
2549.5
2532.58
2514.13
2494
2472.1
2448.33
2422.77
2395.49
2366.35
2335.39
2302.69
2268.2
2232.11
2194.24
2154.94
2114.08
2071.3
2027.33
1982.33
1936.85
1891.06
1845.66
1799.52
1755.37
1711.19
1669.31
1628.25
1588.7
1549.97
1511.3
1472.82
1435.73
1400.19
1367.07
1335.24
1304.92
1276.52
1250.65
1226.63
1204.34
1182.7
1161.19
1140.66
1121.56
1104.68
1090.8
1079.28
1055.92
2871.22
2841.28
2843.44
2837.62
2820.77
2803.2
2790.62
2782.36
2777.2
2773.74
2770.09
2765.41
2759.85
2754.31
2749.55
2745.48
2741.82
2738.46
2735.43
2732.71
2730.31
2728.22
2726.48
2725
2723.61
2722.1
2720.25
2717.92
2715.15
2712.15
2709.22
2706.62
2704.51
2702.95
2701.92
2701.31
2700.95
2700.76
2700.63
2700.57
2700.62
2700.7
2700.76
2700.79
2700.8
2700.77
2700.73
2700.67
2700.57
2700.42
2700.17
2699.79
2699.26
2698.55
2697.65
2696.53
2695.16
2693.51
2691.54
2689.22
2686.5
2683.33
2679.63
2675.36
2670.45
2664.87
2658.55
2651.41
2643.39
2634.39
2624.33
2613.18
2600.83
2587.21
2572.24
2555.8
2537.79
2518.2
2496.98
2474.17
2449.71
2423.41
2395.28
2365.33
2333.5
2299.92
2264.45
2227.41
2188.59
2148.43
2106.79
2063.15
2018.24
1972.71
1927.42
1880.01
1832.74
1785.07
1737.84
1692.6
1647.45
1605.26
1564.99
1527.25
1491.68
1456.41
1422.12
1388.4
1356.33
1326.23
1298.89
1273.05
1249.15
1226.34
1204.45
1183.53
1163.37
1144.41
1126.06
1109.54
1081.24
2860.87
2840.48
2844.2
2841.16
2826.73
2809
2795.44
2786.29
2780.62
2777.16
2773.95
2769.89
2764.82
2759.53
2754.91
2751.02
2747.57
2744.38
2741.47
2738.85
2736.48
2734.4
2732.64
2731.17
2729.91
2728.65
2727.18
2725.31
2722.97
2720.27
2717.45
2714.77
2712.44
2710.59
2709.27
2708.43
2707.95
2707.73
2707.65
2707.72
2707.98
2708.34
2708.74
2709.15
2709.56
2709.96
2710.37
2710.78
2711.18
2711.55
2711.83
2712.02
2712.08
2712
2711.75
2711.32
2710.69
2709.79
2708.63
2707.17
2705.36
2703.16
2700.5
2697.34
2693.61
2689.27
2684.27
2678.54
2672.02
2664.62
2656.25
2646.86
2636.36
2624.68
2611.76
2597.47
2581.76
2564.59
2545.87
2525.52
2503.43
2479.45
2453.67
2426.07
2396.58
2365.26
2332.05
2297.14
2260.35
2222.19
2182.36
2141.24
2098.87
2055.17
2010.6
1965.06
1918.7
1872.9
1826.21
1779.98
1731.9
1685.02
1638.34
1593.28
1550.3
1508.84
1469.48
1432.73
1398.42
1366.21
1336.33
1307.1
1279.53
1253.63
1230.07
1208.96
1189.36
1171.08
1154.59
1140.65
1111.87
2848.87
2839.27
2845.25
2844.37
2832.99
2815.28
2800.45
2790.24
2784.02
2780.56
2777.8
2774.4
2769.89
2764.9
2760.4
2756.67
2753.41
2750.39
2747.61
2745.08
2742.79
2740.76
2739.02
2737.57
2736.37
2735.25
2734.05
2732.58
2730.69
2728.43
2725.93
2723.43
2721.11
2719.14
2717.62
2716.57
2715.91
2715.6
2715.5
2715.58
2715.94
2716.49
2717.14
2717.87
2718.63
2719.43
2720.25
2721.11
2721.99
2722.85
2723.67
2724.42
2725.06
2725.59
2725.99
2726.23
2726.31
2726.17
2725.8
2725.18
2724.26
2722.99
2721.33
2719.23
2716.62
2713.47
2709.72
2705.31
2700.2
2694.29
2687.49
2679.77
2671.02
2661.2
2650.25
2638.03
2624.51
2609.61
2593.18
2575.17
2555.46
2533.98
2510.8
2485.8
2458.91
2430.13
2399.45
2366.92
2332.5
2296.44
2258.34
2218.82
2177.46
2134.78
2090.6
2045.68
1999.53
1953.54
1907.33
1861.96
1816.58
1772.26
1728.3
1683.98
1640.51
1596.67
1554.38
1514.22
1475.91
1439.05
1404.47
1370.5
1338.21
1307.56
1279.22
1253.39
1229.39
1206.76
1186.09
1168.48
1131.97
2835.09
2838.23
2846.99
2847.11
2838.99
2821.84
2805.64
2794.34
2787.61
2784.13
2781.78
2779.02
2775.13
2770.49
2766.11
2762.48
2759.37
2756.48
2753.8
2751.38
2749.17
2747.23
2745.55
2744.16
2743.02
2742.01
2741
2739.8
2738.29
2736.46
2734.38
2732.22
2730.13
2728.25
2726.69
2725.52
2724.74
2724.31
2724.14
2724.19
2724.56
2725.19
2726.02
2726.98
2728.03
2729.15
2730.34
2731.6
2732.91
2734.24
2735.56
2736.84
2738.04
2739.17
2740.18
2741.07
2741.82
2742.41
2742.8
2742.98
2742.93
2742.56
2741.89
2740.82
2739.3
2737.32
2734.8
2731.71
2728
2723.57
2718.36
2712.31
2705.33
2697.37
2688.36
2678.19
2666.8
2654.1
2639.96
2624.32
2607.1
2588.25
2567.8
2545.63
2521.64
2495.85
2468.17
2438.56
2406.97
2373.51
2337.98
2300.88
2261.76
2221.18
2178.91
2134.78
2089.76
2042.65
1994.91
1946.17
1898.18
1849.8
1803.34
1756.9
1712.34
1668.43
1626.01
1585.21
1545.31
1505.68
1468.17
1431.62
1397.5
1364.96
1334.32
1305.6
1279.12
1253.66
1229.68
1208.51
1166.84
2822.72
2836.29
2847.22
2849.08
2844.1
2828.39
2811.03
2798.73
2791.53
2787.92
2785.89
2783.73
2780.51
2776.3
2772.03
2768.44
2765.42
2762.63
2760.03
2757.68
2755.57
2753.73
2752.17
2750.91
2749.87
2748.98
2748.12
2747.13
2745.9
2744.4
2742.71
2740.94
2739.2
2737.57
2736.17
2735.05
2734.27
2733.78
2733.57
2733.6
2733.94
2734.59
2735.51
2736.64
2737.91
2739.3
2740.8
2742.41
2744.1
2745.87
2747.66
2749.44
2751.19
2752.87
2754.48
2756.01
2757.43
2758.72
2759.85
2760.8
2761.55
2762.07
2762.3
2762.25
2761.78
2760.92
2759.58
2757.71
2755.3
2752.26
2748.53
2744.04
2738.71
2732.5
2725.34
2717.12
2707.8
2697.29
2685.46
2672.28
2657.65
2641.51
2623.81
2604.36
2583.09
2559.97
2534.91
2507.91
2478.98
2448.17
2415.34
2380.77
2344.13
2305.98
2265.94
2224.67
2181.82
2137.69
2092.54
2045.63
1998.48
1948.95
1900.28
1850.55
1801.8
1753.79
1706.32
1660.98
1617.12
1573.84
1532.71
1493.42
1457.06
1422.81
1389.81
1357.95
1328.11
1300.35
1274.69
1251.24
1201.2
2812.74
2831.96
2846.18
2850.7
2847.81
2834.78
2817.03
2803.7
2795.86
2791.9
2790.09
2788.49
2786.01
2782.31
2778.15
2774.5
2771.51
2768.78
2766.26
2763.99
2761.99
2760.28
2758.87
2757.77
2756.89
2756.17
2755.47
2754.65
2753.62
2752.37
2750.96
2749.52
2748.11
2746.81
2745.68
2744.76
2744.11
2743.71
2743.54
2743.59
2743.93
2744.58
2745.55
2746.78
2748.21
2749.8
2751.55
2753.45
2755.49
2757.63
2759.84
2762.08
2764.32
2766.54
2768.71
2770.83
2772.88
2774.83
2776.67
2778.38
2779.93
2781.28
2782.4
2783.25
2783.8
2784.02
2783.84
2783.2
2782.1
2780.42
2778.15
2775.21
2771.51
2767.05
2761.71
2755.43
2748.15
2739.76
2730.17
2719.33
2707.12
2693.44
2678.25
2661.4
2642.89
2622.66
2600.61
2576.71
2550.92
2523.13
2493.31
2461.65
2427.94
2392.43
2354.72
2315.43
2274.18
2231.5
2187.36
2142.25
2096.22
2048.7
2001.38
1954.41
1906.8
1859.51
1811.1
1763.9
1717.77
1671.6
1626.34
1581.93
1539.57
1499.81
1461.83
1425.2
1390.47
1359.21
1332.5
1309.97
1267.97
2804.7
2825.62
2844.15
2851.43
2850.38
2841.15
2823.75
2809.14
2800.44
2796
2794.32
2793.22
2791.46
2788.31
2784.27
2780.51
2777.51
2774.87
2772.46
2770.3
2768.44
2766.88
2765.65
2764.73
2764.05
2763.53
2763.02
2762.38
2761.53
2760.47
2759.25
2758.03
2756.89
2755.88
2755.04
2754.39
2753.99
2753.8
2753.79
2753.97
2754.37
2755.08
2756.1
2757.42
2758.97
2760.74
2762.69
2764.84
2767.16
2769.63
2772.22
2774.89
2777.59
2780.3
2783
2785.69
2788.34
2790.93
2793.44
2795.86
2798.16
2800.32
2802.29
2804.06
2805.57
2806.77
2807.64
2808.13
2808.26
2807.86
2806.99
2805.5
2803.31
2800.47
2796.84
2792.38
2787.04
2780.7
2773.29
2764.74
2754.94
2743.83
2731.33
2717.31
2701.71
2684.46
2665.45
2644.65
2621.98
2597.34
2570.72
2542.16
2511.42
2478.65
2443.63
2406.8
2367.86
2327.48
2285.14
2241.1
2195.24
2147.96
2099.39
2051.05
2000.53
1950.87
1900.03
1850.64
1803.15
1756.29
1710.51
1664.8
1619.56
1576.53
1534.95
1494.58
1454.99
1416.59
1380.84
1349.92
1290.53
2798.61
2818.29
2840.57
2851.53
2852.27
2847.02
2830.83
2814.98
2805.29
2800.29
2798.64
2797.89
2796.66
2794.06
2790.24
2786.43
2783.45
2780.96
2778.71
2776.71
2775.01
2773.61
2772.56
2771.82
2771.35
2771.03
2770.72
2770.27
2769.61
2768.71
2767.64
2766.56
2765.58
2764.78
2764.16
2763.78
2763.64
2763.75
2764
2764.38
2764.95
2765.78
2766.91
2768.34
2770.02
2771.93
2774.06
2776.41
2778.97
2781.73
2784.65
2787.68
2790.8
2793.96
2797.16
2800.36
2803.56
2806.75
2809.9
2812.99
2816
2818.92
2821.7
2824.31
2826.73
2828.92
2830.84
2832.43
2833.67
2834.53
2834.95
2834.95
2834.25
2833.03
2831.08
2828.41
2824.93
2820.56
2815.25
2808.92
2801.43
2792.74
2782.75
2771.35
2758.52
2744.17
2728.18
2710.49
2690.98
2669.55
2646.17
2620.82
2593.37
2563.96
2532.38
2498.84
2463.16
2425.84
2386.31
2344.95
2301.72
2257.32
2211.85
2164.45
2116.01
2066.48
2017.57
1966.86
1917.23
1866.72
1817.95
1769.71
1721.16
1674.67
1630.2
1588.48
1549.59
1511.4
1475.3
1443.16
1378.51
2794.51
2810.78
2835.17
2850.74
2854.02
2851.61
2837.79
2821.24
2810.5
2804.75
2802.86
2802.19
2801.35
2799.4
2796.03
2792.33
2789.42
2787.1
2785.02
2783.2
2781.68
2780.45
2779.6
2779.03
2778.76
2778.64
2778.52
2778.25
2777.78
2777.06
2776.12
2775.13
2774.25
2773.57
2773.11
2772.92
2773.04
2773.41
2773.95
2774.62
2775.45
2776.49
2777.8
2779.39
2781.23
2783.31
2785.62
2788.17
2790.95
2793.96
2797.17
2800.54
2804.04
2807.62
2811.26
2814.95
2818.68
2822.42
2826.16
2829.89
2833.58
2837.2
2840.75
2844.17
2847.45
2850.56
2853.44
2856.07
2858.42
2860.44
2862.06
2863.27
2864.02
2864.27
2863.92
2862.92
2861.24
2858.73
2855.43
2851.2
2845.97
2839.67
2832.2
2823.47
2813.43
2801.95
2788.91
2774.25
2757.87
2739.67
2719.6
2697.57
2673.53
2647.51
2619.31
2589
2556.53
2522.17
2485.46
2446.88
2406.25
2364.04
2319.73
2273.51
2225.73
2177.39
2128.84
2078.25
2027.06
1974.12
1922.78
1873.47
1823.15
1773.35
1723.94
1677.2
1634.32
1593
1554.14
1519.5
1449.1
2792.09
2803.94
2828.25
2848.7
2855.12
2854.56
2844.57
2828.15
2816.05
2809.16
2806.75
2806.08
2805.61
2804.45
2801.77
2798.33
2795.49
2793.31
2791.41
2789.76
2788.43
2787.41
2786.75
2786.37
2786.28
2786.36
2786.39
2786.27
2785.96
2785.4
2784.6
2783.71
2782.9
2782.29
2781.92
2781.83
2782.14
2782.72
2783.54
2784.52
2785.63
2786.94
2788.49
2790.29
2792.35
2794.63
2797.14
2799.89
2802.88
2806.13
2809.6
2813.27
2817.1
2821.06
2825.11
2829.25
2833.45
2837.71
2842
2846.31
2850.62
2854.92
2859.17
2863.36
2867.44
2871.41
2875.21
2878.82
2882.2
2885.32
2888.15
2890.64
2892.71
2894.33
2895.46
2896.06
2896.15
2895.43
2894.07
2891.87
2888.75
2884.7
2879.6
2873.37
2865.95
2857.22
2847.08
2835.46
2822.25
2807.36
2790.73
2772.26
2751.91
2729.62
2705.21
2678.69
2649.94
2619.06
2585.84
2550.69
2513.21
2473.66
2431.86
2388.49
2343.39
2296.88
2249.1
2200.06
2148.78
2097.07
2044.97
1994.09
1943.14
1890.99
1838.44
1785.16
1735.98
1687.8
1642.06
1599.38
1514.27
2790.85
2798.45
2820.46
2844.95
2855.15
2856.9
2850.81
2835.29
2821.43
2813.38
2810.38
2809.76
2809.63
2809.28
2807.42
2804.39
2801.61
2799.55
2797.82
2796.38
2795.24
2794.46
2793.97
2793.8
2793.86
2794.1
2794.23
2794.21
2794.03
2793.61
2792.96
2792.17
2791.43
2790.89
2790.58
2790.54
2790.98
2791.72
2792.77
2794.02
2795.42
2797.01
2798.83
2800.91
2803.22
2805.76
2808.5
2811.47
2814.7
2818.18
2821.91
2825.87
2830.02
2834.32
2838.76
2843.31
2847.95
2852.69
2857.49
2862.35
2867.25
2872.17
2877.08
2881.98
2886.82
2891.58
2896.24
2900.76
2905.11
2909.25
2913.16
2916.79
2920.11
2923.05
2925.59
2927.64
2929.2
2930.21
2930.62
2930.38
2929.3
2927.44
2924.6
2920.8
2915.93
2909.86
2902.56
2893.91
2883.82
2872.22
2859.02
2844.05
2827.25
2808.54
2787.77
2764.93
2739.81
2712.52
2683.12
2651.75
2617.81
2581.59
2543.27
2503.3
2460.99
2416.48
2370.11
2322.71
2274.17
2223.72
2172.09
2119.51
2067.89
2015.81
1965.04
1909.22
1857.62
1808.68
1765.39
1727.15
1656.18
2790.31
2794.61
2812.62
2839.48
2854.33
2859.07
2855.94
2841.88
2826.56
2817.65
2814.04
2813.43
2813.59
2813.88
2812.82
2810.31
2807.67
2805.78
2804.27
2803.05
2802.13
2801.55
2801.24
2801.22
2801.44
2801.75
2801.96
2802.02
2801.91
2801.61
2801.09
2800.41
2799.76
2799.27
2799.03
2799.05
2799.55
2800.41
2801.64
2803.12
2804.78
2806.64
2808.73
2811.08
2813.68
2816.49
2819.5
2822.73
2826.2
2829.93
2833.91
2838.15
2842.59
2847.22
2852.01
2856.93
2861.99
2867.15
2872.42
2877.78
2883.22
2888.71
2894.24
2899.78
2905.32
2910.83
2916.28
2921.65
2926.9
2932
2936.93
2941.65
2946.12
2950.31
2954.15
2957.63
2960.7
2963.29
2965.33
2966.8
2967.64
2967.85
2967.16
2965.67
2963.21
2959.66
2955.08
2949.28
2942.19
2933.71
2923.73
2912.09
2898.72
2883.56
2866.49
2847.42
2826.19
2802.89
2777.5
2749.97
2719.84
2687.51
2653.04
2616.56
2577.4
2535.84
2492.17
2447.37
2401.13
2352.93
2302.05
2249.26
2195.97
2143.46
2091.05
2034.76
1977.71
1920.16
1864.85
1813.52
1721.11
2790.1
2792.26
2805.6
2832.65
2852.93
2860.55
2859.03
2847.93
2832
2822.15
2817.78
2816.97
2817.43
2818.24
2817.83
2815.98
2813.66
2811.97
2810.7
2809.66
2808.93
2808.49
2808.33
2808.42
2808.78
2809.13
2809.39
2809.5
2809.45
2809.25
2808.85
2808.3
2807.74
2807.32
2807.15
2807.29
2807.83
2808.79
2810.16
2811.83
2813.72
2815.81
2818.15
2820.77
2823.65
2826.75
2830.05
2833.56
2837.3
2841.29
2845.54
2850.05
2854.79
2859.73
2864.85
2870.14
2875.57
2881.15
2886.86
2892.68
2898.61
2904.64
2910.73
2916.88
2923.06
2929.26
2935.44
2941.59
2947.66
2953.65
2959.51
2965.23
2970.76
2976.07
2981.11
2985.86
2990.28
2994.32
2997.93
3001.07
3003.65
3005.63
3006.95
3007.58
3007.52
3006.33
3004.35
3001.22
2996.94
2991.43
2984.57
2976.25
2966.42
2954.95
2941.76
2926.78
2909.85
2890.91
2869.81
2846.52
2820.92
2793.2
2762.98
2730.34
2695.15
2657.76
2618.14
2576.71
2533.28
2488
2440.27
2390.6
2339.55
2288.06
2236.82
2185.24
2132.23
2077.79
2024.13
1976.87
1890.6
2790.03
2791.02
2800.04
2825.19
2850.33
2861.05
2861.07
2853.45
2837.66
2826.61
2821.39
2820.25
2821.02
2822.49
2822.65
2821.46
2819.52
2818.01
2816.94
2816.04
2815.44
2815.11
2815.08
2815.31
2815.75
2816.15
2816.44
2816.59
2816.59
2816.47
2816.19
2815.77
2815.33
2814.99
2814.88
2815.14
2815.77
2816.84
2818.33
2820.17
2822.25
2824.55
2827.11
2829.96
2833.1
2836.48
2840.07
2843.87
2847.88
2852.15
2856.67
2861.45
2866.48
2871.72
2877.16
2882.78
2888.57
2894.52
2900.62
2906.87
2913.26
2919.76
2926.37
2933.07
2939.84
2946.65
2953.5
2960.36
2967.19
2973.98
2980.7
2987.33
2993.84
3000.19
3006.35
3012.29
3017.96
3023.34
3028.39
3033.04
3037.27
3041
3044.19
3046.72
3048.61
3049.76
3050.16
3049.6
3048.04
3045.42
3041.55
3036.49
3030.05
3022.1
3012.57
3001.34
2988.24
2973.12
2955.84
2936.44
2914.89
2891.14
2864.73
2835.93
2804.87
2771.65
2735.75
2697.23
2656.36
2613.82
2569.26
2522.67
2473.42
2422.48
2370.02
2316.91
2262.49
2210.45
2149.29
2094.24
2000.83
2790.01
2790.43
2796.11
2817.93
2846.27
2860.82
2862.76
2858.15
2843.13
2830.69
2824.76
2823.35
2824.42
2826.69
2827.42
2826.69
2825.08
2823.69
2822.76
2822.01
2821.53
2821.33
2821.41
2821.82
2822.33
2822.78
2823.09
2823.25
2823.31
2823.27
2823.11
2822.8
2822.47
2822.24
2822.21
2822.58
2823.31
2824.49
2826.12
2828.12
2830.38
2832.87
2835.61
2838.67
2842.04
2845.68
2849.55
2853.62
2857.91
2862.45
2867.25
2872.31
2877.62
2883.16
2888.9
2894.84
2900.97
2907.27
2913.75
2920.39
2927.2
2934.14
2941.23
2948.43
2955.73
2963.12
2970.57
2978.08
2985.61
2993.13
3000.63
3008.09
3015.48
3022.76
3029.92
3036.92
3043.73
3050.32
3056.65
3062.68
3068.37
3073.67
3078.53
3082.9
3086.72
3089.9
3092.39
3094.13
3095.05
3095.21
3094.09
3092.06
3088.73
3084.02
3077.93
3070.29
3060.99
3049.91
3036.94
3022.04
3005.12
2986.07
2964.6
2940.92
2914.88
2886.46
2855.23
2821.36
2785.11
2746.85
2706.52
2664
2618.74
2571.43
2521.71
2470.98
2418.7
2365.77
2311.47
2257.15
2167.73
2790
2790.18
2793.58
2811.52
2841.37
2860.02
2864.31
2861.83
2847.9
2834.31
2828.01
2826.4
2827.72
2830.82
2832.06
2831.55
2830.17
2828.89
2828.13
2827.58
2827.25
2827.2
2827.45
2828.01
2828.59
2829.08
2829.39
2829.55
2829.64
2829.67
2829.59
2829.4
2829.15
2829.01
2829.11
2829.56
2830.41
2831.72
2833.5
2835.67
2838.11
2840.77
2843.69
2846.92
2850.5
2854.37
2858.48
2862.81
2867.36
2872.16
2877.23
2882.56
2888.14
2893.97
2900.01
2906.25
2912.69
2919.32
2926.14
2933.15
2940.33
2947.68
2955.18
2962.84
2970.63
2978.52
2986.52
2994.6
3002.75
3010.93
3019.13
3027.33
3035.51
3043.64
3051.7
3059.65
3067.49
3075.17
3082.66
3089.94
3096.96
3103.68
3110.06
3116.05
3121.6
3126.66
3131.17
3135.06
3138.23
3140.66
3142.22
3142.93
3142.69
3141.08
3138.43
3134.34
3128.84
3121.79
3113.05
3102.47
3089.91
3075.3
3058.45
3039.36
3017.71
2993.6
2966.85
2937.66
2905.82
2871.44
2834.66
2795.52
2754.01
2710.26
2663.97
2616.21
2565.95
2515.48
2461.24
2408.14
2325.43
2790
2790.08
2792.09
2806.35
2836.27
2858.8
2865.71
2864.21
2851.88
2837.69
2831.19
2829.43
2830.88
2834.73
2836.38
2835.96
2834.8
2833.71
2833.17
2832.86
2832.73
2832.83
2833.28
2833.95
2834.59
2835.07
2835.34
2835.46
2835.56
2835.63
2835.63
2835.53
2835.37
2835.31
2835.52
2836.08
2837.06
2838.52
2840.45
2842.79
2845.42
2848.25
2851.34
2854.73
2858.48
2862.55
2866.89
2871.45
2876.24
2881.29
2886.61
2892.2
2898.05
2904.14
2910.46
2916.99
2923.73
2930.67
2937.81
2945.15
2952.68
2960.39
2968.29
2976.36
2984.58
2992.94
3001.42
3010.02
3018.72
3027.5
3036.32
3045.18
3054.07
3062.96
3071.81
3080.62
3089.36
3098.01
3106.53
3114.91
3123.1
3131.08
3138.81
3146.24
3153.33
3160.04
3166.32
3172.11
3177.35
3181.98
3185.9
3189.02
3191.34
3192.72
3193.19
3192.38
3190.37
3186.98
3181.99
3175.38
3166.94
3156.61
3144.27
3129.78
3112.86
3093.64
3071.94
3047.82
3020.8
2991.04
2958.6
2923.58
2886.23
2846.2
2803.66
2758.55
2710.92
2661.76
2609.63
2554.83
2479.58
2790
2790.04
2791.26
2802.49
2831.55
2857.47
2866.6
2865.79
2855.22
2840.87
2834.18
2832.33
2833.81
2838.32
2840.3
2840.01
2839.14
2838.3
2838.04
2837.96
2838.04
2838.34
2838.92
2839.64
2840.26
2840.67
2840.85
2840.92
2840.99
2841.1
2841.17
2841.15
2841.09
2841.13
2841.44
2842.12
2843.25
2844.87
2846.97
2849.5
2852.3
2855.32
2858.56
2862.11
2866.02
2870.27
2874.79
2879.56
2884.57
2889.84
2895.39
2901.22
2907.32
2913.67
2920.25
2927.06
2934.07
2941.29
2948.73
2956.37
2964.22
2972.26
2980.51
2988.94
2997.55
3006.32
3015.24
3024.3
3033.48
3042.77
3052.15
3061.59
3071.1
3080.64
3090.2
3099.76
3109.29
3118.79
3128.22
3137.56
3146.78
3155.87
3164.78
3173.48
3181.94
3190.1
3197.95
3205.42
3212.47
3219.04
3225.07
3230.5
3235.25
3239.21
3242.33
3244.49
3245.65
3245.84
3244.4
3241.84
3237.65
3231.76
3224.18
3214.64
3203
3189.18
3172.95
3154.28
3132.78
3108.69
3081.68
3051.98
3019.63
2984.46
2946.86
2906.11
2862.9
2816.69
2767.75
2713.65
2642.11
2790
2790.02
2790.81
2799.83
2827.63
2856.12
2867.12
2867.05
2857.99
2843.73
2836.88
2835.02
2836.47
2841.57
2843.97
2843.88
2843.33
2842.75
2842.75
2842.91
2843.23
2843.65
2844.3
2845
2845.51
2845.77
2845.82
2845.81
2845.85
2846.01
2846.16
2846.23
2846.28
2846.44
2846.88
2847.71
2849
2850.78
2853.06
2855.77
2858.77
2861.96
2865.36
2869.06
2873.12
2877.52
2882.22
2887.17
2892.38
2897.85
2903.6
2909.65
2915.98
2922.57
2929.39
2936.45
2943.72
2951.2
2958.91
2966.82
2974.96
2983.31
2991.86
3000.62
3009.58
3018.71
3028.02
3037.48
3047.09
3056.84
3066.7
3076.66
3086.71
3096.83
3107
3117.21
3127.43
3137.66
3147.88
3158.06
3168.18
3178.22
3188.15
3197.95
3207.58
3217.01
3226.2
3235.13
3243.75
3252.01
3259.86
3267.24
3274.09
3280.35
3285.96
3290.82
3294.8
3297.91
3299.96
3300.97
3300.89
3298.94
3295.78
3290.71
3283.81
3274.84
3263.55
3249.89
3233.58
3214.7
3192.73
3167.95
3140.01
3109.16
3075.41
3038.31
2998.54
2955.36
2909.66
2858.4
2791.16
2790
2790.01
2790.59
2798.15
2824.77
2854.99
2867.45
2868.14
2860.11
2846.13
2839.22
2837.39
2838.96
2844.67
2847.53
2847.66
2847.4
2847.05
2847.29
2847.74
2848.23
2848.73
2849.36
2849.92
2850.21
2850.26
2850.17
2850.08
2850.13
2850.35
2850.61
2850.81
2850.99
2851.29
2851.88
2852.87
2854.33
2856.28
2858.75
2861.64
2864.82
2868.19
2871.75
2875.59
2879.78
2884.33
2889.19
2894.31
2899.68
2905.33
2911.28
2917.52
2924.06
2930.86
2937.91
2945.19
2952.7
2960.43
2968.38
2976.55
2984.94
2993.56
3002.4
3011.45
3020.71
3030.16
3039.81
3049.62
3059.61
3069.75
3080.03
3090.43
3100.95
3111.56
3122.27
3133.03
3143.85
3154.71
3165.6
3176.49
3187.37
3198.23
3209.03
3219.77
3230.4
3240.9
3251.24
3261.41
3271.37
3281.08
3290.49
3299.56
3308.24
3316.47
3324.22
3331.4
3337.95
3343.78
3348.8
3352.85
3355.94
3357.84
3358.6
3357.85
3355.44
3351.4
3345.35
3337.22
3326.8
3313.95
3298.24
3279.82
3258.09
3233.47
3205.39
3173.81
3138.65
3099.14
3056.46
3007.43
2943.44
2790
2790.01
2790.5
2797.32
2823.14
2854.48
2867.77
2869.04
2861.56
2847.91
2841.15
2839.48
2841.47
2847.78
2851.03
2851.33
2851.26
2851.17
2851.65
2852.38
2853
2853.54
2854.05
2854.35
2854.36
2854.17
2853.92
2853.78
2853.88
2854.2
2854.59
2854.92
2855.25
2855.71
2856.46
2857.63
2859.26
2861.39
2864.04
2867.12
2870.48
2874.01
2877.72
2881.69
2886.02
2890.71
2895.71
2900.98
2906.51
2912.32
2918.43
2924.86
2931.58
2938.58
2945.83
2953.32
2961.04
2968.99
2977.16
2985.56
2994.19
3003.05
3012.13
3021.44
3030.97
3040.71
3050.65
3060.78
3071.09
3081.57
3092.22
3103
3113.92
3124.96
3136.11
3147.36
3158.68
3170.08
3181.53
3193.04
3204.57
3216.11
3227.65
3239.17
3250.65
3262.06
3273.38
3284.59
3295.67
3306.58
3317.3
3327.79
3338
3347.9
3357.43
3366.56
3375.22
3383.36
3390.89
3397.74
3403.83
3409.03
3413.27
3416.43
3418.39
3419.14
3418.23
3415.57
3411.01
3404.18
3394.89
3382.96
3367.79
3349.64
3327.6
3302.09
3271.82
3236.59
3196.98
3150.29
3088.91
2790
2790.01
2790.48
2797.14
2822.79
2854.51
2868.28
2869.78
2862.34
2849.07
2842.73
2841.39
2844.15
2851.03
2854.45
2854.8
2854.87
2855.04
2855.78
2856.79
2857.5
2858
2858.3
2858.29
2857.99
2857.56
2857.18
2857.03
2857.2
2857.64
2858.16
2858.64
2859.12
2859.74
2860.67
2862.01
2863.82
2866.15
2868.99
2872.25
2875.78
2879.45
2883.29
2887.4
2891.86
2896.69
2901.82
2907.22
2912.89
2918.85
2925.11
2931.7
2938.59
2945.77
2953.2
2960.88
2968.8
2976.94
2985.32
2993.93
3002.77
3011.85
3021.16
3030.7
3040.47
3050.46
3060.65
3071.05
3081.65
3092.43
3103.39
3114.5
3125.77
3137.17
3148.71
3160.36
3172.12
3183.97
3195.91
3207.92
3220
3232.12
3244.28
3256.46
3268.64
3280.8
3292.93
3305
3317.01
3328.93
3340.73
3352.38
3363.86
3375.13
3386.16
3396.9
3407.33
3417.38
3427.01
3436.17
3444.77
3452.77
3460.05
3466.53
3472.04
3476.51
3479.77
3481.69
3482.23
3480.7
3477.37
3471.82
3463.65
3452.85
3438.67
3421.43
3398.99
3371.49
3336.92
3294.64
3236.76
2790
2790.01
2790.5
2797.33
2823.42
2855.29
2869.01
2870.32
2862.47
2849.66
2844.04
2843.2
2847.09
2854.45
2857.78
2858.07
2858.19
2858.62
2859.67
2860.89
2861.62
2861.99
2862.03
2861.71
2861.12
2860.5
2860.04
2859.91
2860.18
2860.74
2861.38
2861.99
2862.62
2863.4
2864.5
2866.02
2868.03
2870.55
2873.58
2877.02
2880.71
2884.52
2888.48
2892.71
2897.3
2902.26
2907.52
2913.05
2918.84
2924.93
2931.34
2938.08
2945.12
2952.46
2960.06
2967.91
2976.01
2984.33
2992.89
3001.69
3010.72
3020
3029.51
3039.26
3049.25
3059.46
3069.89
3080.53
3091.38
3102.43
3113.66
3125.06
3136.63
3148.35
3160.22
3172.23
3184.36
3196.6
3208.95
3221.4
3233.93
3246.54
3259.22
3271.95
3284.72
3297.51
3310.3
3323.09
3335.86
3348.61
3361.29
3373.9
3386.41
3398.79
3411.02
3423.08
3434.93
3446.54
3457.87
3468.87
3479.49
3489.69
3499.39
3508.52
3517.02
3524.79
3531.75
3537.72
3542.71
3546.42
3548.77
3549.63
3548.37
3544.88
3538.84
3530.05
3517.01
3499.67
3473.64
3441.94
3394.23
2790
2790.01
2790.58
2798.15
2825.42
2856.91
2869.86
2870.65
2862.06
2849.83
2845.11
2845.01
2850.33
2857.99
2861.06
2861.23
2861.32
2861.93
2863.27
2864.55
2865.19
2865.35
2865.13
2864.5
2863.71
2862.97
2862.49
2862.42
2862.81
2863.49
2864.25
2864.97
2865.73
2866.67
2867.95
2869.66
2871.87
2874.61
2877.85
2881.46
2885.29
2889.22
2893.3
2897.65
2902.37
2907.45
2912.84
2918.49
2924.4
2930.62
2937.16
2944.03
2951.22
2958.71
2966.46
2974.48
2982.73
2991.22
2999.95
3008.92
3018.13
3027.59
3037.28
3047.22
3057.4
3067.82
3078.46
3089.31
3100.38
3111.66
3123.14
3134.8
3146.63
3158.63
3170.79
3183.1
3195.55
3208.13
3220.83
3233.66
3246.59
3259.62
3272.74
3285.94
3299.21
3312.53
3325.88
3339.27
3352.68
3366.1
3379.52
3392.91
3406.26
3419.55
3432.76
3445.87
3458.86
3471.7
3484.37
3496.84
3509.06
3521.02
3532.66
3543.94
3554.81
3565.21
3575.07
3584.3
3592.8
3600.43
3607.04
3612.53
3616.7
3619.33
3620.4
3619.32
3615.69
3608.79
3595.15
3578.43
3548.72
2790
2790.02
2790.76
2799.69
2828.5
2859.01
2870.7
2870.69
2861.17
2849.85
2846
2846.85
2853.84
2861.55
2864.27
2864.31
2864.35
2865.08
2866.5
2867.59
2868
2867.92
2867.42
2866.59
2865.71
2864.94
2864.5
2864.54
2865.05
2865.84
2866.7
2867.54
2868.43
2869.54
2871.01
2872.93
2875.36
2878.32
2881.76
2885.55
2889.51
2893.55
2897.74
2902.21
2907.06
2912.26
2917.77
2923.53
2929.57
2935.91
2942.57
2949.58
2956.9
2964.53
2972.43
2980.59
2988.99
2997.64
3006.53
3015.66
3025.04
3034.66
3044.54
3054.65
3065.02
3075.62
3086.46
3097.51
3108.79
3120.29
3131.98
3143.87
3155.94
3168.19
3180.61
3193.19
3205.93
3218.8
3231.82
3244.97
3258.24
3271.63
3285.12
3298.72
3312.41
3326.18
3340.01
3353.9
3367.83
3381.82
3395.83
3409.87
3423.9
3437.92
3451.91
3465.86
3479.75
3493.56
3507.28
3520.88
3534.35
3547.64
3560.74
3573.62
3586.21
3598.51
3610.44
3621.97
3633.04
3643.6
3653.56
3662.84
3671.3
3678.76
3685.13
3690.16
3693.86
3695.44
3694.11
3689.28
3679.89
2790
2790.03
2791.12
2802.03
2832.53
2861.38
2871.49
2870.47
2859.86
2849.82
2846.87
2848.88
2857.46
2864.95
2867.33
2867.3
2867.34
2868.09
2869.28
2869.92
2869.98
2869.61
2868.88
2867.94
2867.06
2866.36
2866.01
2866.2
2866.85
2867.76
2868.71
2869.65
2870.68
2871.97
2873.64
2875.8
2878.48
2881.68
2885.35
2889.3
2893.38
2897.53
2901.83
2906.42
2911.4
2916.73
2922.34
2928.22
2934.37
2940.82
2947.61
2954.74
2962.2
2969.95
2977.98
2986.27
2994.81
3003.6
3012.63
3021.92
3031.45
3041.23
3051.26
3061.54
3072.08
3082.85
3093.86
3105.1
3116.57
3128.26
3140.16
3152.26
3164.55
3177.03
3189.69
3202.53
3215.52
3228.66
3241.96
3255.4
3268.98
3282.69
3296.52
3310.46
3324.52
3338.66
3352.9
3367.2
3381.58
3396.03
3410.53
3425.08
3439.65
3454.25
3468.85
3483.44
3498.03
3512.57
3527.08
3541.51
3555.87
3570.12
3584.25
3598.23
3612.03
3625.65
3639.01
3652.13
3664.9
3677.3
3689.27
3700.75
3711.65
3721.87
3731.32
3739.92
3747.46
3753.68
3758.57
3760.6
3763.05
2790
2790.06
2791.71
2805.26
2837.3
2863.73
2872.02
2869.97
2858.37
2849.75
2847.87
2851.41
2861.1
2868.04
2870.07
2870.08
2870.16
2870.79
2871.48
2871.56
2871.21
2870.5
2869.61
2868.64
2867.83
2867.23
2867.01
2867.37
2868.18
2869.2
2870.26
2871.32
2872.5
2873.98
2875.88
2878.29
2881.24
2884.71
2888.59
2892.71
2896.9
2901.14
2905.55
2910.27
2915.38
2920.83
2926.55
2932.54
2938.79
2945.37
2952.28
2959.54
2967.11
2974.99
2983.15
2991.57
3000.24
3009.16
3018.33
3027.75
3037.43
3047.35
3057.54
3067.97
3078.66
3089.6
3100.78
3112.18