/*--------------------------------*- C++ -*----------------------------------*\
| =========                 |                                                 |
| \\      /  F ield         | OpenFOAM: The Open Source CFD Toolbox           |
|  \\    /   O peration     | Version:  2412                                  |
|   \\  /    A nd           | Website:  www.openfoam.com                      |
|    \\/     M anipulation  |                                                 |
\*---------------------------------------------------------------------------*/
FoamFile
{
    version     2.0;
    format      ascii;
    arch        "LSB;label=32;scalar=64";
    class       volScalarField;
    location    "0.029";
    object      rho;
}
// * * * * * * * * * * * * * * * * * * * * * * * * * * * * * * * * * * * * * //

dimensions      [1 -3 0 0 0 0 0];

internalField   nonuniform List<scalar> 
78650
(
0.042133
0.042133
0.042133
0.042133
0.042133
0.042133
0.042133
0.042133
0.042133
0.042133
0.042133
0.0421331
0.0421339
0.0421491
0.0422395
0.0424364
0.0426127
0.0426873
0.0426776
0.0425973
0.0424111
0.0422282
0.0420987
0.042016
0.0419654
0.0419284
0.0418875
0.0418385
0.0417837
0.0417289
0.0416776
0.0416309
0.041589
0.0415516
0.041518
0.0414876
0.0414614
0.0414394
0.041421
0.0414039
0.0413857
0.0413651
0.0413422
0.0413204
0.0413048
0.0412987
0.0413005
0.0413092
0.0413246
0.0413445
0.0413656
0.0413853
0.0414025
0.0414166
0.0414274
0.041435
0.04144
0.0414428
0.0414437
0.0414428
0.0414399
0.0414351
0.0414282
0.0414189
0.0414072
0.0413928
0.0413755
0.0413546
0.0413296
0.0413001
0.0412654
0.0412248
0.0411775
0.0411225
0.0410591
0.0409864
0.0409035
0.040809
0.0407019
0.0405809
0.0404449
0.0402921
0.0401209
0.0399289
0.039715
0.0394779
0.0392163
0.0389271
0.0386069
0.0382561
0.0378755
0.0374624
0.0370089
0.0365107
0.0359736
0.0354012
0.0347956
0.0341553
0.0334783
0.0327615
0.0320214
0.0312556
0.0304715
0.0296813
0.028854
0.0280521
0.0272985
0.0265809
0.0258829
0.025194
0.0245257
0.0239175
0.0233611
0.0228471
0.0223992
0.0219707
0.0215733
0.0211668
0.0207811
0.0204212
0.0198121
0.042133
0.042133
0.042133
0.042133
0.042133
0.042133
0.042133
0.042133
0.042133
0.042133
0.042133
0.042133
0.0421335
0.0421427
0.0422115
0.0423949
0.0425925
0.0426886
0.0426885
0.042635
0.0424637
0.042276
0.0421389
0.0420513
0.0419972
0.04196
0.0419212
0.0418749
0.0418222
0.0417686
0.0417182
0.0416726
0.0416321
0.0415962
0.0415641
0.0415347
0.0415091
0.0414875
0.0414701
0.0414552
0.0414409
0.0414251
0.0414065
0.0413864
0.0413682
0.0413569
0.0413539
0.0413572
0.0413673
0.0413839
0.0414045
0.0414261
0.0414469
0.0414657
0.0414819
0.0414953
0.0415062
0.0415148
0.0415213
0.0415258
0.0415284
0.0415289
0.0415275
0.0415238
0.0415179
0.0415095
0.0414985
0.0414843
0.0414665
0.0414447
0.0414183
0.0413868
0.0413492
0.0413048
0.0412528
0.0411925
0.041123
0.0410431
0.0409517
0.0408478
0.0407303
0.0405975
0.040448
0.0402794
0.0400906
0.0398798
0.0396452
0.0393846
0.0390968
0.0387812
0.038434
0.0380498
0.0376255
0.0371652
0.0366742
0.0361476
0.0355828
0.0349756
0.0343142
0.0336185
0.0328924
0.0321546
0.0313838
0.030626
0.0298592
0.0290643
0.0282833
0.0274865
0.0267175
0.0259941
0.0252855
0.0246226
0.0240024
0.0234065
0.0228557
0.0223476
0.0219062
0.0215065
0.021123
0.0207443
0.0200892
0.042133
0.042133
0.042133
0.042133
0.042133
0.042133
0.042133
0.042133
0.042133
0.042133
0.042133
0.042133
0.0421332
0.0421385
0.042188
0.0423511
0.0425634
0.0426869
0.0426994
0.0426671
0.0425157
0.0423266
0.0421817
0.0420876
0.0420288
0.0419906
0.0419539
0.0419109
0.0418609
0.0418089
0.0417598
0.0417156
0.0416765
0.0416422
0.0416117
0.0415837
0.0415587
0.0415374
0.0415203
0.0415066
0.0414947
0.0414828
0.0414692
0.0414532
0.0414365
0.0414226
0.0414155
0.0414148
0.0414194
0.0414314
0.0414493
0.0414704
0.0414928
0.0415149
0.0415354
0.041554
0.0415704
0.0415847
0.0415969
0.0416072
0.0416155
0.0416217
0.0416258
0.0416278
0.0416279
0.0416257
0.0416211
0.0416138
0.041603
0.0415888
0.0415704
0.0415476
0.0415195
0.0414853
0.0414442
0.0413957
0.0413388
0.0412726
0.041196
0.041108
0.0410075
0.0408931
0.0407635
0.0406166
0.0404508
0.0402644
0.0400561
0.0398243
0.0395673
0.0392829
0.0389676
0.0386188
0.0382347
0.0378166
0.0373642
0.0368716
0.0363398
0.0357652
0.0351558
0.0345105
0.0338178
0.0331016
0.0323525
0.0315698
0.0307896
0.0299648
0.0291508
0.0283428
0.0275252
0.0267391
0.0259781
0.0252616
0.0245861
0.0239533
0.0233553
0.0227795
0.0222481
0.0217265
0.0212635
0.0208575
0.02017
0.042133
0.042133
0.042133
0.042133
0.042133
0.042133
0.042133
0.042133
0.042133
0.042133
0.042133
0.042133
0.0421331
0.0421359
0.0421692
0.0423067
0.0425258
0.0426792
0.0427099
0.0426926
0.0425682
0.0423826
0.0422284
0.0421251
0.04206
0.0420205
0.0419863
0.0419474
0.0419009
0.0418512
0.0418036
0.0417608
0.0417231
0.0416903
0.0416613
0.0416346
0.0416105
0.0415895
0.0415724
0.0415589
0.0415483
0.041539
0.0415294
0.0415184
0.0415059
0.0414932
0.0414836
0.0414799
0.0414808
0.0414874
0.0415011
0.0415199
0.0415419
0.0415654
0.041589
0.0416115
0.0416327
0.0416523
0.0416701
0.0416861
0.0417
0.041712
0.0417219
0.0417297
0.0417356
0.0417394
0.0417411
0.0417404
0.0417367
0.04173
0.0417195
0.0417051
0.0416861
0.0416617
0.0416312
0.0415941
0.0415495
0.0414967
0.0414345
0.0413621
0.0412784
0.0411823
0.0410726
0.0409473
0.0408048
0.0406434
0.0404615
0.0402576
0.0400302
0.0397771
0.0394944
0.0391794
0.038832
0.0384534
0.0380406
0.037587
0.0370935
0.0365563
0.0359804
0.0353616
0.0347025
0.0339909
0.0332556
0.0324783
0.0316959
0.0308919
0.0300522
0.0292376
0.0283993
0.0275792
0.026792
0.0260202
0.0252832
0.0245929
0.023954
0.0233672
0.0228168
0.022252
0.0216948
0.0211841
0.0203102
0.042133
0.042133
0.042133
0.042133
0.042133
0.042133
0.042133
0.042133
0.042133
0.042133
0.042133
0.042133
0.0421331
0.0421344
0.042155
0.0422641
0.0424801
0.0426633
0.042716
0.0427135
0.0426207
0.0424424
0.0422773
0.0421626
0.0420911
0.0420503
0.0420191
0.0419848
0.0419425
0.0418955
0.0418497
0.0418083
0.041772
0.0417405
0.0417129
0.0416875
0.0416644
0.0416438
0.0416269
0.0416133
0.0416031
0.0415952
0.0415884
0.0415816
0.0415741
0.0415654
0.0415569
0.0415516
0.0415505
0.0415535
0.0415629
0.041578
0.0415979
0.0416211
0.0416459
0.0416711
0.0416959
0.0417199
0.0417427
0.041764
0.0417837
0.0418013
0.041817
0.0418308
0.0418427
0.0418527
0.0418606
0.0418663
0.0418696
0.0418702
0.0418676
0.0418615
0.0418514
0.0418364
0.0418161
0.0417898
0.041757
0.0417168
0.0416683
0.0416105
0.0415425
0.0414633
0.0413719
0.0412664
0.0411454
0.0410069
0.0408496
0.0406723
0.0404731
0.0402497
0.0399991
0.0397209
0.0394137
0.0390744
0.0386963
0.0382757
0.037816
0.0373162
0.0367819
0.0362047
0.0355869
0.0349302
0.034226
0.0334848
0.0326986
0.0319186
0.0310894
0.0302533
0.0294221
0.0285633
0.0277338
0.0269028
0.0260829
0.0253274
0.0245995
0.0239337
0.0233349
0.0227536
0.0222133
0.0217093
0.0208178
0.042133
0.042133
0.042133
0.042133
0.042133
0.042133
0.042133
0.042133
0.042133
0.042133
0.042133
0.042133
0.0421331
0.0421336
0.0421452
0.0422255
0.0424272
0.0426368
0.0427177
0.0427335
0.0426709
0.0425047
0.042328
0.0422013
0.0421239
0.0420816
0.0420534
0.0420238
0.0419863
0.0419426
0.0418987
0.0418585
0.0418235
0.0417931
0.0417665
0.0417423
0.0417201
0.0417
0.0416833
0.0416697
0.0416596
0.0416522
0.0416471
0.0416434
0.0416401
0.0416364
0.0416317
0.0416276
0.0416262
0.0416278
0.0416339
0.0416453
0.041662
0.0416833
0.0417078
0.0417341
0.0417612
0.0417885
0.0418154
0.0418415
0.0418663
0.0418895
0.0419109
0.0419305
0.0419482
0.0419643
0.0419786
0.0419909
0.042001
0.0420085
0.0420134
0.0420152
0.0420138
0.0420082
0.041998
0.0419821
0.0419606
0.0419325
0.0418973
0.0418539
0.0418014
0.0417389
0.0416654
0.0415796
0.0414799
0.0413646
0.0412321
0.0410809
0.0409093
0.0407155
0.0404974
0.0402531
0.0399797
0.0396737
0.0393318
0.038954
0.0385425
0.038093
0.0376048
0.0370693
0.0364921
0.035868
0.0351976
0.0344853
0.033722
0.0329269
0.0321103
0.0312469
0.0303953
0.0295251
0.0286398
0.0277856
0.0269259
0.0261201
0.0253222
0.0245456
0.023821
0.0231327
0.0225267
0.0219896
0.021033
0.042133
0.042133
0.042133
0.042133
0.042133
0.042133
0.042133
0.042133
0.042133
0.042133
0.042133
0.042133
0.042133
0.0421333
0.0421391
0.0421932
0.0423697
0.0425989
0.0427156
0.0427517
0.0427141
0.0425653
0.0423802
0.0422425
0.0421598
0.0421152
0.0420891
0.042064
0.0420315
0.0419916
0.04195
0.0419111
0.041877
0.0418474
0.0418217
0.0417984
0.041777
0.0417576
0.0417413
0.0417279
0.0417179
0.0417108
0.0417066
0.0417049
0.0417049
0.0417055
0.0417054
0.041705
0.0417055
0.0417078
0.041713
0.0417221
0.041736
0.0417547
0.0417776
0.0418035
0.0418315
0.0418608
0.0418907
0.0419206
0.0419499
0.0419781
0.0420048
0.04203
0.0420536
0.0420756
0.0420961
0.0421149
0.0421318
0.0421465
0.0421588
0.0421683
0.0421748
0.042178
0.0421776
0.042172
0.0421616
0.042145
0.0421222
0.0420922
0.0420541
0.0420071
0.0419503
0.0418825
0.0418024
0.0417082
0.0415985
0.0414718
0.0413266
0.0411611
0.0409735
0.0407622
0.0405241
0.0402558
0.0399547
0.0396197
0.0392498
0.0388397
0.0383889
0.0378917
0.037353
0.0367676
0.0361378
0.0354629
0.0347411
0.0339626
0.03315
0.0323024
0.0314233
0.0305613
0.029645
0.0287539
0.0278645
0.0270088
0.0261761
0.0253825
0.0246196
0.0238736
0.0231628
0.0225066
0.0213241
0.042133
0.042133
0.042133
0.042133
0.042133
0.042133
0.042133
0.042133
0.042133
0.042133
0.042133
0.042133
0.042133
0.0421331
0.0421357
0.0421686
0.0423114
0.0425484
0.0427084
0.0427663
0.0427439
0.0426244
0.0424384
0.04229
0.0422001
0.042151
0.042126
0.0421051
0.042078
0.0420428
0.0420036
0.0419657
0.0419322
0.0419031
0.041878
0.0418554
0.0418347
0.041816
0.0418002
0.0417874
0.0417779
0.0417712
0.0417678
0.0417671
0.0417693
0.0417731
0.0417772
0.0417812
0.0417853
0.0417903
0.0417969
0.0418058
0.0418182
0.0418347
0.0418556
0.0418801
0.0419077
0.0419377
0.0419693
0.0420019
0.0420348
0.0420673
0.0420988
0.0421292
0.0421582
0.042186
0.0422124
0.0422375
0.042261
0.0422825
0.0423019
0.0423192
0.0423339
0.0423454
0.0423535
0.0423578
0.0423582
0.0423531
0.0423426
0.0423256
0.0423015
0.0422696
0.0422291
0.042179
0.0421182
0.0420449
0.0419579
0.0418554
0.041736
0.0415982
0.0414403
0.0412603
0.0410546
0.040821
0.0405578
0.0402645
0.0399382
0.0395738
0.03917
0.0387215
0.0382313
0.0376932
0.0371114
0.0364825
0.035806
0.0350798
0.0343012
0.0334872
0.0326319
0.0317516
0.0308541
0.0299092
0.0289781
0.0280149
0.0270942
0.026205
0.0253798
0.0246058
0.0238866
0.0232269
0.0220365
0.042133
0.042133
0.042133
0.042133
0.042133
0.042133
0.042133
0.042133
0.042133
0.042133
0.042133
0.042133
0.042133
0.0421331
0.0421341
0.0421518
0.0422572
0.0424864
0.042689
0.0427729
0.0427648
0.0426816
0.042503
0.0423428
0.0422433
0.0421883
0.0421635
0.0421467
0.0421252
0.0420948
0.0420583
0.0420211
0.0419877
0.0419587
0.041934
0.0419123
0.0418925
0.0418746
0.0418594
0.0418476
0.0418389
0.0418331
0.0418307
0.0418309
0.0418346
0.0418404
0.0418475
0.0418554
0.0418638
0.0418728
0.0418826
0.0418936
0.0419066
0.0419225
0.041942
0.0419652
0.0419919
0.0420215
0.0420537
0.0420879
0.0421232
0.042159
0.0421946
0.0422295
0.0422636
0.0422967
0.0423288
0.0423598
0.0423896
0.0424178
0.0424443
0.0424688
0.0424912
0.0425111
0.0425282
0.0425417
0.0425514
0.042557
0.0425582
0.0425536
0.042543
0.0425252
0.0424997
0.0424658
0.0424224
0.0423683
0.042302
0.0422219
0.0421268
0.0420152
0.0418854
0.0417355
0.041563
0.0413662
0.0411428
0.0408894
0.0406019
0.0402761
0.0399118
0.0395056
0.0390591
0.0385656
0.0380265
0.0374372
0.0367972
0.0361055
0.035358
0.0345562
0.0337105
0.0328072
0.0319253
0.0309803
0.0300597
0.0290834
0.0281259
0.0271538
0.0261957
0.0252842
0.0244188
0.0236516
0.0221843
0.042133
0.042133
0.042133
0.042133
0.042133
0.042133
0.042133
0.042133
0.042133
0.042133
0.042133
0.042133
0.042133
0.042133
0.0421334
0.0421418
0.0422119
0.0424163
0.042652
0.0427724
0.0427813
0.0427343
0.0425713
0.0424004
0.0422896
0.0422283
0.0422032
0.0421894
0.0421723
0.0421462
0.0421123
0.0420757
0.0420424
0.0420138
0.0419896
0.0419689
0.0419502
0.0419335
0.0419193
0.0419086
0.041901
0.0418965
0.0418952
0.0418968
0.0419015
0.0419087
0.0419178
0.0419285
0.0419404
0.0419535
0.0419675
0.0419821
0.0419977
0.0420148
0.0420345
0.0420571
0.0420828
0.0421118
0.0421438
0.0421786
0.0422154
0.0422536
0.0422923
0.042331
0.0423693
0.0424072
0.0424444
0.042481
0.0425167
0.0425513
0.0425844
0.0426159
0.0426457
0.0426735
0.0426989
0.0427215
0.042741
0.0427566
0.0427682
0.0427753
0.0427776
0.0427738
0.0427633
0.0427453
0.042719
0.0426835
0.0426373
0.0425792
0.0425076
0.0424212
0.0423182
0.0421969
0.0420551
0.0418909
0.0417016
0.0414846
0.041237
0.0409566
0.0406426
0.0402906
0.0398995
0.0394621
0.038979
0.0384446
0.0378587
0.0372204
0.0365257
0.0357732
0.0349697
0.0341003
0.0331764
0.0322218
0.0312251
0.0302485
0.029263
0.0283093
0.0273311
0.0264028
0.0254799
0.0246273
0.0229954
0.042133
0.042133
0.042133
0.042133
0.042133
0.042133
0.042133
0.042133
0.042133
0.042133
0.042133
0.042133
0.042133
0.042133
0.0421331
0.0421366
0.0421781
0.0423446
0.0425974
0.0427627
0.0427976
0.0427752
0.0426384
0.0424626
0.0423403
0.0422715
0.0422434
0.0422303
0.042216
0.0421941
0.0421637
0.0421288
0.0420962
0.0420683
0.0420449
0.0420254
0.0420081
0.0419929
0.0419798
0.0419704
0.041964
0.0419611
0.0419611
0.0419644
0.0419701
0.0419786
0.0419891
0.0420015
0.0420161
0.0420325
0.0420505
0.0420693
0.0420887
0.0421088
0.0421304
0.0421539
0.0421798
0.0422085
0.0422403
0.0422752
0.0423128
0.0423524
0.0423934
0.0424351
0.042477
0.042519
0.0425608
0.0426024
0.0426436
0.042684
0.0427234
0.0427616
0.0427984
0.0428336
0.042867
0.0428982
0.0429266
0.042952
0.0429741
0.0429922
0.0430057
0.0430143
0.0430176
0.0430145
0.0430041
0.0429859
0.042958
0.0429199
0.0428699
0.042807
0.0427296
0.0426361
0.0425247
0.0423938
0.0422407
0.0420625
0.0418563
0.0416194
0.0413499
0.041043
0.0406971
0.0403058
0.0398695
0.0393824
0.0388452
0.0382555
0.0376081
0.036906
0.0361455
0.035335
0.0344512
0.0335239
0.0325393
0.0315472
0.0304959
0.0294602
0.0283711
0.0273361
0.0263502
0.0254826
0.0238818
0.042133
0.042133
0.042133
0.042133
0.042133
0.042133
0.042133
0.042133
0.042133
0.042133
0.042133
0.042133
0.042133
0.042133
0.0421331
0.0421343
0.0421559
0.0422784
0.0425283
0.0427402
0.0428067
0.0428023
0.0427039
0.0425321
0.042396
0.0423157
0.0422811
0.0422671
0.0422553
0.0422388
0.0422138
0.0421819
0.0421506
0.0421235
0.042101
0.0420827
0.042067
0.0420533
0.0420416
0.0420335
0.0420284
0.042027
0.0420288
0.0420335
0.0420405
0.0420502
0.0420619
0.0420757
0.0420919
0.0421107
0.0421318
0.0421544
0.0421778
0.0422018
0.0422265
0.0422523
0.0422797
0.0423092
0.0423413
0.0423763
0.0424143
0.0424549
0.0424974
0.0425413
0.0425861
0.0426314
0.0426771
0.0427231
0.0427691
0.0428149
0.0428601
0.0429044
0.0429478
0.0429901
0.043031
0.0430701
0.0431072
0.0431418
0.0431735
0.0432021
0.0432272
0.043248
0.0432638
0.0432743
0.0432791
0.0432778
0.0432679
0.0432495
0.0432201
0.0431797
0.0431264
0.0430589
0.0429756
0.0428744
0.0427527
0.0426083
0.0424387
0.0422417
0.0420146
0.041753
0.0414551
0.0411152
0.0407328
0.0403015
0.0398207
0.0392862
0.0386934
0.0380423
0.0373262
0.0365487
0.0357108
0.0347971
0.0338211
0.0328059
0.0317334
0.030675
0.0295352
0.0284481
0.0273352
0.0263079
0.0243255
0.042133
0.042133
0.042133
0.042133
0.042133
0.042133
0.042133
0.042133
0.042133
0.042133
0.042133
0.042133
0.042133
0.042133
0.042133
0.0421334
0.0421432
0.0422237
0.0424501
0.0427006
0.0428056
0.0428245
0.0427644
0.0426047
0.0424516
0.0423581
0.0423159
0.0423011
0.0422924
0.0422819
0.0422637
0.0422358
0.042206
0.0421798
0.042158
0.0421409
0.0421269
0.042115
0.0421049
0.0420981
0.0420945
0.0420943
0.0420981
0.0421039
0.0421124
0.0421233
0.0421362
0.0421511
0.0421686
0.042189
0.0422123
0.0422379
0.0422648
0.0422926
0.042321
0.0423502
0.0423803
0.0424117
0.0424451
0.0424809
0.0425196
0.0425611
0.0426049
0.0426505
0.0426975
0.0427456
0.0427946
0.0428443
0.0428946
0.0429452
0.0429956
0.0430456
0.0430951
0.0431439
0.0431918
0.0432384
0.0432835
0.0433266
0.0433675
0.0434059
0.0434413
0.0434733
0.0435014
0.043525
0.0435432
0.0435558
0.0435621
0.0435622
0.043552
0.0435328
0.0435018
0.0434588
0.0434018
0.0433294
0.0432392
0.0431295
0.0429978
0.0428418
0.042658
0.0424428
0.0421941
0.0419067
0.0415797
0.0412064
0.0407858
0.0403119
0.0397814
0.0391932
0.0385386
0.0378227
0.0370376
0.0361868
0.0352693
0.0342747
0.0332338
0.0321474
0.0310383
0.0299137
0.0287956
0.0277368
0.0256979
0.042133
0.042133
0.042133
0.042133
0.042133
0.042133
0.042133
0.042133
0.042133
0.042133
0.042133
0.042133
0.042133
0.042133
0.042133
0.0421331
0.042137
0.0421839
0.0423701
0.0426434
0.042796
0.0428457
0.0428141
0.0426725
0.0425061
0.042401
0.042351
0.0423352
0.0423295
0.0423242
0.0423131
0.0422902
0.0422623
0.042237
0.0422162
0.0422004
0.0421884
0.0421785
0.0421702
0.0421646
0.0421623
0.0421633
0.0421686
0.0421757
0.0421854
0.0421975
0.0422116
0.0422278
0.0422464
0.042268
0.0422928
0.0423204
0.04235
0.0423809
0.0424129
0.0424456
0.0424791
0.0425134
0.042549
0.0425865
0.0426265
0.042669
0.042714
0.0427612
0.04281
0.0428604
0.042912
0.0429649
0.0430188
0.0430735
0.0431286
0.0431838
0.0432388
0.0432936
0.0433478
0.0434014
0.0434539
0.0435051
0.0435545
0.043602
0.0436472
0.0436898
0.0437292
0.043765
0.0437966
0.0438237
0.043845
0.0438602
0.0438685
0.0438698
0.0438601
0.0438404
0.043808
0.0437623
0.0437011
0.0436231
0.0435255
0.043406
0.0432612
0.0430882
0.0428845
0.0426455
0.0423695
0.0420497
0.0416851
0.0412683
0.0407963
0.0402648
0.0396657
0.0390049
0.0382719
0.0374692
0.0365854
0.0356129
0.0345921
0.0334505
0.0323019
0.0310423
0.0298506
0.0287598
0.0266468
0.042133
0.042133
0.042133
0.042133
0.042133
0.042133
0.042133
0.042133
0.042133
0.042133
0.042133
0.042133
0.042133
0.042133
0.042133
0.0421331
0.0421344
0.0421585
0.0422968
0.0425712
0.0427793
0.0428587
0.0428443
0.0427358
0.0425647
0.0424469
0.0423878
0.0423694
0.0423659
0.0423649
0.0423604
0.0423439
0.0423193
0.0422956
0.0422761
0.0422615
0.0422514
0.0422432
0.0422367
0.0422322
0.0422309
0.0422333
0.0422396
0.0422479
0.0422588
0.042272
0.0422874
0.0423049
0.0423247
0.0423475
0.0423734
0.0424024
0.0424339
0.0424673
0.0425021
0.0425381
0.042575
0.0426127
0.0426513
0.0426913
0.0427333
0.0427775
0.0428241
0.0428729
0.0429235
0.0429759
0.0430299
0.0430856
0.0431426
0.043201
0.0432602
0.0433199
0.04338
0.0434401
0.0435002
0.0435601
0.0436195
0.043678
0.0437353
0.0437912
0.0438454
0.0438977
0.0439475
0.0439945
0.0440381
0.0440779
0.0441134
0.044144
0.0441683
0.0441859
0.0441959
0.0441982
0.044189
0.0441688
0.0441349
0.0440863
0.0440207
0.0439357
0.0438288
0.0436974
0.0435389
0.0433489
0.0431254
0.0428619
0.0425566
0.0422018
0.0417955
0.0413319
0.040805
0.0402148
0.0395507
0.0388173
0.038004
0.0371112
0.0361354
0.0350921
0.0339763
0.032747
0.0314389
0.0301936
0.0278215
0.042133
0.042133
0.042133
0.042133
0.042133
0.042133
0.042133
0.042133
0.042133
0.042133
0.042133
0.042133
0.042133
0.042133
0.042133
0.042133
0.0421335
0.0421445
0.0422373
0.0424905
0.0427482
0.0428621
0.0428638
0.0427935
0.0426271
0.0424946
0.0424254
0.0424028
0.0424008
0.0424045
0.0424056
0.0423967
0.0423771
0.0423555
0.0423371
0.0423234
0.0423146
0.0423081
0.0423031
0.0422997
0.0422991
0.0423029
0.0423102
0.0423198
0.0423319
0.0423464
0.0423631
0.042382
0.0424031
0.042427
0.0424541
0.0424842
0.0425171
0.0425522
0.0425892
0.0426278
0.0426677
0.0427087
0.0427505
0.0427934
0.0428379
0.0428844
0.0429331
0.0429837
0.0430363
0.0430907
0.0431468
0.0432048
0.0432646
0.0433261
0.0433888
0.0434526
0.0435171
0.0435821
0.0436475
0.0437131
0.0437787
0.0438439
0.0439085
0.0439721
0.0440346
0.0440958
0.0441553
0.0442127
0.0442675
0.0443193
0.0443678
0.0444123
0.0444522
0.0444868
0.0445145
0.0445349
0.044547
0.0445505
0.044542
0.044521
0.044485
0.0444326
0.0443615
0.0442696
0.0441537
0.0440098
0.0438352
0.0436239
0.043374
0.0430777
0.0427336
0.0423338
0.0418734
0.0413484
0.0407483
0.0400759
0.0393198
0.0384859
0.037553
0.0365248
0.0353908
0.0342469
0.0329125
0.0317544
0.0296119
0.042133
0.042133
0.042133
0.042133
0.042133
0.042133
0.042133
0.042133
0.042133
0.042133
0.042133
0.042133
0.042133
0.042133
0.042133
0.042133
0.0421332
0.0421377
0.0421943
0.0424098
0.0426991
0.0428568
0.0428804
0.0428424
0.0426885
0.0425406
0.0424628
0.0424358
0.0424349
0.0424436
0.0424502
0.042447
0.0424332
0.0424141
0.0423967
0.0423834
0.0423754
0.0423702
0.0423669
0.0423649
0.0423652
0.0423702
0.0423788
0.0423898
0.0424033
0.0424192
0.0424374
0.0424577
0.0424802
0.0425054
0.0425336
0.0425649
0.042599
0.0426355
0.0426742
0.0427148
0.0427572
0.0428009
0.0428458
0.0428918
0.0429393
0.0429885
0.0430396
0.0430926
0.0431474
0.043204
0.0432623
0.0433226
0.0433849
0.0434492
0.0435151
0.0435825
0.043651
0.0437204
0.0437905
0.0438613
0.0439325
0.0440039
0.044075
0.0441457
0.0442158
0.0442851
0.0443533
0.0444201
0.044485
0.0445478
0.044608
0.0446651
0.0447187
0.044768
0.0448122
0.0448506
0.0448819
0.0449052
0.0449196
0.0449245
0.0449168
0.0448949
0.044857
0.0448005
0.0447229
0.0446204
0.0444908
0.0443289
0.044133
0.0438956
0.0436151
0.0432825
0.0428939
0.042443
0.0419214
0.0413287
0.0406502
0.039889
0.0390245
0.0380759
0.0370125
0.0358823
0.0345363
0.0332063
0.0308169
0.042133
0.042133
0.042133
0.042133
0.042133
0.042133
0.042133
0.042133
0.042133
0.042133
0.042133
0.042133
0.042133
0.042133
0.042133
0.042133
0.0421331
0.0421348
0.0421666
0.042337
0.0426374
0.0428425
0.0428964
0.042878
0.0427434
0.0425855
0.0425013
0.0424692
0.0424687
0.0424815
0.0424933
0.0424934
0.0424848
0.0424687
0.0424524
0.0424396
0.0424323
0.0424286
0.042427
0.0424268
0.0424285
0.0424346
0.0424446
0.0424572
0.0424723
0.0424898
0.0425095
0.0425314
0.0425554
0.0425819
0.0426114
0.0426439
0.0426793
0.0427172
0.0427573
0.0427996
0.0428439
0.04289
0.0429376
0.0429865
0.0430368
0.0430888
0.0431427
0.0431983
0.0432556
0.0433145
0.0433751
0.0434376
0.0435023
0.0435691
0.0436379
0.0437084
0.0437804
0.0438537
0.043928
0.0440034
0.0440796
0.0441565
0.0442335
0.0443106
0.0443876
0.0444642
0.0445403
0.0446157
0.0446899
0.0447626
0.0448335
0.0449023
0.0449685
0.0450314
0.0450905
0.045145
0.0451941
0.045237
0.0452721
0.0452985
0.0453152
0.0453214
0.0453141
0.0452906
0.0452495
0.0451872
0.0451024
0.0449901
0.0448482
0.0446691
0.0444508
0.0441839
0.0438654
0.043486
0.0430387
0.0425199
0.0419179
0.0412336
0.0404473
0.0395683
0.0385764
0.0374754
0.036257
0.03502
0.0328868
0.042133
0.042133
0.042133
0.042133
0.042133
0.042133
0.042133
0.042133
0.042133
0.042133
0.042133
0.042133
0.042133
0.042133
0.042133
0.042133
0.042133
0.0421337
0.0421505
0.0422771
0.0425705
0.0428213
0.0429072
0.0428997
0.0427921
0.0426314
0.0425409
0.0425025
0.0425009
0.0425158
0.0425326
0.0425354
0.0425309
0.0425185
0.042504
0.0424923
0.0424859
0.0424839
0.0424841
0.0424859
0.0424888
0.0424961
0.0425075
0.0425216
0.0425383
0.0425574
0.0425788
0.0426023
0.0426278
0.0426557
0.0426865
0.0427203
0.0427571
0.0427965
0.0428381
0.0428818
0.0429278
0.0429759
0.0430257
0.0430771
0.0431301
0.0431848
0.0432415
0.0432999
0.0433598
0.0434213
0.0434843
0.0435492
0.0436163
0.0436855
0.043757
0.0438304
0.0439056
0.0439824
0.0440606
0.0441401
0.0442209
0.0443026
0.044385
0.0444679
0.0445511
0.0446343
0.0447176
0.0448006
0.0448831
0.0449648
0.0450453
0.0451245
0.0452018
0.0452769
0.0453493
0.0454181
0.0454829
0.0455428
0.045597
0.0456445
0.0456838
0.0457136
0.0457328
0.0457404
0.0457335
0.0457084
0.045664
0.045595
0.0454998
0.0453714
0.0452082
0.045001
0.0447475
0.0444376
0.0440661
0.0436255
0.0431044
0.0425018
0.0418011
0.041001
0.0400624
0.0390075
0.0377995
0.036483
0.034366
0.042133
0.042133
0.042133
0.042133
0.042133
0.042133
0.042133
0.042133
0.042133
0.042133
0.042133
0.042133
0.042133
0.042133
0.042133
0.042133
0.042133
0.0421333
0.0421419
0.042232
0.0425048
0.042794
0.0429098
0.0429156
0.0428356
0.0426773
0.0425787
0.0425336
0.0425289
0.0425454
0.0425684
0.042575
0.0425735
0.0425651
0.042553
0.042543
0.0425376
0.042537
0.0425393
0.0425425
0.0425467
0.0425552
0.0425678
0.0425832
0.0426013
0.042622
0.042645
0.04267
0.0426971
0.0427264
0.0427585
0.0427937
0.0428321
0.042873
0.0429162
0.0429615
0.043009
0.0430588
0.0431105
0.0431641
0.0432194
0.0432767
0.0433359
0.0433971
0.0434598
0.0435239
0.0435895
0.0436568
0.0437262
0.0437979
0.0438718
0.0439479
0.044026
0.0441059
0.0441875
0.0442707
0.0443554
0.0444415
0.0445287
0.0446167
0.0447053
0.0447945
0.0448841
0.0449739
0.0450639
0.0451536
0.0452427
0.0453312
0.0454186
0.0455046
0.0455888
0.0456707
0.0457496
0.0458249
0.0458959
0.0459618
0.0460215
0.046074
0.0461177
0.046151
0.0461727
0.0461815
0.0461744
0.0461458
0.0460956
0.0460172
0.0459103
0.0457656
0.0455815
0.0453466
0.0450569
0.0447011
0.0442697
0.0437571
0.0431469
0.0424312
0.0415885
0.0406416
0.0395191
0.0383223
0.0364066
0.042133
0.042133
0.042133
0.042133
0.042133
0.042133
0.042133
0.042133
0.042133
0.042133
0.042133
0.042133
0.042133
0.042133
0.042133
0.042133
0.042133
0.0421331
0.0421376
0.0422005
0.042446
0.0427618
0.0429067
0.0429301
0.0428733
0.0427205
0.0426114
0.0425605
0.0425531
0.0425722
0.0426028
0.0426142
0.0426148
0.0426099
0.0426003
0.042592
0.0425877
0.0425883
0.0425927
0.0425971
0.0426026
0.0426122
0.0426259
0.0426426
0.0426619
0.0426839
0.0427083
0.0427347
0.0427632
0.0427939
0.0428274
0.042864
0.0429039
0.0429465
0.0429913
0.0430382
0.0430873
0.0431387
0.0431922
0.0432475
0.0433049
0.0433644
0.043426
0.0434897
0.043555
0.0436218
0.0436899
0.0437597
0.0438315
0.0439055
0.0439819
0.0440605
0.0441413
0.044224
0.0443087
0.0443953
0.0444836
0.0445735
0.0446649
0.0447575
0.0448511
0.0449456
0.0450408
0.0451368
0.0452333
0.0453302
0.045427
0.0455237
0.04562
0.0457156
0.0458103
0.0459035
0.0459949
0.0460838
0.0461696
0.0462518
0.0463293
0.0464014
0.0464669
0.0465249
0.0465732
0.0466101
0.0466344
0.0466441
0.0466364
0.0466045
0.0465488
0.0464593
0.0463359
0.0461662
0.045947
0.045665
0.0453134
0.0448837
0.0443621
0.0437367
0.0429862
0.0420921
0.0410296
0.03982
0.0380779
0.042133
0.042133
0.042133
0.042133
0.042133
0.042133
0.042133
0.042133
0.042133
0.042133
0.042133
0.042133
0.042133
0.042133
0.042133
0.042133
0.042133
0.0421331
0.0421355
0.04218
0.0423973
0.042729
0.0429012
0.0429437
0.0429045
0.0427561
0.0426379
0.0425838
0.0425758
0.0425985
0.042637
0.0426536
0.042656
0.0426529
0.0426456
0.0426384
0.0426352
0.0426373
0.0426437
0.0426494
0.0426564
0.0426674
0.0426824
0.0427002
0.0427207
0.0427438
0.0427693
0.042797
0.0428267
0.0428587
0.0428935
0.0429315
0.0429728
0.0430169
0.0430634
0.043112
0.0431627
0.0432156
0.0432707
0.0433278
0.0433869
0.0434483
0.043512
0.043578
0.0436458
0.0437151
0.0437858
0.043858
0.0439321
0.0440085
0.0440871
0.0441681
0.0442514
0.0443368
0.0444243
0.0445138
0.0446053
0.0446987
0.0447938
0.0448904
0.0449883
0.0450875
0.0451877
0.045289
0.0453913
0.0454944
0.045598
0.0457019
0.045806
0.0459101
0.046014
0.0461172
0.0462194
0.0463202
0.0464191
0.0465156
0.0466089
0.0466983
0.0467829
0.0468619
0.0469337
0.0469975
0.0470509
0.0470917
0.0471185
0.0471288
0.0471192
0.0470804
0.0470137
0.046907
0.0467603
0.0465585
0.0462966
0.0459609
0.0455364
0.0450116
0.0443599
0.0435529
0.0425945
0.0414225
0.0398485
0.042133
0.042133
0.042133
0.042133
0.042133
0.042133
0.042133
0.042133
0.042133
0.042133
0.042133
0.042133
0.042133
0.042133
0.042133
0.042133
0.042133
0.0421331
0.0421345
0.0421674
0.0423605
0.0426999
0.0428975
0.042957
0.0429273
0.0427821
0.0426595
0.0426056
0.0425986
0.042625
0.0426711
0.0426926
0.0426964
0.0426939
0.0426879
0.0426815
0.0426791
0.0426835
0.0426919
0.0426994
0.0427082
0.0427209
0.0427374
0.0427566
0.0427783
0.0428024
0.0428289
0.0428576
0.0428884
0.0429215
0.0429574
0.0429965
0.0430391
0.0430847
0.0431327
0.0431828
0.0432351
0.0432895
0.0433461
0.0434047
0.0434654
0.0435285
0.0435941
0.0436621
0.0437321
0.0438037
0.0438767
0.0439513
0.0440277
0.0441063
0.0441872
0.0442705
0.044356
0.0444439
0.0445339
0.0446261
0.0447205
0.0448169
0.0449153
0.0450155
0.0451173
0.0452205
0.0453251
0.0454312
0.0455385
0.0456471
0.0457566
0.0458669
0.0459779
0.0460894
0.0462012
0.0463132
0.0464249
0.046536
0.0466462
0.046755
0.0468619
0.0469663
0.0470675
0.0471647
0.0472569
0.0473433
0.0474222
0.0474923
0.0475509
0.0475955
0.0476247
0.0476354
0.0476229
0.0475778
0.0475007
0.0473752
0.0472001
0.0469581
0.0466375
0.0462234
0.0456782
0.0449727
0.0440969
0.0429867
0.0415053
0.042133
0.042133
0.042133
0.042133
0.042133
0.042133
0.042133
0.042133
0.042133
0.042133
0.042133
0.042133
0.042133
0.042133
0.042133
0.042133
0.042133
0.0421331
0.0421341
0.0421603
0.0423358
0.0426775
0.0428972
0.0429683
0.0429422
0.0428006
0.0426777
0.0426261
0.0426214
0.0426521
0.0427049
0.0427304
0.0427353
0.0427327
0.042727
0.0427213
0.0427201
0.0427271
0.0427375
0.0427471
0.0427582
0.0427728
0.0427911
0.0428119
0.0428349
0.0428601
0.0428876
0.0429172
0.0429489
0.0429829
0.0430196
0.0430598
0.0431034
0.0431502
0.0431995
0.043251
0.0433047
0.0433606
0.0434186
0.0434787
0.0435408
0.0436054
0.0436726
0.0437424
0.0438144
0.0438881
0.0439633
0.04404
0.0441186
0.0441994
0.0442824
0.0443678
0.0444555
0.0445456
0.044638
0.0447327
0.0448296
0.0449288
0.0450301
0.0451334
0.0452386
0.0453454
0.0454539
0.045564
0.0456758
0.0457891
0.0459037
0.0460196
0.0461365
0.0462544
0.0463732
0.0464926
0.0466125
0.0467325
0.0468524
0.0469718
0.0470904
0.0472077
0.0473231
0.0474361
0.0475459
0.0476518
0.0477524
0.0478469
0.0479333
0.0480106
0.0480751
0.0481244
0.0481562
0.0481665
0.0481493
0.0480912
0.0479922
0.0478337
0.0476088
0.0472974
0.04686
0.0462683
0.0454824
0.0444567
0.0430779
0.042133
0.042133
0.042133
0.042133
0.042133
0.042133
0.042133
0.042133
0.042133
0.042133
0.042133
0.042133
0.042133
0.042133
0.042133
0.042133
0.042133
0.0421331
0.0421339
0.0421573
0.0423228
0.0426657
0.0428998
0.0429768
0.0429519
0.0428132
0.0426928
0.0426448
0.0426434
0.0426797
0.0427383
0.0427667
0.0427726
0.0427698
0.0427639
0.0427591
0.0427598
0.0427687
0.0427812
0.042793
0.0428062
0.0428231
0.0428434
0.0428661
0.0428906
0.042917
0.0429455
0.042976
0.0430084
0.043043
0.0430805
0.0431214
0.0431658
0.0432136
0.043264
0.0433166
0.0433715
0.0434287
0.0434881
0.0435495
0.043613
0.043679
0.0437476
0.043819
0.0438928
0.0439684
0.0440455
0.0441242
0.0442048
0.0442876