/*--------------------------------*- C++ -*----------------------------------*\
| =========                 |                                                 |
| \\      /  F ield         | OpenFOAM: The Open Source CFD Toolbox           |
|  \\    /   O peration     | Version:  2406                                  |
|   \\  /    A nd           | Website:  www.openfoam.com                      |
|    \\/     M anipulation  |                                                 |
\*---------------------------------------------------------------------------*/
FoamFile
{
    version     2.0;
    format      ascii;
    arch        "LSB;label=32;scalar=64";
    class       volScalarField;
    location    "0.029";
    object      rho;
}
// * * * * * * * * * * * * * * * * * * * * * * * * * * * * * * * * * * * * * //

dimensions      [1 -3 0 0 0 0 0];

internalField   nonuniform List<scalar> 
78650
(
0.0433613
0.0426928
0.0426314
0.0424511
0.0422438
0.0420774
0.0419597
0.0418818
0.0418318
0.0417882
0.0417343
0.0416693
0.041602
0.0415412
0.0414877
0.0414388
0.0413937
0.0413532
0.041318
0.0412872
0.0412595
0.041233
0.0412061
0.0411776
0.0411479
0.0411181
0.0410897
0.041064
0.0410418
0.0410233
0.0410082
0.0409958
0.0409855
0.0409762
0.040967
0.0409569
0.0409451
0.0409312
0.0409158
0.0408992
0.0408821
0.0408644
0.0408458
0.0408265
0.0408066
0.0407862
0.0407653
0.0407436
0.0407206
0.040696
0.0406691
0.0406397
0.0406074
0.0405718
0.0405326
0.0404892
0.0404412
0.0403882
0.0403296
0.0402647
0.0401926
0.0401126
0.0400238
0.0399258
0.0398178
0.0396991
0.0395688
0.0394253
0.0392677
0.0390954
0.0389078
0.038705
0.0384857
0.0382476
0.0379893
0.0377095
0.0374084
0.0370866
0.0367429
0.0363763
0.0359885
0.0355788
0.035147
0.0346939
0.0342177
0.0337219
0.0332103
0.0326811
0.0321398
0.0315906
0.0310326
0.0304813
0.0299296
0.0293918
0.0288699
0.0283645
0.0278521
0.0273521
0.0268668
0.0263998
0.025959
0.0255347
0.0251458
0.0247694
0.0244118
0.0240508
0.0237134
0.0234009
0.0231172
0.0228464
0.0225849
0.0223387
0.022113
0.0219077
0.0217184
0.0215379
0.0213617
0.0211826
0.0210148
0.0208601
0.0206159
0.0432664
0.0426899
0.0426589
0.0425066
0.0422987
0.0421251
0.0420041
0.0419249
0.041875
0.0418334
0.0417824
0.0417194
0.041652
0.0415902
0.0415367
0.0414887
0.0414445
0.0414048
0.0413701
0.0413401
0.0413141
0.0412907
0.0412682
0.0412445
0.0412185
0.0411898
0.0411593
0.041129
0.0411007
0.0410763
0.0410564
0.041041
0.0410294
0.0410207
0.0410136
0.0410069
0.0409992
0.0409901
0.0409797
0.0409682
0.0409562
0.0409436
0.0409301
0.0409158
0.0409008
0.0408854
0.0408695
0.0408529
0.0408354
0.0408165
0.0407957
0.0407727
0.0407471
0.0407186
0.040687
0.0406516
0.0406123
0.0405684
0.0405195
0.0404651
0.0404044
0.0403365
0.0402607
0.0401765
0.0400832
0.03998
0.0398661
0.0397404
0.0396021
0.0394504
0.0392841
0.0391025
0.0389042
0.0386872
0.0384515
0.0381966
0.0379225
0.037629
0.0373144
0.0369782
0.0366221
0.0362452
0.0358477
0.0354308
0.0349922
0.0345322
0.0340485
0.0335492
0.0330392
0.0325182
0.0319781
0.0314219
0.0308689
0.0303153
0.0297512
0.0292015
0.0286527
0.0281208
0.027605
0.0270944
0.0266178
0.0261699
0.0257553
0.0253541
0.0249728
0.024602
0.0242609
0.023934
0.023626
0.0233251
0.0230354
0.0227626
0.0225125
0.0222853
0.0220819
0.0218917
0.0217077
0.0215172
0.021327
0.0211387
0.0208405
0.0431782
0.0426841
0.0426782
0.0425557
0.0423504
0.042171
0.0420476
0.041968
0.0419182
0.0418789
0.0418314
0.0417714
0.0417052
0.0416432
0.04159
0.041543
0.0415001
0.0414612
0.0414269
0.041397
0.0413714
0.0413493
0.0413295
0.0413099
0.0412885
0.0412637
0.0412349
0.0412033
0.0411712
0.0411416
0.0411163
0.0410964
0.0410819
0.0410718
0.0410649
0.0410597
0.0410549
0.0410495
0.0410432
0.0410363
0.0410292
0.0410215
0.0410131
0.0410039
0.0409941
0.0409837
0.040973
0.0409618
0.0409499
0.0409368
0.0409221
0.0409054
0.0408865
0.0408652
0.040841
0.0408136
0.0407827
0.0407477
0.0407084
0.0406641
0.0406142
0.0405578
0.0404944
0.0404233
0.0403437
0.0402552
0.040157
0.0400479
0.0399272
0.0397939
0.0396466
0.0394849
0.0393078
0.0391145
0.0389048
0.0386781
0.0384332
0.0381691
0.0378836
0.0375765
0.0372486
0.0368986
0.036526
0.0361318
0.0357156
0.0352822
0.0348296
0.0343563
0.0338622
0.0333507
0.0328346
0.0323143
0.0317815
0.0312416
0.0306934
0.0301527
0.0296162
0.0290678
0.0285335
0.0279823
0.0274467
0.0269215
0.0264125
0.0259274
0.0254691
0.0250526
0.0246754
0.024321
0.0239809
0.023652
0.0233426
0.0230534
0.0227861
0.0225369
0.0223038
0.0220895
0.0218904
0.0217045
0.0215221
0.0213584
0.0210661
0.0430917
0.0426823
0.0426909
0.0425987
0.0424029
0.0422194
0.0420922
0.04201
0.0419586
0.041921
0.0418776
0.0418221
0.0417585
0.0416975
0.0416452
0.0415998
0.0415586
0.041521
0.0414874
0.0414577
0.0414319
0.0414098
0.0413911
0.0413741
0.0413567
0.0413365
0.0413119
0.0412825
0.04125
0.0412174
0.0411878
0.0411632
0.0411444
0.0411314
0.041123
0.0411178
0.0411142
0.0411112
0.041108
0.0411048
0.041102
0.0410988
0.0410952
0.0410909
0.0410861
0.0410808
0.0410753
0.0410693
0.0410629
0.0410555
0.0410468
0.0410364
0.0410241
0.0410096
0.0409927
0.0409731
0.0409503
0.0409241
0.0408939
0.0408594
0.0408201
0.040775
0.0407237
0.0406654
0.0405995
0.0405255
0.0404428
0.0403503
0.0402472
0.0401324
0.0400049
0.0398643
0.0397098
0.0395403
0.0393553
0.039153
0.038932
0.0386908
0.0384285
0.0381454
0.0378423
0.0375175
0.037171
0.0368036
0.0364145
0.0360054
0.035574
0.035124
0.0346535
0.0341581
0.0336456
0.0331179
0.0325808
0.0320363
0.0314926
0.030936
0.0303995
0.0298583
0.0293417
0.0288312
0.0283361
0.0278475
0.0273561
0.0268632
0.0263845
0.025922
0.0254883
0.0250683
0.0246655
0.0242858
0.0239383
0.0236144
0.0233127
0.023018
0.0227216
0.0224333
0.0221569
0.0219009
0.0216754
0.0214734
0.0211225
0.0429954
0.0426778
0.0427001
0.0426384
0.0424597
0.0422733
0.0421395
0.0420515
0.0419966
0.0419597
0.0419207
0.0418709
0.0418115
0.0417524
0.0417015
0.041658
0.0416189
0.041583
0.0415505
0.0415214
0.0414957
0.0414734
0.0414547
0.0414388
0.0414239
0.0414077
0.0413879
0.0413629
0.0413332
0.041301
0.0412696
0.0412416
0.041219
0.0412023
0.0411912
0.0411846
0.0411808
0.0411787
0.0411773
0.0411767
0.0411772
0.041178
0.0411787
0.0411791
0.0411791
0.0411788
0.0411783
0.0411777
0.0411767
0.041175
0.0411723
0.0411683
0.0411626
0.041155
0.0411453
0.0411333
0.0411185
0.0411007
0.0410796
0.0410547
0.0410255
0.0409913
0.0409515
0.0409055
0.0408526
0.0407924
0.0407242
0.0406472
0.0405606
0.0404633
0.0403544
0.0402334
0.0400994
0.0399514
0.0397884
0.0396091
0.0394123
0.0391978
0.0389648
0.0387137
0.0384438
0.0381526
0.0378401
0.0375061
0.03715
0.0367726
0.0363722
0.0359521
0.0355096
0.0350494
0.0345694
0.0340635
0.0335396
0.0330048
0.0324693
0.0319046
0.0313376
0.0307611
0.0301856
0.0296298
0.0290707
0.028544
0.0280372
0.0275585
0.0271042
0.0266505
0.0262065
0.0257669
0.0253458
0.0249481
0.024585
0.0242402
0.0239202
0.0236129
0.0233149
0.0230244
0.0227357
0.0224524
0.0221668
0.0218993
0.0214834
0.0428857
0.0426691
0.042708
0.0426758
0.0425229
0.0423349
0.0421907
0.0420934
0.042033
0.0419962
0.0419619
0.0419186
0.0418646
0.0418082
0.0417588
0.0417173
0.0416804
0.0416462
0.0416151
0.0415871
0.0415617
0.0415395
0.0415206
0.0415049
0.0414914
0.0414779
0.0414621
0.0414422
0.0414171
0.0413881
0.0413578
0.0413291
0.0413041
0.0412843
0.0412701
0.0412611
0.0412559
0.0412535
0.0412527
0.0412534
0.0412563
0.0412601
0.0412644
0.0412688
0.0412732
0.0412775
0.0412819
0.0412863
0.0412906
0.0412945
0.0412976
0.0412995
0.0413002
0.0412994
0.0412967
0.0412921
0.0412853
0.0412757
0.0412632
0.0412476
0.0412282
0.0412045
0.041176
0.041142
0.0411019
0.0410553
0.0410015
0.0409398
0.0408696
0.0407898
0.0406995
0.0405981
0.0404846
0.0403582
0.0402181
0.0400629
0.0398921
0.0397051
0.0395007
0.0392781
0.0390358
0.038772
0.0384876
0.0381821
0.0378547
0.0375055
0.0371339
0.0367415
0.036326
0.0358929
0.0354386
0.0349668
0.034478
0.0339708
0.0334501
0.0329147
0.0323658
0.0318197
0.0312589
0.0306994
0.0301129
0.0295365
0.0289576
0.0283942
0.0278523
0.0273252
0.0268208
0.0263461
0.0258996
0.0254777
0.025084
0.0246968
0.02433
0.0239832
0.0236645
0.0233731
0.0230942
0.0228228
0.0225653
0.0223337
0.0219128
0.0427584
0.0426561
0.0427191
0.0427097
0.0425892
0.0424015
0.042244
0.0421354
0.0420692
0.0420324
0.0420029
0.0419667
0.0419186
0.0418654
0.0418174
0.0417776
0.0417428
0.0417104
0.0416807
0.0416538
0.0416293
0.0416076
0.0415889
0.0415734
0.0415605
0.0415486
0.0415358
0.0415199
0.0414998
0.0414755
0.0414488
0.0414219
0.0413971
0.041376
0.0413597
0.0413484
0.0413414
0.041338
0.0413369
0.0413378
0.0413417
0.0413475
0.0413546
0.0413623
0.0413705
0.041379
0.0413879
0.0413971
0.0414065
0.0414157
0.0414245
0.0414325
0.0414394
0.0414451
0.0414494
0.0414519
0.0414527
0.0414513
0.0414473
0.0414407
0.0414309
0.0414172
0.0413995
0.0413769
0.0413489
0.0413152
0.0412749
0.0412277
0.0411728
0.0411092
0.0410362
0.040953
0.0408588
0.040753
0.0406347
0.0405028
0.0403564
0.0401949
0.0400165
0.0398205
0.0396056
0.0393708
0.0391167
0.0388421
0.0385456
0.0382273
0.0378867
0.0375242
0.037139
0.0367337
0.0363034
0.0358547
0.0353826
0.0348927
0.0343825
0.0338605
0.0333207
0.032779
0.0322308
0.0316889
0.0311429
0.0306057
0.0300689
0.0295235
0.0289844
0.0284362
0.0279032
0.0273928
0.0269023
0.0264269
0.0259781
0.0255345
0.0251106
0.0247054
0.0243272
0.0239761
0.0236411
0.0233133
0.0230004
0.0227198
0.0221945
0.0426122
0.0426449
0.0427374
0.0427387
0.0426528
0.042471
0.0422991
0.042179
0.0421074
0.0420704
0.0420454
0.0420159
0.0419745
0.041925
0.0418783
0.0418396
0.0418064
0.0417755
0.0417469
0.041721
0.0416975
0.0416767
0.0416587
0.0416439
0.0416317
0.0416209
0.04161
0.0415972
0.0415811
0.0415615
0.0415392
0.0415161
0.0414938
0.0414736
0.0414569
0.0414444
0.041436
0.0414313
0.0414295
0.0414301
0.0414341
0.0414408
0.0414496
0.0414599
0.0414712
0.0414832
0.041496
0.0415094
0.0415234
0.0415377
0.0415518
0.0415655
0.0415784
0.0415904
0.0416013
0.0416108
0.0416188
0.0416251
0.0416293
0.0416312
0.0416306
0.0416267
0.0416195
0.0416082
0.0415919
0.0415707
0.0415438
0.0415107
0.0414709
0.0414235
0.0413677
0.0413028
0.0412279
0.0411424
0.0410456
0.0409361
0.0408134
0.0406764
0.0405236
0.0403544
0.0401677
0.0399629
0.0397403
0.0394983
0.0392358
0.0389527
0.0386479
0.0383208
0.0379705
0.0375979
0.0372007
0.0367839
0.0363422
0.0358818
0.0353994
0.0348929
0.034373
0.0338253
0.0332665
0.0326919
0.032122
0.0315431
0.0309828
0.0304184
0.0298726
0.0293304
0.0288025
0.028291
0.0277871
0.0272829
0.0268025
0.0263313
0.0258891
0.0254643
0.0250608
0.0246761
0.0243122
0.0239497
0.0235949
0.0232685
0.0226774
0.0424808
0.0426243
0.0427399
0.0427595
0.0427069
0.0425406
0.0423563
0.0422256
0.0421491
0.0421107
0.0420891
0.0420661
0.0420318
0.0419869
0.0419414
0.0419031
0.041871
0.0418412
0.0418134
0.0417883
0.0417658
0.0417462
0.0417295
0.041716
0.0417049
0.0416954
0.0416862
0.0416756
0.0416624
0.0416465
0.0416283
0.0416094
0.0415908
0.0415734
0.0415584
0.0415464
0.041538
0.0415328
0.0415306
0.0415308
0.0415345
0.0415415
0.0415513
0.0415633
0.0415769
0.0415918
0.0416079
0.041625
0.0416432
0.0416621
0.0416812
0.0417003
0.0417189
0.0417369
0.0417541
0.0417704
0.0417856
0.0417993
0.0418115
0.0418216
0.0418296
0.0418351
0.0418376
0.0418371
0.041832
0.0418229
0.0418086
0.0417887
0.0417629
0.0417304
0.0416906
0.0416426
0.0415856
0.0415192
0.0414425
0.0413545
0.0412545
0.0411416
0.0410144
0.0408725
0.0407148
0.0405405
0.040349
0.0401381
0.039907
0.0396551
0.0393813
0.0390853
0.0387673
0.0384272
0.0380636
0.0376791
0.0372697
0.0368415
0.0363898
0.0359217
0.035433
0.0349267
0.0344055
0.0338604
0.0333088
0.0327252
0.0321474
0.0315526
0.0309649
0.0303815
0.0297999
0.0292397
0.0286937
0.0281504
0.0276301
0.0271297
0.0266638
0.0262218
0.0257923
0.025371
0.0249671
0.0245782
0.0242046
0.0238496
0.023149
0.0423748
0.0425785
0.0427289
0.0427767
0.0427461
0.0426082
0.0424201
0.0422785
0.0421951
0.0421531
0.0421337
0.0421167
0.0420904
0.042051
0.0420066
0.0419678
0.0419359
0.0419068
0.0418799
0.0418556
0.0418343
0.0418161
0.041801
0.0417893
0.0417799
0.0417722
0.0417647
0.0417559
0.041745
0.0417316
0.0417165
0.0417011
0.0416861
0.0416722
0.0416601
0.0416503
0.0416433
0.041639
0.0416372
0.0416377
0.0416413
0.0416483
0.0416587
0.0416718
0.0416871
0.0417041
0.0417228
0.0417431
0.0417648
0.0417877
0.0418113
0.0418352
0.0418592
0.0418828
0.041906
0.0419286
0.0419504
0.0419712
0.0419908
0.042009
0.0420255
0.04204
0.0420518
0.0420609
0.0420668
0.0420691
0.0420672
0.0420604
0.0420486
0.0420308
0.0420067
0.0419753
0.0419359
0.0418883
0.0418314
0.0417644
0.0416866
0.041597
0.0414944
0.0413783
0.0412473
0.0411004
0.040937
0.0407555
0.0405555
0.0403367
0.0400975
0.0398377
0.0395564
0.0392524
0.0389251
0.0385763
0.0382035
0.0378091
0.0373884
0.036948
0.0364831
0.0359996
0.0354966
0.0349794
0.0344483
0.0338964
0.0333431
0.0327899
0.0322251
0.0316599
0.0310768
0.0305039
0.0299394
0.02937
0.0288076
0.0282514
0.0277172
0.0272123
0.0267256
0.0262498
0.0257891
0.0253607
0.0249785
0.0246415
0.0240587
0.0422893
0.0425112
0.0427074
0.0427844
0.0427732
0.0426756
0.0424913
0.0423363
0.0422439
0.0421967
0.0421788
0.0421671
0.0421483
0.0421148
0.0420718
0.0420318
0.0419998
0.0419718
0.041946
0.041923
0.0419032
0.0418865
0.0418734
0.0418636
0.0418563
0.0418508
0.0418453
0.0418384
0.0418294
0.0418181
0.0418051
0.041792
0.0417798
0.0417691
0.0417601
0.0417532
0.0417489
0.0417468
0.0417467
0.0417486
0.0417529
0.0417605
0.0417714
0.0417855
0.0418021
0.0418209
0.0418417
0.0418646
0.0418894
0.0419158
0.0419434
0.0419718
0.0420006
0.0420295
0.0420583
0.0420868
0.042115
0.0421426
0.0421693
0.0421951
0.0422195
0.0422424
0.0422634
0.0422822
0.0422982
0.042311
0.0423202
0.0423255
0.0423269
0.0423227
0.0423133
0.0422976
0.0422743
0.0422441
0.0422056
0.0421582
0.0421014
0.0420339
0.0419549
0.0418639
0.0417593
0.0416406
0.0415069
0.0413567
0.0411894
0.041004
0.0407992
0.0405747
0.0403295
0.0400622
0.0397726
0.0394609
0.0391243
0.038764
0.0383775
0.0379693
0.0375355
0.0370835
0.0366072
0.0361089
0.0355868
0.0350454
0.0344853
0.033924
0.0333334
0.0327485
0.032145
0.0315542
0.0309817
0.0304123
0.0298521
0.0292882
0.0287263
0.028188
0.0276629
0.0271463
0.0266294
0.0261142
0.025618
0.0251727
0.0243622
0.0422246
0.0424335
0.0426695
0.0427855
0.0427933
0.0427378
0.0425663
0.0423983
0.0422954
0.0422422
0.0422247
0.0422167
0.0422037
0.042176
0.0421354
0.0420949
0.0420631
0.0420366
0.0420126
0.0419913
0.0419732
0.0419583
0.0419471
0.0419392
0.0419341
0.0419308
0.0419274
0.0419226
0.0419156
0.041906
0.0418946
0.041883
0.0418726
0.041864
0.0418575
0.0418534
0.0418519
0.0418531
0.0418557
0.0418598
0.0418659
0.0418747
0.0418868
0.041902
0.0419199
0.0419403
0.041963
0.041988
0.0420153
0.0420447
0.0420758
0.0421081
0.0421412
0.0421749
0.0422088
0.0422429
0.0422769
0.0423108
0.0423442
0.042377
0.042409
0.0424399
0.0424694
0.0424971
0.0425228
0.042546
0.0425664
0.0425832
0.0425964
0.0426054
0.0426099
0.0426099
0.0426025
0.0425896
0.042569
0.0425406
0.0425039
0.0424576
0.0424012
0.042334
0.0422545
0.0421622
0.0420559
0.0419345
0.0417976
0.0416444
0.0414733
0.0412837
0.0410743
0.0408436
0.0405914
0.0403171
0.0400193
0.0396991
0.0393542
0.0389864
0.0385936
0.0381809
0.0377417
0.0372798
0.0367944
0.0362932
0.0357767
0.035235
0.0346778
0.0341041
0.0335335
0.0329376
0.03235
0.0317473
0.0311608
0.0305764
0.0299836
0.0294119
0.0288602
0.0283363
0.0278387
0.0273371
0.0268476
0.0263963
0.0255331
0.042181
0.0423538
0.0426124
0.0427771
0.0428117
0.0427862
0.0426401
0.0424647
0.0423507
0.0422896
0.0422696
0.0422625
0.0422535
0.0422328
0.042197
0.0421576
0.0421267
0.0421019
0.0420798
0.0420604
0.0420442
0.0420312
0.042022
0.042016
0.0420132
0.0420118
0.0420106
0.0420077
0.0420027
0.0419949
0.041985
0.0419745
0.041965
0.0419578
0.0419529
0.0419509
0.0419521
0.0419561
0.0419618
0.041969
0.0419778
0.0419889
0.0420028
0.0420197
0.0420394
0.0420615
0.0420861
0.0421132
0.0421428
0.0421748
0.042209
0.0422448
0.0422819
0.04232
0.0423587
0.0423978
0.0424374
0.0424771
0.0425167
0.0425562
0.0425953
0.0426337
0.0426712
0.0427075
0.0427422
0.042775
0.0428055
0.0428333
0.0428581
0.0428794
0.0428966
0.0429094
0.0429173
0.0429199
0.0429162
0.0429058
0.042888
0.0428615
0.0428266
0.042782
0.0427266
0.04266
0.042581
0.0424885
0.0423821
0.0422602
0.0421216
0.0419656
0.0417909
0.0415965
0.0413816
0.0411453
0.0408867
0.0406062
0.0403011
0.0399721
0.0396184
0.0392426
0.0388396
0.038414
0.0379638
0.0374936
0.0369973
0.0364765
0.0359349
0.0353835
0.0348258
0.0342408
0.0336445
0.0330231
0.0324159
0.0318285
0.0312246
0.0306224
0.0300197
0.029443
0.0289044
0.0283721
0.0278561
0.0273807
0.0264565
0.0421552
0.0422812
0.0425391
0.0427555
0.0428234
0.0428175
0.0427118
0.042538
0.0424096
0.0423365
0.0423109
0.0423038
0.0422987
0.0422865
0.0422579
0.0422214
0.0421912
0.042168
0.0421478
0.0421302
0.042116
0.0421053
0.0420982
0.0420942
0.0420932
0.0420941
0.0420943
0.0420931
0.0420897
0.0420838
0.0420753
0.0420658
0.0420572
0.0420507
0.0420467
0.0420458
0.0420491
0.0420553
0.042064
0.0420744
0.0420862
0.0421001
0.0421166
0.0421359
0.0421577
0.042182
0.0422087
0.0422378
0.0422697
0.0423041
0.042341
0.04238
0.0424207
0.0424626
0.0425056
0.0425494
0.0425939
0.042639
0.0426844
0.04273
0.0427757
0.0428211
0.042866
0.0429102
0.0429534
0.0429952
0.0430353
0.0430734
0.043109
0.0431419
0.0431717
0.0431979
0.0432197
0.0432368
0.0432487
0.043255
0.043256
0.0432485
0.0432342
0.043211
0.0431782
0.0431356
0.0430818
0.0430161
0.042938
0.0428457
0.0427386
0.0426157
0.0424758
0.0423179
0.0421412
0.0419446
0.0417275
0.0414892
0.0412275
0.0409425
0.0406327
0.0402986
0.039938
0.0395549
0.0391448
0.0387101
0.0382483
0.0377667
0.0372631
0.0367408
0.0362009
0.0356433
0.0350562
0.0344599
0.033855
0.03326
0.03266
0.0320413
0.0314122
0.0307674
0.030162
0.0295552
0.028962
0.0283926
0.0272936
0.0421421
0.0422229
0.0424566
0.0427159
0.0428237
0.0428422
0.0427778
0.0426136
0.0424667
0.0423813
0.0423494
0.0423428
0.0423414
0.0423378
0.0423179
0.0422858
0.0422562
0.0422344
0.042216
0.0422006
0.0421886
0.0421802
0.0421751
0.0421732
0.0421739
0.0421764
0.0421777
0.0421776
0.0421756
0.0421712
0.0421642
0.0421559
0.042148
0.0421422
0.0421389
0.0421385
0.0421431
0.042151
0.0421622
0.0421754
0.0421904
0.0422073
0.0422267
0.0422487
0.0422733
0.0423002
0.0423294
0.0423609
0.0423951
0.0424321
0.0424717
0.0425136
0.0425576
0.0426032
0.0426501
0.0426983
0.0427474
0.0427975
0.0428482
0.0428996
0.0429513
0.0430032
0.043055
0.0431066
0.0431576
0.0432078
0.0432569
0.0433044
0.0433501
0.0433937
0.0434348
0.0434729
0.0435077
0.0435386
0.0435653
0.0435868
0.0436032
0.0436138
0.0436181
0.0436156
0.0436042
0.0435848
0.043555
0.0435152
0.0434641
0.0434004
0.0433236
0.0432327
0.0431265
0.0430043
0.042865
0.0427068
0.042529
0.0423306
0.04211
0.0418667
0.0415985
0.0413064
0.0409906
0.0406526
0.0402856
0.0398923
0.0394744
0.0390366
0.0385709
0.0380784
0.0375623
0.0370317
0.036485
0.035913
0.0353236
0.0347194
0.0341223
0.0335154
0.0329191
0.0322569
0.0316358
0.0310341
0.0304857
0.0299866
0.0290906
0.0421363
0.042182
0.0423733
0.042658
0.0428151
0.0428651
0.042832
0.0426834
0.0425211
0.0424266
0.0423883
0.0423818
0.0423835
0.0423865
0.0423753
0.0423486
0.0423207
0.0423005
0.0422845
0.0422715
0.0422617
0.0422556
0.0422523
0.0422521
0.0422544
0.0422577
0.0422599
0.0422606
0.0422594
0.0422562
0.0422507
0.0422435
0.0422365
0.0422313
0.0422288
0.042229
0.0422343
0.0422435
0.0422565
0.0422722
0.0422899
0.0423096
0.0423318
0.0423567
0.0423843
0.0424141
0.0424461
0.0424803
0.0425171
0.0425566
0.0425989
0.0426437
0.0426907
0.0427397
0.0427903
0.0428423
0.0428957
0.0429503
0.0430059
0.0430624
0.0431197
0.0431775
0.0432358
0.0432941
0.0433523
0.0434102
0.0434675
0.0435238
0.0435789
0.0436324
0.0436841
0.0437336
0.0437805
0.0438242
0.0438645
0.0439009
0.043933
0.04396
0.0439814
0.0439968
0.0440056
0.0440079
0.0440006
0.0439851
0.0439594
0.0439223
0.0438745
0.0438139
0.0437396
0.0436508
0.0435462
0.043424
0.0432836
0.043124
0.0429441
0.0427427
0.0425181
0.042271
0.042001
0.0417074
0.0413852
0.0410382
0.0406669
0.0402723
0.0398471
0.0393936
0.0389146
0.0384208
0.0379082
0.0373709
0.0368
0.036204
0.0355985
0.034998
0.0343939
0.0337384
0.0330654
0.0323735
0.0316918
0.0310434
0.0298974
0.0421341
0.0421571
0.0422988
0.0425858
0.0428002
0.0428807
0.0428647
0.0427474
0.0425787
0.0424743
0.042428
0.0424194
0.0424243
0.0424329
0.0424285
0.0424088
0.0423842
0.0423663
0.0423528
0.0423418
0.042334
0.0423293
0.0423277
0.0423286
0.0423324
0.0423361
0.0423389
0.04234
0.0423395
0.0423373
0.0423331
0.0423272
0.0423213
0.0423169
0.042315
0.0423165
0.0423223
0.0423325
0.042347
0.0423647
0.0423848
0.042407
0.0424318
0.0424595
0.0424901
0.042523
0.042558
0.0425951
0.0426347
0.0426769
0.0427219
0.0427696
0.0428197
0.0428719
0.042926
0.0429818
0.0430391
0.0430979
0.043158
0.0432194
0.0432818
0.0433451
0.0434092
0.0434738
0.0435387
0.0436036
0.0436685
0.0437329
0.0437965
0.0438591
0.0439205
0.0439802
0.044038
0.0440935
0.0441461
0.0441957
0.0442418
0.0442839
0.0443216
0.0443543
0.0443811
0.0444018
0.0444155
0.044422
0.0444214
0.0444091
0.0443885
0.044356
0.0443115
0.0442541
0.0441826
0.0440959
0.0439932
0.0438735
0.0437355
0.0435785
0.0434008
0.0432018
0.0429795
0.0427337
0.0424627
0.0421685
0.0418468
0.0414982
0.0411209
0.0407185
0.0402903
0.0398403
0.0393664
0.0388697
0.0383433
0.0377924
0.0372229
0.0366451
0.0360658
0.0354774
0.034865
0.0342257
0.0335816
0.0329993
0.0319579
0.0421334
0.0421439
0.0422398
0.0425067
0.0427728
0.042886
0.0428862
0.0428057
0.0426387
0.0425216
0.0424662
0.0424542
0.0424623
0.0424779
0.0424795
0.042467
0.0424464
0.0424304
0.042419
0.0424095
0.0424031
0.0423996
0.0423992
0.0424017
0.0424064
0.0424106
0.0424137
0.0424152
0.0424153
0.042414
0.0424111
0.0424065
0.0424018
0.0423983
0.0423971
0.0423999
0.0424065
0.0424178
0.0424337
0.0424532
0.0424753
0.0424997
0.0425267
0.0425569
0.0425902
0.0426261
0.0426641
0.0427042
0.0427467
0.0427918
0.0428396
0.0428901
0.0429431
0.0429985
0.0430558
0.043115
0.043176
0.0432387
0.0433029
0.0433686
0.0434357
0.043504
0.0435734
0.0436436
0.0437145
0.0437859
0.0438576
0.0439293
0.0440008
0.0440717
0.0441418
0.044211
0.0442788
0.044345
0.0444091
0.0444709
0.0445299
0.0445859
0.0446382
0.0446866
0.0447305
0.0447692
0.0448023
0.0448286
0.0448482
0.0448601
0.0448643
0.0448585
0.0448424
0.0448153
0.0447752
0.0447228
0.0446559
0.0445735
0.0444744
0.0443577
0.0442213
0.0440636
0.0438832
0.0436802
0.0434543
0.0432047
0.0429264
0.0426222
0.042293
0.0419398
0.0415566
0.0411438
0.0407039
0.040244
0.0397597
0.039251
0.0387105
0.0381482
0.0375653
0.0369699
0.036352
0.035752
0.0350354
0.0343763
0.0332704
0.0421331
0.0421376
0.042198
0.0424297
0.0427299
0.0428836
0.0429041
0.0428554
0.0426966
0.0425649
0.042502
0.042487
0.0424984
0.0425225
0.0425302
0.0425224
0.0425053
0.0424906
0.0424807
0.0424728
0.0424677
0.0424656
0.0424664
0.0424707
0.0424761
0.0424809
0.0424842
0.0424859
0.0424865
0.0424861
0.0424844
0.0424812
0.0424776
0.0424752
0.0424749
0.0424787
0.0424865
0.042499
0.0425163
0.0425375
0.0425615
0.0425878
0.0426168
0.0426492
0.0426849
0.0427234
0.0427643
0.0428074
0.0428527
0.0429006
0.0429513
0.0430047
0.0430607
0.043119
0.0431795
0.0432421
0.0433065
0.0433728
0.0434409
0.0435106
0.043582
0.0436549
0.0437291
0.0438045
0.043881
0.0439582
0.0440361
0.0441144
0.0441929
0.0442714
0.0443495
0.0444271
0.044504
0.0445798
0.0446541
0.0447268
0.0447974
0.0448657
0.0449313
0.0449938
0.0450527
0.0451075
0.0451578
0.0452029
0.0452424
0.0452753
0.045301
0.045319
0.0453285
0.0453302
0.0453187
0.0452978
0.0452634
0.0452148
0.045152
0.0450731
0.0449769
0.0448623
0.0447279
0.0445733
0.0443975
0.0441991
0.0439752
0.0437275
0.0434546
0.043156
0.0428268
0.0424686
0.0420837
0.041676
0.0412442
0.0407873
0.0402989
0.0397858
0.0392433
0.0386853
0.0381034
0.0375053
0.0368806
0.0362453
0.0352109
0.0421331
0.042135
0.0421712
0.0423617
0.042678
0.0428751
0.0429205
0.0428943
0.042747
0.0426032
0.0425365
0.0425194
0.0425333
0.0425662
0.0425793
0.0425739
0.0425593
0.0425458
0.0425376
0.0425318
0.0425284
0.0425277
0.0425304
0.0425363
0.0425425
0.0425477
0.0425509
0.0425527
0.0425536
0.0425539
0.0425531
0.0425511
0.0425485
0.0425469
0.042548
0.0425527
0.0425618
0.0425757
0.0425945
0.0426174
0.0426433
0.0426714
0.0427023
0.0427365
0.0427743
0.0428152
0.0428587
0.0429044
0.0429525
0.0430031
0.0430565
0.0431127
0.0431716
0.0432328
0.0432964
0.0433621
0.0434297
0.0434994
0.0435709
0.0436444
0.0437197
0.0437966
0.0438752
0.0439553
0.0440366
0.0441191
0.0442025
0.0442867
0.0443715
0.0444567
0.044542
0.0446271
0.0447121
0.0447965
0.04488
0.0449624
0.0450435
0.0451229
0.0452004
0.0452756
0.045348
0.0454174
0.0454832
0.0455449
0.045602
0.0456541
0.0457005
0.0457406
0.0457731
0.0457981
0.0458143
0.0458215
0.0458191
0.0458026
0.0457754
0.0457335
0.045677
0.0456045
0.0455146
0.0454057
0.0452763
0.0451254
0.0449512
0.0447536
0.0445289
0.0442782
0.0439994
0.0436943
0.0433604
0.0429986
0.0426103
0.0421955
0.041754
0.0412869
0.04079
0.0402734
0.0397236
0.0391632
0.0385512
0.0379427
0.0370049
0.0421331
0.0421339
0.0421553
0.0423068
0.0426241
0.0428623
0.0429352
0.0429193
0.0427891
0.042639
0.0425701
0.0425514
0.0425668
0.0426076
0.042625
0.0426206
0.0426083
0.0425968
0.0425911
0.0425878
0.0425864
0.0425875
0.0425922
0.0425993
0.042606
0.0426111
0.042614
0.0426153
0.0426163
0.0426171
0.0426171
0.042616
0.0426143
0.0426137
0.0426159
0.0426218
0.0426322
0.0426476
0.0426681
0.0426929
0.0427206
0.0427506
0.0427832
0.0428191
0.0428587
0.0429017
0.0429474
0.0429956
0.0430462
0.0430993
0.0431554
0.0432142
0.0432758
0.0433399
0.0434063
0.0434749
0.0435456
0.0436184
0.0436933
0.0437701
0.0438489
0.0439296
0.0440122
0.0440964
0.0441822
0.0442694
0.0443578
0.0444473
0.0445377
0.0446289
0.0447205
0.0448125
0.0449046
0.0449966
0.0450882
0.0451793
0.0452696
0.0453588
0.0454467
0.045533
0.0456174
0.0456995
0.045779
0.0458553
0.0459281
0.0459969
0.0460613
0.0461207
0.0461744
0.0462218
0.0462619
0.0462939
0.0463177
0.0463318
0.0463367
0.0463284
0.0463079
0.0462734
0.0462224
0.0461548
0.0460684
0.0459626
0.0458361
0.0456873
0.0455133
0.0453154
0.0450914
0.0448419
0.0445617
0.0442522
0.0439139
0.0435474
0.0431555
0.042734
0.0422843
0.0418037
0.0412908
0.0407538
0.0401754
0.0395603
0.0387224
0.042133
0.0421334
0.0421464
0.0422658
0.0425741
0.0428482
0.0429446
0.0429361
0.0428244
0.0426726
0.0426018
0.0425822
0.0425979
0.0426456
0.0426666
0.0426635
0.0426542
0.0426454
0.0426426
0.0426418
0.0426426
0.0426458
0.0426519
0.0426596
0.0426661
0.0426705
0.0426724
0.0426731
0.0426738
0.042675
0.0426757
0.0426754
0.0426748
0.0426752
0.0426785
0.0426858
0.0426977
0.0427148
0.0427371
0.0427637
0.0427934
0.0428253
0.0428596
0.0428971
0.0429383
0.0429831
0.0430309
0.0430812
0.043134
0.0431895
0.0432479
0.0433092
0.0433733
0.04344
0.0435092
0.0435805
0.0436541
0.0437298
0.0438076
0.0438876
0.0439696
0.0440537
0.0441397
0.0442277
0.0443174
0.0444087
0.0445015
0.0445957
0.044691
0.0447874
0.0448846
0.0449825
0.0450808
0.0451795
0.0452782
0.0453768
0.0454751
0.0455729
0.04567
0.045766
0.0458608
0.0459541
0.0460455
0.0461347
0.0462212
0.0463048
0.046385
0.0464613
0.0465333
0.0466004
0.0466619
0.0467172
0.0467657
0.0468061
0.0468379
0.0468599
0.0468717
0.0468738
0.0468592
0.0468333
0.0467906
0.0467307
0.0466536
0.0465564
0.0464377
0.0462967
0.0461307
0.0459395
0.0457189
0.0454711
0.0451927
0.0448859
0.0445509
0.0441858
0.0437941
0.0433667
0.0429086
0.0424115
0.0418771
0.0412806
0.0404984
0.042133
0.0421333
0.0421417
0.0422375
0.0425325
0.042834
0.0429501
0.0429494
0.0428536
0.0427029
0.0426304
0.0426107
0.0426261
0.04268
0.0427054
0.0427044
0.0426986
0.0426925
0.0426925
0.0426942
0.0426975
0.042702
0.0427088
0.0427162
0.0427216
0.0427244
0.0427249
0.0427248
0.0427253
0.0427269
0.0427285
0.0427293
0.0427298
0.0427315
0.0427361
0.0427449
0.0427585
0.0427773
0.0428015
0.0428301
0.0428617
0.0428954
0.0429314
0.0429704
0.0430132
0.0430596
0.0431091
0.0431613
0.0432161
0.0432737
0.0433342
0.0433978
0.0434643
0.0435334
0.043605
0.043679
0.0437552
0.0438335
0.0439141
0.0439969
0.0440818
0.0441689
0.0442581
0.0443494
0.0444426
0.0445376
0.0446343
0.0447325
0.0448322
0.0449332
0.0450353
0.0451383
0.0452421
0.0453466
0.0454515
0.0455566
0.0456619
0.0457671
0.045872
0.0459765
0.0460802
0.0461831
0.0462848
0.046385
0.0464833
0.0465796
0.0466733
0.0467643
0.0468521
0.0469362
0.0470159
0.0470909
0.0471605
0.0472241
0.047281
0.0473303
0.0473707
0.0474023
0.0474231
0.0474334
0.0474327
0.047413
0.0473811
0.0473298
0.04726
0.0471691
0.0470547
0.046916
0.0467502
0.046558
0.0463338
0.0460805
0.0457945
0.045478
0.0451307
0.0447466
0.0443303
0.0438719
0.0433791
0.0428217
0.0420979
0.042133
0.0421332
0.0421393
0.0422197
0.0425022
0.0428221
0.0429535
0.0429608
0.0428761
0.0427282
0.0426551
0.0426358
0.0426524
0.0427128
0.042743
0.0427445
0.0427416
0.0427379
0.0427405
0.0427452
0.0427504
0.0427557
0.0427624
0.0427683
0.0427714
0.0427719
0.0427709
0.0427699
0.0427705
0.0427728
0.0427756
0.0427776
0.0427795
0.0427827
0.0427889
0.0427994
0.0428148
0.0428355
0.0428615
0.0428921
0.0429257
0.0429612
0.0429987
0.0430392
0.0430834
0.0431314
0.0431826
0.0432364
0.043293
0.0433524
0.0434149
0.0434805
0.0435491
0.0436204
0.0436943
0.0437706
0.0438492
0.04393
0.0440131
0.0440984
0.044186
0.0442758
0.0443679
0.0444621
0.0445583
0.0446566
0.0447566
0.0448584
0.0449619
0.0450669
0.0451732
0.0452806
0.0453891
0.0454985
0.0456087
0.0457194
0.0458306
0.0459421
0.0460537
0.0461654
0.0462767
0.0463877
0.0464981
0.0466077
0.046716
0.046823
0.0469283
0.0470317
0.0471328
0.0472314
0.0473268
0.0474187
0.0475065
0.0475899
0.0476682
0.0477408
0.047807
0.0478658
0.0479165
0.0479573
0.0479886
0.0480078
0.0480156
0.0480081
0.0479839
0.0479433
0.0478825
0.0478006
0.0476955
0.0475659
0.0474071
0.0472207
0.0470006
0.0467509
0.0464653
0.0461423
0.0457789
0.0453644
0.0449099
0.0443839
0.0437053
0.042133
0.0421331
0.0421384
0.0422109
0.0424849
0.0428166
0.0429569
0.0429703
0.0428914
0.0427471
0.0426756
0.0426579
0.0426789
0.0427457
0.0427801
0.0427832
0.0427825
0.0427815
0.0427865
0.0427943
0.0428008
0.0428065
0.042812
0.0428151
0.0428151
0.0428132
0.0428106
0.0428091
0.0428101
0.0428135
0.0428176
0.0428211
0.0428245
0.0428294
0.0428374
0.0428497
0.0428669