/*--------------------------------*- C++ -*----------------------------------*\
| =========                 |                                                 |
| \\      /  F ield         | OpenFOAM: The Open Source CFD Toolbox           |
|  \\    /   O peration     | Version:  2406                                  |
|   \\  /    A nd           | Website:  www.openfoam.com                      |
|    \\/     M anipulation  |                                                 |
\*---------------------------------------------------------------------------*/
FoamFile
{
    version     2.0;
    format      ascii;
    arch        "LSB;label=32;scalar=64";
    class       volScalarField;
    location    "0.029";
    object      T;
}
// * * * * * * * * * * * * * * * * * * * * * * * * * * * * * * * * * * * * * //

dimensions      [0 0 0 1 0 0 0];

internalField   nonuniform List<scalar> 
78650
(
225.67
224.22
224.099
223.706
223.248
222.878
222.616
222.443
222.331
222.234
222.114
221.969
221.819
221.682
221.563
221.453
221.352
221.261
221.182
221.113
221.051
220.992
220.931
220.867
220.8
220.733
220.669
220.611
220.561
220.52
220.486
220.458
220.435
220.414
220.393
220.37
220.343
220.312
220.277
220.24
220.201
220.161
220.12
220.076
220.031
219.985
219.937
219.888
219.836
219.78
219.72
219.653
219.58
219.499
219.41
219.311
219.202
219.082
218.948
218.8
218.636
218.453
218.251
218.026
217.779
217.506
217.206
216.875
216.511
216.112
215.676
215.204
214.692
214.133
213.525
212.864
212.149
211.381
210.557
209.673
208.732
207.732
206.671
205.549
204.36
203.113
201.815
200.459
199.06
197.626
196.153
194.684
193.199
191.734
190.297
188.894
187.457
186.039
184.648
183.297
182.009
180.759
179.602
178.474
177.393
176.293
175.255
174.288
173.402
172.548
171.711
170.911
170.168
169.495
168.901
168.391
167.978
167.653
167.448
167.338
166.725
225.468
224.219
224.16
223.828
223.369
222.984
222.715
222.539
222.428
222.335
222.221
222.081
221.93
221.792
221.673
221.565
221.466
221.377
221.299
221.232
221.174
221.121
221.071
221.018
220.959
220.894
220.826
220.758
220.694
220.639
220.594
220.56
220.534
220.514
220.498
220.483
220.466
220.445
220.422
220.396
220.369
220.34
220.31
220.277
220.244
220.209
220.173
220.136
220.096
220.053
220.006
219.954
219.896
219.832
219.76
219.68
219.591
219.491
219.38
219.257
219.119
218.964
218.791
218.599
218.386
218.15
217.889
217.601
217.283
216.933
216.549
216.128
215.668
215.162
214.611
214.013
213.368
212.673
211.925
211.122
210.266
209.356
208.389
207.369
206.287
205.145
203.934
202.673
201.375
200.036
198.633
197.176
195.713
194.233
192.707
191.205
189.689
188.204
186.749
185.294
183.922
182.622
181.408
180.224
179.087
177.972
176.937
175.938
174.989
174.053
173.139
172.266
171.452
170.709
170.06
169.5
169.034
168.647
168.363
168.167
167.406
225.28
224.209
224.203
223.936
223.483
223.086
222.812
222.635
222.524
222.436
222.331
222.197
222.049
221.911
221.792
221.687
221.591
221.504
221.427
221.36
221.302
221.253
221.208
221.164
221.116
221.061
220.996
220.925
220.853
220.786
220.729
220.685
220.652
220.629
220.614
220.602
220.591
220.579
220.565
220.549
220.533
220.516
220.497
220.476
220.454
220.431
220.407
220.381
220.355
220.325
220.292
220.254
220.212
220.163
220.109
220.047
219.977
219.898
219.808
219.708
219.595
219.467
219.323
219.161
218.98
218.779
218.554
218.305
218.029
217.723
217.385
217.012
216.603
216.156
215.669
215.141
214.568
213.948
213.275
212.548
211.768
210.93
210.034
209.079
208.066
207.002
205.884
204.706
203.466
202.17
200.851
199.51
198.124
196.705
195.249
193.798
192.343
190.841
189.361
187.819
186.302
184.8
183.328
181.911
180.558
179.318
178.184
177.112
176.072
175.058
174.089
173.171
172.31
171.506
170.771
170.141
169.63
169.252
168.992
168.903
168.183
225.095
224.208
224.232
224.031
223.599
223.193
222.911
222.728
222.614
222.53
222.434
222.31
222.168
222.032
221.915
221.814
221.722
221.637
221.562
221.496
221.438
221.389
221.347
221.308
221.27
221.224
221.169
221.103
221.03
220.957
220.89
220.835
220.793
220.763
220.744
220.733
220.725
220.718
220.711
220.704
220.697
220.69
220.682
220.672
220.662
220.65
220.637
220.624
220.609
220.593
220.573
220.55
220.522
220.489
220.451
220.407
220.355
220.296
220.228
220.15
220.061
219.959
219.843
219.711
219.562
219.394
219.206
218.995
218.76
218.498
218.207
217.885
217.53
217.14
216.713
216.245
215.732
215.17
214.556
213.892
213.177
212.407
211.582
210.702
209.764
208.772
207.718
206.612
205.446
204.208
202.917
201.575
200.197
198.786
197.363
195.891
194.458
192.999
191.592
190.187
188.81
187.439
186.046
184.636
183.252
181.903
180.624
179.374
178.162
177.01
175.94
174.929
173.972
173.034
172.102
171.233
170.466
169.863
169.474
169.261
168.348
224.888
224.2
224.253
224.118
223.725
223.312
223.016
222.82
222.698
222.616
222.53
222.419
222.286
222.155
222.041
221.944
221.856
221.776
221.704
221.639
221.581
221.531
221.489
221.453
221.42
221.384
221.339
221.284
221.217
221.145
221.074
221.011
220.96
220.923
220.898
220.883
220.875
220.87
220.867
220.865
220.867
220.869
220.87
220.871
220.871
220.87
220.869
220.868
220.866
220.862
220.856
220.847
220.834
220.817
220.795
220.768
220.735
220.695
220.647
220.591
220.525
220.448
220.358
220.254
220.135
219.998
219.844
219.669
219.473
219.252
219.004
218.728
218.422
218.084
217.71
217.298
216.844
216.348
215.807
215.223
214.592
213.908
213.171
212.379
211.531
210.626
209.66
208.641
207.559
206.426
205.235
203.969
202.646
201.284
199.907
198.44
196.952
195.424
193.881
192.375
190.845
189.389
187.976
186.628
185.338
184.035
182.747
181.459
180.212
179.022
177.921
176.862
175.863
174.898
173.971
173.108
172.32
171.649
171.074
170.622
169.49
224.652
224.183
224.271
224.201
223.864
223.449
223.129
222.913
222.779
222.697
222.621
222.525
222.405
222.279
222.169
222.076
221.994
221.918
221.848
221.785
221.729
221.679
221.637
221.602
221.571
221.541
221.506
221.461
221.405
221.34
221.272
221.208
221.152
221.107
221.075
221.055
221.043
221.038
221.036
221.038
221.044
221.053
221.063
221.073
221.082
221.092
221.102
221.112
221.122
221.13
221.137
221.142
221.143
221.141
221.135
221.125
221.11
221.088
221.06
221.025
220.981
220.928
220.864
220.787
220.697
220.592
220.47
220.331
220.173
219.992
219.788
219.558
219.3
219.012
218.693
218.339
217.947
217.518
217.047
216.533
215.972
215.358
214.693
213.977
213.204
212.377
211.491
210.55
209.547
208.495
207.383
206.22
205.006
203.735
202.419
201.053
199.638
198.217
196.744
195.258
193.684
192.119
190.531
188.967
187.447
185.953
184.508
183.135
181.831
180.585
179.408
178.235
177.105
176.029
175.047
174.188
173.434
172.798
172.31
171.995
170.875
224.375
224.156
224.296
224.276
224.011
223.596
223.247
223.007
222.86
222.778
222.712
222.632
222.525
222.406
222.3
222.211
222.133
222.061
221.995
221.934
221.88
221.831
221.79
221.755
221.726
221.699
221.671
221.635
221.59
221.536
221.476
221.416
221.36
221.313
221.276
221.251
221.235
221.228
221.225
221.227
221.236
221.249
221.265
221.283
221.301
221.32
221.34
221.36
221.382
221.402
221.422
221.44
221.455
221.468
221.478
221.483
221.485
221.482
221.473
221.458
221.436
221.405
221.366
221.315
221.252
221.176
221.086
220.98
220.856
220.713
220.548
220.361
220.148
219.908
219.64
219.341
219.008
218.639
218.232
217.782
217.288
216.747
216.159
215.52
214.828
214.082
213.279
212.42
211.502
210.53
209.492
208.401
207.245
206.035
204.765
203.454
202.087
200.701
199.286
197.873
196.435
195.007
193.565
192.085
190.607
189.089
187.598
186.155
184.754
183.38
182.065
180.749
179.469
178.235
177.083
176.047
175.124
174.317
173.662
173.198
171.757
224.056
224.132
224.337
224.34
224.151
223.75
223.369
223.103
222.945
222.862
222.807
222.741
222.649
222.539
222.435
222.349
222.275
222.206
222.142
222.085
222.032
221.986
221.946
221.913
221.885
221.861
221.837
221.808
221.772
221.728
221.679
221.627
221.577
221.532
221.494
221.466
221.448
221.437
221.433
221.434
221.443
221.458
221.478
221.501
221.527
221.554
221.582
221.612
221.644
221.676
221.707
221.738
221.767
221.793
221.818
221.839
221.857
221.871
221.88
221.885
221.883
221.874
221.858
221.833
221.796
221.749
221.689
221.615
221.525
221.419
221.294
221.148
220.98
220.787
220.569
220.322
220.045
219.734
219.387
219.003
218.577
218.108
217.597
217.04
216.434
215.777
215.066
214.3
213.476
212.594
211.648
210.649
209.584
208.465
207.284
206.034
204.74
203.365
201.948
200.476
199.002
197.489
196.011
194.507
193.037
191.564
190.115
188.696
187.282
185.851
184.469
183.096
181.785
180.514
179.303
178.178
177.179
176.28
175.508
174.906
173.278
223.768
224.087
224.342
224.386
224.27
223.903
223.496
223.207
223.037
222.952
222.904
222.853
222.777
222.677
222.576
222.491
222.419
222.353
222.291
222.235
222.185
222.141
222.104
222.074
222.049
222.028
222.007
221.983
221.954
221.918
221.878
221.836
221.794
221.755
221.722
221.695
221.676
221.665
221.66
221.66
221.668
221.684
221.706
221.733
221.763
221.797
221.832
221.871
221.912
221.954
221.996
222.039
222.081
222.121
222.159
222.195
222.229
222.26
222.287
222.31
222.327
222.34
222.345
222.344
222.333
222.312
222.28
222.236
222.178
222.106
222.017
221.909
221.782
221.633
221.461
221.264
221.039
220.785
220.498
220.178
219.821
219.425
218.989
218.508
217.979
217.4
216.769
216.083
215.344
214.548
213.694
212.785
211.811
210.786
209.697
208.56
207.365
206.116
204.819
203.451
202.053
200.559
199.065
197.51
195.956
194.399
192.828
191.299
189.793
188.278
186.81
185.379
184.026
182.729
181.464
180.247
179.139
178.169
177.35
176.678
174.746
223.535
223.986
224.318
224.423
224.356
224.052
223.637
223.324
223.139
223.046
223.003
222.965
222.907
222.819
222.721
222.634
222.563
222.499
222.439
222.385
222.337
222.297
222.263
222.237
222.216
222.199
222.182
222.163
222.138
222.109
222.075
222.041
222.007
221.976
221.949
221.927
221.912
221.902
221.898
221.899
221.907
221.923
221.946
221.975
222.009
222.048
222.089
222.135
222.183
222.234
222.287
222.34
222.393
222.446
222.498
222.548
222.596
222.643
222.686
222.727
222.764
222.796
222.822
222.842
222.855
222.86
222.856
222.841
222.815
222.775
222.721
222.651
222.564
222.457
222.33
222.181
222.007
221.806
221.577
221.316
221.022
220.691
220.322
219.912
219.458
218.96
218.414
217.819
217.172
216.469
215.71
214.896
214.022
213.091
212.092
211.04
209.921
208.748
207.519
206.244
204.924
203.539
202.138
200.724
199.267
197.794
196.259
194.735
193.217
191.669
190.12
188.57
187.057
185.607
184.201
182.841
181.573
180.488
179.649
179.027
177.484
223.346
223.838
224.271
224.44
224.416
224.201
223.794
223.452
223.247
223.143
223.103
223.077
223.036
222.961
222.866
222.777
222.706
222.643
222.586
222.535
222.491
222.454
222.425
222.403
222.387
222.374
222.362
222.347
222.327
222.301
222.273
222.243
222.216
222.192
222.172
222.157
222.147
222.143
222.143
222.147
222.156
222.173
222.198
222.229
222.266
222.308
222.355
222.406
222.461
222.519
222.581
222.644
222.708
222.772
222.836
222.9
222.962
223.024
223.083
223.14
223.194
223.245
223.291
223.333
223.368
223.397
223.417
223.429
223.432
223.422
223.402
223.367
223.315
223.248
223.162
223.057
222.931
222.781
222.605
222.402
222.169
221.903
221.604
221.267
220.891
220.473
220.01
219.501
218.943
218.332
217.668
216.95
216.171
215.333
214.428
213.468
212.44
211.362
210.218
209.012
207.738
206.405
205.014
203.606
202.111
200.614
199.054
197.51
195.998
194.478
192.964
191.422
189.863
188.349
186.861
185.409
184.001
182.68
181.519
180.594
178.391
223.203
223.666
224.187
224.443
224.46
224.338
223.96
223.589
223.361
223.244
223.205
223.187
223.158
223.097
223.007
222.917
222.847
222.788
222.734
222.687
222.647
222.613
222.589
222.571
222.56
222.552
222.545
222.534
222.519
222.497
222.472
222.446
222.423
222.404
222.389
222.38
222.377
222.38
222.385
222.395
222.408
222.428
222.455
222.489
222.529
222.574
222.625
222.68
222.741
222.806
222.875
222.947
223.021
223.095
223.171
223.246
223.322
223.396
223.47
223.543
223.614
223.682
223.747
223.808
223.865
223.916
223.961
223.998
224.027
224.047
224.057
224.057
224.04
224.012
223.966
223.904
223.822
223.72
223.595
223.446
223.27
223.065
222.829
222.558
222.253
221.911
221.527
221.102
220.63
220.109
219.537
218.913
218.232
217.497
216.701
215.848
214.932
213.964
212.927
211.828
210.666
209.456
208.199
206.869
205.489
204.055
202.615
201.096
199.583
198.014
196.47
194.913
193.312
191.748
190.224
188.782
187.453
186.187
185.054
184.118
181.815
223.106
223.49
224.061
224.424
224.5
224.445
224.123
223.736
223.484
223.349
223.304
223.289
223.269
223.223
223.144
223.056
222.988
222.933
222.884
222.84
222.805
222.776
222.755
222.742
222.736
222.733
222.73
222.724
222.713
222.695
222.673
222.65
222.629
222.613
222.602
222.597
222.6
222.609
222.622
222.638
222.657
222.682
222.713
222.751
222.794
222.844
222.898
222.958
223.024
223.095
223.171
223.25
223.333
223.417
223.502
223.589
223.677
223.764
223.852
223.939
224.025
224.11
224.192
224.272
224.349
224.421
224.488
224.549
224.603
224.65
224.688
224.716
224.733
224.739
224.731
224.708
224.668
224.61
224.533
224.435
224.313
224.166
223.991
223.787
223.551
223.281
222.973
222.626
222.237
221.802
221.32
220.788
220.204
219.568
218.874
218.122
217.309
216.441
215.504
214.509
213.45
212.335
211.15
209.897
208.583
207.233
205.857
204.399
202.898
201.317
199.754
198.223
196.63
195.02
193.393
191.835
190.413
189.08
187.885
186.887
184.454
223.049
223.329
223.899
224.377
224.526
224.513
224.281
223.898
223.614
223.452
223.396
223.38
223.369
223.342
223.279
223.198
223.131
223.079
223.034
222.996
222.964
222.94
222.924
222.916
222.914
222.915
222.916
222.913
222.906
222.893
222.874
222.853
222.834
222.819
222.811
222.808
222.816
222.83
222.849
222.872
222.898
222.929
222.966
223.009
223.057
223.111
223.17
223.235
223.305
223.382
223.463
223.55
223.64
223.732
223.827
223.924
224.022
224.122
224.222
224.322
224.422
224.522
224.621
224.718
224.813
224.905
224.993
225.076
225.154
225.226
225.291
225.348
225.396
225.433
225.459
225.473
225.475
225.458
225.427
225.376
225.304
225.211
225.093
224.949
224.777
224.574
224.338
224.067
223.757
223.408
223.015
222.578
222.093
221.56
220.972
220.329
219.626
218.866
218.041
217.16
216.211
215.199
214.117
212.979
211.782
210.53
209.224
207.865
206.42
204.938
203.418
201.904
200.36
198.748
197.094
195.394
193.824
192.314
190.934
189.701
186.838
223.02
223.199
223.717
224.289
224.527
224.568
224.426
224.064
223.74
223.552
223.481
223.467
223.463
223.455
223.412
223.34
223.275
223.227
223.186
223.152
223.125
223.107
223.095
223.091
223.093
223.098
223.101
223.101
223.097
223.087
223.071
223.053
223.035
223.022
223.015
223.014
223.025
223.042
223.067
223.096
223.13
223.167
223.21
223.259
223.313
223.373
223.438
223.507
223.583
223.665
223.752
223.845
223.942
224.043
224.146
224.252
224.36
224.471
224.582
224.695
224.808
224.922
225.036
225.149
225.261
225.37
225.478
225.582
225.681
225.776
225.866
225.949
226.025
226.092
226.15
226.197
226.232
226.255
226.265
226.259
226.234
226.191
226.127
226.04
225.928
225.789
225.621
225.422
225.189
224.921
224.614
224.266
223.873
223.434
222.944
222.402
221.802
221.146
220.434
219.669
218.833
217.932
216.97
215.956
214.869
213.712
212.491
211.225
209.91
208.522
207.079
205.582
204.086
202.548
201.024
199.323
197.743
196.267
195.015
193.966
191.725
223.007
223.109
223.533
224.162
224.508
224.618
224.545
224.218
223.86
223.652
223.567
223.553
223.557
223.563
223.539
223.48
223.418
223.373
223.338
223.309
223.287
223.274
223.266
223.266
223.271
223.278
223.283
223.285
223.282
223.275
223.263
223.247
223.232
223.22
223.215
223.215
223.227
223.247
223.276
223.311
223.35
223.394
223.443
223.498
223.559
223.625
223.696
223.772
223.853
223.94
224.033
224.132
224.236
224.343
224.455
224.569
224.687
224.806
224.928
225.052
225.178
225.304
225.432
225.559
225.686
225.813
225.937
226.06
226.18
226.296
226.409
226.516
226.618
226.713
226.8
226.879
226.948
227.007
227.053
227.086
227.105
227.11
227.094
227.06
227.004
226.924
226.82
226.688
226.527
226.333
226.105
225.838
225.531
225.182
224.786
224.343
223.847
223.299
222.699
222.043
221.321
220.539
219.698
218.8
217.826
216.781
215.669
214.514
213.307
212.031
210.664
209.222
207.739
206.251
204.742
203.101
201.425
199.743
198.162
196.732
193.864
223.002
223.053
223.368
224.002
224.475
224.652
224.617
224.359
223.988
223.757
223.655
223.636
223.647
223.666
223.656
223.613
223.558
223.519
223.489
223.465
223.447
223.437
223.433
223.436
223.444
223.452
223.458
223.461
223.46
223.455
223.446
223.433
223.42
223.41
223.406
223.409
223.422
223.444
223.477
223.516
223.56
223.609
223.664
223.726
223.793
223.866
223.943
224.025
224.112
224.205
224.304
224.409
224.52
224.634
224.753
224.875
225.001
225.13
225.262
225.396
225.532
225.671
225.81
225.951
226.093
226.234
226.375
226.515
226.653
226.789
226.922
227.051
227.176
227.296
227.41
227.517
227.616
227.707
227.788
227.858
227.916
227.96
227.99
228.004
228.002
227.975
227.931
227.861
227.764
227.64
227.485
227.298
227.075
226.815
226.515
226.173
225.785
225.349
224.862
224.32
223.721
223.068
222.351
221.57
220.721
219.81
218.835
217.804
216.711
215.557
214.325
213.023
211.663
210.269
208.861
207.43
205.953
204.443
202.983
201.742
199.225
223.001
223.024
223.237
223.828
224.415
224.664
224.664
224.487
224.12
223.862
223.739
223.713
223.731
223.765
223.769
223.741
223.696
223.66
223.635
223.614
223.6
223.593
223.592
223.597
223.608
223.617
223.624
223.627
223.627
223.625
223.618
223.608
223.598
223.59
223.587
223.593
223.608
223.633
223.668
223.712
223.76
223.814
223.874
223.941
224.014
224.093
224.177
224.265
224.359
224.458
224.563
224.674
224.791
224.912
225.038
225.168
225.301
225.438
225.579
225.722
225.868
226.017
226.168
226.321
226.475
226.63
226.786
226.941
227.096
227.249
227.401
227.55
227.696
227.839
227.977
228.11
228.237
228.357
228.469
228.573
228.667
228.75
228.82
228.876
228.918
228.944
228.952
228.94
228.905
228.847
228.761
228.648
228.504
228.327
228.113
227.861
227.566
227.225
226.833
226.392
225.899
225.352
224.741
224.07
223.34
222.554
221.697
220.768
219.773
218.725
217.615
216.438
215.176
213.85
212.465
211.05
209.595
208.212
206.591
205.159
202.524
223
223.01
223.144
223.658
224.32
224.658
224.704
224.597
224.247
223.957
223.818
223.785
223.81
223.864
223.881
223.864
223.826
223.794
223.772
223.754
223.743
223.738
223.74
223.75
223.762
223.772
223.78
223.784
223.785
223.784
223.78
223.773
223.765
223.76
223.759
223.768
223.785
223.813
223.851
223.898
223.951
224.009
224.073
224.144
224.223
224.308
224.398
224.492
224.592
224.697
224.809
224.926
225.049
225.176
225.309
225.446
225.587
225.731
225.88
226.032
226.187
226.346
226.507
226.671
226.836
227.004
227.172
227.342
227.511
227.68
227.849
228.016
228.181
228.344
228.504
228.659
228.811
228.957
229.097
229.23
229.356
229.473
229.58
229.676
229.76
229.83
229.885
229.923
229.943
229.946
229.921
229.876
229.803
229.699
229.565
229.396
229.19
228.944
228.655
228.323
227.944
227.515
227.029
226.491
225.895
225.241
224.517
223.725
222.87
221.959
220.989
219.954
218.838
217.656
216.398
215.103
213.767
212.424
211.064
209.717
207.325
223
223.004
223.085
223.507
224.206
224.64
224.74
224.682
224.358
224.042
223.895
223.857
223.888
223.96
223.989
223.977
223.945
223.915
223.897
223.885
223.877
223.876
223.882
223.895
223.908
223.92
223.927
223.931
223.933
223.934
223.932
223.927
223.922
223.918
223.921
223.931
223.951
223.982
224.023
224.074
224.131
224.193
224.261
224.337
224.42
224.51
224.605
224.706
224.811
224.922
225.04
225.163
225.291
225.426
225.564
225.708
225.855
226.007
226.163
226.323
226.486
226.654
226.824
226.997
227.174
227.352
227.532
227.714
227.896
228.08
228.263
228.446
228.628
228.809
228.988
229.164
229.337
229.506
229.672
229.831
229.986
230.133
230.273
230.403
230.524
230.635
230.733
230.817
230.886
230.939
230.972
230.988
230.982
230.947
230.889
230.8
230.68
230.526
230.334
230.102
229.826
229.504
229.131
228.706
228.223
227.681
227.077
226.413
225.683
224.889
224.032
223.11
222.121
221.066
219.937
218.765
217.532
216.305
215.001
213.736
211.626
223
223.002
223.049
223.385
224.087
224.612
224.772
224.737
224.451
224.121
223.969
223.928
223.962
224.052
224.09
224.08
224.053
224.028
224.015
224.008
224.005
224.008
224.018
224.034
224.049
224.06
224.066
224.069
224.071
224.073
224.073
224.071
224.067
224.066
224.07
224.084
224.106
224.14
224.186
224.24
224.301
224.367
224.439
224.518
224.605
224.7
224.8
224.906
225.017
225.133
225.256
225.385
225.519
225.659
225.804
225.954
226.108
226.266
226.429
226.596
226.767
226.942
227.121
227.303
227.488
227.676
227.867
228.06
228.254
228.45
228.646
228.843
229.04
229.237
229.433
229.627
229.819
230.009
230.196
230.379
230.558
230.731
230.899
231.061
231.214
231.359
231.495
231.62
231.733
231.832
231.916
231.984
232.033
232.062
232.072
232.055
232.011
231.938
231.83
231.688
231.505
231.281
231.013
230.697
230.327
229.905
229.426
228.891
228.288
227.62
226.886
226.087
225.226
224.292
223.291
222.223
221.099
219.95
218.747
217.484
215.645
223
223.001
223.03
223.295
223.977
224.581
224.793
224.774
224.529
224.195
224.039
223.996
224.03
224.135
224.182
224.175
224.155
224.135
224.129
224.127
224.129
224.136
224.15
224.167
224.181
224.191
224.195
224.196
224.198
224.201
224.202
224.202
224.2
224.201
224.209
224.225
224.251
224.289
224.338
224.396
224.462
224.532
224.607
224.69
224.78
224.878
224.983
225.093
225.209
225.331
225.458
225.592
225.732
225.878
226.029
226.184
226.344
226.509
226.678
226.851
227.029
227.211
227.397
227.586
227.78
227.977
228.176
228.379
228.583
228.79
228.998
229.207
229.417
229.627
229.838
230.047
230.256
230.464
230.669
230.872
231.073
231.27
231.462
231.65
231.832
232.008
232.176
232.336
232.487
232.627
232.756
232.871
232.972
233.056
233.122
233.168
233.192
233.196
233.165
233.11
233.021
232.895
232.733
232.528
232.279
231.981
231.631
231.226
230.758
230.231
229.637
228.979
228.255
227.461
226.604
225.673
224.691
223.655
222.574
221.377
219.703
223
223
223.019
223.232
223.885
224.549
224.805
224.803
224.593
224.261
224.102
224.058
224.092
224.211
224.267
224.265
224.252
224.239
224.239
224.243
224.25
224.26
224.275
224.291
224.303
224.309
224.311
224.31
224.311
224.315
224.319
224.32
224.321
224.325
224.335
224.355
224.385
224.426
224.479
224.542
224.612
224.686
224.765
224.851
224.944
225.046
225.155
225.269
225.389
225.515
225.647
225.786
225.931
226.082
226.237
226.398
226.564
226.734
226.908
227.088
227.272
227.46
227.652
227.849
228.05
228.254
228.462
228.672
228.886
229.102
229.32
229.54
229.761
229.983
230.206
230.429
230.652
230.875
231.097
231.317
231.536
231.752
231.966
232.176
232.383
232.584
232.78
232.97
233.153
233.329
233.495
233.65
233.795
233.927
234.045
234.147
234.23
234.295
234.338
234.359
234.357
234.315
234.248
234.142
233.996
233.806
233.567
233.277
232.929
232.525
232.053
231.517
230.909
230.231
229.485
228.663
227.788
226.855
225.884
224.793
223.279
223
223
223.014
223.193
223.818
224.523
224.812
224.828
224.642
224.317
224.156
224.114
224.15
224.283
224.35
224.353
224.347
224.339
224.345
224.355
224.367
224.378
224.393
224.406
224.413
224.414
224.412
224.41
224.411
224.416
224.422
224.427
224.431
224.438
224.452
224.475
224.509
224.554
224.611
224.679
224.752
224.83
224.913
225.002
225.098
225.204
225.316
225.433
225.557
225.687
225.823
225.966
226.116
226.271
226.432
226.597
226.768
226.943
227.123
227.307
227.497
227.69
227.889
228.092
228.299
228.509
228.724
228.942
229.163
229.387
229.614
229.843
230.074
230.306
230.54
230.774
231.009
231.245
231.48
231.715
231.949
232.183
232.414
232.643
232.87
233.093
233.313
233.528
233.738
233.943
234.141
234.331
234.513
234.685
234.847
234.996
235.132
235.253
235.357
235.441
235.505
235.544
235.559
235.543
235.493
235.408
235.282
235.112
234.894
234.625
234.294
233.906
233.444
232.918
232.314
231.635
230.888
230.064
229.193
228.189
226.801
223
223
223.012
223.173
223.78
224.511
224.82
224.849
224.676
224.359
224.201
224.163
224.209
224.356
224.432
224.439
224.437
224.435
224.446
224.463
224.478
224.49
224.502
224.509
224.509
224.505
224.499
224.496
224.498
224.506
224.515
224.522
224.53
224.541
224.558
224.585
224.623
224.673
224.734
224.806
224.883
224.965
225.051
225.143
225.243
225.351
225.466
225.587
225.714
225.847
225.987
226.134
226.287
226.447
226.612
226.782
226.957
227.137
227.321
227.51
227.705
227.903
228.107
228.315
228.528
228.744
228.965
229.189
229.417
229.648
229.882
230.119
230.358
230.599
230.841
231.086
231.331
231.577
231.824
232.071
232.319
232.565
232.812
233.057
233.3
233.542
233.781
234.017
234.25
234.479
234.703
234.922
235.134
235.34
235.538
235.726
235.905
236.073
236.227
236.368
236.493
236.599
236.686
236.75
236.789
236.804
236.785
236.73
236.636
236.495
236.303
236.056
235.741
235.362
234.9
234.366
233.743
233.034
232.255
231.334
230.049
223
223
223.011
223.169
223.772
224.512
224.832
224.866
224.694
224.386
224.238
224.207
224.271
224.432
224.511
224.519
224.521
224.525
224.542
224.566
224.582
224.594
224.601
224.6
224.594
224.584
224.575
224.571
224.575
224.586
224.598
224.609
224.62
224.634
224.656
224.687
224.729
224.783
224.849
224.924
225.006
225.091
225.18
225.274
225.377
225.488
225.606
225.73
225.86
225.996
226.14
226.29
226.447
226.61
226.779
226.953
227.132
227.316
227.505
227.699
227.897
228.101
228.309
228.521
228.739
228.961
229.186
229.416
229.65
229.887
230.127
230.37
230.616
230.865
231.115
231.367
231.621
231.877
232.133
232.391
232.649
232.907
233.165
233.424
233.681
233.938
234.193
234.446
234.697
234.946
235.191
235.433
235.671
235.904
236.131
236.352
236.566
236.772
236.968
237.155
237.33
237.492
237.64
237.77
237.882
237.972
238.037
238.074
238.085
238.053
237.985
237.871
237.704
237.483
237.193
236.841
236.393
235.862
235.211
234.41
233.24
223
223
223.012
223.173
223.786
224.53
224.848
224.879
224.697
224.399
224.269
224.249
224.34
224.511
224.588
224.595
224.598
224.608
224.633
224.661
224.678
224.686
224.687
224.68
224.666
224.652
224.641
224.638
224.644
224.657
224.672
224.687
224.701
224.719
224.745
224.78
224.827
224.885
224.955
225.035
225.12
225.208
225.299
225.397
225.502
225.616
225.737
225.864
225.996
226.136
226.282
226.435
226.596
226.762
226.935
227.112
227.295
227.483
227.675
227.873
228.075
228.283
228.495
228.712
228.934
229.16
229.391
229.625
229.864
230.106
230.352
230.601
230.853
231.107
231.364
231.624
231.885
232.148
232.413
232.678
232.946
233.213
233.482
233.751
234.02
234.289
234.557
234.824
235.091
235.355
235.618
235.879
236.137
236.391
236.642
236.889
237.13
237.367
237.597
237.819
238.034
238.239
238.434
238.618
238.788
238.943
239.081
239.2
239.299
239.371
239.417
239.433
239.407
239.337
239.215
239.041
238.79
238.472
238.008
237.445
236.518
223
223
223.014
223.192
223.833
224.568
224.868
224.886
224.688
224.403
224.294
224.291
224.415
224.593
224.665
224.669
224.671
224.685
224.716
224.746
224.761
224.764
224.759
224.745
224.726
224.709
224.698
224.697
224.706
224.721
224.739
224.756
224.773
224.795
224.825
224.864
224.916
224.979
225.054
225.137
225.226
225.316
225.41
225.51
225.619
225.735
225.859
225.988
226.124
226.265
226.415
226.571
226.734
226.904
227.08
227.261
227.447
227.638
227.834
228.035
228.241
228.452
228.668
228.889
229.115
229.345
229.58
229.818
230.061
230.308
230.559
230.813
231.07
231.33
231.593
231.858
232.125
232.395
232.667
232.94
233.215
233.491
233.768
234.046
234.325
234.604
234.883
235.162
235.44
235.718
235.995
236.271
236.545
236.817
237.087
237.354
237.617
237.877
238.133
238.384
238.63
238.869
239.102
239.327
239.543
239.749
239.944
240.126
240.293
240.442
240.571
240.678
240.76
240.811
240.832
240.813
240.751
240.639
240.418
240.163
239.619
223
223
223.018
223.229
223.905
224.616
224.888
224.887
224.667
224.404
224.314
224.334
224.497
224.676
224.739
224.74
224.741
224.758
224.791
224.816
224.826
224.824
224.812
224.793
224.773
224.755
224.745
224.746
224.757
224.776
224.796
224.815
224.836
224.862
224.896
224.94
224.996
225.065
225.144
225.232
225.323
225.416
225.512
225.615
225.726
225.846
225.972
226.104
226.241
226.386
226.538
226.697
226.863
227.036
227.214
227.399
227.588
227.782
227.982
228.186
228.395
228.61
228.829
229.054
229.283
229.517
229.756
229.999
230.246
230.497
230.752
231.01
231.272
231.537
231.805
232.075
232.348
232.623
232.901
233.18
233.462
233.745
234.029
234.315
234.602
234.889
235.177
235.465
235.754
236.043
236.331
236.619
236.906
237.192
237.477
237.76
238.041
238.319
238.595
238.868
239.137
239.402
239.662
239.917
240.166
240.408
240.642
240.868
241.084
241.29
241.484
241.665
241.829
241.973
242.097
242.198
242.283
242.329
242.335
242.306
242.163
223
223.001
223.026
223.284
223.999
224.671
224.906
224.882
224.637
224.403
224.335
224.381
224.581
224.755
224.81
224.809
224.81
224.828
224.855
224.87
224.872
224.863
224.846
224.824
224.804
224.788
224.78
224.784
224.799
224.82
224.842
224.864
224.888
224.918
224.957
225.006
225.068
225.142
225.227
225.318
225.412
225.507
225.606
225.712
225.826
225.948
226.076
226.211
226.351
226.498
226.652
226.814
226.983
227.158
227.34
227.527
227.719
227.916
228.118
228.326
228.538
228.756
228.979
229.206
229.439
229.676
229.919
230.165
230.416
230.671
230.93
231.192
231.458
231.727
232
232.275
232.553
232.834
233.116
233.402
233.689
233.978
234.269
234.561
234.855
235.149
235.445
235.741
236.038
236.335
236.633
236.931
237.228
237.525
237.821
238.116
238.409
238.702
238.992
239.28
239.566
239.849
240.128
240.404
240.675
240.942
241.204
241.459
241.708
241.949
242.181
242.403
242.614
242.812
242.994
243.161
243.312
243.447
243.575
243.655
243.722
223
223.001
223.04
223.36
224.111
224.726
224.918
224.871
224.602
224.402
224.358
224.44
224.666
224.827
224.873
224.874
224.876
224.89
224.906
224.908
224.9
224.884
224.863
224.841
224.822
224.808
224.803
224.811
224.83
224.854
224.878
224.903
224.93
224.964
225.008
225.064
225.132
225.212
225.302
225.397
225.493
225.59
225.692
225.8
225.917
226.042
226.173
226.309
226.452
226.601
226.758
226.923
227.094
227.272
227.456
227.646
227.841
228.041
228.246
228.456
228.671
228.892
229.118
229.348
229.584
229.825