/*--------------------------------*- C++ -*----------------------------------*\
| =========                 |                                                 |
| \\      /  F ield         | OpenFOAM: The Open Source CFD Toolbox           |
|  \\    /   O peration     | Version:  2412                                  |
|   \\  /    A nd           | Website:  www.openfoam.com                      |
|    \\/     M anipulation  |                                                 |
\*---------------------------------------------------------------------------*/
FoamFile
{
    version     2.0;
    format      ascii;
    arch        "LSB;label=32;scalar=64";
    class       volVectorField;
    location    "0.029";
    object      U;
}
// * * * * * * * * * * * * * * * * * * * * * * * * * * * * * * * * * * * * * //

dimensions      [0 1 -1 0 0 0 0];

internalField   nonuniform List<vector> 
78650
(
(210 -3.50761e-12 0)
(210 1.43081e-12 0)
(210 -1.11015e-11 0)
(210 -1.8505e-12 0)
(210 1.12638e-11 0)
(210 -4.11758e-12 0)
(210 -2.60087e-12 0)
(210 2.96996e-12 0)
(210 1.04796e-11 0)
(210 1.39431e-09 0)
(210 1.60176e-07 0)
(210 1.80821e-05 0)
(209.994 0.00135501 0)
(209.888 0.0336402 0)
(209.268 0.272875 0)
(207.958 0.872335 0)
(206.726 1.44937 0)
(206.384 1.69202 0)
(206.306 1.84532 0)
(206.883 1.77188 0)
(208.102 1.32256 0)
(209.35 0.942206 0)
(210.243 0.70495 0)
(210.906 0.694561 0)
(211.363 0.824994 0)
(211.691 1.0462 0)
(212.052 1.30031 0)
(212.498 1.56572 0)
(212.986 1.8416 0)
(213.459 2.14826 0)
(213.902 2.49572 0)
(214.324 2.88622 0)
(214.723 3.31802 0)
(215.096 3.78231 0)
(215.433 4.2721 0)
(215.738 4.78355 0)
(216.01 5.32224 0)
(216.253 5.89288 0)
(216.472 6.50119 0)
(216.69 7.14258 0)
(216.901 7.81995 0)
(217.119 8.52954 0)
(217.349 9.26713 0)
(217.551 10.0344 0)
(217.692 10.8294 0)
(217.762 11.6541 0)
(217.777 12.4927 0)
(217.735 13.359 0)
(217.635 14.2421 0)
(217.497 15.147 0)
(217.348 16.0756 0)
(217.197 17.0283 0)
(217.055 18.0085 0)
(216.927 19.0197 0)
(216.813 20.0642 0)
(216.712 21.1431 0)
(216.62 22.2559 0)
(216.533 23.405 0)
(216.451 24.592 0)
(216.367 25.8176 0)
(216.29 27.0749 0)
(216.219 28.3689 0)
(216.151 29.7012 0)
(216.093 31.0704 0)
(216.045 32.4805 0)
(216.003 33.9306 0)
(215.982 35.4237 0)
(215.973 36.9607 0)
(215.987 38.542 0)
(216.029 40.1698 0)
(216.098 41.8441 0)
(216.211 43.5671 0)
(216.362 45.3383 0)
(216.57 47.1586 0)
(216.838 49.0276 0)
(217.173 50.9471 0)
(217.589 52.9188 0)
(218.087 54.9432 0)
(218.687 57.0197 0)
(219.39 59.146 0)
(220.23 61.3193 0)
(221.195 63.5389 0)
(222.333 65.8013 0)
(223.615 68.1062 0)
(225.098 70.445 0)
(226.767 72.8134 0)
(228.667 75.1972 0)
(230.811 77.5791 0)
(233.221 79.9381 0)
(235.928 82.2626 0)
(238.929 84.5773 0)
(242.282 86.866 0)
(245.971 89.0819 0)
(250.023 91.1335 0)
(254.4 92.9759 0)
(259.112 94.6847 0)
(264.436 96.2582 0)
(270.288 97.5654 0)
(276.445 98.5473 0)
(282.787 99.2265 0)
(289.387 99.5892 0)
(296 99.6123 0)
(302.8 99.3133 0)
(309.912 98.6153 0)
(316.815 97.6792 0)
(324.893 96.1436 0)
(331.839 94.4558 0)
(339.399 92.3248 0)
(346.533 90.0558 0)
(353.096 87.7897 0)
(359.089 85.6071 0)
(364.765 83.2819 0)
(369.638 81.3237 0)
(374.659 78.8299 0)
(377.958 76.6287 0)
(379.775 74.6829 0)
(381.557 72.4048 0)
(384.223 71.0389 0)
(389.297 69.6814 0)
(397.072 68.4946 0)
(399.941 72.2398 0)
(210 1.67608e-12 0)
(210 4.45095e-12 0)
(210 -5.89851e-12 0)
(210 -3.07293e-12 0)
(210 3.12542e-12 0)
(210 -5.097e-12 0)
(210 7.41788e-12 0)
(210 4.71228e-12 0)
(210 -6.98121e-12 0)
(210 4.18789e-10 0)
(210 5.0114e-08 0)
(210 5.94529e-06 0)
(209.997 0.000590479 0)
(209.932 0.0186917 0)
(209.454 0.189191 0)
(208.218 0.719434 0)
(206.865 1.33529 0)
(206.359 1.65085 0)
(206.199 1.82756 0)
(206.611 1.81996 0)
(207.749 1.43044 0)
(209.02 1.03233 0)
(209.957 0.758565 0)
(210.65 0.723376 0)
(211.118 0.844597 0)
(211.434 1.06454 0)
(211.774 1.32525 0)
(212.196 1.59755 0)
(212.664 1.87521 0)
(213.121 2.17669 0)
(213.552 2.51551 0)
(213.96 2.89588 0)
(214.346 3.31661 0)
(214.704 3.76977 0)
(215.026 4.24854 0)
(215.319 4.74937 0)
(215.582 5.27721 0)
(215.816 5.83761 0)
(216.023 6.43519 0)
(216.219 7.06526 0)
(216.394 7.72995 0)
(216.573 8.42491 0)
(216.766 9.14953 0)
(216.947 9.90691 0)
(217.101 10.6964 0)
(217.206 11.5158 0)
(217.246 12.3623 0)
(217.239 13.222 0)
(217.171 14.1036 0)
(217.051 15.0053 0)
(216.898 15.9276 0)
(216.726 16.8704 0)
(216.551 17.838 0)
(216.381 18.8335 0)
(216.22 19.8589 0)
(216.07 20.9163 0)
(215.927 22.0082 0)
(215.79 23.1357 0)
(215.657 24.3 0)
(215.528 25.4989 0)
(215.404 26.7334 0)
(215.281 28.0067 0)
(215.162 29.3146 0)
(215.055 30.6581 0)
(214.95 32.0445 0)
(214.854 33.4695 0)
(214.773 34.9378 0)
(214.7 36.4506 0)
(214.645 38.0069 0)
(214.614 39.6101 0)
(214.603 41.2598 0)
(214.63 42.9589 0)
(214.687 44.7072 0)
(214.794 46.5062 0)
(214.95 48.3556 0)
(215.165 50.2572 0)
(215.45 52.2131 0)
(215.807 54.2246 0)
(216.254 56.2927 0)
(216.79 58.4168 0)
(217.448 60.5955 0)
(218.217 62.8274 0)
(219.144 65.1098 0)
(220.203 67.4415 0)
(221.451 69.8193 0)
(222.868 72.2428 0)
(224.5 74.7032 0)
(226.358 77.1864 0)
(228.471 79.675 0)
(230.873 82.1586 0)
(233.56 84.6395 0)
(236.57 87.0804 0)
(239.865 89.4499 0)
(243.494 91.7192 0)
(247.499 93.886 0)
(251.875 95.9568 0)
(256.613 97.8226 0)
(261.663 99.5105 0)
(267.132 100.95 0)
(273.189 102.156 0)
(279.387 102.992 0)
(286.415 103.5 0)
(292.801 103.727 0)
(300.459 103.476 0)
(307.098 103.04 0)
(314.647 102.127 0)
(321.938 100.827 0)
(329.053 99.3286 0)
(337.118 97.195 0)
(343.945 95.0242 0)
(350.354 92.9294 0)
(357.359 90.2525 0)
(363.076 88.1207 0)
(369.152 85.4854 0)
(373.616 83.1481 0)
(376.628 80.9145 0)
(378.728 78.4776 0)
(380.769 77.084 0)
(385.475 75.6189 0)
(393.973 74.2687 0)
(397.61 78.4746 0)
(210 1.04829e-12 0)
(210 -2.46614e-13 0)
(210 -6.41037e-12 0)
(210 -4.52925e-12 0)
(210 1.7219e-11 0)
(210 9.56146e-12 0)
(210 8.66109e-12 0)
(210 -6.16158e-12 0)
(210 1.89565e-12 0)
(210 1.82346e-10 0)
(210 1.95491e-08 0)
(210 1.99799e-06 0)
(209.999 0.000234212 0)
(209.961 0.00956632 0)
(209.615 0.123726 0)
(208.509 0.57307 0)
(207.059 1.20834 0)
(206.339 1.60412 0)
(206.098 1.79286 0)
(206.373 1.84549 0)
(207.39 1.529 0)
(208.658 1.10786 0)
(209.643 0.787135 0)
(210.38 0.72598 0)
(210.869 0.841073 0)
(211.179 1.06274 0)
(211.497 1.3322 0)
(211.892 1.61222 0)
(212.335 1.89146 0)
(212.775 2.18692 0)
(213.193 2.51631 0)
(213.589 2.88612 0)
(213.961 3.29567 0)
(214.304 3.73764 0)
(214.612 4.2054 0)
(214.89 4.69582 0)
(215.144 5.21338 0)
(215.371 5.76467 0)
(215.571 6.35355 0)
(215.752 6.97523 0)
(215.901 7.63027 0)
(216.048 8.31285 0)
(216.199 9.02385 0)
(216.342 9.76743 0)
(216.48 10.5464 0)
(216.6 11.3602 0)
(216.664 12.2052 0)
(216.675 13.0719 0)
(216.637 13.9561 0)
(216.544 14.8601 0)
(216.399 15.7847 0)
(216.221 16.7252 0)
(216.026 17.6854 0)
(215.825 18.6692 0)
(215.625 19.6796 0)
(215.429 20.7194 0)
(215.238 21.7908 0)
(215.052 22.896 0)
(214.869 24.0364 0)
(214.689 25.2136 0)
(214.512 26.4273 0)
(214.34 27.6767 0)
(214.172 28.9608 0)
(214.011 30.2823 0)
(213.849 31.6492 0)
(213.697 33.0492 0)
(213.554 34.4932 0)
(213.416 35.9833 0)
(213.296 37.5161 0)
(213.191 39.0963 0)
(213.104 40.7222 0)
(213.047 42.3974 0)
(213.014 44.1217 0)
(213.026 45.8969 0)
(213.077 47.7229 0)
(213.18 49.6013 0)
(213.344 51.5343 0)
(213.57 53.5233 0)
(213.875 55.57 0)
(214.257 57.6738 0)
(214.747 59.8346 0)
(215.334 62.0507 0)
(216.064 64.3219 0)
(216.908 66.648 0)
(217.925 69.0288 0)
(219.088 71.463 0)
(220.444 73.9428 0)
(221.999 76.4569 0)
(223.784 78.994 0)
(225.828 81.5497 0)
(228.129 84.1248 0)
(230.736 86.6887 0)
(233.63 89.2168 0)
(236.879 91.6848 0)
(240.486 94.1023 0)
(244.442 96.488 0)
(248.841 98.7253 0)
(253.617 100.82 0)
(258.889 102.648 0)
(264.538 104.212 0)
(270.462 105.471 0)
(277.029 106.517 0)
(283.447 107.112 0)
(290.61 107.445 0)
(297.869 107.304 0)
(304.476 107.076 0)
(312.681 106.161 0)
(319.388 105.236 0)
(327.134 103.776 0)
(334.436 101.969 0)
(340.949 100.236 0)
(348.653 97.8238 0)
(354.843 95.7643 0)
(361.248 93.2259 0)
(366.459 90.7802 0)
(370.28 88.2851 0)
(373.083 85.4755 0)
(375.513 83.8363 0)
(380.623 82.5414 0)
(389.952 81.1037 0)
(393.64 85.8929 0)
(210 -6.00492e-13 0)
(210 5.48969e-12 0)
(210 -1.49092e-12 0)
(210 1.17382e-11 0)
(210 2.64255e-11 0)
(210 8.47479e-12 0)
(210 -3.27074e-12 0)
(210 -6.57611e-12 0)
(210 2.44758e-12 0)
(210 2.48294e-11 0)
(210 3.89202e-09 0)
(210 4.66562e-07 0)
(209.999 7.66322e-05 0)
(209.979 0.00435498 0)
(209.745 0.0743289 0)
(208.799 0.430451 0)
(207.304 1.06118 0)
(206.365 1.53254 0)
(206.004 1.74205 0)
(206.181 1.86095 0)
(207.035 1.61935 0)
(208.277 1.19113 0)
(209.317 0.83873 0)
(210.104 0.76552 0)
(210.622 0.872648 0)
(210.928 1.08723 0)
(211.224 1.35488 0)
(211.589 1.63546 0)
(211.999 1.91356 0)
(212.418 2.20212 0)
(212.82 2.52154 0)
(213.203 2.88043 0)
(213.562 3.27888 0)
(213.889 3.71018 0)
(214.181 4.16766 0)
(214.444 4.6485 0)
(214.687 5.15639 0)
(214.903 5.69878 0)
(215.098 6.2787 0)
(215.269 6.89228 0)
(215.403 7.53807 0)
(215.527 8.20907 0)
(215.642 8.90673 0)
(215.741 9.6349 0)
(215.845 10.3984 0)
(215.951 11.1989 0)
(216.027 12.0332 0)
(216.052 12.8969 0)
(216.036 13.7739 0)
(215.975 14.6746 0)
(215.854 15.5959 0)
(215.687 16.531 0)
(215.488 17.484 0)
(215.268 18.4577 0)
(215.039 19.4549 0)
(214.806 20.478 0)
(214.573 21.5301 0)
(214.341 22.6141 0)
(214.11 23.7321 0)
(213.881 24.885 0)
(213.655 26.0728 0)
(213.433 27.2961 0)
(213.214 28.5561 0)
(212.998 29.854 0)
(212.787 31.1882 0)
(212.58 32.5629 0)
(212.378 33.9804 0)
(212.177 35.4441 0)
(211.993 36.9466 0)
(211.817 38.4982 0)
(211.657 40.0951 0)
(211.521 41.7416 0)
(211.401 43.4377 0)
(211.32 45.1851 0)
(211.268 46.9842 0)
(211.261 48.8364 0)
(211.305 50.7449 0)
(211.402 52.7109 0)
(211.565 54.7374 0)
(211.795 56.8248 0)
(212.116 58.9743 0)
(212.523 61.1847 0)
(213.055 63.4575 0)
(213.688 65.7915 0)
(214.479 68.1881 0)
(215.4 70.645 0)
(216.499 73.1595 0)
(217.779 75.7262 0)
(219.271 78.3385 0)
(221.001 80.9875 0)
(222.978 83.6586 0)
(225.244 86.3213 0)
(227.781 88.9746 0)
(230.652 91.6277 0)
(233.853 94.2865 0)
(237.41 96.8978 0)
(241.369 99.3365 0)
(245.613 101.645 0)
(250.289 103.745 0)
(255.358 105.751 0)
(260.986 107.551 0)
(266.907 109.029 0)
(273.658 110.298 0)
(279.965 111.124 0)
(287.762 111.735 0)
(294.693 111.797 0)
(302.577 111.586 0)
(310.518 110.804 0)
(317.307 110.132 0)
(325.839 108.618 0)
(332.912 107.078 0)
(340.318 105.05 0)
(347.198 103.094 0)
(354.376 100.564 0)
(360.244 98.3721 0)
(365.777 95.4753 0)
(369.083 92.6163 0)
(371.449 90.3676 0)
(376 89.2274 0)
(385.992 87.7802 0)
(389.622 93.6515 0)
(210 1.20557e-11 0)
(210 1.23881e-11 0)
(210 5.38172e-12 0)
(210 2.25586e-11 0)
(210 1.86681e-12 0)
(210 -1.56083e-11 0)
(210 -4.09659e-12 0)
(210 -5.10645e-13 0)
(210 6.93083e-12 0)
(210 8.52563e-12 0)
(210 6.09237e-10 0)
(210 7.81687e-08 0)
(210 2.04863e-05 0)
(209.99 0.00175036 0)
(209.844 0.0406555 0)
(209.087 0.303885 0)
(207.609 0.89724 0)
(206.45 1.43934 0)
(205.927 1.70084 0)
(206.018 1.84989 0)
(206.677 1.67532 0)
(207.86 1.26015 0)
(208.961 0.882448 0)
(209.812 0.801359 0)
(210.365 0.894878 0)
(210.671 1.0974 0)
(210.945 1.35972 0)
(211.276 1.63899 0)
(211.651 1.91536 0)
(212.045 2.19665 0)
(212.432 2.50546 0)
(212.802 2.85259 0)
(213.148 3.23918 0)
(213.461 3.659 0)
(213.739 4.10552 0)
(213.987 4.57639 0)
(214.217 5.0745 0)
(214.423 5.608 0)
(214.613 6.17942 0)
(214.774 6.78622 0)
(214.898 7.42519 0)
(215.009 8.08826 0)
(215.094 8.77597 0)
(215.155 9.49114 0)
(215.22 10.2385 0)
(215.291 11.0225 0)
(215.353 11.8419 0)
(215.382 12.6944 0)
(215.372 13.5707 0)
(215.329 14.4673 0)
(215.229 15.3884 0)
(215.078 16.3245 0)
(214.885 17.2763 0)
(214.659 18.2453 0)
(214.411 19.2336 0)
(214.151 20.2439 0)
(213.882 21.2799 0)
(213.609 22.3448 0)
(213.334 23.4413 0)
(213.057 24.5712 0)
(212.781 25.7357 0)
(212.507 26.9352 0)
(212.235 28.1698 0)
(211.967 29.4407 0)
(211.7 30.7506 0)
(211.435 32.1008 0)
(211.173 33.4928 0)
(210.916 34.925 0)
(210.666 36.4015 0)
(210.418 37.9284 0)
(210.185 39.4962 0)
(209.97 41.1125 0)
(209.767 42.7796 0)
(209.597 44.4977 0)
(209.447 46.2688 0)
(209.338 48.0915 0)
(209.269 49.9705 0)
(209.246 51.9061 0)
(209.28 53.9021 0)
(209.37 55.9591 0)
(209.54 58.0794 0)
(209.781 60.2619 0)
(210.133 62.5091 0)
(210.57 64.8191 0)
(211.15 67.1957 0)
(211.842 69.6372 0)
(212.693 72.1453 0)
(213.698 74.7162 0)
(214.89 77.3437 0)
(216.292 80.0194 0)
(217.917 82.7357 0)
(219.807 85.4846 0)
(221.954 88.2755 0)
(224.425 91.0999 0)
(227.2 93.9257 0)
(230.314 96.6981 0)
(233.82 99.3798 0)
(237.675 102.036 0)
(242.046 104.549 0)
(246.725 106.977 0)
(251.86 109.165 0)
(257.455 111.195 0)
(263.481 112.942 0)
(269.896 114.248 0)
(276.611 115.286 0)
(284.261 116.001 0)
(290.89 116.341 0)
(299.447 116.251 0)
(306.679 115.818 0)
(315.026 114.94 0)
(322.845 113.764 0)
(330.358 112.136 0)
(337.642 110.46 0)
(345.608 108.248 0)
(352.099 106.084 0)
(357.889 103.327 0)
(361.877 100.456 0)
(365.271 97.9728 0)
(371.066 96.0887 0)
(381.958 94.692 0)
(386.076 101.033 0)
(210 6.77518e-12 0)
(210 -5.102e-12 0)
(210 4.58494e-12 0)
(210 1.06421e-11 0)
(210 -1.18436e-11 0)
(210 -6.43671e-12 0)
(210 -7.19844e-12 0)
(210 -3.24663e-12 0)
(210 -5.40813e-13 0)
(210 -3.98493e-12 0)
(210 -1.72031e-10 0)
(210 -1.0657e-08 0)
(210 3.34932e-06 0)
(209.996 0.00059315 0)
(209.913 0.0197227 0)
(209.35 0.196571 0)
(207.959 0.719315 0)
(206.599 1.31911 0)
(205.878 1.66542 0)
(205.889 1.78937 0)
(206.332 1.69982 0)
(207.427 1.34744 0)
(208.598 0.969567 0)
(209.518 0.872084 0)
(210.1 0.93378 0)
(210.406 1.11401 0)
(210.659 1.36549 0)
(210.956 1.64081 0)
(211.29 1.91479 0)
(211.656 2.18944 0)
(212.026 2.48891 0)
(212.383 2.82613 0)
(212.716 3.20371 0)
(213.014 3.61527 0)
(213.277 4.05377 0)
(213.51 4.51705 0)
(213.726 5.00703 0)
(213.92 5.53201 0)
(214.101 6.09415 0)
(214.252 6.69271 0)
(214.371 7.32281 0)
(214.474 7.97646 0)
(214.537 8.65349 0)
(214.57 9.35564 0)
(214.602 10.0851 0)
(214.632 10.8496 0)
(214.66 11.6479 0)
(214.673 12.4815 0)
(214.66 13.3431 0)
(214.619 14.23 0)
(214.536 15.1412 0)
(214.407 16.0706 0)
(214.23 17.0163 0)
(214.01 17.9783 0)
(213.758 18.9577 0)
(213.482 19.9564 0)
(213.189 20.9776 0)
(212.884 22.0246 0)
(212.57 23.1004 0)
(212.251 24.2074 0)
(211.929 25.347 0)
(211.607 26.5202 0)
(211.286 27.7279 0)
(210.965 28.9714 0)
(210.646 30.2522 0)
(210.326 31.5719 0)
(210.008 32.9325 0)
(209.69 34.3361 0)
(209.374 35.7835 0)
(209.066 37.2736 0)
(208.765 38.8088 0)
(208.473 40.3934 0)
(208.188 42.0291 0)
(207.932 43.7105 0)
(207.686 45.4491 0)
(207.478 47.2382 0)
(207.298 49.0859 0)
(207.158 50.9902 0)
(207.063 52.9562 0)
(207.014 54.9849 0)
(207.031 57.0799 0)
(207.107 59.2404 0)
(207.278 61.4705 0)
(207.521 63.768 0)
(207.892 66.1393 0)
(208.357 68.5817 0)
(208.967 71.0986 0)
(209.713 73.687 0)
(210.627 76.3448 0)
(211.728 79.0654 0)
(213.037 81.8405 0)
(214.592 84.6633 0)
(216.383 87.5385 0)
(218.466 90.4526 0)
(220.82 93.3779 0)
(223.501 96.281 0)
(226.543 99.1507 0)
(229.915 102.02 0)
(233.762 104.809 0)
(237.928 107.579 0)
(242.64 110.162 0)
(247.713 112.602 0)
(253.312 114.797 0)
(259.535 116.752 0)
(265.755 118.261 0)
(273.081 119.751 0)
(280.166 120.509 0)
(287.769 121.09 0)
(296.31 121.199 0)
(303.619 121.034 0)
(312.526 120.237 0)
(320.005 119.37 0)
(328.55 117.888 0)
(336.304 116.245 0)
(343.273 114.546 0)
(350.383 111.845 0)
(354.853 109.307 0)
(358.702 106.638 0)
(364.395 104.496 0)
(375.737 102.728 0)
(379.735 109.277 0)
(210 1.21709e-13 0)
(210 1.11925e-12 0)
(210 1.65621e-11 0)
(210 3.02459e-12 0)
(210 -5.48962e-12 0)
(210 -1.71953e-12 0)
(210 -4.8608e-12 0)
(210 -1.20575e-12 0)
(210 -9.38771e-12 0)
(210 -1.82907e-12 0)
(210 -1.16464e-10 0)
(210 -1.21045e-08 0)
(210 -2.08343e-07 0)
(209.998 0.000159988 0)
(209.956 0.00831453 0)
(209.573 0.115219 0)
(208.348 0.542388 0)
(206.827 1.17161 0)
(205.871 1.5848 0)
(205.788 1.71105 0)
(206.021 1.69758 0)
(206.988 1.45017 0)
(208.205 1.0709 0)
(209.191 0.934536 0)
(209.808 0.94651 0)
(210.127 1.10421 0)
(210.366 1.34879 0)
(210.629 1.62357 0)
(210.92 1.8962 0)
(211.253 2.16328 0)
(211.605 2.45071 0)
(211.951 2.77442 0)
(212.273 3.14005 0)
(212.559 3.54146 0)
(212.81 3.9712 0)
(213.028 4.42719 0)
(213.231 4.91005 0)
(213.412 5.42764 0)
(213.584 5.98151 0)
(213.722 6.57278 0)
(213.836 7.1952 0)
(213.929 7.84148 0)
(213.974 8.51129 0)
(213.989 9.20338 0)
(213.996 9.91718 0)
(213.986 10.6647 0)
(213.972 11.4426 0)
(213.954 12.2526 0)
(213.921 13.0947 0)
(213.865 13.9684 0)
(213.782 14.868 0)
(213.66 15.7903 0)
(213.495 16.7316 0)
(213.284 17.6898 0)
(213.033 18.6643 0)
(212.749 19.6558 0)
(212.441 20.6664 0)
(212.112 21.6994 0)
(211.767 22.7581 0)
(211.411 23.8451 0)
(211.047 24.9627 0)
(210.678 26.1121 0)
(210.308 27.2946 0)
(209.936 28.5114 0)
(209.564 29.7645 0)
(209.189 31.056 0)
(208.812 32.3875 0)
(208.435 33.7602 0)
(208.058 35.1752 0)
(207.682 36.6349 0)
(207.309 38.1405 0)
(206.943 39.6929 0)
(206.588 41.2904 0)
(206.249 42.9376 0)
(205.906 44.6481 0)
(205.605 46.3973 0)
(205.319 48.2085 0)
(205.071 50.0751 0)
(204.857 52.0039 0)
(204.682 53.9941 0)
(204.561 56.0503 0)
(204.489 58.1718 0)
(204.498 60.3635 0)
(204.565 62.6231 0)
(204.745 64.9582 0)
(205.001 67.3651 0)
(205.388 69.8509 0)
(205.887 72.4139 0)
(206.533 75.0548 0)
(207.338 77.7686 0)
(208.326 80.5535 0)
(209.528 83.4121 0)
(210.939 86.3454 0)
(212.619 89.3333 0)
(214.555 92.3534 0)
(216.813 95.4025 0)
(219.411 98.4931 0)
(222.349 101.626 0)
(225.74 104.713 0)
(229.448 107.768 0)
(233.677 110.657 0)
(238.234 113.465 0)
(243.303 116.057 0)
(248.767 118.493 0)
(254.908 120.719 0)
(261.311 122.476 0)
(268.714 124.061 0)
(275.525 125.119 0)
(284.014 126.053 0)
(291.465 126.386 0)
(300.023 126.273 0)
(308.407 125.764 0)
(316.364 125.038 0)
(325.327 123.5 0)
(332.414 122.195 0)
(340.579 119.806 0)
(345.915 117.293 0)
(349.723 114.856 0)
(355.354 113.149 0)
(367.385 111.281 0)
(371.057 118.537 0)
(210 -1.32959e-13 0)
(210 9.62288e-12 0)
(210 6.63381e-12 0)
(210 -5.32378e-12 0)
(210 -9.00934e-12 0)
(210 -1.7565e-11 0)
(210 -1.22272e-11 0)
(210 -1.2856e-11 0)
(210 -1.28149e-11 0)
(210 6.1243e-12 0)
(210 -4.07633e-11 0)
(210 -5.79436e-09 0)
(210 -3.53218e-07 0)
(209.999 2.7738e-05 0)
(209.981 0.00292956 0)
(209.746 0.0596272 0)
(208.745 0.376566 0)
(207.138 0.991642 0)
(205.921 1.46238 0)
(205.711 1.6314 0)
(205.758 1.69886 0)
(206.558 1.55546 0)
(207.786 1.17869 0)
(208.84 1.00123 0)
(209.493 0.961015 0)
(209.838 1.09714 0)
(210.069 1.33097 0)
(210.298 1.59996 0)
(210.543 1.87016 0)
(210.839 2.13509 0)
(211.168 2.41855 0)
(211.501 2.73587 0)
(211.81 3.09485 0)
(212.085 3.48932 0)
(212.323 3.91167 0)
(212.527 4.36028 0)
(212.716 4.83525 0)
(212.885 5.34363 0)
(213.046 5.88698 0)
(213.169 6.46792 0)
(213.278 7.0788 0)
(213.359 7.71486 0)
(213.387 8.37535 0)
(213.397 9.04924 0)
(213.381 9.75331 0)
(213.341 10.4822 0)
(213.292 11.2372 0)
(213.235 12.0225 0)
(213.169 12.8399 0)
(213.089 13.6893 0)
(212.989 14.569 0)
(212.862 15.4751 0)
(212.701 16.4035 0)
(212.499 17.3513 0)
(212.257 18.3162 0)
(211.976 19.2974 0)
(211.662 20.2961 0)
(211.321 21.3145 0)
(210.956 22.3558 0)
(210.572 23.423 0)
(210.174 24.5183 0)
(209.765 25.6434 0)
(209.351 26.7998 0)
(208.932 27.9888 0)
(208.51 29.2125 0)
(208.084 30.4728 0)
(207.653 31.7718 0)
(207.219 33.1112 0)
(206.782 34.4924 0)
(206.344 35.9164 0)
(205.906 37.3847 0)
(205.471 38.8992 0)
(205.039 40.4622 0)
(204.613 42.0761 0)
(204.201 43.7358 0)
(203.807 45.4487 0)
(203.412 47.2277 0)
(203.058 49.0511 0)
(202.725 50.9399 0)
(202.427 52.8909 0)
(202.168 54.9102 0)
(201.949 56.9966 0)
(201.794 59.1557 0)
(201.685 61.3853 0)
(201.673 63.6948 0)
(201.722 66.0797 0)
(201.888 68.5495 0)
(202.147 71.1009 0)
(202.536 73.7373 0)
(203.063 76.4569 0)
(203.753 79.2594 0)
(204.631 82.1422 0)
(205.701 85.0984 0)
(207.017 88.1179 0)
(208.564 91.1998 0)
(210.406 94.3527 0)
(212.542 97.5708 0)
(214.99 100.827 0)
(217.838 104.064 0)
(220.993 107.298 0)
(224.681 110.453 0)
(228.701 113.599 0)
(233.29 116.625 0)
(238.304 119.571 0)
(243.82 122.274 0)
(249.919 124.766 0)
(256.576 126.995 0)
(263.718 128.719 0)
(271.207 130.161 0)
(279.541 131.286 0)
(287.43 131.852 0)
(296.36 131.956 0)
(304.548 131.685 0)
(314.095 130.878 0)
(322.973 129.589 0)
(331.949 127.627 0)
(338.727 125.016 0)
(344.104 121.554 0)
(349.779 120.325 0)
(362.579 119.15 0)
(366.566 127.694 0)
(210 3.79997e-12 0)
(210 1.71723e-11 0)
(210 -4.48831e-12 0)
(210 -1.24228e-11 0)
(210 -2.01038e-11 0)
(210 -1.9849e-11 0)
(210 -1.00759e-11 0)
(210 -5.62258e-12 0)
(210 -2.23171e-12 0)
(210 1.00554e-11 0)
(210 -1.97129e-11 0)
(210 -1.99907e-09 0)
(210 -1.66304e-07 0)
(210 -8.99535e-07 0)
(209.992 0.000810224 0)
(209.864 0.0266218 0)
(209.118 0.236947 0)
(207.54 0.789246 0)
(206.074 1.3135 0)
(205.659 1.56138 0)
(205.551 1.68867 0)
(206.133 1.62363 0)
(207.326 1.26674 0)
(208.448 1.04972 0)
(209.154 0.962284 0)
(209.544 1.07972 0)
(209.773 1.29638 0)
(209.971 1.55012 0)
(210.169 1.8112 0)
(210.424 2.07288 0)
(210.727 2.35512 0)
(211.048 2.66983 0)
(211.348 3.02566 0)
(211.612 3.41579 0)
(211.838 3.83238 0)
(212.028 4.27457 0)
(212.202 4.74241 0)
(212.359 5.24202 0)
(212.504 5.77508 0)
(212.614 6.34537 0)
(212.714 6.94403 0)
(212.775 7.56959 0)
(212.791 8.21856 0)
(212.796 8.87815 0)
(212.759 9.57115 0)
(212.698 10.2835 0)
(212.62 11.0188 0)
(212.528 11.7804 0)
(212.425 12.5724 0)
(212.309 13.3967 0)
(212.179 14.2526 0)
(212.032 15.1376 0)
(211.86 16.0484 0)
(211.655 16.9822 0)
(211.414 17.9363 0)
(211.134 18.9086 0)
(210.817 19.8983 0)
(210.467 20.9064 0)
(210.087 21.9349 0)
(209.681 22.9864 0)
(209.254 24.0633 0)
(208.811 25.1674 0)
(208.357 26.3004 0)
(207.894 27.4639 0)
(207.425 28.66 0)
(206.948 29.891 0)
(206.464 31.1592 0)
(205.974 32.4664 0)
(205.479 33.8141 0)
(204.979 35.2037 0)
(204.475 36.6369 0)
(203.971 38.1151 0)
(203.466 39.6397 0)
(202.965 41.2125 0)
(202.469 42.8369 0)
(201.979 44.5142 0)
(201.505 46.2402 0)
(201.052 48.0227 0)
(200.601 49.8731 0)
(200.19 51.7757 0)
(199.806 53.7459 0)
(199.454 55.7834 0)
(199.154 57.8933 0)
(198.89 60.0735 0)
(198.708 62.3331 0)
(198.571 64.6673 0)
(198.537 67.0879 0)
(198.576 69.5915 0)
(198.727 72.1857 0)
(198.99 74.8696 0)
(199.391 77.6448 0)
(199.952 80.5118 0)
(200.678 83.4706 0)
(201.62 86.5222 0)
(202.766 89.6679 0)
(204.18 92.9087 0)
(205.859 96.2269 0)
(207.84 99.5969 0)
(210.193 102.988 0)
(212.853 106.417 0)
(216.01 109.838 0)
(219.479 113.296 0)
(223.525 116.675 0)
(227.952 120.005 0)
(232.922 123.195 0)
(238.385 126.198 0)
(244.411 128.947 0)
(251.186 131.486 0)
(258.141 133.488 0)
(266.166 135.479 0)
(274.258 136.818 0)
(282.472 137.647 0)
(291.335 137.998 0)
(299.95 138.101 0)
(309.048 137.739 0)
(317.572 136.546 0)
(324.15 135.213 0)
(331.421 132.199 0)
(337.845 129.87 0)
(351.522 128.05 0)
(354.687 137.348 0)
(210 2.15635e-12 0)
(210 -5.1609e-12 0)
(210 -1.20796e-11 0)
(210 -1.64841e-11 0)
(210 -1.86662e-11 0)
(210 -1.07694e-11 0)
(210 2.40587e-13 0)
(210 2.0746e-12 0)
(210 -3.49569e-12 0)
(210 9.51885e-12 0)
(210 8.90804e-12 0)
(210 -5.74579e-10 0)
(210 -5.8264e-08 0)
(210 -3.01873e-06 0)
(209.997 0.00014478 0)
(209.936 0.0098601 0)
(209.435 0.131615 0)
(208.01 0.582645 0)
(206.332 1.14164 0)
(205.623 1.50238 0)
(205.392 1.61887 0)
(205.746 1.64055 0)
(206.849 1.35604 0)
(208.03 1.11538 0)
(208.794 0.972085 0)
(209.239 1.05872 0)
(209.47 1.25361 0)
(209.639 1.49691 0)
(209.792 1.75777 0)
(210.005 2.02794 0)
(210.281 2.31771 0)
(210.589 2.63225 0)
(210.88 2.98284 0)
(211.133 3.36506 0)
(211.346 3.77226 0)
(211.521 4.20473 0)
(211.678 4.66286 0)
(211.821 5.15129 0)
(211.95 5.67218 0)
(212.046 6.22907 0)
(212.134 6.81345 0)
(212.171 7.42642 0)
(212.182 8.05584 0)
(212.169 8.70812 0)
(212.119 9.38215 0)
(212.042 10.0768 0)
(211.942 10.7922 0)
(211.824 11.5311 0)
(211.689 12.2974 0)
(211.537 13.0945 0)
(211.372 13.9233 0)
(211.193 14.7825 0)
(210.996 15.6699 0)
(210.777 16.5828 0)
(210.529 17.5186 0)
(210.247 18.4746 0)
(209.93 19.449 0)
(209.578 20.4415 0)
(209.192 21.4535 0)
(208.774 22.4869 0)
(208.328 23.5439 0)
(207.859 24.6261 0)
(207.373 25.7352 0)
(206.873 26.8726 0)
(206.363 28.0404 0)
(205.841 29.2409 0)
(205.31 30.4765 0)
(204.769 31.7494 0)
(204.219 33.0612 0)
(203.662 34.4135 0)
(203.098 35.8078 0)
(202.529 37.2458 0)
(201.957 38.7293 0)
(201.383 40.26 0)
(200.808 41.8396 0)
(200.237 43.4703 0)
(199.672 45.1549 0)
(199.115 46.8958 0)
(198.572 48.691 0)
(198.051 50.5473 0)
(197.538 52.4739 0)
(197.053 54.4648 0)
(196.608 56.5253 0)
(196.187 58.66 0)
(195.835 60.876 0)
(195.512 63.1695 0)
(195.28 65.5521 0)
(195.101 68.0191 0)
(195.02 70.5802 0)
(195.031 73.235 0)
(195.161 75.9871 0)
(195.426 78.8369 0)
(195.837 81.7837 0)
(196.436 84.8305 0)
(197.213 87.9775 0)
(198.227 91.2247 0)
(199.47 94.5569 0)
(200.989 97.9673 0)
(202.834 101.456 0)
(204.97 105.038 0)
(207.565 108.678 0)
(210.458 112.382 0)
(213.917 116.064 0)
(217.75 119.747 0)
(222.161 123.326 0)
(227.064 126.8 0)
(232.513 130.115 0)
(238.539 133.223 0)
(245.33 136.13 0)
(252.534 138.562 0)
(260.553 140.863 0)
(269.082 142.513 0)
(277.515 143.592 0)
(286.797 144.445 0)
(296.364 144.828 0)
(305.552 144.205 0)
(313.961 142.705 0)
(320.46 141.173 0)
(327.923 139.782 0)
(342.084 138.347 0)
(345.936 147.14 0)
(210 8.07304e-13 0)
(210 -1.26665e-11 0)
(210 -1.13362e-11 0)
(210 -1.09871e-11 0)
(210 -1.16703e-11 0)
(210 1.73212e-12 0)
(210 2.46703e-12 0)
(210 -4.7945e-12 0)
(210 1.6846e-14 0)
(210 2.35937e-11 0)
(210 1.20511e-11 0)
(210 -1.30756e-10 0)
(210 -1.65543e-08 0)
(210 -1.26098e-06 0)
(209.999 -2.84412e-06 0)
(209.974 0.00283521 0)
(209.674 0.0629935 0)
(208.498 0.390879 0)
(206.712 0.954572 0)
(205.658 1.40093 0)
(205.266 1.51569 0)
(205.435 1.62599 0)
(206.378 1.44873 0)
(207.577 1.17027 0)
(208.41 0.95964 0)
(208.924 1.00918 0)
(209.172 1.1912 0)
(209.32 1.43335 0)
(209.437 1.69874 0)
(209.605 1.97896 0)
(209.846 2.27608 0)
(210.137 2.58827 0)
(210.416 2.93066 0)
(210.657 3.30283 0)
(210.856 3.69921 0)
(211.016 4.12085 0)
(211.154 4.56856 0)
(211.281 5.0453 0)
(211.391 5.55373 0)
(211.478 6.0961 0)
(211.547 6.66634 0)
(211.561 7.2643 0)
(211.568 7.87461 0)
(211.532 8.51552 0)
(211.468 9.17207 0)
(211.375 9.84927 0)
(211.259 10.5454 0)
(211.12 11.2632 0)
(210.96 12.0062 0)
(210.778 12.7778 0)
(210.578 13.5798 0)
(210.363 14.4117 0)
(210.134 15.2724 0)
(209.888 16.1604 0)
(209.62 17.0741 0)
(209.324 18.011 0)
(208.998 18.9689 0)
(208.638 19.9465 0)
(208.243 20.9438 0)
(207.813 21.9617 0)
(207.351 23.0016 0)
(206.86 24.0649 0)
(206.346 25.1528 0)
(205.813 26.2667 0)
(205.265 27.4087 0)
(204.703 28.5809 0)
(204.126 29.7861 0)
(203.536 31.0266 0)
(202.934 32.3042 0)
(202.321 33.6205 0)
(201.699 34.9774 0)
(201.067 36.3763 0)
(200.429 37.819 0)
(199.784 39.3075 0)
(199.135 40.8437 0)
(198.484 42.4293 0)
(197.834 44.0664 0)
(197.187 45.7572 0)
(196.548 47.5052 0)
(195.917 49.3135 0)
(195.3 51.1816 0)
(194.705 53.1139 0)
(194.126 55.1188 0)
(193.563 57.1973 0)
(193.061 59.3475 0)
(192.572 61.578 0)
(192.167 63.8965 0)
(191.793 66.3001 0)
(191.506 68.7984 0)
(191.284 71.3924 0)
(191.162 74.0883 0)
(191.146 76.8881 0)
(191.252 79.7954 0)
(191.513 82.818 0)
(191.922 85.9558 0)
(192.539 89.2103 0)
(193.357 92.572 0)
(194.429 96.0466 0)
(195.787 99.6358 0)
(197.418 103.336 0)
(199.456 107.115 0)
(201.771 110.969 0)
(204.616 114.841 0)
(207.785 118.746 0)
(211.546 122.628 0)
(215.778 126.496 0)
(220.555 130.3 0)
(225.951 133.955 0)
(231.91 137.437 0)
(238.578 140.675 0)
(245.805 143.499 0)
(253.948 146.164 0)
(262.686 148.16 0)
(271.105 149.518 0)
(281.992 151.088 0)
(291.767 151.506 0)
(301.327 150.774 0)
(309.424 148.391 0)
(315.066 147.794 0)
(329.055 146.74 0)
(331.218 157.843 0)
(210 -1.62139e-12 0)
(210 -1.01608e-11 0)
(210 -1.32887e-11 0)
(210 -1.23352e-11 0)
(210 -9.16231e-12 0)
(210 -1.08678e-12 0)
(210 -9.26924e-12 0)
(210 -7.30938e-12 0)
(210 5.45337e-12 0)
(210 7.33892e-12 0)
(210 -6.0966e-12 0)
(210 -3.51122e-11 0)
(210 -4.09884e-09 0)
(210 -3.87581e-07 0)
(210 -1.48019e-05 0)
(209.991 0.000520364 0)
(209.834 0.0249468 0)
(208.958 0.234105 0)
(207.184 0.745153 0)
(205.793 1.25861 0)
(205.163 1.42118 0)
(205.204 1.60975 0)
(205.922 1.50338 0)
(207.091 1.20141 0)
(208.009 0.941574 0)
(208.598 0.973693 0)
(208.878 1.15527 0)
(209.013 1.39798 0)
(209.097 1.66104 0)
(209.22 1.94165 0)
(209.416 2.24037 0)
(209.682 2.5468 0)
(209.948 2.87831 0)
(210.176 3.23844 0)
(210.362 3.62241 0)
(210.505 4.03146 0)
(210.624 4.4672 0)
(210.735 4.93102 0)
(210.825 5.4261 0)
(210.903 5.95264 0)
(210.946 6.50875 0)
(210.952 7.08452 0)
(210.937 7.6864 0)
(210.884 8.30739 0)
(210.805 8.94584 0)
(210.696 9.60402 0)
(210.563 10.2808 0)
(210.407 10.9786 0)
(210.228 11.7004 0)
(210.023 12.4492 0)
(209.794 13.2263 0)
(209.546 14.0318 0)
(209.283 14.8648 0)
(209.004 15.7248 0)
(208.707 16.6111 0)
(208.389 17.5224 0)
(208.046 18.4568 0)
(207.675 19.4126 0)
(207.271 20.3893 0)
(206.832 21.3868 0)
(206.359 22.4059 0)
(205.853 23.4472 0)
(205.319 24.5118 0)
(204.761 25.6005 0)
(204.183 26.7151 0)
(203.587 27.8577 0)
(202.972 29.0308 0)
(202.34 30.2369 0)
(201.693 31.4782 0)
(201.031 32.7562 0)
(200.355 34.0727 0)
(199.667 35.4296 0)
(198.968 36.8286 0)
(198.259 38.2716 0)
(197.541 39.7606 0)
(196.816 41.2978 0)
(196.086 42.8849 0)
(195.354 44.5245 0)
(194.622 46.2189 0)
(193.893 47.9715 0)
(193.169 49.7858 0)
(192.454 51.6659 0)
(191.749 53.6125 0)
(191.068 55.6273 0)
(190.412 57.7199 0)
(189.75 59.8999 0)
(189.173 62.155 0)
(188.601 64.5014 0)
(188.114 66.9426 0)
(187.667 69.482 0)
(187.307 72.1242 0)
(187.027 74.872 0)
(186.852 77.7298 0)
(186.803 80.7045 0)
(186.88 83.7954 0)
(187.136 87.0092 0)
(187.558 90.3437 0)
(188.202 93.8128 0)
(189.079 97.4153 0)
(190.203 101.144 0)
(191.68 104.984 0)
(193.415 108.93 0)
(195.645 112.962 0)
(198.173 117.085 0)
(201.285 121.265 0)
(204.82 125.506 0)
(208.945 129.744 0)
(213.68 133.89 0)
(218.958 137.949 0)
(224.948 141.848 0)
(231.611 145.536 0)
(238.799 148.71 0)
(247.154 151.948 0)
(255.811 154.228 0)
(264.305 156.153 0)
(275.473 158.111 0)
(283.648 158.958 0)
(293.296 158.184 0)
(301.471 157.259 0)
(316.757 156.744 0)
(319.323 168.334 0)
(210 -1.66952e-12 0)
(210 -8.14406e-12 0)
(210 -7.21253e-12 0)
(210 -1.30169e-11 0)
(210 6.83314e-12 0)
(210 5.25532e-12 0)