/*--------------------------------*- C++ -*----------------------------------*\
| =========                 |                                                 |
| \\      /  F ield         | OpenFOAM: The Open Source CFD Toolbox           |
|  \\    /   O peration     | Version:  2412                                  |
|   \\  /    A nd           | Website:  www.openfoam.com                      |
|    \\/     M anipulation  |                                                 |
\*---------------------------------------------------------------------------*/
FoamFile
{
    version     2.0;
    format      ascii;
    arch        "LSB;label=32;scalar=64";
    class       volScalarField;
    location    "0.079";
    object      T;
}
// * * * * * * * * * * * * * * * * * * * * * * * * * * * * * * * * * * * * * //

dimensions      [0 0 0 1 0 0 0];

internalField   nonuniform List<scalar> 
9831
(
170.824
211.811
170.61
211.771
218.473
218.506
218.536
218.583
218.676
218.798
218.97
219.215
219.55
219.951
220.362
220.74
221.077
221.382
221.666
221.931
222.168
222.374
222.555
222.718
222.869
223.013
223.15
223.282
223.41
223.534
223.655
223.774
223.893
224.012
224.131
224.25
224.367
224.482
224.596
224.708
224.819
224.929
225.037
225.143
225.246
225.345
225.441
225.532
225.618
225.701
225.779
225.852
170.385
211.734
218.455
218.479
218.513
218.564
218.661
218.786
218.962
219.212
219.554
219.957
220.37
220.748
221.084
221.388
221.673
221.936
222.172
222.378
222.559
222.721
222.872
223.015
223.152
223.284
223.411
223.535
223.656
223.775
223.894
224.012
224.131
224.249
224.367
224.482
224.595
224.708
224.819
224.928
225.036
225.142
225.245
225.344
225.439
225.53
225.617
225.699
225.777
225.851
225.919
225.982
170.189
211.699
218.437
218.453
218.49
218.545
218.646
218.775
218.954
219.21
219.557
219.964
220.377
220.755
221.091
221.395
221.679
221.942
222.177
222.382
222.562
222.724
222.875
223.018
223.155
223.286
223.413
223.536
223.657
223.776
223.894
224.013
224.131
224.249
224.366
224.481
224.595
224.707
224.818
224.927
225.035
225.141
225.243
225.343
225.438
225.529
225.615
225.698
225.776
225.849
225.918
225.981
226.038
226.089
169.989
211.665
218.418
218.427
218.468
218.527
218.631
218.763
218.947
219.208
219.559
219.97
220.384
220.762
221.097
221.401
221.685
221.947
222.182
222.386
222.565
222.727
222.878
223.02
223.157
223.288
223.415
223.537
223.658
223.776
223.895
224.013
224.131
224.249
224.366
224.481
224.594
224.706
224.817
224.926
225.034
225.14
225.242
225.341
225.436
225.527
225.614
225.697
225.775
225.848
225.917
225.98
226.037
226.088
226.133
226.171
226.202
226.226
226.243
226.253
226.256
226.25
226.238
226.22
226.194
226.163
226.125
226.081
226.032
225.977
225.918
225.854
225.786
225.715
225.641
225.563
225.483
225.402
225.318
225.233
225.148
225.061
224.974
224.888
224.801
224.715
224.63
224.545
224.462
224.379
224.298
224.219
224.141
224.064
223.99
223.917
223.846
223.777
223.71
223.645
223.582
223.521
223.462
223.405
223.349
223.295
223.243
223.193
223.144
223.098
223.054
223.012
222.972
222.934
222.899
222.865
222.832
222.806
222.779
169.815
211.635
218.399
218.4
218.445
218.509
218.617
218.752
218.94
219.206
219.562
219.975
220.391
220.769
221.104
221.407
221.69
221.952
222.186
222.39
222.569
222.73
222.88
223.023
223.159
223.29
223.416
223.539
223.659
223.777
223.895
224.013
224.132
224.249
224.366
224.48
224.594
224.705
224.816
224.925
225.033
225.138
225.241
225.34
225.435
225.526
225.613
225.695
225.774
225.847
225.916
225.979
226.037
226.088
226.133
226.171
226.203
226.227
226.245
226.255
226.258
226.254
226.243
226.225
226.201
226.171
226.134
226.092
226.044
225.992
225.934
225.873
225.807
225.738
225.666
225.591
225.513
225.434
225.353
225.271
225.188
225.105
225.021
224.937
224.853
224.77
224.688
224.606
224.526
224.446
224.368
224.291
224.216
224.143
224.071
224.001
223.933
223.866
223.802
223.739
223.679
223.62
223.563
223.508
223.455
223.403
223.353
223.305
223.258
223.214
223.171
223.131
223.093
223.057
223.023
222.99
222.959
222.934
222.908
222.901
222.846
169.639
211.607
218.379
218.373
218.423
218.491
218.603
218.742
218.934
219.204
219.565
219.981
220.397
220.775
221.11
221.413
221.696
221.957
222.19
222.394
222.572
222.733
222.883
223.025
223.161
223.292
223.418
223.54
223.66
223.778
223.896
224.014
224.132
224.249
224.365
224.48
224.593
224.705
224.815
224.924
225.032
225.137
225.24
225.339
225.434
225.525
225.611
225.694
225.773
225.847
225.916
225.979
226.037
226.088
226.133
226.172
226.204
226.229
226.247
226.258
226.262
226.259
226.249
226.232
226.209
226.18
226.145
226.105
226.059
226.008
225.953
225.893
225.83
225.763
225.693
225.621
225.546
225.47
225.392
225.313
225.233
225.152
225.071
224.99
224.91
224.83
224.75
224.671
224.594
224.517
224.442
224.368
224.296
224.225
224.156
224.089
224.023
223.96
223.898
223.838
223.78
223.723
223.669
223.616
223.565
223.515
223.467
223.421
223.376
223.334
223.293
223.255
223.218
223.184
223.151
223.119
223.087
223.063
223.04
223.041
222.992
169.472
211.58
218.359
218.347
218.4
218.474
218.59
218.731
218.927
219.202
219.567
219.986
220.403
220.781
221.116
221.419
221.702
221.962
222.195
222.398
222.575
222.736
222.886
223.028
223.163
223.293
223.419
223.541
223.661
223.779
223.896
224.014
224.132
224.249
224.365
224.479
224.592
224.704
224.814
224.923
225.031
225.136
225.239
225.337
225.432
225.523
225.61
225.693
225.772
225.846
225.915
225.979
226.037
226.089
226.134
226.173
226.206
226.231
226.25
226.262
226.267
226.264
226.255
226.24
226.219
226.191
226.158
226.119
226.075
226.026
225.973
225.916
225.855
225.79
225.723
225.654
225.582
225.508
225.433
225.357
225.28
225.202
225.125
225.047
224.969
224.892
224.816
224.74
224.666
224.592
224.52
224.449
224.38
224.312
224.246
224.181
224.119
224.057
223.998
223.941
223.885
223.831
223.779
223.728
223.679
223.632
223.586
223.541
223.499
223.458
223.419
223.383
223.348
223.315
223.284
223.253
223.221
223.198
223.179
223.184
223.138
169.312
211.554
218.339
218.32
218.378
218.457
218.577
218.721
218.921
219.2
219.57
219.991
220.409
220.788
221.122
221.425
221.707
221.967
222.199
222.401
222.579
222.739
222.888
223.03
223.165
223.295
223.421
223.542
223.662
223.78
223.897
224.015
224.132
224.249
224.365
224.479
224.592
224.703
224.813
224.922
225.03
225.135
225.237
225.336
225.431
225.522
225.609
225.692
225.771
225.845
225.915
225.979
226.037
226.089
226.135
226.175
226.208
226.234
226.253
226.266
226.272
226.271
226.263
226.249
226.229
226.203
226.172
226.135
226.093
226.046
225.995
225.94
225.882
225.82
225.756
225.689
225.62
225.55
225.478
225.405
225.331
225.256
225.182
225.107
225.033
224.959
224.886
224.813
224.742
224.671
224.602
224.535
224.468
224.403
224.34
224.278
224.218
224.159
224.103
224.048
223.994
223.943
223.893
223.844
223.798
223.752
223.708
223.666
223.625
223.586
223.55
223.515
223.482
223.45
223.419
223.389
223.359
223.338
223.322
223.328
223.284
169.175
211.53
218.318
218.293
218.357
218.44
218.564
218.711
218.915
219.199
219.573
219.997
220.415
220.794
221.128
221.431
221.712
221.972
222.203
222.405
222.582
222.742
222.891
223.033
223.168
223.297
223.422
223.544
223.663
223.78
223.898
224.015
224.132
224.249
224.364
224.478
224.591
224.702
224.812
224.921
225.029
225.134
225.236
225.335
225.43
225.521
225.608
225.691
225.77
225.845
225.915
225.979
226.037
226.09
226.136
226.176
226.21
226.237
226.257
226.271
226.278
226.278
226.271
226.259
226.241
226.216
226.187
226.152
226.112
226.068
226.019
225.967
225.911
225.852
225.791
225.727
225.661
225.594
225.525
225.455
225.384
225.313
225.242
225.171
225.099
225.029
224.959
224.89
224.821
224.754
224.688
224.623
224.56
224.498
224.437
224.378
224.321
224.265
224.211
224.159
224.108
224.059
224.011
223.965
223.92
223.877
223.835
223.795
223.756
223.719
223.684
223.651
223.619
223.589
223.558
223.53
223.502
223.484
223.469
223.477
223.433
169.037
211.509
218.297
218.266
218.335
218.424
218.551
218.702
218.909
219.198
219.576
220.002
220.422
220.799
221.133
221.436
221.717
221.976
222.207
222.408
222.585
222.745
222.894
223.035
223.17
223.299
223.424
223.545
223.664
223.781
223.898
224.015
224.132
224.249
224.364
224.478
224.59
224.701
224.812
224.92
225.028
225.133
225.235
225.334
225.429
225.52
225.607
225.691
225.77
225.845
225.915
225.979
226.038
226.091
226.138
226.179
226.213
226.241
226.262
226.276
226.285
226.286
226.281
226.27
226.253
226.231
226.203
226.171
226.133
226.091
226.045
225.996
225.943
225.887
225.829
225.768
225.705
225.641
225.575
225.509
225.441
225.373
225.305
225.238
225.17
225.103
225.036
224.97
224.905
224.841
224.778
224.716
224.656
224.597
224.539
224.483
224.428
224.375
224.324
224.274
224.225
224.178
224.133
224.089
224.047
224.005
223.965
223.927
223.89
223.855
223.822
223.79
223.76
223.73
223.701
223.675
223.649
223.633
223.62
223.628
223.584
168.901
211.49
218.276
218.238
218.313
218.408
218.539
218.692
218.903
219.197
219.579
220.008
220.428
220.805
221.139
221.441
221.722
221.981
222.211
222.412
222.588
222.748
222.896
223.037
223.172
223.301
223.425
223.546
223.665
223.782
223.899
224.016
224.133
224.249
224.364
224.477
224.59
224.701
224.811
224.919
225.027
225.132
225.234
225.332
225.427
225.519
225.606
225.69
225.77
225.845
225.915
225.98
226.039
226.092
226.14
226.181
226.216
226.245
226.267
226.282
226.292
226.295
226.291
226.282
226.267
226.247
226.221
226.191
226.156
226.116
226.073
226.026
225.976
225.924
225.868
225.811
225.751
225.69
225.628
225.565
225.501
225.436
225.372
225.307
225.243
225.179
225.116
225.053
224.992
224.931
224.871
224.812
224.755
224.699
224.644
224.591
224.539
224.489
224.44
224.392
224.347
224.302
224.259
224.217
224.177
224.138
224.1
224.063
224.028
223.995
223.963
223.933
223.904
223.876
223.848
223.823
223.8
223.786
223.775
223.782
223.739
168.789
211.473
218.254
218.211
218.292
218.392
218.527
218.683
218.898
219.196
219.582
220.013
220.433
220.811
221.144
221.447
221.727
221.985
222.215
222.415
222.591
222.75
222.899
223.04
223.174
223.302
223.427
223.547
223.666
223.783
223.9
224.016
224.133
224.249
224.363
224.477
224.589
224.7
224.81
224.918
225.026
225.13
225.232
225.331
225.426
225.518
225.605
225.689
225.769
225.845
225.915
225.98
226.04
226.094
226.142
226.184
226.22
226.249
226.272
226.289
226.3
226.305
226.302
226.295
226.282
226.264
226.241
226.213
226.18
226.143
226.103
226.059
226.012
225.963
225.91
225.856
225.8
225.742
225.684
225.624
225.564
225.503
225.442
225.381
225.32
225.259
225.2
225.14
225.082
225.024
224.968
224.912
224.858
224.805
224.753
224.703
224.654
224.606
224.56
224.515
224.471
224.429
224.388
224.349
224.31
224.273
224.237
224.203
224.17
224.138
224.108
224.08
224.052
224.024
223.998
223.975
223.954
223.942
223.932
223.939
223.897
168.677
211.458
218.232
218.184
218.271
218.377
218.515
218.674
218.892
219.195
219.585
220.018
220.439
220.816
221.149
221.452
221.732
221.99
222.219
222.418
222.594
222.753
222.901
223.042
223.176
223.304
223.428
223.548
223.667
223.784
223.9
224.017
224.133
224.248
224.363
224.476
224.588
224.699
224.809
224.917
225.024
225.129
225.231
225.33
225.425
225.517
225.605
225.689
225.769
225.845
225.915
225.981
226.041
226.096
226.144
226.187
226.224
226.254
226.278
226.296
226.309
226.315
226.315
226.309
226.298
226.282
226.261
226.236
226.206
226.172
226.134
226.094
226.05
226.003
225.954
225.904
225.851
225.797
225.742
225.686
225.629
225.572
225.514
225.457
225.399
225.343
225.286
225.23
225.175
225.121
225.068
225.015
224.964
224.914
224.865
224.818
224.772
224.727
224.683
224.64
224.599
224.56
224.521
224.484
224.447
224.412
224.378
224.346
224.314
224.285
224.257
224.229
224.203
224.177
224.151
224.131
224.112
224.102
224.092
224.099
224.057
168.572
211.444
218.209
218.156
218.25
218.362
218.503
218.665
218.887
219.194
219.588
220.024
220.445
220.822
221.154
221.457
221.737
221.994
222.223
222.422
222.597
222.756
222.904
223.044
223.178
223.306
223.429
223.55
223.668
223.784
223.901
224.017
224.133
224.248
224.363
224.476
224.588
224.698
224.808
224.916
225.023
225.128
225.23
225.329
225.424
225.516
225.604
225.688
225.769
225.845
225.916
225.982
226.043
226.098
226.147
226.191
226.228
226.26
226.285
226.304
226.318
226.326
226.328
226.324
226.315
226.301
226.283
226.26
226.233
226.202
226.168
226.13
226.09
226.046
226.001
225.954
225.905
225.854
225.803
225.75
225.697
225.644
225.59
225.536
225.482
225.429
225.376
225.324
225.272
225.221
225.171
225.122
225.074
225.027
224.981
224.936
224.893
224.85
224.809
224.77
224.731
224.694
224.657
224.622
224.588
224.555
224.523
224.492
224.463
224.435
224.408
224.382
224.357
224.332
224.309
224.291
224.273
224.265
224.256
224.262
224.221
168.48
211.431
218.186
218.128
218.23
218.347
218.492
218.657
218.882
219.194
219.591
220.029
220.451
220.827
221.159
221.461
221.742
221.998
222.226
222.425
222.6
222.759
222.906
223.046
223.18
223.308
223.431
223.551
223.668
223.785
223.901
224.017
224.133
224.248
224.362
224.475
224.587
224.698
224.807
224.916
225.022
225.127
225.229
225.328
225.423
225.515
225.603
225.688
225.769
225.845
225.917
225.983
226.044
226.1
226.15
226.195
226.233
226.266
226.292
226.313
226.328
226.338
226.342
226.34
226.333
226.322
226.306
226.286
226.262
226.234
226.203
226.168
226.131
226.091
226.049
226.006
225.96
225.914
225.866
225.817
225.768
225.718
225.668
225.618
225.568
225.518
225.469
225.42
225.372
225.324
225.277
225.232
225.187
225.143
225.1
225.058
225.017
224.978
224.939
224.902
224.866
224.831
224.797
224.764
224.732
224.701
224.671
224.642
224.614
224.588
224.563
224.538
224.514
224.491
224.469
224.454
224.438
224.431
224.422
224.428
224.387
168.394
211.42
218.163
218.101
218.21
218.333
218.481
218.648
218.878
219.193
219.595
220.034
220.456
220.832
221.164
221.466
221.746
222.003
222.23
222.428
222.603
222.761
222.909
223.049
223.182
223.309
223.432
223.552
223.669
223.786
223.902
224.018
224.133
224.248
224.362
224.475
224.586
224.697
224.806
224.915
225.021
225.126
225.228
225.326
225.422
225.514
225.603
225.688
225.769
225.845
225.917
225.984
226.046
226.103
226.153
226.199
226.238
226.272
226.3
226.322
226.339
226.351
226.356
226.357
226.352
226.344
226.33
226.313
226.292
226.267
226.239
226.208
226.175
226.138
226.1
226.06
226.019
225.976
225.931
225.887
225.841
225.795
225.749
225.702
225.656
225.61
225.564
225.519
225.474
225.43
225.387
225.344
225.303
225.262
225.222
225.183
225.145
225.108
225.072
225.038
225.004
224.971
224.939
224.908
224.878
224.849
224.821
224.795
224.769
224.744
224.721
224.698
224.675
224.653
224.633
224.62
224.606
224.6
224.592
224.597
224.558
168.317
211.411
218.139
218.073
218.189
218.319
218.47
218.64
218.873
219.193
219.598
220.039
220.462
220.837
221.169
221.471
221.751
222.007
222.234
222.432
222.606
222.764
222.911
223.051
223.184
223.311
223.434
223.553
223.67
223.787
223.903
224.018
224.133
224.248
224.362
224.474
224.586
224.696
224.805
224.914
225.02
225.125
225.226
225.325
225.421
225.513
225.602
225.687
225.769
225.846
225.918
225.986
226.048
226.105
226.157
226.203
226.244
226.279
226.308
226.332
226.35
226.364
226.372
226.375
226.372
226.366
226.356
226.342
226.323
226.302
226.277
226.25
226.22
226.187
226.153
226.116
226.078
226.039
225.999
225.958
225.916
225.874
225.832
225.789
225.747
225.705
225.663
225.621
225.58
225.539
225.499
225.46
225.421
225.384
225.347
225.311
225.276
225.241
225.208
225.176
225.145
225.115
225.085
225.056
225.029
225.002
224.976
224.951
224.927
224.904
224.882
224.86
224.839
224.819
224.8
224.789
224.776
224.772
224.764
224.768
224.731
168.252
211.404
218.115
218.045
218.169
218.305
218.46
218.632
218.869
219.193
219.601
220.044
220.467
220.842
221.174
221.475
221.755
222.011
222.237
222.435
222.609
222.767
222.914
223.053
223.186
223.313
223.435
223.554
223.671
223.787
223.903
224.018
224.133
224.248
224.361
224.474
224.585
224.695
224.805
224.913
225.019
225.123
225.225
225.324
225.42
225.512
225.602
225.687
225.769
225.846
225.919
225.987
226.05
226.108
226.161
226.208
226.25
226.286
226.317
226.342
226.363
226.378
226.388
226.393
226.394
226.39
226.383
226.371
226.357
226.338
226.317
226.293
226.267
226.238
226.207
226.175
226.141
226.106
226.07
226.033
225.995
225.957
225.918
225.879
225.841
225.802
225.764
225.726
225.688
225.651
225.614
225.578
225.543
225.508
225.475
225.441
225.409
225.378
225.347
225.318
225.289
225.261
225.234
225.207
225.181
225.157
225.132
225.109
225.087
225.066
225.045
225.025
225.006
224.987
224.971
224.961
224.95
224.947
224.939
224.943
224.908
168.185
211.398
218.09
218.017
218.15
218.292
218.45
218.624
218.865
219.192
219.604
220.049
220.472
220.847
221.179
221.48
221.759
222.015
222.241
222.438
222.612
222.769
222.916
223.055
223.188
223.314
223.437
223.555
223.672
223.788
223.904
224.019
224.133
224.248
224.361
224.473
224.584
224.695
224.804
224.912
225.018
225.122
225.224
225.323
225.419
225.512
225.601
225.687
225.769
225.847
225.92
225.989
226.053
226.111
226.165
226.213
226.256
226.294
226.326
226.353
226.375
226.392
226.405
226.413
226.416
226.415
226.41
226.402
226.391
226.376
226.358
226.338
226.315
226.29
226.263
226.235
226.205
226.174
226.142
226.109
226.075
226.041
226.006
225.971
225.937
225.902
225.867
225.833
225.799
225.765
225.732
225.699
225.667
225.636
225.605
225.575
225.546
225.517
225.489
225.462
225.436
225.41
225.385
225.361
225.338
225.315
225.293
225.271
225.251
225.232
225.212
225.194
225.176
225.159
225.144
225.135
225.126
225.125
225.118
225.122
225.088
168.127
211.394
218.065
217.989
218.13
218.279
218.439
218.617
218.86
219.193
219.608
220.054
220.477
220.852
221.183
221.484
221.764
222.018
222.244
222.441
222.614
222.772
222.919
223.057
223.19
223.316
223.438
223.557
223.673
223.789
223.904
224.019
224.134
224.247
224.361
224.473
224.584
224.694
224.803
224.91
225.017
225.121
225.223
225.322
225.418
225.511
225.601
225.687
225.769
225.848
225.921
225.991
226.055
226.115
226.169
226.218
226.262
226.301
226.335
226.364
226.389
226.408
226.423
226.433
226.439
226.441
226.44
226.435
226.426
226.415
226.401
226.384
226.365
226.344
226.322
226.297
226.271
226.244
226.216
226.187
226.158
226.128
226.097
226.066
226.035
226.005
225.974
225.943
225.913
225.882
225.853
225.823
225.795
225.766
225.738
225.711
225.685
225.659
225.634
225.609
225.586
225.562
225.54
225.518
225.496
225.475
225.455
225.436
225.418
225.4
225.382
225.365
225.348
225.333
225.32
225.313
225.305
225.306
225.3
225.303
225.271
168.099
211.391
218.039
217.962
218.111
218.267
218.43
218.609
218.857
219.193
219.611
220.059
220.482
220.857
221.188
221.489
221.768
222.022
222.248
222.444
222.617
222.774
222.921
223.06
223.191
223.318
223.439
223.558
223.674
223.79
223.905
224.019
224.134
224.247
224.36
224.472
224.583
224.693
224.802
224.909
225.016
225.12
225.222
225.321
225.417
225.51
225.6
225.687
225.77
225.848
225.923
225.993
226.058
226.118
226.174
226.224
226.269
226.31
226.345
226.376
226.402
226.424
226.441
226.454
226.463
226.468
226.47
226.468
226.463
226.455
226.445
226.432
226.417
226.4
226.381
226.361
226.339
226.316
226.292
226.267
226.242
226.216
226.19
226.163
226.136
226.109
226.082
226.055
226.028
226.002
225.975
225.95
225.924
225.899
225.874
225.85
225.827
225.804
225.781
225.759
225.738
225.717
225.697
225.677
225.658
225.639
225.621
225.604
225.587
225.571
225.555
225.539
225.524
225.511
225.499
225.494
225.488
225.489
225.484
225.487
225.457
168.046
211.388
218.014
217.934
218.092
218.254
218.42
218.602
218.853
219.193
219.615
220.064
220.487
220.861
221.192
221.493
221.772
222.026
222.251
222.447
222.62
222.777
222.923
223.062
223.193
223.319
223.441
223.559
223.675
223.791
223.905
224.02
224.134
224.247
224.36
224.472
224.582
224.692
224.801
224.908
225.014
225.119
225.22
225.32
225.416
225.51
225.6
225.687
225.77
225.849
225.924
225.995
226.061
226.122
226.178
226.23
226.277
226.319
226.356
226.388
226.417
226.441
226.46
226.476
226.488
226.496
226.501
226.502
226.501
226.497
226.49
226.481
226.47
226.457
226.443
226.427
226.409
226.39
226.371
226.35
226.329
226.307
226.285
226.262
226.239
226.216
226.193
226.17
226.147
226.124
226.101
226.079
226.056
226.034
226.013
225.992
225.971
225.951
225.931
225.912
225.893
225.875
225.857
225.839
225.822
225.805
225.789
225.774
225.759
225.744
225.73
225.715
225.702
225.691
225.681
225.677
225.673
225.675
225.67
225.673
225.645
167.995
211.386
217.987
217.906
218.073
218.243
218.41
218.595
218.849
219.193
219.618
220.069
220.492
220.866
221.196
221.497
221.776
222.03
222.254
222.45
222.622
222.779
222.926
223.064
223.195
223.321
223.442
223.56
223.676
223.791
223.906
224.02
224.134
224.247
224.359
224.471
224.582
224.691
224.8
224.907
225.013
225.117
225.219
225.319
225.415
225.509
225.6
225.687
225.771
225.85
225.926
225.997
226.063
226.126
226.183
226.236
226.284
226.328
226.366
226.401
226.432
226.458
226.48
226.499
226.513
226.525
226.533
226.538
226.54
226.539
226.536
226.532
226.525
226.516
226.505
226.493
226.48
226.466
226.45
226.434
226.417
226.4
226.381
226.363
226.344
226.325
226.306
226.286
226.267
226.248
226.229
226.21
226.191
226.172
226.154
226.136
226.118
226.1
226.083
226.067
226.051
226.035
226.019
226.004
225.989
225.974
225.96
225.947
225.934
225.921
225.908
225.895
225.883
225.874
225.866
225.865
225.862
225.864
225.859
225.861
225.836
168.005
211.385
217.961
217.878
218.054
218.231
218.401
218.588
218.846
219.194
219.622
220.074
220.497
220.87
221.2
221.501
221.78
222.033
222.257
222.453
222.625
222.782
222.928
223.066
223.197
223.322
223.443
223.561
223.677
223.792
223.906
224.02
224.134
224.247
224.359
224.471
224.581
224.691
224.799
224.906
225.012
225.116
225.218
225.318
225.415
225.509
225.6
225.687
225.771
225.851
225.927
225.999
226.067
226.13
226.188
226.242
226.292
226.337
226.378
226.414
226.447
226.476
226.501
226.522
226.54
226.554
226.566
226.574
226.58
226.584
226.585
226.584
226.581
226.576
226.57
226.562
226.554
226.544
226.532
226.521
226.508
226.495
226.481
226.466
226.452
226.437
226.421
226.406
226.39
226.374
226.359
226.343
226.328
226.312
226.297
226.282
226.267
226.253
226.238
226.224
226.21
226.197
226.184
226.17
226.158
226.145
226.133
226.122
226.11
226.099
226.087
226.076
226.065
226.059
226.053
226.054
226.052
226.055
226.05
226.052
226.029
167.972
211.384
217.934
217.85
218.036
218.22
218.392
218.582
218.843
219.194
219.626
220.079
220.502
220.875
221.205
221.506
221.784
222.037
222.261
222.456
222.628
222.784
222.93
223.068
223.199
223.324
223.445
223.562
223.678
223.793
223.907
224.021
224.134
224.247
224.359
224.47
224.58
224.69
224.798
224.905
225.011
225.115
225.217
225.317
225.414
225.508
225.599
225.687
225.771
225.852
225.929
226.001
226.07
226.134
226.193
226.249
226.3
226.347
226.389
226.428
226.463
226.494
226.522
226.546
226.567
226.584
226.599
226.611
226.621
226.628
226.633
226.636
226.638
226.637
226.635
226.632
226.628
226.622
226.615
226.608
226.6
226.591
226.581
226.571
226.56
226.549
226.538
226.526
226.515
226.503
226.491
226.478
226.466
226.454
226.442
226.43
226.418
226.407
226.395
226.384
226.373
226.362
226.351
226.34
226.33
226.319
226.31
226.3
226.29
226.28
226.271
226.261
226.252
226.249
226.244
226.246
226.246
226.249
226.244
226.246
226.225
167.94
211.383
217.906
217.823
218.018
218.209
218.383
218.575
218.839
219.195
219.629
220.084
220.507
220.879
221.209
221.51
221.788
222.041
222.264
222.458
222.63
222.787
222.932
223.07
223.201
223.326
223.446
223.563
223.679
223.794
223.907
224.021
224.134
224.246
224.358
224.469
224.58
224.689
224.797
224.904
225.01
225.114
225.216
225.316
225.413
225.507
225.599
225.687
225.772
225.853
225.93
226.004
226.073
226.138
226.199
226.256
226.308
226.357
226.401
226.442
226.48
226.513
226.543
226.571
226.595
226.616
226.634
226.65
226.663
226.674
226.684
226.691
226.696
226.7
226.703
226.704
226.704
226.703
226.701
226.698
226.694
226.689
226.684
226.678
226.671
226.665
226.657
226.65
226.642
226.633
226.625
226.616
226.608
226.599
226.59
226.581
226.572
226.563
226.555
226.546
226.537
226.529
226.52
226.512
226.503
226.495
226.487
226.479
226.471
226.463
226.454
226.446
226.441
226.44
226.437
226.439
226.439
226.442
226.439
226.44
226.422
167.966
211.385
217.879
217.795
217.999
218.198
218.374
218.569
218.836
219.196
219.632
220.088
220.511
220.883
221.213
221.514
221.792
222.044
222.267
222.461
222.633
222.789
222.935
223.072
223.202
223.327
223.447
223.565
223.68
223.794
223.908
224.021
224.134
224.246
224.358
224.469
224.579
224.688
224.796
224.903
225.008
225.112
225.215
225.314
225.412
225.507
225.599
225.687
225.773
225.854
225.932
226.006
226.076
226.142
226.204
226.263
226.317
226.367
226.414
226.457
226.497
226.533
226.566
226.596
226.623
226.647
226.669
226.688
226.706
226.721
226.734
226.746
226.755
226.764
226.771
226.776
226.781
226.784
226.786
226.788
226.788
226.788
226.787
226.786
226.783
226.781
226.777
226.774
226.77
226.765
226.76
226.755
226.75
226.745
226.739
226.733
226.728
226.722
226.716
226.71
226.704
226.698
226.692
226.686
226.68
226.674
226.668
226.662
226.656
226.649
226.642
226.636
226.633
226.634
226.633
226.636
226.637
226.64
226.637
226.639
226.624
167.966
211.386
217.85
217.768
217.982
218.188
218.366
218.562
218.833
219.196
219.636
220.092
220.515
220.887
221.217
221.518
221.795
222.048
222.27
222.464
222.635
222.791
222.937
223.074
223.204
223.329
223.449
223.566
223.681
223.795
223.908
224.021
224.134
224.246
224.357
224.468
224.578
224.687
224.795
224.902
225.007
225.111
225.213
225.313
225.411
225.506
225.598
225.687
225.773
225.855
225.934
226.009
226.08
226.147
226.21
226.27
226.326
226.378
226.426
226.472
226.514
226.553
226.588
226.622
226.652
226.68
226.705
226.728
226.75
226.769
226.786
226.802
226.816
226.829
226.841
226.851
226.86
226.868
226.875
226.881
226.886
226.89
226.893
226.896
226.898
226.899
226.9
226.9
226.9
226.9
226.898
226.897
226.895
226.893
226.891
226.888
226.885
226.882
226.879
226.876
226.872
226.869
226.865
226.861
226.857
226.854
226.85
226.845
226.841
226.836
226.831
226.828
226.827
226.829
226.828
226.832
226.834
226.837
226.836
226.839
226.825
167.954
211.386
217.821
217.741
217.964
218.178
218.357
218.556
218.831
219.197
219.639
220.097
220.52
220.892
221.221
221.521
221.799
222.051
222.273
222.467
222.638
222.794
222.939
223.076
223.206
223.33
223.45
223.567
223.682
223.796
223.909
224.022
224.134
224.246
224.357
224.468
224.577
224.686
224.794
224.901
225.006
225.11
225.212
225.312
225.41
225.506
225.598
225.688
225.774
225.857
225.936
226.011
226.083
226.152
226.216
226.277
226.335
226.389
226.439
226.487
226.532
226.573
226.612
226.648
226.681
226.713
226.742
226.769
226.794
226.817
226.839
226.859
226.877
226.895
226.911
226.925
226.939
226.951
226.963
226.973
226.983
226.992
226.999
227.007
227.013
227.019
227.023
227.028
227.032
227.035
227.037
227.04
227.041
227.043
227.044
227.044
227.044
227.044
227.044
227.044
227.043
227.042
227.041
227.039
227.038
227.036
227.034
227.032
227.029
227.026
227.024
227.024
227.025
227.027
227.027
227.032
227.035
227.039
227.039
227.043
227.032
167.976
211.389
217.791
217.715
217.948
218.167
218.349
218.551
218.828
219.197
219.641
220.1
220.524
220.896
221.225
221.525
221.803
222.054
222.276
222.469
222.64
222.796
222.941
223.078
223.208
223.332
223.451
223.568
223.683
223.796
223.909
224.022
224.134
224.245
224.357
224.467
224.577
224.685
224.793
224.899
225.005
225.109
225.211
225.311
225.41
225.505
225.598
225.688
225.774
225.858
225.938
226.014
226.087
226.156
226.222
226.285
226.344
226.4
226.452
226.502
226.55
226.594
226.635
226.675
226.711
226.746
226.779
226.81
226.839
226.867
226.892
226.917
226.94
226.962
226.982
227.002
227.02
227.037
227.053
227.068
227.083
227.096
227.108
227.12
227.13
227.14
227.149
227.158
227.165
227.172
227.179
227.184
227.19
227.194
227.199
227.202
227.206
227.209
227.211
227.213
227.215
227.217
227.218
227.219
227.22
227.22
227.22
227.219
227.218
227.218
227.218
227.22
227.222
227.225
227.226
227.231
227.234
227.239
227.242
227.247
227.239
168.01
211.39
217.76
217.689
217.931
218.157
218.341
218.545
218.825
219.197
219.644
220.104
220.528
220.9
221.228
221.529
221.806
222.058
222.279
222.472
222.643
222.798
222.943
223.08
223.209
223.333
223.453
223.569
223.684
223.797
223.91
224.022
224.134
224.245
224.356
224.466
224.576
224.684
224.792
224.898
225.003
225.107
225.21
225.31
225.409
225.505
225.598
225.688
225.775
225.859
225.94
226.017
226.091
226.161
226.228
226.292
226.353
226.411
226.466
226.518
226.568
226.615
226.659
226.701
226.742
226.78
226.816
226.851
226.884
226.916
226.946
226.975
227.003
227.029
227.054
227.078
227.101
227.123
227.144
227.163
227.182
227.2
227.217
227.233
227.248
227.262
227.275
227.288
227.299
227.31
227.32
227.33
227.339
227.347
227.354
227.362
227.368
227.374
227.38
227.385
227.389
227.393
227.397
227.401
227.404
227.406
227.408
227.41
227.411
227.413
227.415
227.419
227.423
227.429
227.43
227.435
227.439
227.444
227.45
227.456
227.451
168.035
211.39
217.728
217.663
217.915
218.147
218.333
218.539
218.823
219.198
219.647
220.108
220.532
220.903
221.232
221.533
221.81
222.061
222.282
222.475
222.645
222.801
222.945
223.082
223.211
223.335
223.454
223.57
223.684
223.798
223.91
224.022
224.134
224.245
224.356
224.466
224.575
224.683
224.791
224.897
225.002
225.106
225.208
225.309
225.408
225.504
225.597
225.688
225.776
225.86
225.942
226.02
226.095
226.166
226.235
226.3
226.363
226.423
226.48
226.534
226.587
226.636
226.684
226.729
226.773
226.815
226.855
226.894
226.931
226.967
227.001
227.035
227.067
227.098
227.127
227.156
227.184
227.21
227.236
227.26
227.284
227.306
227.327
227.348
227.367
227.386
227.403
227.42
227.436
227.45
227.464
227.477
227.49
227.502
227.512
227.523
227.532
227.541
227.55
227.558
227.565
227.571
227.578
227.583
227.589
227.593
227.597
227.601
227.604
227.608
227.611
227.618
227.623
227.63
227.633
227.64
227.644
227.65
227.656
227.662
227.66
168.052
211.4
217.694
217.638
217.9
218.138
218.325
218.534
218.82
219.198
219.649
220.111
220.536
220.907
221.236
221.536
221.813
222.064
222.285
222.477
222.648
222.803
222.948
223.084
223.213