/*--------------------------------*- C++ -*----------------------------------*\
| =========                 |                                                 |
| \\      /  F ield         | OpenFOAM: The Open Source CFD Toolbox           |
|  \\    /   O peration     | Version:  2412                                  |
|   \\  /    A nd           | Website:  www.openfoam.com                      |
|    \\/     M anipulation  |                                                 |
\*---------------------------------------------------------------------------*/
FoamFile
{
    version     2.0;
    format      ascii;
    arch        "LSB;label=32;scalar=64";
    class       volScalarField;
    location    "0.093";
    object      T;
}
// * * * * * * * * * * * * * * * * * * * * * * * * * * * * * * * * * * * * * //

dimensions      [0 0 0 1 0 0 0];

internalField   nonuniform List<scalar> 
78650
(
236.172
226.259
225.825
225.596
225.313
225.028
224.765
224.541
224.361
224.217
224.1
223.995
223.895
223.793
223.681
223.556
223.427
223.307
223.208
223.135
223.084
223.045
223.009
222.969
222.919
222.859
222.786
222.704
222.613
222.516
222.419
222.323
222.231
222.144
222.062
221.985
221.913
221.845
221.781
221.721
221.665
221.614
221.566
221.524
221.485
221.451
221.42
221.392
221.368
221.347
221.328
221.312
221.298
221.286
221.276
221.266
221.259
221.252
221.247
221.241
221.235
221.229
221.22
221.21
221.198
221.182
221.161
221.135
221.102
221.062
221.013
220.954
220.882
220.797
220.696
220.578
220.44
220.28
220.096
219.885
219.642
219.365
219.05
218.693
218.29
217.836
217.326
216.758
216.126
215.425
214.644
213.782
212.836
211.817
210.706
209.519
208.223
206.823
205.325
203.708
202.017
200.241
198.383
196.403
194.337
192.317
190.329
188.427
186.585
184.742
183.062
181.511
180.011
178.54
177.073
175.744
174.734
174.017
173.572
173.329
171.931
235.389
226.147
225.818
225.606
225.321
225.033
224.765
224.535
224.349
224.202
224.087
223.988
223.892
223.794
223.69
223.574
223.45
223.331
223.228
223.149
223.094
223.052
223.016
222.978
222.933
222.879
222.815
222.739
222.655
222.563
222.469
222.376
222.286
222.201
222.122
222.047
221.977
221.912
221.851
221.794
221.741
221.693
221.65
221.611
221.577
221.546
221.52
221.496
221.477
221.46
221.447
221.436
221.428
221.422
221.417
221.414
221.413
221.413
221.415
221.417
221.42
221.422
221.423
221.423
221.42
221.416
221.408
221.395
221.377
221.352
221.32
221.279
221.227
221.164
221.086
220.993
220.883
220.754
220.603
220.428
220.225
219.991
219.723
219.417
219.069
218.676
218.232
217.735
217.176
216.548
215.845
215.065
214.206
213.27
212.238
211.122
209.892
208.58
207.166
205.649
204.047
202.358
200.637
198.832
196.948
194.972
192.976
190.912
188.986
187.029
185.119
183.305
181.59
180.052
178.623
177.257
176.046
175.062
174.463
174.147
172.746
234.621
226.034
225.795
225.606
225.329
225.039
224.765
224.525
224.331
224.18
224.066
223.971
223.883
223.791
223.692
223.582
223.466
223.35
223.246
223.163
223.102
223.058
223.021
222.986
222.945
222.898
222.84
222.773
222.696
222.61
222.52
222.429
222.342
222.26
222.182
222.11
222.042
221.98
221.922
221.868
221.819
221.774
221.734
221.7
221.669
221.643
221.621
221.602
221.587
221.575
221.567
221.562
221.559
221.559
221.56
221.564
221.569
221.576
221.585
221.595
221.606
221.616
221.627
221.636
221.645
221.651
221.655
221.656
221.651
221.642
221.626
221.602
221.57
221.527
221.472
221.403
221.32
221.219
221.099
220.957
220.79
220.596
220.371
220.111
219.814
219.475
219.09
218.654
218.161
217.605
216.982
216.292
215.529
214.69
213.756
212.735
211.602
210.388
209.06
207.632
206.095
204.435
202.696
200.901
199.099
197.22
195.387
193.377
191.382
189.418
187.422
185.468
183.464
181.58
179.894
178.421
177.187
176.096
175.29
174.78
173.053
233.896
225.939
225.752
225.59
225.331
225.042
224.764
224.515
224.311
224.152
224.034
223.943
223.862
223.781
223.689
223.584
223.474
223.364
223.261
223.176
223.11
223.063
223.025
222.991
222.955
222.913
222.863
222.804
222.735
222.656
222.571
222.484
222.4
222.32
222.245
222.175
222.11
222.05
221.995
221.944
221.898
221.857
221.821
221.79
221.763
221.741
221.724
221.709
221.699
221.692
221.689
221.689
221.692
221.697
221.704
221.714
221.725
221.739
221.755
221.773
221.791
221.81
221.829
221.848
221.867
221.884
221.899
221.912
221.921
221.926
221.926
221.919
221.905
221.881
221.848
221.802
221.743
221.67
221.579
221.47
221.339
221.184
221.001
220.787
220.539
220.254
219.927
219.554
219.13
218.649
218.109
217.504
216.827
216.069
215.218
214.283
213.248
212.138
210.918
209.61
208.186
206.645
204.977
203.194
201.322
199.391
197.443
195.499
193.479
191.55
189.568
187.664
185.739
183.808
181.86
179.976
178.35
177.096
176.275
175.802
173.843
233.105
225.86
225.707
225.572
225.335
225.051
224.767
224.509
224.293
224.123
223.997
223.904
223.829
223.757
223.676
223.58
223.475
223.369
223.27
223.184
223.116
223.065
223.026
222.993
222.961
222.925
222.883
222.833
222.772
222.702
222.623
222.54
222.459
222.382
222.31
222.243
222.18
222.123
222.07
222.022
221.98
221.942
221.909
221.882
221.86
221.842
221.829
221.819
221.813
221.811
221.813
221.819
221.827
221.837
221.851
221.866
221.884
221.905
221.927
221.952
221.978
222.006
222.034
222.062
222.09
222.118
222.144
222.169
222.191
222.209
222.223
222.232
222.236
222.231
222.218
222.195
222.16
222.112
222.049
221.97
221.871
221.752
221.607
221.436
221.233
220.997
220.723
220.409
220.047
219.636
219.168
218.639
218.039
217.364
216.608
215.776
214.856
213.855
212.745
211.545
210.225
208.806
207.282
205.632
203.855
201.954
199.926
197.911
195.791
193.681
191.6
189.545
187.631
185.771
183.973
182.222
180.522
178.927
177.653
176.793
174.492
232.262
225.797
225.667
225.551
225.342
225.063
224.772
224.506
224.279
224.096
223.96
223.86
223.784
223.718
223.647
223.565
223.469
223.368
223.272
223.188
223.118
223.065
223.024
222.991
222.962
222.932
222.898
222.857
222.807
222.746
222.674
222.597
222.52
222.446
222.378
222.313
222.253
222.198
222.148
222.104
222.064
222.029
222.001
221.977
221.959
221.946
221.937
221.932
221.93
221.933
221.94
221.95
221.964
221.98
221.999
222.021
222.045
222.072
222.101
222.133
222.167
222.202
222.238
222.275
222.313
222.351
222.388
222.424
222.458
222.49
222.518
222.543
222.562
222.575
222.581
222.579
222.567
222.544
222.507
222.457
222.39
222.304
222.198
222.067
221.909
221.722
221.501
221.243
220.943
220.597
220.2
219.745
219.227
218.643
217.987
217.259
216.445
215.543
214.533
213.434
212.214
210.903
209.474
207.936
206.294
204.529
202.655
200.689
198.628
196.431
194.269
191.956
189.715
187.476
185.359
183.507
181.906
180.652
179.524
178.592
175.83
231.336
225.706
225.624
225.537
225.353
225.08
224.781
224.507
224.27
224.075
223.926
223.815
223.733
223.668
223.605
223.534
223.451
223.36
223.269
223.187
223.116
223.06
223.018
222.986
222.96
222.935
222.908
222.876
222.837
222.787
222.724
222.654
222.581
222.512
222.446
222.385
222.329
222.277
222.229
222.188
222.151
222.12
222.094
222.074
222.06
222.051
222.047
222.046
222.05
222.058
222.069
222.085
222.104
222.126
222.15
222.178
222.208
222.242
222.278
222.316
222.357
222.4
222.445
222.491
222.537
222.585
222.632
222.679
222.725
222.77
222.812
222.85
222.886
222.916
222.94
222.957
222.966
222.967
222.955
222.932
222.894
222.84
222.768
222.674
222.557
222.414
222.24
222.034
221.791
221.507
221.176
220.796
220.359
219.863
219.301
218.667
217.946
217.138
216.227
215.226
214.111
212.9
211.561
210.116
208.55
206.867
205.084
203.168
201.245
199.171
197.153
194.941
192.72
190.408
188.081
185.756
183.595
181.711
180.424
179.715
177.226
230.346
225.591
225.576
225.522
225.366
225.105
224.799
224.511
224.266
224.06
223.898
223.774
223.682
223.612
223.552
223.489
223.419
223.341
223.26
223.181
223.11
223.051
223.007
222.976
222.953
222.933
222.913
222.89
222.862
222.824
222.772
222.71
222.644
222.578
222.517
222.459
222.406
222.358
222.313
222.274
222.241
222.213
222.191
222.174
222.164
222.159
222.159
222.164
222.172
222.184
222.201
222.221
222.246
222.273
222.304
222.337
222.373
222.413
222.455
222.501
222.549
222.599
222.652
222.706
222.761
222.818
222.875
222.933
222.99
223.046
223.101
223.154
223.204
223.25
223.292
223.328
223.357
223.378
223.391
223.394
223.384
223.361
223.322
223.264
223.187
223.086
222.959
222.804
222.616
222.392
222.126
221.814
221.452
221.034
220.553
220.003
219.373
218.665
217.866
216.983
215.994
214.906
213.693
212.375
210.919
209.332
207.611
205.743
203.782
201.694
199.508
197.364
195.177
193.011
190.837
188.684
186.513
184.487
182.546
181.117
177.732
229.328
225.422
225.504
225.494
225.383
225.142
224.83
224.526
224.269
224.054
223.881
223.743
223.638
223.561
223.498
223.437
223.375
223.308
223.237
223.165
223.097
223.038
222.993
222.962
222.942
222.927
222.913
222.898
222.881
222.855
222.816
222.764
222.705
222.645
222.588
222.535
222.486
222.44
222.4
222.364
222.333
222.308
222.289
222.276
222.269
222.269
222.274
222.282
222.296
222.313
222.334
222.36
222.389
222.422
222.458
222.498
222.54
222.585
222.634
222.686
222.741
222.799
222.859
222.922
222.986
223.051
223.118
223.186
223.254
223.322
223.389
223.455
223.519
223.581
223.639
223.692
223.741
223.783
223.817
223.843
223.859
223.864
223.856
223.832
223.79
223.728
223.644
223.534
223.396
223.227
223.02
222.774
222.482
222.141
221.744
221.287
220.76
220.162
219.481
218.716
217.849
216.885
215.803
214.615
213.291
211.85
210.273
208.567
206.709
204.73
202.503
200.263
197.829
195.43
192.966
190.642
188.423
186.616
185.096
183.877
180.482
228.354
225.171
225.408
225.453
225.387
225.179
224.877
224.56
224.284
224.058
223.876
223.73
223.616
223.527
223.455
223.392
223.333
223.274
223.213
223.15
223.087
223.028
222.981
222.949
222.929
222.918
222.91
222.902
222.895
222.881
222.856
222.816
222.766
222.712
222.659
222.611
222.566
222.525
222.488
222.455
222.427
222.406
222.39
222.38
222.377
222.38
222.389
222.403
222.421
222.443
222.469
222.5
222.534
222.573
222.614
222.659
222.707
222.759
222.814
222.872
222.934
222.999
223.066
223.136
223.208
223.283
223.358
223.436
223.514
223.593
223.672
223.751
223.828
223.904
223.978
224.048
224.114
224.175
224.231
224.28
224.32
224.351
224.371
224.379
224.372
224.348
224.305
224.24
224.15
224.032
223.883
223.698
223.474
223.205
222.885
222.51
222.074
221.571
220.992
220.332
219.576
218.727
217.764
216.696
215.499
214.186
212.728
211.146
209.435
207.582
205.608
203.49
201.248
198.828
196.308
193.692
191.044
188.591
186.624
185.207
181.566
227.444
224.862
225.252
225.373
225.363
225.217
224.945
224.623
224.328
224.082
223.889
223.735
223.614
223.519
223.442
223.376
223.318
223.263
223.206
223.146
223.084
223.025
222.975
222.939
222.918
222.909
222.904
222.903
222.904
222.902
222.89
222.864
222.824
222.778
222.731
222.687
222.647
222.61
222.577
222.548
222.524
222.505
222.492
222.486
222.485
222.493
222.506
222.524
222.546
222.573
222.605
222.64
222.68
222.724
222.771
222.821
222.875
222.932
222.993
223.058
223.126
223.198
223.272
223.35
223.43
223.513
223.597
223.684
223.772
223.862
223.952
224.042
224.132
224.222
224.31
224.396
224.479
224.558
224.633
224.703
224.766
224.822
224.868
224.904
224.927
224.938
224.933
224.908
224.862
224.792
224.695
224.567
224.405
224.203
223.958
223.665
223.317
222.91
222.431
221.877
221.234
220.503
219.666
218.726
217.66
216.474
215.14
213.674
212.056
210.296
208.385
206.286
204.116
201.738
199.382
197.077
194.601
192.271
189.941
188
183.547
226.623
224.474
224.981
225.252
225.317
225.237
225.006
224.703
224.408
224.151
223.943
223.773
223.638
223.533
223.449
223.381
223.323
223.268
223.213
223.154
223.09
223.029
222.975
222.936
222.913
222.904
222.902
222.904
222.912
222.918
222.918
222.906
222.879
222.842
222.802
222.764
222.728
222.696
222.667
222.642
222.621
222.606
222.596
222.592
222.596
222.607
222.623
222.645
222.673
222.704
222.74
222.781
222.826
222.874
222.927
222.983
223.042
223.105
223.172
223.243
223.317
223.395
223.476
223.561
223.649
223.739
223.832
223.927
224.025
224.124
224.225
224.326
224.429
224.531
224.633
224.733
224.832
224.928
225.022
225.111
225.196
225.274
225.346
225.409
225.462
225.504
225.531
225.545
225.543
225.518
225.472
225.396
225.292
225.154
224.977
224.758
224.491
224.169
223.785
223.333
222.804
222.195
221.489
220.687
219.768
218.734
217.562
216.26
214.793
213.176
211.391
209.432
207.26
204.925
202.421
199.755
197.111
194.603
192.452
190.851
186.82
225.942
224.024
224.564
225.023
225.224
225.215
225.053
224.783
224.5
224.243
224.031
223.851
223.702
223.584
223.489
223.412
223.349
223.294
223.238
223.177
223.112
223.047
222.987
222.941
222.914
222.904
222.903
222.907
222.919
222.933
222.942
222.942
222.93
222.904
222.872
222.839
222.809
222.781
222.757
222.736
222.719
222.707
222.7
222.7
222.707
222.72
222.741
222.767
222.798
222.835
222.875
222.92
222.97
223.024
223.082
223.143
223.208
223.277
223.349
223.425
223.506
223.59
223.678
223.77
223.865
223.962
224.063
224.167
224.273
224.382
224.493
224.605
224.718
224.832
224.947
225.061
225.175
225.287
225.397
225.505
225.609
225.709
225.803
225.891
225.971
226.042
226.102
226.149
226.181
226.197
226.198
226.172
226.123
226.042
225.93
225.781
225.59
225.352
225.059
224.708
224.287
223.793
223.21
222.537
221.755
220.864
219.841
218.689
217.384
215.941
214.324
212.539
210.581
208.442
206.151
203.573
200.98
198.086
195.357
193.094
188.15
225.47
223.595
224.03
224.621
225.024
225.126
225.056
224.833
224.577
224.337
224.132
223.952
223.798
223.67
223.561
223.472
223.403
223.344
223.287
223.226
223.158
223.088
223.021
222.966
222.929
222.913
222.911
222.915
222.929
222.949
222.967
222.976
222.975
222.962
222.94
222.914
222.889
222.866
222.847
222.83
222.817
222.809
222.805
222.807
222.817
222.834
222.858
222.888
222.924
222.964
223.009
223.059
223.114
223.172
223.235
223.302
223.372
223.446
223.524
223.606
223.692
223.782
223.876
223.974
224.076
224.181
224.289
224.401
224.515
224.633
224.753
224.874
224.998
225.124
225.25
225.377
225.504
225.631
225.757
225.882
226.004
226.123
226.239
226.35
226.455
226.553
226.642
226.722
226.79
226.843
226.881
226.902
226.905
226.879
226.827
226.741
226.62
226.458
226.249
225.989
225.668
225.28
224.812
224.262
223.611
222.856
221.978
220.972
219.817
218.517
217.044
215.406
213.57
211.541
209.323
206.95
204.376
201.94
199.359
197.24
192.393
225.229
223.288
223.533
224.076
224.658
224.943
224.972
224.846
224.616
224.396
224.207
224.043
223.903
223.782
223.669
223.572
223.493
223.425
223.361
223.296
223.224
223.149
223.075
223.011
222.964
222.938
222.932
222.934
222.945
222.967
222.992
223.01
223.017
223.016
223.005
222.987
222.968
222.95
222.935
222.923
222.914
222.91
222.91
222.915
222.928
222.947
222.975
223.008
223.048
223.092
223.142
223.196
223.255
223.319
223.386
223.458
223.533
223.613
223.696
223.783
223.874
223.97
224.07
224.175
224.283
224.394
224.51
224.629
224.751
224.877
225.005
225.136
225.27
225.406
225.543
225.682
225.822
225.962
226.103
226.243
226.382
226.519
226.654
226.786
226.913
227.036
227.152
227.26
227.359
227.448
227.524
227.584
227.628
227.652
227.656
227.631
227.576
227.485
227.354
227.179
226.95
226.663
226.306
225.876
225.355
224.741
224.014
223.17
222.188
221.063
219.77
218.316
216.653
214.784
212.674
210.377
207.893
205.273
202.37
199.958
194.941
225.123
223.173
223.267
223.568
224.122
224.588
224.775
224.76
224.611
224.415
224.238
224.092
223.975
223.872
223.776
223.69
223.61
223.537
223.467
223.393
223.314
223.23
223.148
223.076
223.019
222.983
222.968
222.966
222.972
222.991
223.019
223.045
223.061
223.067
223.066
223.057
223.045
223.033
223.023
223.015
223.01
223.009
223.013
223.022
223.037
223.06
223.09
223.127
223.17
223.219
223.272
223.331
223.394
223.462
223.535
223.611
223.691
223.776
223.864
223.956
224.053
224.154
224.26
224.37
224.484
224.602
224.724
224.85
224.979
225.112
225.249
225.389
225.531
225.676
225.824
225.974
226.125
226.278
226.432
226.586
226.74
226.894
227.047
227.198
227.346
227.491
227.631
227.766
227.894
228.014
228.124
228.222
228.308
228.376
228.425
228.454
228.46
228.434
228.376
228.278
228.134
227.941
227.689
227.372
226.977
226.498
225.919
225.232
224.417
223.467
222.359
221.089
219.617
217.962
216.082
214.002
211.667
209.236
206.509
204.017
198.923
225.115
223.199
223.185
223.251
223.579
224.056
224.412
224.547
224.52
224.392
224.238
224.103
223.991
223.9
223.832
223.775
223.718
223.657
223.589
223.511
223.424
223.332
223.242
223.161
223.094
223.047
223.02
223.012
223.014
223.026
223.053
223.083
223.106
223.119
223.125
223.125
223.121
223.115
223.109
223.106
223.105
223.108
223.115
223.128
223.146
223.171
223.204
223.244
223.291
223.343
223.4
223.463
223.53
223.603
223.68
223.761
223.846
223.935
224.028
224.125
224.226
224.333
224.444
224.559
224.679
224.803
224.931
225.063
225.2
225.34
225.484
225.632
225.783
225.937
226.094
226.254
226.416
226.58
226.746
226.913
227.081
227.25
227.419
227.587
227.753
227.918
228.08
228.239
228.393
228.54
228.681
228.813
228.934
229.043
229.137
229.213
229.269
229.302
229.311
229.285
229.222
229.116
228.959
228.747
228.465
228.11
227.663
227.117
226.453
225.661
224.719
223.619
222.333
220.862
219.154
217.225
215.044
212.666
210.16
207.707
203.097
225.108
223.252
223.171
223.139
223.231
223.516
223.901
224.183
224.3
224.285
224.186
224.077
223.979
223.9
223.839
223.796
223.767
223.736
223.689
223.624
223.541
223.446
223.35
223.261
223.186
223.129
223.09
223.072
223.068
223.073
223.094
223.126
223.154
223.172
223.185
223.192
223.194
223.194
223.194
223.195
223.198
223.204
223.215
223.231
223.252
223.28
223.316
223.359
223.409
223.465
223.526
223.592
223.663
223.74
223.821
223.907
223.996
224.089
224.187
224.289
224.395
224.506
224.622
224.743
224.868
224.997
225.131
225.269
225.412
225.559
225.71
225.864
226.023
226.185
226.351
226.52
226.691
226.866
227.043
227.221
227.402
227.584
227.767
227.951
228.135
228.318
228.499
228.679
228.856
229.029
229.197
229.359
229.513
229.658
229.791
229.912
230.016
230.101
230.164
230.202
230.213
230.185
230.116
229.998
229.821
229.581
229.261
228.857
228.349
227.728
226.971
226.067
224.989
223.73
222.244
220.532
218.537
216.327
213.869
211.321
206.812
225.083
223.326
223.208
223.112
223.097
223.153
223.381
223.694
223.947
224.06
224.06
224.008
223.933
223.871
223.821
223.789
223.77
223.757
223.736
223.698
223.637
223.557
223.465
223.373
223.291
223.225
223.175
223.145
223.133
223.132
223.144
223.174
223.204
223.228
223.245
223.258
223.267
223.273
223.278
223.283
223.289
223.299
223.313
223.332
223.357
223.388
223.426
223.472
223.525
223.584
223.649
223.718
223.794
223.874
223.959
224.048
224.142
224.24
224.342
224.448
224.558
224.674
224.795
224.92
225.05
225.184
225.324
225.468
225.616
225.769
225.926
226.087
226.253
226.422
226.596
226.773
226.954
227.137
227.324
227.513
227.705
227.9
228.096
228.293
228.492
228.691
228.89
229.089
229.286
229.481
229.674
229.862
230.045
230.221
230.389
230.548
230.694
230.827
230.942
231.036
231.106
231.148
231.161
231.131
231.052
230.921
230.722
230.451
230.089
229.627
229.042
228.322
227.437
226.373
225.1
223.612
221.876
219.935
217.682
215.355
211.378
225.039
223.41
223.285
223.132
223.044
222.978
223.009
223.201
223.489
223.727
223.842
223.865
223.842
223.81
223.781
223.767
223.758
223.753
223.74
223.715
223.68
223.628
223.559
223.479
223.4
223.329
223.271
223.231
223.208
223.202
223.206
223.23
223.261
223.287
223.307
223.325
223.339
223.35
223.36
223.369
223.379
223.392
223.409
223.431
223.459
223.493
223.534
223.583
223.639
223.701
223.768
223.842
223.92
224.004
224.093
224.186
224.284
224.386
224.491
224.601
224.716
224.836
224.961
225.091
225.225
225.365
225.509
225.658
225.811
225.969
226.132
226.3
226.472
226.648
226.828
227.013
227.201
227.394
227.589
227.788
227.99
228.195
228.402
228.613
228.824
229.038
229.252
229.467
229.683
229.897
230.111
230.323
230.531
230.736
230.934
231.127
231.31
231.483
231.644
231.789
231.917
232.02
232.097
232.144
232.157
232.123
232.033
231.88
231.647
231.327
230.897
230.344
229.642
228.778
227.719
226.44
224.911
223.11
221.026
218.666
215.136
224.981
223.486
223.375
223.187
223.041
222.887
222.798
222.83
223.026
223.312
223.543
223.662
223.703
223.709
223.706
223.711
223.72
223.727
223.725
223.71
223.683
223.65
223.61
223.558
223.496
223.43
223.369
223.321
223.289
223.276
223.275
223.291
223.321
223.347
223.37
223.391
223.41
223.426
223.44
223.453
223.467
223.483
223.503
223.527
223.558
223.595
223.639
223.691
223.749
223.814
223.885
223.961
224.043
224.13
224.223
224.32
224.421
224.526
224.636
224.75
224.868
224.992
225.121
225.255
225.393
225.537
225.686
225.839
225.998
226.161
226.329
226.502
226.68
226.862
227.049
227.24
227.436
227.635
227.839
228.046
228.257
228.471
228.689
228.91
229.134
229.36
229.588
229.817
230.048
230.28
230.513
230.744
230.975
231.203
231.429
231.65
231.866
232.075
232.274
232.464
232.639
232.798
232.938
233.051
233.136
233.185
233.197
233.153
233.045
232.864
232.591
232.214
231.707
231.052
230.211
229.168
227.891
226.348
224.561
222.373
219.256
224.923
223.542
223.453
223.252
223.053
222.85
222.673
222.598
222.662
222.892
223.184
223.404
223.527
223.582
223.606
223.628
223.655
223.679
223.69
223.685
223.671
223.648
223.623
223.596
223.561
223.513
223.46
223.411
223.373
223.354
223.348
223.359
223.387
223.413
223.437
223.46
223.482
223.503
223.521
223.537
223.554
223.572
223.595
223.622
223.655
223.695
223.742
223.796
223.858
223.926
223.999
224.078
224.163
224.254
224.349
224.449
224.554
224.663
224.776
224.893
225.016
225.143
225.275
225.413
225.556
225.703
225.856
226.014
226.177
226.345
226.517
226.695
226.878
227.066
227.258
227.455
227.657
227.863
228.074
228.288
228.507
228.73
228.957
229.187
229.421
229.658
229.898
230.14
230.384
230.631
230.879
231.128
231.378
231.627
231.876
232.122
232.365
232.604
232.838
233.065
233.282
233.488
233.68
233.854
234.007
234.13
234.222
234.274
234.285
234.229
234.101
233.879
233.549
233.087
232.458
231.642
230.582
229.25
227.657
225.669
222.865
224.881
223.578
223.512
223.305
223.071
222.828
222.601
222.452
222.42
222.537
222.816
223.115
223.324
223.437
223.49
223.526
223.564
223.602
223.632
223.641
223.64
223.632
223.62
223.605
223.59
223.568
223.532
223.49
223.452
223.429
223.421
223.429
223.454
223.479
223.504
223.529
223.553
223.577
223.599
223.619
223.638
223.659
223.684
223.713
223.749
223.791
223.841
223.898
223.963
224.033
224.109
224.191
224.279
224.372
224.471
224.574
224.682
224.794
224.91
225.031
225.157
225.287
225.423
225.564
225.71
225.862
226.018
226.18
226.347
226.519
226.696
226.878
227.066
227.258
227.455
227.658
227.865
228.077
228.294
228.515
228.741
228.971
229.205
229.444
229.687
229.933
230.183
230.436
230.692
230.952
231.214
231.478
231.744
232.011
232.278
232.546
232.812
233.077
233.34
233.598
233.851
234.097
234.333
234.558
234.767
234.957
235.124
235.258
235.357
235.409
235.413
235.329
235.162
234.873
234.445
233.85
233.03
231.962
230.605
228.849
226.354
224.865
223.601
223.549
223.338
223.081
222.81
222.551
222.352
222.26
222.289
222.487
222.811
223.102
223.282
223.368
223.416
223.459
223.505
223.549
223.577
223.593
223.599
223.603
223.599
223.597
223.593
223.579
223.551
223.52
223.497
223.49
223.497
223.522
223.547
223.572
223.598
223.625
223.652
223.677
223.7
223.721
223.745
223.772
223.803
223.841
223.886
223.938
223.998
224.065
224.138
224.217
224.302
224.392
224.488
224.59
224.696
224.807
224.922
225.041
225.164
225.293
225.427
225.566
225.71
225.859
226.014
226.174
226.339
226.51
226.685
226.866
227.053
227.244
227.441
227.643
227.85
228.062
228.279
228.501
228.728
228.96
229.196
229.437
229.683
229.934
230.188
230.447
230.709
230.976
231.246
231.519
231.796
232.075
232.357
232.641
232.926
233.213
233.499
233.785
234.071
234.353
234.632
234.906
235.173
235.429
235.674
235.902
236.109
236.292
236.435
236.541
236.593
236.59
236.475
236.266
235.902
235.345
234.55
233.411
231.886
229.607
224.868
223.616
223.57
223.348
223.074
222.782
222.508
222.282
222.147
222.117
222.226
222.521
222.867
223.115
223.242
223.304
223.349
223.398
223.45
223.495
223.529
223.553
223.573
223.585
223.594
223.6
223.601
223.591
223.571
223.555
223.55
223.562
223.586
223.613
223.639
223.667
223.696
223.726
223.753
223.778
223.802
223.828
223.857
223.89
223.93
223.977
224.032
224.095
224.165
224.24
224.322
224.409
224.502
224.6
224.704
224.813
224.927
225.044
225.166
225.292
225.424
225.56
225.702
225.849
226.002
226.159
226.322
226.491
226.665
226.844
227.028
227.218
227.413
227.614
227.82
228.031
228.247
228.469
228.696
228.928
229.164
229.406
229.653
229.905
230.162
230.424
230.69
230.96
231.235
231.514
231.797
232.085
232.376
232.67
232.968
233.268
233.57
233.875
234.181
234.488
234.795
235.102
235.406
235.707
236.003
236.293
236.572
236.839
237.089
237.317
237.517
237.673
237.786
237.831
237.798
237.625
237.313
236.792
235.917
234.724
232.696
224.891
223.626
223.573
223.335
223.039
222.737
222.461
222.226
222.063
221.996
222.039
222.261
222.621
222.933
223.109
223.192
223.243
223.291
223.346
223.403
223.454
223.497
223.532
223.562
223.582
223.597
223.607
223.611
223.606
223.6
223.602
223.619
223.646
223.675
223.704
223.734
223.766
223.798
223.828
223.856
223.882
223.909
223.94
223.975
224.017
224.066
224.124
224.189
224.261
224.34
224.423
224.513
224.608
224.709
224.816
224.927
225.043
225.163
225.287
225.416
225.55
225.689
225.833
225.983
226.138
226.299
226.465
226.636
226.813
226.995
227.182
227.376
227.574
227.778
227.987
228.202
228.423
228.648
228.879
229.115
229.357
229.604
229.856
230.113
230.376
230.643
230.916
231.193
231.475
231.762
232.053
232.35
232.65
232.955
233.264
233.577
233.893
234.212
234.535
234.86
235.187
235.516
235.845
236.174
236.502
236.828
237.149
237.464
237.769
238.062
238.337
238.587
238.805
238.97
239.079
239.109
239.05
238.81
238.24
237.441
235.705
224.934
223.632
223.562
223.296
222.979
222.673
222.404
222.175
221.997
221.905
221.903
222.043
222.378
222.738
222.968
223.082
223.142
223.19
223.246
223.309
223.374
223.433
223.484
223.529
223.562
223.587
223.605
223.618
223.627
223.633
223.645
223.669
223.7
223.733
223.765
223.798
223.832
223.867
223.9
223.93
223.958
223.987
224.019
224.057
224.101
224.152
224.213
224.28
224.355
224.436
224.522
224.614
224.711
224.814
224.923
225.037
225.155
225.277
225.404
225.535
225.671
225.812
225.959
226.112
226.269
226.432
226.601
226.775
226.955
227.139
227.33
227.526
227.727
227.935
228.147
228.365
228.589
228.818
229.053
229.293
229.539
229.79
230.046
230.308
230.576
230.849
231.127
231.41
231.698
231.992
232.291
232.594
232.903
233.217
233.536
233.859
234.186
234.518
234.853
235.193
235.537
235.884
236.233
236.585
236.939
237.293
237.648
238
238.35
238.693
239.028
239.351
239.656
239.934
240.165
240.335
240.46
240.495
240.249
239.866
238.677
225.007
223.628
223.531
223.229
222.898
222.595
222.341
222.124
221.944
221.833
221.8
221.873
222.151
222.534
222.82
222.972
223.049
223.103
223.16
223.224
223.296
223.368
223.433
223.491
223.536
223.57
223.597
223.618
223.637
223.656
223.68
223.711
223.749
223.786
223.821
223.858
223.896
223.934
223.97
224.002
224.032
224.062
224.096
224.135
224.181
224.236
224.298
224.369
224.446
224.529
224.617
224.711
224.811
224.916
225.027
225.143
225.263
225.387
225.516
225.649
225.788
225.931
226.08
226.235
226.395
226.561
226.732
226.908
227.09
227.278
227.471
227.669
227.874
228.084
228.299
228.521
228.747
228.98
229.218
229.462
229.711
229.966
230.226
230.492
230.764
231.042
231.325
231.613
231.907
232.207
232.512
232.822
233.138
233.459
233.786
234.118
234.455
234.797
235.144
235.496
235.853
236.214
236.581
236.951
237.325
237.702
238.082
238.465
238.848
239.232
239.613
239.99
240.359
240.716
241.047
241.348
241.601
241.818
241.932
241.833
241.361
225.095
223.61
223.472
223.138
222.802
222.51
222.273
222.074
221.898
221.774
221.719
221.744
221.95
222.331
222.667
222.864
222.965
223.029
223.089
223.156
223.23
223.307
223.382
223.449
223.505
223.55
223.585
223.614
223.642
223.673
223.707
223.747
223.791
223.832
223.873
223.913
223.955
223.997
224.035
224.07
224.101
224.134
224.17
224.211
224.259
224.316
224.381
224.454
224.534
224.619
224.709
224.805
224.907
225.014
225.127
225.245
225.367
225.493
225.624
225.759
225.9
226.045
226.197
226.354
226.516
226.684
226.857
227.036
227.22
227.41
227.606
227.807
228.014
228.227
228.445
228.669
228.899
229.134
229.376
229.622
229.875
230.134
230.398
230.668
230.944
231.226
231.513
231.806
232.105
232.41
232.721
233.037
233.359
233.687
234.021
234.361
234.706
235.057
235.413
235.775
236.143
236.517
236.896
237.281
237.671
238.067
238.467
238.872
239.281
239.693
240.108
240.524
240.94
241.352
241.756
242.146
242.51
242.856
243.169
243.342
243.428
225.181
223.563
223.386
223.028
222.697
222.423
222.206
222.025
221.858
221.724
221.649
221.647
221.782
222.139
222.516
222.761
222.891
222.967
223.032
223.1
223.175
223.255
223.334
223.408
223.473
223.527
223.571
223.608
223.645
223.685
223.73
223.778
223.827
223.874
223.919
223.964
224.01
224.055
224.097
224.133
224.167
224.202
224.239
224.283
224.334
224.393
224.461
224.536
224.618
224.705
224.798
224.896
225
225.109
225.224
225.343
225.467
225.595
225.727
225.864
226.007
226.155
226.308
226.467
226.631
226.801
226.977
227.158
227.344
227.537
227.735
227.938
228.148
228.363
228.584
228.81
229.043
229.281
229.525
229.775
230.031
230.293
230.56
230.834
231.114
231.4
231.691
231.989
232.292
232.602
232.917
233.239
233.567
233.901
234.241
234.587
234.939
235.297
235.662
236.033
236.41
236.794
237.183
237.58
237.982
238.391
238.806
239.227
239.654
240.086
240.523
240.965
241.41
241.856
242.3
242.737
243.159
243.579
243.968
244.276
244.582
225.253
223.491
223.278
222.908
222.591
222.338
222.141
221.975
221.818
221.678
221.586
221.565
221.647
221.965
222.372
222.663
222.824
222.916
222.986
223.055
223.13
223.21
223.291
223.37
223.442
223.504
223.556
223.601
223.645
223.695
223.749
223.805
223.859
223.911
223.96
224.01
224.061
224.11
224.153
224.192
224.228
224.265
224.305
224.351
224.404
224.467
224.537
224.615
224.699
224.788
224.882
224.983
225.088
225.2
225.316
225.437
225.562
225.692
225.826