/*--------------------------------*- C++ -*----------------------------------*\
| =========                 |                                                 |
| \\      /  F ield         | OpenFOAM: The Open Source CFD Toolbox           |
|  \\    /   O peration     | Version:  2406                                  |
|   \\  /    A nd           | Website:  www.openfoam.com                      |
|    \\/     M anipulation  |                                                 |
\*---------------------------------------------------------------------------*/
FoamFile
{
    version     2.0;
    format      ascii;
    arch        "LSB;label=32;scalar=64";
    class       volScalarField;
    location    "0.001";
    object      p;
}
// * * * * * * * * * * * * * * * * * * * * * * * * * * * * * * * * * * * * * //

dimensions      [1 -1 -2 0 0 0 0];

internalField   nonuniform List<scalar> 
78650
(
2790
2790
2790
2790
2790
2790
2790
2790
2790
2790
2790
2790
2790
2790
2790
2790
2790
2790
2790
2790
2790
2790
2790
2790
2790
2790
2790
2790
2790
2790
2790
2790
2790
2790
2790
2790
2790
2790
2790
2790
2790
2790
2790
2790
2790
2790
2790
2790
2790
2790
2790
2790
2790
2790
2790
2790
2790.1
2794.28
2842.98
3004.52
3174.26
3246.53
3250.12
3245.21
3233.66
3222.86
3213.27
3203.36
3194.41
3186.95
3179.38
3170.49
3159.85
3148.53
3137.29
3126.47
3115.84
3104.93
3093.15
3079.82
3064.58
3047.9
3030.53
3013.09
2995.14
2976.61
2957.1
2937.32
2917.3
2897.42
2877.56
2857.82
2837.97
2817.88
2797.43
2776.7
2755.95
2735.44
2715.45
2696.15
2677.7
2660.24
2643.78
2628.24
2613.57
2599.79
2586.9
2574.67
2563.04
2552
2541.62
2531.78
2522.5
2513.51
2505.38
2496.84
2489.24
2482
2475.49
2470.63
2458.44
2790
2790
2790
2790
2790
2790
2790
2790
2790
2790
2790
2790
2790
2790
2790
2790
2790
2790
2790
2790
2790
2790
2790
2790
2790
2790
2790
2790
2790
2790
2790
2790
2790
2790
2790
2790
2790
2790
2790
2790
2790
2790
2790
2790
2790
2790
2790
2790
2790
2790
2790
2790
2790
2790
2790
2790
2790.03
2791.67
2819.89
2951.97
3139.43
3241.48
3258.16
3255.34
3247.13
3236.65
3227.84
3218.53
3209.29
3202.04
3195.4
3187.93
3178.9
3169.02
3158.76
3148.61
3138.62
3128.44
3117.64
3105.58
3091.63
3075.94
3059.29
3042.52
3025.44
3007.83
2989.08
2969.75
2949.75
2929.64
2909.32
2889.09
2868.72
2848.12
2827.05
2805.54
2783.79
2762.06
2740.67
2719.81
2699.7
2680.48
2662.24
2644.96
2628.67
2613.39
2599.03
2585.36
2572.4
2560.09
2548.48
2537.46
2526.99
2516.89
2507.18
2498.93
2489.51
2481.79
2474.31
2468.45
2454.6
2790
2790
2790
2790
2790
2790
2790
2790
2790
2790
2790
2790
2790
2790
2790
2790
2790
2790
2790
2790
2790
2790
2790
2790
2790
2790
2790
2790
2790
2790
2790
2790
2790
2790
2790
2790
2790
2790
2790
2790
2790
2790
2790
2790
2790
2790
2790
2790
2790
2790
2790
2790
2790
2790
2790
2790
2790.01
2790.57
2805.11
2904.6
3098.82
3229.42
3266.64
3265.8
3259.96
3249.97
3241.84
3233.55
3224.47
3217.16
3211.06
3204.7
3197.22
3188.94
3179.98
3170.7
3161.36
3151.79
3141.74
3130.74
3118.05
3103.55
3087.94
3072.11
3056.07
3039.52
3021.8
3003.29
2983.76
2963.82
2943.37
2922.87
2902.14
2881.14
2859.52
2837.37
2814.8
2792.09
2769.5
2747.28
2725.64
2704.77
2684.78
2665.69
2647.63
2630.6
2614.45
2599.03
2584.42
2570.62
2557.55
2545.09
2533.38
2522.03
2512.17
2501.08
2491.22
2482.3
2473.89
2467.25
2451.75
2790
2790
2790
2790
2790
2790
2790
2790
2790
2790
2790
2790
2790
2790
2790
2790
2790
2790
2790
2790
2790
2790
2790
2790
2790
2790
2790
2790
2790
2790
2790
2790
2790
2790
2790
2790
2790
2790
2790
2790
2790
2790
2790
2790
2790
2790
2790
2790
2790
2790
2790
2790
2790
2790
2790
2790
2790
2790.16
2796.51
2862.46
3046.63
3209.8
3272.93
3276.08
3270.77
3262.6
3255.3
3248.75
3240.42
3233.03
3227.3
3221.87
3215.76
3209.01
3201.47
3193.27
3184.78
3175.94
3166.69
3156.76
3145.44
3132.34
3118.03
3103.37
3088.55
3073.23
3056.73
3039.19
3020.34
3000.77
2980.36
2959.74
2938.7
2917.32
2895.2
2872.49
2849.21
2825.66
2802.03
2778.56
2755.52
2733.06
2711.35
2690.47
2670.59
2651.65
2633.61
2616.41
2600.15
2584.71
2569.99
2555.95
2542.62
2529.93
2517.68
2507.21
2495.24
2485.36
2475.53
2467.75
2450.46
2790
2790
2790
2790
2790
2790
2790
2790
2790
2790
2790
2790
2790
2790
2790
2790
2790
2790
2790
2790
2790
2790
2790
2790
2790
2790
2790
2790
2790
2790
2790
2790
2790
2790
2790
2790
2790
2790
2790
2790
2790
2790
2790
2790
2790
2790
2790
2790
2790
2790
2790
2790
2790
2790
2790
2790
2790
2790.04
2792.44
2830.77
2988.25
3181.52
3271.53
3286.48
3280.91
3275.1
3268.45
3263.19
3256.22
3249.37
3243.94
3238.97
3233.73
3228.19
3222.02
3215.08
3207.64
3199.65
3191.21
3182.26
3172.25
3160.67
3147.85
3134.56
3121.05
3107.03
3091.88
3075.56
3057.79
3039.02
3019.13
2998.79
2977.83
2956.4
2934.09
2911.14
2887.46
2863.41
2839.08
2814.76
2790.64
2766.89
2743.71
2721.22
2699.54
2678.65
2658.62
2639.47
2621.23
2603.81
2587.17
2571.31
2556.34
2542.01
2528.83
2515
2502.4
2490.83
2479.77
2470.77
2451.44
2790
2790
2790
2790
2790
2790
2790
2790
2790
2790
2790
2790
2790
2790
2790
2790
2790
2790
2790
2790
2790
2790
2790
2790
2790
2790
2790
2790
2790
2790
2790
2790
2790
2790
2790
2790
2790
2790
2790
2790
2790
2790
2790
2790
2790
2790
2790
2790
2790
2790
2790
2790
2790
2790
2790
2790
2790
2790.01
2790.77
2809.8
2928.87
3138.22
3263.26
3296.82
3292.06
3287.26
3280.9
3276.71
3271.42
3265.93
3261.14
3256.59
3252.01
3247.48
3242.55
3236.9
3230.67
3223.79
3216.4
3208.65
3200.13
3190.27
3179.12
3167.34
3155.26
3142.65
3128.98
3114.06
3097.59
3079.81
3060.64
3040.78
3020.08
2998.81
2976.53
2953.53
2929.66
2905.3
2880.5
2855.53
2830.54
2805.71
2781.21
2757.17
2733.71
2710.91
2688.89
2667.7
2647.31
2627.7
2608.96
2591.05
2573.86
2557.58
2541.88
2528.33
2512.73
2499.81
2486.89
2476.35
2454.61
2790
2790
2790
2790
2790
2790
2790
2790
2790
2790
2790
2790
2790
2790
2790
2790
2790
2790
2790
2790
2790
2790
2790
2790
2790
2790
2790
2790
2790
2790
2790
2790
2790
2790
2790
2790
2790
2790
2790
2790
2790
2790
2790
2790
2790
2790
2790
2790
2790
2790
2790
2790
2790
2790
2790
2790
2790
2790
2790.21
2798.19
2876.8
3080.78
3245.51
3304.12
3304.11
3299.92
3293.48
3290.09
3286.42
3282.23
3278.16
3274.13
3270.13
3266.39
3262.42
3257.86
3252.82
3247.17
3240.97
3234.46
3227.41
3219.25
3209.82
3199.59
3188.92
3177.73
3165.59
3152.22
3137.29
3120.82
3102.78
3083.82
3063.91
3043.33
3021.66
2999.18
2975.65
2951.52
2926.75
2901.65
2876.24
2850.74
2825.26
2799.97
2774.99
2750.47
2726.54
2703.22
2680.6
2658.72
2637.67
2617.48
2598.17
2579.62
2561.77
2544.28
2528.88
2512.71
2498.33
2486.14
2461.52
2790
2790
2790
2790
2790
2790
2790
2790
2790
2790
2790
2790
2790
2790
2790
2790
2790
2790
2790
2790
2790
2790
2790
2790
2790
2790
2790
2790
2790
2790
2790
2790
2790
2790
2790
2790
2790
2790
2790
2790
2790
2790
2790
2790
2790
2790
2790
2790
2790
2790
2790
2790
2790
2790
2790
2790
2790
2790
2790.05
2792.83
2837.06
3013.04
3214.28
3302.48
3315.52
3312.15
3306.38
3303.76
3301.39
3298.42
3295.2
3291.71
3288.16
3285.08
3282.1
3278.77
3275.15
3270.99
3266.26
3261.19
3255.73
3249.33
3241.66
3233
3223.78
3214.07
3203.56
3191.91
3178.71
3163.79
3147.14
3129.35
3110.53
3090.97
3070.25
3048.59
3025.71
3002.1
2977.62
2952.64
2927.06
2901.15
2874.94
2848.65
2822.38
2796.3
2770.52
2745.17
2720.37
2696.21
2672.73
2650
2628.16
2607.25
2587.19
2568.68
2548.89
2532.3
2514.54
2500.33
2472.43
2790
2790
2790
2790
2790
2790
2790
2790
2790
2790
2790
2790
2790
2790
2790
2790
2790
2790
2790
2790
2790
2790
2790
2790
2790
2790
2790
2790
2790
2790
2790
2790
2790
2790
2790
2790
2790
2790
2790
2790
2790
2790
2790
2790
2790
2790
2790
2790
2790
2790
2790
2790
2790
2790
2790
2790
2790
2790
2790.01
2790.81
2811.62
2943.04
3168.2
3295.55
3323.36
3322.53
3319.71
3318.2
3316.22
3313.79
3311.34
3308.74
3305.9
3303.53
3301.5
3299.37
3297.14
3294.49
3291.19
3287.44
3283.35
3278.49
3272.42
3265.25
3257.41
3249.13
3240.25
3230.4
3219.09
3206.01
3191.12
3174.96
3157.74
3139.72
3120.54
3100.29
3078.68
3056.2
3032.65
3008.37
2983.19
2957.42
2930.97
2904.14
2876.95
2849.65
2822.36
2795.28
2768.52
2742.21
2716.43
2691.26
2666.79
2642.95
2620.32
2598.23
2578.85
2557.05
2538.05
2521.63
2490.04
2790
2790
2790
2790
2790
2790
2790
2790
2790
2790
2790
2790
2790
2790
2790
2790
2790
2790
2790
2790
2790
2790
2790
2790
2790
2790
2790
2790
2790
2790
2790
2790
2790
2790
2790
2790
2790
2790
2790
2790
2790
2790
2790
2790
2790
2790
2790
2790
2790
2790
2790
2790
2790
2790
2790
2790
2790
2790
2790
2790.19
2798.23
2881.93
3101.68
3277.27
3330.83
3335
3333.35
3332.21
3330.31
3328.37
3326.84
3325.38
3323.61
3322.33
3321.43
3320.4
3319.25
3317.8
3315.82
3313.45
3310.85
3307.68
3303.35
3297.84
3291.52
3284.82
3277.71
3269.82
3260.6
3249.61
3236.8
3222.6
3207.29
3191.13
3173.8
3155.26
3135.26
3114.19
3091.82
3068.51
3044.03
3018.7
2992.37
2965.37
2937.63
2909.53
2881.06
2852.53
2824
2795.74
2767.83
2740.46
2713.71
2687.62
2662.13
2637.44
2613.46
2592.07
2568.66
2549.75
2514.11
2790
2790
2790
2790
2790
2790
2790
2790
2790
2790
2790
2790
2790
2790
2790
2790
2790
2790
2790
2790
2790
2790
2790
2790
2790
2790
2790
2790
2790
2790
2790
2790
2790
2790
2790
2790
2790
2790
2790
2790
2790
2790
2790
2790
2790
2790
2790
2790
2790
2790
2790
2790
2790
2790
2790
2790
2790
2790
2790
2790.04
2792.56
2837.01
3023.81
3242.38
3330.11
3347.17
3346.28
3345.04
3343.34
3342.09
3341.7
3341.38
3340.71
3340.55
3340.74
3340.82
3340.78
3340.54
3339.85
3338.71
3337.29
3335.46
3332.71
3328.86
3324.18
3319.2
3313.98
3308.13
3301.04
3292.26
3281.69
3269.65
3256.48
3242.47
3227.33
3210.95
3193.05
3173.91
3153.31
3131.57
3108.46
3084.24
3058.69
3032.17
3004.56
2976.28
2947.26
2917.91
2888.19
2858.44
2828.67
2799.16
2769.97
2741.38
2713.44
2686.29
2659.71
2634.75
2609.06
2587.49
2547.67
2790
2790
2790
2790
2790
2790
2790
2790
2790
2790
2790
2790
2790
2790
2790
2790
2790
2790
2790
2790
2790
2790
2790
2790
2790
2790
2790
2790
2790
2790
2790
2790
2790
2790
2790
2790
2790
2790
2790
2790
2790
2790
2790
2790
2790
2790
2790
2790
2790
2790
2790
2790
2790
2790
2790
2790
2790
2790
2790
2790.01
2790.65
2809.98
2945.29
3188.45
3323.54
3356.31
3356.8
3357.5
3357.36
3356.62
3356.52
3356.83
3357.2
3358.44
3359.91
3361.06
3361.94
3362.71
3363.22
3363.4
3363.28
3362.87
3361.77
3359.69
3356.75
3353.55
3350.24
3346.47
3341.63
3335.27
3327.24
3317.72
3307.01
3295.4
3282.67
3268.64
3253.06
3236.04
3217.44
3197.56
3176.14
3153.4
3129.14
3103.61
3076.7
3048.76
3019.72
2990.03
2959.6
2928.93
2897.92
2866.97
2836.02
2805.33
2774.96
2745.11
2715.85
2687.74
2659.11
2635.19
2591.17
2790
2790
2790
2790
2790
2790
2790
2790
2790
2790
2790
2790
2790
2790
2790
2790
2790
2790
2790
2790
2790
2790
2790
2790
2790
2790
2790
2790
2790
2790
2790
2790
2790
2790
2790
2790
2790
2790
2790
2790
2790
2790
2790
2790
2790
2790
2790
2790
2790
2790
2790
2790
2790
2790
2790
2790
2790
2790
2790
2790
2790.14
2796.94
2879.01
3113.06
3304.55
3362.65
3367.34
3370.13
3370.8
3370.35
3371.09
3372.42
3373.84
3375.89
3378.06
3379.93
3381.67
3383.52
3385.28
3386.72
3387.84
3388.63
3388.96
3388.63
3387.61
3386.3
3384.91
3383.16
3380.45
3376.45
3370.92
3363.96
3355.78
3346.66
3336.5
3325.1
3312.18
3297.71
3281.61
3264.11
3244.96
3224.35
3202.04
3178.23
3152.81
3126.07
3097.98
3068.89
3038.7
3007.88
2976.22
2944.32
2911.94
2879.63
2847.25
2815.16
2783.35
2752.1
2721.4
2693.41
2645.44
2790
2790
2790
2790
2790
2790
2790
2790
2790
2790
2790
2790
2790
2790
2790
2790
2790
2790
2790
2790
2790
2790
2790
2790
2790
2790
2790
2790
2790
2790
2790
2790
2790
2790
2790
2790
2790
2790
2790
2790
2790
2790
2790
2790
2790
2790
2790
2790
2790
2790
2790
2790
2790
2790
2790
2790
2790
2790
2790
2790
2790.03
2791.96
2833.07
3027.26
3265.63
3362.15
3378.28
3382.59
3382.92
3382.77
3384.6
3387.41
3390.03
3392.86
3395.64
3398.24
3400.86
3403.74
3406.63
3409.23
3411.55
3413.7
3415.53
3416.89
3417.87
3418.57
3419.11
3419.32
3418.72
3417.11
3414.17
3409.88
3404.32
3397.73
3390.18
3381.49
3371.37
3359.65
3346.3
3331.46
3314.91
3296.84
3276.95
3255.41
3232.05
3207.11
3180.55
3152.61
3123.33
3093.06
3061.7
3029.81
2997.04
2964.08
2930.47
2896.98
2863.03
2829.71
2795.97
2764.39
2712.41
2790
2790
2790
2790
2790
2790
2790
2790
2790
2790
2790
2790
2790
2790
2790
2790
2790
2790
2790
2790
2790
2790
2790
2790
2790
2790
2790
2790
2790
2790
2790
2790
2790
2790
2790
2790
2790
2790
2790
2790
2790
2790
2790
2790
2790
2790
2790
2790
2790
2790
2790
2790
2790
2790
2790
2790
2790
2790
2790
2790
2790
2790.46
2807.37
2944.1
3205.71
3355.02
3387.67
3392.43
3393.2
3394.99
3398.73
3402.63
3405.43
3408.31
3411.56
3415.16
3418.96
3423.01
3426.97
3430.59
3433.98
3437.39
3440.74
3443.83
3446.61
3449.16
3451.47
3453.34
3454.57
3455.07
3454.57
3452.86
3449.86
3445.72
3440.73
3434.79
3427.63
3418.91
3408.6
3396.73
3383.19
3368.13
3351.22
3332.64
3312.15
3289.96
3265.93
3240.25
3212.94
3184.15
3153.96
3122.68
3090.16
3057.05
3022.77
2988.45
2953.04
2918.58
2882.24
2848.08
2794.13
2790
2790
2790
2790
2790
2790
2790
2790
2790
2790
2790
2790
2790
2790
2790
2790
2790
2790
2790
2790
2790
2790
2790
2790
2790
2790
2790
2790
2790
2790
2790
2790
2790
2790
2790
2790
2790
2790
2790
2790
2790
2790
2790
2790
2790
2790
2790
2790
2790
2790
2790
2790
2790
2790
2790
2790
2790
2790
2790
2790
2790
2790.1
2795.84
2877.08
3127.44
3334.69
3393.55
3401.15
3404.3
3407.88
3412.2
3416.07
3418.9
3422.46
3426.89
3431.75
3436.56
3441.37
3446.08
3450.62
3455.18
3459.99
3464.97
3469.8
3474.29
3478.49
3482.45
3486
3489.01
3491.42
3493.14
3494
3493.7
3492.04
3489.63
3486.4
3482.24
3476.64
3469.52
3460.78
3450.47
3438.64
3425.02
3409.72
3392.46
3373.41
3352.33
3329.48
3304.78
3278.34
3250.36
3220.83
3189.97
3157.89
3124.43
3090.18
3054.42
3018.85
2980.82
2943.64
2888.29
2790
2790
2790
2790
2790
2790
2790
2790
2790
2790
2790
2790
2790
2790
2790
2790
2790
2790
2790
2790
2790
2790
2790
2790
2790
2790
2790
2790
2790
2790
2790
2790
2790
2790
2790
2790
2790
2790
2790
2790
2790
2790
2790
2790
2790
2790
2790
2790
2790
2790
2790
2790
2790
2790
2790
2790
2790
2790
2790
2790
2790
2790.02
2791.67
2832.53
3040.82
3296.92
3393.32
3409.46
3416.03
3420.35
3423.99
3427.61
3431.16
3436.09
3441.89
3447.69
3453
3458.2
3463.56
3469.16
3475.06
3481.32
3487.77
3494.05
3499.91
3505.41
3510.7
3515.74
3520.41
3524.73
3528.64
3531.71
3533.64
3534.56
3534.74
3534.05
3532.8
3530.41
3526.59
3521.13
3514.25
3505.87
3495.9
3484.32
3470.88
3455.62
3438.25
3419.01
3397.63
3374.33
3349.14
3322.05
3293.4
3263.02
3231.25
3197.94
3163.28
3127.41
3089.95
3049.89
2996.46
2790
2790
2790
2790
2790
2790
2790
2790
2790
2790
2790
2790
2790
2790
2790
2790
2790
2790
2790
2790
2790
2790
2790
2790
2790
2790
2790
2790
2790
2790
2790
2790
2790
2790
2790
2790
2790
2790
2790
2790
2790
2790
2790
2790
2790
2790
2790
2790
2790
2790
2790
2790
2790
2790
2790
2790
2790
2790
2790
2790
2790
2790
2790.43
2808.1
2959.11
3241.5
3387.23
3418.02
3427.11
3430.61
3433.62
3438.08
3443.31
3449.69
3456.22
3462.18
3467.58
3473.27
3479.66
3486.66
3494.01
3501.58
3509.15
3516.45
3523.34
3529.94
3536.48
3543.01
3549.38
3555.53
3561.46
3566.81
3571.08
3574.2
3576.62
3578.64
3580.15
3580.9
3580.47
3578.38
3575.02
3570.1
3563.82
3556.03
3546.52
3535.21
3521.87
3506.62
3489.11
3469.68
3448.07
3424.47
3398.98
3371.5
3342.36
3311.16
3278.37
3243.66
3207.23
3166.98
3113.96
2790
2790
2790
2790
2790
2790
2790
2790
2790
2790
2790
2790
2790
2790
2790
2790
2790
2790
2790
2790
2790
2790
2790
2790
2790
2790
2790
2790
2790
2790
2790
2790
2790
2790
2790
2790
2790
2790
2790
2790
2790
2790
2790
2790
2790
2790
2790
2790
2790
2790
2790
2790
2790
2790
2790
2790
2790
2790
2790
2790
2790
2790
2790.11
2796.89
2893.58
3172.11
3372.74
3425.07
3435.98
3438.85
3442.47
3448.61
3455.34
3462.28
3468.69
3474.57
3480.43
3487.18
3494.98
3503.37
3511.85
3520.2
3528.36
3536.26
3543.95
3551.59
3559.42
3567.48
3575.52
3583.36
3591.03
3598.31
3604.66
3609.88
3614.38
3618.71
3622.92
3626.56
3629.18
3630.53
3630.71
3629.34
3626.81
3622.91
3617.46
3610.4
3601.4
3590.45
3577.25
3562.05
3544.43
3524.81
3502.96
3479.07
3453.24
3425.12
3395.12
3362.79
3328.56
3290.2
3240.12
2790
2790
2790
2790
2790
2790
2790
2790
2790
2790
2790
2790
2790
2790
2790
2790
2790
2790
2790
2790
2790
2790
2790
2790
2790
2790
2790
2790
2790
2790
2790
2790
2790
2790
2790
2790
2790
2790
2790
2790
2790
2790
2790
2790
2790
2790
2790
2790
2790
2790
2790
2790
2790
2790
2790
2790
2790
2790
2790
2790
2790
2790
2790.03
2792.45
2848.47
3096.93
3347.68
3429.4
3442.55
3446.33
3451.61
3459.28
3466.49
3473.07
3479.13
3485.37
3492.34
3500.53
3509.65
3518.95
3527.94
3536.54
3544.97
3553.39
3561.96
3570.8
3580.03
3589.63
3599.25
3608.58
3617.69
3626.58
3634.79
3641.94
3648.39
3654.83
3661.52
3668.08
3673.84
3678.39
3681.67
3683.74
3684.76
3684.76
3683.07
3680.27
3675.6
3669.06
3660.46
3649.74
3636.63
3621.51
3603.94
3584.36
3562.51
3538.33
3511.86
3482.66
3451.2
3415.38
3368.53
2790
2790
2790
2790
2790
2790
2790
2790
2790
2790
2790
2790
2790
2790
2790
2790
2790
2790
2790
2790
2790
2790
2790
2790
2790
2790
2790
2790
2790
2790
2790
2790
2790
2790
2790
2790
2790
2790
2790
2790
2790
2790
2790
2790
2790
2790
2790
2790
2790
2790
2790
2790
2790
2790
2790
2790
2790
2790
2790
2790
2790
2790
2790.01
2790.86
2821.27
3025.6
3312.98
3430.18
3447.53
3454
3460.93
3469.15
3475.89
3481.88
3488.09
3495.34
3503.75
3513.22
3523.12
3532.71
3541.69
3550.35
3559.12
3568.28
3577.92
3588.04
3598.61
3609.54
3620.42
3630.87
3640.99
3651.06
3660.8
3669.72
3677.96
3686.26
3695.11
3704.27
3712.96
3720.59
3726.94
3732.18
3736.38
3739.73
3741.99
3743.17
3742.91
3740.72
3736.82
3730.63
3722.26
3711.75
3698.72
3683.72
3666.21
3646.55
3624.28
3599.22
3571.5
3539.45
3497.27
2790
2790
2790
2790
2790
2790
2790
2790
2790
2790
2790
2790
2790
2790
2790
2790
2790
2790
2790
2790
2790
2790
2790
2790
2790
2790
2790
2790
2790
2790
2790
2790
2790
2790
2790
2790
2790
2790
2790
2790
2790
2790
2790
2790
2790
2790
2790
2790
2790
2790
2790
2790
2790
2790
2790
2790
2790
2790
2790
2790
2790
2790
2790
2790.34
2806.46
2965.53
3271.81
3427.25
3451.66
3461.73
3469.57
3477.47
3483.52
3489.41
3496.4
3504.96
3514.58
3524.75
3534.79
3544.19
3553.03
3561.9
3571.32
3581.48
3592.31
3603.62
3615.26
3627.12
3638.85
3650.05
3660.83
3671.74
3682.8
3693.41
3703.38
3713.37
3724.12
3735.57
3746.89
3757.28
3766.43
3774.46
3781.61
3788.03
3793.67
3798.38
3802
3804.16
3804.9
3803.34
3799.97
3794.29
3786.16
3776.06
3763.22
3748.36
3730.46
3709.86
3686.09
3658.45
3621.77
2790
2790
2790
2790
2790
2790
2790
2790
2790
2790
2790
2790
2790
2790
2790
2790
2790
2790
2790
2790
2790
2790
2790
2790
2790
2790
2790
2790
2790
2790
2790
2790
2790
2790
2790
2790
2790
2790
2790
2790
2790
2790
2790
2790
2790
2790
2790
2790
2790
2790
2790
2790
2790
2790
2790
2790
2790
2790
2790
2790
2790
2790
2790
2790.15
2798.93
2919.9
3228.97
3420.9
3455.35
3469.01
3476.97
3484.18
3489.82
3496.22
3504.37
3514.1
3524.43
3534.66
3544.35
3553.39
3562.24
3571.63
3582
3593.29
3605.21
3617.41
3629.71
3642.05
3654.24
3665.89
3677.11
3688.65
3700.83
3712.99
3724.59
3736.1
3748.4
3761.69
3775.2
3787.95
3799.52
3809.96
3819.57
3828.58
3837.08
3845
3852.13
3858.11
3862.82
3865.82
3867.27
3866.74
3863.49
3858.6
3850.77
3841.15
3828.17
3812.65
3793.16
3770.39
3739.4
2790
2790
2790
2790
2790
2790
2790
2790
2790
2790
2790
2790
2790
2790
2790
2790
2790
2790
2790
2790
2790
2790
2790
2790
2790
2790
2790
2790
2790
2790
2790
2790
2790
2790
2790
2790
2790
2790
2790
2790
2790
2790
2790
2790
2790
2790
2790
2790
2790
2790
2790
2790
2790
2790
2790
2790
2790
2790
2790
2790
2790
2790
2790
2790.07
2795.34
2888.31
3189.87
3412.4
3458.77
3475.43
3483.05
3489.6
3495.19
3502.49
3511.86
3522.45
3532.99
3542.87
3552.01
3560.75
3569.83
3579.95
3591.34
3603.66
3616.37
3629.07
3641.61
3654.07
3666.45
3678.42
3690.05
3702.13
3715.26
3728.83
3741.93
3754.76
3768.27
3782.9
3798.06
3812.72
3826.28
3838.7
3850.25
3861.28
3872.01
3882.47
3892.53
3901.94
3910.38
3917.65
3923.33
3927.41
3929.55
3929.91
3927.39
3923.14
3915.51
3905.46
3890.68
3873.41
3848.31
2790
2790
2790
2790
2790
2790
2790
2790
2790
2790
2790
2790
2790
2790
2790
2790
2790
2790
2790
2790
2790
2790
2790
2790
2790
2790
2790
2790
2790
2790
2790
2790
2790
2790
2790
2790
2790
2790
2790
2790
2790
2790
2790
2790
2790
2790
2790
2790
2790
2790
2790
2790
2790
2790
2790
2790
2790
2790
2790
2790
2790
2790
2790
2790.04
2793.64
2868.62
3159.09
3404.03
3461.85
3480.71
3487.99
3494.18
3500.06
3508.35
3518.69
3529.74
3540.15
3549.53
3558.2
3566.84
3576.3
3587.17
3599.41
3612.42
3625.53
3638.36
3650.84
3663.21
3675.69
3688.02
3700.1
3712.7
3726.63
3741.39
3755.82
3769.75
3784.08
3799.5
3815.73
3831.76
3846.83
3860.71
3873.64
3886.04
3898.26
3910.5
3922.71
3934.74
3946.3
3957.12
3966.87
3975.34
3982.17
3987.35
3990.52
3991.78
3990.26
3985.85
3976.77
3965.62
3946.46
2790
2790
2790
2790
2790
2790
2790
2790
2790
2790
2790
2790
2790
2790
2790
2790
2790
2790
2790
2790
2790
2790
2790
2790
2790
2790
2790
2790
2790
2790
2790
2790
2790
2790
2790
2790
2790
2790
2790
2790
2790
2790
2790
2790
2790
2790
2790
2790
2790
2790
2790
2790
2790
2790
2790
2790
2790
2790
2790
2790
2790
2790
2790
2790.03
2792.88
2859.32
3141.03
3399.55
3464.99
3484.97
3492.04
3498.18
3504.59
3513.78
3524.75
3535.94
3546.08
3555.04
3563.45
3572.18
3582.06
3593.51
3606.28
3619.59
3632.72
3645.39
3657.65
3669.91
3682.53
3695.3
3707.93
3721.03
3735.57
3751.3
3766.83
3781.6
3796.37
3812.08
3828.81
3845.67
3861.73
3876.55
3890.3
3903.45
3916.51
3929.79
3943.4
3957.22
3971.05
3984.56
3997.48
4009.53
4020.49
4030.1
4038.2
4044.4
4048.79
4050.65
4048.72
4044.2
4032.56
2790
2790
2790
2790
2790
2790
2790
2790
2790
2790
2790
2790
2790
2790
2790
2790
2790
2790
2790
2790
2790
2790
2790
2790
2790
2790
2790
2790
2790
2790
2790
2790
2790
2790
2790
2790
2790
2790
2790
2790
2790
2790
2790
2790
2790
2790
2790
2790
2790
2790
2790
2790
2790
2790
2790
2790
2790
2790
2790
2790
2790
2790
2790
2790.03
2792.72
2857.03
3137.05
3399.62
3468.05
3488.34
3495.4
3501.85
3508.96
3518.81
3530.02
3541.07
3550.9
3559.66
3568.09
3577.09
3587.38
3599.18
3612.13
3625.38
3638.26
3650.61
3662.64
3674.85
3687.7
3700.98
3714.18
3727.75
3742.76
3759.16
3775.47
3790.76
3805.64
3821.27
3838
3855.13
3871.63
3886.91
3901.02
3914.47
3927.84
3941.56
3955.83
3970.61
3985.72
4000.91
4015.9
4030.41
4044.24
4057.18
4069.03
4079.51
4088.49
4095.32
4099.95
4101.44
4098.7
2790
2790
2790
2790
2790
2790
2790
2790
2790
2790
2790
2790
2790
2790
2790
2790
2790
2790
2790
2790
2790
2790
2790
2790
2790
2790
2790
2790
2790
2790
2790
2790
2790
2790
2790
2790
2790
2790
2790
2790
2790
2790
2790
2790
2790
2790
2790
2790
2790
2790
2790
2790
2790
2790
2790
2790
2790
2790
2790
2790
2790
2790
2790
2790.03
2792.93
2859.97
3144.25
3404.91
3471.91
3491.21
3498.23
3505.02
3512.82
3523.15
3534.42
3545.28
3554.89
3563.63
3572.28
3581.64
3592.26
3604.24
3617.11
3630.06
3642.54
3654.52
3666.37
3678.64
3691.81
3705.59
3719.32
3733.3
3748.62
3765.37
3782.07
3797.55
3812.26
3827.53
3843.93
3860.96
3877.47
3892.8
3907
3920.58
3934.18
3948.21
3962.79
3977.87
3993.36
4009.1
4024.88
4040.44
4055.61
4070.2
4084.05
4096.97
4108.77
4119.19
4127.82
4133.48
4139.34
2790
2790
2790
2790
2790
2790
2790
2790
2790
2790
2790
2790
2790
2790
2790
2790
2790
2790
2790
2790
2790
2790
2790
2790
2790
2790
2790
2790
2790
2790
2790
2790
2790
2790
2790
2790
2790
2790
2790
2790
2790
2790
2790
2790
2790
2790
2790
2790
2790
2790
2790
2790
2790
2790
2790
2790
2790
2790
2790
2790
2790
2790
2790
2790.05
2793.85
2871.96
3169.03
3417.15
3476.89
3493.82
3500.79
3507.86
3516.15
3526.66
3537.85
3548.54
3558.08
3566.99
3575.97
3585.71
3596.59
3608.6
3621.25
3633.8
3645.85
3657.53
3669.29
3681.72
3695.23
3709.42
3723.51
3737.77
3753.22
3770.01
3786.71
3802.15
3816.79
3831.76
3847.68
3864.05
3879.91
3894.68
3908.33
3921.31
3934.18
3947.37
3961.12
3975.48
3990.4
4005.69
4021.12
4036.41
4051.33
4065.69
4079.25
4091.83
4103.17
4112.93
4120.86
4125.53
4130.05
2790
2790
2790
2790
2790
2790
2790
2790
2790
2790
2790
2790
2790
2790
2790
2790
2790
2790
2790
2790
2790
2790
2790
2790
2790
2790
2790
2790
2790
2790
2790
2790
2790
2790
2790
2790
2790
2790
2790
2790
2790
2790
2790
2790
2790
2790
2790
2790
2790
2790
2790
2790
2790
2790
2790
2790
2790
2790
2790
2790
2790
2790
2790
2790.08
2795.86
2895.45
3206.84
3432.62
3482.18
3496.3
3503.26
3510.44
3518.92
3529.32
3540.32
3550.9
3560.55
3569.76
3579.12
3589.18
3600.2
3612.13
3624.48
3636.61
3648.28
3659.77
3671.57
3684.25
3698.1
3712.57
3726.8
3741.16
3756.69
3773.36
3789.6
3804.21
3817.73
3831.39
3846.05
3861.35
3876.44
3890.61
3903.78
3916.31
3928.69
3941.35
3954.53
3968.29
3982.46
3996.78
4010.95
4024.67
4037.71
4049.77
4060.6
4069.96
4077.53
4083.07
4085.84
4085.46
4080.07
2790
2790
2790
2790
2790
2790
2790
2790
2790
2790
2790
2790
2790
2790
2790
2790
2790
2790
2790
2790
2790
2790
2790
2790
2790
2790
2790
2790
2790
2790
2790
2790
2790
2790
2790
2790
2790
2790
2790
2790
2790
2790
2790
2790
2790
2790
2790
2790
2790
2790
2790
2790
2790
2790
2790
2790
2790
2790
2790
2790
2790
2790
2790
2790.18
2800.39
2932.24
3253.52
3448.59
3487.26
3498.59
3505.67
3512.86
3521.32
3531.36
3542.07
3552.51
3562.34
3571.9
3581.62
3591.93
3603
3614.77
3626.79
3638.55
3649.99
3661.46
3673.43
3686.38
3700.46
3714.98
3729.14
3743.22
3758.22
3774.01
3789.06
3802.5
3815.09
3828.16
3842.35
3857.18
3871.66
3885.19
3897.67
3909.43
3920.93
3932.52
3944.41
3956.61
3968.96
3981.17
3992.95
4003.98
4013.98
4022.66
4029.67
4034.88
4038.08
4038.83
4035.05
4029.72
4016.8
2790
2790
2790
2790
2790
2790
2790
2790
2790
2790
2790
2790
2790
2790
2790
2790
2790
2790
2790
2790
2790
2790
2790
2790
2790
2790
2790
2790
2790
2790
2790
2790
2790
2790
2790
2790
2790
2790
2790
2790
2790
2790
2790
2790
2790
2790
2790
2790
2790
2790
2790
2790
2790
2790
2790
2790
2790
2790
2790
2790
2790
2790
2790
2790.41
2809.46
2983.76
3303.65
3462.74
3491.59
3500.59
3507.99
3515.25
3523.58
3533.1
3543.41
3553.63
3563.56
3573.4
3583.42
3593.92
3605.01
3616.6
3628.33
3639.84
3651.16
3662.65
3674.75
3687.91
3702.11
3716.39
3729.87
3742.99
3757.07
3772
3786.22
3798.85
3810.69
3823.12
3836.62
3850.64
3864.2
3876.74
3888.19
3898.87
3909.18
3919.39
3929.6
3939.81
3949.84
3959.38
3968.17
3975.89
3982.22
3986.89
3989.76
3990.7
3988.83
3984.61
3976.1
3965.88
3948.75
2790
2790
2790
2790
2790
2790
2790
2790
2790
2790
2790
2790
2790
2790
2790
2790
2790
2790
2790
2790
2790
2790
2790
2790
2790
2790
2790
2790
2790
2790
2790
2790
2790
2790
2790
2790
2790
2790
2790
2790
2790
2790
2790
2790
2790
2790
2790
2790
2790
2790
2790
2790
2790
2790
2790
2790
2790
2790
2790
2790
2790
2790
2790.01
2791.09
2826.38
3049.03
3351.86
3473.58
3494.66
3501.81
3509.89
3517.47
3525.7
3534.73
3544.55
3554.46
3564.38
3574.34
3584.57
3595.21
3606.34
3617.84
3629.39
3640.7
3651.92
3663.41
3675.6
3688.82
3702.79
3716.27
3728.66
3741.03
3754.52
3768.67
3781.79
3793.29
3804.16
3815.72
3828.3
3841.29
3853.75
3865.14
3875.41
3884.81
3893.63
3902.1
3910.27
3918.05
3925.28
3931.68
3937.08
3941.17
3943.78
3944.61
3943.34
3940.35
3934.65
3927.01
3916.23
3903.49
3885.12
2790
2790
2790
2790
2790
2790
2790
2790
2790
2790
2790
2790
2790
2790
2790
2790
2790
2790
2790
2790
2790
2790
2790
2790
2790
2790
2790
2790
2790
2790
2790
2790
2790
2790
2790
2790
2790
2790
2790
2790
2790
2790
2790
2790
2790
2790
2790
2790
2790
2790
2790
2790
2790
2790
2790
2790
2790
2790
2790
2790
2790
2790
2790.03
2792.9
2855.37
3123.85
3394.07
3481.07
3496.47
3502.28
3511.11
3519.21
3527.41
3536.14
3545.46
3555.08
3564.91
3574.95
3585.29
3595.9
3606.85
3618
3629.07
3640
3651.03
3662.48
3674.66
3687.71
3701.14
3713.81
3725.44
3737.15
3750.02
3763.27
3775.25
3785.68
3795.67
3806.37
3817.99
3829.83
3841.02
3851.04
3859.84
3867.61
3874.55
3880.83
3886.56
3891.58
3895.75
3898.9
3901.08
3901.84
3900.8
3898.29
3893.95
3888.16
3880.08
3870.44
3859
3845.73
3827.45
2790
2790
2790
2790
2790
2790
2790
2790
2790
2790
2790
2790
2790
2790
2790
2790
2790
2790
2790
2790
2790
2790
2790
2790
2790
2790
2790
2790
2790
2790
2790
2790
2790
2790
2790
2790
2790
2790
2790
2790
2790
2790
2790
2790
2790
2790
2790
2790
2790
2790
2790
2790
2790
2790
2790
2790
2790
2790
2790
2790
2790
2790
2790.12
2797.36
2900.19
3201.34
3427.92
3486.15
3497.44
3502.31
3511.69
3520.18
3528.43
3537.1
3546.12
3555.44
3565.01
3574.91
3585.09
3595.49
3606.17
3617
3627.77
3638.45
3649.3
3660.6
3672.6
3685.35
3698.11
3709.81
3720.48
3731.45
3743.55
3755.72
3766.45
3775.76
3784.82
3794.62
3805.2
3815.8
3825.57
3834.06
3841.21
3847.12
3851.97
3855.92
3859.03
3861.28
3862.53
3862.73
3861.69
3859.46
3855.71
3850.81
3844.31
3836.62
3827.37
3816.98
3805.7
3793
3775.65
2790
2790
2790
2790
2790
2790
2790
2790
2790
2790
2790
2790
2790
2790
2790
2790
2790
2790
2790
2790
2790
2790
2790
2790
2790
2790
2790
2790
2790
2790
2790
2790
2790
2790
2790
2790
2790
2790
2790
2790
2790
2790
2790
2790
2790
2790
2790
2790
2790
2790
2790
2790
2790
2790
2790
2790
2790
2790
2790
2790
2790
2790
2790.39
2807.22
2962.05
3273.88
3452.8
3489.73
3497.9
3502.32
3511.97
3520.67
3528.96
3537.59
3546.33
3555.21
3564.39
3574.04
3584.01
3594.26
3604.7
3615.18
3625.58
3635.97
3646.6
3657.7
3669.48
3681.8
3693.72
3704.3
3713.97
3724.19
3735.5
3746.56
3756.01
3764.13
3772.1
3780.8
3790.13
3799.29
3807.47
3814.25
3819.55
3823.47
3826.09
3827.77
3828.38
3827.93
3826.48
3824.12
3820.57
3816.09
3810.37
3803.82
3796.08
3787.4
3777.83
3767.55
3756.82
3745.1
3729.06
2790
2790
2790
2790
2790
2790
2790
2790
2790
2790
2790
2790
2790
2790
2790
2790
2790
2790
2790
2790
2790
2790
2790
2790
2790
2790
2790
2790
2790
2790
2790
2790
2790
2790
2790
2790
2790
2790
2790
2790
2790
2790
2790
2790
2790
2790
2790
2790
2790
2790
2790
2790
2790
2790
2790
2790
2790
2790
2790
2790
2790
2790.01
2791.25
2826.51
3037.99
3335.76
3469.21
3491.9
3497.7
3502.33
3511.69
3520.3
3528.5
3537.04
3545.68
3554.46
3563.55
3573
3582.75
3592.71
3602.77
3612.83
3622.83
3632.85
3643.09
3653.76
3665.02
3676.58
3687.39
3696.74
3705.44
3714.98
3725.52
3735.47
3743.66
3750.53
3757.27
3764.64
3772.49
3780.05
3786.53
3791.55
3795.03
3797.01
3797.71
3797.2
3795.38
3792.82
3789.15
3784.75
3779.34
3773.26
3766.29
3758.72
3750.4
3741.42
3732
3722.26
3712.31
3701.73
3687.21
2790
2790
2790
2790
2790
2790
2790
2790
2790
2790
2790
2790
2790
2790
2790
2790
2790
2790
2790
2790
2790
2790
2790
2790
2790
2790
2790
2790
2790
2790
2790
2790
2790
2790
2790
2790
2790
2790
2790
2790
2790
2790
2790
2790
2790
2790
2790
2790
2790
2790
2790
2790
2790
2790
2790
2790
2790
2790