/*--------------------------------*- C++ -*----------------------------------*\
| =========                 |                                                 |
| \\      /  F ield         | OpenFOAM: The Open Source CFD Toolbox           |
|  \\    /   O peration     | Version:  2406                                  |
|   \\  /    A nd           | Website:  www.openfoam.com                      |
|    \\/     M anipulation  |                                                 |
\*---------------------------------------------------------------------------*/
FoamFile
{
    version     2.0;
    format      ascii;
    arch        "LSB;label=32;scalar=64";
    class       volScalarField;
    location    "0.001";
    object      T;
}
// * * * * * * * * * * * * * * * * * * * * * * * * * * * * * * * * * * * * * //

dimensions      [0 0 0 1 0 0 0];

internalField   nonuniform List<scalar> 
78650
(
223
223
223
223
223
223
223
223
223
223
223
223
223
223
223
223
223
223
223
223
223
223
223
223
223
223
223
223
223
223
223
223
223
223
223
223
223
223
223
223
223
223
223
223
223
223
223
223
223
223
223
223
223
223
223
223
223.002
223.101
224.253
227.974
231.721
233.275
233.355
233.254
233.013
232.787
232.587
232.379
232.192
232.037
231.879
231.692
231.467
231.228
230.989
230.76
230.534
230.302
230.05
229.762
229.431
229.067
228.687
228.303
227.906
227.495
227.06
226.616
226.164
225.713
225.261
224.809
224.352
223.888
223.412
222.928
222.44
221.955
221.48
221.019
220.576
220.155
219.757
219.379
219.022
218.686
218.37
218.069
217.781
217.505
217.244
216.996
216.763
216.542
216.35
216.153
215.991
215.861
215.793
215.807
215.567
223
223
223
223
223
223
223
223
223
223
223
223
223
223
223
223
223
223
223
223
223
223
223
223
223
223
223
223
223
223
223
223
223
223
223
223
223
223
223
223
223
223
223
223
223
223
223
223
223
223
223
223
223
223
223
223
223.001
223.039
223.708
226.78
230.962
233.166
233.525
233.47
233.299
233.081
232.897
232.703
232.51
232.36
232.222
232.066
231.877
231.669
231.453
231.239
231.028
230.813
230.583
230.325
230.025
229.684
229.322
228.955
228.581
228.193
227.778
227.348
226.9
226.447
225.987
225.527
225.062
224.589
224.102
223.602
223.094
222.584
222.078
221.582
221.102
220.641
220.201
219.782
219.386
219.014
218.663
218.327
218.007
217.701
217.41
217.132
216.868
216.614
216.378
216.19
215.986
215.845
215.736
215.704
215.413
223
223
223
223
223
223
223
223
223
223
223
223
223
223
223
223
223
223
223
223
223
223
223
223
223
223
223
223
223
223
223
223
223
223
223
223
223
223
223
223
223
223
223
223
223
223
223
223
223
223
223
223
223
223
223
223
223
223.013
223.358
225.691
230.072
232.908
233.703
233.692
233.572
233.364
233.195
233.023
232.834
232.683
232.557
232.425
232.27
232.097
231.91
231.715
231.519
231.318
231.106
230.872
230.6
230.288
229.951
229.608
229.259
228.897
228.508
228.099
227.666
227.22
226.761
226.299
225.829
225.35
224.855
224.344
223.82
223.29
222.76
222.236
221.722
221.224
220.744
220.284
219.847
219.433
219.039
218.661
218.301
217.959
217.633
217.32
217.025
216.741
216.499
216.235
216.019
215.847
215.717
215.659
215.317
223
223
223
223
223
223
223
223
223
223
223
223
223
223
223
223
223
223
223
223
223
223
223
223
223
223
223
223
223
223
223
223
223
223
223
223
223
223
223
223
223
223
223
223
223
223
223
223
223
223
223
223
223
223
223
223
223
223.004
223.154
224.71
228.916
232.486
233.836
233.909
233.8
233.631
233.481
233.346
233.174
233.021
232.903
232.792
232.666
232.526
232.37
232.2
232.023
231.838
231.644
231.435
231.194
230.915
230.607
230.292
229.973
229.641
229.282
228.898
228.483
228.049
227.595
227.134
226.661
226.177
225.675
225.155
224.62
224.075
223.525
222.975
222.432
221.899
221.381
220.881
220.402
219.944
219.505
219.085
218.686
218.305
217.939
217.587
217.252
216.935
216.635
216.388
216.117
215.917
215.745
215.652
215.266
223
223
223
223
223
223
223
223
223
223
223
223
223
223
223
223
223
223
223
223
223
223
223
223
223
223
223
223
223
223
223
223
223
223
223
223
223
223
223
223
223
223
223
223
223
223
223
223
223
223
223
223
223
223
223
223
223
223.001
223.058
223.965
227.605
231.876
233.806
234.126
234.013
233.895
233.758
233.652
233.509
233.368
233.257
233.156
233.049
232.936
232.809
232.666
232.512
232.346
232.17
231.983
231.772
231.527
231.254
230.971
230.682
230.381
230.054
229.7
229.313
228.901
228.462
228.011
227.544
227.064
226.562
226.042
225.502
224.95
224.389
223.824
223.26
222.702
222.153
221.618
221.099
220.597
220.113
219.648
219.202
218.774
218.362
217.967
217.592
217.234
216.911
216.582
216.299
216.058
215.848
215.705
215.254
223
223
223
223
223
223
223
223
223
223
223
223
223
223
223
223
223
223
223
223
223
223
223
223
223
223
223
223
223
223
223
223
223
223
223
223
223
223
223
223
223
223
223
223
223
223
223
223
223
223
223
223
223
223
223
223
223
223
223.018
223.47
226.251
230.936
233.63
234.342
234.247
234.151
234.021
233.937
233.83
233.718
233.622
233.53
233.437
233.346
233.246
233.13
233.003
232.861
232.708
232.548
232.37
232.163
231.928
231.679
231.423
231.155
230.863
230.542
230.186
229.8
229.381
228.945
228.489
228.017
227.52
227.004
226.466
225.912
225.346
224.771
224.193
223.615
223.04
222.473
221.917
221.373
220.844
220.333
219.838
219.36
218.898
218.454
218.026
217.621
217.235
216.912
216.551
216.277
216.021
215.841
215.329
223
223
223
223
223
223
223
223
223
223
223
223
223
223
223
223
223
223
223
223
223
223
223
223
223
223
223
223
223
223
223
223
223
223
223
223
223
223
223
223
223
223
223
223
223
223
223
223
223
223
223
223
223
223
223
223
223
223
223.005
223.194
225.046
229.676
233.252
234.495
234.502
234.417
234.286
234.219
234.146
234.062
233.981
233.901
233.821
233.746
233.666
233.574
233.472
233.357
233.231
233.097
232.952
232.782
232.585
232.371
232.147
231.911
231.654
231.37
231.051
230.696
230.306
229.895
229.46
229.008
228.53
228.031
227.506
226.964
226.404
225.833
225.252
224.664
224.073
223.483
222.897
222.317
221.748
221.19
220.646
220.116
219.602
219.105
218.627
218.167
217.729
217.308
216.954
216.598
216.306
216.085
215.5
223
223
223
223
223
223
223
223
223
223
223
223
223
223
223
223
223
223
223
223
223
223
223
223
223
223
223
223
223
223
223
223
223
223
223
223
223
223
223
223
223
223
223
223
223
223
223
223
223
223
223
223
223
223
223
223
223
223
223.001
223.067
224.114
228.166
232.584
234.463
234.741
234.674
234.557
234.505
234.46
234.402
234.34
234.271
234.2
234.14
234.081
234.015
233.943
233.86
233.765
233.663
233.552
233.421
233.262
233.083
232.891
232.689
232.469
232.224
231.944
231.627
231.271
230.888
230.482
230.057
229.605
229.13
228.625
228.101
227.555
226.994
226.415
225.826
225.225
224.619
224.009
223.4
222.794
222.194
221.603
221.023
220.455
219.901
219.364
218.85
218.36
217.915
217.452
217.087
216.71
216.437
215.77
223
223
223
223
223
223
223
223
223
223
223
223
223
223
223
223
223
223
223
223
223
223
223
223
223
223
223
223
223
223
223
223
223
223
223
223
223
223
223
223
223
223
223
223
223
223
223
223
223
223
223
223
223
223
223
223
223
223
223
223.019
223.513
226.578
231.591
234.317
234.905
234.892
234.836
234.808
234.77
234.724
234.678
234.628
234.573
234.527
234.488
234.447
234.405
234.354
234.29
234.216
234.134
234.036
233.912
233.765
233.604
233.433
233.25
233.045
232.808
232.533
232.218
231.874
231.507
231.12
230.707
230.268
229.797
229.304
228.785
228.247
227.685
227.107
226.509
225.898
225.275
224.646
224.012
223.379
222.749
222.125
221.509
220.902
220.307
219.726
219.176
218.647
218.196
217.702
217.297
216.97
216.212
223
223
223
223
223
223
223
223
223
223
223
223
223
223
223
223
223
223
223
223
223
223
223
223
223
223
223
223
223
223
223
223
223
223
223
223
223
223
223
223
223
223
223
223
223
223
223
223
223
223
223
223
223
223
223
223
223
223
223
223.005
223.195
225.166
230.139
233.929
235.06
235.152
235.12
235.1
235.065
235.029
235.002
234.976
234.943
234.919
234.904
234.887
234.867
234.841
234.806
234.761
234.71
234.648
234.562
234.45
234.322
234.186
234.041
233.879
233.688
233.46
233.192
232.894
232.571
232.229
231.86
231.463
231.033
230.577
230.091
229.581
229.043
228.482
227.896
227.29
226.664
226.025
225.374
224.716
224.054
223.392
222.734
222.083
221.441
220.812
220.198
219.609
219.05
218.57
218.058
217.67
216.817
223
223
223
223
223
223
223
223
223
223
223
223
223
223
223
223
223
223
223
223
223
223
223
223
223
223
223
223
223
223
223
223
223
223
223
223
223
223
223
223
223
223
223
223
223
223
223
223
223
223
223
223
223
223
223
223
223
223
223
223.001
223.061
224.113
228.41
233.187
235.045
235.404
235.389
235.368
235.336
235.315
235.311
235.308
235.299
235.299
235.306
235.312
235.315
235.315
235.306
235.287
235.261
235.227
235.174
235.098
235.005
234.905
234.801
234.682
234.538
234.358
234.14
233.89
233.616
233.323
233.005
232.659
232.28
231.872
231.43
230.962
230.461
229.933
229.373
228.787
228.174
227.541
226.887
226.221
225.541
224.856
224.165
223.473
222.783
222.103
221.438
220.797
220.181
219.618
219.055
218.605
217.656
223
223
223
223
223
223
223
223
223
223
223
223
223
223
223
223
223
223
223
223
223
223
223
223
223
223
223
223
223
223
223
223
223
223
223
223
223
223
223
223
223
223
223
223
223
223
223
223
223
223
223
223
223
223
223
223
223
223
223
223
223.015
223.474
226.63
232.031
234.906
235.593
235.609
235.628
235.628
235.617
235.619
235.628
235.64
235.67
235.704
235.732
235.755
235.775
235.791
235.798
235.799
235.795
235.777
235.738
235.681
235.619
235.555
235.481
235.384
235.256
235.093
234.898
234.678
234.439
234.176
233.884
233.558
233.2
232.807
232.385
231.928
231.441
230.917
230.363
229.775
229.16
228.516
227.854
227.17
226.476
225.768
225.055
224.335
223.617
222.905
222.208
221.536
220.905
220.277
219.775
218.734
223
223
223
223
223
223
223
223
223
223
223
223
223
223
223
223
223
223
223
223
223
223
223
223
223
223
223
223
223
223
223
223
223
223
223
223
223
223
223
223
223
223
223
223
223
223
223
223
223
223
223
223
223
223
223
223
223
223
223
223
223.003
223.165
225.099
230.391
234.507
235.725
235.826
235.889
235.907
235.901
235.919
235.951
235.984
236.031
236.079
236.122
236.162
236.204
236.245
236.279
236.306
236.326
236.338
236.334
236.317
236.295
236.271
236.239
236.187
236.108
235.998
235.858
235.693
235.508
235.301
235.067
234.801
234.501
234.167
233.801
233.399
232.964
232.49
231.982
231.436
230.858
230.246
229.609
228.943
228.258
227.549
226.828
226.089
225.346
224.6
223.863
223.142
222.447
221.779
221.185
220.063
223
223
223
223
223
223
223
223
223
223
223
223
223
223
223
223
223
223
223
223
223
223
223
223
223
223
223
223
223
223
223
223
223
223
223
223
223
223
223
223
223
223
223
223
223
223
223
223
223
223
223
223
223
223
223
223
223
223
223
223
223.001
223.047
224.021
228.489
233.684
235.715
236.053
236.146
236.157
236.158
236.199
236.261
236.318
236.381
236.442
236.499
236.557
236.62
236.683
236.74
236.792
236.84
236.882
236.914
236.938
236.957
236.972
236.98
236.971
236.943
236.887
236.802
236.693
236.562
236.41
236.235
236.03
235.791
235.518
235.213
234.871
234.496
234.081
233.629
233.136
232.606
232.039
231.438
230.805
230.145
229.457
228.75
228.018
227.275
226.515
225.76
225.003
224.272
223.546
222.877
221.679
223
223
223
223
223
223
223
223
223
223
223
223
223
223
223
223
223
223
223
223
223
223
223
223
223
223
223
223
223
223
223
223
223
223
223
223
223
223
223
223
223
223
223
223
223
223
223
223
223
223
223
223
223
223
223
223
223
223
223
223
223
223.011
223.412
226.605
232.404
235.567
236.247
236.349
236.369
236.409
236.49
236.574
236.635
236.698
236.768
236.846
236.927
237.014
237.099
237.177
237.25
237.324
237.396
237.463
237.524
237.579
237.631
237.673
237.702
237.716
237.709
237.678
237.622
237.542
237.444
237.327
237.184
237.01
236.803
236.562
236.287
235.979
235.633
235.25
234.825
234.363
233.859
233.318
232.738
232.124
231.475
230.797
230.085
229.355
228.596
227.838
227.063
226.322
225.551
224.834
223.615
223
223
223
223
223
223
223
223
223
223
223
223
223
223
223
223
223
223
223
223
223
223
223
223
223
223
223
223
223
223
223
223
223
223
223
223
223
223
223
223
223
223
223
223
223
223
223
223
223
223
223
223
223
223
223
223
223
223
223
223
223
223.002
223.139
225.055
230.708
235.142
236.368
236.529
236.598
236.675
236.767
236.85
236.911
236.988
237.082
237.185
237.287
237.389
237.488
237.585
237.681
237.783
237.888
237.99
238.085
238.173
238.257
238.333
238.398
238.45
238.489
238.51
238.508
238.479
238.434
238.373
238.292
238.183
238.043
237.869
237.663
237.426
237.151
236.842
236.49
236.1
235.667
235.195
234.681
234.129
233.54
232.914
232.254
231.562
230.838
230.098
229.333
228.584
227.792
227.022
225.798
223
223
223
223
223
223
223
223
223
223
223
223
223
223
223
223
223
223
223
223
223
223
223
223
223
223
223
223
223
223
223
223
223
223
223
223
223
223
223
223
223
223
223
223
223
223
223
223
223
223
223
223
223
223
223
223
223
223
223
223
223
223
223.04
224.009
228.795
234.348
236.364
236.7
236.839
236.931
237.009
237.086
237.162
237.267
237.388
237.51
237.622
237.731
237.844
237.961
238.084
238.214
238.349
238.479
238.601
238.716
238.826
238.931
239.028
239.119
239.201
239.266
239.309
239.332
239.34
239.328
239.307
239.264
239.191
239.085
238.95
238.785
238.588
238.358
238.09
237.783
237.433
237.043
236.608
236.131
235.612
235.051
234.452
233.812
233.14
232.437
231.713
230.975
230.215
229.399
228.247
223
223
223
223
223
223
223
223
223
223
223
223
223
223
223
223
223
223
223
223
223
223
223
223
223
223
223
223
223
223
223
223
223
223
223
223
223
223
223
223
223
223
223
223
223
223
223
223
223
223
223
223
223
223
223
223
223
223
223
223
223
223
223.01
223.43
226.951
233.172
236.238
236.876
237.066
237.141
237.206
237.3
237.411
237.544
237.68
237.805
237.918
238.037
238.17
238.315
238.467
238.623
238.779
238.929
239.071
239.207
239.342
239.476
239.607
239.733
239.855
239.965
240.054
240.12
240.171
240.215
240.25
240.268
240.262
240.225
240.162
240.067
239.946
239.794
239.609
239.386
239.122
238.819
238.47
238.081
237.645
237.167
236.646
236.081
235.479
234.836
234.168
233.473
232.754
231.954
230.841
223
223
223
223
223
223
223
223
223
223
223
223
223
223
223
223
223
223
223
223
223
223
223
223
223
223
223
223
223
223
223
223
223
223
223
223
223
223
223
223
223
223
223
223
223
223
223
223
223
223
223
223
223
223
223
223
223
223
223
223
223
223
223.002
223.164
225.441
231.682
235.938
237.021
237.248
237.31
237.387
237.516
237.656
237.8
237.934
238.056
238.178
238.318
238.479
238.652
238.826
238.997
239.164
239.326
239.483
239.639
239.799
239.963
240.126
240.285
240.441
240.588
240.717
240.824
240.916
241.005
241.092
241.166
241.221
241.252
241.26
241.235
241.188
241.116
241.013
240.877
240.703
240.49
240.232
239.934
239.586
239.197
238.761
238.281
237.759
237.194
236.598
235.969
235.314
234.575
233.554
223
223
223
223
223
223
223
223
223
223
223
223
223
223
223
223
223
223
223
223
223
223
223
223
223
223
223
223
223
223
223
223
223
223
223
223
223
223
223
223
223
223
223
223
223
223
223
223
223
223
223
223
223
223
223
223
223
223
223
223
223
223
223.001
223.058
224.386
230.042
235.416
237.11
237.382
237.463
237.574
237.733
237.883
238.019
238.145
238.275
238.419
238.588
238.775
238.965
239.149
239.324
239.496
239.668
239.842
240.021
240.208
240.401
240.595
240.783
240.966
241.144
241.309
241.453
241.582
241.712
241.846
241.977
242.093
242.185
242.252
242.296
242.319
242.322
242.294
242.243
242.155
242.031
241.867
241.662
241.409
241.116
240.773
240.388
239.957
239.483
238.971
238.42
237.838
237.171
236.242
223
223
223
223
223
223
223
223
223
223
223
223
223
223
223
223
223
223
223
223
223
223
223
223
223
223
223
223
223
223
223
223
223
223
223
223
223
223
223
223
223
223
223
223
223
223
223
223
223
223
223
223
223
223
223
223
223
223
223
223
223
223
223
223.02
223.743
228.458
234.688
237.126
237.485
237.62
237.764
237.934
238.074
238.199
238.327
238.477
238.65
238.843
239.046
239.241
239.424
239.6
239.778
239.964
240.159
240.363
240.575
240.794
241.012
241.221
241.423
241.623
241.817
241.994
242.158
242.323
242.498
242.678
242.85
243
243.126
243.231
243.315
243.383
243.431
243.456
243.454
243.416
243.345
243.23
243.072
242.873
242.625
242.337
242
241.624
241.205
240.747
240.254
239.679
238.869
223
223
223
223
223
223
223
223
223
223
223
223
223
223
223
223
223
223
223
223
223
223
223
223
223
223
223
223
223
223
223
223
223
223
223
223
223
223
223
223
223
223
223
223
223
223
223
223
223
223
223
223
223
223
223
223
223
223
223
223
223
223
223
223.008
223.392
227.101
233.818
237.066
237.569
237.778
237.94
238.104
238.229
238.351
238.496
238.671
238.868
239.075
239.28
239.471
239.65
239.83
240.021
240.226
240.444
240.67
240.903
241.14
241.373
241.596
241.81
242.026
242.244
242.453
242.65
242.846
243.057
243.281
243.502
243.704
243.883
244.039
244.179
244.305
244.416
244.509
244.581
244.628
244.646
244.618
244.558
244.455
244.305
244.117
243.875
243.598
243.27
242.908
242.502
242.028
241.346
223
223
223
223
223
223
223
223
223
223
223
223
223
223
223
223
223
223
223
223
223
223
223
223
223
223
223
223
223
223
223
223
223
223
223
223
223
223
223
223
223
223
223
223
223
223
223
223
223
223
223
223
223
223
223
223
223
223
223
223
223
223
223
223.004
223.213
226.054
232.907
236.937
237.645
237.926
238.091
238.24
238.357
238.489
238.657
238.856
239.066
239.274
239.471
239.654
239.834
240.024
240.233
240.46
240.698
240.942
241.187
241.432
241.674
241.904
242.126
242.354
242.593
242.831
243.058
243.283
243.523
243.781
244.042
244.288
244.512
244.713
244.899
245.073
245.237
245.39
245.528
245.644
245.737
245.798
245.828
245.822
245.768
245.682
245.539
245.364
245.135
244.875
244.56
244.19
243.633
223
223
223
223
223
223
223
223
223
223
223
223
223
223
223
223
223
223
223
223
223
223
223
223
223
223
223
223
223
223
223
223
223
223
223
223
223
223
223
223
223
223
223
223
223
223
223
223
223
223
223
223
223
223
223
223
223
223
223
223
223
223
223
223.002
223.127
225.321
232.068
236.763
237.715
238.057
238.215
238.35
238.466
238.616
238.808
239.024
239.238
239.438
239.624
239.801
239.985
240.189
240.418
240.664
240.918
241.171
241.42
241.667
241.911
242.148
242.377
242.614
242.871
243.136
243.391
243.64
243.902
244.184
244.476
244.758
245.018
245.256
245.477
245.688
245.893
246.092
246.284
246.464
246.625
246.764
246.874
246.955
247.002
247.014
246.971
246.9
246.774
246.62
246.399
246.143
245.71
223
223
223
223
223
223
223
223
223
223
223
223
223
223
223
223
223
223
223
223
223
223
223
223
223
223
223
223
223
223
223
223
223
223
223
223
223
223
223
223
223
223
223
223
223
223
223
223
223
223
223
223
223
223
223
223
223
223
223
223
223
223
223
223.001
223.086
224.861
231.404
236.59
237.778
238.165
238.315
238.443
238.565
238.734
238.945
239.17
239.381
239.571
239.747
239.922
240.113
240.332
240.577
240.837
241.098
241.353
241.6
241.845
242.091
242.333
242.571
242.817
243.089
243.376
243.656
243.926
244.203
244.499
244.811
245.117
245.405
245.669
245.916
246.151
246.383
246.615
246.846
247.073
247.291
247.495
247.68
247.841
247.972
248.072
248.138
248.17
248.158
248.111
247.996
247.862
247.551
223
223
223
223
223
223
223
223
223
223
223
223
223
223
223
223
223
223
223
223
223
223
223
223
223
223
223
223
223
223
223
223
223
223
223
223
223
223
223
223
223
223
223
223
223
223
223
223
223
223
223
223
223
223
223
223
223
223
223
223
223
223
223
223.001
223.069
224.642
231.012
236.497
237.842
238.251
238.397
238.524
238.656
238.844
239.067
239.294
239.499
239.681
239.852
240.028
240.227
240.457
240.712
240.978
241.239
241.49
241.733
241.975
242.223
242.474
242.721
242.977
243.261
243.566
243.867
244.152
244.436
244.738
245.058
245.38
245.685
245.967
246.228
246.477
246.723
246.974
247.23
247.489
247.748
248.001
248.243
248.47
248.675
248.853
249.002
249.125
249.236
249.307
249.316
249.309
249.142
223
223
223
223
223
223
223
223
223
223
223
223
223
223
223
223
223
223
223
223
223
223
223
223
223
223
223
223
223
223
223
223
223
223
223
223
223
223
223
223
223
223
223
223
223
223
223
223
223
223
223
223
223
223
223
223
223
223
223
223
223
223
223
223.001
223.065
224.588
230.925
236.499
237.904
238.319
238.465
238.598
238.744
238.945
239.173
239.397
239.596
239.773
239.944
240.126
240.333
240.569
240.828
241.091
241.347
241.592
241.83
242.07
242.323
242.584
242.842
243.107
243.399
243.717
244.032
244.327
244.614
244.913
245.233
245.559
245.872
246.162
246.429
246.683
246.935
247.193
247.461
247.737
248.019
248.302
248.582
248.853
249.11
249.348
249.564
249.757
249.94
250.116
250.281
250.369
250.339
223
223
223
223
223
223
223
223
223
223
223
223
223
223
223
223
223
223
223
223
223
223
223
223
223
223
223
223
223
223
223
223
223
223
223
223
223
223
223
223
223
223
223
223
223
223
223
223
223
223
223
223
223
223
223
223
223
223
223
223
223
223
223
223.001
223.07
224.657
231.082
236.609
237.983
238.378
238.523
238.663
238.822
239.033
239.261
239.481
239.676
239.853
240.028
240.216
240.43
240.669
240.926
241.183
241.431
241.668
241.903
242.145
242.404
242.674
242.943
243.215
243.513
243.838
244.16
244.458
244.741
245.033
245.346
245.67
245.983
246.273
246.542
246.798
247.054
247.318
247.591
247.873
248.161
248.454
248.748
249.037
249.319
249.587
249.838
250.075
250.309
250.55
250.787
250.964
251.104
223
223
223
223
223
223
223
223
223
223
223
223
223
223
223
223
223
223
223
223
223
223
223
223
223
223
223
223
223
223
223
223
223
223
223
223
223
223
223
223
223
223
223
223
223
223
223
223
223
223
223
223
223
223
223
223
223
223
223
223
223
223
223
223.001
223.091
224.939
231.621
236.862
238.086
238.432
238.576
238.721
238.89
239.104
239.331
239.547
239.74
239.92
240.102
240.298
240.516
240.756
241.008
241.258
241.497
241.728
241.961
242.206
242.472
242.75
243.025
243.303
243.604
243.928
244.25
244.547
244.828
245.115
245.419
245.73
246.031
246.311
246.569
246.814
247.057
247.304
247.562
247.83
248.108
248.393
248.679
248.963
249.24
249.503
249.749
249.979
250.201
250.426
250.649
250.812
250.931
223
223
223
223
223
223
223
223
223
223
223
223
223
223
223
223
223
223
223
223
223
223
223
223
223
223
223
223
223
223
223
223
223
223
223
223
223
223
223
223
223
223
223
223
223
223
223
223
223
223
223
223
223
223
223
223
223
223
223
223
223
223
223
223.002
223.139
225.488
232.437
237.182
238.194
238.484
238.627
238.774
238.947
239.158
239.381
239.595
239.791
239.977
240.165
240.367
240.588
240.827
241.073
241.314
241.546
241.774
242.008
242.258
242.53
242.813
243.091
243.37
243.671
243.994
244.307
244.589
244.849
245.11
245.39
245.681
245.967
246.235
246.485
246.721
246.955
247.193
247.44
247.698
247.962
248.229
248.493
248.749
248.991
249.213
249.408
249.583
249.745
249.904
250.029
250.086
250.02
223
223
223
223
223
223
223
223
223
223
223
223
223
223
223
223
223
223
223
223
223
223
223
223
223
223
223
223
223
223
223
223
223
223
223
223
223
223
223
223
223
223
223
223
223
223
223
223
223
223
223
223
223
223
223
223
223
223
223
223
223
223
223
223.004
223.247
226.341
233.436
237.511
238.299
238.532
238.677
238.825
238.997
239.201
239.418
239.629
239.828
240.02
240.216
240.424
240.646
240.881
241.121
241.355
241.582
241.809
242.046
242.301
242.577
242.861
243.138
243.412
243.704
244.009
244.299
244.558
244.8
245.05
245.322
245.604
245.88
246.136
246.373
246.595
246.812
247.031
247.255
247.484
247.715
247.944
248.165
248.373
248.559
248.718
248.847
248.956
249.052
249.105
249.081
249.068
248.885
223
223
223
223
223
223
223
223
223
223
223
223
223
223
223
223
223
223
223
223
223
223
223
223
223
223
223
223
223
223
223
223
223
223
223
223
223
223
223
223
223
223
223
223
223
223
223
223
223
223
223
223
223
223
223
223
223
223
223
223
223
223
223
223.01
223.463
227.519
234.498
237.8
238.388
238.573
238.726
238.874
239.044
239.238
239.447
239.654
239.854
240.053
240.255
240.466
240.688
240.92
241.153
241.382
241.607
241.835
242.073
242.333
242.611
242.891
243.155
243.41
243.683
243.972
244.246
244.49
244.718
244.957
245.216
245.483
245.742
245.98
246.198
246.401
246.596
246.79
246.983
247.176
247.366
247.546
247.713
247.86
247.979
248.068
248.131
248.16
248.145
248.106
248.007
247.898
247.629
223
223
223
223
223
223
223
223
223
223
223
223
223
223
223
223
223
223
223
223
223
223
223
223
223
223
223
223
223
223
223
223
223
223
223
223
223
223
223
223
223
223
223
223
223
223
223
223
223
223
223
223
223
223
223
223
223
223
223
223
223
223
223
223.026
223.864
228.989
235.51
238.022
238.451
238.6
238.765
238.92
239.088
239.272
239.471
239.672
239.873
240.074
240.28
240.493
240.716
240.945
241.176
241.401
241.624
241.852
242.093
242.353
242.627
242.891
243.132
243.373
243.636
243.91
244.164
244.387
244.597
244.819
245.061
245.31
245.548
245.765
245.961
246.141
246.31
246.471
246.627
246.776
246.915
247.038
247.143
247.224
247.277
247.296
247.278
247.234
247.148
247.045
246.906
246.741
246.438
223
223
223
223
223
223
223
223
223
223
223
223
223
223
223
223
223
223
223
223
223
223
223
223
223
223
223
223
223
223
223
223
223
223
223
223
223
223
223
223
223
223
223
223
223
223
223
223
223
223
223
223
223
223
223
223
223
223
223
223
223
223
223.001
223.069
224.549
230.643
236.389
238.175
238.49
238.611
238.792
238.957
239.124
239.302
239.491
239.686
239.884
240.087
240.295
240.509
240.728
240.952
241.173
241.39
241.609
241.836
242.076
242.332
242.596
242.844
243.072
243.301
243.552
243.81
244.042
244.244
244.438
244.645
244.869
245.096
245.311
245.503
245.673
245.822
245.956
246.078
246.189
246.287
246.37
246.434
246.48
246.498
246.481
246.439
246.364
246.266
246.137
245.997
245.842
245.658
245.347
223
223
223
223
223
223
223
223
223
223
223
223
223
223
223
223
223
223
223
223
223
223
223
223
223
223
223
223
223
223
223
223
223
223
223
223
223
223
223
223
223
223
223
223
223
223
223
223
223
223
223
223
223
223
223
223
223
223
223
223
223
223
223.003
223.175
225.598
232.324
237.089
238.279
238.511
238.613
238.806
238.979
239.147
239.323
239.506
239.696
239.89
240.09
240.294
240.503
240.717
240.933
241.148
241.361
241.576
241.8
242.037
242.289
242.54
242.77
242.979
243.194
243.431
243.668
243.877
244.058
244.234
244.425
244.629
244.834
245.023
245.187
245.326
245.441
245.536
245.615
245.678
245.725
245.753
245.761
245.745
245.709
245.642
245.554
245.437
245.303
245.153
244.998
244.841
244.66
244.359
223
223
223
223
223
223
223
223
223
223
223
223
223
223
223
223
223
223
223
223
223
223
223
223
223
223
223
223
223
223
223
223
223
223
223
223
223
223
223
223
223
223
223
223
223
223
223
223
223
223
223
223
223
223
223
223
223
223
223
223
223
223
223.009
223.41
227.025
233.874
237.601
238.353
238.522
238.615
238.813
238.991
239.16
239.335
239.513
239.693
239.878
240.073
240.274
240.48
240.689
240.899
241.107
241.314
241.525
241.746
241.979
242.222
242.458
242.666
242.857
243.057
243.279
243.495
243.68
243.839
243.995
244.165
244.347
244.525
244.684
244.816
244.921
244.999
245.053
245.09
245.105
245.1
245.077
245.037
244.975
244.895
244.791
244.67
244.529
244.376
244.22
244.065
243.915
243.746
243.465
223
223
223
223
223
223
223
223
223
223
223
223
223
223
223
223
223
223
223
223
223
223
223
223
223
223
223
223
223
223
223
223
223
223
223
223
223
223
223
223
223
223
223
223
223
223
223
223
223
223
223
223
223
223
223
223
223
223
223
223
223
223
223.03
223.867
228.743
235.179
237.937
238.399
238.519
238.617
238.809
238.984
239.152
239.326
239.501
239.679
239.863
240.054
240.251
240.451
240.653
240.855
241.055
241.255
241.459
241.672
241.895
242.124
242.338
242.523
242.695
242.883
243.09
243.285
243.446
243.582
243.715
243.86
244.014
244.162
244.29
244.389
244.46
244.503
244.52
244.514
244.484
244.44
244.374
244.295
244.197
244.086
243.956
243.815
243.662
243.504
243.35
243.205
243.065
242.913
242.658
223
223
223
223
223
223
223
223
223
223
223
223
223
223
223
223
223
223
223
223
223
223
223
223
223
223
223
223
223
223
223
223
223
223
223
223
223
223
223
223
223
223
223
223
223
223
223
223
223
223
223
223
223
223
223
223
223
223
223
223
223
223.001
223.086
224.647
230.588
236.191
238.129
238.416
238.515
238.622
238.803
238.972
239.132
239.299
239.47
239.644
239.826
240.016
240.21
240.405
240.602
240.797
240.99
241.182
241.378
241.58
241.79
242.001
242.191
242.352
242.506
242.681
242.873
243.047
243.184
243.295
243.402
243.517
243.639
243.753
243.846
243.912
243.951
243.961
243.94
243.898
243.836
243.758
243.662
243.556
243.434
243.303
243.16
243.009
242.854
242.7
242.556
242.424
242.3
242.167
241.94
223
223
223
223
223
223
223
223
223
223
223
223
223
223
223
223
223
223
223
223
223
223
223
223
223
223
223
223
223
223
223
223
223
223
223
223
223
223
223
223
223
223
223
223
223
223
223
223
223
223
223
223
223
223
223
223
223
223
223
223
223
223.004
223.224
225.805
232.366
236.92
238.23
238.422
238.506
238.628
238.794
238.956
239.111
239.271
239.436
239.606
239.785
239.969
240.157
240.344
240.531
240.717
240.902
241.086
241.272
241.463
241.659
241.849
242.013
242.149
242.284
242.445
242.618
242.77
242.882
242.968
243.047
243.131
243.218
243.298
243.36
243.398
243.409
243.388
243.34
243.275
243.187
243.087
242.971
242.848
242.713
242.572
242.424
242.272
242.122
241.979
241.849
241.733
241.625
241.51
241.311
223
223
223
223
223
223
223
223
223
223
223
223
223
223
223
223
223
223
223
223
223
223
223
223
223
223
223
223
223
223
223
223
223
223
223
223
223
223
223
223
223
223
223
223
223
223
223
223
223
223
223
223
223
223
223
223
223
223
223
223
223
223.015
223.515
227.311
233.928
237.426
238.272
238.42
238.491
238.618
238.77
238.926
239.078
239.236
239.397
239.564
239.737
239.914
240.092
240.269
240.446
240.623
240.799
240.974
241.149
241.326
241.507
241.677
241.817
241.929
242.046
242.189
242.342
242.468
242.554
242.613
242.663
242.712
242.762
242.807
242.839
242.85
242.832
242.79
242.725
242.644
242.543
242.431
242.307
242.179
242.043
241.902
241.759
241.615
241.476
241.346
241.231
241.13
241.038
240.939
240.765
223
223
223
223
223
223
223
223
223
223
223
223
223
223
223
223
223
223
223
223
223
223
223
223
223
223
223
223
223
223
223
223
223
223
223
223
223
223
223
223
223
223
223
223
223
223
223
223
223
223
223
223
223
223
223
223
223
223
223
223
223.001
223.044
224.046
229.034
235.181
237.755
238.285
238.4
238.466
238.604
238.741
238.889
239.038
239.191
239.35
239.512
239.678
239.845
240.01
240.176
240.343