/*--------------------------------*- C++ -*----------------------------------*\
| =========                 |                                                 |
| \\      /  F ield         | OpenFOAM: The Open Source CFD Toolbox           |
|  \\    /   O peration     | Version:  2412                                  |
|   \\  /    A nd           | Website:  www.openfoam.com                      |
|    \\/     M anipulation  |                                                 |
\*---------------------------------------------------------------------------*/
FoamFile
{
    version     2.0;
    format      ascii;
    arch        "LSB;label=32;scalar=64";
    class       volScalarField;
    location    "0.019";
    object      rho;
}
// * * * * * * * * * * * * * * * * * * * * * * * * * * * * * * * * * * * * * //

dimensions      [1 -3 0 0 0 0 0];

internalField   nonuniform List<scalar> 
9857
(
0.042133
0.042133
0.042133
0.042133
0.042133
0.042133
0.042133
0.042133
0.042133
0.042133
0.042133
0.042133
0.042133
0.042133
0.042133
0.042133
0.042133
0.042133
0.042133
0.042133
0.042133
0.042133
0.042133
0.042133
0.042133
0.0421331
0.042134
0.0421571
0.042133
0.042133
0.042133
0.042133
0.042133
0.042133
0.042133
0.042133
0.042133
0.042133
0.042133
0.042133
0.042133
0.042133
0.042133
0.042133
0.042133
0.042133
0.042133
0.042133
0.042133
0.042133
0.0421331
0.0421349
0.0421697
0.042133
0.042133
0.042133
0.042133
0.042133
0.042133
0.042133
0.042133
0.042133
0.042133
0.042133
0.042133
0.042133
0.042133
0.042133
0.042133
0.042133
0.042133
0.042133
0.042133
0.042133
0.042133
0.0421331
0.0421366
0.0421905
0.042133
0.042133
0.042133
0.042133
0.042133
0.042133
0.042133
0.042133
0.042133
0.042133
0.042133
0.042133
0.042133
0.042133
0.042133
0.042133
0.042133
0.042133
0.042133
0.042133
0.042133
0.042133
0.0421332
0.0421401
0.0422227
0.042133
0.042133
0.042133
0.042133
0.042133
0.042133
0.042133
0.042133
0.042133
0.042133
0.042133
0.042133
0.042133
0.042133
0.042133
0.042133
0.042133
0.042133
0.042133
0.042133
0.042133
0.042133
0.0421335
0.0421465
0.0422678
0.042133
0.042133
0.042133
0.042133
0.042133
0.042133
0.042133
0.042133
0.042133
0.042133
0.042133
0.042133
0.042133
0.042133
0.042133
0.042133
0.042133
0.042133
0.042133
0.042133
0.042133
0.0421331
0.0421341
0.0421573
0.0423262
0.042133
0.042133
0.042133
0.042133
0.042133
0.042133
0.042133
0.042133
0.042133
0.042133
0.042133
0.042133
0.042133
0.042133
0.042133
0.042133
0.042133
0.042133
0.042133
0.042133
0.042133
0.0421331
0.0421354
0.0421746
0.0423981
0.0428511
0.042133
0.042133
0.042133
0.042133
0.042133
0.042133
0.042133
0.042133
0.042133
0.042133
0.042133
0.042133
0.042133
0.042133
0.042133
0.042133
0.042133
0.042133
0.042133
0.042133
0.042133
0.0421332
0.0421378
0.0422006
0.0424816
0.0429459
0.042133
0.042133
0.042133
0.042133
0.042133
0.042133
0.042133
0.042133
0.042133
0.042133
0.042133
0.042133
0.042133
0.042133
0.042133
0.042133
0.042133
0.042133
0.042133
0.042133
0.042133
0.0421333
0.0421423
0.042237
0.0425738
0.0430312
0.0432984
0.042133
0.042133
0.042133
0.042133
0.042133
0.042133
0.042133
0.042133
0.042133
0.042133
0.042133
0.042133
0.042133
0.042133
0.042133
0.042133
0.042133
0.042133
0.042133
0.042133
0.0421331
0.0421337
0.04215
0.0422851
0.0426705
0.0431052
0.0433178
0.042133
0.042133
0.042133
0.042133
0.042133
0.042133
0.042133
0.042133
0.042133
0.042133
0.042133
0.042133
0.042133
0.042133
0.042133
0.042133
0.042133
0.042133
0.042133
0.042133
0.0421331
0.0421345
0.0421626
0.0423454
0.0427677
0.0431661
0.0433302
0.043346
0.042133
0.042133
0.042133
0.042133
0.042133
0.042133
0.042133
0.042133
0.042133
0.042133
0.042133
0.042133
0.042133
0.042133
0.042133
0.042133
0.042133
0.042133
0.042133
0.042133
0.0421331
0.042136
0.0421816
0.0424167
0.0428612
0.0432147
0.0433359
0.0433297
0.042133
0.042133
0.042133
0.042133
0.042133
0.042133
0.042133
0.042133
0.042133
0.042133
0.042133
0.042133
0.042133
0.042133
0.042133
0.042133
0.042133
0.042133
0.042133
0.042133
0.0421332
0.0421389
0.0422087
0.0424972
0.0429471
0.0432489
0.0433368
0.0433133
0.0431776
0.0430066
0.0428942
0.0428516
0.0428663
0.0430177
0.0432944
0.0434991
0.0435676
0.0435654
0.0435545
0.043557
0.0435912
0.043655
0.0437096
0.0437412
0.0437605
0.0437802
0.043806
0.0438391
0.0438789
0.0439251
0.0439779
0.0440361
0.0440963
0.0441554
0.0442127
0.0442692
0.0443266
0.0443858
0.0444474
0.0445116
0.042133
0.042133
0.042133
0.042133
0.042133
0.042133
0.042133
0.042133
0.042133
0.042133
0.042133
0.042133
0.042133
0.042133
0.042133
0.042133
0.042133
0.042133
0.042133
0.042133
0.0421334
0.0421438
0.0422453
0.0425838
0.0430238
0.0432727
0.0433319
0.0432916
0.0431308
0.0429645
0.0428737
0.0428458
0.0428896
0.0430949
0.0433695
0.0435289
0.0435731
0.0435655
0.0435539
0.0435638
0.0436075
0.0436705
0.0437182
0.0437454
0.043764
0.0437847
0.0438116
0.0438457
0.0438864
0.0439342
0.0439889
0.0440484
0.0441088
0.0441672
0.0442234
0.0442789
0.0443353
0.0443935
0.0444542
0.0445177
0.042133
0.042133
0.042133
0.042133
0.042133
0.042133
0.042133
0.042133
0.042133
0.042133
0.042133
0.042133
0.042133
0.042133
0.042133
0.042133
0.042133
0.042133
0.042133
0.0421331
0.0421338
0.0421519
0.0422921
0.042673
0.0430885
0.0432882
0.0433223
0.0432597
0.043086
0.0429294
0.0428586
0.0428455
0.042927
0.0431755
0.0434315
0.0435493
0.0435746
0.0435654
0.0435559
0.0435724
0.0436233
0.0436833
0.0437247
0.0437488
0.0437672
0.0437889
0.043817
0.043852
0.0438939
0.0439434
0.0439998
0.0440602
0.0441204
0.044178
0.0442331
0.0442875
0.044343
0.0444003
0.0444602
0.044523
0.042133
0.042133
0.042133
0.042133
0.042133
0.042133
0.042133
0.042133
0.042133
0.042133
0.042133
0.042133
0.042133
0.042133
0.042133
0.042133
0.042133
0.042133
0.042133
0.0421331
0.0421347
0.0421643
0.0423488
0.0427613
0.0431429
0.0432965
0.0433079
0.04322
0.0430413
0.0429013
0.042848
0.0428527
0.0429806
0.0432552
0.0434798
0.0435633
0.0435732
0.0435643
0.04356
0.0435829
0.0436377
0.0436934
0.0437296
0.0437514
0.0437701
0.043793
0.0438222
0.0438583
0.0439016
0.0439527
0.0440106
0.0440714
0.044131
0.0441875
0.0442415
0.044295
0.0443496
0.0444061
0.0444653
0.0445274
0.042133
0.042133
0.042133
0.042133
0.042133
0.042133
0.042133
0.042133
0.042133
0.042133
0.042133
0.042133
0.042133
0.042133
0.042133
0.042133
0.042133
0.042133
0.042133
0.0421331
0.0421362
0.0421824
0.0424145
0.0428455
0.0431847
0.0433002
0.0432905
0.0431744
0.0429977
0.0428801
0.0428409
0.0428692
0.0430486
0.0433287
0.0435144
0.0435719
0.043571
0.0435626
0.0435651
0.0435947
0.0436509
0.0437013
0.0437331
0.0437536
0.0437729
0.0437969
0.0438273
0.0438646
0.0439094
0.0439621
0.044021
0.0440818
0.0441406
0.0441959
0.0442489
0.0443015
0.0443553
0.0444111
0.0444696
0.0445311
0.042133
0.042133
0.042133
0.042133
0.042133
0.042133
0.042133
0.042133
0.042133
0.042133
0.042133
0.042133
0.042133
0.042133
0.042133
0.042133
0.042133
0.042133
0.042133
0.0421332
0.0421388
0.0422073
0.0424874
0.042923
0.043215
0.0432998
0.0432714
0.0431262
0.0429564
0.0428643
0.0428385
0.0428979
0.0431247
0.0433941
0.0435382
0.0435754
0.0435696
0.0435611
0.0435699
0.043607
0.0436625
0.0437075
0.0437357
0.0437554
0.0437754
0.0438007
0.0438324
0.0438711
0.0439174
0.0439715
0.0440309
0.0440913
0.044149
0.0442031
0.0442551
0.0443069
0.04436
0.0444152
0.0444731
0.0445339
0.042133
0.042133
0.042133
0.042133
0.042133
0.042133
0.042133
0.042133
0.042133
0.042133
0.042133
0.042133
0.042133
0.042133
0.042133
0.042133
0.042133
0.042133
0.042133
0.0421334
0.0421433
0.04224
0.0425649
0.0429911
0.0432361
0.0432932
0.043248
0.0430796
0.0429199
0.0428519
0.0428424
0.0429409
0.0432012
0.0434461
0.0435538
0.0435762
0.0435689
0.0435615
0.0435755
0.0436185
0.0436721
0.0437122
0.0437377
0.0437569
0.0437779
0.0438044
0.0438375
0.0438778
0.0439256
0.0439806
0.0440402
0.0440998
0.0441564
0.0442093
0.0442604
0.0443114
0.0443639
0.0444184
0.0444757
0.0445361
0.042133
0.042133
0.042133
0.042133
0.042133
0.042133
0.042133
0.042133
0.042133
0.042133
0.042133
0.042133
0.042133
0.042133
0.042133
0.042133
0.042133
0.042133
0.0421331
0.0421337
0.0421502
0.0422809
0.0426443
0.0430505
0.0432494
0.0432825
0.0432157
0.0430361
0.0428911
0.0428412
0.0428533
0.0429983
0.043275
0.0434861
0.0435636
0.0435747
0.0435677
0.0435634
0.0435821
0.0436287
0.0436797
0.0437157
0.0437392
0.0437583
0.0437802
0.0438082
0.0438429
0.0438847
0.0439338
0.0439895
0.0440488
0.0441074
0.0441627
0.0442145
0.0442647
0.0443151
0.0443669
0.0444209
0.0444777
0.0445374
0.042133
0.042133
0.042133
0.042133
0.042133
0.042133
0.042133
0.042133
0.042133
0.042133
0.042133
0.042133
0.042133
0.042133
0.042133
0.042133
0.042133
0.042133
0.0421331
0.0421344
0.0421605
0.0423298
0.042723
0.0430993
0.0432567
0.0432682
0.0431765
0.0429954
0.0428706
0.042835
0.0428727
0.0430663
0.0433417
0.0435153
0.0435692
0.0435719
0.0435662
0.0435665
0.0435895
0.0436378
0.0436855
0.0437182
0.0437403
0.0437596
0.0437826
0.0438121
0.0438485
0.0438918
0.0439419
0.0439978
0.0440566
0.0441141
0.044168
0.0442188
0.0442682
0.0443179
0.0443691
0.0444226
0.0444788
0.0445381
0.042133
0.042133
0.042133
0.042133
0.042133
0.042133
0.042133
0.042133
0.042133
0.042133
0.042133
0.042133
0.042133
0.042133
0.042133
0.042133
0.042133
0.042133
0.0421331
0.0421356
0.0421751
0.0423859
0.0427986
0.0431387
0.0432588
0.0432501
0.0431327
0.0429577
0.0428565
0.0428336
0.0429035
0.0431384
0.0433997
0.0435358
0.0435713
0.0435691
0.043564
0.0435693
0.0435975
0.0436459
0.0436899
0.04372
0.0437412
0.0437609
0.0437851
0.0438162
0.0438544
0.043899
0.0439498
0.0440056
0.0440635
0.0441197
0.0441725
0.0442222
0.0442708
0.0443199
0.0443706
0.0444236
0.0444794
0.044538
0.042133
0.042133
0.042133
0.042133
0.042133
0.042133
0.042133
0.042133
0.042133
0.042133
0.042133
0.042133
0.042133
0.042133
0.042133
0.042133
0.042133
0.042133
0.0421332
0.0421375
0.0421949
0.0424481
0.0428683
0.0431675
0.0432578
0.0432313
0.0430864
0.0429228
0.0428469
0.0428388
0.0429466
0.0432084
0.0434453
0.0435494
0.0435718
0.0435675
0.0435625
0.0435718
0.043605
0.043653
0.0436935
0.0437213
0.0437419
0.0437621
0.0437878
0.0438207
0.0438605
0.0439062
0.0439573
0.0440127
0.0440696
0.0441246
0.0441761
0.0442249
0.0442727
0.0443212
0.0443714
0.044424
0.0444792
0.0445372
0.042133
0.042133
0.042133
0.042133
0.042133
0.042133
0.042133
0.042133
0.042133
0.042133
0.042133
0.042133
0.042133
0.042133
0.042133
0.042133
0.042133
0.042133
0.0421333
0.0421406
0.0422205
0.0425143
0.0429317
0.0431881
0.0432518
0.043209
0.0430417
0.0428929
0.0428387
0.0428515
0.043002
0.0432749
0.04348
0.0435575
0.0435707
0.0435658
0.0435619
0.0435745
0.0436117
0.043659
0.0436965
0.0437224
0.0437425
0.0437634
0.0437906
0.0438255
0.0438669
0.0439133
0.0439643
0.0440191
0.0440749
0.0441286
0.0441789
0.0442268
0.0442739
0.0443219
0.0443717
0.0444236
0.0444783
0.0445357
0.042133
0.042133
0.042133
0.042133
0.042133
0.042133
0.042133
0.042133
0.042133
0.042133
0.042133
0.042133
0.042133
0.042133
0.042133
0.042133
0.042133
0.042133
0.0421335
0.0421454
0.0422523
0.0425828
0.0429864
0.0432019
0.0432425
0.0431792
0.0430019
0.0428706
0.0428336
0.0428719
0.0430661
0.0433347
0.0435055
0.0435619
0.0435684
0.0435639
0.0435619
0.0435776
0.0436178
0.0436641
0.0436991
0.0437233
0.043743
0.0437648
0.0437937
0.0438305
0.0438733
0.0439202
0.0439708
0.0440248
0.0440794
0.0441319
0.0441811
0.0442281
0.0442746
0.0443221
0.0443712
0.0444227
0.0444769
0.0445336
0.042133
0.042133
0.042133
0.042133
0.042133
0.042133
0.042133
0.042133
0.042133
0.042133
0.042133
0.042133
0.042133
0.042133
0.042133
0.042133
0.042133
0.0421331
0.0421339
0.0421524
0.0422904
0.0426515
0.043034
0.0432093
0.0432296
0.0431438
0.0429662
0.0428555
0.0428325
0.0429017
0.0431329
0.0433869
0.043524
0.0435633
0.0435649
0.0435615
0.0435621
0.043581
0.0436235
0.0436685
0.0437013
0.043724
0.0437435
0.0437662
0.0437971
0.0438359
0.0438798
0.0439267
0.0439767
0.0440297
0.0440832
0.0441344
0.0441827
0.0442288
0.0442748
0.0443215
0.0443701
0.0444211
0.0444749
0.0445309
0.042133
0.042133
0.042133
0.042133
0.042133
0.042133
0.042133
0.042133
0.042133
0.042133
0.042133
0.042133
0.042133
0.042133
0.042133
0.042133
0.042133
0.0421331
0.0421345
0.0421622
0.0423343
0.0427185
0.0430729
0.0432123
0.0432129
0.0431048
0.0429343
0.042846
0.042837
0.0429415
0.0431969
0.0434285
0.0435369
0.0435635
0.043562
0.0435589
0.0435623
0.043585
0.0436291
0.0436725
0.0437032
0.0437245
0.0437439
0.0437679
0.0438008
0.0438414
0.0438861
0.0439327
0.0439819
0.0440339
0.0440863
0.0441365
0.0441837
0.0442292
0.0442744
0.0443205
0.0443686
0.0444191
0.0444723
0.0445277
0.042133
0.042133
0.042133
0.042133
0.042133
0.042133
0.042133
0.042133
0.042133
0.042133
0.042133
0.042133
0.042133
0.042133
0.042133
0.042133
0.042133
0.0421331
0.0421356
0.0421753
0.0423833
0.0427824
0.0431035
0.0432124
0.0431944
0.0430633
0.0429063
0.04284
0.0428486
0.0429911
0.0432568
0.0434604
0.0435445
0.0435625
0.0435594
0.0435565
0.0435627
0.0435894
0.0436345
0.0436759
0.0437045
0.0437247
0.0437442
0.0437697
0.0438048
0.043847
0.0438921
0.0439381
0.0439865
0.0440375
0.0440888
0.0441379
0.0441842
0.0442289
0.0442734
0.044319
0.0443666
0.0444166
0.0444692
0.0445238
0.042133
0.042133
0.042133
0.042133
0.042133
0.042133
0.042133
0.042133
0.042133
0.042133
0.042133
0.042133
0.042133
0.042133
0.042133
0.042133
0.042133
0.0421332
0.0421373
0.0421924
0.0424366
0.042841
0.0431261
0.043209
0.0431743
0.0430227
0.0428835
0.0428366
0.0428671
0.0430483
0.0433105
0.0434838
0.0435485
0.0435605
0.0435571
0.0435547
0.0435634
0.0435941
0.0436395
0.0436787
0.0437052
0.0437246
0.0437447
0.0437718
0.0438091
0.0438526
0.0438978
0.043943
0.0439904
0.0440405
0.0440908
0.0441389
0.0441844
0.0442283
0.0442722
0.0443171
0.0443642
0.0444137
0.0444657
0.0445195
0.042133
0.042133
0.042133
0.042133
0.042133
0.042133
0.042133
0.042133
0.042133
0.042133
0.042133
0.042133
0.042133
0.042133
0.042133
0.042133
0.042133
0.0421332
0.0421398
0.0422138
0.0424926
0.0428945
0.0431425
0.043201
0.0431513
0.0429862
0.042866
0.0428358
0.0428931
0.0431084
0.043358
0.0435006
0.0435496
0.0435575
0.0435546
0.0435534
0.0435647
0.0435987
0.043644
0.0436808
0.0437054
0.0437244
0.0437452
0.0437744
0.0438137
0.0438582
0.043903
0.0439474
0.0439938
0.0440429
0.0440923
0.0441394
0.0441841
0.0442273
0.0442705
0.0443149
0.0443613
0.0444103
0.0444617
0.0445147
0.0445686
0.0446229
0.0446781
0.0447343
0.0447916
0.0448498
0.0449084
0.0449673
0.0450262
0.0450851
0.0451439
0.0452026
0.045261
0.0453191
0.0453764
0.0454327
0.0454878
0.0455414
0.0455933
0.0456431
0.0456905
0.0457352
0.045777
0.0458155
0.0458505
0.0458818
0.0459093
0.0459327
0.045952
0.0459671
0.0459779
0.0459845
0.0459872
0.045986
0.0459802
0.0459708
0.0459577
0.0459413
0.0459217
0.042133
0.042133
0.042133
0.042133
0.042133
0.042133
0.042133
0.042133
0.042133
0.042133
0.042133
0.042133
0.042133
0.042133
0.042133
0.042133
0.042133
0.0421334
0.0421435
0.0422397
0.0425501
0.042941
0.0431534
0.0431911
0.0431229
0.0429549
0.042854
0.0428387
0.042927
0.0431663
0.0433968
0.0435128
0.0435497
0.0435546
0.0435522
0.0435524
0.0435664
0.0436031
0.0436477
0.0436823
0.0437054
0.043724
0.043746
0.0437773
0.0438185
0.0438636
0.0439078
0.0439511
0.0439966
0.0440449
0.0440933
0.0441396
0.0441834
0.0442259
0.0442685
0.0443123
0.0443582
0.0444065
0.0444572
0.0445094
0.0445623
0.0446156
0.0446696
0.0447246
0.0447806
0.0448372
0.0448942
0.0449513
0.0450083
0.0450651
0.0451217
0.0451781
0.0452341
0.0452896
0.0453442
0.0453977
0.0454499
0.0455004
0.0455491
0.0455956
0.0456396
0.0456809
0.0457191
0.045754
0.0457854
0.0458132
0.0458371
0.045857
0.0458729
0.0458846
0.0458921
0.0458959
0.0458959
0.0458914
0.0458831
0.0458714
0.0458563
0.0458381
0.0458167
0.045793
0.045766
0.0457379
0.0457067
0.0456753
0.0456417
0.0456078
0.0455728
0.0455366
0.0455006
0.042133
0.042133
0.042133
0.042133
0.042133
0.042133
0.042133
0.042133
0.042133
0.042133
0.042133
0.042133
0.042133
0.042133
0.042133
0.042133
0.0421331
0.0421337
0.0421487
0.0422701
0.0426078
0.042982
0.0431589
0.0431783
0.043091
0.0429279
0.0428472
0.0428474
0.0429684
0.0432204
0.0434273
0.0435208
0.043549
0.0435517
0.0435498
0.0435515
0.0435684
0.0436072
0.0436507
0.0436832
0.0437051
0.0437238
0.0437471
0.0437806
0.0438235
0.0438687
0.043912
0.0439543
0.0439989
0.0440464
0.044094
0.0441395
0.0441824
0.0442242
0.0442661
0.0443093
0.0443546
0.0444024
0.0444524
0.0445037
0.0445556
0.0446078
0.0446606
0.0447144
0.044769
0.0448241
0.0448794
0.0449347
0.0449896
0.0450444
0.0450988
0.0451528
0.0452064
0.0452593
0.0453112
0.0453619
0.0454111
0.0454585
0.045504
0.0455472
0.0455879
0.0456257
0.0456604
0.0456918
0.0457197
0.0457439
0.0457644
0.0457808
0.0457933
0.0458018
0.0458065
0.0458075
0.0458044
0.0457972
0.0457867
0.0457728
0.0457557
0.0457357
0.0457127
0.0456877
0.0456595
0.0456305
0.0455986
0.0455667
0.0455329
0.0454986
0.0454636
0.0454274
0.0453916
0.0453551
0.0453188
0.0452829
0.045247
0.0452115
0.045176
0.0451406
0.0451054
0.0450707
0.045036
0.0449997
0.0449535
0.042133
0.042133
0.042133
0.042133
0.042133
0.042133
0.042133
0.042133
0.042133
0.042133
0.042133
0.042133
0.042133
0.042133
0.042133
0.042133
0.0421331
0.0421341
0.0421558
0.0423048
0.0426643
0.0430161
0.0431608
0.0431625
0.0430578
0.0429059
0.0428435
0.0428616
0.0430164
0.0432688
0.0434503
0.0435259
0.0435476
0.043549
0.0435474
0.0435506
0.0435706
0.0436111
0.0436532
0.0436837
0.0437046
0.0437237
0.0437487
0.0437843
0.0438284
0.0438734
0.0439157
0.0439569
0.0440008
0.0440475
0.0440943
0.0441389
0.0441812
0.0442223
0.0442636
0.0443061
0.0443508
0.044398
0.0444473
0.0444976
0.0445484
0.0445995
0.0446512
0.0447038
0.044757
0.0448105
0.0448641
0.0449175
0.0449705
0.045023
0.0450752
0.0451269
0.045178
0.0452283
0.0452775
0.0453254
0.0453716
0.045416
0.0454583
0.0454982
0.0455355
0.04557
0.0456013
0.0456292
0.0456537
0.0456745
0.0456915
0.0457047
0.045714
0.0457195
0.0457214
0.0457194
0.0457133
0.0457039
0.0456911
0.0456751
0.0456561
0.0456345
0.04561
0.0455838
0.0455545
0.0455247
0.0454921
0.0454597
0.0454255
0.045391
0.0453559
0.0453197
0.0452839
0.0452477
0.0452117
0.0451762
0.0451407
0.0451057
0.0450707
0.0450359
0.0450014
0.0449673
0.0449332
0.0448977
0.0448525
0.042133
0.042133
0.042133
0.042133
0.042133
0.042133
0.042133
0.042133
0.042133
0.042133
0.042133
0.042133
0.042133
0.042133
0.042133
0.042133
0.0421331
0.0421348
0.0421651
0.0423433
0.0427188
0.0430439
0.0431604
0.043145
0.043024
0.0428887
0.0428426
0.0428812
0.0430682
0.0433124
0.0434675
0.0435285
0.0435455
0.0435463
0.043545
0.0435499
0.0435729
0.0436146
0.0436553
0.0436839
0.0437041
0.0437239
0.0437506
0.0437883
0.0438333
0.0438777
0.0439188
0.0439591
0.0440023
0.0440483
0.0440944
0.0441381
0.0441796
0.0442201
0.0442607
0.0443027
0.0443468
0.0443933
0.0444418
0.0444912
0.0445409
0.0445909
0.0446414
0.0446927
0.0447445
0.0447965
0.0448483
0.0448997
0.0449507
0.0450011
0.045051
0.0451004
0.045149
0.0451967
0.0452431
0.0452881
0.0453314
0.0453727
0.0454118
0.0454485
0.0454826
0.0455136
0.0455415
0.0455661
0.0455872
0.0456047
0.0456184
0.0456284
0.0456346
0.0456373
0.0456364
0.0456314
0.0456229
0.0456111
0.0455961
0.0455782
0.0455575
0.0455343
0.0455084
0.045481
0.0454507
0.04542
0.045387
0.045354
0.0453196
0.0452848
0.0452496
0.0452135
0.0451778
0.0451419
0.0451061
0.045071
0.0450359
0.0450013
0.0449668
0.0449325
0.0448985
0.044865
0.0448316
0.0447968
0.0447526
0.042133
0.042133
0.042133
0.042133
0.042133
0.042133
0.042133
0.042133
0.042133
0.042133
0.042133
0.042133
0.042133
0.042133
0.042133
0.042133
0.0421331
0.0421357
0.0421768
0.042385
0.0427695
0.043065
0.0431575
0.0431271
0.0429916
0.0428751
0.0428441
0.0429071
0.0431191
0.0433493
0.0434804
0.0435296
0.0435433
0.0435435
0.0435427
0.0435495
0.0435754
0.043618
0.043657
0.0436839
0.0437036
0.0437242
0.0437529
0.0437924
0.0438379
0.0438815
0.0439215
0.0439608
0.0440034
0.0440487
0.0440941
0.0441371
0.0441779
0.0442177
0.0442577
0.044299
0.0443425
0.0443883
0.0444359
0.0444844
0.044533
0.0445819
0.0446312
0.0446812
0.0447315
0.0447819
0.044832
0.0448815
0.0449304
0.0449786
0.0450263
0.0450733
0.0451194
0.0451644
0.0452082
0.0452503
0.0452906
0.0453289
0.0453649
0.0453984
0.0454292
0.045457
0.0454816
0.0455028
0.0455206
0.0455349
0.0455454
0.0455523
0.0455557
0.0455557
0.0455516
0.045544
0.0455332
0.0455192
0.0455021
0.0454824
0.0454599
0.0454353
0.045408
0.0453796
0.0453483
0.0453169
0.0452833
0.0452499
0.0452152
0.0451801
0.0451448
0.0451086
0.045073
0.0450373
0.0450017
0.0449668
0.0449321
0.0448978
0.0448637
0.0448299
0.0447964
0.0447633
0.0447304
0.0446961
0.0446526
0.042133
0.042133
0.042133
0.042133
0.042133
0.042133
0.042133
0.042133
0.042133
0.042133
0.042133
0.042133
0.042133
0.042133
0.042133
0.042133
0.0421331
0.0421372
0.0421914
0.0424292
0.0428165
0.0430809
0.043151
0.0431083
0.0429625
0.0428652
0.0428492
0.0429389
0.0431676
0.0433796
0.0434897
0.0435297
0.0435407
0.0435408
0.0435404
0.0435493
0.043578
0.0436211
0.0436584
0.0436837
0.0437031
0.0437249
0.0437554
0.0437966
0.0438422
0.0438849
0.0439237
0.0439622
0.0440041
0.0440489
0.0440935
0.0441358
0.044176
0.0442151
0.0442545
0.0442951
0.0443379
0.044383
0.0444298
0.0444773
0.0445248
0.0445725
0.0446207
0.0446693
0.0447182
0.0447669
0.0448151
0.0448627
0.0449095
0.0449556
0.045001
0.0450456
0.0450892
0.0451316
0.0451726
0.0452119
0.0452493
0.0452845
0.0453174
0.0453477
0.0453753
0.0453998
0.0454212
0.0454392
0.0454538
0.0454648
0.0454723
0.0454763
0.0454771
0.0454739
0.0454671
0.0454572
0.0454441
0.045428
0.045409
0.0453875
0.0453634
0.0453374
0.0453089
0.0452793
0.0452472
0.0452151
0.045181
0.0451471
0.0451122
0.0450768
0.0450414
0.0450052
0.0449696
0.0449341
0.0448988
0.0448641
0.0448297
0.0447957
0.044762
0.0447285
0.0446954
0.0446627
0.0446301
0.0445961
0.044553
0.042133
0.042133
0.042133
0.042133
0.042133
0.042133
0.042133
0.042133
0.042133
0.042133
0.042133
0.042133
0.042133
0.042133
0.042133
0.042133
0.0421332
0.0421393
0.042209
0.042475
0.0428586
0.0430923
0.0431423
0.0430865
0.042938
0.0428588
0.0428589
0.0429757
0.0432114
0.0434034
0.0434964
0.0435293
0.0435381
0.043538
0.0435384
0.0435494
0.0435807
0.0436238
0.0436594
0.0436834
0.0437028
0.0437257
0.0437582
0.0438007
0.0438461
0.0438878
0.0439255
0.0439632
0.0440046
0.0440489
0.0440927
0.0441344
0.0441739
0.0442124
0.0442511
0.0442911
0.0443332
0.0443776
0.0444235
0.0444699
0.0445164
0.0445629
0.0446098
0.0446571
0.0447044
0.0447515
0.0447979
0.0448435
0.0448883
0.0449322
0.0449752
0.0450174
0.0450585
0.0450983
0.0451366
0.0451731
0.0452075
0.0452398
0.0452696
0.0452968
0.0453212
0.0453425
0.0453607
0.0453756
0.045387
0.045395
0.0453996
0.0454009
0.0453986
0.0453926
0.0453834
0.0453711
0.0453558
0.0453377
0.0453168
0.0452937
0.0452681
0.0452408
0.045211
0.0451805
0.0451476
0.0451148
0.0450803
0.0450458
0.0450106
0.0449749
0.0449394
0.0449032
0.0448676
0.0448322
0.0447969
0.0447624
0.0447283
0.0446945
0.044661
0.0446279
0.044595
0.0445627
0.0445304
0.0444969
0.0444545
0.042133
0.042133
0.042133
0.042133
0.042133
0.042133
0.042133
0.042133
0.042133
0.042133
0.042133
0.042133
0.042133
0.042133
0.042133
0.042133
0.0421333
0.0421421
0.0422296
0.0425216
0.0428965
0.0430994
0.0431321
0.0430621
0.0429186
0.0428554
0.0428725
0.0430173
0.0432515
0.0434217
0.0435005
0.0435282
0.0435354
0.0435352
0.0435365
0.0435498
0.0435834
0.0436261
0.0436599
0.0436829
0.0437026
0.0437269
0.0437612
0.0438046
0.0438496
0.0438902
0.0439269
0.0439639
0.0440048
0.0440485
0.0440917
0.0441327
0.0441716
0.0442095
0.0442476
0.0442868
0.0443283
0.0443719
0.0444169
0.0444623
0.0445076
0.044553
0.0445986
0.0446445
0.0446903
0.0447356
0.0447802
0.0448238
0.0448665
0.0449082
0.044949
0.0449888
0.0450274
0.0450646
0.0451001
0.0451337
0.0451653
0.0451945
0.0452213
0.0452454
0.0452667
0.0452849
0.0453
0.0453117
0.0453201
0.0453251
0.045327
0.0453255
0.0453202
0.0453118
0.0453002
0.0452857
0.0452683
0.0452482
0.0452257
0.0452009
0.0451738
0.0451453
0.0451143
0.0450829
0.0450492
0.0450158
0.0449808
0.0449459
0.0449104
0.0448744
0.0448388
0.0448026
0.0447669
0.0447316
0.0446966
0.0446622
0.0446282
0.0445947
0.0445615
0.0445286
0.044496
0.044464
0.0444321
0.0443989
0.0443568
0.042133
0.042133
0.042133
0.042133
0.042133
0.042133
0.042133
0.042133
0.042133
0.042133
0.042133
0.042133
0.042133
0.042133
0.042133
0.042133
0.0421335
0.0421459
0.0422532
0.042568
0.0429292
0.0431031
0.0431203
0.0430372
0.0429039
0.0428546
0.0428893
0.0430605
0.0432868
0.0434359
0.043503
0.0435268
0.0435327
0.0435325
0.0435348
0.0435506
0.0435861
0.0436279
0.0436601
0.0436824
0.0437027
0.0437284
0.0437642
0.0438083
0.0438528
0.0438922
0.0439279
0.0439644
0.0440049
0.044048
0.0440906
0.044131
0.0441693
0.0442066
0.0442439
0.0442825
0.0443232
0.044366
0.0444101
0.0444545
0.0444987
0.0445428
0.0445871
0.0446316
0.0446758
0.0447194
0.0447621
0.0448038
0.0448444
0.044884
0.0449225
0.0449598
0.0449959
0.0450305
0.0450633
0.0450941
0.0451228
0.0451491
0.0451729
0.0451939
0.0452122
0.0452273
0.0452393
0.0452481
0.0452535
0.0452558
0.045255
0.0452504
0.0452426
0.0452317
0.0452179
0.0452012
0.0451817
0.0451598
0.0451355
0.0451092
0.0450808
0.0450511
0.045019
0.0449867
0.0449523
0.0449183
0.0448829
0.0448475
0.0448118
0.0447755
0.0447397
0.0447034
0.0446676
0.0446324
0.0445974
0.0445631
0.0445293
0.0444959
0.0444629
0.0444302
0.0443979
0.044366
0.0443343
0.0443013
0.0442595
0.042133
0.042133
0.042133
0.042133
0.042133
0.042133
0.042133
0.042133
0.042133
0.042133
0.042133
0.042133
0.042133
0.042133
0.042133
0.0421331
0.0421338
0.0421508
0.0422796
0.0426137
0.0429576
0.0431037
0.0431063
0.0430129
0.0428928
0.0428563
0.0429105
0.0431031
0.0433177
0.0434466
0.043504
0.043525
0.0435301
0.0435298
0.0435333
0.0435515
0.0435885
0.0436294
0.0436601
0.0436819
0.0437029
0.0437301
0.0437674
0.0438118
0.0438555
0.0438938
0.0439287
0.0439646
0.0440047
0.0440472
0.0440893
0.0441291
0.0441668
0.0442035
0.0442402
0.044278
0.044318
0.04436
0.0444032
0.0444465
0.0444895
0.0445324
0.0445754
0.0446183
0.0446609
0.0447028
0.0447437
0.0447834
0.0448219
0.0448593
0.0448955
0.0449304
0.044964
0.044996
0.045026
0.0450541
0.0450799
0.0451033
0.0451241
0.0451422
0.0451574
0.0451695
0.0451785
0.0451843
0.045187
0.0451868
0.0451828
0.0451756
0.0451653
0.0451521
0.045136
0.0451173
0.045096
0.0450723
0.0450464
0.0450188
0.044989
0.0449581
0.044925
0.0448919
0.0448568
0.0448221
0.0447863
0.0447504
0.0447144
0.0446779
0.0446419
0.0446056
0.0445698
0.0445346
0.0444997
0.0444656
0.0444318
0.0443986
0.0443657
0.0443332
0.0443011
0.0442695
0.044238
0.0442054
0.0441642
0.042133
0.042133
0.042133
0.042133
0.042133
0.042133
0.042133
0.042133
0.042133
0.042133
0.042133
0.042133
0.042133
0.042133
0.042133
0.0421331
0.0421342
0.0421571
0.0423086
0.0426577
0.042981
0.043103
0.0430916
0.0429893
0.0428847
0.0428606
0.0429358
0.0431428
0.0433433
0.0434549
0.0435043
0.043523
0.0435274
0.0435272
0.0435319
0.0435526
0.0435908
0.0436306
0.04366
0.0436816
0.0437033
0.043732
0.0437705
0.043815
0.0438578
0.0438951
0.0439292
0.0439647
0.0440043
0.0440464
0.0440878
0.0441271
0.0441643
0.0442003
0.0442363
0.0442735
0.0443128
0.0443539
0.0443961
0.0444382
0.0444801
0.0445217
0.0445633
0.0446048
0.0446458
0.0446859
0.0447249
0.0447627
0.0447991
0.0448343
0.0448682
0.0449008
0.0449319
0.0449612
0.0449886
0.0450139
0.0450369
0.0450574
0.0450753
0.0450904
0.0451027
0.0451119
0.0451179
0.045121
0.0451212
0.0451178
0.0451111
0.0451015
0.0450889
0.0450734
0.0450552
0.0450345
0.0450113
0.0449859
0.0449585
0.0449294
0.0448984
0.0448665
0.0448324
0.0447985
0.0447628
0.0447275
0.0446912
0.044655
0.0446187
0.0445818
0.0445457
0.0445093
0.0444734
0.0444382
0.0444033
0.0443692
0.0443355
0.0443024
0.0442696
0.0442373
0.0442053
0.0441739
0.0441427
0.0441102
0.0440691
0.042133
0.042133
0.042133
0.042133
0.042133
0.042133
0.042133
0.042133
0.042133
0.042133
0.042133
0.042133
0.042133
0.042133
0.042133
0.0421331
0.0421347
0.0421649
0.0423399
0.0426996
0.0429997
0.0431006
0.0430769
0.0429667
0.0428797
0.0428684
0.0429647
0.0431795
0.0433639
0.0434609
0.0435041
0.0435208
0.0435247
0.0435247
0.0435307
0.0435537
0.0435929
0.0436315
0.0436598
0.0436813
0.0437041
0.0437341
0.0437735
0.0438179
0.0438597
0.0438961
0.0439294
0.0439645
0.0440038
0.0440454
0.0440863
0.0441251
0.0441617
0.0441971
0.0442324
0.0442689
0.0443074
0.0443477
0.0443888
0.0444299
0.0444705
0.0445108
0.044551
0.0445909
0.0446303
0.0446687
0.0447059
0.0447417
0.0447761
0.0448091
0.0448407
0.0448708
0.0448994
0.0449261
0.0449509
0.0449734
0.0449936
0.0450113
0.0450263
0.0450385
0.0450479
0.0450542
0.0450575
0.0450581
0.0450552
0.045049
0.0450399
0.0450279
0.045013
0.0449953
0.0449751
0.0449524
0.0449275
0.0449006
0.0448717
0.0448414
0.0448091
0.0447762
0.0447412
0.0447065
0.0446702
0.0446342
0.0445976
0.0445609
0.0445243
0.0444872
0.0444508
0.0444145
0.0443785
0.0443433
0.0443085
0.0442744
0.0442409
0.0442078
0.0441752
0.044143
0.0441111
0.0440799
0.0440487
0.0440163
0.0439753
0.042133
0.042133
0.042133
0.042133
0.042133
0.042133
0.042133
0.042133
0.042133
0.042133
0.042133
0.042133
0.042133
0.042133
0.042133
0.0421331
0.0421355
0.0421743
0.0423731
0.0427385
0.0430142
0.0430962
0.0430624
0.0429465
0.0428762
0.0428794
0.0429964
0.0432121
0.0433802
0.0434653
0.0435036
0.0435186
0.043522
0.0435223
0.0435297
0.0435551
0.0435949
0.0436322
0.0436595
0.0436811
0.043705
0.0437363
0.0437763
0.0438204
0.0438613
0.0438967
0.0439295
0.0439642
0.0440031
0.0440443
0.0440847
0.044123
0.044159
0.0441938
0.0442284
0.0442642
0.0443019
0.0443414
0.0443815
0.0444213
0.0444607
0.0444997
0.0445384
0.0445769
0.0446146
0.0446513
0.0446866
0.0447205
0.0447528
0.0447836
0.0448129
0.0448407
0.0448667
0.0448909
0.044913
0.0449328
0.0449503
0.0449651
0.0449773
0.0449868
0.0449933
0.0449969
0.0449977
0.0449953
0.0449896
0.044981
0.0449694
0.044955
0.0449379
0.0449182
0.044896
0.0448715
0.0448449
0.0448165
0.0447861
0.0447545
0.044721
0.0446872
0.0446513
0.0446159
0.044579
0.0445426
0.0445056
0.0444684
0.0444316
0.0443942
0.0443576
0.0443212
0.0442851
0.0442498
0.044215
0.044181
0.0441475
0.0441145
0.0440819
0.0440498
0.0440181
0.043987
0.043956
0.043924
0.0438834
0.042133
0.042133
0.042133
0.042133
0.042133
0.042133
0.042133
0.042133
0.042133
0.042133
0.042133
0.042133
0.042133
0.042133
0.042133
0.0421331