/*--------------------------------*- C++ -*----------------------------------*\
| =========                 |                                                 |
| \\      /  F ield         | OpenFOAM: The Open Source CFD Toolbox           |
|  \\    /   O peration     | Version:  2412                                  |
|   \\  /    A nd           | Website:  www.openfoam.com                      |
|    \\/     M anipulation  |                                                 |
\*---------------------------------------------------------------------------*/
FoamFile
{
    version     2.0;
    format      ascii;
    arch        "LSB;label=32;scalar=64";
    class       volScalarField;
    location    "0.067";
    object      p;
}
// * * * * * * * * * * * * * * * * * * * * * * * * * * * * * * * * * * * * * //

dimensions      [1 -1 -2 0 0 0 0];

internalField   nonuniform List<scalar> 
9922
(
4254.93
2895.47
2898.72
2919.85
2920.45
2922.44
2920.57
2916.13
2910.15
2902.3
2892.98
2882.6
2871.69
2860.75
2850.39
2840.73
2831.93
2823.8
2816.18
2808.85
2801.6
2794.22
2786.52
2778.36
2769.66
2760.39
2750.58
2740.32
2729.7
2718.79
2707.63
2696.24
2684.58
2672.62
2660.28
2647.49
2634.17
2620.22
2605.54
2590.03
2573.61
2556.22
2537.78
2518.2
2497.4
2475.29
2451.78
2426.76
2400.02
2371.23
2340.26
2307.48
2271
2218.36
2111.76
1967.09
1839.89
1756.26
1699.42
1654.37
1614.16
1577.11
1542.92
1511.21
1481.82
1454.88
1430.29
1408.03
1387.82
1369.49
1352.85
1337.63
1323.7
1310.9
1299.02
1287.75
1277.21
1267.07
1257.19
1247.67
1238.97
1230.83
1223.17
1215.87
1208.94
1202.37
1196.15
1190.22
1184.53
1179.07
1173.8
1168.76
1163.94
1159.33
1154.89
1150.62
1146.52
1142.62
1138.88
1135.28
1131.79
1128.42
1125.18
1122.06
1119.06
1116.17
1113.38
1110.72
1108.13
1105.69
1103.3
1101.04
1098.83
1096.75
1094.78
1092.89
1091.1
1089.4
1087.74
1086.11
1083.69
4257.12
2894.98
2897.26
2918.6
2919.44
2921.64
2919.92
2915.6
2909.73
2901.99
2892.77
2882.46
2871.61
2860.73
2850.43
2840.82
2832.04
2823.92
2816.29
2808.93
2801.63
2794.17
2786.4
2778.17
2769.39
2760.05
2750.18
2739.87
2729.19
2718.22
2707.01
2695.55
2683.82
2671.78
2659.34
2646.45
2633.01
2618.92
2604.08
2588.39
2571.75
2554.1
2535.33
2515.35
2494.04
2471.31
2447.01
2420.99
2392.92
2362.43
2329.52
2293.71
2249.32
2176.6
2058.19
1927.77
1825.49
1755.68
1704.39
1660.01
1619.71
1582.38
1547.56
1515.6
1486.19
1459.07
1434.4
1411.86
1391.41
1372.73
1355.52
1339.61
1324.95
1311.5
1299.26
1287.88
1277.23
1267.14
1257.74
1248.83
1240.35
1232.19
1224.4
1216.96
1209.88
1203.09
1196.6
1190.41
1184.55
1178.95
1173.58
1168.44
1163.54
1158.85
1154.35
1150.04
1145.95
1142.06
1138.33
1134.75
1131.29
1127.99
1124.85
1121.85
1118.97
1116.22
1113.57
1111.06
1108.63
1106.34
1104.11
1102.01
1099.93
1097.95
1096.05
1094.18
1092.37
1090.68
1089.02
1087.41
1084.99
4259.31
2894.53
2895.78
2917.35
2918.41
2920.81
2919.25
2915.05
2909.3
2901.68
2892.54
2882.31
2871.54
2860.72
2850.48
2840.9
2832.15
2824.04
2816.4
2809.01
2801.65
2794.13
2786.28
2777.97
2769.12
2759.71
2749.78
2739.41
2728.67
2717.65
2706.38
2694.86
2683.06
2670.94
2658.41
2645.41
2631.84
2617.62
2602.62
2586.74
2569.88
2551.95
2532.86
2512.46
2490.65
2467.28
2442.18
2415.11
2385.66
2353.52
2318.55
2278.86
2224.66
2133.34
2015.87
1903.9
1819.49
1758.5
1709.42
1666.35
1626.33
1588.62
1553.46
1520.36
1490.01
1462.43
1437.33
1414.59
1393.95
1375.22
1358.09
1342.28
1327.56
1313.73
1300.87
1288.93
1278.03
1267.81
1258.29
1249.23
1240.57
1232.32
1224.56
1217.19
1210.23
1203.6
1197.28
1191.23
1185.45
1179.91
1174.56
1169.43
1164.51
1159.78
1155.24
1150.9
1146.77
1142.82
1139
1135.3
1131.75
1128.36
1125.12
1122.03
1119.04
1116.17
1113.41
1110.78
1108.24
1105.86
1103.55
1101.41
1099.32
1097.39
1095.58
1093.83
1092.13
1090.51
1088.92
1087.39
1085.1
4261.5
2894.14
2894.29
2916.07
2917.37
2919.97
2918.56
2914.5
2908.87
2901.36
2892.31
2882.17
2871.46
2860.71
2850.52
2840.99
2832.27
2824.17
2816.51
2809.09
2801.68
2794.08
2786.15
2777.77
2768.85
2759.37
2749.37
2738.94
2728.16
2717.08
2705.75
2694.17
2682.3
2670.1
2657.48
2644.37
2630.68
2616.32
2601.16
2585.09
2568
2549.8
2530.37
2509.56
2487.23
2463.22
2437.3
2409.14
2378.32
2344.48
2306.95
2261.77
2195.8
2097.34
1986.92
1890.69
1817.64
1761.41
1714.32
1671.69
1632.25
1595.33
1560.14
1527.02
1495.91
1467.19
1440.93
1417.26
1395.87
1376.55
1359.13
1343.31
1328.82
1315.37
1302.8
1290.9
1279.77
1269.19
1259.04
1249.31
1240.58
1232.32
1224.51
1217.04
1209.96
1203.19
1196.76
1190.67
1184.91
1179.4
1174.11
1169.04
1164.18
1159.51
1155.06
1150.82
1146.77
1142.89
1139.13
1135.54
1132.09
1128.81
1125.69
1122.7
1119.81
1117.02
1114.31
1111.72
1109.18
1106.77
1104.41
1102.19
1099.99
1097.94
1096
1094.16
1092.37
1090.67
1089
1087.43
1085.18
4263.69
2893.8
2892.78
2914.78
2916.31
2919.11
2917.86
2913.95
2908.43
2901.03
2892.08
2882.02
2871.39
2860.71
2850.57
2841.08
2832.39
2824.3
2816.63
2809.17
2801.7
2794.04
2786.03
2777.57
2768.57
2759.02
2748.96
2738.48
2727.64
2716.51
2705.13
2693.48
2681.55
2669.26
2656.55
2643.34
2629.53
2615.02
2599.69
2583.43
2566.11
2547.63
2527.86
2506.64
2483.78
2459.11
2432.34
2403.08
2370.88
2335.28
2294.73
2242.94
2165.98
2067.45
1967.42
1883.83
1818.67
1765.86
1719.4
1677.11
1637.63
1600.49
1565.68
1532.94
1502.09
1473.25
1446.58
1422.13
1399.94
1379.84
1361.52
1344.85
1329.69
1315.83
1303.08
1291.09
1279.88
1269.31
1259.74
1250.81
1242.22
1233.9
1225.97
1218.41
1211.24
1204.36
1197.79
1191.54
1185.63
1180.01
1174.61
1169.42
1164.43
1159.66
1155.12
1150.81
1146.66
1142.66
1138.81
1135.12
1131.6
1128.25
1125.08
1122.04
1119.13
1116.35
1113.69
1111.16
1108.72
1106.43
1104.2
1102.14
1100.1
1098.21
1096.41
1094.67
1092.98
1091.36
1089.71
1088.13
1085.85
4265.87
2893.51
2891.25
2913.47
2915.24
2918.23
2917.15
2913.38
2907.98
2900.69
2891.84
2881.87
2871.32
2860.7
2850.63
2841.18
2832.51
2824.43
2816.75
2809.26
2801.73
2794
2785.91
2777.36
2768.29
2758.67
2748.55
2738.01
2727.12
2715.94
2704.5
2692.8
2680.79
2668.43
2655.63
2642.31
2628.37
2613.72
2598.23
2581.77
2564.22
2545.46
2525.34
2503.69
2480.31
2454.97
2427.34
2396.97
2363.37
2325.79
2281.59
2222.7
2139.61
2044.78
1955.3
1881.3
1821.51
1771.22
1726.27
1684.23
1644.66
1607.04
1571.44
1538.04
1506.92
1477.95
1451.23
1426.64
1404.2
1383.81
1365.24
1348.21
1332.5
1317.93
1304.51
1292.21
1281.21
1270.88
1261.12
1251.6
1242.54
1233.94
1225.88
1218.26
1211.12
1204.31
1197.83
1191.67
1185.84
1180.29
1174.95
1169.81
1164.86
1160.16
1155.68
1151.42
1147.3
1143.35
1139.53
1135.87
1132.36
1129.01
1125.78
1122.68
1119.68
1116.81
1114.05
1111.42
1108.88
1106.46
1104.11
1101.91
1099.73
1097.71
1095.8
1093.97
1092.22
1090.59
1088.94
1087.36
1085.06
4268.05
2893.28
2889.71
2912.13
2914.15
2917.33
2916.42
2912.82
2907.53
2900.34
2891.59
2881.71
2871.25
2860.7
2850.68
2841.27
2832.64
2824.57
2816.88
2809.35
2801.76
2793.96
2785.79
2777.16
2768.01
2758.32
2748.14
2737.54
2726.6
2715.37
2703.87
2692.11
2680.04
2667.6
2654.71
2641.28
2627.22
2612.42
2596.76
2580.1
2562.32
2543.27
2522.8
2500.72
2476.81
2450.79
2422.28
2390.8
2355.75
2315.96
2267.63
2202.19
2118.14
2028.87
1947.98
1880.58
1824.84
1776.51
1732.46
1691.39
1652.24
1614.77
1578.87
1544.53
1512.31
1482.44
1454.89
1429.73
1406.84
1386.11
1367.36
1350.36
1334.82
1320.45
1307.1
1294.46
1282.59
1271.55
1261.28
1251.58
1242.63
1234.16
1226.2
1218.6
1211.36
1204.4
1197.78
1191.49
1185.57
1179.92
1174.49
1169.27
1164.27
1159.52
1155.03
1150.73
1146.59
1142.64
1138.86
1135.26
1131.83
1128.56
1125.42
1122.42
1119.53
1116.79
1114.16
1111.67
1109.24
1106.95
1104.68
1102.56
1100.43
1098.44
1096.52
1094.68
1092.9
1091.27
1089.62
1088.06
1085.75
4270.21
2893.1
2888.15
2910.78
2913.04
2916.42
2915.68
2912.24
2907.07
2899.99
2891.34
2881.56
2871.18
2860.7
2850.74
2841.38
2832.77
2824.71
2817
2809.43
2801.79
2793.91
2785.67
2776.96
2767.73
2757.96
2747.72
2737.07
2726.08
2714.79
2703.25
2691.43
2679.29
2666.78
2653.79
2640.26
2626.07
2611.13
2595.29
2578.43
2560.41
2541.07
2520.25
2497.74
2473.29
2446.58
2417.19
2384.58
2348.03
2305.79
2253.05
2182.87
2100.3
2017.56
1944.02
1881.75
1828.53
1781.28
1737.93
1697.12
1658.52
1621.67
1586.16
1552.26
1519.91
1489.37
1460.88
1434.63
1410.71
1389.05
1369.48
1351.79
1335.78
1321.23
1307.92
1295.44
1283.55
1272.57
1262.64
1253.27
1244.41
1235.85
1227.7
1219.91
1212.52
1205.49
1198.85
1192.55
1186.57
1180.85
1175.36
1170.1
1165.08
1160.32
1155.76
1151.38
1147.17
1143.14
1139.27
1135.57
1132.02
1128.62
1125.35
1122.2
1119.19
1116.31
1113.58
1110.98
1108.5
1106.15
1103.87
1101.76
1099.67
1097.74
1095.92
1094.16
1092.44
1090.82
1089.19
1087.63
1085.33
4272.36
2892.99
2886.58
2909.41
2911.92
2915.48
2914.94
2911.66
2906.6
2899.62
2891.08
2881.4
2871.11
2860.7
2850.8
2841.48
2832.9
2824.85
2817.13
2809.53
2801.83
2793.88
2785.55
2776.75
2767.44
2757.61
2747.3
2736.59
2725.55
2714.22
2702.62
2690.74
2678.54
2665.95
2652.88
2639.24
2624.93
2609.83
2593.83
2576.76
2558.5
2538.87
2517.69
2494.74
2469.74
2442.33
2412.06
2378.32
2340.18
2295.27
2238.41
2166.33
2086.91
2010.18
1942.46
1884.3
1833.64
1787.65
1744.63
1703.92
1664.98
1627.68
1592.2
1558.37
1526.27
1495.92
1467.42
1440.89
1416.48
1394.22
1373.98
1355.56
1338.71
1323.24
1309.11
1296.37
1285.07
1274.17
1263.94
1254.14
1244.85
1235.94
1227.53
1219.54
1212.08
1205.03
1198.42
1192.14
1186.15
1180.41
1174.95
1169.76
1164.82
1160.1
1155.57
1151.21
1147.06
1143.1
1139.3
1135.68
1132.22
1128.92
1125.73
1122.67
1119.72
1116.9
1114.17
1111.56
1109.02
1106.6
1104.23
1102.01
1099.82
1097.78
1095.87
1094.06
1092.27
1090.61
1088.94
1087.41
1085.19
4274.5
2892.93
2884.98
2908.01
2910.78
2914.53
2914.17
2911.07
2906.11
2899.25
2890.82
2881.24
2871.03
2860.7
2850.86
2841.59
2833.04
2824.99
2817.26
2809.62
2801.87
2793.84
2785.43
2776.55
2767.15
2757.25
2746.88
2736.12
2725.02
2713.64
2701.99
2690.06
2677.8
2665.13
2651.97
2638.23
2623.79
2608.55
2592.37
2575.1
2556.59
2536.66
2515.13
2491.74
2466.19
2438.08
2406.91
2372.04
2332.2
2284.51
2224.42
2152.44
2076.88
2005.76
1942.91
1888.01
1839.21
1794.54
1752.62
1712.36
1673.51
1635.87
1599.46
1564.58
1531.63
1500.79
1472.03
1445.31
1420.66
1398.11
1377.61
1359
1342.06
1326.52
1312.07
1298.41
1285.76
1274.36
1263.95
1254.13
1244.96
1236.24
1228.07
1220.26
1212.87
1205.82
1199.12
1192.71
1186.57
1180.72
1175.19
1169.95
1164.95
1160.15
1155.5
1151.03
1146.76
1142.7
1138.79
1135.05
1131.47
1128.07
1124.81
1121.7
1118.77
1115.99
1113.33
1110.8
1108.38
1106.09
1103.86
1101.78
1099.72
1097.81
1095.99
1094.22
1092.48
1090.83
1089.16
1087.57
1085.26
4276.62
2892.94
2883.36
2906.59
2909.64
2913.56
2913.39
2910.46
2905.61
2898.87
2890.55
2881.08
2870.96
2860.7
2850.93
2841.7
2833.18
2825.15
2817.4
2809.73
2801.91
2793.81
2785.31
2776.34
2766.87
2756.89
2746.45
2735.64
2724.5
2713.07
2701.37
2689.38
2677.05
2664.32
2651.07
2637.22
2622.66
2607.27
2590.91
2573.44
2554.68
2534.46
2512.57
2488.73
2462.62
2433.82
2401.77
2365.72
2324.1
2273.79
2211.83
2141.47
2070.05
2003.52
1944.25
1891.74
1844.42
1800.51
1759.01
1719.44
1681.25
1644.14
1608.05
1573.18
1539.65
1507.74
1477.81
1450.03
1424.48
1401.17
1380.01
1360.88
1343.58
1327.94
1313.71
1300.55
1288.16
1276.54
1265.94
1256.02
1246.81
1237.96
1229.51
1221.36
1213.68
1206.42
1199.59
1193.1
1186.93
1181.08
1175.59
1170.39
1165.41
1160.62
1155.98
1151.54
1147.31
1143.28
1139.39
1135.66
1132.06
1128.59
1125.24
1122.04
1119.01
1116.11
1113.33
1110.67
1108.12
1105.71
1103.35
1101.14
1098.98
1096.97
1095.07
1093.25
1091.48
1089.82
1088.12
1086.52
1084.21
4278.71
2893
2881.72
2905.14
2908.48
2912.57
2912.6
2909.83
2905.1
2898.48
2890.28
2880.91
2870.88
2860.7
2850.99
2841.82
2833.33
2825.31
2817.55
2809.84
2801.96
2793.78
2785.19
2776.14
2766.58
2756.52
2746.03
2735.15
2723.96
2712.49
2700.74
2688.7
2676.31
2663.5
2650.17
2636.22
2621.53
2605.99
2589.46
2571.78
2552.78
2532.26
2510.01
2485.73
2459.07
2429.57
2396.65
2359.38
2315.97
2263.55
2201.04
2132.8
2065.1
2002.53
1946.38
1895.86
1849.65
1806.43
1765.43
1725.92
1687.84
1651.04
1615.34
1580.83
1547.64
1515.87
1485.71
1457.37
1431.06
1406.88
1384.84
1364.82
1346.63
1330.05
1314.97
1301.36
1289.11
1277.61
1266.95
1256.79
1247.23
1238.02
1229.27
1220.96
1213.24
1205.99
1199.2
1192.72
1186.55
1180.71
1175.21
1169.97
1164.91
1160.01
1155.29
1150.8
1146.55
1142.49
1138.63
1134.97
1131.45
1128.07
1124.83
1121.77
1118.87
1116.1
1113.45
1110.9
1108.44
1106.1
1103.81
1101.65
1099.5
1097.49
1095.57
1093.75
1091.97
1090.33
1088.63
1087.02
1084.64
4280.78
2893.12
2880.05
2903.67
2907.31
2911.56
2911.78
2909.18
2904.57
2898.08
2890
2880.74
2870.8
2860.7
2851.06
2841.94
2833.49
2825.48
2817.71
2809.96
2802.01
2793.75
2785.08
2775.93
2766.29
2756.15
2745.59
2734.67
2723.43
2711.91
2700.12
2688.02
2675.57
2662.69
2649.28
2635.22
2620.41
2604.73
2588.02
2570.13
2550.88
2530.08
2507.47
2482.75
2455.54
2425.35
2391.55
2353.06
2308
2254.15
2192.02
2126.25
2062.14
2002.94
1949.47
1901.11
1856.59
1814.44
1773.89
1734.51
1696.07
1658.54
1622.18
1587.07
1553.64
1521.93
1491.88
1463.54
1437.05
1412.55
1390.1
1369.66
1351.07
1334.11
1318.49
1303.95
1290.63
1278.43
1267.35
1256.99
1247.46
1238.46
1230.08
1222.05
1214.48
1207.26
1200.43
1193.91
1187.67
1181.75
1176.15
1170.82
1165.64
1160.62
1155.81
1151.26
1146.9
1142.74
1138.77
1134.99
1131.34
1127.83
1124.46
1121.25
1118.21
1115.33
1112.59
1109.97
1107.48
1105.13
1102.86
1100.74
1098.61
1096.64
1094.78
1093
1091.25
1089.63
1087.96
1086.38
1084.08
4282.83
2893.3
2878.35
2902.18
2906.12
2910.54
2910.94
2908.5
2904.02
2897.67
2889.71
2880.56
2870.72
2860.7
2851.13
2842.07
2833.66
2825.66
2817.88
2810.08
2802.07
2793.73
2784.96
2775.73
2765.99
2755.79
2745.16
2734.18
2722.9
2711.34
2699.49
2687.35
2674.84
2661.89
2648.39
2634.23
2619.3
2603.47
2586.59
2568.5
2549.01
2527.9
2504.94
2479.79
2452.04
2421.17
2386.49
2346.83
2300.38
2245.77
2184.63
2121.43
2060.63
2004.64
1953.72
1906.94
1863.23
1821.67
1781.82
1743.09
1705.24
1668.07
1631.53
1595.96
1561.5
1528.63
1497.61
1468.54
1441.47
1416.46
1393.52
1372.6
1353.61
1336.41
1320.85
1306.62
1293.5
1281.18
1269.82
1259.18
1249.43
1240.18
1231.39
1222.9
1214.9
1207.37
1200.37
1193.7
1187.35
1181.33
1175.64
1170.21
1164.98
1160
1155.3
1150.85
1146.59
1142.53
1138.68
1135
1131.45
1128.07
1124.82
1121.72
1118.73
1115.85
1113.07
1110.4
1107.82
1105.38
1103.01
1100.78
1098.57
1096.53
1094.6
1092.79
1091
1089.37
1087.7
1086.18
1083.94
4284.84
2893.53
2876.64
2900.67
2904.92
2909.5
2910.09
2907.8
2903.46
2897.24
2889.41
2880.37
2870.63
2860.71
2851.21
2842.21
2833.83
2825.85
2818.05
2810.21
2802.13
2793.71
2784.85
2775.52
2765.7
2755.41
2744.72
2733.69
2722.36
2710.76
2698.87
2686.67
2674.11
2661.09
2647.51
2633.25
2618.2
2602.22
2585.17
2566.87
2547.14
2525.75
2502.43
2476.85
2448.57
2417.04
2381.51
2340.78
2293.28
2238.48
2178.77
2118.37
2060.7
2007.06
1957.7
1911.97
1869.03
1827.99
1788.41
1749.99
1712.52
1675.91
1640.02
1604.9
1570.75
1537.77
1506.17
1476.2
1448.1
1422.09
1398.24
1376.49
1356.71
1338.75
1322.47
1307.72
1294.39
1282.1
1270.73
1259.95
1249.88
1240.24
1231.18
1222.63
1214.81
1207.5
1200.61
1193.95
1187.56
1181.49
1175.72
1170.2
1164.93
1159.95
1155.23
1150.7
1146.33
1142.17
1138.19
1134.36
1130.68
1127.2
1123.92
1120.83
1117.89
1115.07
1112.37
1109.79
1107.31
1104.96
1102.68
1100.55
1098.45
1096.49
1094.6
1092.8
1091.02
1089.37
1087.68
1086.11
1083.87
4286.81
2893.84
2874.91
2899.14
2903.7
2908.45
2909.22
2907.08
2902.88
2896.8
2889.11
2880.19
2870.55
2860.72
2851.3
2842.35
2834.01
2826.03
2818.22
2810.33
2802.2
2793.69
2784.74
2775.32
2765.41
2755.04
2744.29
2733.2
2721.83
2710.18
2698.25
2686
2673.38
2660.29
2646.63
2632.28
2617.11
2600.99
2583.77
2565.27
2545.29
2523.62
2499.95
2473.95
2445.14
2412.97
2376.65
2334.99
2286.81
2232.39
2174.47
2116.56
2061.22
2009.62
1961.97
1917.65
1875.85
1835.59
1796.51
1758.12
1720.39
1683.33
1647.14
1611.98
1578.03
1545.37
1514.03
1484.11
1455.81
1429.37
1404.95
1382.57
1362.16
1343.58
1326.66
1311.15
1296.92
1283.83
1271.88
1260.76
1250.61
1241.11
1232.42
1224.16
1216.34
1208.8
1201.57
1194.67
1188.17
1182.03
1176.2
1170.67
1165.48
1160.61
1155.92
1151.4
1147.03
1142.86
1138.83
1134.95
1131.2
1127.63
1124.21
1120.96
1117.83
1114.82
1111.96
1109.22
1106.59
1104.09
1101.68
1099.45
1097.27
1095.22
1093.28
1091.46
1089.67
1088.03
1086.3
1084.7
1082.43
4288.74
2894.21
2873.16
2897.6
2902.47
2907.38
2908.34
2906.34
2902.29
2896.35
2888.79
2879.99
2870.47
2860.73
2851.39
2842.5
2834.2
2826.23
2818.39
2810.47
2802.26
2793.68
2784.64
2775.12
2765.11
2754.67
2743.85
2732.71
2721.29
2709.6
2697.63
2685.33
2672.65
2659.5
2645.76
2631.31
2616.03
2599.77
2582.38
2563.68
2543.47
2521.51
2497.5
2471.08
2441.78
2409
2371.96
2329.58
2281.13
2227.52
2171.43
2115.76
2062.55
2013.04
1967.18
1924.4
1883.72
1844.2
1805.57
1767.63
1730.18
1693.14
1656.5
1620.54
1585.63
1552.15
1520.26
1490
1461.46
1434.73
1409.9
1387.03
1366.1
1347.08
1329.88
1314.28
1300.04
1286.89
1274.76
1263.4
1252.94
1243.02
1233.7
1224.8
1216.4
1208.48
1201.13
1194.25
1187.82
1181.7
1175.85
1170.31
1165.12
1160.19
1155.38
1150.73
1146.26
1142.01
1137.95
1134.09
1130.42
1126.96
1123.67
1120.55
1117.54
1114.65
1111.89
1109.23
1106.66
1104.2
1101.82
1099.61
1097.41
1095.34
1093.39
1091.56
1089.74
1088.09
1086.31
1084.69
1082.32
4290.64
2894.63
2871.4
2896.04
2901.23
2906.29
2907.45
2905.6
2901.69
2895.89
2888.46
2879.79
2870.38
2860.74
2851.49
2842.66
2834.38
2826.42
2818.57
2810.6
2802.34
2793.67
2784.53
2774.91
2764.82
2754.29
2743.4
2732.21
2720.75
2709.02
2697.01
2684.66
2671.93
2658.71
2644.9
2630.36
2614.97
2598.57
2581.02
2562.12
2541.67
2519.43
2495.09
2468.27
2438.49
2405.17
2367.51
2324.62
2276.24
2223.63
2169.25
2115.65
2064.67
2017.31
1973.02
1931.05
1890.67
1851.32
1813.04
1775.55
1738.64
1702.21
1666.17
1630.61
1595.73
1561.76
1528.97
1497.64
1468.02
1440.34
1414.69
1391.08
1369.45
1349.77
1331.95
1315.85
1301.23
1287.91
1275.66
1264.2
1253.48
1243.27
1233.76
1224.92
1216.92
1209.42
1202.36
1195.58
1189.06
1182.78
1176.8
1171.17
1165.85
1160.73
1155.72
1150.88
1146.27
1141.87
1137.69
1133.73
1129.94
1126.31
1122.83
1119.5
1116.31
1113.29
1110.43
1107.72
1105.16
1102.74
1100.43
1098.27
1096.13
1094.12
1092.19
1090.34
1088.45
1086.71
1084.86
1083.16
1080.77
4292.48
2895.13
2869.63
2894.46
2899.97
2905.19
2906.54
2904.85
2901.09
2895.43
2888.13
2879.59
2870.29
2860.76
2851.59
2842.82
2834.57
2826.62
2818.75
2810.74
2802.41
2793.66
2784.43
2774.71
2764.52
2753.91
2742.96
2731.71
2720.21
2708.44
2696.39
2684
2671.21
2657.93
2644.04
2629.41
2613.91
2597.39
2579.67
2560.58
2539.91
2517.39
2492.73
2465.53
2435.31
2401.5
2363.36
2320.23
2272.19
2220.65
2167.91
2116.47
2067.77
2021.74
1978.2
1936.83
1897.16
1858.56
1820.67
1783.31
1746.36
1709.88
1673.96
1638.71
1604.3
1570.81
1538.33
1506.98
1477.01
1448.73
1422.35
1397.99
1375.62
1355.23
1336.7
1319.86
1304.48
1290.42
1277.55
1265.75
1254.92
1244.84
1235.6
1226.84
1218.58
1210.59
1202.98
1195.76
1188.92
1182.42
1176.35
1170.67
1165.26
1160.03
1155.02
1150.29
1145.81
1141.56
1137.53
1133.73
1130.08
1126.58
1123.15
1119.8
1116.55
1113.46
1110.52
1107.73
1105.09
1102.59
1100.19
1097.93
1095.73
1093.67
1091.71
1089.83
1087.91
1086.21
1084.39
1082.82
1080.6
4294.28
2895.68
2867.85
2892.86
2898.7
2904.08
2905.63
2904.09
2900.48
2894.95
2887.79
2879.39
2870.21
2860.77
2851.69
2842.97
2834.76
2826.82
2818.94
2810.89
2802.5
2793.67
2784.34
2774.51
2764.22
2753.53
2742.51
2731.21
2719.66
2707.86
2695.77
2683.34
2670.5
2657.16
2643.19
2628.48
2612.88
2596.22
2578.35
2559.08
2538.18
2515.4
2490.44
2462.88
2432.28
2398.06
2359.57
2316.38
2268.87
2218.59
2167.75
2118.18
2070.87
2025.93
1983.74
1943.77
1905.38
1867.56
1830.13
1793.04
1756.17
1719.48
1683.03
1647.08
1612
1578.1
1545.48
1514.15
1484.18
1455.76
1429.07
1404.23
1381.28
1360.26
1341.14
1323.85
1308.14
1293.88
1280.75
1268.58
1257.25
1246.56
1236.65
1227.34
1218.65
1210.5
1203
1195.93
1189.2
1182.79
1176.77
1171.04
1165.48
1160.09
1154.98
1150.18
1145.58
1141.16
1136.94
1132.91
1129.14
1125.61
1122.21
1118.92
1115.78
1112.81
1109.99
1107.31
1104.75
1102.29
1099.91
1097.67
1095.5
1093.44
1091.45
1089.56
1087.64
1085.89
1083.97
1082.26
1079.87
4296.02
2896.3
2866.06
2891.24
2897.41
2902.95
2904.7
2903.32
2899.87
2894.48
2887.45
2879.18
2870.12
2860.79
2851.78
2843.13
2834.96
2827.02
2819.13
2811.05
2802.6
2793.68
2784.25
2774.32
2763.93
2753.16
2742.07
2730.71
2719.12
2707.28
2695.15
2682.69
2669.8
2656.39
2642.36
2627.56
2611.85
2595.08
2577.06
2557.61
2536.5
2513.48
2488.23
2460.36
2429.42
2394.87
2356.16
2313.07
2266.21
2217.2
2168.1
2120.21
2074.25
2031.04
1990.37
1951.42
1913.47
1875.91
1838.78
1802.14
1765.8
1729.66
1693.69
1657.91
1622.54
1587.88
1554.23
1521.85
1490.96
1461.78
1434.43
1408.96
1385.38
1363.71
1343.94
1326.07
1309.9
1295.3
1281.86
1269.39
1257.72
1246.86
1237.03
1228.1
1219.98
1212.14
1204.54
1197.12
1190.09
1183.48
1177.31
1171.41
1165.76
1160.39
1155.39
1150.69
1146.16
1141.76
1137.49
1133.4
1129.52
1125.83
1122.23
1118.76
1115.47
1112.36
1109.41
1106.59
1103.9
1101.31
1098.81
1096.46
1094.18
1092.02
1090.01
1088.18
1086.35
1084.71
1082.88
1081.25
1079.03
4297.74
2896.99
2864.26
2889.6
2896.1
2901.82
2903.76
2902.53
2899.24
2893.99
2887.11
2878.97
2870.03
2860.8
2851.88
2843.29
2835.15
2827.24
2819.34
2811.22
2802.7
2793.69
2784.16
2774.12
2763.64
2752.78
2741.62
2730.21
2718.58
2706.7
2694.54
2682.03
2669.1
2655.64
2641.53
2626.65
2610.85
2593.96
2575.8
2556.19
2534.88
2511.63
2486.11
2457.97
2426.74
2391.94
2353.14
2310.32
2264.29
2216.62
2168.98
2122.53
2078.32
2036.79
1996.87
1958.23
1920.46
1883.2
1846.38
1809.95
1773.79
1737.86
1702.23
1667.01
1632.3
1598.18
1564.76
1532.21
1500.78
1470.81
1442.59
1416.28
1391.91
1369.51
1349.07
1330.55
1313.77
1298.47
1284.41
1271.56
1259.89
1249.19
1239.43
1230.17
1221.28
1212.63
1204.41
1196.66
1189.59
1183.03
1176.85
1170.88
1165.18
1159.8
1154.8
1150.05
1145.46
1141
1136.72
1132.72
1128.98
1125.4
1121.91
1118.61
1115.49
1112.52
1109.65
1106.88
1104.19
1101.58
1099.04
1096.63
1094.3
1092.12
1090.14
1088.35
1086.52
1084.87
1083.03
1081.36
1078.99
4299.35
2897.73
2862.44
2887.95
2894.79
2900.67
2902.8
2901.73
2898.6
2893.5
2886.76
2878.76
2869.95
2860.82
2851.99
2843.46
2835.36
2827.46
2819.55
2811.39
2802.81
2793.71
2784.08
2773.93
2763.35
2752.4
2741.18
2729.71
2718.03
2706.12
2693.93
2681.39
2668.41
2654.89
2640.72
2625.76
2609.86
2592.86
2574.58
2554.8
2533.32
2509.85
2484.11
2455.72
2424.26
2389.3
2350.53
2308.12
2263.03
2216.68
2170.38
2125.58
2083.1
2042.27
2002.8
1964.9
1928.11
1891.85
1855.59
1819.43
1783.31
1747.21
1711.21
1675.52
1640.46
1606.28
1573.05
1540.75
1509.49
1479.5
1451.04
1424.3
1399.35
1376.27
1355.1
1335.87
1318.47
1302.63
1288.05
1274.62
1262.33
1250.95
1240.5
1230.59
1221.32
1212.7
1204.91
1197.63
1190.84
1184.33
1178.03
1171.95
1166.21
1160.82
1155.7
1150.74
1145.92
1141.25
1136.81
1132.64
1128.67
1124.8
1121.08
1117.6
1114.35
1111.27
1108.33
1105.5
1102.78
1100.17
1097.66
1095.29
1093
1090.83
1088.78
1086.88
1084.96
1083.27
1081.41
1079.75
1077.39
4300.97
2898.54
2860.62
2886.27
2893.46
2899.51
2901.82
2900.9
2897.94
2893
2886.41
2878.55
2869.86
2860.84
2852.09
2843.63
2835.57
2827.68
2819.77
2811.57
2802.92
2793.74
2784
2773.74
2763.06
2752.03
2740.73
2729.22
2717.49
2705.54
2693.32
2680.74
2667.72
2654.15
2639.91
2624.88
2608.89
2591.79
2573.38
2553.47
2531.81
2508.16
2482.22
2453.62
2421.98
2386.94
2348.31
2306.39
2262.18
2217.1
2172.37
2129.19
2087.66
2047.52
2009.45
1972.82
1936.99
1901.25
1865.3
1829.49
1793.8
1758.09
1722.33
1686.58
1651.05
1616.06
1581.9
1548.75
1516.82
1486.29
1457.37
1430.17
1404.7
1381
1359.15
1339.23
1321.16
1304.72
1289.68
1275.8
1263.31
1251.96
1241.78
1232.08
1222.99
1214.34
1206.24
1198.57
1191.38
1184.55
1178.05
1171.86
1166.07
1160.62
1155.37
1150.3
1145.48
1140.96
1136.72
1132.72
1128.84
1125.05
1121.39
1117.93
1114.61
1111.38
1108.25
1105.26
1102.43
1099.76
1097.22
1094.85
1092.54
1090.34
1088.28
1086.37
1084.44
1082.7
1080.82
1079.17
1076.76
4302.44
2899.4
2858.8
2884.59
2892.14
2898.34
2900.83
2900.05
2897.26
2892.47
2886.04
2878.33
2869.77
2860.86
2852.21
2843.81
2835.79
2827.92
2819.99
2811.76
2803.04
2793.77
2783.92
2773.56
2762.77
2751.66
2740.29
2728.72
2716.95
2704.97
2692.72
2680.11
2667.05
2653.43
2639.13
2624.02
2607.94
2590.74
2572.22
2552.18
2530.37
2506.55
2480.43
2451.67
2419.92
2384.88
2346.52
2305.25
2262.07
2218.12
2174.86
2132.9
2092.32
2053.72
2016.92
1980.73
1944.92
1909.17
1873.38
1837.82
1802.46
1767.17
1731.94
1696.83
1661.94
1627.39
1593.3
1559.82
1527.19
1495.76
1465.87
1437.74
1411.44
1387.01
1364.53
1344.02
1325.39
1308.4
1292.89
1278.9
1266.51
1254.95
1244.07
1233.52
1223.75
1214.64
1206.42
1198.87
1191.85
1185
1178.43
1172.17
1166.23
1160.55
1155.06
1149.78
1144.81
1140.17
1135.78
1131.57
1127.52
1123.69
1120.18
1116.9
1113.66
1110.46
1107.39
1104.49
1101.78
1099.23
1096.76
1094.42
1092.08
1089.82
1087.67
1085.65
1083.59
1081.7
1079.69
1077.87
1075.25
4303.94
2900.31
2856.97
2882.89
2890.81
2897.17
2899.82
2899.18
2896.56
2891.94
2885.66
2878.1
2869.68
2860.89
2852.33
2843.99
2836.01
2828.16
2820.22
2811.95
2803.17
2793.81
2783.85
2773.38
2762.49
2751.29
2739.85
2728.22
2716.41
2704.4
2692.11
2679.48
2666.38
2652.71
2638.36
2623.18
2607.02
2589.72
2571.1
2550.93
2528.99
2505.03
2478.75
2449.87
2418.07
2383.12
2345.06
2304.43
2262.29
2219.66
2177.66
2136.78
2097.61
2060.39
2023.77
1987.74
1952.35
1917.3
1882.18
1846.92
1811.63
1776.27
1740.86
1705.59
1670.71
1636.4
1602.72
1569.66
1537.31
1505.93
1475.83
1447.28
1420.42
1395.34
1372.12
1350.82
1331.37
1313.64
1297.54
1282.88
1269.39
1256.59
1244.81
1234.01
1224.72
1216.26
1208.41
1200.67
1192.97
1185.53
1178.59
1172.12
1166.06
1160.3
1154.85
1149.75
1144.99
1140.52
1136.16
1131.84
1127.64
1123.71
1120.11
1116.67
1113.2
1109.79
1106.54
1103.52
1100.71
1098.06
1095.53
1093.11
1090.73
1088.47
1086.37
1084.42
1082.43
1080.62
1078.69
1076.98
1074.55
4305.25
2901.28
2855.15
2881.17
2889.48
2896
2898.8
2898.3
2895.86
2891.4
2885.27
2877.87
2869.58
2860.92
2852.45
2844.18
2836.24
2828.41
2820.45
2812.14
2803.3
2793.85
2783.79
2773.21
2762.21
2750.92
2739.42
2727.73
2715.88
2703.83
2691.51
2678.85
2665.72
2652.01
2637.6
2622.36
2606.12
2588.74
2570.01
2549.73
2527.67
2503.58
2477.2
2448.25
2416.47
2381.69
2344.07
2304.18
2262.96
2221.54
2180.72
2141.19
2103.4
2066.56
2030.29
1995.36
1961.06
1926.96
1892.41
1857.51
1822.57
1787.48
1752.16
1716.67
1681.27
1646.24
1611.83
1578.18
1545.42
1513.74
1483.37
1454.51
1427.25
1401.65
1377.77
1355.66
1335.35
1316.85
1300.16
1284.89
1271.01
1258.36
1247.13
1236.78
1227.39
1218.24
1209.29
1200.64
1192.48
1184.91
1178.08
1171.74
1165.72
1159.92
1154.41
1149.27
1144.52
1140.02
1135.65
1131.4
1127.33
1123.55
1120
1116.57
1113.19
1109.9
1106.76
1103.8
1101
1098.31
1095.73
1093.28
1090.89
1088.57
1086.38
1084.31
1082.2
1080.29
1078.25
1076.41
1073.8
4306.61
2902.28
2853.33
2879.44
2888.14
2894.82
2897.77
2897.42
2895.16
2890.85
2884.88
2877.64
2869.49
2860.94
2852.57
2844.38
2836.48
2828.66
2820.7
2812.35
2803.44
2793.9
2783.74
2773.04
2761.94
2750.56
2738.99
2727.25
2715.35
2703.26
2690.92
2678.23
2665.07
2651.33
2636.87
2621.56
2605.26
2587.79
2568.97
2548.59
2526.43
2502.24
2475.78
2446.81
2415.09
2380.53
2343.37
2304.3
2264.08
2223.78
2184.22
2146
2108.94
2072.62
2037.85
2003.95
1970.01
1935.94
1901.45
1866.77
1832.17
1797.54
1762.79
1727.92
1693.03
1658.28
1623.8
1589.71
1556.2
1523.59
1492.26
1462.47
1434.38
1408.04
1383.5
1360.76
1339.93
1321.05
1303.9
1288.2
1274.12
1261.26
1249.39
1238.41
1228.36
1218.68
1209.6
1201.14
1193.46
1186.31
1179.63
1173.31
1167.2
1161.35
1155.79
1150.56
1145.56
1140.71
1135.97
1131.42
1127.14
1123.13
1119.26
1115.46
1111.85
1108.52
1105.42
1102.49
1099.66
1096.88
1094.17
1091.62
1089.16
1086.77
1084.53
1082.49
1080.44
1078.64
1076.7
1074.95
1072.49
4307.78
2903.3
2851.52
2877.69
2886.8
2893.63
2896.73
2896.53
2894.46
2890.3
2884.49
2877.4
2869.4
2860.98
2852.7
2844.58
2836.73
2828.92
2820.95
2812.56
2803.59
2793.96
2783.69
2772.88
2761.67
2750.21
2738.56
2726.77
2714.82
2702.7
2690.33
2677.62
2664.43
2650.66
2636.16
2620.79
2604.42
2586.88
2567.97
2547.51
2525.26
2501
2474.51
2445.56
2413.97
2379.71
2343.08
2304.75
2265.55
2226.41
2188.08
2150.84
2114.51
2079.55
2045.8
2011.79
1977.86
1943.95
1909.92
1875.62
1841.19
1806.66
1771.97
1737.22
1702.61
1668.31
1634.36
1600.75
1567.56
1535.03
1503.49
1473.28
1444.6
1417.59
1392.32
1368.87
1347.32
1327.67
1309.75
1293.2
1277.49
1263.24
1251.07
1240.19
1230.2
1220.47
1211.25
1202.52
1194.58
1187.23
1180.25
1173.57
1167.25
1161.28
1155.68
1150.37
1145.24
1140.34
1135.66
1131.26
1127.12
1123.23
1119.37
1115.51
1111.84
1108.5
1105.42
1102.45
1099.5
1096.58
1093.77
1091.13
1088.66
1086.31
1084.19
1082.26
1080.27
1078.47
1076.49
1074.69
1072.11
4308.97
2904.31
2849.73
2875.92
2885.45
2892.43
2895.66
2895.63
2893.75
2889.75
2884.09
2877.17
2869.31
2861.01
2852.84
2844.79
2836.98
2829.19
2821.21
2812.79
2803.75
2794.03
2783.65
2772.72
2761.41
2749.86
2738.14
2726.29
2714.31
2702.15
2689.75
2677.01
2663.8
2650
2635.46
2620.05
2603.62
2586.01
2567.04
2546.5
2524.18
2499.88
2473.39
2444.5
2413.06
2379.14
2343.15
2305.58
2267.4
2229.39
2192.14
2155.8
2120.63
2086.78
2052.97
2019.22
1986.14
1953.18
1920.07
1886.3
1852.17
1817.83
1783.15
1748.17
1713.11
1678.28
1643.86
1609.93
1576.58
1543.96
1512.33
1481.95
1452.97
1425.51
1399.64
1375.46
1353.03
1332.38
1313.48
1296.51
1281.09
1267.28
1254.8
1243.02
1231.85
1221.29
1211.59
1202.82
1195.19
1188.02
1180.87
1173.87
1167.27
1161.1
1155.27
1149.68
1144.28
1139.2
1134.42
1129.95
1125.74
1121.73
1117.86
1114.19
1110.79
1107.65
1104.63
1101.64
1098.65
1095.71
1092.86
1090.19
1087.66
1085.23
1082.97
1080.88
1078.72
1076.78
1074.68
1072.8
1070.15
4310.02
2905.34
2847.98
2874.13
2884.1
2891.21
2894.57
2894.71
2893.04
2889.19
2883.69
2876.93
2869.22
2861.05
2852.98
2845
2837.24
2829.47
2821.48
2813.01
2803.91
2794.11
2783.62
2772.58
2761.16
2749.52
2737.73
2725.83
2713.8
2701.61
2689.18
2676.41
2663.18
2649.36
2634.79
2619.34
2602.86
2585.19
2566.16
2545.56
2523.21
2498.9
2472.43
2443.65
2412.43
2378.9
2343.48
2306.77
2269.58
2232.65
2196.39
2161.13
2127.08
2093.53
2060.07
2027.68
1995.5
1962.99
1930.08
1896.54
1862.73