/*--------------------------------*- C++ -*----------------------------------*\
| =========                 |                                                 |
| \\      /  F ield         | OpenFOAM: The Open Source CFD Toolbox           |
|  \\    /   O peration     | Version:  2412                                  |
|   \\  /    A nd           | Website:  www.openfoam.com                      |
|    \\/     M anipulation  |                                                 |
\*---------------------------------------------------------------------------*/
FoamFile
{
    version     2.0;
    format      ascii;
    arch        "LSB;label=32;scalar=64";
    class       volScalarField;
    location    "0.033";
    object      p;
}
// * * * * * * * * * * * * * * * * * * * * * * * * * * * * * * * * * * * * * //

dimensions      [1 -1 -2 0 0 0 0];

internalField   nonuniform List<scalar> 
78650
(
2790
2790
2790
2790
2790
2790
2790
2790
2790
2790.01
2790.42
2794.31
2807.21
2824.03
2832.56
2835.16
2831.07
2816.32
2798.56
2785.47
2777.12
2771.78
2767.54
2762.91
2757.56
2752.02
2746.87
2742.31
2738.2
2734.17
2729.83
2725.14
2721.04
2718.84
2718.53
2720.23
2724.08
2728.26
2731.1
2732.19
2732.13
2731.31
2730.09
2729.01
2728.22
2727.6
2727.04
2726.52
2726.04
2725.58
2725.17
2724.81
2724.5
2724.22
2723.95
2723.65
2723.32
2722.94
2722.53
2722.06
2721.52
2720.87
2720.07
2719.07
2717.82
2716.31
2714.51
2712.38
2709.86
2706.9
2703.45
2699.45
2694.83
2689.53
2683.45
2676.49
2668.52
2659.45
2649.16
2637.56
2624.54
2609.98
2593.75
2575.68
2555.62
2533.36
2508.8
2481.82
2452.55
2420.46
2385.44
2346.95
2306.22
2261.98
2215.21
2164.8
2110.54
2053.13
1991.97
1929.82
1866.67
1805.08
1741.33
1677.1
1613.73
1548.62
1484.51
1423.49
1363.77
1309.54
1260.74
1216.18
1175.73
1139.02
1105.83
1074.63
1048.03
1023.14
1002.44
985.538
950.241
2790
2790
2790
2790
2790
2790
2790
2790
2790
2790.01
2790.23
2792.92
2803.98
2821.38
2832.38
2836.21
2833.45
2820.65
2802.74
2788.91
2780.2
2774.76
2770.75
2766.48
2761.39
2755.95
2750.75
2746.09
2741.94
2738.08
2734.15
2729.87
2725.57
2722.48
2721.31
2721.9
2724.75
2729.07
2732.99
2735.26
2735.94
2735.72
2734.89
2733.93
2733.2
2732.69
2732.31
2732
2731.73
2731.48
2731.27
2731.13
2731.06
2731.03
2731.02
2731
2730.97
2730.91
2730.82
2730.7
2730.54
2730.29
2729.94
2729.41
2728.66
2727.69
2726.46
2724.94
2723.09
2720.85
2718.18
2715.01
2711.3
2706.98
2701.96
2696.15
2689.44
2681.73
2672.91
2662.9
2651.58
2638.83
2624.53
2608.54
2590.72
2570.88
2548.89
2524.56
2497.78
2468.05
2435.47
2399.79
2361.84
2320.57
2276.72
2228.66
2177.81
2123.79
2066.58
2006.97
1944.24
1880.48
1816.47
1751.44
1688.19
1625.02
1560.37
1499.36
1438.83
1379.61
1324.54
1272.74
1224.87
1181.46
1143.12
1107.73
1076.87
1049.15
1024.58
1002.51
958.833
2790
2790
2790
2790
2790
2790
2790
2790
2790
2790
2790.12
2791.87
2800.87
2818.18
2831.71
2836.95
2835.18
2824.86
2807.25
2792.67
2783.45
2777.82
2773.99
2770.05
2765.23
2759.89
2754.66
2749.92
2745.7
2741.91
2738.29
2734.52
2730.47
2726.86
2724.85
2724.57
2726.07
2729.86
2734.36
2737.85
2739.58
2739.98
2739.69
2738.98
2738.34
2737.93
2737.7
2737.58
2737.52
2737.49
2737.5
2737.58
2737.73
2737.95
2738.2
2738.47
2738.73
2738.99
2739.24
2739.47
2739.68
2739.83
2739.9
2739.84
2739.6
2739.16
2738.49
2737.58
2736.38
2734.83
2732.91
2730.56
2727.71
2724.33
2720.32
2715.61
2710.08
2703.66
2696.22
2687.68
2677.93
2666.87
2654.39
2640.35
2624.59
2606.93
2587.24
2565.32
2541.06
2514.12
2484.7
2452.61
2418.06
2379.88
2338.63
2293.41
2246.02
2195.29
2141.29
2084.31
2023.28
1958.86
1894.17
1827.49
1759.52
1695.43
1628.89
1563.89
1503.09
1440.89
1381.74
1326.42
1272.54
1223.56
1179.16
1139.03
1103.81
1070.44
1043.23
1020.62
974.322
2790
2790
2790
2790
2790
2790
2790
2790
2790
2790
2790.06
2791.11
2798
2814.44
2830.3
2837.3
2836.52
2828.99
2812.21
2796.83
2786.95
2781.04
2777.31
2773.65
2769.08
2763.86
2758.63
2753.85
2749.59
2745.81
2742.39
2739.07
2735.52
2731.9
2729.14
2728.06
2728.47
2731.02
2735.38
2739.8
2742.83
2744.16
2744.38
2744.11
2743.65
2743.33
2743.23
2743.27
2743.42
2743.6
2743.83
2744.12
2744.49
2744.95
2745.46
2746
2746.55
2747.12
2747.69
2748.26
2748.83
2749.37
2749.85
2750.23
2750.46
2750.54
2750.42
2750.09
2749.52
2748.64
2747.44
2745.87
2743.86
2741.37
2738.34
2734.69
2730.32
2725.15
2719.06
2711.98
2703.8
2694.44
2683.77
2671.67
2658
2642.58
2625.3
2605.95
2584.42
2560.39
2533.96
2504.76
2472.75
2437.17
2398.7
2356.75
2312.59
2264.7
2213.79
2159.27
2101.38
2039.52
1974.72
1909.43
1840.21
1770.68
1703.78
1633.82
1568.54
1504.8
1442.12
1384.58
1327.41
1273.18
1221.8
1174.41
1134.35
1098.29
1067.25
1040.65
989.471
2790
2790
2790
2790
2790
2790
2790
2790
2790
2790
2790.02
2790.61
2795.52
2810.3
2827.98
2837.3
2837.65
2832.83
2817.37
2801.3
2790.71
2784.42
2780.68
2777.23
2772.9
2767.82
2762.64
2757.87
2753.62
2749.88
2746.57
2743.57
2740.55
2737.31
2734.24
2732.39
2731.99
2733.15
2736.61
2741.28
2745.45
2748.04
2749.08
2749.26
2749.12
2748.95
2748.95
2749.14
2749.47
2749.87
2750.31
2750.82
2751.42
2752.11
2752.87
2753.69
2754.53
2755.4
2756.28
2757.19
2758.12
2759.04
2759.93
2760.75
2761.46
2762.02
2762.43
2762.66
2762.7
2762.48
2762
2761.18
2759.97
2758.35
2756.25
2753.61
2750.34
2746.34
2741.53
2735.82
2729.12
2721.33
2712.34
2702.05
2690.32
2677.01
2661.98
2645.02
2625.99
2604.64
2581.04
2554.79
2525.76
2493.4
2458.38
2420.19
2379.36
2334.34
2286.13
2233.83
2178.2
2120.08
2057.33
1993.19
1926.71
1855.64
1787.34
1716.49
1644
1576.81
1508.68
1445.72
1386.23
1329.93
1275.68
1223.45
1174.67
1129.75
1092.36
1061.45
999.342
2790
2790
2790
2790
2790
2790
2790
2790
2790
2790
2790.01
2790.3
2793.52
2805.99
2824.64
2836.84
2838.71
2836.09
2822.65
2806.29
2794.89
2788.01
2784.04
2780.7
2776.63
2771.79
2766.75
2762.07
2757.9
2754.22
2750.98
2748.15
2745.55
2742.85
2739.96
2737.55
2736.42
2736.57
2738.54
2742.62
2747.41
2751.3
2753.53
2754.42
2754.67
2754.75
2754.89
2755.19
2755.68
2756.28
2756.95
2757.68
2758.5
2759.42
2760.43
2761.51
2762.63
2763.79
2764.99
2766.23
2767.5
2768.79
2770.08
2771.32
2772.48
2773.53
2774.46
2775.23
2775.84
2776.25
2776.43
2776.34
2775.93
2775.16
2773.94
2772.28
2770.06
2767.21
2763.64
2759.28
2754.02
2747.8
2740.5
2732.02
2722.24
2711.02
2698.2
2683.6
2667.11
2648.52
2627.74
2604.32
2578.26
2549.29
2517.84
2483.14
2445.3
2403.21
2358.01
2308.97
2256.89
2201.24
2142.32
2078.79
2013.86
1945.31
1873.17
1804.07
1729.32
1657.57
1585.67
1513.76
1447.12
1383.82
1326.01
1274.55
1226.54
1179.52
1135.31
1096.69
1024.59
2790
2790
2790
2790
2790
2790
2790
2790
2790
2790
2790
2790.13
2792.05
2801.82
2820.45
2835.56
2839.58
2838.56
2828.02
2811.83
2799.36
2791.64
2787.28
2784.01
2780.29
2775.81
2771.02
2766.47
2762.42
2758.84
2755.67
2752.94
2750.58
2748.35
2745.94
2743.47
2741.69
2741.11
2741.78
2744.55
2749.08
2753.83
2757.41
2759.4
2760.29
2760.71
2761.03
2761.46
2762.08
2762.86
2763.75
2764.7
2765.75
2766.9
2768.16
2769.49
2770.9
2772.36
2773.86
2775.42
2777.03
2778.69
2780.36
2782.03
2783.64
2785.16
2786.59
2787.9
2789.08
2790.1
2790.92
2791.51
2791.84
2791.89
2791.55
2790.82
2789.61
2787.85
2785.45
2782.34
2778.43
2773.66
2767.93
2761.12
2753.14
2743.85
2733.12
2720.79
2706.75
2690.75
2672.7
2652.25
2629.48
2604.03
2575.96
2544.46
2509.71
2471.05
2429.46
2384.15
2335.7
2283.3
2227.09
2167.33
2102.76
2036.53
1965.15
1894.55
1821.25
1745.73
1674.17
1598.1
1525.6
1454.01
1383.62
1321.18
1266.08
1219.36
1178.07
1140.49
1058.29
2790
2790
2790
2790
2790
2790
2790
2790
2790
2790
2790
2790.05
2791.07
2798.07
2815.48
2833.26
2839.86
2840.51
2833.32
2817.84
2804
2795.25
2790.43
2787.28
2784
2780.01
2775.55
2771.16
2767.22
2763.77
2760.7
2758.01
2755.75
2753.82
2751.9
2749.77
2747.73
2746.53
2746.35
2747.55
2750.98
2755.83
2760.48
2763.81
2765.7
2766.71
2767.34
2767.93
2768.67
2769.6
2770.68
2771.86
2773.13
2774.52
2776.01
2777.61
2779.28
2781.03
2782.84
2784.71
2786.65
2788.66
2790.71
2792.77
2794.81
2796.8
2798.71
2800.54
2802.27
2803.87
2805.32
2806.6
2807.63
2808.42
2808.91
2809.08
2808.84
2808.14
2806.9
2805
2802.43
2799.08
2794.88
2789.74
2783.55
2776.19
2767.54
2757.43
2745.75
2732.28
2716.91
2699.33
2679.54
2657.16
2632.14
2603.87
2572.61
2537.94
2500.46
2459.2
2414.37
2365.18
2311.86
2254.56
2193.32
2128.34
2059.95
1985.7
1914.03
1836.32
1761.94
1685.57
1610.06
1539
1466.51
1394.28
1324.85
1259.27
1207.31
1168.05
1088.6
2790
2790
2790
2790
2790
2790
2790
2790
2790
2790
2790
2790.02
2790.49
2795.02
2810.08
2829.75
2839.58
2842.3
2838.01
2823.83
2808.67
2798.95
2793.65
2790.6
2787.8
2784.36
2780.29
2776.08
2772.25
2768.93
2765.99
2763.36
2761.13
2759.32
2757.74
2756.08
2754.22
2752.63
2751.88
2752.04
2753.85
2757.86
2762.92
2767.43
2770.6
2772.54
2773.71
2774.58
2775.46
2776.51
2777.75
2779.14
2780.64
2782.27
2784.01
2785.86
2787.8
2789.83
2791.94
2794.13
2796.39
2798.74
2801.16
2803.62
2806.08
2808.52
2810.91
2813.23
2815.49
2817.66
2819.72
2821.63
2823.37
2824.91
2826.19
2827.18
2827.84
2828.12
2827.97
2827.25
2825.94
2823.9
2821.13
2817.51
2812.97
2807.4
2800.66
2792.63
2783.19
2772.14
2759.37
2744.62
2727.86
2708.7
2687.05
2662.44
2635.09
2604.53
2570.93
2533.25
2491.72
2445.81
2395.99
2342.23
2284.34
2222.34
2157.01
2086.17
2012.86
1935.47
1854.49
1776.14
1695.44
1617.51
1543.55
1475.17
1407.35
1343.47
1277.15
1219.29
1110.75
2790
2790
2790
2790
2790
2790
2790
2790
2790
2790
2790
2790.01
2790.2
2792.8
2804.68
2825.02
2838.8
2843.79
2841.39
2829.53
2813.75
2803.05
2797.13
2794.07
2791.7
2788.83
2785.21
2781.24
2777.52
2774.31
2771.51
2768.96
2766.73
2764.9
2763.48
2762.17
2760.74
2759.2
2758.06
2757.65
2758.16
2760.66
2765.19
2770.29
2774.66
2777.83
2779.88
2781.25
2782.39
2783.58
2784.95
2786.52
2788.24
2790.09
2792.08
2794.19
2796.39
2798.7
2801.1
2803.59
2806.17
2808.85
2811.62
2814.46
2817.32
2820.19
2823.04
2825.85
2828.61
2831.32
2833.96
2836.49
2838.89
2841.13
2843.18
2845
2846.54
2847.74
2848.56
2848.95
2848.89
2848.16
2846.82
2844.69
2841.77
2837.94
2833.09
2827.1
2819.84
2811.13
2800.88
2788.82
2774.88
2758.7
2740.22
2719.07
2695.39
2668.57
2638.62
2604.67
2567.12
2525.53
2480.21
2430.82
2376.9
2318.71
2256.11
2190
2117.33
2042.83
1961.85
1880.89
1794.81
1710.7
1624.6
1542.43
1466.51
1400.18
1342.78
1292.26
1184.04
2790
2790
2790
2790
2790
2790
2790
2790
2790
2790
2790
2790
2790.07
2791.38
2799.83
2819.26
2836.98
2844.42
2843.58
2835.12
2819.45
2807.5
2800.83
2797.61
2795.62
2793.32
2790.23
2786.54
2782.92
2779.78
2777.08
2774.6
2772.38
2770.5
2769.09
2767.98
2766.95
2765.78
2764.63
2763.91
2763.77
2764.77
2768.01
2772.88
2777.96
2782.32
2785.54
2787.75
2789.36
2790.79
2792.31
2794.01
2795.91
2797.99
2800.22
2802.58
2805.05
2807.63
2810.32
2813.1
2816
2819
2822.11
2825.32
2828.58
2831.87
2835.16
2838.43
2841.69
2844.93
2848.12
2851.24
2854.28
2857.2
2859.97
2862.56
2864.93
2867.05
2868.85
2870.25
2871.21
2871.7
2871.71
2870.98
2869.59
2867.35
2864.24
2860.12
2854.89
2848.4
2840.54
2831.08
2819.93
2806.77
2791.56
2773.93
2753.87
2730.74
2704.54
2674.67
2641.56
2604.65
2563.94
2518.86
2469.14
2414.97
2355.63
2291.76
2223.69
2150.55
2073.6
1993.66
1909.48
1822.84
1738.61
1645.52
1557.7
1471.36
1393.42
1332
1210.3
2790
2790
2790
2790
2790
2790
2790
2790
2790
2790
2790
2790
2790.02
2790.6
2795.95
2812.89
2833.53
2844.31
2845.14
2840.27
2825.52
2812.18
2804.78
2801.27
2799.59
2797.84
2795.28
2791.9
2788.34
2785.18
2782.53
2780.12
2777.95
2776.05
2774.62
2773.59
2772.84
2772.08
2771.27
2770.53
2770.16
2770.34
2772.05
2775.86
2780.88
2786.01
2790.4
2793.72
2796.12
2798
2799.75
2801.6
2803.65
2805.91
2808.37
2810.98
2813.72
2816.56
2819.52
2822.6
2825.79
2829.1
2832.54
2836.1
2839.73
2843.42
2847.13
2850.86
2854.59
2858.32
2862.03
2865.72
2869.36
2872.92
2876.38
2879.71
2882.87
2885.83
2888.54
2890.95
2893.02
2894.63
2895.78
2896.43
2896.54
2895.89
2894.5
2892.2
2888.94
2884.56
2878.96
2871.95
2863.42
2853.09
2840.9
2826.51
2809.83
2790.34
2768.11
2742.64
2714.14
2681.84
2645.6
2604.77
2559.18
2508.92
2453.5
2393.41
2327.89
2257.68
2182.97
2101.76
2020.03
1931.14
1845.24
1757.03
1666.54
1585.8
1499.61
1422.52
1272.32
2790
2790
2790
2790
2790
2790
2790
2790
2790
2790
2790
2790
2790.01
2790.22
2793.22
2806.6
2828.47
2843.32
2846.53
2844.31
2831.47
2817.15
2809.03
2805.05
2803.51
2802.15
2800.06
2797.01
2793.52
2790.34
2787.73
2785.42
2783.34
2781.5
2780.09
2779.09
2778.5
2778.06
2777.66
2777.24
2776.91
2776.84
2777.49
2779.89
2784.07
2789.27
2794.47
2798.93
2802.38
2805.01
2807.19
2809.27
2811.47
2813.89
2816.54
2819.38
2822.37
2825.48
2828.71
2832.07
2835.55
2839.17
2842.92
2846.81
2850.81
2854.88
2859.01
2863.16
2867.35
2871.55
2875.77
2880
2884.21
2888.38
2892.49
2896.52
2900.42
2904.18
2907.75
2911.09
2914.13
2916.85
2919.18
2921.03
2922.38
2923.17
2923.38
2922.78
2921.36
2918.96
2915.49
2910.81
2904.8
2897.23
2888.01
2876.8
2863.52
2847.71
2829.43
2808.15
2783.88
2755.78
2723.84
2687.5
2646.74
2601.44
2551.08
2496.02
2435.19
2368.84
2296.7
2219.73
2137.74
2048.97
1952.18
1862.66
1761.88
1670.84
1588.66
1518.03
1372.15
2790
2790
2790
2790
2790
2790
2790
2790
2790
2790
2790
2790
2790
2790.07
2791.54
2801.05
2822.25
2841.17
2847.4
2846.86
2837.25
2822.72
2813.55
2808.83
2807.14
2806
2804.39
2801.81
2798.51
2795.35
2792.79
2790.61
2788.66
2786.94
2785.58
2784.64
2784.12
2783.87
2783.8
2783.79
2783.74
2783.77
2784.05
2785.29
2788.2
2792.71
2798.07
2803.36
2807.91
2811.53
2814.4
2816.89
2819.32
2821.89
2824.69
2827.73
2830.95
2834.32
2837.82
2841.44
2845.2
2849.11
2853.17
2857.37
2861.71
2866.15
2870.66
2875.22
2879.83
2884.48
2889.18
2893.91
2898.66
2903.4
2908.13
2912.81
2917.41
2921.92
2926.3
2930.51
2934.5
2938.23
2941.64
2944.69
2947.34
2949.49
2951.1
2952.1
2952.45
2951.97
2950.54
2948.07
2944.39
2939.36
2932.87
2924.62
2914.54
2902.24
2887.74
2870.44
2850.29
2826.56
2799.37
2768.17
2732.96
2693.3
2648.54
2598.69
2542.93
2481.92
2414.46
2341.19
2262.21
2179.69
2088.53
1990.1
1890.06
1783.1
1681.1
1592.17
1421.78
2790
2790
2790
2790
2790
2790
2790
2790
2790
2790
2790
2790
2790
2790.02
2790.65
2796.69
2815.49
2837.61
2847.31
2848.78
2842.66
2828.61
2817.94
2812.26
2810.34
2809.46
2808.39
2806.41
2803.43
2800.31
2797.81
2795.76
2793.96
2792.4
2791.14
2790.28
2789.81
2789.67
2789.78
2790.12
2790.43
2790.76
2791.12
2791.82
2793.58
2796.95
2801.78
2807.33
2812.72
2817.38
2821.17
2824.31
2827.11
2829.9
2832.85
2836.05
2839.48
2843.08
2846.83
2850.72
2854.75
2858.93
2863.28
2867.78
2872.45
2877.23
2882.11
2887.06
2892.08
2897.16
2902.31
2907.52
2912.77
2918.06
2923.36
2928.66
2933.93
2939.13
2944.26
2949.28
2954.15
2958.81
2963.23
2967.36
2971.16
2974.59
2977.57
2980.03
2981.89
2983.08
2983.56
2983.18
2981.74
2979.17
2975.28
2969.89
2962.88
2953.94
2943
2929.49
2913.4
2894.13
2871.83
2845.79
2815.89
2781.4
2741.89
2697.17
2646.41
2590.04
2527.1
2458.5
2383.24
2301.45
2215.09
2119.89
2024.82
1925.02
1821.63
1725.93
1537.52
2790
2790
2790
2790
2790
2790
2790
2790
2790
2790
2790
2790
2790
2790.01
2790.25
2793.68
2808.88
2832.7
2846.37
2850.52
2847.26
2834.21
2821.97
2815.52
2813.43
2812.82
2812.23
2810.88
2808.29
2805.26
2802.83
2800.94
2799.31
2797.93
2796.78
2796.04
2795.62
2795.56
2795.79
2796.3
2796.92
2797.63
2798.28
2798.96
2800.08
2802.34
2806.17
2811.32
2817.05
2822.54
2827.32
2831.3
2834.68
2837.81
2840.96
2844.31
2847.91
2851.71
2855.69
2859.83
2864.11
2868.56
2873.18
2877.97
2882.93
2888.04
2893.26
2898.58
2903.98
2909.46
2915.03
2920.68
2926.41
2932.2
2938.04
2943.91
2949.79
2955.65
2961.48
2967.24
2972.92
2978.46
2983.82
2988.97
2993.87
2998.47
3002.72
3006.57
3009.95
3012.77
3014.92
3016.36
3017
3016.75
3015.28
3012.58
3008.39
3002.56
2994.95
2985.12
2973.05
2958.19
2940.56
2919.33
2894.37
2864.94
2830.8
2791.56
2746.55
2695.95
2638.69
2575.2
2504.09
2425.94
2340.63
2248.88
2147.03
2044.87
1935.08
1843.19
1668.01
2790
2790
2790
2790
2790
2790
2790
2790
2790
2790
2790
2790
2790
2790
2790.08
2791.84
2803.08
2826.76
2844.88
2851.81
2850.11
2839.26
2826.06
2818.94
2816.59
2816.13
2815.84
2815.07
2813.01
2810.21
2807.89
2806.17
2804.72
2803.51
2802.5
2801.86
2801.53
2801.53
2801.87
2802.44
2803.25
2804.25
2805.27
2806.21
2807.22
2808.78
2811.55
2815.85
2821.33
2827.22
2832.82
2837.71
2841.86
2845.5
2848.95
2852.49
2856.24
2860.23
2864.42
2868.78
2873.31
2878
2882.88
2887.94
2893.19
2898.6
2904.14
2909.8
2915.56
2921.42
2927.39
2933.46
2939.63
2945.89
2952.23
2958.63
2965.08
2971.55
2978.02
2984.48
2990.9
2997.24
3003.47
3009.55
3015.44
3021.12
3026.53
3031.62
3036.34
3040.63
3044.42
3047.6
3050.06
3051.74
3052.55
3052.46
3050.93
3048.1
3043.59
3037.24
3028.93
3018.15
3004.83
2988.17
2968.17
2944.12
2915.89
2882.94
2844.69
2800.9
2750.43
2693.55
2629.04
2557.49
2477.17
2388.7
2291.88
2192.15
2071.42
1960.91
1763.69
2790
2790
2790
2790
2790
2790
2790
2790
2790
2790
2790
2790
2790
2790
2790.03
2790.86
2798.51
2820.41
2842.61
2852.24
2851.93
2843.93
2830.35
2822.48
2819.67
2819.21
2819.13
2818.93
2817.58
2815.19
2813.04
2811.46
2810.19
2809.12
2808.24
2807.67
2807.44
2807.53
2807.97
2808.58
2809.47
2810.66
2811.99
2813.29
2814.51
2815.87
2817.92
2821.25
2826.03
2831.81
2837.86
2843.54
2848.53
2852.84
2856.73
2860.53
2864.46
2868.61
2872.97
2877.53
2882.28
2887.21
2892.32
2897.63
2903.14
2908.83
2914.68
2920.65
2926.74
2932.95
2939.28
2945.74
2952.32
2959.01
2965.8
2972.7
2979.67
2986.7
2993.76
3000.86
3007.96
3015.04
3022.06
3028.99
3035.8
3042.46
3048.94
3055.19
3061.17
3066.81
3072.06
3076.84
3081.08
3084.69
3087.48
3089.43
3090.41
3090.43
3088.82
3085.8
3080.94
3073.98
3064.76
3052.65
3037.71
3019.15
2996.85
2970.01
2938.08
2900.51
2856.32
2805.6
2747.17
2681.47
2607.12
2524.85
2433.39
2334.49
2227.91
2123.45
1934.69
2790
2790
2790
2790
2790
2790
2790
2790
2790
2790
2790
2790
2790
2790
2790.01
2790.38
2795.28
2814.31
2839.21
2852.07
2853.32
2848.02
2834.61
2825.84
2822.49
2821.97
2822.29
2822.61
2821.96
2820.13
2818.19
2816.73
2815.57
2814.58
2813.8
2813.28
2813.12
2813.35
2813.91
2814.58
2815.55
2816.83
2818.39
2820.04
2821.61
2823.11
2824.88
2827.47
2831.39
2836.64
2842.71
2848.9
2854.65
2859.7
2864.17
2868.34
2872.5
2876.81
2881.33
2886.08
2891.02
2896.16
2901.5
2907.04
2912.8
2918.75
2924.87
2931.14
2937.54
2944.08
2950.75
2957.57
2964.52
2971.61
2978.83
2986.18
2993.63
3001.17
3008.79
3016.47
3024.19
3031.94
3039.68
3047.38
3055.03
3062.59
3070.03
3077.31
3084.41
3091.27
3097.84
3104.05
3109.85
3115.15
3119.86
3123.91
3127.05
3129.3
3130.46
3130.57
3128.9
3125.59
3120.21
3112.45
3102.22
3088.73
3071.82
3050.56
3024.56
2993.17
2955.63
2911.71
2860.12
2800.89
2732.49
2655.52
2567.62
2471.3
2364.09
2253.49
2073.1
2790
2790
2790
2790
2790
2790
2790
2790
2790
2790
2790
2790
2790
2790
2790
2790.16
2793.19
2808.97
2835.15
2851.41
2854.52
2851.36
2838.52
2828.85
2825.07
2824.54
2825.37
2826.28
2826.15
2824.9
2823.17
2821.74
2820.62
2819.68
2818.99
2818.55
2818.47
2818.87
2819.56
2820.35
2821.4
2822.76
2824.46
2826.39
2828.34
2830.17
2832
2834.24
2837.44
2841.96
2847.67
2854.02
2860.32
2866.08
2871.19
2875.84
2880.3
2884.82
2889.5
2894.4
2899.52
2904.86
2910.4
2916.15
2922.14
2928.33
2934.71
2941.25
2947.93
2954.76
2961.74
2968.89
2976.19
2983.64
2991.25
2999
3006.89
3014.9
3023.01
3031.21
3039.5
3047.85
3056.23
3064.64
3073.04
3081.4
3089.71
3097.94
3106.05
3114.02
3121.78
3129.3
3136.51
3143.35
3149.75
3155.61
3160.84
3165.35
3168.88
3171.43
3172.78
3172.94
3171.16
3167.51
3161.57
3152.79
3141.03
3125.42
3105.79
3081.3
3051.26
3015.08
2971.57
2920.52
2860.43
2790.82
2709.29
2618.51
2512.89
2403.85
2230.68
2790
2790
2790
2790
2790
2790
2790
2790
2790
2790
2790
2790
2790
2790
2790
2790.07
2791.92
2804.67
2830.97
2850.34
2855.61
2853.8
2841.81
2831.54
2827.56
2827.07
2828.39
2829.93
2830.17
2829.28
2827.7
2826.28
2825.21
2824.38
2823.82
2823.51
2823.55
2824.11
2824.92
2825.85
2827.01
2828.44
2830.24
2832.37
2834.64
2836.85
2838.96
2841.17
2843.95
2847.8
2852.94
2859.11
2865.68
2872.02
2877.77
2882.95
2887.8
2892.56
2897.43
2902.48
2907.76
2913.27
2918.99
2924.95
2931.14
2937.55
2944.17
2950.95
2957.9
2965
2972.27
2979.71
2987.32
2995.11
3003.07
3011.2
3019.48
3027.92
3036.48
3045.16
3053.96
3062.85
3071.83
3080.86
3089.93
3099.02
3108.11
3117.18
3126.2
3135.14
3143.97
3152.64
3161.1
3169.31
3177.21
3184.7
3191.74
3198.19
3203.97
3208.98
3212.91
3215.78
3217.32
3217.5
3215.5
3211.29
3204.44
3194.41
3180.96
3163.13
3140.3
3111.63
3075.92
3032.73
2980.55
2918.67
2845.82
2761.7
2663.77
2556.43
2396.98
2790
2790
2790
2790
2790
2790
2790
2790
2790
2790
2790
2790
2790
2790
2790
2790.04
2791.2
2801.45
2827.14
2849.2
2856.55
2855.36
2844.54
2834.02
2829.99
2829.6
2831.34
2833.43
2833.86
2833.14
2831.71
2830.39
2829.44
2828.81
2828.43
2828.29
2828.47
2829.16
2830.08
2831.14
2832.38
2833.9
2835.77
2838.03
2840.54
2843.09
2845.54
2847.96
2850.62
2854.02
2858.57
2864.35
2870.93
2877.63
2883.93
2889.67
2894.95
2900.02
2905.1
2910.31
2915.74
2921.4
2927.3
2933.43
2939.81
2946.43
2953.26
2960.27
2967.46
2974.81
2982.33
2990.04
2997.94
3006.03
3014.31
3022.77
3031.41
3040.23
3049.19
3058.3
3067.55
3076.93
3086.43
3096.02
3105.69
3115.42
3125.21
3135.02
3144.84
3154.65
3164.41
3174.1
3183.68
3193.1
3202.32
3211.27
3219.9
3228.11
3235.83
3242.94
3249.33
3254.89
3259.25
3262.44
3264.13
3264.32
3262.02
3257.25
3249.36
3237.62
3221.46
3199.9
3171.86
3136.74
3092.77
3039.11
2973.58
2893.99
2801.15
2691.4
2544.61
2790
2790
2790
2790
2790
2790
2790
2790
2790
2790
2790
2790
2790
2790
2790
2790.02
2790.8
2799.22
2824
2848.19
2857.15
2856.47
2846.79
2836.28
2832.32
2832.03
2834.18
2836.68
2837.21
2836.61
2835.34
2834.2
2833.47
2833.1
2832.94
2832.96
2833.3
2834.09
2835.1
2836.24
2837.57
2839.15
2841.09
2843.42
2846.09
2848.9
2851.7
2854.41
2857.19
2860.39
2864.48
2869.79
2876.17
2883.03
2889.76
2896
2901.74
2907.15
2912.46
2917.85
2923.43
2929.24
2935.28
2941.58
2948.14
2954.94
2961.97
2969.19
2976.59
2984.16
2991.92
2999.88
3008.04
3016.4
3024.96
3033.73
3042.69
3051.84
3061.17
3070.66
3080.32
3090.13
3100.09
3110.18
3120.38
3130.69
3141.08
3151.55
3162.08
3172.65
3183.24
3193.83
3204.38
3214.87
3225.24
3235.46
3245.48
3255.22
3264.63
3273.6
3282.07
3289.89
3296.92
3303.07
3307.9
3311.44
3313.28
3313.39
3310.53
3304.72
3295.09
3281.05
3261.49
3235.57
3201.37
3158.13
3102.59
3032.67
2948.51
2843.65
2703.53
2790
2790
2790
2790
2790
2790
2790
2790
2790
2790
2790
2790
2790
2790
2790
2790.01
2790.6
2797.83
2821.75
2847.44
2857.53
2857.33
2848.53
2838.26
2834.43
2834.31
2836.89
2839.74
2840.36
2839.84
2838.74
2837.83
2837.35
2837.26
2837.33
2837.53
2838.03
2838.91
2839.99
2841.19
2842.57
2844.21
2846.2
2848.6
2851.37
2854.37
2857.45
2860.49
2863.5
2866.71
2870.53
2875.43
2881.5
2888.35
2895.34
2902
2908.17
2913.95
2919.53
2925.11
2930.83
2936.78
2942.97
2949.42
2956.14
2963.12
2970.32
2977.73
2985.32
2993.1
3001.07
3009.25
3017.64
3026.25
3035.08
3044.11
3053.36
3062.82
3072.47
3082.3
3092.32
3102.52
3112.88
3123.41
3134.08
3144.89
3155.82
3166.87
3178.02
3189.26
3200.57
3211.93
3223.33
3234.74
3246.12
3257.43
3268.65
3279.73
3290.6
3301.2
3311.47
3321.28
3330.58
3339.19
3346.96
3353.77
3359.08
3362.97
3364.96
3364.98
3361.42
3354.61
3342.96
3325.98
3301.83
3269.5
3224.34
3163.99
3085.72
2985.35
2850.73
2790
2790
2790
2790
2790
2790
2790
2790
2790
2790
2790
2790
2790
2790
2790
2790.01
2790.53
2797.15
2820.54
2847.17
2857.91
2858.04
2849.77
2839.87
2836.26
2836.43
2839.56
2842.71
2843.42
2842.94
2842
2841.32
2841.1
2841.23
2841.51
2841.9
2842.55
2843.52
2844.68
2845.94
2847.38
2849.08
2851.14
2853.59
2856.43
2859.57
2862.87
2866.21
2869.49
2872.83
2876.56
2881.15
2886.9
2893.62
2900.74
2907.72
2914.28
2920.41
2926.26
2932.05
2937.93
2944.01
2950.34
2956.93
2963.8
2970.94
2978.31
2985.88
2993.65
3001.61
3009.78
3018.16
3026.76
3035.59
3044.65
3053.93
3063.43
3073.16
3083.1
3093.24
3103.58
3114.11
3124.84
3135.75
3146.84
3158.08
3169.49
3181.04
3192.73
3204.55
3216.49
3228.53
3240.67
3252.87
3265.12
3277.38
3289.64
3301.85
3313.98
3325.97
3337.78
3349.31
3360.53
3371.28
3381.5
3390.99
3399.58
3407.15
3413.06
3417.39
3419.52
3419.3
3414.61
3405.7
3390.58
3368.58
3335.38
3288.69
3220.58
3128.86
2999.73
2790
2790
2790
2790
2790
2790
2790
2790
2790
2790
2790
2790
2790
2790
2790
2790.01
2790.52
2797.05
2820.36
2847.31
2858.38
2858.61
2850.5
2841.13
2837.82
2838.4
2842.27
2845.65
2846.42
2845.98
2845.19
2844.69
2844.65
2844.96
2845.43
2845.98
2846.77
2847.87
2849.13
2850.48
2852
2853.78
2855.92
2858.45
2861.37
2864.59
2868.06
2871.63
2875.18
2878.71
2882.46
2886.88
2892.35
2898.89
2906.04
2913.23
2920.11
2926.57
2932.7
2938.69
2944.73
2950.95
2957.41
2964.13
2971.15
2978.43
2985.95
2993.69
3001.62
3009.75
3018.09
3026.65
3035.45
3044.48
3053.75
3063.25
3072.99
3082.96
3093.15
3103.57
3114.19
3125.03
3136.08
3147.34
3158.79
3170.43
3182.25
3194.24
3206.41
3218.74
3231.23
3243.86
3256.63
3269.53
3282.53
3295.61
3308.76
3321.95
3335.15
3348.33
3361.44
3374.45
3387.29
3399.88
3412.16
3423.98
3435.26
3445.81
3455.39
3463.83
3470.38
3475.15
3477.27
3476.27
3470.5
3459.89
3440.71
3410.09
3355.46
3278.78
3153.62
2790
2790
2790
2790
2790
2790
2790
2790
2790
2790
2790
2790
2790
2790
2790
2790.01
2790.54
2797.32
2821.17
2848.05
2858.95
2858.99
2850.79
2842.12
2839.2
2840.3
2844.98
2848.55
2849.34
2848.95
2848.27
2847.92
2848.01
2848.47
2849.08
2849.76
2850.7
2851.95
2853.33
2854.8
2856.43
2858.33
2860.58
2863.21
2866.2
2869.5
2873.07
2876.82
2880.59
2884.33
2888.17
2892.51
2897.78
2904.13
2911.24
2918.58
2925.71
2932.44
2938.83
2945.02
2951.23
2957.59
2964.17
2971.03
2978.18
2985.6
2993.27
3001.15
3009.22
3017.5
3026.01
3034.74
3043.71
3052.93
3062.39
3072.1
3082.04
3092.24
3102.67
3113.33
3124.21
3135.33
3146.67
3158.23
3170
3181.99
3194.18
3206.57
3219.16
3231.94
3244.91
3258.06
3271.39
3284.89
3298.54
3312.33
3326.25
3340.28
3354.4
3368.6
3382.83
3397.07
3411.29
3425.43
3439.44
3453.23
3466.74
3479.79
3492.32
3504.07
3514.83
3524.37
3531.95
3537.38
3539.75
3538.2
3530.13
3513.58
3477.13
3425.89
3321.64
2790
2790
2790
2790
2790
2790
2790
2790
2790
2790
2790
2790
2790
2790
2790
2790.02
2790.64
2798.24
2823.04
2849.38
2859.59
2859.18
2850.7
2842.89
2840.57
2842.26
2847.68
2851.33
2852.11
2851.78
2851.24
2851
2851.23
2851.82
2852.52
2853.31
2854.41
2855.82
2857.34
2858.96
2860.74
2862.79
2865.17
2867.91
2870.98
2874.34
2877.98
2881.84
2885.79
2889.7
2893.66
2898
2903.14
2909.33
2916.37
2923.78
2931.1
2938.07
2944.68
2951.07
2957.44
2963.93
2970.65
2977.63
2984.91
2992.47
3000.27
3008.29
3016.5
3024.93
3033.58
3042.47
3051.61
3061
3070.64
3080.53
3090.68
3101.07
3111.72
3122.6
3133.73
3145.09
3156.7
3168.54
3180.61
3192.91
3205.43
3218.18
3231.15
3244.33
3257.73
3271.35
3285.17
3299.2
3313.42
3327.84
3342.43
3357.19
3372.11
3387.18
3402.37
3417.67
3433.05
3448.5
3463.96
3479.4
3494.76
3509.94
3524.89
3539.44
3553.5
3566.82
3579.1
3589.89
3598.45
3604.52
3607.18
3603.86
3587.64
3559.49
3495.39
2790
2790
2790
2790
2790
2790
2790
2790
2790
2790
2790
2790
2790
2790
2790
2790.02
2790.87
2799.79
2825.81
2851.04
2860.25
2859.2
2850.31
2843.47
2841.94
2844.45
2850.4
2853.94
2854.65
2854.42
2854.01
2853.91
2854.31
2855.04
2855.81
2856.72
2857.98
2859.54
2861.22
2863
2864.95
2867.17
2869.7
2872.55
2875.7
2879.11
2882.79
2886.73
2890.79
2894.86
2898.93
2903.3
2908.38
2914.45
2921.41
2928.86
2936.31
2943.47
2950.28
2956.84
2963.36
2969.99
2976.83
2983.94
2991.35
2999.04
3006.97
3015.11
3023.45
3032.01
3040.81
3049.85
3059.15
3068.7
3078.51
3088.58
3098.91
3109.5
3120.34
3131.44
3142.79
3154.38
3166.23
3178.33
3190.68
3203.28
3216.11
3229.18
3242.5
3256.05
3269.85
3283.88
3298.15
3312.66
3327.4
3342.37
3357.56
3372.97
3388.59
3404.42
3420.44
3436.65
3453.03
3469.58
3486.26
3503.07
3519.95
3536.87
3553.79
3570.62
3587.27
3603.58
3619.44
3634.6
3648.77
3661.44
3671.94
3679.12
3681.32
3670.67
3650.05
2790
2790
2790
2790
2790
2790
2790
2790
2790
2790
2790
2790
2790
2790
2790
2790.04
2791.26
2802.07
2829.35
2852.85
2860.73
2859.06
2849.86
2843.95
2843.33
2846.92
2853.16
2856.4
2856.95
2856.81
2856.55
2856.63
2857.26
2858.11
2858.96
2860.02
2861.44
2863.16
2864.99
2866.93
2869.05
2871.44
2874.12
2877.1
2880.32
2883.78
2887.49
2891.47
2895.62
2899.79
2903.97
2908.39
2913.45
2919.44
2926.34
2933.8
2941.35
2948.66
2955.62
2962.35
2969
2975.76
2982.72
2989.97
2997.5
3005.32
3013.36
3021.62
3030.09
3038.78
3047.71
3056.89
3066.34
3076.05
3086.02
3096.25
3106.75
3117.52
3128.55
3139.85
3151.4
3163.22
3175.29
3187.63
3200.24
3213.1
3226.21
3239.59
3253.22
3267.12
3281.27
3295.68
3310.36
3325.3
3340.5
3355.96
3371.68
3387.66
3403.89
3420.38
3437.12
3454.12
3471.35
3488.83
3506.54
3524.47
3542.6
3560.93
3579.41
3598.01
3616.68
3635.36
3653.97
3672.33
3690.27
3707.5
3723.67
3738
3749.82
3754.73
3760.27
2790
2790
2790
2790
2790
2790
2790
2790
2790
2790
2790
2790
2790
2790
2790
2790.07
2791.92
2805.15
2833.45
2854.69
2860.87
2858.62
2849.53
2844.58
2844.76
2849.63
2855.89
2858.69
2859.05
2858.96
2858.85
2859.14
2860.02
2860.99
2861.95
2863.16
2864.75
2866.62
2868.6
2870.69
2872.98
2875.54
2878.39
2881.5
2884.81
2888.31
2892.05
2896.07
2900.27
2904.51
2908.78
2913.27
2918.33
2924.27
2931.13
2938.6
2946.21
2953.63
2960.72
2967.57
2974.36
2981.24
2988.33
2995.7
3003.36
3011.29
3019.45
3027.82
3036.4
3045.22
3054.28
3063.6
3073.19
3083.04
3093.17
3103.56
3114.22
3125.17
3136.38
3147.86
3159.62
3171.64
3183.93
3196.5
3209.35
3222.46
3235.85
3249.5
3263.44
3277.65
3292.13
3306.9
3321.95
3337.29
3352.91
3368.82
3385.01
3401.49
3418.27
3435.34
3452.7
3470.36
3488.31
3506.56
3525.11
3543.95
3563.08
3582.49
3602.16
3622.08
3642.2
3662.51
3682.91
3703.35
3723.63
3743.59
3762.77
3781.04
3796.69
3808.68
3821.69
2790
2790
2790
2790
2790
2790
2790
2790
2790
2790
2790
2790
2790
2790
2790
2790.14
2792.96
2809.06
2837.83
2856.43
2860.84
2857.63
2849.47
2845.5
2846.41
2852.52
2858.54
2860.77
2860.95
2860.88
2860.95
2861.49
2862.57
2863.64
2864.74
2866.12
2867.88
2869.89
2872
2874.24
2876.69
2879.43
2882.44
2885.68
2889.08
2892.65
2896.43
2900.47
2904.71
2909.01
2913.36
2917.9
2922.99
2928.92
2935.76
2943.23
2950.89
2958.38
2965.58
2972.54
2979.44
2986.43
2993.64
3001.14
3008.92
3016.96
3025.22
3033.7
3042.39
3051.32
3060.51
3069.96
3079.68
3089.68
3099.94
3110.48
3121.3
3132.41
3143.79
3155.45
3167.38
3179.6
3192.09
3204.88
3217.94
3231.29
3244.92
3258.84
3273.05
3287.54
3302.33
3317.42
3332.81