/*--------------------------------*- C++ -*----------------------------------*\
| =========                 |                                                 |
| \\      /  F ield         | OpenFOAM: The Open Source CFD Toolbox           |
|  \\    /   O peration     | Version:  2412                                  |
|   \\  /    A nd           | Website:  www.openfoam.com                      |
|    \\/     M anipulation  |                                                 |
\*---------------------------------------------------------------------------*/
FoamFile
{
    version     2.0;
    format      ascii;
    arch        "LSB;label=32;scalar=64";
    class       volScalarField;
    location    "0.033";
    object      rho;
}
// * * * * * * * * * * * * * * * * * * * * * * * * * * * * * * * * * * * * * //

dimensions      [1 -3 0 0 0 0 0];

internalField   nonuniform List<scalar> 
78650
(
0.042133
0.042133
0.042133
0.042133
0.042133
0.042133
0.042133
0.042133
0.042133
0.0421332
0.0421375
0.0421789
0.0423159
0.0424944
0.0425848
0.0426123
0.042569
0.0424125
0.042224
0.0420846
0.0419957
0.0419389
0.0418936
0.0418442
0.0417871
0.041728
0.0416729
0.0416242
0.0415802
0.0415371
0.0414906
0.0414404
0.0413964
0.0413728
0.0413695
0.0413878
0.041429
0.0414738
0.0415042
0.0415159
0.0415153
0.0415065
0.0414934
0.0414818
0.0414733
0.0414665
0.0414605
0.041455
0.0414499
0.0414451
0.0414407
0.0414369
0.0414337
0.0414307
0.0414278
0.0414246
0.041421
0.041417
0.0414127
0.0414077
0.0414018
0.0413947
0.0413859
0.041375
0.0413617
0.0413456
0.0413264
0.0413036
0.0412767
0.041245
0.0412078
0.0411647
0.0411149
0.0410578
0.0409923
0.0409175
0.0408319
0.0407345
0.0406238
0.0404987
0.0403579
0.0402003
0.0400243
0.0398281
0.0396095
0.039366
0.0390969
0.0388001
0.0384745
0.0381144
0.0377244
0.0373003
0.0368461
0.0363408
0.0358029
0.0352276
0.0346148
0.033952
0.0332475
0.0325087
0.0317348
0.0309663
0.0301871
0.0293909
0.0286016
0.0277998
0.0269788
0.0261954
0.0254379
0.0247274
0.024091
0.0235201
0.0229878
0.0224919
0.0220325
0.0215818
0.0211614
0.020747
0.0203681
0.0200234
0.019436
0.042133
0.042133
0.042133
0.042133
0.042133
0.042133
0.042133
0.042133
0.042133
0.0421331
0.0421355
0.0421641
0.0422816
0.0424663
0.0425829
0.0426234
0.0425942
0.0424585
0.0422683
0.0421213
0.0420285
0.0419706
0.0419278
0.0418823
0.041828
0.0417699
0.0417143
0.0416646
0.0416202
0.0415789
0.0415369
0.041491
0.041445
0.0414118
0.0413993
0.0414057
0.0414361
0.0414825
0.0415244
0.0415487
0.041556
0.0415537
0.0415449
0.0415345
0.0415266
0.0415211
0.041517
0.0415136
0.0415108
0.0415083
0.0415061
0.0415046
0.0415039
0.0415036
0.0415035
0.0415033
0.0415029
0.0415023
0.0415015
0.0415003
0.0414985
0.0414957
0.0414916
0.0414857
0.0414778
0.0414675
0.0414544
0.0414383
0.0414186
0.0413946
0.0413659
0.0413318
0.0412919
0.0412453
0.0411913
0.0411289
0.041057
0.0409745
0.0408799
0.0407722
0.0406502
0.0405127
0.0403584
0.0401852
0.0399912
0.0397744
0.0395343
0.039268
0.0389734
0.0386463
0.0382899
0.0378985
0.0374744
0.0370057
0.0365089
0.035967
0.0353906
0.0347795
0.0341223
0.0334241
0.0326864
0.0319199
0.0311546
0.0303543
0.0295513
0.0287712
0.0279549
0.0271547
0.0263833
0.0256103
0.0248751
0.0241993
0.0235744
0.0230008
0.0224894
0.0219981
0.0215457
0.0211084
0.0206934
0.0202989
0.0196638
0.042133
0.042133
0.042133
0.042133
0.042133
0.042133
0.042133
0.042133
0.042133
0.0421331
0.0421343
0.0421529
0.0422486
0.0424323
0.0425758
0.0426312
0.0426125
0.0425032
0.0423163
0.0421613
0.0420632
0.0420033
0.0419624
0.0419204
0.041869
0.041812
0.0417562
0.0417055
0.0416604
0.0416199
0.0415812
0.0415408
0.0414975
0.0414588
0.0414373
0.0414342
0.0414503
0.0414909
0.0415391
0.0415764
0.041595
0.0415992
0.0415961
0.0415886
0.0415816
0.0415772
0.0415747
0.0415733
0.0415728
0.0415726
0.0415728
0.0415736
0.0415753
0.0415777
0.0415804
0.0415833
0.0415861
0.0415888
0.0415916
0.0415941
0.0415963
0.0415978
0.0415984
0.0415975
0.0415948
0.0415902
0.0415832
0.0415735
0.0415608
0.0415443
0.0415238
0.0414985
0.0414679
0.0414314
0.0413884
0.0413378
0.0412787
0.0412101
0.0411305
0.041039
0.0409343
0.0408154
0.0406809
0.0405292
0.0403588
0.0401676
0.0399542
0.0397153
0.03945
0.039156
0.0388352
0.0384806
0.0380912
0.037659
0.0371989
0.0366998
0.0361697
0.0355883
0.0349609
0.034288
0.0335851
0.0328406
0.0320829
0.0313039
0.0304805
0.0296799
0.0288671
0.0280249
0.0272265
0.0264316
0.0256411
0.0248988
0.0241988
0.0235508
0.0229627
0.0224102
0.0218892
0.0213643
0.0208826
0.020444
0.0197075
0.042133
0.042133
0.042133
0.042133
0.042133
0.042133
0.042133
0.042133
0.042133
0.0421331
0.0421336
0.0421449
0.0422182
0.0423927
0.0425608
0.042635
0.0426267
0.0425469
0.0423689
0.0422055
0.0421005
0.0420375
0.0419978
0.0419588
0.0419101
0.0418544
0.0417986
0.0417475
0.041702
0.0416616
0.041625
0.0415895
0.0415515
0.0415128
0.0414832
0.0414716
0.041476
0.0415033
0.04155
0.0415972
0.0416298
0.0416439
0.0416463
0.0416435
0.0416385
0.041635
0.0416338
0.0416343
0.0416359
0.0416379
0.0416404
0.0416435
0.0416476
0.0416525
0.041658
0.0416638
0.0416697
0.0416757
0.0416819
0.0416881
0.0416942
0.0416998
0.0417048
0.0417086
0.041711
0.0417118
0.0417106
0.0417072
0.0417013
0.041692
0.0416792
0.0416623
0.0416407
0.041614
0.0415814
0.0415423
0.0414956
0.0414404
0.0413755
0.0413
0.0412124
0.041112
0.0409975
0.0408675
0.0407203
0.0405538
0.0403665
0.0401561
0.0399219
0.0396607
0.0393718
0.0390484
0.0386929
0.0383029
0.0378851
0.0374217
0.0369205
0.0363703
0.0357891
0.0351701
0.0345026
0.0337925
0.0330242
0.0322552
0.0314376
0.0305922
0.029784
0.0289344
0.0280916
0.027277
0.0264658
0.0256863
0.0249349
0.0242376
0.0235813
0.0229822
0.0224451
0.0219069
0.0213727
0.0208647
0.0199882
0.042133
0.042133
0.042133
0.042133
0.042133
0.042133
0.042133
0.042133
0.042133
0.042133
0.0421333
0.0421395
0.0421918
0.0423487
0.0425363
0.042635
0.0426386
0.0425876
0.0424237
0.042253
0.0421405
0.0420735
0.0420336
0.0419969
0.0419507
0.0418966
0.0418413
0.0417904
0.0417451
0.041705
0.0416697
0.0416376
0.0416053
0.0415707
0.0415378
0.0415179
0.0415137
0.0415262
0.0415631
0.0416131
0.0416578
0.0416855
0.0416965
0.0416984
0.041697
0.0416951
0.041695
0.041697
0.0417005
0.0417049
0.0417097
0.0417152
0.0417216
0.041729
0.0417372
0.0417459
0.0417549
0.0417642
0.0417737
0.0417835
0.0417934
0.0418032
0.0418125
0.041821
0.0418284
0.0418344
0.0418389
0.0418414
0.041842
0.0418398
0.0418346
0.0418259
0.0418129
0.0417955
0.0417729
0.0417446
0.0417096
0.0416671
0.041616
0.0415553
0.0414838
0.0414005
0.0413043
0.0411941
0.0410682
0.0409249
0.0407627
0.0405794
0.0403738
0.040143
0.0398861
0.0395985
0.0392818
0.0389314
0.0385488
0.0381222
0.0376608
0.0371539
0.036615
0.0360296
0.0354013
0.0347369
0.0340102
0.0332441
0.032463
0.0316264
0.0307871
0.0299294
0.0290559
0.0281998
0.0273421
0.0265171
0.0257094
0.0249367
0.0242073
0.0235113
0.0228839
0.0222961
0.0217657
0.0212818
0.0204155
0.042133
0.042133
0.042133
0.042133
0.042133
0.042133
0.042133
0.042133
0.042133
0.042133
0.0421331
0.0421362
0.0421705
0.042303
0.0425009
0.0426301
0.0426499
0.0426222
0.0424797
0.0423061
0.0421849
0.0421117
0.0420694
0.0420339
0.0419906
0.041939
0.0418852
0.0418352
0.0417907
0.0417514
0.0417168
0.0416866
0.0416588
0.0416299
0.041599
0.0415732
0.0415611
0.0415627
0.0415838
0.0416275
0.0416787
0.0417202
0.0417441
0.0417536
0.0417563
0.0417571
0.0417584
0.0417616
0.0417668
0.0417733
0.0417806
0.0417885
0.0417972
0.0418071
0.0418179
0.0418294
0.0418414
0.0418538
0.0418666
0.0418799
0.0418935
0.0419072
0.0419208
0.0419338
0.041946
0.0419572
0.0419671
0.0419755
0.041982
0.0419865
0.0419885
0.0419876
0.0419831
0.0419748
0.0419617
0.0419438
0.0419201
0.0418898
0.0418521
0.0418059
0.0417501
0.0416837
0.0416058
0.0415152
0.0414107
0.0412905
0.0411529
0.040996
0.0408188
0.0406181
0.0403923
0.0401377
0.0398563
0.0395434
0.0391972
0.0388082
0.038385
0.0379218
0.0374265
0.036882
0.0362919
0.0356524
0.0349723
0.0342329
0.0334691
0.0326608
0.0318067
0.0309569
0.0300636
0.0291883
0.0283029
0.0274159
0.026578
0.0257558
0.0249659
0.024214
0.0234653
0.0227405
0.0220983
0.0215299
0.0204954
0.042133
0.042133
0.042133
0.042133
0.042133
0.042133
0.042133
0.042133
0.042133
0.042133
0.0421331
0.0421344
0.0421548
0.0422587
0.0424564
0.0426165
0.042659
0.0426483
0.0425366
0.0423649
0.0422325
0.0421503
0.0421039
0.0420692
0.0420295
0.0419818
0.0419307
0.0418822
0.041839
0.0418008
0.0417669
0.0417377
0.0417125
0.0416887
0.0416629
0.0416365
0.0416175
0.0416113
0.0416185
0.041648
0.0416965
0.0417473
0.0417855
0.0418068
0.0418163
0.0418207
0.0418241
0.0418286
0.0418351
0.0418436
0.0418531
0.0418634
0.0418746
0.0418869
0.0419003
0.0419146
0.0419296
0.0419451
0.0419612
0.0419779
0.0419952
0.0420128
0.0420305
0.042048
0.0420649
0.042081
0.0420962
0.0421103
0.042123
0.042134
0.0421428
0.0421491
0.0421525
0.042153
0.0421493
0.0421414
0.0421284
0.0421096
0.0420843
0.0420515
0.0420104
0.0419597
0.0418987
0.0418262
0.0417411
0.041642
0.0415273
0.0413953
0.0412445
0.0410723
0.0408777
0.0406581
0.0404132
0.0401363
0.0398267
0.0394806
0.039105
0.0386895
0.0382343
0.0377265
0.037177
0.0365804
0.0359404
0.0352627
0.0345236
0.0337517
0.0329091
0.0320658
0.031161
0.0302436
0.0293447
0.0284093
0.0274887
0.0266409
0.025801
0.0250368
0.0243047
0.0235746
0.0228574
0.0221824
0.0209667
0.042133
0.042133
0.042133
0.042133
0.042133
0.042133
0.042133
0.042133
0.042133
0.042133
0.0421331
0.0421336
0.0421444
0.0422189
0.0424037
0.0425922
0.042662
0.0426689
0.0425928
0.0424286
0.0422817
0.0421887
0.0421374
0.0421039
0.042069
0.0420265
0.041979
0.0419322
0.0418902
0.0418534
0.0418206
0.0417919
0.0417678
0.0417472
0.0417267
0.0417039
0.041682
0.0416692
0.0416673
0.0416801
0.0417168
0.0417686
0.0418183
0.0418538
0.041874
0.0418847
0.0418913
0.0418976
0.0419054
0.0419154
0.041927
0.0419397
0.0419533
0.0419681
0.0419841
0.0420011
0.0420189
0.0420375
0.0420568
0.0420768
0.0420976
0.0421189
0.0421407
0.0421624
0.0421839
0.0422049
0.0422252
0.0422447
0.0422631
0.0422803
0.0422958
0.0423094
0.0423204
0.0423286
0.0423338
0.0423355
0.0423329
0.0423254
0.0423122
0.0422925
0.0422654
0.0422301
0.0421856
0.042131
0.0420653
0.0419871
0.0418949
0.0417872
0.0416624
0.0415184
0.0413539
0.0411655
0.0409524
0.0407096
0.0404382
0.0401343
0.0397998
0.0394238
0.0390082
0.038545
0.0380434
0.037497
0.036905
0.0362643
0.0355755
0.03484
0.0340489
0.0331987
0.0323387
0.0313992
0.0304715
0.0295289
0.0285358
0.0275757
0.0266387
0.0257156
0.0248872
0.0241243
0.0234225
0.0227898
0.0216059
0.042133
0.042133
0.042133
0.042133
0.042133
0.042133
0.042133
0.042133
0.042133
0.042133
0.042133
0.0421332
0.0421383
0.0421865
0.0423464
0.042555
0.0426591
0.0426879
0.0426425
0.0424922
0.0423313
0.0422281
0.0421717
0.0421393
0.0421095
0.0420729
0.0420295
0.0419847
0.0419439
0.0419084
0.0418771
0.041849
0.0418252
0.0418058
0.041789
0.0417713
0.0417514
0.0417344
0.0417264
0.0417281
0.0417475
0.0417903
0.0418443
0.0418924
0.0419263
0.0419469
0.0419593
0.0419685
0.0419778
0.0419891
0.0420024
0.0420173
0.0420333
0.0420506
0.0420692
0.0420889
0.0421096
0.0421312
0.0421536
0.0421769
0.0422012
0.0422262
0.0422518
0.0422778
0.0423037
0.0423294
0.0423547
0.0423795
0.0424035
0.0424267
0.0424486
0.0424689
0.0424874
0.0425037
0.0425172
0.0425276
0.0425345
0.0425374
0.0425358
0.0425284
0.0425148
0.0424935
0.0424643
0.042426
0.042378
0.0423188
0.0422474
0.0421622
0.0420617
0.041944
0.0418079
0.0416505
0.0414708
0.0412647
0.0410326
0.0407699
0.0404761
0.0401414
0.0397694
0.0393548
0.0389031
0.0384044
0.037857
0.0372578
0.0366052
0.035902
0.0351553
0.0343352
0.0335018
0.0325962
0.0316441
0.0307196
0.0297598
0.0287681
0.0278164
0.0268412
0.025844
0.0249011
0.0239978
0.0232013
0.0217001
0.042133
0.042133
0.042133
0.042133
0.042133
0.042133
0.042133
0.042133
0.042133
0.042133
0.042133
0.0421331
0.0421352
0.0421628
0.0422891
0.0425049
0.0426508
0.0427037
0.0426782
0.0425526
0.0423853
0.0422717
0.0422088
0.0421762
0.042151
0.0421204
0.0420819
0.0420396
0.0419999
0.0419658
0.0419359
0.0419087
0.0418849
0.0418654
0.0418502
0.0418363
0.041821
0.0418046
0.0417924
0.041788
0.0417934
0.0418202
0.0418685
0.0419229
0.0419696
0.0420033
0.0420251
0.0420396
0.0420516
0.0420643
0.042079
0.0420958
0.0421141
0.0421339
0.0421551
0.0421775
0.042201
0.0422255
0.0422509
0.0422774
0.042305
0.0423336
0.042363
0.0423929
0.0424231
0.0424533
0.0424834
0.0425132
0.0425426
0.0425714
0.0425994
0.0426263
0.0426518
0.0426755
0.0426971
0.0427163
0.0427325
0.0427451
0.0427537
0.042758
0.0427576
0.0427502
0.0427363
0.0427139
0.0426831
0.0426426
0.0425914
0.042528
0.0424511
0.0423588
0.04225
0.0421217
0.041973
0.0418003
0.0416038
0.0413782
0.0411225
0.0408301
0.0405058
0.0401432
0.0397427
0.0392925
0.0387925
0.0382401
0.0376336
0.0369758
0.0362644
0.0355085
0.0346733
0.0338116
0.0328539
0.0318682
0.0308921
0.0298818
0.0288624
0.0279493
0.026983
0.0260608
0.0251436
0.0242753
0.0226382
0.042133
0.042133
0.042133
0.042133
0.042133
0.042133
0.042133
0.042133
0.042133
0.042133
0.042133
0.0421331
0.0421338
0.0421478
0.0422375
0.0424438
0.0426316
0.0427103
0.0427014
0.0426118
0.0424457
0.0423189
0.0422481
0.0422139
0.0421926
0.0421682
0.0421353
0.0420961
0.0420575
0.0420241
0.0419953
0.0419689
0.0419452
0.0419252
0.0419101
0.0418983
0.0418873
0.0418748
0.0418625
0.0418548
0.0418533
0.041864
0.0418986
0.0419505
0.0420047
0.0420511
0.0420853
0.0421087
0.0421259
0.0421411
0.0421573
0.0421755
0.0421958
0.0422179
0.0422416
0.0422667
0.0422931
0.0423204
0.0423488
0.0423784
0.0424093
0.0424413
0.0424743
0.0425082
0.0425425
0.0425772
0.0426118
0.0426465
0.0426811
0.0427154
0.0427493
0.0427824
0.0428145
0.0428454
0.0428746
0.0429019
0.0429269
0.0429491
0.042968
0.0429829
0.0429932
0.0429986
0.042999
0.0429916
0.042977
0.0429534
0.0429206
0.0428772
0.0428221
0.0427536
0.0426704
0.0425703
0.0424521
0.0423127
0.0421514
0.0419632
0.0417476
0.0414998
0.041222
0.0409059
0.0405504
0.0401463
0.0396958
0.0391967
0.038648
0.0380504
0.0373916
0.036678
0.0359129
0.0350864
0.0341921
0.0332056
0.0321935
0.0311354
0.0300231
0.028938
0.0278609
0.0268185
0.0258626
0.0250344
0.0234445
0.042133
0.042133
0.042133
0.042133
0.042133
0.042133
0.042133
0.042133
0.042133
0.042133
0.042133
0.042133
0.0421333
0.0421394
0.0421963
0.0423763
0.042595
0.0427091
0.0427179
0.0426663
0.0425101
0.0423685
0.04229
0.0422527
0.0422348
0.0422162
0.0421891
0.0421531
0.0421151
0.0420816
0.0420533
0.0420277
0.0420045
0.0419843
0.0419691
0.041958
0.04195
0.041942
0.0419333
0.0419255
0.0419215
0.0419235
0.0419416
0.0419822
0.0420357
0.0420904
0.0421371
0.0421723
0.0421977
0.0422177
0.0422364
0.0422561
0.042278
0.0423021
0.0423281
0.0423559
0.042385
0.0424152
0.0424466
0.0424791
0.0425131
0.0425483
0.0425848
0.0426224
0.0426607
0.0426996
0.0427386
0.0427779
0.0428174
0.0428569
0.0428963
0.0429353
0.0429737
0.0430113
0.0430478
0.0430828
0.0431161
0.0431472
0.0431756
0.043201
0.0432229
0.0432402
0.0432526
0.0432596
0.0432609
0.0432541
0.0432395
0.0432154
0.0431811
0.043135
0.0430761
0.0430022
0.0429123
0.0428033
0.0426744
0.0425213
0.0423442
0.0421382
0.0419037
0.0416321
0.0413233
0.040971
0.0405782
0.0401393
0.0396497
0.0391063
0.0385011
0.0378388
0.0371126
0.0363277
0.0354921
0.0345797
0.0335984
0.0325977
0.0315337
0.030398
0.0292822
0.0281306
0.0269562
0.0258904
0.0238825
0.042133
0.042133
0.042133
0.042133
0.042133
0.042133
0.042133
0.042133
0.042133
0.042133
0.042133
0.042133
0.0421331
0.0421354
0.0421673
0.0423095
0.0425414
0.0426987
0.0427326
0.0427091
0.0425732
0.0424214
0.0423351
0.0422929
0.0422766
0.042262
0.0422398
0.0422074
0.0421703
0.0421365
0.0421087
0.0420841
0.042062
0.0420424
0.0420273
0.0420167
0.0420104
0.0420057
0.0420015
0.0419969
0.0419934
0.0419927
0.0419996
0.0420252
0.0420698
0.0421251
0.0421804
0.0422278
0.0422643
0.0422922
0.0423154
0.0423376
0.042361
0.0423868
0.0424148
0.042445
0.0424768
0.0425098
0.042544
0.0425795
0.0426164
0.0426549
0.0426947
0.0427358
0.042778
0.0428208
0.0428642
0.042908
0.0429521
0.0429966
0.0430412
0.0430859
0.0431303
0.0431743
0.0432175
0.0432599
0.0433009
0.0433404
0.0433778
0.0434128
0.0434449
0.0434736
0.0434983
0.043518
0.0435323
0.0435407
0.0435429
0.0435367
0.0435218
0.0434967
0.0434604
0.0434112
0.0433482
0.0432686
0.0431716
0.0430533
0.0429135
0.0427473
0.042554
0.0423262
0.0420655
0.041766
0.041429
0.0410455
0.0406106
0.0401202
0.0395681
0.0389586
0.0382805
0.0375424
0.0367368
0.0358679
0.0349142
0.0338917
0.0328538
0.0317209
0.0306127
0.029507
0.0284053
0.0273625
0.025348
0.042133
0.042133
0.042133
0.042133
0.042133
0.042133
0.042133
0.042133
0.042133
0.042133
0.042133
0.042133
0.0421331
0.0421338
0.0421494
0.0422505
0.0424755
0.0426759
0.0427417
0.0427361
0.0426344
0.0424804
0.0423832
0.042333
0.042315
0.0423029
0.0422858
0.0422584
0.0422234
0.0421897
0.0421625
0.0421393
0.0421186
0.0421003
0.0420858
0.0420758
0.0420703
0.0420676
0.0420668
0.0420667
0.0420662
0.0420665
0.0420695
0.0420827
0.0421136
0.0421617
0.0422187
0.0422749
0.0423231
0.0423614
0.0423919
0.0424184
0.0424443
0.0424716
0.0425013
0.0425335
0.0425678
0.0426035
0.0426404
0.0426788
0.0427186
0.04276
0.042803
0.0428475
0.0428932
0.0429399
0.0429872
0.0430352
0.0430837
0.0431329
0.0431824
0.0432323
0.0432824
0.0433323
0.043382
0.0434311
0.0434795
0.0435268
0.0435727
0.0436167
0.0436585
0.0436977
0.0437337
0.0437659
0.0437939
0.0438165
0.0438333
0.0438438
0.0438475
0.0438426
0.0438277
0.0438019
0.0437634
0.0437108
0.0436428
0.0435563
0.0434509
0.0433218
0.0431683
0.0429847
0.0427723
0.0425243
0.0422396
0.0419086
0.0415293
0.0410974
0.0406089
0.0400653
0.0394558
0.0387848
0.0380382
0.0372184
0.036328
0.0353484
0.0343134
0.0331365
0.0319045
0.0306374
0.0293986
0.0282772
0.0261183
0.042133
0.042133
0.042133
0.042133
0.042133
0.042133
0.042133
0.042133
0.042133
0.042133
0.042133
0.042133
0.042133
0.0421333
0.04214
0.0422042
0.0424038
0.0426382
0.0427408
0.0427564
0.0426917
0.0425429
0.0424297
0.0423695
0.042349
0.0423397
0.0423284
0.0423073
0.0422756
0.0422425
0.0422159
0.0421941
0.042175
0.0421584
0.0421449
0.0421358
0.0421308
0.0421293
0.0421305
0.042134
0.0421374
0.0421409
0.0421447
0.0421522
0.0421709
0.0422068
0.0422581
0.042317
0.0423741
0.0424235
0.0424638
0.0424971
0.0425269
0.0425565
0.0425878
0.0426217
0.042658
0.0426962
0.0427358
0.0427769
0.0428195
0.0428637
0.0429098
0.0429574
0.0430065
0.0430568
0.0431081
0.04316
0.0432128
0.0432663
0.0433205
0.0433754
0.0434307
0.0434863
0.043542
0.0435975
0.0436527
0.0437073
0.043761
0.0438134
0.0438643
0.0439131
0.0439595
0.044003
0.0440429
0.0440788
0.04411
0.0441356
0.044155
0.0441675
0.0441725
0.0441687
0.0441538
0.044127
0.0440864
0.0440302
0.0439572
0.0438636
0.0437485
0.0436071
0.0434398
0.0432388
0.0430031
0.0427247
0.0424041
0.0420359
0.0416162
0.0411419
0.0406015
0.0399964
0.039314
0.038563
0.0377339
0.0368311
0.035833
0.0347684
0.0335966
0.032419
0.0311003
0.0298445
0.0274325
0.042133
0.042133
0.042133
0.042133
0.042133
0.042133
0.042133
0.042133
0.042133
0.042133
0.042133
0.042133
0.042133
0.0421331
0.0421356
0.0421721
0.0423337
0.0425862
0.0427309
0.0427747
0.0427403
0.0426022
0.0424724
0.042404
0.0423818
0.0423754
0.0423691
0.0423548
0.0423273
0.0422951
0.0422693
0.0422491
0.0422318
0.0422171
0.0422049
0.042197
0.0421926
0.0421919
0.0421944
0.0421998
0.0422064
0.0422139
0.0422208
0.0422281
0.0422401
0.042264
0.0423047
0.0423595
0.0424201
0.0424783
0.0425289
0.0425711
0.0426071
0.0426402
0.0426736
0.0427091
0.0427472
0.0427875
0.0428295
0.0428731
0.0429184
0.0429654
0.0430142
0.0430648
0.0431171
0.0431708
0.0432256
0.0432814
0.043338
0.0433956
0.0434542
0.0435137
0.0435739
0.0436347
0.0436959
0.0437573
0.0438188
0.0438802
0.0439411
0.0440013
0.0440605
0.0441183
0.0441744
0.0442283
0.0442796
0.0443277
0.0443721
0.0444121
0.0444473
0.0444767
0.0444991
0.0445141
0.0445208
0.0445183
0.044503
0.044475
0.0444315
0.0443708
0.0442915
0.0441896
0.0440643
0.0439084
0.0437219
0.0434976
0.0432361
0.0429298
0.0425739
0.0421617
0.0416841
0.0411417
0.0405221
0.0398306
0.0390521
0.0381974
0.0372511
0.0362072
0.0350677
0.0338656
0.0325298
0.031341
0.0291269
0.042133
0.042133
0.042133
0.042133
0.042133
0.042133
0.042133
0.042133
0.042133
0.042133
0.042133
0.042133
0.042133
0.0421331
0.0421339
0.0421526
0.0422721
0.0425234
0.0427152
0.0427884
0.0427705
0.0426556
0.0425158
0.0424403
0.0424153
0.0424105
0.0424074
0.0423993
0.0423774
0.0423476
0.042323
0.0423047
0.0422893
0.0422765
0.0422657
0.0422589
0.0422555
0.0422554
0.0422591
0.0422651
0.0422737
0.0422843
0.0422951
0.0423051
0.0423158
0.0423324
0.0423619
0.0424075
0.0424655
0.0425279
0.0425871
0.042639
0.042683
0.0427216
0.0427582
0.0427956
0.0428353
0.0428775
0.0429217
0.0429677
0.0430154
0.0430649
0.0431164
0.0431699
0.0432251
0.043282
0.0433401
0.0433994
0.0434598
0.0435212
0.0435839
0.0436476
0.0437124
0.043778
0.0438444
0.0439113
0.0439787
0.0440463
0.0441139
0.0441813
0.0442482
0.0443142
0.0443791
0.0444425
0.0445041
0.0445633
0.0446196
0.0446725
0.0447215
0.044766
0.0448053
0.0448384
0.0448639
0.0448814
0.0448898
0.0448888
0.0448731
0.0448438
0.0447973
0.0447317
0.0446452
0.0445322
0.0443931
0.0442207
0.0440149
0.043766
0.0434705
0.0431214
0.0427133
0.0422444
0.0417028
0.0410894
0.0403884
0.0396099
0.0387345
0.0377682
0.0366858
0.0355015
0.0341501
0.0328277
0.0304145
0.042133
0.042133
0.042133
0.042133
0.042133
0.042133
0.042133
0.042133
0.042133
0.042133
0.042133
0.042133
0.042133
0.042133
0.0421333
0.0421421
0.0422236
0.042456
0.0426912
0.0427929
0.0427896
0.042705
0.0425613
0.0424778
0.042448
0.0424432
0.0424423
0.0424402
0.0424258
0.0424005
0.0423776
0.0423609
0.0423474
0.0423361
0.0423267
0.0423207
0.0423182
0.0423191
0.0423238
0.0423302
0.0423398
0.0423524
0.0423665
0.0423803
0.0423932
0.0424077
0.0424294
0.0424648
0.0425154
0.0425765
0.0426406
0.0427007
0.0427535
0.0427992
0.0428404
0.0428806
0.0429221
0.0429659
0.0430119
0.04306
0.04311
0.0431619
0.0432158
0.0432718
0.0433298
0.0433896
0.0434509
0.0435134
0.0435772
0.0436422
0.0437085
0.0437762
0.0438452
0.0439153
0.0439864
0.0440583
0.044131
0.0442044
0.0442781
0.044352
0.0444259
0.0444994
0.0445723
0.0446444
0.0447154
0.0447848
0.0448521
0.0449169
0.0449788
0.0450371
0.0450915
0.045141
0.0451848
0.0452221
0.0452509
0.0452711
0.0452812
0.0452816
0.0452652
0.045234
0.0451835
0.0451114
0.0450168
0.0448929
0.0447386
0.0445446
0.0443096
0.0440265
0.0436906
0.0432964
0.0428327
0.0422987
0.0416791
0.0409764
0.0401695
0.0392651
0.0382481
0.0371082
0.0358503
0.0345917
0.0324036
0.042133
0.042133
0.042133
0.042133
0.042133
0.042133
0.042133
0.042133
0.042133
0.042133
0.042133
0.042133
0.042133
0.042133
0.0421331
0.0421371
0.0421892
0.0423913
0.0426552
0.0427912
0.0428043
0.0427483
0.0426064
0.0425135
0.0424779
0.0424724
0.0424758
0.0424793
0.0424723
0.0424529
0.0424323
0.0424168
0.0424045
0.0423941
0.0423858
0.0423802
0.0423785
0.042381
0.0423868
0.042394
0.0424042
0.0424178
0.0424343
0.0424519
0.0424685
0.0424845
0.0425032
0.0425307
0.0425722
0.0426277
0.0426919
0.0427574
0.0428182
0.0428717
0.0429189
0.042963
0.0430068
0.0430524
0.0431001
0.04315
0.043202
0.0432561
0.0433123
0.0433708
0.0434313
0.0434938
0.043558
0.0436235
0.0436905
0.0437588
0.0438286
0.0438999
0.0439728
0.0440469
0.0441224
0.044199
0.0442766
0.0443552
0.0444345
0.0445144
0.0445946
0.044675
0.0447553
0.0448352
0.0449146
0.0449931
0.0450703
0.0451458
0.0452191
0.0452899
0.0453577
0.0454218
0.0454816
0.0455362
0.0455847
0.0456263
0.0456587
0.0456819
0.045694
0.0456951
0.045678
0.0456442
0.0455893
0.0455094
0.0454029
0.0452619
0.0450864
0.0448676
0.0446011
0.0442789
0.0438912
0.0434337
0.0428927
0.0422697
0.0415461
0.0407213
0.0397663
0.0386883
0.0374803
0.0361614
0.0339914
0.042133
0.042133
0.042133
0.042133
0.042133
0.042133
0.042133
0.042133
0.042133
0.042133
0.042133
0.042133
0.042133
0.042133
0.0421331
0.0421348
0.042167
0.0423347
0.0426122
0.0427842
0.042817
0.0427836
0.0426478
0.0425454
0.0425053
0.0424996
0.0425085
0.0425181
0.0425167
0.0425035
0.0424851
0.04247
0.0424581
0.0424482
0.0424408
0.0424362
0.0424353
0.0424395
0.0424468
0.0424552
0.0424663
0.0424807
0.0424988
0.0425192
0.0425399
0.0425593
0.0425788
0.0426025
0.0426363
0.0426841
0.0427444
0.0428115
0.042878
0.042939
0.0429931
0.0430421
0.0430891
0.0431367
0.0431861
0.0432377
0.0432915
0.0433476
0.0434059
0.0434665
0.0435294
0.0435943
0.0436611
0.0437295
0.0437993
0.0438707
0.0439436
0.0440182
0.0440945
0.0441724
0.0442518
0.0443326
0.0444147
0.044498
0.0445823
0.0446676
0.0447536
0.0448401
0.0449269
0.0450139
0.0451009
0.0451876
0.0452736
0.0453587
0.0454424
0.0455244
0.0456043
0.0456817
0.0457559
0.0458262
0.0458919
0.045952
0.0460057
0.046052
0.0460882
0.0461144
0.0461285
0.0461302
0.046112
0.0460741
0.0460127
0.045923
0.045804
0.045646
0.0454457
0.0451934
0.0448817
0.0445042
0.044048
0.04351
0.0428735
0.0421361
0.0412737
0.0403015
0.0391468
0.0379318
0.035979
0.042133
0.042133
0.042133
0.042133
0.042133
0.042133
0.042133
0.042133
0.042133
0.042133
0.042133
0.042133
0.042133
0.042133
0.0421331
0.0421338
0.0421535
0.042289
0.0425679
0.0427729
0.0428286
0.0428095
0.0426826
0.0425739
0.0425317
0.0425265
0.0425405
0.0425568
0.0425593
0.0425499
0.0425331
0.0425181
0.0425068
0.042498
0.042492
0.0424888
0.0424892
0.0424951
0.0425037
0.0425135
0.0425257
0.042541
0.04256
0.0425826
0.0426066
0.04263
0.0426524
0.0426758
0.0427052
0.0427459
0.0428001
0.0428653
0.0429347
0.0430016
0.0430624
0.0431171
0.0431681
0.0432183
0.0432695
0.0433227
0.0433782
0.043436
0.0434961
0.0435587
0.0436238
0.043691
0.0437602
0.0438312
0.0439036
0.0439777
0.0440536
0.0441312
0.0442107
0.044292
0.044375
0.0444596
0.0445457
0.0446333
0.0447222
0.0448123
0.0449035
0.0449955
0.0450883
0.0451816
0.0452754
0.0453694
0.0454634
0.0455569
0.0456498
0.0457417
0.0458323
0.0459214
0.0460083
0.0460925
0.0461734
0.04625
0.0463219
0.0463879
0.0464471
0.0464984
0.0465386
0.0465679
0.0465835
0.0465854
0.0465652
0.046523
0.046454
0.0463512
0.0462118
0.0460262
0.0457884
0.0454898
0.0451184
0.0446701
0.0441281
0.0434788
0.0426973
0.0417694
0.0406662
0.039429
0.0376336
0.042133
0.042133
0.042133
0.042133
0.042133
0.042133
0.042133
0.042133
0.042133
0.042133
0.042133
0.042133
0.042133
0.042133
0.042133
0.0421334
0.0421458
0.0422548
0.0425274
0.0427608
0.0428385
0.0428259
0.0427115
0.0426001
0.0425575
0.0425533
0.0425718
0.0425938
0.0425984
0.0425908
0.0425757
0.0425616
0.0425516
0.0425449
0.0425409
0.0425393
0.0425413
0.0425486
0.0425583
0.0425695
0.0425827
0.0425988
0.0426186
0.0426425
0.042669
0.042696
0.042722
0.0427476
0.0427758
0.0428116
0.0428597
0.0429206
0.04299
0.0430608
0.0431274
0.0431878
0.0432434
0.0432968
0.0433502
0.043405
0.043462
0.0435214
0.0435832
0.0436477
0.0437147
0.043784
0.0438554
0.0439287
0.0440036
0.0440802
0.0441586
0.044239
0.0443214
0.0444057
0.0444919
0.0445799
0.0446696
0.044761
0.044854
0.0449484
0.0450442
0.0451412
0.0452392
0.0453381
0.0454379
0.0455384
0.0456393
0.0457403
0.0458413
0.045942
0.0460421
0.0461414
0.0462395
0.046336
0.0464302
0.0465215
0.0466095
0.0466932
0.0467719
0.0468444
0.0469094
0.046966
0.0470104
0.047043
0.0470604
0.0470622
0.0470386
0.046989
0.0469075
0.0467881
0.0466253
0.046409
0.0461274
0.0457726
0.0453253
0.0447765
0.0441028
0.043275
0.0422927
0.0410965
0.0394712
0.042133
0.042133
0.042133
0.042133
0.042133
0.042133
0.042133
0.042133
0.042133
0.042133
0.042133
0.042133
0.042133
0.042133
0.042133
0.0421333
0.0421416
0.0422311
0.0424941
0.0427502
0.0428448
0.0428376
0.0427353
0.0426241
0.0425821
0.0425791
0.0426018
0.0426283
0.0426339
0.0426276
0.0426141
0.042602
0.0425942
0.0425903
0.0425887
0.0425889
0.0425925
0.0426009
0.0426115
0.0426236
0.0426376
0.0426544
0.0426749
0.0426996
0.0427278
0.0427575
0.0427871
0.0428159
0.0428452
0.0428789
0.0429221
0.042978
0.0430453
0.0431177
0.0431887
0.0432544
0.0433148
0.0433717
0.0434276
0.0434842
0.0435427
0.0436035
0.043667
0.0437331
0.0438018
0.0438731
0.0439465
0.0440218
0.0440989
0.0441778
0.0442586
0.0443415
0.0444264
0.0445135
0.0446026
0.0446937
0.0447866
0.0448814
0.044978
0.0450763
0.0451762
0.0452775
0.0453802
0.0454841
0.0455892
0.0456954
0.0458024
0.0459101
0.0460182
0.0461266
0.046235
0.0463432
0.0464511
0.0465582
0.046664
0.0467681
0.04687
0.0469691
0.0470647
0.0471559
0.0472419
0.0473212
0.0473926
0.0474549
0.0475037
0.0475393
0.0475579
0.0475593
0.0475311
0.0474745
0.047379
0.0472376
0.0470395
0.0467756
0.0464262
0.0459817
0.0454023
0.0446586
0.0437465
0.0426034
0.0410779
0.042133
0.042133
0.042133
0.042133
0.042133
0.042133
0.042133
0.042133
0.042133
0.042133
0.042133
0.042133
0.042133
0.042133
0.042133
0.0421332
0.0421395
0.0422162
0.0424703
0.0427423
0.0428488
0.0428467
0.0427537
0.042645
0.0426045
0.0426032
0.0426305
0.0426607
0.0426672
0.0426617
0.04265
0.0426404
0.0426354
0.0426344
0.0426351
0.0426373
0.0426425
0.0426518
0.0426632
0.042676
0.0426906
0.0427079
0.042729
0.0427544
0.0427836
0.0428153
0.0428479
0.0428801
0.0429119
0.0429456
0.0429859
0.0430375
0.0431015
0.0431737
0.0432474
0.0433175
0.0433825
0.0434432
0.0435018
0.0435603
0.0436204
0.0436826
0.0437475
0.0438151
0.0438855
0.0439585
0.0440338
0.044111
0.0441901
0.044271
0.044354
0.044439
0.0445263
0.0446159
0.0447076
0.0448014
0.0448972
0.0449951
0.0450949
0.0451966
0.0453001
0.0454053
0.0455121
0.0456204
0.0457302
0.0458413
0.0459536
0.0460671
0.0461814
0.0462965
0.0464121
0.0465281
0.0466444
0.0467607
0.0468766
0.0469917
0.0471056
0.0472179
0.0473281
0.0474355
0.0475395
0.0476388
0.0477328
0.0478198
0.0478981
0.0479668
0.0480206
0.0480601
0.0480802
0.0480804
0.0480435
0.0479723
0.0478519
0.0476761
0.047426
0.0470933
0.0466306
0.0460097
0.0451935
0.0441282
0.0426988
0.042133
0.042133
0.042133
0.042133
0.042133
0.042133
0.042133
0.042133
0.042133
0.042133
0.042133
0.042133
0.042133
0.042133
0.042133
0.0421332
0.0421386
0.042209
0.0424574
0.0427394
0.0428529
0.0428543
0.0427668
0.0426621
0.0426239
0.0426257
0.0426588
0.0426921
0.0426996
0.0426945
0.0426846
0.0426774
0.042675
0.0426764
0.0426794
0.0426835
0.0426903
0.0427007
0.0427129
0.0427262
0.0427414
0.0427594
0.0427812
0.0428071
0.0428372
0.0428703
0.0429052
0.0429404
0.0429751
0.0430102
0.0430495
0.0430978
0.0431584
0.0432292
0.0433042
0.0433777
0.0434466
0.043511
0.0435725
0.0436331
0.0436947
0.0437584
0.0438246
0.0438937