/*--------------------------------*- C++ -*----------------------------------*\
| =========                 |                                                 |
| \\      /  F ield         | OpenFOAM: The Open Source CFD Toolbox           |
|  \\    /   O peration     | Version:  2406                                  |
|   \\  /    A nd           | Website:  www.openfoam.com                      |
|    \\/     M anipulation  |                                                 |
\*---------------------------------------------------------------------------*/
FoamFile
{
    version     2.0;
    format      ascii;
    arch        "LSB;label=32;scalar=64";
    class       volScalarField;
    location    "0.033";
    object      rho;
}
// * * * * * * * * * * * * * * * * * * * * * * * * * * * * * * * * * * * * * //

dimensions      [1 -3 0 0 0 0 0];

internalField   nonuniform List<scalar> 
78650
(
0.0444023
0.0424145
0.0422448
0.0421805
0.0422093
0.0422619
0.0423071
0.0423263
0.0423212
0.0423002
0.0422699
0.0422297
0.0421773
0.04212
0.0420737
0.0420537
0.0420604
0.0420921
0.0421379
0.0421649
0.0421649
0.0421336
0.0420756
0.0420074
0.0419387
0.0418725
0.0418094
0.0417489
0.0416893
0.0416296
0.0415705
0.0415131
0.0414582
0.0414058
0.041356
0.0413084
0.0412627
0.0412186
0.0411765
0.0411364
0.041098
0.0410613
0.0410258
0.0409914
0.0409577
0.0409246
0.0408919
0.0408592
0.0408263
0.0407927
0.0407582
0.0407224
0.0406847
0.0406446
0.0406014
0.0405547
0.0405036
0.0404478
0.0403867
0.0403197
0.0402462
0.0401653
0.0400761
0.039978
0.0398699
0.0397511
0.0396209
0.0394781
0.039322
0.039152
0.0389668
0.0387651
0.0385464
0.0383093
0.0380536
0.0377781
0.037481
0.0371626
0.036823
0.0364623
0.0360817
0.0356816
0.0352602
0.0348168
0.0343496
0.0338591
0.0333489
0.0328323
0.0323095
0.0317711
0.0312259
0.0306761
0.030104
0.0295455
0.0290265
0.0285046
0.0279936
0.0274774
0.0269761
0.0264824
0.0260273
0.0256109
0.0251992
0.0248062
0.0244317
0.0240652
0.0237278
0.0234293
0.023176
0.0229451
0.0227217
0.0225074
0.0223037
0.0221078
0.0219289
0.0217608
0.0216013
0.0214379
0.0212789
0.0211313
0.0208922
0.0443483
0.0424034
0.042217
0.0421002
0.0420681
0.0420748
0.0420994
0.0421256
0.0421439
0.0421534
0.0421546
0.0421453
0.0421206
0.042081
0.042037
0.0420053
0.041997
0.0420125
0.042049
0.0420904
0.0421103
0.0421044
0.0420674
0.0420073
0.0419404
0.0418743
0.0418117
0.0417534
0.0416984
0.0416442
0.04159
0.0415367
0.0414855
0.0414368
0.0413908
0.0413471
0.0413054
0.0412655
0.0412277
0.0411918
0.041158
0.0411259
0.0410954
0.041066
0.0410375
0.0410099
0.0409827
0.0409559
0.0409291
0.0409019
0.0408741
0.0408452
0.0408149
0.0407825
0.0407476
0.0407095
0.0406677
0.0406216
0.0405707
0.0405146
0.0404526
0.0403841
0.0403081
0.040224
0.0401308
0.0400278
0.0399143
0.0397894
0.0396522
0.039502
0.0393376
0.039158
0.0389623
0.0387489
0.0385172
0.0382664
0.0379954
0.0377044
0.0373922
0.0370579
0.0367021
0.0363252
0.0359272
0.0355109
0.0350761
0.0346253
0.0341558
0.0336627
0.033149
0.0326214
0.0320801
0.0315467
0.0310218
0.0304756
0.0299313
0.0293942
0.0288683
0.0283468
0.0278342
0.02734
0.0268518
0.0263933
0.0259555
0.0255478
0.0251584
0.0247794
0.0244295
0.0240828
0.0237544
0.0234454
0.0231664
0.0229065
0.0226629
0.0224353
0.0222218
0.0220242
0.0218365
0.0216564
0.0214856
0.0213237
0.0210598
0.0443127
0.0424118
0.0422228
0.0420922
0.0420292
0.0419961
0.04198
0.0419728
0.0419737
0.041984
0.0420002
0.0420148
0.0420184
0.0420066
0.0419809
0.0419517
0.0419325
0.0419311
0.04195
0.0419868
0.0420227
0.0420403
0.0420306
0.0419931
0.0419359
0.0418724
0.0418106
0.0417532
0.0417001
0.0416504
0.0416019
0.041554
0.0415074
0.0414632
0.0414215
0.0413822
0.041345
0.0413097
0.0412765
0.0412453
0.0412163
0.0411893
0.0411639
0.0411398
0.0411167
0.0410947
0.0410733
0.0410525
0.0410318
0.0410111
0.0409899
0.0409681
0.040945
0.0409204
0.0408935
0.040864
0.0408311
0.0407945
0.0407536
0.040708
0.0406572
0.0406004
0.0405369
0.0404661
0.0403869
0.0402988
0.0402011
0.0400928
0.0399731
0.0398413
0.0396962
0.0395371
0.039363
0.0391724
0.038965
0.0387396
0.0384949
0.0382308
0.0379461
0.0376403
0.0373143
0.0369682
0.0366014
0.036214
0.0358039
0.0353727
0.0349198
0.0344478
0.0339536
0.0334473
0.0329378
0.0324115
0.0318844
0.0313332
0.0307888
0.030225
0.0296753
0.0291461
0.0286251
0.0281147
0.0275941
0.0271018
0.0266158
0.0261483
0.0257262
0.0253097
0.0249238
0.0245568
0.0242218
0.0239104
0.0236151
0.0233262
0.0230449
0.0227702
0.0225085
0.0222625
0.0220313
0.0218073
0.0215959
0.0214029
0.0210723
0.044299
0.0424435
0.0422467
0.0421001
0.0420269
0.0419833
0.0419526
0.0419219
0.0418907
0.0418703
0.0418671
0.0418759
0.0418878
0.0418947
0.0418912
0.0418776
0.0418603
0.0418485
0.0418493
0.0418673
0.0419014
0.0419351
0.0419522
0.0419453
0.0419129
0.0418622
0.0418052
0.0417496
0.0416982
0.0416511
0.0416073
0.0415653
0.0415241
0.041485
0.0414482
0.0414138
0.0413816
0.0413514
0.0413231
0.041297
0.0412731
0.0412511
0.041231
0.0412123
0.0411948
0.0411783
0.0411628
0.0411478
0.0411333
0.0411189
0.0411043
0.0410893
0.0410734
0.0410562
0.0410372
0.041016
0.0409919
0.0409644
0.0409332
0.0408979
0.0408578
0.0408125
0.0407613
0.0407035
0.0406382
0.0405648
0.0404827
0.040391
0.0402889
0.0401757
0.0400504
0.0399122
0.0397602
0.0395927
0.0394091
0.0392084
0.0389895
0.0387524
0.0384955
0.0382177
0.0379192
0.0375991
0.0372571
0.0368943
0.0365105
0.0361078
0.0356857
0.0352463
0.034787
0.0343032
0.0338019
0.0332778
0.0327503
0.0322012
0.0316538
0.0311141
0.0305586
0.0300224
0.0294756
0.0289528
0.028423
0.0278983
0.0274038
0.0269078
0.0264396
0.0259873
0.0255613
0.0251603
0.0247813
0.0244241
0.0240956
0.0237935
0.0235199
0.0232674
0.0230305
0.0227965
0.0225642
0.0223247
0.0220892
0.0218615
0.0214545
0.0442747
0.0424951
0.042295
0.0421281
0.0420376
0.0419868
0.0419525
0.0419181
0.0418791
0.0418423
0.0418139
0.0417965
0.0417898
0.0417899
0.0417913
0.0417888
0.0417796
0.0417662
0.041755
0.0417532
0.0417681
0.0418004
0.0418348
0.0418549
0.0418524
0.0418287
0.0417872
0.0417382
0.0416909
0.0416473
0.0416075
0.0415705
0.0415352
0.041502
0.041471
0.0414423
0.0414157
0.0413911
0.0413684
0.0413477
0.0413292
0.0413128
0.0412982
0.0412851
0.0412733
0.0412627
0.0412531
0.0412442
0.0412359
0.0412278
0.0412199
0.0412116
0.0412028
0.0411931
0.0411818
0.0411688
0.0411532
0.0411348
0.041113
0.0410876
0.041058
0.0410237
0.0409843
0.0409389
0.0408867
0.0408273
0.0407599
0.0406838
0.0405982
0.0405024
0.0403954
0.0402766
0.040145
0.0399991
0.0398385
0.0396622
0.039469
0.0392582
0.0390283
0.0387787
0.0385097
0.0382206
0.037911
0.0375807
0.0372285
0.0368542
0.0364572
0.0360394
0.0355985
0.0351393
0.0346607
0.0341667
0.033653
0.033137
0.0325949
0.0320584
0.0314975
0.0309577
0.0303982
0.0298446
0.0293127
0.0287707
0.0282541
0.0277368
0.0272484
0.0267652
0.0262931
0.025849
0.025424
0.0250247
0.0246456
0.0242763
0.0239348
0.0236203
0.0233385
0.023081
0.0228313
0.0225925
0.0223714
0.0221776
0.0218473
0.0442217
0.0425504
0.0423573
0.0421761
0.0420684
0.0420067
0.041967
0.0419296
0.041887
0.0418443
0.041808
0.0417805
0.0417602
0.0417447
0.0417344
0.0417278
0.0417208
0.0417097
0.0416941
0.0416786
0.0416717
0.0416815
0.0417075
0.0417384
0.0417596
0.0417632
0.0417475
0.0417154
0.0416765
0.0416388
0.0416039
0.0415716
0.0415424
0.0415156
0.041491
0.0414684
0.0414479
0.0414293
0.0414124
0.0413973
0.0413845
0.0413737
0.0413648
0.0413574
0.0413514
0.0413467
0.0413429
0.0413401
0.0413379
0.0413362
0.0413348
0.0413332
0.0413314
0.0413288
0.0413251
0.04132
0.0413129
0.0413032
0.0412905
0.0412748
0.0412554
0.0412318
0.0412038
0.0411705
0.0411313
0.0410856
0.0410328
0.0409721
0.040903
0.0408246
0.0407361
0.0406368
0.0405259
0.0404019
0.0402644
0.0401119
0.0399434
0.0397587
0.0395561
0.039335
0.0390948
0.0388339
0.0385519
0.0382489
0.0379243
0.037579
0.0372131
0.0368273
0.0364195
0.0359931
0.0355432
0.0350728
0.0345842
0.0340748
0.033547
0.033007
0.0324582
0.0318948
0.031351
0.0307863
0.030246
0.0296908
0.0291553
0.0286171
0.0280904
0.027596
0.0271072
0.0266428
0.0261855
0.0257481
0.0253419
0.0249531
0.0245921
0.0242442
0.0239129
0.0235859
0.0232604
0.0229375
0.0226293
0.0223561
0.0218843
0.0441348
0.0426002
0.0424218
0.0422333
0.0421151
0.0420468
0.0420036
0.0419641
0.0419165
0.0418649
0.0418196
0.0417853
0.0417592
0.0417384
0.0417232
0.0417128
0.0417043
0.0416939
0.0416781
0.0416569
0.0416352
0.0416217
0.0416243
0.0416402
0.0416642
0.0416829
0.0416877
0.0416773
0.0416539
0.041625
0.0415959
0.04157
0.0415473
0.0415271
0.041509
0.0414929
0.0414789
0.0414666
0.0414558
0.0414468
0.0414398
0.0414349
0.0414319
0.0414306
0.0414305
0.0414317
0.041434
0.0414373
0.0414413
0.041446
0.041451
0.0414562
0.0414612
0.0414658
0.0414696
0.0414721
0.0414731
0.0414721
0.0414684
0.0414621
0.0414527
0.0414393
0.0414223
0.0414006
0.0413736
0.0413409
0.0413018
0.0412556
0.0412019
0.0411398
0.0410684
0.0409873
0.0408955
0.040792
0.040676
0.0405465
0.0404025
0.0402433
0.0400672
0.0398737
0.0396622
0.0394316
0.0391818
0.0389124
0.0386219
0.0383098
0.0379758
0.0376184
0.0372369
0.0368339
0.0364076
0.0359645
0.0355002
0.0350179
0.0345216
0.0339938
0.0334719
0.0329223
0.0323807
0.031817
0.0312669
0.0307056
0.0301432
0.0295945
0.0290409
0.0285095
0.0279827
0.0274839
0.0269966
0.0265242
0.0260795
0.02565
0.0252578
0.0248852
0.0245456
0.0242286
0.0239297
0.0236334
0.0233333
0.0230414
0.0225046
0.0440172
0.0426427
0.0424847
0.0422911
0.0421672
0.0420982
0.0420558
0.0420174
0.0419684
0.0419106
0.0418549
0.0418097
0.0417751
0.0417488
0.0417295
0.0417165
0.0417069
0.0416964
0.0416808
0.041658
0.0416302
0.0416053
0.041591
0.0415898
0.0415999
0.041616
0.0416297
0.0416338
0.0416266
0.04161
0.0415898
0.0415708
0.0415541
0.0415396
0.0415275
0.0415176
0.04151
0.041504
0.0414995
0.0414965
0.0414954
0.0414964
0.0414993
0.0415038
0.0415097
0.0415167
0.041525
0.0415342
0.0415444
0.0415552
0.0415666
0.0415783
0.0415901
0.0416017
0.0416127
0.0416229
0.0416317
0.0416388
0.0416439
0.0416464
0.0416467
0.0416434
0.0416371
0.0416268
0.0416116
0.0415917
0.041566
0.0415341
0.0414956
0.0414496
0.0413955
0.0413325
0.0412599
0.0411768
0.0410825
0.0409755
0.0408551
0.0407206
0.0405706
0.0404048
0.0402219
0.0400205
0.0398
0.0395597
0.0392984
0.0390165
0.0387135
0.0383887
0.0380422
0.0376751
0.0372857
0.0368771
0.0364425
0.0359873
0.0355093
0.0350164
0.0345037
0.033973
0.0334266
0.0328713
0.0323027
0.0317436
0.0311714
0.0306109
0.0300366
0.0294873
0.0289362
0.0284006
0.0278815
0.0273671
0.0268799
0.0264022
0.0259501
0.0255094
0.0250909
0.0247024
0.0243502
0.0240282
0.0237377
0.0234769
0.0229634
0.0438757
0.0426779
0.0425461
0.0423512
0.0422213
0.0421511
0.0421104
0.0420759
0.0420303
0.0419721
0.0419116
0.0418592
0.0418175
0.041784
0.0417578
0.0417391
0.0417257
0.0417132
0.0416964
0.0416717
0.0416398
0.0416078
0.041583
0.041573
0.0415717
0.0415789
0.0415927
0.0416033
0.041606
0.0416016
0.0415913
0.0415778
0.0415658
0.0415561
0.041549
0.0415446
0.041543
0.041543
0.0415447
0.0415477
0.0415524
0.0415592
0.0415678
0.0415781
0.0415898
0.0416028
0.041617
0.0416323
0.0416485
0.0416655
0.0416832
0.0417014
0.0417198
0.0417382
0.0417564
0.0417739
0.0417904
0.0418057
0.0418192
0.0418306
0.0418397
0.0418463
0.0418498
0.0418505
0.0418467
0.041839
0.0418262
0.0418075
0.0417832
0.0417522
0.0417139
0.0416678
0.041613
0.0415489
0.0414746
0.0413889
0.0412914
0.0411811
0.0410567
0.0409174
0.0407621
0.0405896
0.0404
0.0401923
0.0399651
0.0397179
0.0394494
0.0391588
0.0388463
0.0385116
0.0381528
0.0377718
0.0373653
0.03694
0.0364914
0.0360256
0.035539
0.0350327
0.0345037
0.0339704
0.0334127
0.03286
0.0322913
0.0317341
0.0311561
0.0305857
0.0300321
0.0294794
0.0289515
0.0284198
0.0279099
0.0274053
0.026923
0.0264601
0.026013
0.0255779
0.02516
0.0247495
0.024365
0.0240023
0.0233221
0.0437142
0.042705
0.0426072
0.0424181
0.0422789
0.0422015
0.0421585
0.0421269
0.0420877
0.0420358
0.0419782
0.0419253
0.0418813
0.0418441
0.0418125
0.0417877
0.041769
0.0417528
0.0417339
0.0417074
0.0416711
0.0416296
0.0415937
0.0415717
0.0415643
0.0415667
0.0415764
0.0415891
0.0415992
0.0416038
0.041602
0.0415952
0.0415877
0.0415815
0.041578
0.0415774
0.0415803
0.0415857
0.0415927
0.0416012
0.0416113
0.0416234
0.0416375
0.0416533
0.0416706
0.0416893
0.0417091
0.0417301
0.0417522
0.0417751
0.0417988
0.0418232
0.041848
0.041873
0.041898
0.0419227
0.0419466
0.0419695
0.0419911
0.0420111
0.0420292
0.0420451
0.0420584
0.0420689
0.0420763
0.0420799
0.04208
0.0420744
0.0420642
0.042048
0.0420254
0.0419959
0.0419587
0.0419133
0.0418589
0.0417942
0.0417188
0.0416316
0.0415314
0.0414179
0.0412898
0.041146
0.0409861
0.0408085
0.0406118
0.0403957
0.0401594
0.0399028
0.0396261
0.0393277
0.0390055
0.0386606
0.0382921
0.0379037
0.0374902
0.0370552
0.0365943
0.0361157
0.0356191
0.035098
0.034564
0.0340105
0.0334539
0.0328812
0.0323106
0.0317198
0.0311462
0.0305556
0.0299956
0.0294263
0.0288819
0.028343
0.02782
0.0273156
0.0268333
0.0263766
0.0259465
0.0255407
0.0251719
0.0248544
0.0242774
0.0435386
0.0427203
0.042662
0.0424905
0.0423394
0.042248
0.0421991
0.0421692
0.0421379
0.042096
0.042046
0.0419972
0.0419552
0.0419187
0.0418858
0.0418574
0.041834
0.0418135
0.0417917
0.0417638
0.0417262
0.0416795
0.0416307
0.0415922
0.041573
0.0415688
0.041573
0.0415854
0.0416002
0.0416117
0.0416185
0.0416205
0.0416191
0.0416167
0.0416161
0.0416183
0.0416244
0.0416335
0.0416449
0.0416581
0.0416731
0.0416901
0.0417092
0.0417302
0.0417528
0.0417768
0.0418021
0.0418287
0.0418564
0.0418851
0.0419147
0.0419451
0.0419761
0.0420076
0.0420392
0.0420708
0.0421019
0.0421323
0.0421618
0.0421899
0.0422165
0.0422413
0.0422641
0.0422846
0.0423024
0.0423168
0.0423278
0.0423348
0.0423375
0.0423354
0.0423274
0.0423135
0.0422926
0.0422645
0.0422283
0.0421831
0.0421286
0.0420636
0.0419873
0.041899
0.0417973
0.0416811
0.0415499
0.0414025
0.041238
0.0410561
0.0408552
0.0406347
0.0403939
0.0401305
0.0398433
0.0395336
0.0392014
0.0388475
0.0384676
0.038065
0.0376374
0.037192
0.0367233
0.0362337
0.0357202
0.035188
0.0346491
0.0340862
0.0335316
0.0329438
0.0323702
0.0317644
0.0311776
0.0305947
0.0300214
0.0294614
0.0289101
0.0283687
0.0278321
0.027309
0.026791
0.0262883
0.0257999
0.0253616
0.0245665
0.0433577
0.0427254
0.0427055
0.0425632
0.0423992
0.0422915
0.0422361
0.0422082
0.0421852
0.0421539
0.0421125
0.0420684
0.0420291
0.041995
0.0419635
0.0419347
0.0419093
0.0418862
0.0418621
0.0418334
0.0417965
0.04175
0.0416966
0.0416447
0.0416061
0.0415873
0.0415842
0.0415904
0.0416046
0.0416214
0.0416373
0.0416491
0.0416563
0.0416602
0.0416634
0.0416682
0.0416761
0.0416878
0.0417024
0.0417193
0.0417383
0.0417595
0.041783
0.0418085
0.0418359
0.0418649
0.0418953
0.041927
0.0419599
0.041994
0.0420292
0.0420653
0.0421022
0.0421397
0.0421776
0.0422157
0.0422536
0.0422912
0.042328
0.0423639
0.0423987
0.042432
0.0424637
0.0424936
0.0425213
0.0425464
0.0425687
0.0425875
0.0426024
0.0426132
0.0426194
0.0426209
0.042616
0.0426052
0.0425871
0.0425608
0.0425265
0.0424827
0.0424288
0.0423639
0.0422871
0.0421974
0.0420943
0.0419764
0.0418428
0.0416927
0.0415243
0.041337
0.0411302
0.0409024
0.0406535
0.0403839
0.0400922
0.0397773
0.0394371
0.0390746
0.0386874
0.0382783
0.0378422
0.0373861
0.0369064
0.036405
0.0358813
0.0353464
0.0347966
0.0342368
0.0336595
0.0330683
0.0324732
0.031885
0.0312992
0.0307141
0.0301355
0.0295719
0.0290189
0.0284901
0.0279815
0.0274888
0.0270239
0.0265905
0.0257742
0.0431788
0.0427246
0.0427312
0.0426264
0.0424558
0.0423351
0.0422753
0.0422489
0.042233
0.042211
0.0421772
0.0421361
0.0420977
0.0420652
0.0420358
0.0420089
0.0419846
0.0419617
0.0419373
0.0419086
0.041873
0.0418294
0.0417782
0.0417229
0.0416717
0.0416349
0.041617
0.0416137
0.0416201
0.0416358
0.0416559
0.0416764
0.0416938
0.0417064
0.0417158
0.0417246
0.0417351
0.0417487
0.0417655
0.0417851
0.0418072
0.0418319
0.0418591
0.0418887
0.0419203
0.0419538
0.0419888
0.0420254
0.0420633
0.0421025
0.0421429
0.0421845
0.0422269
0.0422702
0.0423142
0.0423586
0.0424031
0.0424475
0.0424914
0.0425348
0.0425773
0.0426188
0.042659
0.0426978
0.0427349
0.0427699
0.0428026
0.0428324
0.0428592
0.0428825
0.0429016
0.0429162
0.042926
0.0429306
0.0429298
0.042921
0.0429057
0.0428818
0.0428492
0.0428071
0.0427545
0.0426906
0.0426143
0.0425245
0.0424205
0.0423016
0.042166
0.0420133
0.0418425
0.0416525
0.041443
0.0412125
0.0409588
0.0406819
0.0403817
0.0400591
0.0397104
0.0393365
0.0389365
0.038518
0.0380751
0.0376072
0.0371109
0.0365961
0.0360686
0.0355254
0.0349602
0.0343793
0.0337778
0.0331772
0.0325737
0.0319732
0.0313613
0.0307587
0.0301549
0.0295662
0.028988
0.0284272
0.0278931
0.0274183
0.0265071
0.0430027
0.0427152
0.0427425
0.0426793
0.0425164
0.0423845
0.0423202
0.042293
0.0422816
0.0422664
0.0422385
0.0421992
0.0421602
0.0421284
0.0421013
0.0420771
0.0420555
0.0420349
0.0420121
0.0419844
0.0419502
0.0419093
0.0418624
0.0418104
0.0417571
0.0417096
0.0416759
0.041659
0.0416559
0.0416623
0.0416795
0.0417034
0.0417288
0.0417512
0.0417691
0.0417841
0.0417987
0.0418149
0.0418336
0.0418553
0.0418797
0.041907
0.0419372
0.0419702
0.0420056
0.042043
0.0420822
0.0421231
0.0421655
0.0422094
0.0422547
0.0423012
0.0423489
0.0423976
0.0424472
0.0424974
0.042548
0.0425988
0.0426494
0.0426998
0.0427496
0.0427987
0.0428469
0.0428941
0.04294
0.0429844
0.043027
0.0430673
0.0431051
0.0431401
0.0431719
0.0432
0.043224
0.0432432
0.0432573
0.043266
0.0432688
0.0432642
0.0432521
0.0432316
0.043201
0.043161
0.0431099
0.043047
0.0429717
0.042883
0.0427792
0.0426596
0.0425231
0.0423686
0.0421958
0.0420024
0.0417872
0.0415509
0.041293
0.0410126
0.0407063
0.0403755
0.0400201
0.0396439
0.0392416
0.0388138
0.0383568
0.0378779
0.037379
0.0368653
0.0363343
0.0357804
0.0352088
0.0346204
0.0340206
0.0334289
0.0328368
0.032239
0.0316274
0.0310254
0.0304017
0.0298087
0.0292183
0.0286636
0.0276489
0.0428249
0.0426991
0.0427496
0.042724
0.0425832
0.0424405
0.0423684
0.0423372
0.0423275
0.0423164
0.0422939
0.0422577
0.0422191
0.0421881
0.0421632
0.0421417
0.0421229
0.042105
0.0420846
0.0420586
0.0420257
0.0419867
0.0419431
0.0418958
0.0418464
0.041798
0.041756
0.0417262
0.0417115
0.0417087
0.0417157
0.0417351
0.0417631
0.0417931
0.0418198
0.0418426
0.0418633
0.0418837
0.0419052
0.0419289
0.0419553
0.0419847
0.0420173
0.042053
0.0420915
0.0421324
0.0421753
0.0422201
0.0422667
0.0423149
0.0423647
0.0424159
0.0424685
0.0425223
0.0425771
0.0426329
0.0426893
0.0427461
0.042803
0.04286
0.0429167
0.042973
0.0430288
0.0430839
0.0431381
0.0431913
0.0432431
0.0432932
0.0433413
0.0433871
0.0434303
0.0434706
0.0435074
0.0435406
0.0435695
0.0435935
0.043612
0.0436247
0.043631
0.0436316
0.0436221
0.0436054
0.0435786
0.0435412
0.0434929
0.0434322
0.0433582
0.0432703
0.043167
0.0430477
0.0429114
0.0427561
0.0425812
0.0423866
0.042171
0.0419327
0.0416701
0.0413842
0.0410727
0.0407371
0.0403749
0.0399898
0.0395775
0.0391394
0.0386742
0.0381895
0.0376852
0.0371623
0.0366154
0.0360434
0.0354522
0.034842
0.0342395
0.0336333
0.0330261
0.0324056
0.0317813
0.0311612
0.0305621
0.0300104
0.028986
0.0426439
0.0426848
0.0427659
0.0427588
0.0426493
0.0424998
0.0424156
0.0423783
0.0423678
0.0423594
0.0423438
0.0423138
0.0422775
0.0422474
0.0422244
0.0422051
0.0421885
0.0421729
0.0421547
0.0421303
0.0420988
0.0420611
0.0420195
0.0419754
0.0419304
0.0418859
0.0418439
0.0418081
0.0417832
0.0417711
0.0417693
0.041778
0.0418012
0.0418336
0.0418671
0.0418976
0.0419255
0.0419518
0.0419776
0.0420042
0.0420327
0.0420639
0.0420984
0.0421363
0.0421775
0.0422213
0.0422675
0.0423158
0.0423661
0.0424182
0.0424721
0.0425275
0.0425846
0.042643
0.0427027
0.0427635
0.0428252
0.0428876
0.0429504
0.0430134
0.0430765
0.0431395
0.0432023
0.0432647
0.0433266
0.0433879
0.0434482
0.0435074
0.0435651
0.0436211
0.0436751
0.0437268
0.0437758
0.0438218
0.0438643
0.043903
0.0439373
0.0439668
0.0439903
0.0440081
0.0440193
0.0440235
0.0440195
0.044006
0.0439831
0.0439489
0.0439039
0.0438464
0.0437752
0.0436894
0.0435881
0.0434695
0.0433333
0.0431783
0.0430029
0.0428062
0.0425878
0.0423469
0.0420803
0.0417887
0.0414722
0.0411344
0.04077
0.0403777
0.0399548
0.0395083
0.0390389
0.0385502
0.0380374
0.0375023
0.0369418
0.0363608
0.035763
0.0351597
0.0345707
0.0339426
0.03331
0.0326502
0.0319983
0.0313893
0.0302704
0.0424971
0.0426604
0.0427708
0.0427813
0.0427079
0.0425589
0.0424593
0.0424143
0.0424025
0.0423977
0.0423906
0.042369
0.0423364
0.0423071
0.0422854
0.0422677
0.042253
0.0422393
0.0422228
0.0421997
0.0421692
0.0421326
0.0420922
0.0420497
0.0420075
0.0419669
0.0419287
0.0418936
0.0418644
0.0418445
0.0418357
0.0418357
0.0418479
0.0418763
0.0419124
0.0419486
0.0419835
0.0420166
0.042048
0.0420788
0.0421103
0.0421437
0.04218
0.0422198
0.0422631
0.0423094
0.0423585
0.0424099
0.0424635
0.0425191
0.0425767
0.0426361
0.0426972
0.0427599
0.0428241
0.0428896
0.0429563
0.0430238
0.0430921
0.0431608
0.0432299
0.0432991
0.0433684
0.0434376
0.0435067
0.0435755
0.0436437
0.0437112
0.0437778
0.0438431
0.043907
0.0439691
0.0440291
0.0440868
0.0441418
0.0441937
0.0442421
0.0442864
0.0443263
0.0443613
0.0443905
0.0444135
0.0444297
0.0444385
0.0444402
0.0444309
0.044413
0.0443836
0.0443417
0.0442874
0.0442189
0.0441356
0.0440367
0.0439204
0.0437853
0.043631
0.0434567
0.0432605
0.0430402
0.0427962
0.0425278
0.0422369
0.0419194
0.041575
0.0412008
0.0408008
0.0403751
0.0399277
0.0394559
0.038963
0.0384432
0.0379012
0.0373351
0.0367533
0.0361578
0.0355577
0.0349332
0.0343062
0.0336428
0.0330286
0.0319514
0.0423892
0.0426147
0.0427606
0.0427977
0.0427564
0.0426138
0.042499
0.0424469
0.0424354
0.042435
0.0424359
0.0424225
0.0423944
0.0423657
0.0423452
0.0423295
0.0423169
0.0423049
0.0422894
0.0422669
0.0422368
0.042201
0.0421616
0.0421199
0.0420787
0.0420404
0.0420059
0.0419746
0.0419465
0.0419237
0.0419093
0.0419039
0.0419064
0.0419254
0.041959
0.0419972
0.0420369
0.0420764
0.0421142
0.0421505
0.0421861
0.0422224
0.0422608
0.0423024
0.0423476
0.0423961
0.0424476
0.0425017
0.0425583
0.042617
0.042678
0.0427409
0.0428057
0.0428723
0.0429405
0.0430103
0.0430815
0.0431537
0.0432269
0.0433008
0.0433753
0.0434503
0.0435255
0.043601
0.0436765
0.0437521
0.0438276
0.0439027
0.0439773
0.0440512
0.044124
0.0441957
0.0442659
0.0443344
0.0444008
0.0444649
0.0445263
0.0445845
0.044639
0.0446896
0.0447357
0.0447767
0.0448121
0.0448409
0.0448628
0.0448771
0.0448835
0.0448814
0.0448672
0.0448433
0.0448064
0.0447568
0.044693
0.0446134
0.0445171
0.0444033
0.0442708
0.0441177
0.0439433
0.0437466
0.0435256
0.0432808
0.0430102
0.042715
0.0423921
0.0420423
0.0416647
0.041262
0.0408338
0.040382
0.039903
0.0394003
0.038868
0.0383145
0.0377363
0.0371468
0.0365405
0.0359341
0.0352655
0.0346261
0.0335332
0.0423085
0.0425559
0.0427445
0.0428122
0.0427885
0.0426616
0.0425378
0.042481
0.0424691
0.0424725
0.042479
0.0424719
0.0424487
0.0424219
0.0424035
0.0423905
0.04238
0.0423693
0.0423541
0.0423311
0.0423008
0.0422652
0.0422265
0.0421854
0.0421444
0.0421068
0.0420746
0.0420471
0.0420227
0.0420014
0.0419849
0.041976
0.0419736
0.0419822
0.0420091
0.0420456
0.0420872
0.0421313
0.0421751
0.0422174
0.0422581
0.0422982
0.0423394
0.0423832
0.0424303
0.0424808
0.0425345
0.042591
0.0426502
0.0427118
0.0427757
0.0428418
0.04291
0.0429801
0.0430521
0.0431258
0.043201
0.0432776
0.0433553
0.043434
0.0435134
0.0435936
0.0436743
0.0437555
0.043837
0.0439189
0.0440009
0.044083
0.044165
0.0442465
0.0443276
0.0444079
0.0444873
0.0445655
0.0446422
0.0447172
0.0447902
0.0448607
0.0449285
0.0449931
0.0450542
0.0451112
0.0451637
0.0452111
0.0452528
0.0452882
0.0453163
0.0453369
0.045349
0.0453529
0.0453449
0.0453263
0.0452951
0.0452495
0.0451901
0.0451147
0.0450226
0.0449124
0.0447834
0.0446334
0.0444604
0.0442644
0.0440446
0.0438019
0.0435328
0.0432367
0.0429114
0.0425591
0.0421799
0.0417742
0.0413418
0.0408843
0.040399
0.0398925
0.0393577
0.0388063
0.0382274
0.0376363
0.0370153
0.0363966
0.0354026
0.0422501
0.0424948
0.042726
0.0428191
0.0428093
0.042706
0.042577
0.0425158
0.0425026
0.0425084
0.0425195
0.0425165
0.0424989
0.0424758
0.0424604
0.0424503
0.0424418
0.0424317
0.0424156
0.042391
0.0423593
0.0423234
0.0422851
0.0422445
0.0422037
0.0421664
0.0421353
0.0421107
0.0420903
0.0420727
0.0420578
0.0420478
0.0420433
0.0420457
0.0420643
0.0420961
0.0421363
0.0421825
0.0422308
0.0422788
0.0423251
0.04237
0.0424148
0.0424612
0.0425104
0.0425629
0.0426186
0.0426773
0.0427388
0.042803
0.0428696
0.0429385
0.0430097
0.043083
0.0431584
0.0432356
0.0433145
0.043395
0.0434768
0.0435597
0.0436436
0.0437284
0.0438141
0.0439003
0.0439873
0.0440747
0.0441627
0.044251
0.0443395
0.0444279
0.0445163
0.0446044
0.0446919
0.0447788
0.0448647
0.0449495
0.0450329
0.0451146
0.0451942
0.0452715
0.0453461
0.0454175
0.0454854
0.0455493
0.0456086
0.0456629
0.0457116
0.045754
0.0457891
0.0458165
0.0458351
0.0458445
0.0458457
0.0458317
0.0458081
0.0457694
0.0457157
0.0456464
0.0455598
0.0454539
0.0453275
0.0451797
0.045009
0.0448155
0.0445962
0.0443506
0.0440761
0.0437748
0.0434456
0.0430894
0.0427066
0.0422963
0.0418591
0.0413952
0.040899
0.0403789
0.0398211
0.0392532
0.0386353
0.0380174
0.0370935
0.0422109
0.0424382
0.0427017
0.0428219
0.0428245
0.0427451
0.0426145
0.0425487
0.0425338
0.0425411
0.0425573
0.0425581
0.0425461
0.0425276
0.0425158
0.0425083
0.042501
0.0424901
0.0424715
0.0424442
0.0424105
0.0423739
0.0423358
0.0422959
0.0422558
0.0422189
0.0421888
0.0421662
0.0421492
0.0421358
0.0421243
0.0421159
0.0421113
0.0421115
0.0421235
0.0421491
0.0421859
0.0422316
0.0422825
0.0423351
0.0423868
0.0424367
0.0424858
0.0425354
0.0425872
0.0426418
0.0426995
0.0427602
0.0428239
0.0428903
0.0429594
0.0430309
0.0431048
0.043181
0.0432594
0.0433397
0.043422
0.0435059
0.0435914
0.0436782
0.0437661
0.0438552
0.0439452
0.0440361
0.0441278
0.0442204
0.0443136
0.0444075
0.0445018
0.0445965
0.0446914
0.0447863
0.0448812
0.0449757
0.0450698
0.0451633
0.0452559
0.0453474
0.0454375
0.0455259
0.0456123
0.0456964
0.0457779
0.0458563
0.0459312
0.0460022
0.0460687
0.0461302
0.0461862
0.0462359
0.0462786
0.046313
0.0463394
0.0463561
0.0463633
0.0463588
0.0463399
0.0463085
0.0462609
0.0461971
0.0461156
0.0460149
0.0458929
0.0457493
0.045582
0.0453907
0.0451725
0.0449285
0.0446557
0.0443558
0.044028
0.0436719
0.0432901
0.0428798
0.0424438
0.0419791
0.0414819
0.0409592
0.0403897
0.0397895
0.0389422
0.0421861
0.0423905
0.0426742
0.0428214
0.0428373
0.0427773
0.0426482
0.0425779
0.0425617
0.0425711
0.0425934
0.0425986
0.0425913
0.0425776
0.042569
0.0425635
0.042556
0.0425425
0.04252
0.0424892
0.0424534
0.0424162
0.0423786
0.0423397
0.0423008
0.042265
0.042236
0.0422152
0.0422009
0.042191
0.0421835
0.0421782
0.0421753
0.0421757
0.0421844
0.0422045
0.0422368
0.0422802
0.0423316
0.0423872
0.0424435
0.0424984
0.0425519
0.0426053
0.04266
0.042717
0.0427768
0.0428395
0.0429052
0.0429737
0.043045
0.0431189
0.0431952
0.043274
0.0433551
0.0434382
0.0435234
0.0436105
0.0436993
0.0437895
0.043881
0.0439738
0.0440677
0.0441627
0.0442587
0.0443557
0.0444535
0.0445523
0.0446518
0.0447519
0.0448525
0.0449534
0.0450547
0.045156
0.0452572
0.0453582
0.0454588
0.0455589
0.0456581
0.0457562
0.045853
0.0459482
0.0460415
0.0461327
0.0462212
0.0463068
0.046389
0.0464673
0.0465414
0.0466106
0.0466743
0.0467318
0.0467825
0.0468254
0.0468596
0.0468846
0.0468992
0.0469038
0.0468937
0.0468708
0.0468325
0.0467763
0.0467021
0.0466077
0.046492
0.0463539
0.0461905
0.0460015
0.0457828
0.0455369
0.04526
0.044954
0.0446184
0.044252
0.043858
0.0434285
0.0429689
0.0424725
0.041942
0.0413529
0.0405827
0.0421711
0.0423539
0.0426487
0.0428194
0.042848
0.0428024
0.0426765
0.0426031
0.0425864
0.0425999
0.0426285
0.0426384
0.0426349
0.0426254
0.0426192
0.0426143
0.0426051
0.0425875
0.0425605
0.0425263
0.0424888
0.0424514
0.0424144
0.0423768
0.0423396
0.0423052
0.042278
0.0422588
0.0422469
0.0422397
0.0422359
0.0422339
0.0422338
0.0422362
0.0422441
0.0422607
0.0422888
0.042329
0.0423794
0.0424364
0.042496
0.0425553
0.0426133
0.0426706
0.0427285
0.0427882
0.0428502
0.042915
0.0429826
0.0430531
0.0431264
0.0432023
0.0432809
0.043362
0.0434455
0.0435312
0.043619
0.0437089
0.0438005
0.0438937
0.0439884
0.0440845
0.0441818
0.0442804
0.0443802
0.0444811
0.0445831
0.0446861
0.0447901
0.044895
0.0450005
0.0451068
0.0452135
0.0453207
0.0454281
0.0455357
0.0456433
0.0457507
0.0458578
0.0459643
0.04607
0.0461747
0.0462783
0.0463803
0.0464805
0.0465786
0.0466743
0.0467671
0.0468568
0.0469428
0.0470246
0.0471017
0.0471734
0.0472393
0.0472985
0.0473503
0.0473932
0.0474271
0.0474505
0.0474628
0.0474647
0.0474477
0.0474189
0.047371
0.0473044
0.0472183
0.0471092
0.0469767
0.0468169
0.0466312
0.0464146
0.04617
0.0458936
0.0455878
0.0452516
0.0448792
0.0444747
0.0440264
0.0435417
0.0429894
0.0422733
0.0421626
0.0423287
0.0426286
0.0428183
0.0428574
0.042821
0.0426986
0.0426249
0.0426091
0.0426282
0.0426631
0.0426771
0.0426764
0.0426701
0.0426654
0.0426599
0.0426475
0.042625
0.0425933
0.0425562
0.0425175
0.0424803
0.0424442
0.0424082
0.0423728
0.0423405
0.0423153
0.0422979
0.0422881
0.0422833
0.0422822
0.0422836
0.0422865
0.0422917
0.0423006
0.042316
0.0423411
0.0423781
0.0424265
0.0424837
0.0425455
0.0426083
0.0426702
0.0427314
0.0427927
0.0428552
0.0429196
0.0429865
0.043056
0.0431284
0.0432035
0.0432815
0.0433621
0.0434452
0.0435309
0.0436189
0.043709
0.0438013
0.0438955
0.0439914
0.0440889
0.0441878
0.0442882
0.0443899
0.044493
0.0445973
0.0447028
0.0448096
0.0449174
0.0450264
0.0451363
0.045247
0.0453585
0.0454707
0.0455834
0.0456966
0.0458101
0.0459238
0.0460376
0.0461512
0.0462645
0.0463773
0.0464894
0.0466007
0.0467108
0.0468195
0.0469266
0.0470317
0.0471346
0.0472349
0.0473321
0.0474259
0.0475157
0.0476009
0.0476813
0.0477559
0.0478242
0.0478853
0.0479384
0.0479819
0.0480162
0.0480386
0.04805
0.0480488
0.0480273
0.0479925
0.0479368
0.0478605
0.0477611
0.0476371
0.047484
0.047303
0.0470878
0.0468423
0.0465596
0.046239
0.0458773
0.0454654
0.0450149
0.0444952
0.0438241
0.0421591
0.0423147
0.0426171
0.042819
0.0428656
0.042834
0.0427153
0.0426439
0.0426309
0.0426567
0.0426975
0.0427142
0.0427152
0.0427111
0.0427067
0.0426993
0.0426825
0.0426545
0.0426187
0.0425793
0.0425401
0.0425034
0.0424685
0.0424343
0.0424008
0.0423709
0.0423478
0.0423328
0.042325
0.0423226
0.0423233
0.0423279
0.0423334
0.0423418
0.0423529
0.0423687
0.0423924
0.042427
0.0424733