/*--------------------------------*- C++ -*----------------------------------*\
| =========                 |                                                 |
| \\      /  F ield         | OpenFOAM: The Open Source CFD Toolbox           |
|  \\    /   O peration     | Version:  2412                                  |
|   \\  /    A nd           | Website:  www.openfoam.com                      |
|    \\/     M anipulation  |                                                 |
\*---------------------------------------------------------------------------*/
FoamFile
{
    version     2.0;
    format      ascii;
    arch        "LSB;label=32;scalar=64";
    class       volVectorField;
    location    "0.033";
    object      U;
}
// * * * * * * * * * * * * * * * * * * * * * * * * * * * * * * * * * * * * * //

dimensions      [0 1 -1 0 0 0 0];

internalField   nonuniform List<vector> 
78650
(
(210 -4.34978e-12 0)
(210 -4.7982e-13 0)
(210 -7.25269e-12 0)
(210 3.14598e-12 0)
(210 1.16824e-11 0)
(210 -7.31993e-12 0)
(210 1.28967e-10 0)
(210 1.59024e-08 0)
(210 1.75393e-06 0)
(209.999 0.000196818 0)
(209.969 0.00817186 0)
(209.682 0.107732 0)
(208.754 0.49902 0)
(207.594 1.06742 0)
(206.877 1.45141 0)
(206.835 1.54975 0)
(207.107 1.50348 0)
(208.136 1.18646 0)
(209.376 0.757015 0)
(210.373 0.576817 0)
(211.041 0.565819 0)
(211.497 0.704816 0)
(211.917 0.899819 0)
(212.367 1.09932 0)
(212.863 1.28793 0)
(213.376 1.50629 0)
(213.875 1.77542 0)
(214.333 2.09606 0)
(214.747 2.45792 0)
(215.143 2.85837 0)
(215.568 3.29785 0)
(216.028 3.77976 0)
(216.451 4.29774 0)
(216.715 4.84761 0)
(216.821 5.41326 0)
(216.758 5.97218 0)
(216.518 6.55959 0)
(216.254 7.15893 0)
(216.096 7.78143 0)
(216.082 8.42377 0)
(216.151 9.10615 0)
(216.277 9.80155 0)
(216.423 10.5286 0)
(216.547 11.2842 0)
(216.637 12.0658 0)
(216.709 12.8729 0)
(216.767 13.7085 0)
(216.812 14.5757 0)
(216.849 15.4755 0)
(216.876 16.4076 0)
(216.891 17.3722 0)
(216.894 18.3702 0)
(216.884 19.4019 0)
(216.862 20.4667 0)
(216.831 21.5636 0)
(216.791 22.6922 0)
(216.743 23.8529 0)
(216.687 25.0468 0)
(216.624 26.2749 0)
(216.555 27.5375 0)
(216.481 28.8352 0)
(216.408 30.1683 0)
(216.337 31.5374 0)
(216.271 32.9427 0)
(216.214 34.3853 0)
(216.169 35.8674 0)
(216.136 37.3896 0)
(216.124 38.9538 0)
(216.136 40.5609 0)
(216.172 42.2115 0)
(216.248 43.9083 0)
(216.36 45.6517 0)
(216.518 47.4439 0)
(216.729 49.286 0)
(216.995 51.1783 0)
(217.337 53.1215 0)
(217.749 55.1147 0)
(218.265 57.1581 0)
(218.869 59.2502 0)
(219.601 61.3913 0)
(220.452 63.5804 0)
(221.445 65.8163 0)
(222.593 68.0965 0)
(223.91 70.417 0)
(225.423 72.7674 0)
(227.132 75.1398 0)
(229.097 77.518 0)
(231.269 79.9138 0)
(233.773 82.2807 0)
(236.47 84.6414 0)
(239.603 86.9165 0)
(242.919 89.2444 0)
(246.801 91.3699 0)
(250.804 93.501 0)
(255.329 95.2722 0)
(260.149 97.0322 0)
(265.695 98.5712 0)
(271.523 99.8218 0)
(277.465 100.761 0)
(283.983 101.389 0)
(290.481 101.716 0)
(297.893 101.67 0)
(304.941 101.219 0)
(312.296 100.487 0)
(319.771 99.3346 0)
(326.98 97.8554 0)
(333.884 96.2987 0)
(340.879 94.2226 0)
(347.222 92.0634 0)
(354.178 89.3826 0)
(360.342 87.0156 0)
(367 84.1548 0)
(372.446 81.7283 0)
(377.818 79.0869 0)
(381.747 76.5853 0)
(383.91 74.5875 0)
(385.654 72.333 0)
(388.079 71.2783 0)
(393.297 70.088 0)
(401.489 68.9305 0)
(404.399 73.1532 0)
(210 -8.93837e-13 0)
(210 3.59895e-12 0)
(210 -1.22175e-12 0)
(210 -6.37079e-13 0)
(210 2.34364e-12 0)
(210 -9.9199e-12 0)
(210 3.82575e-11 0)
(210 5.50222e-09 0)
(210 6.43784e-07 0)
(210 7.81566e-05 0)
(209.983 0.00411672 0)
(209.782 0.0681334 0)
(208.977 0.385102 0)
(207.758 0.95048 0)
(206.887 1.37745 0)
(206.774 1.50248 0)
(206.903 1.52951 0)
(207.813 1.30458 0)
(209.066 0.871626 0)
(210.106 0.654046 0)
(210.791 0.606834 0)
(211.253 0.72709 0)
(211.653 0.915407 0)
(212.072 1.11688 0)
(212.541 1.31046 0)
(213.04 1.5301 0)
(213.535 1.79767 0)
(213.993 2.11526 0)
(214.402 2.47323 0)
(214.778 2.86791 0)
(215.163 3.3002 0)
(215.585 3.77431 0)
(216.017 4.28368 0)
(216.348 4.82463 0)
(216.513 5.39024 0)
(216.54 5.93624 0)
(216.379 6.50909 0)
(216.1 7.10512 0)
(215.852 7.71735 0)
(215.738 8.3548 0)
(215.749 9.01565 0)
(215.814 9.71704 0)
(215.924 10.4306 0)
(216.034 11.172 0)
(216.115 11.9435 0)
(216.171 12.742 0)
(216.208 13.5678 0)
(216.232 14.422 0)
(216.247 15.3082 0)
(216.249 16.2266 0)
(216.242 17.1768 0)
(216.22 18.1599 0)
(216.185 19.1758 0)
(216.137 20.2242 0)
(216.077 21.3041 0)
(216.008 22.4152 0)
(215.929 23.5576 0)
(215.841 24.7324 0)
(215.744 25.9405 0)
(215.638 27.1827 0)
(215.527 28.4592 0)
(215.413 29.7705 0)
(215.297 31.1176 0)
(215.183 32.5005 0)
(215.076 33.9202 0)
(214.976 35.3791 0)
(214.885 36.8776 0)
(214.81 38.4178 0)
(214.752 40.001 0)
(214.715 41.6276 0)
(214.711 43.3007 0)
(214.735 45.0207 0)
(214.799 46.7902 0)
(214.908 48.6105 0)
(215.063 50.4825 0)
(215.284 52.4079 0)
(215.564 54.3861 0)
(215.936 56.4185 0)
(216.384 58.5037 0)
(216.947 60.6435 0)
(217.616 62.8373 0)
(218.413 65.0859 0)
(219.348 67.3872 0)
(220.437 69.7366 0)
(221.708 72.126 0)
(223.164 74.5538 0)
(224.856 77.0141 0)
(226.743 79.5102 0)
(228.941 82.0003 0)
(231.334 84.501 0)
(234.139 86.9533 0)
(237.114 89.4332 0)
(240.59 91.7612 0)
(244.182 94.1174 0)
(248.399 96.1926 0)
(252.727 98.3025 0)
(257.511 100.103 0)
(262.622 101.813 0)
(268.323 103.203 0)
(274.598 104.311 0)
(280.892 105.072 0)
(287.665 105.612 0)
(294.738 105.734 0)
(301.825 105.5 0)
(309.435 104.934 0)
(317.282 103.765 0)
(324.378 102.527 0)
(332.12 100.807 0)
(339.27 98.8341 0)
(346.088 96.6435 0)
(352.526 94.5004 0)
(359.186 91.8904 0)
(365.013 89.612 0)
(371.197 86.944 0)
(376.193 84.2126 0)
(379.41 81.7304 0)
(381.762 78.9566 0)
(383.941 77.2626 0)
(388.737 75.9064 0)
(397.643 74.6602 0)
(401.491 79.2451 0)
(210 -1.05755e-14 0)
(210 -7.39492e-13 0)
(210 -4.05188e-12 0)
(210 2.48215e-13 0)
(210 1.43368e-11 0)
(210 1.82999e-12 0)
(210 1.93117e-11 0)
(210 2.12267e-09 0)
(210 2.2412e-07 0)
(210 2.75007e-05 0)
(209.991 0.00187599 0)
(209.86 0.040123 0)
(209.2 0.283837 0)
(207.974 0.822033 0)
(206.94 1.2885 0)
(206.716 1.4592 0)
(206.737 1.54894 0)
(207.49 1.40321 0)
(208.721 0.970992 0)
(209.805 0.710914 0)
(210.522 0.624632 0)
(211.001 0.727425 0)
(211.387 0.907932 0)
(211.775 1.1092 0)
(212.214 1.30735 0)
(212.698 1.52993 0)
(213.188 1.79825 0)
(213.646 2.11477 0)
(214.052 2.47067 0)
(214.417 2.86125 0)
(214.772 3.28702 0)
(215.149 3.75158 0)
(215.556 4.251 0)
(215.923 4.78217 0)
(216.157 5.33575 0)
(216.24 5.90371 0)
(216.186 6.4658 0)
(215.946 7.05585 0)
(215.646 7.66159 0)
(215.431 8.28799 0)
(215.35 8.94328 0)
(215.367 9.62159 0)
(215.425 10.333 0)
(215.509 11.0634 0)
(215.579 11.8207 0)
(215.623 12.6075 0)
(215.641 13.4242 0)
(215.645 14.2679 0)
(215.636 15.1427 0)
(215.615 16.0478 0)
(215.584 16.9832 0)
(215.539 17.9518 0)
(215.478 18.953 0)
(215.403 19.9867 0)
(215.314 21.0517 0)
(215.215 22.1473 0)
(215.104 23.2737 0)
(214.982 24.4319 0)
(214.85 25.6228 0)
(214.707 26.8472 0)
(214.556 28.1056 0)
(214.4 29.3981 0)
(214.239 30.727 0)
(214.078 32.0905 0)
(213.92 33.4892 0)
(213.765 34.9272 0)
(213.615 36.4045 0)
(213.479 37.9229 0)
(213.354 39.4844 0)
(213.245 41.0885 0)
(213.164 42.7388 0)
(213.104 44.4358 0)
(213.079 46.1817 0)
(213.091 47.9785 0)
(213.142 49.827 0)
(213.25 51.7296 0)
(213.409 53.6853 0)
(213.647 55.6964 0)
(213.951 57.7614 0)
(214.359 59.883 0)
(214.858 62.0601 0)
(215.472 64.2936 0)
(216.21 66.5828 0)
(217.084 68.9258 0)
(218.119 71.3201 0)
(219.317 73.7651 0)
(220.724 76.252 0)
(222.308 78.7754 0)
(224.174 81.3118 0)
(226.219 83.8841 0)
(228.636 86.4576 0)
(231.219 89.0631 0)
(234.282 91.5627 0)
(237.486 94.0797 0)
(241.285 96.4312 0)
(245.188 98.8997 0)
(249.773 101.052 0)
(254.587 103.14 0)
(259.909 104.884 0)
(265.549 106.41 0)
(271.726 107.688 0)
(278.087 108.681 0)
(285.129 109.37 0)
(292.182 109.517 0)
(299.145 109.485 0)
(307.248 108.954 0)
(314.536 108.022 0)
(321.947 106.941 0)
(330.039 105.304 0)
(337.079 103.482 0)
(343.942 101.55 0)
(351.016 99.2541 0)
(357.162 97.2226 0)
(363.484 94.7829 0)
(368.603 92.3728 0)
(372.523 89.7144 0)
(375.383 86.7673 0)
(378.06 84.7983 0)
(383.584 83.2751 0)
(393.586 81.8092 0)
(397.57 86.9256 0)
(210 -1.78411e-12 0)
(210 5.7007e-12 0)
(210 1.03936e-12 0)
(210 1.42368e-11 0)
(210 2.08131e-11 0)
(210 1.76112e-12 0)
(210 6.64435e-12 0)
(210 4.41167e-10 0)
(210 4.81721e-08 0)
(210 7.41269e-06 0)
(209.996 0.000748295 0)
(209.916 0.0214598 0)
(209.405 0.195054 0)
(208.224 0.680752 0)
(207.039 1.18694 0)
(206.681 1.41544 0)
(206.601 1.55465 0)
(207.175 1.4803 0)
(208.36 1.07502 0)
(209.491 0.785206 0)
(210.243 0.658162 0)
(210.744 0.740341 0)
(211.119 0.91446 0)
(211.476 1.12041 0)
(211.886 1.32844 0)
(212.352 1.55677 0)
(212.836 1.82497 0)
(213.29 2.13677 0)
(213.691 2.4861 0)
(214.048 2.86854 0)
(214.383 3.28485 0)
(214.721 3.73721 0)
(215.083 4.22411 0)
(215.446 4.74276 0)
(215.734 5.28582 0)
(215.872 5.85496 0)
(215.907 6.40703 0)
(215.762 6.98926 0)
(215.47 7.59012 0)
(215.176 8.20629 0)
(214.985 8.84765 0)
(214.922 9.51819 0)
(214.936 10.2136 0)
(214.979 10.9369 0)
(215.029 11.6853 0)
(215.059 12.4611 0)
(215.063 13.2638 0)
(215.05 14.0931 0)
(215.016 14.9573 0)
(214.972 15.85 0)
(214.916 16.7722 0)
(214.848 17.7244 0)
(214.764 18.7083 0)
(214.664 19.7241 0)
(214.549 20.771 0)
(214.421 21.8483 0)
(214.28 22.9558 0)
(214.127 24.0941 0)
(213.962 25.2642 0)
(213.786 26.467 0)
(213.599 27.7032 0)
(213.403 28.9737 0)
(213.201 30.2782 0)
(212.997 31.6171 0)
(212.791 32.9917 0)
(212.585 34.4056 0)
(212.381 35.8572 0)
(212.187 37.3477 0)
(211.998 38.8823 0)
(211.822 40.4587 0)
(211.667 42.0816 0)
(211.527 43.7512 0)
(211.417 45.4694 0)
(211.334 47.2386 0)
(211.285 49.0598 0)
(211.282 50.9365 0)
(211.321 52.8677 0)
(211.428 54.8572 0)
(211.588 56.9031 0)
(211.841 59.0098 0)
(212.171 61.1757 0)
(212.604 63.4038 0)
(213.144 65.6949 0)
(213.805 68.0491 0)
(214.609 70.4639 0)
(215.562 72.936 0)
(216.706 75.4597 0)
(218.016 78.0353 0)
(219.584 80.6527 0)
(221.323 83.3201 0)
(223.408 85.9963 0)
(225.653 88.6925 0)
(228.336 91.3359 0)
(231.162 94.036 0)
(234.556 96.6456 0)
(238.067 99.2948 0)
(242.19 101.631 0)
(246.38 103.987 0)
(251.194 106.071 0)
(256.414 108.127 0)
(262.158 109.879 0)
(268.349 111.352 0)
(274.815 112.538 0)
(282.032 113.41 0)
(288.897 113.78 0)
(296.464 113.981 0)
(304.57 113.602 0)
(312 112.874 0)
(320.224 111.771 0)
(328.053 110.258 0)
(335.657 108.411 0)
(343.396 106.259 0)
(350.308 104.285 0)
(357.492 101.782 0)
(363.2 99.6771 0)
(368.443 96.7703 0)
(371.618 93.8408 0)
(374.039 91.4542 0)
(378.944 90.0355 0)
(389.594 88.5682 0)
(393.462 94.8638 0)
(210 1.07475e-11 0)
(210 1.09664e-11 0)
(210 7.64965e-12 0)
(210 2.46708e-11 0)
(210 -1.46585e-13 0)
(210 -1.65801e-11 0)
(210 4.15113e-13 0)
(210 6.40587e-11 0)
(210 6.00249e-09 0)
(210 1.36246e-06 0)
(209.998 0.000256163 0)
(209.954 0.0103031 0)
(209.586 0.124106 0)
(208.514 0.536419 0)
(207.217 1.07278 0)
(206.655 1.37872 0)
(206.485 1.52742 0)
(206.879 1.5252 0)
(207.978 1.17506 0)
(209.144 0.853751 0)
(209.941 0.676453 0)
(210.477 0.728808 0)
(210.847 0.893062 0)
(211.176 1.10462 0)
(211.553 1.32797 0)
(212 1.5678 0)
(212.475 1.83856 0)
(212.921 2.14526 0)
(213.315 2.48663 0)
(213.665 2.85995 0)
(213.986 3.26666 0)
(214.297 3.70683 0)
(214.613 4.17992 0)
(214.941 4.6844 0)
(215.249 5.21496 0)
(215.451 5.76945 0)
(215.534 6.34485 0)
(215.497 6.91609 0)
(215.273 7.51158 0)
(214.951 8.12547 0)
(214.664 8.75568 0)
(214.495 9.41107 0)
(214.44 10.0954 0)
(214.443 10.8054 0)
(214.461 11.544 0)
(214.473 12.3105 0)
(214.465 13.0975 0)
(214.432 13.9177 0)
(214.379 14.7662 0)
(214.311 15.6442 0)
(214.232 16.5518 0)
(214.139 17.4893 0)
(214.03 18.4576 0)
(213.904 19.457 0)
(213.761 20.487 0)
(213.603 21.5468 0)
(213.432 22.6362 0)
(213.247 23.756 0)
(213.048 24.9069 0)
(212.836 26.09 0)
(212.611 27.306 0)
(212.376 28.5554 0)
(212.131 29.8388 0)
(211.88 31.1567 0)
(211.625 32.5102 0)
(211.369 33.8997 0)
(211.113 35.3263 0)
(210.86 36.7927 0)
(210.606 38.3047 0)
(210.365 39.8544 0)
(210.137 41.4492 0)
(209.919 43.092 0)
(209.727 44.7823 0)
(209.555 46.5242 0)
(209.411 48.3166 0)
(209.305 50.1645 0)
(209.232 52.0664 0)
(209.218 54.0268 0)
(209.248 56.0436 0)
(209.358 58.1221 0)
(209.534 60.2601 0)
(209.801 62.4615 0)
(210.161 64.7268 0)
(210.628 67.057 0)
(211.218 69.4514 0)
(211.939 71.9098 0)
(212.826 74.431 0)
(213.859 77.0136 0)
(215.121 79.651 0)
(216.534 82.346 0)
(218.256 85.0768 0)
(220.126 87.8534 0)
(222.409 90.6362 0)
(224.843 93.4798 0)
(227.793 96.264 0)
(230.858 99.0809 0)
(234.566 101.728 0)
(238.412 104.463 0)
(242.933 106.925 0)
(247.625 109.37 0)
(252.887 111.548 0)
(258.636 113.524 0)
(264.691 115.063 0)
(271.408 116.459 0)
(278.485 117.367 0)
(285.353 118.002 0)
(293.494 118.318 0)
(300.922 118.139 0)
(308.842 117.575 0)
(316.952 116.641 0)
(324.811 115.357 0)
(333.032 113.599 0)
(340.407 111.905 0)
(348.337 109.632 0)
(354.824 107.556 0)
(360.584 105.039 0)
(364.904 102.046 0)
(368.515 99.4934 0)
(374.45 97.3455 0)
(385.487 95.6032 0)
(389.763 101.432 0)
(210 3.93396e-12 0)
(210 -4.24121e-12 0)
(210 7.73782e-12 0)
(210 9.26806e-12 0)
(210 -1.32124e-11 0)
(210 -9.84535e-12 0)
(210 -4.61514e-12 0)
(210 -3.02659e-11 0)
(210 -2.09821e-09 0)
(210 3.36471e-08 0)
(209.999 6.98599e-05 0)
(209.977 0.00430983 0)
(209.734 0.0713809 0)
(208.818 0.395693 0)
(207.446 0.933248 0)
(206.659 1.31829 0)
(206.385 1.47646 0)
(206.622 1.54497 0)
(207.594 1.27923 0)
(208.773 0.931672 0)
(209.62 0.704047 0)
(210.196 0.737497 0)
(210.57 0.900022 0)
(210.877 1.11841 0)
(211.222 1.35267 0)
(211.646 1.59797 0)
(212.105 1.8655 0)
(212.54 2.16216 0)
(212.921 2.49204 0)
(213.261 2.85416 0)
(213.573 3.25045 0)
(213.866 3.67868 0)
(214.144 4.13834 0)
(214.426 4.6276 0)
(214.713 5.14457 0)
(214.953 5.68923 0)
(215.086 6.26219 0)
(215.126 6.83174 0)
(215.016 7.42339 0)
(214.737 8.02955 0)
(214.396 8.65003 0)
(214.117 9.29139 0)
(213.962 9.96123 0)
(213.903 10.6603 0)
(213.886 11.3852 0)
(213.874 12.138 0)
(213.848 12.9169 0)
(213.8 13.7233 0)
(213.728 14.5575 0)
(213.638 15.4201 0)
(213.535 16.3112 0)
(213.418 17.2316 0)
(213.284 18.182 0)
(213.133 19.1629 0)
(212.964 20.1738 0)
(212.779 21.2138 0)
(212.579 22.2826 0)
(212.364 23.3808 0)
(212.134 24.5093 0)
(211.889 25.6691 0)
(211.63 26.8611 0)
(211.357 28.086 0)
(211.073 29.344 0)
(210.78 30.6357 0)
(210.481 31.9618 0)
(210.177 33.3239 0)
(209.87 34.7234 0)
(209.561 36.1626 0)
(209.254 37.6406 0)
(208.951 39.1604 0)
(208.654 40.7248 0)
(208.361 42.3386 0)
(208.091 43.9941 0)
(207.831 45.7038 0)
(207.596 47.4629 0)
(207.389 49.2789 0)
(207.208 51.1493 0)
(207.075 53.0792 0)
(206.975 55.067 0)
(206.945 57.119 0)
(206.966 59.2332 0)
(207.067 61.4142 0)
(207.246 63.6631 0)
(207.518 65.9825 0)
(207.896 68.3738 0)
(208.39 70.8366 0)
(209.03 73.3698 0)
(209.802 75.9723 0)
(210.778 78.6437 0)
(211.894 81.3814 0)
(213.295 84.1679 0)
(214.837 87.0072 0)
(216.755 89.8832 0)
(218.805 92.8259 0)
(221.327 95.7414 0)
(223.972 98.6796 0)
(227.207 101.514 0)
(230.529 104.433 0)
(234.528 107.196 0)
(238.711 109.987 0)
(243.519 112.477 0)
(248.664 114.88 0)
(254.429 117.036 0)
(260.544 118.873 0)
(267.442 120.616 0)
(274.434 121.754 0)
(281.985 122.65 0)
(289.873 123.122 0)
(297.707 123.155 0)
(306.251 122.726 0)
(314.378 121.875 0)
(322.455 120.753 0)
(331.079 119.078 0)
(338.752 117.383 0)
(346.293 115.38 0)
(352.572 113.15 0)
(356.84 110.558 0)
(360.244 108.139 0)
(366.004 106.44 0)
(377.9 104.647 0)
(382.036 111.417 0)
(210 4.28634e-13 0)
(210 1.78247e-12 0)
(210 1.80964e-11 0)
(210 9.80747e-13 0)
(210 -1.40564e-11 0)
(210 -7.33747e-12 0)
(210 -8.75718e-12 0)
(210 -1.13211e-11 0)
(210 -1.58047e-09 0)
(210 -9.59142e-08 0)
(210 1.26636e-05 0)
(209.99 0.00152313 0)
(209.844 0.036483 0)
(209.118 0.269651 0)
(207.75 0.779427 0)
(206.731 1.23117 0)
(206.299 1.41833 0)
(206.423 1.55887 0)
(207.205 1.36023 0)
(208.359 0.990091 0)
(209.273 0.7178 0)
(209.906 0.737437 0)
(210.297 0.90039 0)
(210.581 1.12369 0)
(210.89 1.36606 0)
(211.284 1.61434 0)
(211.722 1.87613 0)
(212.142 2.1602 0)
(212.508 2.4767 0)
(212.836 2.82679 0)
(213.138 3.21259 0)
(213.422 3.62947 0)
(213.677 4.07641 0)
(213.917 4.54982 0)
(214.16 5.05171 0)
(214.4 5.58266 0)
(214.584 6.14078 0)
(214.663 6.72958 0)
(214.659 7.31259 0)
(214.478 7.91749 0)
(214.146 8.53888 0)
(213.791 9.17162 0)
(213.523 9.82493 0)
(213.374 10.5068 0)
(213.302 11.2196 0)
(213.257 11.9601 0)
(213.21 12.7265 0)
(213.145 13.5185 0)
(213.057 14.3383 0)
(212.946 15.1861 0)
(212.818 16.0614 0)
(212.675 16.9647 0)
(212.517 17.8969 0)
(212.34 18.859 0)
(212.145 19.8509 0)
(211.931 20.8716 0)
(211.701 21.9207 0)
(211.455 22.9984 0)
(211.192 24.1058 0)
(210.913 25.2438 0)
(210.617 26.4133 0)
(210.306 27.6151 0)
(209.981 28.8496 0)
(209.645 30.1174 0)
(209.3 31.419 0)
(208.948 32.7555 0)
(208.589 34.1281 0)
(208.227 35.5387 0)
(207.86 36.9896 0)
(207.494 38.4822 0)
(207.129 40.0179 0)
(206.772 41.5956 0)
(206.425 43.2202 0)
(206.077 44.902 0)
(205.757 46.6249 0)
(205.454 48.4051 0)
(205.172 50.2398 0)
(204.93 52.1338 0)
(204.711 54.0855 0)
(204.554 56.1007 0)
(204.435 58.1772 0)
(204.386 60.3205 0)
(204.402 62.5315 0)
(204.499 64.8136 0)
(204.685 67.1688 0)
(204.97 69.5979 0)
(205.379 72.1027 0)
(205.903 74.6829 0)
(206.603 77.3403 0)
(207.425 80.0705 0)
(208.498 82.8734 0)
(209.69 85.7548 0)
(211.22 88.7046 0)
(212.874 91.7166 0)
(214.967 94.737 0)
(217.186 97.8244 0)
(219.969 100.919 0)
(222.876 104.103 0)
(226.441 107.143 0)
(230.139 110.191 0)
(234.496 113.014 0)
(239.112 115.806 0)
(244.26 118.389 0)
(249.937 120.843 0)
(256.063 122.973 0)
(262.924 124.879 0)
(269.722 126.305 0)
(277.817 127.521 0)
(285.144 128.175 0)
(293.642 128.516 0)
(302.064 128.267 0)
(310.15 127.564 0)
(318.921 126.574 0)
(328.095 124.945 0)
(335.886 123.283 0)
(344.583 120.417 0)
(349.933 117.627 0)
(354.079 114.799 0)
(359.901 113.437 0)
(372.75 112.201 0)
(376.523 120.914 0)
(210 -1.58266e-12 0)
(210 8.49087e-12 0)
(210 6.15305e-12 0)
(210 -9.45245e-12 0)
(210 -1.92787e-11 0)
(210 -1.98919e-11 0)
(210 -1.25615e-11 0)
(210 -1.83314e-11 0)
(210 -7.0772e-10 0)
(210 -5.8833e-08 0)
(210 -2.1237e-07 0)
(209.996 0.000426729 0)
(209.918 0.0161083 0)
(209.391 0.166078 0)
(208.103 0.609914 0)
(206.871 1.11572 0)
(206.237 1.38675 0)
(206.269 1.51425 0)
(206.825 1.40421 0)
(207.918 1.05617 0)
(208.911 0.768194 0)
(209.612 0.771442 0)
(210.026 0.924498 0)
(210.287 1.14 0)
(210.555 1.38064 0)
(210.912 1.62738 0)
(211.324 1.88212 0)
(211.727 2.15286 0)
(212.078 2.45523 0)
(212.391 2.79329 0)
(212.681 3.16965 0)
(212.957 3.57751 0)
(213.197 4.01483 0)
(213.409 4.47597 0)
(213.605 4.96432 0)
(213.813 5.48133 0)
(214.008 6.02966 0)
(214.132 6.60861 0)
(214.181 7.20588 0)
(214.118 7.80431 0)
(213.87 8.41844 0)
(213.503 9.04588 0)
(213.144 9.68786 0)
(212.886 10.3516 0)
(212.73 11.0441 0)
(212.634 11.768 0)
(212.557 12.52 0)
(212.473 13.2979 0)
(212.369 14.1018 0)
(212.24 14.9323 0)
(212.091 15.7897 0)
(211.924 16.6743 0)
(211.741 17.587 0)
(211.539 18.5286 0)
(211.317 19.4992 0)
(211.077 20.4981 0)
(210.819 21.5247 0)
(210.544 22.5793 0)
(210.251 23.6626 0)
(209.94 24.7757 0)
(209.611 25.9194 0)
(209.264 27.0946 0)
(208.902 28.3017 0)
(208.527 29.5412 0)
(208.14 30.8136 0)
(207.743 32.1201 0)
(207.337 33.4619 0)
(206.924 34.8411 0)
(206.504 36.2587 0)
(206.08 37.7168 0)
(205.654 39.2171 0)
(205.229 40.7622 0)
(204.804 42.3542 0)
(204.39 43.9911 0)
(203.985 45.6784 0)
(203.587 47.4231 0)
(203.207 49.2199 0)
(202.857 51.073 0)
(202.522 52.9866 0)
(202.239 54.9646 0)
(201.98 57.0065 0)
(201.783 59.1163 0)
(201.634 61.296 0)
(201.555 63.5494 0)
(201.548 65.8798 0)
(201.627 68.2891 0)
(201.81 70.7796 0)
(202.093 73.3508 0)
(202.53 76.0072 0)
(203.074 78.7452 0)
(203.841 81.5689 0)
(204.715 84.4703 0)
(205.896 87.4448 0)
(207.186 90.4859 0)
(208.875 93.5818 0)
(210.677 96.7629 0)
(212.984 99.9742 0)
(215.389 103.248 0)
(218.411 106.45 0)
(221.559 109.704 0)
(225.393 112.86 0)
(229.494 116.067 0)
(234.211 119.114 0)
(239.353 122.031 0)
(245.058 124.772 0)
(251.302 127.276 0)
(258.058 129.323 0)
(265.48 131.136 0)
(273.417 132.493 0)
(280.993 133.462 0)
(289.996 134.1 0)
(298.533 133.977 0)
(306.621 133.745 0)
(316.059 133.013 0)
(324.357 132.025 0)
(333.078 130.118 0)
(339.789 127.724 0)
(345.412 124.788 0)
(351.933 122.392 0)
(364.939 120.352 0)
(368.948 127.806 0)
(210 2.59989e-12 0)
(210 1.94789e-11 0)
(210 -5.95222e-12 0)
(210 -1.6003e-11 0)
(210 -2.24615e-11 0)
(210 -1.9781e-11 0)
(210 -6.64201e-12 0)
(210 2.61471e-12 0)
(210 -2.35106e-10 0)
(210 -2.28805e-08 0)
(210 -1.27143e-06 0)
(209.999 8.01722e-05 0)
(209.962 0.00594683 0)
(209.618 0.0906246 0)
(208.495 0.443754 0)
(207.099 0.975142 0)
(206.225 1.31726 0)
(206.158 1.4376 0)
(206.476 1.40071 0)
(207.467 1.13816 0)
(208.532 0.844101 0)
(209.301 0.805403 0)
(209.745 0.934362 0)
(209.985 1.13365 0)
(210.215 1.36994 0)
(210.532 1.61798 0)
(210.912 1.87007 0)
(211.297 2.12939 0)
(211.634 2.41611 0)
(211.932 2.73878 0)
(212.209 3.10179 0)
(212.476 3.49741 0)
(212.71 3.9231 0)
(212.907 4.37237 0)
(213.069 4.84809 0)
(213.233 5.3511 0)
(213.405 5.88722 0)
(213.555 6.45567 0)
(213.638 7.05561 0)
(213.65 7.65701 0)
(213.525 8.27269 0)
(213.217 8.89823 0)
(212.82 9.53532 0)
(212.461 10.1856 0)
(212.198 10.8594 0)
(212.023 11.5646 0)
(211.897 12.2999 0)
(211.784 13.0625 0)
(211.662 13.8508 0)
(211.517 14.665 0)
(211.347 15.5053 0)
(211.156 16.3716 0)
(210.947 17.2647 0)
(210.719 18.1857 0)
(210.471 19.1351 0)
(210.203 20.1125 0)
(209.916 21.1171 0)
(209.611 22.149 0)
(209.287 23.2089 0)
(208.943 24.2979 0)
(208.579 25.4168 0)
(208.196 26.5665 0)
(207.795 27.7475 0)
(207.379 28.9603 0)
(206.949 30.2054 0)
(206.506 31.4837 0)
(206.052 32.7963 0)
(205.588 34.145 0)
(205.114 35.5315 0)
(204.632 36.9576 0)
(204.144 38.4247 0)
(203.653 39.9347 0)
(203.161 41.4891 0)
(202.669 43.0916 0)
(202.181 44.7437 0)
(201.702 46.4455 0)
(201.236 48.1994 0)
(200.784 50.0116 0)
(200.338 51.8855 0)
(199.941 53.8147 0)
(199.553 55.8111 0)
(199.225 57.8733 0)
(198.929 60.006 0)
(198.694 62.2103 0)
(198.516 64.4911 0)
(198.411 66.8509 0)
(198.389 69.2933 0)
(198.452 71.8196 0)
(198.643 74.4361 0)
(198.923 77.1388 0)
(199.394 79.938 0)
(199.952 82.825 0)
(200.781 85.8102 0)
(201.701 88.8816 0)
(202.982 92.0462 0)
(204.362 95.3085 0)
(206.206 98.6323 0)
(208.15 102.02 0)
(210.681 105.403 0)
(213.326 108.87 0)
(216.63 112.305 0)
(220.143 115.791 0)
(224.285 119.162 0)
(228.819 122.458 0)
(233.865 125.572 0)
(239.462 128.552 0)
(245.698 131.329 0)
(252.242 133.622 0)
(259.951 135.987 0)
(267.577 137.453 0)
(276.017 138.8 0)
(285.245 139.661 0)
(293.911 139.773 0)
(302.632 139.794 0)
(312.597 139.168 0)
(320.682 138.156 0)
(327.372 136.404 0)
(333.08 134.068 0)
(339.35 132.638 0)
(353.445 130.67 0)
(357.224 139.666 0)
(210 3.40298e-12 0)
(210 -3.32136e-12 0)
(210 -1.20212e-11 0)
(210 -1.64107e-11 0)
(210 -1.66146e-11 0)
(210 -6.83594e-12 0)
(210 3.38906e-12 0)
(210 4.35444e-12 0)
(210 -7.64424e-11 0)
(210 -7.09059e-09 0)
(210 -5.47887e-07 0)
(210 6.47328e-07 0)
(209.985 0.0017254 0)
(209.785 0.0426114 0)
(208.891 0.293129 0)
(207.413 0.806668 0)
(206.28 1.20566 0)
(206.088 1.35054 0)
(206.182 1.39851 0)
(207.017 1.23947 0)
(208.132 0.930422 0)
(208.969 0.84104 0)
(209.45 0.941478 0)
(209.679 1.12005 0)
(209.875 1.34775 0)
(210.15 1.59552 0)
(210.493 1.84615 0)
(210.853 2.09711 0)
(211.175 2.37151 0)
(211.458 2.6832 0)
(211.719 3.03764 0)
(211.972 3.42609 0)
(212.2 3.84389 0)
(212.388 4.28461 0)
(212.532 4.74972 0)
(212.66 5.2392 0)
(212.789 5.76147 0)
(212.929 6.31626 0)
(213.037 6.90333 0)
(213.074 7.51875 0)
(213.053 8.12647 0)
(212.858 8.75062 0)
(212.495 9.38797 0)
(212.086 10.0295 0)
(211.724 10.6816 0)
(211.447 11.3609 0)
(211.247 12.0727 0)
(211.09 12.8149 0)
(210.942 13.5843 0)
(210.78 14.3792 0)
(210.594 15.1997 0)
(210.383 16.0456 0)
(210.15 16.9173 0)
(209.897 17.816 0)
(209.623 18.7424 0)
(209.328 19.6962 0)
(209.014 20.6768 0)
(208.68 21.684 0)
(208.326 22.7182 0)
(207.952 23.7805 0)
(207.556 24.8718 0)
(207.14 25.9928 0)
(206.705 27.1442 0)
(206.251 28.3266 0)
(205.781 29.5404 0)
(205.298 30.7864 0)
(204.8 32.0657 0)
(204.289 33.38 0)
(203.766 34.7308 0)
(203.231 36.1201 0)
(202.687 37.5493 0)
(202.135 39.0204 0)
(201.577 40.5351 0)
(201.016 42.0956 0)
(200.453 43.7039 0)
(199.892 45.3633 0)
(199.335 47.0761 0)
(198.786 48.8442 0)
(198.252 50.6661 0)
(197.74 52.5493 0)
(197.219 54.5076 0)
(196.762 56.5188 0)
(196.315 58.6066 0)
(195.927 60.7666 0)
(195.576 63.0062 0)
(195.286 65.3264 0)
(195.062 67.7317 0)
(194.908 70.2237 0)
(194.86 72.8095 0)
(194.889 75.4855 0)
(195.081 78.2646 0)
(195.347 81.1337 0)
(195.853 84.1094 0)
(196.434 87.1745 0)
(197.335 90.3497 0)
(198.316 93.6181 0)
(199.714 96.9693 0)
(201.196 100.403 0)
(203.216 103.913 0)
(205.329 107.541 0)
(208.075 111.195 0)
(211 114.907 0)
(214.572 118.549 0)
(218.504 122.188 0)
(223.009 125.743 0)
(228.034 129.159 0)
(233.539 132.456 0)
(239.759 135.608 0)
(246.44 138.35 0)
(254.12 140.916 0)
(261.651 142.725 0)
(270.516 144.565 0)
(279.752 145.632 0)
(288.872 145.996 0)
(298.968 146.246 0)
(310.157 145.222 0)
(318.027 143.361 0)
(325.317 140.387 0)
(332.063 139.165 0)
(346.558 138.457 0)
(349.654 149.762 0)
(210 1.96596e-12 0)
(210 -1.17578e-11 0)
(210 -1.184e-11 0)
(210 -1.17044e-11 0)
(210 -6.80515e-12 0)
(210 6.42866e-12 0)
(210 4.67603e-12 0)
(210 -5.45574e-12 0)
(210 -2.54284e-11 0)
(210 -1.87099e-09 0)
(210 -1.79401e-07 0)
(210 -7.10801e-06 0)
(209.995 0.00033209 0)
(209.893 0.0166825 0)
(209.251 0.172336 0)
(207.814 0.620937 0)
(206.436 1.06178 0)
(206.042 1.28037 0)
(205.957 1.38583 0)
(206.579 1.30613 0)
(207.696 0.995139 0)
(208.609 0.86596 0)
(209.141 0.93269 0)
(209.372 1.08879 0)
(209.542 1.30604 0)
(209.775 1.55128 0)
(210.075 1.79774 0)
(210.405 2.03804 0)
(210.714 2.29826 0)
(210.985 2.59888 0)
(211.232 2.94637 0)
(211.47 3.33043 0)
(211.689 3.74294 0)
(211.871 4.17744 0)
(212.007 4.63424 0)
(212.111 5.11312 0)
(212.201 5.62172 0)
(212.307 6.16071 0)
(212.404 6.73454 0)
(212.465 7.33701 0)
(212.478 7.95782 0)
(212.4 8.5765 0)
(212.138 9.21083 0)
(211.74 9.85136 0)
(211.313 10.4932 0)
(210.934 11.1512 0)
(210.637 11.8371 0)
(210.409 12.5549 0)
(210.217 13.3033 0)
(210.029 14.0794 0)
(209.824 14.881 0)
(209.595 15.7073 0)
(209.34 16.5582 0)
(209.063 17.4346 0)
(208.762 18.3377 0)
(208.44 19.2677 0)
(208.098 20.2239 0)
(207.735 21.2062 0)
(207.351 22.2149 0)
(206.946 23.2508 0)
(206.518 24.3149 0)
(206.068 25.4079 0)
(205.597 26.5306 0)
(205.105 27.6836 0)
(204.595 28.8673 0)
(204.068 30.0823 0)
(203.526 31.3297 0)
(202.968 32.6109 0)
(202.394 33.9275 0)
(201.807 35.2814 0)
(201.206 36.6739 0)
(200.594 38.107 0)
(199.972 39.5822 0)
(199.343 41.102 0)
(198.708 42.6681 0)
(198.07 44.2831 0)
(197.43 45.949 0)
(196.793 47.669 0)
(196.161 49.4461 0)
(195.537 51.2834 0)
(194.929 53.1752 0)
(194.351 55.1343 0)
(193.759 57.175 0)
(193.237 59.2703 0)
(192.731 61.4479 0)
(192.283 63.7054 0)
(191.878 66.0482 0)
(191.534 68.4779 0)
(191.27 71.0025 0)
(191.068 73.6197 0)
(190.998 76.3446 0)
(190.985 79.1653 0)
(191.176 82.1073 0)
(191.421 85.1491 0)
(191.947 88.3202 0)
(192.536 91.5908 0)
(193.501 94.9801 0)
(194.536 98.4765 0)
(196.06 102.092 0)
(197.659 105.816 0)
(199.849 109.593 0)
(202.176 113.438 0)
(205.144 117.288 0)
(208.408 121.197 0)
(212.252 125.121 0)
(216.641 129.026 0)
(221.537 132.856 0)
(227.058 136.477 0)
(233.158 140.051 0)
(239.915 143.281 0)
(247.44 146.011 0)
(255.262 148.359 0)
(264.227 150.583 0)
(273.256 151.833 0)
(281.783 152.897 0)
(293.187 153.732 0)
(301.832 153.415 0)
(310.042 151.513 0)
(317.672 150.039 0)
(332.491 148.799 0)
(335.8 158.593 0)
(210 -3.13881e-12 0)
(210 -7.59556e-12 0)
(210 -1.52814e-11 0)
(210 -8.77207e-12 0)
(210 -2.63784e-12 0)
(210 -2.26719e-14 0)
(210 -1.00945e-11 0)
(210 -1.19941e-11 0)
(210 -5.87948e-13 0)
(210 -4.37591e-10 0)
(210 -4.89528e-08 0)
(210 -3.45115e-06 0)
(209.998 2.40777e-06 0)
(209.953 0.00510252 0)
(209.543 0.0875151 0)
(208.273 0.437768 0)
(206.701 0.9 0)
(206.012 1.2207 0)
(205.799 1.31268 0)
(206.18 1.32082 0)
(207.244 1.06018 0)
(208.234 0.909894 0)
(208.817 0.919586 0)
(209.063 1.0464 0)
(209.215 1.24962 0)
(209.409 1.49194 0)
(209.658 1.74022 0)
(209.952 1.98157 0)
(210.246 2.23774 0)
(210.509 2.53372 0)
(210.743 2.87743 0)
(210.965 3.25806 0)
(211.173 3.66428 0)
(211.346 4.09068 0)
(211.478 4.53665 0)
(211.566 5.004 0)
(211.631 5.49749 0)
(211.698 6.01875 0)
(211.76 6.57429 0)
(211.817 7.16217 0)
(211.839 7.7772 0)
(211.819 8.39599 0)
(211.674 9.02992 0)
(211.351 9.67012 0)
(210.923 10.3045 0)
(210.479 10.9439 0)
(210.084 11.6026 0)
(209.764 12.291 0)
(209.505 13.0121 0)
(209.277 13.7638 0)
(209.048 14.5429 0)
(208.801 15.3471 0)
(208.529 16.1756 0)
(208.231 17.0284 0)
(207.906 17.9068 0)
(207.559 18.8113 0)
(207.189 19.7416 0)
(206.798 20.6972 0)
(206.387 21.6784 0)
(205.953 22.686 0)
(205.495 23.7206 0)
(205.014 24.7833 0)
(204.51 25.8747 0)
(203.984 26.9954 0)
(203.437 28.1459 0)
(202.871 29.3267 0)
(202.288 30.5386 0)
(201.687 31.7831 0)
(201.069 33.0616 0)
(200.434 34.376 0)
(199.782 35.7276 0)
(199.116 37.1185 0)
(198.436 38.5501 0)
(197.745 40.0247 0)
(197.043 41.5442 0)
(196.333 43.1113 0)
(195.616 44.728 0)
(194.895 46.397 0)
(194.172 48.1206 0)
(193.451 49.9024 0)
(192.736 51.7459 0)
(192.027 53.6548 0)
(191.336 55.6243 0)
(190.674 57.6677 0)
(190.003 59.7963 0)
(189.396 61.9934 0)
(188.81 64.2778 0)
(188.277 66.6514 0)
(187.802 69.1213 0)
(187.379 71.6855 0)
(187.061 74.3581 0)
(186.789 77.1274 0)
(186.689 80.0214 0)
(186.628 83.0136 0)
(186.813 86.1428 0)
(187.042 89.3737 0)
(187.6 92.7482 0)
(188.205 96.2391 0)
(189.243 99.8756 0)
(190.333 103.62 0)
(191.974 107.47 0)
(193.716 111.429 0)
(196.08 115.488 0)
(198.683 119.667 0)
(201.892 123.897 0)
(205.572 128.15 0)
(209.78 132.41 0)
(214.677 136.561 0)
(220.087 140.601 0)
(226.224 144.515 0)
(233.082 148.254 0)
(240.646 151.328 0)
(249.129 154.334 0)
(258.444 156.817 0)
(267.75 158.496 0)
(277.816 159.987 0)
(287.463 160.748 0)
(295.383 159.75 0)
(302.151 159.329 0)
(317.643 158.698 0)
(320.061 170.482 0)
(210 -3.35991e-12 0)
(210 -8.90468e-12 0)
(210 -8.60739e-12 0)
(210 -6.10898e-12 0)
(210 7.65246e-12 0)
(210 5.24248e-12 0)
(210 -5.39812e-12 0)