/*--------------------------------*- C++ -*----------------------------------*\
| =========                 |                                                 |
| \\      /  F ield         | OpenFOAM: The Open Source CFD Toolbox           |
|  \\    /   O peration     | Version:  2412                                  |
|   \\  /    A nd           | Website:  www.openfoam.com                      |
|    \\/     M anipulation  |                                                 |
\*---------------------------------------------------------------------------*/
FoamFile
{
    version     2.0;
    format      ascii;
    arch        "LSB;label=32;scalar=64";
    class       volScalarField;
    location    "0.116";
    object      p;
}
// * * * * * * * * * * * * * * * * * * * * * * * * * * * * * * * * * * * * * //

dimensions      [1 -1 -2 0 0 0 0];

internalField   nonuniform List<scalar> 
9763
(
2865.77
2934.1
2865.45
2932.69
2865.25
2930.2
2864.88
2928.62
2864.61
2926.56
2864.2
2924.63
2863.85
2922.55
2863.41
2920.48
2863.04
2918.32
2862.6
2916.09
2862.16
2913.76
2861.67
2911.39
2861.18
2908.93
2860.66
2906.4
2860.1
2903.77
2859.53
2901.07
2858.91
2898.3
2858.28
2895.44
2857.59
2892.51
2856.88
2889.5
2856.12
2886.43
2855.32
2883.27
2854.45
2880.05
2853.55
2876.76
2852.58
2873.4
2851.56
2869.96
2850.5
2866.44
2849.38
2862.84
2848.23
2859.13
2847.03
2855.31
2845.78
2851.41
2844.46
2847.4
2843.04
2843.36
2841.54
2839.21
2839.93
2835.04
2838.22
2830.78
2836.39
2826.5
2834.45
2822.2
2832.36
2817.8
2830.13
2813.41
2808.9
2804.41
2799.84
4275.68
2810.83
2824.88
2829.04
2817.24
2810.79
2803.52
2797.83
2792.1
2786.94
2782.14
2777.68
2773.35
2769.07
2764.81
2760.62
2756.49
2752.44
2748.43
2744.44
2740.41
2736.27
2731.99
2727.54
2722.94
2718.22
2713.41
2708.52
2703.58
2698.62
2693.68
2688.81
2684.06
2679.49
2675.14
2671.05
2667.29
2663.88
2660.88
2658.3
2656.18
2654.53
2653.38
2652.68
2652.37
2652.52
2653.13
2654.16
2655.56
2657.29
2659.35
2661.73
2664.4
2667.34
2670.56
2674.04
2677.76
2681.68
2685.39
2689.57
2693.38
2697.63
2701.86
2706.31
2710.9
2715.48
2720.21
2724.95
2729.79
2734.66
2739.6
2744.6
2749.63
2754.62
2759.6
2764.6
2769.6
2774.65
2779.64
2784.7
2789.65
2794.65
2799.49
2804.34
2808.98
2813.61
2818.15
2822.53
2826.88
2831.18
2835.32
2839.39
2843.37
2847.3
2851.09
2854.75
2858.23
2861.53
2864.64
2867.59
2870.36
2872.95
2875.39
2877.6
2879.68
2881.46
2883.11
2884.49
2885.69
2886.63
2887.29
2887.77
2887.9
2887.75
2887.23
2886.32
2885.01
2883.22
2881.08
2880.63
2872.99
4275.59
2810.53
2824.5
2828.75
2817
2810.56
2803.34
2797.67
2791.96
2786.8
2782
2777.53
2773.2
2768.93
2764.68
2760.5
2756.38
2752.33
2748.33
2744.34
2740.3
2736.15
2731.85
2727.38
2722.75
2717.99
2713.13
2708.19
2703.19
2698.16
2693.14
2688.18
2683.34
2678.66
2674.19
2669.99
2666.09
2662.55
2659.4
2656.68
2654.42
2652.63
2651.33
2650.49
2650.08
2650.1
2650.55
2651.47
2652.75
2654.37
2656.33
2658.6
2661.16
2664
2667.09
2670.49
2674.1
2677.99
2681.61
2685.7
2689.46
2693.67
2697.84
2702.21
2706.72
2711.19
2715.81
2720.46
2725.24
2730.08
2734.97
2739.92
2744.87
2749.76
2754.61
2759.45
2764.28
2769.16
2774.03
2778.96
2783.82
2788.74
2793.51
2798.3
2802.91
2807.52
2812.05
2816.38
2820.64
2824.72
2828.62
2832.38
2836.01
2839.54
2842.93
2846.21
2849.34
2852.31
2855.13
2857.78
2860.27
2862.6
2864.78
2866.8
2868.73
2870.43
2872.1
2873.52
2874.9
2876.12
2877.12
2878.1
2878.9
2879.64
2880.25
2880.76
2881.14
2881.42
2881.63
2881.88
2881.93
4274.89
2810.21
2824.23
2828.47
2816.81
2810.39
2803.22
2797.55
2791.84
2786.67
2781.86
2777.39
2773.06
2768.8
2764.56
2760.39
2756.27
2752.23
2748.23
2744.24
2740.19
2736.03
2731.72
2727.22
2722.56
2717.77
2712.86
2707.86
2702.8
2697.69
2692.59
2687.54
2682.6
2677.81
2673.22
2668.88
2664.85
2661.17
2657.87
2655
2652.59
2650.65
2649.19
2648.2
2647.67
2647.55
2647.84
2648.63
2649.8
2651.3
2653.14
2655.3
2657.76
2660.49
2663.48
2666.73
2670.19
2673.97
2677.47
2681.41
2685.04
2689.16
2693.2
2697.43
2701.77
2706.07
2710.53
2715.03
2719.67
2724.35
2729.08
2733.87
2738.67
2743.41
2748.1
2752.73
2757.33
2761.94
2766.53
2771.18
2775.74
2780.33
2784.77
2789.22
2793.49
2797.77
2801.99
2806.03
2810.03
2813.88
2817.56
2821.09
2824.44
2827.68
2830.75
2833.69
2836.5
2839.14
2841.65
2844.01
2846.21
2848.27
2850.19
2851.97
2853.64
2855.14
2856.59
2857.81
2859.02
2860.07
2860.94
2861.8
2862.52
2863.19
2863.77
2864.3
2864.77
2865.22
2865.63
2866.05
2866.7
4274.77
2809.88
2823.95
2828.21
2816.61
2810.21
2803.09
2797.42
2791.72
2786.54
2781.73
2777.26
2772.93
2768.67
2764.44
2760.27
2756.17
2752.14
2748.14
2744.14
2740.09
2735.92
2731.59
2727.07
2722.39
2717.55
2712.6
2707.55
2702.43
2697.25
2692.07
2686.93
2681.89
2676.99
2672.29
2667.83
2663.67
2659.84
2656.4
2653.38
2650.82
2648.73
2647.13
2645.99
2645.33
2645.07
2645.23
2645.87
2646.93
2648.32
2650.04
2652.09
2654.43
2657.05
2659.92
2663.06
2666.4
2670.04
2673.43
2677.25
2680.78
2684.8
2688.7
2692.78
2696.98
2701.11
2705.41
2709.75
2714.21
2718.68
2723.17
2727.7
2732.25
2736.76
2741.25
2745.69
2750.08
2754.47
2758.8
2763.16
2767.42
2771.68
2775.79
2779.89
2783.81
2787.71
2791.5
2795.1
2798.63
2801.99
2805.21
2808.29
2811.23
2814.06
2816.74
2819.3
2821.73
2824.03
2826.2
2828.25
2830.16
2831.97
2833.65
2835.25
2836.74
2838.14
2839.47
2840.66
2841.86
2842.93
2843.85
2844.79
2845.62
2846.41
2847.12
2847.8
2848.42
2849.01
2849.55
2850.11
2850.81
4274.79
2809.58
2823.66
2827.95
2816.41
2810.05
2802.97
2797.3
2791.6
2786.41
2781.6
2777.12
2772.8
2768.54
2764.32
2760.17
2756.07
2752.04
2748.05
2744.05
2739.99
2735.81
2731.47
2726.93
2722.22
2717.35
2712.35
2707.25
2702.07
2696.83
2691.57
2686.35
2681.21
2676.21
2671.4
2666.81
2662.52
2658.56
2654.97
2651.81
2649.1
2646.86
2645.11
2643.83
2643.03
2642.65
2642.68
2643.16
2644.1
2645.38
2646.99
2648.93
2651.17
2653.67
2656.44
2659.45
2662.66
2666.16
2669.43
2673.12
2676.54
2680.45
2684.21
2688.15
2692.18
2696.18
2700.32
2704.52
2708.82
2713.12
2717.42
2721.76
2726.12
2730.44
2734.74
2738.97
2743.15
2747.29
2751.37
2755.43
2759.36
2763.25
2766.98
2770.67
2774.22
2777.77
2781.24
2784.58
2787.88
2791.01
2793.98
2796.8
2799.44
2801.94
2804.28
2806.49
2808.55
2810.48
2812.29
2813.97
2815.52
2816.98
2818.32
2819.58
2820.75
2821.86
2822.88
2823.88
2824.8
2825.63
2826.47
2827.21
2827.97
2828.66
2829.33
2829.97
2830.58
2831.16
2831.7
2832.24
2832.94
4274.86
2809.28
2823.38
2827.7
2816.22
2809.88
2802.85
2797.18
2791.48
2786.29
2781.48
2777
2772.67
2768.42
2764.2
2760.06
2755.97
2751.95
2747.96
2743.96
2739.9
2735.71
2731.35
2726.79
2722.05
2717.15
2712.11
2706.96
2701.72
2696.41
2691.08
2685.78
2680.55
2675.44
2670.52
2665.81
2661.39
2657.29
2653.57
2650.26
2647.4
2645.02
2643.12
2641.7
2640.76
2640.27
2640.16
2640.49
2641.31
2642.49
2643.99
2645.81
2647.94
2650.34
2652.99
2655.89
2658.97
2662.34
2665.51
2669.08
2672.39
2676.2
2679.82
2683.6
2687.49
2691.34
2695.34
2699.37
2703.5
2707.61
2711.73
2715.88
2720.04
2724.18
2728.28
2732.32
2736.31
2740.25
2744.12
2747.95
2751.64
2755.27
2758.73
2762.13
2765.37
2768.59
2771.71
2774.71
2777.69
2780.5
2783.18
2785.73
2788.11
2790.37
2792.46
2794.43
2796.24
2797.93
2799.49
2800.92
2802.24
2803.47
2804.58
2805.61
2806.58
2807.45
2808.31
2809.09
2809.81
2810.44
2811.09
2811.65
2812.22
2812.74
2813.24
2813.72
2814.19
2814.66
2815.06
2815.39
2815.24
4274.87
2808.96
2823.08
2827.43
2816.03
2809.71
2802.73
2797.06
2791.36
2786.17
2781.35
2776.87
2772.55
2768.3
2764.09
2759.95
2755.88
2751.86
2747.87
2743.87
2739.8
2735.6
2731.23
2726.66
2721.89
2716.95
2711.87
2706.67
2701.37
2696
2690.6
2685.2
2679.88
2674.68
2669.64
2664.81
2660.26
2656.02
2652.16
2648.7
2645.69
2643.16
2641.11
2639.55
2638.46
2637.83
2637.6
2637.79
2638.47
2639.54
2640.93
2642.64
2644.65
2646.94
2649.48
2652.25
2655.2
2658.43
2661.48
2664.91
2668.12
2671.82
2675.29
2678.93
2682.68
2686.4
2690.25
2694.13
2698.07
2701.98
2705.88
2709.82
2713.79
2717.75
2721.68
2725.56
2729.39
2733.18
2736.87
2740.48
2743.92
2747.27
2750.46
2753.6
2756.61
2759.62
2762.53
2765.36
2768.18
2770.84
2773.37
2775.76
2778
2780.1
2782.05
2783.86
2785.53
2787.06
2788.48
2789.77
2790.94
2792.03
2793.01
2793.92
2794.77
2795.52
2796.3
2796.96
2797.57
2798.15
2798.69
2799.2
2799.69
2800.15
2800.6
2801.02
2801.44
2801.86
2802.29
2802.84
2803.39
4274.87
2808.62
2822.78
2827.17
2815.82
2809.54
2802.6
2796.93
2791.24
2786.04
2781.22
2776.73
2772.42
2768.17
2763.97
2759.85
2755.78
2751.77
2747.78
2743.78
2739.7
2735.5
2731.11
2726.52
2721.72
2716.75
2711.63
2706.38
2701.03
2695.59
2690.11
2684.63
2679.21
2673.9
2668.75
2663.8
2659.11
2654.74
2650.73
2647.12
2643.96
2641.27
2639.07
2637.36
2636.12
2635.35
2635
2635.06
2635.59
2636.54
2637.81
2639.41
2641.3
2643.47
2645.89
2648.53
2651.36
2654.45
2657.39
2660.69
2663.78
2667.38
2670.71
2674.21
2677.82
2681.38
2685.05
2688.73
2692.45
2696.13
2699.81
2703.54
2707.31
2711.06
2714.8
2718.48
2722.14
2725.75
2729.29
2732.73
2735.99
2739.13
2742.09
2744.99
2747.74
2750.49
2753.13
2755.69
2758.27
2760.7
2763.02
2765.24
2767.33
2769.31
2771.15
2772.86
2774.45
2775.9
2777.24
2778.46
2779.58
2780.61
2781.54
2782.4
2783.18
2783.89
2784.59
2785.21
2785.76
2786.28
2786.77
2787.21
2787.62
2788
2788.35
2788.68
2788.97
2789.24
2789.55
2789.97
2791.1
4274.86
2808.27
2822.47
2826.89
2815.62
2809.37
2802.47
2796.81
2791.12
2785.92
2781.09
2776.6
2772.28
2768.05
2763.85
2759.74
2755.68
2751.67
2747.69
2743.69
2739.61
2735.39
2730.99
2726.38
2721.56
2716.55
2711.39
2706.09
2700.67
2695.17
2689.61
2684.05
2678.53
2673.12
2667.85
2662.77
2657.95
2653.43
2649.27
2645.51
2642.19
2639.35
2636.99
2635.11
2633.72
2632.8
2632.33
2632.26
2632.61
2633.44
2634.6
2636.07
2637.85
2639.9
2642.19
2644.7
2647.38
2650.33
2653.14
2656.3
2659.26
2662.74
2665.93
2669.28
2672.73
2676.13
2679.63
2683.11
2686.63
2690.1
2693.57
2697.1
2700.66
2704.2
2707.71
2711.18
2714.61
2718
2721.32
2724.55
2727.6
2730.52
2733.26
2735.93
2738.47
2741.02
2743.45
2745.83
2748.22
2750.45
2752.57
2754.59
2756.48
2758.27
2759.93
2761.47
2762.88
2764.17
2765.34
2766.4
2767.35
2768.2
2768.96
2769.65
2770.24
2770.8
2771.29
2771.7
2772.09
2772.4
2772.7
2772.93
2773.15
2773.31
2773.45
2773.56
2773.63
2773.69
2773.78
2774
2773.63
4274.88
2807.91
2822.15
2826.62
2815.41
2809.19
2802.34
2796.68
2791
2785.79
2780.96
2776.47
2772.15
2767.92
2763.73
2759.63
2755.57
2751.58
2747.6
2743.59
2739.51
2735.28
2730.87
2726.24
2721.39
2716.35
2711.14
2705.79
2700.32
2694.75
2689.11
2683.46
2677.85
2672.32
2666.94
2661.73
2656.77
2652.11
2647.8
2643.88
2640.4
2637.39
2634.87
2632.84
2631.29
2630.22
2629.61
2629.4
2629.61
2630.29
2631.33
2632.68
2634.33
2636.25
2638.42
2640.8
2643.35
2646.16
2648.84
2651.85
2654.67
2658.02
2661.06
2664.27
2667.57
2670.8
2674.11
2677.4
2680.72
2683.98
2687.22
2690.48
2693.76
2697.02
2700.28
2703.51
2706.73
2709.92
2713.04
2716.07
2718.93
2721.63
2724.16
2726.61
2728.92
2731.21
2733.39
2735.51
2737.65
2739.63
2741.51
2743.31
2745
2746.6
2748.09
2749.47
2750.73
2751.87
2752.92
2753.84
2754.67
2755.41
2756.05
2756.62
2757.11
2757.54
2757.93
2758.24
2758.52
2758.73
2758.92
2759.04
2759.16
2759.22
2759.27
2759.27
2759.27
2759.24
2759.21
2759.2
2758.91
4274.93
2807.53
2821.83
2826.34
2815.2
2809.02
2802.2
2796.56
2790.87
2785.66
2780.82
2776.33
2772.02
2767.79
2763.61
2759.51
2755.47
2751.48
2747.5
2743.5
2739.41
2735.18
2730.75
2726.1
2721.22
2716.15
2710.9
2705.5
2699.97
2694.33
2688.61
2682.87
2677.16
2671.53
2666.02
2660.68
2655.58
2650.77
2646.3
2642.22
2638.58
2635.4
2632.71
2630.52
2628.8
2627.57
2626.82
2626.48
2626.54
2627.06
2627.97
2629.19
2630.71
2632.51
2634.55
2636.79
2639.2
2641.85
2644.4
2647.26
2649.93
2653.14
2656.02
2659.08
2662.21
2665.26
2668.37
2671.46
2674.58
2677.65
2680.68
2683.73
2686.78
2689.78
2692.78
2695.74
2698.7
2701.63
2704.53
2707.34
2709.98
2712.48
2714.81
2717.05
2719.17
2721.27
2723.27
2725.21
2727.15
2728.94
2730.63
2732.24
2733.74
2735.16
2736.47
2737.68
2738.79
2739.8
2740.71
2741.52
2742.24
2742.88
2743.43
2743.92
2744.34
2744.7
2745.03
2745.29
2745.52
2745.68
2745.83
2745.93
2746.01
2746.05
2746.07
2746.07
2746.05
2746.01
2745.95
2745.85
2745.68
4275
2807.15
2821.5
2826.05
2814.99
2808.84
2802.07
2796.43
2790.75
2785.53
2780.69
2776.19
2771.88
2767.66
2763.49
2759.4
2755.37
2751.38
2747.41
2743.4
2739.31
2735.07
2730.63
2725.96
2721.06
2715.95
2710.66
2705.21
2699.61
2693.9
2688.11
2682.28
2676.47
2670.73
2665.1
2659.63
2654.39
2649.43
2644.8
2640.56
2636.75
2633.4
2630.54
2628.18
2626.3
2624.91
2623.99
2623.53
2623.46
2623.79
2624.57
2625.67
2627.06
2628.72
2630.63
2632.73
2635
2637.51
2639.92
2642.63
2645.15
2648.2
2650.91
2653.8
2656.73
2659.59
2662.49
2665.4
2668.34
2671.22
2674.05
2676.86
2679.65
2682.41
2685.16
2687.89
2690.6
2693.29
2695.94
2698.52
2700.96
2703.26
2705.4
2707.42
2709.34
2711.21
2713
2714.73
2716.47
2718.05
2719.56
2721
2722.35
2723.63
2724.82
2725.93
2726.94
2727.87
2728.72
2729.48
2730.16
2730.77
2731.3
2731.77
2732.18
2732.55
2732.89
2733.16
2733.41
2733.6
2733.77
2733.89
2734.01
2734.09
2734.16
2734.2
2734.23
2734.24
2734.24
2734.21
2734.12
4275.11
2806.75
2821.17
2825.76
2814.78
2808.66
2801.93
2796.3
2790.62
2785.4
2780.55
2776.05
2771.74
2767.53
2763.37
2759.29
2755.26
2751.28
2747.31
2743.31
2739.21
2734.96
2730.51
2725.82
2720.89
2715.75
2710.42
2704.91
2699.26
2693.48
2687.61
2681.69
2675.78
2669.93
2664.18
2658.58
2653.19
2648.08
2643.29
2638.88
2634.9
2631.38
2628.35
2625.81
2623.76
2622.2
2621.13
2620.53
2620.31
2620.49
2621.12
2622.09
2623.34
2624.87
2626.64
2628.61
2630.73
2633.09
2635.37
2637.92
2640.28
2643.18
2645.7
2648.4
2651.16
2653.83
2656.54
2659.25
2662.02
2664.71
2667.34
2669.92
2672.45
2674.93
2677.42
2679.88
2682.35
2684.81
2687.25
2689.61
2691.86
2693.96
2695.93
2697.78
2699.54
2701.24
2702.88
2704.46
2706.03
2707.45
2708.79
2710.08
2711.29
2712.44
2713.49
2714.5
2715.41
2716.26
2717.04
2717.75
2718.38
2718.97
2719.47
2719.94
2720.34
2720.72
2721.07
2721.37
2721.63
2721.86
2722.06
2722.23
2722.38
2722.51
2722.63
2722.72
2722.81
2722.87
2722.93
2722.98
2722.99
4275.26
2806.34
2820.83
2825.47
2814.56
2808.47
2801.79
2796.17
2790.49
2785.27
2780.42
2775.91
2771.61
2767.4
2763.24
2759.17
2755.16
2751.19
2747.22
2743.21
2739.11
2734.85
2730.39
2725.68
2720.73
2715.55
2710.18
2704.62
2698.91
2693.07
2687.11
2681.11
2675.1
2669.13
2663.26
2657.53
2652
2646.73
2641.78
2637.21
2633.05
2629.36
2626.15
2623.43
2621.22
2619.49
2618.25
2617.5
2617.15
2617.19
2617.63
2618.47
2619.59
2620.98
2622.62
2624.45
2626.45
2628.66
2630.81
2633.21
2635.43
2638.16
2640.51
2643.02
2645.6
2648.07
2650.59
2653.09
2655.64
2658.08
2660.46
2662.8
2665.12
2667.4
2669.65
2671.87
2674.07
2676.26
2678.46
2680.61
2682.67
2684.61
2686.43
2688.11
2689.7
2691.19
2692.67
2694.08
2695.47
2696.74
2697.95
2699.11
2700.2
2701.24
2702.2
2703.12
2703.97
2704.77
2705.51
2706.2
2706.82
2707.41
2707.93
2708.42
2708.85
2709.26
2709.65
2709.98
2710.3
2710.58
2710.84
2711.07
2711.28
2711.48
2711.66
2711.82
2711.98
2712.11
2712.25
2712.37
2712.5
4275.45
2805.92
2820.49
2825.17
2814.34
2808.29
2801.65
2796.03
2790.36
2785.13
2780.28
2775.77
2771.47
2767.27
2763.12
2759.06
2755.05
2751.09
2747.13
2743.12
2739.01
2734.75
2730.27
2725.54
2720.56
2715.35
2709.94
2704.34
2698.57
2692.65
2686.62
2680.52
2674.41
2668.34
2662.34
2656.48
2650.8
2645.38
2640.27
2635.53
2631.19
2627.32
2623.93
2621.04
2618.65
2616.75
2615.35
2614.42
2613.95
2613.84
2614.11
2614.81
2615.8
2617.05
2618.55
2620.25
2622.1
2624.16
2626.17
2628.42
2630.48
2633.05
2635.22
2637.54
2639.93
2642.2
2644.51
2646.8
2649.14
2651.38
2653.57
2655.71
2657.82
2659.87
2661.89
2663.85
2665.81
2667.75
2669.69
2671.6
2673.44
2675.19
2676.85
2678.38
2679.84
2681.18
2682.54
2683.81
2685.05
2686.18
2687.27
2688.31
2689.29
2690.22
2691.09
2691.93
2692.7
2693.45
2694.14
2694.79
2695.4
2695.97
2696.49
2696.99
2697.42
2697.86
2698.26
2698.61
2698.95
2699.26
2699.56
2699.83
2700.09
2700.33
2700.56
2700.77
2700.98
2701.17
2701.36
2701.54
2701.76
4275.68
2805.48
2820.14
2824.87
2814.11
2808.11
2801.51
2795.9
2790.23
2785
2780.14
2775.64
2771.33
2767.13
2762.99
2758.94
2754.94
2750.99
2747.03
2743.03
2738.92
2734.64
2730.15
2725.4
2720.4
2715.16
2709.7
2704.05
2698.23
2692.24
2686.13
2679.95
2673.74
2667.55
2661.43
2655.43
2649.61
2644.04
2638.77
2633.85
2629.34
2625.29
2621.71
2618.64
2616.07
2614
2612.43
2611.35
2610.73
2610.48
2610.6
2611.13
2611.98
2613.1
2614.47
2616.02
2617.74
2619.66
2621.53
2623.62
2625.52
2627.93
2629.91
2632.04
2634.23
2636.3
2638.41
2640.49
2642.62
2644.65
2646.64
2648.6
2650.52
2652.36
2654.13
2655.82
2657.49
2659.16
2660.86
2662.55
2664.21
2665.78
2667.27
2668.64
2669.95
2671.13
2672.36
2673.47
2674.54
2675.52
2676.5
2677.41
2678.28
2679.12
2679.91
2680.68
2681.4
2682.11
2682.76
2683.39
2683.98
2684.56
2685.08
2685.6
2686.06
2686.52
2686.95
2687.33
2687.71
2688.05
2688.39
2688.7
2689
2689.28
2689.56
2689.81
2690.07
2690.31
2690.55
2690.78
2691.07
4275.95
2805.03
2819.78
2824.56
2813.89
2807.92
2801.37
2795.77
2790.1
2784.87
2780.01
2775.5
2771.19
2767
2762.87
2758.83
2754.84
2750.89
2746.94
2742.93
2738.82
2734.53
2730.03
2725.27
2720.24
2714.97
2709.47
2703.77
2697.89
2691.83
2685.65
2679.37
2673.06
2666.76
2660.52
2654.39
2648.43
2642.7
2637.26
2632.17
2627.48
2623.24
2619.49
2616.24
2613.48
2611.24
2609.49
2608.24
2607.46
2607.09
2607.06
2607.4
2608.13
2609.11
2610.34
2611.75
2613.33
2615.1
2616.83
2618.76
2620.51
2622.77
2624.58
2626.53
2628.51
2630.38
2632.27
2634.15
2636.09
2637.93
2639.71
2641.46
2643.17
2644.78
2646.35
2647.82
2649.23
2650.64
2652.07
2653.51
2654.95
2656.35
2657.68
2658.92
2660.11
2661.17
2662.27
2663.23
2664.16
2665.03
2665.85
2666.65
2667.4
2668.13
2668.81
2669.5
2670.14
2670.79
2671.39
2671.98
2672.53
2673.08
2673.6
2674.1
2674.56
2675.01
2675.46
2675.85
2676.24
2676.61
2676.96
2677.29
2677.61
2677.91
2678.21
2678.49
2678.76
2679.02
2679.28
2679.54
2679.86
4276.26
2804.57
2819.42
2824.25
2813.66
2807.74
2801.22
2795.64
2789.97
2784.73
2779.87
2775.36
2771.05
2766.87
2762.74
2758.71
2754.73
2750.79
2746.84
2742.84
2738.72
2734.43
2729.91
2725.13
2720.08
2714.78
2709.24
2703.5
2697.55
2691.43
2685.17
2678.81
2672.4
2665.99
2659.62
2653.36
2647.25
2641.36
2635.76
2630.5
2625.63
2621.21
2617.27
2613.83
2610.89
2608.47
2606.55
2605.13
2604.18
2603.67
2603.5
2603.68
2604.25
2605.1
2606.19
2607.47
2608.91
2610.54
2612.13
2613.91
2615.51
2617.64
2619.29
2621.06
2622.83
2624.46
2626.12
2627.77
2629.47
2631.12
2632.73
2634.35
2635.9
2637.32
2638.66
2639.87
2641.01
2642.15
2643.3
2644.5
2645.71
2646.9
2648.05
2649.14
2650.17
2651.1
2652.08
2652.92
2653.71
2654.44
2655.14
2655.8
2656.42
2657.04
2657.62
2658.22
2658.79
2659.37
2659.92
2660.47
2660.99
2661.51
2662.01
2662.51
2662.96
2663.42
2663.88
2664.29
2664.69
2665.08
2665.45
2665.8
2666.14
2666.47
2666.78
2667.08
2667.37
2667.65
2667.93
2668.21
2668.55
4276.61
2804.09
2819.05
2823.94
2813.42
2807.55
2801.08
2795.5
2789.84
2784.6
2779.73
2775.22
2770.91
2766.73
2762.62
2758.6
2754.63
2750.69
2746.75
2742.75
2738.62
2734.33
2729.8
2725
2719.93
2714.59
2709.02
2703.22
2697.22
2691.03
2684.69
2678.24
2671.73
2665.21
2658.73
2652.33
2646.08
2640.03
2634.26
2628.83
2623.78
2619.17
2615.04
2611.41
2608.29
2605.68
2603.58
2601.98
2600.87
2600.2
2599.91
2599.94
2600.33
2601.05
2602
2603.14
2604.44
2605.94
2607.39
2609.01
2610.46
2612.45
2613.95
2615.54
2617.08
2618.51
2619.97
2621.43
2622.95
2624.41
2625.82
2627.22
2628.57
2629.83
2631.03
2632.05
2632.95
2633.78
2634.62
2635.53
2636.47
2637.44
2638.4
2639.33
2640.21
2641.03
2641.89
2642.61
2643.28
2643.9
2644.48
2645.01
2645.51
2646
2646.47
2646.96
2647.43
2647.93
2648.4
2648.88
2649.35
2649.81
2650.27
2650.74
2651.17
2651.61
2652.05
2652.45
2652.84
2653.22
2653.59
2653.95
2654.28
2654.61
2654.92
2655.22
2655.5
2655.79
2656.07
2656.35
2656.69
4277.01
2803.6
2818.67
2823.62
2813.19
2807.36
2800.93
2795.37
2789.71
2784.47
2779.59
2775.07
2770.78
2766.6
2762.49
2758.48
2754.52
2750.6
2746.66
2742.65
2738.53
2734.22
2729.68
2724.87
2719.78
2714.41
2708.79
2702.95
2696.89
2690.64
2684.22
2677.69
2671.08
2664.45
2657.84
2651.31
2644.91
2638.71
2632.77
2627.16
2621.93
2617.13
2612.81
2608.99
2605.68
2602.88
2600.6
2598.83
2597.55
2596.72
2596.3
2596.18
2596.4
2596.98
2597.8
2598.81
2599.97
2601.33
2602.66
2604.12
2605.44
2607.28
2608.63
2610.03
2611.38
2612.61
2613.88
2615.14
2616.47
2617.72
2618.92
2620.12
2621.26
2622.33
2623.33
2624.16
2624.88
2625.5
2626.11
2626.75
2627.41
2628.11
2628.8
2629.5
2630.18
2630.84
2631.55
2632.15
2632.71
2633.22
2633.68
2634.11
2634.5
2634.87
2635.23
2635.6
2635.97
2636.38
2636.76
2637.17
2637.57
2637.99
2638.4
2638.82
2639.22
2639.64
2640.05
2640.43
2640.81
2641.18
2641.55
2641.9
2642.23
2642.55
2642.85
2643.15
2643.43
2643.72
2643.99
2644.27
2644.6
4277.44
2803.1
2818.29
2823.3
2812.95
2807.17
2800.78
2795.23
2789.58
2784.33
2779.46
2774.93
2770.64
2766.47
2762.37
2758.37
2754.42
2750.5
2746.56
2742.56
2738.43
2734.12
2729.57
2724.74
2719.62
2714.23
2708.57
2702.68
2696.57
2690.25
2683.76
2677.13
2670.43
2663.69
2656.96
2650.29
2643.75
2637.39
2631.29
2625.49
2620.08
2615.09
2610.58
2606.56
2603.06
2600.07
2597.6
2595.65
2594.2
2593.21
2592.63
2592.39
2592.46
2592.87
2593.56
2594.43
2595.46
2596.69
2597.88
2599.2
2600.39
2602.08
2603.26
2604.52
2605.69
2606.78
2607.92
2609.04
2610.16
2611.18
2612.12
2613.04
2613.91
2614.78
2615.61
2616.27
2616.81
2617.23
2617.64
2618.05
2618.48
2618.92
2619.34
2619.79
2620.23
2620.71
2621.23
2621.7
2622.13
2622.52
2622.87
2623.17
2623.44
2623.7
2623.94
2624.2
2624.46
2624.77
2625.05
2625.37
2625.69
2626.03
2626.37
2626.73
2627.07
2627.43
2627.79
2628.13
2628.47
2628.81
2629.14
2629.46
2629.76
2630.06
2630.34
2630.62
2630.88
2631.15
2631.42
2631.68
2631.98
4277.94
2802.58
2817.9
2822.97
2812.71
2806.98
2800.63
2795.09
2789.44
2784.2
2779.32
2774.79
2770.5
2766.33
2762.24
2758.25
2754.31
2750.4
2746.47
2742.47
2738.34
2734.02
2729.46
2724.61
2719.47
2714.05
2708.36
2702.42
2696.25
2689.87
2683.3
2676.59
2669.78
2662.93
2656.08
2649.28
2642.59
2636.08
2629.81
2623.84
2618.23
2613.05
2608.35
2604.14
2600.44
2597.25
2594.6
2592.46
2590.84
2589.68
2588.94
2588.57
2588.5
2588.74
2589.29
2590.04
2590.95
2592.04
2593.11
2594.29
2595.37
2596.87
2597.85
2598.95
2599.97
2600.92
2601.91
2602.88
2603.85
2604.7
2605.44
2606.12
2606.75
2607.36
2607.94
2608.39
2608.76
2609
2609.21
2609.4
2609.58
2609.77
2609.94
2610.12
2610.33
2610.58
2610.89
2611.2
2611.47
2611.71
2611.92
2612.09
2612.23
2612.36
2612.48
2612.62
2612.77
2612.98
2613.17
2613.39
2613.62
2613.88
2614.15
2614.43
2614.71
2615.01
2615.3
2615.59
2615.88
2616.18
2616.47
2616.75
2617.02
2617.29
2617.55
2617.8
2618.04
2618.28
2618.53
2618.78
2619.06
4278.42
2802.05
2817.5
2822.64
2812.47
2806.79
2800.48
2794.96
2789.31
2784.06
2779.18
2774.65
2770.36
2766.2
2762.12
2758.13
2754.2
2750.3
2746.38
2742.38
2738.24
2733.92
2729.35
2724.49
2719.33
2713.87
2708.14
2702.16
2695.93
2689.49
2682.84
2676.05
2669.14
2662.18
2655.21
2648.28
2641.44
2634.77
2628.33
2622.18
2616.39
2611.01
2606.11
2601.7
2597.8
2594.42
2591.57
2589.25
2587.44
2586.11
2585.22
2584.7
2584.5
2584.58
2584.99
2585.61
2586.4
2587.36
2588.32
2589.37
2590.34
2591.66
2592.44
2593.41
2594.31
2595.17
2596.05
2596.86
2597.61
2598.24
2598.76
2599.23
2599.65
2600.05
2600.38
2600.62
2600.77
2600.81
2600.82
2600.79
2600.76
2600.71
2600.63
2600.57
2600.53
2600.55
2600.63
2600.75
2600.84
2600.92
2600.97
2601
2601
2600.99
2600.98
2600.99
2601.02
2601.11
2601.18
2601.29
2601.41
2601.56
2601.73
2601.92
2602.1
2602.32
2602.52
2602.73
2602.95
2603.17
2603.4
2603.62
2603.85
2604.06
2604.27
2604.48
2604.68
2604.89
2605.09
2605.31
2605.57
4279.08
2801.52
2817.1
2822.3
2812.22
2806.6
2800.33
2794.82
2789.17
2783.93
2779.04
2774.51
2770.22
2766.07
2761.99
2758.02
2754.1
2750.2
2746.28
2742.28
2738.15
2733.82
2729.24
2724.36
2719.18
2713.7
2707.93
2701.9
2695.62
2689.11
2682.39
2675.51
2668.51
2661.44
2654.35
2647.29
2640.3
2633.47
2626.86
2620.53
2614.55
2608.98
2603.87
2599.26
2595.16
2591.58
2588.53
2586.02
2584.03
2582.53
2581.47
2580.8
2580.47
2580.42
2580.66
2581.16
2581.84
2582.67
2583.52
2584.46
2585.3
2586.48
2587.08
2587.9
2588.68
2589.43
2590.17
2590.8
2591.38
2591.83
2592.15
2592.39
2592.57
2592.73
2592.85
2592.91
2592.88
2592.72
2592.52
2592.26
2592
2591.72
2591.4
2591.08
2590.79
2590.55
2590.39
2590.29
2590.17
2590.05
2589.92
2589.78
2589.62
2589.46
2589.31
2589.18
2589.08
2589.04
2588.99
2588.98
2588.98
2589.02
2589.08
2589.16
2589.26
2589.38
2589.48
2589.6
2589.74
2589.9
2590.05
2590.21
2590.37
2590.53
2590.69
2590.84
2591
2591.15
2591.31
2591.46
2591.68
4279.62
2800.97
2816.68
2821.96
2811.97
2806.4
2800.17
2794.68
2789.04
2783.79
2778.89
2774.36
2770.07
2765.93
2761.87
2757.9
2753.99
2750.11
2746.19
2742.19
2738.05
2733.72
2729.13
2724.24
2719.04
2713.52
2707.72
2701.65
2695.32
2688.74
2681.95
2674.98
2667.88
2660.71
2653.49
2646.3
2639.17
2632.18
2625.39
2618.88
2612.71
2606.94
2601.63
2596.81
2592.51
2588.72
2585.47
2582.76
2580.59
2578.91
2577.68
2576.86
2576.39
2576.21
2576.3
2576.66
2577.23
2577.94
2578.68
2579.51
2580.24
2581.28
2581.76
2582.49
2583.19
2583.85
2584.43
2584.82
2585.15
2585.36
2585.48
2585.53
2585.52
2585.46
2585.4
2585.29
2585.06
2584.72
2584.29
2583.81
2583.32
2582.81
2582.26
2581.7
2581.18
2580.68
2580.28
2579.93
2579.59
2579.26
2578.94
2578.6
2578.27
2577.93
2577.62
2577.32
2577.06
2576.86
2576.65
2576.49
2576.35
2576.25
2576.17
2576.13
2576.11
2576.13
2576.1
2576.13
2576.17
2576.24
2576.31
2576.39
2576.47
2576.56
2576.65
2576.74
2576.85
2576.95
2577.08
2577.2
2577.27
4280.36
2800.41
2816.26
2821.6
2811.71
2806.21
2800.02
2794.54
2788.9
2783.65
2778.75
2774.22
2769.93
2765.79
2761.74
2757.79
2753.89
2750.01
2746.1
2742.1
2737.96
2733.62
2729.02
2724.12
2718.89
2713.35
2707.52
2701.4
2695.01
2688.37
2681.51
2674.45
2667.26
2659.98
2652.65
2645.31
2638.04
2630.89
2623.93
2617.24
2610.88
2604.91
2599.39
2594.36
2589.85
2585.86
2582.4
2579.49
2577.12
2575.27
2573.87
2572.89
2572.27
2571.97
2571.94
2572.15
2572.61
2573.21
2573.83
2574.54
2575.14
2576.05
2576.38
2577.01
2577.63
2578.23
2578.69
2578.94
2579.1
2579.11
2579.01
2578.83
2578.57
2578.27
2578.03
2577.74
2577.33
2576.8
2576.16
2575.47
2574.75
2573.99
2573.19
2572.39
2571.61
2570.85
2570.21
2569.59
2569.02
2568.47
2567.93
2567.4
2566.87
2566.35
2565.85
2565.38
2564.94
2564.56
2564.18
2563.86
2563.55
2563.29
2563.07
2562.89
2562.74
2562.63
2562.47
2562.38
2562.32
2562.28
2562.25
2562.24
2562.23
2562.25
2562.25
2562.28
2562.32
2562.37
2562.5
2562.68
2562.48
4280.96
2799.83
2815.83
2821.25
2811.45
2806.01
2799.86
2794.4
2788.76
2783.51
2778.61
2774.08
2769.79
2765.66
2761.61
2757.67
2753.78
2749.91
2746.01
2742.01
2737.87
2733.52
2728.91
2723.99
2718.75
2713.19
2707.31
2701.15
2694.71
2688.01
2681.07
2673.93
2666.64
2659.25
2651.8
2644.34
2636.91
2629.6
2622.48
2615.6
2609.04
2602.87
2597.14
2591.9
2587.18
2582.97
2579.31
2576.19
2573.63
2571.59
2570.02
2568.88
2568.11
2567.68
2567.52
2567.6
2567.92
2568.43
2568.95
2569.55
2570.02
2570.82
2571.07
2571.6
2572.13
2572.6
2572.91
2573.02
2573.04
2572.91
2572.67
2572.27
2571.76
2571.21
2570.76
2570.26
2569.68
2568.97
2568.14
2567.25
2566.31
2565.31
2564.27
2563.23
2562.19
2561.17
2560.28
2559.38
2558.57
2557.78
2557.02
2556.27
2555.53
2554.8
2554.09
2553.41
2552.78
2552.2
2551.62
2551.11
2550.62
2550.19
2549.79
2549.45
2549.14
2548.88
2548.57
2548.33
2548.14
2547.97
2547.82
2547.69
2547.57
2547.48
2547.38
2547.32
2547.25
2547.23
2547.3
2547.49
2547.02
4281.77
2799.24
2815.39
2820.88
2811.19
2805.81
2799.7
2794.25
2788.62
2783.37
2778.47
2773.93
2769.65
2765.52
2761.48
2757.55
2753.67
2749.81
2745.91
2741.92
2737.78
2733.42
2728.8
2723.87
2718.61
2713.02
2707.11
2700.91
2694.41
2687.65
2680.64
2673.42
2666.03
2658.53
2650.96
2643.36
2635.8
2628.33
2621.03
2613.96
2607.21
2600.83
2594.89
2589.44
2584.5
2580.08
2576.2
2572.88
2570.11
2567.89
2566.15
2564.84
2563.92
2563.34
2563.08
2563.03
2563.22
2563.61
2564.04
2564.52
2564.88
2565.61
2565.77
2566.2
2566.63
2566.96
2567.14
2567.13
2567.02
2566.76
2566.39
2565.83
2565.11
2564.32
2563.63
2562.9
2562.13
2561.24
2560.22
2559.13
2557.97
2556.75
2555.48
2554.19
2552.9
2551.61
2550.47
2549.28
2548.23
2547.19
2546.19
2545.2
2544.23
2543.28
2542.35
2541.45
2540.6
2539.79
2539
2538.28
2537.59
2536.96
2536.38
2535.86
2535.37
2534.95
2534.46
2534.07
2533.73
2533.41
2533.12
2532.86
2532.61
2532.4
2532.19
2532.02
2531.85
2531.75
2531.72
2531.91
2531.16
4282.49
2798.63
2814.94
2820.5
2810.92
2805.61
2799.54
2794.11
2788.48
2783.23
2778.32
2773.79
2769.5
2765.38
2761.35
2757.43
2753.56
2749.71
2745.82
2741.83
2737.68
2733.33
2728.7
2723.75
2718.47
2712.85
2706.91
2700.66
2694.12
2687.3
2680.21
2672.91
2665.43
2657.82
2650.13
2642.4
2634.68
2627.05
2619.58
2612.33
2605.38
2598.79
2592.63
2586.97
2581.81
2577.17
2573.07
2569.53
2566.56
2564.14
2562.23
2560.76
2559.69
2558.96
2558.57
2558.42
2558.49
2558.76
2559.07
2559.46
2559.73
2560.42
2560.5
2560.84
2561.11
2561.26
2561.31
2561.2
2561.03
2560.7
2560.22
2559.5
2558.6
2557.59
2556.65
2555.68
2554.71
2553.63
2552.42
2551.15
2549.78
2548.36
2546.87
2545.34
2543.79
2542.26
2540.85
2539.38
2538.08
2536.78
2535.53
2534.29
2533.08
2531.89
2530.73
2529.59
2528.5
2527.46
2526.45
2525.5
2524.59
2523.74
2522.94
2522.21
2521.52
2520.91
2520.21
2519.63
2519.11
2518.62
2518.17
2517.74
2517.34
2516.98
2516.64
2516.33
2516.05
2515.85
2515.71
2515.88
2514.85
4283.37
2798.01
2814.47
2820.12
2810.65
2805.4
2799.37
2793.96
2788.34
2783.09
2778.18
2773.64
2769.36
2765.24
2761.23
2757.31
2753.46
2749.62
2745.73
2741.74
2737.59
2733.23
2728.59
2723.63
2718.33
2712.69
2706.71
2700.42
2693.83
2686.94
2679.79
2672.4
2664.83
2657.11
2649.3
2641.44
2633.58
2625.79
2618.14
2610.7
2603.55
2596.75
2590.38
2584.49
2579.11
2574.25
2569.93
2566.18
2563
2560.38
2558.28
2556.65
2555.42
2554.55
2554.02
2553.76
2553.72
2553.88
2554.08
2554.38
2554.57
2555.21
2555.23
2555.5
2555.66
2555.67
2555.6
2555.34
2555.07
2554.66
2554.08
2553.26
2552.2
2551
2549.81
2548.61
2547.44
2546.16
2544.78
2543.31
2541.75
2540.14
2538.43
2536.68
2534.89
2533.11
2531.44
2529.69
2528.12
2526.56
2525.04
2523.55
2522.08
2520.64
2519.23
2517.85
2516.51
2515.22
2513.96
2512.77
2511.62
2510.54
2509.51