/*--------------------------------*- C++ -*----------------------------------*\
| =========                 |                                                 |
| \\      /  F ield         | OpenFOAM: The Open Source CFD Toolbox           |
|  \\    /   O peration     | Version:  2412                                  |
|   \\  /    A nd           | Website:  www.openfoam.com                      |
|    \\/     M anipulation  |                                                 |
\*---------------------------------------------------------------------------*/
FoamFile
{
    version     2.0;
    format      ascii;
    arch        "LSB;label=32;scalar=64";
    class       volVectorField;
    location    "0.101";
    object      U;
}
// * * * * * * * * * * * * * * * * * * * * * * * * * * * * * * * * * * * * * //

dimensions      [0 1 -1 0 0 0 0];

internalField   nonuniform List<vector> 
9771
(
(280.855 196.215 0)
(273.939 15.2886 0)
(259.196 -6.30561 0)
(246.85 -6.0189 0)
(236.966 -9.39882 0)
(229.782 -10.2705 0)
(225.385 -11.385 0)
(222.534 -12.0305 0)
(220.661 -12.7299 0)
(219.214 -13.2698 0)
(281.338 195.943 0)
(274.606 15.3368 0)
(259.28 -6.30393 0)
(246.898 -6.02743 0)
(237.008 -9.41328 0)
(229.813 -10.2859 0)
(225.407 -11.4011 0)
(222.551 -12.0468 0)
(220.675 -12.7465 0)
(219.225 -13.2866 0)
(281.766 195.693 0)
(275.294 15.3577 0)
(259.362 -6.30028 0)
(246.945 -6.03782 0)
(237.049 -9.42869 0)
(229.844 -10.3005 0)
(225.432 -11.4153 0)
(222.571 -12.0612 0)
(220.691 -12.7617 0)
(219.238 -13.3025 0)
(281.99 195.497 0)
(275.996 15.4081 0)
(259.44 -6.29576 0)
(246.992 -6.04644 0)
(237.091 -9.44255 0)
(229.874 -10.3156 0)
(225.454 -11.4312 0)
(222.588 -12.0773 0)
(220.704 -12.7781 0)
(219.249 -13.3191 0)
(282.164 195.317 0)
(276.74 15.4881 0)
(259.511 -6.2895 0)
(247.038 -6.0577 0)
(237.133 -9.4579 0)
(229.905 -10.3301 0)
(225.479 -11.4452 0)
(222.608 -12.0917 0)
(220.721 -12.7933 0)
(219.262 -13.335 0)
(282.382 195.169 0)
(277.543 15.5023 0)
(259.579 -6.28483 0)
(247.085 -6.0657 0)
(237.176 -9.47148 0)
(229.936 -10.3454 0)
(225.502 -11.4614 0)
(222.626 -12.1081 0)
(220.735 -12.8101 0)
(219.274 -13.352 0)
(282.68 194.999 0)
(278.356 15.4258 0)
(259.642 -6.27753 0)
(247.131 -6.07852 0)
(237.219 -9.48712 0)
(229.969 -10.3601 0)
(225.528 -11.4757 0)
(222.647 -12.1228 0)
(220.752 -12.8257 0)
(219.287 -13.3683 0)
(218.093 -13.8772 0)
(217.006 -14.3045 0)
(216.002 -14.6833 0)
(215.065 -15.0092 0)
(214.198 -15.2895 0)
(213.399 -15.5196 0)
(212.666 -15.6981 0)
(211.99 -15.8197 0)
(211.36 -15.8943 0)
(210.76 -15.9305 0)
(210.178 -15.9499 0)
(209.602 -15.9659 0)
(209.028 -15.9882 0)
(208.455 -16.0199 0)
(207.883 -16.0617 0)
(207.312 -16.1137 0)
(206.744 -16.1757 0)
(206.18 -16.2482 0)
(205.621 -16.3317 0)
(205.069 -16.4263 0)
(204.524 -16.5306 0)
(203.987 -16.6426 0)
(282.984 194.838 0)
(279.258 15.349 0)
(259.704 -6.2757 0)
(247.178 -6.08514 0)
(237.264 -9.50047 0)
(230 -10.3757 0)
(225.551 -11.4922 0)
(222.665 -12.1396 0)
(220.766 -12.8428 0)
(219.299 -13.3856 0)
(218.103 -13.895 0)
(217.016 -14.3228 0)
(216.011 -14.7018 0)
(215.074 -15.028 0)
(214.207 -15.3084 0)
(213.409 -15.5385 0)
(212.677 -15.7171 0)
(212.002 -15.8391 0)
(211.372 -15.9142 0)
(210.773 -15.9513 0)
(210.191 -15.9719 0)
(209.615 -15.9892 0)
(209.042 -16.013 0)
(208.469 -16.0462 0)
(207.897 -16.0895 0)
(207.328 -16.1432 0)
(206.76 -16.2068 0)
(206.197 -16.2809 0)
(205.639 -16.366 0)
(205.088 -16.4622 0)
(204.545 -16.568 0)
(204.009 -16.6817 0)
(203.482 -16.8017 0)
(202.961 -16.9272 0)
(202.449 -17.0573 0)
(201.944 -17.1913 0)
(201.446 -17.3282 0)
(200.955 -17.468 0)
(283.3 194.626 0)
(280.27 15.3934 0)
(259.761 -6.26507 0)
(247.223 -6.10039 0)
(237.307 -9.51637 0)
(230.033 -10.3906 0)
(225.578 -11.5066 0)
(222.687 -12.1544 0)
(220.784 -12.8587 0)
(219.313 -13.4024 0)
(218.115 -13.9126 0)
(217.025 -14.341 0)
(216.02 -14.7205 0)
(215.083 -15.047 0)
(214.217 -15.3275 0)
(213.42 -15.5576 0)
(212.688 -15.7364 0)
(212.013 -15.8587 0)
(211.385 -15.9343 0)
(210.786 -15.9722 0)
(210.204 -15.994 0)
(209.629 -16.0126 0)
(209.056 -16.0379 0)
(208.483 -16.0727 0)
(207.912 -16.1176 0)
(207.343 -16.173 0)
(206.776 -16.2382 0)
(206.214 -16.314 0)
(205.657 -16.4007 0)
(205.106 -16.4985 0)
(204.564 -16.606 0)
(204.03 -16.7215 0)
(203.504 -16.8433 0)
(202.985 -16.9707 0)
(202.475 -17.1028 0)
(201.971 -17.2387 0)
(201.475 -17.3779 0)
(200.986 -17.5199 0)
(200.504 -17.6647 0)
(283.545 194.479 0)
(281.293 15.3439 0)
(259.816 -6.27058 0)
(247.273 -6.10499 0)
(237.352 -9.52974 0)
(230.064 -10.4064 0)
(225.601 -11.5236 0)
(222.705 -12.1719 0)
(220.798 -12.8763 0)
(219.325 -13.4202 0)
(218.125 -13.9308 0)
(217.035 -14.3596 0)
(216.029 -14.7394 0)
(215.092 -15.066 0)
(214.227 -15.3465 0)
(213.43 -15.5768 0)
(212.7 -15.7557 0)
(212.026 -15.8783 0)
(211.398 -15.9545 0)
(210.799 -15.9933 0)
(210.218 -16.0163 0)
(209.643 -16.0363 0)
(209.07 -16.0631 0)
(208.498 -16.0994 0)
(207.927 -16.1459 0)
(207.358 -16.2029 0)
(206.792 -16.2698 0)
(206.231 -16.3471 0)
(205.675 -16.4354 0)
(205.126 -16.5348 0)
(204.585 -16.6439 0)
(204.053 -16.7609 0)
(203.529 -16.8845 0)
(203.012 -17.0136 0)
(202.504 -17.1475 0)
(202.003 -17.2853 0)
(201.509 -17.4263 0)
(201.023 -17.5703 0)
(200.543 -17.7172 0)
(283.744 194.413 0)
(282.141 15.4091 0)
(259.859 -6.25677 0)
(247.317 -6.12366 0)
(237.395 -9.54561 0)
(230.097 -10.4211 0)
(225.628 -11.537 0)
(222.727 -12.1853 0)
(220.816 -12.8909 0)
(219.339 -13.4358 0)
(218.137 -13.9476 0)
(217.045 -14.3772 0)
(216.038 -14.7579 0)
(215.101 -15.0849 0)
(214.236 -15.3658 0)
(213.441 -15.5962 0)
(212.711 -15.7753 0)
(212.038 -15.8981 0)
(211.41 -15.9749 0)
(210.813 -16.0144 0)
(210.231 -16.0385 0)
(209.656 -16.0599 0)
(209.084 -16.0882 0)
(208.512 -16.1262 0)
(207.942 -16.1745 0)
(207.374 -16.2332 0)
(206.808 -16.3019 0)
(206.248 -16.381 0)
(205.692 -16.471 0)
(205.145 -16.5722 0)
(204.605 -16.6831 0)
(204.074 -16.8021 0)
(203.551 -16.9277 0)
(203.037 -17.0589 0)
(202.53 -17.1949 0)
(202.031 -17.3349 0)
(201.539 -17.4781 0)
(201.055 -17.6245 0)
(200.577 -17.7738 0)
(299.421 164.511 0)
(283.971 10.559 0)
(260.808 -6.14528 0)
(249.075 -6.09699 0)
(238.637 -9.93902 0)
(230.927 -10.8143 0)
(226.22 -11.9151 0)
(223.162 -12.5455 0)
(221.144 -13.2416 0)
(219.59 -13.7754 0)
(218.337 -14.2797 0)
(217.213 -14.6993 0)
(216.188 -15.0694 0)
(215.244 -15.3847 0)
(214.378 -15.6538 0)
(213.586 -15.8738 0)
(212.861 -16.0447 0)
(212.191 -16.1633 0)
(211.565 -16.2398 0)
(210.967 -16.2838 0)
(210.385 -16.3162 0)
(209.81 -16.3482 0)
(209.238 -16.3884 0)
(208.669 -16.4387 0)
(208.102 -16.5 0)
(207.539 -16.572 0)
(206.98 -16.6538 0)
(206.427 -16.7456 0)
(205.881 -16.8477 0)
(205.345 -16.9606 0)
(204.819 -17.0835 0)
(204.303 -17.2151 0)
(203.796 -17.354 0)
(203.298 -17.4992 0)
(202.809 -17.6498 0)
(202.33 -17.8047 0)
(201.859 -17.9633 0)
(201.398 -18.1253 0)
(200.945 -18.2907 0)
(200.5 -18.4597 0)
(200.062 -18.6329 0)
(199.63 -18.8109 0)
(199.203 -18.9944 0)
(198.78 -19.1839 0)
(198.36 -19.3792 0)
(197.944 -19.5798 0)
(197.53 -19.7853 0)
(197.119 -19.9954 0)
(196.711 -20.2108 0)
(196.304 -20.4321 0)
(195.898 -20.6604 0)
(195.493 -20.8964 0)
(195.088 -21.1408 0)
(194.686 -21.3941 0)
(194.286 -21.6568 0)
(193.889 -21.9289 0)
(193.498 -22.2106 0)
(193.112 -22.5011 0)
(192.731 -22.8002 0)
(192.356 -23.1069 0)
(191.988 -23.421 0)
(191.63 -23.7423 0)
(191.284 -24.071 0)
(190.952 -24.4057 0)
(190.636 -24.7467 0)
(190.337 -25.093 0)
(190.055 -25.4439 0)
(189.79 -25.7991 0)
(189.544 -26.1576 0)
(189.315 -26.5179 0)
(189.104 -26.8807 0)
(188.911 -27.2454 0)
(188.735 -27.6105 0)
(188.578 -27.9751 0)
(188.435 -28.3375 0)
(188.311 -28.6982 0)
(188.198 -29.0563 0)
(188.103 -29.4124 0)
(188.018 -29.764 0)
(279.94 101.177 0)
(279.947 -6.75395 0)
(263.792 -7.97955 0)
(252.031 -7.30805 0)
(240.501 -11.2755 0)
(232.211 -11.8245 0)
(227.176 -12.8147 0)
(223.898 -13.3533 0)
(221.711 -13.9982 0)
(220.023 -14.4896 0)
(218.678 -14.9649 0)
(217.494 -15.3521 0)
(216.439 -15.6902 0)
(215.486 -15.9734 0)
(214.624 -16.2131 0)
(213.843 -16.4086 0)
(213.13 -16.5615 0)
(212.471 -16.671 0)
(211.852 -16.7475 0)
(211.257 -16.8009 0)
(210.676 -16.8493 0)
(210.101 -16.9004 0)
(209.532 -16.9615 0)
(208.967 -17.0331 0)
(208.408 -17.1167 0)
(207.854 -17.2114 0)
(207.308 -17.3156 0)
(206.77 -17.4285 0)
(206.244 -17.5505 0)
(205.73 -17.6822 0)
(205.23 -17.8236 0)
(204.744 -17.9738 0)
(204.27 -18.1321 0)
(203.807 -18.2982 0)
(203.355 -18.4716 0)
(202.913 -18.6517 0)
(202.481 -18.8375 0)
(202.06 -19.0279 0)
(201.651 -19.2221 0)
(201.254 -19.42 0)
(200.87 -19.6223 0)
(200.498 -19.8297 0)
(200.137 -20.0427 0)
(199.788 -20.2613 0)
(199.45 -20.4849 0)
(199.123 -20.7132 0)
(198.807 -20.9463 0)
(198.502 -21.1851 0)
(198.207 -21.4303 0)
(197.922 -21.6825 0)
(197.647 -21.942 0)
(197.383 -22.2086 0)
(197.131 -22.482 0)
(196.891 -22.7619 0)
(196.666 -23.0481 0)
(196.456 -23.3401 0)
(196.262 -23.6373 0)
(196.083 -23.9389 0)
(195.922 -24.2441 0)
(195.77 -24.5512 0)
(195.636 -24.8617 0)
(195.52 -25.1743 0)
(195.417 -25.4872 0)
(195.332 -25.8001 0)
(195.265 -26.1114 0)
(195.212 -26.4199 0)
(195.189 -26.7258 0)
(195.17 -27.0296 0)
(195.157 -27.3229 0)
(195.168 -27.6097 0)
(195.192 -27.8894 0)
(195.223 -28.1618 0)
(195.268 -28.4253 0)
(195.315 -28.6799 0)
(195.377 -28.9231 0)
(195.435 -29.1568 0)
(195.502 -29.3805 0)
(195.567 -29.5955 0)
(195.632 -29.8019 0)
(216.732 61.9263 0)
(257.691 -12.1984 0)
(263.276 -8.44683 0)
(254.138 -7.91464 0)
(242.41 -12.2785 0)
(233.556 -12.85 0)
(228.166 -13.8174 0)
(224.649 -14.2636 0)
(222.296 -14.8448 0)
(220.484 -15.2715 0)
(219.048 -15.6976 0)
(217.804 -16.035 0)
(216.717 -16.328 0)
(215.751 -16.5695 0)
(214.889 -16.7742 0)
(214.113 -16.9422 0)
(213.407 -17.0761 0)
(212.753 -17.1768 0)
(212.135 -17.2544 0)
(211.539 -17.3179 0)
(210.956 -17.3816 0)
(210.383 -17.4504 0)
(209.817 -17.5298 0)
(209.259 -17.6199 0)
(208.71 -17.7227 0)
(208.169 -17.8366 0)
(207.639 -17.9594 0)
(207.122 -18.0895 0)
(206.62 -18.2272 0)
(206.132 -18.3739 0)
(205.659 -18.5293 0)
(205.204 -18.693 0)
(204.765 -18.8639 0)
(204.343 -19.0415 0)
(203.937 -19.2255 0)
(203.546 -19.4158 0)
(203.168 -19.6126 0)
(202.802 -19.8162 0)
(202.448 -20.0274 0)
(202.106 -20.2468 0)
(201.777 -20.474 0)
(201.462 -20.7079 0)
(201.163 -20.9461 0)
(200.883 -21.1866 0)
(200.62 -21.4282 0)
(200.375 -21.671 0)
(200.148 -21.9161 0)
(199.936 -22.1645 0)
(199.739 -22.417 0)
(199.557 -22.6735 0)
(199.39 -22.9336 0)
(199.237 -23.1964 0)
(199.1 -23.4611 0)
(198.979 -23.7266 0)
(198.876 -23.9924 0)
(198.787 -24.2574 0)
(198.716 -24.5206 0)
(198.664 -24.7806 0)
(198.62 -25.0351 0)
(198.603 -25.2852 0)
(198.586 -25.5341 0)
(198.572 -25.7699 0)
(198.581 -26.0004 0)
(198.599 -26.2228 0)
(198.625 -26.4366 0)
(198.653 -26.6426 0)
(198.706 -26.8395 0)
(198.746 -27.0285 0)
(198.776 -27.2075 0)
(198.824 -27.3783 0)
(198.876 -27.5411 0)
(198.919 -27.6965 0)
(198.969 -27.8449 0)
(199.024 -27.9858 0)
(199.064 -28.1218 0)
(199.132 -28.2494 0)
(199.171 -28.3769 0)
(199.251 -28.4947 0)
(199.307 -28.6179 0)
(198.849 31.0793 0)
(251.196 -21.4716 0)
(265.336 -10.315 0)
(256.526 -9.36389 0)
(244.162 -13.4734 0)
(234.648 -13.9764 0)
(228.984 -14.9184 0)
(225.33 -15.2587 0)
(222.851 -15.7651 0)
(220.934 -16.1129 0)
(219.422 -16.475 0)
(218.128 -16.7462 0)
(217.012 -16.9817 0)
(216.031 -17.1734 0)
(215.163 -17.3384 0)
(214.386 -17.4767 0)
(213.68 -17.5909 0)
(213.026 -17.6829 0)
(212.406 -17.7615 0)
(211.808 -17.8345 0)
(211.225 -17.9119 0)
(210.654 -17.9958 0)
(210.095 -18.0905 0)
(209.548 -18.1958 0)
(209.011 -18.314 0)
(208.488 -18.4427 0)
(207.98 -18.5796 0)
(207.487 -18.7223 0)
(207.011 -18.8712 0)
(206.553 -19.0277 0)
(206.111 -19.192 0)
(205.688 -19.3641 0)
(205.281 -19.5433 0)
(204.894 -19.7286 0)
(204.527 -19.9179 0)
(204.182 -20.1092 0)
(203.859 -20.3018 0)
(203.557 -20.4963 0)
(203.274 -20.695 0)
(203.005 -20.9005 0)
(202.749 -21.1145 0)
(202.505 -21.337 0)
(202.276 -21.5659 0)
(202.063 -21.7991 0)
(201.867 -22.0349 0)
(201.688 -22.2725 0)
(201.528 -22.5109 0)
(201.385 -22.7491 0)
(201.259 -22.9857 0)
(201.15 -23.2199 0)
(201.058 -23.4507 0)
(200.98 -23.6775 0)
(200.917 -23.8999 0)
(200.865 -24.1178 0)
(200.827 -24.3305 0)
(200.808 -24.5379 0)
(200.793 -24.7436 0)
(200.782 -24.9368 0)
(200.782 -25.1245 0)
(200.802 -25.3059 0)
(200.814 -25.4794 0)
(200.818 -25.6441 0)
(200.844 -25.8019 0)
(200.868 -25.952 0)
(200.906 -26.0942 0)
(200.926 -26.2314 0)
(200.982 -26.3621 0)
(201.028 -26.4883 0)
(201.044 -26.6092 0)
(201.101 -26.7247 0)
(201.145 -26.8396 0)
(201.211 -26.9471 0)
(201.253 -27.059 0)
(201.335 -27.1591 0)
(201.388 -27.2701 0)
(201.484 -27.3663 0)
(201.564 -27.4763 0)
(201.677 -27.5716 0)
(201.785 -27.6786 0)
(183.983 8.74546 0)
(243.573 -29.2037 0)
(265.043 -12.6276 0)
(258.092 -11.1575 0)
(246.034 -14.6938 0)
(235.875 -15.0703 0)
(229.753 -16.0568 0)
(225.908 -16.3073 0)
(223.345 -16.7418 0)
(221.362 -16.9999 0)
(219.797 -17.2873 0)
(218.464 -17.4802 0)
(217.324 -17.65 0)
(216.327 -17.7858 0)
(215.449 -17.9078 0)
(214.664 -18.0149 0)
(213.952 -18.1091 0)
(213.293 -18.192 0)
(212.668 -18.2707 0)
(212.067 -18.351 0)
(211.485 -18.4388 0)
(210.918 -18.5343 0)
(210.368 -18.6405 0)
(209.832 -18.7572 0)
(209.312 -18.8865 0)
(208.809 -19.0253 0)
(208.324 -19.1717 0)
(207.857 -19.323 0)
(207.41 -19.4792 0)
(206.982 -19.6406 0)
(206.574 -19.8071 0)
(206.187 -19.9796 0)
(205.817 -20.1593 0)
(205.465 -20.3467 0)
(205.131 -20.54 0)
(204.816 -20.7354 0)
(204.524 -20.9292 0)
(204.258 -21.1197 0)
(204.018 -21.3076 0)
(203.803 -21.4946 0)
(203.611 -21.6819 0)
(203.439 -21.8699 0)
(203.282 -22.0581 0)
(203.14 -22.2471 0)
(203.009 -22.4378 0)
(202.89 -22.6309 0)
(202.783 -22.8256 0)
(202.689 -23.0202 0)
(202.607 -23.2132 0)
(202.539 -23.4033 0)
(202.482 -23.5897 0)
(202.435 -23.7715 0)
(202.402 -23.9491 0)
(202.379 -24.1227 0)
(202.358 -24.2911 0)
(202.36 -24.4532 0)
(202.362 -24.6088 0)
(202.364 -24.7578 0)
(202.375 -24.9024 0)
(202.404 -25.042 0)
(202.428 -25.1763 0)
(202.436 -25.3056 0)
(202.477 -25.43 0)
(202.503 -25.552 0)
(202.555 -25.668 0)
(202.596 -25.7849 0)
(202.657 -25.899 0)
(202.728 -26.007 0)
(202.755 -26.1217 0)
(202.836 -26.2241 0)
(202.9 -26.3373 0)
(202.995 -26.4358 0)
(203.068 -26.5474 0)
(203.171 -26.6424 0)
(203.261 -26.747 0)
(203.369 -26.8369 0)
(203.47 -26.9286 0)
(203.574 -27.0071 0)
(203.667 -27.0799 0)
(174.65 -6.36811 0)
(236.394 -35.1559 0)
(264.042 -15.6619 0)
(258.836 -13.3387 0)
(247.336 -16.0888 0)
(236.741 -16.2747 0)
(230.326 -17.2416 0)
(226.399 -17.3848 0)
(223.778 -17.7441 0)
(221.755 -17.9118 0)
(220.159 -18.121 0)
(218.804 -18.2291 0)
(217.646 -18.3303 0)
(216.634 -18.4072 0)
(215.743 -18.485 0)
(214.946 -18.5599 0)
(214.223 -18.6334 0)
(213.553 -18.7062 0)
(212.92 -18.7829 0)
(212.315 -18.8672 0)
(211.732 -18.9611 0)
(211.171 -19.064 0)
(210.629 -19.1776 0)
(210.107 -19.3018 0)
(209.605 -19.4376 0)
(209.123 -19.5818 0)
(208.663 -19.7332 0)
(208.223 -19.8893 0)
(207.803 -20.05 0)
(207.404 -20.2136 0)
(207.027 -20.3791 0)
(206.674 -20.5465 0)
(206.345 -20.7168 0)
(206.037 -20.8918 0)
(205.749 -21.0725 0)
(205.475 -21.2598 0)
(205.214 -21.4529 0)
(204.969 -21.6489 0)
(204.745 -21.8434 0)
(204.545 -22.0324 0)
(204.371 -22.214 0)
(204.225 -22.3884 0)
(204.102 -22.5562 0)
(203.999 -22.7188 0)
(203.913 -22.8782 0)
(203.84 -23.0358 0)
(203.779 -23.192 0)
(203.728 -23.3464 0)
(203.685 -23.4985 0)
(203.652 -23.6482 0)
(203.624 -23.7957 0)
(203.607 -23.9416 0)
(203.595 -24.0877 0)
(203.59 -24.2284 0)
(203.587 -24.3667 0)
(203.603 -24.5023 0)
(203.619 -24.6339 0)
(203.635 -24.7622 0)
(203.659 -24.8885 0)
(203.696 -25.0124 0)
(203.737 -25.1323 0)
(203.758 -25.2524 0)
(203.81 -25.3674 0)
(203.86 -25.4815 0)
(203.917 -25.5935 0)
(203.99 -25.6974 0)
(204.048 -25.806 0)
(204.132 -25.8965 0)
(204.18 -25.998 0)
(204.267 -26.0805 0)
(204.344 -26.1687 0)
(204.432 -26.2406 0)
(204.507 -26.3122 0)
(204.581 -26.3701 0)
(204.64 -26.4221 0)
(204.687 -26.4632 0)
(204.716 -26.4978 0)
(204.728 -26.5258 0)
(204.724 -26.5457 0)
(168.89 -16.1109 0)
(229.349 -38.2244 0)
(262.4 -19.1812 0)
(258.145 -15.7438 0)
(248.426 -17.3323 0)
(237.567 -17.4256 0)
(230.745 -18.4274 0)
(226.707 -18.4678 0)
(224.1 -18.757 0)
(222.086 -18.8309 0)
(220.488 -18.962 0)
(219.132 -18.9853 0)
(217.966 -19.0199 0)
(216.944 -19.0381 0)
(216.039 -19.0727 0)
(215.227 -19.1151 0)
(214.488 -19.1675 0)
(213.804 -19.2283 0)
(213.161 -19.3002 0)
(212.55 -19.3839 0)
(211.967 -19.4789 0)
(211.411 -19.5842 0)
(210.879 -19.7006 0)
(210.37 -19.8278 0)
(209.886 -19.9655 0)
(209.426 -20.1107 0)
(208.99 -20.2626 0)
(208.576 -20.4191 0)
(208.184 -20.5798 0)
(207.814 -20.7421 0)
(207.466 -20.9052 0)
(207.14 -21.0681 0)
(206.837 -21.2308 0)
(206.561 -21.3925 0)
(206.311 -21.5528 0)
(206.085 -21.7126 0)
(205.879 -21.8748 0)
(205.685 -22.0436 0)
(205.499 -22.2222 0)
(205.32 -22.41 0)
(205.156 -22.6011 0)
(205.013 -22.7874 0)
(204.892 -22.9634 0)
(204.793 -23.1278 0)
(204.715 -23.282 0)
(204.654 -23.4284 0)
(204.608 -23.5688 0)
(204.575 -23.7046 0)
(204.552 -23.8364 0)
(204.538 -23.9647 0)
(204.533 -24.0905 0)
(204.537 -24.2155 0)
(204.541 -24.3364 0)
(204.556 -24.454 0)
(204.572 -24.5703 0)
(204.602 -24.683 0)
(204.636 -24.7921 0)
(204.669 -24.8984 0)
(204.708 -25.0013 0)
(204.753 -25.1012 0)
(204.804 -25.1947 0)
(204.847 -25.2861 0)
(204.895 -25.3732 0)
(204.957 -25.4494 0)
(205.004 -25.5274 0)
(205.069 -25.5888 0)
(205.112 -25.654 0)
(205.168 -25.7034 0)
(205.206 -25.7546 0)
(205.249 -25.795 0)
(205.284 -25.8319 0)
(205.313 -25.8619 0)
(205.331 -25.888 0)
(205.338 -25.9092 0)
(205.336 -25.9255 0)
(205.327 -25.938 0)
(205.311 -25.9488 0)
(205.289 -25.9574 0)
(205.266 -25.9665 0)
(165.672 -22.2451 0)
(222.25 -39.0972 0)
(259.223 -22.2695 0)
(257.788 -18.315 0)
(248.99 -18.7935 0)
(238.076 -18.6686 0)
(230.946 -19.5957 0)
(226.903 -19.5355 0)
(224.313 -19.7527 0)
(222.345 -19.7402 0)
(220.774 -19.7947 0)
(219.436 -19.738 0)
(218.274 -19.7127 0)
(217.247 -19.6765 0)
(216.33 -19.6711 0)
(215.504 -19.6821 0)
(214.748 -19.713 0)
(214.049 -19.76 0)
(213.393 -19.8236 0)
(212.775 -19.9019 0)
(212.191 -19.993 0)
(211.638 -20.0957 0)
(211.114 -20.2102 0)
(210.618 -20.3358 0)
(210.15 -20.4712 0)
(209.709 -20.6135 0)
(209.293 -20.7621 0)
(208.903 -20.9151 0)
(208.538 -21.0713 0)
(208.197 -21.2277 0)
(207.878 -21.3839 0)
(207.58 -21.5398 0)
(207.302 -21.6955 0)
(207.046 -21.8491 0)
(206.814 -21.9977 0)
(206.609 -22.1395 0)
(206.433 -22.2753 0)
(206.282 -22.4076 0)
(206.151 -22.5394 0)
(206.031 -22.6748 0)
(205.915 -22.8175 0)
(205.8 -22.9699 0)
(205.693 -23.13 0)
(205.597 -23.2924 0)
(205.519 -23.4509 0)
(205.457 -23.6014 0)
(205.412 -23.7429 0)
(205.38 -23.8758 0)
(205.36 -24.0007 0)
(205.349 -24.1183 0)
(205.351 -24.2293 0)
(205.362 -24.335 0)
(205.368 -24.4345 0)
(205.39 -24.5278 0)
(205.413 -24.6168 0)
(205.441 -24.701 0)
(205.476 -24.7793 0)
(205.508 -24.8538 0)
(205.543 -24.9225 0)
(205.577 -24.9864 0)
(205.611 -25.0448 0)
(205.642 -25.0965 0)
(205.659 -25.1456 0)
(205.691 -25.1858 0)
(205.709 -25.2256 0)
(205.738 -25.2577 0)
(205.756 -25.2882 0)
(205.771 -25.3141 0)
(205.78 -25.3369 0)
(205.784 -25.3556 0)
(205.789 -25.3734 0)
(205.79 -25.3883 0)
(205.787 -25.4015 0)
(205.783 -25.4144 0)
(205.778 -25.4261 0)
(205.777 -25.442 0)
(205.773 -25.4554 0)
(205.781 -25.474 0)
(205.785 -25.4927 0)
(164.497 -25.7753 0)
(216.096 -38.9449 0)
(254.526 -24.5729 0)
(256.201 -20.4364 0)
(248.757 -20.2007 0)
(238.354 -19.8766 0)
(231.06 -20.7234 0)
(226.913 -20.5751 0)
(224.395 -20.7167 0)
(222.505 -20.6197 0)
(220.988 -20.6063 0)
(219.695 -20.4784 0)
(218.551 -20.402 0)
(217.531 -20.3184 0)
(216.608 -20.2786 0)
(215.769 -20.2604 0)
(214.998 -20.2707 0)
(214.282 -20.3026 0)
(213.614 -20.3548 0)
(212.989 -20.4233 0)
(212.402 -20.5057 0)
(211.852 -20.6008 0)
(211.336 -20.7087 0)
(210.851 -20.8281 0)
(210.396 -20.957 0)
(209.971 -21.0926 0)
(209.574 -21.234 0)
(209.204 -21.3796 0)
(208.861 -21.5275 0)
(208.544 -21.6747 0)
(208.251 -21.8204 0)
(207.98 -21.9648 0)
(207.729 -22.1092 0)
(207.496 -22.2527 0)
(207.28 -22.3935 0)
(207.083 -22.5287 0)
(206.909 -22.6555 0)
(206.763 -22.7727 0)
(206.646 -22.8813 0)
(206.553 -22.9835 0)
(206.48 -23.0821 0)
(206.417 -23.1796 0)
(206.359 -23.2784 0)
(206.3 -23.3801 0)
(206.242 -23.4856 0)
(206.187 -23.5946 0)
(206.139 -23.7056 0)
(206.1 -23.8161 0)
(206.071 -23.9236 0)
(206.05 -24.026 0)
(206.038 -24.1215 0)
(206.042 -24.2096 0)
(206.037 -24.2917 0)
(206.043 -24.3663 0)
(206.053 -24.4345 0)
(206.066 -24.4978 0)
(206.085 -24.5551 0)
(206.102 -24.6079 0)
(206.116 -24.6558 0)
(206.134 -24.6984 0)
(206.146 -24.7376 0)
(206.154 -24.7717 0)
(206.157 -24.8025 0)
(206.171 -24.8313 0)
(206.179 -24.8583 0)
(206.193 -24.8835 0)
(206.206 -24.9073 0)
(206.214 -24.9303 0)
(206.215 -24.9512 0)
(206.225 -24.9728 0)
(206.23 -24.9948 0)
(206.245 -25.0166 0)
(206.255 -25.041 0)
(206.275 -25.0648 0)
(206.292 -25.0935 0)
(206.321 -25.1211 0)
(206.353 -25.155 0)
(206.397 -25.1885 0)
(206.448 -25.2278 0)
(164.37 -27.698 0)
(210.678 -38.151 0)
(249.747 -26.2939 0)
(254.444 -22.3602 0)
(248.087 -21.5343 0)
(238.227 -21.0462 0)
(230.924 -21.7449 0)
(226.841 -21.5589 0)
(224.373 -21.6345 0)
(222.594 -21.4598 0)
(221.142 -21.3819 0)
(219.902 -21.1955 0)
(218.788 -21.0792 0)
(217.784 -20.9569 0)
(216.864 -20.8896 0)
(216.019 -20.8464 0)
(215.236 -20.8385 0)
(214.508 -20.8547 0)
(213.829 -20.8935 0)
(213.196 -20.9489 0)
(212.605 -21.0189 0)
(212.055 -21.1025 0)
(211.543 -21.1994 0)
(211.066 -21.3085 0)
(210.622 -21.4272 0)
(210.209 -21.5526 0)
(209.827 -21.6834 0)
(209.473 -21.8182 0)
(209.148 -21.9549 0)
(208.85 -22.0904 0)
(208.578 -22.2236 0)
(208.33 -22.3539 0)
(208.104 -22.4822 0)
(207.898 -22.6081 0)
(207.708 -22.7323 0)
(207.531 -22.8552 0)
(207.364 -22.9762 0)
(207.213 -23.0921 0)
(207.082 -23.1988 0)
(206.977 -23.294 0)
(206.897 -23.3789 0)
(206.84 -23.4559 0)
(206.801 -23.5269 0)
(206.772 -23.5937 0)
(206.75 -23.6579 0)
(206.728 -23.721 0)
(206.707 -23.7839 0)
(206.684 -23.847 0)
(206.664 -23.9101 0)
(206.645 -23.9729 0)
(206.624 -24.0335 0)
(206.621 -24.0932 0)
(206.607 -24.1496 0)
(206.598 -24.2035 0)
(206.596 -24.2551 0)
(206.592 -24.3039 0)
(206.6 -24.3496 0)
(206.606 -24.3924 0)
(206.607 -24.4324 0)
(206.616 -24.4695 0)
(206.623 -24.505 0)
(206.621 -24.5381 0)
(206.627 -24.571 0)
(206.638 -24.6032 0)
(206.648 -24.636 0)
(206.665 -24.6681 0)
(206.681 -24.7011 0)
(206.7 -24.7328 0)
(206.706 -24.7678 0)
(206.729 -24.8002 0)
(206.749 -24.8378 0)
(206.782 -24.8731 0)
(206.814 -24.9136 0)
(206.856 -24.9524 0)
(206.902 -24.9952 0)
(206.957 -25.0369 0)
(207.018 -25.0804 0)
(207.087 -25.1225 0)
(207.16 -25.1639 0)
(164.898 -28.7248 0)
(206.104 -36.7844 0)
(244.905 -27.6781 0)
(252.116 -23.9262 0)
(246.964 -22.6857 0)
(237.868 -22.1364 0)
(230.614 -22.6616 0)
(226.556 -22.4411 0)
(224.234 -22.4835 0)
(222.553 -22.247 0)
(221.209 -22.1137 0)
(220.042 -21.8813 0)
(218.97 -21.7355 0)
(217.992 -21.5845 0)
(217.084 -21.4974 0)
(216.241 -21.4347 0)
(215.454 -21.4122 0)
(214.718 -21.414 0)
(214.032 -21.4388 0)
(213.392 -21.4795 0)
(212.799 -21.5346 0)
(212.248 -21.6032 0)
(211.738 -21.6855 0)
(211.266 -21.7805 0)
(210.83 -21.8855 0)
(210.428 -21.9977 0)
(210.058 -22.1149 0)
(209.718 -22.2356 0)
(209.407 -22.3583 0)
(209.123 -22.4803 0)
(208.864 -22.6 0)
(208.63 -22.7163 0)
(208.419 -22.829 0)
(208.231 -22.9372 0)
(208.064 -23.0413 0)
(207.913 -23.142 0)
(207.775 -23.2415 0)
(207.643 -23.3416 0)
(207.516 -23.4424 0)
(207.398 -23.5407 0)
(207.297 -23.6316 0)
(207.216 -23.7117 0)
(207.156 -23.7803 0)
(207.114 -23.8392 0)
(207.087 -23.8909 0)
(207.069 -23.9379 0)
(207.058 -23.9815 0)
(207.051 -24.0234 0)
(207.045 -24.0639 0)
(207.043 -24.1025 0)
(207.03 -24.1419 0)
(207.034 -24.1792 0)
(207.031 -24.2172 0)
(207.022 -24.2553 0)
(207.022 -24.2924 0)
(207.017 -24.3296 0)
(207.023 -24.3653 0)
(207.029 -24.4003 0)
(207.029 -24.4349 0)
(207.035 -24.4687 0)
(207.046 -24.5021 0)
(207.052 -24.5363 0)
(207.057 -24.5722 0)
(207.076 -24.6062 0)
(207.09 -24.6442 0)
(207.117 -24.6789 0)
(207.14 -24.718 0)
(207.17 -24.7522 0)
(207.193 -24.7919 0)
(207.228 -24.827 0)
(207.264 -24.8648 0)
(207.307 -24.899 0)
(207.353 -24.9334 0)
(207.401 -24.9641 0)
(207.45 -24.993 0)
(207.499 -25.0176 0)
(207.545 -25.0388 0)
(207.587 -25.056 0)
(207.623 -25.0686 0)
(165.871 -29.1388 0)
(202.278 -35.2583 0)
(240.163 -28.6821 0)
(249.449 -25.1694 0)
(245.531 -23.6039 0)
(237.265 -23.1196 0)
(230.214 -23.4794 0)
(226.223 -23.249 0)
(224.005 -23.2517 0)
(222.482 -22.9765 0)
(221.213 -22.7978 0)
(220.118 -22.5318 0)
(219.095 -22.3642 0)
(218.152 -22.1935 0)
(217.264 -22.0939 0)
(216.432 -22.018 0)
(215.649 -21.9856 0)
(214.913 -21.9755 0)
(214.223 -21.9877 0)
(213.58 -22.0135 0)
(212.982 -22.0528 0)
(212.43 -22.1046 0)
(211.92 -22.1696 0)
(211.451 -22.2474 0)
(211.02 -22.3361 0)
(210.626 -22.4325 0)
(210.265 -22.5338 0)
(209.936 -22.6382 0)
(209.636 -22.7445 0)
(209.364 -22.8506 0)
(209.117 -22.9548 0)
(208.893 -23.0559 0)
(208.692 -23.1532 0)
(208.514 -23.2458 0)
(208.357 -23.3333 0)
(208.219 -23.4153 0)
(208.098 -23.4929 0)
(207.991 -23.5674 0)
(207.892 -23.6412 0)
(207.795 -23.7167 0)
(207.7 -23.7948 0)
(207.609 -23.8739 0)
(207.529 -23.9497 0)
(207.463 -24.0181 0)
(207.413 -24.0775 0)
(207.377 -24.1282 0)
(207.351 -24.1714 0)
(207.338 -24.209 0)
(207.324 -24.2431 0)
(207.323 -24.2736 0)
(207.314 -24.3055 0)
(207.317 -24.3358 0)
(207.322 -24.366 0)
(207.322 -24.3973 0)
(207.323 -24.4276 0)
(207.327 -24.457 0)
(207.332 -24.4873 0)
(207.345 -24.5144 0)
(207.349 -24.5447 0)
(207.364 -24.5719 0)
(207.376 -24.602 0)
(207.395 -24.6273 0)
(207.406 -24.658 0)
(207.43 -24.6816 0)
(207.453 -24.7099 0)
(207.484 -24.7311 0)
(207.512 -24.7556 0)
(207.543 -24.7735 0)
(207.571 -24.7932 0)
(207.601 -24.8079 0)
(207.629 -24.8226 0)
(207.658 -24.8335 0)
(207.685 -24.8438 0)
(207.711 -24.851 0)
(207.733 -24.8576 0)
(207.753 -24.8615 0)
(207.769 -24.8639 0)
(207.779 -24.8657 0)
(207.785 -24.864 0)
(167.127 -29.2546 0)
(199.297 -33.4967 0)
(235.855 -29.7846 0)
(246.635 -26.1066 0)
(243.842 -24.2594 0)
(236.438 -23.9822 0)
(229.649 -24.1575 0)
(225.768 -23.9459 0)
(223.695 -23.937 0)
(222.313 -23.6417 0)
(221.156 -23.4324 0)
(220.135 -23.1441 0)
(219.16 -22.9614 0)
(218.254 -22.7785 0)
(217.393 -22.6723 0)
(216.58 -22.5894 0)
(215.809 -22.552 0)
(215.079 -22.5339 0)
(214.393 -22.5362 0)
(213.751 -22.5488 0)
(213.153 -22.5727 0)
(212.6 -22.6071 0)
(212.09 -22.6532 0)
(211.622 -22.7116 0)
(211.195 -22.7814 0)
(210.806 -22.8597 0)
(210.453 -22.9434 0)
(210.131 -23.03 0)
(209.84 -23.1184 0)
(209.576 -23.2069 0)
(209.337 -23.2939 0)
(209.122 -23.3783 0)
(208.929 -23.4598 0)
(208.755 -23.5377 0)
(208.602 -23.6113 0)
(208.467 -23.6792 0)
(208.351 -23.7411 0)
(208.251 -23.7976 0)
(208.165 -23.8505 0)
(208.088 -23.9016 0)
(208.016 -23.9523 0)
(207.946 -24.0036 0)
(207.877 -24.0564 0)
(207.81 -24.1107 0)
(207.748 -24.1649 0)
(207.696 -24.2169 0)
(207.652 -24.2632 0)
(207.625 -24.3058 0)
(207.596 -24.3418 0)
(207.586 -24.3747 0)
(207.57 -24.4048 0)
(207.569 -24.4317 0)
(207.571 -24.457 0)
(207.577 -24.478 0)
(207.575 -24.5012 0)
(207.585 -24.519 0)
(207.592 -24.5418 0)
(207.606 -24.5598 0)
(207.613 -24.5831 0)
(207.628 -24.6005 0)
(207.636 -24.6215 0)
(207.65 -24.6353 0)
(207.66 -24.6526 0)
(207.675 -24.6639 0)
(207.69 -24.677 0)
(207.707 -24.6852 0)
(207.723 -24.6944 0)
(207.739 -24.7 0)
(207.754 -24.7058 0)
(207.767 -24.7092 0)
(207.779 -24.7119 0)
(207.789 -24.7126 0)
(207.797 -24.712 0)
(207.802 -24.7089 0)
(207.804 -24.7034 0)
(207.803 -24.6961 0)
(207.798 -24.6872 0)
(207.788 -24.677 0)
(207.773 -24.6656 0)
(168.519 -29.0556 0)
(196.95 -31.9539 0)
(231.949 -30.6659 0)
(243.899 -26.8127 0)
(241.986 -24.7415 0)
(235.392 -24.6694 0)
(229.001 -24.6773 0)
(225.3 -24.5428 0)
(223.382 -24.5497 0)
(222.129 -24.2533 0)
(221.056 -24.0221 0)
(220.107 -23.7221 0)
(219.18 -23.5292 0)
(218.311 -23.3384 0)
(217.479 -23.2286 0)
(216.69 -23.1434 0)
(215.937 -23.1052 0)
(215.22 -23.0833 0)
(214.541 -23.0793 0)
(213.904 -23.0815 0)
(213.308 -23.0919 0)
(212.755 -23.1095 0)
(212.246 -23.1368 0)
(211.779 -23.1749 0)
(211.354 -23.2239 0)
(210.968 -23.2822 0)
(210.619 -23.3465 0)
(210.303 -23.4143 0)
(210.018 -23.4839 0)
(209.761 -23.5536 0)
(209.53 -23.622 0)
(209.322 -23.6884 0)
(209.135 -23.7527 0)
(208.966 -23.8149 0)
(208.814 -23.8747 0)
(208.678 -23.9306 0)
(208.559 -23.9813 0)
(208.456 -24.0262 0)
(208.369 -24.0661 0)
(208.295 -24.1013 0)
(208.232 -24.1334 0)
(208.175 -24.1637 0)
(208.122 -24.194 0)
(208.07 -24.2252 0)
(208.018 -24.2569 0)
(207.969 -24.2893 0)
(207.923 -24.3203 0)
(207.885 -24.3526 0)
(207.846 -24.38 0)
(207.825 -24.4086 0)
(207.799 -24.4327 0)
(207.794 -24.4558 0)
(207.784 -24.4779 0)
(207.785 -24.4946 0)
(207.778 -24.5142 0)
(207.782 -24.5281 0)
(207.787 -24.5429 0)
(207.796 -24.5512 0)
(207.801 -24.5605 0)
(207.807 -24.5651 0)
(207.811 -24.5711 0)
(207.816 -24.5734 0)
(207.821 -24.5762 0)
(207.827 -24.5766 0)
(207.832 -24.5771 0)
(207.837 -24.5757 0)
(207.841 -24.5736 0)
(207.843 -24.5693 0)
(207.845 -24.565 0)
(207.844 -24.5589 0)
(207.84 -24.5524 0)
(207.834 -24.545 0)
(207.826 -24.5369 0)
(207.814 -24.5282 0)
(207.8 -24.5193 0)
(207.783 -24.5104 0)
(207.766 -24.5022 0)
(207.751 -24.495 0)
(207.737 -24.4892 0)
(169.868 -28.6509 0)
(195.147 -30.5899 0)
(228.6 -31.4848 0)
(241.43 -27.4916 0)
(240.135 -25.159 0)
(234.369 -25.1961 0)
(228.307 -25.0332 0)
(224.706 -25.0042 0)
(222.95 -25.0452 0)
(221.868 -24.7894 0)
(220.922 -24.5683 0)
(220.03 -24.2694 0)
(219.149 -24.0668 0)
(218.316 -23.8718 0)
(217.514 -23.7602 0)
(216.751 -23.6761 0)
(216.019 -23.6404 0)
(215.321 -23.6186 0)
(214.657 -23.6119 0)
(214.03 -23.6069 0)
(213.442 -23.6066 0)
(212.894 -23.6097 0)
(212.388 -23.6196 0)
(211.923 -23.6377 0)
(211.5 -23.6653 0)
(211.116 -23.702 0)
(210.769 -23.7454 0)
(210.456 -23.7932 0)
(210.174 -23.8433 0)
(209.921 -23.8939 0)
(209.693 -23.9436 0)
(209.489 -23.9919 0)
(209.306 -24.0388 0)
(209.141 -24.0844 0)
(208.992 -24.1289 0)
(208.857 -24.1716 0)
(208.735 -24.2114 0)
(208.627 -24.2474 0)
(208.532 -24.2789 0)
(208.451 -24.3051 0)
(208.383 -24.3263 0)
(208.327 -24.3436 0)
(208.279 -24.359 0)
(208.235 -24.3735 0)
(208.195 -24.3883 0)
(208.156 -24.4033 0)
(208.117 -24.4183 0)
(208.08 -24.4349 0)
(208.043 -24.4502 0)