/*--------------------------------*- C++ -*----------------------------------*\
| =========                 |                                                 |
| \\      /  F ield         | OpenFOAM: The Open Source CFD Toolbox           |
|  \\    /   O peration     | Version:  2412                                  |
|   \\  /    A nd           | Website:  www.openfoam.com                      |
|    \\/     M anipulation  |                                                 |
\*---------------------------------------------------------------------------*/
FoamFile
{
    version     2.0;
    format      ascii;
    arch        "LSB;label=32;scalar=64";
    class       volScalarField;
    location    "0.026";
    object      p;
}
// * * * * * * * * * * * * * * * * * * * * * * * * * * * * * * * * * * * * * //

dimensions      [1 -1 -2 0 0 0 0];

internalField   nonuniform List<scalar> 
78650
(
2790
2790
2790
2790
2790
2790
2790
2790
2790
2790
2790
2790
2790
2790
2790.05
2791.15
2798.87
2818.37
2838.5
2848.03
2847.98
2843.14
2827.45
2809.68
2795.46
2785.09
2778.18
2774.08
2771.18
2767.99
2763.91
2759.26
2754.68
2750.49
2746.59
2743.02
2739.9
2737.28
2734.98
2732.88
2730.88
2729.06
2727.43
2726.01
2724.78
2723.67
2722.67
2721.81
2721.12
2720.61
2720.25
2719.99
2719.78
2719.63
2719.53
2719.46
2719.41
2719.35
2719.29
2719.22
2719.14
2719
2718.75
2718.33
2717.66
2716.75
2715.56
2714.08
2712.25
2710.01
2707.31
2704.08
2700.26
2695.75
2690.48
2684.35
2677.29
2669.2
2659.98
2649.52
2637.68
2624.33
2609.33
2592.53
2573.78
2552.97
2529.86
2504.31
2476.1
2445.46
2412.09
2375.96
2336.09
2293.43
2247.07
2198.12
2145.64
2090.06
2032.94
1974.48
1915.79
1855.31
1792.81
1729.89
1666.53
1601.99
1541.68
1482.96
1428.18
1376.99
1327.05
1282.75
1241.43
1201.66
1166.92
1136.37
1110.64
1086.64
1065.09
1046.33
1007.31
2790
2790
2790
2790
2790
2790
2790
2790
2790
2790
2790
2790
2790
2790
2790.02
2790.66
2796.35
2813.96
2835.75
2847.91
2849.03
2846.11
2832.27
2814.55
2799.76
2788.77
2781.3
2776.85
2773.96
2771.03
2767.3
2762.91
2758.5
2754.48
2750.76
2747.35
2744.34
2741.82
2739.65
2737.66
2735.77
2734.03
2732.47
2731.13
2729.98
2728.97
2728.11
2727.39
2726.86
2726.51
2726.34
2726.29
2726.3
2726.38
2726.51
2726.69
2726.92
2727.15
2727.4
2727.65
2727.92
2728.15
2728.3
2728.32
2728.15
2727.75
2727.12
2726.21
2725.01
2723.45
2721.49
2719.07
2716.11
2712.56
2708.32
2703.31
2697.45
2690.66
2682.86
2673.92
2663.73
2652.16
2639.08
2624.35
2607.8
2589.3
2568.63
2545.72
2520.34
2492.48
2461.69
2428.06
2391.15
2351.61
2308.38
2262.81
2213.53
2161.15
2105.19
2046.03
1984.71
1923.14
1861.64
1799.6
1740.23
1677.62
1616.89
1556.51
1495.59
1439.55
1385.3
1334.27
1287.5
1243.29
1203.48
1168.19
1138.15
1111.1
1087.33
1066.34
1026.12
2790
2790
2790
2790
2790
2790
2790
2790
2790
2790
2790
2790
2790
2790
2790.01
2790.36
2794.31
2809.5
2832.19
2847.31
2850.08
2848.43
2837
2819.71
2804.27
2792.5
2784.41
2779.57
2776.69
2774.04
2770.7
2766.65
2762.45
2758.6
2755.07
2751.82
2748.92
2746.49
2744.42
2742.54
2740.75
2739.1
2737.61
2736.34
2735.27
2734.37
2733.64
2733.07
2732.69
2732.53
2732.55
2732.71
2732.95
2733.25
2733.62
2734.06
2734.56
2735.09
2735.64
2736.22
2736.83
2737.44
2737.99
2738.44
2738.73
2738.84
2738.75
2738.42
2737.85
2736.95
2735.71
2734.05
2731.94
2729.29
2726.04
2722.09
2717.38
2711.81
2705.33
2697.81
2689.15
2679.24
2667.93
2655.1
2640.58
2624.25
2605.9
2585.44
2562.66
2537.52
2509.66
2479.06
2445.33
2408.96
2369.41
2327.56
2281.85
2233.34
2181.32
2125.63
2065.96
2002.82
1938.48
1871.97
1806.53
1741.86
1676.28
1615.74
1553.55
1494.22
1438.06
1383.11
1331.57
1283.01
1237.05
1194.78
1157.92
1124.48
1096.7
1073.82
1027.09
2790
2790
2790
2790
2790
2790
2790
2790
2790
2790
2790
2790
2790
2790
2790
2790.18
2792.74
2805.12
2827.84
2845.96
2850.76
2850.39
2841.77
2825.28
2809.05
2796.33
2787.6
2782.33
2779.46
2777.11
2774.22
2770.56
2766.62
2762.94
2759.59
2756.48
2753.67
2751.3
2749.3
2747.52
2745.82
2744.25
2742.83
2741.64
2740.65
2739.86
2739.26
2738.84
2738.63
2738.64
2738.85
2739.21
2739.67
2740.2
2740.82
2741.51
2742.28
2743.09
2743.94
2744.83
2745.76
2746.73
2747.67
2748.54
2749.29
2749.87
2750.28
2750.5
2750.52
2750.27
2749.72
2748.81
2747.5
2745.72
2743.41
2740.49
2736.89
2732.52
2727.33
2721.21
2714.07
2705.8
2696.27
2685.35
2672.9
2658.76
2642.76
2624.82
2604.71
2582.27
2557.16
2529.41
2498.83
2465.63
2429.11
2389.66
2346.16
2300.2
2250.53
2198.19
2143.41
2084.75
2024.48
1959.97
1892.69
1826.75
1757.04
1689.18
1623.41
1557.67
1497.56
1437.47
1381.04
1330.68
1284.42
1241.98
1202.79
1165
1131.31
1102.34
1045.99
2790
2790
2790
2790
2790
2790
2790
2790
2790
2790
2790
2790
2790
2790
2790
2790.08
2791.6
2801.07
2822.77
2843.63
2851.02
2852.3
2846.33
2830.94
2813.89
2800.22
2790.91
2785.21
2782.34
2780.29
2777.86
2774.64
2770.99
2767.49
2764.3
2761.33
2758.59
2756.26
2754.33
2752.62
2751.01
2749.52
2748.18
2747.06
2746.17
2745.5
2745.03
2744.77
2744.73
2744.92
2745.3
2745.87
2746.56
2747.33
2748.18
2749.13
2750.16
2751.25
2752.4
2753.59
2754.85
2756.16
2757.49
2758.77
2759.95
2761.01
2761.93
2762.68
2763.25
2763.61
2763.73
2763.55
2763.02
2762.08
2760.68
2758.73
2756.18
2752.95
2748.98
2744.17
2738.45
2731.7
2723.81
2714.66
2704.11
2692.03
2678.24
2662.63
2644.98
2625.18
2602.97
2578.35
2550.98
2520.87
2487.43
2450.91
2410.48
2367.2
2319.8
2269.69
2215.89
2159.12
2099.2
2037.53
1973.74
1909.22
1843.6
1774.74
1709.59
1641
1574.9
1510.94
1447.43
1388.79
1332.04
1281.01
1237.4
1198.13
1164.44
1135.02
1078.46
2790
2790
2790
2790
2790
2790
2790
2790
2790
2790
2790
2790
2790
2790
2790
2790.04
2790.85
2797.54
2817.1
2840.25
2850.94
2854.1
2850.37
2836.57
2818.93
2804.43
2794.57
2788.39
2785.43
2783.62
2781.63
2778.9
2775.59
2772.27
2769.22
2766.35
2763.67
2761.35
2759.45
2757.81
2756.3
2754.9
2753.64
2752.61
2751.81
2751.27
2750.95
2750.86
2751
2751.35
2751.92
2752.69
2753.59
2754.6
2755.7
2756.89
2758.19
2759.56
2760.99
2762.48
2764.05
2765.7
2767.38
2769.06
2770.67
2772.18
2773.57
2774.84
2775.97
2776.93
2777.66
2778.15
2778.36
2778.24
2777.71
2776.73
2775.19
2773.06
2770.26
2766.74
2762.41
2757.16
2750.9
2743.52
2734.88
2724.86
2713.27
2700
2684.86
2667.72
2648.32
2626.61
2602.27
2575.23
2545.02
2511.85
2475.17
2435.69
2392.33
2346.09
2295.3
2241.13
2183.35
2121.43
2056.37
1987
1919.52
1849.17
1781.23
1712.42
1642.24
1576.84
1510.95
1449.83
1389.14
1330.37
1276.82
1228.13
1187.47
1153.45
1084.54
2790
2790
2790
2790
2790
2790
2790
2790
2790
2790
2790
2790
2790
2790
2790
2790.01
2790.41
2794.72
2811.18
2835.67
2850.51
2855.67
2853.34
2841.95
2824.32
2809.1
2798.57
2791.85
2788.68
2787.06
2785.49
2783.27
2780.35
2777.21
2774.27
2771.49
2768.84
2766.52
2764.65
2763.07
2761.65
2760.35
2759.21
2758.28
2757.6
2757.2
2757.04
2757.14
2757.46
2757.98
2758.74
2759.7
2760.82
2762.06
2763.39
2764.84
2766.39
2768.03
2769.75
2771.54
2773.42
2775.39
2777.43
2779.49
2781.51
2783.47
2785.33
2787.1
2788.76
2790.29
2791.65
2792.81
2793.71
2794.32
2794.61
2794.55
2794
2792.94
2791.25
2788.93
2785.89
2782.04
2777.29
2771.53
2764.65
2756.52
2746.98
2735.91
2723.11
2708.5
2691.87
2673.12
2651.88
2628.05
2601.26
2571.7
2538.88
2503.17
2463.57
2420.8
2373.66
2323.57
2269.41
2211.7
2151.07
2085.45
2016.95
1945.25
1870.89
1799.43
1724.4
1654.26
1584.06
1515.56
1451.42
1390.56
1334.95
1283.21
1236.92
1196.81
1115.78
2790
2790
2790
2790
2790
2790
2790
2790
2790
2790
2790
2790
2790
2790
2790
2790
2790.17
2792.67
2805.44
2829.86
2849.13
2856.61
2855.46
2847.18
2830.33
2814.4
2802.95
2795.61
2792.12
2790.64
2789.46
2787.75
2785.23
2782.27
2779.39
2776.67
2774.05
2771.72
2769.88
2768.37
2767.08
2765.9
2764.88
2764.07
2763.52
2763.28
2763.3
2763.6
2764.08
2764.79
2765.73
2766.88
2768.21
2769.67
2771.24
2772.93
2774.73
2776.64
2778.64
2780.71
2782.89
2785.17
2787.55
2789.97
2792.4
2794.78
2797.1
2799.34
2801.51
2803.59
2805.54
2807.32
2808.91
2810.28
2811.35
2812.08
2812.46
2812.45
2811.86
2810.74
2808.94
2806.46
2803.18
2799.03
2793.89
2787.65
2780.14
2771.25
2760.8
2748.71
2734.72
2718.71
2700.38
2679.63
2656.17
2630.02
2600.69
2568.3
2532.02
2492.37
2448.39
2401.21
2349.6
2294.76
2236.08
2174.1
2107.97
2039.92
1969.01
1898.03
1824.04
1748.2
1675.25
1599.56
1528.26
1459.54
1395.78
1338.39
1287.74
1244.63
1162.12
2790
2790
2790
2790
2790
2790
2790
2790
2790
2790
2790
2790
2790
2790
2790
2790
2790.06
2791.35
2800.36
2823.03
2846.16
2856.82
2857.09
2852.12
2836.71
2820.06
2807.59
2799.67
2795.75
2794.33
2793.42
2792.15
2790.05
2787.27
2784.43
2781.78
2779.22
2776.91
2775.11
2773.71
2772.55
2771.52
2770.66
2769.99
2769.6
2769.5
2769.75
2770.21
2770.9
2771.79
2772.91
2774.25
2775.78
2777.46
2779.25
2781.17
2783.22
2785.39
2787.66
2790.02
2792.49
2795.07
2797.78
2800.56
2803.38
2806.18
2808.93
2811.64
2814.3
2816.9
2819.42
2821.82
2824.06
2826.12
2827.96
2829.54
2830.77
2831.62
2832.07
2832.1
2831.5
2830.32
2828.4
2825.72
2822.16
2817.64
2812.02
2805.16
2796.9
2787.15
2775.69
2762.43
2747.1
2729.58
2709.55
2686.94
2661.25
2632.52
2600.13
2564.46
2524.71
2481.45
2433.67
2382.41
2326.28
2265.95
2201.62
2132.89
2060.78
1983.85
1908.93
1829.58
1755.1
1677.26
1602.48
1528.42
1456.46
1390.39
1329.77
1278.67
1174.31
2790
2790
2790
2790
2790
2790
2790
2790
2790
2790
2790
2790
2790
2790
2790
2790
2790.02
2790.6
2796.31
2815.71
2841.32
2856.28
2858.73
2856.23
2843.03
2826.13
2812.78
2804.19
2799.63
2798.02
2797.23
2796.29
2794.62
2792.12
2789.39
2786.85
2784.4
2782.15
2780.41
2779.13
2778.14
2777.28
2776.59
2776.07
2775.84
2775.92
2776.35
2777
2777.88
2778.96
2780.25
2781.77
2783.49
2785.38
2787.39
2789.53
2791.82
2794.23
2796.77
2799.4
2802.14
2805.02
2808.03
2811.15
2814.34
2817.53
2820.71
2823.87
2827
2830.1
2833.16
2836.13
2839
2841.72
2844.28
2846.62
2848.72
2850.51
2851.91
2852.91
2853.47
2853.57
2853.01
2851.8
2849.8
2846.97
2843.17
2838.3
2832.19
2824.74
2815.74
2805.1
2792.56
2778.02
2761.16
2741.92
2719.82
2694.9
2666.64
2635.27
2600.02
2561.24
2518.01
2471.02
2419.17
2363.47
2303.04
2238.24
2170.06
2096.35
2021.79
1941.11
1860
1779.9
1698.07
1620.44
1542.88
1471.98
1406.12
1349.48
1234.19
2790
2790
2790
2790
2790
2790
2790
2790
2790
2790
2790
2790
2790
2790
2790
2790
2790.01
2790.23
2793.44
2808.55
2834.93
2854.62
2860.02
2859.1
2849.15
2832.76
2818.55
2808.91
2803.46
2801.46
2800.72
2800.09
2798.94
2796.84
2794.33
2791.95
2789.65
2787.49
2785.82
2784.66
2783.83
2783.17
2782.68
2782.32
2782.23
2782.52
2783.1
2783.95
2785.01
2786.27
2787.74
2789.43
2791.33
2793.42
2795.65
2798
2800.51
2803.16
2805.95
2808.85
2811.86
2815.02
2818.33
2821.77
2825.32
2828.9
2832.49
2836.07
2839.65
2843.24
2846.81
2850.34
2853.8
2857.16
2860.4
2863.49
2866.37
2869.01
2871.35
2873.37
2874.97
2876.14
2876.81
2876.97
2876.43
2875.18
2873.07
2870.02
2865.9
2860.58
2853.91
2845.78
2836
2824.44
2810.8
2794.92
2776.37
2755.16
2730.78
2703.33
2672.09
2637.24
2597.98
2554.82
2506.84
2454.79
2397.43
2335.56
2269.21
2199.24
2123.52
2044.38
1960.93
1880.13
1794.04
1712.88
1629.6
1551.69
1478.36
1416.43
1298.89
2790
2790
2790
2790
2790
2790
2790
2790
2790
2790
2790
2790
2790
2790
2790
2790
2790
2790.08
2791.65
2802.25
2827.27
2851.42
2860.29
2861.3
2855.01
2839.83
2824.52
2813.49
2807.12
2804.69
2804.03
2803.7
2803.12
2801.55
2799.35
2797.16
2795.05
2792.99
2791.38
2790.36
2789.69
2789.25
2788.95
2788.78
2788.83
2789.27
2790.01
2791.03
2792.27
2793.69
2795.33
2797.18
2799.26
2801.54
2803.97
2806.53
2809.24
2812.12
2815.14
2818.29
2821.57
2824.99
2828.58
2832.33
2836.2
2840.15
2844.13
2848.12
2852.14
2856.17
2860.23
2864.29
2868.31
2872.27
2876.16
2879.94
2883.57
2887.03
2890.25
2893.19
2895.83
2898.12
2899.97
2901.34
2902.18
2902.46
2902.01
2900.76
2898.57
2895.32
2890.88
2885.14
2877.92
2869.08
2858.35
2845.6
2830.49
2813
2792.65
2769.43
2742.65
2712.4
2677.98
2639.65
2596.57
2549.1
2496.27
2439.03
2376.43
2308.88
2236.24
2158.94
2075.83
1990.29
1900.09
1810.49
1718.98
1633.52
1550.91
1478.74
1334.03
2790
2790
2790
2790
2790
2790
2790
2790
2790
2790
2790
2790
2790
2790
2790
2790
2790
2790.02
2790.7
2797.3
2818.99
2846.38
2859.63
2863.49
2860.13
2846.66
2830.3
2818.02
2810.9
2807.97
2807.33
2807.22
2807.17
2806.22
2804.45
2802.5
2800.59
2798.68
2797.13
2796.23
2795.72
2795.49
2795.41
2795.41
2795.61
2796.17
2797.04
2798.21
2799.6
2801.19
2802.98
2805
2807.25
2809.71
2812.33
2815.09
2818
2821.09
2824.34
2827.73
2831.25
2834.93
2838.79
2842.82
2847.01
2851.31
2855.66
2860.05
2864.48
2868.95
2873.47
2878.03
2882.58
2887.12
2891.62
2896.05
2900.39
2904.61
2908.65
2912.48
2916.07
2919.36
2922.32
2924.9
2927
2928.58
2929.59
2929.98
2929.6
2928.29
2925.97
2922.46
2917.68
2911.5
2903.68
2894.12
2882.48
2868.66
2852.17
2832.96
2810.42
2784.63
2754.9
2721.36
2683.29
2640.81
2593
2540.44
2482.12
2418.86
2349.86
2275.58
2197
2111.23
2024.51
1933.69
1843.76
1753.79
1667.51
1589.39
1437.65
2790
2790
2790
2790
2790
2790
2790
2790
2790
2790
2790
2790
2790
2790
2790
2790
2790
2790.01
2790.26
2793.89
2810.89
2839.56
2858.39
2865.22
2863.45
2852.88
2836.27
2822.92
2815.02
2811.41
2810.65
2810.72
2811.15
2810.77
2809.55
2807.94
2806.32
2804.59
2803.11
2802.3
2801.92
2801.85
2802.02
2802.18
2802.51
2803.17
2804.16
2805.45
2806.97
2808.71
2810.65
2812.82
2815.23
2817.86
2820.66
2823.61
2826.72
2830
2833.46
2837.08
2840.84
2844.76
2848.86
2853.17
2857.65
2862.27
2866.97
2871.74
2876.56
2881.44
2886.4
2891.42
2896.47
2901.55
2906.61
2911.66
2916.66
2921.59
2926.41
2931.07
2935.54
2939.8
2943.8
2947.49
2950.82
2953.74
2956.17
2958.03
2959.26
2959.79
2959.52
2958.17
2955.73
2951.99
2946.85
2940.15
2931.63
2921.14
2908.26
2892.9
2874.54
2853.18
2828.14
2799.44
2766.34
2728.86
2686.16
2638.48
2584.79
2526.03
2461.17
2390.29
2312.49
2228.61
2140.95
2045.09
1948.03
1843.45
1748.42
1665.12
1500.87
2790
2790
2790
2790
2790
2790
2790
2790
2790
2790
2790
2790
2790
2790
2790
2790
2790
2790
2790.08
2791.85
2803.86
2831.46
2855.95
2865.89
2865.56
2858.54
2842.6
2828.23
2819.28
2814.84
2813.81
2814.17
2815.14
2815.25
2814.65
2813.44
2812.12
2810.6
2809.19
2808.42
2808.15
2808.22
2808.6
2808.91
2809.37
2810.13
2811.22
2812.61
2814.27
2816.15
2818.24
2820.57
2823.13
2825.93
2828.91
2832.05
2835.34
2838.82
2842.48
2846.31
2850.3
2854.46
2858.8
2863.36
2868.13
2873.05
2878.08
2883.2
2888.4
2893.68
2899.04
2904.5
2910.03
2915.61
2921.22
2926.84
2932.46
2938.05
2943.59
2949.02
2954.32
2959.47
2964.42
2969.14
2973.58
2977.69
2981.41
2984.71
2987.48
2989.6
2991.03
2991.68
2991.5
2990.1
2987.57
2983.59
2978.07
2970.8
2961.47
2949.96
2935.8
2918.96
2898.78
2875.22
2847.53
2815.66
2778.86
2737.11
2689.49
2636.48
2577.03
2511.67
2439.53
2361.01
2276.06
2185.81
2090.61
1990.58
1885.59
1789.75
1605.29
2790
2790
2790
2790
2790
2790
2790
2790
2790
2790
2790
2790
2790
2790
2790
2790
2790
2790
2790.02
2790.79
2798.44
2822.86
2851.53
2865.66
2867.28
2863.48
2848.96
2833.57
2823.43
2818.27
2816.98
2817.61
2819.25
2819.83
2819.62
2818.8
2817.77
2816.5
2815.19
2814.44
2814.24
2814.45
2815
2815.46
2816.05
2816.93
2818.12
2819.63
2821.43
2823.46
2825.71
2828.19
2830.92
2833.87
2837.03
2840.35
2843.83
2847.48
2851.34
2855.38
2859.59
2863.96
2868.54
2873.33
2878.35
2883.56
2888.9
2894.35
2899.9
2905.54
2911.29
2917.16
2923.12
2929.17
2935.28
2941.43
2947.62
2953.83
2960.03
2966.18
2972.25
2978.22
2984.06
2989.75
2995.22
3000.45
3005.39
3009.99
3014.19
3017.91
3021.05
3023.47
3025.13
3025.94
3025.89
3024.44
3021.77
3017.49
3011.5
3003.61
2993.41
2980.75
2965.02
2946.12
2923.32
2896.58
2865.15
2828.87
2786.91
2739.34
2685.07
2624.68
2557.16
2482.75
2399.57
2309.31
2212.59
2117.04
2005.19
1912.1
1739.58
2790
2790
2790
2790
2790
2790
2790
2790
2790
2790
2790
2790
2790
2790
2790
2790
2790
2790
2790.01
2790.3
2794.73
2814.64
2845.43
2864.5
2869.07
2867.22
2854.74
2838.73
2827.56
2821.86
2820.31
2821.05
2823.27
2824.28
2824.23
2823.75
2823.03
2822.05
2820.9
2820.17
2820.01
2820.35
2821.06
2821.68
2822.42
2823.42
2824.74
2826.39
2828.33
2830.52
2832.94
2835.59
2838.47
2841.59
2844.92
2848.42
2852.08
2855.93
2859.97
2864.21
2868.63
2873.23
2878.02
2883.05
2888.31
2893.78
2899.42
2905.19
2911.06
2917.06
2923.17
2929.42
2935.8
2942.28
2948.86
2955.51
2962.23
2969.01
2975.82
2982.63
2989.41
2996.13
3002.79
3009.36
3015.78
3022.03
3028.07
3033.85
3039.33
3044.45
3049.11
3053.25
3056.78
3059.5
3061.43
3062.41
3062.49
3061.03
3058.21
3053.6
3047
3038.22
3026.75
3012.52
2994.85
2973.68
2948.2
2918.2
2882.85
2841.94
2794.56
2740.95
2679.61
2610.92
2533.7
2449.86
2356.28
2259.12
2146.67
2038.68
1845.45
2790
2790
2790
2790
2790
2790
2790
2790
2790
2790
2790
2790
2790
2790
2790
2790
2790
2790
2790
2790.11
2792.47
2807.52
2838.34
2862.51
2870.35
2869.54
2859.82
2843.89
2831.91
2825.6
2823.65
2824.23
2826.79
2828.3
2828.43
2828.28
2827.88
2827.23
2826.29
2825.6
2825.48
2825.95
2826.79
2827.56
2828.44
2829.59
2831.05
2832.85
2834.95
2837.32
2839.91
2842.73
2845.77
2849.05
2852.55
2856.24
2860.09
2864.12
2868.35
2872.79
2877.42
2882.23
2887.24
2892.48
2897.97
2903.69
2909.6
2915.66
2921.84
2928.16
2934.61
2941.21
2947.96
2954.85
2961.85
2968.96
2976.17
2983.47
2990.83
2998.24
3005.67
3013.09
3020.5
3027.86
3035.16
3042.34
3049.39
3056.27
3062.94
3069.34
3075.41
3081.08
3086.26
3090.87
3094.82
3097.9
3100.13
3101.32
3101.48
3099.97
3096.9
3091.87
3084.6
3074.96
3062.29
3046.46
3026.61
3002.56
2973.43
2938.89
2898.03
2850.73
2795.81
2733.6
2662.58
2583.54
2494.84
2398.25
2294.14
2190.14
2013.3
2790
2790
2790
2790
2790
2790
2790
2790
2790
2790
2790
2790
2790
2790
2790
2790
2790
2790
2790
2790.04
2791.22
2801.92
2831
2859.7
2870.67
2871.17
2864.38
2849.1
2836.34
2829.14
2826.61
2826.91
2829.72
2831.97
2832.48
2832.56
2832.5
2832.16
2831.44
2830.81
2830.71
2831.31
2832.26
2833.18
2834.21
2835.49
2837.09
2839.04
2841.3
2843.83
2846.58
2849.56
2852.76
2856.2
2859.87
2863.74
2867.78
2872.01
2876.43
2881.07
2885.91
2890.92
2896.14
2901.59
2907.3
2913.25
2919.42
2925.74
2932.22
2938.83
2945.6
2952.54
2959.64
2966.89
2974.3
2981.83
2989.49
2997.26
3005.14
3013.1
3021.12
3029.18
3037.26
3045.36
3053.44
3061.47
3069.43
3077.29
3085.02
3092.57
3099.9
3106.94
3113.62
3119.86
3125.58
3130.69
3135.1
3138.59
3141.13
3142.53
3142.78
3141.21
3137.83
3132.25
3124.02
3112.98
3098.34
3079.95
3056.9
3028.9
2994.98
2954.75
2907.1
2852.15
2788.4
2715.64
2631.03
2537.67
2431.94
2321.32
2143.76
2790
2790
2790
2790
2790
2790
2790
2790
2790
2790
2790
2790
2790
2790
2790
2790
2790
2790
2790
2790.01
2790.59
2797.88
2824.05
2856.07
2870.25
2872.76
2868.42
2854.05
2840.29
2832.24
2829.18
2829.28
2832.37
2835.48
2836.51
2836.84
2837.01
2836.9
2836.38
2835.83
2835.78
2836.52
2837.61
2838.68
2839.84
2841.24
2842.96
2845.02
2847.41
2850.08
2852.98
2856.09
2859.44
2863.04
2866.88
2870.93
2875.17
2879.58
2884.2
2889.03
2894.07
2899.29
2904.71
2910.36
2916.28
2922.45
2928.85
2935.44
2942.18
2949.07
2956.14
2963.37
2970.79
2978.39
2986.15
2994.07
3002.13
3010.34
3018.68
3027.14
3035.69
3044.32
3053.01
3061.76
3070.55
3079.34
3088.13
3096.87
3105.55
3114.14
3122.6
3130.88
3138.91
3146.63
3153.96
3160.84
3167.16
3172.84
3177.76
3181.68
3184.55
3186.15
3186.44
3184.69
3180.83
3174.5
3165.19
3152.69
3136.1
3115.11
3088.66
3056.24
3016.67
2969.58
2913.49
2847.98
2771.91
2686.95
2587.95
2483.65
2319.69
2790
2790
2790
2790
2790
2790
2790
2790
2790
2790
2790
2790
2790
2790
2790
2790
2790
2790
2790
2790.01
2790.29
2795.19
2817.98
2852
2869.49
2874.45
2871.75
2858.13
2843.56
2834.98
2831.58
2831.61
2834.99
2839
2840.56
2841.08
2841.38
2841.43
2841.09
2840.67
2840.71
2841.65
2842.9
2844.13
2845.43
2846.93
2848.73
2850.89
2853.37
2856.13
2859.14
2862.37
2865.85
2869.59
2873.59
2877.82
2882.24
2886.84
2891.65
2896.67
2901.9
2907.32
2912.93
2918.78
2924.89
2931.28
2937.9
2944.72
2951.71
2958.86
2966.2
2973.71
2981.43
2989.33
2997.43
3005.7
3014.13
3022.73
3031.49
3040.4
3049.44
3058.58
3067.82
3077.16
3086.58
3096.06
3105.58
3115.11
3124.65
3134.16
3143.62
3152.98
3162.2
3171.23
3179.99
3188.43
3196.46
3204.03
3211.01
3217.29
3222.77
3227.13
3230.34
3232.13
3232.45
3230.47
3226.13
3218.86
3207.99
3193.15
3173.3
3147.9
3115.7
3076.28
3028.22
2970.68
2902.06
2820.63
2725.88
2618.17
2467.01
2790
2790
2790
2790
2790
2790
2790
2790
2790
2790
2790
2790
2790
2790
2790
2790
2790
2790
2790
2790
2790.15
2793.5
2813.1
2847.99
2868.88
2875.96
2874
2861.34
2846.36
2837.47
2833.93
2834
2837.69
2842.49
2844.47
2845.1
2845.51
2845.7
2845.52
2845.28
2845.56
2846.71
2848.18
2849.6
2851.03
2852.62
2854.49
2856.7
2859.24
2862.06
2865.14
2868.46
2872.05
2875.92
2880.06
2884.45
2889.04
2893.82
2898.8
2904
2909.41
2915.02
2920.82
2926.85
2933.16
2939.74
2946.57
2953.6
2960.82
2968.21
2975.8
2983.57
2991.55
2999.74
3008.14
3016.72
3025.49
3034.45
3043.58
3052.89
3062.36
3071.96
3081.69
3091.55
3101.53
3111.61
3121.78
3132.01
3142.3
3152.62
3162.96
3173.28
3183.55
3193.72
3203.74
3213.56
3223.11
3232.35
3241.16
3249.48
3257.19
3264.13
3270.21
3275.04
3278.6
3280.53
3280.8
3278.34
3273.06
3264.26
3251.36
3233.63
3209.89
3179.38
3140.38
3092.13
3032.38
2959.03
2873.29
2769.02
2629.36
2790
2790
2790
2790
2790
2790
2790
2790
2790
2790
2790
2790
2790
2790
2790
2790
2790
2790
2790
2790
2790.09
2792.5
2809.52
2844.5
2868.54
2877.05
2875.54
2863.83
2848.69
2839.7
2836.22
2836.42
2840.43
2845.88
2848.15
2848.81
2849.32
2849.7
2849.72
2849.72
2850.27
2851.67
2853.41
2855.04
2856.61
2858.29
2860.22
2862.47
2865.05
2867.91
2871.04
2874.43
2878.11
2882.08
2886.34
2890.86
2895.6
2900.53
2905.67
2911.03
2916.61
2922.39
2928.37
2934.58
2941.06
2947.82
2954.84
2962.08
2969.5
2977.12
2984.93
2992.94
3001.17
3009.61
3018.27
3027.14
3036.22
3045.49
3054.96
3064.63
3074.47
3084.49
3094.65
3104.97
3115.45
3126.07
3136.81
3147.66
3158.61
3169.64
3180.75
3191.91
3203.1
3214.26
3225.38
3236.39
3247.26
3257.94
3268.35
3278.45
3288.1
3297.25
3305.74
3313.41
3320.13
3325.43
3329.34
3331.44
3331.68
3328.65
3322.53
3311.96
3296.48
3274.88
3245.58
3207.57
3157.33
3092.67
3013.17
2913.39
2780.47
2790
2790
2790
2790
2790
2790
2790
2790
2790
2790
2790
2790
2790
2790
2790
2790
2790
2790
2790
2790
2790.07
2791.95
2807.15
2841.91
2868.43
2877.89
2876.68
2865.63
2850.53
2841.7
2838.35
2838.75
2843.22
2849.13
2851.59
2852.27
2852.89
2853.48
2853.73
2853.98
2854.81
2856.5
2858.5
2860.34
2862.07
2863.85
2865.85
2868.16
2870.77
2873.68
2876.86
2880.31
2884.06
2888.12
2892.48
2897.11
2901.96
2907.02
2912.3
2917.8
2923.53
2929.47
2935.61
2941.98
2948.63
2955.56
2962.75
2970.17
2977.79
2985.61
2993.62
3001.85
3010.3
3018.98
3027.89
3037.02
3046.36
3055.92
3065.69
3075.67
3085.86
3096.23
3106.78
3117.51
3128.42
3139.51
3150.75
3162.14
3173.67
3185.33
3197.1
3208.99
3220.96
3232.99
3245.04
3257.09
3269.09
3281.01
3292.8
3304.42
3315.78
3326.82
3337.41
3347.47
3356.82
3365.3
3372.76
3378.62
3382.94
3385.1
3385.13
3380.84
3372.91
3359.24
3339.1
3310.94
3271.16
3217.6
3146.49
3053.99
2929.01
2790
2790
2790
2790
2790
2790
2790
2790
2790
2790
2790
2790
2790
2790
2790
2790
2790
2790
2790
2790
2790.05
2791.73
2805.94
2840.53
2868.59
2878.65
2877.59
2866.82
2851.88
2843.43
2840.26
2840.95
2846.07
2852.31
2854.9
2855.61
2856.35
2857.12
2857.59
2858.06
2859.13
2861.09
2863.32
2865.36
2867.23
2869.13
2871.23
2873.63
2876.33
2879.31
2882.56
2886.09
2889.91
2894.04
2898.48
2903.19
2908.14
2913.31
2918.69
2924.32
2930.18
2936.26
2942.54
2949.06
2955.86
2962.94
2970.3
2977.89
2985.69
2993.68
3001.89
3010.32
3018.97
3027.86
3036.98
3046.34
3055.93
3065.74
3075.78
3086.04
3096.53
3107.23
3118.12
3129.21
3140.5
3151.99
3163.67
3175.53
3187.57
3199.76
3212.12
3224.63
3237.28
3250.05
3262.91
3275.84
3288.81
3301.8
3314.77
3327.67
3340.47
3353.12
3365.51
3377.6
3389.23
3400.31
3410.65
3420.04
3428.3
3434.72
3439.48
3441.65
3441.2
3435.78
3425.98
3409.29
3383.04
3343.5
3282.16
3198.5
3077.94
2790
2790
2790
2790
2790
2790
2790
2790
2790
2790
2790
2790
2790
2790
2790
2790
2790
2790
2790
2790
2790.05
2791.7
2805.75
2840.38
2869
2879.4
2878.32
2867.42
2852.72
2844.87
2841.96
2843.03
2849.02
2855.51
2858.19
2858.98
2859.83
2860.73
2861.34
2861.97
2863.22
2865.39
2867.78
2869.98
2871.98
2874.02
2876.27
2878.82
2881.66
2884.76
2888.12
2891.74
2895.64
2899.85
2904.36
2909.13
2914.16
2919.41
2924.89
2930.62
2936.59
2942.79
2949.21
2955.86
2962.79
2970.02
2977.53
2985.27
2993.23
3001.39
3009.77
3018.38
3027.22
3036.29
3045.62
3055.19
3064.99
3075.04
3085.32
3095.84
3106.59
3117.57
3128.77
3140.18
3151.81
3163.66
3175.73
3188
3200.48
3213.14
3226.01
3239.06
3252.3
3265.7
3279.26
3292.95
3306.75
3320.64
3334.6
3348.61
3362.63
3376.62
3390.54
3404.33
3417.88
3431.15
3443.94
3456.21
3467.69
3478.18
3487.43
3494.66
3499.95
3502.17
3501.02
3493.51
3479.49
3454.1
3407.09
3341.19
3227.87
2790
2790
2790
2790
2790
2790
2790
2790
2790
2790
2790
2790
2790
2790
2790
2790
2790
2790
2790
2790
2790.06
2791.77
2806.31
2841.49
2869.92
2880.17
2878.85
2867.41
2853.04
2845.96
2843.52
2845.12
2852.12
2858.77
2861.52
2862.42
2863.38
2864.35
2865.01
2865.71
2867.09
2869.39
2871.89
2874.18
2876.3
2878.5
2880.93
2883.68
2886.7
2889.96
2893.46
2897.2
2901.2
2905.49
2910.06
2914.9
2919.99
2925.31
2930.87
2936.69
2942.77
2949.07
2955.61
2962.38
2969.44
2976.81
2984.45
2992.33
3000.43
3008.75
3017.29
3026.06
3035.07
3044.32
3053.83
3063.59
3073.6
3083.85
3094.35
3105.1
3116.09
3127.33
3138.79
3150.49
3162.42
3174.6
3187.01
3199.65
3212.51
3225.6
3238.9
3252.43
3266.18
3280.14
3294.29
3308.63
3323.14
3337.81
3352.62
3367.56
3382.61
3397.75
3412.93
3428.14
3443.3
3458.37
3473.24
3487.87
3502.06
3515.74
3528.59
3540.4
3550.7
3558.66
3564.27
3566.2
3563.96
3552.54
3524.51
3482.83
3392.01
2790
2790
2790
2790
2790
2790
2790
2790
2790
2790
2790
2790
2790
2790
2790
2790
2790
2790
2790
2790
2790.07
2792.06
2807.97
2843.9
2871.23
2880.88
2879.17
2866.94
2853.01
2846.68
2844.96
2847.36
2855.42
2862.08
2864.82
2865.87
2866.94
2867.93
2868.59
2869.34
2870.82
2873.21
2875.75
2878.1
2880.32
2882.67
2885.29
2888.24
2891.46
2894.91
2898.56
2902.44
2906.56
2910.95
2915.59
2920.5
2925.64
2931.03
2936.66
2942.56
2948.72
2955.12
2961.76
2968.65
2975.83
2983.31
2991.08
2999.09
3007.33
3015.79
3024.48
3033.4
3042.57
3051.98
3061.66
3071.6
3081.79
3092.24
3102.94
3113.9
3125.12
3136.59
3148.3
3160.25
3172.46
3184.93
3197.65
3210.62
3223.83
3237.28
3250.99
3264.94
3279.14
3293.58
3308.26
3323.17
3338.3
3353.63
3369.18
3384.91
3400.84
3416.94
3433.2
3449.59
3466.08
3482.65
3499.23
3515.79
3532.2
3548.42
3564.21
3579.57
3594.09
3607.65
3619.47
3628.81
3635.35
3636.72
3627.25
3605.79
3554.32
2790
2790
2790
2790
2790
2790
2790
2790
2790
2790
2790
2790
2790
2790
2790
2790
2790
2790
2790
2790
2790.1
2792.67
2810.65
2847.34
2872.77
2881.34
2879.17
2866
2852.78
2847.18
2846.29
2849.89
2858.85
2865.35
2868.01
2869.21
2870.39
2871.39
2872.03
2872.82
2874.43
2876.89
2879.45
2881.82
2884.1
2886.58
2889.37
2892.52
2895.93
2899.56
2903.39
2907.43
2911.69
2916.18
2920.91
2925.89
2931.1
2936.55
2942.25
2948.22
2954.46
2960.95
2967.68
2974.67
2981.96
2989.56
2997.44
3005.57
3013.93
3022.53
3031.35
3040.42
3049.73
3059.3
3069.13
3079.24
3089.61
3100.23
3111.12
3122.28
3133.71
3145.4
3157.34
3169.54
3182
3194.74
3207.74
3221.01
3234.55
3248.34
3262.41
3276.75
3291.36
3306.24
3321.39
3336.8
3352.47
3368.4
3384.58
3401.01
3417.68
3434.61
3451.77
3469.16
3486.76
3504.55
3522.52
3540.63
3558.83
3577.08
3595.28
3613.38
3631.13
3648.5
3664.91
3680.43
3693.77
3704.66
3710.97
3707.01
3694.37
2790
2790
2790
2790
2790
2790
2790
2790
2790
2790
2790
2790
2790
2790
2790
2790
2790
2790
2790
2790
2790.16
2793.68
2814.41
2851.58
2874.48
2881.44
2878.7
2864.69
2852.57
2847.66
2847.57
2852.8
2862.36
2868.48
2870.99
2872.31
2873.59
2874.6
2875.23
2876.12
2877.9
2880.46
2883.02
2885.38
2887.72
2890.3
2893.25
2896.56
2900.14
2903.95
2907.95
2912.15
2916.56
2921.17
2926.01
2931.06
2936.34
2941.86
2947.62
2953.66
2959.98
2966.54
2973.36
2980.44
2987.84
2995.54
3003.53
3011.78
3020.26
3028.97
3037.92
3047.12
3056.57
3066.28
3076.27
3086.53
3097.06
3107.86
3118.93
3130.27
3141.89
3153.78
3165.93
3178.36
3191.06
3204.04
3217.31
3230.86
3244.69
3258.79
3273.19
3287.87
3302.85
3318.12
3333.69
3349.55
3365.7
3382.14
3398.88
3415.91
3433.24
3450.86
3468.79
3487.01
3505.52
3524.31
3543.39
3562.73
3582.32
3602.12
3622.1
3642.19
3662.32
3682.41
3702.16
3721.64
3739.88
3757.37
3771.43
3779.92
3789.34
2790
2790
2790
2790
2790
2790
2790
2790
2790
2790
2790
2790
2790
2790
2790
2790
2790
2790
2790
2790.01
2790.29
2795.23
2819.24
2856.29
2876.33
2881.32
2877.29
2863.05
2852.59
2848.42
2849.01
2856.11
2865.85
2871.42
2873.7
2875.1
2876.44
2877.44
2878.11
2879.16
2881.17
2883.83
2886.39
2888.75
2891.14
2893.83
2896.92
2900.38
2904.12
2908.09
2912.26
2916.63
2921.19
2925.94
2930.88
2936.02
2941.37
2946.95
2952.78
2958.88
2965.26
2971.9
2978.79
2985.97
2993.46
3001.26
3009.35
3017.7
3026.28
3035.11
3044.19
3053.51
3063.09
3072.94
3083.07
3093.48
3104.17
3115.13
3126.36
3137.88
3149.69
3161.77
3174.13
3186.76
3199.69
3212.91
3226.43
3240.24
3254.34
3268.74
3283.43
3298.44
3313.76
3329.39
3345.34
3361.6
3378.18
3395.07
3412.29
3429.84
3447.71
3465.92
3484.48
3503.38
3522.63
3542.21
3562.14
3582.4
3603
3623.89
3645.08
3666.48
3688.11
3709.81
3731.46
3752.88
3773.43
3793.3
3809.92
3823.65
3837.32
2790
2790
2790
2790
2790
2790
2790
2790
2790
2790
2790
2790
2790
2790
2790
2790
2790
2790
2790
2790.01
2790.52
2797.52
2825.04
2861.12
2878.14
2881.18
2875.11
2860.92
2852.59
2849.54
2851.1
2859.88
2869.28
2874.14
2876.16
2877.59
2878.96
2879.93
2880.67
2881.95
2884.22
2886.98
2889.55
2891.91
2894.37
2897.18
2900.41
2904.01
2907.89
2912
2916.33
2920.86
2925.58
2930.46
2935.5
2940.73
2946.16
2951.8
2957.7
2963.87
2970.31
2977.01
2983.98
2991.24
2998.81
3006.71
3014.89
3023.33
3032.02
3040.95
3050.14
3059.57
3069.27
3079.25
3089.52
3100.07
3110.9
3122.01
3133.4
3145.09
3157.06
3169.32
3181.87
3194.7
3207.84
3221.28
3235.02
3249.07
3263.42
3278.08
3293.06
3308.35
3323.97
3339.93
3356.21
3372.83
3389.78
3407.07
3424.7
3442.68
3461.02
3479.71
3498.76
3518.19
3537.97
3558.12
3578.64
3599.5
3620.72
3642.23
3664.05
3686.04
3708.23
3730.4
3752.52
3774.02
3794.61
3814.15
3830.31
3842.8
3852.86
2790
2790
2790
2790
2790
2790
2790
2790
2790
2790
2790
2790
2790
2790
2790
2790
2790
2790
2790
2790.03
2790.94
2800.72
2831.6
2865.72
2879.8
2880.77
2872.49
2858.67
2852.2
2850.68
2853.96
2864.11
2872.72
2876.74
2878.48