/*--------------------------------*- C++ -*----------------------------------*\
| =========                 |                                                 |
| \\      /  F ield         | OpenFOAM: The Open Source CFD Toolbox           |
|  \\    /   O peration     | Version:  2412                                  |
|   \\  /    A nd           | Website:  www.openfoam.com                      |
|    \\/     M anipulation  |                                                 |
\*---------------------------------------------------------------------------*/
FoamFile
{
    version     2.0;
    format      ascii;
    arch        "LSB;label=32;scalar=64";
    class       volScalarField;
    location    "0.026";
    object      T;
}
// * * * * * * * * * * * * * * * * * * * * * * * * * * * * * * * * * * * * * //

dimensions      [0 0 0 1 0 0 0];

internalField   nonuniform List<scalar> 
78650
(
223
223
223
223
223
223
223
223
223
223
223
223
223
223
223.001
223.027
223.209
223.668
224.139
224.361
224.36
224.247
223.881
223.465
223.13
222.885
222.722
222.624
222.556
222.48
222.383
222.273
222.164
222.064
221.971
221.885
221.811
221.748
221.693
221.643
221.595
221.551
221.512
221.478
221.449
221.422
221.398
221.377
221.361
221.348
221.34
221.334
221.329
221.325
221.323
221.321
221.32
221.318
221.317
221.315
221.313
221.31
221.304
221.294
221.278
221.256
221.227
221.192
221.148
221.094
221.029
220.951
220.858
220.749
220.622
220.473
220.301
220.105
219.88
219.624
219.333
219.005
218.634
218.217
217.749
217.228
216.645
215.996
215.274
214.483
213.614
212.663
211.602
210.452
209.186
207.829
206.351
204.757
203.088
201.345
199.558
197.676
195.684
193.629
191.507
189.285
187.154
185.024
182.983
181.027
179.064
177.269
175.543
173.831
172.315
171.017
170.025
169.259
168.756
168.496
166.943
223
223
223
223
223
223
223
223
223
223
223
223
223
223
223.001
223.016
223.15
223.564
224.075
224.358
224.385
224.317
223.994
223.579
223.231
222.972
222.795
222.69
222.622
222.552
222.464
222.359
222.255
222.159
222.07
221.989
221.917
221.857
221.805
221.757
221.712
221.67
221.633
221.601
221.573
221.549
221.529
221.511
221.499
221.49
221.486
221.485
221.485
221.487
221.49
221.495
221.5
221.506
221.512
221.518
221.524
221.53
221.533
221.534
221.53
221.52
221.505
221.483
221.455
221.417
221.37
221.312
221.241
221.155
221.053
220.932
220.79
220.626
220.437
220.219
219.971
219.688
219.368
219.005
218.596
218.136
217.62
217.045
216.403
215.693
214.903
214.03
213.064
212.016
210.857
209.618
208.259
206.79
205.193
203.472
201.651
199.782
197.873
195.902
193.971
191.884
189.807
187.69
185.493
183.417
181.351
179.345
177.447
175.595
173.89
172.389
171.19
170.267
169.672
169.364
167.838
223
223
223
223
223
223
223
223
223
223
223
223
223
223
223
223.009
223.102
223.46
223.991
224.344
224.409
224.371
224.104
223.7
223.337
223.06
222.869
222.755
222.686
222.623
222.544
222.448
222.349
222.257
222.173
222.095
222.026
221.968
221.919
221.874
221.831
221.792
221.756
221.726
221.7
221.679
221.661
221.648
221.639
221.635
221.635
221.639
221.645
221.652
221.661
221.671
221.683
221.696
221.709
221.723
221.738
221.752
221.766
221.776
221.783
221.786
221.784
221.776
221.762
221.741
221.711
221.671
221.621
221.557
221.479
221.384
221.271
221.137
220.981
220.799
220.589
220.349
220.073
219.76
219.404
219.002
218.549
218.04
217.471
216.838
216.132
215.349
214.479
213.531
212.489
211.373
210.138
208.807
207.358
205.78
204.056
202.193
200.252
198.197
196.124
194.025
191.838
189.767
187.583
185.44
183.354
181.251
179.213
177.229
175.307
173.538
172.065
170.879
170.114
169.714
167.88
223
223
223
223
223
223
223
223
223
223
223
223
223
223
223
223.004
223.065
223.357
223.89
224.313
224.425
224.416
224.216
223.83
223.45
223.151
222.944
222.82
222.752
222.696
222.628
222.541
222.447
222.36
222.28
222.206
222.139
222.083
222.035
221.993
221.952
221.915
221.881
221.852
221.829
221.81
221.796
221.786
221.781
221.781
221.786
221.795
221.806
221.818
221.833
221.85
221.868
221.888
221.908
221.929
221.951
221.974
221.997
222.018
222.036
222.049
222.059
222.064
222.065
222.059
222.046
222.024
221.993
221.95
221.895
221.826
221.739
221.635
221.51
221.363
221.191
220.992
220.762
220.497
220.194
219.849
219.458
219.016
218.519
217.961
217.332
216.632
215.855
215.003
214.057
213.023
211.87
210.635
209.28
207.83
206.286
204.602
202.836
200.904
198.84
196.768
194.518
192.268
190.028
187.725
185.559
183.328
181.161
179.161
177.275
175.536
173.991
172.637
171.631
170.979
168.751
223
223
223
223
223
223
223
223
223
223
223
223
223
223
223
223.002
223.038
223.261
223.771
224.259
224.431
224.461
224.322
223.963
223.564
223.242
223.023
222.888
222.82
222.772
222.714
222.638
222.551
222.468
222.393
222.322
222.257
222.201
222.155
222.115
222.076
222.041
222.009
221.982
221.961
221.945
221.934
221.928
221.927
221.931
221.94
221.954
221.97
221.989
222.009
222.032
222.056
222.082
222.11
222.138
222.168
222.199
222.231
222.262
222.29
222.315
222.337
222.355
222.368
222.377
222.38
222.375
222.363
222.34
222.307
222.261
222.2
222.123
222.028
221.913
221.777
221.615
221.425
221.205
220.951
220.659
220.324
219.944
219.512
219.025
218.476
217.863
217.177
216.416
215.563
214.623
213.57
212.429
211.164
209.805
208.323
206.732
205.02
203.222
201.321
199.355
197.307
195.102
192.96
190.645
188.346
186.055
183.702
181.45
179.203
177.152
175.449
174.053
173.066
172.414
170.234
223
223
223
223
223
223
223
223
223
223
223
223
223
223
223
223.001
223.02
223.178
223.638
224.18
224.429
224.502
224.416
224.094
223.682
223.341
223.109
222.963
222.893
222.851
222.803
222.739
222.66
222.582
222.509
222.441
222.378
222.322
222.277
222.238
222.202
222.169
222.139
222.114
222.096
222.083
222.075
222.073
222.076
222.085
222.098
222.117
222.138
222.162
222.188
222.217
222.248
222.28
222.314
222.35
222.387
222.426
222.466
222.506
222.544
222.58
222.613
222.643
222.67
222.693
222.71
222.722
222.727
222.724
222.711
222.688
222.652
222.601
222.535
222.451
222.348
222.223
222.074
221.898
221.691
221.45
221.172
220.852
220.485
220.068
219.594
219.06
218.458
217.784
217.026
216.186
215.248
214.227
213.093
211.867
210.502
209.021
207.414
205.658
203.774
201.719
199.67
197.481
195.31
193.054
190.685
188.41
186.044
183.766
181.435
179.131
177.061
175.3
174.04
173.208
170.496
223
223
223
223
223
223
223
223
223
223
223
223
223
223
223
223
223.01
223.111
223.499
224.073
224.419
224.539
224.485
224.22
223.808
223.451
223.203
223.045
222.97
222.932
222.895
222.842
222.773
222.699
222.629
222.563
222.5
222.445
222.401
222.363
222.33
222.299
222.272
222.25
222.233
222.224
222.22
222.223
222.23
222.243
222.261
222.283
222.31
222.34
222.371
222.406
222.443
222.482
222.523
222.565
222.61
222.656
222.705
222.753
222.801
222.848
222.892
222.934
222.973
223.009
223.041
223.068
223.09
223.104
223.111
223.11
223.096
223.072
223.031
222.977
222.905
222.814
222.701
222.565
222.401
222.208
221.98
221.715
221.408
221.057
220.655
220.199
219.68
219.095
218.433
217.696
216.871
215.964
214.949
213.839
212.599
211.263
209.796
208.205
206.502
204.62
202.611
200.456
198.16
195.895
193.447
191.088
188.652
186.188
183.805
181.492
179.399
177.559
176.101
175.048
171.893
223
223
223
223
223
223
223
223
223
223
223
223
223
223
223
223
223.004
223.063
223.364
223.937
224.387
224.561
224.534
224.342
223.949
223.576
223.306
223.134
223.051
223.016
222.988
222.948
222.889
222.819
222.75
222.686
222.624
222.569
222.525
222.489
222.459
222.431
222.406
222.387
222.374
222.369
222.369
222.376
222.388
222.405
222.427
222.454
222.486
222.521
222.558
222.598
222.641
222.686
222.733
222.782
222.834
222.888
222.944
223.001
223.059
223.115
223.17
223.222
223.274
223.322
223.368
223.41
223.448
223.48
223.505
223.522
223.531
223.531
223.517
223.491
223.448
223.39
223.313
223.215
223.094
222.946
222.769
222.558
222.309
222.021
221.687
221.302
220.86
220.357
219.785
219.143
218.418
217.61
216.697
215.688
214.556
213.325
211.96
210.485
208.881
207.153
205.272
203.292
201.18
199.012
196.69
194.239
191.807
189.195
186.643
184.12
181.775
179.756
178.16
177.013
173.896
223
223
223
223
223
223
223
223
223
223
223
223
223
223
223
223
223.002
223.032
223.245
223.777
224.318
224.566
224.572
224.457
224.098
223.708
223.416
223.229
223.137
223.103
223.082
223.052
223.002
222.937
222.87
222.807
222.747
222.692
222.649
222.616
222.589
222.564
222.544
222.528
222.519
222.516
222.522
222.533
222.55
222.571
222.597
222.629
222.665
222.705
222.748
222.793
222.842
222.893
222.947
223.003
223.061
223.122
223.185
223.251
223.317
223.383
223.448
223.512
223.574
223.635
223.694
223.75
223.803
223.851
223.894
223.931
223.96
223.98
223.99
223.991
223.977
223.949
223.904
223.842
223.758
223.652
223.52
223.359
223.164
222.934
222.663
222.348
221.982
221.563
221.081
220.534
219.909
219.204
218.403
217.513
216.511
215.408
214.173
212.83
211.335
209.701
207.924
205.985
203.902
201.623
199.344
196.858
194.451
191.852
189.263
186.629
184.047
181.747
179.8
178.373
174.395
223
223
223
223
223
223
223
223
223
223
223
223
223
223
223
223
223
223.014
223.149
223.606
224.205
224.553
224.61
224.552
224.245
223.851
223.538
223.336
223.228
223.191
223.172
223.15
223.11
223.051
222.987
222.927
222.869
222.816
222.775
222.745
222.721
222.701
222.684
222.672
222.667
222.669
222.679
222.694
222.715
222.741
222.771
222.807
222.848
222.893
222.94
222.991
223.045
223.102
223.162
223.224
223.288
223.356
223.427
223.5
223.575
223.65
223.725
223.799
223.872
223.944
224.016
224.085
224.152
224.216
224.275
224.33
224.379
224.42
224.453
224.476
224.489
224.491
224.478
224.45
224.403
224.338
224.249
224.136
223.993
223.818
223.607
223.357
223.062
222.718
222.317
221.858
221.328
220.727
220.04
219.271
218.4
217.432
216.34
215.138
213.794
212.327
210.708
208.939
207.038
204.936
202.756
200.331
197.818
195.255
192.543
189.892
187.209
184.81
182.732
181.15
176.898
223
223
223
223
223
223
223
223
223
223
223
223
223
223
223
223
223
223.006
223.081
223.437
224.056
224.514
224.64
224.619
224.388
224.006
223.673
223.447
223.318
223.271
223.254
223.239
223.212
223.163
223.104
223.047
222.993
222.942
222.903
222.875
222.856
222.84
222.829
222.82
222.818
222.825
222.839
222.859
222.884
222.914
222.948
222.988
223.033
223.083
223.135
223.191
223.25
223.312
223.378
223.446
223.517
223.591
223.669
223.749
223.832
223.916
224
224.084
224.167
224.251
224.334
224.416
224.497
224.575
224.65
224.722
224.789
224.85
224.904
224.951
224.988
225.014
225.03
225.034
225.021
224.992
224.943
224.873
224.777
224.654
224.499
224.31
224.081
223.811
223.491
223.117
222.678
222.174
221.591
220.93
220.172
219.319
218.349
217.27
216.056
214.719
213.224
211.583
209.789
207.857
205.719
203.424
200.934
198.448
195.708
193.041
190.26
187.69
185.406
183.67
179.486
223
223
223
223
223
223
223
223
223
223
223
223
223
223
223
223
223
223.002
223.039
223.289
223.877
224.44
224.646
224.67
224.524
224.171
223.813
223.554
223.405
223.348
223.332
223.324
223.311
223.274
223.222
223.17
223.121
223.072
223.034
223.01
222.994
222.984
222.977
222.973
222.974
222.985
223.002
223.026
223.055
223.089
223.128
223.171
223.22
223.274
223.331
223.391
223.455
223.523
223.594
223.668
223.745
223.825
223.909
223.996
224.087
224.179
224.272
224.365
224.458
224.552
224.646
224.74
224.833
224.925
225.015
225.102
225.186
225.266
225.34
225.408
225.469
225.521
225.564
225.595
225.614
225.621
225.611
225.582
225.531
225.457
225.354
225.222
225.055
224.851
224.601
224.305
223.952
223.542
223.063
222.513
221.874
221.148
220.315
219.377
218.313
217.125
215.785
214.31
212.67
210.865
208.883
206.723
204.338
201.807
199.05
196.218
193.264
190.519
187.979
185.933
180.832
223
223
223
223
223
223
223
223
223
223
223
223
223
223
223
223
223
223.001
223.016
223.172
223.682
224.323
224.631
224.721
224.643
224.33
223.948
223.661
223.493
223.425
223.41
223.407
223.406
223.384
223.342
223.296
223.251
223.206
223.17
223.149
223.136
223.131
223.129
223.129
223.134
223.147
223.168
223.195
223.228
223.266
223.308
223.355
223.408
223.466
223.528
223.593
223.661
223.733
223.809
223.889
223.971
224.057
224.147
224.241
224.339
224.439
224.54
224.642
224.745
224.848
224.953
225.058
225.163
225.268
225.372
225.474
225.574
225.67
225.763
225.851
225.933
226.008
226.076
226.135
226.183
226.219
226.242
226.251
226.242
226.212
226.159
226.079
225.969
225.828
225.648
225.428
225.16
224.84
224.457
224.009
223.481
222.872
222.166
221.363
220.443
219.405
218.223
216.905
215.422
213.784
211.964
209.962
207.793
205.36
202.826
200.092
197.32
194.545
191.982
189.811
184.712
223
223
223
223
223
223
223
223
223
223
223
223
223
223
223
223
223
223
223.006
223.092
223.492
224.164
224.602
224.761
224.72
224.474
224.088
223.775
223.59
223.506
223.488
223.489
223.499
223.491
223.462
223.424
223.386
223.345
223.311
223.292
223.283
223.281
223.285
223.289
223.297
223.312
223.335
223.366
223.402
223.443
223.488
223.539
223.596
223.658
223.723
223.792
223.865
223.942
224.023
224.107
224.195
224.286
224.382
224.482
224.586
224.693
224.802
224.913
225.024
225.137
225.251
225.367
225.483
225.6
225.716
225.832
225.947
226.059
226.169
226.276
226.378
226.475
226.566
226.65
226.725
226.791
226.847
226.889
226.917
226.928
226.922
226.892
226.836
226.751
226.634
226.482
226.288
226.048
225.753
225.4
224.976
224.48
223.896
223.221
222.438
221.542
220.512
219.347
218.018
216.541
214.883
213.034
210.96
208.666
206.201
203.427
200.543
197.401
194.621
192.322
186.934
223
223
223
223
223
223
223
223
223
223
223
223
223
223
223
223
223
223
223.002
223.044
223.327
223.975
224.545
224.776
224.769
224.606
224.235
223.9
223.69
223.586
223.562
223.57
223.593
223.596
223.582
223.553
223.522
223.487
223.454
223.436
223.429
223.431
223.44
223.447
223.458
223.476
223.501
223.534
223.573
223.617
223.666
223.721
223.781
223.847
223.916
223.99
224.067
224.148
224.233
224.323
224.415
224.512
224.613
224.719
224.829
224.943
225.06
225.178
225.298
225.419
225.543
225.668
225.795
225.923
226.051
226.179
226.308
226.435
226.561
226.684
226.805
226.921
227.034
227.14
227.241
227.333
227.417
227.491
227.554
227.601
227.633
227.648
227.644
227.612
227.555
227.466
227.341
227.177
226.966
226.704
226.382
225.997
225.534
224.991
224.348
223.602
222.734
221.739
220.591
219.296
217.823
216.174
214.319
212.253
209.963
207.468
204.778
201.92
198.959
196.368
190.578
223
223
223
223
223
223
223
223
223
223
223
223
223
223
223
223
223
223
223.001
223.019
223.199
223.773
224.443
224.771
224.809
224.72
224.383
224.025
223.787
223.666
223.636
223.651
223.69
223.703
223.698
223.679
223.655
223.625
223.595
223.577
223.572
223.577
223.59
223.601
223.615
223.636
223.664
223.699
223.741
223.789
223.841
223.9
223.963
224.032
224.106
224.184
224.265
224.35
224.439
224.533
224.631
224.733
224.839
224.95
225.066
225.186
225.309
225.435
225.562
225.692
225.824
225.958
226.095
226.233
226.372
226.512
226.653
226.794
226.934
227.073
227.21
227.345
227.477
227.605
227.728
227.845
227.956
228.059
228.153
228.236
228.306
228.36
228.397
228.415
228.414
228.381
228.322
228.226
228.092
227.915
227.686
227.401
227.045
226.616
226.096
225.483
224.756
223.911
222.924
221.791
220.484
219.005
217.323
215.431
213.269
210.867
208.245
205.625
202.563
200.128
194.977
223
223
223
223
223
223
223
223
223
223
223
223
223
223
223
223
223
223
223
223.007
223.112
223.58
224.3
224.744
224.85
224.807
224.518
224.145
223.884
223.751
223.714
223.732
223.784
223.807
223.806
223.795
223.778
223.755
223.728
223.711
223.708
223.716
223.732
223.747
223.764
223.788
223.819
223.857
223.903
223.954
224.011
224.072
224.14
224.212
224.29
224.372
224.457
224.546
224.64
224.738
224.841
224.947
225.058
225.174
225.296
225.422
225.551
225.684
225.819
225.956
226.096
226.238
226.384
226.531
226.681
226.832
226.984
227.137
227.291
227.445
227.597
227.749
227.898
228.045
228.189
228.328
228.463
228.592
228.714
228.827
228.931
229.023
229.101
229.161
229.203
229.225
229.227
229.194
229.132
229.029
228.883
228.688
228.432
228.114
227.717
227.24
226.663
225.978
225.165
224.216
223.104
221.829
220.349
218.66
216.724
214.579
212.145
209.594
206.645
203.864
198.298
223
223
223
223
223
223
223
223
223
223
223
223
223
223
223
223
223
223
223
223.003
223.058
223.413
224.135
224.698
224.879
224.861
224.636
224.265
223.986
223.838
223.793
223.806
223.866
223.902
223.905
223.901
223.892
223.877
223.855
223.839
223.836
223.847
223.866
223.884
223.905
223.932
223.966
224.008
224.057
224.113
224.173
224.239
224.31
224.386
224.468
224.553
224.643
224.736
224.834
224.937
225.044
225.155
225.271
225.392
225.518
225.649
225.785
225.924
226.065
226.21
226.357
226.507
226.66
226.817
226.976
227.136
227.299
227.464
227.629
227.796
227.962
228.129
228.294
228.458
228.621
228.781
228.937
229.09
229.237
229.379
229.512
229.637
229.751
229.852
229.939
230.007
230.055
230.081
230.085
230.052
229.984
229.874
229.714
229.501
229.221
228.87
228.428
227.889
227.233
226.45
225.514
224.419
223.131
221.648
219.925
217.974
215.754
213.318
210.709
208.137
203.31
223
223
223
223
223
223
223
223
223
223
223
223
223
223
223
223
223
223
223
223.001
223.029
223.281
223.964
224.633
224.887
224.899
224.741
224.387
224.089
223.921
223.862
223.869
223.935
223.987
223.999
224.001
224
223.992
223.975
223.96
223.958
223.972
223.994
224.016
224.04
224.07
224.107
224.153
224.205
224.264
224.329
224.398
224.472
224.552
224.638
224.727
224.821
224.919
225.021
225.128
225.24
225.356
225.476
225.601
225.732
225.869
226.01
226.154
226.302
226.453
226.607
226.764
226.925
227.09
227.257
227.427
227.599
227.774
227.951
228.129
228.308
228.488
228.668
228.848
229.027
229.205
229.381
229.554
229.724
229.89
230.051
230.205
230.351
230.488
230.612
230.723
230.819
230.895
230.95
230.981
230.986
230.951
230.878
230.756
230.577
230.336
230.015
229.61
229.1
228.478
227.718
226.809
225.721
224.449
222.949
221.213
219.171
216.905
214.343
211.672
207.006
223
223
223
223
223
223
223
223
223
223
223
223
223
223
223
223
223
223
223
223
223.014
223.186
223.801
224.548
224.877
224.935
224.835
224.502
224.181
223.993
223.922
223.924
223.997
224.069
224.094
224.101
224.105
224.103
224.091
224.078
224.077
224.094
224.119
224.144
224.171
224.204
224.244
224.292
224.348
224.41
224.477
224.55
224.628
224.711
224.8
224.894
224.992
225.094
225.201
225.312
225.428
225.548
225.673
225.802
225.938
226.079
226.225
226.376
226.529
226.686
226.846
227.01
227.178
227.349
227.524
227.702
227.883
228.067
228.254
228.442
228.633
228.825
229.018
229.211
229.405
229.599
229.793
229.985
230.175
230.363
230.548
230.728
230.903
231.07
231.229
231.378
231.514
231.637
231.743
231.827
231.889
231.923
231.929
231.891
231.808
231.671
231.47
231.199
230.839
230.381
229.801
229.085
228.203
227.142
225.86
224.345
222.572
220.59
218.29
215.88
211.784
223
223
223
223
223
223
223
223
223
223
223
223
223
223
223
223
223
223
223
223
223.007
223.123
223.659
224.454
224.86
224.974
224.912
224.596
224.258
224.058
223.978
223.979
224.058
224.151
224.188
224.2
224.207
224.208
224.2
224.191
224.192
224.214
224.243
224.271
224.302
224.337
224.379
224.429
224.487
224.551
224.621
224.696
224.776
224.863
224.956
225.053
225.155
225.262
225.372
225.488
225.608
225.733
225.861
225.995
226.135
226.281
226.432
226.587
226.746
226.908
227.074
227.244
227.418
227.596
227.778
227.963
228.152
228.344
228.539
228.738
228.938
229.141
229.345
229.551
229.759
229.967
230.176
230.384
230.592
230.799
231.005
231.208
231.407
231.602
231.791
231.973
232.145
232.307
232.457
232.591
232.708
232.801
232.869
232.907
232.913
232.871
232.778
232.623
232.39
232.072
231.644
231.094
230.393
229.525
228.455
227.16
225.61
223.774
221.647
219.224
215.594
223
223
223
223
223
223
223
223
223
223
223
223
223
223
223
223
223
223
223
223
223.004
223.083
223.544
224.36
224.845
225.009
224.964
224.671
224.323
224.116
224.033
224.035
224.121
224.233
224.279
224.294
224.303
224.308
224.304
224.298
224.305
224.331
224.366
224.399
224.432
224.469
224.512
224.564
224.623
224.688
224.76
224.837
224.92
225.009
225.105
225.206
225.312
225.422
225.537
225.656
225.781
225.909
226.042
226.18
226.324
226.473
226.629
226.789
226.952
227.12
227.291
227.466
227.646
227.83
228.018
228.21
228.406
228.605
228.808
229.015
229.224
229.437
229.651
229.868
230.087
230.308
230.53
230.753
230.976
231.2
231.424
231.647
231.868
232.087
232.301
232.512
232.715
232.912
233.1
233.276
233.439
233.586
233.715
233.816
233.891
233.932
233.937
233.885
233.773
233.587
233.314
232.937
232.43
231.773
230.926
229.868
228.558
226.96
225.109
222.847
219.63
223
223
223
223
223
223
223
223
223
223
223
223
223
223
223
223
223
223
223
223
223.002
223.059
223.46
224.279
224.838
225.035
225
224.729
224.377
224.168
224.086
224.091
224.185
224.312
224.365
224.38
224.392
224.401
224.401
224.401
224.414
224.447
224.487
224.525
224.562
224.601
224.646
224.698
224.758
224.824
224.896
224.975
225.06
225.152
225.25
225.354
225.463
225.577
225.695
225.818
225.946
226.078
226.214
226.356
226.504
226.657
226.817
226.981
227.149
227.321
227.497
227.677
227.862
228.051
228.245
228.443
228.645
228.851
229.061
229.275
229.492
229.713
229.936
230.162
230.392
230.623
230.857
231.093
231.33
231.568
231.808
232.048
232.288
232.527
232.764
232.998
233.229
233.455
233.676
233.889
234.092
234.284
234.462
234.622
234.763
234.873
234.955
234.998
235.003
234.939
234.811
234.59
234.265
233.809
233.186
232.373
231.3
229.934
228.276
226.185
223.233
223
223
223
223
223
223
223
223
223
223
223
223
223
223
223
223
223
223
223
223
223.002
223.046
223.404
224.219
224.835
225.054
225.026
224.771
224.42
224.214
224.136
224.146
224.25
224.388
224.445
224.461
224.475
224.489
224.495
224.501
224.52
224.559
224.606
224.648
224.688
224.73
224.776
224.83
224.89
224.958
225.031
225.111
225.197
225.291
225.392
225.498
225.61
225.726
225.847
225.973
226.104
226.239
226.38
226.525
226.676
226.833
226.996
227.164
227.336
227.512
227.692
227.877
228.066
228.26
228.459
228.662
228.87
229.082
229.298
229.519
229.743
229.971
230.202
230.437
230.675
230.916
231.16
231.406
231.655
231.906
232.159
232.414
232.67
232.926
233.182
233.438
233.691
233.943
234.191
234.435
234.672
234.903
235.123
235.332
235.526
235.702
235.856
235.976
236.065
236.11
236.11
236.021
235.857
235.574
235.153
234.561
233.731
232.634
231.203
229.329
226.648
223
223
223
223
223
223
223
223
223
223
223
223
223
223
223
223
223
223
223
223
223.001
223.041
223.376
224.186
224.839
225.072
225.047
224.798
224.451
224.255
224.181
224.197
224.316
224.462
224.522
224.538
224.555
224.573
224.584
224.595
224.62
224.666
224.717
224.765
224.808
224.852
224.901
224.956
225.019
225.088
225.163
225.244
225.332
225.427
225.53
225.638
225.751
225.87
225.993
226.122
226.256
226.394
226.537
226.686
226.84
227
227.167
227.338
227.514
227.694
227.878
228.067
228.26
228.459
228.662
228.87
229.082
229.299
229.521
229.747
229.977
230.212
230.45
230.692
230.937
231.187
231.44
231.696
231.955
232.216
232.481
232.748
233.018
233.289
233.561
233.834
234.107
234.38
234.651
234.921
235.187
235.45
235.707
235.956
236.196
236.424
236.636
236.828
236.996
237.127
237.223
237.268
237.258
237.147
236.945
236.6
236.064
235.279
234.089
232.453
229.95
223
223
223
223
223
223
223
223
223
223
223
223
223
223
223
223
223
223
223
223
223.001
223.04
223.371
224.183
224.848
225.089
225.064
224.812
224.471
224.288
224.22
224.246
224.385
224.536
224.598
224.617
224.636
224.657
224.671
224.686
224.715
224.765
224.821
224.872
224.918
224.965
225.017
225.076
225.142
225.214
225.291
225.374
225.464
225.561
225.665
225.774
225.889
226.01
226.135
226.266
226.402
226.543
226.689
226.84
226.997
227.16
227.33
227.504
227.683
227.867
228.055
228.247
228.444
228.646
228.854
229.066
229.283
229.505
229.731
229.962
230.198
230.438
230.682
230.93
231.183
231.439
231.7
231.964
232.232
232.503
232.778
233.056
233.336
233.62
233.906
234.194
234.484
234.774
235.065
235.357
235.647
235.936
236.223
236.506
236.784
237.055
237.316
237.565
237.798
238.009
238.196
238.341
238.448
238.492
238.466
238.311
238.03
237.541
236.663
235.431
233.155
223
223
223
223
223
223
223
223
223
223
223
223
223
223
223
223
223
223
223
223
223.001
223.042
223.385
224.209
224.869
225.107
225.076
224.812
224.478
224.314
224.257
224.294
224.457
224.612
224.675
224.696
224.719
224.741
224.756
224.773
224.805
224.858
224.916
224.969
225.018
225.069
225.125
225.188
225.258
225.333
225.414
225.5
225.592
225.691
225.795
225.906
226.023
226.144
226.271
226.404
226.542
226.686
226.834
226.988
227.147
227.314
227.486
227.663
227.845
228.032
228.223
228.419
228.619
228.825
229.036
229.252
229.473
229.699
229.93
230.165
230.406
230.651
230.9
231.154
231.413
231.675
231.943
232.214
232.49
232.769
233.052
233.339
233.63
233.925
234.223
234.523
234.827
235.132
235.44
235.749
236.06
236.372
236.683
236.994
237.303
237.609
237.91
238.206
238.491
238.766
239.023
239.259
239.464
239.621
239.729
239.764
239.723
239.514
239.013
238.289
236.532
223
223
223
223
223
223
223
223
223
223
223
223
223
223
223
223
223
223
223
223
223.002
223.049
223.424
224.265
224.9
225.123
225.084
224.801
224.478
224.331
224.29
224.346
224.534
224.688
224.752
224.776
224.801
224.824
224.84
224.857
224.891
224.947
225.005
225.06
225.111
225.165
225.226
225.294
225.368
225.447
225.531
225.621
225.715
225.816
225.922
226.034
226.152
226.275
226.403
226.538
226.678
226.823
226.973
227.129
227.292
227.46
227.635
227.815
228
228.189
228.383
228.582
228.786
228.995
229.209
229.429
229.653
229.883
230.118
230.358
230.603
230.852
231.107
231.366
231.63
231.898
232.171
232.449
232.731
233.018
233.309
233.604
233.904
234.208
234.516
234.827
235.143
235.461
235.783
236.108
236.435
236.765
237.098
237.431
237.766
238.101
238.435
238.767
239.096
239.419
239.733
240.038
240.325
240.591
240.819
240.998
241.134
241.178
241.026
240.693
239.747
223
223
223
223
223
223
223
223
223
223
223
223
223
223
223
223
223
223
223
223
223.002
223.063
223.487
224.345
224.936
225.134
225.084
224.779
224.472
224.342
224.321
224.405
224.614
224.764
224.826
224.854
224.881
224.904
224.919
224.937
224.975
225.032
225.091
225.145
225.198
225.255
225.32
225.392
225.471
225.554
225.642
225.735
225.833
225.936
226.044
226.158
226.277
226.401
226.531
226.666
226.808
226.955
227.107
227.265
227.43
227.601
227.778
227.96
228.148
228.34
228.536
228.738
228.945
229.157
229.374
229.597
229.825
230.059
230.297
230.541
230.79
231.044
231.303
231.566
231.835
232.109
232.388
232.671
232.96
233.253
233.551
233.853
234.161
234.473
234.79
235.111
235.437
235.767
236.101
236.439
236.781
237.126
237.476
237.828
238.184
238.542
238.903
239.265
239.627
239.989
240.349
240.705
241.053
241.392
241.71
242.008
242.269
242.499
242.65
242.631
242.438
223
223
223
223
223
223
223
223
223
223
223
223
223
223
223
223
223
223
223
223
223.004
223.087
223.575
224.444
224.975
225.136
225.073
224.749
224.468
224.353
224.351
224.473
224.695
224.837
224.895
224.926
224.955
224.979
224.993
225.014
225.055
225.114
225.173
225.228
225.282
225.341
225.409
225.485
225.568
225.655
225.747
225.843
225.944
226.05
226.16
226.276
226.396
226.522
226.653
226.79
226.933
227.082
227.236
227.396
227.562
227.735
227.915
228.099
228.289
228.483
228.683
228.887
229.097
229.311
229.532
229.758
229.989
230.226
230.468
230.715
230.968
231.226
231.489
231.757
232.03
232.308
232.592
232.881
233.175
233.474
233.778
234.088
234.402
234.722
235.047
235.377
235.711
236.051
236.395
236.745
237.099
237.458
237.821
238.189
238.562
238.939
239.32
239.705
240.094
240.484
240.877
241.271
241.663
242.053
242.435
242.808
243.16
243.507
243.809
244.015
244.221
223
223
223
223
223
223
223
223
223
223
223
223
223
223
223
223
223
223
223
223
223.007
223.124
223.689
224.553
225.018
225.133
225.04
224.711
224.468
224.371
224.385
224.55
224.776
224.905
224.958
224.99
225.021
225.044
225.06
225.084
225.131
225.192
225.251
225.305
225.36
225.422
225.494
225.573
225.659
225.75
225.846
225.946
226.05
226.159
226.272
226.389
226.511
226.637
226.77
226.908
227.053
227.203
227.358
227.52
227.689
227.864
228.045
228.232
228.424
228.62
228.822
229.029
229.241
229.458
229.682
229.911
230.145
230.385
230.63
230.881
231.137
231.399
231.665
231.938
232.215
232.498
232.787
233.081
233.38
233.685
233.994
234.31
234.631
234.957
235.289
235.627
235.969
236.317
236.671
237.029
237.394
237.763
238.139
238.519
238.906
239.297
239.694
240.096
240.502
240.913
241.328
241.745
242.165
242.585
243.001
243.411
243.806
244.197
244.542
244.834
245.108
223
223
223
223
223
223
223
223
223
223
223
223
223
223
223
223
223
223
223
223
223.012
223.178
223.824
224.665
225.06
225.13
224.99
224.661
224.468
224.397
224.433
224.638
224.856
224.968
225.015
225.048
225.079
225.102
225.119
225.149
225.201
225.265
225.324
225.378
225.435
225.5
225.574
225.657
225.746
225.84
225.939
226.043
226.151
226.262
226.377
226.496
226.62
226.748
226.881
227.021
227.167
227.318
227.475
227.639
227.809
227.986
228.169
228.358
228.551
228.75
228.954
229.163
229.378
229.598
229.824
230.055
230.292
230.535
230.783
231.037
231.297
231.562
231.832
232.108
232.39
232.677
232.97
233.268
233.572
233.882
234.197
234.518
234.844
235.177
235.515
235.859
236.208
236.564
236.925
237.292
237.664
238.043
238.427
238.817
239.213
239.614
240.022
240.434
240.852
241.273
241.699
242.126
242.556
242.984
243.408
243.819
244.213
244.597
244.93
245.193
245.394
223
223
223
223
223
223
223
223
223
223
223
223
223
223
223
223
223
223
223
223.001
223.022
223.253
223.978
224.772
225.098
225.121
224.929
224.609
224.459
224.424
224.5
224.736
224.935
225.028
225.068
225.101
225.132
225.153
225.173
225.209
225.267
225.333
225.392
225.447
225.506
225.574
225.651
225.737
225.828
225.925
226.028
226.135
226.245
226.36
226.477
226.598
226.723
226.852
226.987
227.128
227.275
227.428
227.586
227.751
227.923
228.102
228.287
228.477
228.672
228.873
229.079
229.29
229.507
229.729
229.958
230.192
230.432
230.677
230.929
231.185
231.448
231.716
231.99
232.27
232.555
232.846
233.143
233.446
233.754
234.068
234.388
234.713
235.045
235.383
235.726
236.075
236.431
236.792
237.159
237.532
237.91
238.295
238.686
239.082
239.484
239.891
240.304
240.72
241.141
241.564