/*--------------------------------*- C++ -*----------------------------------*\
| =========                 |                                                 |
| \\      /  F ield         | OpenFOAM: The Open Source CFD Toolbox           |
|  \\    /   O peration     | Version:  2412                                  |
|   \\  /    A nd           | Website:  www.openfoam.com                      |
|    \\/     M anipulation  |                                                 |
\*---------------------------------------------------------------------------*/
FoamFile
{
    version     2.0;
    format      ascii;
    arch        "LSB;label=32;scalar=64";
    class       volVectorField;
    location    "0.026";
    object      U;
}
// * * * * * * * * * * * * * * * * * * * * * * * * * * * * * * * * * * * * * //

dimensions      [0 1 -1 0 0 0 0];

internalField   nonuniform List<vector> 
78650
(
(210 2.99997e-12 0)
(210 1.10129e-11 0)
(210 1.15817e-12 0)
(210 1.15051e-11 0)
(210 1.89256e-11 0)
(210 -2.24065e-12 0)
(210 -2.92077e-12 0)
(210 8.55793e-12 0)
(210 9.43476e-12 0)
(210 -1.30463e-12 0)
(210 -2.41105e-12 0)
(210 8.23785e-10 0)
(210 9.27531e-08 0)
(210 9.98221e-06 0)
(209.996 0.000849127 0)
(209.915 0.02494 0)
(209.351 0.237944 0)
(207.97 0.861166 0)
(206.505 1.54509 0)
(205.983 1.8852 0)
(205.815 2.07852 0)
(206.212 2.07726 0)
(207.304 1.69769 0)
(208.572 1.28646 0)
(209.588 0.949585 0)
(210.423 0.841423 0)
(211.02 0.874252 0)
(211.376 1.06715 0)
(211.677 1.34906 0)
(212.014 1.66506 0)
(212.41 1.97867 0)
(212.832 2.30178 0)
(213.256 2.65559 0)
(213.665 3.04828 0)
(214.063 3.46851 0)
(214.436 3.90999 0)
(214.762 4.38052 0)
(215.049 4.88801 0)
(215.315 5.43311 0)
(215.569 6.01439 0)
(215.816 6.62761 0)
(216.044 7.27356 0)
(216.243 7.95054 0)
(216.415 8.65892 0)
(216.567 9.39448 0)
(216.687 10.1599 0)
(216.782 10.9571 0)
(216.868 11.788 0)
(216.942 12.6569 0)
(216.998 13.5639 0)
(217.038 14.5051 0)
(217.063 15.4781 0)
(217.073 16.4789 0)
(217.068 17.5081 0)
(217.049 18.5647 0)
(217.018 19.6491 0)
(216.975 20.7616 0)
(216.924 21.9029 0)
(216.863 23.0755 0)
(216.793 24.282 0)
(216.715 25.5245 0)
(216.631 26.803 0)
(216.549 28.1168 0)
(216.469 29.4679 0)
(216.399 30.8544 0)
(216.341 32.2802 0)
(216.295 33.7468 0)
(216.269 35.2559 0)
(216.261 36.8099 0)
(216.276 38.4089 0)
(216.324 40.0554 0)
(216.405 41.7489 0)
(216.534 43.4907 0)
(216.708 45.2807 0)
(216.949 47.1206 0)
(217.247 49.0108 0)
(217.629 50.9526 0)
(218.09 52.9459 0)
(218.651 54.9906 0)
(219.317 57.0858 0)
(220.106 59.2301 0)
(221.031 61.4216 0)
(222.102 63.6574 0)
(223.345 65.9309 0)
(224.759 68.2394 0)
(226.393 70.575 0)
(228.216 72.9384 0)
(230.32 75.2916 0)
(232.626 77.6349 0)
(235.289 79.9344 0)
(238.17 82.2653 0)
(241.486 84.5198 0)
(245.01 86.7527 0)
(249.055 88.6773 0)
(253.242 90.6074 0)
(257.946 92.2678 0)
(263.016 93.882 0)
(268.846 95.2401 0)
(274.954 96.1568 0)
(281.109 96.7991 0)
(287.065 97.2917 0)
(293.662 97.3945 0)
(300.523 97.1324 0)
(307.599 96.5118 0)
(315.231 95.3457 0)
(322.106 93.9418 0)
(329.902 91.9772 0)
(336.564 90.1085 0)
(343.44 87.9734 0)
(349.753 85.8522 0)
(355.469 83.8495 0)
(361.17 81.5065 0)
(365.544 79.8385 0)
(370.032 77.5441 0)
(373.111 75.2251 0)
(375.145 73.2328 0)
(377.424 71.2303 0)
(380.408 70.1633 0)
(385.269 69.1051 0)
(392.535 67.8743 0)
(395.041 71.4847 0)
(210 6.22251e-12 0)
(210 6.86973e-12 0)
(210 -2.20829e-12 0)
(210 1.32161e-11 0)
(210 7.53481e-12 0)
(210 3.89665e-13 0)
(210 3.15262e-12 0)
(210 8.10713e-12 0)
(210 -3.3307e-12 0)
(210 -1.25169e-11 0)
(210 -7.26696e-12 0)
(210 2.28789e-10 0)
(210 2.62631e-08 0)
(210 3.06771e-06 0)
(209.998 0.000350116 0)
(209.95 0.0132958 0)
(209.53 0.159564 0)
(208.264 0.693509 0)
(206.698 1.40787 0)
(205.967 1.83082 0)
(205.716 2.0351 0)
(205.98 2.09808 0)
(206.961 1.79741 0)
(208.22 1.37824 0)
(209.271 1.01278 0)
(210.143 0.890823 0)
(210.765 0.908171 0)
(211.133 1.0916 0)
(211.425 1.37046 0)
(211.738 1.68772 0)
(212.101 2.00349 0)
(212.498 2.3226 0)
(212.904 2.66685 0)
(213.299 3.04836 0)
(213.678 3.45839 0)
(214.035 3.88882 0)
(214.348 4.34721 0)
(214.622 4.84285 0)
(214.872 5.37846 0)
(215.11 5.95128 0)
(215.342 6.55696 0)
(215.555 7.19492 0)
(215.742 7.86313 0)
(215.902 8.56139 0)
(216.04 9.28654 0)
(216.143 10.0411 0)
(216.222 10.826 0)
(216.292 11.6444 0)
(216.346 12.5007 0)
(216.382 13.3942 0)
(216.402 14.3206 0)
(216.404 15.2792 0)
(216.392 16.2641 0)
(216.363 17.2779 0)
(216.319 18.318 0)
(216.26 19.3853 0)
(216.189 20.48 0)
(216.108 21.6027 0)
(216.015 22.7557 0)
(215.912 23.9417 0)
(215.797 25.1629 0)
(215.675 26.4197 0)
(215.552 27.7111 0)
(215.425 29.042 0)
(215.306 30.4049 0)
(215.196 31.8067 0)
(215.092 33.2495 0)
(215.007 34.7343 0)
(214.932 36.2647 0)
(214.878 37.839 0)
(214.849 39.4615 0)
(214.845 41.1313 0)
(214.883 42.8506 0)
(214.957 44.6191 0)
(215.09 46.4392 0)
(215.27 48.3113 0)
(215.524 50.2376 0)
(215.847 52.2183 0)
(216.257 54.2545 0)
(216.759 56.3465 0)
(217.37 58.494 0)
(218.102 60.6955 0)
(218.968 62.9494 0)
(219.989 65.2531 0)
(221.166 67.6052 0)
(222.546 69.9966 0)
(224.104 72.4228 0)
(225.927 74.8622 0)
(227.945 77.3299 0)
(230.303 79.7995 0)
(232.875 82.2885 0)
(235.841 84.6836 0)
(238.988 87.0374 0)
(242.623 89.216 0)
(246.406 91.4782 0)
(250.822 93.49 0)
(255.406 95.5027 0)
(260.429 97.1472 0)
(265.859 98.6584 0)
(271.72 99.8153 0)
(278.135 100.683 0)
(284.599 101.169 0)
(291.387 101.435 0)
(297.739 101.53 0)
(304.87 101.191 0)
(311.451 100.595 0)
(318.681 99.4821 0)
(325.575 98.1243 0)
(332.405 96.4412 0)
(339.112 94.4646 0)
(345.26 92.4676 0)
(351.591 90.135 0)
(357.318 88.1068 0)
(363.285 85.8054 0)
(368.488 83.4656 0)
(372.494 80.9013 0)
(375.193 78.1193 0)
(377.117 76.4956 0)
(381.396 75.2802 0)
(389.71 73.9111 0)
(393.222 78.2216 0)
(210 1.35316e-12 0)
(210 3.25314e-12 0)
(210 -4.54777e-12 0)
(210 5.96651e-12 0)
(210 4.36368e-12 0)
(210 -2.86848e-12 0)
(210 -1.50534e-12 0)
(210 -7.28592e-12 0)
(210 -2.59907e-12 0)
(210 -2.8985e-12 0)
(210 4.9807e-13 0)
(210 1.19012e-10 0)
(210 1.10465e-08 0)
(210 1.13551e-06 0)
(209.999 0.00013474 0)
(209.972 0.00654919 0)
(209.678 0.100721 0)
(208.581 0.538628 0)
(206.947 1.25496 0)
(205.98 1.75917 0)
(205.61 1.98938 0)
(205.793 2.1128 0)
(206.617 1.87626 0)
(207.833 1.44663 0)
(208.925 1.04989 0)
(209.844 0.918465 0)
(210.499 0.92067 0)
(210.888 1.09664 0)
(211.175 1.37406 0)
(211.462 1.69262 0)
(211.788 2.00993 0)
(212.155 2.32487 0)
(212.544 2.65919 0)
(212.923 3.02865 0)
(213.286 3.42762 0)
(213.628 3.84658 0)
(213.928 4.29276 0)
(214.19 4.77684 0)
(214.426 5.30349 0)
(214.65 5.86864 0)
(214.866 6.46786 0)
(215.066 7.09926 0)
(215.239 7.7606 0)
(215.388 8.45106 0)
(215.511 9.1682 0)
(215.595 9.91406 0)
(215.659 10.689 0)
(215.712 11.4972 0)
(215.746 12.343 0)
(215.762 13.2235 0)
(215.762 14.1341 0)
(215.739 15.0802 0)
(215.701 16.0535 0)
(215.649 17.0518 0)
(215.579 18.0765 0)
(215.493 19.128 0)
(215.393 20.2067 0)
(215.28 21.313 0)
(215.156 22.4489 0)
(215.018 23.6169 0)
(214.866 24.8195 0)
(214.705 26.0577 0)
(214.536 27.3322 0)
(214.367 28.6403 0)
(214.2 29.9841 0)
(214.035 31.367 0)
(213.875 32.7895 0)
(213.73 34.2506 0)
(213.59 35.7592 0)
(213.468 37.3102 0)
(213.364 38.9101 0)
(213.281 40.5569 0)
(213.232 42.2531 0)
(213.212 43.9985 0)
(213.242 45.7956 0)
(213.313 47.6448 0)
(213.449 49.5487 0)
(213.643 51.5075 0)
(213.914 53.523 0)
(214.265 55.5954 0)
(214.713 57.7253 0)
(215.267 59.912 0)
(215.939 62.1547 0)
(216.75 64.452 0)
(217.699 66.8022 0)
(218.829 69.2004 0)
(220.118 71.6454 0)
(221.645 74.1247 0)
(223.345 76.6441 0)
(225.35 79.1787 0)
(227.542 81.7363 0)
(230.103 84.2512 0)
(232.87 86.7687 0)
(236.119 89.2065 0)
(239.554 91.7081 0)
(243.565 93.9916 0)
(247.684 96.3133 0)
(252.447 98.2755 0)
(257.473 100.161 0)
(263.025 101.693 0)
(269.121 103.073 0)
(275.321 103.988 0)
(282.318 104.683 0)
(288.947 104.868 0)
(296.219 104.874 0)
(303.435 104.516 0)
(310.156 104.069 0)
(317.731 103.04 0)
(324.526 101.911 0)
(331.5 100.367 0)
(338.472 98.5808 0)
(345.198 96.4959 0)
(351.458 94.5072 0)
(358.321 91.9021 0)
(363.207 89.721 0)
(367.147 87.3109 0)
(369.852 84.8317 0)
(372.243 83.0087 0)
(377.014 81.6619 0)
(386.274 80.2877 0)
(389.825 85.4574 0)
(210 1.01319e-11 0)
(210 8.14083e-12 0)
(210 4.76076e-12 0)
(210 3.74832e-12 0)
(210 -2.24188e-13 0)
(210 -1.15811e-11 0)
(210 -9.18034e-12 0)
(210 -1.02932e-11 0)
(210 -2.0496e-12 0)
(210 9.33456e-13 0)
(210 6.38488e-12 0)
(210 3.39622e-11 0)
(210 2.06438e-09 0)
(210 2.49773e-07 0)
(210 4.12115e-05 0)
(209.986 0.00284285 0)
(209.794 0.0580934 0)
(208.886 0.392259 0)
(207.245 1.08064 0)
(206.05 1.66557 0)
(205.53 1.94394 0)
(205.634 2.10183 0)
(206.275 1.92869 0)
(207.432 1.52472 0)
(208.572 1.12111 0)
(209.547 0.987257 0)
(210.231 0.967427 0)
(210.643 1.1254 0)
(210.923 1.39059 0)
(211.183 1.70243 0)
(211.47 2.01722 0)
(211.803 2.32763 0)
(212.169 2.65285 0)
(212.533 3.01117 0)
(212.879 3.40091 0)
(213.205 3.81153 0)
(213.492 4.24837 0)
(213.742 4.72288 0)
(213.963 5.24153 0)
(214.173 5.79912 0)
(214.374 6.39138 0)
(214.56 7.01485 0)
(214.721 7.6671 0)
(214.858 8.34697 0)
(214.966 9.05316 0)
(215.034 9.78689 0)
(215.084 10.5489 0)
(215.12 11.3447 0)
(215.135 12.1761 0)
(215.136 13.0358 0)
(215.109 13.9374 0)
(215.066 14.8665 0)
(215.006 15.8216 0)
(214.93 16.8026 0)
(214.836 17.8096 0)
(214.724 18.843 0)
(214.596 19.9032 0)
(214.455 20.9904 0)
(214.3 22.1062 0)
(214.13 23.2532 0)
(213.945 24.4338 0)
(213.747 25.6492 0)
(213.54 26.8996 0)
(213.327 28.1852 0)
(213.113 29.5063 0)
(212.901 30.8638 0)
(212.693 32.2583 0)
(212.491 33.6935 0)
(212.288 35.1785 0)
(212.103 36.6999 0)
(211.928 38.2711 0)
(211.769 39.8898 0)
(211.636 41.5583 0)
(211.525 43.2771 0)
(211.457 45.0475 0)
(211.42 46.871 0)
(211.44 48.7504 0)
(211.507 50.6864 0)
(211.641 52.6816 0)
(211.842 54.7372 0)
(212.126 56.8547 0)
(212.502 59.0345 0)
(212.983 61.2767 0)
(213.585 63.5812 0)
(214.312 65.9477 0)
(215.201 68.3737 0)
(216.235 70.8567 0)
(217.488 73.3892 0)
(218.9 75.9755 0)
(220.595 78.5964 0)
(222.468 81.247 0)
(224.695 83.8787 0)
(227.126 86.5357 0)
(229.99 89.1746 0)
(233.037 91.8717 0)
(236.627 94.3962 0)
(240.332 96.9045 0)
(244.641 99.0491 0)
(249.058 101.232 0)
(254.078 103.134 0)
(259.436 104.927 0)
(265.245 106.426 0)
(271.508 107.706 0)
(278.301 108.653 0)
(285.117 109.176 0)
(293.007 109.384 0)
(300.381 108.967 0)
(308.091 108.304 0)
(316.164 107.108 0)
(323.416 105.836 0)
(331.292 104.053 0)
(338.356 102.267 0)
(345.118 100.396 0)
(352.135 98.1377 0)
(357.775 96.0648 0)
(362.763 93.5215 0)
(366.077 90.8742 0)
(368.708 88.81 0)
(373.692 87.0376 0)
(383.084 85.695 0)
(386.828 90.8629 0)
(210 1.71296e-11 0)
(210 1.48965e-12 0)
(210 8.09176e-12 0)
(210 7.04931e-12 0)
(210 2.94468e-13 0)
(210 -1.04395e-11 0)
(210 -9.0734e-12 0)
(210 -7.74609e-13 0)
(210 -3.95977e-12 0)
(210 -4.77373e-12 0)
(210 2.83864e-12 0)
(210 2.03334e-11 0)
(210 3.67057e-10 0)
(210 4.20075e-08 0)
(210 1.0185e-05 0)
(209.993 0.0010872 0)
(209.879 0.0304208 0)
(209.178 0.267472 0)
(207.605 0.893571 0)
(206.187 1.54699 0)
(205.47 1.90941 0)
(205.501 2.04306 0)
(205.944 1.94936 0)
(207.008 1.59749 0)
(208.193 1.1957 0)
(209.226 1.05227 0)
(209.941 0.999618 0)
(210.383 1.13507 0)
(210.662 1.38512 0)
(210.896 1.68875 0)
(211.144 2.00113 0)
(211.439 2.30882 0)
(211.781 2.62598 0)
(212.129 2.97205 0)
(212.459 3.35027 0)
(212.77 3.75076 0)
(213.046 4.17705 0)
(213.287 4.64148 0)
(213.495 5.15238 0)
(213.691 5.70351 0)
(213.876 6.29045 0)
(214.048 6.90787 0)
(214.195 7.55309 0)
(214.32 8.2246 0)
(214.41 8.92177 0)
(214.462 9.64518 0)
(214.497 10.3968 0)
(214.513 11.1813 0)
(214.514 11.9939 0)
(214.489 12.8467 0)
(214.443 13.7298 0)
(214.378 14.6423 0)
(214.294 15.5818 0)
(214.192 16.5465 0)
(214.072 17.5364 0)
(213.934 18.5523 0)
(213.778 19.5947 0)
(213.606 20.664 0)
(213.419 21.7612 0)
(213.216 22.8886 0)
(212.996 24.0488 0)
(212.761 25.2435 0)
(212.513 26.473 0)
(212.258 27.7367 0)
(211.998 29.0351 0)
(211.737 30.3694 0)
(211.475 31.7424 0)
(211.214 33.1565 0)
(210.959 34.6095 0)
(210.708 36.1072 0)
(210.462 37.654 0)
(210.229 39.2461 0)
(210.016 40.8852 0)
(209.818 42.5761 0)
(209.657 44.3181 0)
(209.519 46.1139 0)
(209.432 47.9645 0)
(209.381 49.8717 0)
(209.389 51.8376 0)
(209.453 53.8642 0)
(209.589 55.9533 0)
(209.803 58.1058 0)
(210.109 60.3224 0)
(210.52 62.6038 0)
(211.04 64.9499 0)
(211.702 67.3606 0)
(212.492 69.8352 0)
(213.473 72.3716 0)
(214.593 74.9688 0)
(215.967 77.6126 0)
(217.5 80.303 0)
(219.354 83.0278 0)
(221.395 85.8203 0)
(223.833 88.6245 0)
(226.458 91.4439 0)
(229.584 94.136 0)
(232.853 96.8666 0)
(236.796 99.4309 0)
(240.88 102.099 0)
(245.638 104.427 0)
(250.639 106.734 0)
(256.189 108.669 0)
(262.009 110.329 0)
(268.406 111.788 0)
(274.773 112.865 0)
(281.621 113.677 0)
(289.019 114.165 0)
(295.828 114.265 0)
(304.068 113.918 0)
(311.028 113.369 0)
(319.144 112.187 0)
(326.352 110.871 0)
(333.473 109.312 0)
(341.013 107.255 0)
(347.086 105.437 0)
(353.002 102.899 0)
(357.092 100.122 0)
(360.324 97.8265 0)
(365.684 96.1783 0)
(375.971 94.474 0)
(379.66 100.099 0)
(210 3.11877e-13 0)
(210 -8.36154e-12 0)
(210 2.93079e-12 0)
(210 -5.28483e-13 0)
(210 -4.96342e-12 0)
(210 -1.75065e-11 0)
(210 -1.15133e-11 0)
(210 -3.0972e-12 0)
(210 -5.3774e-12 0)
(210 -2.65728e-12 0)
(210 5.71428e-12 0)
(210 6.13335e-12 0)
(210 -1.00105e-10 0)
(210 -7.08832e-09 0)
(210 1.22593e-06 0)
(209.997 0.00034517 0)
(209.935 0.0140453 0)
(209.434 0.166294 0)
(208.002 0.697386 0)
(206.39 1.39864 0)
(205.447 1.83726 0)
(205.39 1.96784 0)
(205.638 1.94202 0)
(206.585 1.69344 0)
(207.806 1.30634 0)
(208.895 1.13844 0)
(209.635 1.04572 0)
(210.11 1.15388 0)
(210.391 1.38429 0)
(210.601 1.67455 0)
(210.81 1.97962 0)
(211.065 2.28394 0)
(211.377 2.5968 0)
(211.708 2.93658 0)
(212.022 3.30955 0)
(212.316 3.70609 0)
(212.58 4.12611 0)
(212.81 4.58247 0)
(213.006 5.08529 0)
(213.189 5.62843 0)
(213.358 6.20762 0)
(213.516 6.81585 0)
(213.65 7.4506 0)
(213.762 8.11016 0)
(213.835 8.79436 0)
(213.872 9.50393 0)
(213.892 10.2418 0)
(213.894 11.0073 0)
(213.873 11.8074 0)
(213.828 12.6412 0)
(213.764 13.5063 0)
(213.677 14.4009 0)
(213.57 15.3218 0)
(213.444 16.2675 0)
(213.3 17.2378 0)
(213.136 18.2337 0)
(212.953 19.2559 0)
(212.752 20.3046 0)
(212.536 21.3805 0)
(212.302 22.4855 0)
(212.05 23.6223 0)
(211.781 24.7926 0)
(211.496 25.997 0)
(211.201 27.2355 0)
(210.899 28.5081 0)
(210.592 29.8157 0)
(210.283 31.1601 0)
(209.972 32.5436 0)
(209.658 33.9696 0)
(209.346 35.439 0)
(209.038 36.9523 0)
(208.739 38.511 0)
(208.449 40.1191 0)
(208.166 41.7809 0)
(207.916 43.4876 0)
(207.679 45.2515 0)
(207.488 47.0698 0)
(207.321 48.9474 0)
(207.205 50.8837 0)
(207.133 52.8826 0)
(207.121 54.946 0)
(207.174 57.0765 0)
(207.304 59.2753 0)
(207.524 61.544 0)
(207.839 63.8835 0)
(208.277 66.296 0)
(208.829 68.7801 0)
(209.551 71.3354 0)
(210.398 73.959 0)
(211.477 76.6471 0)
(212.699 79.3998 0)
(214.219 82.2067 0)
(215.908 85.0707 0)
(217.955 87.9424 0)
(220.176 90.831 0)
(222.863 93.6726 0)
(225.709 96.5742 0)
(229.158 99.394 0)
(232.726 102.31 0)
(237.015 104.969 0)
(241.455 107.661 0)
(246.577 110.028 0)
(252.12 112.332 0)
(258.147 114.203 0)
(264.871 115.863 0)
(271.412 116.98 0)
(279.09 117.989 0)
(286.039 118.543 0)
(293.734 118.795 0)
(301.325 118.724 0)
(309.031 118.193 0)
(317.016 117.218 0)
(324.502 116.068 0)
(332.861 114.25 0)
(339.557 112.749 0)
(346.983 110.199 0)
(351.658 107.65 0)
(355.22 105.023 0)
(360.436 103.542 0)
(371.767 102.021 0)
(375.432 109.241 0)
(210 3.28549e-12 0)
(210 2.56929e-12 0)
(210 6.1031e-12 0)
(210 -2.62188e-12 0)
(210 -4.52368e-12 0)
(210 -2.06889e-11 0)
(210 -1.69872e-11 0)
(210 -5.14272e-13 0)
(210 -6.59751e-12 0)
(210 4.21437e-12 0)
(210 1.91738e-12 0)
(210 8.30642e-12 0)
(210 -6.26715e-11 0)
(210 -6.54642e-09 0)
(210 -2.26416e-07 0)
(209.999 8.46895e-05 0)
(209.969 0.00560186 0)
(209.643 0.0932384 0)
(208.427 0.509387 0)
(206.689 1.2175 0)
(205.475 1.71787 0)
(205.303 1.88537 0)
(205.371 1.93975 0)
(206.166 1.79116 0)
(207.385 1.41194 0)
(208.52 1.20109 0)
(209.296 1.06688 0)
(209.816 1.14976 0)
(210.11 1.36407 0)
(210.302 1.64172 0)
(210.474 1.93699 0)
(210.686 2.23497 0)
(210.966 2.54033 0)
(211.279 2.87011 0)
(211.58 3.23501 0)
(211.859 3.62755 0)
(212.112 4.04308 0)
(212.332 4.49355 0)
(212.517 4.99025 0)
(212.686 5.52745 0)
(212.838 6.10066 0)
(212.98 6.70135 0)
(213.099 7.32729 0)
(213.196 7.97613 0)
(213.25 8.64829 0)
(213.271 9.34599 0)
(213.277 10.0682 0)
(213.26 10.8189 0)
(213.216 11.6047 0)
(213.153 12.4211 0)
(213.067 13.2685 0)
(212.958 14.1448 0)
(212.828 15.0475 0)
(212.678 15.9749 0)
(212.507 16.9266 0)
(212.316 17.9035 0)
(212.105 18.9063 0)
(211.875 19.9352 0)
(211.627 20.9907 0)
(211.362 22.0744 0)
(211.077 23.1888 0)
(210.772 24.336 0)
(210.45 25.5169 0)
(210.114 26.7314 0)
(209.769 27.9795 0)
(209.416 29.262 0)
(209.057 30.5808 0)
(208.693 31.9381 0)
(208.324 33.3355 0)
(207.953 34.7748 0)
(207.581 36.259 0)
(207.211 37.7896 0)
(206.846 39.3678 0)
(206.494 40.9913 0)
(206.157 42.666 0)
(205.823 44.4013 0)
(205.534 46.1804 0)
(205.256 48.0229 0)
(205.03 49.922 0)
(204.832 51.885 0)
(204.688 53.9108 0)
(204.595 56.0036 0)
(204.568 58.1645 0)
(204.616 60.3961 0)
(204.746 62.6994 0)
(204.98 65.0777 0)
(205.312 67.5308 0)
(205.79 70.0619 0)
(206.374 72.6678 0)
(207.163 75.3505 0)
(208.071 78.1077 0)
(209.243 80.9398 0)
(210.558 83.8437 0)
(212.205 86.7906 0)
(214.03 89.7868 0)
(216.294 92.8068 0)
(218.73 95.9141 0)
(221.72 98.9886 0)
(224.841 102.11 0)
(228.623 105.034 0)
(232.507 108.011 0)
(237.111 110.673 0)
(241.895 113.333 0)
(247.356 115.746 0)
(253.254 118.045 0)
(259.733 119.914 0)
(266.614 121.463 0)
(274.353 122.727 0)
(281.716 123.399 0)
(290.402 123.764 0)
(298.227 123.662 0)
(306.881 123.023 0)
(314.811 122.242 0)
(323.514 120.9 0)
(331.052 119.488 0)
(338.908 117.234 0)
(344.34 114.8 0)
(348.698 112.171 0)
(354.457 110.27 0)
(365.963 108.712 0)
(369.79 115.584 0)
(210 6.97183e-12 0)
(210 4.03353e-12 0)
(210 2.02529e-12 0)
(210 -5.5414e-12 0)
(210 -1.2947e-11 0)
(210 -2.76736e-11 0)
(210 -1.72871e-11 0)
(210 -3.9684e-12 0)
(210 -6.94313e-12 0)
(210 8.74593e-12 0)
(210 6.85396e-12 0)
(210 1.2367e-11 0)
(210 -3.3071e-11 0)
(210 -3.11336e-09 0)
(210 -2.15102e-07 0)
(210 1.12832e-05 0)
(209.987 0.00184273 0)
(209.796 0.0458583 0)
(208.843 0.340482 0)
(207.077 1.00432 0)
(205.583 1.56524 0)
(205.232 1.8055 0)
(205.155 1.93237 0)
(205.756 1.8661 0)
(206.934 1.50899 0)
(208.116 1.26774 0)
(208.936 1.10085 0)
(209.506 1.15367 0)
(209.819 1.34608 0)
(209.993 1.60779 0)
(210.13 1.89366 0)
(210.298 2.19036 0)
(210.541 2.49768 0)
(210.833 2.82663 0)
(211.121 3.18802 0)
(211.386 3.57776 0)
(211.628 3.98756 0)
(211.838 4.42924 0)
(212.013 4.91565 0)
(212.167 5.44305 0)
(212.303 6.00624 0)
(212.429 6.5958 0)
(212.532 7.20967 0)
(212.612 7.84463 0)
(212.647 8.50241 0)
(212.655 9.18361 0)
(212.648 9.88498 0)
(212.606 10.6241 0)
(212.544 11.3902 0)
(212.462 12.187 0)
(212.356 13.0138 0)
(212.226 13.8697 0)
(212.073 14.7522 0)
(211.899 15.6594 0)
(211.704 16.5904 0)
(211.488 17.546 0)
(211.25 18.527 0)
(210.992 19.5336 0)
(210.716 20.5662 0)
(210.421 21.6259 0)
(210.106 22.7151 0)
(209.769 23.8361 0)
(209.413 24.99 0)
(209.04 26.177 0)
(208.655 27.397 0)
(208.26 28.6505 0)
(207.856 29.9392 0)
(207.443 31.265 0)
(207.023 32.6303 0)
(206.596 34.0369 0)
(206.165 35.4865 0)
(205.732 36.9808 0)
(205.3 38.5221 0)
(204.87 40.1124 0)
(204.448 41.7537 0)
(204.041 43.4418 0)
(203.656 45.1842 0)
(203.265 46.9961 0)
(202.929 48.8518 0)
(202.605 50.7774 0)
(202.333 52.7656 0)
(202.094 54.8243 0)
(201.911 56.9525 0)
(201.786 59.1544 0)
(201.729 61.4313 0)
(201.76 63.7881 0)
(201.874 66.2247 0)
(202.113 68.7456 0)
(202.445 71.347 0)
(202.958 74.0361 0)
(203.573 76.8073 0)
(204.427 79.663 0)
(205.409 82.5899 0)
(206.697 85.5805 0)
(208.144 88.6495 0)
(209.977 91.7908 0)
(211.963 95.0211 0)
(214.445 98.2444 0)
(217.065 101.505 0)
(220.318 104.667 0)
(223.698 107.901 0)
(227.834 110.95 0)
(232.15 114.065 0)
(237.173 116.86 0)
(242.509 119.65 0)
(248.455 122.103 0)
(254.711 124.175 0)
(261.802 126.172 0)
(268.853 127.692 0)
(276.552 128.881 0)
(284.512 129.75 0)
(292.425 129.968 0)
(300.766 129.879 0)
(309.041 129.372 0)
(317.341 128.493 0)
(325.528 126.806 0)
(331.725 124.791 0)
(336.849 122.355 0)
(342.774 120.678 0)
(355.231 118.778 0)
(358.795 126.509 0)
(210 4.51659e-12 0)
(210 4.66263e-12 0)
(210 -3.4906e-12 0)
(210 -1.34959e-11 0)
(210 -2.12816e-11 0)
(210 -2.93695e-11 0)
(210 -2.50644e-12 0)
(210 8.4443e-12 0)
(210 5.26198e-12 0)
(210 6.62721e-12 0)
(210 4.64498e-12 0)
(210 2.59246e-12 0)
(210 -1.44822e-11 0)
(210 -1.04619e-09 0)
(210 -9.5432e-08 0)
(210 -2.20241e-06 0)
(209.995 0.000461725 0)
(209.896 0.0192958 0)
(209.216 0.204944 0)
(207.553 0.775302 0)
(205.82 1.39553 0)
(205.189 1.74577 0)
(204.98 1.88105 0)
(205.367 1.88743 0)
(206.46 1.59066 0)
(207.676 1.32863 0)
(208.552 1.12967 0)
(209.176 1.13644 0)
(209.523 1.29945 0)
(209.689 1.5413 0)
(209.796 1.81584 0)
(209.923 2.11234 0)
(210.125 2.42726 0)
(210.392 2.76133 0)
(210.669 3.12263 0)
(210.917 3.51145 0)
(211.146 3.9169 0)
(211.344 4.35009 0)
(211.508 4.82562 0)
(211.646 5.34267 0)
(211.764 5.89494 0)
(211.872 6.47312 0)
(211.958 7.07461 0)
(212.019 7.69538 0)
(212.035 8.33901 0)
(212.038 8.99732 0)
(212.002 9.69154 0)
(211.942 10.4093 0)
(211.861 11.1572 0)
(211.758 11.9343 0)
(211.631 12.7409 0)
(211.479 13.5763 0)
(211.304 14.4386 0)
(211.105 15.3257 0)
(210.885 16.2367 0)
(210.643 17.1717 0)
(210.378 18.1316 0)
(210.091 19.1167 0)
(209.785 20.1271 0)
(209.46 21.1637 0)
(209.114 22.2287 0)
(208.745 23.3243 0)
(208.353 24.4523 0)
(207.943 25.613 0)
(207.517 26.8062 0)
(207.078 28.0322 0)
(206.627 29.2925 0)
(206.166 30.589 0)
(205.693 31.9237 0)
(205.211 33.2985 0)
(204.722 34.7153 0)
(204.225 36.1758 0)
(203.725 37.6818 0)
(203.224 39.2346 0)
(202.726 40.8364 0)
(202.234 42.4901 0)
(201.75 44.1985 0)
(201.284 45.9552 0)
(200.843 47.771 0)
(200.395 49.6612 0)
(200.006 51.5981 0)
(199.634 53.609 0)
(199.313 55.6886 0)
(199.035 57.8424 0)
(198.814 60.0704 0)
(198.664 62.3778 0)
(198.583 64.7655 0)
(198.604 67.2401 0)
(198.703 69.7991 0)
(198.955 72.4526 0)
(199.29 75.1925 0)
(199.834 78.0304 0)
(200.481 80.9574 0)
(201.394 83.9847 0)
(202.44 87.1118 0)
(203.831 90.3263 0)
(205.367 93.6131 0)
(207.364 96.9235 0)
(209.504 100.296 0)
(212.238 103.673 0)
(215.115 107.147 0)
(218.702 110.538 0)
(222.451 114.02 0)
(226.983 117.282 0)
(231.76 120.556 0)
(237.246 123.547 0)
(243.268 126.425 0)
(249.788 128.787 0)
(257.223 131.077 0)
(264.449 132.594 0)
(273.137 134.068 0)
(281.106 134.795 0)
(290.14 135.19 0)
(298.643 135.265 0)
(307.85 134.827 0)
(316.749 133.658 0)
(323.66 132.068 0)
(329.746 129.629 0)
(335.819 128.313 0)
(348.901 127.053 0)
(351.946 136.736 0)
(210 6.64332e-12 0)
(210 6.934e-12 0)
(210 -1.09007e-11 0)
(210 -1.83191e-11 0)
(210 -1.38521e-11 0)
(210 -9.33807e-12 0)
(210 1.08639e-11 0)
(210 2.8256e-12 0)
(210 -9.81639e-12 0)
(210 1.52535e-12 0)
(210 8.04903e-12 0)
(210 1.27279e-11 0)
(210 1.40863e-12 0)
(210 -2.96482e-10 0)
(210 -3.21089e-08 0)
(210 -2.03187e-06 0)
(209.998 6.47895e-05 0)
(209.953 0.0066441 0)
(209.518 0.108066 0)
(208.078 0.553208 0)
(206.161 1.19541 0)
(205.183 1.65475 0)
(204.834 1.78064 0)
(205.039 1.86946 0)
(205.99 1.68086 0)
(207.211 1.39987 0)
(208.144 1.15147 0)
(208.824 1.1137 0)
(209.212 1.2568 0)
(209.378 1.48933 0)
(209.461 1.76053 0)
(209.552 2.06054 0)
(209.711 2.38556 0)
(209.949 2.72381 0)
(210.212 3.08081 0)
(210.442 3.46276 0)
(210.656 3.85916 0)
(210.84 4.27984 0)
(210.993 4.74091 0)
(211.112 5.24485 0)
(211.214 5.78343 0)
(211.301 6.34866 0)
(211.368 6.93625 0)
(211.408 7.54203 0)
(211.413 8.16618 0)
(211.4 8.8088 0)
(211.342 9.48402 0)
(211.264 10.1836 0)
(211.162 10.9115 0)
(211.038 11.6677 0)
(210.891 12.4526 0)
(210.719 13.2659 0)
(210.522 14.1061 0)
(210.301 14.9713 0)
(210.057 15.8599 0)
(209.791 16.772 0)
(209.502 17.7084 0)
(209.189 18.6697 0)
(208.855 19.6558 0)
(208.502 20.6673 0)
(208.127 21.7059 0)
(207.728 22.7739 0)
(207.305 23.8732 0)
(206.86 25.0044 0)
(206.396 26.1674 0)
(205.918 27.3624 0)
(205.425 28.5904 0)
(204.919 29.8533 0)
(204.4 31.1532 0)
(203.868 32.4918 0)
(203.324 33.8713 0)
(202.771 35.2931 0)
(202.209 36.7593 0)
(201.641 38.2715 0)
(201.071 39.8317 0)
(200.5 41.4413 0)
(199.934 43.1033 0)
(199.374 44.8208 0)
(198.821 46.597 0)
(198.288 48.4269 0)
(197.78 50.3213 0)
(197.267 52.2931 0)
(196.81 54.323 0)
(196.376 56.4306 0)
(195.992 58.6147 0)
(195.66 60.8813 0)
(195.385 63.2309 0)
(195.192 65.6701 0)
(195.063 68.1966 0)
(195.063 70.8221 0)
(195.132 73.5377 0)
(195.386 76.36 0)
(195.721 79.2745 0)
(196.295 82.2966 0)
(196.983 85.4129 0)
(197.977 88.6236 0)
(199.1 91.9148 0)
(200.638 95.2845 0)
(202.309 98.7563 0)
(204.516 102.3 0)
(206.86 105.948 0)
(209.852 109.577 0)
(212.999 113.28 0)
(216.89 116.858 0)
(220.989 120.504 0)
(225.871 123.89 0)
(231.054 127.252 0)
(236.983 130.372 0)
(243.41 133.259 0)
(250.533 135.83 0)
(258.167 138.031 0)
(266.299 139.889 0)
(275.034 141.22 0)
(283.591 142.009 0)
(293.309 142.462 0)
(302.905 142.099 0)
(310.964 140.899 0)
(318.268 138.739 0)
(324.89 137.138 0)
(338.232 135.589 0)
(341.427 144.449 0)
(210 7.09473e-12 0)
(210 -1.26534e-11 0)
(210 -2.13096e-11 0)
(210 -6.46619e-12 0)
(210 -8.9589e-12 0)
(210 1.80695e-12 0)
(210 3.58377e-12 0)
(210 2.48213e-13 0)
(210 2.26311e-12 0)
(210 2.20441e-11 0)
(210 2.15383e-11 0)
(210 1.5511e-11 0)
(210 -4.39781e-12 0)
(210 -7.87065e-11 0)
(210 -8.92854e-09 0)
(210 -7.38807e-07 0)
(210 -1.02556e-05 0)
(209.982 0.00172418 0)
(209.735 0.048633 0)
(208.597 0.356165 0)
(206.626 0.976668 0)
(205.283 1.51749 0)
(204.712 1.6649 0)
(204.79 1.8612 0)
(205.534 1.74379 0)
(206.71 1.43989 0)
(207.707 1.14121 0)
(208.458 1.08476 0)
(208.903 1.21843 0)
(209.081 1.4426 0)
(209.144 1.70564 0)
(209.204 2.00073 0)
(209.314 2.3316 0)
(209.515 2.67246 0)
(209.756 3.02478 0)
(209.965 3.39858 0)
(210.159 3.786 0)
(210.33 4.19437 0)
(210.471 4.64096 0)
(210.573 5.13126 0)
(210.658 5.65516 0)
(210.721 6.2069 0)
(210.768 6.77991 0)
(210.788 7.37093 0)
(210.788 7.97122 0)
(210.748 8.6035 0)
(210.676 9.25743 0)
(210.577 9.93756 0)
(210.455 10.6447 0)
(210.311 11.3793 0)
(210.144 12.1422 0)
(209.951 12.9334 0)
(209.732 13.7518 0)
(209.488 14.5953 0)
(209.221 15.4622 0)
(208.931 16.352 0)
(208.617 17.2655 0)
(208.278 18.2032 0)
(207.917 19.1654 0)
(207.534 20.1522 0)
(207.13 21.1651 0)
(206.701 22.2063 0)
(206.245 23.278 0)
(205.765 24.3808 0)
(205.263 25.515 0)
(204.744 26.6803 0)
(204.208 27.8776 0)
(203.657 29.1085 0)
(203.089 30.3751 0)
(202.507 31.6792 0)
(201.91 33.0227 0)
(201.299 34.4071 0)
(200.676 35.8344 0)
(200.043 37.3062 0)
(199.403 38.8247 0)
(198.758 40.3912 0)
(198.111 42.0084 0)
(197.463 43.6783 0)
(196.822 45.4037 0)
(196.187 47.1884 0)
(195.561 49.0356 0)
(194.953 50.9416 0)
(194.373 52.9169 0)
(193.793 54.9724 0)
(193.265 57.0943 0)
(192.772 59.2968 0)
(192.327 61.583 0)
(191.944 63.9586 0)
(191.612 66.4233 0)
(191.383 68.9893 0)
(191.206 71.6478 0)
(191.185 74.4198 0)
(191.222 77.2898 0)
(191.466 80.2842 0)
(191.795 83.3851 0)
(192.392 86.6076 0)
(193.102 89.9368 0)
(194.181 93.3924 0)
(195.379 96.9726 0)
(197.059 100.659 0)
(198.864 104.445 0)
(201.267 108.267 0)
(203.828 112.173 0)
(207.098 116.042 0)
(210.573 119.993 0)
(214.855 123.811 0)
(219.44 127.671 0)
(224.794 131.256 0)
(230.609 134.808 0)
(237.144 138.056 0)
(244.318 140.955 0)
(251.982 143.394 0)
(260.523 145.569 0)
(268.958 147.209 0)
(277.895 148.613 0)
(287.911 149.554 0)
(295.926 149.387 0)
(303.571 147.852 0)
(310.195 146.957 0)
(324.454 145.698 0)
(327.205 155.972 0)
(210 -2.58506e-12 0)
(210 -1.86092e-11 0)
(210 -7.53372e-12 0)
(210 -1.23524e-11 0)
(210 -1.24271e-11 0)
(210 -3.20402e-13 0)
(210 -2.72806e-12 0)
(210 -2.60871e-15 0)
(210 9.01954e-12 0)
(210 1.35945e-11 0)
(210 9.33324e-12 0)
(210 -4.07523e-12 0)
(210 -7.52772e-12 0)
(210 -1.13044e-11 0)
(210 -2.17849e-09 0)
(210 -2.19249e-07 0)
(210 -1.0971e-05 0)
(209.994 0.000248182 0)
(209.872 0.0178729 0)
(209.065 0.202756 0)
(207.183 0.739044 0)
(205.491 1.33892 0)
(204.628 1.60652 0)
(204.612 1.78379 0)
(205.107 1.73806 0)
(206.183 1.45559 0)
(207.253 1.14813 0)
(208.084 1.09675 0)
(208.593 1.21024 0)
(208.79 1.41365 0)
(208.833 1.66032 0)
(208.867 1.94288 0)
(208.926 2.2753 0)
(209.084 2.61594 0)
(209.295 2.96155 0)
(209.483 3.32355 0)
(209.656 3.70019 0)
(209.811 4.09526 0)
(209.94 4.52635 0)
(210.028 5.00121 0)
(210.095 5.50907 0)
(210.132 6.04631 0)
(210.158 6.60486 0)
(210.161 7.17999 0)
(210.149 7.76455 0)
(210.089 8.37943 0)
(210 9.01488 0)
(209.882 9.67545 0)
(209.74 10.3619 0)
(209.576 11.0751 0)
(209.388 11.8159 0)
(209.175 12.5845 0)
(208.935 13.3801 0)
(208.67 14.2008 0)
(208.381 15.0447 0)
(208.068 15.9111 0)
(207.731 16.8004 0)
(207.368 17.7134 0)
(206.981 18.6502 0)
(206.572 19.6109 0)
(206.14 20.5964 0)
(205.683 21.6088 0)
(205.199 22.6502 0)
(204.687 23.7219 0)
(204.151 24.8239 0)
(203.595 25.9561 0)
(203.02 27.1193 0)
(202.428 28.3146 0)
(201.818 29.5441 0)
(201.19 30.8096 0)
(200.545 32.113 0)
(199.883 33.4559 0)
(199.206 34.8401 0)
(198.514 36.2674 0)
(197.81 37.7398 0)
(197.096 39.259 0)
(196.374 40.8274 0)
(195.647 42.4469 0)
(194.917 44.1208 0)
(194.186 45.8513 0)
(193.46 47.6422 0)
(192.741 49.4971 0)
(192.029 51.4203 0)
(191.333 53.4097 0)
(190.666 55.4743 0)
(190.005 57.6237 0)
(189.387 59.8533 0)
(188.815 62.1687 0)
(188.283 64.5768 0)
(187.833 67.0874 0)
(187.42 69.6928 0)
(187.14 72.4145 0)
(186.899 75.2346 0)
(186.84 78.1838 0)
(186.843 81.2375 0)
(187.08 84.4238 0)
(187.405 87.7255 0)
(188.044 91.1738 0)
(188.773 94.7434 0)
(189.927 98.4388 0)
(191.185 102.238 0)
(192.994 106.137 0)
(194.951 110.15 0)
(197.572 114.227 0)
(200.404 118.419 0)
(203.997 122.588 0)
(207.872 126.86 0)
(212.601 130.996 0)
(217.71 135.147 0)
(223.608 139.031 0)
(230.134 142.806 0)
(237.521 146.173 0)
(245.549 149.159 0)
(254.709 151.843 0)
(263.609 153.515 0)
(274.532 155.153 0)
(283.716 155.504 0)
(293.177 154.296 0)
(300.656 153.636 0)
(314.904 153.683 0)
(317.394 165.173 0)
(210 -7.26527e-12 0)
(210 -8.82697e-12 0)
(210 -9.40086e-12 0)
(210 -1.94738e-11 0)
(210 1.62994e-12 0)
(210 1.4135e-12 0)
(210 -8.10789e-12 0)
(210 3.76812e-12 0)