/*--------------------------------*- C++ -*----------------------------------*\
| =========                 |                                                 |
| \\      /  F ield         | OpenFOAM: The Open Source CFD Toolbox           |
|  \\    /   O peration     | Version:  2412                                  |
|   \\  /    A nd           | Website:  www.openfoam.com                      |
|    \\/     M anipulation  |                                                 |
\*---------------------------------------------------------------------------*/
FoamFile
{
    version     2.0;
    format      ascii;
    arch        "LSB;label=32;scalar=64";
    class       volVectorField;
    location    "0.026";
    object      U;
}
// * * * * * * * * * * * * * * * * * * * * * * * * * * * * * * * * * * * * * //

dimensions      [0 1 -1 0 0 0 0];

internalField   nonuniform List<vector> 
78650
(
(210 -1.04209e-12 0)
(210 2.21606e-12 0)
(210 -1.06189e-11 0)
(210 -4.41935e-12 0)
(210 5.17028e-12 0)
(210 -1.02015e-11 0)
(210 -5.00768e-12 0)
(210 2.18172e-12 0)
(210 9.25188e-14 0)
(210 1.10215e-12 0)
(210 1.15732e-11 0)
(210 8.0226e-10 0)
(210 9.27593e-08 0)
(210 9.98225e-06 0)
(209.996 0.000849127 0)
(209.915 0.02494 0)
(209.351 0.237944 0)
(207.97 0.861166 0)
(206.505 1.54509 0)
(205.983 1.8852 0)
(205.815 2.07852 0)
(206.212 2.07726 0)
(207.304 1.69769 0)
(208.572 1.28646 0)
(209.588 0.949585 0)
(210.423 0.841423 0)
(211.02 0.874252 0)
(211.376 1.06715 0)
(211.677 1.34906 0)
(212.014 1.66506 0)
(212.41 1.97867 0)
(212.832 2.30178 0)
(213.256 2.65559 0)
(213.665 3.04828 0)
(214.063 3.4685 0)
(214.436 3.90998 0)
(214.762 4.3805 0)
(215.049 4.88799 0)
(215.315 5.43312 0)
(215.569 6.01443 0)
(215.816 6.62763 0)
(216.044 7.27354 0)
(216.243 7.95045 0)
(216.415 8.65886 0)
(216.567 9.39456 0)
(216.687 10.16 0)
(216.782 10.9572 0)
(216.869 11.7878 0)
(216.943 12.6565 0)
(216.998 13.5636 0)
(217.038 14.505 0)
(217.063 15.4782 0)
(217.073 16.4792 0)
(217.068 17.5081 0)
(217.05 18.5642 0)
(217.019 19.6484 0)
(216.976 20.7611 0)
(216.924 21.903 0)
(216.862 23.0759 0)
(216.792 24.2824 0)
(216.714 25.5244 0)
(216.631 26.8026 0)
(216.549 28.1164 0)
(216.469 29.4675 0)
(216.399 30.8541 0)
(216.341 32.28 0)
(216.294 33.7468 0)
(216.267 35.2562 0)
(216.259 36.8104 0)
(216.274 38.4089 0)
(216.324 40.0544 0)
(216.406 41.747 0)
(216.536 43.4887 0)
(216.709 45.2793 0)
(216.949 47.1198 0)
(217.247 49.0101 0)
(217.629 50.952 0)
(218.091 52.9455 0)
(218.65 54.9906 0)
(219.315 57.0862 0)
(220.102 59.2311 0)
(221.024 61.4231 0)
(222.094 63.6588 0)
(223.336 65.9323 0)
(224.751 68.2414 0)
(226.386 70.5754 0)
(228.213 72.9307 0)
(230.322 75.2746 0)
(232.634 77.6227 0)
(235.299 79.9404 0)
(238.18 82.2733 0)
(241.496 84.4948 0)
(245.01 86.6918 0)
(249.027 88.6192 0)
(253.191 90.5715 0)
(257.944 92.22 0)
(263.015 93.7894 0)
(268.585 95.0685 0)
(274.674 96.1555 0)
(281.021 96.7843 0)
(287.903 97.0732 0)
(294.763 96.944 0)
(301.655 96.669 0)
(308.755 96.0765 0)
(315.357 95.4531 0)
(321.962 94.5756 0)
(328.857 93.2114 0)
(335.027 91.8276 0)
(341.909 89.8002 0)
(348.525 87.4147 0)
(354.902 84.7465 0)
(361.393 81.7618 0)
(366.447 79.5038 0)
(371.088 77.454 0)
(374.82 75.2657 0)
(377.09 73.3425 0)
(379.238 70.9723 0)
(381.69 69.7133 0)
(386.534 68.4755 0)
(394.26 67.3641 0)
(397.047 71.8006 0)
(210 1.07203e-12 0)
(210 1.26084e-12 0)
(210 -9.13552e-12 0)
(210 -7.57348e-12 0)
(210 -2.62853e-13 0)
(210 -5.91461e-12 0)
(210 6.31617e-12 0)
(210 2.34548e-12 0)
(210 -1.14218e-11 0)
(210 -9.77527e-12 0)
(210 4.01535e-12 0)
(210 2.14352e-10 0)
(210 2.62728e-08 0)
(210 3.06774e-06 0)
(209.998 0.000350116 0)
(209.95 0.0132958 0)
(209.53 0.159564 0)
(208.264 0.693509 0)
(206.698 1.40787 0)
(205.967 1.83082 0)
(205.716 2.0351 0)
(205.98 2.09808 0)
(206.961 1.79741 0)
(208.22 1.37824 0)
(209.271 1.01278 0)
(210.143 0.890824 0)
(210.765 0.908171 0)
(211.133 1.0916 0)
(211.425 1.37046 0)
(211.738 1.68772 0)
(212.101 2.00349 0)
(212.498 2.3226 0)
(212.904 2.66685 0)
(213.299 3.04836 0)
(213.678 3.45839 0)
(214.035 3.88882 0)
(214.348 4.34719 0)
(214.622 4.84283 0)
(214.872 5.37846 0)
(215.11 5.95131 0)
(215.342 6.55699 0)
(215.555 7.19491 0)
(215.742 7.86304 0)
(215.902 8.56133 0)
(216.04 9.28657 0)
(216.142 10.0412 0)
(216.222 10.8262 0)
(216.292 11.6443 0)
(216.347 12.5003 0)
(216.383 13.3939 0)
(216.403 14.3204 0)
(216.404 15.2791 0)
(216.391 16.2646 0)
(216.362 17.2779 0)
(216.319 18.3176 0)
(216.261 19.3846 0)
(216.19 20.4794 0)
(216.108 21.6027 0)
(216.015 22.7561 0)
(215.911 23.9421 0)
(215.797 25.163 0)
(215.675 26.4194 0)
(215.552 27.7107 0)
(215.425 29.0416 0)
(215.306 30.4045 0)
(215.196 31.8064 0)
(215.092 33.2495 0)
(215.005 34.7345 0)
(214.93 36.2651 0)
(214.876 37.8393 0)
(214.848 39.461 0)
(214.846 41.1298 0)
(214.885 42.8487 0)
(214.959 44.6177 0)
(215.09 46.4384 0)
(215.27 48.3106 0)
(215.525 50.2369 0)
(215.848 52.2177 0)
(216.257 54.2544 0)
(216.758 56.3467 0)
(217.368 58.4944 0)
(218.097 60.6962 0)
(218.961 62.9506 0)
(219.98 65.2548 0)
(221.158 67.606 0)
(222.54 69.9951 0)
(224.101 72.4205 0)
(225.927 74.8648 0)
(227.951 77.3385 0)
(230.312 79.8004 0)
(232.881 82.265 0)
(235.843 84.6485 0)
(239 87.0313 0)
(242.668 89.2504 0)
(246.494 91.4957 0)
(250.861 93.4174 0)
(255.341 95.3498 0)
(260.328 96.9784 0)
(265.637 98.4178 0)
(271.342 99.5836 0)
(277.536 100.536 0)
(284.072 101.137 0)
(290.984 101.317 0)
(298.019 101.139 0)
(305.769 100.355 0)
(312.648 99.3974 0)
(320.582 97.9241 0)
(327.556 96.3641 0)
(334.772 94.5595 0)
(341.924 92.4181 0)
(348.184 90.4746 0)
(354.474 88.2798 0)
(360.195 86.0738 0)
(365.461 83.8725 0)
(370.046 81.6366 0)
(373.145 79.5952 0)
(375.398 77.15 0)
(377.454 75.604 0)
(381.935 74.2438 0)
(390.06 73.0874 0)
(393.588 77.3103 0)
(210 4.96487e-13 0)
(210 -2.66824e-12 0)
(210 -1.104e-11 0)
(210 -9.56335e-12 0)
(210 1.14852e-11 0)
(210 1.01415e-11 0)
(210 1.27021e-11 0)
(210 -8.2201e-12 0)
(210 -6.7386e-12 0)
(210 6.91131e-12 0)
(210 2.11134e-11 0)
(210 1.16053e-10 0)
(210 1.10609e-08 0)
(210 1.13553e-06 0)
(209.999 0.00013474 0)
(209.972 0.00654919 0)
(209.678 0.100721 0)
(208.581 0.538628 0)
(206.947 1.25496 0)
(205.98 1.75917 0)
(205.61 1.98938 0)
(205.793 2.1128 0)
(206.617 1.87626 0)
(207.833 1.44663 0)
(208.925 1.04989 0)
(209.844 0.918465 0)
(210.499 0.92067 0)
(210.888 1.09664 0)
(211.175 1.37406 0)
(211.462 1.69262 0)
(211.788 2.00993 0)
(212.155 2.32487 0)
(212.544 2.65919 0)
(212.923 3.02865 0)
(213.286 3.42762 0)
(213.628 3.84658 0)
(213.928 4.29275 0)
(214.19 4.77683 0)
(214.426 5.30348 0)
(214.65 5.86867 0)
(214.866 6.46789 0)
(215.066 7.09927 0)
(215.239 7.76053 0)
(215.388 8.45099 0)
(215.511 9.1682 0)
(215.595 9.91417 0)
(215.659 10.6892 0)
(215.712 11.4972 0)
(215.747 12.3427 0)
(215.762 13.2232 0)
(215.762 14.1337 0)
(215.739 15.0804 0)
(215.701 16.0537 0)
(215.648 17.0519 0)
(215.579 18.0762 0)
(215.494 19.1274 0)
(215.394 20.2061 0)
(215.281 21.3128 0)
(215.155 22.4491 0)
(215.017 23.6173 0)
(214.866 24.8196 0)
(214.705 26.0575 0)
(214.537 27.3318 0)
(214.367 28.6399 0)
(214.2 29.9838 0)
(214.035 31.3667 0)
(213.875 32.7894 0)
(213.729 34.2508 0)
(213.588 35.7595 0)
(213.466 37.3106 0)
(213.363 38.9098 0)
(213.282 40.5557 0)
(213.233 42.2513 0)
(213.213 43.9969 0)
(213.243 45.7946 0)
(213.313 47.6441 0)
(213.449 49.5481 0)
(213.643 51.507 0)
(213.914 53.5226 0)
(214.265 55.5953 0)
(214.711 57.7253 0)
(215.263 59.9122 0)
(215.934 62.1555 0)
(216.742 64.4533 0)
(217.691 66.8038 0)
(218.821 69.2017 0)
(220.112 71.6453 0)
(221.641 74.1224 0)
(223.345 76.6387 0)
(225.352 79.1696 0)
(227.549 81.7264 0)
(230.12 84.2509 0)
(232.897 86.784 0)
(236.142 89.23 0)
(239.57 91.7386 0)
(243.612 94.0457 0)
(247.82 96.3921 0)
(252.625 98.3571 0)
(257.676 100.238 0)
(263.191 101.77 0)
(268.981 103.082 0)
(275.05 104.134 0)
(281.469 104.864 0)
(287.762 105.283 0)
(295.204 105.363 0)
(302.03 104.982 0)
(309.578 104.348 0)
(317.411 103.16 0)
(324.166 101.882 0)
(331.654 100.206 0)
(338.307 98.4893 0)
(344.793 96.4914 0)
(351.057 94.3407 0)
(356.986 91.9569 0)
(361.715 89.8004 0)
(365.508 87.6865 0)
(368.546 85.1278 0)
(371.255 83.4592 0)
(376.322 81.9487 0)
(385.236 80.4428 0)
(388.738 84.9399 0)
(210 -9.71428e-13 0)
(210 1.14373e-12 0)
(210 -4.38906e-12 0)
(210 8.09091e-12 0)
(210 2.19115e-11 0)
(210 1.23793e-11 0)
(210 -2.25099e-12 0)
(210 -5.89751e-12 0)
(210 -6.70032e-13 0)
(210 1.42923e-11 0)
(210 1.39797e-11 0)
(210 2.75067e-11 0)
(210 2.07802e-09 0)
(210 2.49797e-07 0)
(210 4.12114e-05 0)
(209.986 0.00284285 0)
(209.794 0.0580934 0)
(208.886 0.392259 0)
(207.245 1.08064 0)
(206.05 1.66557 0)
(205.53 1.94394 0)
(205.634 2.10183 0)
(206.275 1.92869 0)
(207.432 1.52472 0)
(208.572 1.12111 0)
(209.547 0.987257 0)
(210.231 0.967427 0)
(210.643 1.1254 0)
(210.923 1.39059 0)
(211.183 1.70243 0)
(211.47 2.01722 0)
(211.803 2.32763 0)
(212.169 2.65285 0)
(212.533 3.01117 0)
(212.879 3.40091 0)
(213.205 3.81152 0)
(213.492 4.24836 0)
(213.742 4.72286 0)
(213.963 5.24152 0)
(214.173 5.79914 0)
(214.374 6.39141 0)
(214.56 7.01487 0)
(214.721 7.66704 0)
(214.858 8.34689 0)
(214.966 9.05313 0)
(215.034 9.78699 0)
(215.084 10.549 0)
(215.12 11.3447 0)
(215.135 12.176 0)
(215.136 13.0354 0)
(215.11 13.9372 0)
(215.066 14.8665 0)
(215.006 15.8219 0)
(214.93 16.8028 0)
(214.836 17.8094 0)
(214.725 18.8424 0)
(214.598 19.9025 0)
(214.456 20.9901 0)
(214.299 22.1064 0)
(214.129 23.2536 0)
(213.944 24.434 0)
(213.747 25.6491 0)
(213.54 26.8993 0)
(213.328 28.1848 0)
(213.114 29.506 0)
(212.901 30.8635 0)
(212.693 32.2581 0)
(212.491 33.6937 0)
(212.287 35.1785 0)
(212.101 36.7003 0)
(211.926 38.2711 0)
(211.769 39.889 0)
(211.637 41.5568 0)
(211.527 43.2754 0)
(211.458 45.0464 0)
(211.421 46.8702 0)
(211.441 48.7498 0)
(211.508 50.6859 0)
(211.642 52.6813 0)
(211.842 54.737 0)
(212.126 56.8544 0)
(212.501 59.0341 0)
(212.979 61.2768 0)
(213.578 63.5822 0)
(214.304 65.9489 0)
(215.193 68.3737 0)
(216.229 70.8555 0)
(217.483 73.3888 0)
(218.898 75.9752 0)
(220.596 78.5906 0)
(222.476 81.2363 0)
(224.704 83.8779 0)
(227.132 86.554 0)
(229.991 89.1931 0)
(233.032 91.8605 0)
(236.612 94.3626 0)
(240.311 96.9059 0)
(244.664 99.142 0)
(249.169 101.417 0)
(254.302 103.374 0)
(259.873 105.205 0)
(265.848 106.635 0)
(272.42 107.882 0)
(278.93 108.661 0)
(285.658 109.343 0)
(292.873 109.587 0)
(299.332 109.669 0)
(306.976 109.178 0)
(314.047 108.419 0)
(321.094 107.376 0)
(328.78 105.866 0)
(335.64 104.185 0)
(342.957 102.169 0)
(350.289 99.7981 0)
(356.547 97.2489 0)
(361.75 94.4531 0)
(365.096 91.7392 0)
(367.546 89.8523 0)
(372.294 88.596 0)
(382.1 87.1502 0)
(385.686 92.9223 0)
(210 9.12872e-12 0)
(210 1.00616e-11 0)
(210 5.18032e-12 0)
(210 1.92322e-11 0)
(210 3.97928e-12 0)
(210 -9.95559e-12 0)
(210 -4.76588e-12 0)
(210 8.48124e-13 0)
(210 6.81913e-12 0)
(210 6.16144e-12 0)
(210 4.05154e-12 0)
(210 1.39611e-11 0)
(210 3.68382e-10 0)
(210 4.20192e-08 0)
(210 1.01849e-05 0)
(209.993 0.0010872 0)
(209.879 0.0304208 0)
(209.178 0.267472 0)
(207.605 0.893571 0)
(206.187 1.54699 0)
(205.47 1.90941 0)
(205.501 2.04306 0)
(205.944 1.94936 0)
(207.008 1.59749 0)
(208.193 1.1957 0)
(209.226 1.05227 0)
(209.941 0.999618 0)
(210.383 1.13507 0)
(210.662 1.38512 0)
(210.896 1.68875 0)
(211.144 2.00113 0)
(211.439 2.30882 0)
(211.781 2.62599 0)
(212.129 2.97205 0)
(212.459 3.35027 0)
(212.77 3.75076 0)
(213.046 4.17704 0)
(213.287 4.64146 0)
(213.495 5.15237 0)
(213.691 5.70352 0)
(213.876 6.29048 0)
(214.047 6.90789 0)
(214.195 7.55305 0)
(214.32 8.22453 0)
(214.411 8.92172 0)
(214.462 9.64525 0)
(214.497 10.3969 0)
(214.513 11.1813 0)
(214.514 11.9941 0)
(214.49 12.8462 0)
(214.444 13.7295 0)
(214.378 14.6423 0)
(214.294 15.5821 0)
(214.192 16.5468 0)
(214.072 17.5363 0)
(213.935 18.5518 0)
(213.779 19.5941 0)
(213.607 20.6636 0)
(213.419 21.7612 0)
(213.215 22.8889 0)
(212.996 24.0491 0)
(212.761 25.2435 0)
(212.513 26.4727 0)
(212.258 27.7364 0)
(211.999 29.0348 0)
(211.737 30.3692 0)
(211.475 31.7422 0)
(211.214 33.1563 0)
(210.958 34.6098 0)
(210.707 36.1075 0)
(210.461 37.6542 0)
(210.228 39.2454 0)
(210.016 40.884 0)
(209.82 42.5745 0)
(209.658 44.317 0)
(209.52 46.1131 0)
(209.432 47.964 0)
(209.381 49.8713 0)
(209.389 51.8374 0)
(209.453 53.8642 0)
(209.589 55.9532 0)
(209.803 58.1056 0)
(210.107 60.3224 0)
(210.515 62.6041 0)
(211.034 64.9505 0)
(211.695 67.3614 0)
(212.485 69.8362 0)
(213.467 72.3716 0)
(214.589 74.9657 0)
(215.965 77.6084 0)
(217.5 80.3046 0)
(219.355 83.0348 0)
(221.397 85.8121 0)
(223.833 88.581 0)
(226.455 91.3769 0)
(229.583 94.0783 0)
(232.858 96.8135 0)
(236.778 99.3456 0)
(240.802 101.955 0)
(245.492 104.24 0)
(250.388 106.518 0)
(255.888 108.503 0)
(261.831 110.293 0)
(268.345 111.729 0)
(275.148 112.746 0)
(282.551 113.452 0)
(289.898 113.565 0)
(297.443 113.5 0)
(305.561 112.963 0)
(312.591 112.369 0)
(321.096 111.04 0)
(328.268 109.67 0)
(335.634 108.056 0)
(343.181 106.153 0)
(349.511 104.339 0)
(355.743 101.633 0)
(359.974 98.6376 0)
(363.15 96.0512 0)
(368.322 94.2478 0)
(378.381 92.8749 0)
(382.194 98.6345 0)
(210 8.91357e-12 0)
(210 -3.05296e-12 0)
(210 2.553e-12 0)
(210 1.36715e-11 0)
(210 -7.8563e-12 0)
(210 -5.04698e-12 0)
(210 -6.24645e-12 0)
(210 -8.55844e-13 0)
(210 3.45068e-12 0)
(210 -4.6355e-12 0)
(210 1.66847e-13 0)
(210 1.48426e-13 0)
(210 -1.02221e-10 0)
(210 -7.07767e-09 0)
(210 1.22592e-06 0)
(209.997 0.000345171 0)
(209.935 0.0140453 0)
(209.434 0.166294 0)
(208.002 0.697386 0)
(206.39 1.39864 0)
(205.447 1.83726 0)
(205.39 1.96784 0)
(205.638 1.94202 0)
(206.585 1.69344 0)
(207.806 1.30634 0)
(208.895 1.13844 0)
(209.635 1.04572 0)
(210.11 1.15388 0)
(210.391 1.38429 0)
(210.601 1.67455 0)
(210.81 1.97962 0)
(211.065 2.28394 0)
(211.377 2.5968 0)
(211.708 2.93658 0)
(212.022 3.30955 0)
(212.316 3.70609 0)
(212.58 4.1261 0)
(212.81 4.58245 0)
(213.006 5.08527 0)
(213.189 5.62843 0)
(213.358 6.20764 0)
(213.516 6.81587 0)
(213.65 7.45058 0)
(213.762 8.11009 0)
(213.835 8.79431 0)
(213.872 9.50398 0)
(213.891 10.2418 0)
(213.893 11.0076 0)
(213.873 11.8072 0)
(213.829 12.6409 0)
(213.764 13.5059 0)
(213.677 14.4007 0)
(213.57 15.322 0)
(213.444 16.2677 0)
(213.3 17.2378 0)
(213.137 18.2334 0)
(212.954 19.2553 0)
(212.753 20.3041 0)
(212.536 21.3804 0)
(212.302 22.4858 0)
(212.05 23.6226 0)
(211.78 24.7926 0)
(211.497 25.9967 0)
(211.202 27.2351 0)
(210.899 28.5077 0)
(210.593 29.8155 0)
(210.283 31.1599 0)
(209.972 32.5435 0)
(209.658 33.9696 0)
(209.344 35.4393 0)
(209.037 36.9524 0)
(208.738 38.5105 0)
(208.449 40.1184 0)
(208.168 41.7792 0)
(207.917 43.4864 0)
(207.68 45.2506 0)
(207.488 47.0693 0)
(207.321 48.9469 0)
(207.206 50.8833 0)
(207.133 52.8824 0)
(207.121 54.9457 0)
(207.174 57.076 0)
(207.303 59.2747 0)
(207.521 61.5438 0)
(207.834 63.8842 0)
(208.27 66.2969 0)
(208.822 68.7806 0)
(209.544 71.3352 0)
(210.393 73.9585 0)
(211.473 76.6462 0)
(212.698 79.3964 0)
(214.22 82.1967 0)
(215.913 85.0527 0)
(217.966 87.927 0)
(220.201 90.838 0)
(222.901 93.7096 0)
(225.759 96.625 0)
(229.214 99.426 0)
(232.782 102.302 0)
(237.057 104.92 0)
(241.453 107.574 0)
(246.472 109.878 0)
(251.813 112.117 0)
(257.68 114.076 0)
(264.085 115.759 0)
(270.592 117.046 0)
(278.153 118.141 0)
(284.984 118.677 0)
(293.529 119.014 0)
(301.048 118.698 0)
(309.246 118.086 0)
(317.523 117.049 0)
(324.888 116.021 0)
(333.251 114.246 0)
(339.724 112.72 0)
(346.02 110.333 0)
(350.284 107.84 0)
(353.702 105.431 0)
(359.099 103.692 0)
(370.114 101.944 0)
(373.828 108.315 0)
(210 9.86511e-13 0)
(210 -2.91949e-12 0)
(210 1.17672e-11 0)
(210 6.80323e-12 0)
(210 -2.36187e-13 0)
(210 -1.21285e-12 0)
(210 -4.64132e-12 0)
(210 -4.3209e-13 0)
(210 -1.0708e-11 0)
(210 -5.10481e-12 0)
(210 -7.45957e-13 0)
(210 7.86337e-12 0)
(210 -7.01e-11 0)
(210 -6.55141e-09 0)
(210 -2.26411e-07 0)
(209.999 8.46895e-05 0)
(209.969 0.00560186 0)
(209.643 0.0932384 0)
(208.427 0.509387 0)
(206.689 1.2175 0)
(205.475 1.71787 0)
(205.303 1.88537 0)
(205.371 1.93975 0)
(206.166 1.79116 0)
(207.385 1.41194 0)
(208.52 1.20109 0)
(209.296 1.06688 0)
(209.816 1.14976 0)
(210.11 1.36407 0)
(210.302 1.64172 0)
(210.474 1.93699 0)
(210.686 2.23497 0)
(210.966 2.54033 0)
(211.279 2.87012 0)
(211.58 3.23501 0)
(211.859 3.62755 0)
(212.112 4.04307 0)
(212.332 4.49353 0)
(212.517 4.99023 0)
(212.686 5.52745 0)
(212.838 6.10068 0)
(212.98 6.70138 0)
(213.099 7.32728 0)
(213.196 7.97607 0)
(213.25 8.64823 0)
(213.271 9.34603 0)
(213.277 10.0682 0)
(213.259 10.8192 0)
(213.216 11.6047 0)
(213.154 12.4208 0)
(213.068 13.2681 0)
(212.959 14.1446 0)
(212.828 15.0476 0)
(212.677 15.9751 0)
(212.507 16.9267 0)
(212.317 17.9032 0)
(212.106 18.9057 0)
(211.876 19.9346 0)
(211.627 20.9905 0)
(211.361 22.0746 0)
(211.076 23.1891 0)
(210.772 24.3361 0)
(210.45 25.5167 0)
(210.115 26.7311 0)
(209.769 27.9792 0)
(209.416 29.2617 0)
(209.058 30.5805 0)
(208.693 31.9378 0)
(208.323 33.3354 0)
(207.952 34.775 0)
(207.58 36.2592 0)
(207.21 37.7895 0)
(206.846 39.3668 0)
(206.495 40.9901 0)
(206.158 42.6649 0)
(205.824 44.4005 0)
(205.534 46.1801 0)
(205.257 48.0226 0)
(205.03 49.9217 0)
(204.832 51.8849 0)
(204.689 53.9107 0)
(204.596 56.0033 0)
(204.569 58.164 0)
(204.615 60.3956 0)
(204.742 62.6995 0)
(204.974 65.0784 0)
(205.305 67.5318 0)
(205.783 70.062 0)
(206.369 72.6659 0)
(207.159 75.3476 0)
(208.069 78.106 0)
(209.242 80.9394 0)
(210.562 83.8433 0)
(212.213 86.7962 0)
(214.039 89.8098 0)
(216.293 92.8473 0)
(218.717 95.9589 0)
(221.703 99.037 0)
(224.839 102.183 0)
(228.664 105.148 0)
(232.622 108.175 0)
(237.316 110.886 0)
(242.212 113.591 0)
(247.722 115.983 0)
(253.686 118.204 0)
(260.015 119.994 0)
(266.977 121.631 0)
(273.938 122.804 0)
(281.184 123.747 0)
(289.027 124.282 0)
(296.219 124.417 0)
(304.796 124.055 0)
(312.245 123.452 0)
(320.864 122.171 0)
(328.6 120.852 0)
(336.818 118.629 0)
(342.635 116.13 0)
(347.086 113.525 0)
(352.815 111.85 0)
(364.806 110.273 0)
(368.406 118.059 0)
(210 -1.1312e-12 0)
(210 7.62391e-12 0)
(210 9.03196e-12 0)
(210 -1.21872e-12 0)
(210 -7.29831e-12 0)
(210 -1.58816e-11 0)
(210 -8.20889e-12 0)
(210 -9.98881e-12 0)
(210 -1.42375e-11 0)
(210 5.41319e-12 0)
(210 1.11215e-11 0)
(210 2.16452e-11 0)
(210 -2.4332e-11 0)
(210 -3.11254e-09 0)
(210 -2.15069e-07 0)
(210 1.12832e-05 0)
(209.987 0.00184273 0)
(209.796 0.0458583 0)
(208.843 0.340482 0)
(207.077 1.00432 0)
(205.583 1.56524 0)
(205.232 1.8055 0)
(205.155 1.93237 0)
(205.756 1.8661 0)
(206.934 1.50899 0)
(208.116 1.26774 0)
(208.936 1.10085 0)
(209.506 1.15367 0)
(209.819 1.34608 0)
(209.993 1.60779 0)
(210.13 1.89366 0)
(210.298 2.19036 0)
(210.541 2.49768 0)
(210.833 2.82663 0)
(211.121 3.18802 0)
(211.386 3.57776 0)
(211.629 3.98756 0)
(211.838 4.42923 0)
(212.013 4.91564 0)
(212.167 5.44304 0)
(212.302 6.00625 0)
(212.428 6.59583 0)
(212.532 7.20967 0)
(212.612 7.84459 0)
(212.647 8.50237 0)
(212.655 9.18357 0)
(212.648 9.88508 0)
(212.605 10.6243 0)
(212.544 11.3903 0)
(212.462 12.1867 0)
(212.357 13.0135 0)
(212.227 13.8694 0)
(212.073 14.7522 0)
(211.899 15.6596 0)
(211.704 16.5906 0)
(211.488 17.5459 0)
(211.251 18.5265 0)
(210.993 19.533 0)
(210.716 20.5659 0)
(210.421 21.626 0)
(210.105 22.7154 0)
(209.769 23.8363 0)
(209.413 24.9899 0)
(209.041 26.1767 0)
(208.655 27.3967 0)
(208.26 28.6503 0)
(207.856 29.939 0)
(207.443 31.2648 0)
(207.023 32.6301 0)
(206.596 34.0369 0)
(206.164 35.4867 0)
(205.731 36.9808 0)
(205.3 38.5215 0)
(204.871 40.1113 0)
(204.449 41.7525 0)
(204.042 43.4409 0)
(203.657 45.1835 0)
(203.265 46.9959 0)
(202.93 48.8516 0)
(202.606 50.7773 0)
(202.333 52.7655 0)
(202.094 54.824 0)
(201.911 56.952 0)
(201.785 59.1537 0)
(201.727 61.4312 0)
(201.755 63.7886 0)
(201.868 66.2254 0)
(202.106 68.7457 0)
(202.439 71.3468 0)
(202.953 74.0361 0)
(203.57 76.8061 0)
(204.425 79.6583 0)
(205.411 82.5843 0)
(206.697 85.5807 0)
(208.139 88.6526 0)
(209.964 91.7772 0)
(211.944 94.9713 0)
(214.424 98.164 0)
(217.044 101.412 0)
(220.298 104.574 0)
(223.683 107.811 0)
(227.815 110.868 0)
(232.122 114.008 0)
(237.165 116.849 0)
(242.524 119.677 0)
(248.595 122.192 0)
(255.179 124.367 0)
(262.418 126.173 0)
(269.772 127.485 0)
(278.168 128.504 0)
(285.908 128.925 0)
(294.623 129.157 0)
(303.38 128.815 0)
(311.722 128.249 0)
(320.887 127.082 0)
(329.078 125.418 0)
(335.484 123.223 0)
(340.599 120.562 0)
(346.377 118.802 0)
(358.448 117.219 0)
(362.061 124.795 0)
(210 5.43895e-12 0)
(210 1.70396e-11 0)
(210 -3.49673e-12 0)
(210 -1.1103e-11 0)
(210 -1.8169e-11 0)
(210 -1.81652e-11 0)
(210 -8.9802e-12 0)
(210 -5.08381e-12 0)
(210 1.01776e-12 0)
(210 8.7234e-12 0)
(210 1.31572e-11 0)
(210 1.04864e-11 0)
(210 -1.3443e-11 0)
(210 -1.0485e-09 0)
(210 -9.54035e-08 0)
(210 -2.20246e-06 0)
(209.995 0.000461726 0)
(209.896 0.0192958 0)
(209.216 0.204944 0)
(207.553 0.775302 0)
(205.82 1.39553 0)
(205.189 1.74577 0)
(204.98 1.88105 0)
(205.367 1.88743 0)
(206.46 1.59066 0)
(207.676 1.32863 0)
(208.552 1.12967 0)
(209.176 1.13644 0)
(209.523 1.29945 0)
(209.689 1.5413 0)
(209.796 1.81584 0)
(209.923 2.11234 0)
(210.125 2.42726 0)
(210.392 2.76133 0)
(210.669 3.12263 0)
(210.917 3.51145 0)
(211.146 3.9169 0)
(211.344 4.35008 0)
(211.508 4.82561 0)
(211.646 5.34266 0)
(211.764 5.89495 0)
(211.872 6.47314 0)
(211.958 7.07463 0)
(212.019 7.69536 0)
(212.035 8.33899 0)
(212.038 8.99721 0)
(212.002 9.6916 0)
(211.942 10.4095 0)
(211.86 11.1573 0)
(211.758 11.9341 0)
(211.632 12.7406 0)
(211.48 13.5759 0)
(211.304 14.4385 0)
(211.105 15.3259 0)
(210.885 16.2369 0)
(210.643 17.1717 0)
(210.379 18.1313 0)
(210.092 19.1162 0)
(209.786 20.1267 0)
(209.46 21.1637 0)
(209.113 22.2289 0)
(208.744 23.3245 0)
(208.353 24.4522 0)
(207.943 25.6127 0)
(207.517 26.8058 0)
(207.078 28.032 0)
(206.627 29.2924 0)
(206.166 30.5887 0)
(205.694 31.9235 0)
(205.211 33.2985 0)
(204.721 34.7155 0)
(204.224 36.1759 0)
(203.725 37.6815 0)
(203.225 39.2338 0)
(202.728 40.8353 0)
(202.235 42.4892 0)
(201.751 44.198 0)
(201.284 45.9548 0)
(200.843 47.7708 0)
(200.395 49.661 0)
(200.006 51.5981 0)
(199.634 53.6089 0)
(199.314 55.6882 0)
(199.035 57.8415 0)
(198.814 60.0696 0)
(198.661 62.3776 0)
(198.578 64.7659 0)
(198.599 67.2407 0)
(198.697 69.7991 0)
(198.95 72.4518 0)
(199.287 75.1909 0)
(199.831 78.029 0)
(200.479 80.9568 0)
(201.393 83.981 0)
(202.444 87.096 0)
(203.843 90.2936 0)
(205.392 93.5745 0)
(207.401 96.8993 0)
(209.552 100.296 0)
(212.286 103.683 0)
(215.155 107.145 0)
(218.723 110.502 0)
(222.428 113.93 0)
(226.895 117.143 0)
(231.578 120.371 0)
(236.958 123.278 0)
(242.808 126.121 0)
(249.245 128.658 0)
(256.267 130.888 0)
(263.652 132.715 0)
(271.79 134.254 0)
(279.35 135.189 0)
(288.749 135.787 0)
(296.311 136.015 0)
(306.217 135.716 0)
(314.077 134.878 0)
(321.039 133.167 0)
(326.909 130.758 0)
(332.943 129.117 0)
(346.144 127.254 0)
(349.494 135.873 0)
(210 5.2973e-12 0)
(210 -3.5198e-12 0)
(210 -1.26638e-11 0)
(210 -1.46823e-11 0)
(210 -1.78795e-11 0)
(210 -9.39228e-12 0)
(210 9.49413e-13 0)
(210 3.77338e-12 0)
(210 -2.19563e-12 0)
(210 9.5616e-12 0)
(210 1.11185e-11 0)
(210 -1.21521e-12 0)
(210 -3.09557e-12 0)
(210 -3.01034e-10 0)
(210 -3.2085e-08 0)
(210 -2.03191e-06 0)
(209.998 6.47896e-05 0)
(209.953 0.0066441 0)
(209.518 0.108066 0)
(208.078 0.553208 0)
(206.161 1.19541 0)
(205.183 1.65475 0)
(204.834 1.78064 0)
(205.039 1.86946 0)
(205.99 1.68086 0)
(207.211 1.39987 0)
(208.144 1.15147 0)
(208.824 1.1137 0)
(209.212 1.2568 0)
(209.378 1.48933 0)
(209.461 1.76053 0)
(209.552 2.06054 0)
(209.711 2.38556 0)
(209.949 2.72381 0)
(210.212 3.08081 0)
(210.442 3.46276 0)
(210.656 3.85915 0)
(210.84 4.27983 0)
(210.993 4.74089 0)
(211.112 5.24484 0)
(211.214 5.78343 0)
(211.301 6.34867 0)
(211.368 6.93627 0)
(211.408 7.542 0)
(211.413 8.16617 0)
(211.4 8.80869 0)
(211.342 9.48404 0)
(211.263 10.1838 0)
(211.161 10.9117 0)
(211.038 11.6676 0)
(210.892 12.4523 0)
(210.72 13.2655 0)
(210.522 14.106 0)
(210.3 14.9713 0)
(210.057 15.8601 0)
(209.791 16.772 0)
(209.502 17.7082 0)
(209.19 18.6692 0)
(208.856 19.6554 0)
(208.502 20.6672 0)
(208.126 21.7061 0)
(207.727 22.7742 0)
(207.305 23.8733 0)
(206.86 25.0042 0)
(206.397 26.1671 0)
(205.918 27.3621 0)
(205.425 28.5903 0)
(204.919 29.8531 0)
(204.4 31.1529 0)
(203.868 32.4917 0)
(203.323 33.8714 0)
(202.769 35.2933 0)
(202.208 36.7592 0)
(201.641 38.2709 0)
(201.072 39.8307 0)
(200.501 41.4405 0)
(199.935 43.1027 0)
(199.374 44.8204 0)
(198.822 46.5967 0)
(198.288 48.4267 0)
(197.78 50.3213 0)
(197.267 52.2931 0)
(196.811 54.3228 0)
(196.377 56.43 0)
(195.993 58.614 0)
(195.659 60.8812 0)
(195.381 63.2313 0)
(195.187 65.6708 0)
(195.057 68.1969 0)
(195.058 70.8223 0)
(195.128 73.5375 0)
(195.382 76.3589 0)
(195.72 79.272 0)
(196.296 82.2926 0)
(196.988 85.41 0)
(197.985 88.63 0)
(199.107 91.9449 0)
(200.638 95.3466 0)
(202.297 98.8469 0)
(204.493 102.408 0)
(206.832 106.065 0)
(209.837 109.708 0)
(213.02 113.441 0)
(216.968 117.046 0)
(221.137 120.719 0)
(226.09 124.129 0)
(231.359 127.498 0)
(237.328 130.584 0)
(243.88 133.444 0)
(250.771 135.792 0)
(258.743 138.142 0)
(266.41 139.639 0)
(275.25 140.95 0)
(283.637 141.89 0)
(293.275 142.391 0)
(302.336 142.242 0)
(310.624 141.043 0)
(317.942 138.891 0)
(324.701 137.468 0)
(338.484 136.274 0)
(341.444 146.489 0)
(210 2.20533e-12 0)
(210 -1.20827e-11 0)
(210 -1.05184e-11 0)
(210 -7.27217e-12 0)
(210 -1.09213e-11 0)
(210 1.38554e-12 0)
(210 1.266e-12 0)
(210 -2.98541e-12 0)
(210 2.26322e-14 0)
(210 2.37338e-11 0)
(210 1.02462e-11 0)
(210 -5.20373e-12 0)
(210 -5.22205e-12 0)
(210 -7.79734e-11 0)
(210 -8.91878e-09 0)
(210 -7.38837e-07 0)
(210 -1.02555e-05 0)
(209.982 0.00172418 0)
(209.735 0.048633 0)
(208.597 0.356165 0)
(206.626 0.976668 0)
(205.283 1.51749 0)
(204.712 1.6649 0)
(204.79 1.8612 0)
(205.534 1.74379 0)
(206.71 1.43989 0)
(207.707 1.14121 0)
(208.458 1.08476 0)
(208.903 1.21843 0)
(209.081 1.4426 0)
(209.144 1.70564 0)
(209.204 2.00073 0)
(209.314 2.3316 0)
(209.515 2.67246 0)
(209.756 3.02478 0)
(209.965 3.39858 0)
(210.159 3.786 0)
(210.33 4.19437 0)
(210.471 4.64094 0)
(210.573 5.13125 0)
(210.658 5.65516 0)
(210.721 6.2069 0)
(210.768 6.77992 0)
(210.788 7.37091 0)
(210.788 7.97121 0)
(210.748 8.60341 0)
(210.676 9.25741 0)
(210.577 9.93769 0)
(210.455 10.6448 0)
(210.311 11.3793 0)
(210.145 12.142 0)
(209.952 12.9331 0)
(209.732 13.7516 0)
(209.488 14.5954 0)
(209.221 15.4624 0)
(208.931 16.3521 0)
(208.617 17.2653 0)
(208.279 18.2028 0)
(207.918 19.1649 0)
(207.535 20.152 0)
(207.13 21.1652 0)
(206.7 22.2066 0)
(206.245 23.2781 0)
(205.765 24.3807 0)
(205.264 25.5147 0)
(204.744 26.6801 0)
(204.208 27.8775 0)
(203.657 29.1084 0)
(203.09 30.375 0)
(202.507 31.679 0)
(201.909 33.0227 0)
(201.298 34.4072 0)
(200.675 35.8344 0)
(200.044 37.3058 0)
(199.404 38.8238 0)
(198.759 40.3903 0)
(198.112 42.0078 0)
(197.464 43.6779 0)
(196.822 45.4034 0)
(196.187 47.1882 0)
(195.561 49.0355 0)
(194.953 50.9416 0)
(194.373 52.9167 0)
(193.794 54.9721 0)
(193.267 57.0934 0)
(192.772 59.2961 0)
(192.325 61.5827 0)
(191.94 63.9591 0)
(191.606 66.4238 0)
(191.379 68.9893 0)
(191.202 71.6467 0)
(191.182 74.4181 0)
(191.22 77.289 0)
(191.464 80.2846 0)
(191.793 83.3874 0)
(192.389 86.6129 0)
(193.094 89.943 0)
(194.168 93.3887 0)
(195.359 96.9402 0)
(197.037 100.587 0)
(198.842 104.334 0)
(201.25 108.123 0)
(203.813 112.003 0)
(207.078 115.859 0)
(210.544 119.811 0)
(214.813 123.644 0)
(219.39 127.532 0)
(224.772 131.155 0)
(230.603 134.744 0)
(237.232 138.093 0)
(244.461 141.064 0)
(252.558 143.578 0)
(260.738 145.569 0)
(270.118 147.303 0)
(278.955 148.336 0)
(289.849 148.849 0)
(298.297 148.416 0)
(306.126 146.838 0)
(312.889 145.821 0)
(326.579 144.839 0)
(329.377 154.652 0)
(210 -1.17874e-12 0)
(210 -1.021e-11 0)
(210 -1.13425e-11 0)
(210 -1.13127e-11 0)
(210 -1.12993e-11 0)
(210 -3.79783e-13 0)
(210 -7.15198e-12 0)
(210 -3.26823e-12 0)
(210 8.44767e-12 0)
(210 9.99371e-12 0)
(210 -6.08849e-12 0)
(210 -2.95844e-12 0)
(210 -6.9566e-13 0)
(210 -8.78861e-12 0)
(210 -2.18468e-09 0)
(210 -2.19279e-07 0)
(210 -1.0971e-05 0)
(209.994 0.000248182 0)
(209.872 0.0178729 0)
(209.065 0.202756 0)
(207.183 0.739044 0)
(205.491 1.33892 0)
(204.628 1.60652 0)
(204.612 1.78379 0)
(205.107 1.73806 0)
(206.183 1.45559 0)
(207.253 1.14813 0)
(208.084 1.09675 0)
(208.593 1.21024 0)
(208.79 1.41365 0)
(208.833 1.66032 0)
(208.867 1.94288 0)
(208.926 2.2753 0)
(209.084 2.61594 0)
(209.295 2.96155 0)
(209.483 3.32356 0)
(209.656 3.70019 0)
(209.812 4.09525 0)
(209.94 4.52634 0)
(210.028 5.0012 0)
(210.095 5.50907 0)
(210.132 6.04631 0)
(210.158 6.60487 0)
(210.161 7.18002 0)
(210.149 7.7645 0)
(210.089 8.37935 0)
(210 9.01485 0)
(209.881 9.67554 0)
(209.74 10.3621 0)
(209.576 11.0752 0)
(209.389 11.8157 0)
(209.176 12.5842 0)
(208.936 13.3799 0)
(208.67 14.2008 0)
(208.38 15.0448 0)
(208.068 15.9112 0)
(207.731 16.8004 0)
(207.369 17.7131 0)
(206.983 18.6498 0)
(206.573 19.6106 0)
(206.14 20.5964 0)
(205.683 21.609 0)
(205.198 22.6504 0)
(204.687 23.7218 0)
(204.152 24.8236 0)
(203.595 25.9559 0)
(203.021 27.1191 0)
(202.428 28.3145 0)
(201.819 29.5439 0)
(201.191 30.8094 0)
(200.545 32.1129 0)
(199.882 33.4559 0)
(199.205 34.8402 0)
(198.514 36.2672 0)
(197.811 37.7392 0)
(197.097 39.2581 0)
(196.375 40.8267 0)
(195.647 42.4466 0)
(194.917 44.1206 0)
(194.187 45.8511 0)
(193.46 47.6421 0)
(192.741 49.4972 0)
(192.029 51.4204 0)
(191.334 53.4094 0)
(190.668 55.4739 0)
(190.007 57.6231 0)
(189.387 59.853 0)
(188.813 62.1691 0)
(188.278 64.5772 0)
(187.829 67.0878 0)
(187.416 69.6927 0)
(187.136 72.4142 0)
(186.896 75.234 0)
(186.837 78.1815 0)
(186.843 81.233 0)
(187.082 84.4167 0)
(187.408 87.7132 0)
(188.053 91.152 0)
(188.792 94.7127 0)
(189.959 98.4098 0)
(191.23 102.226 0)
(193.049 106.15 0)
(195.01 110.192 0)
(197.625 114.292 0)
(200.444 118.498 0)
(204.017 122.661 0)
(207.855 126.899 0)
(212.531 130.992 0)
(217.565 135.108 0)
(223.362 138.932 0)
(229.762 142.674 0)
(236.951 146.019 0)
(244.518 148.882 0)
(253.369 151.69 0)
(261.779 153.806 0)
(272.348 155.719 0)
(280.85 156.737 0)
(289.291 156.151 0)
(296.324 155.685 0)
(310.774 154.96 0)
(312.899 165.923 0)
(210 -7.06754e-13 0)
(210 -7.96167e-12 0)
(210 -8.22899e-12 0)
(210 -1.67535e-11 0)
(210 3.67237e-12 0)
(210 5.75636e-12 0)
(210 -3.05118e-12 0)
(210 3.04092e-12 0)