/*--------------------------------*- C++ -*----------------------------------*\
| =========                 |                                                 |
| \\      /  F ield         | OpenFOAM: The Open Source CFD Toolbox           |
|  \\    /   O peration     | Version:  2412                                  |
|   \\  /    A nd           | Website:  www.openfoam.com                      |
|    \\/     M anipulation  |                                                 |
\*---------------------------------------------------------------------------*/
FoamFile
{
    version     2.0;
    format      ascii;
    arch        "LSB;label=32;scalar=64";
    class       volVectorField;
    location    "0.092";
    object      U;
}
// * * * * * * * * * * * * * * * * * * * * * * * * * * * * * * * * * * * * * //

dimensions      [0 1 -1 0 0 0 0];

internalField   nonuniform List<vector> 
78650
(
(171.48 20.2625 0)
(192.446 -4.27607 0)
(196.628 -4.09911 0)
(199.646 -3.6753 0)
(201.666 -3.68199 0)
(203.014 -3.87896 0)
(204.024 -4.20773 0)
(204.851 -4.51753 0)
(205.534 -4.77124 0)
(206.109 -4.94929 0)
(206.564 -5.10495 0)
(206.985 -5.17099 0)
(207.356 -5.23336 0)
(207.723 -5.26993 0)
(208.108 -5.28367 0)
(208.517 -5.31376 0)
(208.953 -5.32807 0)
(209.397 -5.32747 0)
(209.812 -5.28525 0)
(210.166 -5.19778 0)
(210.445 -5.06779 0)
(210.663 -4.90958 0)
(210.844 -4.73628 0)
(211.014 -4.55797 0)
(211.191 -4.37952 0)
(211.39 -4.20068 0)
(211.619 -4.01698 0)
(211.882 -3.82289 0)
(212.179 -3.61428 0)
(212.504 -3.38954 0)
(212.849 -3.14669 0)
(213.204 -2.88313 0)
(213.557 -2.5944 0)
(213.901 -2.27699 0)
(214.233 -1.92966 0)
(214.551 -1.55228 0)
(214.854 -1.14533 0)
(215.142 -0.70925 0)
(215.413 -0.243926 0)
(215.669 0.250935 0)
(215.909 0.775676 0)
(216.133 1.33088 0)
(216.341 1.91678 0)
(216.529 2.53435 0)
(216.698 3.18456 0)
(216.854 3.86616 0)
(216.99 4.5798 0)
(217.101 5.32653 0)
(217.195 6.1049 0)
(217.278 6.91368 0)
(217.347 7.75371 0)
(217.398 8.6258 0)
(217.43 9.52992 0)
(217.446 10.466 0)
(217.448 11.4347 0)
(217.437 12.4359 0)
(217.413 13.4693 0)
(217.378 14.5355 0)
(217.334 15.635 0)
(217.282 16.7684 0)
(217.223 17.9368 0)
(217.157 19.1412 0)
(217.087 20.3826 0)
(217.014 21.6624 0)
(216.943 22.9799 0)
(216.876 24.3368 0)
(216.817 25.7346 0)
(216.767 27.1746 0)
(216.73 28.6558 0)
(216.717 30.1819 0)
(216.726 31.7528 0)
(216.762 33.3692 0)
(216.837 35.0343 0)
(216.947 36.748 0)
(217.112 38.5124 0)
(217.327 40.3275 0)
(217.61 42.1941 0)
(217.966 44.1121 0)
(218.406 46.081 0)
(218.948 48.1006 0)
(219.594 50.1703 0)
(220.37 52.2883 0)
(221.271 54.4529 0)
(222.339 56.6583 0)
(223.556 58.9032 0)
(224.984 61.1781 0)
(226.586 63.4843 0)
(228.435 65.8042 0)
(230.504 68.1311 0)
(232.854 70.4366 0)
(235.469 72.7141 0)
(238.415 74.922 0)
(241.629 77.0875 0)
(245.255 79.1084 0)
(249.106 81.1183 0)
(253.449 82.8543 0)
(258.017 84.5611 0)
(263.08 85.9443 0)
(268.449 87.0813 0)
(274.234 87.9692 0)
(280.214 88.5609 0)
(286.27 88.8862 0)
(292.72 88.9651 0)
(298.64 88.8367 0)
(305.489 88.2309 0)
(312.424 87.0469 0)
(319.336 85.5425 0)
(325.728 84.1239 0)
(332.027 82.5137 0)
(338.186 80.4312 0)
(343.71 78.309 0)
(348.981 76.3442 0)
(353.603 74.9143 0)
(358.365 73.1681 0)
(362.161 71.4499 0)
(364.757 69.828 0)
(366.505 68.171 0)
(368.295 67.2683 0)
(372.14 66.2697 0)
(378.804 65.0658 0)
(381.217 69.0096 0)
(173.959 19.5467 0)
(192.925 -3.54564 0)
(197.184 -3.6857 0)
(199.853 -3.33896 0)
(201.665 -3.42996 0)
(202.967 -3.6802 0)
(204.002 -4.02336 0)
(204.857 -4.34948 0)
(205.567 -4.61646 0)
(206.16 -4.80848 0)
(206.613 -4.9767 0)
(207.02 -5.05365 0)
(207.37 -5.12427 0)
(207.716 -5.16614 0)
(208.088 -5.17539 0)
(208.483 -5.20589 0)
(208.896 -5.22204 0)
(209.322 -5.22561 0)
(209.731 -5.18976 0)
(210.092 -5.10969 0)
(210.383 -4.98797 0)
(210.609 -4.83687 0)
(210.792 -4.66973 0)
(210.955 -4.49628 0)
(211.12 -4.32055 0)
(211.3 -4.14303 0)
(211.505 -3.96102 0)
(211.74 -3.76859 0)
(212.009 -3.56159 0)
(212.31 -3.33821 0)
(212.634 -3.09696 0)
(212.972 -2.83621 0)
(213.311 -2.55141 0)
(213.641 -2.23889 0)
(213.96 -1.89713 0)
(214.265 -1.52583 0)
(214.555 -1.12545 0)
(214.83 -0.696421 0)
(215.087 -0.238661 0)
(215.328 0.248083 0)
(215.553 0.764127 0)
(215.76 1.30993 0)
(215.951 1.88565 0)
(216.121 2.49245 0)
(216.273 3.13093 0)
(216.411 3.80008 0)
(216.526 4.50112 0)
(216.614 5.23473 0)
(216.689 5.99917 0)
(216.751 6.79362 0)
(216.798 7.61892 0)
(216.825 8.47575 0)
(216.833 9.36419 0)
(216.824 10.2838 0)
(216.8 11.2355 0)
(216.761 12.2193 0)
(216.708 13.2345 0)
(216.644 14.2821 0)
(216.568 15.3626 0)
(216.482 16.4762 0)
(216.387 17.624 0)
(216.284 18.807 0)
(216.175 20.0262 0)
(216.06 21.2839 0)
(215.943 22.578 0)
(215.827 23.9109 0)
(215.716 25.2837 0)
(215.608 26.6997 0)
(215.512 28.1557 0)
(215.433 29.657 0)
(215.368 31.2038 0)
(215.328 32.7952 0)
(215.318 34.4362 0)
(215.336 36.1261 0)
(215.401 37.8682 0)
(215.506 39.6623 0)
(215.67 41.5103 0)
(215.896 43.4126 0)
(216.194 45.3696 0)
(216.581 47.382 0)
(217.059 49.4496 0)
(217.653 51.5723 0)
(218.358 53.7494 0)
(219.214 55.9788 0)
(220.204 58.2599 0)
(221.387 60.5855 0)
(222.73 62.953 0)
(224.306 65.347 0)
(226.091 67.7614 0)
(228.146 70.1766 0)
(230.455 72.589 0)
(233.079 74.9713 0)
(235.968 77.3368 0)
(239.241 79.617 0)
(242.747 81.8849 0)
(246.735 83.9306 0)
(250.874 85.958 0)
(255.517 87.6607 0)
(260.428 89.2717 0)
(265.743 90.51 0)
(271.506 91.5694 0)
(277.479 92.2767 0)
(283.778 92.7805 0)
(290.277 92.8721 0)
(297.243 92.5556 0)
(303.74 92.0092 0)
(311.052 90.9469 0)
(317.103 89.9105 0)
(323.071 88.8309 0)
(329.067 87.5685 0)
(335.044 85.9339 0)
(340.776 84.1805 0)
(346.325 82.3025 0)
(351.661 80.3132 0)
(356.2 78.3815 0)
(359.937 76.2442 0)
(362.522 74.0039 0)
(364.667 72.3352 0)
(368.568 71.0004 0)
(375.572 69.9111 0)
(378.492 73.8773 0)
(175.639 18.0826 0)
(193.965 -3.20515 0)
(197.766 -3.32633 0)
(200.049 -3.02684 0)
(201.708 -3.18253 0)
(202.978 -3.47197 0)
(204.001 -3.83205 0)
(204.864 -4.17086 0)
(205.6 -4.44897 0)
(206.22 -4.65169 0)
(206.691 -4.83044 0)
(207.096 -4.91849 0)
(207.422 -4.99819 0)
(207.733 -5.04999 0)
(208.073 -5.06337 0)
(208.449 -5.09168 0)
(208.845 -5.10986 0)
(209.25 -5.11672 0)
(209.65 -5.08819 0)
(210.013 -5.01643 0)
(210.313 -4.90444 0)
(210.549 -4.76252 0)
(210.735 -4.60361 0)
(210.894 -4.43669 0)
(211.047 -4.26594 0)
(211.209 -4.09139 0)
(211.392 -3.9116 0)
(211.601 -3.72142 0)
(211.842 -3.51712 0)
(212.114 -3.2965 0)
(212.415 -3.0585 0)
(212.734 -2.80212 0)
(213.058 -2.52268 0)
(213.375 -2.21625 0)
(213.68 -1.88092 0)
(213.972 -1.51625 0)
(214.249 -1.12267 0)
(214.51 -0.700648 0)
(214.755 -0.250193 0)
(214.982 0.228877 0)
(215.192 0.736828 0)
(215.384 1.27397 0)
(215.558 1.84042 0)
(215.711 2.43747 0)
(215.846 3.06534 0)
(215.965 3.72326 0)
(216.058 4.41299 0)
(216.125 5.13479 0)
(216.18 5.88669 0)
(216.222 6.66825 0)
(216.245 7.48015 0)
(216.248 8.32332 0)
(216.231 9.19742 0)
(216.198 10.1011 0)
(216.147 11.0375 0)
(216.08 12.0056 0)
(215.998 13.005 0)
(215.903 14.0359 0)
(215.795 15.0988 0)
(215.675 16.1944 0)
(215.545 17.3236 0)
(215.404 18.4876 0)
(215.254 19.6877 0)
(215.097 20.924 0)
(214.934 22.198 0)
(214.77 23.5101 0)
(214.607 24.8611 0)
(214.441 26.2574 0)
(214.285 27.6896 0)
(214.141 29.1661 0)
(214.005 30.6903 0)
(213.891 32.2576 0)
(213.8 33.8748 0)
(213.731 35.5404 0)
(213.701 37.2581 0)
(213.704 39.0278 0)
(213.758 40.8516 0)
(213.863 42.7305 0)
(214.031 44.6649 0)
(214.276 46.6561 0)
(214.6 48.7038 0)
(215.026 50.8091 0)
(215.549 52.9715 0)
(216.207 55.1905 0)
(216.982 57.4646 0)
(217.931 59.7891 0)
(219.02 62.1621 0)
(220.323 64.5761 0)
(221.808 67.0301 0)
(223.535 69.5124 0)
(225.492 72.0186 0)
(227.735 74.5276 0)
(230.238 77.0391 0)
(233.1 79.5027 0)
(236.216 81.9466 0)
(239.799 84.2426 0)
(243.585 86.5487 0)
(247.937 88.5597 0)
(252.471 90.5583 0)
(257.561 92.2329 0)
(262.993 93.7353 0)
(268.741 94.8776 0)
(274.881 95.8318 0)
(281.136 96.4247 0)
(287.803 96.7019 0)
(294.054 96.6976 0)
(300.944 96.3807 0)
(307.698 95.6251 0)
(314.521 94.4622 0)
(320.76 93.3892 0)
(327.408 91.8415 0)
(332.875 90.5143 0)
(338.652 89.0702 0)
(344.468 87.3953 0)
(349.109 85.8141 0)
(353.309 83.8102 0)
(356.396 81.5679 0)
(358.977 79.9435 0)
(363.291 78.6626 0)
(370.753 77.3368 0)
(373.631 81.3099 0)
(177.914 16.3624 0)
(195.053 -2.87985 0)
(198.358 -2.98526 0)
(200.321 -2.77613 0)
(201.779 -2.95088 0)
(202.954 -3.26108 0)
(203.963 -3.63148 0)
(204.848 -3.981 0)
(205.625 -4.26966 0)
(206.282 -4.48123 0)
(206.773 -4.66762 0)
(207.181 -4.76309 0)
(207.494 -4.85104 0)
(207.782 -4.91468 0)
(208.095 -4.93436 0)
(208.441 -4.96517 0)
(208.817 -4.98146 0)
(209.208 -4.98857 0)
(209.592 -4.96785 0)
(209.948 -4.90678 0)
(210.254 -4.80592 0)
(210.499 -4.67398 0)
(210.692 -4.52066 0)
(210.849 -4.36024 0)
(210.989 -4.19711 0)
(211.133 -4.0277 0)
(211.292 -3.8522 0)
(211.474 -3.66656 0)
(211.684 -3.46615 0)
(211.925 -3.24823 0)
(212.198 -3.0128 0)
(212.496 -2.75983 0)
(212.802 -2.48504 0)
(213.103 -2.1843 0)
(213.394 -1.85528 0)
(213.671 -1.49735 0)
(213.934 -1.11089 0)
(214.181 -0.696387 0)
(214.411 -0.253941 0)
(214.624 0.21657 0)
(214.819 0.715376 0)
(214.995 1.24264 0)
(215.153 1.79853 0)
(215.288 2.38437 0)
(215.407 2.9999 0)
(215.508 3.64501 0)
(215.578 4.32182 0)
(215.626 5.02972 0)
(215.663 5.76682 0)
(215.683 6.53419 0)
(215.683 7.33086 0)
(215.662 8.1573 0)
(215.623 9.01372 0)
(215.564 9.90275 0)
(215.488 10.8218 0)
(215.395 11.7715 0)
(215.286 12.7519 0)
(215.162 13.7635 0)
(215.024 14.8066 0)
(214.872 15.8818 0)
(214.709 16.9898 0)
(214.533 18.1316 0)
(214.346 19.3086 0)
(214.149 20.5216 0)
(213.944 21.7712 0)
(213.734 23.0585 0)
(213.521 24.3855 0)
(213.307 25.751 0)
(213.095 27.1579 0)
(212.891 28.6066 0)
(212.686 30.1063 0)
(212.503 31.643 0)
(212.333 33.2309 0)
(212.181 34.8676 0)
(212.061 36.5567 0)
(211.965 38.2993 0)
(211.911 40.0962 0)
(211.898 41.9499 0)
(211.938 43.8608 0)
(212.042 45.8318 0)
(212.213 47.8628 0)
(212.472 49.9561 0)
(212.815 52.1118 0)
(213.275 54.3313 0)
(213.838 56.6139 0)
(214.558 58.9586 0)
(215.402 61.3641 0)
(216.442 63.8266 0)
(217.645 66.3423 0)
(219.074 68.8992 0)
(220.719 71.4889 0)
(222.637 74.0932 0)
(224.807 76.7079 0)
(227.305 79.2994 0)
(230.055 81.8835 0)
(233.218 84.3837 0)
(236.582 86.8974 0)
(240.49 89.2147 0)
(244.538 91.5501 0)
(249.168 93.5494 0)
(254.039 95.5078 0)
(259.414 97.1666 0)
(265.127 98.5754 0)
(271.265 99.7095 0)
(277.589 100.571 0)
(284.385 101.03 0)
(290.868 101.139 0)
(298.231 100.862 0)
(305.536 100.162 0)
(312.41 99.2602 0)
(319.816 98.0048 0)
(326.438 96.2989 0)
(332.673 94.59 0)
(339.533 92.4583 0)
(344.732 90.8641 0)
(349.746 88.9476 0)
(352.973 87.1499 0)
(355.234 85.6171 0)
(359.14 84.7028 0)
(367.494 83.4669 0)
(370.389 88.709 0)
(179.981 14.3119 0)
(196.134 -2.60946 0)
(198.945 -2.6776 0)
(200.528 -2.49801 0)
(201.778 -2.70288 0)
(202.903 -3.03981 0)
(203.93 -3.42085 0)
(204.836 -3.78437 0)
(205.64 -4.08094 0)
(206.33 -4.29856 0)
(206.853 -4.49172 0)
(207.287 -4.59197 0)
(207.607 -4.68577 0)
(207.873 -4.75946 0)
(208.149 -4.78545 0)
(208.451 -4.82215 0)
(208.791 -4.84495 0)
(209.161 -4.85379 0)
(209.537 -4.83557 0)
(209.888 -4.78411 0)
(210.195 -4.69479 0)
(210.445 -4.57507 0)
(210.639 -4.43735 0)
(210.795 -4.28749 0)
(210.928 -4.12974 0)
(211.055 -3.96984 0)
(211.193 -3.7985 0)
(211.35 -3.61686 0)
(211.529 -3.42073 0)
(211.737 -3.20666 0)
(211.979 -2.97518 0)
(212.251 -2.72694 0)
(212.537 -2.4582 0)
(212.822 -2.16449 0)
(213.098 -1.843 0)
(213.36 -1.49283 0)
(213.608 -1.1143 0)
(213.84 -0.707891 0)
(214.057 -0.27385 0)
(214.255 0.187885 0)
(214.435 0.677485 0)
(214.596 1.19495 0)
(214.737 1.74056 0)
(214.856 2.3155 0)
(214.959 2.91908 0)
(215.04 3.55209 0)
(215.088 4.21662 0)
(215.118 4.91113 0)
(215.135 5.63456 0)
(215.132 6.38801 0)
(215.111 7.16734 0)
(215.064 7.98088 0)
(215 8.82329 0)
(214.917 9.6948 0)
(214.816 10.5965 0)
(214.696 11.5288 0)
(214.559 12.4916 0)
(214.405 13.4851 0)
(214.235 14.5094 0)
(214.051 15.565 0)
(213.853 16.6528 0)
(213.641 17.7738 0)
(213.416 18.9293 0)
(213.179 20.12 0)
(212.931 21.3469 0)
(212.676 22.6108 0)
(212.414 23.9127 0)
(212.147 25.2548 0)
(211.878 26.6373 0)
(211.611 28.063 0)
(211.35 29.5289 0)
(211.096 31.0405 0)
(210.849 32.6027 0)
(210.617 34.2111 0)
(210.41 35.8686 0)
(210.218 37.5817 0)
(210.066 39.3479 0)
(209.943 41.1723 0)
(209.865 43.0529 0)
(209.839 44.9941 0)
(209.871 46.9954 0)
(209.978 49.0597 0)
(210.157 51.1873 0)
(210.438 53.3809 0)
(210.808 55.6402 0)
(211.314 57.9664 0)
(211.927 60.3571 0)
(212.714 62.8112 0)
(213.642 65.3249 0)
(214.774 67.8941 0)
(216.097 70.5165 0)
(217.664 73.1838 0)
(219.459 75.8936 0)
(221.553 78.6254 0)
(223.898 81.3855 0)
(226.634 84.1248 0)
(229.616 86.8851 0)
(233.126 89.5153 0)
(236.828 92.1617 0)
(241.165 94.5173 0)
(245.684 96.8782 0)
(250.785 98.9111 0)
(256.189 100.823 0)
(261.946 102.269 0)
(268.275 103.607 0)
(274.847 104.553 0)
(281.719 105.078 0)
(288.594 105.298 0)
(295.731 105.217 0)
(302.351 104.755 0)
(309.035 104.214 0)
(315.981 103.365 0)
(322.312 102.438 0)
(329.662 101.038 0)
(335.658 99.5827 0)
(342.148 97.2966 0)
(346.46 94.8903 0)
(349.873 92.673 0)
(354.611 90.8156 0)
(363.343 89.2838 0)
(366.476 94.2827 0)
(182.609 12.2682 0)
(197.3 -2.45266 0)
(199.443 -2.35168 0)
(200.738 -2.24905 0)
(201.824 -2.47642 0)
(202.887 -2.82183 0)
(203.892 -3.21064 0)
(204.803 -3.57862 0)
(205.632 -3.87851 0)
(206.357 -4.10294 0)
(206.914 -4.30479 0)
(207.377 -4.4077 0)
(207.713 -4.50556 0)
(207.981 -4.58547 0)
(208.245 -4.61452 0)
(208.518 -4.65408 0)
(208.819 -4.68352 0)
(209.151 -4.69906 0)
(209.5 -4.68874 0)
(209.84 -4.64451 0)
(210.147 -4.56683 0)
(210.404 -4.46113 0)
(210.605 -4.3357 0)
(210.757 -4.19801 0)
(210.88 -4.05037 0)
(210.998 -3.89386 0)
(211.112 -3.73227 0)
(211.24 -3.55915 0)
(211.386 -3.36998 0)
(211.557 -3.16089 0)
(211.763 -2.93331 0)
(212.005 -2.68929 0)
(212.268 -2.42606 0)
(212.535 -2.13908 0)
(212.793 -1.82504 0)
(213.039 -1.48275 0)
(213.27 -1.11235 0)
(213.486 -0.714375 0)
(213.687 -0.289197 0)
(213.871 0.163168 0)
(214.036 0.642813 0)
(214.181 1.14963 0)
(214.305 1.68405 0)
(214.408 2.24685 0)
(214.495 2.83723 0)
(214.554 3.45717 0)
(214.582 4.10804 0)
(214.595 4.78722 0)
(214.594 5.49407 0)
(214.569 6.22985 0)
(214.52 6.99791 0)
(214.453 7.7927 0)
(214.366 8.61641 0)
(214.26 9.4698 0)
(214.133 10.3531 0)
(213.987 11.2661 0)
(213.823 12.2089 0)
(213.641 13.1817 0)
(213.443 14.1846 0)
(213.228 15.2183 0)
(212.998 16.2833 0)
(212.752 17.3807 0)
(212.492 18.5116 0)
(212.217 19.677 0)
(211.93 20.8779 0)
(211.632 22.1149 0)
(211.325 23.3893 0)
(211.01 24.702 0)
(210.691 26.0546 0)
(210.368 27.4484 0)
(210.045 28.8859 0)
(209.723 30.3682 0)
(209.409 31.8953 0)
(209.106 33.4693 0)
(208.816 35.0937 0)
(208.531 36.7778 0)
(208.282 38.507 0)
(208.05 40.2983 0)
(207.859 42.146 0)
(207.707 44.0573 0)
(207.601 46.0303 0)
(207.557 48.0691 0)
(207.572 50.1741 0)
(207.674 52.3498 0)
(207.849 54.5962 0)
(208.143 56.9167 0)
(208.528 59.3085 0)
(209.071 61.7745 0)
(209.737 64.3114 0)
(210.587 66.9196 0)
(211.607 69.596 0)
(212.847 72.3316 0)
(214.3 75.1177 0)
(216.029 77.9368 0)
(218.001 80.7881 0)
(220.329 83.6387 0)
(222.894 86.507 0)
(225.922 89.3023 0)
(229.137 92.1208 0)
(232.949 94.7599 0)
(236.9 97.4289 0)
(241.501 99.7802 0)
(246.32 102.14 0)
(251.73 104.221 0)
(257.51 106.057 0)
(263.655 107.554 0)
(270.581 108.932 0)
(277.027 109.673 0)
(284.845 110.37 0)
(292.277 110.268 0)
(299.911 109.74 0)
(307.437 108.992 0)
(314.319 108.162 0)
(320.846 107.344 0)
(327.175 106.452 0)
(333.511 104.88 0)
(338.095 103.033 0)
(341.707 101.108 0)
(346.344 99.6328 0)
(355.726 97.7745 0)
(358.753 103.435 0)
(185.349 10.2087 0)
(198.402 -2.18329 0)
(200.019 -2.14189 0)
(201.007 -2.08958 0)
(201.882 -2.2899 0)
(202.817 -2.61453 0)
(203.802 -2.99854 0)
(204.751 -3.36547 0)
(205.609 -3.67655 0)
(206.371 -3.90286 0)
(206.963 -4.11004 0)
(207.461 -4.21525 0)
(207.825 -4.31599 0)
(208.101 -4.39859 0)
(208.355 -4.42844 0)
(208.598 -4.4701 0)
(208.858 -4.50681 0)
(209.15 -4.53188 0)
(209.47 -4.53151 0)
(209.796 -4.49607 0)
(210.1 -4.42958 0)
(210.36 -4.33756 0)
(210.562 -4.22896 0)
(210.713 -4.1074 0)
(210.829 -3.97285 0)
(210.931 -3.82907 0)
(211.03 -3.67414 0)
(211.135 -3.50606 0)
(211.25 -3.32308 0)
(211.383 -3.1202 0)
(211.551 -2.8978 0)
(211.758 -2.65915 0)
(211.993 -2.40246 0)
(212.239 -2.12334 0)
(212.479 -1.81802 0)
(212.708 -1.48485 0)
(212.922 -1.12377 0)
(213.122 -0.735244 0)
(213.306 -0.319801 0)
(213.474 0.122475 0)
(213.624 0.591576 0)
(213.754 1.08734 0)
(213.862 1.61032 0)
(213.95 2.1607 0)
(214.02 2.73801 0)
(214.056 3.3452 0)
(214.066 3.98201 0)
(214.066 4.64386 0)
(214.042 5.33651 0)
(213.991 6.06002 0)
(213.921 6.80975 0)
(213.831 7.58789 0)
(213.72 8.39477 0)
(213.588 9.23058 0)
(213.436 10.0954 0)
(213.263 10.9895 0)
(213.072 11.9128 0)
(212.861 12.8656 0)
(212.632 13.8481 0)
(212.386 14.8606 0)
(212.123 15.9038 0)
(211.843 16.9785 0)
(211.547 18.086 0)
(211.234 19.2272 0)
(210.907 20.403 0)
(210.565 21.6144 0)
(210.213 22.8621 0)
(209.849 24.1477 0)
(209.477 25.4726 0)
(209.098 26.838 0)
(208.715 28.2449 0)
(208.332 29.695 0)
(207.949 31.1909 0)
(207.569 32.7346 0)
(207.197 34.3286 0)
(206.838 35.9697 0)
(206.498 37.6647 0)
(206.16 39.4256 0)
(205.863 41.2328 0)
(205.592 43.105 0)
(205.362 45.0391 0)
(205.181 47.0396 0)
(205.05 49.1061 0)
(204.991 51.2432 0)
(204.994 53.451 0)
(205.097 55.7348 0)
(205.275 58.0924 0)
(205.591 60.5297 0)
(206.007 63.0429 0)
(206.585 65.6352 0)
(207.307 68.3031 0)
(208.223 71.0423 0)
(209.329 73.8493 0)
(210.683 76.7195 0)
(212.264 79.6553 0)
(214.163 82.6383 0)
(216.298 85.6738 0)
(218.859 88.7074 0)
(221.64 91.7869 0)
(224.996 94.7684 0)
(228.54 97.7797 0)
(232.767 100.544 0)
(237.156 103.341 0)
(242.173 105.83 0)
(247.506 108.252 0)
(253.368 110.273 0)
(259.523 112.007 0)
(266.334 113.471 0)
(272.948 114.483 0)
(280.552 115.293 0)
(287.719 115.614 0)
(295.683 115.725 0)
(303.69 115.191 0)
(311.663 114.046 0)
(319.307 112.589 0)
(327.072 110.608 0)
(332.341 108.748 0)
(336.64 106.63 0)
(341.419 105.642 0)
(351.428 104.492 0)
(354.147 111.965 0)
(188.429 8.32063 0)
(199.656 -2.01539 0)
(200.5 -1.87604 0)
(201.227 -1.89013 0)
(201.87 -2.09809 0)
(202.696 -2.41675 0)
(203.702 -2.78732 0)
(204.698 -3.15804 0)
(205.588 -3.47381 0)
(206.361 -3.71146 0)
(206.979 -3.91842 0)
(207.512 -4.02407 0)
(207.907 -4.1228 0)
(208.203 -4.20602 0)
(208.462 -4.23729 0)
(208.697 -4.27937 0)
(208.934 -4.319 0)
(209.195 -4.34796 0)
(209.483 -4.3553 0)
(209.781 -4.32998 0)
(210.066 -4.27874 0)
(210.319 -4.20523 0)
(210.527 -4.1125 0)
(210.682 -4.00567 0)
(210.793 -3.88357 0)
(210.884 -3.75011 0)
(210.964 -3.60342 0)
(211.043 -3.44674 0)
(211.125 -3.27309 0)
(211.221 -3.07809 0)
(211.347 -2.8615 0)
(211.515 -2.62824 0)
(211.717 -2.37789 0)
(211.937 -2.10651 0)
(212.158 -1.81 0)
(212.368 -1.4862 0)
(212.564 -1.13471 0)
(212.746 -0.7559 0)
(212.913 -0.350464 0)
(213.064 0.0813913 0)
(213.198 0.539524 0)
(213.312 1.02383 0)
(213.404 1.53478 0)
(213.477 2.07194 0)
(213.528 2.63595 0)
(213.541 3.23016 0)
(213.539 3.84861 0)
(213.52 4.49507 0)
(213.471 5.17386 0)
(213.4 5.87872 0)
(213.308 6.61136 0)
(213.194 7.37163 0)
(213.06 8.15967 0)
(212.905 8.97578 0)
(212.728 9.82032 0)
(212.53 10.6935 0)
(212.312 11.5954 0)
(212.074 12.526 0)
(211.817 13.4856 0)
(211.541 14.4745 0)
(211.248 15.4932 0)
(210.936 16.5426 0)
(210.606 17.6237 0)
(210.258 18.7377 0)
(209.893 19.8854 0)
(209.513 21.0677 0)
(209.118 22.2856 0)
(208.71 23.5401 0)
(208.29 24.8327 0)
(207.86 26.1648 0)
(207.423 27.5379 0)
(206.979 28.9536 0)
(206.532 30.4134 0)
(206.085 31.9194 0)
(205.64 33.4739 0)
(205.198 35.08 0)
(204.764 36.7403 0)
(204.345 38.4518 0)
(203.946 40.2211 0)
(203.556 42.0581 0)
(203.202 43.9525 0)
(202.885 45.913 0)
(202.607 47.9427 0)
(202.388 50.0456 0)
(202.217 52.2229 0)
(202.13 54.4797 0)
(202.101 56.8149 0)
(202.192 59.2359 0)
(202.365 61.7376 0)
(202.683 64.3259 0)
(203.126 66.9981 0)
(203.742 69.7556 0)
(204.525 72.5972 0)
(205.53 75.5211 0)
(206.737 78.5229 0)
(208.227 81.5866 0)
(209.939 84.7098 0)
(212.035 87.8614 0)
(214.349 91.0628 0)
(217.182 94.224 0)
(220.208 97.4276 0)
(223.889 100.515 0)
(227.757 103.688 0)
(232.345 106.604 0)
(237.16 109.501 0)
(242.622 112.054 0)
(248.549 114.503 0)
(254.985 116.588 0)
(261.76 118.168 0)
(269.273 119.447 0)
(276.513 120.304 0)
(283.679 120.896 0)
(291.601 121.221 0)
(298.724 121.233 0)
(306.631 121 0)
(314.695 120.1 0)
(320.852 118.692 0)
(326.571 116.596 0)
(332.157 114.912 0)
(342.674 113.143 0)
(345.744 119.652 0)
(191.508 6.61825 0)
(200.923 -1.9156 0)
(201.144 -1.67925 0)
(201.548 -1.77573 0)
(201.902 -1.95989 0)
(202.575 -2.24377 0)
(203.561 -2.59797 0)
(204.593 -2.97068 0)
(205.532 -3.28578 0)
(206.328 -3.53293 0)
(206.959 -3.752 0)
(207.516 -3.8571 0)
(207.939 -3.95199 0)
(208.257 -4.03792 0)
(208.532 -4.06954 0)
(208.767 -4.10913 0)
(208.989 -4.14869 0)
(209.225 -4.17787 0)
(209.481 -4.19056 0)
(209.747 -4.18269 0)
(210.014 -4.14428 0)
(210.262 -4.0824 0)
(210.47 -4.00558 0)
(210.631 -3.91166 0)
(210.744 -3.80323 0)
(210.827 -3.68089 0)
(210.892 -3.54422 0)
(210.953 -3.39495 0)
(211.008 -3.22921 0)
(211.069 -3.04231 0)
(211.153 -2.83279 0)
(211.278 -2.60559 0)
(211.443 -2.36202 0)
(211.634 -2.09887 0)
(211.832 -1.81197 0)
(212.022 -1.49858 0)
(212.199 -1.15781 0)
(212.362 -0.789809 0)
(212.511 -0.39535 0)
(212.645 0.0252268 0)
(212.762 0.471647 0)
(212.86 0.943898 0)
(212.936 1.44215 0)
(212.995 1.9657 0)
(213.023 2.51678 0)
(213.019 3.09574 0)
(213.008 3.69383 0)
(212.963 4.33019 0)
(212.894 4.99104 0)
(212.801 5.6793 0)
(212.686 6.39434 0)
(212.55 7.1363 0)
(212.393 7.90545 0)
(212.213 8.70221 0)
(212.011 9.52686 0)
(211.787 10.3795 0)
(211.542 11.2602 0)
(211.276 12.1691 0)
(210.99 13.1064 0)
(210.684 14.0723 0)
(210.359 15.0673 0)
(210.014 16.0922 0)
(209.65 17.1479 0)
(209.267 18.2356 0)
(208.864 19.3561 0)
(208.443 20.5104 0)
(208.005 21.6994 0)
(207.552 22.9241 0)
(207.084 24.1858 0)
(206.603 25.4861 0)
(206.11 26.8264 0)
(205.608 28.2079 0)
(205.099 29.6325 0)
(204.584 31.1022 0)
(204.066 32.6192 0)
(203.548 34.1854 0)
(203.033 35.803 0)
(202.524 37.4758 0)
(202.023 39.2062 0)
(201.538 40.9924 0)
(201.078 42.8392 0)
(200.633 44.7565 0)
(200.221 46.7392 0)
(199.858 48.7896 0)
(199.533 50.916 0)
(199.278 53.1214 0)
(199.066 55.4064 0)
(198.956 57.7786 0)
(198.909 60.2331 0)
(198.987 62.7799 0)
(199.165 65.4173 0)
(199.489 68.1508 0)
(199.951 70.9795 0)
(200.603 73.9031 0)
(201.432 76.9164 0)
(202.513 80.0138 0)
(203.804 83.1953 0)
(205.439 86.4497 0)
(207.292 89.7826 0)
(209.617 93.1408 0)
(212.147 96.5648 0)
(215.279 99.9407 0)
(218.588 103.364 0)
(222.596 106.602 0)
(226.804 109.876 0)
(231.74 112.885 0)
(236.987 115.847 0)
(242.873 118.51 0)
(249.375 121.036 0)
(256.122 122.907 0)
(264.066 124.895 0)
(271.603 125.761 0)
(280.314 126.551 0)
(288.398 126.711 0)
(296.585 126.742 0)
(304.817 126.475 0)
(311.13 125.721 0)
(316.647 124.07 0)
(321.939 123.16 0)
(333.38 121.677 0)
(336.235 129.722 0)
(194.547 5.20284 0)
(202.319 -1.8401 0)
(201.888 -1.53856 0)
(201.878 -1.6691 0)
(201.934 -1.84965 0)
(202.45 -2.10842 0)
(203.371 -2.45213 0)
(204.419 -2.82338 0)
(205.407 -3.13472 0)
(206.251 -3.38252 0)
(206.911 -3.60354 0)
(207.482 -3.72025 0)
(207.912 -3.83279 0)
(208.242 -3.92835 0)
(208.532 -3.95915 0)
(208.775 -3.99543 0)
(208.992 -4.03495 0)
(209.212 -4.06506 0)
(209.448 -4.07663 0)
(209.702 -4.05726 0)
(209.956 -4.01636 0)
(210.197 -3.96294 0)
(210.411 -3.8995 0)
(210.578 -3.8229 0)
(210.694 -3.72522 0)
(210.773 -3.6115 0)
(210.825 -3.48438 0)
(210.868 -3.34417 0)
(210.899 -3.18748 0)
(210.929 -3.00935 0)
(210.973 -2.80851 0)
(211.052 -2.58877 0)
(211.175 -2.35189 0)
(211.332 -2.09657 0)
(211.503 -1.81893 0)
(211.672 -1.51588 0)
(211.829 -1.18589 0)
(211.972 -0.82881 0)
(212.102 -0.445431 0)
(212.217 -0.0362707 0)
(212.316 0.398319 0)
(212.396 0.858362 0)
(212.457 1.34348 0)
(212.498 1.85374 0)
(212.503 2.39187 0)
(212.493 2.94899 0)
(212.459 3.53967 0)
(212.394 4.15623 0)
(212.305 4.79972 0)
(212.191 5.47 0)
(212.054 6.16666 0)
(211.896 6.88958 0)
(211.715 7.63893 0)
(211.512 8.41506 0)
(211.286 9.21824 0)
(211.037 10.0487 0)
(210.767 10.9065 0)
(210.474 11.7917 0)
(210.161 12.7045 0)
(209.826 13.6452 0)
(209.472 14.6141 0)
(209.097 15.612 0)
(208.701 16.6397 0)
(208.284 17.6983 0)
(207.847 18.7887 0)
(207.389 19.912 0)
(206.913 21.0688 0)
(206.418 22.2602 0)
(205.907 23.4875 0)
(205.379 24.7521 0)
(204.837 26.0554 0)
(204.281 27.3989 0)
(203.714 28.7843 0)
(203.138 30.2134 0)
(202.554 31.6884 0)
(201.964 33.2116 0)
(201.371 34.7854 0)
(200.777 36.4119 0)
(200.187 38.094 0)
(199.603 39.8351 0)
(199.028 41.6386 0)
(198.47 43.5042 0)
(197.94 45.4348 0)
(197.431 47.4404 0)
(196.945 49.5239 0)
(196.522 51.6795 0)
(196.126 53.9203 0)
(195.818 56.2515 0)
(195.552 58.6697 0)
(195.397 61.184 0)
(195.318 63.7921 0)
(195.367 66.5005 0)
(195.533 69.3081 0)
(195.864 72.2181 0)
(196.352 75.2279 0)
(197.06 78.3409 0)
(197.955 81.5578 0)
(199.147 84.8743 0)
(200.538 88.286 0)
(202.341 91.7692 0)
(204.343 95.3417 0)
(206.899 98.9301 0)
(209.659 102.572 0)
(213.098 106.129 0)
(216.75 109.759 0)
(221.147 113.217 0)
(225.822 116.67 0)
(231.178 119.788 0)
(236.895 122.785 0)
(243.304 125.541 0)
(250.221 127.924 0)
(257.781 129.899 0)
(265.217 131.428 0)
(274.252 133.034 0)
(282.24 133.495 0)
(292.281 133.849 0)
(300.458 133 0)
(308.136 130.938 0)
(314.346 129.524 0)
(326.024 128.672 0)
(328.839 137.45 0)
(197.444 4.12647 0)
(203.868 -1.73832 0)
(202.772 -1.39766 0)
(202.239 -1.55502 0)
(202.086 -1.79183 0)
(202.401 -2.03731 0)
(203.176 -2.36121 0)
(204.179 -2.7364 0)
(205.183 -3.05039 0)
(206.062 -3.30043 0)
(206.763 -3.52028 0)
(207.374 -3.63828 0)
(207.838 -3.7522 0)
(208.191 -3.85302 0)
(208.493 -3.88502 0)
(208.742 -3.92359 0)
(208.957 -3.96228 0)
(209.169 -3.98192 0)
(209.391 -3.97953 0)
(209.624 -3.95316 0)
(209.867 -3.91185 0)
(210.107 -3.86422 0)
(210.326 -3.81099 0)
(210.503 -3.74644 0)
(210.626 -3.66399 0)
(210.703 -3.56174 0)
(210.748 -3.43984 0)
(210.779 -3.30673 0)
(210.792 -3.15712 0)
(210.797 -2.98731 0)
(210.807 -2.79412 0)
(210.843 -2.58307 0)
(210.918 -2.35367 0)
(211.036 -2.10657 0)
(211.176 -1.83816 0)
(211.321 -1.54535 0)
(211.457 -1.22629 0)
(211.58 -0.880575 0)
(211.689 -0.508899 0)
(211.784 -0.111774 0)
(211.864 0.31048 0)
(211.927 0.757688 0)
(211.972 1.22908 0)
(211.991 1.72613 0)
(211.981 2.24784 0)
(211.961 2.78898 0)
(211.905 3.36381 0)
(211.822 3.9635 0)
(211.713 4.58967 0)
(211.578 5.24184 0)
(211.42 5.9197 0)
(211.239 6.62312 0)
(211.036 7.35227 0)
(210.809 8.10749 0)
(210.559 8.88912 0)
(210.286 9.69737 0)
(209.989 10.5324 0)
(209.67 11.3941 0)
(209.329 12.2829 0)
(208.965 13.1987 0)
(208.581 14.1421 0)
(208.174 15.1136 0)
(207.747 16.114 0)
(207.296 17.1443 0)
(206.824 18.2055 0)
(206.329 19.2984 0)
(205.813 20.424 0)
(205.277 21.5831 0)
(204.721 22.777 0)
(204.147 24.0069 0)
(203.554 25.2744 0)
(202.945 26.5808 0)
(202.322 27.9277 0)
(201.685 29.3168 0)
(201.036 30.7503 0)
(200.377 32.2303 0)
(199.71 33.7592 0)
(199.037 35.3392 0)
(198.361 36.973 0)
(197.685 38.6632 0)
(197.012 40.4129 0)
(196.348 42.2255 0)
(195.696 44.1049 0)
(195.061 46.0516 0)
(194.457 48.0673 0)
(193.881 50.1628 0)
(193.316 52.3465 0)
(192.835 54.6069 0)
(192.371 56.9603 0)
(192.01 59.4096 0)
(191.697 61.9566 0)
(191.495 64.6074 0)
(191.38 67.3646 0)
(191.403 70.2357 0)
(191.551 73.2212 0)
(191.882 76.3279 0)
(192.373 79.5532 0)
(193.119 82.8977 0)
(194.047 86.3532 0)
(195.34 89.9156 0)
(196.826 93.5802 0)
(198.816 97.3078 0)
(201.011 101.121 0)
(203.834 104.97 0)
(206.885 108.934 0)
(210.667 112.818 0)
(214.735 116.749 0)
(219.608 120.49 0)
(224.86 124.22 0)
(230.782 127.573 0)
(237.237 130.747 0)
(244.329 133.513 0)
(251.688 135.708 0)
(259.778 137.741 0)
(268.38 139.316 0)
(276.262 140.289 0)
(285.593 141.071 0)
(293.074 140.577 0)
(299.137 140.106 0)
(310.721 139.135 0)
(312.612 147.816 0)
(200.054 3.51375 0)
(205.577 -1.45821 0)
(203.988 -1.23992 0)
(202.75 -1.47898 0)
(202.323 -1.77119 0)
(202.443 -1.95832 0)
(203.045 -2.28742 0)
(203.947 -2.69629 0)
(204.924 -3.03375 0)
(205.796 -3.30275 0)
(206.509 -3.52715 0)
(207.143 -3.64076 0)
(207.635 -3.74448 0)
(208.032 -3.83209 0)
(208.374 -3.85355 0)
(208.649 -3.88779 0)
(208.869 -3.92269 0)
(209.073 -3.93386 0)
(209.284 -3.92038 0)
(209.508 -3.8857 0)
(209.744 -3.8427 0)
(209.983 -3.79866 0)
(210.206 -3.74959 0)
(210.398 -3.68929 0)
(210.54 -3.61231 0)
(210.627 -3.51647 0)
(210.665 -3.4022 0)
(210.686 -3.27954 0)
(210.685 -3.13775 0)
(210.669 -2.976 0)
(210.65 -2.79201 0)
(210.65 -2.58825 0)
(210.679 -2.36544 0)
(210.75 -2.12639 0)
(210.854 -1.86746 0)
(210.971 -1.58497 0)
(211.083 -1.2764 0)
(211.185 -0.94143 0)
(211.273 -0.581143 0)
(211.348 -0.196115 0)
(211.409 0.213579 0)
(211.453 0.647593 0)
(211.479 1.10572 0)
(211.476 1.58922 0)
(211.46 2.09083 0)
(211.417 2.62301 0)
(211.344 3.17962 0)
(211.243 3.76179 0)
(211.114 4.36969 0)
(210.959 5.00314 0)
(210.78 5.66182 0)
(210.577 6.34547 0)
(210.351 7.0541 0)
(210.102 7.78793 0)
(209.828 8.54729 0)
(209.531 9.33239 0)
(209.209 10.1434 0)
(208.865 10.9803 0)
(208.497 11.8433 0)
(208.107 12.7326 0)
(207.694 13.6486 0)
(207.259 14.5916 0)
(206.801 15.5625 0)
(206.32 16.5622 0)
(205.816 17.5916 0)
(205.287 18.6516 0)
(204.736 19.7432 0)
(204.162 20.8671 0)
(203.566 22.0244 0)
(202.95 23.2164 0)
(202.313 24.4445 0)
(201.656 25.7101 0)
(200.981 27.0148 0)
(200.29 28.3602 0)
(199.582 29.7484 0)
(198.86 31.1814 0)
(198.125 32.6615 0)
(197.379 34.1912 0)
(196.624 35.7732 0)
(195.861 37.4099 0)
(195.096 39.1046 0)
(194.329 40.8602 0)
(193.565 42.6805 0)
(192.81 44.5689 0)
(192.069 46.5308 0)
(191.341 48.5677 0)
(190.644 50.6802 0)
(189.987 52.8794 0)
(189.315 55.1856 0)
(188.755 57.5676 0)
(188.209 60.0565 0)
(187.77 62.6504 0)
(187.389 65.3549 0)
(187.126 68.1752 0)
(186.961 71.1121 0)
(186.952 74.174 0)
(187.078 77.358 0)
(187.419 80.6724 0)
(187.92 84.1125 0)
(188.733 87.6894 0)
(189.717 91.3911 0)
(191.145 95.2115 0)
(192.756 99.1583 0)
(194.933 103.208 0)
(197.327 107.367 0)
(200.399 111.514 0)
(203.746 115.733 0)
(207.878 119.867 0)
(212.342 124.065 0)
(217.653 128.035 0)
(223.45 131.902 0)
(230.045 135.471 0)
(237.504 138.893 0)
(245.402 141.577 0)