/*--------------------------------*- C++ -*----------------------------------*\
| =========                 |                                                 |
| \\      /  F ield         | OpenFOAM: The Open Source CFD Toolbox           |
|  \\    /   O peration     | Version:  2412                                  |
|   \\  /    A nd           | Website:  www.openfoam.com                      |
|    \\/     M anipulation  |                                                 |
\*---------------------------------------------------------------------------*/
FoamFile
{
    version     2.0;
    format      ascii;
    arch        "LSB;label=32;scalar=64";
    class       volScalarField;
    location    "0.103";
    object      p;
}
// * * * * * * * * * * * * * * * * * * * * * * * * * * * * * * * * * * * * * //

dimensions      [1 -1 -2 0 0 0 0];

internalField   nonuniform List<scalar> 
9763
(
2869.19
2938.2
2868.86
2936.74
2868.64
2934.2
2868.28
2932.59
2867.96
2930.5
2867.54
2928.55
2867.16
2926.46
2866.72
2924.37
2866.31
2922.16
2865.84
2919.91
2865.36
2917.57
2864.83
2915.21
2864.3
2912.73
2863.72
2910.21
2863.11
2907.6
2862.46
2904.93
2861.78
2902.19
2861.06
2899.39
2860.29
2896.51
2859.47
2893.56
2858.62
2890.54
2857.71
2887.43
2856.76
2884.24
2855.78
2880.95
2854.76
2877.56
2853.71
2874.04
2852.64
2870.4
2851.55
2866.64
2850.42
2862.76
2849.26
2858.78
2848.03
2854.72
2846.73
2850.61
2845.33
2846.49
2843.83
2842.33
2842.23
2838.11
2840.49
2833.84
2838.64
2829.48
2836.65
2825.08
2834.55
2820.59
2832.31
2816.09
2811.55
2807
2802.43
4330.99
2841.24
2851.7
2856.71
2849.15
2842.23
2834.54
2829.3
2823.97
2819.29
2814.4
2809.38
2803.97
2798.34
2792.39
2786.21
2779.83
2773.31
2766.72
2760.12
2753.59
2747.2
2740.98
2734.97
2729.14
2723.44
2717.87
2712.4
2707.06
2701.85
2696.74
2691.76
2686.94
2682.34
2678
2673.95
2670.19
2666.77
2663.72
2661.09
2658.9
2657.21
2656.01
2655.27
2654.93
2655.03
2655.59
2656.58
2657.93
2659.64
2661.66
2663.98
2666.58
2669.46
2672.63
2676.03
2679.48
2683.19
2687.03
2690.96
2695.13
2699.4
2703.66
2708.01
2712.5
2717.11
2721.84
2726.55
2731.37
2736.26
2741.18
2746.25
2751.41
2756.68
2762.01
2767.35
2772.59
2777.74
2782.71
2787.56
2792.27
2796.92
2801.52
2806.21
2810.86
2815.67
2820.39
2825.25
2829.99
2834.62
2839.02
2843.14
2847.13
2850.96
2854.71
2858.32
2861.83
2865.17
2868.4
2871.42
2874.3
2876.97
2879.46
2881.71
2883.8
2885.59
2887.24
2888.6
2889.77
2890.71
2891.32
2891.77
2891.85
2891.67
2891.11
2890.14
2888.78
2886.94
2884.75
2884.3
2876.49
4331.07
2840.89
2851.22
2856.26
2848.84
2841.98
2834.34
2829.15
2823.86
2819.21
2814.34
2809.34
2803.94
2798.32
2792.37
2786.18
2779.77
2773.22
2766.6
2759.96
2753.39
2746.95
2740.69
2734.63
2728.75
2723
2717.38
2711.86
2706.46
2701.18
2696.01
2690.95
2686.05
2681.35
2676.91
2672.75
2668.89
2665.35
2662.18
2659.41
2657.1
2655.27
2653.93
2653.06
2652.62
2652.6
2653
2653.87
2655.11
2656.7
2658.62
2660.84
2663.34
2666.11
2669.16
2672.42
2675.79
2679.4
2683.19
2687.09
2691.19
2695.42
2699.67
2703.91
2708.28
2712.79
2717.43
2722.03
2726.76
2731.51
2736.3
2741.22
2746.22
2751.32
2756.5
2761.71
2766.84
2771.92
2776.88
2781.76
2786.54
2791.24
2795.85
2800.47
2805.01
2809.63
2814.17
2818.78
2823.24
2827.56
2831.76
2835.66
2839.43
2843.01
2846.48
2849.76
2852.94
2855.92
2858.8
2861.48
2864.04
2866.41
2868.61
2870.66
2872.53
2874.25
2875.9
2877.27
2878.61
2879.79
2880.77
2881.73
2882.5
2883.24
2883.84
2884.36
2884.76
2885.05
2885.28
2885.54
2885.61
4330.27
2840.52
2850.88
2855.97
2848.59
2841.78
2834.19
2829.02
2823.76
2819.12
2814.28
2809.3
2803.91
2798.3
2792.35
2786.14
2779.72
2773.14
2766.48
2759.81
2753.19
2746.71
2740.41
2734.3
2728.37
2722.58
2716.89
2711.32
2705.86
2700.51
2695.27
2690.13
2685.14
2680.35
2675.8
2671.53
2667.55
2663.89
2660.58
2657.68
2655.22
2653.25
2651.77
2650.76
2650.2
2650.05
2650.3
2651.04
2652.16
2653.62
2655.42
2657.52
2659.91
2662.57
2665.49
2668.61
2671.89
2675.37
2679.03
2682.83
2686.79
2690.88
2695.02
2699.14
2703.37
2707.74
2712.24
2716.7
2721.27
2725.86
2730.47
2735.19
2739.97
2744.83
2749.77
2754.71
2759.57
2764.35
2769.03
2773.65
2778.19
2782.65
2787.06
2791.43
2795.72
2800.03
2804.23
2808.47
2812.53
2816.5
2820.37
2823.95
2827.41
2830.68
2833.83
2836.81
2839.68
2842.36
2844.94
2847.34
2849.62
2851.73
2853.69
2855.52
2857.18
2858.73
2860.17
2861.37
2862.58
2863.62
2864.45
2865.31
2865.99
2866.65
2867.2
2867.72
2868.17
2868.6
2869.01
2869.42
2870.06
4330.31
2840.12
2850.55
2855.64
2848.33
2841.58
2834.02
2828.89
2823.66
2819.04
2814.23
2809.26
2803.88
2798.28
2792.32
2786.11
2779.67
2773.07
2766.38
2759.67
2753.01
2746.49
2740.15
2734
2728.02
2722.17
2716.44
2710.81
2705.29
2699.88
2694.57
2689.36
2684.28
2679.39
2674.74
2670.36
2666.27
2662.48
2659.05
2656.01
2653.42
2651.31
2649.68
2648.53
2647.85
2647.57
2647.7
2648.29
2649.29
2650.63
2652.31
2654.3
2656.58
2659.12
2661.91
2664.91
2668.07
2671.43
2674.98
2678.67
2682.53
2686.47
2690.5
2694.48
2698.55
2702.79
2707.12
2711.4
2715.79
2720.17
2724.59
2729.09
2733.63
2738.21
2742.87
2747.49
2752.07
2756.6
2761.05
2765.44
2769.77
2774
2778.16
2782.22
2786.17
2790.06
2793.8
2797.5
2801.01
2804.43
2807.78
2810.88
2813.87
2816.7
2819.41
2821.98
2824.44
2826.75
2828.98
2831.06
2833.06
2834.93
2836.68
2838.33
2839.84
2841.35
2842.69
2843.93
2845.14
2846.24
2847.19
2848.13
2848.97
2849.76
2850.48
2851.15
2851.78
2852.37
2852.91
2853.47
2854.17
4330.26
2839.77
2850.24
2855.33
2848.09
2841.39
2833.87
2828.76
2823.57
2818.96
2814.17
2809.22
2803.85
2798.26
2792.3
2786.08
2779.62
2773
2766.28
2759.53
2752.84
2746.28
2739.9
2733.7
2727.68
2721.79
2716.01
2710.32
2704.75
2699.27
2693.89
2688.61
2683.45
2678.47
2673.72
2669.23
2665.03
2661.13
2657.56
2654.39
2651.67
2649.42
2647.65
2646.36
2645.54
2645.16
2645.16
2645.59
2646.47
2647.69
2649.25
2651.12
2653.29
2655.72
2658.4
2661.27
2664.31
2667.56
2670.99
2674.57
2678.3
2682.07
2685.96
2689.82
2693.75
2697.86
2702.03
2706.15
2710.37
2714.56
2718.79
2723.09
2727.42
2731.76
2736.14
2740.49
2744.79
2749.06
2753.25
2757.38
2761.45
2765.42
2769.32
2773.1
2776.77
2780.35
2783.79
2787.15
2790.31
2793.37
2796.34
2799.06
2801.67
2804.13
2806.48
2808.68
2810.77
2812.73
2814.59
2816.33
2817.99
2819.52
2820.96
2822.29
2823.52
2824.74
2825.8
2826.85
2827.85
2828.75
2829.59
2830.39
2831.16
2831.87
2832.56
2833.21
2833.84
2834.43
2834.97
2835.52
2836.22
4330.46
2839.41
2849.92
2855.02
2847.84
2841.19
2833.71
2828.63
2823.48
2818.89
2814.12
2809.18
2803.83
2798.24
2792.28
2786.05
2779.58
2772.93
2766.18
2759.4
2752.67
2746.07
2739.65
2733.42
2727.35
2721.41
2715.58
2709.85
2704.21
2698.68
2693.23
2687.87
2682.63
2677.56
2672.72
2668.13
2663.81
2659.79
2656.1
2652.8
2649.94
2647.55
2645.65
2644.22
2643.27
2642.77
2642.65
2642.94
2643.69
2644.8
2646.24
2647.99
2650.05
2652.37
2654.93
2657.7
2660.62
2663.76
2667.06
2670.52
2674.12
2677.72
2681.48
2685.22
2689.02
2692.99
2697
2700.96
2705.02
2709.03
2713.07
2717.16
2721.24
2725.31
2729.43
2733.51
2737.58
2741.63
2745.64
2749.59
2753.49
2757.27
2760.97
2764.51
2767.94
2771.2
2774.33
2777.31
2780.12
2782.81
2785.41
2787.81
2790.09
2792.26
2794.31
2796.25
2798.08
2799.79
2801.41
2802.91
2804.35
2805.66
2806.91
2808.04
2809.09
2810.07
2810.93
2811.83
2812.62
2813.31
2814
2814.62
2815.23
2815.78
2816.31
2816.82
2817.3
2817.79
2818.2
2818.55
2818.39
4330.47
2839.04
2849.59
2854.7
2847.59
2840.99
2833.55
2828.51
2823.38
2818.81
2814.06
2809.14
2803.8
2798.22
2792.26
2786.02
2779.53
2772.86
2766.08
2759.27
2752.51
2745.87
2739.41
2733.13
2727.02
2721.04
2715.16
2709.37
2703.68
2698.09
2692.57
2687.14
2681.82
2676.65
2671.71
2667.01
2662.59
2658.44
2654.63
2651.2
2648.19
2645.66
2643.62
2642.05
2640.97
2640.34
2640.1
2640.26
2640.87
2641.86
2643.17
2644.8
2646.74
2648.95
2651.4
2654.04
2656.84
2659.87
2663.04
2666.36
2669.82
2673.24
2676.87
2680.47
2684.12
2687.93
2691.77
2695.58
2699.5
2703.36
2707.26
2711.19
2715.09
2718.95
2722.82
2726.62
2730.4
2734.16
2737.9
2741.63
2745.33
2748.93
2752.47
2755.84
2759.1
2762.18
2765.15
2767.94
2770.59
2773.09
2775.5
2777.7
2779.8
2781.78
2783.65
2785.42
2787.09
2788.64
2790.12
2791.48
2792.79
2793.97
2795.1
2796.11
2797.07
2797.92
2798.7
2799.51
2800.2
2800.8
2801.42
2801.97
2802.5
2803
2803.47
2803.92
2804.36
2804.8
2805.24
2805.8
2806.37
4330.54
2838.65
2849.25
2854.38
2847.33
2840.79
2833.39
2828.38
2823.28
2818.73
2814
2809.1
2803.77
2798.19
2792.24
2786
2779.49
2772.79
2765.98
2759.14
2752.34
2745.67
2739.16
2732.85
2726.69
2720.66
2714.73
2708.89
2703.14
2697.49
2691.91
2686.4
2680.99
2675.74
2670.69
2665.89
2661.35
2657.08
2653.14
2649.57
2646.43
2643.75
2641.56
2639.85
2638.63
2637.87
2637.51
2637.55
2638
2638.86
2640.05
2641.56
2643.38
2645.47
2647.8
2650.33
2653.01
2655.9
2658.94
2662.12
2665.43
2668.69
2672.16
2675.61
2679.09
2682.72
2686.38
2690.04
2693.81
2697.53
2701.27
2705.01
2708.7
2712.33
2715.96
2719.5
2723.02
2726.52
2730.01
2733.51
2737
2740.41
2743.77
2746.94
2750
2752.86
2755.61
2758.14
2760.58
2762.86
2765.05
2767.07
2768.99
2770.81
2772.54
2774.18
2775.74
2777.2
2778.6
2779.88
2781.14
2782.25
2783.34
2784.29
2785.23
2786.02
2786.78
2787.53
2788.17
2788.74
2789.29
2789.8
2790.24
2790.67
2791.04
2791.39
2791.7
2791.99
2792.31
2792.73
2793.88
4330.57
2838.25
2848.89
2854.05
2847.07
2840.59
2833.23
2828.25
2823.19
2818.65
2813.95
2809.06
2803.74
2798.17
2792.22
2785.97
2779.44
2772.72
2765.88
2759.01
2752.17
2745.46
2738.92
2732.56
2726.36
2720.28
2714.3
2708.41
2702.6
2696.88
2691.23
2685.65
2680.16
2674.81
2669.66
2664.75
2660.09
2655.7
2651.62
2647.91
2644.62
2641.8
2639.46
2637.6
2636.23
2635.32
2634.85
2634.75
2635.05
2635.78
2636.84
2638.21
2639.91
2641.87
2644.09
2646.48
2649.03
2651.79
2654.68
2657.7
2660.86
2663.93
2667.25
2670.52
2673.81
2677.25
2680.72
2684.21
2687.83
2691.41
2695
2698.58
2702.09
2705.54
2708.94
2712.23
2715.46
2718.65
2721.82
2725.01
2728.23
2731.41
2734.56
2737.56
2740.47
2743.17
2745.77
2748.11
2750.4
2752.49
2754.48
2756.31
2758.03
2759.65
2761.18
2762.62
2763.98
2765.25
2766.45
2767.54
2768.61
2769.53
2770.44
2771.21
2771.98
2772.58
2773.2
2773.73
2774.16
2774.59
2774.92
2775.24
2775.48
2775.7
2775.86
2776
2776.09
2776.17
2776.26
2776.5
2776.13
4330.65
2837.83
2848.53
2853.71
2846.8
2840.38
2833.06
2828.11
2823.09
2818.57
2813.89
2809.02
2803.71
2798.15
2792.2
2785.94
2779.39
2772.65
2765.78
2758.88
2752.01
2745.25
2738.67
2732.27
2726.03
2719.9
2713.87
2707.93
2702.06
2696.27
2690.55
2684.89
2679.32
2673.87
2668.62
2663.59
2658.81
2654.3
2650.09
2646.23
2642.8
2639.82
2637.32
2635.31
2633.79
2632.74
2632.14
2631.91
2632.06
2632.64
2633.57
2634.81
2636.37
2638.21
2640.29
2642.55
2644.97
2647.6
2650.33
2653.19
2656.19
2659.08
2662.23
2665.3
2668.39
2671.64
2674.92
2678.23
2681.66
2685.05
2688.46
2691.87
2695.18
2698.43
2701.63
2704.69
2707.68
2710.6
2713.49
2716.4
2719.34
2722.25
2725.14
2727.89
2730.55
2733.01
2735.38
2737.49
2739.57
2741.46
2743.23
2744.87
2746.41
2747.86
2749.21
2750.48
2751.67
2752.78
2753.83
2754.77
2755.69
2756.47
2757.25
2757.89
2758.52
2759
2759.49
2759.92
2760.24
2760.56
2760.8
2761.01
2761.16
2761.28
2761.36
2761.4
2761.42
2761.41
2761.4
2761.38
2761.11
4330.74
2837.4
2848.15
2853.37
2846.53
2840.17
2832.89
2827.98
2822.99
2818.49
2813.83
2808.98
2803.68
2798.13
2792.17
2785.91
2779.35
2772.58
2765.69
2758.74
2751.84
2745.05
2738.43
2731.98
2725.69
2719.52
2713.44
2707.44
2701.51
2695.66
2689.87
2684.13
2678.47
2672.93
2667.57
2662.42
2657.52
2652.87
2648.53
2644.53
2640.94
2637.8
2635.14
2632.97
2631.29
2630.09
2629.35
2629.01
2629.02
2629.43
2630.23
2631.33
2632.75
2634.45
2636.4
2638.52
2640.8
2643.28
2645.85
2648.54
2651.38
2654.08
2657.05
2659.93
2662.82
2665.88
2668.99
2672.1
2675.32
2678.5
2681.71
2684.94
2688.08
2691.14
2694.14
2696.97
2699.72
2702.35
2704.95
2707.54
2710.17
2712.79
2715.4
2717.93
2720.38
2722.68
2724.88
2726.86
2728.8
2730.53
2732.13
2733.62
2735
2736.29
2737.48
2738.59
2739.63
2740.59
2741.48
2742.29
2743.08
2743.74
2744.41
2744.95
2745.49
2745.88
2746.28
2746.63
2746.91
2747.17
2747.36
2747.53
2747.65
2747.74
2747.79
2747.82
2747.82
2747.8
2747.76
2747.68
2747.51
4330.87
2836.96
2847.78
2853.02
2846.26
2839.95
2832.72
2827.84
2822.88
2818.4
2813.77
2808.94
2803.65
2798.1
2792.15
2785.88
2779.3
2772.51
2765.59
2758.61
2751.67
2744.85
2738.18
2731.7
2725.36
2719.14
2713.01
2706.95
2700.97
2695.05
2689.18
2683.37
2677.62
2671.98
2666.51
2661.25
2656.22
2651.44
2646.96
2642.81
2639.07
2635.77
2632.95
2630.62
2628.78
2627.43
2626.53
2626.07
2625.94
2626.19
2626.84
2627.81
2629.09
2630.65
2632.46
2634.44
2636.58
2638.91
2641.32
2643.84
2646.53
2649.05
2651.85
2654.54
2657.25
2660.13
2663.05
2665.95
2668.91
2671.82
2674.77
2677.76
2680.67
2683.54
2686.36
2689.02
2691.59
2694.02
2696.37
2698.7
2701.03
2703.35
2705.66
2707.9
2710.08
2712.15
2714.14
2715.96
2717.74
2719.31
2720.77
2722.17
2723.45
2724.64
2725.72
2726.75
2727.7
2728.59
2729.4
2730.15
2730.87
2731.48
2732.09
2732.6
2733.11
2733.48
2733.87
2734.22
2734.49
2734.76
2734.95
2735.15
2735.28
2735.41
2735.5
2735.57
2735.62
2735.65
2735.66
2735.65
2735.57
4331.03
2836.5
2847.4
2852.67
2845.98
2839.74
2832.55
2827.7
2822.78
2818.32
2813.71
2808.89
2803.62
2798.08
2792.13
2785.84
2779.26
2772.44
2765.49
2758.48
2751.51
2744.64
2737.94
2731.41
2725.03
2718.77
2712.58
2706.47
2700.42
2694.44
2688.5
2682.61
2676.77
2671.03
2665.45
2660.07
2654.91
2650.01
2645.38
2641.08
2637.18
2633.72
2630.73
2628.24
2626.23
2624.72
2623.67
2623.07
2622.82
2622.91
2623.4
2624.23
2625.37
2626.78
2628.45
2630.29
2632.29
2634.46
2636.7
2639.06
2641.58
2643.91
2646.54
2649.05
2651.58
2654.28
2657.01
2659.71
2662.43
2665.09
2667.79
2670.54
2673.21
2675.86
2678.47
2680.93
2683.3
2685.53
2687.67
2689.77
2691.85
2693.92
2695.96
2697.93
2699.85
2701.7
2703.5
2705.2
2706.86
2708.31
2709.67
2710.98
2712.17
2713.28
2714.3
2715.26
2716.12
2716.93
2717.68
2718.36
2719.02
2719.58
2720.14
2720.6
2721.09
2721.45
2721.84
2722.18
2722.45
2722.72
2722.94
2723.15
2723.32
2723.49
2723.62
2723.73
2723.83
2723.92
2723.99
2724.04
2724.07
4331.24
2836.03
2847.01
2852.32
2845.7
2839.52
2832.37
2827.57
2822.67
2818.23
2813.64
2808.85
2803.59
2798.05
2792.1
2785.81
2779.21
2772.37
2765.39
2758.36
2751.35
2744.44
2737.7
2731.13
2724.71
2718.39
2712.16
2705.99
2699.88
2693.83
2687.82
2681.84
2675.92
2670.08
2664.39
2658.89
2653.61
2648.57
2643.8
2639.35
2635.29
2631.67
2628.51
2625.85
2623.68
2622
2620.8
2620.04
2619.67
2619.63
2619.95
2620.64
2621.63
2622.9
2624.42
2626.12
2627.97
2630
2632.08
2634.27
2636.63
2638.78
2641.24
2643.57
2645.93
2648.46
2650.99
2653.48
2655.96
2658.37
2660.79
2663.27
2665.69
2668.1
2670.5
2672.77
2674.97
2677.02
2678.97
2680.85
2682.7
2684.53
2686.31
2688.01
2689.67
2691.27
2692.86
2694.38
2695.9
2697.21
2698.48
2699.68
2700.79
2701.87
2702.83
2703.76
2704.58
2705.35
2706.07
2706.74
2707.37
2707.93
2708.46
2708.92
2709.4
2709.78
2710.21
2710.58
2710.88
2711.19
2711.44
2711.7
2711.92
2712.14
2712.33
2712.51
2712.67
2712.83
2712.97
2713.1
2713.25
4331.48
2835.54
2846.62
2851.96
2845.42
2839.3
2832.2
2827.43
2822.57
2818.15
2813.58
2808.8
2803.56
2798.03
2792.08
2785.78
2779.16
2772.31
2765.3
2758.23
2751.19
2744.25
2737.46
2730.85
2724.38
2718.02
2711.74
2705.51
2699.34
2693.22
2687.14
2681.09
2675.07
2669.14
2663.34
2657.72
2652.3
2647.12
2642.21
2637.61
2633.39
2629.6
2626.27
2623.44
2621.1
2619.25
2617.89
2616.98
2616.48
2616.3
2616.45
2616.99
2617.84
2618.97
2620.35
2621.9
2623.61
2625.48
2627.4
2629.42
2631.61
2633.58
2635.88
2638.05
2640.25
2642.6
2644.91
2647.2
2649.45
2651.61
2653.78
2655.97
2658.12
2660.28
2662.45
2664.51
2666.53
2668.41
2670.19
2671.9
2673.57
2675.19
2676.76
2678.23
2679.67
2681.05
2682.44
2683.8
2685.18
2686.35
2687.49
2688.59
2689.63
2690.64
2691.55
2692.41
2693.19
2693.92
2694.6
2695.24
2695.84
2696.38
2696.89
2697.34
2697.79
2698.17
2698.62
2699
2699.31
2699.64
2699.92
2700.22
2700.46
2700.72
2700.95
2701.17
2701.38
2701.59
2701.78
2701.98
2702.2
4331.75
2835.05
2846.23
2851.6
2845.13
2839.08
2832.02
2827.29
2822.46
2818.06
2813.52
2808.76
2803.52
2798
2792.05
2785.75
2779.12
2772.24
2765.21
2758.11
2751.03
2744.05
2737.23
2730.57
2724.06
2717.65
2711.32
2705.03
2698.8
2692.62
2686.46
2680.33
2674.23
2668.2
2662.29
2656.54
2651
2645.69
2640.63
2635.88
2631.5
2627.54
2624.04
2621.03
2618.51
2616.5
2614.98
2613.91
2613.26
2612.95
2612.97
2613.33
2614.05
2615.03
2616.26
2617.68
2619.24
2620.96
2622.73
2624.58
2626.61
2628.4
2630.55
2632.58
2634.6
2636.75
2638.84
2640.89
2642.91
2644.83
2646.75
2648.66
2650.54
2652.45
2654.37
2656.22
2658.03
2659.73
2661.34
2662.89
2664.4
2665.86
2667.22
2668.48
2669.68
2670.84
2672.02
2673.18
2674.4
2675.41
2676.42
2677.42
2678.4
2679.33
2680.19
2681
2681.75
2682.45
2683.11
2683.74
2684.32
2684.86
2685.37
2685.83
2686.27
2686.66
2687.13
2687.52
2687.85
2688.21
2688.51
2688.84
2689.12
2689.41
2689.68
2689.94
2690.2
2690.44
2690.69
2690.93
2691.23
4332.1
2834.53
2845.83
2851.24
2844.84
2838.86
2831.84
2827.14
2822.36
2817.97
2813.46
2808.71
2803.49
2797.98
2792.03
2785.72
2779.07
2772.17
2765.11
2757.98
2750.87
2743.86
2737
2730.3
2723.75
2717.29
2710.9
2704.57
2698.27
2692.02
2685.79
2679.58
2673.39
2667.26
2661.24
2655.37
2649.7
2644.25
2639.04
2634.14
2629.6
2625.47
2621.79
2618.6
2615.91
2613.72
2612.03
2610.81
2610
2609.57
2609.44
2609.64
2610.21
2611.05
2612.14
2613.41
2614.83
2616.4
2618.03
2619.71
2621.58
2623.2
2625.2
2627.08
2628.93
2630.89
2632.74
2634.57
2636.35
2638.05
2639.73
2641.38
2643
2644.64
2646.33
2647.96
2649.57
2651.05
2652.47
2653.82
2655.13
2656.39
2657.58
2658.67
2659.7
2660.68
2661.7
2662.69
2663.76
2664.6
2665.49
2666.39
2667.26
2668.1
2668.88
2669.63
2670.32
2670.98
2671.59
2672.2
2672.74
2673.26
2673.74
2674.19
2674.61
2675.01
2675.46
2675.84
2676.18
2676.54
2676.85
2677.19
2677.48
2677.79
2678.07
2678.34
2678.61
2678.88
2679.14
2679.4
2679.73
4332.41
2834.01
2845.42
2850.87
2844.55
2838.63
2831.66
2827
2822.25
2817.89
2813.39
2808.66
2803.46
2797.95
2792
2785.69
2779.03
2772.11
2765.02
2757.86
2750.72
2743.67
2736.77
2730.04
2723.44
2716.93
2710.5
2704.1
2697.75
2691.43
2685.13
2678.84
2672.56
2666.33
2660.2
2654.21
2648.41
2642.82
2637.47
2632.41
2627.7
2623.4
2619.55
2616.18
2613.31
2610.95
2609.09
2607.7
2606.74
2606.16
2605.9
2605.96
2606.35
2607.06
2608.01
2609.14
2610.43
2611.85
2613.33
2614.86
2616.58
2618.05
2619.9
2621.63
2623.3
2625.06
2626.69
2628.28
2629.81
2631.26
2632.7
2634.08
2635.43
2636.8
2638.23
2639.64
2641.06
2642.37
2643.6
2644.77
2645.89
2646.95
2647.92
2648.8
2649.65
2650.46
2651.3
2652.12
2653.02
2653.73
2654.49
2655.26
2656.02
2656.76
2657.46
2658.13
2658.75
2659.37
2659.94
2660.5
2661.02
2661.51
2661.98
2662.42
2662.83
2663.24
2663.67
2664.04
2664.39
2664.75
2665.08
2665.43
2665.74
2666.06
2666.35
2666.65
2666.93
2667.22
2667.5
2667.78
2668.13
4332.91
2833.47
2845.01
2850.5
2844.25
2838.41
2831.48
2826.86
2822.14
2817.8
2813.33
2808.62
2803.42
2797.92
2791.98
2785.66
2778.99
2772.04
2764.93
2757.74
2750.57
2743.49
2736.55
2729.77
2723.13
2716.58
2710.09
2703.64
2697.23
2690.84
2684.47
2678.1
2671.73
2665.41
2659.16
2653.06
2647.12
2641.39
2635.89
2630.67
2625.8
2621.33
2617.3
2613.74
2610.69
2608.15
2606.11
2604.56
2603.44
2602.71
2602.32
2602.23
2602.46
2603.02
2603.84
2604.83
2605.97
2607.25
2608.59
2609.97
2611.54
2612.86
2614.57
2616.14
2617.65
2619.23
2620.66
2622.02
2623.3
2624.48
2625.66
2626.77
2627.86
2628.96
2630.13
2631.32
2632.51
2633.61
2634.67
2635.67
2636.63
2637.5
2638.28
2638.98
2639.64
2640.26
2640.92
2641.59
2642.34
2642.9
2643.53
2644.17
2644.81
2645.44
2646.04
2646.62
2647.17
2647.71
2648.22
2648.72
2649.18
2649.63
2650.06
2650.47
2650.86
2651.26
2651.62
2651.96
2652.3
2652.64
2652.97
2653.29
2653.59
2653.9
2654.18
2654.47
2654.75
2655.03
2655.31
2655.59
2655.94
4333.26
2832.91
2844.6
2850.13
2843.96
2838.18
2831.3
2826.71
2822.03
2817.71
2813.26
2808.57
2803.39
2797.9
2791.95
2785.63
2778.94
2771.98
2764.84
2757.63
2750.42
2743.3
2736.33
2729.51
2722.83
2716.23
2709.69
2703.19
2696.72
2690.26
2683.82
2677.37
2670.91
2664.49
2658.14
2651.91
2645.84
2639.96
2634.31
2628.94
2623.9
2619.26
2615.05
2611.31
2608.07
2605.35
2603.14
2601.41
2600.13
2599.25
2598.72
2598.5
2598.57
2598.97
2599.65
2600.5
2601.51
2602.65
2603.85
2605.09
2606.52
2607.69
2609.24
2610.62
2611.95
2613.31
2614.52
2615.68
2616.74
2617.72
2618.69
2619.59
2620.43
2621.22
2622.08
2622.98
2623.93
2624.83
2625.71
2626.53
2627.29
2627.98
2628.58
2629.1
2629.58
2630.03
2630.51
2630.99
2631.54
2631.95
2632.42
2632.93
2633.44
2633.96
2634.45
2634.94
2635.41
2635.88
2636.32
2636.77
2637.17
2637.57
2637.96
2638.34
2638.7
2639.07
2639.4
2639.71
2640.04
2640.36
2640.67
2640.97
2641.27
2641.56
2641.83
2642.11
2642.37
2642.65
2642.92
2643.2
2643.53
4333.85
2832.35
2844.17
2849.76
2843.66
2837.95
2831.12
2826.57
2821.92
2817.62
2813.2
2808.52
2803.36
2797.87
2791.93
2785.6
2778.9
2771.92
2764.76
2757.51
2750.27
2743.13
2736.12
2729.26
2722.53
2715.89
2709.3
2702.74
2696.21
2689.69
2683.17
2676.64
2670.1
2663.57
2657.11
2650.76
2644.56
2638.54
2632.74
2627.21
2622
2617.18
2612.79
2608.87
2605.44
2602.53
2600.13
2598.24
2596.8
2595.75
2595.07
2594.72
2594.66
2594.88
2595.42
2596.13
2597
2598.01
2599.06
2600.17
2601.47
2602.51
2603.9
2605.09
2606.25
2607.43
2608.44
2609.38
2610.22
2610.98
2611.74
2612.45
2613.08
2613.64
2614.22
2614.8
2615.43
2616.06
2616.7
2617.31
2617.89
2618.42
2618.85
2619.21
2619.51
2619.78
2620.07
2620.38
2620.75
2621.02
2621.34
2621.7
2622.08
2622.47
2622.85
2623.23
2623.6
2623.97
2624.32
2624.69
2625.01
2625.34
2625.66
2625.97
2626.27
2626.58
2626.86
2627.13
2627.41
2627.69
2627.97
2628.24
2628.5
2628.76
2629.01
2629.27
2629.51
2629.77
2630.02
2630.28
2630.59
4334.31
2831.76
2843.74
2849.38
2843.35
2837.71
2830.93
2826.42
2821.81
2817.53
2813.13
2808.48
2803.32
2797.84
2791.9
2785.57
2778.85
2771.85
2764.67
2757.4
2750.13
2742.95
2735.9
2729.01
2722.24
2715.55
2708.91
2702.3
2695.71
2689.12
2682.53
2675.92
2669.29
2662.67
2656.1
2649.62
2643.29
2637.13
2631.18
2625.48
2620.11
2615.11
2610.54
2606.43
2602.81
2599.7
2597.13
2595.06
2593.45
2592.24
2591.41
2590.92
2590.73
2590.8
2591.17
2591.74
2592.47
2593.35
2594.25
2595.25
2596.42
2597.34
2598.57
2599.55
2600.54
2601.51
2602.31
2603.03
2603.68
2604.27
2604.83
2605.34
2605.74
2606.06
2606.39
2606.71
2607.08
2607.44
2607.81
2608.18
2608.54
2608.87
2609.11
2609.28
2609.39
2609.46
2609.53
2609.65
2609.78
2609.91
2610.06
2610.28
2610.53
2610.79
2611.06
2611.33
2611.59
2611.86
2612.13
2612.4
2612.64
2612.89
2613.14
2613.38
2613.62
2613.88
2614.07
2614.3
2614.54
2614.78
2615.01
2615.24
2615.47
2615.7
2615.92
2616.15
2616.37
2616.6
2616.83
2617.08
2617.36
4334.94
2831.17
2843.3
2848.99
2843.05
2837.48
2830.75
2826.28
2821.7
2817.45
2813.07
2808.43
2803.29
2797.81
2791.88
2785.53
2778.81
2771.79
2764.59
2757.29
2749.99
2742.77
2735.69
2728.76
2721.95
2715.22
2708.53
2701.86
2695.21
2688.56
2681.89
2675.2
2668.49
2661.77
2655.09
2648.49
2642.02
2635.72
2629.61
2623.76
2618.21
2613.04
2608.28
2603.98
2600.16
2596.86
2594.1
2591.84
2590.06
2588.7
2587.71
2587.08
2586.76
2586.69
2586.88
2587.31
2587.9
2588.65
2589.41
2590.29
2591.32
2592.09
2593.19
2594
2594.83
2595.62
2596.2
2596.71
2597.15
2597.55
2597.92
2598.24
2598.45
2598.57
2598.65
2598.7
2598.78
2598.86
2598.97
2599.1
2599.25
2599.37
2599.42
2599.4
2599.32
2599.21
2599.07
2599
2598.88
2598.84
2598.81
2598.85
2598.92
2599.03
2599.16
2599.3
2599.44
2599.6
2599.76
2599.92
2600.06
2600.22
2600.36
2600.52
2600.68
2600.87
2600.96
2601.13
2601.3
2601.48
2601.66
2601.83
2602.01
2602.19
2602.38
2602.56
2602.74
2602.93
2603.14
2603.35
2603.6
4335.57
2830.57
2842.86
2848.61
2842.73
2837.24
2830.56
2826.13
2821.58
2817.36
2813
2808.38
2803.25
2797.79
2791.85
2785.5
2778.77
2771.73
2764.5
2757.18
2749.85
2742.6
2735.49
2728.52
2721.66
2714.89
2708.15
2701.43
2694.72
2688
2681.26
2674.49
2667.69
2660.87
2654.08
2647.37
2640.76
2634.31
2628.05
2622.04
2616.32
2610.96
2606.02
2601.53
2597.52
2594.02
2591.06
2588.62
2586.67
2585.14
2584
2583.21
2582.75
2582.55
2582.6
2582.87
2583.32
2583.94
2584.56
2585.32
2586.22
2586.81
2587.78
2588.42
2589.04
2589.61
2590
2590.36
2590.67
2590.94
2591.15
2591.3
2591.3
2591.23
2591.06
2590.85
2590.64
2590.42
2590.23
2590.09
2589.99
2589.89
2589.73
2589.52
2589.25
2588.94
2588.6
2588.33
2587.96
2587.73
2587.49
2587.33
2587.21
2587.15
2587.11
2587.1
2587.11
2587.14
2587.18
2587.22
2587.25
2587.3
2587.35
2587.41
2587.49
2587.6
2587.58
2587.68
2587.78
2587.89
2588
2588.11
2588.23
2588.36
2588.49
2588.62
2588.77
2588.91
2589.05
2589.2
2589.43
4336.26
2829.96
2842.41
2848.21
2842.42
2837
2830.37
2825.98
2821.47
2817.27
2812.94
2808.33
2803.22
2797.76
2791.82
2785.47
2778.72
2771.67
2764.42
2757.07
2749.71
2742.44
2735.29
2728.27
2721.38
2714.56
2707.78
2701.01
2694.23
2687.45
2680.64
2673.79
2666.9
2659.99
2653.09
2646.25
2639.51
2632.91
2626.5
2620.31
2614.42
2608.89
2603.76
2599.07
2594.86
2591.16
2588
2585.37
2583.24
2581.55
2580.24
2579.31
2578.7
2578.38
2578.29
2578.4
2578.71
2579.19
2579.67
2580.29
2581.05
2581.5
2582.38
2582.85
2583.26
2583.62
2583.82
2583.99
2584.16
2584.29
2584.38
2584.39
2584.24
2584
2583.59
2583.14
2582.65
2582.15
2581.66
2581.23
2580.85
2580.5
2580.11
2579.7
2579.24
2578.75
2578.2
2577.75
2577.12
2576.68
2576.23
2575.84
2575.5
2575.23
2575
2574.81
2574.65
2574.54
2574.43
2574.33
2574.23
2574.16
2574.09
2574.04
2574.01
2574.02
2573.89
2573.89
2573.9
2573.92
2573.95
2573.99
2574.03
2574.09
2574.15
2574.22
2574.31
2574.4
2574.51
2574.62
2574.7
4336.99
2829.32
2841.95
2847.82
2842.1
2836.76
2830.18
2825.83
2821.36
2817.18
2812.87
2808.28
2803.18
2797.73
2791.8
2785.44
2778.68
2771.61
2764.34
2756.96
2749.58
2742.27
2735.09
2728.04
2721.1
2714.24
2707.41
2700.59
2693.75
2686.9
2680.02
2673.09
2666.11
2659.1
2652.1
2645.13
2638.26
2631.52
2624.95
2618.6
2612.53
2606.81
2601.49
2596.61
2592.2
2588.3
2584.94
2582.11
2579.79
2577.93
2576.47
2575.38
2574.63
2574.17
2573.96
2573.94
2574.1
2574.44
2574.79
2575.26
2575.88
2576.19
2576.95
2577.27
2577.49
2577.67
2577.69
2577.7
2577.72
2577.72
2577.66
2577.54
2577.24
2576.82
2576.21
2575.53
2574.8
2574.03
2573.25
2572.52
2571.83
2571.2
2570.57
2569.95
2569.29
2568.59
2567.85
2567.2
2566.32
2565.66
2564.97
2564.34
2563.76
2563.26
2562.8
2562.41
2562.05
2561.76
2561.48
2561.22
2560.97
2560.76
2560.55
2560.39
2560.23
2560.14
2559.89
2559.78
2559.7
2559.62
2559.55
2559.5
2559.46
2559.44
2559.43
2559.44
2559.46
2559.5
2559.62
2559.8
2559.6
4337.76
2828.68
2841.48
2847.42
2841.78
2836.52
2829.98
2825.68
2821.24
2817.08
2812.8
2808.23
2803.14
2797.7
2791.77
2785.41
2778.63
2771.55
2764.26
2756.85
2749.44
2742.11
2734.89
2727.8
2720.83
2713.92
2707.05
2700.17
2693.28
2686.36
2679.41
2672.4
2665.33
2658.23
2651.11
2644.03
2637.02
2630.13
2623.41
2616.89
2610.64
2604.73
2599.22
2594.14
2589.53
2585.42
2581.85
2578.82
2576.32
2574.28
2572.65
2571.41
2570.51
2569.91
2569.58
2569.44
2569.46
2569.66
2569.88
2570.19
2570.71
2570.89
2571.53
2571.69
2571.75
2571.76
2571.6
2571.42
2571.28
2571.13
2570.94
2570.68
2570.27
2569.7
2568.92
2568.05
2567.1
2566.07
2565.02
2563.98
2562.98
2562.06
2561.18
2560.32
2559.44
2558.53
2557.58
2556.74
2555.63
2554.73
2553.82
2552.95
2552.13
2551.37
2550.68
2550.04
2549.47
2548.95
2548.47
2548.01
2547.58
2547.19
2546.82
2546.49
2546.19
2545.95
2545.56
2545.32
2545.11
2544.91
2544.72
2544.56
2544.4
2544.28
2544.16
2544.08
2544
2543.96
2544.02
2544.21
2543.74
4338.56
2828.03
2841.01
2847.01
2841.45
2836.27
2829.79
2825.52
2821.13
2816.99
2812.73
2808.18
2803.1
2797.67
2791.74
2785.37
2778.59
2771.49
2764.17
2756.75
2749.31
2741.94
2734.69
2727.57
2720.56
2713.61
2706.69
2699.76
2692.81
2685.82
2678.8
2671.71
2664.56
2657.36
2650.13
2642.93
2635.79
2628.75
2621.87
2615.18
2608.75
2602.65
2596.95
2591.67
2586.86
2582.54
2578.76
2575.53
2572.83
2570.6
2568.81
2567.41
2566.36
2565.62
2565.16
2564.9
2564.82
2564.89
2564.99
2565.14
2565.55
2565.62
2566.11
2566.13
2566.06
2565.93
2565.65
2565.33
2565.04
2564.7
2564.3
2563.86
2563.32
2562.61
2561.68
2560.66
2559.51
2558.27
2556.97
2555.65
2554.35
2553.13
2551.96
2550.83
2549.7
2548.55
2547.37
2546.33
2544.96
2543.83
2542.68
2541.57
2540.5
2539.5
2538.55
2537.67
2536.84
2536.09
2535.38
2534.69
2534.05
2533.47
2532.9
2532.4
2531.93
2531.53
2530.98
2530.6
2530.24
2529.9
2529.58
2529.29
2529.02
2528.79
2528.55
2528.37
2528.19
2528.06
2528.04
2528.23
2527.48
4339.41
2827.36
2840.53
2846.6
2841.12
2836.02
2829.59
2825.37
2821.01
2816.9
2812.67
2808.13
2803.07
2797.64
2791.71
2785.34
2778.55
2771.43
2764.09
2756.65
2749.18
2741.79
2734.5
2727.35
2720.29
2713.3
2706.33
2699.35
2692.34
2685.29
2678.2
2671.03
2663.79
2656.49
2649.16
2641.83
2634.55
2627.37
2620.33
2613.47
2606.86
2600.57
2594.67
2589.19
2584.17
2579.64
2575.65
2572.21
2569.31
2566.9
2564.93
2563.36
2562.16
2561.29
2560.7
2560.32
2560.13
2560.07
2560.08
2560.1
2560.39
2560.33
2560.7
2560.6
2560.43
2560.2
2559.8
2559.4
2558.99
2558.47
2557.85
2557.18
2556.44
2555.56
2554.5
2553.33
2552
2550.56
2549.02
2547.47
2545.92
2544.42
2542.95
2541.54
2540.14
2538.74
2537.33
2536.06
2534.45
2533.08
2531.69
2530.33
2529.01
2527.75
2526.54
2525.39
2524.31
2523.28
2522.32
2521.38
2520.51
2519.69
2518.9
2518.19
2517.51
2516.92
2516.18
2515.61
2515.08
2514.56
2514.08
2513.65
2513.23
2512.86
2512.49
2512.18
2511.89
2511.67
2511.55
2511.71
2510.68
4340.31
2826.67
2840.04
2846.18
2840.79
2835.77
2829.39
2825.21
2820.89
2816.81
2812.6
2808.08
2803.03
2797.61
2791.68
2785.3
2778.5
2771.37
2764.01
2756.54
2749.05
2741.63
2734.31
2727.12
2720.03
2713
2705.98
2698.95
2691.88
2684.77
2677.6
2670.35
2663.03
2655.63
2648.19
2640.74
2633.33
2626
2618.8
2611.77
2604.97
2598.49
2592.38
2586.7
2581.48
2576.74
2572.53
2568.87
2565.77
2563.17
2561.02
2559.29
2557.94
2556.92
2556.2
2555.71
2555.41
2555.23
2555.15
2555.07
2555.25
2555.06
2555.29
2555.05
2554.75
2554.42
2553.96
2553.51
2553
2552.34
2551.53
2550.64
2549.7
2548.62
2547.43
2546.1
2544.6
2542.98
2541.23
2539.46
2537.67
2535.9
2534.15
2532.45
2530.77
2529.11
2527.46
2525.94
2524.08
2522.45
2520.81
2519.19
2517.61
2516.09
2514.62
2513.21
2511.86
2510.56
2509.35
2508.15
2507.02
2505.96
2504.93
2503.98
2503.07
2502.27
2501.32
2500.52
2499.78