/*--------------------------------*- C++ -*----------------------------------*\
| =========                 |                                                 |
| \\      /  F ield         | OpenFOAM: The Open Source CFD Toolbox           |
|  \\    /   O peration     | Version:  2412                                  |
|   \\  /    A nd           | Website:  www.openfoam.com                      |
|    \\/     M anipulation  |                                                 |
\*---------------------------------------------------------------------------*/
FoamFile
{
    version     2.0;
    format      ascii;
    arch        "LSB;label=32;scalar=64";
    class       volScalarField;
    location    "0.103";
    object      T;
}
// * * * * * * * * * * * * * * * * * * * * * * * * * * * * * * * * * * * * * //

dimensions      [0 0 0 1 0 0 0];

internalField   nonuniform List<scalar> 
9763
(
228.074
229.582
228.006
229.651
227.934
229.606
227.855
229.527
227.779
229.409
227.703
229.28
227.633
229.15
227.568
229.028
227.51
228.913
227.456
228.805
227.407
228.702
227.36
228.605
227.315
228.509
227.27
228.416
227.225
228.323
227.179
228.231
227.132
228.137
227.083
228.042
227.03
227.943
226.973
227.839
226.914
227.731
226.851
227.617
226.785
227.498
226.718
227.374
226.65
227.245
226.582
227.113
226.515
226.979
226.45
226.843
226.385
226.707
226.32
226.573
226.251
226.441
226.175
226.311
226.087
226.185
225.982
226.058
225.866
225.924
225.746
225.776
225.63
225.612
225.52
225.436
225.415
225.253
225.308
225.071
224.892
224.717
224.543
248.285
220.966
222.927
224.119
224.285
224.229
224.076
223.954
223.825
223.707
223.582
223.457
223.327
223.195
223.056
222.911
222.761
222.606
222.45
222.293
222.137
221.985
221.836
221.692
221.552
221.416
221.282
221.15
221.021
220.895
220.772
220.651
220.534
220.423
220.317
220.219
220.127
220.044
219.97
219.905
219.852
219.811
219.781
219.763
219.755
219.757
219.771
219.796
219.829
219.871
219.92
219.976
220.039
220.109
220.187
220.274
220.365
220.467
220.577
220.698
220.834
220.986
221.148
221.321
221.501
221.686
221.872
222.055
222.238
222.422
222.606
222.794
222.984
223.177
223.373
223.569
223.763
223.955
224.142
224.327
224.509
224.689
224.866
225.042
225.211
225.375
225.529
225.68
225.827
225.975
226.128
226.281
226.435
226.587
226.737
226.88
227.016
227.142
227.258
227.362
227.457
227.542
227.62
227.691
227.76
227.826
227.897
227.971
228.05
228.133
228.22
228.319
228.42
228.519
228.603
228.662
228.693
228.698
228.678
228.681
228.502
248.181
220.98
222.912
224.104
224.276
224.222
224.071
223.95
223.823
223.705
223.58
223.456
223.326
223.194
223.055
222.911
222.76
222.604
222.447
222.289
222.132
221.979
221.829
221.684
221.543
221.405
221.27
221.137
221.007
220.879
220.754
220.632
220.513
220.399
220.291
220.19
220.096
220.009
219.932
219.864
219.808
219.763
219.73
219.709
219.698
219.698
219.708
219.729
219.76
219.799
219.845
219.899
219.96
220.027
220.102
220.185
220.274
220.373
220.482
220.601
220.735
220.885
221.046
221.216
221.393
221.575
221.758
221.939
222.12
222.301
222.483
222.667
222.853
223.041
223.23
223.42
223.609
223.797
223.984
224.17
224.354
224.533
224.707
224.876
225.036
225.193
225.345
225.497
225.648
225.798
225.951
226.103
226.255
226.406
226.553
226.693
226.823
226.941
227.048
227.141
227.225
227.298
227.363
227.424
227.483
227.542
227.607
227.676
227.757
227.845
227.94
228.05
228.17
228.295
228.414
228.519
228.602
228.661
228.698
228.72
228.727
248.137
220.975
222.903
224.096
224.27
224.218
224.067
223.947
223.82
223.703
223.579
223.455
223.325
223.194
223.055
222.91
222.758
222.603
222.444
222.285
222.128
221.973
221.822
221.676
221.534
221.395
221.258
221.124
220.992
220.863
220.736
220.612
220.491
220.374
220.264
220.16
220.063
219.974
219.893
219.822
219.762
219.714
219.678
219.653
219.639
219.635
219.642
219.66
219.687
219.723
219.767
219.818
219.876
219.941
220.013
220.093
220.179
220.275
220.38
220.496
220.627
220.773
220.931
221.098
221.272
221.451
221.631
221.808
221.985
222.162
222.34
222.52
222.701
222.883
223.066
223.248
223.428
223.607
223.785
223.964
224.143
224.319
224.491
224.656
224.812
224.963
225.106
225.249
225.389
225.53
225.675
225.818
225.963
226.106
226.246
226.378
226.501
226.612
226.713
226.8
226.878
226.945
227.006
227.063
227.116
227.171
227.23
227.293
227.37
227.453
227.543
227.652
227.771
227.898
228.019
228.126
228.211
228.274
228.319
228.351
228.376
248.138
220.966
222.894
224.089
224.264
224.213
224.063
223.944
223.818
223.701
223.578
223.454
223.325
223.193
223.054
222.909
222.757
222.601
222.442
222.282
222.123
221.968
221.816
221.669
221.525
221.385
221.247
221.112
220.978
220.848
220.719
220.593
220.47
220.351
220.238
220.132
220.032
219.939
219.856
219.781
219.718
219.666
219.627
219.598
219.582
219.575
219.578
219.593
219.617
219.65
219.691
219.739
219.795
219.856
219.926
220.002
220.086
220.178
220.281
220.394
220.522
220.664
220.82
220.983
221.153
221.329
221.505
221.678
221.852
222.024
222.196
222.371
222.548
222.725
222.903
223.078
223.25
223.421
223.592
223.764
223.937
224.108
224.274
224.433
224.583
224.724
224.857
224.987
225.113
225.241
225.373
225.505
225.639
225.772
225.902
226.024
226.138
226.24
226.332
226.412
226.483
226.546
226.602
226.655
226.705
226.76
226.816
226.879
226.953
227.036
227.129
227.239
227.364
227.495
227.622
227.734
227.824
227.891
227.939
227.975
227.999
248.115
220.958
222.886
224.081
224.258
224.208
224.06
223.941
223.816
223.699
223.576
223.453
223.324
223.193
223.054
222.908
222.756
222.599
222.439
222.279
222.119
221.963
221.81
221.662
221.517
221.376
221.237
221.1
220.965
220.833
220.703
220.575
220.45
220.329
220.213
220.104
220.002
219.906
219.819
219.742
219.675
219.62
219.577
219.545
219.525
219.516
219.516
219.526
219.548
219.578
219.616
219.662
219.714
219.773
219.84
219.913
219.994
220.083
220.183
220.293
220.418
220.556
220.707
220.867
221.034
221.206
221.379
221.548
221.719
221.886
222.054
222.224
222.396
222.568
222.741
222.911
223.079
223.244
223.409
223.573
223.738
223.901
224.06
224.211
224.354
224.489
224.614
224.737
224.855
224.975
225.098
225.222
225.348
225.473
225.594
225.707
225.812
225.906
225.989
226.061
226.124
226.178
226.227
226.272
226.316
226.363
226.412
226.469
226.536
226.612
226.701
226.808
226.931
227.062
227.19
227.304
227.396
227.463
227.51
227.543
227.565
248.111
220.95
222.877
224.074
224.252
224.203
224.056
223.938
223.814
223.697
223.575
223.452
223.323
223.192
223.053
222.908
222.755
222.597
222.437
222.276
222.115
221.958
221.804
221.655
221.509
221.367
221.226
221.088
220.952
220.819
220.687
220.557
220.43
220.307
220.189
220.077
219.972
219.874
219.784
219.703
219.633
219.574
219.528
219.493
219.469
219.457
219.454
219.461
219.48
219.507
219.543
219.585
219.635
219.691
219.755
219.826
219.903
219.99
220.086
220.194
220.315
220.449
220.597
220.754
220.916
221.084
221.253
221.419
221.586
221.75
221.913
222.078
222.243
222.408
222.575
222.741
222.905
223.068
223.229
223.389
223.549
223.705
223.858
224.003
224.139
224.266
224.384
224.498
224.609
224.72
224.836
224.953
225.071
225.189
225.303
225.411
225.509
225.597
225.674
225.74
225.798
225.847
225.891
225.931
225.971
226.012
226.055
226.108
226.167
226.235
226.319
226.422
226.54
226.667
226.793
226.905
226.995
227.062
227.107
227.13
227.13
248.094
220.941
222.868
224.066
224.246
224.198
224.052
223.935
223.811
223.695
223.574
223.451
223.323
223.192
223.053
222.907
222.754
222.596
222.435
222.272
222.111
221.953
221.798
221.648
221.502
221.358
221.216
221.077
220.94
220.804
220.671
220.539
220.41
220.285
220.164
220.05
219.942
219.841
219.748
219.664
219.59
219.528
219.478
219.439
219.413
219.397
219.392
219.395
219.411
219.435
219.467
219.507
219.554
219.608
219.669
219.736
219.811
219.894
219.987
220.091
220.209
220.339
220.484
220.637
220.795
220.958
221.122
221.285
221.449
221.61
221.77
221.93
222.09
222.249
222.41
222.569
222.727
222.884
223.041
223.197
223.352
223.505
223.653
223.793
223.924
224.046
224.161
224.27
224.377
224.485
224.597
224.71
224.824
224.938
225.048
225.151
225.246
225.329
225.403
225.465
225.52
225.566
225.607
225.644
225.682
225.719
225.76
225.81
225.865
225.929
226.011
226.111
226.227
226.353
226.477
226.59
226.68
226.744
226.788
226.821
226.842
248.082
220.931
222.859
224.058
224.24
224.193
224.048
223.932
223.809
223.694
223.573
223.45
223.322
223.191
223.052
222.906
222.753
222.594
222.432
222.269
222.107
221.948
221.793
221.641
221.494
221.349
221.206
221.065
220.927
220.79
220.655
220.521
220.39
220.262
220.14
220.022
219.912
219.808
219.711
219.624
219.547
219.481
219.427
219.385
219.355
219.337
219.328
219.329
219.34
219.362
219.391
219.427
219.472
219.523
219.581
219.645
219.717
219.797
219.886
219.987
220.101
220.226
220.368
220.518
220.672
220.831
220.99
221.148
221.308
221.465
221.622
221.778
221.933
222.086
222.238
222.39
222.541
222.692
222.843
222.996
223.148
223.297
223.441
223.576
223.703
223.819
223.929
224.032
224.134
224.237
224.345
224.453
224.564
224.674
224.781
224.881
224.972
225.054
225.125
225.186
225.239
225.283
225.323
225.359
225.396
225.432
225.472
225.518
225.571
225.634
225.714
225.812
225.925
226.048
226.171
226.283
226.373
226.435
226.473
226.502
226.535
248.068
220.921
222.85
224.05
224.234
224.188
224.044
223.929
223.807
223.692
223.571
223.45
223.322
223.191
223.052
222.906
222.752
222.593
222.43
222.266
222.103
221.943
221.787
221.634
221.486
221.34
221.196
221.054
220.914
220.775
220.638
220.503
220.37
220.24
220.114
219.995
219.881
219.774
219.674
219.583
219.503
219.433
219.376
219.33
219.296
219.274
219.263
219.26
219.268
219.286
219.312
219.345
219.386
219.434
219.489
219.551
219.619
219.696
219.781
219.878
219.988
220.109
220.247
220.392
220.543
220.698
220.853
221.006
221.162
221.315
221.468
221.62
221.771
221.919
222.066
222.209
222.351
222.493
222.636
222.781
222.929
223.074
223.215
223.347
223.47
223.583
223.689
223.787
223.886
223.985
224.088
224.193
224.3
224.405
224.507
224.602
224.688
224.764
224.831
224.887
224.935
224.975
225.011
225.043
225.075
225.106
225.142
225.181
225.227
225.286
225.36
225.452
225.558
225.675
225.793
225.902
225.991
226.053
226.088
226.104
226.097
248.056
220.913
222.84
224.041
224.227
224.183
224.04
223.926
223.805
223.69
223.57
223.449
223.321
223.19
223.051
222.905
222.751
222.591
222.428
222.263
222.099
221.938
221.781
221.627
221.478
221.331
221.185
221.042
220.9
220.76
220.622
220.485
220.349
220.217
220.089
219.966
219.85
219.739
219.636
219.542
219.458
219.385
219.323
219.274
219.236
219.211
219.196
219.19
219.194
219.209
219.232
219.262
219.299
219.344
219.396
219.455
219.519
219.593
219.674
219.766
219.873
219.988
220.122
220.263
220.409
220.56
220.711
220.861
221.011
221.159
221.307
221.455
221.601
221.745
221.887
222.024
222.159
222.292
222.427
222.565
222.706
222.846
222.982
223.109
223.228
223.335
223.435
223.528
223.623
223.717
223.815
223.916
224.019
224.12
224.217
224.308
224.39
224.462
224.524
224.577
224.622
224.658
224.691
224.719
224.748
224.776
224.808
224.844
224.886
224.942
225.012
225.101
225.204
225.318
225.434
225.542
225.63
225.692
225.727
225.741
225.738
248.043
220.903
222.83
224.033
224.221
224.178
224.036
223.922
223.802
223.688
223.569
223.448
223.32
223.19
223.051
222.904
222.75
222.589
222.425
222.26
222.095
221.933
221.775
221.621
221.47
221.321
221.175
221.03
220.887
220.746
220.605
220.466
220.329
220.194
220.063
219.938
219.818
219.705
219.598
219.5
219.412
219.335
219.27
219.216
219.175
219.145
219.127
219.119
219.119
219.13
219.149
219.176
219.21
219.252
219.301
219.356
219.417
219.487
219.564
219.652
219.754
219.865
219.993
220.128
220.269
220.416
220.563
220.709
220.855
220.998
221.14
221.283
221.425
221.565
221.703
221.836
221.965
222.092
222.218
222.347
222.479
222.611
222.741
222.864
222.978
223.081
223.178
223.268
223.36
223.451
223.546
223.644
223.743
223.84
223.933
224.019
224.097
224.165
224.224
224.273
224.314
224.348
224.378
224.404
224.43
224.456
224.486
224.519
224.56
224.613
224.682
224.769
224.871
224.985
225.101
225.209
225.299
225.363
225.4
225.413
225.413
248.032
220.894
222.82
224.025
224.214
224.173
224.032
223.919
223.8
223.686
223.567
223.447
223.319
223.189
223.05
222.904
222.749
222.588
222.423
222.257
222.091
221.928
221.769
221.614
221.462
221.312
221.165
221.019
220.874
220.731
220.589
220.448
220.308
220.171
220.038
219.909
219.786
219.67
219.56
219.458
219.366
219.285
219.216
219.158
219.113
219.08
219.058
219.046
219.044
219.05
219.066
219.089
219.12
219.158
219.204
219.255
219.313
219.379
219.452
219.536
219.634
219.74
219.864
219.993
220.128
220.269
220.411
220.553
220.694
220.832
220.968
221.105
221.24
221.376
221.51
221.641
221.769
221.892
222.013
222.135
222.258
222.381
222.502
222.617
222.724
222.822
222.914
223.001
223.09
223.178
223.27
223.365
223.462
223.558
223.648
223.731
223.806
223.872
223.928
223.976
224.016
224.049
224.077
224.102
224.128
224.154
224.183
224.216
224.256
224.309
224.377
224.464
224.567
224.682
224.8
224.911
225.004
225.071
225.111
225.128
225.131
248.021
220.883
222.81
224.016
224.208
224.168
224.028
223.916
223.797
223.684
223.566
223.446
223.319
223.188
223.05
222.903
222.748
222.586
222.421
222.254
222.087
221.924
221.763
221.607
221.454
221.303
221.154
221.007
220.861
220.716
220.572
220.429
220.287
220.148
220.012
219.88
219.754
219.634
219.521
219.416
219.32
219.235
219.161
219.1
219.05
219.013
218.987
218.972
218.966
218.969
218.981
219.001
219.029
219.063
219.105
219.153
219.207
219.27
219.338
219.418
219.512
219.613
219.733
219.857
219.986
220.121
220.257
220.393
220.53
220.663
220.795
220.926
221.055
221.184
221.313
221.441
221.566
221.687
221.805
221.922
222.038
222.153
222.265
222.371
222.472
222.564
222.652
222.737
222.823
222.909
222.999
223.093
223.188
223.281
223.37
223.452
223.523
223.586
223.641
223.687
223.726
223.757
223.785
223.809
223.835
223.86
223.889
223.922
223.962
224.015
224.083
224.17
224.274
224.391
224.511
224.624
224.72
224.79
224.834
224.855
224.86
248.011
220.873
222.8
224.007
224.201
224.162
224.023
223.913
223.795
223.682
223.564
223.445
223.318
223.188
223.049
222.902
222.746
222.584
222.418
222.251
222.084
221.919
221.758
221.6
221.446
221.294
221.144
220.995
220.848
220.701
220.556
220.411
220.267
220.125
219.986
219.852
219.723
219.599
219.482
219.373
219.273
219.184
219.107
219.041
218.987
218.946
218.916
218.898
218.889
218.888
218.896
218.913
218.936
218.967
219.006
219.05
219.101
219.159
219.224
219.299
219.389
219.486
219.602
219.722
219.847
219.977
220.108
220.237
220.367
220.495
220.621
220.746
220.869
220.992
221.115
221.237
221.359
221.477
221.592
221.705
221.816
221.925
222.029
222.128
222.221
222.307
222.389
222.47
222.554
222.637
222.725
222.817
222.91
223.004
223.091
223.171
223.241
223.302
223.356
223.401
223.44
223.472
223.5
223.524
223.549
223.574
223.605
223.639
223.679
223.733
223.801
223.889
223.995
224.114
224.237
224.353
224.451
224.525
224.572
224.597
224.606
248.002
220.862
222.79
223.999
224.194
224.157
224.019
223.909
223.792
223.68
223.563
223.444
223.317
223.187
223.049
222.901
222.745
222.583
222.416
222.248
222.08
221.914
221.752
221.593
221.438
221.285
221.134
220.984
220.835
220.687
220.539
220.392
220.246
220.102
219.96
219.823
219.691
219.564
219.443
219.33
219.227
219.133
219.051
218.981
218.924
218.878
218.845
218.822
218.81
218.806
218.81
218.823
218.843
218.87
218.905
218.946
218.993
219.048
219.109
219.179
219.264
219.356
219.468
219.587
219.71
219.837
219.962
220.086
220.208
220.328
220.448
220.567
220.684
220.801
220.917
221.032
221.147
221.259
221.37
221.48
221.588
221.694
221.794
221.888
221.975
222.056
222.133
222.209
222.289
222.37
222.455
222.545
222.638
222.73
222.816
222.893
222.961
223.021
223.073
223.118
223.156
223.188
223.216
223.241
223.265
223.29
223.322
223.356
223.397
223.45
223.519
223.608
223.714
223.835
223.96
224.079
224.179
224.255
224.306
224.334
224.347
247.994
220.851
222.78
223.99
224.187
224.151
224.015
223.906
223.79
223.678
223.561
223.442
223.316
223.187
223.048
222.901
222.744
222.581
222.414
222.245
222.076
221.909
221.746
221.587
221.431
221.276
221.124
220.972
220.822
220.672
220.523
220.374
220.226
220.079
219.935
219.794
219.659
219.529
219.404
219.288
219.18
219.083
218.996
218.922
218.86
218.81
218.773
218.746
218.73
218.723
218.723
218.732
218.749
218.773
218.804
218.842
218.885
218.936
218.993
219.059
219.14
219.227
219.335
219.451
219.571
219.696
219.818
219.936
220.05
220.162
220.274
220.387
220.499
220.61
220.72
220.827
220.933
221.037
221.142
221.248
221.354
221.459
221.557
221.647
221.729
221.805
221.876
221.947
222.023
222.099
222.182
222.27
222.362
222.453
222.537
222.613
222.679
222.738
222.789
222.833
222.871
222.904
222.932
222.958
222.983
223.008
223.04
223.075
223.115
223.169
223.238
223.328
223.436
223.558
223.686
223.807
223.91
223.988
224.04
224.071
224.086
247.988
220.839
222.769
223.981
224.18
224.146
224.01
223.902
223.787
223.676
223.56
223.441
223.316
223.186
223.047
222.9
222.743
222.58
222.412
222.242
222.072
221.905
221.741
221.58
221.423
221.268
221.114
220.961
220.809
220.658
220.507
220.356
220.205
220.056
219.909
219.766
219.627
219.493
219.366
219.245
219.133
219.031
218.941
218.862
218.796
218.742
218.7
218.669
218.65
218.639
218.636
218.641
218.654
218.675
218.702
218.736
218.776
218.824
218.877
218.938
219.015
219.097
219.201
219.312
219.428
219.549
219.667
219.781
219.891
219.996
220.101
220.206
220.312
220.418
220.522
220.623
220.722
220.818
220.915
221.015
221.117
221.219
221.315
221.403
221.483
221.554
221.622
221.688
221.76
221.831
221.911
221.999
222.089
222.177
222.259
222.333
222.397
222.454
222.503
222.547
222.584
222.617
222.645
222.671
222.696
222.722
222.753
222.787
222.828
222.881
222.951
223.04
223.149
223.273
223.402
223.525
223.63
223.71
223.763
223.795
223.812
247.979
220.827
222.759
223.972
224.173
224.141
224.006
223.899
223.785
223.674
223.559
223.44
223.315
223.185
223.047
222.899
222.742
222.578
222.41
222.239
222.069
221.9
221.735
221.574
221.415
221.259
221.104
220.95
220.796
220.643
220.49
220.338
220.185
220.033
219.884
219.737
219.595
219.458
219.327
219.202
219.087
218.981
218.886
218.802
218.731
218.673
218.627
218.593
218.569
218.555
218.548
218.55
218.559
218.576
218.6
218.63
218.667
218.711
218.76
218.818
218.891
218.969
219.068
219.173
219.283
219.397
219.509
219.618
219.725
219.826
219.926
220.024
220.121
220.22
220.319
220.415
220.51
220.602
220.694
220.788
220.884
220.981
221.073
221.157
221.233
221.301
221.365
221.427
221.493
221.561
221.639
221.724
221.812
221.897
221.977
222.048
222.111
222.166
222.214
222.256
222.293
222.325
222.354
222.38
222.405
222.431
222.461
222.495
222.536
222.589
222.659
222.749
222.858
222.982
223.113
223.239
223.346
223.428
223.483
223.516
223.533
247.98
220.815
222.748
223.963
224.166
224.135
224.002
223.896
223.782
223.672
223.557
223.439
223.314
223.185
223.046
222.898
222.741
222.577
222.407
222.236
222.065
221.896
221.73
221.568
221.408
221.251
221.094
220.939
220.784
220.629
220.474
220.32
220.165
220.011
219.858
219.709
219.564
219.423
219.288
219.16
219.04
218.929
218.83
218.742
218.667
218.604
218.553
218.515
218.487
218.469
218.46
218.457
218.462
218.476
218.496
218.523
218.557
218.597
218.643
218.696
218.766
218.84
218.935
219.035
219.138
219.244
219.348
219.451
219.553
219.652
219.748
219.839
219.929
220.019
220.111
220.205
220.298
220.389
220.478
220.568
220.658
220.748
220.833
220.912
220.982
221.046
221.106
221.165
221.228
221.292
221.367
221.45
221.535
221.617
221.694
221.763
221.823
221.876
221.922
221.962
221.998
222.029
222.057
222.083
222.107
222.134
222.162
222.194
222.235
222.288
222.357
222.446
222.554
222.679
222.812
222.939
223.049
223.132
223.187
223.22
223.237
247.969
220.802
222.737
223.954
224.159
224.129
223.997
223.892
223.78
223.67
223.556
223.438
223.313
223.184
223.046
222.898
222.74
222.575
222.405
222.233
222.062
221.892
221.725
221.561
221.401
221.242
221.085
220.928
220.771
220.615
220.459
220.302
220.145
219.988
219.833
219.681
219.532
219.388
219.249
219.117
218.993
218.878
218.774
218.682
218.602
218.534
218.479
218.437
218.405
218.383
218.37
218.365
218.366
218.375
218.392
218.416
218.446
218.483
218.525
218.575
218.641
218.711
218.803
218.899
218.996
219.094
219.189
219.284
219.381
219.477
219.57
219.658
219.74
219.821
219.905
219.993
220.084
220.174
220.263
220.349
220.433
220.516
220.593
220.665
220.729
220.788
220.844
220.899
220.958
221.02
221.092
221.171
221.253
221.333
221.406
221.472
221.53
221.581
221.625
221.664
221.698
221.729
221.756
221.781
221.804
221.83
221.857
221.888
221.928
221.98
222.048
222.136
222.243
222.368
222.502
222.632
222.744
222.828
222.884
222.917
222.934
247.971
220.789
222.726
223.945
224.152
224.124
223.993
223.889
223.777
223.668
223.554
223.437
223.313
223.184
223.045
222.897
222.739
222.574
222.403
222.231
222.058
221.887
221.72
221.555
221.394
221.234
221.075
220.917
220.759
220.601
220.443
220.284
220.125
219.966
219.808
219.653
219.501
219.353
219.211
219.074
218.946
218.827
218.719
218.621
218.537
218.464
218.405
218.358
218.322
218.297
218.28
218.271
218.269
218.274
218.287
218.307
218.334
218.367
218.406
218.452
218.514
218.582
218.67
218.763
218.859
218.953
219.042
219.129
219.217
219.306
219.394
219.477
219.555
219.631
219.708
219.789
219.873
219.958
220.043
220.125
220.204
220.281
220.352
220.417
220.476
220.529
220.58
220.631
220.687
220.747
220.816
220.892
220.971
221.047
221.117
221.18
221.234
221.282
221.324
221.362
221.394
221.422
221.448
221.472
221.494
221.517
221.542
221.572
221.611
221.661
221.727
221.813
221.918
222.043
222.177
222.309
222.423
222.509
222.565
222.597
222.613
247.964
220.776
222.715
223.935
224.145
224.118
223.988
223.885
223.774
223.666
223.553
223.436
223.312
223.183
223.044
222.896
222.738
222.572
222.401
222.228
222.055
221.883
221.715
221.549
221.387
221.226
221.066
220.906
220.747
220.587
220.427
220.267
220.105
219.944
219.783
219.625
219.47
219.318
219.172
219.032
218.899
218.776
218.663
218.561
218.471
218.394
218.33
218.279
218.239
218.209
218.189
218.176
218.171
218.172
218.182
218.198
218.221
218.252
218.287
218.329
218.387
218.451
218.535
218.626
218.722
218.816
218.902
218.984
219.063
219.141
219.22
219.298
219.373
219.445
219.517
219.59
219.665
219.741
219.818
219.893
219.968
220.041
220.108
220.169
220.222
220.269
220.314
220.361
220.411
220.469
220.535
220.607
220.683
220.756
220.822
220.881
220.932
220.978
221.017
221.053
221.083
221.111
221.135
221.157
221.177
221.199
221.221
221.249
221.286
221.335
221.398
221.481
221.585
221.708
221.843
221.976
222.092
222.18
222.236
222.267
222.282
247.966
220.763
222.704
223.926
224.138
224.113
223.984
223.882
223.772
223.664
223.551
223.435
223.311
223.182
223.044
222.895
222.737
222.571
222.399
222.225
222.051
221.879
221.71
221.543
221.38
221.218
221.057
220.896
220.735
220.574
220.412
220.249
220.086
219.922
219.759
219.597
219.439
219.284
219.134
218.989
218.852
218.725
218.607
218.5
218.406
218.324
218.255
218.199
218.155
218.121
218.097
218.081
218.072
218.07
218.075
218.088
218.107
218.134
218.166
218.206
218.259
218.318
218.398
218.485
218.58
218.675
218.761
218.839
218.911
218.98
219.05
219.121
219.192
219.263
219.331
219.395
219.459
219.522
219.587
219.655
219.725
219.796
219.862
219.92
219.969
220.011
220.05
220.092
220.137
220.191
220.252
220.321
220.392
220.461
220.524
220.579
220.626
220.668
220.705
220.738
220.766
220.792
220.814
220.834
220.853
220.872
220.891
220.917
220.951
220.998
221.059
221.138
221.239
221.36
221.494
221.63
221.748
221.837
221.892
221.922
221.936
247.966
220.75
222.693
223.917
224.13
224.107
223.979
223.878
223.769
223.662
223.55
223.434
223.31
223.182
223.043
222.895
222.736
222.569
222.397
222.223
222.048
221.875
221.705
221.537
221.373
221.21
221.048
220.885
220.723
220.56
220.397
220.232
220.066
219.9
219.734
219.57
219.408
219.249
219.095
218.947
218.806
218.673
218.551
218.44
218.34
218.253
218.179
218.119
218.07
218.032
218.004
217.984
217.972
217.967
217.968
217.977
217.993
218.017
218.045
218.082
218.131
218.185
218.26
218.341
218.43
218.521
218.605
218.683
218.754
218.82
218.883
218.949
219.015
219.082
219.145
219.201
219.253
219.303
219.356
219.414
219.48
219.548
219.613
219.669
219.716
219.754
219.787
219.823
219.861
219.91
219.967
220.032
220.099
220.163
220.221
220.271
220.314
220.352
220.386
220.416
220.443
220.466
220.486
220.504
220.521
220.538
220.554
220.577
220.61
220.653
220.712
220.788
220.885
221.003
221.137
221.273
221.395
221.485
221.54
221.567
221.579
247.966
220.737
222.681
223.907
224.123
224.101
223.974
223.874
223.766
223.659
223.548
223.433
223.309
223.181
223.043
222.894
222.735
222.568
222.395
222.22
222.045
221.871
221.7
221.532
221.366
221.202
221.039
220.875
220.711
220.547
220.381
220.215
220.047
219.878
219.71
219.542
219.377
219.215
219.057
218.904
218.759
218.622
218.495
218.379
218.274
218.182
218.103
218.038
217.985
217.943
217.911
217.887
217.871
217.862
217.86
217.865
217.878
217.898
217.923
217.957
218.002
218.051
218.123
218.197
218.277
218.358
218.435
218.51
218.582
218.649
218.714
218.777
218.839
218.899
218.954
219.003
219.046
219.088
219.132
219.182
219.241
219.305
219.366
219.42
219.463
219.496
219.525
219.555
219.586
219.63
219.682
219.742
219.803
219.862
219.915
219.96
219.998
220.032
220.062
220.089
220.113
220.134
220.151
220.167
220.181
220.196
220.209
220.229
220.259
220.3
220.355
220.428
220.522
220.636
220.768
220.905
221.029
221.123
221.178
221.202
221.209
247.968
220.724
222.669
223.897
224.115
224.095
223.97
223.871
223.764
223.657
223.546
223.431
223.308
223.18
223.042
222.893
222.734
222.566
222.393
222.218
222.041
221.867
221.695
221.526
221.359
221.194
221.03
220.865
220.699
220.533
220.366
220.198
220.028
219.857
219.686
219.515
219.346
219.181
219.019
218.862
218.712
218.57
218.439
218.318
218.208
218.111
218.027
217.957
217.899
217.852
217.816
217.789
217.77
217.757
217.752
217.754
217.762
217.78
217.801
217.83
217.872
217.918
217.988
218.056
218.126
218.195
218.261
218.329
218.4
218.472
218.541
218.605
218.661
218.712
218.758
218.801
218.841
218.879
218.918
218.963
219.014
219.069
219.124
219.172
219.21
219.239
219.262
219.288
219.312
219.35
219.396
219.45
219.506
219.559
219.605
219.644
219.677
219.706
219.732
219.755
219.775
219.794
219.809
219.822
219.833
219.845
219.855
219.873
219.9
219.938
219.99
220.06
220.15
220.261
220.391
220.527
220.654
220.751
220.81
220.835
220.834
247.969
220.71
222.657
223.888
224.108
224.089
223.965
223.867
223.761
223.655
223.545
223.43
223.308
223.18
223.041
222.892
222.733
222.565
222.391
222.215
222.038
221.863
221.69
221.52
221.353
221.187
221.021
220.855
220.688
220.52
220.352
220.181
220.009
219.835
219.661
219.488
219.316
219.146
218.981
218.82
218.665
218.519
218.382
218.256
218.141
218.039
217.95
217.875
217.812
217.761
217.721
217.69
217.667
217.651
217.642
217.641
217.647
217.66
217.678
217.703
217.742
217.784
217.852
217.918
217.983
218.043
218.098
218.155
218.221
218.293
218.364
218.428
218.48
218.524
218.562
218.601
218.64
218.679
218.717
218.756
218.798
218.843
218.888
218.927
218.958
218.981
218.999
219.021
219.039
219.071
219.112
219.161
219.211
219.257
219.297
219.329
219.356
219.378
219.398
219.416
219.433
219.448
219.459
219.469
219.476
219.485
219.492
219.507
219.531
219.566
219.614
219.68
219.766
219.873
219.999
220.134
220.261
220.361
220.423
220.451
220.444
247.971
220.696
222.645
223.878
224.1
224.083
223.96
223.863
223.758
223.653
223.543
223.429
223.307
223.179
223.041
222.892
222.732
222.563
222.389
222.213
222.035
221.859
221.686
221.515
221.346
221.179
221.012
220.845
220.677
220.507
220.337
220.164
219.99
219.814
219.637
219.461
219.285
219.112
218.943
218.777
218.618
218.467
218.326
218.195
218.075
217.967
217.873
217.792
217.725
217.669
217.625
217.59
217.563
217.543
217.531
217.527
217.53
217.54
217.555
217.576
217.611
217.651
217.716
217.782
217.847
217.906
217.956
218.006
218.062
218.125
218.19
218.249
218.298
218.338
218.373
218.41
218.449
218.488
218.524
218.558
218.591
218.625
218.657
218.686
218.709
218.724
218.737
218.753
218.765
218.792
218.828
218.87
218.914
218.954
218.986
219.012
219.032
219.048
219.062
219.074
219.086
219.097
219.104
219.109
219.113
219.118
219.12
219.132
219.153
219.184
219.229
219.291
219.372
219.476
219.598
219.731
219.858
219.96
220.024
220.056
220.043
247.974
220.682
222.633
223.868
224.092
224.077
223.955
223.86
223.755
223.651
223.542
223.428
223.306
223.178
223.04
222.891
222.731
222.562
222.387
222.21
222.032
221.855
221.681
221.509
221.34
221.172
221.004
220.835
220.665
220.494
220.322
220.148
219.971
219.793
219.614
219.434
219.255
219.078
218.905
218.735
218.572
218.416
218.269
218.133
218.008
217.895
217.795
217.709
217.637
217.577
217.527
217.488
217.458
217.435
217.419
217.412
217.413
217.42
217.432
217.449
217.481
217.516
217.579
217.643
217.713
217.777
217.831
217.879
217.926
217.975
218.025
218.074
218.118
218.158
218.195
218.232
218.268
218.303
218.333
218.361
218.385
218.408
218.431
218.45
218.464
218.472
218.477
218.488
218.494
218.516
218.547
218.583
218.62
218.652
218.678
218.697
218.709
218.718
218.724
218.73
218.737
218.743
218.745
218.745
218.743
218.743
218.741
218.749
218.766
218.792
218.832
218.889
218.965
219.064
219.182
219.312
219.438
219.542
219.609
219.644
219.625
247.977
220.668
222.621
223.857
224.084
224.071
223.95
223.856
223.753
223.649
223.54
223.427
223.305
223.177
223.039
222.89
222.73
222.561
222.386
222.208
222.029
221.852
221.676
221.504
221.334
221.164
220.995
220.825
220.654
220.482
220.308
220.131
219.953
219.772
219.59
219.407
219.225
219.045
218.867
218.693
218.525
218.364
218.212
218.071
217.941
217.822
217.717
217.626
217.548
217.483
217.429
217.386
217.352
217.325
217.307
217.296
217.294
217.298
217.308
217.322
217.351
217.382
217.439
217.5
217.571
217.642
217.704
217.757
217.8
217.835
217.869
217.905
217.945
217.986
218.027
218.064
218.095
218.121
218.141
218.158
218.174
218.19
218.205
218.217
218.224
218.225
218.223
218.226
218.226
218.242
218.267
218.297
218.327