/*--------------------------------*- C++ -*----------------------------------*\
| =========                 |                                                 |
| \\      /  F ield         | OpenFOAM: The Open Source CFD Toolbox           |
|  \\    /   O peration     | Version:  2412                                  |
|   \\  /    A nd           | Website:  www.openfoam.com                      |
|    \\/     M anipulation  |                                                 |
\*---------------------------------------------------------------------------*/
FoamFile
{
    version     2.0;
    format      ascii;
    arch        "LSB;label=32;scalar=64";
    class       volScalarField;
    location    "0.101";
    object      p;
}
// * * * * * * * * * * * * * * * * * * * * * * * * * * * * * * * * * * * * * //

dimensions      [1 -1 -2 0 0 0 0];

internalField   nonuniform List<scalar> 
78650
(
3640.82
2952.8
2900.87
2885.06
2870.94
2860.35
2851.54
2844.05
2837.21
2830.6
2824
2817.77
2812.56
2808.64
2805.89
2803.9
2802.19
2800.39
2798.13
2795.14
2791.4
2787.15
2782.72
2778.4
2774.37
2770.67
2767.24
2764.01
2761.01
2758.27
2755.8
2753.56
2751.47
2749.47
2747.54
2745.66
2743.87
2742.19
2740.63
2739.17
2737.79
2736.49
2735.25
2734.08
2732.97
2731.93
2730.95
2730.03
2729.15
2728.34
2727.6
2726.95
2726.39
2725.9
2725.48
2725.09
2724.73
2724.39
2724.07
2723.74
2723.38
2722.96
2722.47
2721.89
2721.21
2720.37
2719.35
2718.09
2716.57
2714.74
2712.54
2709.92
2706.79
2703.09
2698.75
2693.68
2687.8
2681.01
2673.21
2664.29
2654.15
2642.64
2629.62
2614.92
2598.36
2579.82
2559.17
2536.36
2511.15
2483.47
2453.02
2419.97
2383.75
2344.81
2302.3
2257.47
2209.42
2158.78
2105.39
2049.1
1989.47
1928.82
1867.11
1807.32
1752.66
1695.14
1638.82
1581.5
1523.77
1470.89
1423.92
1382.48
1344.79
1310.23
1277.56
1246.62
1218.25
1191.62
1170.09
1152.43
1117.22
3598.12
2947.89
2901.99
2886.16
2871.66
2861.02
2852.38
2845.01
2838.33
2831.91
2825.43
2819.13
2813.63
2809.33
2806.24
2804.05
2802.32
2800.67
2798.71
2796.06
2792.63
2788.59
2784.26
2779.95
2775.92
2772.24
2768.85
2765.69
2762.74
2760.06
2757.65
2755.49
2753.51
2751.64
2749.83
2748.09
2746.43
2744.88
2743.44
2742.12
2740.89
2739.74
2738.66
2737.65
2736.72
2735.86
2735.07
2734.34
2733.67
2733.07
2732.55
2732.12
2731.79
2731.54
2731.37
2731.25
2731.17
2731.13
2731.11
2731.11
2731.09
2731.05
2730.95
2730.79
2730.54
2730.19
2729.69
2728.98
2728.06
2726.87
2725.36
2723.49
2721.19
2718.37
2715
2710.98
2706.24
2700.68
2694.22
2686.75
2678.18
2668.37
2657.2
2644.49
2630.06
2613.81
2595.58
2575.3
2552.73
2527.82
2500.31
2470.17
2436.88
2400.75
2361.12
2319.08
2273.53
2225.51
2174.45
2120.12
2063.29
2005.13
1946.52
1884.14
1822.78
1763.15
1704.85
1649.32
1591.92
1535.52
1482.29
1432.09
1387.06
1347.56
1312.13
1279.8
1250.46
1221.75
1194.85
1170.85
1126.01
3555.59
2938.18
2901.69
2886.98
2872.6
2861.63
2852.98
2845.78
2839.35
2833.19
2826.9
2820.62
2814.92
2810.26
2806.78
2804.3
2802.48
2800.93
2799.22
2796.92
2793.83
2790.03
2785.83
2781.57
2777.54
2773.87
2770.52
2767.4
2764.51
2761.88
2759.54
2757.46
2755.58
2753.83
2752.17
2750.56
2749.03
2747.62
2746.32
2745.14
2744.05
2743.05
2742.13
2741.29
2740.53
2739.85
2739.26
2738.73
2738.26
2737.87
2737.57
2737.36
2737.27
2737.26
2737.34
2737.49
2737.69
2737.94
2738.24
2738.56
2738.9
2739.22
2739.51
2739.77
2739.96
2740.07
2740.08
2739.92
2739.58
2739.03
2738.2
2737.06
2735.54
2733.58
2731.14
2728.11
2724.45
2720.06
2714.86
2708.75
2701.63
2693.4
2683.91
2673.03
2660.59
2646.45
2630.45
2612.5
2592.39
2570.05
2545.23
2517.85
2487.51
2454.36
2417.88
2378.72
2335.95
2290.78
2242.31
2191.06
2137.07
2079.04
2020.18
1959.33
1896.24
1835.13
1773.76
1715.68
1660.06
1602.44
1546.63
1491.12
1436.87
1387.87
1343.92
1305.66
1273.71
1244.31
1218.38
1195.78
1147.51
3515.21
2932.26
2900.61
2886.75
2872.6
2861.57
2853.02
2846.29
2840.31
2834.49
2828.45
2822.28
2816.46
2811.46
2807.55
2804.71
2802.72
2801.2
2799.69
2797.72
2794.99
2791.5
2787.47
2783.27
2779.24
2775.57
2772.25
2769.19
2766.36
2763.79
2761.51
2759.5
2757.72
2756.09
2754.56
2753.09
2751.71
2750.43
2749.27
2748.23
2747.3
2746.45
2745.69
2745.01
2744.42
2743.92
2743.51
2743.18
2742.92
2742.74
2742.65
2742.66
2742.79
2743.03
2743.36
2743.77
2744.25
2744.79
2745.38
2746.02
2746.69
2747.37
2748.04
2748.69
2749.32
2749.88
2750.36
2750.73
2750.94
2750.99
2750.8
2750.38
2749.63
2748.48
2746.92
2744.86
2742.24
2738.98
2735
2730.22
2724.53
2717.86
2710.06
2701.03
2690.58
2678.58
2664.84
2649.28
2631.68
2612
2589.99
2565.56
2538.35
2508.38
2475.15
2439.01
2399.28
2356.91
2310.75
2261.79
2209.42
2154.16
2095.1
2034.51
1971.29
1907.13
1842.97
1777.55
1717.1
1658.78
1603.33
1550.93
1498.25
1446.4
1395.11
1345.81
1302.28
1263.91
1233.55
1209.67
1160.86
3471.58
2925.17
2898.23
2885.57
2871.89
2861.06
2852.85
2846.38
2840.89
2835.64
2830.06
2824.14
2818.3
2813
2808.62
2805.35
2803.08
2801.51
2800.13
2798.47
2796.12
2792.97
2789.17
2785.07
2781.04
2777.37
2774.07
2771.06
2768.28
2765.78
2763.55
2761.62
2759.93
2758.42
2757.02
2755.71
2754.47
2753.33
2752.32
2751.43
2750.65
2749.97
2749.36
2748.85
2748.43
2748.11
2747.89
2747.75
2747.7
2747.72
2747.85
2748.08
2748.43
2748.9
2749.48
2750.16
2750.91
2751.74
2752.63
2753.58
2754.58
2755.61
2756.65
2757.7
2758.73
2759.74
2760.7
2761.57
2762.33
2762.95
2763.39
2763.61
2763.62
2763.26
2762.56
2761.41
2759.78
2757.59
2754.77
2751.23
2746.89
2741.66
2735.43
2728.08
2719.46
2709.43
2697.81
2684.51
2669.34
2652.23
2632.96
2611.42
2587.26
2560.39
2530.36
2497.39
2460.96
2421.68
2378.73
2333.14
2283.98
2231.86
2176.9
2118.11
2057.52
1993.48
1930.71
1863.14
1794.01
1727.61
1661.51
1601.74
1547.22
1496.32
1448.6
1402.78
1357.37
1313.69
1272.6
1237.59
1173.4
3426.17
2921.91
2896.03
2884
2870.9
2860.27
2852.27
2846.06
2840.9
2836.22
2831.4
2826.04
2820.4
2814.92
2810.09
2806.3
2803.65
2801.91
2800.6
2799.18
2797.2
2794.43
2790.92
2786.97
2782.97
2779.28
2775.99
2773.02
2770.31
2767.86
2765.69
2763.83
2762.22
2760.83
2759.57
2758.4
2757.31
2756.32
2755.46
2754.73
2754.11
2753.59
2753.15
2752.8
2752.55
2752.41
2752.38
2752.43
2752.59
2752.82
2753.16
2753.6
2754.18
2754.88
2755.71
2756.64
2757.66
2758.77
2759.95
2761.21
2762.53
2763.9
2765.3
2766.73
2768.17
2769.6
2771.01
2772.37
2773.66
2774.84
2775.89
2776.75
2777.41
2777.82
2777.94
2777.68
2777.02
2775.87
2774.15
2771.83
2768.79
2764.99
2760.29
2754.62
2747.82
2739.77
2730.29
2719.27
2706.52
2691.95
2675.33
2656.55
2635.31
2611.51
2584.79
2555.27
2522.47
2486.69
2447.17
2404.56
2357.95
2308.33
2255.06
2198.5
2138.86
2076.11
2012.26
1948.41
1881.42
1815.44
1746.8
1676.59
1610.2
1545.07
1486.88
1436.39
1391.17
1350.81
1314.7
1282.37
1216.85
3378.39
2919.61
2893.98
2881.9
2869.45
2859.1
2851.29
2845.32
2840.51
2836.23
2832.03
2827.53
2822.47
2817.11
2811.96
2807.63
2804.49
2802.47
2801.11
2799.87
2798.22
2795.86
2792.7
2788.95
2785.02
2781.32
2778.02
2775.07
2772.41
2770.02
2767.92
2766.12
2764.6
2763.32
2762.19
2761.17
2760.24
2759.41
2758.7
2758.12
2757.67
2757.32
2757.05
2756.88
2756.81
2756.83
2756.99
2757.24
2757.59
2758.04
2758.59
2759.26
2760.05
2760.99
2762.06
2763.24
2764.53
2765.92
2767.39
2768.95
2770.59
2772.29
2774.05
2775.84
2777.68
2779.53
2781.39
2783.22
2785.01
2786.73
2788.35
2789.85
2791.2
2792.32
2793.19
2793.76
2793.99
2793.84
2793.2
2792.04
2790.21
2787.73
2784.45
2780.32
2775.19
2768.96
2761.44
2752.53
2742.04
2729.88
2715.85
2699.88
2681.7
2661.17
2637.89
2611.84
2582.51
2550.08
2514
2474.81
2431.71
2385.34
2334.78
2280.78
2223.12
2162.18
2097.23
2031.08
1964.28
1896.2
1832.13
1763.61
1698.84
1630.6
1563.83
1498.8
1437.72
1382.44
1336.43
1300.03
1225.91
3328.39
2916.21
2893.31
2880.86
2868.27
2857.73
2849.82
2843.99
2839.54
2835.73
2832
2828.18
2824.01
2819.21
2814.09
2809.35
2805.67
2803.24
2801.73
2800.55
2799.18
2797.22
2794.48
2791.02
2787.19
2783.5
2780.18
2777.24
2774.61
2772.27
2770.24
2768.51
2767.07
2765.88
2764.89
2764.02
2763.25
2762.57
2762.02
2761.6
2761.32
2761.14
2761.06
2761.06
2761.17
2761.38
2761.71
2762.15
2762.71
2763.36
2764.12
2765
2766.02
2767.18
2768.49
2769.93
2771.48
2773.14
2774.89
2776.75
2778.7
2780.73
2782.83
2784.98
2787.19
2789.45
2791.73
2794.02
2796.3
2798.54
2800.72
2802.81
2804.79
2806.6
2808.23
2809.61
2810.69
2811.43
2811.8
2811.77
2811.15
2809.98
2808.09
2805.46
2801.97
2797.52
2791.95
2785.14
2776.92
2767.18
2755.73
2742.46
2727.09
2709.51
2689.37
2666.6
2640.8
2612.04
2579.8
2544.33
2504.93
2462.08
2415.06
2364.61
2309.84
2251.27
2189.39
2122.74
2054.65
1982.36
1910.72
1839.69
1770.06
1705.03
1640.3
1579.17
1517.15
1459.67
1403.4
1354.22
1262.05
3275.12
2914.19
2891.79
2879.41
2866.69
2856.01
2847.99
2842.13
2837.86
2834.5
2831.37
2828.16
2824.7
2820.72
2816.03
2811.19
2807.09
2804.22
2802.43
2801.23
2800.06
2798.48
2796.2
2793.11
2789.48
2785.82
2782.48
2779.52
2776.91
2774.61
2772.62
2770.96
2769.61
2768.52
2767.65
2766.93
2766.31
2765.81
2765.42
2765.16
2765.05
2765.05
2765.16
2765.35
2765.63
2766.02
2766.53
2767.17
2767.92
2768.78
2769.75
2770.85
2772.09
2773.48
2775.02
2776.7
2778.51
2780.44
2782.47
2784.62
2786.87
2789.23
2791.66
2794.17
2796.75
2799.4
2802.1
2804.83
2807.58
2810.32
2813.03
2815.7
2818.29
2820.77
2823.1
2825.24
2827.16
2828.81
2830.11
2831.03
2831.53
2831.6
2831.02
2829.81
2827.82
2825
2821.21
2816.33
2810.2
2802.71
2793.66
2782.98
2770.45
2755.96
2739.17
2719.91
2697.77
2672.74
2644.35
2612.75
2577.33
2538.38
2495.32
2448.67
2397.63
2342.73
2283.58
2221.08
2155.34
2085.2
2009.09
1934.98
1856.62
1781.35
1705.03
1634.31
1568.29
1510.1
1458.4
1413.49
1321.91
3219.57
2910.29
2892.51
2879.04
2865.99
2854.84
2846.27
2840.02
2835.64
2832.58
2830.07
2827.59
2824.72
2821.34
2817.32
2812.78
2808.59
2805.37
2803.26
2801.92
2800.84
2799.56
2797.75
2795.13
2791.81
2788.26
2784.9
2781.92
2779.32
2777.03
2775.09
2773.48
2772.22
2771.22
2770.48
2769.89
2769.44
2769.09
2768.87
2768.78
2768.83
2769.03
2769.31
2769.69
2770.16
2770.74
2771.44
2772.27
2773.21
2774.28
2775.46
2776.76
2778.22
2779.82
2781.59
2783.51
2785.58
2787.77
2790.08
2792.51
2795.06
2797.72
2800.48
2803.33
2806.27
2809.29
2812.39
2815.54
2818.74
2821.96
2825.18
2828.39
2831.57
2834.67
2837.68
2840.55
2843.25
2845.73
2847.96
2849.89
2851.44
2852.58
2853.26
2853.44
2852.94
2851.74
2849.68
2846.69
2842.6
2837.31
2830.65
2822.52
2812.7
2801.05
2787.25
2771.16
2752.45
2731.13
2706.72
2679.26
2648.13
2613.51
2574.81
2532.22
2485
2433.68
2377.68
2317.83
2253.89
2186.37
2115.24
2043.11
1967.73
1889.69
1810.3
1728.99
1649.98
1574.89
1506.39
1449.53
1337.5
3163.12
2904.15
2892.32
2879.68
2866.39
2854.51
2845.13
2838.17
2833.26
2830.04
2827.85
2826.05
2824.01
2821.25
2817.71
2813.68
2809.69
2806.39
2804.07
2802.62
2801.59
2800.56
2799.18
2797.07
2794.14
2790.76
2787.43
2784.43
2781.82
2779.53
2777.61
2776.05
2774.86
2773.97
2773.34
2772.89
2772.59
2772.41
2772.35
2772.43
2772.67
2773.03
2773.51
2774.08
2774.74
2775.52
2776.41
2777.42
2778.56
2779.82
2781.21
2782.73
2784.39
2786.22
2788.21
2790.37
2792.68
2795.13
2797.71
2800.41
2803.25
2806.21
2809.29
2812.47
2815.76
2819.14
2822.63
2826.19
2829.82
2833.5
2837.22
2840.95
2844.68
2848.39
2852.03
2855.59
2859.03
2862.31
2865.4
2868.24
2870.8
2873.03
2874.86
2876.21
2877.05
2877.33
2876.89
2875.65
2873.47
2870.2
2865.75
2859.98
2852.73
2843.87
2833.15
2820.43
2805.36
2787.83
2767.34
2743.84
2716.76
2686.19
2651.55
2612.92
2569.73
2522.23
2469.68
2412.71
2350.7
2284.61
2214.75
2139.31
2063.37
1981.85
1904.69
1828.45
1752.98
1680.24
1607.05
1540.25
1411.44
3106.35
2895.96
2890.49
2880.71
2867.53
2854.79
2844.48
2836.64
2830.96
2827.26
2825.02
2823.68
2822.45
2820.53
2817.53
2813.78
2810.02
2806.85
2804.54
2803.07
2802.11
2801.33
2800.4
2798.85
2796.4
2793.3
2790.04
2787.03
2784.4
2782.1
2780.18
2778.67
2777.53
2776.74
2776.22
2775.91
2775.78
2775.75
2775.85
2776.11
2776.51
2777.06
2777.73
2778.49
2779.35
2780.32
2781.4
2782.61
2783.94
2785.4
2786.99
2788.71
2790.58
2792.61
2794.83
2797.21
2799.76
2802.46
2805.3
2808.27
2811.39
2814.64
2818.02
2821.52
2825.14
2828.88
2832.72
2836.68
2840.72
2844.84
2849.02
2853.24
2857.5
2861.77
2866.02
2870.23
2874.36
2878.4
2882.3
2886.01
2889.52
2892.75
2895.69
2898.27
2900.4
2902.02
2903.07
2903.5
2903.18
2901.91
2899.62
2896.13
2891.34
2885.13
2877.27
2867.58
2855.73
2841.61
2824.79
2805.27
2782.5
2756.49
2726.65
2692.97
2654.9
2612.45
2564.99
2512.95
2455.5
2393.36
2325.75
2252.93
2174.86
2092.25
2007.03
1916.95
1830.36
1746.43
1672.15
1611.13
1487.96
3053.04
2885.18
2887.19
2881.13
2868.59
2855.13
2844.13
2835.61
2829.2
2824.79
2822.12
2820.77
2819.92
2818.7
2816.49
2813.29
2809.78
2806.72
2804.49
2803.06
2802.18
2801.62
2801.14
2800.25
2798.46
2795.79
2792.68
2789.68
2787.03
2784.73
2782.79
2781.3
2780.2
2779.51
2779.09
2778.93
2778.95
2779.1
2779.35
2779.76
2780.34
2781.08
2781.93
2782.9
2783.95
2785.11
2786.39
2787.79
2789.32
2790.98
2792.76
2794.68
2796.75
2799
2801.42
2804.03
2806.81
2809.75
2812.84
2816.08
2819.46
2823
2826.67
2830.48
2834.42
2838.49
2842.69
2847.02
2851.46
2856
2860.62
2865.31
2870.07
2874.87
2879.7
2884.52
2889.31
2894.05
2898.71
2903.24
2907.62
2911.8
2915.76
2919.42
2922.75
2925.68
2928.13
2930.01
2931.25
2931.8
2931.54
2930.21
2927.79
2924.05
2918.91
2912.18
2903.6
2893
2880.02
2864.58
2846.13
2824.62
2799.46
2770.6
2737.52
2700.11
2657.76
2610.64
2558.07
2500.72
2437.41
2368.75
2295.03
2217.31
2135.23
2047.77
1958.93
1863.13
1768.13
1685.84
1532.32
3007.07
2872.41
2881.1
2878.89
2868.62
2855.52
2844.19
2835.05
2828.1
2822.96
2819.63
2817.8
2816.83
2815.94
2814.47
2812.03
2808.96
2806.09
2803.99
2802.68
2801.94
2801.52
2801.31
2800.96
2799.98
2798
2795.26
2792.34
2789.67
2787.36
2785.42
2783.93
2782.87
2782.27
2781.94
2781.91
2782.13
2782.41
2782.82
2783.4
2784.16
2785.07
2786.12
2787.28
2788.53
2789.88
2791.36
2792.95
2794.68
2796.53
2798.5
2800.62
2802.89
2805.33
2807.96
2810.78
2813.78
2816.96
2820.29
2823.78
2827.42
2831.22
2835.18
2839.29
2843.53
2847.92
2852.45
2857.13
2861.94
2866.87
2871.91
2877.04
2882.27
2887.57
2892.93
2898.32
2903.73
2909.13
2914.49
2919.79
2924.99
2930.06
2934.97
2939.67
2944.12
2948.26
2952.03
2955.37
2958.2
2960.38
2961.86
2962.56
2962.43
2961.06
2958.54
2954.53
2948.96
2941.57
2932.1
2920.4
2906
2888.81
2868.24
2844.19
2816.06
2783.67
2746.41
2704.12
2656.11
2602.72
2543.17
2478.3
2407.14
2330.2
2248.09
2161.54
2070.13
1984.42
1892.54
1812.45
1654.91
2968.66
2857.18
2871.61
2873.24
2867.66
2856.08
2844.6
2835
2827.71
2822.2
2818.22
2815.54
2813.93
2812.79
2811.54
2809.65
2807.16
2804.72
2802.88
2801.79
2801.19
2800.96
2801.05
2801.12
2800.81
2799.72
2797.62
2794.95
2792.29
2789.97
2788.03
2786.54
2785.51
2784.96
2784.74
2784.83
2785.24
2785.68
2786.25
2786.99
2787.91
2789.01
2790.25
2791.6
2793.05
2794.6
2796.26
2798.05
2799.97
2802.01
2804.19
2806.49
2808.95
2811.59
2814.42
2817.44
2820.66
2824.06
2827.63
2831.36
2835.25
2839.31
2843.54
2847.92
2852.46
2857.15
2862
2867.01
2872.18
2877.48
2882.91
2888.47
2894.14
2899.91
2905.77
2911.7
2917.68
2923.69
2929.71
2935.72
2941.68
2947.57
2953.35
2959.01
2964.48
2969.73
2974.7
2979.33
2983.56
2987.33
2990.52
2993
2994.71
2995.57
2995.59
2994.18
2991.54
2987.22
2981.13
2973.07
2962.65
2949.72
2933.72
2914.54
2891.54
2864.53
2832.94
2796.5
2754.56
2707.11
2653.52
2594.36
2527.87
2454.35
2372.98
2286.37
2194.67
2098.86
1993.22
1902.32
1735.84
2938.55
2839.38
2857.65
2864.82
2864.24
2856.41
2845.58
2835.77
2828.03
2822.21
2817.83
2814.63
2812.2
2810.29
2808.56
2806.63
2804.49
2802.45
2800.95
2800.12
2799.82
2799.85
2800.41
2800.92
2801.02
2800.65
2799.45
2797.31
2794.82
2792.53
2790.59
2789.1
2788.11
2787.59
2787.45
2787.71
2788.28
2788.89
2789.63
2790.53
2791.61
2792.88
2794.32
2795.87
2797.51
2799.25
2801.1
2803.07
2805.18
2807.42
2809.79
2812.28
2814.93
2817.76
2820.77
2823.99
2827.41
2831.02
2834.82
2838.78
2842.91
2847.21
2851.69
2856.34
2861.16
2866.14
2871.29
2876.61
2882.1
2887.75
2893.55
2899.5
2905.57
2911.78
2918.11
2924.53
2931.04
2937.62
2944.25
2950.91
2957.58
2964.22
2970.81
2977.34
2983.77
2990.04
2996.13
3001.97
3007.52
3012.72
3017.47
3021.7
3025.32
3028.14
3030.15
3031.21
3031.33
3029.88
3027.01
3022.32
3015.62
3006.72
2995.12
2980.69
2962.79
2941.25
2915.46
2885.07
2849.46
2808.44
2761.27
2707.81
2646.69
2579.15
2504.09
2422.87
2333.32
2241.48
2135.97
2037.27
1857.51
2918.14
2822.2
2838.9
2852.41
2857.11
2854.64
2845.96
2836.96
2828.96
2822.73
2818.09
2814.64
2811.81
2809.22
2806.64
2804.1
2801.71
2799.65
2798.3
2797.76
2797.78
2798.2
2799.08
2800.19
2800.79
2800.91
2800.51
2799.19
2797.13
2794.96
2793.05
2791.57
2790.61
2790.13
2790.07
2790.48
2791.22
2792.01
2792.92
2793.99
2795.23
2796.67
2798.29
2800.03
2801.87
2803.8
2805.83
2807.99
2810.29
2812.71
2815.27
2817.96
2820.79
2823.79
2826.99
2830.4
2834.01
2837.83
2841.84
2846.03
2850.38
2854.92
2859.64
2864.54
2869.62
2874.87
2880.3
2885.92
2891.72
2897.69
2903.84
2910.15
2916.61
2923.23
2929.98
2936.87
2943.87
2950.98
2958.17
2965.43
2972.74
2980.08
2987.42
2994.74
3002.03
3009.24
3016.33
3023.27
3030
3036.48
3042.64
3048.41
3053.68
3058.4
3062.47
3065.68
3068.02
3069.29
3069.5
3068
3064.87
3059.73
3052.3
3042.38
3029.36
3013.08
2992.83
2968.25
2938.7
2903.72
2862.43
2814.69
2759.71
2698.03
2627.84
2550.07
2463.38
2369.39
2269.63
2171.55
2003.14
2907.53
2808.4
2819.35
2835.4
2846.15
2848.64
2845.18
2837.91
2830.66
2824.45
2819.52
2815.49
2812.12
2809.06
2806.03
2803.02
2800.07
2797.44
2795.63
2795
2795.14
2795.78
2796.89
2798.59
2800.07
2800.75
2800.82
2800.3
2798.98
2797.14
2795.36
2793.92
2793.01
2792.57
2792.58
2793.17
2794.06
2795.03
2796.13
2797.36
2798.76
2800.37
2802.17
2804.1
2806.13
2808.25
2810.47
2812.81
2815.28
2817.89
2820.63
2823.5
2826.52
2829.7
2833.07
2836.66
2840.46
2844.47
2848.68
2853.07
2857.65
2862.4
2867.35
2872.49
2877.81
2883.31
2889.01
2894.9
2900.99
2907.27
2913.73
2920.38
2927.2
2934.18
2941.33
2948.64
2956.09
2963.68
2971.38
2979.19
2987.08
2995.05
3003.06
3011.12
3019.19
3027.25
3035.26
3043.19
3051
3058.66
3066.1
3073.28
3080.09
3086.49
3092.37
3097.65
3102.22
3105.85
3108.49
3109.96
3110.24
3108.66
3105.23
3099.54
3091.18
3079.93
3065.11
3046.42
3023.18
2994.82
2960.55
2920.13
2872.76
2818.32
2755
2683.08
2600.18
2509.06
2407.52
2301.18
2128.73
2903.43
2799.46
2804.63
2816.4
2830.72
2838.91
2840.53
2837.37
2831.53
2826.14
2821.46
2817.17
2813.3
2809.74
2806.38
2803.14
2799.9
2796.88
2794.44
2792.98
2792.68
2793.14
2794.38
2796.43
2798.61
2800.06
2800.65
2800.69
2800.16
2798.88
2797.37
2796.07
2795.24
2794.88
2794.97
2795.72
2796.76
2797.93
2799.22
2800.63
2802.2
2803.97
2805.94
2808.05
2810.28
2812.58
2814.98
2817.49
2820.14
2822.92
2825.84
2828.89
2832.08
2835.44
2838.99
2842.74
2846.72
2850.91
2855.31
2859.91
2864.69
2869.65
2874.81
2880.17
2885.72
2891.46
2897.41
2903.55
2909.91
2916.47
2923.23
2930.18
2937.33
2944.66
2952.18
2959.88
2967.74
2975.76
2983.93
2992.24
3000.67
3009.21
3017.84
3026.55
3035.33
3044.15
3052.99
3061.81
3070.59
3079.29
3087.88
3096.29
3104.48
3112.37
3119.88
3126.97
3133.5
3139.38
3144.49
3148.55
3151.54
3153.22
3153.55
3151.79
3147.87
3141.37
3131.83
3118.95
3101.99
3080.41
3053.5
3020.72
2980.93
2933.61
2877.63
2813.07
2738.55
2655.79
2559.38
2459.18
2299.37
2903.77
2795.67
2796.77
2800.45
2811.94
2824.36
2832.03
2833.37
2830.81
2826.76
2822.75
2819.23
2815.36
2811.3
2807.33
2803.67
2800.29
2797.21
2794.48
2792.42
2791.38
2791.25
2792.02
2793.95
2796.58
2798.85
2800.22
2800.72
2800.68
2800.09
2799.04
2797.99
2797.29
2797.04
2797.26
2798.16
2799.35
2800.72
2802.21
2803.8
2805.54
2807.47
2809.6
2811.9
2814.3
2816.79
2819.37
2822.05
2824.87
2827.82
2830.91
2834.13
2837.5
2841.02
2844.73
2848.65
2852.8
2857.16
2861.75
2866.53
2871.5
2876.66
2882.02
2887.58
2893.35
2899.32
2905.49
2911.87
2918.47
2925.29
2932.32
2939.56
2947.01
2954.65
2962.5
2970.55
2978.78
2987.2
2995.79
3004.54
3013.46
3022.51
3031.69
3040.99
3050.4
3059.9
3069.47
3079.09
3088.73
3098.37
3107.97
3117.5
3126.91
3136.14
3145.12
3153.81
3162.1
3169.94
3177.17
3183.68
3189.36
3193.89
3197.24
3199.13
3199.51
3197.51
3193.04
3185.51
3174.39
3159.13
3138.99
3113.13
3080.56
3040.89
2993.02
2936.03
2868.33
2788.64
2696.03
2591.89
2444.25
2906.5
2795.91
2792.88
2790.04
2794.52
2806.16
2818.83
2825.9
2827.5
2825.92
2822.79
2819.92
2816.93
2813.5
2809.4
2805.29
2801.45
2798.02
2795
2792.62
2791.1
2790.59
2790.69
2792.02
2794.52
2797.22
2799.24
2800.34
2800.72
2800.7
2800.2
2799.54
2799.08
2798.99
2799.42
2800.45
2801.81
2803.39
2805.08
2806.86
2808.77
2810.86
2813.16
2815.63
2818.21
2820.87
2823.62
2826.48
2829.45
2832.57
2835.82
2839.21
2842.73
2846.42
2850.29
2854.38
2858.68
2863.21
2867.96
2872.92
2878.07
2883.42
2888.96
2894.72
2900.68
2906.86
2913.24
2919.84
2926.66
2933.72
2941
2948.5
2956.22
2964.15
2972.3
2980.67
2989.24
2998.02
3006.98
3016.14
3025.49
3035
3044.67
3054.5
3064.47
3074.58
3084.81
3095.14
3105.54
3116
3126.5
3137.01
3147.48
3157.87
3168.14
3178.23
3188.09
3197.63
3206.76
3215.39
3223.38
3230.59
3236.92
3241.96
3245.67
3247.7
3248
3245.44
3240.04
3230.96
3217.77
3199.47
3175.27
3144.36
3105.32
3057.33
2998.68
2927.47
2844.58
2744.01
2608.7
2909.52
2797.67
2790.83
2783.37
2782.32
2788.48
2801.78
2814.3
2821.19
2822.77
2821.7
2819.65
2817.17
2814.56
2811.56
2807.72
2803.71
2799.86
2796.31
2793.34
2791.36
2790.45
2790.37
2791.18
2793.15
2795.76
2798.12
2799.73
2800.6
2800.95
2800.93
2800.7
2800.54
2800.7
2801.4
2802.6
2804.16
2805.94
2807.83
2809.81
2811.89
2814.15
2816.61
2819.25
2822
2824.84
2827.75
2830.77
2833.91
2837.17
2840.58
2844.12
2847.81
2851.65
2855.68
2859.91
2864.37
2869.06
2873.97
2879.09
2884.41
2889.93
2895.65
2901.59
2907.74
2914.1
2920.67
2927.48
2934.51
2941.78
2949.29
2957.03
2965
2973.19
2981.61
2990.26
2999.14
3008.23
3017.54
3027.06
3036.78
3046.71
3056.81
3067.1
3077.57
3088.21
3099.01
3109.96
3121.03
3132.21
3143.49
3154.85
3166.25
3177.66
3189.05
3200.37
3211.57
3222.61
3233.4
3243.87
3253.89
3263.4
3272.23
3280.21
3287.22
3292.75
3296.83
3299.02
3299.29
3296.07
3289.66
3278.49
3262.5
3240.18
3210.28
3171.84
3122.02
3058.88
2982.47
2887.49
2760.82
2912.16
2799.44
2789.8
2778.98
2773.99
2775.06
2784.37
2799.16
2811.5
2817.41
2818.81
2818.12
2816.48
2814.5
2812.25
2809.83
2806.45
2802.62
2798.63
2795
2792.23
2790.78
2790.49
2790.96
2792.58
2794.94
2797.31
2799.13
2800.33
2801.02
2801.38
2801.54
2801.73
2802.2
2803.17
2804.6
2806.37
2808.37
2810.47
2812.64
2814.91
2817.34
2819.96
2822.76
2825.67
2828.67
2831.75
2834.93
2838.22
2841.63
2845.18
2848.87
2852.7
2856.7
2860.87
2865.26
2869.86
2874.7
2879.76
2885.04
2890.51
2896.19
2902.08
2908.18
2914.49
2921.03
2927.79
2934.77
2942
2949.46
2957.18
2965.13
2973.32
2981.75
2990.42
2999.32
3008.47
3017.85
3027.46
3037.29
3047.36
3057.64
3068.13
3078.83
3089.73
3100.84
3112.14
3123.63
3135.28
3147.09
3159.05
3171.14
3183.34
3195.63
3207.98
3220.35
3232.72
3245.03
3257.24
3269.29
3281.08
3292.55
3303.57
3314.05
3323.82
3332.66
3340.43
3346.51
3350.95
3353.14
3353.06
3348.28
3339.88
3325.36
3304.39
3275.48
3235.59
3182.94
3115.11
3028.02
2911.21
2914.34
2800.45
2788.9
2776.17
2768.14
2765.66
2770.07
2783.28
2799.04
2809.64
2814.11
2815.1
2814.55
2813.47
2812.06
2810.49
2808.46
2805.46
2801.7
2797.67
2794.11
2791.82
2791.03
2791.19
2792.43
2794.53
2796.82
2798.74
2800.16
2801.12
2801.77
2802.24
2802.75
2803.55
2804.79
2806.48
2808.49
2810.7
2813.01
2815.38
2817.83
2820.44
2823.23
2826.18
2829.25
2832.4
2835.64
2838.96
2842.4
2845.96
2849.65
2853.47
2857.44
2861.58
2865.9
2870.42
2875.17
2880.14
2885.35
2890.77
2896.4
2902.22
2908.26
2914.51
2920.98
2927.68
2934.6
2941.75
2949.15
2956.8
2964.7
2972.85
2981.24
2989.88
2998.77
3007.9
3017.29
3026.93
3036.8
3046.92
3057.28
3067.88
3078.71
3089.77
3101.05
3112.56
3124.3
3136.25
3148.41
3160.76
3173.3
3186.02
3198.91
3211.95
3225.11
3238.38
3251.72
3265.12
3278.54
3291.92
3305.2
3318.34
3331.23
3343.83
3355.96
3367.53
3378.32
3388.09
3396.67
3403.29
3408.12
3410.22
3409.46
3403.43
3392.66
3374.64
3346.79
3306.3
3247.2
3168.41
3057.95
2915.98
2800.6
2788.18
2774.09
2764.08
2759.42
2760.33
2769.21
2785.3
2799.74
2807.71
2810.76
2811.42
2811.35
2811.04
2810.32
2809.23
2807.34
2804.53
2800.85
2796.92
2793.76
2792.18
2791.93
2792.65
2794.44
2796.65
2798.61
2800.15
2801.31
2802.19
2802.92
2803.72
2804.81
2806.33
2808.27
2810.51
2812.94
2815.46
2818.02
2820.66
2823.44
2826.39
2829.5
2832.72
2836.02
2839.4
2842.87
2846.44
2850.14
2853.96
2857.91
2862.01
2866.28
2870.73
2875.39
2880.28
2885.39
2890.73
2896.28
2902.05
2908.01
2914.18
2920.58
2927.19
2934.04
2941.11
2948.42
2955.98
2963.79
2971.86
2980.18
2988.76
2997.59
3006.67
3016.01
3025.62
3035.47
3045.59
3055.95
3066.58
3077.46
3088.58
3099.95
3111.56
3123.43
3135.54
3147.89
3160.48
3173.3
3186.33
3199.59
3213.06
3226.74
3240.59
3254.62
3268.79
3283.1
3297.53
3312.02
3326.56
3341.08
3355.55
3369.9
3384.03
3397.87
3411.24
3424.05
3436.02
3446.93
3456.42
3463.75
3468.88
3470.73
3468.58
3459.88
3443.58
3415.9
3368.29
3303.43
3201.31
2916.51
2799.83
2787.26
2772.27
2761.19
2754.97
2753.63
2758.35
2772.26
2788.76
2799.91
2805.24
2807.29
2808.31
2809.06
2809.44
2809.19
2808.11
2806.4
2803.71
2800.1
2796.45
2794.01
2793.19
2793.38
2794.66
2796.69
2798.67
2800.32
2801.64
2802.7
2803.65
2804.69
2806.05
2807.84
2810.03
2812.5
2815.13
2817.84
2820.59
2823.42
2826.37
2829.49
2832.75
2836.12
2839.55
2843.06
2846.67
2850.37
2854.19
2858.13
2862.21
2866.43
2870.83
2875.4
2880.19
2885.2
2890.44
2895.91
2901.59
2907.48
2913.58
2919.88
2926.4
2933.15
2940.13
2947.34
2954.8
2962.5
2970.46
2978.69
2987.17
2995.91
3004.92
3014.18
3023.71
3033.5
3043.56
3053.89
3064.48
3075.33
3086.46
3097.84
3109.49
3121.39
3133.56
3146
3158.7
3171.67
3184.88
3198.35
3212.07
3226.04
3240.25
3254.69
3269.35
3284.22
3299.3
3314.56
3330
3345.57
3361.24
3377
3392.79
3408.58
3424.28
3439.8
3455.07
3469.87
3484.1
3497.39
3509.52
3519.86
3527.75
3532.98
3534.4
3530.24
3516.56
3483.8
3437.5
3346.64
2916.59
2798.24
2785.53
2770.24
2758.92
2751.61
2748.81
2750.69
2761.03
2777.63
2791.23
2798.83
2802.42
2804.53
2806.37
2807.83
2808.49
2808.31
2807.25
2805.65
2802.96
2799.42
2796.38
2794.89
2794.62
2795.27
2797.02
2798.96
2800.66
2802.1
2803.32
2804.45
2805.71
2807.32
2809.37
2811.79
2814.46
2817.28
2820.17
2823.1
2826.1
2829.22
2832.51
2835.92
2839.41
2842.97
2846.61
2850.34
2854.17
2858.11
2862.17
2866.36
2870.7
2875.21
2879.91
2884.82
2889.95
2895.32
2900.9
2906.71
2912.72
2918.93
2925.35
2932
2938.87
2945.98
2953.32
2960.9
2968.74
2976.84
2985.21
2993.84
3002.74
3011.9
3021.32
3031.02
3040.99
3051.24
3061.75
3072.54
3083.61
3094.96
3106.57
3118.46
3130.63
3143.07
3155.8
3168.81
3182.1
3195.66
3209.5
3223.62
3238.02
3252.69
3267.63
3282.84
3298.3
3314.02
3329.99
3346.19
3362.62
3379.25
3396.07
3413.05
3430.16
3447.38
3464.64
3481.87
3498.97
3515.86
3532.3
3548.22
3563.15
3576.9
3588.4
3597.2
3602.54
3602.37
3586.54
3561.05
3495.57
2916.27
2795.89
2782.96
2767.94
2756.88
2748.87
2745.04
2745.18
2751.85
2767.13
2782.36
2792.01
2797.13
2800.34
2803.16
2805.64
2807.31
2807.89
2807.56
2806.68
2805
2802.1
2798.93
2796.88
2796.2
2796.36
2797.62
2799.46
2801.2
2802.72
2804.07
2805.36
2806.82
2808.66
2810.94
2813.58
2816.45
2819.44
2822.49
2825.57
2828.74
2832.03
2835.46
2839.01
2842.63
2846.31
2850.06
2853.91
2857.85
2861.9
2866.06
2870.36
2874.81
2879.43
2884.25
2889.28
2894.53
2900.01
2905.71
2911.63
2917.75
2924.07
2930.61
2937.37
2944.36
2951.58
2959.04
2966.75
2974.72
2982.95
2991.45
3000.22
3009.25
3018.56
3028.14
3037.99
3048.13
3058.54
3069.23
3080.2
3091.46
3103.01
3114.83
3126.94
3139.34
3152.03
3165.02
3178.3
3191.88
3205.75
3219.92
3234.39
3249.16
3264.24
3279.61
3295.28
3311.25
3327.51
3344.08
3360.93
3378.08
3395.5
3413.18
3431.13
3449.34
3467.77
3486.41
3505.21
3524.14
3543.13
3562.07
3580.84
3599.21
3617.07
3633.74
3649.15
3661.75
3671.12
3674.02
3664.13
3635.14
2915.42
2792.83
2779.59
2765.29
2754.8
2746.5
2741.78
2740.69
2744.57
2757.76
2773.84
2785.21
2791.74
2795.98
2799.69
2803.05
2805.69
2807.09
2807.4
2807.09
2806.19
2804.15
2801.28
2798.96
2797.94
2797.78
2798.53
2800.23
2801.97
2803.52
2804.95
2806.37
2808.01
2810.07
2812.57
2815.4
2818.44
2821.57
2824.77
2828
2831.32
2834.77
2838.35
2842.03
2845.76
2849.55
2853.41
2857.36
2861.41
2865.56
2869.83
2874.22
2878.77
2883.5
2888.42
2893.57
2898.93
2904.52
2910.33
2916.36
2922.58
2929.01
2935.66
2942.52
2949.62
2956.95
2964.53
2972.35
2980.44
2988.8
2997.42
3006.32
3015.49
3024.94
3034.66
3044.66
3054.95
3065.52
3076.38
3087.52
3098.96
3110.69
3122.72
3135.03
3147.64
3160.56
3173.79
3187.32
3201.17
3215.33
3229.8
3244.58
3259.69
3275.12
3290.88
3306.96
3323.37
3340.11
3357.18
3374.59
3392.33
3410.41
3428.81
3447.55
3466.63
3486.03
3505.76
3525.78
3546.1
3566.66
3587.44
3608.32
3629.27
3650.12
3670.63
3690.68
3709.42
3726.31
3739.72
3744.35
3746.11
2913.43
2789.05
2775.5
2762.2
2752.42
2744.14
2738.74
2736.73
2738.73
2749.58
2765.94
2778.79
2786.59
2791.74
2796.19
2800.31
2803.75
2805.97
2806.97
2807.11
2806.69
2805.45
2803.17
2800.91
2799.69
2799.36
2799.76
2801.24
2802.94
2804.49
2805.98
2807.52
2809.32
2811.58
2814.28
2817.28
2820.46
2823.72
2827.04
2830.4
2833.86
2837.45
2841.17
2844.96
2848.79
2852.68
2856.64
2860.69
2864.84
2869.08
2873.44
2877.93
2882.58
2887.41
2892.44
2897.69
2903.16
2908.86
2914.77
2920.89
2927.22
2933.74
2940.48
2947.45
2954.65
2962.09
2969.77
2977.71
2985.91
2994.38
3003.13
3012.15
3021.44
3031.02
3040.87
3051.01
3061.44
3072.16
3083.17
3094.48
3106.08
3117.99
3130.2
3142.7
3155.51
3168.64
3182.09
3195.85
3209.94
3224.35
3239.09
3254.16
3269.57
3285.32
3301.42
3317.86
3334.65
3351.8
3369.31
3387.2
3405.44
3424.06
3443.05
3462.43
3482.18
3502.34
3522.88
3543.81
3565.12
3586.79
3608.83
3631.13
3653.76
3676.46
3699.2
3721.78
3743.58
3764.65
3782.74
3795.63
3809.99
2909.94
2784.57
2771.01
2758.74
2749.69
2741.65
2735.76
2733.01
2733.89
2742.53
2758.82
2773
2781.94
2787.85
2792.88
2797.57
2801.66
2804.61
2806.27
2806.81
2806.75
2806.06
2804.52
2802.58
2801.37
2800.97
2801.21
2802.45
2804.11
2805.62
2807.13
2808.77
2810.72
2813.17
2816.04
2819.19
2822.48
2825.86
2829.28
2832.77
2836.36
2840.08
2843.92
2847.81
2851.73
2855.71
2859.76
2863.9
2868.13
2872.46
2876.91
2881.48
2886.22
2891.15
2896.28
2901.63
2907.21
2913
2919.01
2925.23
2931.64
2938.26