/*--------------------------------*- C++ -*----------------------------------*\
| =========                 |                                                 |
| \\      /  F ield         | OpenFOAM: The Open Source CFD Toolbox           |
|  \\    /   O peration     | Version:  2412                                  |
|   \\  /    A nd           | Website:  www.openfoam.com                      |
|    \\/     M anipulation  |                                                 |
\*---------------------------------------------------------------------------*/
FoamFile
{
    version     2.0;
    format      ascii;
    arch        "LSB;label=32;scalar=64";
    class       volVectorField;
    location    "0.101";
    object      U;
}
// * * * * * * * * * * * * * * * * * * * * * * * * * * * * * * * * * * * * * //

dimensions      [0 1 -1 0 0 0 0];

internalField   nonuniform List<vector> 
78650
(
(158.487 30.4779 0)
(188.136 -6.38922 0)
(195.461 -6.73086 0)
(199.2 -5.78935 0)
(201.826 -5.89951 0)
(203.576 -5.77995 0)
(204.772 -5.79709 0)
(205.594 -5.81853 0)
(206.205 -5.87182 0)
(206.763 -5.92074 0)
(207.337 -5.93532 0)
(207.897 -5.94904 0)
(208.386 -5.93494 0)
(208.776 -5.88959 0)
(209.073 -5.8234 0)
(209.303 -5.75521 0)
(209.499 -5.6914 0)
(209.696 -5.62992 0)
(209.928 -5.56538 0)
(210.217 -5.50174 0)
(210.564 -5.43845 0)
(210.95 -5.37271 0)
(211.349 -5.29745 0)
(211.739 -5.20745 0)
(212.106 -5.09465 0)
(212.45 -4.95455 0)
(212.775 -4.78636 0)
(213.086 -4.59072 0)
(213.383 -4.36602 0)
(213.665 -4.11051 0)
(213.93 -3.82381 0)
(214.181 -3.50694 0)
(214.42 -3.16235 0)
(214.651 -2.79106 0)
(214.877 -2.39399 0)
(215.097 -1.97068 0)
(215.309 -1.51927 0)
(215.51 -1.03875 0)
(215.699 -0.528952 0)
(215.878 0.00977045 0)
(216.045 0.57667 0)
(216.201 1.17134 0)
(216.344 1.79387 0)
(216.478 2.44417 0)
(216.603 3.12284 0)
(216.716 3.83039 0)
(216.819 4.56717 0)
(216.91 5.33289 0)
(216.99 6.1278 0)
(217.058 6.9528 0)
(217.113 7.80872 0)
(217.154 8.69614 0)
(217.181 9.61593 0)
(217.194 10.5674 0)
(217.195 11.5515 0)
(217.185 12.5676 0)
(217.164 13.6162 0)
(217.133 14.6979 0)
(217.093 15.8134 0)
(217.045 16.963 0)
(216.991 18.1475 0)
(216.933 19.367 0)
(216.872 20.6229 0)
(216.81 21.9165 0)
(216.749 23.2486 0)
(216.693 24.6206 0)
(216.644 26.0336 0)
(216.604 27.4868 0)
(216.582 28.984 0)
(216.578 30.5253 0)
(216.593 32.1113 0)
(216.645 33.7446 0)
(216.728 35.4245 0)
(216.852 37.1525 0)
(217.03 38.9304 0)
(217.259 40.7581 0)
(217.563 42.6371 0)
(217.93 44.567 0)
(218.395 46.5489 0)
(218.949 48.5822 0)
(219.613 50.6662 0)
(220.4 52.799 0)
(221.322 54.9774 0)
(222.404 57.1963 0)
(223.649 59.4512 0)
(225.098 61.7317 0)
(226.727 64.0384 0)
(228.612 66.354 0)
(230.69 68.6837 0)
(233.086 70.981 0)
(235.686 73.2735 0)
(238.681 75.4862 0)
(241.884 77.69 0)
(245.576 79.7004 0)
(249.437 81.7274 0)
(253.84 83.4467 0)
(258.419 85.1508 0)
(263.49 86.5627 0)
(269.012 87.7699 0)
(275.09 88.5504 0)
(281.272 89.0544 0)
(287.351 89.3702 0)
(293.306 89.4707 0)
(299.834 89.2088 0)
(307.314 88.3375 0)
(313.694 87.2037 0)
(320.503 85.868 0)
(326.365 84.6644 0)
(331.862 83.2957 0)
(337.095 81.6776 0)
(342.524 79.7787 0)
(348.237 77.6819 0)
(353.29 75.7028 0)
(358.465 73.4839 0)
(362.351 71.5073 0)
(365.26 69.6489 0)
(367.323 67.841 0)
(369.479 66.9919 0)
(373.62 66.1495 0)
(380.005 65.1298 0)
(382.457 68.5301 0)
(160.988 30.0199 0)
(188.817 -5.5445 0)
(195.768 -6.14484 0)
(199.328 -5.41507 0)
(201.869 -5.62572 0)
(203.603 -5.59749 0)
(204.757 -5.66227 0)
(205.528 -5.70554 0)
(206.103 -5.7717 0)
(206.647 -5.83151 0)
(207.217 -5.85058 0)
(207.783 -5.86517 0)
(208.29 -5.85675 0)
(208.709 -5.81947 0)
(209.032 -5.76164 0)
(209.278 -5.69977 0)
(209.475 -5.63995 0)
(209.66 -5.57911 0)
(209.866 -5.51271 0)
(210.126 -5.44533 0)
(210.447 -5.37887 0)
(210.816 -5.3111 0)
(211.206 -5.23552 0)
(211.592 -5.14671 0)
(211.957 -5.03638 0)
(212.296 -4.89857 0)
(212.613 -4.73233 0)
(212.915 -4.53917 0)
(213.203 -4.31791 0)
(213.476 -4.06681 0)
(213.731 -3.785 0)
(213.97 -3.47329 0)
(214.196 -3.13391 0)
(214.413 -2.76773 0)
(214.624 -2.37621 0)
(214.829 -1.95869 0)
(215.025 -1.51371 0)
(215.211 -1.04029 0)
(215.385 -0.53796 0)
(215.547 -0.00696779 0)
(215.698 0.55195 0)
(215.836 1.13835 0)
(215.961 1.75199 0)
(216.078 2.39277 0)
(216.183 3.06139 0)
(216.277 3.75843 0)
(216.358 4.48413 0)
(216.428 5.23811 0)
(216.486 6.02064 0)
(216.532 6.83253 0)
(216.563 7.67453 0)
(216.58 8.54689 0)
(216.583 9.45165 0)
(216.571 10.3869 0)
(216.545 11.3544 0)
(216.506 12.3533 0)
(216.456 13.3839 0)
(216.395 14.447 0)
(216.322 15.5431 0)
(216.24 16.6728 0)
(216.15 17.8367 0)
(216.054 19.0349 0)
(215.953 20.2689 0)
(215.848 21.5398 0)
(215.742 22.8486 0)
(215.637 24.1962 0)
(215.533 25.5856 0)
(215.437 27.014 0)
(215.354 28.4863 0)
(215.282 30.003 0)
(215.226 31.5638 0)
(215.199 33.1726 0)
(215.196 34.8287 0)
(215.227 36.5332 0)
(215.304 38.2892 0)
(215.423 40.0963 0)
(215.606 41.9573 0)
(215.843 43.8717 0)
(216.165 45.8419 0)
(216.564 47.8675 0)
(217.061 49.9493 0)
(217.666 52.0869 0)
(218.389 54.2787 0)
(219.258 56.5212 0)
(220.274 58.8109 0)
(221.479 61.1416 0)
(222.854 63.5146 0)
(224.469 65.9166 0)
(226.267 68.3507 0)
(228.367 70.7852 0)
(230.668 73.238 0)
(233.344 75.6437 0)
(236.236 78.0389 0)
(239.585 80.294 0)
(243.11 82.5549 0)
(247.173 84.5559 0)
(251.365 86.5727 0)
(256.073 88.2528 0)
(260.998 89.8566 0)
(266.263 91.1228 0)
(271.778 92.159 0)
(277.778 92.962 0)
(284.175 93.4209 0)
(290.336 93.5363 0)
(297.378 93.3969 0)
(303.697 92.9403 0)
(310.716 92.125 0)
(317.619 90.9505 0)
(323.77 89.7433 0)
(329.773 88.4427 0)
(335.652 86.8542 0)
(341.08 85.0963 0)
(346.465 83.2122 0)
(352.11 81.0197 0)
(356.854 78.9276 0)
(360.887 76.5025 0)
(363.285 74.2518 0)
(364.973 72.6979 0)
(368.56 71.7 0)
(375.911 70.5719 0)
(378.795 74.8687 0)
(162.491 28.5958 0)
(189.662 -4.75088 0)
(196.346 -5.74844 0)
(199.661 -5.20378 0)
(202.058 -5.44706 0)
(203.699 -5.45253 0)
(204.74 -5.52081 0)
(205.443 -5.58692 0)
(206 -5.67371 0)
(206.534 -5.74496 0)
(207.092 -5.768 0)
(207.655 -5.78217 0)
(208.176 -5.77913 0)
(208.622 -5.75003 0)
(208.976 -5.70064 0)
(209.241 -5.64515 0)
(209.443 -5.59022 0)
(209.619 -5.53137 0)
(209.804 -5.46474 0)
(210.035 -5.39505 0)
(210.328 -5.32632 0)
(210.675 -5.25718 0)
(211.052 -5.18201 0)
(211.432 -5.09518 0)
(211.795 -4.98811 0)
(212.129 -4.85339 0)
(212.439 -4.68986 0)
(212.733 -4.49989 0)
(213.013 -4.28253 0)
(213.278 -4.03613 0)
(213.524 -3.75925 0)
(213.752 -3.4527 0)
(213.966 -3.11835 0)
(214.169 -2.75712 0)
(214.365 -2.37085 0)
(214.555 -1.95876 0)
(214.736 -1.51983 0)
(214.907 -1.05303 0)
(215.065 -0.557627 0)
(215.212 -0.0338151 0)
(215.345 0.517746 0)
(215.465 1.09653 0)
(215.574 1.70198 0)
(215.673 2.334 0)
(215.759 2.99336 0)
(215.833 3.6806 0)
(215.893 4.39593 0)
(215.941 5.13896 0)
(215.977 5.90995 0)
(216 6.70944 0)
(216.008 7.53903 0)
(216.003 8.39749 0)
(215.979 9.28813 0)
(215.942 10.2075 0)
(215.888 11.1603 0)
(215.821 12.1438 0)
(215.741 13.1582 0)
(215.649 14.2044 0)
(215.544 15.2831 0)
(215.428 16.3951 0)
(215.301 17.5403 0)
(215.166 18.7197 0)
(215.024 19.9342 0)
(214.876 21.1851 0)
(214.724 22.4732 0)
(214.57 23.7994 0)
(214.412 25.1691 0)
(214.261 26.5743 0)
(214.117 28.0226 0)
(213.979 29.5164 0)
(213.854 31.0532 0)
(213.751 32.638 0)
(213.666 34.2708 0)
(213.61 35.9505 0)
(213.591 37.6822 0)
(213.606 39.4649 0)
(213.678 41.3019 0)
(213.794 43.1926 0)
(213.985 45.1403 0)
(214.241 47.1443 0)
(214.584 49.2062 0)
(215.021 51.3258 0)
(215.563 53.5026 0)
(216.231 55.7347 0)
(217.031 58.02 0)
(217.999 60.3549 0)
(219.117 62.7392 0)
(220.449 65.1639 0)
(221.945 67.6302 0)
(223.714 70.1172 0)
(225.663 72.6334 0)
(227.952 75.134 0)
(230.445 77.6417 0)
(233.359 80.0757 0)
(236.466 82.5219 0)
(240.106 84.8028 0)
(243.897 87.1235 0)
(248.269 89.1559 0)
(252.812 91.1947 0)
(257.916 92.9275 0)
(263.476 94.4427 0)
(269.344 95.5276 0)
(275.753 96.4766 0)
(282.055 96.8868 0)
(288.469 97.156 0)
(295.274 97.0634 0)
(301.82 96.6877 0)
(309.185 95.8859 0)
(316.061 94.6106 0)
(322.389 93.4526 0)
(328.969 92.0966 0)
(334.494 90.8957 0)
(339.812 89.6091 0)
(345.46 87.8709 0)
(350.01 86.3526 0)
(354.664 84.0616 0)
(357.743 81.7203 0)
(360.466 79.7682 0)
(364.983 78.0181 0)
(372.807 76.6196 0)
(375.625 81.1376 0)
(164.647 26.7787 0)
(191.088 -4.5295 0)
(196.992 -5.35319 0)
(199.968 -4.87875 0)
(202.182 -5.10975 0)
(203.713 -5.18091 0)
(204.705 -5.326 0)
(205.39 -5.45407 0)
(205.922 -5.57497 0)
(206.429 -5.65894 0)
(206.963 -5.68523 0)
(207.517 -5.69836 0)
(208.049 -5.6996 0)
(208.522 -5.67727 0)
(208.907 -5.63567 0)
(209.198 -5.58688 0)
(209.412 -5.5376 0)
(209.584 -5.4817 0)
(209.75 -5.41545 0)
(209.953 -5.34365 0)
(210.215 -5.27134 0)
(210.537 -5.19858 0)
(210.898 -5.12152 0)
(211.271 -5.03487 0)
(211.63 -4.92995 0)
(211.961 -4.79784 0)
(212.264 -4.63687 0)
(212.549 -4.45004 0)
(212.82 -4.23652 0)
(213.076 -3.99497 0)
(213.312 -3.72337 0)
(213.53 -3.42268 0)
(213.731 -3.09407 0)
(213.919 -2.73874 0)
(214.1 -2.35856 0)
(214.273 -1.95275 0)
(214.438 -1.5209 0)
(214.594 -1.06178 0)
(214.736 -0.574522 0)
(214.866 -0.0592097 0)
(214.982 0.483685 0)
(215.084 1.05349 0)
(215.175 1.64933 0)
(215.257 2.27125 0)
(215.324 2.92006 0)
(215.378 3.59616 0)
(215.418 4.29966 0)
(215.446 5.03034 0)
(215.46 5.78876 0)
(215.461 6.57454 0)
(215.446 7.38993 0)
(215.418 8.23121 0)
(215.37 9.10604 0)
(215.307 10.0112 0)
(215.228 10.9462 0)
(215.134 11.9115 0)
(215.026 12.9074 0)
(214.904 13.9343 0)
(214.769 14.9931 0)
(214.62 16.0843 0)
(214.46 17.2083 0)
(214.289 18.3657 0)
(214.109 19.5573 0)
(213.921 20.7844 0)
(213.725 22.0484 0)
(213.524 23.351 0)
(213.321 24.6911 0)
(213.116 26.0714 0)
(212.916 27.4927 0)
(212.715 28.961 0)
(212.525 30.4691 0)
(212.351 32.0233 0)
(212.186 33.6285 0)
(212.048 35.2792 0)
(211.936 36.9833 0)
(211.853 38.7385 0)
(211.815 40.5491 0)
(211.812 42.4147 0)
(211.875 44.3393 0)
(211.99 46.3228 0)
(212.179 48.3678 0)
(212.449 50.4753 0)
(212.809 52.646 0)
(213.279 54.8801 0)
(213.864 57.1764 0)
(214.599 59.5327 0)
(215.47 61.9474 0)
(216.539 64.415 0)
(217.761 66.9351 0)
(219.238 69.4948 0)
(220.885 72.0999 0)
(222.848 74.7202 0)
(225.009 77.3693 0)
(227.562 79.9843 0)
(230.317 82.6101 0)
(233.562 85.1155 0)
(236.958 87.6402 0)
(240.934 89.9359 0)
(245.051 92.2478 0)
(249.721 94.2252 0)
(254.595 96.134 0)
(259.937 97.7153 0)
(265.589 99.0387 0)
(271.86 100.18 0)
(278.118 100.937 0)
(284.85 101.383 0)
(291.562 101.449 0)
(298.279 101.338 0)
(305.97 100.85 0)
(312.858 99.7877 0)
(320.512 98.309 0)
(327.49 96.5491 0)
(333.859 94.9495 0)
(339.779 93.5574 0)
(344.955 92.4046 0)
(349.539 90.8365 0)
(352.832 88.8799 0)
(355.509 87.2169 0)
(359.905 85.7334 0)
(367.925 84.132 0)
(371.023 88.4114 0)
(166.42 24.5435 0)
(192.357 -4.00393 0)
(197.612 -4.85383 0)
(200.255 -4.4725 0)
(202.318 -4.73749 0)
(203.801 -4.90954 0)
(204.762 -5.13312 0)
(205.411 -5.31563 0)
(205.875 -5.47288 0)
(206.32 -5.57678 0)
(206.823 -5.60804 0)
(207.365 -5.62187 0)
(207.903 -5.62524 0)
(208.396 -5.60621 0)
(208.812 -5.57103 0)
(209.133 -5.52966 0)
(209.366 -5.48733 0)
(209.54 -5.43584 0)
(209.693 -5.37125 0)
(209.869 -5.29871 0)
(210.099 -5.22346 0)
(210.391 -5.14759 0)
(210.732 -5.06912 0)
(211.094 -4.98336 0)
(211.449 -4.88151 0)
(211.776 -4.75313 0)
(212.073 -4.59568 0)
(212.352 -4.41276 0)
(212.614 -4.2036 0)
(212.862 -3.96734 0)
(213.089 -3.70136 0)
(213.297 -3.40679 0)
(213.485 -3.08397 0)
(213.66 -2.73458 0)
(213.826 -2.36028 0)
(213.982 -1.96052 0)
(214.132 -1.53547 0)
(214.271 -1.08369 0)
(214.397 -0.604306 0)
(214.51 -0.0972095 0)
(214.607 0.437331 0)
(214.692 0.998434 0)
(214.766 1.58504 0)
(214.829 2.19734 0)
(214.878 2.83613 0)
(214.911 3.50142 0)
(214.931 4.1937 0)
(214.937 4.91254 0)
(214.929 5.6585 0)
(214.908 6.42983 0)
(214.871 7.23038 0)
(214.816 8.0605 0)
(214.746 8.91897 0)
(214.657 9.80694 0)
(214.552 10.7251 0)
(214.43 11.6734 0)
(214.293 12.6517 0)
(214.141 13.6603 0)
(213.974 14.7001 0)
(213.793 15.7718 0)
(213.597 16.8757 0)
(213.39 18.0123 0)
(213.171 19.1826 0)
(212.942 20.3876 0)
(212.703 21.6287 0)
(212.456 22.9069 0)
(212.202 24.224 0)
(211.945 25.5801 0)
(211.686 26.9775 0)
(211.429 28.4157 0)
(211.175 29.8975 0)
(210.932 31.4235 0)
(210.687 33.0053 0)
(210.47 34.6242 0)
(210.27 36.2982 0)
(210.093 38.0234 0)
(209.953 39.8041 0)
(209.84 41.6399 0)
(209.784 43.5345 0)
(209.769 45.4879 0)
(209.82 47.5028 0)
(209.938 49.581 0)
(210.133 51.7233 0)
(210.423 53.9313 0)
(210.813 56.2041 0)
(211.332 58.5415 0)
(211.971 60.9422 0)
(212.784 63.4052 0)
(213.733 65.931 0)
(214.907 68.5151 0)
(216.228 71.1592 0)
(217.834 73.8438 0)
(219.618 76.572 0)
(221.762 79.3008 0)
(224.106 82.0542 0)
(226.91 84.7521 0)
(229.892 87.4816 0)
(233.443 90.0734 0)
(237.147 92.7109 0)
(241.476 95.1052 0)
(246.019 97.514 0)
(251.144 99.6122 0)
(256.631 101.545 0)
(262.478 103.064 0)
(268.893 104.349 0)
(275.395 105.217 0)
(282.437 105.783 0)
(288.796 106.038 0)
(295.799 106.041 0)
(302.655 105.643 0)
(309.402 104.965 0)
(316.898 103.999 0)
(324.208 102.553 0)
(331.579 100.503 0)
(338.247 98.3221 0)
(344.071 96.0739 0)
(347.81 94.1941 0)
(350.404 92.5944 0)
(354.481 91.835 0)
(363.714 90.4856 0)
(366.869 96.2754 0)
(168.762 22.1482 0)
(193.728 -4.07852 0)
(198.162 -4.35824 0)
(200.595 -4.0776 0)
(202.584 -4.38397 0)
(203.998 -4.66887 0)
(204.868 -4.95756 0)
(205.431 -5.17429 0)
(205.857 -5.34068 0)
(206.259 -5.46953 0)
(206.713 -5.52167 0)
(207.218 -5.54655 0)
(207.74 -5.55425 0)
(208.243 -5.53619 0)
(208.691 -5.50487 0)
(209.051 -5.47011 0)
(209.312 -5.43527 0)
(209.494 -5.3888 0)
(209.639 -5.32606 0)
(209.793 -5.25292 0)
(209.99 -5.17378 0)
(210.249 -5.09317 0)
(210.564 -5.01094 0)
(210.913 -4.92393 0)
(211.262 -4.82364 0)
(211.586 -4.6983 0)
(211.879 -4.54417 0)
(212.151 -4.36501 0)
(212.405 -4.16011 0)
(212.643 -3.92919 0)
(212.859 -3.66917 0)
(213.057 -3.38128 0)
(213.232 -3.06489 0)
(213.393 -2.72237 0)
(213.542 -2.35471 0)
(213.682 -1.962 0)
(213.814 -1.54474 0)
(213.937 -1.10131 0)
(214.046 -0.63098 0)
(214.14 -0.133344 0)
(214.219 0.391482 0)
(214.286 0.9424 0)
(214.342 1.51837 0)
(214.387 2.11955 0)
(214.415 2.7474 0)
(214.43 3.40041 0)
(214.43 4.07923 0)
(214.415 4.78417 0)
(214.385 5.51621 0)
(214.341 6.27466 0)
(214.281 7.05964 0)
(214.205 7.87194 0)
(214.111 8.71309 0)
(213.998 9.58362 0)
(213.867 10.4836 0)
(213.718 11.4128 0)
(213.554 12.3713 0)
(213.373 13.3593 0)
(213.177 14.3777 0)
(212.964 15.4272 0)
(212.736 16.5082 0)
(212.495 17.6213 0)
(212.24 18.7671 0)
(211.972 19.9468 0)
(211.693 21.1617 0)
(211.403 22.4131 0)
(211.104 23.7017 0)
(210.798 25.0287 0)
(210.488 26.3956 0)
(210.173 27.8045 0)
(209.859 29.2564 0)
(209.545 30.7543 0)
(209.241 32.2948 0)
(208.947 33.8836 0)
(208.659 35.5277 0)
(208.392 37.2192 0)
(208.152 38.9647 0)
(207.932 40.7676 0)
(207.761 42.63 0)
(207.617 44.5539 0)
(207.531 46.5403 0)
(207.496 48.5929 0)
(207.528 50.7126 0)
(207.638 52.903 0)
(207.832 55.164 0)
(208.137 57.4973 0)
(208.547 59.9017 0)
(209.111 62.379 0)
(209.795 64.9275 0)
(210.684 67.545 0)
(211.708 70.2281 0)
(212.997 72.9663 0)
(214.451 75.7598 0)
(216.231 78.5833 0)
(218.2 81.4519 0)
(220.588 84.3134 0)
(223.157 87.2171 0)
(226.254 90.0417 0)
(229.511 92.8967 0)
(233.375 95.559 0)
(237.396 98.2355 0)
(242.019 100.634 0)
(246.918 102.999 0)
(252.408 105.086 0)
(258.34 106.954 0)
(264.599 108.416 0)
(271.512 109.758 0)
(278.636 110.48 0)
(285.531 110.889 0)
(293.252 110.914 0)
(299.935 110.812 0)
(306.931 110.369 0)
(313.949 109.666 0)
(320.835 108.59 0)
(327.751 107.249 0)
(335.248 105.323 0)
(340.226 102.927 0)
(344.457 100.176 0)
(349.609 97.9357 0)
(359.193 96.4302 0)
(362.544 102.421 0)
(171.066 19.6176 0)
(194.86 -4.00019 0)
(198.659 -3.83698 0)
(201.029 -3.68152 0)
(202.914 -4.03506 0)
(204.186 -4.41092 0)
(204.944 -4.74749 0)
(205.453 -5.00525 0)
(205.854 -5.20254 0)
(206.248 -5.34367 0)
(206.665 -5.41957 0)
(207.104 -5.46176 0)
(207.576 -5.48053 0)
(208.066 -5.46869 0)
(208.539 -5.44263 0)
(208.94 -5.41438 0)
(209.234 -5.38737 0)
(209.433 -5.34647 0)
(209.577 -5.28656 0)
(209.714 -5.21396 0)
(209.88 -5.13244 0)
(210.102 -5.04869 0)
(210.387 -4.96358 0)
(210.717 -4.87598 0)
(211.057 -4.77797 0)
(211.379 -4.6566 0)
(211.669 -4.50657 0)
(211.935 -4.33164 0)
(212.181 -4.13138 0)
(212.411 -3.9062 0)
(212.617 -3.65268 0)
(212.805 -3.37182 0)
(212.968 -3.06213 0)
(213.116 -2.72661 0)
(213.249 -2.36542 0)
(213.372 -1.9797 0)
(213.488 -1.56993 0)
(213.593 -1.13455 0)
(213.684 -0.673078 0)
(213.76 -0.184692 0)
(213.82 0.330455 0)
(213.869 0.871087 0)
(213.907 1.43704 0)
(213.932 2.02753 0)
(213.941 2.64403 0)
(213.938 3.28295 0)
(213.915 3.95108 0)
(213.879 4.64408 0)
(213.827 5.36205 0)
(213.761 6.10533 0)
(213.679 6.87485 0)
(213.579 7.67161 0)
(213.46 8.49626 0)
(213.322 9.34925 0)
(213.165 10.2309 0)
(212.99 11.1413 0)
(212.797 12.0804 0)
(212.587 13.0486 0)
(212.36 14.0463 0)
(212.115 15.0744 0)
(211.854 16.1334 0)
(211.577 17.2239 0)
(211.286 18.3463 0)
(210.979 19.5018 0)
(210.659 20.6917 0)
(210.326 21.9171 0)
(209.98 23.1792 0)
(209.625 24.4791 0)
(209.261 25.8182 0)
(208.891 27.1973 0)
(208.517 28.6185 0)
(208.141 30.0833 0)
(207.766 31.5948 0)
(207.393 33.1539 0)
(207.031 34.7599 0)
(206.682 36.4157 0)
(206.348 38.1271 0)
(206.026 39.8966 0)
(205.746 41.7179 0)
(205.483 43.6042 0)
(205.274 45.5511 0)
(205.102 47.5656 0)
(204.988 49.6459 0)
(204.937 51.7973 0)
(204.956 54.0198 0)
(205.068 56.317 0)
(205.268 58.688 0)
(205.601 61.1362 0)
(206.037 63.6593 0)
(206.654 66.2612 0)
(207.385 68.9395 0)
(208.349 71.696 0)
(209.451 74.5291 0)
(210.844 77.4256 0)
(212.412 80.3873 0)
(214.367 83.3776 0)
(216.505 86.4186 0)
(219.135 89.4334 0)
(221.935 92.4952 0)
(225.323 95.4627 0)
(228.9 98.4732 0)
(233.119 101.27 0)
(237.555 104.038 0)
(242.558 106.493 0)
(247.905 108.841 0)
(253.822 110.872 0)
(260.056 112.562 0)
(266.946 114.129 0)
(274.12 115.173 0)
(281.603 115.882 0)
(289.804 116.055 0)
(296.875 115.834 0)
(305.17 115.217 0)
(311.662 114.972 0)
(319.489 114.001 0)
(325.562 112.945 0)
(330.772 111.112 0)
(335.024 109.224 0)
(340.108 107.859 0)
(349.956 106.115 0)
(352.887 112.121 0)
(173.786 17.0777 0)
(195.831 -3.62112 0)
(199.409 -3.65142 0)
(201.565 -3.49055 0)
(203.262 -3.75133 0)
(204.369 -4.14609 0)
(205.059 -4.52004 0)
(205.561 -4.81597 0)
(205.948 -5.04746 0)
(206.302 -5.21573 0)
(206.679 -5.29422 0)
(207.05 -5.35122 0)
(207.446 -5.38823 0)
(207.897 -5.39169 0)
(208.372 -5.37784 0)
(208.803 -5.35824 0)
(209.134 -5.33884 0)
(209.36 -5.30349 0)
(209.512 -5.2468 0)
(209.637 -5.17489 0)
(209.776 -5.09156 0)
(209.964 -5.00454 0)
(210.214 -4.91478 0)
(210.518 -4.82381 0)
(210.847 -4.72531 0)
(211.165 -4.6061 0)
(211.453 -4.4593 0)
(211.715 -4.28796 0)
(211.954 -4.09208 0)
(212.173 -3.87254 0)
(212.369 -3.62593 0)
(212.545 -3.3525 0)
(212.695 -3.05029 0)
(212.83 -2.7225 0)
(212.947 -2.3686 0)
(213.053 -1.99102 0)
(213.15 -1.58956 0)
(213.237 -1.16326 0)
(213.31 -0.711711 0)
(213.367 -0.233765 0)
(213.409 0.270431 0)
(213.44 0.799389 0)
(213.457 1.35404 0)
(213.463 1.93091 0)
(213.452 2.5343 0)
(213.427 3.16326 0)
(213.386 3.81619 0)
(213.329 4.49394 0)
(213.256 5.1966 0)
(213.168 5.92428 0)
(213.063 6.67732 0)
(212.94 7.45642 0)
(212.798 8.26244 0)
(212.636 9.09606 0)
(212.455 9.95773 0)
(212.253 10.8476 0)
(212.033 11.7655 0)
(211.795 12.7116 0)
(211.54 13.6865 0)
(211.265 14.6908 0)
(210.973 15.7252 0)
(210.663 16.7902 0)
(210.337 17.8865 0)
(209.995 19.0147 0)
(209.637 20.1764 0)
(209.263 21.3726 0)
(208.876 22.6045 0)
(208.475 23.8731 0)
(208.063 25.1797 0)
(207.642 26.5257 0)
(207.212 27.9131 0)
(206.776 29.3433 0)
(206.337 30.8178 0)
(205.897 32.3382 0)
(205.459 33.9076 0)
(205.026 35.5279 0)
(204.602 37.2008 0)
(204.195 38.9252 0)
(203.811 40.707 0)
(203.424 42.5613 0)
(203.095 44.4642 0)
(202.784 46.4407 0)
(202.526 48.4838 0)
(202.313 50.602 0)
(202.159 52.7939 0)
(202.078 55.0645 0)
(202.071 57.4132 0)
(202.175 59.8457 0)
(202.368 62.3596 0)
(202.72 64.9621 0)
(203.168 67.6479 0)
(203.828 70.4216 0)
(204.609 73.2745 0)
(205.658 76.2028 0)
(206.865 79.2042 0)
(208.415 82.2621 0)
(210.127 85.3882 0)
(212.284 88.5388 0)
(214.608 91.7506 0)
(217.483 94.925 0)
(220.541 98.1389 0)
(224.223 101.229 0)
(228.142 104.352 0)
(232.728 107.254 0)
(237.614 110.105 0)
(243.078 112.643 0)
(249.015 115.006 0)
(255.346 116.967 0)
(262.297 118.769 0)
(269.006 119.992 0)
(277.049 121.135 0)
(284.299 121.492 0)
(292.736 121.72 0)
(301.15 121.245 0)
(309.863 120.394 0)
(317.921 118.922 0)
(323.985 117.221 0)
(328.742 115.184 0)
(333.562 114.59 0)
(344.504 113.566 0)
(347.329 121.744 0)
(176.676 14.4106 0)
(196.998 -3.4028 0)
(199.903 -3.1794 0)
(201.908 -3.07518 0)
(203.52 -3.41429 0)
(204.566 -3.87727 0)
(205.234 -4.29096 0)
(205.706 -4.6162 0)
(206.054 -4.86788 0)
(206.359 -5.05604 0)
(206.688 -5.15594 0)
(207.029 -5.21648 0)
(207.382 -5.27217 0)
(207.778 -5.29347 0)
(208.22 -5.29855 0)
(208.652 -5.2968 0)
(209.01 -5.28917 0)
(209.266 -5.26276 0)
(209.435 -5.21158 0)
(209.555 -5.14234 0)
(209.674 -5.06109 0)
(209.83 -4.97465 0)
(210.04 -4.88275 0)
(210.311 -4.78938 0)
(210.62 -4.69063 0)
(210.932 -4.57388 0)
(211.219 -4.43057 0)
(211.478 -4.26258 0)
(211.712 -4.07081 0)
(211.924 -3.85673 0)
(212.112 -3.61735 0)
(212.276 -3.35155 0)
(212.415 -3.05732 0)
(212.536 -2.73725 0)
(212.637 -2.39071 0)
(212.727 -2.02113 0)
(212.806 -1.62747 0)
(212.874 -1.20996 0)
(212.928 -0.767996 0)
(212.966 -0.300037 0)
(212.99 0.193253 0)
(213.003 0.70897 0)
(213 1.25196 0)
(212.984 1.8192 0)
(212.954 2.40975 0)
(212.909 3.02417 0)
(212.848 3.66324 0)
(212.77 4.32687 0)
(212.675 5.01474 0)
(212.564 5.72676 0)
(212.436 6.46329 0)
(212.29 7.22507 0)
(212.125 8.013 0)
(211.939 8.82777 0)
(211.732 9.66983 0)
(211.504 10.5393 0)
(211.257 11.4363 0)
(210.991 12.3607 0)
(210.705 13.3132 0)
(210.4 14.2942 0)
(210.076 15.3047 0)
(209.733 16.3451 0)
(209.372 17.4158 0)
(208.993 18.5178 0)
(208.596 19.6522 0)
(208.182 20.8201 0)
(207.751 22.0229 0)
(207.305 23.2614 0)
(206.844 24.5371 0)
(206.371 25.851 0)
(205.886 27.205 0)
(205.392 28.6005 0)
(204.889 30.0395 0)
(204.381 31.5237 0)
(203.871 33.0548 0)
(203.361 34.6347 0)
(202.855 36.2663 0)
(202.356 37.9524 0)
(201.866 39.6964 0)
(201.395 41.4928 0)
(200.952 43.3524 0)
(200.507 45.2894 0)
(200.12 47.2794 0)
(199.761 49.3463 0)
(199.455 51.4868 0)
(199.204 53.707 0)
(199.013 56.006 0)
(198.913 58.3905 0)
(198.885 60.8581 0)
(198.99 63.4182 0)
(199.175 66.0648 0)
(199.545 68.8108 0)
(200.011 71.649 0)
(200.709 74.5891 0)
(201.536 77.6236 0)
(202.666 80.7461 0)
(203.95 83.9521 0)
(205.646 87.2192 0)
(207.508 90.5635 0)
(209.888 93.9288 0)
(212.453 97.3595 0)
(215.611 100.742 0)
(218.994 104.171 0)
(223.02 107.468 0)
(227.338 110.774 0)
(232.323 113.823 0)
(237.686 116.771 0)
(243.662 119.455 0)
(250.087 121.928 0)
(257.054 123.844 0)
(264.157 125.362 0)
(271.966 126.631 0)
(278.892 127.5 0)
(287.779 128.137 0)
(295.131 128.274 0)
(304.556 127.845 0)
(311.767 126.623 0)
(318.619 124.471 0)
(324.873 122.509 0)
(336.225 120.954 0)
(339.309 128.342 0)
(180.014 11.8245 0)
(198.139 -3.11075 0)
(200.21 -2.76678 0)
(202.181 -2.72666 0)
(203.697 -3.10947 0)
(204.675 -3.60641 0)
(205.341 -4.04997 0)
(205.84 -4.3972 0)
(206.213 -4.66816 0)
(206.518 -4.87298 0)
(206.813 -4.99427 0)
(207.095 -5.07563 0)
(207.397 -5.13043 0)
(207.73 -5.16863 0)
(208.107 -5.19594 0)
(208.511 -5.22173 0)
(208.878 -5.23214 0)
(209.159 -5.21927 0)
(209.348 -5.17535 0)
(209.475 -5.10874 0)
(209.586 -5.02879 0)
(209.715 -4.94071 0)
(209.884 -4.84379 0)
(210.112 -4.74524 0)
(210.394 -4.64418 0)
(210.694 -4.52899 0)
(210.979 -4.38962 0)
(211.236 -4.2255 0)
(211.466 -4.03834 0)
(211.67 -3.82974 0)
(211.849 -3.59785 0)
(212.001 -3.33987 0)
(212.128 -3.05447 0)
(212.234 -2.74263 0)
(212.319 -2.40482 0)
(212.393 -2.04421 0)
(212.453 -1.65929 0)
(212.502 -1.25165 0)
(212.536 -0.82012 0)
(212.556 -0.364381 0)
(212.564 0.114178 0)
(212.553 0.621083 0)
(212.53 1.15105 0)
(212.493 1.70412 0)
(212.443 2.28057 0)
(212.378 2.88077 0)
(212.297 3.50482 0)
(212.198 4.15266 0)
(212.082 4.82409 0)
(211.95 5.519 0)
(211.8 6.23766 0)
(211.631 6.9807 0)
(211.443 7.74897 0)
(211.234 8.54317 0)
(211.003 9.36384 0)
(210.75 10.2112 0)
(210.477 11.0854 0)
(210.183 11.9864 0)
(209.87 12.9144 0)
(209.537 13.8701 0)
(209.183 14.8543 0)
(208.809 15.8675 0)
(208.415 16.9102 0)
(208.002 17.9831 0)
(207.57 19.0872 0)
(207.118 20.2239 0)
(206.648 21.3943 0)
(206.16 22.5993 0)
(205.655 23.8403 0)
(205.135 25.1184 0)
(204.6 26.4352 0)
(204.052 27.7925 0)
(203.491 29.192 0)
(202.921 30.6353 0)
(202.344 32.1244 0)
(201.762 33.6615 0)
(201.177 35.2488 0)
(200.592 36.8886 0)
(200.013 38.584 0)
(199.44 40.3384 0)
(198.877 42.1556 0)
(198.333 44.0317 0)
(197.817 45.9765 0)
(197.306 48.0016 0)
(196.846 50.0936 0)
(196.424 52.2661 0)
(196.05 54.5212 0)
(195.748 56.8656 0)
(195.502 59.297 0)
(195.369 61.8249 0)
(195.298 64.4438 0)
(195.389 67.1699 0)
(195.556 69.9915 0)
(195.929 72.9216 0)
(196.415 75.9457 0)
(197.171 79.07 0)
(198.062 82.2891 0)
(199.316 85.6053 0)
(200.709 89.0217 0)
(202.567 92.5103 0)
(204.588 96.0879 0)
(207.167 99.6915 0)
(209.974 103.369 0)
(213.408 106.995 0)
(217.143 110.653 0)
(221.571 114.148 0)
(226.368 117.629 0)
(231.855 120.831 0)
(237.804 123.938 0)
(244.441 126.678 0)
(251.58 128.961 0)
(259.453 131.047 0)
(267.224 132.383 0)
(275.842 133.441 0)
(283.799 134.342 0)
(292.506 134.711 0)
(299.88 134.476 0)
(306.022 133.215 0)
(311.584 132.373 0)
(323.156 130.852 0)
(325.4 139.16 0)
(183.583 9.45276 0)
(198.948 -2.63712 0)
(200.877 -2.35324 0)
(202.567 -2.50711 0)
(203.901 -2.93149 0)
(204.81 -3.43073 0)
(205.488 -3.85427 0)
(206.015 -4.19309 0)
(206.408 -4.4639 0)
(206.711 -4.66798 0)
(206.964 -4.80247 0)
(207.175 -4.90432 0)
(207.405 -4.97899 0)
(207.702 -5.01814 0)
(208.058 -5.05708 0)
(208.431 -5.11101 0)
(208.775 -5.15184 0)
(209.053 -5.16607 0)
(209.253 -5.14067 0)
(209.389 -5.08673 0)
(209.495 -5.0161 0)
(209.599 -4.93122 0)
(209.727 -4.83117 0)
(209.911 -4.72613 0)
(210.16 -4.62092 0)
(210.444 -4.506 0)
(210.724 -4.37073 0)
(210.979 -4.2108 0)
(211.207 -4.02827 0)
(211.406 -3.82483 0)
(211.579 -3.60014 0)
(211.72 -3.34987 0)
(211.836 -3.07342 0)
(211.927 -2.7696 0)
(211.999 -2.44078 0)
(212.056 -2.0883 0)
(212.096 -1.71161 0)
(212.126 -1.313 0)
(212.143 -0.892783 0)
(212.146 -0.449668 0)
(212.132 0.0205878 0)
(212.102 0.5138 0)
(212.058 1.03071 0)
(212.001 1.57045 0)
(211.93 2.13296 0)
(211.844 2.71847 0)
(211.742 3.32725 0)
(211.623 3.95929 0)
(211.486 4.61439 0)
(211.332 5.29236 0)
(211.16 5.99333 0)
(210.969 6.71782 0)
(210.757 7.46664 0)
(210.524 8.24055 0)
(210.269 9.04013 0)
(209.991 9.86568 0)
(209.692 10.7173 0)
(209.371 11.595 0)
(209.03 12.499 0)
(208.667 13.4298 0)
(208.283 14.3882 0)
(207.877 15.3747 0)
(207.45 16.3899 0)
(207.003 17.4344 0)
(206.535 18.5092 0)
(206.046 19.6153 0)
(205.536 20.7541 0)
(205.005 21.9266 0)
(204.456 23.1338 0)
(203.888 24.377 0)
(203.303 25.6578 0)
(202.701 26.9775 0)
(202.084 28.338 0)
(201.453 29.741 0)
(200.811 31.1884 0)
(200.159 32.682 0)
(199.499 34.2244 0)
(198.834 35.8177 0)
(198.168 37.4647 0)
(197.502 39.1677 0)
(196.842 40.9302 0)
(196.189 42.7562 0)
(195.547 44.6492 0)
(194.925 46.6072 0)
(194.334 48.6382 0)
(193.756 50.7529 0)
(193.219 52.9451 0)
(192.738 55.2211 0)
(192.299 57.5875 0)
(191.952 60.0515 0)
(191.649 62.6093 0)
(191.483 65.2778 0)
(191.37 68.0447 0)
(191.435 70.9328 0)
(191.585 73.9289 0)
(191.963 77.0519 0)
(192.45 80.2893 0)
(193.252 83.652 0)
(194.178 87.124 0)
(195.531 90.7 0)
(197.033 94.3741 0)
(199.06 98.1165 0)
(201.291 101.942 0)
(204.107 105.78 0)
(207.209 109.675 0)
(210.964 113.498 0)
(215.065 117.349 0)
(219.897 121.006 0)
(225.106 124.615 0)
(231.021 127.974 0)
(237.541 131.241 0)
(244.618 133.947 0)
(252.73 136.592 0)
(260.648 138.217 0)
(270.136 139.988 0)
(279.755 140.861 0)
(288.57 140.777 0)
(296.502 139.347 0)
(302.745 138.875 0)
(315.039 138.633 0)
(316.931 149.196 0)
(187.346 7.38836 0)
(200.154 -2.22735 0)
(201.468 -2.01205 0)
(202.73 -2.25765 0)
(203.909 -2.70826 0)
(204.791 -3.22949 0)
(205.5 -3.65094 0)
(206.096 -3.97539 0)
(206.555 -4.24169 0)
(206.905 -4.4422 0)
(207.166 -4.58676 0)
(207.353 -4.70299 0)
(207.53 -4.79501 0)
(207.764 -4.85317 0)
(208.063 -4.90754 0)
(208.399 -4.97167 0)
(208.714 -5.03899 0)
(208.979 -5.08214 0)
(209.183 -5.08096 0)
(209.326 -5.04186 0)
(209.422 -4.97966 0)
(209.499 -4.90037 0)
(209.589 -4.80396 0)
(209.727 -4.6959 0)
(209.935 -4.58668 0)
(210.195 -4.46948 0)
(210.467 -4.33671 0)
(210.719 -4.18097 0)
(210.944 -4.00402 0)
(211.138 -3.80655 0)
(211.305 -3.58923 0)
(211.436 -3.34711 0)
(211.54 -3.07995 0)
(211.616 -2.78524 0)
(211.674 -2.46719 0)
(211.71 -2.12359 0)
(211.733 -1.75694 0)
(211.745 -1.3703 0)
(211.744 -0.96228 0)
(211.727 -0.529078 0)
(211.693 -0.0731285 0)
(211.643 0.40693 0)
(211.578 0.910189 0)
(211.501 1.43574 0)
(211.409 1.98339 0)
(211.302 2.55329 0)
(211.179 3.14574 0)
(211.039 3.76082 0)
(210.882 4.39838 0)
(210.706 5.05819 0)
(210.513 5.74027 0)
(210.3 6.44502 0)
(210.066 7.17317 0)
(209.811 7.92547 0)
(209.532 8.70254 0)
(209.231 9.50474 0)
(208.906 10.3323 0)
(208.56 11.185 0)
(208.192 12.0633 0)
(207.802 12.9673 0)
(207.39 13.898 0)
(206.955 14.8558 0)
(206.498 15.8413 0)
(206.019 16.855 0)
(205.518 17.8979 0)
(204.994 18.9709 0)
(204.448 20.0754 0)
(203.88 21.2123 0)
(203.29 22.3827 0)
(202.679 23.5878 0)
(202.049 24.8289 0)
(201.399 26.1075 0)
(200.731 27.4256 0)
(200.045 28.7846 0)
(199.343 30.1864 0)
(198.627 31.6328 0)
(197.899 33.1264 0)
(197.16 34.6693 0)
(196.413 36.2645 0)
(195.66 37.9141 0)
(194.905 39.6216 0)
(194.149 41.3901 0)
(193.397 43.2237 0)
(192.653 45.1262 0)
(191.92 47.1023 0)
(191.204 49.1514 0)
(190.52 51.28 0)
(189.859 53.4979 0)
(189.222 55.81 0)
(188.665 58.2101 0)
(188.135 60.7101 0)
(187.725 63.3229 0)
(187.345 66.0374 0)
(187.123 68.8779 0)
(186.959 71.8274 0)
(186.992 74.9091 0)
(187.115 78.1043 0)
(187.511 81.4356 0)
(188.01 84.8838 0)
(188.882 88.4707 0)
(189.875 92.1804 0)
(191.343 96.0161 0)
(192.984 99.9715 0)
(195.177 104.016 0)
(197.647 108.162 0)
(200.736 112.33 0)
(204.185 116.564 0)
(208.359 120.713 0)
(212.917 124.891 0)
(218.235 128.827 0)
(223.969 132.65 0)
(230.482 136.185 0)
(237.574 139.294 0)
(245.082 141.936 0)
(253.876 144.732 0)