/*--------------------------------*- C++ -*----------------------------------*\
| =========                 |                                                 |
| \\      /  F ield         | OpenFOAM: The Open Source CFD Toolbox           |
|  \\    /   O peration     | Version:  2412                                  |
|   \\  /    A nd           | Website:  www.openfoam.com                      |
|    \\/     M anipulation  |                                                 |
\*---------------------------------------------------------------------------*/
FoamFile
{
    version     2.0;
    format      ascii;
    arch        "LSB;label=32;scalar=64";
    class       volScalarField;
    location    "0.021";
    object      p;
}
// * * * * * * * * * * * * * * * * * * * * * * * * * * * * * * * * * * * * * //

dimensions      [1 -1 -2 0 0 0 0];

internalField   nonuniform List<scalar> 
78650
(
2790
2790
2790
2790
2790
2790
2790
2790
2790
2790
2790
2790
2790
2790
2790
2790
2790
2790
2790.03
2790.85
2798.01
2819.69
2845.92
2860.46
2861.93
2859.43
2846.95
2831.25
2817.65
2805.54
2794.04
2783.75
2776.15
2772.55
2771.06
2769.93
2768.31
2765.3
2761.41
2758.29
2756.13
2754.23
2752.17
2749.93
2747.7
2745.66
2743.84
2742.28
2740.96
2739.85
2738.89
2737.99
2737.15
2736.4
2735.75
2735.19
2734.69
2734.23
2733.82
2733.44
2733.07
2732.65
2732.14
2731.52
2730.81
2729.97
2728.95
2727.69
2726.12
2724.15
2721.74
2718.84
2715.39
2711.33
2706.58
2701.06
2694.67
2687.32
2678.92
2669.33
2658.44
2646.1
2632.17
2616.49
2598.97
2579.43
2557.78
2533.8
2507.43
2478.34
2446.4
2411.22
2373.47
2332.6
2289.35
2242.3
2192.26
2139.17
2083.41
2026.03
1966.93
1907.38
1847.22
1785.35
1723.16
1662.35
1602.68
1545.21
1488.67
1435.8
1387.81
1345.23
1307.8
1270.29
1233.75
1200.85
1174.02
1150.68
1129.98
1112.05
1074.08
2790
2790
2790
2790
2790
2790
2790
2790
2790
2790
2790
2790
2790
2790
2790
2790
2790
2790
2790.01
2790.47
2795.52
2814.4
2841.85
2859.75
2863.06
2861.69
2851.5
2836.21
2822.15
2809.68
2797.95
2787.33
2779.25
2775.26
2773.79
2772.92
2771.82
2769.42
2765.84
2762.74
2760.63
2758.87
2756.99
2754.88
2752.75
2750.77
2749.03
2747.55
2746.33
2745.35
2744.56
2743.86
2743.24
2742.72
2742.32
2742.01
2741.79
2741.63
2741.52
2741.47
2741.44
2741.39
2741.27
2741.07
2740.79
2740.42
2739.92
2739.21
2738.25
2736.95
2735.24
2733.11
2730.5
2727.35
2723.58
2719.12
2713.9
2707.81
2700.77
2692.67
2683.38
2672.78
2660.73
2647.07
2631.72
2614.5
2595.32
2573.91
2550.11
2523.51
2494.05
2461.6
2426.62
2388.57
2347.82
2303.14
2255.89
2205.53
2152.35
2096.17
2036.86
1975.99
1915.24
1854.43
1793.59
1732.19
1670.01
1611.81
1556.17
1501.4
1449.21
1399.15
1354.37
1313.79
1274.33
1236.5
1203.43
1175.75
1153.1
1133.43
1092.69
2790
2790
2790
2790
2790
2790
2790
2790
2790
2790
2790
2790
2790
2790
2790
2790
2790
2790
2790.01
2790.25
2793.6
2809.27
2836.9
2858.24
2863.72
2863.69
2855.96
2841.27
2826.65
2813.74
2801.82
2790.97
2782.52
2778.09
2776.62
2776
2775.37
2773.6
2770.39
2767.32
2765.23
2763.59
2761.86
2759.88
2757.84
2755.94
2754.27
2752.89
2751.76
2750.93
2750.31
2749.81
2749.43
2749.14
2748.99
2748.96
2749.02
2749.16
2749.36
2749.62
2749.94
2750.25
2750.52
2750.74
2750.89
2750.97
2750.97
2750.8
2750.44
2749.8
2748.78
2747.4
2745.58
2743.3
2740.47
2737.03
2732.9
2728.01
2722.25
2715.52
2707.73
2698.74
2688.42
2676.64
2663.26
2648.13
2631.14
2612.04
2590.74
2566.94
2540.61
2511.62
2480.16
2445.67
2408.31
2367.27
2323.77
2276.69
2226.65
2173.39
2116.62
2056.81
1994.66
1930.7
1866.46
1805.15
1742.84
1678.93
1618.63
1558.84
1503.31
1449.03
1396.75
1351.29
1311.07
1272.49
1234.57
1196.96
1166.32
1141.91
1095.98
2790
2790
2790
2790
2790
2790
2790
2790
2790
2790
2790
2790
2790
2790
2790
2790
2790
2790
2790
2790.12
2792.19
2804.44
2831.12
2855.7
2864.05
2865.71
2860.25
2846.48
2831.26
2817.89
2805.86
2794.88
2786.11
2781.17
2779.63
2779.21
2778.99
2777.86
2775.1
2772.05
2769.94
2768.37
2766.78
2764.93
2762.98
2761.15
2759.57
2758.27
2757.25
2756.56
2756.12
2755.84
2755.7
2755.65
2755.75
2755.99
2756.33
2756.75
2757.25
2757.82
2758.46
2759.13
2759.77
2760.38
2760.95
2761.48
2761.94
2762.3
2762.48
2762.46
2762.12
2761.46
2760.41
2758.95
2757.02
2754.57
2751.5
2747.76
2743.25
2737.88
2731.56
2724.17
2715.59
2705.66
2694.28
2681.29
2666.59
2650
2631.39
2610.46
2587.08
2561.02
2532.25
2500.22
2465.24
2426.84
2385.92
2341.34
2294.01
2243.3
2189.65
2133.51
2074.3
2013.97
1950.18
1883.85
1818.86
1751.21
1687.29
1623.16
1561
1503.98
1446.92
1394.65
1346.2
1303.94
1267.65
1232.88
1199.25
1169.47
1112.47
2790
2790
2790
2790
2790
2790
2790
2790
2790
2790
2790
2790
2790
2790
2790
2790
2790
2790
2790
2790.05
2791.22
2800.17
2824.67
2852.04
2864.09
2867.59
2864.06
2851.55
2835.89
2822.17
2810.12
2799.08
2789.99
2784.5
2782.82
2782.58
2782.67
2782.12
2779.89
2776.93
2774.76
2773.23
2771.75
2770.04
2768.2
2766.45
2764.97
2763.77
2762.87
2762.32
2762.06
2762.03
2762.13
2762.34
2762.69
2763.18
2763.79
2764.5
2765.3
2766.18
2767.14
2768.15
2769.16
2770.15
2771.13
2772.09
2773.02
2773.88
2774.6
2775.13
2775.44
2775.48
2775.18
2774.53
2773.46
2771.93
2769.88
2767.22
2763.89
2759.8
2754.85
2748.94
2741.96
2733.77
2724.25
2713.25
2700.69
2686.38
2670.18
2651.81
2631.16
2607.94
2582.06
2553.19
2521.59
2486.85
2449.27
2407.71
2362.94
2314.35
2262.81
2208.1
2150.19
2089.59
2027.52
1961.58
1897.4
1830.87
1763.91
1700.03
1633.79
1573.54
1514.3
1458.88
1405.17
1352.75
1306.44
1265.82
1231.94
1202.94
1144.83
2790
2790
2790
2790
2790
2790
2790
2790
2790
2790
2790
2790
2790
2790
2790
2790
2790
2790
2790
2790.02
2790.62
2796.63
2817.78
2847.08
2863.77
2869.3
2866.99
2856.52
2840.85
2826.86
2814.77
2803.67
2794.23
2788.18
2786.26
2786.13
2786.41
2786.32
2784.67
2781.87
2779.62
2778.11
2776.75
2775.2
2773.49
2771.84
2770.48
2769.39
2768.62
2768.22
2768.14
2768.37
2768.72
2769.19
2769.79
2770.54
2771.42
2772.41
2773.49
2774.66
2775.94
2777.28
2778.64
2780
2781.36
2782.73
2784.1
2785.43
2786.68
2787.8
2788.7
2789.37
2789.78
2789.9
2789.67
2789.05
2787.97
2786.37
2784.18
2781.31
2777.71
2773.26
2767.86
2761.4
2753.74
2744.74
2734.31
2722.28
2708.51
2692.78
2674.93
2654.66
2631.89
2606.36
2578.25
2547.06
2512.84
2474.77
2433.68
2388.87
2340.82
2288.9
2233.29
2174.25
2112.78
2048.7
1981.5
1915.72
1844.89
1777.61
1707.83
1640.27
1575.81
1513.18
1455.18
1399.6
1347.85
1300.28
1259.71
1225.48
1156.81
2790
2790
2790
2790
2790
2790
2790
2790
2790
2790
2790
2790
2790
2790
2790
2790
2790
2790
2790
2790.01
2790.28
2793.95
2810.94
2840.72
2862.43
2870.51
2869.18
2861.32
2846.25
2831.95
2819.69
2808.5
2798.74
2792.2
2789.87
2789.74
2790.18
2790.46
2789.33
2786.76
2784.47
2783
2781.78
2780.42
2778.88
2777.35
2776.12
2775.16
2774.53
2774.29
2774.44
2774.88
2775.5
2776.23
2777.09
2778.09
2779.23
2780.5
2781.86
2783.32
2784.9
2786.56
2788.27
2789.99
2791.73
2793.5
2795.29
2797.09
2798.84
2800.49
2801.99
2803.31
2804.39
2805.21
2805.76
2805.98
2805.85
2805.25
2804.16
2802.44
2800.09
2796.99
2793.06
2788.18
2782.24
2775.09
2766.63
2756.72
2745.26
2732.02
2716.86
2699.49
2679.81
2657.58
2632.81
2604.96
2574.06
2539.57
2502.15
2460.94
2416.25
2367.59
2315.42
2259.87
2200.31
2138.17
2070.92
2004.46
1932.23
1860.13
1791.14
1718.64
1650.97
1582.5
1519.14
1459.48
1404.02
1352.44
1305.78
1265.53
1184.64
2790
2790
2790
2790
2790
2790
2790
2790
2790
2790
2790
2790
2790
2790
2790
2790
2790
2790
2790
2790
2790.11
2792.12
2804.65
2833.05
2859.49
2870.93
2870.91
2865.99
2852.08
2837.4
2824.87
2813.66
2803.68
2796.63
2793.66
2793.34
2793.88
2794.47
2793.76
2791.54
2789.29
2787.91
2786.86
2785.73
2784.38
2782.99
2781.9
2781.11
2780.65
2780.55
2780.92
2781.59
2782.46
2783.46
2784.57
2785.82
2787.21
2788.74
2790.37
2792.11
2793.97
2795.94
2797.98
2800.05
2802.15
2804.3
2806.49
2808.72
2810.95
2813.12
2815.19
2817.1
2818.84
2820.37
2821.68
2822.7
2823.4
2823.75
2823.74
2823.16
2822.05
2820.25
2817.76
2814.43
2810.18
2804.87
2798.39
2790.6
2781.41
2770.6
2758.05
2743.48
2726.73
2707.56
2685.87
2661.22
2633.72
2602.95
2569.21
2531.55
2490.29
2444.98
2395.89
2342.97
2286.01
2225.65
2163
2095.22
2027.21
1954.06
1884.59
1808.59
1735.53
1662.15
1591.45
1525.53
1463.18
1407.17
1356.78
1313.97
1232.14
2790
2790
2790
2790
2790
2790
2790
2790
2790
2790
2790
2790
2790
2790
2790
2790
2790
2790
2790
2790
2790.04
2791.01
2799.38
2824.56
2854.56
2870.55
2872.76
2870.12
2857.88
2843.08
2830.36
2819.17
2808.95
2801.27
2797.44
2796.78
2797.36
2798.32
2798
2796.24
2794.13
2792.85
2791.99
2791.13
2790.04
2788.82
2787.88
2787.25
2786.98
2787.06
2787.59
2788.49
2789.62
2790.88
2792.23
2793.72
2795.36
2797.14
2799.04
2801.04
2803.18
2805.44
2807.8
2810.21
2812.66
2815.17
2817.76
2820.41
2823.09
2825.76
2828.37
2830.87
2833.23
2835.43
2837.44
2839.25
2840.81
2842.05
2842.93
2843.41
2843.48
2842.93
2841.78
2839.88
2837.18
2833.55
2828.89
2823.06
2815.98
2807.47
2797.4
2785.52
2771.67
2755.6
2737.22
2716.18
2692.55
2665.82
2636
2602.26
2565.02
2523.8
2478.72
2429.6
2376.25
2318.95
2257.19
2191.55
2123.53
2052.15
1977.11
1901.64
1824.6
1749.77
1672.37
1598.86
1525.53
1458.65
1397.88
1347.01
1244.35
2790
2790
2790
2790
2790
2790
2790
2790
2790
2790
2790
2790
2790
2790
2790
2790
2790
2790
2790
2790
2790.01
2790.42
2795.42
2815.92
2847.64
2869.12
2874.39
2873.17
2863.59
2849.25
2836.32
2824.95
2814.34
2805.89
2801.07
2800.01
2800.64
2802.09
2802.22
2800.98
2799.04
2797.85
2797.22
2796.67
2795.9
2794.89
2794.1
2793.64
2793.51
2793.81
2794.49
2795.6
2796.96
2798.46
2800.06
2801.77
2803.63
2805.65
2807.79
2810.05
2812.45
2814.99
2817.64
2820.38
2823.17
2826.03
2828.99
2832.03
2835.15
2838.29
2841.41
2844.47
2847.42
2850.25
2852.95
2855.49
2857.83
2859.94
2861.78
2863.26
2864.34
2864.98
2865.14
2864.66
2863.51
2861.53
2858.65
2854.74
2849.72
2843.44
2835.77
2826.47
2815.41
2802.32
2787.09
2769.42
2749.29
2726.15
2700.01
2670.22
2637.19
2600.24
2559.41
2514.24
2464.43
2410.47
2351.88
2289.26
2222.47
2153.26
2076.43
2001.5
1921.77
1844.93
1764.85
1691.09
1616.42
1546.88
1481.64
1424.61
1311.86
2790
2790
2790
2790
2790
2790
2790
2790
2790
2790
2790
2790
2790
2790
2790
2790
2790
2790
2790
2790
2790
2790.15
2792.78
2807.91
2839.13
2866.09
2874.9
2875.55
2869.25
2855.86
2842.4
2830.52
2819.53
2810.46
2804.73
2803.23
2803.84
2805.83
2806.53
2805.72
2804.04
2802.95
2802.56
2802.36
2801.94
2801.19
2800.56
2800.28
2800.3
2800.76
2801.6
2802.89
2804.47
2806.2
2808.02
2809.94
2812.01
2814.25
2816.63
2819.13
2821.78
2824.58
2827.52
2830.57
2833.69
2836.89
2840.2
2843.63
2847.15
2850.74
2854.36
2857.94
2861.47
2864.9
2868.25
2871.48
2874.57
2877.5
2880.19
2882.63
2884.76
2886.48
2887.76
2888.55
2888.81
2888.38
2887.16
2885.05
2881.93
2877.71
2872.29
2865.46
2857.08
2846.9
2834.77
2820.43
2803.77
2784.32
2762.06
2736.48
2707.79
2675.21
2638.8
2598.09
2552.98
2503.57
2449.23
2390.71
2327.15
2258.48
2186.41
2109.21
2030.6
1946.27
1860.5
1775.23
1693.08
1616.14
1545.12
1484.83
1367.46
2790
2790
2790
2790
2790
2790
2790
2790
2790
2790
2790
2790
2790
2790
2790
2790
2790
2790
2790
2790
2790
2790.05
2791.25
2801.24
2829.45
2860.95
2874.47
2878.03
2874.49
2862.4
2848.2
2835.83
2824.71
2815.22
2808.69
2806.64
2807.07
2809.5
2810.88
2810.51
2809.21
2808.24
2808.06
2808.19
2808.11
2807.67
2807.22
2807.09
2807.32
2807.91
2808.9
2810.34
2812.1
2814.03
2816.04
2818.16
2820.42
2822.86
2825.46
2828.2
2831.08
2834.12
2837.34
2840.68
2844.11
2847.64
2851.29
2855.08
2858.99
2863
2867.08
2871.16
2875.23
2879.24
2883.19
2887.08
2890.88
2894.56
2898.09
2901.43
2904.51
2907.3
2909.74
2911.75
2913.28
2914.27
2914.65
2914.31
2913.06
2910.88
2907.59
2903.1
2897.22
2889.76
2880.54
2869.33
2856.01
2840.19
2821.87
2800.54
2776.21
2748.04
2716.14
2680
2639.5
2594.43
2544.2
2489.41
2429.08
2363.9
2293.63
2219.34
2142.66
2057.1
1972.81
1884.81
1798.29
1710.95
1627.49
1555
1412.35
2790
2790
2790
2790
2790
2790
2790
2790
2790
2790
2790
2790
2790
2790
2790
2790
2790
2790
2790
2790
2790
2790.01
2790.49
2796.33
2819.49
2853.64
2873.44
2880.23
2878.18
2868.34
2853.95
2841.27
2830.09
2820.23
2812.98
2810.18
2810.29
2812.93
2815.26
2815.42
2814.61
2813.73
2813.64
2814.12
2814.39
2814.22
2813.99
2814.02
2814.45
2815.19
2816.3
2817.85
2819.75
2821.85
2824.05
2826.35
2828.8
2831.44
2834.25
2837.21
2840.32
2843.61
2847.08
2850.7
2854.44
2858.29
2862.27
2866.4
2870.68
2875.1
2879.61
2884.17
2888.75
2893.31
2897.84
2902.34
2906.81
2911.21
2915.51
2919.68
2923.66
2927.42
2930.9
2934.06
2936.84
2939.15
2940.92
2942.07
2942.55
2942.27
2941.01
2938.74
2935.22
2930.36
2923.96
2915.84
2905.84
2893.61
2879.07
2861.67
2841.38
2817.5
2790.24
2758.96
2723.54
2683.62
2638.73
2588.92
2533.11
2472.6
2406.68
2335.19
2257.49
2175.45
2089.67
1999.3
1910.21
1821.91
1737.65
1662.05
1515.5
2790
2790
2790
2790
2790
2790
2790
2790
2790
2790
2790
2790
2790
2790
2790
2790
2790
2790
2790
2790
2790
2790
2790.17
2793.18
2810.32
2844.45
2871.23
2881.32
2880.63
2873.81
2859.99
2846.98
2835.61
2825.37
2817.49
2813.81
2813.57
2816.26
2819.7
2820.58
2820.16
2819.36
2819.27
2820.04
2820.74
2820.83
2820.82
2821
2821.57
2822.44
2823.66
2825.3
2827.32
2829.58
2831.96
2834.46
2837.09
2839.91
2842.92
2846.09
2849.43
2852.94
2856.66
2860.55
2864.58
2868.73
2873.02
2877.48
2882.12
2886.91
2891.83
2896.83
2901.89
2906.97
2912.05
2917.13
2922.21
2927.28
2932.3
2937.25
2942.08
2946.76
2951.23
2955.45
2959.38
2962.96
2966.13
2968.79
2970.83
2972.2
2972.85
2972.73
2971.46
2969.08
2965.27
2959.98
2953.01
2944.09
2933.1
2919.58
2903.48
2884.21
2861.84
2835.58
2805.36
2770.62
2730.89
2686.11
2635.61
2580.03
2517.8
2449.72
2375.53
2295.66
2210.26
2118.76
2021.88
1921.05
1823.67
1737.85
1573.04
2790
2790
2790
2790
2790
2790
2790
2790
2790
2790
2790
2790
2790
2790
2790
2790
2790
2790
2790
2790
2790
2790
2790.05
2791.42
2802.83
2834.16
2866.74
2881.34
2882.56
2878.8
2866.16
2852.63
2840.93
2830.47
2822.15
2817.65
2817.07
2819.57
2824.06
2825.77
2825.6
2824.91
2824.78
2825.74
2826.92
2827.32
2827.48
2827.78
2828.47
2829.48
2830.8
2832.53
2834.68
2837.1
2839.68
2842.37
2845.19
2848.19
2851.4
2854.79
2858.34
2862.08
2866.03
2870.19
2874.5
2878.95
2883.55
2888.33
2893.3
2898.45
2903.75
2909.18
2914.69
2920.26
2925.85
2931.48
2937.14
2942.83
2948.53
2954.2
2959.82
2965.34
2970.72
2975.92
2980.91
2985.63
2990.03
2994.04
2997.59
3000.59
3002.91
3004.53
3005.35
3005.37
3004.04
3001.52
2997.45
2991.75
2984.21
2974.45
2962.36
2947.38
2929.53
2908.04
2882.9
2853.41
2819.29
2780.36
2736
2686.19
2629.43
2566.76
2497.74
2422.91
2341.43
2253.13
2158.75
2065.03
1962.48
1871.08
1693.88
2790
2790
2790
2790
2790
2790
2790
2790
2790
2790
2790
2790
2790
2790
2790
2790
2790
2790
2790
2790
2790
2790
2790.01
2790.56
2797.4
2823.8
2859.95
2880.29
2884.75
2882.81
2871.82
2857.99
2846.11
2835.68
2827.05
2821.78
2820.71
2822.75
2827.99
2830.63
2830.72
2830.23
2830.04
2831.13
2832.76
2833.52
2833.84
2834.26
2835.06
2836.21
2837.66
2839.51
2841.79
2844.39
2847.16
2850.06
2853.07
2856.26
2859.65
2863.25
2867.01
2870.97
2875.16
2879.56
2884.15
2888.88
2893.78
2898.86
2904.14
2909.63
2915.29
2921.11
2927.05
2933.06
2939.14
2945.28
2951.48
2957.74
2964.06
2970.4
2976.74
2983.04
2989.26
2995.38
3001.35
3007.14
3012.7
3017.97
3022.89
3027.37
3031.37
3034.79
3037.47
3039.37
3040.38
3040.48
3039.11
3036.42
3032.03
3025.76
3017.47
3006.68
2993.34
2976.71
2956.75
2932.64
2904.27
2871.17
2832.52
2788.04
2736.92
2680.01
2615.7
2544.02
2464.22
2377.96
2284.58
2188
2079.34
1986.23
1815.63
2790
2790
2790
2790
2790
2790
2790
2790
2790
2790
2790
2790
2790
2790
2790
2790
2790
2790
2790
2790
2790
2790
2790
2790.2
2793.92
2814.36
2851.57
2878.25
2886.37
2885.41
2876.83
2863.31
2851.36
2841.01
2831.96
2825.84
2824.11
2825.55
2831.23
2834.98
2835.52
2835.25
2835.04
2836.18
2838.21
2839.35
2839.85
2840.38
2841.3
2842.58
2844.17
2846.15
2848.58
2851.36
2854.34
2857.44
2860.66
2864.03
2867.6
2871.4
2875.38
2879.56
2883.97
2888.62
2893.47
2898.49
2903.67
2909.04
2914.63
2920.44
2926.45
2932.64
2938.97
2945.42
2951.95
2958.56
2965.26
2972.06
2978.94
2985.91
2992.91
2999.93
3006.93
3013.88
3020.75
3027.5
3034.1
3040.52
3046.67
3052.51
3057.96
3062.95
3067.42
3071.28
3074.32
3076.51
3077.71
3077.91
3076.56
3073.69
3068.97
3062.06
3052.86
3040.71
3025.61
3006.75
2984.12
2956.94
2924.58
2886.84
2842.93
2792.83
2734.99
2670.01
2597
2516.55
2426.77
2329.47
2222.5
2117.64
1932.84
2790
2790
2790
2790
2790
2790
2790
2790
2790
2790
2790
2790
2790
2790
2790
2790
2790
2790
2790
2790
2790
2790
2790
2790.07
2791.92
2806.58
2842.4
2875.09
2886.79
2887.28
2881.47
2868.75
2856.6
2846
2836.39
2829.53
2827.15
2828.07
2833.96
2838.98
2840.19
2840.1
2839.9
2841.03
2843.38
2844.87
2845.54
2846.17
2847.18
2848.61
2850.34
2852.46
2855.04
2858.02
2861.21
2864.53
2867.94
2871.49
2875.25
2879.23
2883.43
2887.83
2892.46
2897.35
2902.46
2907.76
2913.21
2918.87
2924.74
2930.85
2937.18
2943.71
2950.41
2957.25
2964.2
2971.25
2978.41
2985.69
2993.1
3000.62
3008.23
3015.9
3023.61
3031.32
3039.01
3046.65
3054.21
3061.66
3068.95
3076.02
3082.82
3089.28
3095.34
3100.91
3105.91
3110.23
3113.66
3116.17
3117.58
3117.87
3116.44
3113.25
3108.02
3100.33
3090.13
3076.61
3059.72
3038.48
3012.53
2981.41
2944.21
2900.56
2849.24
2790.72
2723.73
2648.7
2563.37
2470.59
2368.53
2265.47
2092.99
2790
2790
2790
2790
2790
2790
2790
2790
2790
2790
2790
2790
2790
2790
2790
2790
2790
2790
2790
2790
2790
2790
2790
2790.02
2790.9
2800.77
2833.26
2870.61
2886.24
2889.25
2885.81
2873.99
2861.23
2850.26
2840.28
2832.96
2830.04
2830.61
2836.5
2842.85
2844.82
2844.87
2844.68
2845.74
2848.31
2850.12
2850.95
2851.67
2852.78
2854.34
2856.22
2858.49
2861.23
2864.4
2867.8
2871.33
2874.93
2878.65
2882.59
2886.76
2891.16
2895.77
2900.63
2905.75
2911.11
2916.66
2922.39
2928.31
2934.46
2940.85
2947.48
2954.33
2961.36
2968.56
2975.9
2983.36
2990.95
2998.68
3006.57
3014.6
3022.77
3031.03
3039.38
3047.78
3056.22
3064.65
3073.08
3081.45
3089.76
3097.93
3105.93
3113.7
3121.18
3128.31
3135.02
3141.2
3146.75
3151.57
3155.43
3158.29
3159.94
3160.31
3158.81
3155.29
3149.46
3140.68
3128.89
3113.16
3093.35
3068.67
3038.23
3001.64
2957.92
2907
2847.24
2778.23
2697.96
2609.07
2505.75
2399.52
2230.68
2790
2790
2790
2790
2790
2790
2790
2790
2790
2790
2790
2790
2790
2790
2790
2790
2790
2790
2790
2790
2790
2790
2790
2790.01
2790.41
2796.81
2824.89
2865.15
2885.27
2891.44
2889.26
2878.33
2865.16
2853.95
2843.84
2836.29
2832.96
2833.29
2839.06
2846.62
2849.37
2849.53
2849.33
2850.34
2853.08
2855.2
2856.22
2857.03
2858.22
2859.91
2861.94
2864.35
2867.24
2870.58
2874.19
2877.9
2881.68
2885.58
2889.67
2894.02
2898.61
2903.43
2908.49
2913.83
2919.42
2925.22
2931.19
2937.37
2943.77
2950.43
2957.33
2964.47
2971.82
2979.35
2987.04
2994.87
3002.85
3011
3019.31
3027.81
3036.47
3045.27
3054.19
3063.21
3072.31
3081.47
3090.66
3099.88
3109.08
3118.24
3127.32
3136.26
3145.02
3153.56
3161.8
3169.66
3177.06
3183.89
3190.06
3195.44
3199.77
3202.96
3204.8
3205.19
3203.47
3199.38
3192.69
3182.69
3169.25
3151.33
3128.31
3099.62
3064.07
3021.22
2969.63
2908.76
2837.74
2756.29
2661.5
2557.71
2402.02
2790
2790
2790
2790
2790
2790
2790
2790
2790
2790
2790
2790
2790
2790
2790
2790
2790
2790
2790
2790
2790
2790
2790
2790
2790.19
2794.3
2817.85
2859.34
2884.4
2893.15
2891.66
2881.97
2868.58
2857.24
2847.18
2839.57
2835.87
2835.98
2841.59
2850.2
2853.68
2854
2853.84
2854.9
2857.81
2860.27
2861.5
2862.41
2863.68
2865.47
2867.63
2870.15
2873.17
2876.66
2880.43
2884.31
2888.25
2892.29
2896.53
2901.04
2905.8
2910.81
2916.07
2921.6
2927.41
2933.43
2939.63
2946.04
2952.68
2959.58
2966.73
2974.14
2981.77
2989.61
2997.62
3005.79
3014.13
3022.65
3031.36
3040.27
3049.38
3058.66
3068.1
3077.68
3087.37
3097.17
3107.06
3117.01
3127.02
3137.05
3147.08
3157.06
3166.94
3176.71
3186.3
3195.64
3204.67
3213.3
3221.46
3229.02
3235.85
3241.83
3246.63
3250.19
3252.24
3252.66
3250.68
3245.99
3238.17
3226.32
3210.02
3188.38
3160.22
3125.13
3081.56
3028.88
2965.38
2888.66
2799.4
2693.71
2551.67
2790
2790
2790
2790
2790
2790
2790
2790
2790
2790
2790
2790
2790
2790
2790
2790
2790
2790
2790
2790
2790
2790
2790
2790
2790.1
2792.79
2812.4
2853.87
2883.63
2894.34
2893.38
2884.92
2871.57
2860.24
2850.3
2842.65
2838.54
2838.45
2844.05
2853.57
2857.74
2858.3
2858.29
2859.49
2862.65
2865.47
2866.93
2867.93
2869.26
2871.13
2873.37
2875.97
2879.07
2882.67
2886.57
2890.59
2894.67
2898.84
2903.21
2907.86
2912.79
2917.96
2923.39
2929.1
2935.1
2941.32
2947.73
2954.35
2961.2
2968.32
2975.71
2983.36
2991.25
2999.35
3007.66
3016.14
3024.8
3033.65
3042.71
3052
3061.5
3071.22
3081.11
3091.18
3101.41
3111.77
3122.27
3132.87
3143.58
3154.38
3165.24
3176.13
3187
3197.84
3208.61
3219.26
3229.72
3239.92
3249.82
3259.31
3268.3
3276.65
3284.2
3290.84
3296.14
3300.05
3302.23
3302.54
3299.94
3294.18
3284.6
3270.42
3250.58
3224.52
3190.21
3147.1
3092.49
3024.65
2944.41
2845.36
2712.84
2790
2790
2790
2790
2790
2790
2790
2790
2790
2790
2790
2790
2790
2790
2790
2790
2790
2790
2790
2790
2790
2790
2790
2790
2790.06
2791.94
2808.52
2849.3
2882.77
2895.23
2894.7
2887.3
2874.17
2862.9
2853.05
2845.29
2840.85
2840.61
2846.49
2856.82
2861.62
2862.49
2862.71
2864.14
2867.63
2870.81
2872.49
2873.58
2874.94
2876.84
2879.13
2881.77
2884.93
2888.61
2892.62
2896.75
2900.95
2905.25
2909.74
2914.51
2919.58
2924.9
2930.48
2936.35
2942.5
2948.9
2955.5
2962.3
2969.34
2976.66
2984.25
2992.12
3000.24
3008.59
3017.16
3025.92
3034.86
3044.02
3053.39
3063.01
3072.87
3082.97
3093.27
3103.77
3114.46
3125.33
3136.36
3147.54
3158.87
3170.33
3181.91
3193.59
3205.32
3217.1
3228.89
3240.66
3252.35
3263.92
3275.32
3286.48
3297.33
3307.75
3317.64
3326.84
3335.17
3342.51
3348.33
3352.62
3354.99
3355.27
3351.99
3345.09
3333.15
3315.92
3291.2
3258.55
3213.87
3155.31
3081.43
2987.81
2862.92
2790
2790
2790
2790
2790
2790
2790
2790
2790
2790
2790
2790
2790
2790
2790
2790
2790
2790
2790
2790
2790
2790
2790
2790
2790.04
2791.48
2806.02
2845.98
2882.12
2895.92
2895.84
2889.19
2876.33
2865.1
2855.29
2847.37
2842.8
2842.5
2849.03
2860.12
2865.41
2866.56
2867.06
2868.76
2872.63
2876.14
2877.98
2879.12
2880.5
2882.44
2884.76
2887.44
2890.65
2894.42
2898.53
2902.78
2907.1
2911.51
2916.12
2921.01
2926.19
2931.64
2937.35
2943.35
2949.64
2956.19
2962.95
2969.91
2977.12
2984.62
2992.4
3000.46
3008.79
3017.37
3026.16
3035.17
3044.38
3053.8
3063.46
3073.37
3083.55
3093.97
3104.64
3115.52
3126.62
3137.93
3149.42
3161.11
3172.97
3185.01
3197.21
3209.57
3222.04
3234.62
3247.28
3260.01
3272.76
3285.49
3298.17
3310.76
3323.2
3335.4
3347.28
3358.71
3369.6
3379.76
3388.98
3397.11
3403.53
3408.24
3410.65
3410.52
3405.5
3396.32
3380.43
3357.72
3323.79
3277.16
3212.52
3127.35
3010.96
2790
2790
2790
2790
2790
2790
2790
2790
2790
2790
2790
2790
2790
2790
2790
2790
2790
2790
2790
2790
2790
2790
2790
2790
2790.03
2791.31
2804.78
2844.21
2881.99
2896.61
2896.95
2890.61
2877.94
2866.74
2856.91
2848.94
2844.53
2844.31
2851.85
2863.58
2869.15
2870.47
2871.21
2873.17
2877.42
2881.13
2883.06
2884.24
2885.67
2887.68
2890.07
2892.82
2896.14
2900.03
2904.28
2908.66
2913.1
2917.63
2922.34
2927.33
2932.62
2938.17
2943.99
2950.1
2956.51
2963.19
2970.08
2977.19
2984.55
2992.2
3000.15
3008.39
3016.91
3025.68
3034.68
3043.91
3053.35
3063.01
3072.92
3083.1
3093.55
3104.28
3115.26
3126.48
3137.93
3149.62
3161.52
3173.64
3185.97
3198.51
3211.25
3224.18
3237.29
3250.56
3263.97
3277.51
3291.16
3304.88
3318.65
3332.43
3346.21
3359.9
3373.46
3386.8
3399.83
3412.4
3424.41
3435.65
3445.87
3454.89
3461.92
3467.03
3469.36
3468.5
3462.33
3450.96
3429.96
3397.44
3343.21
3268.94
3157.03
2790
2790
2790
2790
2790
2790
2790
2790
2790
2790
2790
2790
2790
2790
2790
2790
2790
2790
2790
2790
2790
2790
2790
2790
2790.03
2791.28
2804.58
2843.98
2882.41
2897.44
2897.96
2891.53
2878.94
2867.74
2857.96
2850.15
2846.19
2846.26
2855.09
2867.27
2872.83
2874.18
2875.04
2877.22
2881.76
2885.56
2887.52
2888.75
2890.29
2892.43
2894.95
2897.85
2901.33
2905.41
2909.83
2914.36
2918.93
2923.57
2928.39
2933.47
2938.85
2944.5
2950.41
2956.62
2963.14
2969.92
2976.94
2984.17
2991.66
2999.46
3007.56
3015.96
3024.64
3033.59
3042.78
3052.2
3061.85
3071.73
3081.87
3092.28
3102.98
3113.97
3125.23
3136.75
3148.52
3160.54
3172.8
3185.3
3198.04
3211.01
3224.21
3237.65
3251.3
3265.16
3279.21
3293.45
3307.85
3322.41
3337.09
3351.89
3366.78
3381.72
3396.68
3411.59
3426.39
3440.99
3455.31
3469.18
3482.5
3495.04
3506.53
3516.62
3524.53
3529.99
3532.13
3529.83
3520.23
3501.57
3461.92
3407.12
3305.49
2790
2790
2790
2790
2790
2790
2790
2790
2790
2790
2790
2790
2790
2790
2790
2790
2790
2790
2790
2790
2790
2790
2790
2790
2790.03
2791.34
2805.13
2845.28
2883.62
2898.41
2898.77
2891.9
2879.27
2868.1
2858.5
2851.15
2847.86
2848.53
2858.9
2871.21
2876.43
2877.61
2878.5
2880.91
2885.67
2889.42
2891.35
2892.65
2894.37
2896.71
2899.41
2902.52
2906.24
2910.54
2915.16
2919.85
2924.55
2929.3
2934.22
2939.4
2944.86
2950.6
2956.6
2962.89
2969.5
2976.39
2983.51
2990.85
2998.47
3006.39
3014.63
3023.18
3032.02
3041.12
3050.48
3060.08
3069.91
3079.99
3090.33
3100.96
3111.89
3123.12
3134.63
3146.41
3158.47
3170.78
3183.36
3196.2
3209.29
3222.64
3236.25
3250.12
3264.25
3278.61
3293.21
3308.04
3323.1
3338.36
3353.82
3369.47
3385.29
3401.28
3417.4
3433.61
3449.87
3466.14
3482.35
3498.4
3514.23
3529.64
3544.51
3558.53
3571.38
3582.47
3591.2
3597.02
3599.13
3593.79
3572.46
3539.37
3462.46
2790
2790
2790
2790
2790
2790
2790
2790
2790
2790
2790
2790
2790
2790
2790
2790
2790
2790
2790
2790
2790
2790
2790
2790
2790.04
2791.58
2806.84
2848.22
2885.56
2899.51
2899.41
2891.8
2879
2867.83
2858.51
2851.99
2849.51
2851.3
2863.33
2875.33
2879.95
2880.83
2881.73
2884.44
2889.34
2892.93
2894.79
2896.18
2898.1
2900.66
2903.58
2906.92
2910.91
2915.46
2920.28
2925.13
2929.95
2934.81
2939.83
2945.1
2950.65
2956.47
2962.55
2968.93
2975.62
2982.6
2989.81
2997.26
3004.99
3013.03
3021.4
3030.08
3039.06
3048.32
3057.83
3067.59
3077.6
3087.86
3098.39
3109.22
3120.35
3131.8
3143.54
3155.57
3167.88
3180.46
3193.33
3206.47
3219.88
3233.57
3247.54
3261.8
3276.33
3291.14
3306.22
3321.57
3337.18
3353.05
3369.17
3385.54
3402.16
3419.02
3436.1
3453.39
3470.86
3488.48
3506.22
3524.03
3541.85
3559.59
3577.16
3594.39
3611.12
3627.01
3641.69
3654.21
3664.33
3669.76
3668.01
3651.95
3613.35
2790
2790
2790
2790
2790
2790
2790
2790
2790
2790
2790
2790
2790
2790
2790
2790
2790
2790
2790
2790
2790
2790
2790
2790
2790.06
2792.09
2809.67
2852.48
2887.88
2900.62
2899.9
2891.23
2878.2
2867.04
2858.1
2852.61
2851.09
2854.67
2868.3
2879.55
2883.41
2883.93
2884.89
2888.01
2892.96
2896.32
2898.08
2899.56
2901.69
2904.44
2907.56
2911.13
2915.38
2920.17
2925.17
2930.15
2935.09
2940.06
2945.17
2950.55
2956.19
2962.1
2968.26
2974.73
2981.51
2988.57
2995.87
3003.41
3011.25
3019.4
3027.89
3036.7
3045.81
3055.2
3064.86
3074.77
3084.93
3095.36
3106.07
3117.08
3128.41
3140.06
3152.02
3164.27
3176.82
3189.66
3202.78
3216.2
3229.9
3243.9
3258.21
3272.81
3287.72
3302.93
3318.44
3334.24
3350.35
3366.75
3383.44
3400.43
3417.72
3435.31
3453.2
3471.38
3489.84
3508.56
3527.52
3546.72
3566.11
3585.67
3605.32
3625.02
3644.58
3663.9
3682.67
3700.59
3717.27
3730.99
3741.63
3742.72
3738.15
2790
2790
2790
2790
2790
2790
2790
2790
2790
2790
2790
2790
2790
2790
2790
2790
2790
2790
2790
2790
2790
2790
2790
2790
2790.11
2792.96
2813.74
2857.86
2890.33
2901.57
2900.22
2890.27
2876.99
2865.86
2857.42
2852.95
2852.61
2858.64
2873.56
2883.68
2886.73
2886.99
2888.1
2891.7
2896.6
2899.68
2901.33
2902.92
2905.24
2908.15
2911.42
2915.21
2919.7
2924.69
2929.83
2934.93
2939.96
2945.03
2950.25
2955.72
2961.47
2967.46
2973.71
2980.27
2987.14
2994.28
3001.66
3009.3
3017.23
3025.5
3034.1
3043.03
3052.27
3061.79
3071.58
3081.63
3091.94
3102.52
3113.4
3124.58
3136.1
3147.94
3160.1
3172.56
3185.32
3198.39
3211.76
3225.43
3239.4
3253.68
3268.29
3283.21
3298.45
3314.01
3329.9
3346.11
3362.65
3379.51
3396.7
3414.22
3432.08
3450.3
3468.86
3487.76
3507.02
3526.61
3546.54
3566.8
3587.37
3608.27
3629.4
3650.8
3672.32
3693.97
3715.44
3736.7
3757.09
3776.59
3793.22
3804.23
3816.61
2790
2790
2790
2790
2790
2790
2790
2790
2790
2790
2790
2790
2790
2790
2790
2790
2790
2790
2790
2790
2790
2790
2790
2790
2790.19
2794.35
2819.1
2864.03
2892.72
2902.07
2900.18
2888.95
2875.5
2864.46
2856.78
2853.12
2854.07
2863.19
2878.78
2887.5
2889.72
2889.91
2891.33
2895.43
2900.14
2902.9
2904.47
2906.19
2908.7
2911.74
2915.16
2919.15
2923.85
2929
2934.26
2939.44
2944.56
2949.72
2955.06
2960.64
2966.49
2972.57
2978.92
2985.56
2992.51
2999.73
3007.19
3014.91
3022.94
3031.31
3040.02
3049.07
3058.42
3068.06
3077.97
3088.15
3098.61
3109.34
3120.37
3131.73
3143.42
3155.45
3167.8
3180.46
3193.43
3206.71
3220.31
3234.21
3248.44
3262.98
3277.86
3293.07
3308.62
3324.51
3340.73
3357.3
3374.22
3391.48
3409.09
3427.06
3445.41
3464.12
3483.23
3502.71
3522.58
3542.84
3563.47
3584.5
3605.88
3627.65
3649.72
3672.15
3694.75
3717.58
3740.34
3763.04
3784.78
3805.8
3823.97
3838.7
3852.29
2790
2790
2790
2790
2790
2790
2790
2790
2790
2790
2790
2790
2790
2790
2790
2790
2790
2790
2790
2790
2790
2790
2790
2790.01
2790.36
2796.49
2825.74
2870.55
2895.02
2902.06
2899.62
2887.24
2873.83
2863.06
2856.34
2853.53
2855.87
2868.14
2883.56
2890.77
2892.21
2892.54
2894.53
2899.08
2903.47
2905.87
2907.41
2909.3
2912.01
2915.18
2918.75
2922.95
2927.84
2933.11
2938.43
2943.67
2948.85
2954.11
2959.55
2965.26
2971.21
2977.4
2983.84
2990.58
2997.61
3004.91
3012.44
3020.25
3028.37
3036.84
3045.66
3054.81
3064.26
3074.02
3084.05
3094.35
3104.93
3115.8
3126.98
3138.5
3150.35
3162.55
3175.07
3187.92
3201.08
3214.56
3228.37
3242.49
3256.94
3271.73
3286.85
3302.33
3318.15
3334.32
3350.85
3367.73
3384.98
3402.58
3420.55
3438.89
3457.62
3476.74
3496.25
3516.15
3536.46
3557.14
3578.22
3599.67
3621.49
3643.65
3666.08
3688.77
3711.59
3734.48
3756.98
3779.17
3800.13
3820.24
3835.98
3847.4
3857.17
2790
2790
2790
2790
2790
2790
2790
2790
2790
2790
2790
2790
2790
2790
2790
2790
2790
2790
2790
2790
2790
2790
2790
2790.02
2790.69
2799.59
2833.46
2876.95
2897.29
2901.76
2898.03
2885.05
2872.02
2861.84
2856.09
2854.39
2858.77
2873.57
2887.77
2893.45
2894.25
2894.85
2897.57
2902.47
2906.49
2908.57
2910.12
2912.22
2915.13
2918.44
2922.19
2926.6
2931.67
2937.02
2942.37
2947.63
2952.87
2958.21
2963.77
2969.59
2975.65
2981.93
2988.47
2995.3
3002.42
3009.79
3017.4
3025.29
3033.51
3042.08
3051
3060.24
3069.8
3079.66
3089.8
3100.22
3110.92
3121.92
3133.25
3144.91
3156.92
3169.28