/*--------------------------------*- C++ -*----------------------------------*\
| =========                 |                                                 |
| \\      /  F ield         | OpenFOAM: The Open Source CFD Toolbox           |
|  \\    /   O peration     | Version:  2412                                  |
|   \\  /    A nd           | Website:  www.openfoam.com                      |
|    \\/     M anipulation  |                                                 |
\*---------------------------------------------------------------------------*/
FoamFile
{
    version     2.0;
    format      ascii;
    arch        "LSB;label=32;scalar=64";
    class       volScalarField;
    location    "0.021";
    object      rho;
}
// * * * * * * * * * * * * * * * * * * * * * * * * * * * * * * * * * * * * * //

dimensions      [1 -3 0 0 0 0 0];

internalField   nonuniform List<scalar> 
78650
(
0.042133
0.042133
0.042133
0.042133
0.042133
0.042133
0.042133
0.042133
0.042133
0.042133
0.042133
0.042133
0.042133
0.042133
0.042133
0.042133
0.042133
0.042133
0.0421334
0.0421421
0.0422182
0.0424484
0.0427261
0.0428797
0.0428953
0.0428689
0.0427369
0.0425707
0.0424265
0.0422979
0.0421757
0.0420663
0.0419852
0.0419469
0.041931
0.0419189
0.0419017
0.0418695
0.0418281
0.0417947
0.0417717
0.0417513
0.0417293
0.0417054
0.0416816
0.0416598
0.0416403
0.0416236
0.0416095
0.0415976
0.0415873
0.0415777
0.0415687
0.0415606
0.0415537
0.0415477
0.0415423
0.0415374
0.041533
0.041529
0.041525
0.0415205
0.041515
0.0415084
0.0415007
0.0414917
0.0414808
0.0414673
0.0414505
0.0414294
0.0414035
0.0413725
0.0413355
0.041292
0.0412409
0.0411816
0.041113
0.041034
0.0409435
0.0408403
0.0407228
0.0405896
0.0404389
0.0402691
0.0400789
0.0398664
0.0396304
0.0393683
0.0390792
0.0387593
0.0384067
0.0380169
0.0375966
0.0371393
0.0366529
0.0361206
0.0355508
0.034942
0.0342978
0.0336295
0.0329354
0.0322296
0.0315099
0.0307624
0.0300033
0.0292532
0.0285099
0.0277861
0.0270656
0.0263843
0.0257596
0.025201
0.0247072
0.0242093
0.0237187
0.0232655
0.0228773
0.0225161
0.0221717
0.0218504
0.0212842
0.042133
0.042133
0.042133
0.042133
0.042133
0.042133
0.042133
0.042133
0.042133
0.042133
0.042133
0.042133
0.042133
0.042133
0.042133
0.042133
0.042133
0.042133
0.0421332
0.0421381
0.0421918
0.0423922
0.0426831
0.0428723
0.0429072
0.0428927
0.0427851
0.0426232
0.0424742
0.0423419
0.0422173
0.0421043
0.0420183
0.0419757
0.04196
0.0419508
0.0419391
0.0419135
0.0418753
0.0418422
0.0418197
0.0418009
0.0417808
0.0417583
0.0417355
0.0417144
0.0416957
0.04168
0.0416669
0.0416564
0.0416479
0.0416404
0.0416338
0.0416283
0.0416239
0.0416207
0.0416183
0.0416166
0.0416154
0.0416149
0.0416145
0.041614
0.0416127
0.0416106
0.0416076
0.0416036
0.0415982
0.0415906
0.0415804
0.0415664
0.0415482
0.0415254
0.0414974
0.0414636
0.0414233
0.0413755
0.0413195
0.0412542
0.0411786
0.0410915
0.0409916
0.0408775
0.0407475
0.0406001
0.040434
0.0402475
0.0400393
0.0398063
0.0395466
0.0392556
0.0389323
0.0385747
0.0381878
0.0377649
0.0373099
0.0368082
0.0362748
0.0357023
0.0350936
0.0344458
0.0337564
0.0330424
0.0323235
0.0315971
0.0308634
0.0301156
0.02935
0.0286255
0.0279251
0.0272284
0.0265576
0.0259082
0.0253231
0.0247895
0.0242659
0.0237543
0.0232899
0.0228757
0.0225063
0.0221568
0.0215479
0.042133
0.042133
0.042133
0.042133
0.042133
0.042133
0.042133
0.042133
0.042133
0.042133
0.042133
0.042133
0.042133
0.042133
0.042133
0.042133
0.042133
0.042133
0.0421331
0.0421357
0.0421714
0.0423378
0.0426307
0.0428563
0.0429142
0.0429138
0.0428322
0.0426768
0.042522
0.0423851
0.0422585
0.042143
0.0420531
0.042006
0.0419903
0.0419837
0.0419769
0.0419581
0.0419239
0.041891
0.0418688
0.0418512
0.0418328
0.0418117
0.0417899
0.0417695
0.0417518
0.0417369
0.0417249
0.041716
0.0417094
0.0417041
0.0416999
0.0416969
0.0416953
0.0416949
0.0416956
0.041697
0.0416992
0.041702
0.0417054
0.0417087
0.0417116
0.0417139
0.0417155
0.0417164
0.0417164
0.0417146
0.0417107
0.0417038
0.041693
0.0416782
0.0416588
0.0416343
0.0416041
0.0415673
0.0415232
0.0414707
0.041409
0.0413369
0.0412533
0.0411568
0.0410459
0.040919
0.0407749
0.0406116
0.0404278
0.0402209
0.0399895
0.0397303
0.0394428
0.0391252
0.0387794
0.0383987
0.0379846
0.0375274
0.0370404
0.0365101
0.035943
0.035335
0.0346823
0.0339889
0.0332622
0.0325073
0.0317416
0.0310033
0.0302451
0.0294591
0.0287093
0.0279576
0.0272523
0.0265556
0.0258788
0.0252857
0.0247559
0.0242384
0.0237128
0.0231654
0.0226862
0.0222737
0.0215954
0.042133
0.042133
0.042133
0.042133
0.042133
0.042133
0.042133
0.042133
0.042133
0.042133
0.042133
0.042133
0.042133
0.042133
0.042133
0.042133
0.042133
0.042133
0.0421331
0.0421343
0.0421563
0.0422865
0.0425695
0.0428295
0.0429177
0.0429352
0.0428774
0.0427319
0.0425708
0.0424291
0.0423014
0.0421847
0.0420913
0.0420387
0.0420223
0.0420179
0.0420154
0.0420034
0.041974
0.0419415
0.041919
0.0419022
0.0418853
0.0418655
0.0418448
0.0418252
0.0418083
0.0417945
0.0417836
0.0417762
0.0417714
0.0417685
0.0417669
0.0417665
0.0417675
0.04177
0.0417736
0.0417781
0.0417834
0.0417896
0.0417964
0.0418035
0.0418104
0.0418169
0.041823
0.0418286
0.0418335
0.0418373
0.0418392
0.041839
0.0418354
0.0418284
0.0418171
0.0418016
0.041781
0.0417548
0.041722
0.041682
0.0416338
0.0415764
0.0415088
0.0414296
0.0413376
0.0412312
0.0411089
0.0409692
0.0408108
0.0406317
0.0404305
0.0402037
0.0399498
0.0396659
0.0393514
0.0390002
0.038615
0.0381903
0.0377356
0.0372374
0.0367057
0.0361321
0.0355212
0.0348771
0.0341925
0.0334888
0.0327377
0.0319492
0.0311686
0.0303476
0.0295632
0.0287668
0.0279863
0.0272623
0.0265306
0.0258545
0.0252211
0.0246592
0.0241599
0.023657
0.023142
0.0226577
0.0218278
0.042133
0.042133
0.042133
0.042133
0.042133
0.042133
0.042133
0.042133
0.042133
0.042133
0.042133
0.042133
0.042133
0.042133
0.042133
0.042133
0.042133
0.042133
0.0421331
0.0421336
0.042146
0.0422411
0.0425012
0.0427908
0.0429181
0.042955
0.0429177
0.0427855
0.0426198
0.0424744
0.0423465
0.0422293
0.0421326
0.0420742
0.0420562
0.0420537
0.0420547
0.0420489
0.042025
0.0419935
0.0419704
0.041954
0.0419383
0.04192
0.0419004
0.0418817
0.0418659
0.0418531
0.0418435
0.0418376
0.0418348
0.0418345
0.0418356
0.0418379
0.0418416
0.0418467
0.0418533
0.0418609
0.0418693
0.0418788
0.041889
0.0418998
0.0419105
0.0419211
0.0419315
0.0419417
0.0419516
0.0419608
0.0419685
0.0419742
0.0419774
0.0419779
0.0419747
0.0419678
0.0419564
0.0419401
0.0419181
0.0418898
0.0418543
0.0418106
0.0417578
0.0416947
0.0416201
0.0415324
0.0414305
0.0413126
0.0411778
0.041024
0.0408495
0.0406514
0.0404281
0.0401764
0.0398952
0.0395804
0.0392347
0.0388532
0.0384387
0.037978
0.0374793
0.0369346
0.0363533
0.0357319
0.035069
0.0343697
0.0336472
0.0328727
0.0321114
0.031314
0.0305027
0.0297198
0.0288988
0.028144
0.0273942
0.0266868
0.0259937
0.0253059
0.0246798
0.0241031
0.0235886
0.0231174
0.0222776
0.042133
0.042133
0.042133
0.042133
0.042133
0.042133
0.042133
0.042133
0.042133
0.042133
0.042133
0.042133
0.042133
0.042133
0.042133
0.042133
0.042133
0.042133
0.042133
0.0421333
0.0421396
0.0422035
0.0424281
0.0427383
0.0429147
0.042973
0.0429486
0.042838
0.0426724
0.0425241
0.042396
0.0422781
0.0421777
0.0421134
0.0420929
0.0420915
0.0420945
0.0420936
0.042076
0.0420461
0.0420221
0.0420061
0.0419916
0.041975
0.0419569
0.0419392
0.0419247
0.0419131
0.0419048
0.0419005
0.0418997
0.0419022
0.0419059
0.0419109
0.0419173
0.0419252
0.0419346
0.0419452
0.0419567
0.0419692
0.0419828
0.041997
0.0420116
0.0420261
0.0420406
0.0420552
0.0420697
0.0420839
0.0420972
0.042109
0.0421187
0.0421258
0.0421301
0.0421314
0.042129
0.0421224
0.0421109
0.0420938
0.0420705
0.04204
0.0420016
0.0419542
0.0418967
0.0418277
0.0417459
0.0416498
0.0415383
0.0414094
0.0412618
0.0410928
0.0409007
0.0406822
0.0404361
0.0401594
0.0398538
0.0395136
0.0391389
0.0387203
0.0382663
0.0377686
0.0372319
0.0366481
0.0360186
0.0353453
0.0346383
0.0338948
0.0331076
0.0323292
0.0314821
0.0306687
0.0298152
0.0289796
0.0281736
0.0273828
0.0266422
0.025921
0.0252303
0.0245668
0.0239659
0.0234258
0.0224448
0.042133
0.042133
0.042133
0.042133
0.042133
0.042133
0.042133
0.042133
0.042133
0.042133
0.042133
0.042133
0.042133
0.042133
0.042133
0.042133
0.042133
0.042133
0.042133
0.0421331
0.042136
0.0421751
0.0423555
0.0426711
0.0429006
0.0429858
0.0429717
0.0428887
0.0427294
0.0425781
0.0424481
0.0423294
0.0422257
0.0421561
0.0421314
0.0421299
0.0421346
0.0421376
0.0421255
0.0420982
0.0420738
0.0420582
0.0420451
0.0420306
0.0420142
0.0419979
0.0419848
0.0419746
0.0419679
0.0419653
0.0419669
0.0419716
0.0419781
0.041986
0.0419951
0.0420057
0.0420179
0.0420314
0.0420459
0.0420615
0.0420782
0.0420959
0.0421141
0.0421324
0.0421509
0.0421697
0.0421888
0.0422078
0.0422264
0.042244
0.0422599
0.0422739
0.0422854
0.0422942
0.0423
0.0423024
0.0423009
0.0422946
0.0422831
0.0422648
0.0422398
0.0422068
0.0421651
0.0421131
0.0420499
0.0419737
0.0418836
0.0417779
0.0416554
0.0415138
0.0413514
0.041165
0.0409534
0.0407138
0.0404461
0.0401443
0.0398083
0.0394318
0.0390216
0.0385678
0.0380731
0.0375314
0.036947
0.0363203
0.0356432
0.0349309
0.0341532
0.0333773
0.0325255
0.0316658
0.0308337
0.0299494
0.0291147
0.0282609
0.0274618
0.0266974
0.0259678
0.0252608
0.0245859
0.023969
0.0228275
0.042133
0.042133
0.042133
0.042133
0.042133
0.042133
0.042133
0.042133
0.042133
0.042133
0.042133
0.042133
0.042133
0.042133
0.042133
0.042133
0.042133
0.042133
0.042133
0.0421331
0.0421342
0.0421556
0.0422887
0.0425899
0.0428696
0.0429902
0.04299
0.0429381
0.0427911
0.0426358
0.0425031
0.0423842
0.0422782
0.0422032
0.0421716
0.0421683
0.0421739
0.0421803
0.0421727
0.0421491
0.0421251
0.0421104
0.0420993
0.0420872
0.0420729
0.042058
0.0420464
0.0420379
0.0420331
0.042032
0.0420359
0.042043
0.0420523
0.0420629
0.0420748
0.042088
0.0421029
0.0421191
0.0421365
0.042155
0.0421747
0.0421957
0.0422173
0.0422394
0.0422617
0.0422845
0.0423078
0.0423315
0.0423551
0.0423782
0.0424001
0.0424204
0.0424388
0.0424551
0.0424689
0.0424798
0.0424872
0.042491
0.0424908
0.0424847
0.0424729
0.0424538
0.0424274
0.0423921
0.042347
0.0422906
0.0422217
0.0421389
0.0420411
0.041926
0.0417921
0.0416364
0.0414572
0.0412517
0.0410186
0.0407531
0.0404561
0.0401225
0.0397555
0.0393441
0.0388914
0.0383916
0.037847
0.0372561
0.0366158
0.035932
0.0352165
0.0344353
0.0336439
0.0327838
0.031958
0.0310445
0.0301564
0.029254
0.0283746
0.0275416
0.0267344
0.0259801
0.0252647
0.0246204
0.0234774
0.042133
0.042133
0.042133
0.042133
0.042133
0.042133
0.042133
0.042133
0.042133
0.042133
0.042133
0.042133
0.042133
0.042133
0.042133
0.042133
0.042133
0.042133
0.042133
0.042133
0.0421335
0.0421438
0.0422328
0.0424999
0.0428174
0.0429863
0.0430095
0.0429817
0.0428524
0.0426959
0.0425612
0.0424426
0.0423342
0.0422526
0.0422118
0.0422048
0.042211
0.0422211
0.0422177
0.042199
0.0421766
0.0421629
0.0421538
0.0421447
0.042133
0.0421201
0.0421101
0.0421034
0.0421005
0.0421013
0.042107
0.0421165
0.0421285
0.0421419
0.0421563
0.0421721
0.0421895
0.0422085
0.0422286
0.0422499
0.0422726
0.0422967
0.0423217
0.0423473
0.0423733
0.0424
0.0424274
0.0424555
0.042484
0.0425123
0.0425399
0.0425664
0.0425914
0.0426146
0.042636
0.0426551
0.0426716
0.0426847
0.042694
0.0426992
0.0426999
0.042694
0.0426819
0.0426618
0.0426332
0.0425948
0.0425454
0.0424837
0.0424086
0.0423183
0.0422113
0.0420849
0.0419374
0.041766
0.0415696
0.0413442
0.0410905
0.0408028
0.0404808
0.0401151
0.0397099
0.0392593
0.0387641
0.0382215
0.0376284
0.036987
0.0362901
0.0355433
0.0347623
0.0339347
0.0330556
0.0321617
0.0312392
0.0303328
0.0293845
0.0284698
0.0275357
0.0266523
0.0258092
0.0250624
0.0236458
0.042133
0.042133
0.042133
0.042133
0.042133
0.042133
0.042133
0.042133
0.042133
0.042133
0.042133
0.042133
0.042133
0.042133
0.042133
0.042133
0.042133
0.042133
0.042133
0.042133
0.0421332
0.0421375
0.0421907
0.0424083
0.0427443
0.0429712
0.0430267
0.0430139
0.0429127
0.0427612
0.0426244
0.0425039
0.0423914
0.0423017
0.0422505
0.0422391
0.0422458
0.0422612
0.0422626
0.0422494
0.0422288
0.0422161
0.0422094
0.0422036
0.0421954
0.0421847
0.0421763
0.0421714
0.04217
0.0421731
0.0421803
0.0421921
0.0422066
0.0422226
0.0422395
0.0422577
0.0422775
0.0422989
0.0423217
0.0423457
0.0423711
0.042398
0.0424262
0.0424552
0.0424848
0.0425151
0.0425464
0.0425787
0.0426117
0.0426449
0.042678
0.0427103
0.0427415
0.0427715
0.0428
0.0428268
0.0428516
0.0428739
0.0428933
0.0429089
0.0429203
0.0429271
0.0429288
0.0429238
0.0429116
0.0428907
0.0428602
0.042819
0.0427659
0.0426995
0.0426183
0.0425199
0.0424026
0.0422637
0.0421017
0.0419135
0.0416987
0.0414512
0.0411708
0.0408504
0.0404938
0.0400933
0.0396489
0.0391547
0.0386067
0.0380093
0.0373561
0.0366527
0.035896
0.0351047
0.0342174
0.0333428
0.032402
0.0314851
0.0305182
0.0296152
0.0286814
0.0277818
0.0268978
0.0260838
0.0245546
0.042133
0.042133
0.042133
0.042133
0.042133
0.042133
0.042133
0.042133
0.042133
0.042133
0.042133
0.042133
0.042133
0.042133
0.042133
0.042133
0.042133
0.042133
0.042133
0.042133
0.0421331
0.0421347
0.0421626
0.0423233
0.0426543
0.0429392
0.0430321
0.0430389
0.0429724
0.0428311
0.0426887
0.0425629
0.0424464
0.0423502
0.0422893
0.0422733
0.0422798
0.042301
0.0423084
0.0422998
0.0422819
0.0422703
0.0422662
0.042264
0.0422596
0.0422516
0.0422448
0.0422419
0.0422421
0.042247
0.0422559
0.0422696
0.0422864
0.0423048
0.0423241
0.0423445
0.0423664
0.0423902
0.0424154
0.042442
0.04247
0.0424997
0.0425309
0.0425632
0.0425962
0.0426301
0.0426652
0.0427014
0.0427387
0.0427767
0.0428149
0.0428528
0.04289
0.0429263
0.0429616
0.0429957
0.0430283
0.0430591
0.0430876
0.0431132
0.0431356
0.0431538
0.0431673
0.0431757
0.0431784
0.0431738
0.043161
0.0431388
0.0431059
0.0430615
0.0430043
0.0429323
0.0428438
0.0427361
0.0426079
0.0424559
0.0422791
0.0420723
0.0418351
0.0415618
0.0412544
0.0409042
0.0405113
0.0400702
0.0395789
0.0390378
0.038439
0.0377899
0.0370792
0.0363048
0.0354845
0.034597
0.0336837
0.0326931
0.0316731
0.030645
0.0296337
0.028656
0.0277115
0.026867
0.0252956
0.042133
0.042133
0.042133
0.042133
0.042133
0.042133
0.042133
0.042133
0.042133
0.042133
0.042133
0.042133
0.042133
0.042133
0.042133
0.042133
0.042133
0.042133
0.042133
0.042133
0.042133
0.0421336
0.0421464
0.0422525
0.0425518
0.0428849
0.0430275
0.0430651
0.0430277
0.0429001
0.04275
0.0426192
0.0425013
0.0424007
0.0423314
0.0423096
0.0423142
0.0423399
0.0423546
0.0423507
0.0423368
0.0423265
0.0423246
0.042326
0.0423252
0.0423205
0.0423156
0.0423142
0.0423166
0.042323
0.0423335
0.0423488
0.0423674
0.0423878
0.0424092
0.0424317
0.0424557
0.0424815
0.0425091
0.0425381
0.0425686
0.0426009
0.0426349
0.0426702
0.0427066
0.0427439
0.0427825
0.0428225
0.0428638
0.0429062
0.0429492
0.0429923
0.0430352
0.0430775
0.0431192
0.0431601
0.0432001
0.0432389
0.043276
0.0433111
0.0433435
0.0433728
0.0433985
0.0434197
0.0434357
0.0434461
0.0434501
0.0434466
0.0434335
0.0434105
0.043376
0.0433287
0.043267
0.0431884
0.0430914
0.0429731
0.0428325
0.0426653
0.0424713
0.0422449
0.0419861
0.0416856
0.0413442
0.0409559
0.0405191
0.0400305
0.0394831
0.0388823
0.0382161
0.0374908
0.0367021
0.0358605
0.0349834
0.0339944
0.0330085
0.0319657
0.0309207
0.0298351
0.0287531
0.0277669
0.0258868
0.042133
0.042133
0.042133
0.042133
0.042133
0.042133
0.042133
0.042133
0.042133
0.042133
0.042133
0.042133
0.042133
0.042133
0.042133
0.042133
0.042133
0.042133
0.042133
0.042133
0.042133
0.0421332
0.0421383
0.0422003
0.0424462
0.0428077
0.0430167
0.0430883
0.0430666
0.0429629
0.0428109
0.0426767
0.0425583
0.0424539
0.0423769
0.0423471
0.0423484
0.0423764
0.0424011
0.0424027
0.0423941
0.0423848
0.0423839
0.0423889
0.0423917
0.04239
0.0423875
0.0423878
0.0423924
0.0424002
0.042412
0.0424284
0.0424486
0.0424708
0.0424942
0.0425186
0.0425445
0.0425724
0.0426022
0.0426335
0.0426665
0.0427013
0.042738
0.0427763
0.0428158
0.0428564
0.0428985
0.0429421
0.0429873
0.0430338
0.0430814
0.0431295
0.0431777
0.0432257
0.0432734
0.0433207
0.0433677
0.0434139
0.0434591
0.0435029
0.0435447
0.0435841
0.0436207
0.0436537
0.0436829
0.0437072
0.0437256
0.0437377
0.0437428
0.0437399
0.0437266
0.0437028
0.043666
0.043615
0.043548
0.0434627
0.0433577
0.0432291
0.0430759
0.0428925
0.042678
0.0424251
0.0421356
0.0418024
0.0414236
0.0409951
0.0405109
0.0399708
0.039362
0.0386973
0.0379675
0.0371696
0.0362941
0.0353604
0.0343731
0.0333197
0.0322629
0.0311873
0.0301195
0.0291173
0.0272256
0.042133
0.042133
0.042133
0.042133
0.042133
0.042133
0.042133
0.042133
0.042133
0.042133
0.042133
0.042133
0.042133
0.042133
0.042133
0.042133
0.042133
0.042133
0.042133
0.042133
0.042133
0.0421331
0.0421348
0.0421668
0.0423489
0.0427106
0.0429934
0.0430997
0.0430925
0.0430205
0.0428747
0.0427371
0.0426168
0.0425083
0.0424248
0.0423857
0.0423832
0.0424117
0.0424482
0.0424575
0.042453
0.0424446
0.0424436
0.0424517
0.0424592
0.0424601
0.04246
0.0424618
0.0424679
0.0424772
0.04249
0.0425074
0.0425289
0.0425528
0.042578
0.0426044
0.0426323
0.0426621
0.042694
0.0427276
0.0427628
0.0428
0.0428392
0.0428803
0.0429229
0.0429667
0.043012
0.043059
0.0431078
0.0431583
0.0432101
0.0432628
0.043316
0.0433693
0.0434227
0.0434761
0.0435294
0.0435826
0.0436353
0.0436872
0.0437378
0.0437868
0.0438336
0.0438778
0.0439188
0.0439562
0.0439893
0.0440171
0.0440385
0.0440528
0.0440596
0.0440584
0.0440451
0.0440203
0.0439805
0.0439252
0.0438523
0.043759
0.0436439
0.0435021
0.043333
0.0431302
0.0428944
0.0426168
0.0422964
0.0419268
0.0415025
0.0410221
0.0404773
0.0398743
0.0391943
0.0384448
0.037621
0.0367261
0.035759
0.03471
0.0335813
0.0323775
0.031172
0.0300628
0.0279676
0.042133
0.042133
0.042133
0.042133
0.042133
0.042133
0.042133
0.042133
0.042133
0.042133
0.042133
0.042133
0.042133
0.042133
0.042133
0.042133
0.042133
0.042133
0.042133
0.042133
0.042133
0.042133
0.0421336
0.0421481
0.0422694
0.0426017
0.0429461
0.0431
0.0431128
0.0430731
0.0429398
0.0427969
0.0426731
0.0425623
0.0424742
0.0424265
0.0424202
0.0424468
0.0424944
0.0425125
0.0425107
0.0425034
0.0425019
0.0425122
0.0425246
0.0425289
0.0425306
0.0425337
0.042541
0.0425517
0.0425657
0.0425841
0.0426068
0.0426324
0.0426597
0.0426881
0.042718
0.0427498
0.0427837
0.0428195
0.042857
0.0428965
0.0429382
0.0429821
0.0430276
0.0430745
0.0431229
0.0431732
0.0432256
0.0432798
0.0433356
0.0433926
0.0434505
0.0435089
0.0435677
0.0436267
0.043686
0.0437456
0.0438053
0.0438647
0.0439234
0.0439811
0.0440373
0.0440916
0.0441437
0.0441929
0.0442388
0.0442806
0.0443176
0.0443488
0.0443731
0.0443899
0.0443984
0.0443987
0.0443848
0.0443587
0.0443163
0.0442569
0.0441783
0.0440764
0.0439502
0.0437936
0.0436066
0.043381
0.0431166
0.0428056
0.0424444
0.0420308
0.0415573
0.0410231
0.0404106
0.03973
0.0389746
0.0381491
0.0372416
0.0362467
0.0351667
0.0340705
0.0328335
0.0316833
0.0294813
0.042133
0.042133
0.042133
0.042133
0.042133
0.042133
0.042133
0.042133
0.042133
0.042133
0.042133
0.042133
0.042133
0.042133
0.042133
0.042133
0.042133
0.042133
0.042133
0.042133
0.042133
0.042133
0.0421332
0.042139
0.0422118
0.0424919
0.0428744
0.0430889
0.0431359
0.0431154
0.0429995
0.0428535
0.0427279
0.0426175
0.0425261
0.0424703
0.0424589
0.0424805
0.0425361
0.042564
0.0425649
0.0425598
0.0425577
0.0425693
0.0425865
0.0425945
0.042598
0.0426024
0.0426109
0.042623
0.0426384
0.0426579
0.0426821
0.0427095
0.0427389
0.0427695
0.0428014
0.042835
0.0428709
0.0429088
0.0429486
0.0429903
0.0430345
0.0430809
0.0431292
0.0431791
0.0432306
0.0432841
0.0433396
0.0433973
0.0434568
0.0435179
0.0435802
0.0436433
0.043707
0.0437713
0.0438361
0.0439016
0.0439677
0.044034
0.0441001
0.0441659
0.0442308
0.0442946
0.0443567
0.044417
0.0444749
0.0445297
0.0445808
0.0446274
0.0446688
0.0447044
0.0447322
0.044752
0.0447624
0.0447635
0.0447493
0.0447214
0.0446758
0.0446108
0.0445247
0.0444125
0.0442737
0.0441002
0.0438917
0.0436394
0.0433417
0.0429932
0.0425848
0.0421127
0.0415674
0.0409568
0.0402623
0.0394826
0.0386068
0.0376498
0.036598
0.0354884
0.0342055
0.0330617
0.0309832
0.042133
0.042133
0.042133
0.042133
0.042133
0.042133
0.042133
0.042133
0.042133
0.042133
0.042133
0.042133
0.042133
0.042133
0.042133
0.042133
0.042133
0.042133
0.042133
0.042133
0.042133
0.042133
0.0421331
0.0421352
0.0421747
0.0423918
0.0427859
0.0430674
0.0431529
0.0431428
0.0430524
0.0429097
0.0427835
0.0426739
0.0425781
0.0425133
0.0424949
0.0425102
0.0425704
0.04261
0.0426158
0.042613
0.0426107
0.0426228
0.0426443
0.0426563
0.0426616
0.0426672
0.0426769
0.0426905
0.0427073
0.0427282
0.0427539
0.0427833
0.0428148
0.0428476
0.0428815
0.0429171
0.0429548
0.0429948
0.0430368
0.0430809
0.0431274
0.0431764
0.0432275
0.0432803
0.0433347
0.0433912
0.0434499
0.0435109
0.043574
0.0436389
0.0437052
0.0437727
0.0438411
0.0439102
0.0439803
0.0440513
0.0441232
0.0441958
0.0442688
0.0443419
0.0444148
0.0444871
0.0445585
0.0446287
0.0446972
0.0447638
0.0448276
0.0448881
0.0449446
0.0449962
0.0450425
0.0450824
0.0451138
0.0451365
0.045149
0.0451511
0.0451371
0.0451075
0.0450587
0.0449873
0.044892
0.0447661
0.0446094
0.0444135
0.0441777
0.0438939
0.0435552
0.0431585
0.0426951
0.0421638
0.041547
0.04085
0.0400608
0.0391828
0.0381894
0.0370923
0.0358544
0.0346016
0.0323959
0.042133
0.042133
0.042133
0.042133
0.042133
0.042133
0.042133
0.042133
0.042133
0.042133
0.042133
0.042133
0.042133
0.042133
0.042133
0.042133
0.042133
0.042133
0.042133
0.042133
0.042133
0.042133
0.0421331
0.0421338
0.0421535
0.0423092
0.0426889
0.0430341
0.0431574
0.0431625
0.0431013
0.0429672
0.0428388
0.0427268
0.0426251
0.0425524
0.0425271
0.042537
0.0425993
0.0426525
0.0426652
0.0426643
0.0426621
0.0426741
0.042699
0.0427147
0.0427218
0.0427284
0.0427391
0.0427542
0.0427725
0.0427949
0.0428222
0.0428536
0.0428874
0.0429224
0.0429583
0.0429958
0.0430354
0.0430775
0.0431217
0.043168
0.0432168
0.0432683
0.043322
0.0433777
0.043435
0.0434944
0.0435561
0.0436201
0.0436865
0.0437549
0.043825
0.0438965
0.0439691
0.0440428
0.0441176
0.0441936
0.0442708
0.0443491
0.0444283
0.0445081
0.0445882
0.0446683
0.0447481
0.0448273
0.0449057
0.0449828
0.0450583
0.0451314
0.0452017
0.0452684
0.045331
0.0453885
0.04544
0.0454846
0.0455199
0.0455457
0.0455603
0.0455633
0.0455486
0.0455158
0.0454619
0.0453826
0.0452775
0.0451379
0.0449632
0.0447432
0.0444737
0.0441497
0.043761
0.0433031
0.0427623
0.0421424
0.0414282
0.0406213
0.0396918
0.0386632
0.0375038
0.0363002
0.0342872
0.042133
0.042133
0.042133
0.042133
0.042133
0.042133
0.042133
0.042133
0.042133
0.042133
0.042133
0.042133
0.042133
0.042133
0.042133
0.042133
0.042133
0.042133
0.042133
0.042133
0.042133
0.042133
0.042133
0.0421333
0.0421426
0.0422476
0.0425921
0.0429869
0.0431516
0.0431833
0.043147
0.0430224
0.0428878
0.0427718
0.0426663
0.0425887
0.0425578
0.0425638
0.0426262
0.0426933
0.0427143
0.0427147
0.0427128
0.0427239
0.0427511
0.0427702
0.042779
0.0427866
0.0427983
0.0428148
0.0428347
0.0428586
0.0428876
0.042921
0.042957
0.0429941
0.0430321
0.0430714
0.0431128
0.0431568
0.0432031
0.0432517
0.0433027
0.0433566
0.0434129
0.0434712
0.0435313
0.0435934
0.0436579
0.0437249
0.0437943
0.043866
0.0439396
0.0440148
0.0440914
0.0441693
0.0442484
0.044329
0.044411
0.0444946
0.0445795
0.0446653
0.044752
0.0448391
0.0449265
0.0450138
0.0451009
0.0451875
0.0452733
0.0453577
0.0454401
0.0455202
0.0455973
0.0456706
0.0457397
0.0458031
0.0458601
0.0459096
0.0459493
0.0459786
0.0459956
0.0459994
0.0459841
0.045948
0.0458882
0.0457981
0.045677
0.0455151
0.045311
0.0450561
0.0447408
0.0443607
0.0439047
0.0433715
0.0427423
0.0420103
0.0411486
0.0401785
0.0390263
0.037812
0.0358785
0.042133
0.042133
0.042133
0.042133
0.042133
0.042133
0.042133
0.042133
0.042133
0.042133
0.042133
0.042133
0.042133
0.042133
0.042133
0.042133
0.042133
0.042133
0.042133
0.042133
0.042133
0.042133
0.042133
0.0421331
0.0421374
0.0422054
0.0425035
0.0429293
0.0431414
0.0432063
0.0431834
0.0430682
0.0429293
0.0428108
0.0427039
0.042624
0.0425888
0.0425922
0.0426532
0.0427332
0.0427623
0.042764
0.0427619
0.0427726
0.0428015
0.0428239
0.0428347
0.0428432
0.0428558
0.0428736
0.0428951
0.0429205
0.042951
0.0429863
0.0430243
0.0430635
0.0431033
0.0431443
0.0431874
0.0432332
0.0432815
0.0433322
0.0433854
0.0434415
0.0435002
0.043561
0.0436237
0.0436884
0.0437555
0.0438252
0.0438974
0.043972
0.0440488
0.0441274
0.0442076
0.0442893
0.0443724
0.0444571
0.0445436
0.0446318
0.0447217
0.044813
0.0449055
0.0449989
0.045093
0.0451877
0.0452826
0.0453777
0.0454726
0.045567
0.0456604
0.0457523
0.0458424
0.04593
0.0460146
0.0460951
0.0461709
0.0462408
0.0463039
0.046359
0.0464033
0.0464359
0.0464547
0.0464588
0.0464412
0.0463994
0.0463312
0.0462289
0.0460913
0.0459076
0.0456712
0.0453759
0.0450087
0.0445649
0.0440284
0.0433914
0.0426399
0.0417642
0.0407246
0.0395618
0.0378151
0.042133
0.042133
0.042133
0.042133
0.042133
0.042133
0.042133
0.042133
0.042133
0.042133
0.042133
0.042133
0.042133
0.042133
0.042133
0.042133
0.042133
0.042133
0.042133
0.042133
0.042133
0.042133
0.042133
0.0421331
0.0421351
0.0421787
0.0424288
0.042868
0.0431322
0.0432243
0.0432086
0.0431066
0.0429653
0.0428456
0.0427393
0.0426587
0.0426196
0.0426207
0.0426801
0.0427712
0.0428079
0.0428112
0.0428096
0.0428207
0.0428515
0.0428775
0.0428905
0.0429001
0.0429135
0.0429323
0.0429551
0.0429817
0.0430136
0.0430504
0.0430901
0.043131
0.0431725
0.043215
0.0432596
0.043307
0.0433572
0.0434098
0.043465
0.0435231
0.043584
0.0436471
0.0437122
0.0437792
0.0438487
0.0439209
0.0439957
0.044073
0.0441527
0.0442344
0.0443178
0.044403
0.0444897
0.0445782
0.0446687
0.0447612
0.0448556
0.0449518
0.0450495
0.0451485
0.0452487
0.0453498
0.0454517
0.0455543
0.0456573
0.0457605
0.0458635
0.0459659
0.0460672
0.0461673
0.0462654
0.046361
0.0464533
0.0465413
0.0466246
0.0467017
0.0467713
0.0468322
0.0468811
0.0469173
0.0469382
0.0469425
0.0469224
0.0468747
0.0467952
0.0466746
0.0465085
0.0462874
0.0459991
0.0456391
0.0451908
0.0446459
0.0439822
0.0431681
0.042203
0.0410399
0.0394725
0.042133
0.042133
0.042133
0.042133
0.042133
0.042133
0.042133
0.042133
0.042133
0.042133
0.042133
0.042133
0.042133
0.042133
0.042133
0.042133
0.042133
0.042133
0.042133
0.042133
0.042133
0.042133
0.042133
0.0421331
0.0421341
0.0421628
0.042371
0.0428101
0.0431241
0.0432369
0.0432267
0.0431376
0.0429968
0.0428773
0.0427722
0.0426913
0.0426479
0.0426469
0.0427061
0.0428067
0.0428508
0.0428567
0.0428565
0.0428692
0.0429026
0.0429324
0.0429477
0.0429584
0.0429724
0.042992
0.0430157
0.0430431
0.0430758
0.0431138
0.0431548
0.0431971
0.04324
0.0432839
0.0433299
0.0433788
0.0434305
0.0434849
0.0435419
0.0436018
0.0436646
0.0437298
0.043797
0.0438662
0.0439378
0.0440122
0.0440894
0.0441692
0.0442515
0.0443359
0.0444224
0.0445106
0.0446006
0.0446925
0.0447865
0.0448827
0.0449812
0.0450817
0.045184
0.045288
0.0453935
0.0455003
0.0456084
0.0457175
0.0458275
0.0459384
0.0460497
0.0461613
0.0462726
0.0463835
0.0464934
0.0466021
0.0467087
0.0468127
0.0469134
0.0470099
0.0471012
0.047186
0.0472626
0.0473299
0.0473837
0.0474233
0.0474454
0.0474486
0.0474224
0.0473641
0.0472671
0.0471233
0.0469218
0.0466567
0.0463071
0.0458661
0.0453022
0.044591
0.0437344
0.0426606
0.0412232
0.042133
0.042133
0.042133
0.042133
0.042133
0.042133
0.042133
0.042133
0.042133
0.042133
0.042133
0.042133
0.042133
0.042133
0.042133
0.042133
0.042133
0.042133
0.042133
0.042133
0.042133
0.042133
0.042133
0.042133
0.0421337
0.0421536
0.0423298
0.0427618
0.0431151
0.0432462
0.0432406
0.0431627
0.0430244
0.0429053
0.0428013
0.0427192
0.0426722
0.0426696
0.0427319
0.0428411
0.0428918
0.0429009
0.0429033
0.0429183
0.0429551
0.0429887
0.0430064
0.0430179
0.0430323
0.0430523
0.0430765
0.0431043
0.0431376
0.0431763
0.0432185
0.043262
0.0433061
0.0433513
0.0433985
0.0434487
0.0435018
0.0435577
0.0436162
0.0436777
0.0437422
0.0438092
0.0438782
0.0439493
0.0440229
0.0440993
0.0441785
0.0442605
0.0443452
0.0444321
0.0445212
0.0446122
0.0447051
0.0448
0.0448972
0.0449968
0.0450988
0.0452031
0.0453095
0.0454179
0.045528
0.0456399
0.0457533
0.0458682
0.0459844
0.0461019
0.0462205
0.0463399
0.0464599
0.0465801
0.0467003
0.0468201
0.0469391
0.0470567
0.0471724
0.0472856
0.0473956
0.0475011
0.0476011
0.0476942
0.0477783
0.0478523
0.0479111
0.0479544
0.0479784
0.0479813
0.0479483
0.0478787
0.0477583
0.0475844
0.0473348
0.0470042
0.046548
0.0459411
0.0451615
0.04416
0.0428258
0.042133
0.042133
0.042133
0.042133
0.042133
0.042133
0.042133
0.042133
0.042133
0.042133
0.042133
0.042133
0.042133
0.042133
0.042133
0.042133
0.042133
0.042133
0.042133
0.042133
0.042133
0.042133
0.042133
0.042133
0.0421335
0.0421488
0.0423033
0.0427267
0.0431082
0.0432535
0.0432526
0.0431826
0.0430471
0.0429286
0.042825
0.0427412
0.0426928
0.0426897
0.0427588
0.0428759
0.0429318
0.0429439
0.0429492
0.0429671
0.043008
0.0430449
0.0430643
0.0430763
0.0430909
0.0431113
0.0431358
0.043164
0.0431978
0.0432375
0.0432807
0.0433254
0.0433708
0.0434172
0.0434655
0.0435169
0.0435713
0.0436284
0.0436882
0.0437511
0.0438169
0.0438855
0.0439561
0.0440289
0.0441042
0.0441823
0.0442635
0.0443475
0.0444342
0.0445233
0.0446147
0.0447082
0.0448037
0.0449014
0.0450014
0.045104
0.0452091
0.0453168
0.0454268
0.0455389
0.0456532
0.0457694
0.0458875
0.0460073
0.0461289
0.0462522
0.046377
0.0465032
0.0466304
0.0467586
0.0468875
0.0470169
0.0471464
0.0472756
0.0474041
0.0475315
0.0476572
0.0477805
0.0479004
0.0480156
0.0481252
0.0482275
0.0483201
0.0484019
0.0484664
0.0485137
0.0485379
0.0485366
0.0484864
0.0483944
0.0482352
0.0480074
0.0476644
0.0471855
0.0465093
0.0456078
0.0443811
0.042133
0.042133
0.042133
0.042133
0.042133
0.042133
0.042133
0.042133
0.042133
0.042133
0.042133
0.042133
0.042133
0.042133
0.042133
0.042133
0.042133
0.042133
0.042133
0.042133
0.042133
0.042133
0.042133
0.042133
0.0421334
0.0421469
0.0422901
0.042708
0.0431069
0.0432607
0.0432642
0.0431975
0.0430641
0.0429459
0.0428421
0.0427578
0.0427112
0.0427089
0.0427885
0.0429125
0.0429713
0.0429852
0.042993
0.0430137
0.0430584
0.0430976
0.0431179
0.0431303
0.0431453
0.0431665
0.0431917
0.0432206
0.0432555
0.0432965
0.0433411
0.0433872
0.0434338
0.0434814
0.0435308
0.0435832
0.0436386
0.0436969
0.0437578
0.0438217
0.0438888
0.0439586
0.0440306
0.0441048
0.0441816
0.0442614
0.0443442
0.04443
0.0445186
0.0446097
0.0447032
0.0447989
0.0448967
0.0449968
0.0450993
0.0452045
0.0453124
0.045423
0.0455362
0.0456517