/*--------------------------------*- C++ -*----------------------------------*\
| =========                 |                                                 |
| \\      /  F ield         | OpenFOAM: The Open Source CFD Toolbox           |
|  \\    /   O peration     | Version:  2406                                  |
|   \\  /    A nd           | Website:  www.openfoam.com                      |
|    \\/     M anipulation  |                                                 |
\*---------------------------------------------------------------------------*/
FoamFile
{
    version     2.0;
    format      ascii;
    arch        "LSB;label=32;scalar=64";
    class       volVectorField;
    location    "0.021";
    object      U;
}
// * * * * * * * * * * * * * * * * * * * * * * * * * * * * * * * * * * * * * //

dimensions      [0 1 -1 0 0 0 0];

internalField   nonuniform List<vector> 
78650
(
(210 2.03463e-06 0)
(210 9.02376e-05 0)
(209.985 0.00471501 0)
(209.764 0.0915232 0)
(208.72 0.582238 0)
(206.968 1.52957 0)
(205.597 2.26428 0)
(205.38 2.5106 0)
(205.338 2.64325 0)
(206.003 2.51991 0)
(207.134 2.08903 0)
(208.233 1.77501 0)
(209.126 1.49969 0)
(210.034 1.33091 0)
(210.899 1.1578 0)
(211.678 1.08285 0)
(212.254 1.23983 0)
(212.58 1.58134 0)
(212.809 2.01235 0)
(213.022 2.47244 0)
(213.302 2.92504 0)
(213.69 3.32788 0)
(214.173 3.69219 0)
(214.614 4.10354 0)
(214.977 4.57377 0)
(215.306 5.08228 0)
(215.622 5.63033 0)
(215.932 6.22168 0)
(216.229 6.85922 0)
(216.511 7.54102 0)
(216.773 8.2636 0)
(217.019 9.01989 0)
(217.248 9.80267 0)
(217.453 10.6111 0)
(217.637 11.448 0)
(217.807 12.3151 0)
(217.964 13.2122 0)
(218.108 14.1384 0)
(218.238 15.0933 0)
(218.356 16.0787 0)
(218.461 17.0985 0)
(218.554 18.1543 0)
(218.637 19.2439 0)
(218.716 20.3622 0)
(218.793 21.5066 0)
(218.867 22.6781 0)
(218.938 23.8801 0)
(219.006 25.1154 0)
(219.076 26.3847 0)
(219.151 27.6879 0)
(219.239 29.0253 0)
(219.341 30.3975 0)
(219.454 31.8061 0)
(219.589 33.2528 0)
(219.746 34.7375 0)
(219.925 36.2595 0)
(220.137 37.8186 0)
(220.388 39.4143 0)
(220.682 41.0447 0)
(221.019 42.7098 0)
(221.418 44.4096 0)
(221.874 46.1434 0)
(222.391 47.9111 0)
(222.994 49.7106 0)
(223.665 51.5399 0)
(224.429 53.397 0)
(225.305 55.2783 0)
(226.266 57.1836 0)
(227.358 59.1099 0)
(228.572 61.0538 0)
(229.902 63.0124 0)
(231.395 64.972 0)
(233.029 66.9239 0)
(234.818 68.8619 0)
(236.796 70.7768 0)
(238.946 72.6649 0)
(241.277 74.5253 0)
(243.832 76.3429 0)
(246.564 78.126 0)
(249.52 79.8381 0)
(252.68 81.4597 0)
(256.055 82.9534 0)
(259.625 84.3405 0)
(263.435 85.5803 0)
(267.457 86.7012 0)
(271.662 87.6451 0)
(276.102 88.4456 0)
(280.693 89.014 0)
(285.65 89.3964 0)
(290.425 89.5908 0)
(295.069 89.6529 0)
(299.448 89.6544 0)
(304.284 89.3297 0)
(309.023 88.8864 0)
(314.748 88.1819 0)
(319.706 87.25 0)
(325.036 86.107 0)
(329.434 85.094 0)
(333.772 83.9906 0)
(338.056 82.7216 0)
(342.418 81.4502 0)
(347.082 80.1555 0)
(350.825 79.1875 0)
(353.795 78.2567 0)
(356.135 77.3062 0)
(358.466 76.549 0)
(361.56 75.3476 0)
(364.205 74.4631 0)
(367.135 73.1289 0)
(369.166 72.382 0)
(371.484 71.275 0)
(373.375 70.5811 0)
(375.418 69.5343 0)
(376.745 68.8373 0)
(377.814 67.9163 0)
(378.572 67.2934 0)
(379.728 66.6288 0)
(381.437 66.2769 0)
(383.818 65.9263 0)
(387.03 65.4848 0)
(388.293 67.0626 0)
(210 4.40048e-07 0)
(210 3.11343e-05 0)
(209.992 0.00221795 0)
(209.849 0.0545771 0)
(208.996 0.429162 0)
(207.249 1.31869 0)
(205.677 2.12608 0)
(205.313 2.4556 0)
(205.173 2.6483 0)
(205.684 2.59521 0)
(206.776 2.19494 0)
(207.889 1.85973 0)
(208.788 1.56718 0)
(209.695 1.40288 0)
(210.56 1.23744 0)
(211.35 1.16188 0)
(211.952 1.29868 0)
(212.289 1.62005 0)
(212.503 2.03533 0)
(212.685 2.48238 0)
(212.915 2.93436 0)
(213.252 3.34446 0)
(213.711 3.7039 0)
(214.143 4.10271 0)
(214.494 4.56251 0)
(214.807 5.06435 0)
(215.105 5.60754 0)
(215.396 6.19396 0)
(215.675 6.82602 0)
(215.937 7.50117 0)
(216.18 8.21581 0)
(216.407 8.96237 0)
(216.613 9.73412 0)
(216.793 10.5304 0)
(216.952 11.3533 0)
(217.097 12.2048 0)
(217.229 13.0856 0)
(217.345 13.9956 0)
(217.446 14.9345 0)
(217.533 15.9044 0)
(217.606 16.9088 0)
(217.666 17.949 0)
(217.715 19.0228 0)
(217.757 20.1258 0)
(217.796 21.2548 0)
(217.831 22.4102 0)
(217.861 23.5948 0)
(217.885 24.8124 0)
(217.908 26.064 0)
(217.932 27.3496 0)
(217.966 28.6694 0)
(218.01 30.0237 0)
(218.062 31.4138 0)
(218.133 32.8421 0)
(218.219 34.3087 0)
(218.323 35.8131 0)
(218.455 37.3556 0)
(218.619 38.936 0)
(218.818 40.5527 0)
(219.056 42.2055 0)
(219.348 43.8952 0)
(219.688 45.6209 0)
(220.084 47.3835 0)
(220.555 49.1817 0)
(221.085 51.0135 0)
(221.7 52.8784 0)
(222.415 54.7749 0)
(223.206 56.7027 0)
(224.118 58.6585 0)
(225.14 60.6372 0)
(226.271 62.6357 0)
(227.56 64.6471 0)
(228.981 66.6693 0)
(230.551 68.7001 0)
(232.302 70.7311 0)
(234.213 72.7551 0)
(236.302 74.7639 0)
(238.606 76.7346 0)
(241.075 78.6626 0)
(243.755 80.5175 0)
(246.63 82.2937 0)
(249.71 83.9798 0)
(252.981 85.5908 0)
(256.473 87.0731 0)
(260.116 88.4689 0)
(263.994 89.7159 0)
(268.077 90.8316 0)
(272.353 91.7618 0)
(276.692 92.5231 0)
(281.077 93.1647 0)
(285.912 93.6453 0)
(290.505 93.9109 0)
(295.618 93.9552 0)
(300.289 93.836 0)
(305.154 93.5263 0)
(309.858 93.0744 0)
(314.448 92.5117 0)
(319.233 91.7124 0)
(323.786 90.8391 0)
(328.959 89.7853 0)
(333.774 88.6633 0)
(338.197 87.4594 0)
(341.85 86.3059 0)
(345.237 85.2156 0)
(349.066 83.8952 0)
(352.787 82.7462 0)
(356.796 81.4328 0)
(359.713 80.73 0)
(362.742 79.6981 0)
(365.134 79.0232 0)
(367.875 77.8439 0)
(370.069 76.9192 0)
(372.497 75.6705 0)
(374.312 74.7645 0)
(375.861 73.6913 0)
(376.653 73.0748 0)
(377.344 72.2093 0)
(378.265 71.964 0)
(380.456 71.6464 0)
(384.141 71.2433 0)
(385.672 73.2751 0)
(210 1.65836e-07 0)
(210 1.23268e-05 0)
(209.996 0.000972396 0)
(209.909 0.0302822 0)
(209.254 0.300443 0)
(207.598 1.10185 0)
(205.849 1.97562 0)
(205.25 2.40605 0)
(205.02 2.63227 0)
(205.384 2.64103 0)
(206.404 2.28939 0)
(207.516 1.92476 0)
(208.426 1.60496 0)
(209.333 1.44494 0)
(210.197 1.29258 0)
(211 1.22145 0)
(211.633 1.33787 0)
(211.989 1.64149 0)
(212.19 2.0442 0)
(212.345 2.47797 0)
(212.527 2.92721 0)
(212.809 3.34354 0)
(213.239 3.69883 0)
(213.662 4.08447 0)
(214.003 4.53433 0)
(214.301 5.03155 0)
(214.581 5.57234 0)
(214.855 6.15619 0)
(215.116 6.78472 0)
(215.358 7.45496 0)
(215.58 8.16316 0)
(215.787 8.9012 0)
(215.97 9.66312 0)
(216.125 10.4483 0)
(216.258 11.2586 0)
(216.378 12.0961 0)
(216.482 12.9624 0)
(216.571 13.8575 0)
(216.642 14.7822 0)
(216.697 15.7382 0)
(216.738 16.7298 0)
(216.765 17.7562 0)
(216.779 18.817 0)
(216.785 19.9073 0)
(216.785 21.0227 0)
(216.78 22.165 0)
(216.768 23.3354 0)
(216.748 24.5389 0)
(216.723 25.7766 0)
(216.696 27.0484 0)
(216.675 28.3544 0)
(216.66 29.6953 0)
(216.653 31.071 0)
(216.658 32.4848 0)
(216.675 33.9368 0)
(216.707 35.4267 0)
(216.759 36.955 0)
(216.839 38.5218 0)
(216.949 40.1252 0)
(217.091 41.7654 0)
(217.282 43.4432 0)
(217.513 45.1577 0)
(217.794 46.91 0)
(218.142 48.6994 0)
(218.538 50.5242 0)
(219.015 52.3847 0)
(219.579 54.2792 0)
(220.209 56.2063 0)
(220.952 58.1638 0)
(221.789 60.149 0)
(222.727 62.1623 0)
(223.81 64.2002 0)
(225.004 66.2589 0)
(226.334 68.3327 0)
(227.827 70.4107 0)
(229.461 72.4851 0)
(231.264 74.5497 0)
(233.267 76.5889 0)
(235.422 78.602 0)
(237.788 80.5722 0)
(240.35 82.5009 0)
(243.111 84.3831 0)
(246.077 86.2185 0)
(249.284 87.9709 0)
(252.678 89.661 0)
(256.311 91.2136 0)
(260.105 92.6778 0)
(264.132 93.9775 0)
(268.395 95.1197 0)
(272.88 96.0607 0)
(277.524 96.8358 0)
(282.109 97.3741 0)
(286.833 97.7723 0)
(291.675 97.9639 0)
(296.236 98.0541 0)
(301.223 97.8831 0)
(305.615 97.7611 0)
(310.658 97.3591 0)
(315.552 96.7462 0)
(320.066 96.0455 0)
(324.499 95.1809 0)
(328.407 94.4657 0)
(332.965 93.3536 0)
(337.404 92.1444 0)
(342.306 90.745 0)
(346.393 89.5292 0)
(350.228 88.1824 0)
(353.228 87.1489 0)
(356.422 85.8454 0)
(359.053 85.1159 0)
(362.149 84.1043 0)
(364.701 83.5617 0)
(367.749 82.5001 0)
(369.907 81.689 0)
(371.989 80.4502 0)
(373.179 79.5769 0)
(374.337 78.5057 0)
(375.737 78.114 0)
(378.363 77.6889 0)
(382.388 77.4024 0)
(383.914 79.9468 0)
(210 4.65845e-08 0)
(210 3.58623e-06 0)
(209.998 0.000371059 0)
(209.949 0.0151851 0)
(209.476 0.195141 0)
(207.973 0.878276 0)
(206.064 1.79195 0)
(205.209 2.34242 0)
(204.876 2.58019 0)
(205.116 2.66313 0)
(206.03 2.38138 0)
(207.127 1.9956 0)
(208.055 1.66058 0)
(208.974 1.51863 0)
(209.84 1.38244 0)
(210.65 1.31112 0)
(211.308 1.39939 0)
(211.684 1.67506 0)
(211.871 2.0573 0)
(212 2.4703 0)
(212.136 2.91066 0)
(212.359 3.33392 0)
(212.752 3.69397 0)
(213.165 4.07304 0)
(213.498 4.51514 0)
(213.782 5.00714 0)
(214.045 5.54303 0)
(214.302 6.12113 0)
(214.543 6.74251 0)
(214.765 7.40423 0)
(214.968 8.10217 0)
(215.154 8.828 0)
(215.313 9.57684 0)
(215.442 10.3478 0)
(215.552 11.1423 0)
(215.647 11.963 0)
(215.725 12.8119 0)
(215.786 13.6896 0)
(215.829 14.5983 0)
(215.855 15.5383 0)
(215.863 16.5135 0)
(215.86 17.5221 0)
(215.841 18.5674 0)
(215.811 19.6409 0)
(215.777 20.7389 0)
(215.732 21.8647 0)
(215.682 23.0159 0)
(215.621 24.1999 0)
(215.551 25.4182 0)
(215.477 26.6702 0)
(215.405 27.9555 0)
(215.334 29.2768 0)
(215.27 30.6313 0)
(215.214 32.0238 0)
(215.166 33.4544 0)
(215.127 34.9226 0)
(215.105 36.4296 0)
(215.104 37.9757 0)
(215.126 39.5593 0)
(215.175 41.1805 0)
(215.266 42.8409 0)
(215.388 44.5392 0)
(215.556 46.2775 0)
(215.78 48.0556 0)
(216.044 49.8723 0)
(216.381 51.7289 0)
(216.792 53.6239 0)
(217.262 55.5564 0)
(217.836 57.5269 0)
(218.489 59.5331 0)
(219.236 61.575 0)
(220.116 63.6481 0)
(221.094 65.7464 0)
(222.202 67.8657 0)
(223.466 70 0)
(224.862 72.1466 0)
(226.424 74.3033 0)
(228.174 76.4577 0)
(230.067 78.607 0)
(232.169 80.7369 0)
(234.46 82.8465 0)
(236.949 84.9235 0)
(239.645 86.9505 0)
(242.559 88.8942 0)
(245.642 90.7639 0)
(248.961 92.5118 0)
(252.453 94.1757 0)
(256.18 95.6786 0)
(260.072 97.0919 0)
(264.181 98.3184 0)
(268.448 99.388 0)
(273.041 100.364 0)
(277.676 101.129 0)
(282.633 101.748 0)
(287.361 102.025 0)
(292.599 102.149 0)
(297.628 102.075 0)
(302.748 101.936 0)
(307.752 101.651 0)
(311.958 101.483 0)
(316.78 100.881 0)
(321.079 100.394 0)
(326.107 99.5446 0)
(330.544 98.7542 0)
(334.74 97.7596 0)
(338.385 96.9737 0)
(342.287 95.9075 0)
(345.808 95.0372 0)
(350.037 93.7676 0)
(353.293 92.6806 0)
(356.989 91.2073 0)
(359.722 90.2092 0)
(362.808 88.9631 0)
(365.073 88.2571 0)
(367.284 87.2354 0)
(368.754 86.4965 0)
(370.246 85.4458 0)
(371.963 84.8149 0)
(374.756 84.2194 0)
(378.745 83.8453 0)
(380.426 85.7218 0)
(210 1.37383e-08 0)
(210 1.00546e-06 0)
(209.999 0.000124822 0)
(209.974 0.00682238 0)
(209.659 0.116533 0)
(208.373 0.66179 0)
(206.393 1.58296 0)
(205.227 2.23706 0)
(204.735 2.52255 0)
(204.888 2.67657 0)
(205.642 2.44343 0)
(206.703 2.0439 0)
(207.659 1.70065 0)
(208.594 1.58064 0)
(209.458 1.459 0)
(210.272 1.3838 0)
(210.954 1.44022 0)
(211.359 1.68667 0)
(211.537 2.04858 0)
(211.646 2.43844 0)
(211.742 2.8668 0)
(211.905 3.30267 0)
(212.252 3.67162 0)
(212.65 4.04234 0)
(212.976 4.47527 0)
(213.248 4.9643 0)
(213.495 5.49888 0)
(213.734 6.07422 0)
(213.955 6.69003 0)
(214.155 7.34398 0)
(214.338 8.03181 0)
(214.502 8.74576 0)
(214.636 9.48208 0)
(214.739 10.2391 0)
(214.824 11.0184 0)
(214.894 11.8233 0)
(214.945 12.6567 0)
(214.978 13.5183 0)
(214.989 14.4114 0)
(214.985 15.3348 0)
(214.964 16.2958 0)
(214.926 17.2919 0)
(214.873 18.321 0)
(214.809 19.3794 0)
(214.736 20.4635 0)
(214.655 21.5713 0)
(214.563 22.7073 0)
(214.459 23.8749 0)
(214.343 25.0764 0)
(214.221 26.3116 0)
(214.098 27.5801 0)
(213.969 28.8867 0)
(213.848 30.2229 0)
(213.73 31.5966 0)
(213.616 33.0088 0)
(213.509 34.4584 0)
(213.412 35.9466 0)
(213.332 37.4742 0)
(213.269 39.0396 0)
(213.229 40.6424 0)
(213.224 42.2847 0)
(213.245 43.9649 0)
(213.306 45.6856 0)
(213.415 47.4465 0)
(213.555 49.2465 0)
(213.764 51.088 0)
(214.033 52.9691 0)
(214.354 54.8894 0)
(214.77 56.8503 0)
(215.251 58.8486 0)
(215.818 60.8848 0)
(216.505 62.9564 0)
(217.273 65.0599 0)
(218.165 67.1957 0)
(219.193 69.3608 0)
(220.333 71.5527 0)
(221.629 73.7668 0)
(223.09 75.9896 0)
(224.682 78.2163 0)
(226.477 80.438 0)
(228.447 82.6521 0)
(230.601 84.8462 0)
(232.96 87.0055 0)
(235.533 89.1091 0)
(238.294 91.1585 0)
(241.297 93.1247 0)
(244.478 95.0348 0)
(247.895 96.8266 0)
(251.463 98.552 0)
(255.293 100.107 0)
(259.305 101.561 0)
(263.47 102.813 0)
(267.801 103.938 0)
(272.257 104.886 0)
(277.138 105.695 0)
(281.725 106.214 0)
(286.957 106.635 0)
(291.566 106.856 0)
(296.82 106.95 0)
(301.62 106.836 0)
(307.152 106.494 0)
(312.033 105.983 0)
(317.171 105.314 0)
(321.653 104.662 0)
(325.833 103.937 0)
(329.807 103.301 0)
(333.974 102.497 0)
(337.813 101.782 0)
(341.629 100.936 0)
(345.085 100.212 0)
(348.576 99.2252 0)
(351.636 98.4875 0)
(355.088 97.363 0)
(357.751 96.4915 0)
(360.402 95.1796 0)
(362.169 94.1033 0)
(363.882 92.7273 0)
(365.565 91.8622 0)
(368.272 91.2379 0)
(373.017 90.5639 0)
(374.737 93.2166 0)
(210 2.41546e-09 0)
(210 2.2159e-07 0)
(210 3.45387e-05 0)
(209.988 0.00266658 0)
(209.797 0.062454 0)
(208.771 0.463132 0)
(206.782 1.33401 0)
(205.301 2.10397 0)
(204.609 2.47685 0)
(204.683 2.6275 0)
(205.254 2.4803 0)
(206.261 2.11177 0)
(207.256 1.77718 0)
(208.214 1.67131 0)
(209.07 1.5513 0)
(209.881 1.46787 0)
(210.581 1.49476 0)
(211.019 1.70633 0)
(211.188 2.0401 0)
(211.277 2.40188 0)
(211.339 2.82539 0)
(211.453 3.2748 0)
(211.743 3.658 0)
(212.117 4.02671 0)
(212.437 4.45198 0)
(212.695 4.93522 0)
(212.929 5.46319 0)
(213.149 6.03028 0)
(213.349 6.63555 0)
(213.528 7.2774 0)
(213.69 7.95096 0)
(213.831 8.64971 0)
(213.938 9.37034 0)
(214.017 10.1102 0)
(214.078 10.8715 0)
(214.122 11.6587 0)
(214.146 12.4741 0)
(214.154 13.3142 0)
(214.136 14.1909 0)
(214.101 15.1004 0)
(214.05 16.0432 0)
(213.982 17.0207 0)
(213.898 18.0312 0)
(213.799 19.0708 0)
(213.691 20.1354 0)
(213.574 21.2244 0)
(213.444 22.3399 0)
(213.3 23.4859 0)
(213.143 24.6654 0)
(212.975 25.879 0)
(212.8 27.1269 0)
(212.624 28.4064 0)
(212.447 29.7206 0)
(212.27 31.0702 0)
(212.094 32.4579 0)
(211.922 33.8829 0)
(211.756 35.3442 0)
(211.601 36.8449 0)
(211.456 38.3855 0)
(211.33 39.963 0)
(211.232 41.5816 0)
(211.151 43.2386 0)
(211.108 44.9374 0)
(211.101 46.6778 0)
(211.12 48.4591 0)
(211.199 50.2854 0)
(211.325 52.1542 0)
(211.498 54.0659 0)
(211.755 56.0227 0)
(212.062 58.0209 0)
(212.451 60.0635 0)
(212.946 62.1497 0)
(213.509 64.2755 0)
(214.189 66.4421 0)
(214.987 68.6441 0)
(215.887 70.8759 0)
(216.937 73.1332 0)
(218.138 75.4059 0)
(219.464 77.6935 0)
(220.985 79.9929 0)
(222.662 82.2995 0)
(224.512 84.6005 0)
(226.558 86.8837 0)
(228.797 89.1359 0)
(231.217 91.3595 0)
(233.871 93.5384 0)
(236.719 95.68 0)
(239.81 97.7427 0)
(243.089 99.7459 0)
(246.636 101.589 0)
(250.312 103.374 0)
(254.272 104.995 0)
(258.415 106.507 0)
(262.699 107.776 0)
(267.249 108.975 0)
(271.628 109.905 0)
(276.514 110.706 0)
(281.094 111.304 0)
(286.132 111.805 0)
(291.119 112.114 0)
(296.04 112.24 0)
(301.193 112.148 0)
(305.84 112.011 0)
(311.149 111.647 0)
(316.06 110.977 0)
(321.158 110.036 0)
(326.351 108.956 0)
(330.809 107.977 0)
(335.144 107.033 0)
(338.959 106.241 0)
(342.637 105.385 0)
(345.89 104.827 0)
(349.492 104.043 0)
(352.416 103.61 0)
(355.531 102.642 0)
(357.547 101.81 0)
(359.189 100.519 0)
(360.691 99.7179 0)
(363.64 99.0491 0)
(368.989 98.5441 0)
(370.833 101.953 0)
(210 4.59852e-10 0)
(210 4.31093e-08 0)
(210 7.44258e-06 0)
(209.995 0.000884749 0)
(209.891 0.0295485 0)
(209.139 0.296378 0)
(207.264 1.07029 0)
(205.492 1.92989 0)
(204.535 2.39755 0)
(204.521 2.54392 0)
(204.877 2.47713 0)
(205.801 2.18672 0)
(206.832 1.86365 0)
(207.808 1.75041 0)
(208.652 1.61858 0)
(209.459 1.52568 0)
(210.178 1.52934 0)
(210.658 1.70082 0)
(210.832 1.99836 0)
(210.902 2.33951 0)
(210.931 2.75644 0)
(211.009 3.2055 0)
(211.234 3.6111 0)
(211.574 3.9872 0)
(211.884 4.40927 0)
(212.13 4.88928 0)
(212.347 5.41219 0)
(212.548 5.97164 0)
(212.726 6.56653 0)
(212.882 7.19614 0)
(213.023 7.85514 0)
(213.137 8.53896 0)
(213.217 9.24358 0)
(213.273 9.96622 0)
(213.31 10.71 0)
(213.327 11.4792 0)
(213.325 12.2739 0)
(213.3 13.1032 0)
(213.256 13.9621 0)
(213.192 14.8543 0)
(213.11 15.7812 0)
(213.01 16.7421 0)
(212.893 17.7354 0)
(212.759 18.7576 0)
(212.615 19.8049 0)
(212.459 20.8758 0)
(212.291 21.9727 0)
(212.106 23.0996 0)
(211.905 24.2597 0)
(211.689 25.4538 0)
(211.465 26.6811 0)
(211.235 27.9417 0)
(211.002 29.2356 0)
(210.766 30.5644 0)
(210.529 31.9283 0)
(210.292 33.329 0)
(210.057 34.7672 0)
(209.829 36.2435 0)
(209.601 37.7638 0)
(209.394 39.3149 0)
(209.204 40.9081 0)
(209.028 42.5403 0)
(208.886 44.2144 0)
(208.77 45.9305 0)
(208.676 47.6866 0)
(208.636 49.4888 0)
(208.629 51.3332 0)
(208.666 53.2213 0)
(208.776 55.1557 0)
(208.924 57.1322 0)
(209.15 59.1563 0)
(209.464 61.2264 0)
(209.833 63.3381 0)
(210.311 65.4942 0)
(210.887 67.6902 0)
(211.553 69.924 0)
(212.36 72.1976 0)
(213.295 74.5052 0)
(214.342 76.847 0)
(215.57 79.2192 0)
(216.935 81.6126 0)
(218.463 84.0179 0)
(220.185 86.4283 0)
(222.093 88.8344 0)
(224.189 91.2336 0)
(226.523 93.6079 0)
(229.05 95.9515 0)
(231.799 98.2378 0)
(234.743 100.473 0)
(237.952 102.602 0)
(241.32 104.681 0)
(244.98 106.58 0)
(248.762 108.443 0)
(252.806 110.125 0)
(257.003 111.679 0)
(261.501 113.011 0)
(266.112 114.125 0)
(271.017 115.104 0)
(275.574 115.901 0)
(280.719 116.585 0)
(285.114 117.136 0)
(290.233 117.427 0)
(294.861 117.632 0)
(299.681 117.666 0)
(304.698 117.54 0)
(309.471 117.265 0)
(314.522 116.739 0)
(318.923 116.225 0)
(323.776 115.416 0)
(327.932 114.758 0)
(332.787 113.792 0)
(336.604 113.025 0)
(341.25 111.932 0)
(344.663 111.077 0)
(348.544 109.787 0)
(351.073 108.804 0)
(353.374 107.489 0)
(355.437 106.716 0)
(358.689 106.08 0)
(364.013 105.762 0)
(365.895 109.007 0)
(210 1.72376e-11 0)
(210 3.76358e-09 0)
(210 1.05043e-06 0)
(209.998 0.000236535 0)
(209.948 0.0120118 0)
(209.449 0.169799 0)
(207.799 0.799861 0)
(205.768 1.70725 0)
(204.499 2.2766 0)
(204.388 2.44482 0)
(204.533 2.47119 0)
(205.338 2.28336 0)
(206.39 1.96143 0)
(207.384 1.82672 0)
(208.215 1.68086 0)
(209.02 1.58276 0)
(209.758 1.56974 0)
(210.277 1.69829 0)
(210.462 1.96431 0)
(210.512 2.28881 0)
(210.507 2.70791 0)
(210.555 3.15502 0)
(210.725 3.58733 0)
(211.025 3.97088 0)
(211.319 4.38197 0)
(211.548 4.84853 0)
(211.748 5.35851 0)
(211.928 5.90539 0)
(212.083 6.48657 0)
(212.218 7.10075 0)
(212.336 7.74271 0)
(212.421 8.4097 0)
(212.477 9.09614 0)
(212.512 9.79938 0)
(212.525 10.5221 0)
(212.514 11.273 0)
(212.483 12.0532 0)
(212.434 12.8612 0)
(212.363 13.7014 0)
(212.27 14.5758 0)
(212.158 15.4845 0)
(212.028 16.4262 0)
(211.879 17.3989 0)
(211.714 18.3999 0)
(211.535 19.4259 0)
(211.344 20.4753 0)
(211.139 21.5497 0)
(210.916 22.653 0)
(210.674 23.7888 0)
(210.415 24.9581 0)
(210.144 26.1604 0)
(209.865 27.3948 0)
(209.58 28.6617 0)
(209.29 29.9621 0)
(208.995 31.2977 0)
(208.696 32.6693 0)
(208.396 34.0783 0)
(208.095 35.5255 0)
(207.8 37.0088 0)
(207.513 38.5308 0)
(207.234 40.0955 0)
(206.965 41.6985 0)
(206.726 43.3402 0)
(206.5 45.0277 0)
(206.299 46.7548 0)
(206.138 48.531 0)
(206 50.3507 0)
(205.902 52.2167 0)
(205.863 54.1319 0)
(205.85 56.0916 0)
(205.912 58.104 0)
(206.044 60.1661 0)
(206.222 62.274 0)
(206.501 64.4335 0)
(206.861 66.6394 0)
(207.302 68.8918 0)
(207.875 71.1928 0)
(208.552 73.5339 0)
(209.334 75.912 0)
(210.284 78.3232 0)
(211.353 80.758 0)
(212.582 83.2144 0)
(213.991 85.6899 0)
(215.562 88.177 0)
(217.305 90.6728 0)
(219.265 93.1638 0)
(221.4 95.642 0)
(223.748 98.0892 0)
(226.303 100.501 0)
(229.097 102.851 0)
(232.071 105.168 0)
(235.348 107.371 0)
(238.751 109.542 0)
(242.463 111.542 0)
(246.327 113.504 0)
(250.458 115.264 0)
(254.814 116.904 0)
(259.382 118.366 0)
(264.046 119.564 0)
(268.966 120.695 0)
(274.017 121.588 0)
(279.019 122.258 0)
(284.432 122.788 0)
(289.136 123.152 0)
(294.59 123.369 0)
(299.038 123.543 0)
(303.906 123.411 0)
(308.355 123.276 0)
(313.168 122.817 0)
(317.38 122.529 0)
(322.01 121.886 0)
(325.855 121.54 0)
(330.216 120.825 0)
(333.933 120.337 0)
(338.114 119.329 0)
(341.169 118.418 0)
(343.793 117.216 0)
(346.038 116.469 0)
(349.28 115.77 0)
(354.873 115.114 0)
(356.564 118.55 0)
(210 -1.56782e-11 0)
(210 -7.80336e-10 0)
(210 3.8279e-08 0)
(209.999 4.56648e-05 0)
(209.979 0.00407012 0)
(209.684 0.0853764 0)
(208.352 0.54842 0)
(206.192 1.43855 0)
(204.563 2.09096 0)
(204.284 2.3486 0)
(204.239 2.45428 0)
(204.872 2.35354 0)
(205.914 2.03526 0)
(206.929 1.87609 0)
(207.755 1.72179 0)
(208.56 1.62111 0)
(209.315 1.58625 0)
(209.876 1.66006 0)
(210.09 1.89518 0)
(210.13 2.20454 0)
(210.097 2.625 0)
(210.106 3.07885 0)
(210.227 3.53629 0)
(210.475 3.93423 0)
(210.745 4.33541 0)
(210.955 4.78796 0)
(211.136 5.28528 0)
(211.292 5.81941 0)
(211.425 6.38571 0)
(211.539 6.98276 0)
(211.63 7.60763 0)
(211.687 8.25802 0)
(211.722 8.92565 0)
(211.736 9.60746 0)
(211.719 10.3155 0)
(211.681 11.0491 0)
(211.625 11.81 0)
(211.549 12.6006 0)
(211.451 13.4234 0)
(211.329 14.2805 0)
(211.186 15.1717 0)
(211.024 16.0948 0)
(210.844 17.048 0)
(210.645 18.029 0)
(210.43 19.035 0)
(210.202 20.0643 0)
(209.958 21.118 0)
(209.696 22.1996 0)
(209.413 23.3129 0)
(209.11 24.4593 0)
(208.791 25.6384 0)
(208.461 26.8491 0)
(208.122 28.0917 0)
(207.776 29.3667 0)
(207.423 30.6754 0)
(207.063 32.019 0)
(206.698 33.3989 0)
(206.329 34.8162 0)
(205.959 36.2719 0)
(205.591 37.7661 0)
(205.23 39.298 0)
(204.879 40.8671 0)
(204.547 42.4771 0)
(204.212 44.1391 0)
(203.91 45.8299 0)
(203.636 47.571 0)
(203.376 49.357 0)
(203.157 51.1895 0)
(202.981 53.0716 0)
(202.824 54.9973 0)
(202.737 56.9775 0)
(202.702 59.0068 0)
(202.705 61.0835 0)
(202.8 63.2158 0)
(202.955 65.397 0)
(203.183 67.6297 0)
(203.527 69.9162 0)
(203.952 72.247 0)
(204.475 74.6236 0)
(205.152 77.047 0)
(205.927 79.5107 0)
(206.853 82.0192 0)
(207.941 84.5687 0)
(209.17 87.1485 0)
(210.569 89.7536 0)
(212.175 92.3695 0)
(213.945 94.9853 0)
(215.927 97.5911 0)
(218.115 100.185 0)
(220.52 102.751 0)
(223.121 105.288 0)
(225.997 107.742 0)
(229.023 110.16 0)
(232.359 112.449 0)
(235.794 114.718 0)
(239.532 116.81 0)
(243.418 118.811 0)
(247.591 120.59 0)
(252.012 122.304 0)
(256.418 123.71 0)
(261.288 125.272 0)
(265.901 126.369 0)
(271.198 127.522 0)
(275.934 128.259 0)
(281.402 129.058 0)
(286.348 129.417 0)
(291.886 129.608 0)
(297.231 129.492 0)
(302.668 129.152 0)
(307.538 128.806 0)
(312.724 128.285 0)
(316.942 127.951 0)
(321.677 127.417 0)
(325.624 127.183 0)
(329.982 126.617 0)
(333.241 126.014 0)
(335.85 125.002 0)
(337.909 124.431 0)
(341.35 124.066 0)
(347.77 123.914 0)
(349.466 128.684 0)
(210 -1.66758e-11 0)
(210 -6.26238e-10 0)
(210 -5.27598e-08 0)
(210 3.58843e-06 0)
(209.992 0.00108754 0)
(209.84 0.0366509 0)
(208.867 0.337007 0)
(206.748 1.1355 0)
(204.753 1.87098 0)
(204.185 2.26154 0)
(203.983 2.40891 0)
(204.415 2.37779 0)
(205.418 2.09995 0)
(206.455 1.92564 0)
(207.281 1.75489 0)
(208.083 1.64625 0)
(208.854 1.6002 0)
(209.453 1.6373 0)
(209.708 1.85118 0)
(209.743 2.15413 0)
(209.689 2.56553 0)
(209.649 3.0275 0)
(209.731 3.49581 0)
(209.921 3.89684 0)
(210.16 4.28552 0)
(210.352 4.72215 0)
(210.51 5.20356 0)
(210.641 5.72031 0)
(210.753 6.26693 0)
(210.844 6.84349 0)
(210.907 7.45053 0)
(210.941 8.08161 0)
(210.959 8.72674 0)
(210.943 9.39519 0)
(210.902 10.0846 0)
(210.838 10.8003 0)
(210.755 11.5439 0)
(210.653 12.3168 0)
(210.528 13.1213 0)
(210.379 13.9595 0)
(210.207 14.8309 0)
(210.015 15.733 0)
(209.804 16.6636 0)
(209.574 17.6209 0)
(209.326 18.603 0)
(209.063 19.6083 0)
(208.783 20.6372 0)
(208.485 21.6929 0)
(208.164 22.779 0)
(207.82 23.8976 0)
(207.458 25.0481 0)
(207.081 26.2296 0)
(206.694 27.4418 0)
(206.296 28.6853 0)
(205.89 29.9614 0)
(205.473 31.2714 0)
(205.048 32.6167 0)
(204.614 33.9984 0)
(204.176 35.4172 0)
(203.735 36.8738 0)
(203.296 38.3689 0)
(202.861 39.9035 0)
(202.432 41.4795 0)
(202.014 43.0935 0)
(201.611 44.7512 0)
(201.223 46.4562 0)
(200.842 48.2091 0)
(200.502 50.0038 0)
(200.185 51.8519 0)
(199.888 53.7447 0)
(199.651 55.6967 0)
(199.445 57.699 0)
(199.276 59.7521 0)
(199.187 61.8654 0)
(199.138 64.0289 0)
(199.16 66.249 0)
(199.283 68.5273 0)
(199.467 70.8542 0)
(199.748 73.2362 0)
(200.162 75.6741 0)
(200.655 78.1587 0)
(201.292 80.6955 0)
(202.069 83.2762 0)
(202.966 85.8915 0)
(204.028 88.5424 0)
(205.274 91.2205 0)
(206.667 93.9202 0)
(208.265 96.6412 0)
(210.058 99.3802 0)
(212.055 102.121 0)
(214.264 104.852 0)
(216.726 107.543 0)
(219.364 110.217 0)
(222.3 112.824 0)
(225.384 115.413 0)
(228.809 117.842 0)
(232.353 120.221 0)
(236.216 122.391 0)
(240.214 124.509 0)
(244.479 126.466 0)
(248.863 128.294 0)
(253.402 129.888 0)
(258.158 131.34 0)
(262.913 132.585 0)
(267.643 133.721 0)
(272.899 134.77 0)
(277.584 135.501 0)
(283.191 136.139 0)
(288.178 136.465 0)
(293.218 136.64 0)
(298.55 136.6 0)
(303.204 136.492 0)
(308.675 136.214 0)
(313.128 136.012 0)
(318.745 135.659 0)
(322.644 135.089 0)
(326.461 133.907 0)
(329.517 132.876 0)
(333.224 132.138 0)
(339.287 131.887 0)
(340.899 135.595 0)
(210 1.38375e-12 0)
(210 -2.0967e-10 0)
(210 -2.46434e-08 0)
(210 -1.14628e-06 0)
(209.998 0.000199989 0)
(209.929 0.0129695 0)
(209.298 0.181916 0)
(207.392 0.823844 0)
(205.124 1.62908 0)
(204.142 2.16259 0)
(203.778 2.27888 0)
(204.012 2.3467 0)
(204.917 2.16599 0)
(205.96 1.96429 0)
(206.794 1.75701 0)
(207.597 1.63341 0)
(208.381 1.58919 0)
(209.021 1.60815 0)
(209.33 1.80756 0)
(209.369 2.09843 0)
(209.306 2.48763 0)
(209.193 2.96066 0)
(209.24 3.41787 0)
(209.366 3.83348 0)
(209.569 4.21823 0)
(209.744 4.63937 0)
(209.878 5.10272 0)
(209.982 5.60023 0)
(210.07 6.12684 0)
(210.136 6.68525 0)
(210.171 7.27457 0)
(210.192 7.88067 0)
(210.182 8.51154 0)
(210.144 9.15863 0)
(210.079 9.82849 0)
(209.99 10.5252 0)
(209.882 11.2506 0)
(209.753 12.0059 0)
(209.601 12.7929 0)
(209.423 13.6131 0)
(209.221 14.4659 0)
(208.998 15.348 0)
(208.756 16.2569 0)
(208.494 17.1915 0)
(208.211 18.1506 0)
(207.911 19.1329 0)
(207.595 20.1386 0)
(207.259 21.17 0)
(206.898 22.2306 0)
(206.513 23.3228 0)
(206.106 24.4464 0)
(205.682 25.6003 0)
(205.244 26.7839 0)
(204.795 27.9977 0)
(204.333 29.2428 0)
(203.859 30.5205 0)
(203.374 31.8324 0)
(202.877 33.1797 0)
(202.37 34.5636 0)
(201.857 35.9844 0)
(201.34 37.4428 0)
(200.824 38.9395 0)
(200.31 40.4757 0)
(199.8 42.0531 0)
(199.298 43.6732 0)
(198.806 45.3364 0)
(198.328 47.0413 0)
(197.875 48.7944 0)
(197.423 50.6042 0)
(197.001 52.4504 0)
(196.626 54.3549 0)
(196.265 56.3114 0)
(195.945 58.3183 0)
(195.687 60.3876 0)
(195.453 62.5059 0)
(195.289 64.6858 0)
(195.204 66.9265 0)
(195.159 69.2196 0)
(195.207 71.5764 0)
(195.362 73.9944 0)
(195.577 76.4645 0)
(195.93 78.9977 0)
(196.395 81.5849 0)
(196.968 84.2219 0)
(197.7 86.9137 0)
(198.593 89.6512 0)
(199.619 92.4289 0)
(200.839 95.2477 0)
(202.233 98.0969 0)
(203.813 100.96 0)
(205.599 103.829 0)
(207.609 106.694 0)
(209.802 109.56 0)
(212.268 112.388 0)
(214.903 115.195 0)
(217.854 117.918 0)
(220.938 120.642 0)
(224.393 123.231 0)
(227.992 125.781 0)
(231.911 128.127 0)
(235.996 130.427 0)
(240.327 132.545 0)
(244.841 134.494 0)
(249.633 136.331 0)
(254.417 137.803 0)
(259.582 139.267 0)
(264.277 140.405 0)
(269.55 141.52 0)
(274.451 142.379 0)
(279.324 143.022 0)
(284.589 143.512 0)
(289.226 143.836 0)
(294.261 143.954 0)
(298.892 144.117 0)
(304.034 144.014 0)
(308.146 143.925 0)
(312.234 143.257 0)
(315.453 142.413 0)
(318.954 141.873 0)
(325.99 141.331 0)
(327.402 146.196 0)
(210 5.62272e-12 0)
(210 -6.18529e-11 0)
(210 -7.61346e-09 0)
(210 -6.3183e-07 0)
(209.999 9.72757e-06 0)
(209.973 0.00357146 0)
(209.613 0.0835788 0)
(208.07 0.543125 0)
(205.633 1.34438 0)
(204.188 1.99121 0)
(203.592 2.12765 0)
(203.686 2.32805 0)
(204.427 2.21313 0)
(205.444 1.9724 0)
(206.298 1.72922 0)
(207.112 1.62203 0)
(207.907 1.60717 0)
(208.579 1.61443 0)
(208.946 1.79009 0)
(208.996 2.05308 0)
(208.933 2.40484 0)
(208.745 2.87671 0)
(208.744 3.32555 0)
(208.815 3.75304 0)
(208.975 4.13383 0)
(209.133 4.53408 0)
(209.242 4.97617 0)
(209.321 5.45423 0)
(209.384 5.96297 0)
(209.418 6.50618 0)
(209.436 7.07408 0)
(209.433 7.6672 0)
(209.399 8.28075 0)
(209.337 8.91111 0)
(209.247 9.56422 0)
(209.132 10.2444 0)
(208.998 10.9531 0)
(208.843 11.6907 0)
(208.665 12.4584 0)
(208.46 13.2574 0)
(208.23 14.0873 0)
(207.978 14.945 0)
(207.708 15.828 0)
(207.416 16.7354 0)
(207.102 17.6671 0)
(206.769 18.6221 0)
(206.418 19.6002 0)
(206.047 20.6031 0)
(205.652 21.6338 0)
(205.229 22.695 0)
(204.782 23.7867 0)
(204.315 24.908 0)
(203.832 26.058 0)
(203.334 27.237 0)
(202.823 28.4459 0)
(202.297 29.686 0)
(201.756 30.9591 0)
(201.201 32.2662 0)
(200.632 33.6088 0)
(200.053 34.9875 0)
(199.465 36.4031 0)
(198.873 37.8563 0)
(198.278 39.3482 0)
(197.683 40.8799 0)
(197.091 42.4534 0)
(196.501 44.0703 0)
(195.92 45.7325 0)
(195.346 47.4419 0)
(194.785 49.1965 0)
(194.242 51.0001 0)
(193.727 52.8578 0)
(193.204 54.7779 0)
(192.738 56.7382 0)
(192.306 58.7649 0)
(191.892 60.8425 0)
(191.544 62.9874 0)
(191.251 65.1935 0)
(190.988 67.4528 0)
(190.815 69.7814 0)
(190.722 72.171 0)
(190.681 74.6164 0)
(190.771 77.1321 0)
(190.944 79.7053 0)
(191.213 82.3376 0)
(191.63 85.0362 0)
(192.174 87.7903 0)
(192.835 90.5977 0)
(193.676 93.4612 0)
(194.666 96.3668 0)
(195.83 99.307 0)
(197.193 102.281 0)
(198.755 105.28 0)
(200.505 108.296 0)
(202.51 111.303 0)
(204.699 114.309 0)
(207.17 117.291 0)
(209.795 120.275 0)
(212.771 123.155 0)
(215.882 125.996 0)
(219.36 128.687 0)
(222.953 131.359 0)
(226.842 133.891 0)
(230.917 136.369 0)
(235.265 138.638 0)
(239.873 140.805 0)
(244.536 142.651 0)
(249.524 144.624 0)
(254.364 146.122 0)
(259.934 147.747 0)
(264.992 148.663 0)
(270.955 149.697 0)
(276.111 150.231 0)
(281.814 150.775 0)
(286.93 151.173 0)
(292.688 151.421 0)
(297.132 151.524 0)
(301.795 151.18 0)
(305.166 150.676 0)
(308.964 150.441 0)
(316.149 150.765 0)
(317.364 156.695 0)
(210 5.15124e-12 0)
(210 -1.26323e-11 0)
(210 -1.90723e-09 0)
(210 -2.06138e-07 0)
(210 -9.62816e-06 0)
(209.991 0.000655374 0)
(209.814 0.0317029 0)
(208.695 0.315424 0)
(206.295 1.03711 0)
(204.379 1.76674 0)
(203.452 2.03099 0)
(203.44 2.23935 0)
(203.961 2.18837 0)