/*--------------------------------*- C++ -*----------------------------------*\
| =========                 |                                                 |
| \\      /  F ield         | OpenFOAM: The Open Source CFD Toolbox           |
|  \\    /   O peration     | Version:  2412                                  |
|   \\  /    A nd           | Website:  www.openfoam.com                      |
|    \\/     M anipulation  |                                                 |
\*---------------------------------------------------------------------------*/
FoamFile
{
    version     2.0;
    format      ascii;
    arch        "LSB;label=32;scalar=64";
    class       volVectorField;
    location    "0.021";
    object      U;
}
// * * * * * * * * * * * * * * * * * * * * * * * * * * * * * * * * * * * * * //

dimensions      [0 1 -1 0 0 0 0];

internalField   nonuniform List<vector> 
78650
(
(210 2.05945e-12 0)
(210 5.56843e-12 0)
(210 -2.1541e-13 0)
(210 1.12196e-11 0)
(210 1.34555e-11 0)
(210 -2.73674e-12 0)
(210 -5.04217e-12 0)
(210 6.34937e-12 0)
(210 8.62451e-12 0)
(210 3.87201e-12 0)
(210 -4.09617e-12 0)
(210 4.15183e-12 0)
(210 6.17114e-12 0)
(210 4.8507e-12 0)
(210 9.76403e-12 0)
(210 4.59133e-10 0)
(210 5.50147e-08 0)
(210 5.55678e-06 0)
(209.998 0.000515156 0)
(209.936 0.0182713 0)
(209.413 0.212441 0)
(207.876 0.899989 0)
(205.996 1.78741 0)
(205.122 2.3047 0)
(204.814 2.54871 0)
(205.055 2.63425 0)
(205.929 2.36818 0)
(207.028 1.99974 0)
(207.98 1.66626 0)
(208.909 1.51881 0)
(209.761 1.37419 0)
(210.546 1.32615 0)
(211.16 1.44536 0)
(211.498 1.73894 0)
(211.693 2.12578 0)
(211.853 2.54853 0)
(212.062 2.98143 0)
(212.366 3.38847 0)
(212.761 3.76534 0)
(213.091 4.19632 0)
(213.338 4.6891 0)
(213.572 5.21873 0)
(213.819 5.7742 0)
(214.079 6.35401 0)
(214.333 6.9679 0)
(214.57 7.61816 0)
(214.769 8.30674 0)
(214.93 9.03493 0)
(215.078 9.79882 0)
(215.193 10.6046 0)
(215.285 11.4485 0)
(215.38 12.3225 0)
(215.466 13.229 0)
(215.536 14.1696 0)
(215.589 15.144 0)
(215.628 16.1506 0)
(215.653 17.189 0)
(215.665 18.2591 0)
(215.664 19.3621 0)
(215.651 20.4998 0)
(215.629 21.6726 0)
(215.602 22.8809 0)
(215.574 24.1247 0)
(215.546 25.4065 0)
(215.518 26.7293 0)
(215.495 28.0953 0)
(215.478 29.5054 0)
(215.473 30.959 0)
(215.489 32.4583 0)
(215.525 34.0033 0)
(215.591 35.595 0)
(215.691 37.2353 0)
(215.827 38.9248 0)
(216.012 40.6657 0)
(216.244 42.4588 0)
(216.542 44.3049 0)
(216.9 46.2034 0)
(217.347 48.1545 0)
(217.876 50.1575 0)
(218.509 52.2122 0)
(219.254 54.3175 0)
(220.123 56.4706 0)
(221.14 58.6677 0)
(222.306 60.9072 0)
(223.662 63.1816 0)
(225.185 65.4894 0)
(226.954 67.8075 0)
(228.912 70.1402 0)
(231.173 72.4624 0)
(233.647 74.7962 0)
(236.473 77.0708 0)
(239.525 79.3178 0)
(243.022 81.4242 0)
(246.727 83.5654 0)
(250.979 85.453 0)
(255.421 87.3359 0)
(260.364 88.8845 0)
(265.63 90.2633 0)
(271.261 91.3341 0)
(277.398 92.2151 0)
(283.734 92.6736 0)
(290.609 92.8371 0)
(297.314 92.5902 0)
(303.945 92.1491 0)
(310.709 91.4147 0)
(317.521 90.254 0)
(323.78 89.086 0)
(329.978 87.5876 0)
(335.939 85.8073 0)
(341.864 83.8372 0)
(347.781 81.8022 0)
(353.841 79.4528 0)
(358.919 77.3258 0)
(363.873 74.9242 0)
(367.109 72.8618 0)
(369.306 71.2996 0)
(371.623 69.4302 0)
(374.291 68.2465 0)
(378.928 66.8886 0)
(385.787 65.7257 0)
(388.391 69.2165 0)
(210 4.95772e-12 0)
(210 6.69896e-12 0)
(210 1.48057e-12 0)
(210 1.26511e-11 0)
(210 6.39698e-12 0)
(210 3.77437e-12 0)
(210 3.53733e-12 0)
(210 8.29805e-12 0)
(210 2.42666e-13 0)
(210 -5.14412e-12 0)
(210 -4.04403e-12 0)
(210 5.30063e-12 0)
(210 3.96545e-12 0)
(210 7.40193e-12 0)
(210 1.50935e-12 0)
(210 8.92467e-11 0)
(210 1.27144e-08 0)
(210 1.55801e-06 0)
(209.999 0.000193145 0)
(209.964 0.00917857 0)
(209.59 0.13618 0)
(208.228 0.702049 0)
(206.272 1.60036 0)
(205.147 2.21089 0)
(204.707 2.48829 0)
(204.876 2.64306 0)
(205.606 2.43062 0)
(206.671 2.06375 0)
(207.647 1.72338 0)
(208.595 1.58702 0)
(209.451 1.4511 0)
(210.249 1.40118 0)
(210.89 1.49175 0)
(211.247 1.75721 0)
(211.432 2.12268 0)
(211.568 2.52922 0)
(211.736 2.95588 0)
(211.992 3.36805 0)
(212.361 3.73915 0)
(212.684 4.15522 0)
(212.918 4.63613 0)
(213.134 5.1596 0)
(213.361 5.71168 0)
(213.603 6.2875 0)
(213.841 6.89561 0)
(214.064 7.53789 0)
(214.246 8.21739 0)
(214.395 8.93263 0)
(214.527 9.68258 0)
(214.62 10.4744 0)
(214.693 11.302 0)
(214.767 12.161 0)
(214.828 13.0528 0)
(214.872 13.9774 0)
(214.899 14.9354 0)
(214.912 15.9254 0)
(214.908 16.947 0)
(214.89 17.9993 0)
(214.857 19.0835 0)
(214.811 20.2013 0)
(214.754 21.3536 0)
(214.689 22.541 0)
(214.62 23.7633 0)
(214.548 25.0226 0)
(214.475 26.3218 0)
(214.402 27.6633 0)
(214.33 29.0499 0)
(214.266 30.4788 0)
(214.218 31.9539 0)
(214.183 33.4754 0)
(214.174 35.0429 0)
(214.192 36.6596 0)
(214.241 38.3256 0)
(214.331 40.044 0)
(214.459 41.8155 0)
(214.644 43.6423 0)
(214.879 45.5239 0)
(215.191 47.4618 0)
(215.574 49.4551 0)
(216.048 51.5046 0)
(216.621 53.6101 0)
(217.305 55.7705 0)
(218.121 57.9842 0)
(219.071 60.2501 0)
(220.194 62.5619 0)
(221.472 64.918 0)
(222.98 67.3058 0)
(224.664 69.7331 0)
(226.633 72.176 0)
(228.803 74.6351 0)
(231.309 77.0511 0)
(234.042 79.4562 0)
(237.195 81.7794 0)
(240.552 84.1264 0)
(244.42 86.2719 0)
(248.424 88.4301 0)
(252.96 90.256 0)
(257.704 92.0298 0)
(262.941 93.479 0)
(268.585 94.7349 0)
(274.488 95.6194 0)
(280.647 96.2829 0)
(287.295 96.6779 0)
(294.093 96.6559 0)
(301.149 96.2715 0)
(308.264 95.5089 0)
(315.08 94.5484 0)
(321.645 93.5717 0)
(328.627 92.0158 0)
(334.585 90.6565 0)
(340.816 88.9186 0)
(346.626 86.9155 0)
(351.793 85.0373 0)
(357.601 82.7305 0)
(362.283 80.3614 0)
(365.565 78.0017 0)
(367.564 75.8816 0)
(369.388 74.5176 0)
(373.471 73.2868 0)
(380.981 71.9218 0)
(383.97 75.829 0)
(210 3.00482e-12 0)
(210 6.22381e-12 0)
(210 -7.9095e-13 0)
(210 6.72695e-12 0)
(210 4.34956e-12 0)
(210 4.84336e-12 0)
(210 2.53022e-12 0)
(210 -6.86347e-12 0)
(210 -7.8937e-14 0)
(210 -3.92245e-12 0)
(210 2.3747e-13 0)
(210 6.40485e-12 0)
(210 3.90093e-12 0)
(210 7.27145e-12 0)
(210 -4.57837e-12 0)
(210 4.49486e-11 0)
(210 6.07006e-09 0)
(210 6.27383e-07 0)
(210 7.27633e-05 0)
(209.981 0.00432511 0)
(209.731 0.0822456 0)
(208.595 0.527218 0)
(206.62 1.39754 0)
(205.221 2.10412 0)
(204.613 2.45078 0)
(204.716 2.61479 0)
(205.282 2.45905 0)
(206.29 2.10795 0)
(207.296 1.75996 0)
(208.265 1.63259 0)
(209.123 1.50271 0)
(209.929 1.44968 0)
(210.598 1.50975 0)
(210.987 1.74975 0)
(211.166 2.09792 0)
(211.281 2.49001 0)
(211.411 2.90949 0)
(211.618 3.32626 0)
(211.957 3.6924 0)
(212.274 4.09244 0)
(212.499 4.56066 0)
(212.699 5.07773 0)
(212.907 5.6266 0)
(213.129 6.19973 0)
(213.352 6.80381 0)
(213.56 7.44036 0)
(213.725 8.11335 0)
(213.862 8.81861 0)
(213.976 9.55794 0)
(214.044 10.3378 0)
(214.099 11.1514 0)
(214.151 11.9972 0)
(214.186 12.8759 0)
(214.204 13.7858 0)
(214.205 14.7288 0)
(214.19 15.7031 0)
(214.157 16.7094 0)
(214.108 17.7459 0)
(214.044 18.8131 0)
(213.964 19.9134 0)
(213.87 21.0479 0)
(213.767 22.2166 0)
(213.657 23.4198 0)
(213.541 24.6596 0)
(213.422 25.9385 0)
(213.299 27.2584 0)
(213.171 28.6256 0)
(213.05 30.0316 0)
(212.939 31.4831 0)
(212.835 32.9826 0)
(212.755 34.5266 0)
(212.693 36.1208 0)
(212.659 37.7631 0)
(212.658 39.4577 0)
(212.689 41.2051 0)
(212.768 43.0082 0)
(212.888 44.8665 0)
(213.076 46.7821 0)
(213.324 48.7536 0)
(213.652 50.7827 0)
(214.067 52.8701 0)
(214.578 55.0151 0)
(215.206 57.217 0)
(215.953 59.4743 0)
(216.855 61.7838 0)
(217.894 64.1456 0)
(219.135 66.5523 0)
(220.531 69.0044 0)
(222.185 71.4796 0)
(224.02 73.9785 0)
(226.168 76.4723 0)
(228.533 78.989 0)
(231.278 81.4774 0)
(234.227 83.984 0)
(237.655 86.348 0)
(241.233 88.7216 0)
(245.391 90.8369 0)
(249.702 92.9798 0)
(254.545 94.8237 0)
(259.707 96.537 0)
(265.344 97.9577 0)
(271.369 99.094 0)
(277.624 99.9324 0)
(284.233 100.464 0)
(290.863 100.621 0)
(297.991 100.495 0)
(305.36 99.8016 0)
(311.922 99.0379 0)
(319.866 97.7591 0)
(326.383 96.43 0)
(332.548 95.085 0)
(339.02 93.3234 0)
(344.678 91.7169 0)
(350.918 89.6781 0)
(356.083 87.7882 0)
(360.659 85.2645 0)
(363.832 82.4643 0)
(366.037 80.3736 0)
(370.078 79.2625 0)
(378.521 78.0096 0)
(381.712 82.9541 0)
(210 9.77188e-12 0)
(210 8.68438e-12 0)
(210 6.72157e-12 0)
(210 3.70636e-12 0)
(210 5.20173e-12 0)
(210 -7.79319e-13 0)
(210 -8.84589e-12 0)
(210 -1.03332e-11 0)
(210 9.84181e-13 0)
(210 3.69156e-12 0)
(210 3.82912e-12 0)
(210 4.56702e-12 0)
(210 3.67873e-12 0)
(210 -1.05335e-12 0)
(210 -4.73297e-12 0)
(210 9.11557e-12 0)
(210 9.98524e-10 0)
(210 1.22505e-07 0)
(210 2.00727e-05 0)
(209.991 0.0017633 0)
(209.835 0.0450168 0)
(208.934 0.368914 0)
(207.011 1.17244 0)
(205.361 1.97072 0)
(204.547 2.39993 0)
(204.58 2.54777 0)
(204.968 2.46635 0)
(205.904 2.17163 0)
(206.945 1.83423 0)
(207.941 1.71011 0)
(208.798 1.57734 0)
(209.607 1.51704 0)
(210.294 1.54897 0)
(210.715 1.75766 0)
(210.888 2.082 0)
(210.983 2.45387 0)
(211.081 2.86073 0)
(211.239 3.28052 0)
(211.541 3.65089 0)
(211.847 4.04214 0)
(212.064 4.50127 0)
(212.249 5.0133 0)
(212.438 5.55864 0)
(212.641 6.12829 0)
(212.85 6.72606 0)
(213.042 7.35382 0)
(213.192 8.01604 0)
(213.318 8.70689 0)
(213.411 9.43184 0)
(213.46 10.1951 0)
(213.498 10.9917 0)
(213.527 11.8215 0)
(213.535 12.6843 0)
(213.529 13.5765 0)
(213.506 14.5014 0)
(213.463 15.4596 0)
(213.403 16.4481 0)
(213.326 17.466 0)
(213.232 18.5138 0)
(213.12 19.5934 0)
(212.994 20.7064 0)
(212.855 21.8531 0)
(212.707 23.0339 0)
(212.551 24.2502 0)
(212.387 25.5048 0)
(212.216 26.8011 0)
(212.042 28.1387 0)
(211.866 29.5198 0)
(211.696 30.9447 0)
(211.526 32.4196 0)
(211.378 33.9336 0)
(211.241 35.5 0)
(211.128 37.1138 0)
(211.04 38.7809 0)
(210.977 40.5007 0)
(210.954 42.2769 0)
(210.961 44.1096 0)
(211.027 46.0017 0)
(211.141 47.9521 0)
(211.324 49.9633 0)
(211.58 52.0365 0)
(211.921 54.1718 0)
(212.363 56.37 0)
(212.91 58.6309 0)
(213.593 60.9543 0)
(214.398 63.3393 0)
(215.387 65.7804 0)
(216.519 68.2762 0)
(217.891 70.8153 0)
(219.432 73.4016 0)
(221.266 76.0172 0)
(223.306 78.6759 0)
(225.7 81.3274 0)
(228.301 83.987 0)
(231.348 86.5444 0)
(234.56 89.1176 0)
(238.34 91.5115 0)
(242.261 93.9515 0)
(246.775 96.1056 0)
(251.518 98.2075 0)
(256.754 99.9971 0)
(262.422 101.582 0)
(268.339 102.817 0)
(274.875 103.861 0)
(281.276 104.479 0)
(288.042 104.891 0)
(295.289 104.95 0)
(302.515 104.411 0)
(309.778 103.697 0)
(317.667 102.429 0)
(324.426 101.071 0)
(332.044 99.2627 0)
(338.382 97.7645 0)
(344.557 96.029 0)
(349.794 94.5788 0)
(354.79 92.4727 0)
(358.28 90.234 0)
(361.379 87.9972 0)
(366.187 85.9354 0)
(375.131 84.3779 0)
(378.477 89.5883 0)
(210 1.59342e-11 0)
(210 3.32473e-12 0)
(210 7.12966e-12 0)
(210 9.42996e-12 0)
(210 9.87361e-12 0)
(210 -6.61963e-12 0)
(210 -1.20699e-11 0)
(210 1.32349e-13 0)
(210 -1.78118e-12 0)
(210 -8.24146e-13 0)
(210 9.37501e-14 0)
(210 6.21671e-12 0)
(210 3.20786e-12 0)
(210 -2.30678e-12 0)
(210 -5.85321e-12 0)
(210 -3.45161e-12 0)
(210 2.1761e-10 0)
(210 2.29251e-08 0)
(210 4.51132e-06 0)
(209.996 0.000634691 0)
(209.907 0.0223379 0)
(209.243 0.240779 0)
(207.469 0.942606 0)
(205.585 1.80457 0)
(204.52 2.318 0)
(204.463 2.46854 0)
(204.674 2.44988 0)
(205.512 2.24064 0)
(206.574 1.91159 0)
(207.592 1.77333 0)
(208.443 1.62538 0)
(209.253 1.5529 0)
(209.962 1.56057 0)
(210.426 1.73744 0)
(210.602 2.03773 0)
(210.683 2.38816 0)
(210.754 2.78328 0)
(210.866 3.21009 0)
(211.121 3.58537 0)
(211.414 3.9637 0)
(211.626 4.41141 0)
(211.799 4.91898 0)
(211.97 5.46309 0)
(212.151 6.03262 0)
(212.343 6.62698 0)
(212.519 7.24824 0)
(212.652 7.90107 0)
(212.766 8.57943 0)
(212.837 9.2914 0)
(212.866 10.0399 0)
(212.887 10.8209 0)
(212.89 11.6339 0)
(212.872 12.4805 0)
(212.838 13.3589 0)
(212.789 14.2684 0)
(212.72 15.2086 0)
(212.633 16.1791 0)
(212.526 17.1789 0)
(212.401 18.2082 0)
(212.258 19.2685 0)
(212.097 20.3617 0)
(211.921 21.4882 0)
(211.734 22.6483 0)
(211.536 23.8431 0)
(211.329 25.0752 0)
(211.111 26.3473 0)
(210.885 27.662 0)
(210.654 29.0196 0)
(210.423 30.4217 0)
(210.198 31.8649 0)
(209.982 33.3537 0)
(209.768 34.8975 0)
(209.579 36.4811 0)
(209.406 38.119 0)
(209.255 39.8094 0)
(209.135 41.5564 0)
(209.038 43.36 0)
(208.991 45.2228 0)
(208.981 47.1439 0)
(209.031 49.1255 0)
(209.143 51.1697 0)
(209.328 53.277 0)
(209.601 55.4493 0)
(209.964 57.6862 0)
(210.445 59.9883 0)
(211.033 62.3549 0)
(211.783 64.7857 0)
(212.655 67.2807 0)
(213.74 69.8347 0)
(214.968 72.4478 0)
(216.46 75.1086 0)
(218.132 77.8199 0)
(220.122 80.5438 0)
(222.312 83.2905 0)
(224.924 86.0061 0)
(227.726 88.7714 0)
(231.076 91.4483 0)
(234.583 94.1743 0)
(238.702 96.6738 0)
(243.015 99.17 0)
(247.885 101.39 0)
(253.098 103.488 0)
(258.828 105.277 0)
(264.955 106.766 0)
(271.483 107.933 0)
(278.263 108.755 0)
(284.803 109.353 0)
(292.26 109.469 0)
(298.808 109.37 0)
(306.677 108.829 0)
(313.921 107.923 0)
(321.81 106.564 0)
(329.237 104.856 0)
(336.551 102.781 0)
(343.325 100.534 0)
(348.555 98.5117 0)
(352.036 96.4299 0)
(354.843 94.9921 0)
(359.998 93.6476 0)
(369.317 92.1933 0)
(372.768 97.4108 0)
(210 1.96437e-12 0)
(210 -8.45332e-12 0)
(210 3.13542e-12 0)
(210 9.75103e-13 0)
(210 -4.19991e-12 0)
(210 -1.66969e-11 0)
(210 -1.39805e-11 0)
(210 3.07854e-12 0)
(210 -2.09741e-13 0)
(210 -2.68045e-12 0)
(210 -7.77414e-13 0)
(210 -1.21349e-12 0)
(210 3.29033e-13 0)
(210 -2.76288e-12 0)
(210 -1.89596e-12 0)
(210 2.85655e-12 0)
(210 -5.22511e-11 0)
(210 -3.91237e-09 0)
(210 3.20041e-07 0)
(209.998 0.000184225 0)
(209.953 0.00968564 0)
(209.502 0.142375 0)
(207.952 0.710206 0)
(205.889 1.59599 0)
(204.53 2.18842 0)
(204.361 2.37934 0)
(204.413 2.4358 0)
(205.128 2.31758 0)
(206.191 2.00099 0)
(207.225 1.84158 0)
(208.07 1.6779 0)
(208.884 1.59929 0)
(209.614 1.58931 0)
(210.115 1.7294 0)
(210.298 2.00023 0)
(210.363 2.33174 0)
(210.41 2.72396 0)
(210.487 3.15491 0)
(210.692 3.54114 0)
(210.962 3.91591 0)
(211.169 4.35374 0)
(211.331 4.85319 0)
(211.485 5.39071 0)
(211.644 5.95478 0)
(211.82 6.54061 0)
(211.978 7.15062 0)
(212.098 7.78922 0)
(212.197 8.45197 0)
(212.244 9.14753 0)
(212.259 9.87685 0)
(212.265 10.6341 0)
(212.236 11.4357 0)
(212.193 12.2646 0)
(212.136 13.1235 0)
(212.062 14.0129 0)
(211.968 14.9338 0)
(211.853 15.8851 0)
(211.719 16.8653 0)
(211.566 17.8738 0)
(211.393 18.9121 0)
(211.2 19.9824 0)
(210.99 21.0855 0)
(210.767 22.2216 0)
(210.531 23.3916 0)
(210.282 24.598 0)
(210.021 25.8433 0)
(209.748 27.1296 0)
(209.467 28.4579 0)
(209.183 29.8291 0)
(208.897 31.2449 0)
(208.615 32.7065 0)
(208.341 34.2115 0)
(208.08 35.7645 0)
(207.823 37.3733 0)
(207.586 39.0304 0)
(207.372 40.7425 0)
(207.173 42.5131 0)
(207.016 44.3439 0)
(206.885 46.2355 0)
(206.805 48.1881 0)
(206.774 50.2058 0)
(206.804 52.2891 0)
(206.907 54.4414 0)
(207.086 56.6629 0)
(207.367 58.9562 0)
(207.74 61.3211 0)
(208.254 63.7598 0)
(208.876 66.2693 0)
(209.691 68.8478 0)
(210.634 71.4927 0)
(211.82 74.1981 0)
(213.169 76.9607 0)
(214.815 79.7579 0)
(216.654 82.6019 0)
(218.88 85.4621 0)
(221.287 88.3805 0)
(224.186 91.2467 0)
(227.224 94.1454 0)
(230.856 96.8843 0)
(234.646 99.6458 0)
(239.045 102.197 0)
(243.743 104.691 0)
(248.948 106.934 0)
(254.645 108.981 0)
(260.862 110.775 0)
(267.544 112.248 0)
(274.398 113.253 0)
(281.694 113.969 0)
(289.047 114.335 0)
(295.98 114.466 0)
(303.806 114.102 0)
(310.519 113.591 0)
(318.723 112.483 0)
(326.057 111.318 0)
(333.859 109.826 0)
(340.983 107.453 0)
(345.752 104.567 0)
(349.085 101.805 0)
(353.288 100.821 0)
(363.313 99.3579 0)
(366.457 105.936 0)
(210 6.68454e-13 0)
(210 2.02029e-12 0)
(210 4.97816e-12 0)
(210 -4.54834e-13 0)
(210 -8.41026e-12 0)
(210 -2.2354e-11 0)
(210 -1.88393e-11 0)
(210 1.11415e-12 0)
(210 -6.32405e-12 0)
(210 2.76358e-12 0)
(210 -1.79555e-12 0)
(210 5.87379e-12 0)
(210 2.19146e-12 0)
(210 -7.62564e-12 0)
(210 2.60584e-12 0)
(210 5.82909e-13 0)
(210 -2.64189e-11 0)
(210 -3.11516e-09 0)
(210 -1.42491e-07 0)
(209.999 3.9396e-05 0)
(209.978 0.00360024 0)
(209.7 0.0754846 0)
(208.444 0.497989 0)
(206.317 1.35221 0)
(204.641 2.02146 0)
(204.281 2.28927 0)
(204.19 2.42522 0)
(204.745 2.37756 0)
(205.776 2.07088 0)
(206.824 1.88173 0)
(207.672 1.70625 0)
(208.493 1.62674 0)
(209.242 1.60049 0)
(209.787 1.68917 0)
(209.995 1.92599 0)
(210.052 2.24015 0)
(210.076 2.62936 0)
(210.13 3.05429 0)
(210.277 3.4641 0)
(210.517 3.84152 0)
(210.715 4.272 0)
(210.866 4.76449 0)
(210.998 5.29664 0)
(211.133 5.85704 0)
(211.29 6.43668 0)
(211.428 7.03664 0)
(211.536 7.66117 0)
(211.614 8.30912 0)
(211.639 8.98813 0)
(211.644 9.69366 0)
(211.624 10.4378 0)
(211.571 11.2192 0)
(211.502 12.0312 0)
(211.417 12.8731 0)
(211.317 13.7448 0)
(211.198 14.6464 0)
(211.057 15.5776 0)
(210.894 16.5375 0)
(210.712 17.5256 0)
(210.508 18.5431 0)
(210.283 19.5919 0)
(210.038 20.6732 0)
(209.777 21.7871 0)
(209.501 22.9341 0)
(209.211 24.1161 0)
(208.905 25.3358 0)
(208.585 26.5957 0)
(208.254 27.897 0)
(207.914 29.2406 0)
(207.571 30.6268 0)
(207.228 32.0567 0)
(206.887 33.5333 0)
(206.549 35.0581 0)
(206.221 36.6302 0)
(205.905 38.253 0)
(205.6 39.9321 0)
(205.304 41.67 0)
(205.045 43.4609 0)
(204.799 45.3167 0)
(204.602 47.2311 0)
(204.44 49.212 0)
(204.331 51.2572 0)
(204.28 53.3716 0)
(204.295 55.5552 0)
(204.395 57.8117 0)
(204.572 60.1408 0)
(204.871 62.547 0)
(205.261 65.028 0)
(205.819 67.588 0)
(206.481 70.2236 0)
(207.361 72.9352 0)
(208.381 75.7192 0)
(209.665 78.57 0)
(211.123 81.4974 0)
(212.924 84.4805 0)
(214.902 87.5292 0)
(217.34 90.564 0)
(219.937 93.6385 0)
(223.115 96.6283 0)
(226.453 99.663 0)
(230.416 102.541 0)
(234.639 105.388 0)
(239.395 108.031 0)
(244.555 110.522 0)
(250.171 112.775 0)
(256.32 114.79 0)
(263.123 116.508 0)
(269.949 117.747 0)
(277.876 118.883 0)
(284.88 119.278 0)
(293.505 119.323 0)
(300.615 119.161 0)
(308.928 118.493 0)
(316.156 117.775 0)
(322.525 117.087 0)
(330.153 115.418 0)
(335.45 113.447 0)
(340.463 110.807 0)
(346.467 108.829 0)
(357.778 107.28 0)
(361.152 114.726 0)
(210 2.41359e-12 0)
(210 4.065e-12 0)
(210 1.98109e-12 0)
(210 -5.79506e-12 0)
(210 -1.0481e-11 0)
(210 -2.48974e-11 0)
(210 -1.24319e-11 0)
(210 -3.45847e-12 0)
(210 -7.38585e-12 0)
(210 6.04046e-12 0)
(210 5.50059e-12 0)
(210 1.03548e-11 0)
(210 1.95541e-13 0)
(210 1.17263e-12 0)
(210 5.83264e-12 0)
(210 -7.73795e-12 0)
(210 -8.17348e-12 0)
(210 -1.52518e-09 0)
(210 -1.19086e-07 0)
(210 2.78866e-06 0)
(209.991 0.00108167 0)
(209.838 0.0348008 0)
(208.9 0.317064 0)
(206.84 1.08048 0)
(204.85 1.82558 0)
(204.217 2.21728 0)
(203.997 2.38046 0)
(204.372 2.3902 0)
(205.343 2.12974 0)
(206.404 1.93052 0)
(207.259 1.73978 0)
(208.085 1.65363 0)
(208.851 1.61608 0)
(209.429 1.66254 0)
(209.67 1.87253 0)
(209.722 2.17879 0)
(209.731 2.5621 0)
(209.756 2.99014 0)
(209.863 3.41827 0)
(210.065 3.79785 0)
(210.252 4.21367 0)
(210.389 4.69044 0)
(210.498 5.21126 0)
(210.608 5.76344 0)
(210.743 6.33424 0)
(210.862 6.92086 0)
(210.958 7.52824 0)
(211.013 8.15867 0)
(211.018 8.81762 0)
(211.014 9.499 0)
(210.967 10.2267 0)
(210.892 10.9879 0)
(210.797 11.7808 0)
(210.687 12.6029 0)
(210.562 13.4542 0)
(210.418 14.3352 0)
(210.251 15.2456 0)
(210.062 16.1841 0)
(209.852 17.1499 0)
(209.62 18.1439 0)
(209.364 19.1682 0)
(209.087 20.2244 0)
(208.791 21.3129 0)
(208.478 22.4338 0)
(208.15 23.5885 0)
(207.804 24.7796 0)
(207.441 26.0093 0)
(207.064 27.2793 0)
(206.675 28.5904 0)
(206.278 29.9436 0)
(205.877 31.34 0)
(205.473 32.7811 0)
(205.07 34.2685 0)
(204.669 35.805 0)
(204.272 37.3931 0)
(203.882 39.0343 0)
(203.504 40.7283 0)
(203.147 42.4796 0)
(202.783 44.3044 0)
(202.472 46.175 0)
(202.178 48.1176 0)
(201.933 50.1255 0)
(201.73 52.2061 0)
(201.58 54.3582 0)
(201.499 56.5865 0)
(201.481 58.8913 0)
(201.566 61.2788 0)
(201.726 63.7467 0)
(202.034 66.3015 0)
(202.429 68.9369 0)
(203.022 71.6593 0)
(203.734 74.463 0)
(204.685 77.3492 0)
(205.788 80.3155 0)
(207.198 83.3438 0)
(208.77 86.4318 0)
(210.76 89.5425 0)
(212.902 92.7185 0)
(215.588 95.8891 0)
(218.422 99.1319 0)
(221.875 102.29 0)
(225.563 105.464 0)
(229.834 108.505 0)
(234.506 111.449 0)
(239.656 114.2 0)
(245.307 116.713 0)
(251.41 118.98 0)
(257.987 120.982 0)
(265.039 122.698 0)
(272.497 123.89 0)
(280.042 124.665 0)
(288.731 125.063 0)
(296.572 124.989 0)
(306.051 124.406 0)
(313.806 123.463 0)
(323.039 121.844 0)
(329.308 120.12 0)
(334.096 118.051 0)
(339.602 116.578 0)
(350.645 115.013 0)
(353.954 121.898 0)
(210 -9.36634e-13 0)
(210 5.70595e-12 0)
(210 -3.16283e-12 0)
(210 -1.22157e-11 0)
(210 -1.64549e-11 0)
(210 -2.50503e-11 0)
(210 -9.68769e-13 0)
(210 6.40881e-12 0)
(210 3.8566e-12 0)
(210 5.5074e-12 0)
(210 5.55932e-12 0)
(210 3.37531e-12 0)
(210 -2.33679e-12 0)
(210 4.47949e-12 0)
(210 -5.44055e-12 0)
(210 -1.81693e-11 0)
(210 -6.24767e-12 0)
(210 -5.12063e-10 0)
(210 -4.95837e-08 0)
(210 -2.1702e-06 0)
(209.997 0.000235575 0)
(209.922 0.0135801 0)
(209.289 0.180417 0)
(207.436 0.804269 0)
(205.222 1.60962 0)
(204.199 2.12306 0)
(203.832 2.26834 0)
(204.045 2.36202 0)
(204.908 2.19363 0)
(205.961 1.97237 0)
(206.826 1.7488 0)
(207.659 1.64534 0)
(208.441 1.5967 0)
(209.058 1.61298 0)
(209.352 1.80575 0)
(209.408 2.10551 0)
(209.409 2.47664 0)
(209.398 2.90887 0)
(209.465 3.34948 0)
(209.619 3.73173 0)
(209.791 4.13392 0)
(209.913 4.59653 0)
(209.994 5.10626 0)
(210.078 5.64875 0)
(210.186 6.21035 0)
(210.288 6.78261 0)
(210.369 7.37331 0)
(210.398 7.98685 0)
(210.39 8.62365 0)
(210.369 9.28737 0)
(210.301 9.99474 0)
(210.202 10.7372 0)
(210.082 11.5113 0)
(209.946 12.314 0)
(209.795 13.145 0)
(209.626 14.0048 0)
(209.434 14.8939 0)
(209.217 15.8114 0)
(208.978 16.756 0)
(208.716 17.7282 0)
(208.43 18.7296 0)
(208.119 19.762 0)
(207.788 20.8259 0)
(207.438 21.9214 0)
(207.07 23.0496 0)
(206.684 24.2128 0)
(206.279 25.4135 0)
(205.855 26.6536 0)
(205.416 27.9339 0)
(204.966 29.2553 0)
(204.506 30.6188 0)
(204.041 32.026 0)
(203.572 33.4786 0)
(203.1 34.9785 0)
(202.628 36.5276 0)
(202.159 38.1288 0)
(201.693 39.7854 0)
(201.234 41.5007 0)
(200.79 43.2686 0)
(200.37 45.0984 0)
(199.949 47.0028 0)
(199.58 48.96 0)
(199.238 50.991 0)
(198.943 53.0935 0)
(198.7 55.2725 0)
(198.51 57.5279 0)
(198.404 59.8662 0)
(198.358 62.2858 0)
(198.436 64.796 0)
(198.583 67.3909 0)
(198.902 70.0828 0)
(199.313 72.8635 0)
(199.933 75.7415 0)
(200.683 78.7108 0)
(201.705 81.7691 0)
(202.877 84.9149 0)
(204.426 88.1384 0)
(206.124 91.458 0)
(208.323 94.8223 0)
(210.663 98.2642 0)
(213.604 101.67 0)
(216.738 105.122 0)
(220.481 108.496 0)
(224.602 111.823 0)
(229.23 115.025 0)
(234.386 118.06 0)
(240.024 120.968 0)
(246.236 123.576 0)
(252.844 125.711 0)
(260.292 127.621 0)
(267.181 129.055 0)
(275.602 130.377 0)
(283.056 131.194 0)
(291.848 131.581 0)
(300.151 131.618 0)
(309.425 130.902 0)
(316.499 129.445 0)
(321.965 126.898 0)
(327.072 125.588 0)
(339.118 123.904 0)
(341.985 132.21 0)
(210 4.45901e-12 0)
(210 1.19475e-11 0)
(210 -1.00601e-11 0)
(210 -1.46917e-11 0)
(210 -1.12792e-11 0)
(210 -6.01966e-12 0)
(210 9.84706e-12 0)
(210 4.20577e-12 0)
(210 -9.92976e-12 0)
(210 8.37499e-13 0)
(210 6.9176e-12 0)
(210 6.2044e-12 0)
(210 -1.53933e-12 0)
(210 -3.58616e-12 0)
(210 -1.3475e-11 0)
(210 -1.20144e-11 0)
(210 8.78336e-12 0)
(210 -1.51928e-10 0)
(210 -1.60701e-08 0)
(210 -1.14999e-06 0)
(209.999 1.96405e-05 0)
(209.967 0.00425733 0)
(209.585 0.0890959 0)
(208.058 0.549225 0)
(205.7 1.34751 0)
(204.266 1.97412 0)
(203.678 2.14219 0)
(203.781 2.35097 0)
(204.48 2.24014 0)
(205.49 1.99337 0)
(206.374 1.73426 0)
(207.222 1.63593 0)
(208.02 1.60274 0)
(208.674 1.60266 0)
(209.025 1.77689 0)
(209.094 2.06006 0)
(209.092 2.4087 0)
(209.03 2.84608 0)
(209.065 3.27849 0)
(209.168 3.66564 0)
(209.322 4.05608 0)
(209.429 4.50177 0)
(209.482 4.99491 0)
(209.54 5.52242 0)
(209.616 6.07188 0)
(209.7 6.62786 0)
(209.764 7.20117 0)
(209.769 7.79701 0)
(209.757 8.40832 0)
(209.708 9.05978 0)
(209.623 9.74425 0)
(209.503 10.4671 0)
(209.357 11.222 0)
(209.196 12.0054 0)
(209.019 12.8162 0)
(208.825 13.6547 0)
(208.608 14.5216 0)
(208.366 15.4163 0)
(208.1 16.3376 0)
(207.81 17.2856 0)
(207.495 18.2618 0)
(207.154 19.2681 0)
(206.791 20.3051 0)
(206.406 21.3727 0)
(206.004 22.4716 0)
(205.581 23.6039 0)
(205.137 24.7721 0)
(204.671 25.9783 0)
(204.187 27.2237 0)
(203.688 28.5092 0)
(203.176 29.8357 0)
(202.654 31.2047 0)
(202.123 32.6179 0)
(201.586 34.0772 0)
(201.044 35.5847 0)
(200.499 37.1427 0)
(199.952 38.7539 0)
(199.407 40.4212 0)
(198.866 42.1477 0)
(198.332 43.9358 0)
(197.816 45.7817 0)
(197.326 47.6938 0)
(196.84 49.6835 0)
(196.399 51.7381 0)
(195.993 53.8698 0)
(195.631 56.0812 0)
(195.334 58.3786 0)
(195.085 60.7607 0)
(194.937 63.2374 0)
(194.843 65.8019 0)
(194.899 68.4694 0)
(195.029 71.2282 0)
(195.346 74.0924 0)
(195.772 77.0526 0)
(196.437 80.1168 0)
(197.231 83.2804 0)
(198.353 86.5473 0)
(199.603 89.9158 0)
(201.3 93.359 0)
(203.121 96.8882 0)
(205.51 100.447 0)
(208.062 104.083 0)
(211.233 107.695 0)
(214.722 111.322 0)
(218.764 114.915 0)
(223.359 118.428 0)
(228.413 121.842 0)
(234.105 125.02 0)
(240.39 128.049 0)
(247.198 130.64 0)
(254.788 132.964 0)
(262.493 134.733 0)
(270.892 136.222 0)
(279.127 137.108 0)
(287.77 137.752 0)
(296.176 137.918 0)
(304.315 137.618 0)
(311.613 136.024 0)
(318.304 134.63 0)
(331.279 133.407 0)
(334.139 142.927 0)
(210 8.0616e-12 0)
(210 -8.32997e-12 0)
(210 -1.79516e-11 0)
(210 -4.39492e-12 0)
(210 -8.09694e-12 0)
(210 3.31655e-12 0)
(210 5.69909e-12 0)
(210 2.58966e-12 0)
(210 2.70284e-12 0)
(210 2.16813e-11 0)
(210 1.84546e-11 0)
(210 7.79083e-12 0)
(210 -6.66617e-12 0)
(210 -4.50896e-12 0)
(210 -4.20598e-12 0)
(210 2.48913e-12 0)
(210 1.63628e-11 0)
(210 -3.18497e-11 0)
(210 -4.36073e-09 0)
(210 -3.98568e-07 0)
(210 -1.15716e-05 0)
(209.988 0.000958339 0)
(209.785 0.0371297 0)
(208.644 0.335537 0)
(206.317 1.06523 0)
(204.464 1.77837 0)
(203.573 2.06703 0)
(203.581 2.27554 0)
(204.067 2.22375 0)
(204.994 1.97727 0)
(205.912 1.71302 0)
(206.785 1.64057 0)
(207.599 1.62031 0)
(208.281 1.60086 0)
(208.695 1.74477 0)
(208.786 2.00097 0)
(208.788 2.32085 0)
(208.67 2.75876 0)
(208.662 3.18369 0)
(208.715 3.58236 0)
(208.847 3.96445 0)
(208.938 4.39096 0)
(208.966 4.86273 0)
(208.994 5.37603 0)
(209.035 5.91486 0)
(209.099 6.45582 0)
(209.143 7.01073 0)
(209.131 7.5861 0)
(209.11 8.17759 0)
(209.038 8.81138 0)
(208.936 9.47529 0)
(208.796 10.1768 0)
(208.627 10.911 0)
(208.441 11.6738 0)
(208.239 12.4641 0)
(208.02 13.2817 0)
(207.778 14.1271 0)
(207.51 14.9996 0)
(207.217 15.8983 0)
(206.899 16.8225 0)
(206.555 17.7738 0)
(206.185 18.754 0)
(205.789 19.7643 0)
(205.371 20.8047 0)
(204.932 21.8756 0)
(204.471 22.9784 0)
(203.988 24.1157 0)
(203.481 25.2896 0)
(202.951 26.5016 0)
(202.402 27.7525 0)
(201.837 29.0432 0)
(201.258 30.3751 0)
(200.667 31.7496 0)
(200.066 33.1686 0)
(199.456 34.6342 0)
(198.838 36.1488 0)
(198.214 37.7148 0)
(197.586 39.3351 0)
(196.955 41.0118 0)
(196.329 42.7473 0)
(195.708 44.5448 0)
(195.097 46.4074 0)
(194.503 48.3328 0)
(193.938 50.3284 0)
(193.382 52.4048 0)
(192.866 54.555 0)
(192.4 56.7858 0)
(191.97 59.1034 0)
(191.623 61.5156 0)
(191.312 64.0178 0)
(191.129 66.627 0)
(190.993 69.3313 0)
(191.018 72.152 0)
(191.125 75.078 0)
(191.436 78.1261 0)
(191.852 81.2862 0)
(192.552 84.5701 0)
(193.367 87.9611 0)
(194.583 91.4571 0)
(195.911 95.0538 0)
(197.769 98.7354 0)
(199.761 102.517 0)
(202.364 106.335 0)
(205.224 110.22 0)
(208.652 114.111 0)
(212.558 117.976 0)
(216.928 121.804 0)
(221.946 125.453 0)
(227.399 129.006 0)
(233.589 132.373 0)
(240.426 135.506 0)
(247.719 138.031 0)
(256.2 140.619 0)
(264.328 142.222 0)
(274.504 143.779 0)
(283.144 144.253 0)
(293.205 144.176 0)
(300.936 143.157 0)
(307.432 142.272 0)
(320.157 141.399 0)
(322.682 150.793 0)
(210 -1.46457e-12 0)
(210 -1.45356e-11 0)
(210 -6.61979e-12 0)
(210 -1.39022e-11 0)
(210 -1.27914e-11 0)
(210 2.05692e-13 0)
(210 -3.29306e-13 0)
(210 3.84277e-12 0)
(210 1.28913e-11 0)
(210 1.43111e-11 0)
(210 6.53302e-12 0)
(210 -3.26121e-12 0)
(210 -4.2374e-12 0)
(210 -1.77393e-13 0)
(210 2.86959e-12 0)
(210 2.42001e-12 0)
(210 3.31264e-12 0)
(210 -1.03224e-11 0)
(210 -1.0532e-09 0)
(210 -1.13825e-07 0)
(210 -7.29744e-06 0)
(209.996 8.33731e-05 0)
(209.903 0.0124079 0)
(209.14 0.179227 0)
(207.022 0.776307 0)
(204.791 1.54733 0)
(203.528 1.96327 0)
(203.432 2.13522 0)
(203.697 2.14411 0)
(204.498 1.97533 0)
(205.449 1.73092 0)
(206.354 1.66821 0)
(207.175 1.64324 0)
(207.873 1.60373 0)
(208.346 1.70883 0)
(208.47 1.93621 0)
(208.484 2.22686 0)
(208.321 2.65875 0)
(208.25 3.08202 0)
(208.262 3.48624 0)
(208.365 3.85492 0)
(208.441 4.25927 0)
(208.447 4.7073 0)
(208.444 5.20864 0)
(208.452 5.73717 0)
(208.491 6.26351 0)
(208.51 6.80344 0)
(208.492 7.3554 0)
(208.444 7.93744 0)
(208.358 8.5495 0)
(208.238 9.19434 0)
(208.078 9.87604 0)
(207.887 10.5904 0)
(207.676 11.3332 0)
(207.45 12.1024 0)
(207.207 12.898 0)
(206.941 13.7204 0)
(206.649 14.5693 0)
(206.33 15.4436 0)
(205.986 16.3424 0)
(205.617 17.2668 0)
(205.22 18.2188 0)
(204.796 19.1998 0)
(204.347 20.21 0)
(203.875 21.2495 0)
(203.381 22.3197 0)
(202.863 23.4229 0)
(202.318 24.5612 0)
(201.747 25.7362 0)
(201.154 26.9489 0)
(200.541 28.2002 0)
(199.91 29.4911 0)
(199.265 30.823 0)
(198.605 32.198 0)
(197.932 33.6177 0)
(197.248 35.0847 0)
(196.553 36.6014 0)
(195.848 38.1707 0)
(195.135 39.795 0)
(194.417 41.4769 0)
(193.698 43.2185 0)
(192.981 45.0232 0)
(192.271 46.8945 0)
(191.571 48.8367 0)
(190.885 50.8489 0)
(190.228 52.9373 0)
(189.589 55.112 0)
(188.975 57.3751 0)
(188.43 59.7246 0)
(187.907 62.1697 0)
(187.493 64.7237 0)
(187.105 67.3743 0)
(186.861 70.1437 0)
(186.675 73.0174 0)
(186.666 76.018 0)
(186.74 79.1326 0)
(187.056 82.383 0)
(187.467 85.7496 0)
(188.225 89.2556 0)
(189.076 92.886 0)
(190.402 96.6525 0)
(191.834 100.542 0)
(193.846 104.533 0)
(196.054 108.638 0)
(198.857 112.799 0)
(202.076 116.991 0)
(205.796 121.206 0)
(210.182 125.376 0)
(215.036 129.531 0)
(220.6 133.416 0)
(226.697 137.155 0)
(233.589 140.648 0)
(240.964 143.691 0)
(248.803 146.349 0)
(257.727 148.79 0)
(266.791 150.726 0)
(276.062 151.807 0)
(284.358 151.813 0)
(290.851 151.484 0)
(303.898 150.691 0)
(305.497 160.904 0)
(210 -7.33123e-12 0)
(210 -1.08044e-11 0)
(210 -1.25943e-11 0)
(210 -2.34789e-11 0)
(210 3.1061e-14 0)
(210 2.87792e-12 0)
(210 -4.49676e-12 0)
(210 1.83799e-12 0)