/*--------------------------------*- C++ -*----------------------------------*\
| =========                 |                                                 |
| \\      /  F ield         | OpenFOAM: The Open Source CFD Toolbox           |
|  \\    /   O peration     | Version:  2412                                  |
|   \\  /    A nd           | Website:  www.openfoam.com                      |
|    \\/     M anipulation  |                                                 |
\*---------------------------------------------------------------------------*/
FoamFile
{
    version     2.0;
    format      ascii;
    arch        "LSB;label=32;scalar=64";
    class       volScalarField;
    location    "0.037";
    object      p;
}
// * * * * * * * * * * * * * * * * * * * * * * * * * * * * * * * * * * * * * //

dimensions      [1 -1 -2 0 0 0 0];

internalField   nonuniform List<scalar> 
9857
(
2790
2790
2790
2790
2790
2790
2790
2790
2790
2790
2790
2790
2790
2790.06
2791.29
2799.96
2821.12
2841.91
2850.62
2852.64
2852.36
2852.79
2856.82
2863.52
2867.32
2868.05
2868.07
2868.43
2790
2790
2790
2790
2790
2790
2790
2790
2790
2790
2790.1
2791.92
2802.57
2824.74
2843.98
2851.03
2852.59
2852.44
2853.51
2858.6
2865.09
2868.19
2868.6
2868.62
2869.1
2790
2790
2790
2790
2790
2790
2790
2790
2790
2790.01
2790.2
2792.97
2806.01
2828.76
2846.01
2851.44
2852.52
2852.61
2854.58
2860.67
2866.71
2869.11
2869.28
2869.33
2869.97
2790
2790
2790
2790
2790
2790
2790
2790
2790
2790.01
2790.39
2794.59
2810.3
2832.95
2847.8
2851.81
2852.46
2852.98
2856.14
2862.93
2868.25
2869.99
2870.04
2870.2
2871.04
2790
2790
2790
2790
2790
2790
2790
2790
2790
2790.03
2790.74
2796.82
2814.99
2836.78
2849.19
2852.17
2852.51
2853.58
2858.01
2865.05
2869.53
2870.74
2870.81
2871.14
2872.21
2790
2790
2790
2790
2790
2790
2790
2790
2790
2790.06
2791.31
2799.66
2819.8
2840.05
2850.13
2852.47
2852.8
2854.54
2860.08
2866.87
2870.51
2871.33
2871.53
2872.12
2873.4
2790
2790
2790
2790
2790
2790
2790
2790
2790
2790.14
2792.21
2803.1
2824.54
2842.77
2850.74
2852.67
2853.33
2855.97
2862.3
2868.44
2871.26
2871.84
2872.21
2873.07
2874.54
2876.08
2790
2790
2790
2790
2790
2790
2790
2790
2790.01
2790.27
2793.52
2807.06
2829
2844.95
2851.16
2852.85
2854.09
2857.83
2864.56
2869.82
2871.87
2872.31
2872.82
2873.94
2875.55
2877.11
2790
2790
2790
2790
2790
2790
2790
2790
2790.02
2790.52
2795.33
2811.38
2833.03
2846.67
2851.48
2853.09
2855.05
2859.96
2866.75
2871.06
2872.42
2872.76
2873.4
2874.71
2876.4
2877.99
2879.56
2790
2790
2790
2790
2790
2790
2790
2790
2790.04
2790.94
2797.68
2815.87
2836.57
2848.03
2851.78
2853.47
2856.27
2862.19
2868.72
2872.14
2872.94
2873.19
2873.94
2875.38
2877.1
2878.72
2880.39
2790
2790
2790
2790
2790
2790
2790
2790
2790.09
2791.6
2800.56
2820.38
2839.61
2849.14
2852.1
2854.01
2857.74
2864.39
2870.37
2872.97
2873.36
2873.59
2874.45
2875.95
2877.66
2879.31
2881.09
2883.09
2790
2790
2790
2790
2790
2790
2790
2790
2790.18
2792.58
2803.93
2824.75
2842.16
2850.01
2852.47
2854.73
2859.41
2866.36
2871.53
2873.42
2873.6
2873.9
2874.88
2876.42
2878.1
2879.79
2881.67
2883.79
2790
2790
2790
2790
2790
2790
2790
2790.01
2790.34
2793.95
2807.72
2828.86
2844.23
2850.59
2852.84
2855.6
2861.12
2867.91
2872.11
2873.52
2873.69
2874.09
2875.21
2876.75
2878.41
2880.15
2882.15
2884.37
2886.73
2889.2
2891.81
2894.6
2897.54
2900.64
2903.87
2907.16
2910.49
2913.97
2917.85
2922.39
2927.62
2933.2
2938.64
2943.67
2948.38
2953.04
2957.85
2962.87
2968.11
2973.59
2979.29
2985.19
2991.29
2997.62
3004.21
3011.02
3018.02
3025.19
3032.49
3039.95
2790
2790
2790
2790
2790
2790
2790
2790.03
2790.62
2795.78
2811.79
2832.57
2845.71
2850.83
2853.14
2856.54
2862.63
2868.83
2872.24
2873.38
2873.63
2874.17
2875.38
2876.94
2878.61
2880.43
2882.52
2884.84
2887.28
2889.83
2892.54
2895.4
2898.41
2901.58
2904.87
2908.22
2911.59
2915.12
2919.06
2923.68
2928.97
2934.54
2939.92
2944.9
2949.58
2954.24
2959.05
2964.08
2969.32
2974.79
2980.48
2986.37
2992.47
2998.81
3005.4
3012.21
3019.19
3026.31
3033.58
3040.98
2790
2790
2790
2790
2790
2790
2790
2790.06
2791.09
2798.1
2815.96
2835.63
2846.44
2850.82
2853.32
2857.37
2863.69
2869.16
2872.02
2872.9
2873.27
2874.04
2875.4
2877.01
2878.71
2880.6
2882.79
2885.19
2887.71
2890.36
2893.15
2896.09
2899.18
2902.42
2905.79
2909.2
2912.62
2916.19
2920.2
2924.9
2930.24
2935.8
2941.12
2946.05
2950.72
2955.38
2960.19
2965.21
2970.46
2975.92
2981.6
2987.48
2993.58
2999.94
3006.53
3013.32
3020.27
3027.36
3034.57
3041.92
2790
2790
2790
2790
2790
2790
2790
2790.11
2791.78
2800.8
2819.79
2837.66
2846.59
2850.45
2853.3
2857.86
2864.18
2869.09
2871.33
2872.02
2872.51
2873.54
2875.16
2876.91
2878.69
2880.67
2882.93
2885.42
2888.03
2890.77
2893.66
2896.69
2899.85
2903.18
2906.63
2910.11
2913.57
2917.19
2921.28
2926.06
2931.43
2936.97
2942.25
2947.12
2951.78
2956.44
2961.26
2966.28
2971.52
2976.98
2982.64
2988.52
2994.63
3000.99
3007.58
3014.35
3021.26
3028.29
3035.45
3042.75
2790
2790
2790
2790
2790
2790
2790
2790.19
2792.63
2803.51
2822.73
2838.48
2846.15
2849.52
2852.81
2857.99
2864.29
2868.57
2870.23
2870.81
2871.49
2872.79
2874.62
2876.51
2878.46
2880.6
2882.98
2885.53
2888.23
2891.08
2894.07
2897.18
2900.43
2903.85
2907.39
2910.93
2914.45
2918.13
2922.29
2927.14
2932.55
2938.07
2943.29
2948.13
2952.77
2957.44
2962.26
2967.28
2972.52
2977.96
2983.62
2989.5
2995.61
3001.98
3008.55
3015.3
3022.17
3029.15
3036.25
3043.49
2790
2790
2790
2790
2790
2790
2790
2790.23
2793.36
2805.65
2824.34
2838.4
2844.83
2848.06
2851.87
2857.78
2863.95
2867.5
2868.75
2869.34
2870.26
2871.87
2873.89
2875.91
2878
2880.32
2882.87
2885.55
2888.34
2891.3
2894.39
2897.59
2900.93
2904.45
2908.08
2911.69
2915.26
2919
2923.24
2928.16
2933.6
2939.09
2944.26
2949.06
2953.7
2958.37
2963.2
2968.22
2973.44
2978.88
2984.54
2990.42
2996.54
3002.9
3009.46
3016.16
3022.98
3029.91
3036.95
3044.13
2790
2790
2790
2790
2790
2789.96
2789.84
2789.96
2793.62
2806.79
2824.8
2837.42
2842.83
2846.21
2850.7
2857.05
2862.87
2865.92
2866.95
2867.65
2868.85
2870.76
2872.97
2875.15
2877.41
2879.89
2882.59
2885.43
2888.36
2891.42
2894.62
2897.91
2901.35
2904.97
2908.69
2912.37
2916
2919.8
2924.12
2929.11
2934.57
2940.03
2945.15
2949.93
2954.56
2959.24
2964.07
2969.09
2974.31
2979.74
2985.39
2991.28
2997.4
3003.75
3010.28
3016.95
3023.72
3030.59
3037.57
3044.69
2790
2790
2790
2790
2789.96
2789.67
2788.9
2788.47
2792.86
2806.99
2824.46
2835.51
2840.37
2844.08
2849.25
2855.82
2861.21
2863.91
2864.88
2865.78
2867.3
2869.5
2871.9
2874.26
2876.72
2879.38
2882.22
2885.18
2888.28
2891.47
2894.76
2898.16
2901.7
2905.42
2909.24
2912.99
2916.68
2920.54
2924.94
2930
2935.47
2940.9
2945.98
2950.74
2955.37
2960.05
2964.89
2969.9
2975.12
2980.55
2986.2
2992.09
2998.21
3004.55
3011.04
3017.65
3024.37
3031.18
3038.11
3045.17
2790
2790
2790
2789.96
2789.64
2788.37
2786.36
2785.45
2790.59
2806.19
2823.05
2832.94
2837.56
2841.73
2847.55
2854.22
2859.16
2861.59
2862.6
2863.76
2865.64
2868.1
2870.69
2873.24
2875.92
2878.78
2881.77
2884.86
2888.09
2891.43
2894.83
2898.32
2901.97
2905.81
2909.72
2913.55
2917.29
2921.23
2925.7
2930.82
2936.3
2941.69
2946.74
2951.48
2956.11
2960.81
2965.64
2970.66
2975.87
2981.3
2986.95
2992.84
2998.96
3005.27
3011.73
3018.29
3024.95
3031.7
3038.57
3045.56
2790
2790
2789.96
2789.61
2788.12
2785.1
2782.07
2781.3
2787.89
2804.64
2820.75
2829.81
2834.5
2839.23
2845.63
2852.27
2856.83
2859.04
2860.18
2861.66
2863.89
2866.61
2869.39
2872.14
2875.03
2878.09
2881.24
2884.48
2887.84
2891.31
2894.84
2898.43
2902.18
2906.13
2910.14
2914.04
2917.84
2921.85
2926.41
2931.58
2937.06
2942.43
2947.44
2952.16
2956.8
2961.5
2966.34
2971.35
2976.57
2982
2987.66
2993.55
2999.65
3005.93
3012.34
3018.85
3025.45
3032.14
3038.95
3045.88
2790
2789.97
2789.59
2787.94
2784.31
2779.72
2776.67
2776.69
2785.17
2802.85
2818.02
2826.37
2831.27
2836.62
2843.5
2850.01
2854.23
2856.31
2857.65
2859.49
2862.07
2865.04
2868
2870.97
2874.08
2877.33
2880.64
2884.03
2887.53
2891.13
2894.78
2898.47
2902.34
2906.4
2910.5
2914.47
2918.33
2922.42
2927.05
2932.28
2937.76
2943.09
2948.07
2952.79
2957.43
2962.14
2966.99
2972.01
2977.22
2982.66
2988.32
2994.21
3000.29
3006.53
3012.9
3019.35
3025.89
3032.52
3039.26
3046.12
2789.98
2789.64
2787.9
2783.83
2778.22
2773.22
2770.83
2771.94
2782.6
2800.76
2814.9
2822.74
2827.99
2833.97
2841.21
2847.52
2851.45
2853.47
2855.06
2857.29
2860.2
2863.4
2866.55
2869.74
2873.07
2876.51
2879.98
2883.52
2887.17
2890.89
2894.65
2898.46
2902.44
2906.61
2910.81
2914.84
2918.77
2922.94
2927.65
2932.91
2938.39
2943.69
2948.65
2953.36
2958.02
2962.74
2967.59
2972.61
2977.84
2983.28
2988.94
2994.81
3000.87
3007.07
3013.38
3019.78
3026.26
3032.83
3039.5
3046.3
2789.82
2788.13
2783.72
2777.28
2770.99
2766.64
2765.01
2767.33
2780.09
2798.37
2811.52
2819.03
2824.71
2831.28
2838.76
2844.84
2848.53
2850.55
2852.45
2855.06
2858.29
2861.7
2865.05
2868.46
2872.01
2875.63
2879.27
2882.96
2886.75
2890.6
2894.47
2898.4
2902.48
2906.77
2911.06
2915.16
2919.16
2923.4
2928.19
2933.49
2938.97
2944.23
2949.17
2953.89
2958.55
2963.28
2968.14
2973.17
2978.41
2983.86
2989.51
2995.37
3001.39
3007.55
3013.81
3020.15
3026.57
3033.07
3039.68
3046.4
2788.99
2784.27
2777.02
2769.58
2763.78
2760.36
2759.34
2763.01
2777.55
2795.68
2807.99
2815.34
2821.47
2828.6
2836.21
2842.03
2845.5
2847.61
2849.84
2852.84
2856.35
2859.96
2863.51
2867.15
2870.91
2874.71
2878.51
2882.36
2886.29
2890.27
2894.24
2898.28
2902.49
2906.89
2911.26
2915.43
2919.5
2923.82
2928.67
2934.01
2939.48
2944.72
2949.64
2954.36
2959.03
2963.77
2968.65
2973.69
2978.94
2984.39
2990.04
2995.87
3001.86
3007.98
3014.18
3020.46
3026.82
3033.26
3039.79
3046.46
2786.29
2777.78
2769.11
2762.04
2757.07
2754.38
2753.88
2759.06
2774.99
2792.73
2804.36
2811.68
2818.29
2825.89
2833.53
2839.1
2842.41
2844.66
2847.26
2850.63
2854.39
2858.19
2861.94
2865.81
2869.77
2873.74
2877.7
2881.71
2885.79
2889.89
2893.97
2898.12
2902.46
2906.95
2911.42
2915.66
2919.8
2924.19
2929.11
2934.48
2939.94
2945.15
2950.06
2954.78
2959.47
2964.23
2969.12
2974.18
2979.44
2984.89
2990.52
2996.33
3002.28
3008.35
3014.5
3020.72
3027.01
3033.38
3039.86
3046.45
2779.91
2769.78
2761.51
2755.24
2750.84
2748.59
2748.63
2755.42
2772.42
2789.62
2800.68
2808.1
2815.19
2823.19
2830.78
2836.1
2839.28
2841.74
2844.72
2848.44
2852.43
2856.41
2860.37
2864.45
2868.6
2872.74
2876.86
2881.03
2885.25
2889.48
2893.67
2897.92
2902.37
2906.97
2911.53
2915.84
2920.05
2924.52
2929.51
2934.9
2940.34
2945.53
2950.43
2955.16
2959.87
2964.65
2969.56
2974.64
2979.9
2985.34
2990.96
2996.74
3002.65
3008.67
3014.77
3020.93
3027.15
3033.46
3039.87
3046.35
2768.72
2762
2754.85
2749.07
2744.87
2742.86
2743.53
2752.12
2769.87
2786.43
2797.03
2804.62
2812.17
2820.48
2827.95
2833.03
2836.16
2838.85
2842.22
2846.26
2850.46
2854.62
2858.78
2863.08
2867.41
2871.72
2875.99
2880.31
2884.68
2889.02
2893.33
2897.69
2902.25
2906.97
2911.6
2915.97
2920.26
2924.81
2929.86
2935.27
2940.69
2945.87
2950.76
2955.5
2960.23
2965.03
2969.96
2975.06
2980.32
2985.76
2991.35
2997.1
3002.97
3008.94
3014.98
3021.08
3027.23
3033.49
3039.81
3046.22
2755.02
2755.01
2748.74
2743.11
2739.05
2737.2
2738.64
2749.08
2767.33
2783.21
2793.44
2801.25
2809.26
2817.78
2825.07
2829.93
2833.05
2836.03
2839.77
2844.11
2848.49
2852.83
2857.2
2861.7
2866.2
2870.67
2875.1
2879.57
2884.07
2888.54
2892.95
2897.43
2902.1
2906.93
2911.62
2916.07
2920.43
2925.06
2930.16
2935.59
2941
2946.15
2951.04
2955.81
2960.56
2965.39
2970.34
2975.45
2980.71
2986.14
2991.71
2997.42
3003.26
3009.17
3015.15
3021.19
3027.28
3033.46
3039.69
3046.02
3052.44
3058.96
3065.56
3072.26
3079.04
3085.89
3092.8
3099.77
3106.78
3113.82
3120.88
3127.94
3134.98
3141.98
3148.92
3155.78
3162.53
3169.16
3175.62
3181.9
3187.96
3193.78
3199.32
3204.56
3209.48
3214.05
3218.25
3222.06
3225.46
3228.45
3231.02
3233.16
3234.88
3236.17
3237.05
3237.53
3237.66
3237.38
3236.74
2742.78
2747.74
2742.06
2737.01
2733.26
2731.69
2734.1
2746.23
2764.75
2779.98
2789.94
2798.02
2806.42
2815.07
2822.16
2826.82
2830
2833.28
2837.38
2841.97
2846.54
2851.05
2855.62
2860.31
2864.98
2869.6
2874.18
2878.81
2883.45
2888.03
2892.55
2897.14
2901.92
2906.84
2911.63
2916.13
2920.56
2925.26
2930.42
2935.86
2941.25
2946.39
2951.29
2956.07
2960.86
2965.71
2970.68
2975.8
2981.07
2986.48
2992.03
2997.71
3003.49
3009.36
3015.28
3021.25
3027.29
3033.37
3039.53
3045.78
3052.1
3058.51
3065.01
3071.58
3078.23
3084.94
3091.7
3098.51
3105.35
3112.21
3119.07
3125.93
3132.74
3139.51
3146.21
3152.81
3159.29
3165.63
3171.8
3177.76
3183.5
3188.99
3194.2
3199.1
3203.67
3207.88
3211.73
3215.19
3218.25
3220.9
3223.14
3224.97
3226.38
3227.39
3227.99
3228.25
3228.14
3227.63
3226.81
3225.68
3224.29
3222.61
3220.75
3218.66
3216.37
3213.98
3211.35
3208.73
3205.99
2731.54
2741.08
2735.35
2730.8
2727.58
2726.45
2729.97
2743.56
2762.12
2776.76
2786.57
2794.92
2803.68
2812.37
2819.23
2823.71
2827
2830.61
2835.04
2839.86
2844.6
2849.29
2854.06
2858.93
2863.76
2868.52
2873.26
2878.03
2882.8
2887.5
2892.13
2896.82
2901.72
2906.73
2911.6
2916.16
2920.66
2925.44
2930.64
2936.09
2941.47
2946.6
2951.51
2956.31
2961.12
2966.01
2971
2976.13
2981.39
2986.78
2992.3
2997.95
3003.7
3009.51
3015.37
3021.28
3027.23
3033.24
3039.32
3045.47
3051.7
3058.01
3064.39
3070.84
3077.36
3083.92
3090.54
3097.18
3103.85
3110.52
3117.19
3123.83
3130.42
3136.96
3143.4
3149.74
3155.96
3162.01
3167.88
3173.54
3178.96
3184.13
3189
3193.56
3197.79
3201.67
3205.17
3208.29
3211.02
3213.35
3215.27
3216.79
3217.91
3218.64
3219.01
3219.04
3218.66
3217.97
3216.98
3215.69
3214.16
3212.36
3210.4
3208.23
3205.88
3203.43
3200.78
3198.13
3195.4
3192.56
3189.74
3186.85
3183.97
3181.1
3178.22
3175.37
3172.56
3169.8
3167.04
3164.12
3160.27
2719.72
2734.79
2729.18
2724.87
2722.1
2721.48
2726.21
2741.04
2759.48
2773.59
2783.33
2791.96
2801.01
2809.68
2816.3
2820.63
2824.08
2828.02
2832.76
2837.78
2842.68
2847.55
2852.51
2857.55
2862.53
2867.44
2872.32
2877.23
2882.14
2886.95
2891.69
2896.49
2901.49
2906.59
2911.53
2916.17
2920.74
2925.58
2930.83
2936.28
2941.64
2946.77
2951.69
2956.53
2961.37
2966.28
2971.29
2976.42
2981.68
2987.05
2992.55
2998.16
3003.86
3009.61
3015.41
3021.26
3027.14
3033.07
3039.07
3045.13
3051.26
3057.46
3063.72
3070.05
3076.43
3082.85
3089.31
3095.79
3102.28
3108.76
3115.23
3121.66
3128.03
3134.32
3140.52
3146.6
3152.54
3158.31
3163.88
3169.23
3174.34
3179.18
3183.72
3187.95
3191.84
3195.38
3198.55
3201.34
3203.74
3205.75
3207.37
3208.6
3209.44
3209.92
3210.06
3209.84
3209.25
3208.38
3207.22
3205.78
3204.13
3202.22
3200.16
3197.93
3195.5
3193.02
3190.35
3187.68
3184.95
3182.11
3179.3
3176.44
3173.58
3170.75
3167.91
3165.11
3162.35
3159.64
3156.93
3154.07
3150.3
2707.05
2728.67
2723.2
2719.2
2716.88
2716.84
2722.85
2738.68
2756.87
2770.51
2780.23
2789.15
2798.42
2806.99
2813.37
2817.59
2821.23
2825.51
2830.54
2835.74
2840.79
2845.84
2850.98
2856.18
2861.3
2866.35
2871.38
2876.43
2881.46
2886.39
2891.22
2896.13
2901.23
2906.43
2911.44
2916.15
2920.78
2925.69
2930.98
2936.43
2941.78
2946.9
2951.85
2956.71
2961.59
2966.52
2971.55
2976.69
2981.93
2987.29
2992.76
2998.33
3003.98
3009.68
3015.43
3021.19
3027
3032.86
3038.77
3044.73
3050.76
3056.85
3063
3069.2
3075.44
3081.72
3088.02
3094.33
3100.64
3106.94
3113.2
3119.41
3125.56
3131.61
3137.56
3143.38
3149.04
3154.52
3159.8
3164.85
3169.65
3174.17
3178.39
3182.29
3185.85
3189.06
3191.9
3194.38
3196.47
3198.17
3199.5
3200.45
3201.02
3201.27
3201.17
3200.7
3199.94
3198.88
3197.57
3195.99
3194.21
3192.2
3190.05
3187.75
3185.26
3182.74
3180.05
3177.36
3174.62
3171.78
3168.98
3166.14
3163.3
3160.5
3157.69
3154.93
3152.21
3149.54
3146.88
3144.07
3140.4
2693.78
2722.75
2717.37
2713.74
2711.81
2712.38
2719.84
2736.48
2754.32
2767.53
2777.27
2786.46
2795.89
2804.31
2810.46
2814.61
2818.47
2823.08
2828.36
2833.73
2838.93
2844.16
2849.47
2854.82
2860.08
2865.27
2870.44
2875.63
2880.77
2885.81
2890.75
2895.76
2900.96
2906.24
2911.32
2916.09
2920.8
2925.77
2931.09
2936.54
2941.88
2947.01
2951.98
2956.88
2961.78
2966.74
2971.78
2976.92
2982.16
2987.5
2992.94
2998.47
3004.07
3009.72
3015.4
3021.1
3026.83
3032.6
3038.43
3044.3
3050.23
3056.2
3062.23
3068.3
3074.4
3080.53
3086.67
3092.82
3098.95
3105.05
3111.11
3117.11
3123.02
3128.84
3134.53
3140.09
3145.47
3150.67
3155.65
3160.4
3164.88
3169.08
3172.98
3176.56
3179.8
3182.69
3185.22
3187.37
3189.16
3190.57
3191.61
3192.29
3192.63
3192.65
3192.29
3191.63
3190.68
3189.46
3188
3186.29
3184.4
3182.29
3180.06
3177.7
3175.15
3172.58
3169.88
3167.16
3164.42
3161.59
3158.79
3155.97
3153.15
3150.37
3147.6
3144.87
3142.19
3139.56
3136.94
3134.17
3130.55
2680.03
2717.05
2711.82
2708.58
2706.94
2708.19
2717.14
2734.42
2751.85
2764.67
2774.48
2783.91
2793.42
2801.64
2807.56
2811.69
2815.8
2820.73
2826.24
2831.76
2837.11
2842.52
2847.99
2853.48
2858.87
2864.19
2869.5
2874.82
2880.08
2885.22
2890.25
2895.37
2900.67
2906.04
2911.18
2916.01
2920.8
2925.82
2931.16
2936.62
2941.95
2947.09
2952.08
2957.02
2961.95
2966.93
2971.99
2977.13
2982.36
2987.68
2993.09
2998.58
3004.13
3009.72
3015.33
3020.96
3026.62
3032.31
3038.04
3043.82
3049.64
3055.51
3061.41
3067.35
3073.32
3079.3
3085.28
3091.25
3097.19
3103.1
3108.95
3114.73
3120.42
3126
3131.44
3136.73
3141.84
3146.76
3151.45
3155.89
3160.07
3163.96
3167.54
3170.81
3173.73
3176.31
3178.53
3180.38
3181.88
3183
3183.77
3184.2
3184.31
3184.08
3183.5
3182.65
3181.53
3180.15
3178.54
3176.7
3174.71
3172.51
3170.2
3167.77
3165.16
3162.56
3159.84
3157.1
3154.34
3151.5
3148.71
3145.91
3143.1
3140.34
3137.59
3134.89
3132.24
3129.64
3127.04
3124.29
3120.7
2665.88
2711.53
2706.56
2703.66
2702.31
2704.32
2714.67
2732.44
2749.45
2761.96
2771.83
2781.47
2791
2798.99
2804.7
2808.85
2813.22
2818.46
2824.18
2829.83
2835.34
2840.91
2846.54
2852.16
2857.67
2863.12
2868.56
2874
2879.38
2884.62
2889.75
2894.96
2900.37
2905.82
2911.02
2915.91
2920.76
2925.84
2931.21
2936.66
2941.99
2947.15
2952.17
2957.13
2962.09
2967.1
2972.17
2977.32
2982.53
2987.83
2993.21
2998.66
3004.16
3009.69
3015.23
3020.79
3026.37
3031.98
3037.63
3043.31
3049.02
3054.77
3060.56
3066.37
3072.19
3078.02
3083.83
3089.63
3095.39
3101.1
3106.75
3112.31
3117.76
3123.1
3128.28
3133.31
3138.15
3142.78
3147.18
3151.32
3155.2
3158.78
3162.05
3165
3167.62
3169.89
3171.81
3173.37
3174.58
3175.43
3175.94
3176.14
3176.01
3175.54
3174.77
3173.74
3172.45
3170.92
3169.18
3167.22
3165.12
3162.84
3160.45
3157.97
3155.31
3152.66
3149.93
3147.16
3144.4
3141.56
3138.76
3135.97
3133.18
3130.44
3127.71
3125.03
3122.4
3119.82
3117.25
3114.54
3111.01
2651.38
2706.16
2701.53
2698.98
2697.97
2700.83
2712.43
2730.53
2747.13
2759.38
2769.34
2779.15
2788.63
2796.37
2801.88
2806.09
2810.75
2816.28
2822.17
2827.95
2833.6
2839.33
2845.11
2850.85
2856.49
2862.07
2867.63
2873.19
2878.68
2884.01
2889.24
2894.55
2900.05
2905.57
2910.84
2915.79
2920.7
2925.84
2931.22
2936.67
2942.01
2947.18
2952.24
2957.23
2962.22
2967.25
2972.33
2977.48
2982.68
2987.95
2993.3
2998.71
3004.16
3009.63
3015.1
3020.59
3026.09
3031.62
3037.17
3042.75
3048.36
3054
3059.66
3065.34
3071.02
3076.69
3082.34
3087.96
3093.54
3099.05
3104.49
3109.83
3115.05
3120.14
3125.08
3129.84
3134.4
3138.75
3142.87
3146.72
3150.29
3153.57
3156.54
3159.19
3161.51
3163.48
3165.11
3166.38
3167.32
3167.9
3168.18
3168.15
3167.76
3167.09
3166.14
3164.92
3163.47
3161.79
3159.93
3157.86
3155.66
3153.3
3150.83
3148.29
3145.58
3142.9
3140.14
3137.35
3134.57
3131.73
3128.93
3126.14
3123.36
3120.62
3117.91
3115.25
3112.64
3110.09
3107.54
3104.85
3101.35
2636.58
2700.91
2696.73
2694.54
2693.91
2697.65
2710.39
2728.69
2744.9
2756.94
2766.99
2776.91
2786.29
2793.77
2799.11
2803.43
2808.38
2814.17
2820.21
2826.11
2831.91
2837.79
2843.7
2849.56
2855.31
2861.02
2866.7
2872.38
2877.97
2883.4
2888.72
2894.13
2899.72
2905.32
2910.64
2915.65
2920.62
2925.82
2931.23
2936.68
2942.02
2947.21
2952.29
2957.31
2962.33
2967.38
2972.47
2977.62
2982.8
2988.05
2993.37
2998.73
3004.13
3009.53
3014.94
3020.36
3025.78
3031.23
3036.69
3042.17
3047.67
3053.19
3058.73
3064.27
3069.81
3075.32
3080.81
3086.26
3091.64
3096.96
3102.18
3107.3
3112.29
3117.14
3121.82
3126.32
3130.61
3134.68
3138.5
3142.06
3145.34
3148.32
3150.99
3153.35
3155.37
3157.05
3158.39
3159.39
3160.05
3160.41
3160.46
3160.17
3159.56
3158.69
3157.56
3156.18
3154.58
3152.76
3150.78
3148.6
3146.31
3143.87
3141.33
3138.74
3135.98
3133.27
3130.49
3127.67
3124.88
3122.04
3119.23
3116.45
3113.67
3110.95
3108.25
3105.61
3103.01
3100.48
3097.94
3095.27
3091.78
2621.49
2695.74
2692.08
2690.32
2690.13
2694.8
2708.52
2726.93
2742.76
2754.64
2764.79
2774.77
2783.99
2791.2
2796.41
2800.87
2806.11
2812.13
2818.3
2824.31
2830.26
2836.29
2842.32
2848.29
2854.16
2859.98
2865.79
2871.58
2877.27
2882.79
2888.2
2893.7
2899.38
2905.04
2910.42
2915.49
2920.52
2925.76
2931.19
2936.66
2942.01
2947.22
2952.33
2957.38
2962.42
2967.49
2972.59
2977.73
2982.9
2988.13
2993.4
2998.73
3004.07
3009.41
3014.75
3020.1
3025.45
3030.8
3036.17
3041.55
3046.95
3052.35
3057.76
3063.17
3068.56
3073.92
3079.24
3084.51
3089.7
3094.82
3099.83
3104.73
3109.49
3114.09
3118.52
3122.75
3126.78
3130.57
3134.11
3137.39
3140.37
3143.06
3145.44
3147.5
3149.24
3150.64
3151.7
3152.44
3152.86
3152.98
3152.78
3152.25
3151.45
3150.39
3149.08
3147.55
3145.8
3143.85
3141.75
3139.46
3137.09
3134.58
3131.96
3129.32
3126.52
3123.76
3120.97
3118.12
3115.31
3112.46
3109.64
3106.87
3104.09
3101.37
3098.69
3096.05
3093.47
3090.95
3088.44
3085.79
3082.35
2606.11
2690.63
2687.61
2686.3
2686.56
2692.22
2706.81
2725.24
2740.72
2752.48
2762.7
2772.7
2781.73
2788.68
2793.79
2798.42
2803.94
2810.15
2816.44
2822.56
2828.65
2834.81
2840.96
2847.04
2853.02
2858.95
2864.88
2870.77
2876.56
2882.17
2887.67
2893.26
2899.02
2904.76
2910.19
2915.32
2920.4
2925.68
2931.13
2936.6
2941.98
2947.21
2952.35
2957.43
2962.5
2967.58
2972.69
2977.82
2982.98
2988.17
2993.42
2998.7
3003.98
3009.26
3014.54
3019.81
3025.08
3030.35
3035.63
3040.91
3046.19
3051.48
3056.77
3062.04
3067.28
3072.48
3077.64
3082.72
3087.73
3092.64
3097.45
3102.12
3106.64
3111
3115.18
3119.15
3122.91
3126.42
3129.69
3132.67
3135.37
3137.77
3139.87
3141.64
3143.09
3144.22
3145.02
3145.5
3145.68
3145.57
3145.12
3144.39
3143.4
3142.16
3140.69
3139
3137.11
3135.04
3132.83
3130.44
3127.98
3125.41
3122.72
3120.02
3117.19
3114.39
3111.58
3108.7
3105.88
3103.03
3100.2
3097.42
3094.66
3091.94
3089.26
3086.64
3084.08
3081.57
3079.07
3076.43
3073
2590.39
2685.59
2683.33
2682.44
2683.16
2689.91
2705.25
2723.62
2738.78
2750.44
2760.72
2770.7
2779.5
2786.21
2791.25
2796.07
2801.85
2808.24
2814.63
2820.86
2827.08
2833.37
2839.63
2845.82
2851.89
2857.94
2863.98
2869.98
2875.86
2881.55
2887.14
2892.82
2898.66
2904.46
2909.95
2915.13
2920.26
2925.58
2931.04
2936.53
2941.92
2947.18
2952.35
2957.46
2962.55
2967.66
2972.77
2977.89
2983.03
2988.2
2993.41
2998.63
3003.86
3009.09
3014.3
3019.5
3024.69
3029.87
3035.05
3040.23
3045.41
3050.59
3055.74
3060.87
3065.97
3071.01
3076
3080.9
3085.72
3090.43
3095.02
3099.47
3103.76
3107.88
3111.8
3115.52
3119.01
3122.26
3125.24
3127.95
3130.37
3132.49
3134.3
3135.8
3136.98
3137.84
3138.38
3138.63
3138.59
3138.21
3137.55
3136.62
3135.44
3134.03
3132.39
3130.55
3128.54
3126.34
3124.03
3121.55
3119.01
3116.37
3113.61
3110.86
3107.99
3105.16
3102.32
3099.42
3096.58
3093.72
3090.88
3088.1
3085.34
3082.62
3079.95
3077.34
3074.78
3072.27
3069.78
3067.14
3063.72
2574.24
2680.67
2679.21
2678.76
2679.95
2687.77
2703.8
2722.07
2736.94
2748.52
2758.85
2768.76
2777.32
2783.8
2788.8
2793.82
2799.85
2806.39
2812.87
2819.2
2825.55
2831.96
2838.33
2844.61
2850.79
2856.95
2863.09
2869.19
2875.15
2880.93
2886.6
2892.37
2898.29
2904.15
2909.69
2914.92
2920.11
2925.46
2930.95
2936.45
2941.85
2947.14
2952.33
2957.47
2962.6
2967.71
2972.83
2977.95
2983.06
2988.21
2993.37
2998.55
3003.73
3008.9
3014.04
3019.17
3024.28
3029.37
3034.46
3039.54
3044.61
3049.66
3054.69
3059.69
3064.63
3069.52
3074.33
3079.05
3083.68
3088.19
3092.56
3096.79
3100.85
3104.72
3108.4
3111.86
3115.08
3118.06
3120.77
3123.2
3125.34
3127.19
3128.72
3129.95
3130.86
3131.46
3131.77
3131.79
3131.48
3130.89
3130.03
3128.91
3127.55
3125.97
3124.18
3122.21
3120.07
3117.76
3115.34
3112.78
3110.16
3107.45
3104.63
3101.83
3098.93
3096.07
3093.2
3090.28
3087.42
3084.56
3081.71
3078.93
3076.17
3073.46
3070.79
3068.19
3065.64
3063.15
3060.66
3058.05
3054.66
2557.7
2675.82
2675.21
2675.24
2676.98
2685.8
2702.41
2720.59
2735.19
2746.71
2757.06
2766.86
2775.18
2781.46
2786.45
2791.67
2797.92
2804.59
2811.15
2817.59
2824.06
2830.59
2837.05
2843.43
2849.71
2855.97
2862.21
2868.4
2874.46
2880.31
2886.06
2891.91
2897.91
2903.84
2909.42
2914.7
2919.93
2925.32
2930.84
2936.35
2941.77
2947.08
2952.31
2957.48
2962.62
2967.76
2972.87
2977.97
2983.08
2988.19
2993.31
2998.45
3003.58
3008.68
3013.76
3018.81
3023.84
3028.85
3033.85
3038.82
3043.78
3048.72
3053.62
3058.47
3063.27
3067.99
3072.63
3077.17
3081.61
3085.91
3090.08
3094.08
3097.91
3101.54
3104.97
3108.17
3111.14
3113.85
3116.29
3118.46
3120.33
3121.9
3123.17
3124.13
3124.79
3125.15
3125.23
3124.99
3124.45
3123.65
3122.6
3121.29
3119.76
3118.02
3116.09
3113.98
3111.71
3109.29
3106.78
3104.14
3101.44
3098.68
3095.79
3092.95
3090.02
3087.11
3084.23
3081.28
3078.4
3075.53
3072.68
3069.89
3067.13
3064.42
3061.76
3059.16
3056.62
3054.14
3051.67
3049.05
3045.67
2540.93
2670.95
2671.37
2671.87
2674.21
2683.96
2701.1
2719.16
2733.53
2745.01
2755.36
2765.02
2773.09
2779.18
2784.19
2789.62
2796.06
2802.85
2809.49
2816.03
2822.62
2829.25
2835.8
2842.27
2848.65
2855.01
2861.35
2867.63
2873.76
2879.69
2885.53
2891.46
2897.53
2903.51
2909.14
2914.46
2919.74
2925.17
2930.71
2936.24
2941.68
2947.02
2952.27
2957.47
2962.64
2967.78
2972.9
2977.99
2983.07
2988.14
2993.24
2998.33
3003.4
3008.45
3013.46
3018.44
3023.39
3028.31
3033.21
3038.09
3042.94
3047.75
3052.52
3057.23
3061.88
3066.44
3070.91
3075.27
3079.51
3083.62
3087.57
3091.35
3094.95
3098.34
3101.52
3104.47
3107.18
3109.63
3111.8
3113.7
3115.3
3116.61
3117.61
3118.32
3118.73
3118.86
3118.7
3118.22
3117.47
3116.47
3115.22
3113.75
3112.05
3110.16
3108.09
3105.85
3103.47
3100.95
3098.35
3095.63
3092.85
3090.03
3087.08
3084.2
3081.25
3078.3
3075.39
3072.43
3069.53
3066.66
3063.8
3061.01
3058.25
3055.55
3052.89
3050.3
3047.77
3045.3
3042.83
3040.24
3036.88
2524.07
2666
2667.72
2668.63
2671.59
2682.25
2699.86
2717.78
2731.96
2743.39
2753.72
2763.23
2771.05
2776.98
2782.03
2787.66
2794.28
2801.16
2807.87
2814.51
2821.21
2827.95
2834.59
2841.14
2847.61
2854.07
2860.49
2866.86
2873.07
2879.08
2884.99
2891
2897.14
2903.17
2908.85
2914.21
2919.54
2925
2930.57
2936.12
2941.58
2946.94
2952.23
2957.46
2962.65
2967.8
2972.91
2977.98
2983.03
2988.08
2993.14
2998.18
3003.21
3008.2
3013.14
3018.05
3022.92
3027.75
3032.56
3037.33
3042.07
3046.76
3051.4
3055.98
3060.47
3064.87
3069.17
3073.35
3077.39
3081.29
3085.03
3088.59
3091.96
3095.12
3098.06
3100.76
3103.21
3105.4
3107.32
3108.95
3110.3
3111.35
3112.1
3112.56
3112.74
3112.64
3112.22
3111.53
3110.58
3109.38
3107.95
3106.3
3104.45
3102.41
3100.2
3097.84
3095.36
3092.73
3090.04
3087.25
3084.4
3081.53
3078.53
3075.6
3072.62
3069.64
3066.71
3063.73
3060.81
3057.93
3055.07
3052.27
3049.51
3046.81
3044.16
3041.57
3039.05
3036.59
3034.15
3031.57
3028.25
2507.25
2661.14
2664.11
2665.46
2669.09
2680.65
2698.67
2716.47
2730.47
2741.86
2752.15
2761.48
2769.07
2774.85
2779.97
2785.79
2792.56
2799.52
2806.31
2813.04
2819.85
2826.68
2833.39
2840.03
2846.59
2853.14
2859.66
2866.1
2872.39
2878.47
2884.45
2890.54
2896.75
2902.83
2908.54
2913.95
2919.33
2924.83
2930.42
2935.98
2941.46
2946.86
2952.18
2957.43
2962.63
2967.79
2972.9
2977.95
2982.98
2988
2993.02
2998.03
3003
3007.93
3012.81
3017.64
3022.43
3027.18
3031.89
3036.56
3041.19
3045.76
3050.27
3054.7
3059.04
3063.28
3067.41
3071.41
3075.26
3078.96
3082.48
3085.82
3088.96
3091.88
3094.58
3097.03
3099.23
3101.17
3102.83
3104.21
3105.29
3106.09
3106.59
3106.82
3106.78
3106.41
3105.78
3104.88
3103.74
3102.35
3100.75
3098.93
3096.93
3094.75
3092.42
3089.94
3087.36
3084.64
3081.87
3079.01
3076.09
3073.16
3070.11
3067.14
3064.14
3061.12
3058.17
3055.18
3052.25
3049.37
3046.5
3043.7
3040.95
3038.25
3035.61
3033.04
3030.53
3028.08
3025.63
3023.06
3019.71
2490.52
2656.39
2660.54
2662.41
2666.76
2679.16
2697.54
2715.2
2729.05
2740.4
2750.63
2759.78
2767.14
2772.8
2777.99
2784
2790.91
2797.93
2804.78
2811.62
2818.53
2825.44
2832.23
2838.95
2845.6
2852.23
2858.83
2865.36
2871.72
2877.87
2883.92
2890.08
2896.35
2902.48
2908.23
2913.68
2919.1
2924.64
2930.25
2935.84
2941.35
2946.77
2952.11
2957.39
2962.61
2967.76
2972.86
2977.91
2982.91
2987.91
2992.89
2997.85
3002.78
3007.64
3012.46
3017.22
3021.93
3026.59
3031.21
3035.78
3040.29
3044.74
3049.12
3053.41
3057.6
3061.68
3065.63
3069.44
3073.1
3076.6
3079.91
3083.03
3085.95
3088.64
3091.1
3093.31
3095.26
3096.95
3098.36
3099.48
3100.32
3100.87
3101.14
3101.16
3100.85
3100.27
3099.42
3098.33
3096.99
3095.43
3093.65
3091.68
3089.53
3087.22
3084.76
3082.17
3079.49
3076.68
3073.83
3070.9
3067.91
3064.94
3061.85
3058.84
3055.81
3052.77
3049.79
3046.8
3043.84
3040.95
3038.08
3035.28
3032.53
3029.84
3027.2
3024.63
3022.13
3019.69
3017.27
3014.72
3011.43
2473.87
2651.76
2657.06
2659.44
2664.55
2677.77
2696.46
2713.98
2727.7
2739.02
2749.17
2758.13
2765.27
2770.82
2776.11
2782.28
2789.31
2796.39
2803.31
2810.24
2817.24
2824.23
2831.1
2837.89
2844.63
2851.34
2858.02
2864.62
2871.05
2877.27
2883.39
2889.62
2895.95
2902.12
2907.91
2913.4
2918.87
2924.44
2930.08
2935.69
2941.22
2946.67
2952.04
2957.34
2962.57
2967.73
2972.82
2977.84
2982.83
2987.8
2992.75
2997.67
3002.54
3007.35
3012.09
3016.78
3021.41
3025.99
3030.51
3034.98
3039.38
3043.71
3047.95
3052.1
3056.14
3060.06
3063.83
3067.47
3070.94
3074.23
3077.34
3080.24
3082.93
3085.39
3087.61
3089.58
3091.28
3092.72
3093.89
3094.77
3095.36
3095.68
3095.74
3095.49
3094.95
3094.16
3093.12
3091.83
3090.31
3088.57
3086.63
3084.51
3082.22
3079.78
3077.21
3074.52
3071.74
3068.85
3065.93
3062.94
3059.89
3056.86
3053.74
3050.69
3047.63
3044.56
3041.56
3038.56
3035.6
3032.71
3029.84
3027.04
3024.29
3021.61
3018.98
3016.43
3013.94
3011.52
3009.12
3006.59
3003.32
2457.31
2647.18
2653.65
2656.61
2662.48
2676.46
2695.42
2712.82
2726.41
2737.69
2747.75
2756.52
2763.45
2768.92
2774.3
2780.64
2787.76
2794.9
2801.88
2808.9
2815.99
2823.05
2829.99
2836.86
2843.68
2850.47
2857.22
2863.9