/*--------------------------------*- C++ -*----------------------------------*\
| =========                 |                                                 |
| \\      /  F ield         | OpenFOAM: The Open Source CFD Toolbox           |
|  \\    /   O peration     | Version:  2412                                  |
|   \\  /    A nd           | Website:  www.openfoam.com                      |
|    \\/     M anipulation  |                                                 |
\*---------------------------------------------------------------------------*/
FoamFile
{
    version     2.0;
    format      ascii;
    arch        "LSB;label=32;scalar=64";
    class       volVectorField;
    location    "0.091";
    object      U;
}
// * * * * * * * * * * * * * * * * * * * * * * * * * * * * * * * * * * * * * //

dimensions      [0 1 -1 0 0 0 0];

internalField   nonuniform List<vector> 
9859
(
(208.534 -25.9162 0)
(208.578 -24.8705 0)
(208.488 -24.6656 0)
(207.517 -25.7862 0)
(205.193 -29.8455 0)
(202.176 -35.5581 0)
(199.787 -41.1199 0)
(198.105 -45.3167 0)
(197.021 -48.0009 0)
(196.39 -49.4639 0)
(196.033 -50.0882 0)
(195.834 -50.2258 0)
(195.714 -50.0991 0)
(196.192 -49.2299 0)
(197.181 -47.8599 0)
(197.889 -46.6033 0)
(198.257 -45.6622 0)
(198.398 -45.005 0)
(198.404 -44.5559 0)
(198.37 -44.247 0)
(198.343 -44.0269 0)
(198.338 -43.8647 0)
(198.368 -43.7398 0)
(198.416 -43.6415 0)
(198.467 -43.5678 0)
(198.524 -43.5168 0)
(198.592 -43.4852 0)
(198.673 -43.4699 0)
(198.769 -43.4699 0)
(198.876 -43.4776 0)
(198.991 -43.4853 0)
(199.109 -43.4865 0)
(199.231 -43.4819 0)
(199.36 -43.4724 0)
(199.502 -43.4663 0)
(199.666 -43.4712 0)
(199.851 -43.4879 0)
(200.048 -43.5006 0)
(200.245 -43.5016 0)
(200.435 -43.4827 0)
(200.615 -43.4456 0)
(200.787 -43.3906 0)
(200.954 -43.3241 0)
(201.117 -43.2468 0)
(201.275 -43.1618 0)
(201.427 -43.069 0)
(201.574 -42.9734 0)
(201.717 -42.8776 0)
(201.861 -42.7872 0)
(202.01 -42.704 0)
(202.166 -42.6264 0)
(202.327 -42.5458 0)
(202.493 -42.4551 0)
(202.659 -42.3495 0)
(202.818 -42.2284 0)
(202.961 -42.0868 0)
(203.079 -41.9127 0)
(203.155 -41.6936 0)
(203.171 -41.4339 0)
(203.12 -41.1538 0)
(203.011 -40.8694 0)
(202.849 -40.5892 0)
(202.645 -40.2996 0)
(202.409 -39.9666 0)
(202.149 -39.5891 0)
(201.857 -39.2077 0)
(201.533 -38.8264 0)
(201.183 -38.3916 0)
(200.806 -37.8888 0)
(208.337 -25.8693 0)
(208.361 -24.8215 0)
(208.264 -24.6101 0)
(207.214 -25.8044 0)
(204.853 -29.9113 0)
(201.829 -35.6125 0)
(199.461 -41.141 0)
(197.817 -45.3113 0)
(196.779 -47.9803 0)
(196.191 -49.4356 0)
(195.866 -50.0573 0)
(195.682 -50.1951 0)
(195.591 -50.0561 0)
(196.16 -49.1617 0)
(197.175 -47.7954 0)
(197.877 -46.5586 0)
(198.235 -45.6328 0)
(198.372 -44.9841 0)
(198.381 -44.5388 0)
(198.354 -44.2312 0)
(198.333 -44.0111 0)
(198.334 -43.8482 0)
(198.367 -43.7227 0)
(198.416 -43.6246 0)
(198.467 -43.5516 0)
(198.524 -43.501 0)
(198.592 -43.4696 0)
(198.674 -43.4543 0)
(198.77 -43.4542 0)
(198.878 -43.4619 0)
(198.993 -43.47 0)
(199.113 -43.4718 0)
(199.236 -43.4677 0)
(199.365 -43.4581 0)
(199.506 -43.4514 0)
(199.668 -43.4551 0)
(199.852 -43.4704 0)
(200.048 -43.4826 0)
(200.244 -43.4838 0)
(200.433 -43.4654 0)
(200.612 -43.4288 0)
(200.784 -43.3745 0)
(200.953 -43.3088 0)
(201.117 -43.2327 0)
(201.277 -43.1492 0)
(201.431 -43.0579 0)
(201.58 -42.9638 0)
(201.727 -42.8688 0)
(201.875 -42.7784 0)
(202.03 -42.6951 0)
(202.193 -42.6187 0)
(202.362 -42.5408 0)
(202.537 -42.4531 0)
(202.714 -42.3483 0)
(202.885 -42.2263 0)
(203.041 -42.0855 0)
(203.171 -41.9181 0)
(203.263 -41.7108 0)
(203.302 -41.4614 0)
(203.28 -41.1851 0)
(203.202 -40.8994 0)
(203.073 -40.6187 0)
(202.896 -40.3362 0)
(202.682 -40.0166 0)
(202.44 -39.644 0)
(202.167 -39.2534 0)
(201.856 -38.8647 0)
(201.514 -38.4364 0)
(201.145 -37.9351 0)
(200.734 -37.3987 0)
(200.268 -36.8608 0)
(199.759 -36.2594 0)
(199.217 -35.53 0)
(198.649 -34.6994 0)
(198.064 -33.8413 0)
(194.73 -27.6563 0)
(194.766 -27.2061 0)
(194.842 -26.7687 0)
(194.892 -26.4125 0)
(194.99 -26.1677 0)
(195.239 -26.0475 0)
(195.58 -25.9923 0)
(195.901 -25.9052 0)
(196.157 -25.7505 0)
(196.345 -25.5285 0)
(196.479 -25.2586 0)
(196.59 -24.9877 0)
(196.72 -24.7556 0)
(196.903 -24.5763 0)
(197.135 -24.4289 0)
(197.383 -24.278 0)
(197.628 -24.1099 0)
(197.868 -23.9338 0)
(198.101 -23.7608 0)
(198.332 -23.5914 0)
(198.574 -23.42 0)
(198.812 -23.2414 0)
(199.033 -23.0824 0)
(199.238 -22.9723 0)
(199.411 -22.8939 0)
(199.527 -22.8235 0)
(199.555 -22.7833 0)
(199.524 -22.7825 0)
(199.399 -22.861 0)
(199.189 -23.0508 0)
(199.116 -23.468 0)
(199.216 -24.0938 0)
(198.952 -24.8996 0)
(198.164 -25.9565 0)
(197.437 -27.4345 0)
(196.637 -29.7994 0)
(195.739 -33.7077 0)
(208.13 -25.8208 0)
(208.135 -24.772 0)
(208.021 -24.5512 0)
(206.892 -25.8299 0)
(204.495 -29.9837 0)
(201.473 -35.673 0)
(199.127 -41.1643 0)
(197.52 -45.3047 0)
(196.527 -47.9566 0)
(195.982 -49.4036 0)
(195.691 -50.0233 0)
(195.523 -50.1621 0)
(195.471 -50.0085 0)
(196.133 -49.0866 0)
(197.167 -47.7275 0)
(197.86 -46.5122 0)
(198.21 -45.602 0)
(198.345 -44.9618 0)
(198.358 -44.5205 0)
(198.337 -44.2141 0)
(198.322 -43.994 0)
(198.329 -43.8306 0)
(198.365 -43.7049 0)
(198.414 -43.6072 0)
(198.465 -43.5347 0)
(198.523 -43.4843 0)
(198.593 -43.4531 0)
(198.675 -43.4377 0)
(198.771 -43.4374 0)
(198.879 -43.4452 0)
(198.994 -43.4539 0)
(199.114 -43.4561 0)
(199.237 -43.4523 0)
(199.366 -43.4426 0)
(199.507 -43.4355 0)
(199.669 -43.4382 0)
(199.852 -43.4521 0)
(200.047 -43.4636 0)
(200.244 -43.4649 0)
(200.433 -43.4469 0)
(200.613 -43.4109 0)
(200.785 -43.3575 0)
(200.952 -43.2928 0)
(201.117 -43.2177 0)
(201.278 -43.1356 0)
(201.434 -43.046 0)
(201.586 -42.9535 0)
(201.735 -42.8594 0)
(201.888 -42.7689 0)
(202.048 -42.6851 0)
(202.218 -42.609 0)
(202.395 -42.5334 0)
(202.578 -42.4489 0)
(202.764 -42.3459 0)
(202.946 -42.2234 0)
(203.115 -42.0823 0)
(203.259 -41.9191 0)
(203.367 -41.7223 0)
(203.426 -41.4848 0)
(203.432 -41.2158 0)
(203.386 -40.9316 0)
(203.291 -40.6486 0)
(203.146 -40.3672 0)
(202.956 -40.0596 0)
(202.735 -39.6966 0)
(202.483 -39.2971 0)
(202.191 -38.8927 0)
(201.861 -38.4699 0)
(201.501 -37.9854 0)
(201.103 -37.4525 0)
(200.652 -36.9148 0)
(200.151 -36.3174 0)
(199.612 -35.6077 0)
(199.047 -34.7978 0)
(198.468 -33.9394 0)
(197.893 -33.0685 0)
(197.338 -32.2342 0)
(196.825 -31.4424 0)
(196.37 -30.7049 0)
(195.989 -30.0106 0)
(195.688 -29.3526 0)
(195.462 -28.7406 0)
(195.303 -28.1963 0)
(195.221 -27.7188 0)
(195.254 -27.2647 0)
(195.315 -26.8261 0)
(195.35 -26.4675 0)
(195.425 -26.2135 0)
(195.645 -26.0786 0)
(195.971 -26.0189 0)
(196.289 -25.9349 0)
(196.546 -25.7847 0)
(196.735 -25.5664 0)
(196.869 -25.2987 0)
(196.98 -25.0273 0)
(197.105 -24.792 0)
(197.274 -24.6074 0)
(197.496 -24.4572 0)
(197.743 -24.3074 0)
(197.994 -24.1414 0)
(198.248 -23.9672 0)
(198.497 -23.7954 0)
(198.741 -23.6265 0)
(198.986 -23.4563 0)
(199.221 -23.2793 0)
(199.436 -23.1213 0)
(199.636 -23.0114 0)
(199.806 -22.9346 0)
(199.917 -22.8694 0)
(199.941 -22.8347 0)
(199.91 -22.8361 0)
(199.771 -22.9167 0)
(199.569 -23.1041 0)
(199.487 -23.5066 0)
(199.54 -24.1298 0)
(199.246 -24.9521 0)
(198.56 -26.0342 0)
(197.945 -27.5292 0)
(197.118 -29.8961 0)
(196.234 -33.8124 0)
(207.916 -25.771 0)
(207.902 -24.7205 0)
(207.757 -24.4913 0)
(206.549 -25.8593 0)
(204.118 -30.0564 0)
(201.105 -35.7327 0)
(198.783 -41.1852 0)
(197.213 -45.2943 0)
(196.264 -47.9281 0)
(195.764 -49.367 0)
(195.508 -49.9859 0)
(195.355 -50.1267 0)
(195.358 -49.9549 0)
(196.112 -49.0039 0)
(197.157 -47.6557 0)
(197.84 -46.463 0)
(198.182 -45.5691 0)
(198.316 -44.9379 0)
(198.334 -44.5007 0)
(198.319 -44.1955 0)
(198.312 -43.9754 0)
(198.325 -43.8114 0)
(198.364 -43.6853 0)
(198.413 -43.588 0)
(198.465 -43.5162 0)
(198.524 -43.4663 0)
(198.594 -43.4353 0)
(198.677 -43.42 0)
(198.773 -43.4195 0)
(198.881 -43.4274 0)
(198.998 -43.4365 0)
(199.118 -43.4394 0)
(199.242 -43.4361 0)
(199.371 -43.4266 0)
(199.512 -43.419 0)
(199.671 -43.4205 0)
(199.852 -43.4329 0)
(200.046 -43.4439 0)
(200.241 -43.4452 0)
(200.43 -43.4277 0)
(200.609 -43.3922 0)
(200.782 -43.3393 0)
(200.951 -43.2756 0)
(201.117 -43.2018 0)
(201.279 -43.1212 0)
(201.436 -43.0333 0)
(201.59 -42.9425 0)
(201.743 -42.8494 0)
(201.899 -42.7589 0)
(202.064 -42.6743 0)
(202.24 -42.5977 0)
(202.425 -42.5235 0)
(202.615 -42.4424 0)
(202.81 -42.3423 0)
(203.003 -42.22 0)
(203.184 -42.0776 0)
(203.342 -41.916 0)
(203.465 -41.7269 0)
(203.544 -41.5016 0)
(203.576 -41.2436 0)
(203.56 -40.9657 0)
(203.501 -40.6813 0)
(203.39 -40.3953 0)
(203.23 -40.0956 0)
(203.032 -39.7471 0)
(202.802 -39.3449 0)
(202.533 -38.9235 0)
(202.22 -38.5052 0)
(201.871 -38.0516 0)
(201.488 -37.54 0)
(201.055 -36.9969 0)
(200.569 -36.3869 0)
(200.038 -35.6882 0)
(199.477 -34.8988 0)
(198.903 -34.0412 0)
(198.332 -33.1664 0)
(197.783 -32.3286 0)
(197.278 -31.5349 0)
(196.831 -30.7943 0)
(196.459 -30.0972 0)
(196.168 -29.4362 0)
(195.95 -28.8206 0)
(195.797 -28.2705 0)
(195.719 -27.785 0)
(195.748 -27.3251 0)
(195.792 -26.8843 0)
(195.814 -26.5229 0)
(195.871 -26.261 0)
(196.059 -26.1111 0)
(196.368 -26.0458 0)
(196.681 -25.9651 0)
(196.936 -25.8198 0)
(197.126 -25.6055 0)
(197.26 -25.3397 0)
(197.368 -25.068 0)
(197.488 -24.8299 0)
(197.646 -24.6396 0)
(197.857 -24.4838 0)
(198.102 -24.331 0)
(198.361 -24.1645 0)
(198.626 -23.9924 0)
(198.891 -23.8244 0)
(199.146 -23.6584 0)
(199.397 -23.4894 0)
(199.631 -23.3118 0)
(199.844 -23.1539 0)
(200.038 -23.0447 0)
(200.201 -22.971 0)
(200.306 -22.9117 0)
(200.325 -22.8831 0)
(200.293 -22.8893 0)
(200.144 -22.9773 0)
(199.957 -23.1665 0)
(199.867 -23.5587 0)
(199.861 -24.1811 0)
(199.538 -25.0183 0)
(198.965 -26.1194 0)
(198.454 -27.6212 0)
(197.601 -29.9946 0)
(196.735 -33.9115 0)
(207.692 -25.719 0)
(207.662 -24.6657 0)
(207.47 -24.4348 0)
(206.184 -25.8953 0)
(203.719 -30.1358 0)
(200.723 -35.7978 0)
(198.427 -41.2076 0)
(196.894 -45.2821 0)
(195.989 -47.8958 0)
(195.535 -49.3258 0)
(195.316 -49.945 0)
(195.179 -50.089 0)
(195.256 -49.8936 0)
(196.094 -48.914 0)
(197.144 -47.5803 0)
(197.815 -46.4117 0)
(198.151 -45.5345 0)
(198.285 -44.9123 0)
(198.309 -44.4792 0)
(198.302 -44.1754 0)
(198.302 -43.9553 0)
(198.32 -43.7909 0)
(198.361 -43.6648 0)
(198.411 -43.568 0)
(198.463 -43.497 0)
(198.523 -43.4474 0)
(198.594 -43.4165 0)
(198.678 -43.4011 0)
(198.774 -43.4005 0)
(198.882 -43.4084 0)
(198.998 -43.4181 0)
(199.119 -43.4216 0)
(199.243 -43.4188 0)
(199.373 -43.4095 0)
(199.513 -43.4015 0)
(199.673 -43.4019 0)
(199.852 -43.4127 0)
(200.046 -43.4229 0)
(200.241 -43.4242 0)
(200.43 -43.407 0)
(200.609 -43.3722 0)
(200.78 -43.3203 0)
(200.948 -43.2574 0)
(201.115 -43.1846 0)
(201.279 -43.1057 0)
(201.438 -43.0196 0)
(201.594 -42.9306 0)
(201.749 -42.8387 0)
(201.909 -42.7483 0)
(202.079 -42.6627 0)
(202.261 -42.5851 0)
(202.451 -42.5112 0)
(202.649 -42.4329 0)
(202.851 -42.3366 0)
(203.053 -42.216 0)
(203.246 -42.0723 0)
(203.418 -41.9098 0)
(203.557 -41.7248 0)
(203.656 -41.5103 0)
(203.711 -41.266 0)
(203.725 -40.9995 0)
(203.7 -40.7172 0)
(203.627 -40.4244 0)
(203.499 -40.1275 0)
(203.326 -39.7963 0)
(203.12 -39.4025 0)
(202.878 -38.9722 0)
(202.588 -38.5562 0)
(202.255 -38.1356 0)
(201.887 -37.6562 0)
(201.475 -37.1097 0)
(201.012 -36.482 0)
(200.496 -35.7809 0)
(199.943 -34.9994 0)
(199.373 -34.1436 0)
(198.804 -33.2735 0)
(198.258 -32.431 0)
(197.755 -31.6342 0)
(197.313 -30.8873 0)
(196.948 -30.1831 0)
(196.664 -29.5158 0)
(196.451 -28.8953 0)
(196.3 -28.3405 0)
(196.223 -27.8496 0)
(196.246 -27.3863 0)
(196.275 -26.9449 0)
(196.283 -26.5811 0)
(196.324 -26.312 0)
(196.48 -26.1464 0)
(196.769 -26.0726 0)
(197.074 -25.9937 0)
(197.328 -25.8529 0)
(197.517 -25.6425 0)
(197.648 -25.3789 0)
(197.754 -25.1068 0)
(197.868 -24.8661 0)
(198.017 -24.6711 0)
(198.219 -24.5115 0)
(198.462 -24.3584 0)
(198.727 -24.1931 0)
(199.003 -24.0219 0)
(199.281 -23.8548 0)
(199.547 -23.6901 0)
(199.804 -23.5233 0)
(200.04 -23.3485 0)
(200.252 -23.1926 0)
(200.44 -23.0838 0)
(200.594 -23.0117 0)
(200.689 -22.9576 0)
(200.703 -22.935 0)
(200.669 -22.9426 0)
(200.518 -23.0342 0)
(200.352 -23.2224 0)
(200.256 -23.6048 0)
(200.181 -24.2238 0)
(199.841 -25.0705 0)
(199.385 -26.189 0)
(198.953 -27.7117 0)
(198.078 -30.0997 0)
(197.259 -34.0104 0)
(198.904 -40.3762 0)
(207.457 -25.6658 0)
(207.411 -24.6089 0)
(207.163 -24.3803 0)
(205.798 -25.9344 0)
(203.296 -30.215 0)
(200.323 -35.8609 0)
(198.058 -41.2268 0)
(196.562 -45.2653 0)
(195.703 -47.8579 0)
(195.295 -49.2791 0)
(195.115 -49.8997 0)
(194.997 -50.0481 0)
(195.167 -49.8234 0)
(196.078 -48.8168 0)
(197.126 -47.5009 0)
(197.786 -46.3574 0)
(198.116 -45.4975 0)
(198.253 -44.8847 0)
(198.284 -44.4559 0)
(198.285 -44.1534 0)
(198.292 -43.9334 0)
(198.315 -43.7686 0)
(198.359 -43.6424 0)
(198.409 -43.5461 0)
(198.462 -43.4758 0)
(198.524 -43.4267 0)
(198.596 -43.3962 0)
(198.68 -43.3808 0)
(198.776 -43.3801 0)
(198.885 -43.3881 0)
(199.002 -43.3982 0)
(199.124 -43.4026 0)
(199.248 -43.4006 0)
(199.378 -43.3916 0)
(199.517 -43.3833 0)
(199.675 -43.3824 0)
(199.852 -43.3916 0)
(200.043 -43.4011 0)
(200.238 -43.4024 0)
(200.426 -43.3856 0)
(200.606 -43.3513 0)
(200.779 -43.2998 0)
(200.947 -43.2379 0)
(201.114 -43.1664 0)
(201.278 -43.089 0)
(201.439 -43.0046 0)
(201.598 -42.9175 0)
(201.756 -42.827 0)
(201.919 -42.737 0)
(202.092 -42.6507 0)
(202.279 -42.5716 0)
(202.475 -42.497 0)
(202.679 -42.4204 0)
(202.888 -42.3281 0)
(203.098 -42.2109 0)
(203.302 -42.0667 0)
(203.487 -41.9015 0)
(203.643 -41.7172 0)
(203.76 -41.5108 0)
(203.838 -41.2806 0)
(203.88 -41.0292 0)
(203.887 -40.7549 0)
(203.851 -40.4585 0)
(203.761 -40.1601 0)
(203.617 -39.8448 0)
(203.436 -39.4715 0)
(203.221 -39.0476 0)
(202.96 -38.6319 0)
(202.651 -38.2321 0)
(202.302 -37.7834 0)
(201.915 -37.2404 0)
(201.476 -36.6036 0)
(200.983 -35.8936 0)
(200.444 -35.1052 0)
(199.879 -34.2495 0)
(199.312 -33.3853 0)
(198.765 -32.5381 0)
(198.262 -31.7363 0)
(197.821 -30.9851 0)
(197.457 -30.2767 0)
(197.174 -29.6051 0)
(196.962 -28.9797 0)
(196.812 -28.418 0)
(196.733 -27.9185 0)
(196.749 -27.4494 0)
(196.763 -27.0062 0)
(196.758 -26.6393 0)
(196.785 -26.364 0)
(196.909 -26.1839 0)
(197.173 -26.1001 0)
(197.469 -26.0229 0)
(197.72 -25.8871 0)
(197.907 -25.6808 0)
(198.036 -25.4192 0)
(198.137 -25.1467 0)
(198.246 -24.9036 0)
(198.388 -24.7035 0)
(198.583 -24.5377 0)
(198.826 -24.3801 0)
(199.096 -24.213 0)
(199.382 -24.0431 0)
(199.671 -23.8795 0)
(199.946 -23.7184 0)
(200.209 -23.5536 0)
(200.448 -23.3791 0)
(200.658 -23.2242 0)
(200.84 -23.1168 0)
(200.982 -23.0478 0)
(201.066 -22.9998 0)
(201.075 -22.9828 0)
(201.035 -22.9958 0)
(200.89 -23.0946 0)
(200.752 -23.2866 0)
(200.646 -23.664 0)
(200.499 -24.283 0)
(200.157 -25.1378 0)
(199.813 -26.2684 0)
(199.438 -27.8045 0)
(198.546 -30.2064 0)
(197.826 -34.1001 0)
(199.879 -40.3818 0)
(207.211 -25.6107 0)
(207.146 -24.5501 0)
(206.837 -24.3293 0)
(205.39 -25.981 0)
(202.852 -30.3015 0)
(199.904 -35.9287 0)
(197.673 -41.2466 0)
(196.217 -45.2459 0)
(195.405 -47.8152 0)
(195.043 -49.2265 0)
(194.905 -49.8492 0)
(194.812 -50.0045 0)
(195.091 -49.7427 0)
(196.061 -48.7126 0)
(197.104 -47.4178 0)
(197.752 -46.3004 0)
(198.079 -45.4582 0)
(198.22 -44.8551 0)
(198.258 -44.4306 0)
(198.267 -44.1295 0)
(198.281 -43.9098 0)
(198.31 -43.7448 0)
(198.355 -43.6188 0)
(198.406 -43.5233 0)
(198.46 -43.4538 0)
(198.523 -43.4052 0)
(198.596 -43.3748 0)
(198.681 -43.3594 0)
(198.778 -43.3585 0)
(198.886 -43.3665 0)
(199.003 -43.3773 0)
(199.124 -43.3824 0)
(199.249 -43.381 0)
(199.379 -43.3724 0)
(199.519 -43.3639 0)
(199.677 -43.3619 0)
(199.853 -43.3693 0)
(200.045 -43.3778 0)
(200.239 -43.3789 0)
(200.427 -43.3625 0)
(200.604 -43.3289 0)
(200.774 -43.2784 0)
(200.942 -43.2174 0)
(201.11 -43.1469 0)
(201.276 -43.071 0)
(201.44 -42.9886 0)
(201.6 -42.903 0)
(201.761 -42.814 0)
(201.927 -42.7246 0)
(202.104 -42.6383 0)
(202.295 -42.5579 0)
(202.496 -42.4815 0)
(202.706 -42.4048 0)
(202.92 -42.316 0)
(203.137 -42.2036 0)
(203.351 -42.0611 0)
(203.549 -41.8932 0)
(203.72 -41.7069 0)
(203.857 -41.5048 0)
(203.957 -41.2862 0)
(204.025 -41.0506 0)
(204.062 -40.7903 0)
(204.061 -40.4986 0)
(204.01 -40.1978 0)
(203.901 -39.8926 0)
(203.747 -39.5466 0)
(203.56 -39.1441 0)
(203.333 -38.727 0)
(203.056 -38.3247 0)
(202.735 -37.8903 0)
(202.375 -37.3568 0)
(201.966 -36.7275 0)
(201.5 -36.0145 0)
(200.98 -35.2181 0)
(200.424 -34.3647 0)
(199.858 -33.5025 0)
(199.307 -32.6554 0)
(198.799 -31.8471 0)
(198.355 -31.0876 0)
(197.989 -30.3701 0)
(197.703 -29.6904 0)
(197.489 -29.0585 0)
(197.335 -28.4912 0)
(197.25 -27.9857 0)
(197.257 -27.5136 0)
(197.255 -27.0702 0)
(197.237 -26.7007 0)
(197.251 -26.4193 0)
(197.346 -26.2248 0)
(197.581 -26.1279 0)
(197.866 -26.0503 0)
(198.113 -25.9189 0)
(198.297 -25.717 0)
(198.422 -25.4579 0)
(198.518 -25.185 0)
(198.623 -24.9392 0)
(198.76 -24.7351 0)
(198.951 -24.5652 0)
(199.195 -24.4066 0)
(199.471 -24.2399 0)
(199.765 -24.0699 0)
(200.062 -23.9066 0)
(200.345 -23.747 0)
(200.612 -23.5845 0)
(200.854 -23.4134 0)
(201.063 -23.2617 0)
(201.236 -23.1556 0)
(201.365 -23.0888 0)
(201.436 -23.0458 0)
(201.441 -23.0334 0)
(201.394 -23.0489 0)
(201.262 -23.1501 0)
(201.157 -23.3432 0)
(201.036 -23.7177 0)
(200.824 -24.3352 0)
(200.496 -25.1907 0)
(200.251 -26.33 0)
(199.906 -27.8912 0)
(199.008 -30.3169 0)
(198.448 -34.1866 0)
(200.827 -40.3598 0)
(206.952 -25.5543 0)
(206.866 -24.4898 0)
(206.492 -24.2823 0)
(204.959 -26.0318 0)
(202.383 -30.3878 0)
(199.464 -35.9932 0)
(197.271 -41.262 0)
(195.858 -45.2211 0)
(195.095 -47.7662 0)
(194.779 -49.1674 0)
(194.685 -49.7927 0)
(194.63 -49.9555 0)
(195.028 -49.6508 0)
(196.044 -48.6018 0)
(197.076 -47.3304 0)
(197.713 -46.2401 0)
(198.04 -45.4162 0)
(198.185 -44.823 0)
(198.232 -44.403 0)
(198.249 -44.1036 0)
(198.271 -43.8841 0)
(198.305 -43.7189 0)
(198.352 -43.5932 0)
(198.404 -43.4983 0)
(198.459 -43.4296 0)
(198.524 -43.3814 0)
(198.598 -43.3514 0)
(198.684 -43.3361 0)
(198.781 -43.3351 0)
(198.89 -43.3433 0)
(199.007 -43.3546 0)
(199.129 -43.3606 0)
(199.254 -43.3601 0)
(199.384 -43.3521 0)
(199.524 -43.3436 0)
(199.678 -43.3403 0)
(199.852 -43.3459 0)
(200.041 -43.3536 0)
(200.234 -43.3546 0)
(200.422 -43.3386 0)
(200.601 -43.3055 0)
(200.773 -43.2554 0)
(200.941 -43.1952 0)
(201.107 -43.1261 0)
(201.274 -43.0516 0)
(201.439 -42.9707 0)
(201.603 -42.8869 0)
(201.766 -42.7992 0)
(201.934 -42.7109 0)
(202.114 -42.6254 0)
(202.308 -42.5442 0)
(202.514 -42.4654 0)
(202.729 -42.3869 0)
(202.949 -42.2999 0)
(203.172 -42.1927 0)
(203.393 -42.0547 0)
(203.603 -41.8867 0)
(203.79 -41.6976 0)
(203.945 -41.4958 0)
(204.067 -41.2839 0)
(204.159 -41.0609 0)
(204.224 -40.8181 0)
(204.255 -40.5416 0)
(204.243 -40.2415 0)
(204.173 -39.9378 0)
(204.052 -39.6163 0)
(203.895 -39.2442 0)
(203.704 -38.8275 0)
(203.467 -38.4011 0)
(203.182 -37.9561 0)
(202.856 -37.4348 0)
(202.481 -36.8296 0)
(202.047 -36.129 0)
(201.551 -35.3386 0)
(201.007 -34.4939 0)
(200.444 -33.6252 0)
(199.888 -32.776 0)
(199.373 -31.9624 0)
(198.92 -31.1969 0)
(198.546 -30.4735 0)
(198.252 -29.7878 0)
(198.029 -29.1493 0)
(197.868 -28.5737 0)
(197.775 -28.0584 0)
(197.77 -27.58 0)
(197.753 -27.135 0)
(197.721 -26.7621 0)
(197.722 -26.4751 0)
(197.79 -26.2686 0)
(197.993 -26.1575 0)
(198.264 -26.0788 0)
(198.507 -25.9524 0)
(198.688 -25.755 0)
(198.809 -25.4981 0)
(198.9 -25.2248 0)
(199.002 -24.9765 0)
(199.138 -24.7681 0)
(199.329 -24.5919 0)
(199.577 -24.4276 0)
(199.859 -24.2583 0)
(200.159 -24.0889 0)
(200.46 -23.9288 0)
(200.748 -23.7729 0)
(201.019 -23.6124 0)
(201.262 -23.4425 0)
(201.468 -23.2929 0)
(201.631 -23.1889 0)
(201.744 -23.1256 0)
(201.803 -23.0884 0)
(201.803 -23.0808 0)
(201.748 -23.1024 0)
(201.636 -23.209 0)
(201.566 -23.4083 0)
(201.42 -23.7835 0)
(201.157 -24.4035 0)
(200.858 -25.2606 0)
(200.693 -26.4064 0)
(200.353 -27.9855 0)
(199.474 -30.4286 0)
(199.133 -34.2647 0)
(201.744 -40.3176 0)
(206.681 -25.4961 0)
(206.57 -24.4278 0)
(206.126 -24.2406 0)
(204.505 -26.0924 0)
(201.893 -30.4823 0)
(199.002 -36.0621 0)
(196.85 -41.2772 0)
(195.485 -45.1925 0)
(194.773 -47.7115 0)
(194.505 -49.1016 0)
(194.453 -49.7272 0)
(194.457 -49.9039 0)
(194.973 -49.5468 0)
(196.025 -48.4847 0)
(197.042 -47.239 0)
(197.67 -46.1766 0)
(197.998 -45.3714 0)
(198.15 -44.7884 0)
(198.205 -44.3732 0)
(198.231 -44.0754 0)
(198.26 -43.8563 0)
(198.298 -43.6913 0)
(198.347 -43.5662 0)
(198.4 -43.4722 0)
(198.457 -43.4043 0)
(198.523 -43.3567 0)
(198.599 -43.327 0)
(198.685 -43.3117 0)
(198.783 -43.3106 0)
(198.891 -43.3188 0)
(199.008 -43.3306 0)
(199.13 -43.3374 0)
(199.255 -43.3377 0)
(199.386 -43.3304 0)
(199.526 -43.3221 0)
(199.68 -43.3176 0)
(199.852 -43.3213 0)
(200.04 -43.3278 0)
(200.232 -43.3285 0)
(200.42 -43.3128 0)
(200.598 -43.2805 0)
(200.768 -43.2317 0)
(200.935 -43.1723 0)
(201.102 -43.1042 0)
(201.271 -43.0309 0)
(201.439 -42.9516 0)
(201.605 -42.8688 0)
(201.77 -42.7824 0)
(201.941 -42.6955 0)
(202.122 -42.6114 0)
(202.319 -42.5303 0)
(202.529 -42.4492 0)
(202.748 -42.3674 0)
(202.973 -42.28 0)
(203.202 -42.1774 0)
(203.429 -42.0464 0)
(203.649 -41.8825 0)
(203.85 -41.6928 0)
(204.023 -41.4887 0)
(204.167 -41.2771 0)
(204.283 -41.0601 0)
(204.373 -40.8336 0)
(204.434 -40.58 0)
(204.458 -40.2874 0)
(204.43 -39.9778 0)
(204.349 -39.6674 0)
(204.225 -39.3242 0)
(204.069 -38.9137 0)
(203.876 -38.4589 0)
(203.636 -37.9897 0)
(203.351 -37.4832 0)
(203.016 -36.9108 0)
(202.62 -36.236 0)
(202.154 -35.4633 0)
(201.627 -34.6311 0)
(201.069 -33.7593 0)
(200.508 -32.9064 0)
(199.982 -32.0884 0)
(199.518 -31.3127 0)
(199.131 -30.5775 0)
(198.824 -29.8816 0)
(198.589 -29.2348 0)
(198.416 -28.6521 0)
(198.31 -28.1302 0)
(198.289 -27.6482 0)
(198.257 -27.2033 0)
(198.211 -26.8274 0)
(198.199 -26.5343 0)
(198.243 -26.3163 0)
(198.41 -26.1884 0)
(198.665 -26.1055 0)
(198.903 -25.9834 0)
(199.082 -25.791 0)
(199.2 -25.5374 0)
(199.287 -25.2638 0)
(199.387 -25.0125 0)
(199.527 -24.8003 0)
(199.723 -24.6204 0)
(199.975 -24.4549 0)
(200.263 -24.2858 0)
(200.567 -24.116 0)
(200.871 -23.9555 0)
(201.161 -23.8006 0)
(201.432 -23.642 0)
(201.675 -23.4758 0)
(201.876 -23.3304 0)
(202.027 -23.2289 0)
(202.123 -23.1684 0)
(202.17 -23.1361 0)
(202.165 -23.1317 0)
(202.106 -23.1558 0)
(202.021 -23.2635 0)
(201.981 -23.4658 0)
(201.801 -23.8458 0)
(201.508 -24.4651 0)
(201.252 -25.3147 0)
(201.144 -26.4636 0)
(200.784 -28.0729 0)
(199.955 -30.5381 0)
(199.871 -34.3384 0)
(202.638 -40.2582 0)
(206.395 -25.4369 0)
(206.258 -24.3648 0)
(205.737 -24.2042 0)
(204.027 -26.1588 0)
(201.379 -30.5769 0)
(198.519 -36.1271 0)
(196.411 -41.2865 0)
(195.097 -45.1572 0)
(194.44 -47.6492 0)
(194.22 -49.0289 0)
(194.21 -49.6567 0)
(194.296 -49.8392 0)
(194.924 -49.4314 0)
(196.001 -48.3611 0)
(197.002 -47.1431 0)
(197.624 -46.1092 0)
(197.954 -45.3233 0)
(198.113 -44.7508 0)
(198.178 -44.3407 0)
(198.213 -44.0447 0)
(198.249 -43.8261 0)
(198.292 -43.6613 0)
(198.343 -43.5367 0)
(198.397 -43.4435 0)
(198.457 -43.3765 0)
(198.524 -43.3294 0)
(198.602 -43.3001 0)
(198.689 -43.285 0)
(198.787 -43.2839 0)
(198.896 -43.2922 0)
(199.013 -43.3046 0)
(199.135 -43.3123 0)
(199.261 -43.3137 0)
(199.392 -43.3074 0)
(199.531 -43.2993 0)
(199.683 -43.2936 0)
(199.853 -43.2955 0)
(200.038 -43.3009 0)
(200.228 -43.3014 0)
(200.416 -43.2862 0)
(200.595 -43.2543 0)
(200.767 -43.2059 0)
(200.934 -43.1472 0)
(201.1 -43.0803 0)
(201.268 -43.0088 0)
(201.436 -42.9306 0)
(201.606 -42.849 0)
(201.775 -42.7638 0)
(201.947 -42.6782 0)
(202.13 -42.5957 0)
(202.328 -42.5154 0)
(202.541 -42.4327 0)
(202.764 -42.3476 0)
(202.994 -42.258 0)
(203.227 -42.1579 0)
(203.46 -42.0342 0)
(203.688 -41.8783 0)
(203.9 -41.6925 0)
(204.09 -41.487 0)
(204.255 -41.2716 0)
(204.394 -41.0531 0)
(204.509 -40.8357 0)
(204.597 -40.6039 0)
(204.654 -40.3268 0)
(204.668 -40.011 0)
(204.632 -39.6931 0)
(204.546 -39.3638 0)
(204.426 -38.9717 0)
(204.276 -38.5153 0)
(204.085 -38.0393 0)
(203.849 -37.5503 0)
(203.562 -37.0023 0)
(203.212 -36.3517 0)
(202.784 -35.5944 0)
(202.282 -34.7679 0)
(201.732 -33.9008 0)
(201.169 -33.0421 0)
(200.632 -32.2193 0)
(200.151 -31.4373 0)
(199.746 -30.6946 0)
(199.421 -29.9906 0)
(199.168 -29.3352 0)
(198.979 -28.7423 0)
(198.856 -28.2089 0)
(198.818 -27.7194 0)
(198.77 -27.2728 0)
(198.708 -26.893 0)
(198.683 -26.5942 0)
(198.705 -26.3671 0)
(198.836 -26.2229 0)
(199.071 -26.1344 0)
(199.304 -26.0168 0)
(199.482 -25.8296 0)
(199.599 -25.5791 0)
(199.683 -25.3052 0)
(199.784 -25.0512 0)
(199.932 -24.8348 0)
(200.137 -24.649 0)
(200.398 -24.4775 0)
(200.692 -24.3054 0)
(200.998 -24.1361 0)
(201.301 -23.9785 0)
(201.59 -23.827 0)
(201.859 -23.6701 0)
(202.098 -23.5057 0)
(202.291 -23.3634 0)
(202.428 -23.265 0)
(202.507 -23.2082 0)
(202.542 -23.1813 0)
(202.533 -23.1813 0)
(202.474 -23.2107 0)
(202.422 -23.323 0)
(202.401 -23.5331 0)
(202.18 -23.9193 0)
(201.879 -24.5401 0)
(201.673 -25.3877 0)
(201.597 -26.544 0)
(201.202 -28.1734 0)
(200.468 -30.6458 0)
(200.647 -34.4041 0)
(203.518 -40.1826 0)
(206.095 -25.3762 0)
(205.93 -24.301 0)
(205.324 -24.1755 0)
(203.525 -26.2369 0)
(200.843 -30.6806 0)
(198.014 -36.1963 0)
(195.954 -41.2946 0)
(194.696 -45.1169 0)
(194.096 -47.5801 0)
(193.928 -48.9492 0)
(193.963 -49.5803 0)
(194.145 -49.761 0)
(194.874 -49.3044 0)
(195.97 -48.2312 0)
(196.957 -47.0424 0)
(197.574 -46.0379 0)
(197.909 -45.2717 0)
(198.075 -44.7102 0)
(198.15 -44.3054 0)
(198.194 -44.0114 0)
(198.237 -43.7936 0)
(198.285 -43.6294 0)
(198.337 -43.5057 0)
(198.393 -43.4135 0)
(198.454 -43.3474 0)
(198.523 -43.301 0)
(198.602 -43.2722 0)
(198.69 -43.2571 0)
(198.788 -43.256 0)
(198.897 -43.2643 0)
(199.013 -43.2771 0)
(199.136 -43.2856 0)
(199.262 -43.288 0)
(199.394 -43.2828 0)
(199.533 -43.2751 0)
(199.685 -43.2683 0)
(199.852 -43.2684 0)
(200.036 -43.2726 0)
(200.226 -43.2726 0)
(200.413 -43.2576 0)
(200.591 -43.2265 0)
(200.76 -43.1792 0)
(200.926 -43.1218 0)
(201.093 -43.0557 0)
(201.262 -42.9854 0)
(201.434 -42.9083 0)
(201.606 -42.8276 0)
(201.777 -42.743 0)
(201.953 -42.6588 0)
(202.137 -42.5773 0)
(202.336 -42.4981 0)
(202.55 -42.4151 0)
(202.776 -42.3278 0)
(203.01 -42.2351 0)
(203.248 -42.1348 0)
(203.487 -42.0165 0)
(203.72 -41.8698 0)
(203.943 -41.6921 0)
(204.147 -41.4897 0)
(204.33 -41.2714 0)
(204.491 -41.0467 0)
(204.631 -40.8276 0)
(204.745 -40.6075 0)
(204.831 -40.3505 0)
(204.884 -40.0387 0)
(204.894 -39.7029 0)
(204.853 -39.366 0)
(204.772 -39.0006 0)
(204.662 -38.5822 0)
(204.52 -38.1313 0)
(204.338 -37.6568 0)
(204.109 -37.1131 0)
(203.814 -36.4734 0)
(203.434 -35.7279 0)
(202.965 -34.9037 0)
(202.429 -34.0487 0)
(201.866 -33.1915 0)
(201.319 -32.362 0)
(200.821 -31.5691 0)
(200.396 -30.8132 0)
(200.048 -30.0968 0)
(199.772 -29.4308 0)
(199.562 -28.8291 0)
(199.418 -28.2882 0)
(199.357 -27.7936 0)
(199.293 -27.3469 0)
(199.215 -26.9638 0)
(199.174 -26.6584 0)
(199.178 -26.4221 0)
(199.272 -26.2604 0)
(199.486 -26.162 0)
(199.714 -26.0476 0)
(199.894 -25.8666 0)
(200.011 -25.6207 0)
(200.096 -25.347 0)
(200.202 -25.0894 0)
(200.363 -24.869 0)
(200.581 -24.6801 0)
(200.852 -24.5082 0)
(201.151 -24.337 0)
(201.455 -24.1674 0)
(201.755 -24.0089 0)
(202.04 -23.8575 0)
(202.304 -23.7016 0)
(202.536 -23.5411 0)
(202.718 -23.4038 0)
(202.838 -23.309 0)
(202.899 -23.2555 0)
(202.925 -23.2338 0)
(202.916 -23.2355 0)
(202.862 -23.2653 0)
(202.849 -23.3795 0)
(202.826 -23.5945 0)
(202.567 -23.9925 0)
(202.28 -24.6093 0)
(202.128 -25.4449 0)
(202.06 -26.6036 0)
(201.623 -28.265 0)
(201.027 -30.7453 0)
(201.445 -34.4605 0)
(204.395 -40.1002 0)
(205.779 -25.315 0)
(205.584 -24.2367 0)
(204.884 -24.1545 0)
(202.997 -26.3217 0)
(200.283 -30.7842 0)
(197.488 -36.261 0)
(195.478 -41.2959 0)
(194.282 -45.0684 0)
(193.742 -47.502 0)
(193.629 -48.8608 0)
(193.715 -49.4958 0)
(194.002 -49.6681 0)
(194.823 -49.1657 0)
(195.934 -48.0945 0)
(196.909 -46.9366 0)
(197.522 -45.962 0)
(197.862 -45.2161 0)
(198.037 -44.6661 0)
(198.122 -44.2669 0)
(198.175 -43.9752 0)
(198.225 -43.7583 0)
(198.277 -43.5947 0)
(198.332 -43.4718 0)
(198.391 -43.3805 0)
(198.454 -43.3153 0)
(198.525 -43.2696 0)
(198.605 -43.2413 0)
(198.695 -43.2265 0)
(198.794 -43.2255 0)
(198.902 -43.2337 0)
(199.019 -43.2471 0)
(199.141 -43.2566 0)
(199.268 -43.2604 0)
(199.4 -43.2566 0)
(199.539 -43.2493 0)
(199.689 -43.2414 0)
(199.855 -43.2398 0)
(200.036 -43.2428 0)
(200.223 -43.2424 0)
(200.408 -43.2277 0)
(200.587 -43.1972 0)
(200.758 -43.1501 0)
(200.924 -43.0935 0)
(201.09 -43.0287 0)
(201.259 -42.9603 0)
(201.43 -42.8849 0)
(201.604 -42.8051 0)
(201.779 -42.7211 0)
(201.958 -42.637 0)
(202.144 -42.5558 0)
(202.343 -42.4772 0)
(202.556 -42.3953 0)
(202.784 -42.3077 0)
(203.022 -42.2126 0)
(203.265 -42.1095 0)
(203.508 -41.9926 0)
(203.747 -41.8529 0)
(203.978 -41.6846 0)
(204.194 -41.4896 0)
(204.392 -41.2744 0)
(204.573 -41.0458 0)
(204.737 -40.8166 0)
(204.876 -40.5934 0)
(204.991 -40.3542 0)
(205.077 -40.0633 0)
(205.13 -39.722 0)
(205.137 -39.3681 0)
(205.1 -39.0216 0)
(205.032 -38.6539 0)
(204.938 -38.2389 0)
(204.815 -37.7704 0)
(204.649 -37.2198 0)
(204.416 -36.5832 0)
(204.091 -35.8568 0)
(203.665 -35.0465 0)
(203.154 -34.1994 0)
(202.598 -33.3444 0)
(202.043 -32.5095 0)
(201.528 -31.7109 0)
(201.079 -30.9478 0)
(200.704 -30.2219 0)
(200.401 -29.5451 0)
(200.166 -28.9309 0)
(199.999 -28.377 0)
(199.911 -27.8722 0)
(199.831 -27.4228 0)
(199.735 -27.0358 0)
(199.678 -26.7239 0)
(199.664 -26.4803 0)
(199.725 -26.3038 0)
(199.912 -26.1937 0)
(200.136 -26.082 0)
(200.32 -25.9072 0)
(200.443 -25.6655 0)
(200.534 -25.3924 0)
(200.649 -25.1317 0)
(200.827 -24.9068 0)
(201.062 -24.7125 0)
(201.343 -24.5349 0)
(201.646 -24.361 0)
(201.947 -24.1923 0)
(202.239 -24.0363 0)
(202.517 -23.8878 0)
(202.772 -23.7332 0)
(202.994 -23.5754 0)
(203.16 -23.4422 0)
(203.262 -23.3515 0)
(203.308 -23.3015 0)
(203.329 -23.2841 0)
(203.321 -23.2904 0)
(203.279 -23.3245 0)
(203.303 -23.4422 0)
(203.257 -23.6691 0)
(202.97 -24.0754 0)
(202.714 -24.6881 0)
(202.613 -25.5238 0)
(202.525 -26.6963 0)
(202.055 -28.3727 0)
(201.636 -30.8449 0)
(202.251 -34.5054 0)
(205.274 -39.9968 0)
(205.447 -25.2532 0)
(205.22 -24.1726 0)
(204.419 -24.1446 0)
(202.444 -26.4196 0)
(199.7 -30.8976 0)
(196.942 -36.3299 0)
(194.986 -41.2952 0)
(193.855 -45.0137 0)
(193.379 -47.4157 0)