/*--------------------------------*- C++ -*----------------------------------*\
| =========                 |                                                 |
| \\      /  F ield         | OpenFOAM: The Open Source CFD Toolbox           |
|  \\    /   O peration     | Version:  2412                                  |
|   \\  /    A nd           | Website:  www.openfoam.com                      |
|    \\/     M anipulation  |                                                 |
\*---------------------------------------------------------------------------*/
FoamFile
{
    version     2.0;
    format      ascii;
    arch        "LSB;label=32;scalar=64";
    class       volScalarField;
    location    "0.11";
    object      rho;
}
// * * * * * * * * * * * * * * * * * * * * * * * * * * * * * * * * * * * * * //

dimensions      [1 -3 0 0 0 0 0];

internalField   nonuniform List<scalar> 
9831
(
0.0208246
0.0388679
0.0207863
0.0388663
0.0413462
0.0410412
0.0409893
0.0410222
0.0411173
0.0412327
0.0413595
0.0414747
0.0415686
0.0416379
0.0416879
0.0417258
0.0417608
0.0417995
0.0418454
0.0418979
0.0419548
0.0420143
0.0420755
0.0421374
0.0421991
0.0422599
0.0423195
0.0423783
0.0424365
0.0424941
0.0425508
0.0426063
0.0426605
0.0427133
0.0427651
0.0428161
0.0428661
0.0429152
0.0429632
0.0430102
0.0430561
0.0431011
0.0431451
0.0431878
0.0432292
0.0432691
0.0433073
0.0433438
0.0433784
0.0434111
0.0434418
0.0434702
0.0207538
0.0388649
0.0413577
0.0410398
0.0409834
0.0410162
0.0411116
0.0412275
0.0413547
0.0414702
0.0415644
0.0416341
0.0416845
0.041723
0.0417586
0.0417978
0.0418442
0.041897
0.0419541
0.0420138
0.0420751
0.0421371
0.0421989
0.0422596
0.0423193
0.0423781
0.0424363
0.0424939
0.0425506
0.042606
0.0426602
0.042713
0.0427648
0.0428158
0.0428659
0.0429149
0.0429629
0.0430099
0.0430558
0.0431008
0.0431448
0.0431875
0.0432289
0.0432688
0.043307
0.0433434
0.0433781
0.0434108
0.0434415
0.0434699
0.0434961
0.0435197
0.020723
0.0388651
0.0413661
0.041039
0.0409777
0.0410103
0.0411061
0.0412224
0.04135
0.0414658
0.0415603
0.0416303
0.0416812
0.0417202
0.0417564
0.0417962
0.041843
0.0418961
0.0419535
0.0420133
0.0420748
0.0421369
0.0421986
0.0422594
0.0423191
0.0423779
0.0424361
0.0424937
0.0425503
0.0426058
0.0426599
0.0427127
0.0427646
0.0428155
0.0428656
0.0429147
0.0429626
0.0430096
0.0430555
0.0431005
0.0431445
0.0431872
0.0432286
0.0432684
0.0433066
0.0433431
0.0433778
0.0434105
0.0434412
0.0434697
0.0434959
0.0435196
0.0435407
0.0435591
0.0206969
0.0388678
0.0413733
0.0410385
0.0409723
0.0410046
0.0411007
0.0412173
0.0413454
0.0414615
0.0415563
0.0416266
0.041678
0.0417175
0.0417542
0.0417945
0.0418418
0.0418953
0.0419528
0.0420129
0.0420745
0.0421366
0.0421984
0.0422592
0.0423189
0.0423777
0.0424359
0.0424935
0.0425501
0.0426055
0.0426596
0.0427124
0.0427643
0.0428152
0.0428653
0.0429144
0.0429623
0.0430092
0.0430552
0.0431002
0.0431442
0.0431869
0.0432283
0.0432681
0.0433063
0.0433428
0.0433775
0.0434103
0.043441
0.0434696
0.0434958
0.0435196
0.0435408
0.0435593
0.0435749
0.0435877
0.0435975
0.0436044
0.043608
0.0436084
0.0436053
0.0435993
0.0435903
0.0435784
0.0435635
0.0435458
0.0435254
0.0435024
0.043477
0.0434494
0.0434197
0.0433882
0.0433548
0.04332
0.0432838
0.0432465
0.0432081
0.043169
0.0431291
0.0430888
0.0430481
0.0430073
0.0429663
0.0429256
0.0428848
0.0428445
0.0428045
0.042765
0.0427259
0.0426876
0.0426499
0.0426129
0.0425767
0.0425413
0.0425068
0.0424731
0.0424403
0.0424085
0.0423775
0.0423475
0.0423183
0.0422901
0.0422629
0.0422365
0.0422111
0.0421866
0.042163
0.0421403
0.0421184
0.0420973
0.042077
0.0420572
0.0420382
0.0420197
0.042002
0.0419848
0.0419682
0.0419541
0.0419378
0.0206737
0.0388731
0.0413806
0.0410381
0.0409671
0.0409991
0.0410954
0.0412124
0.0413409
0.0414573
0.0415523
0.041623
0.0416748
0.0417148
0.0417521
0.041793
0.0418406
0.0418944
0.0419522
0.0420124
0.0420741
0.0421364
0.0421982
0.042259
0.0423187
0.0423776
0.0424358
0.0424933
0.0425499
0.0426053
0.0426593
0.0427121
0.042764
0.042815
0.042865
0.0429141
0.042962
0.0430089
0.0430549
0.0430999
0.0431439
0.0431866
0.043228
0.0432678
0.043306
0.0433425
0.0433772
0.0434101
0.0434408
0.0434695
0.0434958
0.0435196
0.0435409
0.0435596
0.0435754
0.0435883
0.0435983
0.0436054
0.0436093
0.04361
0.0436073
0.0436018
0.0435932
0.0435818
0.0435675
0.0435504
0.0435307
0.0435085
0.0434839
0.0434572
0.0434284
0.0433978
0.0433655
0.0433318
0.0432967
0.0432605
0.0432233
0.0431854
0.0431469
0.0431079
0.0430685
0.043029
0.0429894
0.04295
0.0429106
0.0428716
0.042833
0.0427948
0.0427571
0.0427201
0.0426837
0.0426481
0.0426132
0.0425791
0.0425458
0.0425134
0.0424818
0.0424512
0.0424214
0.0423925
0.0423645
0.0423373
0.0423111
0.0422858
0.0422614
0.0422379
0.0422152
0.0421934
0.0421724
0.0421522
0.0421326
0.0421137
0.0420954
0.0420777
0.0420607
0.0420444
0.0420285
0.0420154
0.0419993
0.0419884
0.0419595
0.0206536
0.0388806
0.0413855
0.0410378
0.040962
0.0409938
0.0410902
0.0412076
0.0413364
0.0414531
0.0415483
0.0416194
0.0416716
0.0417122
0.04175
0.0417914
0.0418395
0.0418936
0.0419516
0.042012
0.0420738
0.0421362
0.042198
0.0422589
0.0423186
0.0423774
0.0424356
0.0424931
0.0425497
0.042605
0.042659
0.0427119
0.0427637
0.0428147
0.0428648
0.0429138
0.0429617
0.0430086
0.0430546
0.0430996
0.0431436
0.0431863
0.0432277
0.0432675
0.0433057
0.0433423
0.043377
0.0434099
0.0434407
0.0434694
0.0434958
0.0435198
0.0435412
0.04356
0.043576
0.0435891
0.0435994
0.0436067
0.0436109
0.043612
0.0436097
0.0436046
0.0435966
0.0435857
0.0435721
0.0435557
0.0435367
0.0435153
0.0434917
0.0434659
0.0434381
0.0434085
0.0433773
0.0433447
0.0433109
0.0432759
0.04324
0.0432034
0.0431661
0.0431285
0.0430905
0.0430524
0.0430142
0.0429761
0.0429382
0.0429006
0.0428633
0.0428266
0.0427903
0.0427547
0.0427196
0.0426853
0.0426517
0.0426189
0.0425869
0.0425558
0.0425254
0.0424959
0.0424673
0.0424395
0.0424126
0.0423866
0.0423614
0.0423371
0.0423137
0.0422911
0.0422694
0.0422485
0.0422284
0.042209
0.0421902
0.0421721
0.0421545
0.0421376
0.0421214
0.0421061
0.0420912
0.0420793
0.0420631
0.0420516
0.0420228
0.0206371
0.0388907
0.0413902
0.0410376
0.0409571
0.0409886
0.0410852
0.0412029
0.0413321
0.041449
0.0415445
0.0416158
0.0416685
0.0417096
0.0417479
0.0417898
0.0418384
0.0418928
0.041951
0.0420116
0.0420735
0.0421359
0.0421979
0.0422587
0.0423184
0.0423772
0.0424354
0.0424929
0.0425494
0.0426048
0.0426588
0.0427116
0.0427634
0.0428144
0.0428645
0.0429135
0.0429614
0.0430083
0.0430542
0.0430993
0.0431433
0.043186
0.0432274
0.0432672
0.0433054
0.043342
0.0433768
0.0434097
0.0434406
0.0434694
0.0434959
0.04352
0.0435416
0.0435605
0.0435767
0.0435901
0.0436006
0.0436082
0.0436128
0.0436142
0.0436124
0.0436079
0.0436004
0.0435902
0.0435772
0.0435615
0.0435434
0.0435229
0.0435001
0.0434753
0.0434486
0.0434201
0.0433901
0.0433587
0.0433261
0.0432924
0.0432578
0.0432226
0.0431867
0.0431504
0.0431139
0.0430772
0.0430404
0.0430038
0.0429673
0.0429312
0.0428954
0.04286
0.0428252
0.042791
0.0427573
0.0427244
0.0426921
0.0426607
0.0426299
0.0426
0.0425709
0.0425427
0.0425152
0.0424886
0.0424628
0.0424379
0.0424138
0.0423905
0.0423681
0.0423465
0.0423257
0.0423057
0.0422865
0.0422679
0.0422499
0.0422326
0.0422158
0.0421996
0.0421842
0.0421701
0.0421559
0.0421442
0.0421283
0.0421171
0.0420888
0.0206192
0.0389036
0.0413977
0.0410371
0.0409523
0.0409836
0.0410802
0.0411983
0.0413278
0.0414449
0.0415406
0.0416123
0.0416654
0.041707
0.0417459
0.0417883
0.0418373
0.0418919
0.0419504
0.0420112
0.0420732
0.0421357
0.0421977
0.0422585
0.0423182
0.042377
0.0424352
0.0424927
0.0425492
0.0426045
0.0426585
0.0427113
0.0427631
0.0428141
0.0428642
0.0429132
0.042961
0.0430079
0.0430539
0.0430989
0.0431429
0.0431857
0.0432271
0.0432669
0.0433052
0.0433417
0.0433766
0.0434096
0.0434406
0.0434694
0.0434961
0.0435203
0.043542
0.0435612
0.0435776
0.0435912
0.043602
0.0436099
0.0436149
0.0436168
0.0436156
0.0436115
0.0436047
0.0435951
0.0435829
0.0435681
0.0435508
0.0435312
0.0435094
0.0434857
0.0434601
0.0434328
0.043404
0.0433738
0.0433425
0.0433102
0.043277
0.0432432
0.0432087
0.0431739
0.0431388
0.0431036
0.0430684
0.0430332
0.0429982
0.0429636
0.0429292
0.0428954
0.0428619
0.0428291
0.0427969
0.0427653
0.0427345
0.0427043
0.0426749
0.0426463
0.0426184
0.0425914
0.0425651
0.0425396
0.042515
0.0424911
0.042468
0.0424458
0.0424243
0.0424037
0.0423838
0.0423647
0.0423463
0.0423286
0.0423114
0.0422947
0.0422787
0.0422632
0.0422486
0.0422356
0.0422218
0.04221
0.0421946
0.0421842
0.0421564
0.0206037
0.038919
0.0414029
0.0410368
0.0409474
0.0409786
0.0410754
0.0411938
0.0413237
0.041441
0.0415368
0.0416088
0.0416623
0.0417044
0.0417439
0.0417868
0.0418362
0.0418912
0.0419498
0.0420108
0.042073
0.0421355
0.0421975
0.0422583
0.042318
0.0423769
0.042435
0.0424925
0.042549
0.0426043
0.0426582
0.042711
0.0427629
0.0428139
0.0428639
0.0429128
0.0429607
0.0430076
0.0430536
0.0430986
0.0431426
0.0431854
0.0432267
0.0432666
0.0433049
0.0433415
0.0433764
0.0434095
0.0434406
0.0434695
0.0434963
0.0435207
0.0435426
0.043562
0.0435786
0.0435925
0.0436036
0.0436119
0.0436173
0.0436196
0.043619
0.0436155
0.0436093
0.0436005
0.0435891
0.0435751
0.0435587
0.0435402
0.0435195
0.0434968
0.0434724
0.0434463
0.0434188
0.04339
0.04336
0.0433291
0.0432973
0.0432649
0.043232
0.0431987
0.0431651
0.0431314
0.0430977
0.0430641
0.0430306
0.0429975
0.0429646
0.0429323
0.0429003
0.042869
0.0428382
0.042808
0.0427785
0.0427497
0.0427217
0.0426943
0.0426677
0.0426419
0.0426168
0.0425925
0.042569
0.0425462
0.0425242
0.042503
0.0424825
0.0424628
0.0424439
0.0424257
0.0424081
0.0423911
0.0423747
0.0423588
0.0423435
0.0423289
0.0423151
0.0423028
0.0422894
0.0422777
0.042263
0.0422535
0.0422264
0.0205974
0.0389378
0.0414082
0.0410369
0.0409427
0.0409738
0.0410707
0.0411894
0.0413196
0.041437
0.0415331
0.0416054
0.0416593
0.0417019
0.0417419
0.0417853
0.0418351
0.0418904
0.0419493
0.0420104
0.0420727
0.0421353
0.0421973
0.0422582
0.0423179
0.0423767
0.0424349
0.0424923
0.0425488
0.042604
0.0426579
0.0427107
0.0427626
0.0428136
0.0428636
0.0429125
0.0429604
0.0430072
0.0430532
0.0430983
0.0431423
0.0431851
0.0432264
0.0432663
0.0433046
0.0433413
0.0433763
0.0434094
0.0434406
0.0434697
0.0434966
0.0435211
0.0435433
0.0435628
0.0435798
0.043594
0.0436054
0.043614
0.0436199
0.0436229
0.0436229
0.0436199
0.0436145
0.0436064
0.0435958
0.0435828
0.0435674
0.0435499
0.0435303
0.0435088
0.0434856
0.0434609
0.0434347
0.0434072
0.0433787
0.0433492
0.043319
0.0432881
0.0432567
0.0432249
0.0431929
0.0431608
0.0431286
0.0430966
0.0430647
0.0430331
0.0430018
0.0429709
0.0429405
0.0429106
0.0428813
0.0428525
0.0428244
0.042797
0.0427702
0.0427442
0.0427189
0.0426942
0.0426704
0.0426472
0.0426248
0.0426031
0.0425821
0.0425619
0.0425424
0.0425237
0.0425057
0.0424883
0.0424716
0.0424554
0.0424397
0.0424246
0.0424101
0.0423962
0.0423831
0.0423716
0.0423585
0.042347
0.042333
0.0423244
0.0422981
0.0205901
0.0389613
0.0414164
0.041037
0.040938
0.0409691
0.0410661
0.0411851
0.0413156
0.0414332
0.0415295
0.041602
0.0416563
0.0416994
0.04174
0.0417839
0.041834
0.0418896
0.0419487
0.04201
0.0420724
0.0421351
0.0421971
0.042258
0.0423177
0.0423766
0.0424347
0.0424922
0.0425486
0.0426038
0.0426577
0.0427104
0.0427623
0.0428133
0.0428633
0.0429122
0.04296
0.0430069
0.0430529
0.0430979
0.0431419
0.0431847
0.0432261
0.043266
0.0433043
0.0433411
0.0433761
0.0434093
0.0434406
0.0434699
0.0434969
0.0435217
0.043544
0.0435638
0.043581
0.0435956
0.0436074
0.0436164
0.0436227
0.0436264
0.043627
0.0436246
0.04362
0.0436128
0.0436031
0.043591
0.0435767
0.0435602
0.0435418
0.0435216
0.0434996
0.0434762
0.0434514
0.0434254
0.0433983
0.0433704
0.0433417
0.0433123
0.0432825
0.0432524
0.043222
0.0431915
0.0431609
0.0431305
0.0431002
0.0430702
0.0430404
0.0430111
0.0429822
0.0429538
0.0429259
0.0428987
0.042872
0.0428459
0.0428205
0.0427958
0.0427717
0.0427483
0.0427256
0.0427037
0.0426824
0.0426618
0.0426419
0.0426227
0.0426042
0.0425864
0.0425692
0.0425527
0.0425368
0.0425214
0.0425065
0.0424922
0.0424784
0.0424653
0.0424529
0.042442
0.0424292
0.042418
0.0424048
0.0423971
0.0423717
0.0205758
0.0389895
0.0414249
0.0410369
0.0409333
0.0409646
0.0410616
0.041181
0.0413117
0.0414294
0.0415258
0.0415987
0.0416534
0.0416969
0.041738
0.0417824
0.041833
0.0418888
0.0419482
0.0420096
0.0420722
0.0421349
0.042197
0.0422579
0.0423176
0.0423764
0.0424346
0.042492
0.0425484
0.0426035
0.0426574
0.0427102
0.042762
0.042813
0.0428629
0.0429118
0.0429596
0.0430065
0.0430525
0.0430976
0.0431416
0.0431844
0.0432258
0.0432657
0.0433041
0.0433409
0.043376
0.0434093
0.0434407
0.0434701
0.0434973
0.0435223
0.0435448
0.0435649
0.0435825
0.0435974
0.0436096
0.043619
0.0436259
0.0436302
0.0436315
0.0436298
0.043626
0.0436197
0.0436109
0.0435999
0.0435866
0.0435714
0.0435542
0.0435352
0.0435146
0.0434926
0.0434692
0.0434447
0.0434192
0.0433928
0.0433657
0.043338
0.0433098
0.0432813
0.0432525
0.0432237
0.0431948
0.043166
0.0431373
0.0431089
0.0430807
0.043053
0.0430256
0.0429987
0.0429723
0.0429465
0.0429212
0.0428966
0.0428725
0.0428491
0.0428263
0.0428041
0.0427826
0.0427618
0.0427416
0.0427221
0.0427032
0.042685
0.0426675
0.0426506
0.0426344
0.0426188
0.0426037
0.0425891
0.0425749
0.0425613
0.0425483
0.0425359
0.0425241
0.0425138
0.0425014
0.0424906
0.0424781
0.0424713
0.0424466
0.0205777
0.0390235
0.0414335
0.0410365
0.0409288
0.0409602
0.0410573
0.0411769
0.0413079
0.0414258
0.0415223
0.0415954
0.0416505
0.0416945
0.0417361
0.041781
0.0418319
0.0418881
0.0419477
0.0420093
0.0420719
0.0421347
0.0421968
0.0422577
0.0423174
0.0423763
0.0424344
0.0424918
0.0425482
0.0426033
0.0426571
0.0427099
0.0427617
0.0428127
0.0428626
0.0429115
0.0429592
0.0430061
0.0430521
0.0430972
0.0431412
0.043184
0.0432254
0.0432654
0.0433038
0.0433407
0.0433759
0.0434093
0.0434408
0.0434704
0.0434978
0.0435229
0.0435458
0.0435661
0.043584
0.0435993
0.0436119
0.0436219
0.0436292
0.0436342
0.0436362
0.0436354
0.0436324
0.0436269
0.0436192
0.0436092
0.0435971
0.043583
0.0435671
0.0435495
0.0435303
0.0435097
0.0434879
0.0434649
0.0434409
0.0434162
0.0433907
0.0433646
0.0433381
0.0433113
0.0432842
0.0432571
0.0432298
0.0432027
0.0431757
0.0431489
0.0431224
0.0430963
0.0430705
0.0430451
0.0430202
0.0429959
0.042972
0.0429488
0.0429261
0.042904
0.0428825
0.0428616
0.0428413
0.0428216
0.0428025
0.0427841
0.0427663
0.0427491
0.0427326
0.0427166
0.0427013
0.0426865
0.0426722
0.0426584
0.042645
0.0426322
0.0426199
0.0426082
0.042597
0.0425873
0.0425752
0.0425648
0.042553
0.0425472
0.0425233
0.0206036
0.0390673
0.0414424
0.0410359
0.0409244
0.0409559
0.0410531
0.041173
0.0413042
0.0414221
0.0415188
0.0415921
0.0416476
0.0416921
0.0417342
0.0417796
0.0418309
0.0418874
0.0419472
0.0420089
0.0420717
0.0421346
0.0421967
0.0422575
0.0423173
0.0423761
0.0424343
0.0424916
0.0425479
0.042603
0.0426568
0.0427096
0.0427614
0.0428123
0.0428623
0.0429111
0.0429589
0.0430057
0.0430517
0.0430968
0.0431409
0.0431837
0.0432251
0.0432651
0.0433035
0.0433405
0.0433758
0.0434093
0.043441
0.0434707
0.0434983
0.0435237
0.0435468
0.0435675
0.0435857
0.0436013
0.0436145
0.043625
0.0436329
0.0436385
0.0436414
0.0436414
0.0436392
0.0436347
0.043628
0.0436192
0.0436083
0.0435955
0.0435809
0.0435647
0.043547
0.0435279
0.0435076
0.0434862
0.0434639
0.0434408
0.043417
0.0433926
0.0433678
0.0433427
0.0433174
0.043292
0.0432664
0.043241
0.0432157
0.0431906
0.0431657
0.0431412
0.0431169
0.0430932
0.0430698
0.0430469
0.0430245
0.0430026
0.0429813
0.0429605
0.0429403
0.0429206
0.0429015
0.042883
0.0428651
0.0428477
0.0428309
0.0428148
0.0427992
0.0427842
0.0427697
0.0427558
0.0427423
0.0427292
0.0427166
0.0427046
0.0426931
0.0426821
0.0426714
0.0426622
0.0426505
0.0426405
0.0426296
0.0426247
0.0426015
0.0206153
0.039123
0.0414516
0.0410349
0.04092
0.0409517
0.0410491
0.0411693
0.0413006
0.0414186
0.0415153
0.0415889
0.0416447
0.0416897
0.0417324
0.0417782
0.0418299
0.0418867
0.0419466
0.0420085
0.0420714
0.0421344
0.0421965
0.0422574
0.0423171
0.042376
0.0424341
0.0424914
0.0425477
0.0426028
0.0426565
0.0427093
0.0427611
0.042812
0.0428619
0.0429107
0.0429585
0.0430053
0.0430513
0.0430965
0.0431405
0.0431833
0.0432247
0.0432647
0.0433033
0.0433403
0.0433757
0.0434094
0.0434412
0.0434711
0.0434989
0.0435245
0.0435479
0.0435689
0.0435874
0.0436036
0.0436172
0.0436282
0.0436368
0.043643
0.0436468
0.0436478
0.0436463
0.0436429
0.0436373
0.0436296
0.0436199
0.0436084
0.0435952
0.0435805
0.0435642
0.0435467
0.043528
0.0435083
0.0434876
0.0434662
0.0434442
0.0434216
0.0433985
0.0433752
0.0433516
0.0433279
0.0433042
0.0432805
0.0432569
0.0432335
0.0432102
0.0431873
0.0431647
0.0431425
0.0431207
0.0430993
0.0430784
0.0430579
0.043038
0.0430185
0.0429996
0.0429812
0.0429633
0.042946
0.0429292
0.0429129
0.0428972
0.042882
0.0428674
0.0428533
0.0428398
0.0428267
0.042814
0.0428017
0.0427899
0.0427786
0.0427679
0.0427575
0.0427473
0.0427387
0.0427274
0.0427179
0.0427076
0.0427037
0.0426812
0.0206224
0.0391897
0.0414607
0.0410336
0.0409156
0.0409477
0.0410453
0.0411657
0.0412971
0.0414151
0.0415119
0.0415857
0.0416419
0.0416874
0.0417305
0.0417768
0.0418289
0.041886
0.0419461
0.0420082
0.0420712
0.0421342
0.0421964
0.0422573
0.042317
0.0423758
0.0424339
0.0424913
0.0425475
0.0426025
0.0426563
0.042709
0.0427608
0.0428117
0.0428615
0.0429103
0.042958
0.0430049
0.0430509
0.0430961
0.0431401
0.0431829
0.0432244
0.0432644
0.043303
0.0433401
0.0433756
0.0434094
0.0434414
0.0434715
0.0434995
0.0435254
0.043549
0.0435704
0.0435894
0.0436059
0.0436201
0.0436317
0.0436409
0.0436479
0.0436525
0.0436544
0.043654
0.0436516
0.0436471
0.0436407
0.0436323
0.0436222
0.0436104
0.0435971
0.0435825
0.0435665
0.0435495
0.0435315
0.0435126
0.0434929
0.0434726
0.0434518
0.0434306
0.043409
0.0433873
0.0433654
0.0433434
0.0433214
0.0432996
0.0432779
0.0432563
0.0432351
0.0432141
0.0431935
0.0431732
0.0431533
0.0431338
0.0431148
0.0430962
0.0430781
0.0430605
0.0430433
0.0430266
0.0430105
0.0429948
0.0429796
0.0429649
0.0429508
0.0429371
0.042924
0.0429113
0.042899
0.0428872
0.0428757
0.0428647
0.0428541
0.0428442
0.0428345
0.0428248
0.0428168
0.0428059
0.042797
0.0427873
0.0427839
0.0427626
0.0206705
0.0392669
0.0414702
0.0410318
0.0409113
0.0409438
0.0410416
0.0411622
0.0412937
0.0414117
0.0415086
0.0415826
0.0416392
0.0416851
0.0417287
0.0417755
0.041828
0.0418853
0.0419457
0.0420079
0.042071
0.042134
0.0421962
0.0422571
0.0423168
0.0423757
0.0424338
0.0424911
0.0425473
0.0426022
0.042656
0.0427087
0.0427605
0.0428113
0.0428612
0.0429099
0.0429576
0.0430045
0.0430505
0.0430957
0.0431397
0.0431825
0.043224
0.0432641
0.0433028
0.04334
0.0433756
0.0434095
0.0434416
0.0434719
0.0435001
0.0435263
0.0435503
0.043572
0.0435914
0.0436084
0.0436231
0.0436354
0.0436453
0.043653
0.0436584
0.0436614
0.0436621
0.0436606
0.0436573
0.0436521
0.0436451
0.0436364
0.0436261
0.0436143
0.0436013
0.043587
0.0435717
0.0435553
0.0435382
0.0435203
0.0435019
0.0434829
0.0434635
0.0434438
0.0434238
0.0434038
0.0433836
0.0433634
0.0433433
0.0433234
0.0433036
0.043284
0.0432646
0.0432456
0.0432269
0.0432086
0.0431906
0.043173
0.0431558
0.0431391
0.0431227
0.0431069
0.0430914
0.0430764
0.0430619
0.0430478
0.0430342
0.0430211
0.0430084
0.0429962
0.0429844
0.042973
0.0429619
0.0429513
0.042941
0.0429312
0.042922
0.0429129
0.0429038
0.0428963
0.0428858
0.0428775
0.0428683
0.0428654
0.0428453
0.0207157
0.0393577
0.0414792
0.0410296
0.040907
0.0409399
0.0410381
0.0411588
0.0412904
0.0414083
0.0415053
0.0415795
0.0416364
0.0416828
0.0417269
0.0417741
0.041827
0.0418846
0.0419452
0.0420075
0.0420708
0.0421339
0.0421961
0.042257
0.0423167
0.0423755
0.0424336
0.0424909
0.0425471
0.042602
0.0426557
0.0427083
0.0427601
0.042811
0.0428608
0.0429095
0.0429572
0.043004
0.0430501
0.0430952
0.0431393
0.0431821
0.0432236
0.0432638
0.0433025
0.0433398
0.0433755
0.0434096
0.0434419
0.0434724
0.0435009
0.0435273
0.0435516
0.0435737
0.0435935
0.0436111
0.0436263
0.0436393
0.0436499
0.0436585
0.0436647
0.0436687
0.0436705
0.0436702
0.0436681
0.0436642
0.0436586
0.0436513
0.0436426
0.0436324
0.043621
0.0436084
0.0435948
0.0435803
0.043565
0.0435489
0.0435323
0.0435152
0.0434977
0.0434799
0.0434618
0.0434436
0.0434252
0.0434069
0.0433886
0.0433704
0.0433523
0.0433344
0.0433167
0.0432993
0.0432821
0.0432653
0.0432488
0.0432327
0.0432169
0.0432015
0.0431865
0.0431719
0.0431576
0.0431438
0.0431304
0.0431174
0.0431049
0.0430927
0.043081
0.0430698
0.0430588
0.0430483
0.0430381
0.0430282
0.0430188
0.0430097
0.0430012
0.0429929
0.0429844
0.0429773
0.0429673
0.0429595
0.0429509
0.0429485
0.0429297
0.0207502
0.0394693
0.0414861
0.0410268
0.0409027
0.0409361
0.0410346
0.0411555
0.0412871
0.041405
0.0415021
0.0415765
0.0416337
0.0416805
0.0417251
0.0417728
0.041826
0.0418839
0.0419447
0.0420072
0.0420705
0.0421337
0.0421959
0.0422568
0.0423166
0.0423754
0.0424335
0.0424907
0.0425468
0.0426017
0.0426554
0.042708
0.0427598
0.0428106
0.0428604
0.042909
0.0429567
0.0430036
0.0430497
0.0430948
0.0431389
0.0431817
0.0432232
0.0432634
0.0433023
0.0433396
0.0433755
0.0434097
0.0434422
0.0434729
0.0435016
0.0435284
0.043553
0.0435755
0.0435958
0.0436139
0.0436297
0.0436433
0.0436547
0.0436641
0.0436712
0.0436762
0.0436792
0.0436802
0.0436792
0.0436766
0.0436724
0.0436667
0.0436595
0.043651
0.0436412
0.0436304
0.0436186
0.0436059
0.0435924
0.0435782
0.0435635
0.0435483
0.0435327
0.0435167
0.0435006
0.0434842
0.0434677
0.0434513
0.0434348
0.0434183
0.043402
0.0433858
0.0433698
0.0433541
0.0433385
0.0433233
0.0433083
0.0432936
0.0432792
0.0432652
0.0432516
0.0432382
0.0432252
0.0432126
0.0432004
0.0431885
0.043177
0.0431659
0.0431552
0.0431449
0.0431348
0.0431252
0.0431158
0.0431067
0.0430981
0.0430898
0.0430819
0.0430745
0.0430666
0.04306
0.0430504
0.043043
0.0430349
0.043033
0.0430154
0.0207892
0.0395931
0.0414953
0.0410235
0.0408984
0.0409324
0.0410312
0.0411523
0.0412839
0.0414018
0.0414989
0.0415735
0.0416311
0.0416783
0.0417234
0.0417715
0.0418251
0.0418832
0.0419442
0.0420069
0.0420703
0.0421335
0.0421958
0.0422567
0.0423164
0.0423753
0.0424333
0.0424905
0.0425466
0.0426014
0.0426551
0.0427077
0.0427595
0.0428102
0.04286
0.0429086
0.0429563
0.0430031
0.0430492
0.0430944
0.0431384
0.0431813
0.0432229
0.0432631
0.043302
0.0433395
0.0433755
0.0434098
0.0434425
0.0434734
0.0435024
0.0435295
0.0435545
0.0435774
0.0435982
0.0436168
0.0436333
0.0436476
0.0436598
0.04367
0.0436781
0.0436842
0.0436883
0.0436906
0.0436909
0.0436897
0.043687
0.0436828
0.0436772
0.0436704
0.0436624
0.0436533
0.0436433
0.0436325
0.0436209
0.0436087
0.0435959
0.0435826
0.0435689
0.0435549
0.0435407
0.0435262
0.0435117
0.043497
0.0434824
0.0434677
0.0434532
0.0434387
0.0434244
0.0434103
0.0433963
0.0433826
0.0433692
0.0433559
0.043343
0.0433304
0.043318
0.0433059
0.0432942
0.0432828
0.0432716
0.0432609
0.0432504
0.0432404
0.0432306
0.0432212
0.0432121
0.0432033
0.0431947
0.0431865
0.0431787
0.0431712
0.043164
0.0431575
0.0431501
0.0431439
0.0431349
0.043128
0.0431205
0.043119
0.0431028
0.020829
0.0397246
0.0415061
0.0410196
0.0408942
0.0409287
0.0410279
0.0411492
0.0412808
0.0413986
0.0414958
0.0415706
0.0416285
0.0416761
0.0417216
0.0417702
0.0418242
0.0418826
0.0419438
0.0420066
0.0420701
0.0421334
0.0421956
0.0422566
0.0423163
0.0423751
0.0424332
0.0424903
0.0425464
0.0426011
0.0426547
0.0427074
0.0427591
0.0428099
0.0428595
0.0429081
0.0429558
0.0430027
0.0430487
0.0430939
0.043138
0.0431809
0.0432225
0.0432628
0.0433017
0.0433393
0.0433754
0.04341
0.0434429
0.043474
0.0435033
0.0435306
0.043556
0.0435793
0.0436006
0.0436198
0.043637
0.043652
0.043665
0.0436762
0.0436853
0.0436923
0.0436976
0.0437012
0.043703
0.0437031
0.0437018
0.0436992
0.0436953
0.0436902
0.0436839
0.0436767
0.0436686
0.0436596
0.04365
0.0436397
0.0436288
0.0436175
0.0436058
0.0435938
0.0435815
0.043569
0.0435563
0.0435436
0.0435308
0.043518
0.0435052
0.0434925
0.04348
0.0434675
0.0434552
0.0434431
0.0434311
0.0434194
0.0434079
0.0433967
0.0433857
0.0433749
0.0433644
0.0433542
0.0433443
0.0433347
0.0433253
0.0433163
0.0433076
0.0432991
0.0432909
0.043283
0.0432753
0.0432679
0.0432608
0.0432541
0.0432476
0.0432419
0.0432349
0.043229
0.0432206
0.0432144
0.0432074
0.0432062
0.0431912
0.0208807
0.039867
0.0415106
0.0410154
0.0408902
0.0409251
0.0410246
0.0411461
0.0412777
0.0413955
0.0414927
0.0415677
0.0416259
0.0416739
0.0417199
0.0417689
0.0418233
0.0418819
0.0419433
0.0420063
0.0420699
0.0421332
0.0421955
0.0422564
0.0423162
0.042375
0.042433
0.0424901
0.0425461
0.0426008
0.0426544
0.042707
0.0427587
0.0428095
0.0428591
0.0429077
0.0429553
0.0430022
0.0430483
0.0430934
0.0431375
0.0431804
0.043222
0.0432624
0.0433015
0.0433392
0.0433754
0.0434102
0.0434432
0.0434746
0.0435042
0.0435318
0.0435576
0.0435814
0.0436032
0.043623
0.0436408
0.0436566
0.0436705
0.0436826
0.0436927
0.0437009
0.0437074
0.0437123
0.0437155
0.0437172
0.0437174
0.0437164
0.0437142
0.0437108
0.0437064
0.043701
0.0436948
0.0436878
0.0436801
0.0436718
0.0436629
0.0436536
0.0436439
0.0436339
0.0436236
0.043613
0.0436023
0.0435915
0.0435806
0.0435696
0.0435587
0.0435478
0.0435369
0.0435261
0.0435154
0.0435049
0.0434945
0.0434842
0.0434742
0.0434643
0.0434546
0.0434452
0.0434359
0.0434269
0.0434182
0.0434096
0.0434014
0.0433933
0.0433856
0.0433781
0.0433708
0.0433637
0.0433569
0.0433503
0.043344
0.043338
0.0433323
0.0433274
0.0433208
0.0433151
0.0433076
0.0433021
0.0432957
0.0432948
0.0432811
0.0209342
0.0400181
0.0415182
0.0410112
0.0408861
0.0409215
0.0410214
0.0411431
0.0412747
0.0413924
0.0414896
0.0415648
0.0416233
0.0416718
0.0417182
0.0417677
0.0418223
0.0418813
0.0419429
0.042006
0.0420697
0.0421331
0.0421954
0.0422563
0.042316
0.0423748
0.0424328
0.0424899
0.0425459
0.0426006
0.0426541
0.0427067
0.0427584
0.042809
0.0428586
0.0429072
0.0429548
0.0430017
0.0430478
0.0430929
0.043137
0.0431799
0.0432216
0.0432621
0.0433012
0.043339
0.0433754
0.0434103
0.0434436
0.0434752
0.0435051
0.0435331
0.0435593
0.0435835
0.0436059
0.0436263
0.0436448
0.0436614
0.0436762
0.0436892
0.0437003
0.0437097
0.0437174
0.0437236
0.0437282
0.0437315
0.0437333
0.0437339
0.0437333
0.0437317
0.0437292
0.0437257
0.0437214
0.0437164
0.0437106
0.0437043
0.0436975
0.0436902
0.0436826
0.0436745
0.0436662
0.0436577
0.0436489
0.0436401
0.0436311
0.043622
0.0436129
0.0436037
0.0435946
0.0435855
0.0435765
0.0435676
0.0435588
0.0435501
0.0435415
0.043533
0.0435248
0.0435166
0.0435087
0.0435009
0.0434933
0.043486
0.0434788
0.0434718
0.0434651
0.0434586
0.0434522
0.043446
0.0434401
0.0434343
0.0434289
0.0434237
0.0434186
0.0434146
0.0434083
0.0434029
0.0433961
0.0433914
0.0433857
0.0433851
0.0433727
0.0210036
0.0401747
0.0415281
0.0410068
0.0408821
0.040918
0.0410183
0.0411401
0.0412717
0.0413894
0.0414866
0.0415619
0.0416208
0.0416696
0.0417165
0.0417664
0.0418214
0.0418806
0.0419425
0.0420057
0.0420695
0.0421329
0.0421952
0.0422562
0.0423159
0.0423747
0.0424327
0.0424897
0.0425456
0.0426003
0.0426538
0.0427063
0.042758
0.0428086
0.0428582
0.0429067
0.0429543
0.0430012
0.0430473
0.0430924
0.0431365
0.0431795
0.0432212
0.0432617
0.043301
0.0433389
0.0433754
0.0434105
0.043444
0.0434759
0.043506
0.0435344
0.043561
0.0435858
0.0436087
0.0436297
0.043649
0.0436664
0.043682
0.0436961
0.0437083
0.0437188
0.0437278
0.0437354
0.0437415
0.0437462
0.0437498
0.0437521
0.0437533
0.0437535
0.0437528
0.0437512
0.0437489
0.0437459
0.0437422
0.043738
0.0437332
0.043728
0.0437224
0.0437164
0.0437101
0.0437036
0.0436969
0.0436899
0.0436828
0.0436757
0.0436684
0.043661
0.0436537
0.0436463
0.043639
0.0436316
0.0436244
0.0436172
0.04361
0.043603
0.0435961
0.0435893
0.0435826
0.043576
0.0435696
0.0435633
0.0435572
0.0435513
0.0435456
0.04354
0.0435345
0.0435292
0.0435241
0.0435192
0.0435146
0.0435102
0.0435058
0.0435025
0.0434965
0.0434914
0.0434855
0.0434816
0.0434765
0.0434763
0.0434653
0.0210882
0.0403344
0.0415362
0.0410022
0.0408782
0.0409146
0.0410152
0.0411372
0.0412688
0.0413864
0.0414836
0.0415591
0.0416183
0.0416676
0.0417149
0.0417652
0.0418206
0.04188
0.041942
0.0420054
0.0420693
0.0421328
0.0421951
0.042256
0.0423158
0.0423746
0.0424325
0.0424895
0.0425453
0.0426
0.0426534
0.042706
0.0427576
0.0428082
0.0428577
0.0429062
0.0429538
0.0430007
0.0430467
0.0430919
0.043136
0.043179
0.0432208
0.0432613
0.0433007
0.0433388
0.0433755
0.0434107
0.0434444
0.0434766
0.043507
0.0435358
0.0435628
0.043588
0.0436115
0.0436333
0.0436532
0.0436714
0.043688
0.0437031
0.0437164
0.0437281
0.0437384
0.0437473
0.0437549
0.0437612
0.0437664
0.0437704
0.0437735
0.0437755
0.0437767
0.0437771
0.0437768
0.0437757
0.0437741
0.0437719
0.0437693
0.0437661
0.0437626
0.0437587
0.0437545
0.04375
0.0437452
0.0437403
0.0437352
0.0437299
0.0437245
0.043719
0.0437134
0.0437078
0.0437021
0.0436965
0.0436908
0.0436851
0.0436795
0.0436739
0.0436684
0.0436629
0.0436576
0.0436523
0.0436471
0.043642
0.043637
0.0436322
0.0436275
0.0436229
0.0436184
0.043614
0.0436098
0.0436058
0.0436021
0.0435984
0.0435946
0.0435918
0.0435864
0.0435819
0.0435768
0.0435737
0.0435692
0.0435692
0.0435596
0.0211796
0.0404944
0.0415435
0.0409972
0.0408744
0.0409113
0.0410122
0.0411344
0.0412659
0.0413834
0.0414807
0.0415564
0.0416158
0.0416655
0.0417133
0.041764
0.0418197
0.0418794
0.0419416
0.0420051
0.0420691
0.0421326
0.042195
0.0422559
0.0423156
0.0423744
0.0424323
0.0424893
0.0425451
0.0425996
0.0426531
0.0427056
0.0427572
0.0428077
0.0428572
0.0429056
0.0429533
0.0430001
0.0430462
0.0430914
0.0431355
0.0431785
0.0432203
0.043261
0.0433004
0.0433386
0.0433755
0.0434109
0.0434449
0.0434773
0.043508
0.0435372
0.0435646
0.0435904
0.0436145
0.0436369
0.0436576
0.0436767
0.0436942
0.0437103
0.0437248
0.0437377
0.0437494
0.0437598
0.0437689
0.0437768
0.0437836
0.0437894
0.0437943
0.0437982
0.0438014
0.0438038
0.0438055
0.0438065
0.043807
0.0438069
0.0438064
0.0438054
0.0438039
0.0438021
0.0438
0.0437976
0.0437949
0.0437919
0.0437887
0.0437854
0.0437819
0.0437782
0.0437744
0.0437705
0.0437665
0.0437625
0.0437584
0.0437543
0.0437502
0.043746
0.0437419
0.0437377
0.0437336
0.0437295
0.0437255
0.0437216
0.0437177
0.0437139
0.0437102
0.0437065
0.0437029
0.0436995
0.0436961
0.043693
0.0436901
0.0436872
0.0436839
0.0436814
0.0436766
0.0436729
0.0436685
0.043666
0.0436622
0.0436626
0.0436541
0.0212802
0.0406533