/*--------------------------------*- C++ -*----------------------------------*\
| =========                 |                                                 |
| \\      /  F ield         | OpenFOAM: The Open Source CFD Toolbox           |
|  \\    /   O peration     | Version:  2412                                  |
|   \\  /    A nd           | Website:  www.openfoam.com                      |
|    \\/     M anipulation  |                                                 |
\*---------------------------------------------------------------------------*/
FoamFile
{
    version     2.0;
    format      ascii;
    arch        "LSB;label=32;scalar=64";
    class       volScalarField;
    location    "0.11";
    object      T;
}
// * * * * * * * * * * * * * * * * * * * * * * * * * * * * * * * * * * * * * //

dimensions      [0 0 0 1 0 0 0];

internalField   nonuniform List<scalar> 
9831
(
138.75
206.591
138.577
206.568
219.13
220.003
220.435
220.609
220.802
221.019
221.278
221.528
221.739
221.896
222.008
222.093
222.171
222.257
222.361
222.478
222.605
222.738
222.874
223.011
223.148
223.282
223.414
223.545
223.673
223.8
223.925
224.048
224.167
224.284
224.398
224.51
224.62
224.728
224.833
224.936
225.037
225.135
225.231
225.325
225.416
225.503
225.586
225.666
225.742
225.813
225.88
225.942
138.404
206.554
219.151
219.989
220.419
220.596
220.79
221.007
221.267
221.518
221.73
221.887
222.001
222.086
222.166
222.254
222.358
222.476
222.604
222.737
222.873
223.011
223.147
223.282
223.414
223.544
223.673
223.8
223.925
224.047
224.167
224.283
224.397
224.509
224.619
224.727
224.832
224.935
225.036
225.135
225.231
225.324
225.415
225.502
225.586
225.665
225.741
225.812
225.879
225.941
225.998
226.05
138.22
206.549
219.164
219.977
220.404
220.583
220.779
220.996
221.257
221.508
221.72
221.879
221.993
222.08
222.161
222.25
222.355
222.474
222.602
222.736
222.872
223.01
223.147
223.281
223.414
223.544
223.672
223.799
223.924
224.047
224.166
224.282
224.396
224.508
224.619
224.726
224.832
224.935
225.035
225.134
225.23
225.324
225.414
225.501
225.585
225.665
225.74
225.812
225.879
225.941
225.998
226.049
226.095
226.135
138.036
206.552
219.176
219.968
220.39
220.57
220.767
220.985
221.246
221.499
221.711
221.871
221.986
222.074
222.156
222.247
222.353
222.472
222.601
222.735
222.872
223.009
223.146
223.281
223.413
223.543
223.672
223.799
223.924
224.046
224.165
224.282
224.396
224.508
224.618
224.726
224.831
224.934
225.035
225.133
225.23
225.323
225.414
225.501
225.584
225.664
225.74
225.811
225.878
225.94
225.998
226.049
226.096
226.136
226.17
226.198
226.219
226.234
226.242
226.243
226.236
226.223
226.203
226.177
226.145
226.106
226.062
226.012
225.957
225.897
225.832
225.763
225.69
225.614
225.535
225.454
225.37
225.284
225.197
225.109
225.019
224.93
224.84
224.751
224.661
224.572
224.484
224.398
224.312
224.227
224.144
224.063
223.983
223.905
223.829
223.754
223.682
223.611
223.543
223.477
223.412
223.35
223.29
223.231
223.175
223.12
223.067
223.016
222.966
222.919
222.874
222.831
222.791
222.753
222.717
222.683
222.65
222.624
222.596
137.851
206.56
219.189
219.959
220.376
220.558
220.756
220.974
221.236
221.489
221.702
221.863
221.979
222.068
222.151
222.243
222.35
222.471
222.6
222.734
222.871
223.009
223.146
223.281
223.413
223.543
223.671
223.798
223.923
224.046
224.165
224.281
224.395
224.507
224.617
224.725
224.83
224.933
225.034
225.133
225.229
225.322
225.413
225.5
225.584
225.663
225.739
225.811
225.878
225.94
225.997
226.049
226.096
226.136
226.171
226.199
226.221
226.236
226.245
226.246
226.24
226.228
226.21
226.185
226.154
226.117
226.074
226.025
225.972
225.914
225.851
225.784
225.714
225.64
225.563
225.484
225.403
225.32
225.236
225.15
225.064
224.977
224.891
224.804
224.718
224.632
224.547
224.463
224.38
224.299
224.219
224.14
224.063
223.988
223.915
223.843
223.773
223.706
223.64
223.576
223.514
223.455
223.397
223.34
223.286
223.233
223.183
223.133
223.086
223.041
222.998
222.957
222.918
222.882
222.848
222.815
222.783
222.758
222.732
222.724
222.669
137.672
206.571
219.197
219.953
220.363
220.547
220.745
220.964
221.226
221.48
221.694
221.854
221.972
222.062
222.147
222.239
222.347
222.469
222.598
222.733
222.87
223.008
223.145
223.28
223.412
223.542
223.671
223.798
223.923
224.045
224.164
224.28
224.395
224.507
224.617
224.724
224.83
224.932
225.033
225.132
225.228
225.322
225.412
225.499
225.583
225.663
225.739
225.81
225.877
225.94
225.998
226.05
226.097
226.137
226.172
226.201
226.223
226.239
226.248
226.251
226.246
226.235
226.217
226.194
226.164
226.128
226.087
226.04
225.989
225.932
225.872
225.807
225.739
225.668
225.594
225.518
225.439
225.359
225.278
225.195
225.112
225.029
224.945
224.862
224.778
224.696
224.614
224.533
224.453
224.375
224.298
224.222
224.148
224.076
224.005
223.937
223.87
223.805
223.742
223.68
223.621
223.564
223.508
223.454
223.402
223.351
223.303
223.255
223.21
223.167
223.126
223.087
223.05
223.015
222.982
222.95
222.918
222.893
222.87
222.871
222.821
137.502
206.586
219.206
219.948
220.351
220.536
220.735
220.954
221.217
221.471
221.685
221.847
221.965
222.057
222.142
222.236
222.345
222.467
222.597
222.732
222.869
223.008
223.145
223.28
223.412
223.542
223.671
223.798
223.922
224.044
224.163
224.28
224.394
224.506
224.616
224.724
224.829
224.932
225.033
225.131
225.228
225.321
225.412
225.499
225.582
225.662
225.738
225.81
225.877
225.94
225.998
226.05
226.097
226.139
226.174
226.203
226.226
226.242
226.252
226.255
226.252
226.242
226.225
226.203
226.175
226.141
226.101
226.057
226.007
225.953
225.895
225.833
225.767
225.699
225.627
225.554
225.478
225.401
225.323
225.244
225.163
225.083
225.003
224.922
224.842
224.763
224.684
224.607
224.53
224.455
224.381
224.308
224.237
224.168
224.1
224.034
223.97
223.908
223.847
223.789
223.732
223.677
223.624
223.572
223.522
223.474
223.427
223.382
223.339
223.297
223.258
223.221
223.186
223.153
223.121
223.09
223.058
223.034
223.015
223.02
222.974
137.332
206.604
219.222
219.943
220.34
220.525
220.724
220.943
221.207
221.461
221.676
221.839
221.958
222.051
222.138
222.233
222.343
222.465
222.596
222.731
222.869
223.007
223.145
223.279
223.411
223.542
223.67
223.797
223.922
224.044
224.163
224.279
224.393
224.505
224.615
224.723
224.828
224.931
225.032
225.13
225.227
225.32
225.411
225.498
225.582
225.662
225.738
225.81
225.877
225.94
225.998
226.051
226.098
226.14
226.176
226.205
226.229
226.246
226.257
226.261
226.258
226.25
226.235
226.214
226.187
226.155
226.117
226.075
226.027
225.976
225.92
225.86
225.798
225.732
225.663
225.593
225.52
225.446
225.371
225.295
225.218
225.141
225.064
224.987
224.91
224.834
224.759
224.684
224.611
224.539
224.468
224.398
224.331
224.264
224.199
224.136
224.075
224.015
223.957
223.901
223.847
223.795
223.744
223.694
223.647
223.6
223.556
223.513
223.471
223.432
223.394
223.359
223.326
223.294
223.262
223.232
223.202
223.181
223.164
223.171
223.126
137.173
206.627
219.231
219.939
220.328
220.514
220.714
220.934
221.198
221.453
221.668
221.831
221.951
222.045
222.133
222.229
222.34
222.463
222.594
222.73
222.868
223.007
223.144
223.279
223.411
223.541
223.67
223.797
223.921
224.043
224.162
224.279
224.393
224.505
224.615
224.722
224.827
224.93
225.031
225.13
225.226
225.32
225.41
225.497
225.581
225.661
225.737
225.809
225.877
225.94
225.999
226.052
226.1
226.142
226.178
226.208
226.232
226.25
226.262
226.267
226.266
226.258
226.245
226.226
226.201
226.17
226.135
226.094
226.049
226
225.947
225.89
225.83
225.767
225.702
225.634
225.565
225.494
225.422
225.349
225.276
225.202
225.128
225.054
224.981
224.908
224.836
224.765
224.695
224.626
224.559
224.492
224.428
224.364
224.302
224.242
224.184
224.127
224.072
224.018
223.966
223.916
223.868
223.821
223.775
223.731
223.689
223.647
223.608
223.57
223.535
223.501
223.469
223.438
223.408
223.379
223.351
223.333
223.319
223.326
223.282
137.045
206.654
219.241
219.936
220.317
220.504
220.704
220.924
221.189
221.444
221.66
221.823
221.945
222.04
222.129
222.226
222.338
222.462
222.593
222.729
222.868
223.006
223.144
223.279
223.411
223.541
223.669
223.796
223.921
224.043
224.162
224.278
224.392
224.504
224.614
224.722
224.827
224.929
225.03
225.129
225.225
225.319
225.41
225.497
225.58
225.661
225.737
225.809
225.877
225.941
225.999
226.053
226.101
226.144
226.18
226.211
226.236
226.255
226.268
226.274
226.274
226.268
226.256
226.239
226.216
226.187
226.154
226.116
226.073
226.026
225.976
225.922
225.864
225.805
225.742
225.678
225.612
225.545
225.476
225.407
225.336
225.266
225.196
225.126
225.056
224.987
224.918
224.85
224.783
224.718
224.653
224.59
224.528
224.468
224.409
224.352
224.296
224.242
224.19
224.139
224.089
224.042
223.996
223.951
223.907
223.866
223.825
223.786
223.748
223.713
223.679
223.647
223.616
223.586
223.557
223.53
223.504
223.488
223.476
223.483
223.44
136.92
206.686
219.257
219.934
220.307
220.494
220.694
220.914
221.18
221.435
221.651
221.816
221.938
222.034
222.124
222.223
222.335
222.46
222.592
222.728
222.867
223.006
223.143
223.278
223.41
223.541
223.669
223.796
223.921
224.042
224.161
224.277
224.391
224.504
224.613
224.721
224.826
224.929
225.03
225.128
225.225
225.318
225.409
225.496
225.58
225.66
225.737
225.809
225.877
225.941
226
226.054
226.103
226.146
226.183
226.215
226.241
226.26
226.274
226.282
226.283
226.278
226.268
226.252
226.231
226.205
226.174
226.138
226.098
226.054
226.006
225.955
225.901
225.844
225.785
225.724
225.662
225.598
225.532
225.467
225.4
225.333
225.266
225.2
225.134
225.068
225.003
224.938
224.875
224.813
224.751
224.692
224.633
224.576
224.52
224.465
224.413
224.361
224.311
224.263
224.216
224.171
224.127
224.085
224.044
224.004
223.965
223.928
223.892
223.859
223.827
223.796
223.767
223.738
223.71
223.685
223.662
223.648
223.637
223.644
223.601
136.748
206.72
219.272
219.931
220.297
220.484
220.685
220.905
221.171
221.427
221.643
221.808
221.931
222.029
222.12
222.22
222.333
222.458
222.591
222.728
222.866
223.006
223.143
223.278
223.41
223.54
223.669
223.796
223.92
224.042
224.16
224.277
224.391
224.503
224.613
224.72
224.825
224.928
225.029
225.128
225.224
225.318
225.408
225.495
225.579
225.66
225.736
225.809
225.878
225.942
226.001
226.055
226.104
226.148
226.186
226.219
226.245
226.266
226.281
226.29
226.293
226.289
226.281
226.267
226.248
226.224
226.195
226.162
226.125
226.084
226.039
225.991
225.94
225.886
225.831
225.773
225.714
225.654
225.592
225.53
225.467
225.404
225.341
225.278
225.215
225.153
225.091
225.03
224.97
224.911
224.853
224.797
224.741
224.687
224.634
224.583
224.533
224.484
224.437
224.391
224.347
224.304
224.262
224.222
224.183
224.145
224.109
224.074
224.04
224.008
223.978
223.949
223.921
223.893
223.866
223.844
223.822
223.81
223.8
223.808
223.765
136.609
206.76
219.286
219.927
220.287
220.475
220.676
220.896
221.162
221.418
221.635
221.801
221.925
222.023
222.116
222.216
222.331
222.457
222.59
222.727
222.866
223.005
223.143
223.278
223.41
223.54
223.668
223.795
223.92
224.041
224.16
224.276
224.39
224.502
224.612
224.719
224.824
224.927
225.028
225.127
225.223
225.317
225.407
225.495
225.579
225.659
225.736
225.809
225.878
225.942
226.002
226.057
226.106
226.151
226.19
226.223
226.25
226.272
226.288
226.299
226.303
226.301
226.295
226.283
226.266
226.245
226.218
226.188
226.153
226.115
226.073
226.028
225.98
225.93
225.878
225.824
225.769
225.712
225.654
225.595
225.536
225.477
225.417
225.358
225.299
225.24
225.182
225.125
225.068
225.013
224.958
224.905
224.853
224.802
224.752
224.703
224.656
224.61
224.566
224.523
224.481
224.44
224.401
224.363
224.326
224.291
224.256
224.223
224.191
224.161
224.133
224.105
224.078
224.052
224.026
224.006
223.987
223.977
223.967
223.974
223.933
136.537
206.814
219.3
219.923
220.277
220.466
220.667
220.888
221.154
221.41
221.627
221.794
221.918
222.018
222.112
222.213
222.328
222.455
222.588
222.726
222.865
223.005
223.142
223.277
223.409
223.54
223.668
223.795
223.919
224.041
224.159
224.275
224.389
224.502
224.611
224.718
224.823
224.926
225.027
225.126
225.222
225.316
225.407
225.494
225.578
225.659
225.736
225.809
225.878
225.943
226.003
226.058
226.109
226.154
226.193
226.227
226.256
226.279
226.296
226.308
226.314
226.315
226.31
226.3
226.286
226.266
226.243
226.215
226.183
226.148
226.109
226.068
226.023
225.977
225.928
225.878
225.826
225.773
225.719
225.664
225.609
225.553
225.497
225.442
225.386
225.331
225.277
225.223
225.17
225.118
225.067
225.017
224.968
224.92
224.873
224.827
224.783
224.74
224.698
224.658
224.618
224.58
224.543
224.508
224.473
224.439
224.407
224.376
224.346
224.317
224.29
224.264
224.239
224.214
224.19
224.172
224.155
224.146
224.137
224.144
224.103
136.364
206.884
219.313
219.917
220.268
220.457
220.658
220.88
221.146
221.402
221.62
221.786
221.912
222.012
222.108
222.21
222.326
222.453
222.587
222.725
222.865
223.004
223.142
223.277
223.409
223.539
223.668
223.794
223.919
224.04
224.159
224.275
224.389
224.501
224.61
224.718
224.822
224.925
225.026
225.125
225.222
225.315
225.406
225.493
225.578
225.658
225.736
225.809
225.879
225.944
226.004
226.06
226.111
226.157
226.197
226.232
226.262
226.286
226.305
226.318
226.326
226.328
226.325
226.318
226.306
226.289
226.268
226.243
226.214
226.182
226.147
226.109
226.068
226.025
225.98
225.933
225.885
225.836
225.786
225.735
225.683
225.632
225.58
225.528
225.476
225.425
225.375
225.324
225.275
225.226
225.179
225.132
225.086
225.041
224.997
224.955
224.913
224.873
224.834
224.796
224.759
224.724
224.689
224.656
224.623
224.591
224.561
224.532
224.504
224.477
224.452
224.427
224.403
224.379
224.357
224.342
224.326
224.319
224.311
224.317
224.276
136.171
206.971
219.327
219.91
220.258
220.448
220.65
220.872
221.138
221.394
221.612
221.779
221.906
222.007
222.103
222.207
222.324
222.452
222.586
222.724
222.864
223.004
223.142
223.277
223.409
223.539
223.667
223.794
223.918
224.039
224.158
224.274
224.388
224.5
224.61
224.717
224.822
224.924
225.025
225.124
225.221
225.314
225.405
225.493
225.577
225.658
225.735
225.809
225.879
225.945
226.006
226.062
226.114
226.16
226.201
226.237
226.268
226.293
226.314
226.329
226.339
226.343
226.342
226.337
226.327
226.313
226.295
226.273
226.247
226.218
226.186
226.152
226.115
226.075
226.034
225.991
225.947
225.902
225.856
225.809
225.761
225.713
225.665
225.618
225.57
225.522
225.475
225.429
225.383
225.338
225.293
225.25
225.207
225.166
225.125
225.085
225.047
225.009
224.973
224.937
224.903
224.87
224.838
224.806
224.776
224.746
224.718
224.691
224.665
224.64
224.616
224.593
224.57
224.548
224.528
224.515
224.501
224.495
224.487
224.492
224.453
136.171
207.077
219.342
219.901
220.248
220.44
220.642
220.864
221.131
221.387
221.605
221.772
221.9
222.002
222.099
222.204
222.322
222.45
222.585
222.724
222.864
223.004
223.141
223.276
223.408
223.539
223.667
223.794
223.918
224.039
224.157
224.273
224.387
224.499
224.609
224.716
224.821
224.923
225.024
225.123
225.22
225.313
225.404
225.492
225.576
225.658
225.735
225.809
225.88
225.945
226.007
226.064
226.116
226.164
226.206
226.243
226.275
226.301
226.323
226.34
226.352
226.358
226.36
226.356
226.349
226.338
226.323
226.304
226.281
226.256
226.227
226.196
226.163
226.127
226.09
226.051
226.011
225.97
225.927
225.884
225.841
225.797
225.753
225.709
225.665
225.622
225.578
225.536
225.493
225.452
225.411
225.371
225.332
225.293
225.256
225.219
225.183
225.149
225.115
225.082
225.05
225.02
224.99
224.961
224.932
224.905
224.879
224.853
224.829
224.806
224.783
224.761
224.74
224.72
224.702
224.69
224.678
224.673
224.666
224.671
224.633
136.121
207.214
219.357
219.891
220.238
220.432
220.635
220.857
221.123
221.379
221.597
221.765
221.894
221.997
222.095
222.201
222.32
222.449
222.584
222.723
222.863
223.003
223.141
223.276
223.408
223.538
223.667
223.793
223.917
224.038
224.157
224.273
224.387
224.499
224.608
224.715
224.82
224.922
225.023
225.122
225.219
225.313
225.403
225.491
225.576
225.657
225.735
225.81
225.88
225.947
226.009
226.066
226.119
226.167
226.21
226.249
226.282
226.31
226.333
226.352
226.365
226.374
226.378
226.377
226.373
226.364
226.352
226.336
226.317
226.295
226.27
226.243
226.213
226.182
226.148
226.114
226.077
226.04
226.002
225.963
225.924
225.884
225.844
225.804
225.764
225.724
225.685
225.646
225.607
225.569
225.532
225.495
225.459
225.424
225.389
225.356
225.323
225.291
225.26
225.23
225.201
225.172
225.145
225.118
225.092
225.066
225.042
225.018
224.996
224.975
224.954
224.933
224.914
224.895
224.879
224.869
224.858
224.855
224.848
224.852
224.816
136.145
207.404
219.367
219.879
220.228
220.424
220.627
220.849
221.116
221.372
221.59
221.759
221.888
221.992
222.092
222.198
222.318
222.447
222.583
222.722
222.863
223.003
223.141
223.276
223.408
223.538
223.666
223.793
223.917
224.038
224.156
224.272
224.386
224.498
224.607
224.714
224.819
224.922
225.022
225.121
225.218
225.312
225.403
225.49
225.575
225.657
225.735
225.81
225.881
225.948
226.01
226.069
226.122
226.171
226.215
226.255
226.289
226.319
226.344
226.364
226.379
226.39
226.397
226.399
226.397
226.391
226.382
226.37
226.354
226.335
226.314
226.291
226.265
226.237
226.208
226.177
226.145
226.112
226.078
226.043
226.008
225.973
225.937
225.901
225.865
225.829
225.793
225.758
225.723
225.689
225.655
225.622
225.589
225.557
225.526
225.495
225.465
225.436
225.408
225.38
225.354
225.328
225.302
225.278
225.254
225.231
225.208
225.187
225.166
225.147
225.127
225.108
225.09
225.074
225.059
225.05
225.041
225.041
225.034
225.038
225.003
136.232
207.633
219.385
219.864
220.217
220.416
220.62
220.842
221.109
221.365
221.583
221.752
221.882
221.987
222.088
222.195
222.316
222.446
222.582
222.721
222.862
223.003
223.14
223.275
223.408
223.538
223.666
223.792
223.916
224.037
224.155
224.271
224.385
224.497
224.606
224.713
224.818
224.921
225.022
225.12
225.217
225.311
225.402
225.49
225.575
225.657
225.735
225.81
225.881
225.949
226.012
226.071
226.125
226.175
226.22
226.261
226.297
226.328
226.355
226.377
226.394
226.408
226.417
226.422
226.422
226.42
226.414
226.405
226.393
226.378
226.36
226.341
226.319
226.295
226.27
226.244
226.216
226.187
226.157
226.127
226.096
226.064
226.032
226.001
225.969
225.937
225.905
225.874
225.842
225.812
225.781
225.751
225.722
225.693
225.665
225.637
225.61
225.584
225.558
225.534
225.51
225.486
225.463
225.441
225.419
225.398
225.378
225.358
225.339
225.321
225.303
225.286
225.269
225.255
225.241
225.234
225.227
225.228
225.223
225.226
225.194
136.387
207.894
219.406
219.847
220.206
220.408
220.613
220.835
221.101
221.357
221.576
221.745
221.876
221.982
222.084
222.193
222.313
222.444
222.581
222.721
222.862
223.002
223.14
223.275
223.407
223.537
223.666
223.792
223.916
224.036
224.155
224.271
224.384
224.496
224.605
224.712
224.817
224.919
225.02
225.119
225.216
225.31
225.401
225.489
225.574
225.656
225.735
225.81
225.882
225.95
226.014
226.073
226.129
226.18
226.226
226.268
226.305
226.338
226.366
226.39
226.41
226.425
226.437
226.445
226.449
226.449
226.446
226.44
226.432
226.421
226.407
226.391
226.374
226.354
226.333
226.311
226.287
226.263
226.237
226.211
226.184
226.157
226.13
226.102
226.074
226.046
226.018
225.991
225.963
225.936
225.909
225.883
225.857
225.832
225.806
225.782
225.758
225.735
225.712
225.69
225.668
225.647
225.627
225.607
225.587
225.568
225.55
225.532
225.515
225.499
225.483
225.467
225.452
225.439
225.427
225.422
225.416
225.418
225.413
225.416
225.386
136.632
208.194
219.415
219.829
220.195
220.4
220.606
220.829
221.095
221.35
221.569
221.739
221.87
221.977
222.08
222.19
222.311
222.443
222.58
222.72
222.861
223.002
223.14
223.275
223.407
223.537
223.665
223.792
223.915
224.036
224.154
224.27
224.384
224.495
224.604
224.711
224.816
224.918
225.019
225.118
225.215
225.309
225.4
225.488
225.574
225.656
225.735
225.811
225.883
225.951
226.016
226.076
226.132
226.184
226.231
226.275
226.313
226.348
226.378
226.404
226.426
226.444
226.458
226.469
226.476
226.479
226.48
226.478
226.473
226.466
226.456
226.444
226.431
226.416
226.399
226.381
226.362
226.341
226.32
226.298
226.276
226.253
226.23
226.206
226.183
226.159
226.135
226.111
226.087
226.064
226.041
226.018
225.995
225.973
225.951
225.93
225.908
225.888
225.868
225.848
225.829
225.811
225.793
225.775
225.757
225.741
225.724
225.709
225.694
225.679
225.664
225.65
225.636
225.626
225.616
225.612
225.608
225.611
225.606
225.609
225.581
136.923
208.526
219.431
219.81
220.184
220.393
220.6
220.822
221.088
221.343
221.562
221.732
221.864
221.973
222.076
222.187
222.309
222.441
222.579
222.719
222.861
223.001
223.139
223.274
223.407
223.537
223.665
223.791
223.915
224.035
224.153
224.269
224.383
224.494
224.603
224.71
224.814
224.917
225.018
225.117
225.214
225.308
225.399
225.487
225.573
225.656
225.735
225.811
225.884
225.953
226.018
226.079
226.136
226.189
226.237
226.282
226.322
226.358
226.39
226.419
226.443
226.463
226.48
226.493
226.503
226.51
226.514
226.516
226.514
226.511
226.505
226.498
226.489
226.478
226.465
226.452
226.437
226.421
226.404
226.387
226.369
226.35
226.331
226.312
226.292
226.273
226.253
226.233
226.213
226.193
226.174
226.154
226.135
226.116
226.098
226.079
226.061
226.044
226.027
226.01
225.993
225.977
225.961
225.946
225.931
225.916
225.902
225.888
225.875
225.862
225.849
225.836
225.824
225.816
225.808
225.807
225.804
225.807
225.802
225.804
225.779
137.284
208.88
219.453
219.79
220.172
220.385
220.593
220.815
221.081
221.337
221.555
221.726
221.859
221.968
222.072
222.184
222.307
222.44
222.578
222.719
222.86
223.001
223.139
223.274
223.406
223.536
223.665
223.791
223.914
224.035
224.152
224.268
224.382
224.493
224.602
224.709
224.813
224.916
225.017
225.116
225.213
225.307
225.398
225.487
225.572
225.655
225.735
225.812
225.885
225.954
226.02
226.082
226.14
226.193
226.243
226.289
226.331
226.369
226.403
226.433
226.46
226.483
226.502
226.519
226.532
226.542
226.55
226.555
226.558
226.558
226.557
226.553
226.548
226.542
226.534
226.525
226.514
226.503
226.491
226.478
226.464
226.45
226.435
226.42
226.405
226.389
226.374
226.358
226.342
226.326
226.31
226.294
226.278
226.262
226.247
226.232
226.217
226.202
226.187
226.173
226.159
226.146
226.132
226.119
226.106
226.094
226.082
226.07
226.058
226.047
226.035
226.024
226.014
226.008
226.002
226.003
226.001
226.004
226
226.001
225.979
137.7
209.249
219.471
219.77
220.161
220.377
220.587
220.809
221.075
221.33
221.549
221.72
221.853
221.963
222.069
222.181
222.305
222.439
222.577
222.718
222.86
223.001
223.139
223.274
223.406
223.536
223.664
223.79
223.913
224.034
224.152
224.267
224.381
224.492
224.601
224.708
224.812
224.915
225.016
225.115
225.212
225.306
225.397
225.486
225.572
225.655
225.735
225.812
225.886
225.956
226.022
226.085
226.143
226.198
226.25
226.297
226.34
226.38
226.416
226.449
226.478
226.503
226.525
226.545
226.561
226.575
226.586
226.595
226.602
226.606
226.609
226.61
226.609
226.607
226.603
226.598
226.593
226.586
226.578
226.57
226.561
226.551
226.541
226.53
226.519
226.507
226.495
226.484
226.471
226.459
226.447
226.435
226.422
226.41
226.398
226.386
226.374
226.362
226.351
226.339
226.328
226.317
226.306
226.295
226.284
226.274
226.264
226.254
226.245
226.235
226.225
226.215
226.207
226.204
226.2
226.202
226.202
226.205
226.2
226.202
226.182
138.143
209.622
219.488
219.748
220.149
220.37
220.58
220.803
221.068
221.323
221.542
221.714
221.847
221.958
222.065
222.179
222.304
222.437
222.576
222.717
222.86
223
223.139
223.274
223.406
223.536
223.664
223.79
223.913
224.033
224.151
224.267
224.38
224.491
224.6
224.707
224.811
224.914
225.015
225.114
225.211
225.305
225.396
225.485
225.571
225.655
225.735
225.812
225.887
225.957
226.024
226.088
226.148
226.204
226.256
226.305
226.35
226.391
226.429
226.464
226.496
226.524
226.549
226.572
226.592
226.609
226.624
226.636
226.647
226.655
226.662
226.667
226.671
226.673
226.674
226.674
226.673
226.671
226.668
226.664
226.659
226.654
226.648
226.642
226.635
226.628
226.62
226.612
226.604
226.596
226.587
226.578
226.569
226.56
226.551
226.542
226.534
226.525
226.516
226.507
226.498
226.49
226.481
226.473
226.464
226.456
226.448
226.44
226.432
226.424
226.415
226.407
226.402
226.402
226.399
226.401
226.402
226.405
226.401
226.403
226.385
138.613
209.993
219.502
219.726
220.138
220.363
220.574
220.797
221.062
221.317
221.536
221.708
221.842
221.954
222.062
222.176
222.302
222.436
222.575
222.717
222.859
223
223.138
223.273
223.405
223.535
223.663
223.789
223.912
224.032
224.15
224.266
224.379
224.49
224.599
224.705
224.81
224.913
225.014
225.113
225.209
225.304
225.395
225.484
225.571
225.654
225.735
225.813
225.887
225.959
226.027
226.091
226.152
226.209
226.263
226.313
226.36
226.403
226.443
226.48
226.514
226.545
226.573
226.599
226.622
226.643
226.661
226.678
226.692
226.705
226.716
226.726
226.734
226.741
226.746
226.751
226.754
226.757
226.758
226.759
226.759
226.758
226.757
226.755
226.752
226.749
226.746
226.742
226.737
226.733
226.728
226.723
226.718
226.712
226.706
226.701
226.695
226.689
226.683
226.677
226.671
226.665
226.659
226.653
226.647
226.641
226.635
226.629
226.623
226.616
226.609
226.604
226.601
226.602
226.601
226.604
226.606
226.609
226.607
226.609
226.593
139.125
210.357
219.514
219.703
220.129
220.357
220.568
220.791
221.056
221.31
221.529
221.701
221.837
221.949
222.058
222.173
222.3
222.434
222.574
222.716
222.859
223
223.138
223.273
223.405
223.535
223.663
223.789
223.912
224.032
224.149
224.265
224.378
224.489
224.598
224.704
224.809
224.911
225.013
225.112
225.208
225.302
225.394
225.483
225.57
225.654
225.735
225.813
225.888
225.96
226.029
226.094
226.156
226.214
226.269
226.321
226.37
226.415
226.457
226.497
226.533
226.567
226.598
226.627
226.654
226.678
226.7
226.721
226.739
226.756
226.772
226.786
226.798
226.81
226.82
226.829
226.837
226.844
226.851
226.856
226.861
226.864
226.867
226.87
226.872
226.873
226.874
226.874
226.873
226.873
226.872
226.87
226.868
226.866
226.864
226.861
226.858
226.855
226.852
226.849
226.846
226.842
226.838
226.835
226.831
226.827
226.823
226.819
226.814
226.809
226.805
226.802
226.801
226.803
226.802
226.807
226.809
226.813
226.812
226.815
226.801
139.664
210.713
219.528
219.681
220.12
220.351
220.562
220.785
221.05
221.304
221.523
221.696
221.831
221.945
222.054
222.171
222.298
222.433
222.573
222.716
222.858
222.999
223.138
223.273
223.405
223.535
223.663
223.788
223.911
224.031
224.149
224.264
224.377
224.488
224.597
224.703
224.807
224.91
225.011
225.11
225.207
225.301
225.393
225.482
225.569
225.654
225.735
225.814
225.889
225.962
226.031
226.097
226.16
226.22
226.276
226.33
226.38
226.427
226.472
226.514
226.553
226.589
226.623
226.656
226.685
226.713
226.739
226.764
226.786
226.808
226.827
226.846
226.863
226.879
226.894
226.908
226.921
226.932
226.943
226.953
226.962
226.971
226.978
226.985
226.992
226.997
227.002
227.006
227.01
227.013
227.016
227.018
227.02
227.021
227.022
227.023
227.023
227.023
227.023
227.023
227.022
227.021
227.02
227.019
227.017
227.016
227.014
227.012
227.009
227.006
227.004
227.005
227.005
227.008
227.008
227.013
227.017
227.021
227.022
227.025
227.015
140.22
211.055
219.542
219.662
220.111
220.345
220.556
220.779
221.044
221.298
221.517
221.69
221.826
221.94
222.051
222.168
222.296
222.432
222.572
222.715
222.858
222.999
223.137
223.272
223.405
223.534
223.662
223.788
223.91
224.03
224.148
224.263
224.376
224.487
224.595
224.702
224.806
224.909
225.01
225.109
225.206
225.3
225.392
225.482
225.569
225.653
225.735
225.814
225.89
225.964
226.034
226.101
226.165
226.225
226.283
226.338
226.39
226.44
226.486
226.531
226.573
226.612
226.649
226.685
226.718
226.75
226.78
226.808
226.835
226.86
226.885
226.908
226.929
226.95
226.97
226.988
227.006
227.022
227.038
227.053
227.067
227.08
227.092
227.103
227.114
227.124
227.133
227.141
227.149
227.156
227.162
227.168
227.174
227.178
227.183
227.187
227.19
227.193
227.196
227.198
227.2
227.202
227.203
227.204
227.205
227.205
227.205
227.205
227.204
227.204
227.204
227.207
227.208
227.212
227.213
227.218
227.222
227.227
227.231
227.236
227.227
140.803
211.379
219.556
219.644
220.102
220.338
220.55
220.774
221.038
221.292
221.51
221.684
221.821
221.936
222.047
222.165
222.294
222.43
222.571
222.714
222.857
222.999
223.137
223.272
223.404
223.534
223.662
223.787
223.91
224.03
224.147
224.262
224.375
224.486
224.594
224.7
224.805
224.908
225.009
225.108
225.204
225.299
225.391
225.481
225.568
225.653
225.735
225.815
225.891
225.965
226.036
226.104
226.169
226.231
226.291
226.347
226.401
226.452
226.501
226.548
226.593
226.635
226.675
226.714
226.751
226.786
226.82
226.852
226.883
226.913
226.942
226.969
226.995
227.021
227.045
227.068
227.091
227.112
227.133
227.152
227.171
227.188
227.205
227.221
227.236
227.25
227.263
227.276
227.288
227.299
227.309
227.319
227.328
227.336
227.344
227.351
227.358
227.364
227.37
227.375
227.38
227.384
227.388
227.392
227.395
227.397
227.399
227.401
227.403
227.404
227.407
227.412
227.415
227.421
227.423
227.429
227.433
227.439
227.445
227.451
227.446
141.42
211.682
219.575
219.627
220.093
220.332
220.544
220.768
221.032
221.285
221.504
221.678
221.816
221.932
222.044
222.163
222.292
222.429
222.571
222.714
222.857
222.998
223.137
223.272
223.404
223.534
223.661
223.787
223.909
224.029
224.146
224.261
224.374
224.485
224.593
224.699
224.803
224.906
225.007
225.106
225.203
225.298
225.39
225.48
225.567
225.653
225.735
225.815
225.892
225.967
226.039
226.107
226.174
226.237
226.298
226.356
226.412
226.465
226.517
226.566
226.613
226.658
226.702
226.744
226.784
226.823
226.861
226.897
226.933
226.967
227
227.032
227.063
227.093
227.122
227.15
227.178
227.204
227.229
227.253
227.277
227.299
227.32
227.341
227.36
227.379
227.397
227.413
227.429
227.444
227.458
227.472
227.484
227.496
227.507
227.518
227.528
227.537
227.546
227.554
227.561
227.568
227.574
227.58
227.585
227.59
227.594
227.598
227.602
227.605
227.609
227.616
227.621
227.628
227.632
227.639
227.644
227.65
227.657
227.663
227.662
142.074
211.965
219.594
219.608
220.084
220.325
220.539
220.763
221.026
221.28
221.498
221.672
221.81
221.927
222.041
222.16
222.29
222.428
222.57
222.713
222.856
222.998
223.136
223.271
223.404