/*--------------------------------*- C++ -*----------------------------------*\
| =========                 |                                                 |
| \\      /  F ield         | OpenFOAM: The Open Source CFD Toolbox           |
|  \\    /   O peration     | Version:  2412                                  |
|   \\  /    A nd           | Website:  www.openfoam.com                      |
|    \\/     M anipulation  |                                                 |
\*---------------------------------------------------------------------------*/
FoamFile
{
    version     2.0;
    format      ascii;
    arch        "LSB;label=32;scalar=64";
    class       volScalarField;
    location    "0.1";
    object      T;
}
// * * * * * * * * * * * * * * * * * * * * * * * * * * * * * * * * * * * * * //

dimensions      [0 0 0 1 0 0 0];

internalField   nonuniform List<scalar> 
78650
(
239.796
226.095
225.489
225.219
224.923
224.679
224.47
224.296
224.143
223.997
223.848
223.698
223.564
223.455
223.377
223.322
223.281
223.243
223.199
223.142
223.068
222.978
222.878
222.775
222.674
222.581
222.495
222.414
222.338
222.266
222.2
222.141
222.086
222.036
221.988
221.941
221.896
221.853
221.812
221.773
221.737
221.703
221.672
221.643
221.615
221.589
221.566
221.544
221.524
221.506
221.489
221.474
221.46
221.447
221.436
221.426
221.418
221.41
221.403
221.397
221.389
221.38
221.369
221.355
221.34
221.321
221.297
221.267
221.23
221.185
221.132
221.068
220.992
220.903
220.798
220.676
220.534
220.37
220.18
219.963
219.715
219.434
219.114
218.752
218.343
217.884
217.369
216.797
216.161
215.458
214.676
213.812
212.854
211.816
210.672
209.448
208.111
206.67
205.109
203.456
201.725
199.936
198.088
196.163
194.231
192.278
190.42
188.425
186.417
184.582
182.864
181.334
179.784
178.287
176.85
175.505
174.46
173.706
173.249
173.055
171.735
239.008
226.079
225.526
225.268
224.951
224.691
224.483
224.315
224.167
224.027
223.882
223.733
223.596
223.479
223.392
223.33
223.286
223.249
223.21
223.16
223.093
223.01
222.914
222.813
222.713
222.619
222.533
222.454
222.379
222.31
222.245
222.187
222.135
222.087
222.042
221.999
221.958
221.917
221.879
221.844
221.812
221.782
221.754
221.729
221.705
221.684
221.664
221.647
221.632
221.619
221.607
221.597
221.589
221.582
221.577
221.574
221.572
221.571
221.572
221.573
221.573
221.573
221.572
221.569
221.563
221.556
221.545
221.528
221.506
221.477
221.44
221.394
221.339
221.271
221.19
221.094
220.98
220.846
220.69
220.509
220.301
220.063
219.79
219.48
219.127
218.729
218.278
217.773
217.207
216.577
215.874
215.097
214.236
213.296
212.255
211.138
209.912
208.601
207.186
205.649
204.031
202.31
200.453
198.539
196.629
194.687
192.796
190.851
188.832
186.901
184.983
183.197
181.551
179.943
178.389
176.912
175.668
174.686
174.058
173.714
172.277
238.232
225.928
225.529
225.278
224.962
224.699
224.493
224.33
224.19
224.056
223.917
223.772
223.632
223.509
223.412
223.342
223.293
223.255
223.22
223.177
223.118
223.042
222.951
222.852
222.752
222.659
222.573
222.495
222.422
222.354
222.292
222.235
222.185
222.14
222.098
222.058
222.02
221.983
221.948
221.917
221.888
221.861
221.838
221.816
221.797
221.779
221.764
221.752
221.741
221.733
221.727
221.722
221.72
221.719
221.72
221.723
221.728
221.734
221.742
221.751
221.76
221.768
221.776
221.783
221.789
221.792
221.793
221.79
221.782
221.768
221.748
221.72
221.683
221.636
221.577
221.506
221.418
221.313
221.189
221.041
220.87
220.671
220.441
220.177
219.875
219.53
219.138
218.696
218.199
217.644
217.023
216.331
215.558
214.703
213.751
212.718
211.579
210.363
209.042
207.622
206.087
204.43
202.653
200.823
198.992
197.045
195.024
193.111
191.077
189.079
187.122
185.128
183.276
181.534
179.876
178.338
176.978
175.807
174.965
174.42
172.578
237.511
225.831
225.499
225.26
224.95
224.691
224.49
224.335
224.207
224.084
223.953
223.813
223.674
223.546
223.439
223.359
223.303
223.263
223.23
223.192
223.142
223.074
222.989
222.893
222.795
222.701
222.616
222.538
222.467
222.401
222.34
222.285
222.237
222.194
222.155
222.118
222.084
222.05
222.019
221.991
221.965
221.943
221.923
221.906
221.89
221.877
221.866
221.858
221.852
221.849
221.848
221.849
221.852
221.856
221.863
221.872
221.884
221.897
221.912
221.928
221.945
221.963
221.98
221.996
222.012
222.026
222.038
222.048
222.053
222.054
222.049
222.038
222.02
221.992
221.955
221.906
221.844
221.767
221.672
221.558
221.421
221.261
221.073
220.855
220.603
220.313
219.981
219.603
219.173
218.689
218.142
217.529
216.841
216.076
215.223
214.289
213.254
212.136
210.9
209.568
208.126
206.577
204.947
203.166
201.262
199.337
197.307
195.275
193.281
191.201
189.271
187.228
185.195
183.266
181.407
179.757
178.351
177.146
176.271
175.688
173.724
236.725
225.727
225.452
225.234
224.935
224.678
224.484
224.335
224.212
224.101
223.984
223.856
223.721
223.59
223.474
223.384
223.318
223.273
223.24
223.208
223.165
223.106
223.028
222.936
222.839
222.745
222.66
222.583
222.513
222.449
222.39
222.337
222.29
222.25
222.213
222.18
222.149
222.12
222.092
222.067
222.045
222.027
222.011
221.998
221.986
221.978
221.971
221.967
221.966
221.968
221.972
221.978
221.986
221.997
222.009
222.025
222.042
222.062
222.084
222.108
222.133
222.159
222.184
222.21
222.236
222.261
222.284
222.306
222.324
222.339
222.349
222.354
222.353
222.344
222.328
222.301
222.262
222.211
222.144
222.06
221.957
221.832
221.683
221.507
221.3
221.06
220.781
220.46
220.092
219.675
219.203
218.672
218.073
217.402
216.65
215.818
214.89
213.876
212.75
211.535
210.203
208.768
207.215
205.552
203.739
201.862
199.941
197.855
195.872
193.752
191.668
189.613
187.507
185.496
183.46
181.537
179.855
178.392
177.299
176.56
174.396
235.899
225.724
225.422
225.206
224.915
224.663
224.471
224.324
224.206
224.102
224
223.89
223.768
223.64
223.518
223.416
223.339
223.287
223.252
223.223
223.187
223.136
223.067
222.981
222.887
222.793
222.707
222.631
222.562
222.499
222.442
222.391
222.346
222.308
222.274
222.244
222.217
222.191
222.167
222.146
222.128
222.113
222.101
222.092
222.085
222.08
222.079
222.079
222.083
222.089
222.098
222.11
222.123
222.139
222.158
222.179
222.203
222.229
222.258
222.289
222.322
222.356
222.39
222.425
222.46
222.495
222.529
222.562
222.593
222.621
222.645
222.665
222.681
222.69
222.693
222.687
222.671
222.645
222.605
222.55
222.478
222.388
222.276
222.141
221.979
221.788
221.562
221.299
220.994
220.643
220.242
219.785
219.264
218.675
218.009
217.267
216.434
215.516
214.492
213.379
212.154
210.835
209.393
207.826
206.144
204.293
202.427
200.398
198.336
196.235
194.007
191.903
189.697
187.589
185.458
183.418
181.56
179.966
178.712
177.805
175.131
235.003
225.74
225.387
225.166
224.886
224.638
224.445
224.3
224.189
224.094
224.002
223.907
223.804
223.688
223.567
223.456
223.368
223.306
223.267
223.238
223.207
223.165
223.105
223.027
222.937
222.844
222.758
222.681
222.613
222.552
222.496
222.447
222.404
222.368
222.337
222.31
222.286
222.264
222.244
222.226
222.212
222.201
222.194
222.189
222.187
222.186
222.189
222.194
222.202
222.213
222.227
222.244
222.263
222.285
222.309
222.336
222.366
222.399
222.434
222.473
222.513
222.554
222.597
222.641
222.685
222.729
222.774
222.819
222.862
222.902
222.94
222.975
223.007
223.033
223.053
223.067
223.072
223.069
223.055
223.028
222.985
222.927
222.849
222.752
222.63
222.483
222.305
222.094
221.846
221.556
221.221
220.836
220.395
219.894
219.323
218.679
217.951
217.142
216.237
215.244
214.139
212.927
211.581
210.12
208.534
206.83
205.002
203.074
200.986
198.94
196.722
194.547
192.335
190.082
187.887
185.708
183.722
181.945
180.564
179.582
176.751
234.037
225.712
225.397
225.147
224.858
224.605
224.41
224.266
224.159
224.073
223.992
223.909
223.821
223.723
223.613
223.501
223.403
223.33
223.284
223.254
223.226
223.192
223.142
223.074
222.989
222.898
222.812
222.735
222.667
222.606
222.552
222.505
222.464
222.43
222.401
222.377
222.357
222.339
222.323
222.309
222.299
222.292
222.288
222.288
222.29
222.295
222.302
222.311
222.324
222.34
222.359
222.381
222.405
222.432
222.462
222.495
222.531
222.57
222.612
222.657
222.704
222.754
222.804
222.856
222.91
222.964
223.018
223.073
223.128
223.181
223.232
223.281
223.327
223.369
223.407
223.44
223.465
223.483
223.492
223.492
223.478
223.451
223.407
223.345
223.263
223.158
223.027
222.868
222.675
222.445
222.175
221.86
221.493
221.07
220.584
220.03
219.399
218.692
217.894
217.005
216.003
214.896
213.67
212.348
210.902
209.33
207.616
205.775
203.792
201.701
199.57
197.294
195.082
192.707
190.4
188.084
185.907
184.018
182.437
181.26
178.204
232.997
225.694
225.374
225.128
224.842
224.581
224.376
224.223
224.114
224.033
223.964
223.897
223.823
223.741
223.646
223.54
223.438
223.357
223.303
223.269
223.244
223.215
223.176
223.118
223.042
222.955
222.869
222.792
222.724
222.663
222.61
222.564
222.525
222.494
222.468
222.447
222.429
222.415
222.403
222.394
222.387
222.384
222.385
222.389
222.396
222.405
222.416
222.431
222.448
222.469
222.492
222.519
222.549
222.581
222.617
222.656
222.698
222.743
222.791
222.843
222.897
222.954
223.013
223.073
223.135
223.198
223.262
223.328
223.393
223.458
223.522
223.584
223.644
223.702
223.756
223.806
223.851
223.89
223.921
223.943
223.956
223.958
223.944
223.916
223.87
223.804
223.715
223.601
223.459
223.285
223.073
222.822
222.526
222.181
221.779
221.316
220.781
220.175
219.485
218.708
217.826
216.848
215.758
214.563
213.229
211.767
210.159
208.406
206.539
204.464
202.398
200.119
197.843
195.391
192.996
190.585
188.251
186.146
184.335
182.955
179.314
231.888
225.648
225.39
225.134
224.843
224.568
224.349
224.181
224.061
223.979
223.919
223.868
223.812
223.742
223.659
223.566
223.468
223.384
223.324
223.286
223.26
223.236
223.205
223.159
223.093
223.012
222.929
222.851
222.783
222.723
222.67
222.625
222.588
222.559
222.535
222.517
222.503
222.493
222.485
222.479
222.477
222.478
222.483
222.491
222.502
222.516
222.532
222.551
222.574
222.599
222.628
222.659
222.694
222.732
222.773
222.817
222.865
222.916
222.971
223.029
223.09
223.154
223.22
223.288
223.358
223.43
223.504
223.579
223.655
223.731
223.806
223.881
223.955
224.027
224.097
224.164
224.227
224.285
224.337
224.383
224.42
224.447
224.463
224.467
224.455
224.427
224.38
224.31
224.216
224.094
223.941
223.752
223.523
223.249
222.924
222.545
222.101
221.592
221.004
220.336
219.572
218.72
217.762
216.693
215.489
214.161
212.685
211.072
209.317
207.442
205.427
203.283
200.99
198.624
196.156
193.727
191.221
188.971
186.996
185.484
181.887
230.735
225.522
225.383
225.157
224.859
224.571
224.332
224.145
224.01
223.917
223.857
223.817
223.778
223.728
223.659
223.573
223.483
223.402
223.34
223.299
223.274
223.255
223.231
223.197
223.142
223.07
222.99
222.913
222.844
222.784
222.732
222.688
222.652
222.624
222.603
222.588
222.578
222.571
222.567
222.565
222.567
222.573
222.582
222.594
222.61
222.628
222.649
222.673
222.7
222.73
222.764
222.801
222.84
222.883
222.93
222.979
223.033
223.09
223.15
223.215
223.282
223.353
223.427
223.503
223.581
223.661
223.744
223.828
223.914
224.001
224.088
224.175
224.261
224.347
224.432
224.514
224.594
224.67
224.742
224.808
224.869
224.921
224.963
224.995
225.014
225.021
225.011
224.982
224.932
224.858
224.756
224.624
224.457
224.252
224.003
223.705
223.35
222.934
222.447
221.888
221.245
220.516
219.679
218.73
217.653
216.454
215.111
213.644
212.029
210.258
208.323
206.244
203.925
201.555
198.959
196.449
193.71
191.297
189.096
187.337
182.992
229.569
225.342
225.337
225.178
224.889
224.582
224.324
224.12
223.966
223.858
223.79
223.751
223.724
223.694
223.644
223.57
223.484
223.404
223.343
223.302
223.278
223.262
223.247
223.225
223.186
223.125
223.051
222.975
222.907
222.847
222.795
222.751
222.716
222.69
222.672
222.66
222.653
222.65
222.65
222.652
222.658
222.668
222.681
222.698
222.718
222.741
222.767
222.795
222.827
222.862
222.9
222.942
222.987
223.035
223.086
223.141
223.2
223.263
223.329
223.399
223.473
223.551
223.632
223.715
223.801
223.889
223.98
224.073
224.168
224.265
224.363
224.461
224.559
224.658
224.756
224.854
224.949
225.043
225.133
225.219
225.3
225.376
225.444
225.503
225.552
225.59
225.614
225.623
225.616
225.588
225.537
225.458
225.35
225.207
225.026
224.802
224.527
224.2
223.809
223.355
222.821
222.204
221.486
220.668
219.737
218.694
217.521
216.22
214.754
213.134
211.346
209.388
207.288
205.025
202.615
200.103
197.447
194.914
192.603
190.663
186.022
228.49
225.1
225.241
225.165
224.912
224.598
224.326
224.108
223.938
223.813
223.729
223.68
223.656
223.638
223.605
223.548
223.473
223.397
223.336
223.295
223.271
223.258
223.25
223.24
223.217
223.174
223.11
223.038
222.97
222.91
222.859
222.815
222.781
222.756
222.74
222.731
222.727
222.728
222.732
222.738
222.748
222.762
222.78
222.801
222.826
222.853
222.884
222.917
222.953
222.993
223.036
223.083
223.132
223.186
223.242
223.302
223.366
223.434
223.506
223.582
223.662
223.746
223.834
223.924
224.018
224.114
224.212
224.314
224.418
224.524
224.632
224.741
224.851
224.961
225.073
225.184
225.294
225.403
225.511
225.615
225.716
225.813
225.904
225.988
226.065
226.132
226.188
226.23
226.259
226.272
226.267
226.238
226.184
226.1
225.983
225.83
225.634
225.391
225.092
224.734
224.304
223.799
223.206
222.524
221.738
220.843
219.818
218.65
217.31
215.82
214.164
212.35
210.345
208.132
205.807
203.156
200.575
197.839
195.412
193.436
188.905
227.549
224.79
225.077
225.088
224.918
224.619
224.335
224.108
223.927
223.788
223.685
223.62
223.587
223.567
223.544
223.503
223.442
223.373
223.316
223.278
223.257
223.248
223.245
223.243
223.233
223.209
223.162
223.098
223.033
222.973
222.922
222.879
222.846
222.822
222.808
222.801
222.801
222.807
222.814
222.824
222.838
222.856
222.878
222.903
222.933
222.965
223
223.038
223.079
223.123
223.171
223.222
223.277
223.335
223.396
223.461
223.53
223.604
223.681
223.763
223.849
223.939
224.032
224.129
224.23
224.333
224.439
224.549
224.661
224.776
224.893
225.012
225.133
225.255
225.378
225.502
225.626
225.75
225.873
225.994
226.113
226.23
226.343
226.45
226.552
226.646
226.732
226.807
226.871
226.921
226.955
226.972
226.971
226.941
226.885
226.794
226.668
226.5
226.285
226.018
225.688
225.294
224.821
224.267
223.615
222.856
221.97
220.949
219.779
218.47
216.993
215.356
213.53
211.504
209.267
206.874
204.344
201.555
198.803
196.448
191.256
226.762
224.406
224.824
224.933
224.867
224.629
224.356
224.119
223.931
223.783
223.67
223.591
223.538
223.502
223.472
223.436
223.387
223.329
223.279
223.247
223.231
223.225
223.228
223.236
223.237
223.228
223.201
223.152
223.093
223.035
222.984
222.942
222.909
222.886
222.874
222.87
222.873
222.883
222.895
222.909
222.927
222.948
222.974
223.004
223.038
223.075
223.114
223.157
223.202
223.251
223.304
223.36
223.419
223.482
223.548
223.618
223.692
223.77
223.853
223.94
224.031
224.127
224.227
224.33
224.437
224.548
224.661
224.778
224.898
225.022
225.148
225.276
225.407
225.539
225.673
225.809
225.946
226.083
226.221
226.358
226.494
226.628
226.76
226.889
227.014
227.132
227.245
227.349
227.445
227.529
227.602
227.658
227.698
227.718
227.719
227.689
227.63
227.533
227.397
227.216
226.981
226.689
226.328
225.892
225.365
224.74
223.999
223.14
222.15
221.023
219.724
218.256
216.587
214.723
212.63
210.313
207.774
205.282
202.452
200.249
195.588
226.159
223.981
224.446
224.708
224.752
224.63
224.385
224.144
223.947
223.792
223.675
223.589
223.523
223.469
223.422
223.375
223.323
223.268
223.222
223.195
223.184
223.185
223.196
223.217
223.23
223.232
223.222
223.194
223.146
223.093
223.045
223.003
222.971
222.95
222.938
222.936
222.943
222.958
222.974
222.992
223.014
223.039
223.069
223.103
223.142
223.183
223.227
223.274
223.324
223.377
223.434
223.495
223.559
223.627
223.698
223.772
223.851
223.934
224.021
224.113
224.21
224.311
224.416
224.526
224.639
224.756
224.876
225
225.127
225.259
225.393
225.53
225.67
225.812
225.956
226.103
226.251
226.401
226.552
226.703
226.854
227.005
227.155
227.304
227.449
227.59
227.727
227.858
227.983
228.099
228.206
228.301
228.383
228.446
228.492
228.516
228.519
228.488
228.424
228.32
228.171
227.973
227.713
227.387
226.98
226.487
225.896
225.2
224.38
223.42
222.291
220.997
219.503
217.815
215.891
213.764
211.388
208.938
206.113
203.496
198.299
225.781
223.603
223.976
224.368
224.553
224.55
224.393
224.182
223.99
223.829
223.702
223.602
223.526
223.464
223.407
223.346
223.279
223.215
223.162
223.132
223.124
223.133
223.148
223.179
223.208
223.224
223.227
223.218
223.188
223.145
223.1
223.061
223.03
223.01
223.001
223.001
223.011
223.03
223.05
223.073
223.099
223.128
223.162
223.2
223.243
223.289
223.338
223.389
223.443
223.501
223.562
223.627
223.696
223.768
223.844
223.923
224.006
224.094
224.186
224.282
224.384
224.49
224.601
224.716
224.835
224.958
225.084
225.215
225.349
225.487
225.629
225.774
225.923
226.074
226.227
226.384
226.543
226.705
226.868
227.032
227.197
227.363
227.529
227.695
227.859
228.021
228.18
228.335
228.485
228.629
228.766
228.895
229.013
229.118
229.209
229.281
229.333
229.361
229.366
229.334
229.266
229.153
228.988
228.768
228.48
228.12
227.672
227.127
226.462
225.661
224.706
223.593
222.297
220.818
219.108
217.181
215.011
212.658
210.154
207.729
203.081
225.607
223.327
223.535
223.92
224.245
224.372
224.341
224.195
224.023
223.878
223.752
223.648
223.558
223.481
223.412
223.342
223.269
223.196
223.131
223.085
223.067
223.073
223.091
223.126
223.172
223.208
223.224
223.225
223.214
223.186
223.15
223.115
223.086
223.068
223.06
223.062
223.077
223.099
223.124
223.152
223.182
223.215
223.252
223.295
223.341
223.392
223.445
223.501
223.56
223.622
223.687
223.756
223.829
223.906
223.986
224.069
224.157
224.249
224.345
224.447
224.553
224.664
224.78
224.9
225.024
225.153
225.285
225.422
225.562
225.707
225.856
226.009
226.165
226.324
226.486
226.652
226.821
226.993
227.167
227.343
227.521
227.7
227.881
228.062
228.243
228.423
228.602
228.778
228.952
229.122
229.286
229.445
229.596
229.737
229.867
229.984
230.085
230.165
230.223
230.256
230.262
230.228
230.154
230.03
229.848
229.603
229.277
228.861
228.336
227.691
226.912
225.989
224.894
223.615
222.114
220.392
218.379
216.153
213.648
211.051
206.499
225.553
223.173
223.264
223.483
223.83
224.085
224.189
224.154
224.027
223.905
223.803
223.705
223.608
223.518
223.432
223.353
223.276
223.2
223.129
223.071
223.037
223.03
223.04
223.07
223.122
223.173
223.208
223.222
223.223
223.213
223.189
223.161
223.137
223.122
223.117
223.121
223.14
223.165
223.195
223.227
223.262
223.299
223.34
223.387
223.437
223.492
223.55
223.61
223.673
223.739
223.809
223.882
223.959
224.04
224.124
224.212
224.303
224.399
224.5
224.606
224.716
224.832
224.952
225.077
225.207
225.341
225.479
225.621
225.767
225.918
226.073
226.233
226.396
226.563
226.733
226.907
227.085
227.266
227.45
227.637
227.826
228.018
228.211
228.406
228.603
228.799
228.996
229.191
229.385
229.577
229.766
229.951
230.131
230.305
230.47
230.625
230.767
230.896
231.007
231.096
231.161
231.198
231.206
231.169
231.085
230.944
230.735
230.452
230.079
229.607
229.02
228.298
227.41
226.342
225.06
223.55
221.781
219.817
217.547
215.2
211.164
225.583
223.139
223.141
223.164
223.378
223.686
223.926
224.016
223.985
223.903
223.819
223.743
223.666
223.577
223.482
223.389
223.3
223.216
223.141
223.078
223.034
223.014
223.013
223.029
223.074
223.132
223.182
223.213
223.226
223.226
223.217
223.199
223.182
223.171
223.169
223.177
223.199
223.229
223.263
223.3
223.339
223.381
223.426
223.476
223.531
223.59
223.652
223.716
223.783
223.853
223.927
224.004
224.085
224.169
224.258
224.35
224.445
224.545
224.65
224.76
224.874
224.994
225.119
225.248
225.383
225.521
225.664
225.812
225.964
226.12
226.281
226.447
226.616
226.79
226.967
227.149
227.334
227.524
227.717
227.913
228.113
228.315
228.52
228.728
228.937
229.148
229.36
229.573
229.785
229.997
230.207
230.416
230.621
230.822
231.018
231.207
231.388
231.557
231.713
231.854
231.977
232.075
232.147
232.188
232.196
232.154
232.058
231.898
231.663
231.34
230.907
230.344
229.627
228.743
227.665
226.372
224.835
223.037
220.957
218.624
215.054
225.641
223.173
223.082
222.975
223.018
223.238
223.55
223.777
223.867
223.858
223.804
223.747
223.685
223.621
223.544
223.451
223.353
223.259
223.171
223.097
223.042
223.013
223.006
223.015
223.046
223.099
223.154
223.197
223.221
223.231
223.233
223.227
223.218
223.213
223.215
223.23
223.255
223.289
223.328
223.37
223.413
223.46
223.509
223.563
223.622
223.684
223.751
223.819
223.89
223.964
224.041
224.122
224.207
224.295
224.387
224.483
224.582
224.686
224.795
224.908
225.027
225.15
225.279
225.413
225.551
225.695
225.842
225.994
226.151
226.313
226.479
226.65
226.825
227.005
227.189
227.377
227.57
227.767
227.968
228.173
228.381
228.593
228.809
229.027
229.249
229.472
229.698
229.925
230.154
230.383
230.612
230.841
231.068
231.294
231.517
231.735
231.947
232.153
232.349
232.533
232.705
232.859
232.994
233.102
233.181
233.225
233.232
233.18
233.067
232.872
232.586
232.188
231.661
230.985
230.125
229.06
227.756
226.179
224.359
222.155
219.02
225.695
223.225
223.068
222.856
222.78
222.85
223.114
223.436
223.663
223.751
223.755
223.726
223.678
223.627
223.572
223.511
223.423
223.327
223.23
223.141
223.069
223.025
223.011
223.014
223.037
223.082
223.137
223.184
223.216
223.235
223.245
223.248
223.248
223.249
223.258
223.277
223.307
223.346
223.389
223.436
223.485
223.536
223.589
223.647
223.71
223.776
223.846
223.919
223.994
224.072
224.153
224.237
224.325
224.417
224.512
224.611
224.715
224.822
224.934
225.051
225.173
225.301
225.433
225.571
225.713
225.861
226.013
226.169
226.331
226.497
226.668
226.844
227.024
227.21
227.399
227.594
227.792
227.996
228.204
228.417
228.633
228.854
229.078
229.306
229.538
229.773
230.01
230.25
230.492
230.736
230.982
231.228
231.475
231.721
231.967
232.21
232.451
232.687
232.917
233.14
233.353
233.555
233.742
233.911
234.059
234.176
234.263
234.308
234.313
234.244
234.108
233.875
233.54
233.07
232.436
231.615
230.552
229.215
227.614
225.606
222.771
225.741
223.273
223.065
222.786
222.619
222.582
222.72
223.042
223.377
223.582
223.661
223.667
223.644
223.612
223.573
223.532
223.478
223.4
223.308
223.211
223.122
223.058
223.027
223.023
223.038
223.077
223.129
223.178
223.215
223.24
223.256
223.266
223.273
223.282
223.296
223.321
223.357
223.4
223.449
223.501
223.554
223.609
223.667
223.729
223.795
223.866
223.939
224.015
224.094
224.175
224.26
224.348
224.439
224.534
224.633
224.735
224.842
224.953
225.068
225.189
225.314
225.445
225.581
225.722
225.869
226.02
226.175
226.336
226.501
226.672
226.847
227.027
227.213
227.403
227.598
227.797
228.002
228.211
228.426
228.645
228.868
229.096
229.328
229.565
229.805
230.05
230.298
230.549
230.803
231.059
231.319
231.58
231.843
232.107
232.373
232.638
232.902
233.164
233.423
233.678
233.927
234.169
234.4
234.621
234.825
235.01
235.172
235.299
235.391
235.438
235.439
235.345
235.175
234.874
234.436
233.822
232.974
231.873
230.487
228.71
226.188
225.783
223.304
223.053
222.739
222.508
222.401
222.437
222.668
223.038
223.35
223.519
223.576
223.58
223.571
223.554
223.53
223.497
223.448
223.38
223.293
223.198
223.116
223.063
223.047
223.052
223.08
223.128
223.178
223.217
223.247
223.269
223.284
223.297
223.312
223.332
223.363
223.404
223.452
223.506
223.563
223.621
223.68
223.742
223.808
223.878
223.952
224.03
224.109
224.191
224.276
224.364
224.455
224.55
224.648
224.749
224.855
224.965
225.079
225.197
225.321
225.45
225.584
225.723
225.868
226.017
226.172
226.331
226.495
226.664
226.838
227.018
227.202
227.392
227.586
227.786
227.99
228.199
228.414
228.634
228.859
229.089
229.323
229.562
229.805
230.054
230.306
230.563
230.823
231.088
231.355
231.626
231.901
232.178
232.457
232.738
233.021
233.305
233.589
233.873
234.154
234.433
234.709
234.978
235.241
235.493
235.733
235.957
236.159
236.336
236.473
236.572
236.616
236.599
236.466
236.236
235.856
235.281
234.475
233.326
231.785
229.492
225.82
223.313
223.04
222.702
222.434
222.277
222.246
222.368
222.7
223.079
223.334
223.451
223.489
223.503
223.508
223.508
223.494
223.466
223.424
223.363
223.281
223.192
223.121
223.086
223.08
223.095
223.135
223.183
223.224
223.257
223.283
223.303
223.321
223.341
223.367
223.404
223.45
223.503
223.561
223.623
223.685
223.749
223.815
223.885
223.959
224.037
224.117
224.2
224.285
224.373
224.464
224.559
224.656
224.757
224.862
224.97
225.083
225.2
225.322
225.448
225.58
225.717
225.859
226.007
226.16
226.317
226.48
226.647
226.82
226.997
227.18
227.368
227.561
227.76
227.963
228.172
228.385
228.605
228.829
229.059
229.294
229.534
229.779
230.029
230.284
230.543
230.808
231.076
231.349
231.626
231.907
232.192
232.481
232.773
233.068
233.366
233.666
233.968
234.272
234.576
234.88
235.183
235.483
235.781
236.073
236.358
236.633
236.896
237.141
237.362
237.554
237.702
237.808
237.847
237.806
237.634
237.309
236.772
235.872
234.648
232.585
225.838
223.294
223.019
222.661
222.376
222.185
222.112
222.159
222.404
222.794
223.118
223.297
223.374
223.413
223.442
223.465
223.475
223.466
223.441
223.406
223.351
223.273
223.193
223.139
223.122
223.124
223.151
223.194
223.235
223.27
223.299
223.323
223.345
223.37
223.402
223.444
223.495
223.553
223.616
223.681
223.748
223.816
223.886
223.96
224.037
224.119
224.202
224.288
224.377
224.468
224.562
224.659
224.759
224.863
224.97
225.082
225.197
225.317
225.441
225.57
225.705
225.845
225.99
226.141
226.296
226.457
226.622
226.793
226.968
227.149
227.334
227.526
227.722
227.924
228.131
228.344
228.561
228.785
229.014
229.248
229.488
229.732
229.982
230.238
230.498
230.764
231.035
231.311
231.591
231.876
232.165
232.459
232.758
233.06
233.367
233.677
233.992
234.309
234.629
234.951
235.275
235.601
235.927
236.253
236.577
236.899
237.216
237.527
237.827
238.115
238.384
238.63
238.842
239.001
239.098
239.115
239.029
238.774
238.185
237.371
235.606
225.85
223.259
222.977
222.61
222.325
222.116
222.014
222.014
222.165
222.521
222.889
223.125
223.242
223.307
223.358
223.405
223.44
223.451
223.445
223.426
223.396
223.341
223.266
223.202
223.171
223.164
223.176
223.212
223.251
223.287
223.318
223.345
223.371
223.4
223.438
223.485
223.541
223.603
223.67
223.739
223.809
223.881
223.955
224.032
224.114
224.198
224.285
224.374
224.465
224.559
224.656
224.756
224.859
224.965
225.075
225.189
225.307
225.429
225.556
225.688
225.825
225.968
226.116
226.269
226.427
226.59
226.758
226.931
227.11
227.293
227.482
227.676
227.876
228.081
228.291
228.507
228.728
228.955
229.188
229.426
229.67
229.919
230.174
230.434
230.7
230.971
231.247
231.529
231.816
232.107
232.404
232.706
233.013
233.324
233.641
233.962
234.287
234.617
234.951
235.288
235.629
235.973
236.319
236.668
237.018
237.37
237.72
238.069
238.415
238.754
239.084
239.402
239.699
239.97
240.191
240.355
240.465
240.49
240.232
239.832
238.607
225.856
223.203
222.912
222.548
222.275
222.059
221.935
221.902
221.982
222.278
222.665
222.947
223.101
223.192
223.265
223.334
223.392
223.426
223.438
223.433
223.421
223.388
223.329
223.264
223.224
223.21
223.211
223.236
223.273
223.308
223.341
223.37
223.399
223.433
223.475
223.527
223.587
223.654
223.724
223.796
223.87
223.945
224.022
224.103
224.188
224.276
224.365
224.457
224.551
224.647
224.747
224.849
224.955
225.063
225.176
225.292
225.412
225.537
225.666
225.801
225.941
226.086
226.236
226.392
226.552
226.718
226.889
227.064
227.245
227.431
227.623
227.82
228.022
228.23
228.444
228.662
228.887
229.117
229.353
229.595
229.843
230.096
230.355
230.619
230.889
231.165
231.447
231.734
232.026
232.324
232.627
232.936
233.25
233.569
233.894
234.223
234.559
234.899
235.244
235.594
235.948
236.307
236.67
237.038
237.409
237.783
238.16
238.539
238.92
239.299
239.676
240.048
240.412
240.765
241.09
241.383
241.624
241.831
241.935
241.819
241.322
225.855
223.133
222.827
222.478
222.222
222.008
221.867
221.809
221.844
222.071
222.453
222.772
222.962
223.077
223.17
223.257
223.336
223.392
223.423
223.432
223.43
223.415
223.375
223.319
223.275
223.256
223.252
223.267
223.3
223.334
223.367
223.399
223.43
223.466
223.513
223.569
223.634
223.704
223.777
223.853
223.929
224.007
224.088
224.172
224.26
224.351
224.443
224.537
224.634
224.733
224.835
224.939
225.047
225.158
225.273
225.391
225.513
225.64
225.772
225.909
226.052
226.199
226.352
226.51
226.673
226.841
227.014
227.192
227.375
227.563
227.757
227.957
228.162
228.373
228.589
228.811
229.038
229.272
229.511
229.757
230.008
230.264
230.527
230.795
231.07
231.35
231.636
231.928
232.225
232.529
232.837
233.152
233.473
233.799
234.131
234.468
234.812
235.161
235.516
235.876
236.242
236.613
236.99
237.372
237.76
238.152
238.55
238.952
239.358
239.767
240.179
240.591
241.003
241.411
241.809
242.192
242.549
242.885
243.193
243.357
243.429
225.836
223.048
222.728
222.401
222.163
221.958
221.804
221.726
221.733
221.894
222.259
222.61
222.833
222.97
223.079
223.181
223.276
223.351
223.4
223.424
223.431
223.426
223.405
223.362
223.321
223.3
223.293
223.302
223.332
223.365
223.398
223.43
223.463
223.503
223.553
223.614
223.682
223.755
223.831
223.908
223.987
224.068
224.152
224.24
224.331
224.424
224.518
224.615
224.713
224.815
224.919
225.026
225.136
225.249
225.366
225.486
225.611
225.74
225.874
226.013
226.158
226.307
226.462
226.622
226.788
226.958
227.133
227.313
227.499
227.689
227.886
228.088
228.295
228.509
228.727
228.952
229.182
229.419
229.661
229.91
230.164
230.424
230.69
230.962
231.24
231.525
231.815
232.111
232.413
232.721
233.035
233.355
233.682
234.014
234.352
234.697
235.047
235.404
235.767
236.136
236.511
236.893
237.28
237.674
238.074
238.481
238.893
239.312
239.736
240.166
240.601
241.038
241.481
241.923
242.363
242.797
243.214
243.629
244.014
244.314
244.616
225.777
222.945
222.62
222.316
222.096
221.902
221.741
221.647
221.634
221.744
222.085
222.464
222.719
222.877
222.997
223.109
223.217
223.307
223.371
223.41
223.425
223.428
223.419
223.393
223.36
223.34
223.334
223.34
223.367
223.4
223.431
223.463
223.498
223.541
223.595
223.659
223.73
223.805
223.883
223.963
224.045
224.128
224.215
224.306
224.399
224.494
224.591
224.689
224.79
224.894
225
225.109
225.221
225.336
225.454
225.577
225.703
225.835
225.971
226.112