/*--------------------------------*- C++ -*----------------------------------*\
| =========                 |                                                 |
| \\      /  F ield         | OpenFOAM: The Open Source CFD Toolbox           |
|  \\    /   O peration     | Version:  2412                                  |
|   \\  /    A nd           | Website:  www.openfoam.com                      |
|    \\/     M anipulation  |                                                 |
\*---------------------------------------------------------------------------*/
FoamFile
{
    version     2.0;
    format      ascii;
    arch        "LSB;label=32;scalar=64";
    class       volScalarField;
    location    "0.042";
    object      rho;
}
// * * * * * * * * * * * * * * * * * * * * * * * * * * * * * * * * * * * * * //

dimensions      [1 -3 0 0 0 0 0];

internalField   nonuniform List<scalar> 
78650
(
0.042133
0.042133
0.042133
0.042133
0.0421331
0.0421351
0.0421581
0.0422487
0.042384
0.0424697
0.0424784
0.0424444
0.0423056
0.0421437
0.0420249
0.0419426
0.0418783
0.0418123
0.0417341
0.0416488
0.0415757
0.0415365
0.0415285
0.0415447
0.0415862
0.0416222
0.0416365
0.0416368
0.0416269
0.0416103
0.0415958
0.0415833
0.0415703
0.0415559
0.0415409
0.0415262
0.0415121
0.0414984
0.0414852
0.0414723
0.0414602
0.041449
0.0414392
0.0414307
0.0414233
0.0414166
0.0414106
0.0414052
0.0414003
0.0413959
0.0413917
0.0413875
0.0413834
0.0413793
0.041375
0.0413706
0.041366
0.0413608
0.041355
0.041348
0.0413395
0.0413293
0.041317
0.0413026
0.0412857
0.0412658
0.0412424
0.0412151
0.0411833
0.0411466
0.0411042
0.0410555
0.0409996
0.0409358
0.0408631
0.0407804
0.0406868
0.0405813
0.0404627
0.0403298
0.040181
0.0400141
0.0398272
0.0396191
0.0393882
0.0391332
0.038852
0.0385446
0.0382074
0.0378368
0.0374264
0.0369842
0.0365077
0.0360061
0.0354572
0.0348614
0.0342139
0.0335203
0.0328258
0.0320673
0.0312742
0.0304788
0.0297206
0.0289321
0.0281086
0.0272866
0.0264751
0.0256895
0.0249593
0.0242585
0.0236002
0.0229915
0.0224076
0.0218664
0.0213746
0.0208956
0.0204508
0.0200191
0.0196292
0.0192888
0.018723
0.042133
0.042133
0.042133
0.042133
0.0421331
0.0421341
0.0421494
0.0422245
0.0423608
0.0424648
0.0424851
0.0424666
0.0423489
0.0421883
0.0420628
0.0419754
0.0419099
0.0418468
0.0417737
0.041692
0.0416155
0.041565
0.0415488
0.0415561
0.0415909
0.0416329
0.041656
0.0416611
0.0416561
0.0416417
0.0416268
0.0416147
0.0416032
0.0415908
0.0415776
0.0415644
0.0415518
0.0415398
0.0415281
0.0415171
0.0415067
0.0414974
0.0414894
0.0414829
0.0414775
0.041473
0.0414693
0.0414661
0.0414635
0.0414616
0.0414599
0.0414584
0.041457
0.0414557
0.0414544
0.0414531
0.0414517
0.04145
0.0414478
0.0414449
0.0414407
0.0414349
0.0414275
0.0414182
0.0414067
0.0413927
0.0413757
0.0413552
0.0413307
0.0413019
0.0412681
0.0412287
0.0411829
0.0411299
0.041069
0.0409992
0.0409195
0.0408289
0.0407266
0.0406111
0.0404811
0.0403351
0.040171
0.0399874
0.0397822
0.0395541
0.0393008
0.0390214
0.0387113
0.0383693
0.0379945
0.0375925
0.0371554
0.0366831
0.0361575
0.0355997
0.0350065
0.0343729
0.0337077
0.0329772
0.0322322
0.0314426
0.0306296
0.0298335
0.0290158
0.0281871
0.0273735
0.0265404
0.0257639
0.0250337
0.024313
0.0236503
0.0230201
0.0224354
0.0218957
0.0213806
0.0209144
0.020445
0.0199816
0.0195508
0.0188508
0.042133
0.042133
0.042133
0.042133
0.0421331
0.0421336
0.0421431
0.0422021
0.0423338
0.0424547
0.0424902
0.0424837
0.0423913
0.0422351
0.0421018
0.0420082
0.041941
0.0418805
0.0418126
0.0417361
0.0416596
0.0416003
0.0415743
0.0415741
0.0415977
0.0416412
0.0416741
0.0416853
0.0416842
0.0416736
0.041659
0.0416469
0.0416364
0.0416259
0.0416146
0.0416032
0.0415923
0.0415819
0.0415719
0.0415626
0.0415542
0.0415467
0.0415407
0.0415361
0.0415328
0.0415305
0.041529
0.0415281
0.0415279
0.0415284
0.0415293
0.0415304
0.0415318
0.0415333
0.041535
0.0415369
0.0415387
0.0415405
0.041542
0.0415429
0.0415429
0.0415416
0.041539
0.0415347
0.0415286
0.0415204
0.0415096
0.0414957
0.0414785
0.0414573
0.0414317
0.0414013
0.0413651
0.0413226
0.0412729
0.0412152
0.0411486
0.041072
0.0409847
0.0408855
0.0407732
0.0406463
0.0405028
0.040341
0.040159
0.0399558
0.0397295
0.0394791
0.0392011
0.0388947
0.0385582
0.0381924
0.0377898
0.0373504
0.0368651
0.0363517
0.0357919
0.0351949
0.0345523
0.033881
0.0331713
0.0324177
0.0316145
0.030808
0.0299899
0.0291386
0.0283086
0.0274433
0.0265706
0.0257505
0.0249463
0.0242062
0.0235148
0.0228779
0.0222989
0.0217501
0.0212535
0.0207626
0.0203055
0.0198752
0.0191392
0.042133
0.042133
0.042133
0.042133
0.042133
0.0421333
0.0421388
0.0421822
0.0423033
0.0424386
0.0424925
0.0424983
0.0424318
0.0422837
0.0421418
0.0420417
0.0419726
0.0419148
0.0418522
0.0417814
0.0417077
0.0416433
0.0416055
0.0415968
0.0416094
0.0416484
0.0416888
0.0417084
0.0417114
0.0417056
0.0416926
0.0416803
0.0416705
0.0416616
0.0416524
0.0416429
0.0416339
0.0416251
0.0416169
0.0416094
0.0416028
0.0415973
0.0415931
0.0415905
0.0415893
0.0415892
0.0415899
0.0415913
0.0415934
0.0415963
0.0415996
0.0416034
0.0416075
0.0416118
0.0416164
0.0416212
0.0416263
0.0416314
0.0416365
0.0416411
0.0416451
0.0416482
0.0416501
0.0416507
0.0416498
0.0416471
0.0416423
0.0416349
0.0416244
0.0416106
0.0415929
0.041571
0.0415441
0.0415116
0.0414727
0.0414268
0.0413728
0.04131
0.0412375
0.0411543
0.0410593
0.0409512
0.0408282
0.0406885
0.0405306
0.0403533
0.0401546
0.0399331
0.039685
0.0394099
0.0391066
0.038774
0.0384041
0.0379966
0.0375476
0.0370709
0.0365527
0.0360053
0.03541
0.0347594
0.0340647
0.033337
0.0325666
0.0317568
0.0309573
0.0301208
0.0292819
0.0284722
0.027618
0.0267791
0.025932
0.0251039
0.0243175
0.0235627
0.0228691
0.022236
0.0216664
0.0211149
0.0206036
0.0201223
0.0193168
0.042133
0.042133
0.042133
0.042133
0.042133
0.0421331
0.042136
0.0421657
0.042271
0.0424161
0.0424918
0.0425118
0.0424679
0.042332
0.0421828
0.0420769
0.042006
0.0419505
0.0418927
0.0418274
0.041758
0.041692
0.0416436
0.0416249
0.0416287
0.0416564
0.0416996
0.0417296
0.0417388
0.041737
0.0417272
0.0417154
0.0417059
0.0416983
0.041691
0.0416837
0.0416767
0.0416698
0.0416634
0.0416578
0.0416531
0.0416495
0.0416473
0.0416466
0.0416475
0.0416497
0.0416526
0.0416562
0.0416607
0.0416659
0.0416718
0.0416781
0.0416849
0.041692
0.0416995
0.0417073
0.0417155
0.0417239
0.0417325
0.0417409
0.041749
0.0417563
0.0417626
0.0417679
0.0417721
0.0417747
0.0417757
0.0417745
0.0417709
0.0417643
0.0417542
0.0417405
0.0417224
0.0416995
0.041671
0.0416362
0.0415943
0.0415444
0.0414858
0.0414174
0.0413386
0.0412478
0.0411437
0.0410247
0.0408889
0.040735
0.0405612
0.0403661
0.0401475
0.0399049
0.0396351
0.0393349
0.038999
0.0386313
0.0382314
0.0378034
0.0373284
0.0368137
0.0362415
0.0356361
0.0349886
0.0342883
0.0335558
0.0327541
0.0319344
0.0310858
0.0301941
0.0293353
0.0284696
0.0276145
0.0267922
0.0259546
0.0251446
0.0243745
0.0236217
0.0229231
0.0222727
0.021649
0.0210743
0.020528
0.0195521
0.042133
0.042133
0.042133
0.042133
0.042133
0.0421331
0.0421344
0.042153
0.0422385
0.0423868
0.0424879
0.0425233
0.0424965
0.0423789
0.042227
0.0421156
0.0420421
0.0419882
0.0419347
0.0418744
0.0418097
0.0417451
0.0416898
0.0416589
0.0416534
0.0416681
0.0417076
0.0417468
0.041765
0.0417675
0.0417623
0.0417521
0.0417429
0.0417363
0.0417308
0.0417258
0.041721
0.0417161
0.0417116
0.0417079
0.0417052
0.0417035
0.0417032
0.0417046
0.0417076
0.0417118
0.0417169
0.0417229
0.0417297
0.0417373
0.0417456
0.0417545
0.0417639
0.0417737
0.041784
0.0417948
0.0418061
0.0418177
0.0418297
0.0418418
0.0418536
0.041865
0.0418758
0.0418857
0.0418948
0.0419026
0.0419091
0.0419138
0.0419164
0.0419168
0.0419141
0.0419084
0.0418989
0.0418851
0.0418665
0.0418424
0.0418122
0.0417748
0.0417298
0.041676
0.0416129
0.0415393
0.0414539
0.0413552
0.0412412
0.0411107
0.0409621
0.0407944
0.040605
0.0403926
0.0401535
0.0398861
0.0395882
0.0392619
0.0389021
0.0385061
0.0380627
0.0375842
0.0370585
0.0365034
0.0358969
0.0352456
0.034557
0.0338114
0.0330199
0.0322097
0.0313493
0.0304329
0.0295402
0.028587
0.0276951
0.0267975
0.025913
0.0250862
0.0242834
0.023519
0.0227985
0.0221009
0.0214903
0.0209574
0.0200112
0.042133
0.042133
0.042133
0.042133
0.042133
0.0421331
0.0421336
0.0421441
0.042208
0.0423511
0.0424776
0.0425299
0.0425158
0.0424256
0.0422762
0.042158
0.0420806
0.0420274
0.0419779
0.0419222
0.0418618
0.0418001
0.0417418
0.0416994
0.0416834
0.0416874
0.0417155
0.0417587
0.0417886
0.041798
0.0417971
0.0417903
0.0417819
0.0417761
0.041772
0.0417691
0.0417667
0.0417641
0.0417617
0.0417599
0.0417591
0.0417595
0.0417612
0.0417645
0.0417694
0.0417758
0.0417833
0.0417916
0.0418006
0.0418106
0.0418213
0.0418328
0.0418448
0.0418574
0.0418705
0.0418842
0.0418985
0.0419133
0.0419286
0.0419443
0.04196
0.0419754
0.0419904
0.0420049
0.0420187
0.0420317
0.0420436
0.0420542
0.042063
0.0420698
0.0420742
0.042076
0.0420748
0.04207
0.042061
0.0420469
0.0420277
0.0420022
0.0419699
0.0419298
0.0418813
0.0418235
0.0417553
0.0416751
0.0415813
0.0414727
0.0413476
0.041205
0.0410426
0.0408594
0.0406519
0.0404188
0.0401576
0.0398689
0.0395469
0.0391893
0.0387881
0.038351
0.037868
0.0373525
0.036783
0.0361756
0.0355154
0.0348107
0.0340509
0.033244
0.0324314
0.0315478
0.0306869
0.0297637
0.028817
0.0278945
0.0269744
0.0260835
0.0252142
0.0243927
0.0235881
0.0227932
0.0220102
0.0213039
0.0200626
0.042133
0.042133
0.042133
0.042133
0.042133
0.042133
0.0421333
0.0421385
0.042182
0.0423102
0.0424578
0.0425313
0.0425298
0.0424705
0.0423296
0.0422033
0.0421215
0.0420683
0.0420226
0.0419712
0.041914
0.0418551
0.0417971
0.041747
0.0417189
0.0417133
0.0417274
0.0417673
0.0418076
0.0418277
0.0418318
0.0418292
0.0418228
0.0418178
0.0418149
0.0418138
0.0418138
0.0418136
0.0418134
0.0418138
0.041815
0.0418173
0.0418209
0.0418262
0.0418331
0.0418416
0.0418513
0.0418619
0.0418733
0.0418855
0.0418987
0.0419126
0.0419272
0.0419424
0.0419583
0.0419748
0.0419921
0.04201
0.0420286
0.0420477
0.042067
0.0420864
0.0421056
0.0421244
0.0421428
0.0421607
0.0421778
0.042194
0.0422088
0.042222
0.0422333
0.0422423
0.0422486
0.042252
0.0422524
0.0422483
0.0422398
0.0422257
0.0422057
0.0421788
0.0421446
0.0421023
0.0420509
0.041989
0.0419152
0.0418281
0.041726
0.041608
0.0414722
0.041317
0.0411393
0.0409385
0.0407124
0.0404593
0.0401725
0.0398509
0.039492
0.0391023
0.0386725
0.0382063
0.0376849
0.0371259
0.0365079
0.0358437
0.0351357
0.0343546
0.0335382
0.0326623
0.0317464
0.0308496
0.0298726
0.0289197
0.0279372
0.0269967
0.0260436
0.0251639
0.0243548
0.0236072
0.0228858
0.0221798
0.0208472
0.042133
0.042133
0.042133
0.042133
0.042133
0.042133
0.0421331
0.0421354
0.042162
0.0422675
0.0424265
0.0425275
0.0425412
0.0425096
0.0423837
0.0422513
0.0421652
0.0421108
0.0420679
0.0420198
0.0419648
0.041908
0.041852
0.0417991
0.0417605
0.0417454
0.0417485
0.0417764
0.0418214
0.0418546
0.0418675
0.0418689
0.0418658
0.0418619
0.0418599
0.0418601
0.0418624
0.0418647
0.0418669
0.0418694
0.0418727
0.041877
0.0418825
0.0418897
0.0418986
0.0419092
0.0419211
0.0419339
0.0419475
0.0419621
0.0419776
0.041994
0.0420112
0.042029
0.0420476
0.042067
0.0420871
0.0421081
0.0421299
0.0421524
0.0421753
0.0421986
0.0422218
0.0422449
0.0422678
0.0422904
0.0423127
0.0423342
0.0423548
0.0423742
0.042392
0.0424081
0.0424221
0.0424334
0.0424419
0.0424472
0.0424488
0.0424456
0.0424374
0.0424231
0.0424021
0.042374
0.0423379
0.0422928
0.0422372
0.0421699
0.0420891
0.0419941
0.041883
0.0417548
0.041607
0.0414383
0.0412456
0.0410266
0.0407772
0.0404987
0.040188
0.0398454
0.0394593
0.0390324
0.0385531
0.0380364
0.0374637
0.0368522
0.0361846
0.0354707
0.0346979
0.0338708
0.0329806
0.0320877
0.0311284
0.0301589
0.029171
0.0281414
0.0271297
0.0261002
0.0251121
0.0241561
0.0233292
0.0226375
0.0213078
0.042133
0.042133
0.042133
0.042133
0.042133
0.042133
0.0421331
0.0421339
0.0421483
0.0422273
0.0423851
0.0425154
0.0425508
0.0425381
0.0424372
0.0423039
0.0422121
0.0421539
0.0421119
0.0420667
0.0420139
0.041959
0.0419059
0.0418543
0.0418099
0.0417845
0.0417789
0.0417923
0.0418333
0.0418772
0.0419025
0.0419102
0.0419103
0.0419082
0.0419072
0.0419085
0.0419123
0.0419169
0.0419216
0.0419265
0.041932
0.0419382
0.0419457
0.0419547
0.0419655
0.041978
0.0419921
0.0420071
0.042023
0.0420399
0.0420577
0.0420765
0.0420961
0.0421165
0.0421377
0.0421598
0.0421828
0.0422068
0.0422316
0.0422574
0.0422838
0.0423107
0.0423378
0.0423651
0.0423923
0.0424195
0.0424466
0.0424733
0.0424994
0.0425247
0.0425488
0.0425716
0.0425926
0.0426118
0.0426287
0.0426427
0.0426534
0.0426605
0.0426633
0.0426614
0.0426535
0.0426396
0.0426182
0.0425895
0.0425516
0.0425035
0.0424437
0.042371
0.042284
0.0421816
0.0420613
0.0419217
0.0417602
0.041575
0.0413632
0.0411245
0.0408545
0.0405516
0.0402073
0.0398245
0.0393949
0.0389267
0.0384036
0.0378403
0.0372146
0.036541
0.0358099
0.0350209
0.0341833
0.0332606
0.03235
0.0313403
0.0303659
0.0293336
0.0283283
0.0273464
0.026344
0.0253411
0.0242922
0.023354
0.0216302
0.042133
0.042133
0.042133
0.042133
0.042133
0.042133
0.042133
0.0421333
0.0421401
0.0421931
0.0423371
0.0424929
0.042554
0.0425575
0.0424894
0.0423608
0.0422593
0.0421949
0.0421528
0.0421113
0.042062
0.0420092
0.0419589
0.0419105
0.0418651
0.0418314
0.0418177
0.0418203
0.0418481
0.0418954
0.0419342
0.0419525
0.0419571
0.0419571
0.0419569
0.0419588
0.0419638
0.0419705
0.0419777
0.041985
0.0419926
0.0420009
0.0420102
0.042021
0.0420336
0.0420481
0.0420642
0.0420814
0.0420996
0.0421187
0.0421388
0.0421599
0.042182
0.0422049
0.0422287
0.0422535
0.0422792
0.0423061
0.042334
0.0423629
0.0423927
0.0424232
0.0424541
0.0424854
0.0425168
0.0425485
0.0425802
0.042612
0.0426434
0.0426744
0.0427045
0.0427337
0.0427616
0.0427881
0.0428127
0.0428351
0.0428551
0.0428719
0.0428848
0.0428936
0.0428977
0.0428972
0.0428897
0.0428761
0.0428542
0.0428238
0.042783
0.042731
0.0426663
0.0425881
0.0424942
0.0423835
0.0422532
0.0421017
0.0419262
0.0417258
0.0414958
0.041234
0.0409343
0.0405996
0.0402227
0.0398073
0.0393397
0.0388291
0.0382567
0.0376378
0.0369541
0.036214
0.0354212
0.034546
0.0336433
0.0326486
0.0315894
0.0305368
0.0294622
0.0283866
0.02733
0.0263534
0.0254032
0.0245133
0.0227822
0.042133
0.042133
0.042133
0.042133
0.042133
0.042133
0.042133
0.0421331
0.0421359
0.0421673
0.0422868
0.042458
0.0425498
0.0425739
0.0425354
0.0424174
0.0423048
0.0422342
0.0421925
0.0421555
0.0421107
0.0420603
0.0420119
0.041967
0.041924
0.0418865
0.0418646
0.0418595
0.0418722
0.0419134
0.0419616
0.041993
0.0420051
0.0420081
0.0420091
0.0420113
0.0420169
0.0420252
0.0420346
0.0420442
0.0420541
0.0420644
0.0420756
0.0420882
0.0421026
0.0421189
0.042137
0.0421563
0.0421767
0.0421979
0.0422202
0.0422436
0.0422681
0.0422934
0.0423197
0.0423471
0.0423755
0.0424051
0.0424359
0.0424679
0.0425009
0.0425348
0.0425694
0.0426045
0.04264
0.0426758
0.042712
0.0427485
0.042785
0.0428213
0.0428572
0.0428925
0.0429269
0.0429603
0.0429923
0.0430227
0.0430511
0.0430771
0.0431002
0.0431199
0.0431353
0.0431462
0.0431523
0.0431535
0.0431474
0.0431342
0.0431119
0.0430798
0.0430365
0.0429812
0.0429121
0.0428281
0.0427264
0.0426059
0.042464
0.0422992
0.0421068
0.0418855
0.0416314
0.0413458
0.0410207
0.0406569
0.0402425
0.0397839
0.0392668
0.0387034
0.0380727
0.037388
0.0366393
0.0358346
0.0349526
0.034032
0.0330002
0.0319267
0.0308544
0.029674
0.0284709
0.0273017
0.0261896
0.0252249
0.0233622
0.042133
0.042133
0.042133
0.042133
0.042133
0.042133
0.042133
0.0421331
0.042134
0.0421503
0.0422393
0.0424123
0.0425394
0.0425876
0.0425676
0.0424689
0.0423505
0.042275
0.0422327
0.0421994
0.0421593
0.0421118
0.042065
0.0420231
0.0419841
0.0419472
0.041919
0.0419072
0.0419095
0.0419357
0.0419846
0.0420285
0.0420521
0.0420603
0.042063
0.0420657
0.0420714
0.0420807
0.042092
0.0421039
0.0421159
0.0421283
0.0421415
0.0421559
0.042172
0.0421901
0.0422101
0.0422315
0.042254
0.0422774
0.0423019
0.0423275
0.0423542
0.0423819
0.0424107
0.0424406
0.0424716
0.0425039
0.0425375
0.0425724
0.0426086
0.0426458
0.0426839
0.0427227
0.0427621
0.0428021
0.0428426
0.0428836
0.0429249
0.0429664
0.0430078
0.0430488
0.0430894
0.0431294
0.0431684
0.0432063
0.0432427
0.0432773
0.0433097
0.0433392
0.0433655
0.0433881
0.0434062
0.0434196
0.0434279
0.0434304
0.0434251
0.0434116
0.0433882
0.0433541
0.0433083
0.0432495
0.0431756
0.0430853
0.0429758
0.0428453
0.0426903
0.04251
0.0423006
0.0420612
0.0417839
0.0414687
0.0411066
0.0407016
0.0402411
0.0397337
0.0391615
0.0385351
0.0378367
0.0370809
0.0362631
0.0353606
0.0344106
0.0333751
0.0322983
0.0312183
0.030021
0.0288761
0.0276302
0.0264592
0.0242249
0.042133
0.042133
0.042133
0.042133
0.042133
0.042133
0.042133
0.042133
0.0421333
0.0421407
0.0421998
0.042359
0.0425203
0.0425921
0.0425872
0.042518
0.0423994
0.0423176
0.0422727
0.0422419
0.042207
0.0421638
0.0421193
0.0420797
0.0420445
0.0420106
0.0419801
0.0419615
0.0419567
0.0419676
0.0420074
0.0420586
0.042095
0.0421114
0.0421174
0.0421212
0.0421271
0.0421369
0.0421496
0.0421634
0.0421775
0.042192
0.0422072
0.0422235
0.0422414
0.0422612
0.0422831
0.0423064
0.042331
0.0423565
0.0423831
0.0424108
0.0424398
0.0424698
0.0425009
0.0425332
0.0425667
0.0426016
0.0426379
0.0426756
0.0427147
0.0427551
0.0427965
0.0428388
0.0428819
0.0429257
0.0429703
0.0430155
0.0430614
0.0431077
0.0431543
0.0432008
0.0432472
0.0432933
0.043339
0.0433839
0.0434278
0.0434705
0.0435116
0.0435505
0.0435869
0.0436202
0.0436502
0.0436764
0.043698
0.0437145
0.043725
0.043729
0.043725
0.0437114
0.0436876
0.0436521
0.0436036
0.0435406
0.0434609
0.0433629
0.0432436
0.043102
0.0429338
0.0427372
0.0425055
0.0422391
0.0419303
0.0415811
0.0411803
0.0407324
0.0402215
0.0396557
0.039018
0.0383189
0.037541
0.0366901
0.0357563
0.0347489
0.0336463
0.0325364
0.0312902
0.0301097
0.0289406
0.02786
0.0257417
0.042133
0.042133
0.042133
0.042133
0.042133
0.042133
0.042133
0.042133
0.0421331
0.042136
0.0421709
0.0423039
0.0424869
0.0425898
0.0426008
0.0425617
0.042449
0.0423596
0.042311
0.0422826
0.0422537
0.0422163
0.0421747
0.0421363
0.0421033
0.0420724
0.0420424
0.0420189
0.0420082
0.0420095
0.0420334
0.042083
0.0421308
0.0421586
0.0421705
0.0421764
0.0421827
0.0421927
0.0422065
0.0422221
0.0422382
0.0422548
0.0422721
0.0422903
0.0423101
0.0423317
0.0423554
0.0423807
0.0424073
0.0424349
0.0424635
0.0424934
0.0425244
0.0425567
0.0425901
0.0426248
0.0426607
0.0426981
0.0427369
0.0427774
0.0428193
0.0428626
0.0429072
0.0429529
0.0429996
0.0430471
0.0430956
0.0431449
0.0431951
0.043246
0.0432975
0.0433492
0.0434011
0.043453
0.0435049
0.0435564
0.0436073
0.0436575
0.0437067
0.0437544
0.0438001
0.0438434
0.0438841
0.0439216
0.0439557
0.0439857
0.0440107
0.0440297
0.0440421
0.0440473
0.0440444
0.0440309
0.0440068
0.0439696
0.0439183
0.0438509
0.0437651
0.0436593
0.0435294
0.0433739
0.0431875
0.0429705
0.0427156
0.0424232
0.0420829
0.041697
0.0412521
0.0407538
0.0401855
0.0395568
0.0388487
0.0380728
0.0372137
0.0362682
0.0352627
0.0341156
0.0329381
0.0315693
0.0302005
0.0289178
0.0264907
0.042133
0.042133
0.042133
0.042133
0.042133
0.042133
0.042133
0.042133
0.0421331
0.0421341
0.0421524
0.0422533
0.0424416
0.0425792
0.0426125
0.0425953
0.0424955
0.0424001
0.0423487
0.0423226
0.0422997
0.0422683
0.0422293
0.0421908
0.0421583
0.0421297
0.042102
0.0420772
0.0420616
0.0420571
0.0420669
0.0421062
0.0421601
0.0421999
0.0422202
0.04223
0.0422376
0.0422479
0.0422625
0.0422796
0.0422976
0.0423163
0.0423356
0.0423559
0.0423776
0.0424011
0.0424266
0.0424539
0.0424824
0.0425121
0.0425427
0.0425746
0.0426078
0.0426422
0.0426778
0.0427147
0.0427529
0.0427926
0.042834
0.0428769
0.0429215
0.0429677
0.0430153
0.0430641
0.0431141
0.0431651
0.0432172
0.0432704
0.0433246
0.0433798
0.0434358
0.0434923
0.0435493
0.0436067
0.0436643
0.0437219
0.0437794
0.0438366
0.0438932
0.043949
0.0440034
0.0440561
0.0441068
0.044155
0.0442006
0.0442431
0.0442817
0.0443158
0.0443443
0.0443662
0.044381
0.044388
0.044387
0.0443735
0.0443487
0.0443091
0.0442543
0.0441818
0.0440886
0.0439731
0.043831
0.0436616
0.0434577
0.0432187
0.042935
0.0426078
0.0422256
0.0417913
0.0412878
0.0407222
0.0400792
0.0393684
0.0385703
0.0376841
0.0367145
0.0356705
0.0345578
0.0333445
0.0320226
0.0307518
0.0282946
0.042133
0.042133
0.042133
0.042133
0.042133
0.042133
0.042133
0.042133
0.042133
0.0421334
0.042142
0.0422117
0.0423899
0.04256
0.0426204
0.0426157
0.0425382
0.0424409
0.0423866
0.0423615
0.0423431
0.0423166
0.0422801
0.0422415
0.042209
0.0421823
0.0421575
0.0421343
0.042116
0.0421077
0.0421092
0.0421329
0.0421846
0.0422348
0.0422656
0.0422812
0.0422912
0.0423021
0.042317
0.0423354
0.0423553
0.0423759
0.0423974
0.0424199
0.0424437
0.0424691
0.0424964
0.0425256
0.0425561
0.0425877
0.0426204
0.0426542
0.0426894
0.0427259
0.0427636
0.0428027
0.0428431
0.0428851
0.0429288
0.0429742
0.0430213
0.0430702
0.0431206
0.0431724
0.0432256
0.0432799
0.0433355
0.0433923
0.0434503
0.0435095
0.0435697
0.0436308
0.0436927
0.0437551
0.0438181
0.0438814
0.043945
0.0440086
0.0440722
0.0441353
0.0441978
0.0442591
0.0443189
0.044377
0.044433
0.0444868
0.0445376
0.0445848
0.0446278
0.0446657
0.0446978
0.0447227
0.0447401
0.044749
0.0447497
0.0447363
0.0447108
0.044669
0.0446098
0.0445313
0.0444297
0.0443036
0.0441464
0.0439572
0.0437278
0.0434586
0.0431384
0.0427686
0.0423354
0.041842
0.0412707
0.0406276
0.0398978
0.039086
0.0381672
0.0371422
0.0360049
0.0348446
0.0334287
0.0321759
0.0299177
0.042133
0.042133
0.042133
0.042133
0.042133
0.042133
0.042133
0.042133
0.042133
0.0421331
0.0421369
0.0421812
0.0423378
0.0425323
0.0426206
0.0426303
0.0425777
0.0424821
0.0424228
0.0423969
0.0423815
0.0423599
0.0423271
0.0422895
0.0422573
0.0422322
0.0422103
0.0421897
0.0421715
0.0421601
0.042157
0.0421674
0.0422093
0.0422651
0.0423064
0.0423295
0.042343
0.0423551
0.0423704
0.0423897
0.0424113
0.0424339
0.0424574
0.0424821
0.0425079
0.0425354
0.0425646
0.0425956
0.042628
0.0426616
0.0426962
0.0427319
0.042769
0.0428074
0.0428472
0.0428884
0.0429309
0.042975
0.0430209
0.0430687
0.0431182
0.0431696
0.0432226
0.0432773
0.0433333
0.0433908
0.0434496
0.0435097
0.0435713
0.0436342
0.0436983
0.0437636
0.0438298
0.043897
0.0439649
0.0440334
0.0441026
0.0441721
0.044242
0.0443119
0.0443817
0.0444509
0.0445191
0.0445862
0.0446519
0.0447161
0.0447782
0.0448377
0.0448939
0.0449462
0.0449938
0.0450361
0.0450724
0.0451007
0.0451212
0.0451323
0.0451341
0.0451207
0.0450937
0.0450492
0.0449853
0.0448997
0.0447872
0.044647
0.0444718
0.0442614
0.0440052
0.0437039
0.043344
0.0429266
0.0424353
0.0418748
0.0412279
0.0404976
0.0396624
0.0387281
0.0376698
0.036552
0.0351945
0.0338162
0.0313926
0.042133
0.042133
0.042133
0.042133
0.042133
0.042133
0.042133
0.042133
0.042133
0.0421331
0.0421346
0.042161
0.04229
0.0424977
0.0426143
0.0426434
0.0426122
0.0425202
0.0424547
0.0424278
0.0424156
0.0423995
0.0423717
0.0423361
0.0423047
0.0422808
0.0422609
0.0422428
0.0422263
0.0422136
0.0422078
0.0422104
0.0422383
0.042293
0.0423433
0.042375
0.0423934
0.0424074
0.0424232
0.0424432
0.0424661
0.0424905
0.0425159
0.0425426
0.0425705
0.0425998
0.0426309
0.0426637
0.0426981
0.0427335
0.0427699
0.0428075
0.0428464
0.0428867
0.0429284
0.0429716
0.0430161
0.0430623
0.0431103
0.0431602
0.043212
0.0432658
0.0433213
0.0433785
0.0434374
0.0434977
0.0435595
0.0436228
0.0436877
0.0437541
0.0438219
0.043891
0.0439614
0.0440328
0.0441053
0.0441788
0.0442531
0.0443281
0.0444037
0.0444799
0.0445563
0.0446327
0.0447086
0.0447839
0.0448584
0.0449318
0.045004
0.0450744
0.0451425
0.0452077
0.0452693
0.0453268
0.0453794
0.0454263
0.0454669
0.045499
0.0455226
0.0455358
0.0455387
0.0455254
0.0454964
0.045448
0.0453772
0.0452829
0.0451583
0.0450025
0.0448053
0.0445666
0.0442733
0.0439255
0.0435071
0.0430202
0.0424484
0.0417936
0.0410344
0.0401762
0.0391991
0.0381166
0.0369048
0.0356344
0.0334991
0.042133
0.042133
0.042133
0.042133
0.042133
0.042133
0.042133
0.042133
0.042133
0.042133
0.0421337
0.0421488
0.04225
0.0424592
0.0426046
0.042656
0.0426374
0.0425511
0.0424835
0.0424564
0.0424475
0.0424368
0.0424146
0.0423817
0.0423509
0.0423279
0.0423093
0.0422934
0.0422792
0.0422672
0.0422603
0.042259
0.0422747
0.0423224
0.0423782
0.0424185
0.0424428
0.0424593
0.0424759
0.0424964
0.0425205
0.0425464
0.0425735
0.0426019
0.0426316
0.0426628
0.0426956
0.0427301
0.0427662
0.0428034
0.0428416
0.0428809
0.0429215
0.0429636
0.0430071
0.0430521
0.0430986
0.0431466
0.0431966
0.0432486
0.0433025
0.0433585
0.0434163
0.043476
0.0435374
0.0436004
0.043665
0.0437313
0.0437991
0.0438687
0.0439399
0.0440125
0.0440866
0.044162
0.0442387
0.0443165
0.0443955
0.0444755
0.0445564
0.0446381
0.0447205
0.0448033
0.0448862
0.0449689
0.0450513
0.0451332
0.0452145
0.0452948
0.0453736
0.0454504
0.0455248
0.045596
0.0456635
0.0457267
0.0457848
0.0458369
0.0458821
0.0459182
0.0459449
0.0459602
0.0459639
0.0459503
0.0459189
0.0458665
0.0457881
0.0456823
0.0455401
0.0453612
0.0451335
0.044857
0.0445158
0.0441101
0.0436213
0.0430508
0.0423808
0.0416066
0.0406894
0.0396514
0.0384274
0.0371244
0.0350526
0.042133
0.042133
0.042133
0.042133
0.042133
0.042133
0.042133
0.042133
0.042133
0.042133
0.0421333
0.0421419
0.0422193
0.042421
0.0425948
0.0426638
0.0426534
0.0425786
0.0425106
0.0424837
0.0424777
0.0424719
0.0424553
0.0424251
0.0423951
0.0423728
0.0423555
0.0423414
0.0423298
0.04232
0.0423134
0.0423108
0.042319
0.0423563
0.0424131
0.0424608
0.0424914
0.0425113
0.042529
0.04255
0.0425749
0.042602
0.0426305
0.0426603
0.0426915
0.0427242
0.0427586
0.0427947
0.0428324
0.0428712
0.0429111
0.042952
0.0429942
0.0430379
0.0430831
0.0431298
0.043178
0.0432279
0.0432798
0.0433336
0.0433896
0.0434476
0.0435077
0.0435696
0.0436333
0.0436988
0.043766
0.043835
0.0439057
0.0439782
0.0440524
0.0441283
0.0442059
0.0442849
0.0443654
0.0444473
0.0445305
0.044615
0.0447007
0.0447875
0.0448753
0.0449639
0.0450531
0.0451425
0.045232
0.0453215
0.0454109
0.0455
0.0455883
0.0456754
0.0457609
0.0458443
0.0459251
0.0460027
0.0460765
0.0461458
0.0462096
0.046267
0.046317
0.0463572
0.0463871
0.0464045
0.046409
0.0463944
0.0463589
0.0462993
0.0462097
0.0460896
0.0459277
0.0457236
0.0454617
0.0451409
0.0447417
0.0442646
0.043689
0.0430045
0.0421897
0.0412518
0.040136
0.0389169
0.0370417
0.042133
0.042133
0.042133
0.042133
0.042133
0.042133
0.042133
0.042133
0.042133
0.042133
0.0421332
0.0421383
0.0421975
0.0423871
0.0425838
0.0426683
0.0426647
0.0426025
0.0425358
0.0425094
0.042506
0.0425041
0.0424925
0.0424655
0.0424367
0.0424156
0.0424
0.0423879
0.0423788
0.0423716
0.0423665
0.0423642
0.0423687
0.0423962
0.0424494
0.0425025
0.0425394
0.0425631
0.0425825
0.0426041
0.0426297
0.0426577
0.0426872
0.042718
0.0427505
0.0427845
0.0428202
0.0428578
0.0428969
0.0429372
0.0429785
0.0430208
0.0430645
0.0431097
0.0431565
0.0432048
0.0432547
0.0433062
0.0433598
0.0434155
0.0434733
0.0435333
0.0435953
0.0436593
0.0437253
0.043793
0.0438626
0.043934
0.0440073
0.0440825
0.0441596
0.0442384
0.0443191
0.0444014
0.0444853
0.0445708
0.0446579
0.0447464
0.0448364
0.0449278
0.0450204
0.0451142
0.0452089
0.0453042
0.0454001
0.0454963
0.045593
0.0456898
0.0457865
0.0458828
0.0459782
0.0460724
0.0461648
0.0462552
0.0463429
0.0464274
0.0465079
0.0465838
0.0466538
0.046717
0.0467722
0.0468167
0.0468499
0.0468694
0.0468744
0.0468582
0.0468184
0.0467519
0.0466498
0.0465105
0.0463191
0.0460744
0.0457564
0.045366
0.0448797
0.044288
0.043565
0.0426832
0.0416335
0.0404049
0.0386884
0.042133
0.042133
0.042133
0.042133
0.042133
0.042133
0.042133
0.042133
0.042133
0.042133
0.0421331
0.0421364
0.042183
0.0423602
0.042572
0.0426714
0.0426739
0.0426225
0.0425588
0.0425336
0.0425323
0.0425336
0.0425258
0.0425028
0.042476
0.0424568
0.0424433
0.0424332
0.0424263
0.0424216
0.0424185
0.0424172
0.0424205
0.0424405
0.0424876
0.0425435
0.0425863
0.0426143
0.0426358
0.0426582
0.0426844
0.0427132
0.0427435
0.0427751
0.0428085
0.0428435
0.0428804
0.0429192
0.0429595
0.0430011
0.0430437
0.0430874
0.0431324
0.0431789
0.0432271
0.0432769
0.0433283
0.0433814
0.0434365
0.0434939
0.0435534
0.0436152
0.0436791
0.0437451
0.043813
0.0438829
0.0439546
0.0440283
0.044104
0.0441816
0.0442613
0.0443428
0.0444263
0.0445115
0.0445986
0.0446874
0.0447779
0.0448701
0.0449639
0.0450593
0.0451563
0.0452547
0.0453544
0.045455
0.0455565
0.0456588
0.0457618
0.0458655
0.0459696
0.0460739
0.046178
0.0462816
0.0463843
0.0464858
0.0465856
0.0466834
0.0467785
0.0468703
0.046958
0.0470407
0.0471173
0.0471865
0.0472473
0.0472963
0.0473332
0.0473547
0.0473598
0.0473407
0.047293
0.0472131
0.0470905
0.0469237
0.0466931
0.0463978
0.0460105
0.0455259
0.044906
0.0441186
0.0431657
0.0419779
0.0403902
0.042133
0.042133
0.042133
0.042133
0.042133
0.042133
0.042133
0.042133
0.042133
0.042133
0.0421331
0.0421355
0.0421743
0.0423413
0.0425622
0.0426736
0.0426818
0.0426387
0.0425793
0.0425564
0.0425567
0.0425611
0.0425558
0.042537
0.0425131
0.0424964
0.0424852
0.042477
0.0424721
0.0424692
0.0424679
0.0424683
0.0424715
0.0424869
0.0425275
0.0425839
0.0426316
0.0426639
0.0426878
0.0427114
0.0427383
0.0427679
0.042799
0.0428313
0.0428654
0.0429014
0.0429392
0.0429791
0.0430205
0.0430633
0.043107
0.0431518
0.0431979
0.0432457
0.0432951
0.0433463
0.043399
0.0434536
0.0435102
0.0435691
0.0436303
0.0436937
0.0437593
0.0438271
0.0438969
0.0439687
0.0440424
0.0441182
0.044196
0.0442759
0.0443579
0.0444419
0.0445279
0.0446159
0.0447057
0.0447975
0.0448911
0.0449866
0.0450839
0.0451829
0.0452837
0.0453862
0.0454902
0.0455955
0.045702
0.0458096
0.0459182
0.046028
0.0461385
0.0462498
0.0463614
0.0464732
0.0465848
0.046696
0.0468063
0.0469156
0.0470233
0.047129
0.047232
0.0473317
0.0474271
0.0475173
0.0476012
0.0476772
0.0477443
0.0477982
0.0478386
0.0478621
0.0478672
0.047844
0.0477889
0.0476963
0.0475512
0.0473519
0.047073
0.0467101
0.0462091
0.0455372
0.044665
0.0435306
0.0420107
0.042133
0.042133
0.042133
0.042133
0.042133
0.042133
0.042133
0.042133
0.042133
0.042133
0.0421331
0.0421352
0.0421702
0.0423309
0.0425578
0.0426758
0.0426885
0.0426512
0.042597
0.0425779
0.0425798
0.0425874
0.0425835
0.0425684
0.0425476
0.0425337
0.0425248
0.0425186
0.0425151
0.0425138
0.0425142
0.0425163
0.0425202
0.0425333
0.0425685
0.0426236
0.0426749
0.0427111
0.0427375
0.0427625
0.0427904
0.042821
0.042853
0.0428862
0.042921
0.0429578
0.0429966
0.0430373
0.0430798
0.0431234
0.0431682
0.043214
0.0432611
0.0433099