/*--------------------------------*- C++ -*----------------------------------*\
| =========                 |                                                 |
| \\      /  F ield         | OpenFOAM: The Open Source CFD Toolbox           |
|  \\    /   O peration     | Version:  2406                                  |
|   \\  /    A nd           | Website:  www.openfoam.com                      |
|    \\/     M anipulation  |                                                 |
\*---------------------------------------------------------------------------*/
FoamFile
{
    version     2.0;
    format      ascii;
    arch        "LSB;label=32;scalar=64";
    class       volScalarField;
    location    "0.042";
    object      rho;
}
// * * * * * * * * * * * * * * * * * * * * * * * * * * * * * * * * * * * * * //

dimensions      [1 -3 0 0 0 0 0];

internalField   nonuniform List<scalar> 
78650
(
0.0485147
0.0430385
0.0425862
0.0425256
0.0425137
0.0425242
0.0425323
0.0425164
0.0424614
0.0423687
0.0422679
0.0421813
0.0421117
0.0420507
0.0419893
0.0419244
0.0418558
0.0417878
0.0417265
0.0416767
0.0416389
0.0416102
0.0415863
0.0415637
0.0415402
0.0415148
0.0414876
0.0414595
0.0414313
0.0414038
0.0413772
0.0413519
0.0413278
0.0413052
0.041284
0.0412647
0.041247
0.0412308
0.041216
0.0412023
0.0411893
0.0411768
0.0411644
0.041152
0.0411394
0.0411264
0.0411126
0.0410979
0.0410818
0.041064
0.0410442
0.041022
0.0409972
0.0409692
0.0409377
0.0409019
0.0408615
0.040816
0.0407649
0.0407077
0.0406437
0.0405721
0.040492
0.0404029
0.0403039
0.040194
0.0400724
0.0399385
0.0397911
0.0396297
0.0394533
0.0392604
0.0390507
0.0388234
0.0385776
0.0383132
0.0380289
0.0377243
0.0373992
0.0370527
0.0366845
0.0362964
0.0358866
0.0354578
0.0350079
0.034536
0.0340437
0.0335294
0.0330056
0.0324657
0.0319345
0.0313989
0.0308622
0.0303096
0.029782
0.029254
0.0287392
0.0282476
0.0277648
0.0272818
0.0268305
0.0264071
0.0260116
0.0256393
0.0252947
0.0249784
0.0246964
0.0244202
0.0241581
0.0239084
0.0236819
0.0234649
0.0232597
0.023061
0.0228665
0.0226781
0.0224974
0.0223229
0.022163
0.0220172
0.0217898
0.0483462
0.043105
0.0426739
0.0425919
0.0425631
0.0425706
0.0425827
0.0425766
0.042536
0.0424486
0.0423416
0.0422441
0.0421658
0.0421015
0.0420419
0.0419824
0.0419196
0.0418549
0.0417933
0.0417406
0.0416992
0.0416678
0.0416426
0.0416201
0.0415976
0.0415735
0.0415476
0.0415207
0.0414936
0.0414672
0.0414419
0.041418
0.0413954
0.0413745
0.0413552
0.0413378
0.0413222
0.0413084
0.041296
0.041285
0.041275
0.0412655
0.0412564
0.0412475
0.0412386
0.0412295
0.0412199
0.0412096
0.0411982
0.0411855
0.0411711
0.0411547
0.041136
0.0411147
0.0410902
0.0410621
0.0410298
0.040993
0.0409512
0.040904
0.0408506
0.0407905
0.0407228
0.0406469
0.0405621
0.0404673
0.0403619
0.0402453
0.0401163
0.0399739
0.0398172
0.0396452
0.0394582
0.0392553
0.0390351
0.0387966
0.0385377
0.0382573
0.0379556
0.0376319
0.0372863
0.0369202
0.0365324
0.0361262
0.0356992
0.0352549
0.0347919
0.0343094
0.0338121
0.0333037
0.0327857
0.0322529
0.0317296
0.0311897
0.0306536
0.0301403
0.0296145
0.0291052
0.0286109
0.0281241
0.0276588
0.0272076
0.0267764
0.0263618
0.025961
0.0255836
0.02523
0.0248915
0.0245749
0.0242882
0.024029
0.0237881
0.0235612
0.0233464
0.0231467
0.0229563
0.022769
0.0225846
0.022408
0.022238
0.0219701
0.0481684
0.0431254
0.0427588
0.0426576
0.0426159
0.0426162
0.0426267
0.0426283
0.0426003
0.0425242
0.0424176
0.042311
0.0422228
0.0421526
0.0420925
0.0420367
0.04198
0.0419209
0.0418621
0.0418085
0.0417641
0.0417293
0.041702
0.0416788
0.0416566
0.0416336
0.041609
0.0415833
0.0415575
0.0415322
0.0415081
0.0414855
0.0414646
0.0414453
0.0414278
0.0414124
0.0413989
0.0413873
0.0413774
0.0413691
0.0413619
0.0413555
0.0413497
0.0413443
0.0413391
0.0413338
0.0413284
0.0413225
0.0413159
0.0413082
0.0412991
0.0412884
0.0412757
0.0412609
0.0412433
0.0412226
0.0411982
0.0411698
0.041137
0.0410993
0.0410562
0.041007
0.040951
0.0408876
0.040816
0.0407355
0.0406452
0.0405445
0.0404322
0.0403077
0.0401702
0.0400188
0.0398531
0.0396717
0.0394734
0.0392574
0.0390224
0.0387678
0.0384938
0.0381993
0.0378843
0.0375492
0.0371929
0.0368161
0.0364166
0.0359985
0.0355589
0.0351025
0.0346276
0.0341328
0.0336204
0.0330951
0.0325595
0.0320439
0.0315098
0.030975
0.030437
0.0299046
0.0293989
0.0288858
0.0283894
0.0279161
0.0274528
0.0270199
0.0266061
0.0262001
0.0258146
0.0254313
0.0250764
0.0247445
0.0244347
0.0241349
0.0238452
0.0235791
0.0233369
0.0231184
0.0229145
0.0227101
0.0225051
0.0223146
0.0219753
0.0479785
0.0431816
0.0428355
0.0427237
0.0426652
0.0426555
0.042663
0.0426684
0.0426516
0.0425925
0.042494
0.0423823
0.0422842
0.0422061
0.0421428
0.0420885
0.042037
0.0419848
0.0419317
0.0418804
0.0418345
0.0417964
0.0417658
0.0417407
0.0417181
0.0416956
0.0416721
0.0416477
0.0416231
0.0415991
0.0415762
0.041555
0.0415355
0.0415178
0.0415021
0.0414885
0.041477
0.0414676
0.0414601
0.0414543
0.0414499
0.0414464
0.0414437
0.0414417
0.04144
0.0414385
0.0414371
0.0414354
0.0414333
0.0414304
0.0414265
0.0414213
0.0414143
0.0414056
0.0413948
0.0413811
0.0413643
0.0413441
0.0413199
0.0412914
0.0412582
0.0412196
0.041175
0.0411238
0.0410653
0.0409987
0.0409234
0.0408385
0.0407433
0.0406371
0.0405189
0.0403875
0.0402424
0.0400826
0.0399075
0.0397167
0.0395084
0.039282
0.0390366
0.0387708
0.0384844
0.0381771
0.0378477
0.0374966
0.0371234
0.0367307
0.0363158
0.0358845
0.0354313
0.034959
0.0344652
0.0339598
0.0334388
0.0329071
0.0323801
0.0318345
0.0313073
0.0307579
0.0302221
0.0296914
0.0291695
0.0286713
0.0281747
0.0277049
0.0272701
0.0268509
0.0264612
0.0260839
0.0257368
0.0254002
0.0250754
0.0247551
0.024453
0.0241689
0.0239033
0.0236518
0.0234124
0.0231733
0.0229426
0.0227212
0.0223168
0.0477286
0.0432119
0.042905
0.0427898
0.0427152
0.0426911
0.0426923
0.0426975
0.04269
0.0426494
0.0425654
0.0424554
0.0423504
0.0422638
0.0421952
0.0421397
0.042091
0.0420451
0.0419996
0.0419538
0.0419094
0.0418694
0.0418356
0.0418076
0.0417834
0.0417606
0.0417377
0.0417143
0.041691
0.0416682
0.0416467
0.0416267
0.0416088
0.0415926
0.0415786
0.0415669
0.0415573
0.0415501
0.0415449
0.0415416
0.0415399
0.0415395
0.04154
0.0415412
0.041543
0.0415453
0.0415478
0.0415503
0.0415526
0.0415545
0.0415555
0.0415557
0.0415545
0.0415518
0.0415475
0.0415409
0.0415313
0.041519
0.0415032
0.0414836
0.0414599
0.0414315
0.0413977
0.0413581
0.041312
0.0412586
0.0411973
0.0411274
0.041048
0.0409587
0.0408581
0.0407455
0.0406204
0.040482
0.0403296
0.0401625
0.0399787
0.0397772
0.0395572
0.0393173
0.0390578
0.0387784
0.0384776
0.0381557
0.0378126
0.0374496
0.0370647
0.0366611
0.0362326
0.0357877
0.0353226
0.0348341
0.0343373
0.0338136
0.0332954
0.032762
0.0322333
0.0316902
0.0311436
0.0306071
0.0300644
0.0295465
0.0290269
0.0285208
0.0280332
0.0275472
0.0270902
0.0266576
0.0262522
0.0258651
0.0254947
0.0251485
0.024836
0.0245485
0.0242826
0.0240227
0.0237624
0.0235101
0.0232791
0.0230734
0.0227477
0.0474028
0.0432353
0.0429738
0.0428632
0.0427757
0.0427321
0.0427199
0.0427211
0.0427182
0.0426927
0.0426276
0.0425283
0.0424215
0.0423274
0.0422519
0.0421926
0.042144
0.0421022
0.042064
0.0420261
0.0419869
0.0419481
0.0419122
0.0418808
0.0418539
0.0418295
0.0418062
0.0417833
0.041761
0.0417395
0.0417194
0.0417008
0.0416844
0.0416697
0.0416574
0.0416475
0.0416398
0.0416346
0.0416317
0.0416309
0.0416317
0.0416342
0.0416378
0.0416421
0.0416473
0.0416532
0.0416595
0.0416661
0.0416727
0.0416791
0.041685
0.0416903
0.0416946
0.0416978
0.0416994
0.0416996
0.0416972
0.0416925
0.0416849
0.0416737
0.0416592
0.0416406
0.0416173
0.041589
0.0415549
0.0415145
0.041467
0.0414119
0.0413483
0.0412757
0.0411931
0.0410996
0.0409948
0.0408775
0.040747
0.0406025
0.0404422
0.0402657
0.0400721
0.0398605
0.0396306
0.0393814
0.0391111
0.0388202
0.0385087
0.0381758
0.0378204
0.0374439
0.0370426
0.036624
0.0361818
0.0357228
0.0352424
0.0347465
0.0342357
0.03371
0.0331709
0.0326358
0.0320829
0.0315467
0.0309969
0.0304532
0.0299242
0.0293996
0.0289059
0.0284122
0.027944
0.027485
0.027037
0.0265939
0.0261718
0.0257731
0.0254034
0.0250528
0.0247233
0.0244067
0.0240906
0.0237796
0.0234841
0.02322
0.0227642
0.0469846
0.0432164
0.0430363
0.0429489
0.042859
0.0427928
0.0427593
0.0427483
0.042741
0.0427229
0.0426766
0.0425953
0.0424942
0.0423962
0.0423142
0.0422492
0.0421974
0.0421568
0.042124
0.0420941
0.0420629
0.0420292
0.0419943
0.0419609
0.0419307
0.0419036
0.0418786
0.0418552
0.0418334
0.0418129
0.0417941
0.041777
0.0417621
0.0417491
0.0417385
0.0417303
0.0417245
0.0417214
0.0417207
0.0417223
0.0417259
0.0417311
0.0417376
0.0417452
0.0417538
0.0417632
0.0417733
0.0417839
0.0417948
0.0418057
0.0418164
0.0418267
0.0418364
0.0418453
0.041853
0.0418594
0.0418641
0.0418665
0.0418669
0.0418641
0.0418585
0.0418495
0.0418361
0.0418185
0.0417958
0.0417675
0.0417331
0.0416917
0.0416428
0.0415858
0.0415198
0.041444
0.0413578
0.04126
0.0411503
0.0410279
0.0408915
0.0407407
0.0405742
0.0403906
0.0401892
0.0399687
0.0397281
0.039468
0.0391875
0.038885
0.0385597
0.0382127
0.0378427
0.0374543
0.0370413
0.0366109
0.0361562
0.0356835
0.0351925
0.0346867
0.0341666
0.0336405
0.0330965
0.0325458
0.0319944
0.0314317
0.0308975
0.030343
0.02981
0.0292919
0.0287967
0.0283236
0.0278612
0.0274157
0.0269981
0.0266011
0.0262219
0.0258461
0.0254859
0.0251437
0.0248233
0.0245137
0.0242098
0.0239169
0.0233936
0.0464956
0.0431309
0.0430583
0.0430055
0.0429414
0.0428691
0.042813
0.0427823
0.0427647
0.0427465
0.0427128
0.0426515
0.042564
0.0424685
0.0423818
0.0423104
0.042254
0.0422119
0.0421811
0.0421568
0.0421338
0.0421082
0.0420785
0.0420463
0.0420143
0.0419842
0.0419562
0.041931
0.0419086
0.0418885
0.0418708
0.041855
0.0418418
0.0418303
0.0418215
0.041815
0.0418112
0.0418101
0.0418114
0.0418155
0.0418215
0.0418293
0.0418387
0.0418495
0.0418614
0.0418743
0.041888
0.0419024
0.0419173
0.0419325
0.0419479
0.041963
0.0419779
0.0419922
0.0420058
0.0420185
0.0420298
0.0420392
0.0420468
0.0420521
0.0420548
0.0420551
0.0420514
0.0420443
0.0420329
0.0420163
0.0419945
0.0419667
0.0419323
0.0418908
0.0418413
0.0417831
0.0417155
0.0416376
0.0415489
0.0414486
0.0413354
0.0412086
0.0410668
0.0409086
0.0407336
0.040541
0.04033
0.0401007
0.0398512
0.03958
0.0392873
0.0389737
0.0386387
0.0382838
0.0379043
0.0375039
0.0370761
0.0366315
0.0361661
0.035685
0.0351893
0.0346679
0.0341395
0.0335887
0.0330503
0.0324879
0.0319381
0.031373
0.0308092
0.030256
0.0297063
0.0291798
0.0286562
0.0281587
0.0276832
0.0272329
0.0268028
0.0263825
0.0259801
0.0255993
0.0252519
0.0249319
0.0246401
0.024376
0.0238663
0.0459811
0.0429627
0.0430057
0.0430061
0.0429768
0.0429284
0.0428786
0.0428333
0.0427976
0.0427708
0.0427406
0.0426959
0.0426272
0.0425419
0.0424546
0.0423773
0.0423154
0.0422698
0.0422379
0.0422157
0.0421985
0.0421813
0.0421599
0.0421331
0.0421026
0.0420709
0.0420398
0.0420115
0.0419872
0.0419664
0.0419491
0.0419345
0.0419227
0.041913
0.0419059
0.0419011
0.0418995
0.0419003
0.041904
0.0419101
0.0419187
0.0419292
0.0419415
0.0419553
0.0419705
0.0419868
0.0420041
0.0420223
0.0420413
0.0420608
0.0420806
0.0421006
0.0421205
0.0421402
0.0421594
0.042178
0.0421957
0.0422121
0.042227
0.04224
0.0422508
0.0422593
0.0422651
0.0422677
0.042267
0.0422616
0.042252
0.0422368
0.0422159
0.0421887
0.0421543
0.0421124
0.0420621
0.0420026
0.0419334
0.0418535
0.041762
0.0416582
0.0415411
0.0414094
0.0412628
0.0411001
0.0409203
0.0407227
0.040505
0.0402665
0.0400077
0.0397285
0.0394278
0.0391053
0.0387571
0.0383865
0.0379913
0.0375791
0.0371427
0.0366881
0.0362097
0.0357141
0.0352035
0.0346802
0.0341511
0.0336008
0.0330456
0.0324881
0.0319247
0.0313762
0.0308165
0.0302804
0.0297511
0.0292394
0.0287318
0.0282337
0.027754
0.027288
0.0268453
0.0264084
0.0259865
0.0255791
0.025203
0.0248535
0.0241934
0.0455375
0.042689
0.0428284
0.0429317
0.0429513
0.0429385
0.0429119
0.0428747
0.0428358
0.0428003
0.0427676
0.0427339
0.0426849
0.0426159
0.0425332
0.042452
0.042384
0.0423327
0.0422961
0.0422716
0.0422565
0.0422452
0.0422326
0.0422146
0.0421905
0.0421613
0.0421292
0.042098
0.0420707
0.0420479
0.0420298
0.0420155
0.0420048
0.0419967
0.0419912
0.0419883
0.0419886
0.0419918
0.0419972
0.0420056
0.0420166
0.0420298
0.0420449
0.0420617
0.04208
0.0420995
0.0421203
0.0421422
0.0421649
0.0421885
0.0422126
0.0422372
0.0422619
0.0422867
0.0423114
0.0423358
0.0423595
0.0423825
0.0424042
0.0424245
0.0424433
0.0424602
0.0424748
0.0424867
0.0424957
0.0425012
0.0425032
0.0425005
0.042493
0.04248
0.0424605
0.0424347
0.0424014
0.0423599
0.0423099
0.0422503
0.0421803
0.0420995
0.0420063
0.0418999
0.0417795
0.0416438
0.0414918
0.0413228
0.0411353
0.0409292
0.0407046
0.0404601
0.0401939
0.0399049
0.0395917
0.0392576
0.0389007
0.0385231
0.0381178
0.0376922
0.0372414
0.0367747
0.0362883
0.0357843
0.0352606
0.0347256
0.0341693
0.033613
0.0330417
0.0324776
0.031898
0.0313335
0.0307815
0.0302463
0.0297198
0.0291982
0.0287026
0.0282265
0.0277865
0.0273528
0.0269308
0.026516
0.026127
0.0257808
0.0251956
0.0452563
0.0424062
0.0425451
0.042738
0.042858
0.0429044
0.0429083
0.0428902
0.0428569
0.0428169
0.0427862
0.0427585
0.0427257
0.0426763
0.0426073
0.0425292
0.0424574
0.0424002
0.0423572
0.0423281
0.0423118
0.0423033
0.0422968
0.0422873
0.0422723
0.0422501
0.0422209
0.0421889
0.0421588
0.0421332
0.042113
0.0420981
0.0420877
0.0420809
0.0420768
0.0420756
0.0420781
0.0420834
0.042091
0.0421017
0.0421151
0.0421309
0.0421488
0.0421685
0.0421899
0.0422127
0.0422369
0.0422623
0.0422889
0.0423165
0.0423448
0.0423738
0.0424033
0.042433
0.042463
0.0424929
0.0425226
0.0425518
0.0425802
0.0426076
0.0426338
0.0426586
0.0426816
0.0427026
0.0427213
0.0427369
0.0427493
0.042758
0.0427625
0.0427631
0.0427574
0.0427466
0.0427291
0.0427042
0.042672
0.0426312
0.0425815
0.0425219
0.0424514
0.0423692
0.0422744
0.0421658
0.0420427
0.0419043
0.0417492
0.0415769
0.0413863
0.0411752
0.0409424
0.0406881
0.0404125
0.040117
0.0397985
0.0394561
0.0390865
0.0386966
0.0382826
0.0378508
0.0373947
0.0369196
0.0364247
0.0359104
0.0353823
0.0348362
0.0342793
0.0337092
0.0331229
0.0325331
0.0319452
0.0313545
0.0307821
0.0302066
0.0296568
0.029113
0.0286008
0.0280988
0.0276082
0.0271204
0.0266391
0.0262158
0.0254133
0.0451408
0.0423026
0.0423437
0.0424714
0.0426257
0.0427574
0.0428329
0.0428522
0.0428396
0.0428154
0.0427894
0.0427611
0.0427347
0.0427032
0.0426572
0.042594
0.0425267
0.0424667
0.042418
0.0423835
0.0423639
0.042355
0.0423512
0.0423476
0.0423415
0.0423295
0.0423083
0.0422802
0.0422502
0.0422224
0.0421996
0.042183
0.042172
0.0421658
0.0421626
0.0421627
0.0421673
0.0421746
0.0421844
0.0421973
0.0422131
0.0422315
0.0422521
0.0422747
0.042299
0.042325
0.0423525
0.0423813
0.0424115
0.0424429
0.0424752
0.0425085
0.0425424
0.0425769
0.0426118
0.042647
0.0426822
0.0427173
0.0427521
0.0427862
0.0428195
0.0428518
0.0428828
0.0429123
0.0429399
0.0429654
0.0429883
0.0430081
0.0430243
0.0430367
0.0430448
0.0430482
0.0430464
0.043038
0.0430234
0.0430009
0.0429707
0.0429317
0.042883
0.042824
0.0427536
0.0426708
0.0425748
0.0424647
0.0423391
0.0421977
0.0420389
0.041861
0.041664
0.0414481
0.0412125
0.0409562
0.0406755
0.0403703
0.0400396
0.039688
0.0393122
0.0389156
0.0384921
0.0380476
0.0375794
0.0370923
0.0365854
0.0360624
0.035527
0.0349709
0.0344156
0.0338384
0.0332753
0.0326937
0.0321399
0.031577
0.0310294
0.0304665
0.0299238
0.029389
0.028884
0.0283857
0.0278848
0.0274027
0.0264952
0.0451506
0.0423294
0.0422622
0.0422903
0.0423701
0.0425051
0.0426472
0.042748
0.0427862
0.0427851
0.0427653
0.0427427
0.0427273
0.0427063
0.0426744
0.0426326
0.0425817
0.042526
0.042476
0.0424386
0.0424154
0.042404
0.0424003
0.0423995
0.0423991
0.0423964
0.0423856
0.0423661
0.0423406
0.0423134
0.0422892
0.0422704
0.0422579
0.0422513
0.0422486
0.0422494
0.0422556
0.0422649
0.0422768
0.0422921
0.0423103
0.0423312
0.0423545
0.04238
0.0424073
0.0424364
0.0424671
0.0424993
0.042533
0.0425681
0.0426044
0.0426417
0.0426799
0.042719
0.0427587
0.042799
0.0428396
0.0428804
0.0429212
0.0429617
0.0430017
0.0430411
0.0430798
0.0431173
0.0431535
0.043188
0.0432205
0.0432506
0.0432779
0.0433021
0.0433226
0.0433388
0.0433505
0.0433571
0.0433588
0.0433533
0.0433416
0.0433221
0.0432936
0.0432567
0.0432096
0.0431515
0.043082
0.0429998
0.0429039
0.0427934
0.0426668
0.0425229
0.0423619
0.0421827
0.0419836
0.0417629
0.0415186
0.0412515
0.0409615
0.040651
0.0403158
0.0399569
0.0395693
0.039159
0.0387237
0.0382691
0.0377913
0.0372927
0.0367718
0.0362334
0.035678
0.0351129
0.0345377
0.0339326
0.0333342
0.0327371
0.032146
0.0315599
0.0309753
0.0304115
0.0298809
0.0293785
0.0289085
0.0284769
0.0276516
0.0451495
0.0423725
0.0422627
0.0422545
0.0422571
0.0422996
0.0423999
0.0425273
0.0426277
0.0426755
0.0426874
0.0426863
0.0426828
0.0426778
0.0426658
0.0426435
0.0426106
0.0425697
0.0425277
0.0424919
0.0424656
0.0424499
0.042444
0.0424432
0.0424456
0.0424488
0.0424474
0.0424388
0.0424224
0.0424008
0.0423784
0.042359
0.0423451
0.0423375
0.0423346
0.0423357
0.0423428
0.0423537
0.0423676
0.0423851
0.0424056
0.0424291
0.0424551
0.0424833
0.0425136
0.0425456
0.0425794
0.0426149
0.042652
0.0426906
0.0427306
0.0427718
0.0428141
0.0428574
0.0429016
0.0429466
0.0429923
0.0430384
0.0430848
0.0431313
0.0431777
0.0432238
0.0432695
0.0433146
0.0433588
0.0434019
0.0434435
0.0434834
0.043521
0.0435562
0.0435885
0.0436175
0.0436429
0.0436637
0.0436799
0.0436908
0.0436961
0.043696
0.0436868
0.043671
0.0436458
0.043611
0.043566
0.0435097
0.0434413
0.0433597
0.0432638
0.0431528
0.0430263
0.0428822
0.0427189
0.0425354
0.0423311
0.0421069
0.041862
0.0415952
0.0413022
0.0409848
0.0406407
0.0402748
0.0398846
0.039474
0.039038
0.0385782
0.0380931
0.03759
0.03707
0.0365304
0.0359708
0.0354016
0.0348047
0.0342152
0.0336069
0.0330155
0.0324008
0.0317897
0.031159
0.0305442
0.0299566
0.0293997
0.0283601
0.0451224
0.042418
0.0422928
0.042266
0.0422492
0.0422411
0.0422558
0.042316
0.0424038
0.0424837
0.0425386
0.0425734
0.0425985
0.0426213
0.0426335
0.0426295
0.0426131
0.0425863
0.0425598
0.0425334
0.0425095
0.0424918
0.0424837
0.0424821
0.0424851
0.0424922
0.0424971
0.0424974
0.0424918
0.0424795
0.0424632
0.0424463
0.0424326
0.0424242
0.0424209
0.0424218
0.0424291
0.0424409
0.0424565
0.042476
0.0424988
0.0425247
0.0425533
0.0425843
0.0426175
0.0426525
0.0426894
0.042728
0.0427684
0.0428103
0.0428539
0.0428989
0.0429451
0.0429925
0.0430411
0.0430906
0.0431411
0.0431923
0.0432441
0.0432962
0.0433486
0.0434011
0.0434535
0.0435056
0.0435574
0.0436084
0.0436585
0.0437073
0.0437546
0.0438
0.0438431
0.0438836
0.0439211
0.0439552
0.0439855
0.0440114
0.0440321
0.0440477
0.0440573
0.0440608
0.0440566
0.0440441
0.0440228
0.0439911
0.0439493
0.0438957
0.0438296
0.0437501
0.043656
0.0435454
0.0434175
0.0432719
0.0431081
0.042926
0.0427229
0.042496
0.0422437
0.0419689
0.0416702
0.0413492
0.0410019
0.040631
0.0402326
0.0398098
0.039361
0.0388912
0.038398
0.0378829
0.0373462
0.0367936
0.0362339
0.0356543
0.0350643
0.0344658
0.0338831
0.0332881
0.0327121
0.032101
0.0315375
0.031033
0.030136
0.0450711
0.0424676
0.0423441
0.0423083
0.0422736
0.0422483
0.0422371
0.0422339
0.0422516
0.0422873
0.0423325
0.0423838
0.0424372
0.0424912
0.0425391
0.0425675
0.0425805
0.0425809
0.0425725
0.0425583
0.0425442
0.0425303
0.0425217
0.0425183
0.0425194
0.0425268
0.042536
0.0425429
0.0425458
0.0425442
0.0425373
0.0425271
0.0425168
0.0425094
0.0425063
0.0425072
0.0425143
0.0425265
0.0425433
0.0425643
0.0425891
0.0426173
0.0426485
0.0426822
0.0427181
0.0427561
0.0427959
0.0428376
0.0428811
0.0429263
0.0429732
0.0430217
0.0430717
0.043123
0.0431755
0.0432293
0.0432842
0.0433401
0.0433969
0.0434543
0.0435122
0.0435705
0.043629
0.0436877
0.0437464
0.0438048
0.0438627
0.0439199
0.0439761
0.0440309
0.0440842
0.0441355
0.0441845
0.0442309
0.0442742
0.044314
0.04435
0.0443816
0.0444081
0.0444289
0.0444435
0.0444513
0.0444527
0.0444438
0.044427
0.0443996
0.0443608
0.0443107
0.0442473
0.0441695
0.044077
0.043969
0.0438441
0.0437008
0.0435364
0.0433494
0.0431405
0.0429112
0.0426587
0.0423827
0.0420793
0.0417508
0.0413954
0.0410163
0.0406104
0.040179
0.039721
0.039241
0.0387366
0.0382122
0.0376658
0.0371025
0.0365169
0.0359103
0.0352994
0.0346749
0.0340571
0.0333815
0.0327138
0.0320912
0.030996
0.0449984
0.0425109
0.0423988
0.0423649
0.0423293
0.0422904
0.0422577
0.0422347
0.0422121
0.0421917
0.0421783
0.0421924
0.0422362
0.0423033
0.0423857
0.0424641
0.0425243
0.0425531
0.0425628
0.0425622
0.0425581
0.0425559
0.0425532
0.0425508
0.0425511
0.0425574
0.042568
0.0425797
0.0425897
0.0425964
0.042599
0.0425979
0.0425942
0.0425905
0.0425891
0.0425912
0.0425981
0.0426104
0.0426279
0.0426501
0.0426765
0.0427068
0.0427403
0.0427765
0.0428152
0.042856
0.0428987
0.0429434
0.0429899
0.0430382
0.0430884
0.0431402
0.0431937
0.0432486
0.043305
0.0433628
0.0434219
0.0434823
0.0435437
0.043606
0.0436691
0.0437329
0.0437972
0.043862
0.0439271
0.0439923
0.0440575
0.0441224
0.0441868
0.0442503
0.0443127
0.0443739
0.0444334
0.0444909
0.044546
0.0445985
0.0446478
0.0446937
0.0447357
0.0447731
0.0448055
0.0448317
0.0448519
0.0448651
0.0448709
0.044869
0.0448559
0.0448338
0.0447994
0.0447529
0.0446934
0.0446197
0.0445302
0.0444232
0.0442975
0.0441531
0.04399
0.043807
0.0436012
0.0433724
0.0431177
0.042839
0.0425354
0.0422093
0.0418561
0.0414762
0.0410694
0.04064
0.0401854
0.0397078
0.0392042
0.0386844
0.0381446
0.0375859
0.0370061
0.0364118
0.035806
0.0352007
0.034563
0.0339548
0.0328703
0.0449118
0.0425465
0.042446
0.0424212
0.0423929
0.0423524
0.0423072
0.0422646
0.0422235
0.0421768
0.0421212
0.0420791
0.0420745
0.0421083
0.0421853
0.0422909
0.0423968
0.0424735
0.0425149
0.0425445
0.0425599
0.0425685
0.0425753
0.0425788
0.042581
0.042586
0.0425962
0.04261
0.0426245
0.0426379
0.0426488
0.0426566
0.0426614
0.0426642
0.042667
0.0426716
0.0426796
0.0426923
0.0427102
0.0427332
0.0427609
0.0427929
0.0428284
0.042867
0.0429082
0.0429517
0.0429972
0.0430447
0.0430941
0.0431455
0.0431987
0.0432538
0.0433105
0.0433689
0.0434289
0.0434904
0.0435534
0.0436177
0.0436834
0.0437502
0.0438181
0.0438868
0.0439564
0.0440267
0.0440977
0.0441691
0.0442408
0.0443127
0.0443845
0.044456
0.0445268
0.0445969
0.0446659
0.0447337
0.0447997
0.0448637
0.0449255
0.0449846
0.0450406
0.0450931
0.0451415
0.0451853
0.045224
0.0452568
0.0452829
0.0453021
0.0453135
0.0453173
0.0453103
0.0452933
0.045265
0.045223
0.0451678
0.0450972
0.0450112
0.0449091
0.0447893
0.0446492
0.0444871
0.0443032
0.0440953
0.0438644
0.0436083
0.0433281
0.0430198
0.0426848
0.0423218
0.0419331
0.0415181
0.0410767
0.0406072
0.0401165
0.0396028
0.0390719
0.0385154
0.0379389
0.0373454
0.0367369
0.0361116
0.0355179
0.0345062
0.0448179
0.0425728
0.0424851
0.0424665
0.0424479
0.0424163
0.0423708
0.0423163
0.0422563
0.0421909
0.0421187
0.0420456
0.041992
0.0419779
0.0420081
0.0420931
0.0422187
0.0423463
0.0424464
0.0425083
0.0425466
0.0425677
0.0425821
0.0425958
0.0426061
0.0426138
0.0426238
0.042638
0.0426549
0.0426725
0.0426893
0.0427046
0.0427176
0.0427282
0.0427373
0.0427463
0.0427571
0.0427712
0.0427898
0.0428135
0.0428423
0.0428756
0.0429129
0.0429536
0.0429972
0.0430431
0.0430913
0.0431415
0.0431937
0.0432479
0.043304
0.043362
0.0434219
0.0434835
0.0435468
0.0436117
0.0436783
0.0437465
0.0438161
0.043887
0.0439593
0.0440326
0.0441071
0.0441825
0.0442588
0.0443359
0.0444137
0.0444919
0.0445705
0.0446491
0.0447276
0.0448057
0.0448834
0.0449602
0.045036
0.0451104
0.0451832
0.0452541
0.0453228
0.0453887
0.0454515
0.0455107
0.0455659
0.0456164
0.0456618
0.0457015
0.0457344
0.0457602
0.0457781
0.0457873
0.0457886
0.0457758
0.0457535
0.0457174
0.0456677
0.0456035
0.0455221
0.0454219
0.0453024
0.0451634
0.0450029
0.044821
0.0446142
0.0443832
0.0441258
0.0438444
0.043535
0.043198
0.0428337
0.0424424
0.0420243
0.0415789
0.0411068
0.0406148
0.0400952
0.0395544
0.0389785
0.0383838
0.0377568
0.037125
0.0361537
0.0447246
0.0425855
0.0425144
0.0425026
0.0424907
0.0424688
0.0424298
0.0423738
0.0423038
0.0422205
0.0421316
0.0420466
0.0419692
0.041918
0.0419042
0.0419365
0.0420314
0.0421748
0.0423211
0.0424313
0.0425003
0.0425474
0.0425777
0.0426033
0.0426246
0.0426399
0.042652
0.0426662
0.0426837
0.0427032
0.0427235
0.0427441
0.0427642
0.0427826
0.042799
0.0428141
0.0428292
0.042846
0.0428661
0.0428908
0.0429205
0.0429549
0.0429937
0.0430362
0.0430818
0.04313
0.0431806
0.0432334
0.0432882
0.0433451
0.0434039
0.0434648
0.0435275
0.0435921
0.0436585
0.0437266
0.0437965
0.0438681
0.0439414
0.0440161
0.0440923
0.0441698
0.0442486
0.0443286
0.0444097
0.0444919
0.044575
0.0446589
0.0447435
0.0448285
0.0449138
0.0449991
0.0450844
0.0451695
0.0452539
0.0453376
0.0454203
0.0455017
0.0455816
0.0456597
0.0457354
0.0458085
0.0458785
0.0459448
0.0460072
0.046065
0.0461177
0.0461646
0.0462052
0.046238
0.0462632
0.0462794
0.0462866
0.0462836
0.0462667
0.0462382
0.0461937
0.0461338
0.0460578
0.0459644
0.0458515
0.0457185
0.0455625
0.0453838
0.0451806
0.0449542
0.0446997
0.0444188
0.0441103
0.0437753
0.043414
0.0430236
0.0426075
0.0421658
0.0416979
0.0412079
0.0406825
0.0401419
0.0395478
0.0389476
0.038047
0.0446419
0.0426034
0.0425367
0.0425292
0.0425239
0.0425104
0.0424782
0.0424239
0.042351
0.0422589
0.0421562
0.0420574
0.0419702
0.0418989
0.0418608
0.0418544
0.0418934
0.042003
0.0421626
0.0423177
0.0424346
0.0425118
0.0425631
0.0426009
0.0426338
0.0426605
0.0426786
0.0426943
0.0427121
0.0427325
0.0427546
0.0427783
0.0428031
0.042828
0.0428517
0.0428737
0.0428945
0.0429153
0.0429381
0.0429644
0.0429952
0.0430307
0.0430708
0.0431148
0.0431623
0.0432126
0.0432654
0.0433205
0.0433778
0.0434371
0.0434986
0.043562
0.0436275
0.0436948
0.043764
0.0438351
0.043908
0.0439828
0.0440593
0.0441374
0.0442172
0.0442985
0.0443812
0.0444653
0.0445508
0.0446375
0.0447254
0.0448144
0.0449043
0.0449951
0.0450864
0.0451781
0.0452702
0.0453625
0.0454547
0.0455466
0.045638
0.0457287
0.0458185
0.0459071
0.0459941
0.0460793
0.0461623
0.0462426
0.0463199
0.0463938
0.0464636
0.046529
0.0465894
0.046644
0.0466923
0.0467333
0.0467661
0.0467901
0.0468041
0.0468085
0.0467991
0.0467775
0.046742
0.0466896
0.0466204
0.0465323
0.0464241
0.0462947
0.0461416
0.0459652
0.0457618
0.0455334
0.0452754
0.04499
0.0446757
0.0443324
0.0439625
0.0435623
0.0431374
0.0426826
0.042198
0.0416824
0.0411265
0.0405229
0.0397186
0.0445756
0.0426253
0.042558
0.0425521
0.0425515
0.0425446
0.0425171
0.0424631
0.0423879
0.0422931
0.0421852
0.0420767
0.0419795
0.0418996
0.0418461
0.041823
0.0418261
0.0418799
0.042008
0.0421792
0.042337
0.0424514
0.0425297
0.0425881
0.0426347
0.0426741
0.0427036
0.0427239
0.0427424
0.0427626
0.0427851
0.0428101
0.0428377
0.0428674
0.0428973
0.0429261
0.042953
0.0429789
0.0430052
0.0430338
0.0430661
0.0431028
0.0431441
0.0431895
0.0432386
0.0432907
0.0433455
0.0434027
0.0434622
0.0435239
0.0435876
0.0436535
0.0437215
0.0437913
0.0438632
0.0439369
0.0440126
0.0440902
0.0441696
0.0442509
0.0443339
0.0444185
0.0445047
0.0445925
0.0446818
0.0447726
0.0448648
0.0449582
0.0450529
0.0451486
0.0452452
0.0453426
0.0454406
0.0455391
0.045638
0.045737
0.045836
0.0459347
0.0460331
0.0461309
0.0462278
0.0463236
0.0464179
0.0465103
0.0466007
0.0466885
0.0467734
0.046855
0.0469327
0.0470061
0.0470746
0.0471375
0.0471941
0.0472436
0.0472848
0.0473175
0.0473404
0.0473528
0.0473552
0.0473402
0.0473129
0.047268
0.0472054
0.0471245
0.0470219
0.0468975
0.0467484
0.0465757
0.0463744
0.0461469
0.0458891
0.0456037
0.0452893
0.0449449
0.0445739
0.0441686
0.0437353
0.0432646
0.0427593
0.0421899
0.0414471
0.0445267
0.0426437
0.0425804
0.0425754
0.0425775
0.0425744
0.0425494
0.0424921
0.0424119
0.0423161
0.0422091
0.0420989
0.041996
0.0419089
0.0418469
0.0418131
0.0418072
0.0418188
0.0418953
0.042045
0.0422215
0.0423723
0.0424827
0.0425636
0.0426272
0.0426809
0.0427232
0.0427511
0.0427721
0.0427927
0.0428154
0.0428409
0.0428699
0.0429025
0.0429371
0.0429717
0.0430048
0.0430361
0.0430667
0.0430984
0.0431328
0.0431711
0.0432137
0.0432604
0.043311
0.0433647
0.0434213
0.0434805
0.043542
0.0436057
0.0436716
0.0437397
0.0438099
0.0438821
0.0439563
0.0440325
0.0441107
0.0441909
0.044273
0.044357
0.0444428
0.0445304
0.0446197
0.0447107
0.0448034
0.0448978
0.0449936
0.045091
0.0451897
0.0452898
0.045391
0.0454933
0.0455964
0.0457004
0.045805
0.0459102
0.0460157
0.0461214
0.0462272
0.0463329
0.0464382
0.046543
0.0466469
0.0467498
0.0468512
0.046951
0.0470488
0.0471442
0.0472369
0.0473264
0.0474123
0.0474938
0.0475707
0.0476421
0.0477075
0.0477661
0.0478169
0.0478582
0.0478906
0.0479115
0.0479215
0.0479191
0.0478985
0.0478653
0.0478124
0.0477403
0.047647
0.0475316
0.0473903
0.0472244
0.047028
0.0468044
0.0465482
0.0462624
0.0459448
0.0455899
0.0452011
0.0447679
0.0442997
0.0437667
0.0430763
0.0444988
0.0426618
0.0426033
0.0426002
0.0426045
0.0426019
0.0425758
0.0425106
0.0424243
0.0423269
0.0422227
0.0421171
0.042016
0.0419259
0.0418568
0.0418159
0.0418022
0.041805
0.0418364
0.0419417
0.0421079
0.0422807
0.0424217
0.0425288
0.0426131
0.042682
0.0427374
0.0427763
0.0428026
0.0428246
0.0428473
0.0428726
0.0429018
0.0429357
0.0429734
0.0430126
0.0430511
0.0430878
0.0431231
0.0431583
0.0431952
0.0432353
0.0432793
0.0433274
0.0433793
0.0434345
0.0434927
0.0435535
0.0436168
0.0436825
0.0437504
0.0438205
0.0438927
0.0439671
0.0440434
0.0441218
0.0442022
0.0442847
0.0443691
0.0444556
0.044544
0.0446342
0.0447262
0.0448201
0.0449158
0.0450132
0.0451123
0.0452131
0.0453154
0.0454192
0.0455244
0.0456308
0.0457383
0.045847
0.0459566
0.046067
0.046178
0.0462896
0.0464017
0.046514
0.0466265
0.0467389
0.046851
0.0469626
0.0470734
0.0471833
0.0472919
0.047399
0.0475042
0.0476073
0.0477079
0.0478054
0.0478995
0.0479896
0.0480753
0.0481558
0.0482304
0.0482984
0.0483591
0.0484115
0.0484541
0.0484868
0.0485072
0.0485163
0.0485103
0.0484861
0.0484448
0.0483822
0.0482968
0.0481878
0.0480499
0.0478851
0.0476866
0.04746
0.047198
0.0469009
0.0465642
0.0461785
0.0457534
0.0452593
0.044623
0.0444912
0.0426773
0.0426239
0.0426242
0.0426314
0.042627
0.0425943
0.0425189
0.0424266
0.0423265
0.0422245
0.0421262
0.0420329
0.0419466
0.0418746
0.0418261
0.0418056
0.0418033
0.0418158
0.0418797
0.0420165
0.0421907
0.0423532
0.0424855
0.0425915
0.0426765
0.0427463
0.0427978
0.0428313
0.042856
0.0428791
0.0429043
0.0429335
0.042968
0.0430076
0.0430503
0.0430933
0.0431349