/*--------------------------------*- C++ -*----------------------------------*\
| =========                 |                                                 |
| \\      /  F ield         | OpenFOAM: The Open Source CFD Toolbox           |
|  \\    /   O peration     | Version:  2412                                  |
|   \\  /    A nd           | Website:  www.openfoam.com                      |
|    \\/     M anipulation  |                                                 |
\*---------------------------------------------------------------------------*/
FoamFile
{
    version     2.0;
    format      ascii;
    arch        "LSB;label=32;scalar=64";
    class       volScalarField;
    location    "0.042";
    object      T;
}
// * * * * * * * * * * * * * * * * * * * * * * * * * * * * * * * * * * * * * //

dimensions      [0 0 0 1 0 0 0];

internalField   nonuniform List<scalar> 
78650
(
223
223
223
223
223
223.004
223.056
223.257
223.556
223.746
223.765
223.69
223.383
223.024
222.76
222.577
222.434
222.287
222.113
221.922
221.759
221.671
221.653
221.69
221.782
221.863
221.895
221.896
221.874
221.836
221.804
221.776
221.747
221.715
221.681
221.648
221.617
221.586
221.557
221.528
221.501
221.476
221.454
221.435
221.418
221.403
221.39
221.378
221.367
221.357
221.347
221.338
221.329
221.319
221.31
221.3
221.29
221.278
221.265
221.249
221.23
221.207
221.18
221.147
221.109
221.065
221.012
220.951
220.879
220.797
220.701
220.592
220.466
220.321
220.157
219.97
219.758
219.519
219.25
218.947
218.608
218.227
217.799
217.32
216.788
216.198
215.545
214.828
214.037
213.164
212.191
211.135
209.99
208.774
207.434
205.965
204.352
202.603
200.832
198.872
196.794
194.679
192.632
190.473
188.181
185.855
183.52
181.219
179.044
176.921
174.886
172.959
171.064
169.267
167.639
166.138
164.917
164.001
163.531
163.465
162.024
223
223
223
223
223
223.002
223.036
223.203
223.505
223.735
223.78
223.739
223.479
223.123
222.845
222.65
222.505
222.364
222.201
222.019
221.848
221.735
221.699
221.715
221.793
221.887
221.939
221.95
221.939
221.907
221.873
221.846
221.821
221.793
221.763
221.734
221.706
221.679
221.653
221.628
221.605
221.584
221.566
221.552
221.54
221.53
221.521
221.514
221.508
221.504
221.5
221.497
221.494
221.491
221.488
221.485
221.482
221.478
221.473
221.467
221.457
221.444
221.428
221.407
221.381
221.35
221.311
221.265
221.211
221.146
221.07
220.981
220.878
220.759
220.622
220.464
220.285
220.08
219.848
219.587
219.292
218.959
218.585
218.166
217.695
217.17
216.586
215.939
215.217
214.417
213.536
212.585
211.545
210.412
209.142
207.782
206.323
204.748
203.077
201.218
199.297
197.234
195.077
192.934
190.7
188.398
186.099
183.705
181.432
179.261
177.075
175.02
173.02
171.113
169.338
167.695
166.358
165.267
164.51
164.137
162.296
223
223
223
223
223
223.001
223.022
223.153
223.445
223.713
223.791
223.777
223.573
223.227
222.931
222.723
222.574
222.439
222.288
222.117
221.946
221.814
221.756
221.756
221.808
221.906
221.979
222.004
222.002
221.978
221.945
221.918
221.895
221.871
221.846
221.821
221.796
221.773
221.751
221.73
221.711
221.695
221.681
221.671
221.663
221.658
221.655
221.653
221.652
221.654
221.656
221.658
221.661
221.665
221.669
221.673
221.677
221.681
221.684
221.686
221.686
221.683
221.677
221.668
221.654
221.636
221.612
221.58
221.542
221.494
221.437
221.369
221.288
221.192
221.081
220.951
220.801
220.629
220.432
220.208
219.954
219.666
219.341
218.973
218.557
218.093
217.574
216.998
216.355
215.644
214.859
214.002
213.052
212.009
210.849
209.612
208.253
206.788
205.196
203.514
201.715
199.78
197.688
195.555
193.359
191.038
188.735
186.296
183.788
181.389
178.99
176.731
174.57
172.525
170.647
168.913
167.489
166.342
165.62
165.263
163.334
223
223
223
223
223
223.001
223.013
223.109
223.378
223.677
223.796
223.809
223.662
223.335
223.02
222.798
222.644
222.516
222.376
222.218
222.054
221.91
221.826
221.806
221.835
221.922
222.012
222.056
222.062
222.05
222.02
221.993
221.971
221.951
221.931
221.91
221.889
221.87
221.851
221.835
221.82
221.808
221.798
221.792
221.79
221.79
221.791
221.794
221.799
221.805
221.813
221.821
221.83
221.84
221.85
221.861
221.873
221.884
221.895
221.906
221.915
221.922
221.926
221.927
221.925
221.919
221.908
221.892
221.868
221.838
221.798
221.749
221.689
221.616
221.529
221.426
221.305
221.164
221.001
220.814
220.6
220.356
220.078
219.762
219.403
219
218.547
218.041
217.471
216.837
216.136
215.362
214.498
213.54
212.478
211.341
210.097
208.771
207.317
205.71
203.976
202.136
200.163
198.06
195.953
193.716
191.436
189.198
186.799
184.397
181.929
179.46
177.056
174.685
172.473
170.485
168.837
167.497
166.596
166.056
163.904
223
223
223
223
223
223
223.007
223.073
223.306
223.627
223.795
223.839
223.742
223.442
223.111
222.876
222.718
222.595
222.466
222.321
222.166
222.019
221.911
221.869
221.878
221.939
222.036
222.103
222.124
222.119
222.098
222.071
222.05
222.033
222.017
222.001
221.985
221.97
221.955
221.943
221.932
221.924
221.919
221.918
221.92
221.925
221.931
221.939
221.949
221.961
221.974
221.988
222.004
222.019
222.036
222.054
222.072
222.091
222.11
222.129
222.147
222.163
222.177
222.189
222.198
222.204
222.206
222.204
222.195
222.181
222.158
222.128
222.087
222.036
221.972
221.894
221.801
221.689
221.558
221.405
221.228
221.024
220.79
220.521
220.215
219.867
219.473
219.029
218.531
217.976
217.356
216.664
215.886
215.029
214.092
213.083
211.956
210.724
209.344
207.87
206.277
204.535
202.691
200.645
198.522
196.292
193.91
191.575
189.187
186.784
184.433
181.989
179.564
177.195
174.841
172.671
170.779
169.213
168.112
167.392
164.726
223
223
223
223
223
223
223.003
223.044
223.234
223.563
223.786
223.864
223.805
223.545
223.209
222.962
222.799
222.679
222.56
222.426
222.281
222.137
222.014
221.945
221.933
221.966
222.054
222.141
222.182
222.188
222.176
222.153
222.133
222.118
222.106
222.095
222.084
222.073
222.063
222.055
222.049
222.045
222.044
222.048
222.054
222.063
222.075
222.088
222.103
222.12
222.139
222.159
222.18
222.202
222.225
222.249
222.274
222.3
222.327
222.354
222.38
222.405
222.429
222.451
222.472
222.489
222.504
222.514
222.52
222.521
222.515
222.502
222.481
222.45
222.409
222.355
222.287
222.204
222.103
221.983
221.842
221.678
221.486
221.265
221.009
220.715
220.38
220.001
219.572
219.089
218.544
217.932
217.248
216.494
215.659
214.736
213.695
212.563
211.311
209.976
208.506
206.911
205.206
203.337
201.326
199.239
196.988
194.551
192.137
189.512
187.007
184.44
181.845
179.355
176.89
174.54
172.435
170.639
169.437
168.764
166.22
223
223
223
223
223
223
223.001
223.024
223.166
223.483
223.763
223.879
223.848
223.649
223.318
223.056
222.884
222.766
222.656
222.532
222.398
222.26
222.13
222.036
222
222.009
222.071
222.168
222.235
222.256
222.254
222.238
222.22
222.207
222.198
222.191
222.186
222.18
222.175
222.171
222.169
222.17
222.174
222.181
222.192
222.206
222.223
222.242
222.262
222.284
222.308
222.333
222.36
222.388
222.418
222.448
222.48
222.513
222.547
222.582
222.617
222.651
222.685
222.717
222.747
222.776
222.803
222.826
222.846
222.861
222.871
222.875
222.872
222.861
222.841
222.81
222.767
222.71
222.638
222.549
222.441
222.312
222.16
221.981
221.771
221.528
221.247
220.927
220.561
220.148
219.678
219.148
218.553
217.892
217.152
216.326
215.394
214.371
213.235
212.011
210.65
209.183
207.574
205.836
203.939
201.898
199.813
197.512
195.233
192.75
190.153
187.575
184.94
182.322
179.711
177.23
174.901
172.822
171.081
169.843
166.333
223
223
223
223
223
223
223
223.012
223.109
223.393
223.719
223.882
223.879
223.748
223.436
223.157
222.975
222.857
222.756
222.641
222.514
222.383
222.253
222.142
222.079
222.067
222.098
222.187
222.277
222.322
222.331
222.325
222.311
222.3
222.293
222.291
222.291
222.291
222.29
222.291
222.294
222.299
222.307
222.319
222.334
222.353
222.375
222.398
222.424
222.451
222.48
222.511
222.544
222.578
222.613
222.65
222.688
222.728
222.769
222.812
222.855
222.898
222.94
222.982
223.023
223.063
223.101
223.137
223.169
223.199
223.224
223.244
223.258
223.265
223.266
223.257
223.238
223.207
223.162
223.103
223.027
222.933
222.818
222.681
222.516
222.322
222.094
221.831
221.527
221.178
220.779
220.326
219.814
219.24
218.586
217.85
217.025
216.123
215.123
214.031
212.801
211.47
209.986
208.375
206.639
204.699
202.645
200.408
198.031
195.667
193.044
190.435
187.686
184.984
182.186
179.572
177.258
175.334
173.792
172.607
168.938
223
223
223
223
223
223
223
223.005
223.064
223.298
223.65
223.874
223.904
223.834
223.556
223.263
223.072
222.951
222.856
222.749
222.627
222.5
222.376
222.258
222.172
222.138
222.145
222.207
222.308
222.382
222.411
222.414
222.407
222.398
222.394
222.394
222.399
222.404
222.409
222.415
222.422
222.432
222.444
222.46
222.48
222.504
222.53
222.559
222.589
222.621
222.656
222.692
222.731
222.77
222.812
222.855
222.899
222.946
222.994
223.044
223.095
223.147
223.198
223.249
223.3
223.35
223.4
223.447
223.493
223.536
223.575
223.611
223.642
223.667
223.685
223.697
223.7
223.693
223.675
223.644
223.597
223.535
223.455
223.355
223.232
223.082
222.903
222.692
222.444
222.158
221.828
221.45
221.017
220.524
219.961
219.329
218.621
217.837
216.949
215.96
214.843
213.63
212.275
210.813
209.203
207.462
205.554
203.485
201.224
198.921
196.404
193.811
191.117
188.235
185.336
182.337
179.514
176.972
175.127
173.989
170.358
223
223
223
223
223
223
223
223.002
223.034
223.209
223.559
223.847
223.925
223.897
223.674
223.379
223.176
223.047
222.954
222.853
222.736
222.614
222.496
222.381
222.282
222.225
222.213
222.243
222.334
222.432
222.489
222.506
222.506
222.501
222.499
222.502
222.51
222.521
222.531
222.542
222.554
222.568
222.585
222.605
222.629
222.657
222.688
222.722
222.757
222.794
222.834
222.876
222.919
222.965
223.012
223.061
223.112
223.165
223.22
223.277
223.336
223.395
223.455
223.516
223.576
223.636
223.696
223.755
223.813
223.868
223.922
223.972
224.018
224.06
224.098
224.129
224.152
224.168
224.174
224.17
224.152
224.121
224.074
224.011
223.927
223.821
223.689
223.528
223.335
223.108
222.841
222.53
222.17
221.756
221.281
220.744
220.135
219.448
218.664
217.788
216.799
215.713
214.493
213.166
211.681
210.064
208.291
206.354
204.27
201.94
199.603
196.965
194.369
191.555
188.745
185.957
183.15
180.506
178.018
176.143
171.35
223
223
223
223
223
223
223
223.001
223.016
223.133
223.453
223.797
223.932
223.94
223.79
223.505
223.281
223.138
223.045
222.952
222.843
222.726
222.614
222.506
222.405
222.33
222.299
222.305
222.367
222.473
222.559
222.6
222.61
222.61
222.61
222.614
222.625
222.64
222.656
222.672
222.689
222.708
222.728
222.752
222.78
222.813
222.848
222.887
222.927
222.969
223.014
223.061
223.11
223.161
223.214
223.268
223.326
223.385
223.447
223.511
223.577
223.644
223.713
223.782
223.851
223.921
223.991
224.061
224.13
224.198
224.265
224.329
224.391
224.449
224.503
224.552
224.596
224.633
224.661
224.68
224.689
224.688
224.672
224.642
224.594
224.527
224.437
224.322
224.18
224.007
223.8
223.555
223.266
222.93
222.539
222.092
221.578
220.99
220.314
219.556
218.699
217.747
216.67
215.485
214.147
212.686
211.057
209.273
207.341
205.177
202.912
200.374
197.616
194.815
191.888
188.904
185.991
183.454
181.279
179.586
174.921
223
223
223
223
223
223
223
223
223.006
223.076
223.341
223.72
223.923
223.976
223.891
223.63
223.381
223.225
223.133
223.051
222.951
222.839
222.732
222.632
222.536
222.453
222.404
222.393
222.421
222.513
222.62
222.69
222.717
222.724
222.726
222.731
222.743
222.762
222.783
222.804
222.826
222.849
222.874
222.902
222.934
222.97
223.01
223.053
223.098
223.145
223.195
223.247
223.301
223.357
223.415
223.476
223.539
223.604
223.672
223.743
223.816
223.891
223.967
224.044
224.123
224.202
224.281
224.362
224.442
224.522
224.601
224.678
224.754
224.827
224.897
224.964
225.026
225.083
225.134
225.177
225.21
225.234
225.248
225.25
225.237
225.208
225.159
225.088
224.993
224.872
224.72
224.535
224.312
224.046
223.732
223.368
222.94
222.448
221.881
221.24
220.509
219.685
218.743
217.693
216.501
215.191
213.713
212.091
210.3
208.35
206.185
203.889
201.27
198.487
195.644
192.454
189.188
186.132
183.51
181.592
176.584
223
223
223
223
223
223
223
223
223.002
223.038
223.236
223.619
223.9
224.006
223.962
223.744
223.483
223.315
223.222
223.148
223.059
222.954
222.85
222.757
222.67
222.588
222.525
222.499
222.504
222.562
222.671
222.769
222.821
222.839
222.846
222.852
222.864
222.885
222.91
222.936
222.963
222.991
223.02
223.052
223.088
223.128
223.172
223.22
223.27
223.321
223.376
223.432
223.491
223.553
223.617
223.683
223.751
223.822
223.897
223.974
224.053
224.136
224.219
224.305
224.392
224.48
224.569
224.659
224.75
224.841
224.931
225.021
225.11
225.198
225.283
225.366
225.446
225.521
225.592
225.656
225.714
225.763
225.803
225.832
225.85
225.855
225.844
225.814
225.763
225.688
225.588
225.46
225.298
225.1
224.86
224.573
224.231
223.833
223.37
222.838
222.221
221.515
220.701
219.786
218.739
217.576
216.256
214.797
213.155
211.358
209.391
207.189
204.836
202.221
199.447
196.611
193.45
190.522
187.568
185.105
179.171
223
223
223
223
223
223
223
223
223.001
223.017
223.148
223.501
223.858
224.016
224.005
223.853
223.591
223.41
223.31
223.242
223.165
223.069
222.97
222.882
222.804
222.729
222.661
222.62
222.609
222.633
222.722
222.836
222.917
222.953
222.966
222.975
222.988
223.01
223.038
223.069
223.1
223.132
223.166
223.202
223.242
223.286
223.334
223.386
223.44
223.497
223.555
223.617
223.681
223.747
223.816
223.887
223.961
224.038
224.118
224.201
224.287
224.376
224.467
224.56
224.655
224.751
224.849
224.948
225.049
225.151
225.252
225.354
225.456
225.556
225.656
225.754
225.85
225.943
226.032
226.117
226.196
226.269
226.334
226.391
226.438
226.474
226.496
226.505
226.496
226.466
226.415
226.337
226.232
226.094
225.921
225.707
225.446
225.136
224.767
224.334
223.822
223.232
222.546
221.766
220.866
219.854
218.693
217.396
215.922
214.29
212.455
210.421
208.158
205.674
202.906
200.065
196.849
193.876
191.161
188.948
183.491
223
223
223
223
223
223
223
223
223
223.007
223.084
223.379
223.784
224.011
224.035
223.949
223.701
223.503
223.395
223.332
223.268
223.185
223.093
223.008
222.935
222.866
222.8
222.747
222.724
222.727
222.78
222.89
222.996
223.058
223.084
223.097
223.111
223.133
223.164
223.199
223.235
223.271
223.31
223.35
223.394
223.442
223.494
223.55
223.609
223.67
223.733
223.799
223.868
223.939
224.013
224.089
224.168
224.251
224.336
224.425
224.517
224.613
224.711
224.811
224.913
225.018
225.124
225.232
225.342
225.453
225.566
225.678
225.792
225.905
226.018
226.13
226.241
226.35
226.457
226.561
226.66
226.754
226.842
226.923
226.997
227.062
227.116
227.157
227.184
227.195
227.188
227.159
227.107
227.026
226.915
226.769
226.582
226.352
226.069
225.73
225.322
224.846
224.285
223.639
222.885
222.024
221.027
219.902
218.61
217.167
215.528
213.71
211.672
209.395
206.934
204.082
201.127
197.721
194.496
191.722
185.48
223
223
223
223
223
223
223
223
223
223.002
223.043
223.267
223.684
223.988
224.061
224.023
223.803
223.592
223.479
223.421
223.37
223.301
223.214
223.129
223.057
222.993
222.932
222.877
222.842
222.832
222.854
222.941
223.061
223.15
223.194
223.216
223.233
223.256
223.288
223.326
223.366
223.407
223.45
223.495
223.543
223.595
223.652
223.712
223.775
223.84
223.908
223.978
224.052
224.128
224.206
224.287
224.371
224.459
224.55
224.644
224.742
224.844
224.948
225.055
225.164
225.276
225.39
225.506
225.625
225.745
225.867
225.991
226.115
226.24
226.365
226.49
226.615
226.739
226.862
226.983
227.1
227.214
227.324
227.428
227.527
227.618
227.701
227.775
227.836
227.883
227.915
227.93
227.928
227.899
227.845
227.76
227.641
227.485
227.283
227.033
226.724
226.356
225.912
225.389
224.767
224.046
223.2
222.233
221.106
219.829
218.365
216.731
214.874
212.784
210.465
207.936
205.226
202.298
199.252
196.574
190.465
223
223
223
223
223
223
223
223
223
223.001
223.02
223.175
223.569
223.945
224.079
224.068
223.898
223.683
223.562
223.507
223.466
223.408
223.327
223.241
223.169
223.11
223.055
223.004
222.963
222.945
222.948
223.001
223.116
223.227
223.295
223.33
223.352
223.376
223.409
223.45
223.494
223.539
223.587
223.637
223.689
223.745
223.806
223.87
223.938
224.007
224.079
224.154
224.232
224.312
224.395
224.481
224.57
224.662
224.758
224.858
224.961
225.068
225.179
225.292
225.408
225.527
225.649
225.773
225.899
226.028
226.159
226.292
226.427
226.562
226.699
226.836
226.974
227.112
227.249
227.386
227.521
227.653
227.782
227.907
228.028
228.143
228.252
228.354
228.446
228.527
228.596
228.649
228.687
228.706
228.707
228.678
228.623
228.533
228.406
228.237
228.019
227.747
227.407
226.997
226.499
225.913
225.212
224.4
223.443
222.346
221.067
219.614
217.948
216.071
213.92
211.493
208.792
206.058
202.811
200.161
194.687
223
223
223
223
223
223
223
223
223
223
223.009
223.107
223.454
223.884
224.079
224.101
223.985
223.774
223.643
223.585
223.551
223.503
223.431
223.348
223.277
223.221
223.172
223.127
223.086
223.061
223.054
223.077
223.17
223.294
223.385
223.437
223.467
223.493
223.527
223.57
223.618
223.668
223.72
223.774
223.831
223.892
223.956
224.025
224.096
224.17
224.246
224.325
224.407
224.491
224.579
224.669
224.763
224.86
224.96
225.065
225.174
225.286
225.402
225.521
225.644
225.769
225.898
226.029
226.163
226.3
226.439
226.581
226.725
226.87
227.017
227.166
227.315
227.465
227.616
227.767
227.917
228.066
228.213
228.357
228.498
228.636
228.769
228.896
229.016
229.128
229.23
229.32
229.397
229.458
229.501
229.525
229.528
229.5
229.442
229.347
229.21
229.027
228.786
228.485
228.108
227.654
227.1
226.446
225.661
224.746
223.663
222.418
220.968
219.311
217.396
215.233
212.779
210.216
207.181
204.246
198.486
223
223
223
223
223
223
223
223
223
223
223.003
223.062
223.348
223.808
224.065
224.129
224.061
223.858
223.713
223.654
223.627
223.591
223.53
223.451
223.381
223.328
223.284
223.244
223.208
223.18
223.167
223.173
223.234
223.356
223.467
223.537
223.578
223.609
223.644
223.688
223.739
223.793
223.849
223.908
223.969
224.034
224.103
224.175
224.251
224.329
224.409
224.491
224.577
224.666
224.757
224.852
224.95
225.051
225.156
225.265
225.379
225.496
225.618
225.743
225.871
226.003
226.137
226.275
226.416
226.56
226.707
226.857
227.01
227.164
227.321
227.48
227.64
227.802
227.965
228.129
228.293
228.457
228.62
228.781
228.94
229.098
229.252
229.402
229.547
229.686
229.817
229.94
230.051
230.151
230.237
230.305
230.355
230.383
230.389
230.361
230.299
230.196
230.045
229.844
229.579
229.246
228.823
228.311
227.679
226.926
226.016
224.951
223.689
222.23
220.521
218.572
216.354
213.928
211.301
208.659
203.745
223
223
223
223
223
223
223
223
223
223
223.001
223.035
223.26
223.723
224.044
224.157
224.116
223.926
223.777
223.717
223.697
223.674
223.625
223.552
223.484
223.433
223.392
223.356
223.325
223.298
223.283
223.28
223.315
223.421
223.544
223.634
223.687
223.724
223.76
223.806
223.859
223.916
223.976
224.039
224.104
224.173
224.245
224.321
224.401
224.482
224.566
224.653
224.742
224.834
224.93
225.029
225.13
225.236
225.345
225.459
225.577
225.699
225.825
225.955
226.089
226.226
226.367
226.511
226.658
226.809
226.963
227.12
227.281
227.444
227.609
227.777
227.947
228.119
228.293
228.469
228.645
228.823
229
229.177
229.353
229.528
229.701
229.872
230.039
230.203
230.36
230.511
230.654
230.788
230.911
231.021
231.117
231.193
231.249
231.281
231.289
231.26
231.193
231.082
230.916
230.692
230.39
230.01
229.524
228.933
228.2
227.325
226.263
225.013
223.531
221.807
219.771
217.493
214.876
212.174
207.498
223
223
223
223
223
223
223
223
223
223
223.001
223.02
223.191
223.638
224.022
224.174
224.151
223.987
223.837
223.777
223.764
223.751
223.714
223.648
223.581
223.532
223.494
223.463
223.437
223.415
223.401
223.395
223.413
223.496
223.622
223.727
223.795
223.838
223.878
223.924
223.979
224.039
224.102
224.167
224.236
224.308
224.384
224.463
224.546
224.632
224.719
224.809
224.902
224.997
225.097
225.199
225.304
225.414
225.527
225.645
225.767
225.893
226.024
226.159
226.298
226.44
226.586
226.736
226.889
227.046
227.207
227.371
227.538
227.709
227.882
228.059
228.238
228.419
228.603
228.789
228.977
229.166
229.357
229.548
229.738
229.929
230.119
230.308
230.495
230.68
230.861
231.037
231.208
231.371
231.527
231.673
231.807
231.928
232.033
232.117
232.179
232.216
232.225
232.194
232.119
231.994
231.805
231.552
231.21
230.778
230.222
229.539
228.685
227.655
226.402
224.904
223.13
221.122
218.794
216.326
212.217
223
223
223
223
223
223
223
223
223
223
223
223.012
223.143
223.563
223.998
224.184
224.176
224.039
223.892
223.834
223.826
223.822
223.797
223.737
223.673
223.627
223.592
223.566
223.545
223.53
223.518
223.513
223.523
223.584
223.702
223.819
223.901
223.953
223.996
224.043
224.1
224.162
224.227
224.295
224.366
224.441
224.519
224.602
224.688
224.776
224.867
224.96
225.056
225.155
225.257
225.363
225.472
225.585
225.702
225.823
225.949
226.08
226.215
226.354
226.498
226.645
226.796
226.951
227.109
227.272
227.438
227.609
227.783
227.96
228.14
228.324
228.511
228.701
228.894
229.089
229.287
229.487
229.689
229.892
230.096
230.3
230.505
230.711
230.915
231.119
231.32
231.518
231.713
231.903
232.087
232.265
232.434
232.592
232.739
232.871
232.986
233.079
233.148
233.188
233.199
233.165
233.081
232.942
232.728
232.436
232.034
231.519
230.847
230.015
228.972
227.696
226.15
224.299
222.153
219.69
216.015
223
223
223
223
223
223
223
223
223
223
223
223.007
223.111
223.504
223.972
224.191
224.197
224.083
223.943
223.887
223.884
223.888
223.87
223.819
223.76
223.718
223.688
223.666
223.651
223.64
223.633
223.631
223.638
223.682
223.786
223.91
224.004
224.066
224.113
224.163
224.22
224.284
224.351
224.42
224.494
224.571
224.652
224.737
224.826
224.917
225.01
225.106
225.204
225.306
225.412
225.521
225.633
225.749
225.869
225.994
226.124
226.258
226.397
226.541
226.688
226.84
226.995
227.155
227.318
227.486
227.658
227.834
228.013
228.197
228.384
228.574
228.769
228.966
229.167
229.37
229.577
229.787
229.999
230.213
230.428
230.645
230.863
231.082
231.302
231.522
231.741
231.959
232.175
232.387
232.596
232.801
233
233.191
233.374
233.546
233.706
233.849
233.975
234.077
234.153
234.198
234.208
234.168
234.069
233.902
233.647
233.299
232.818
232.197
231.377
230.347
229.044
227.426
225.524
223.184
219.861
223
223
223
223
223
223
223
223
223
223
223
223.005
223.092
223.462
223.95
224.196
224.214
224.119
223.988
223.938
223.938
223.948
223.936
223.895
223.842
223.805
223.781
223.763
223.752
223.745
223.743
223.743
223.751
223.785
223.874
223.999
224.104
224.175
224.228
224.28
224.339
224.404
224.473
224.544
224.619
224.698
224.781
224.868
224.959
225.053
225.149
225.247
225.348
225.452
225.56
225.672
225.787
225.906
226.03
226.158
226.291
226.429
226.572
226.719
226.87
227.026
227.185
227.349
227.517
227.69
227.866
228.047
228.232
228.421
228.614
228.811
229.011
229.215
229.423
229.634
229.849
230.067
230.288
230.511
230.737
230.964
231.194
231.425
231.658
231.892
232.127
232.361
232.595
232.828
233.058
233.286
233.51
233.73
233.944
234.151
234.349
234.535
234.709
234.866
235.004
235.115
235.198
235.246
235.256
235.208
235.094
234.903
234.603
234.189
233.606
232.844
231.805
230.451
228.747
226.553
223.435
223
223
223
223
223
223
223
223
223
223
223
223.005
223.083
223.439
223.94
224.201
224.229
224.147
224.027
223.985
223.989
224.006
223.998
223.964
223.918
223.888
223.868
223.854
223.847
223.844
223.845
223.85
223.858
223.887
223.965
224.086
224.199
224.279
224.337
224.392
224.454
224.521
224.591
224.664
224.741
224.822
224.907
224.996
225.089
225.185
225.283
225.383
225.486
225.593
225.703
225.817
225.935
226.057
226.183
226.314
226.451
226.592
226.738
226.888
227.043
227.202
227.366
227.534
227.706
227.882
228.063
228.249
228.439
228.632
228.83
229.032
229.239
229.449
229.663
229.88
230.102
230.327
230.556
230.788
231.022
231.259
231.499
231.741
231.986
232.232
232.48
232.729
232.978
233.228
233.477
233.724
233.971
234.215
234.455
234.691
234.922
235.145
235.359
235.561
235.75
235.921
236.073
236.196
236.288
236.34
236.349
236.289
236.146
235.904
235.523
234.99
234.206
233.145
231.68
229.712
226.802
223
223
223
223
223
223
223
223
223
223
223
223.005
223.081
223.435
223.941
224.208
224.242
224.168
224.061
224.029
224.04
224.063
224.056
224.028
223.988
223.963
223.948
223.939
223.935
223.935
223.941
223.949
223.96
223.987
224.056
224.172
224.29
224.377
224.441
224.499
224.563
224.633
224.706
224.781
224.86
224.942
225.029
225.12
225.215
225.312
225.412
225.514
225.619
225.728
225.84
225.957
226.077
226.201
226.33
226.464
226.603
226.748
226.896
227.05
227.208
227.371
227.538
227.709
227.885
228.066
228.251
228.44
228.634
228.833
229.035
229.242
229.453
229.669
229.889
230.112
230.34
230.572
230.808
231.047
231.289
231.535
231.783
232.035
232.289
232.546
232.805
233.067
233.33
233.594
233.858
234.124
234.389
234.653
234.916
235.177
235.435
235.689
235.937
236.178
236.41
236.631
236.838
237.026
237.194
237.328
237.429
237.485
237.49
237.407
237.233
236.941
236.468
235.769
234.617
232.993
230.259
223
223
223
223
223
223
223
223
223
223
223
223.005
223.084
223.447
223.955
224.22
224.254
224.184
224.091
224.071
224.091
224.12
224.112
224.086
224.051
224.031
224.021
224.016
224.015
224.019
224.029
224.041
224.055
224.082
224.146
224.257
224.377
224.47
224.537
224.6
224.667
224.74
224.816
224.894
224.974
225.058
225.147
225.24
225.336
225.435
225.536
225.64
225.747
225.857
225.972
226.09
226.212
226.339
226.47
226.607
226.749
226.896
227.048
227.204
227.365
227.531
227.701
227.876
228.056
228.24
228.428
228.622
228.82
229.022
229.229
229.44
229.656
229.877
230.101
230.33
230.564
230.801
231.043
231.289
231.538
231.791
232.047
232.307
232.571
232.837
233.106
233.379
233.653
233.93
234.208
234.488
234.769
235.051
235.334
235.616
235.897
236.176
236.453
236.727
236.995
237.256
237.509
237.751
237.978
238.186
238.373
238.524
238.643
238.705
238.711
238.608
238.384
237.977
237.201
236.121
233.862
223
223
223
223
223
223
223
223
223
223
223
223.006
223.096
223.478
223.982
224.234
224.264
224.196
224.117
224.111
224.145
224.175
224.167
224.142
224.11
224.094
224.087
224.085
224.088
224.096
224.111
224.126
224.143
224.172
224.234
224.34
224.461
224.557
224.629
224.695
224.766
224.843
224.921
225.001
225.084
225.17
225.261
225.355
225.453
225.553
225.656
225.761
225.869
225.981
226.097
226.217
226.342
226.47
226.604
226.743
226.888
227.038
227.192
227.351
227.515
227.684
227.857
228.035
228.218
228.405
228.597
228.794
228.996
229.202
229.413
229.628
229.848
230.073
230.303
230.537
230.775
231.018
231.266
231.517
231.773
232.032
232.296
232.563
232.834
233.109
233.387
233.669
233.954
234.242
234.532
234.825
235.12
235.417
235.716
236.016
236.317
236.618
236.919
237.22
237.518
237.814
238.105
238.39
238.668
238.935
239.189
239.423
239.635
239.804
239.933
239.993
239.994
239.843
239.492
238.932
237.542
223
223
223
223
223
223
223
223
223
223
223
223.008
223.117
223.525
224.019
224.25
224.273
224.206
224.141
224.15
224.197
224.229
224.221
224.195
224.167
224.154
224.149
224.15
224.156
224.168
224.186
224.205
224.226
224.257
224.319
224.423
224.543
224.642
224.717
224.786
224.86
224.94
225.021
225.104
225.188
225.277
225.369
225.465
225.564
225.666
225.769
225.876
225.985
226.099
226.217
226.339
226.465
226.596
226.732
226.873
227.02
227.173
227.33
227.492
227.658
227.83
228.006
228.187
228.372
228.563
228.758
228.958
229.163
229.373
229.588
229.807
230.031
230.26
230.494
230.732
230.975
231.223
231.476
231.733
231.995
232.26
232.53
232.804
233.083
233.365
233.652
233.942
234.236
234.534
234.835
235.139
235.446
235.757
236.07
236.386
236.704
237.024
237.345
237.668
237.992
238.315
238.638
238.959
239.277
239.591
239.897
240.194
240.478
240.744
240.988
241.184
241.348
241.433
241.45
241.236
240.766
223
223
223
223
223
223
223
223
223
223
223
223.012
223.148
223.587
224.061
224.267
224.28
224.216
224.166
224.187
224.247
224.28
224.271
224.247
224.223
224.213
224.209
224.212
224.221
224.237
224.257
224.28
224.304
224.339
224.403
224.506
224.626
224.726
224.803
224.874
224.95
225.032
225.116
225.2
225.287
225.377
225.472
225.569
225.67
225.773
225.877
225.985
226.095
226.211
226.33
226.454
226.582
226.715
226.853
226.997
227.146
227.301
227.461
227.625
227.794
227.968
228.147
228.331
228.519
228.713
228.911
229.114
229.322
229.536
229.753
229.976
230.204
230.437
230.675
230.918
231.165
231.418
231.676
231.938
232.205
232.476
232.752
233.032
233.317
233.606
233.9
234.198
234.501
234.807
235.118
235.432
235.75
236.072
236.398
236.727
237.06
237.396
237.735
238.076
238.421
238.767
239.116
239.466
239.816
240.166
240.514
240.861
241.201
241.534
241.854
242.154
242.43
242.666
242.891
242.992
243.06
223
223
223
223
223
223
223
223
223
223
223.001
223.019
223.191
223.661
224.105
224.282
224.286
224.226
224.193
224.227
224.294
224.324
224.317
224.296
224.277
224.27
224.268
224.274
224.286
224.304
224.327
224.353
224.381
224.419
224.486
224.59
224.709
224.808
224.886
224.958
225.036
225.119
225.204
225.29
225.379
225.472
225.568
225.667
225.769
225.873
225.979
226.088
226.2
226.316
226.438
226.563
226.693
226.827
226.968
227.114
227.266
227.423
227.585
227.751
227.923
228.1
228.281
228.467
228.659
228.855
229.056
229.262
229.474
229.69
229.911
230.137
230.369
230.605
230.847
231.094
231.346
231.603
231.865
232.132
232.404
232.68
232.962
233.248
233.539
233.835
234.135
234.441
234.751
235.066
235.385
235.708
236.036
236.368
236.705
237.046
237.391
237.74
238.094
238.452
238.813
239.178
239.547
239.919
240.294
240.671
241.05
241.43
241.809
242.186
242.555
242.918
243.265
243.604
243.907
244.146
244.393
223
223
223
223
223
223
223
223
223
223
223.001
223.031
223.249
223.743
224.149
224.296
224.291
224.238
224.223
224.271
224.34
224.364
224.357
224.34
224.327
224.324
224.327
224.335
224.35
224.37
224.396
224.425
224.456
224.499
224.57
224.675
224.791
224.888
224.965
225.037
225.116
225.2
225.286
225.374
225.465
225.559
225.658
225.759
225.862
225.967
226.074
226.184
226.298
226.416
226.539
226.666
226.797
226.934
227.076
227.225
227.379
227.538
227.702
227.871
228.045
228.224
228.408
228.597
228.79
228.989
229.193
229.402
229.616
229.835
230.06