/*--------------------------------*- C++ -*----------------------------------*\
| =========                 |                                                 |
| \\      /  F ield         | OpenFOAM: The Open Source CFD Toolbox           |
|  \\    /   O peration     | Version:  2412                                  |
|   \\  /    A nd           | Website:  www.openfoam.com                      |
|    \\/     M anipulation  |                                                 |
\*---------------------------------------------------------------------------*/
FoamFile
{
    version     2.0;
    format      ascii;
    arch        "LSB;label=32;scalar=64";
    class       volScalarField;
    location    "0.05";
    object      p;
}
// * * * * * * * * * * * * * * * * * * * * * * * * * * * * * * * * * * * * * //

dimensions      [1 -1 -2 0 0 0 0];

internalField   nonuniform List<scalar> 
9763
(
2864.08
2913.66
2862.47
2911.72
2861.75
2907.66
2861.49
2907.12
2862.09
2906.37
2862.51
2906.01
2862.04
2904.34
2861.06
2901.95
2860.92
2900.54
2861.03
2899.58
2860.71
2897.89
2860.21
2896.06
2859.92
2894.36
2859.63
2892.66
2859.26
2890.8
2858.86
2888.88
2858.47
2886.91
2858.06
2884.89
2857.63
2882.78
2857.17
2880.64
2856.7
2878.4
2856.21
2876.13
2855.69
2873.77
2855.16
2871.36
2854.6
2868.86
2854.03
2866.31
2853.43
2863.67
2852.81
2860.99
2852.15
2858.24
2851.46
2855.46
2850.7
2852.64
2849.89
2849.8
2849.01
2846.93
2848.07
2844.04
2847.04
2841.11
2845.94
2838.16
2844.75
2835.17
2843.49
2832.14
2842.13
2829.06
2840.7
2825.93
2822.75
2819.53
2816.29
3978.35
2945.41
2949.82
2949.83
2942.94
2941.06
2939.98
2938.46
2935.32
2930.84
2924.53
2917.12
2909.49
2902.22
2895.46
2889.14
2883.07
2877.14
2871.15
2864.95
2858.43
2851.57
2844.41
2836.93
2829.06
2820.72
2811.88
2802.65
2793.18
2783.55
2773.87
2764.25
2754.83
2745.77
2737.17
2729.11
2721.67
2714.87
2708.81
2703.54
2699.16
2695.69
2693.15
2691.45
2690.59
2690.31
2690.7
2691.75
2693.29
2695.24
2697.4
2700.55
2702.93
2706.46
2710.15
2713.88
2717.88
2721.7
2725.64
2729.26
2732.71
2736.04
2739.45
2742.95
2746.58
2750.25
2754.02
2757.83
2761.71
2765.63
2769.49
2773.25
2776.78
2780.18
2783.52
2786.87
2790.3
2793.84
2797.51
2801.2
2804.88
2808.51
2812.09
2815.62
2819.09
2822.51
2825.83
2829.09
2832.24
2835.33
2838.33
2841.23
2843.92
2846.48
2848.91
2851.24
2853.44
2855.53
2857.48
2859.3
2860.94
2862.41
2863.69
2864.79
2865.68
2866.42
2866.98
2867.42
2867.73
2867.97
2868.06
2867.96
2867.63
2867.22
2866.73
2865.67
2863.99
2861.9
2859.6
2859.39
2852.33
3978.07
2945.17
2949.25
2949.42
2942.66
2940.88
2939.83
2938.32
2935.16
2930.67
2924.34
2916.91
2909.27
2902
2895.25
2888.93
2882.87
2876.92
2870.9
2864.68
2858.12
2851.23
2844.03
2836.51
2828.61
2820.23
2811.36
2802.09
2792.57
2782.89
2773.13
2763.42
2753.9
2744.72
2735.99
2727.81
2720.22
2713.28
2707.05
2701.62
2697.06
2693.42
2690.72
2688.89
2687.89
2687.51
2687.79
2688.73
2690.19
2692.04
2694.21
2697.36
2699.84
2703.47
2707.26
2710.9
2714.75
2718.36
2722.34
2726.13
2729.75
2733.15
2736.43
2739.76
2743.21
2746.81
2750.56
2754.39
2758.23
2762.14
2765.98
2769.82
2773.48
2777.05
2780.51
2783.89
2787.24
2790.6
2794
2797.45
2800.92
2804.41
2807.88
2811.35
2814.78
2818.17
2821.52
2824.82
2828.05
2831.19
2834.18
2837
2839.62
2842.09
2844.4
2846.57
2848.61
2850.52
2852.29
2853.96
2855.48
2856.91
2858.2
2859.4
2860.47
2861.38
2862.22
2862.93
2863.53
2864.02
2864.42
2864.76
2865
2865.16
2865.26
2865.32
2865.3
2865.21
2865.13
2865.24
2864.91
3977.69
2944.97
2948.69
2949.17
2942.42
2940.72
2939.68
2938.17
2935.01
2930.5
2924.15
2916.7
2909.06
2901.79
2895.05
2888.74
2882.67
2876.7
2870.67
2864.41
2857.82
2850.89
2843.65
2836.1
2828.16
2819.75
2810.84
2801.52
2791.95
2782.21
2772.38
2762.58
2752.95
2743.63
2734.77
2726.43
2718.69
2711.58
2705.18
2699.57
2694.83
2691.01
2688.13
2686.15
2685.01
2684.53
2684.69
2685.52
2686.89
2688.64
2690.75
2693.83
2696.24
2699.79
2703.47
2706.98
2710.75
2714.26
2718.19
2721.97
2725.68
2729.03
2732.3
2735.74
2739.22
2742.87
2746.6
2750.33
2754.04
2757.73
2761.35
2764.96
2768.4
2771.81
2775.11
2778.37
2781.62
2784.9
2788.22
2791.57
2794.88
2798.18
2801.45
2804.7
2807.9
2811.05
2814.13
2817.13
2820.03
2822.85
2825.54
2828.1
2830.52
2832.8
2834.92
2836.93
2838.8
2840.55
2842.17
2843.67
2845.05
2846.31
2847.46
2848.52
2849.48
2850.34
2851.13
2851.83
2852.47
2853.03
2853.53
2853.98
2854.37
2854.73
2855.02
2855.29
2855.52
2855.74
2855.94
2856.18
2856.56
3977.19
2944.8
2948.15
2948.89
2942.19
2940.55
2939.53
2938.03
2934.87
2930.33
2923.96
2916.5
2908.86
2901.6
2894.87
2888.56
2882.48
2876.5
2870.45
2864.16
2857.54
2850.57
2843.29
2835.7
2827.73
2819.28
2810.34
2800.98
2791.36
2781.56
2771.66
2761.77
2752.03
2742.6
2733.59
2725.12
2717.22
2709.96
2703.39
2697.59
2692.66
2688.66
2685.61
2683.48
2682.19
2681.62
2681.67
2682.36
2683.65
2685.34
2687.4
2690.42
2692.72
2696.18
2699.72
2703.14
2706.8
2710.18
2713.83
2717.4
2721.24
2724.91
2728.47
2732.14
2735.78
2739.49
2743
2746.38
2749.69
2753.02
2756.42
2759.89
2763.27
2766.57
2769.72
2772.79
2775.85
2778.99
2782.18
2785.43
2788.64
2791.83
2794.97
2798.05
2801.04
2803.94
2806.74
2809.44
2812
2814.44
2816.74
2818.92
2820.98
2822.93
2824.76
2826.5
2828.12
2829.65
2831.07
2832.4
2833.65
2834.79
2835.86
2836.84
2837.75
2838.58
2839.34
2840.04
2840.66
2841.24
2841.76
2842.25
2842.69
2843.11
2843.49
2843.85
2844.19
2844.53
2844.85
2845.17
2845.6
3976.95
2944.62
2947.66
2948.62
2941.96
2940.4
2939.39
2937.89
2934.72
2930.17
2923.78
2916.31
2908.66
2901.41
2894.69
2888.38
2882.3
2876.31
2870.24
2863.92
2857.27
2850.27
2842.95
2835.32
2827.32
2818.84
2809.86
2800.46
2790.79
2780.93
2770.97
2761
2751.15
2741.59
2732.46
2723.84
2715.79
2708.37
2701.64
2695.67
2690.55
2686.37
2683.14
2680.85
2679.42
2678.76
2678.7
2679.24
2680.46
2682.08
2684.07
2687.02
2689.25
2692.67
2696.12
2699.42
2702.91
2705.99
2709.46
2713.07
2717
2720.89
2724.86
2728.67
2732.15
2735.6
2738.81
2741.91
2744.96
2748.09
2751.38
2754.82
2758.2
2761.51
2764.66
2767.7
2770.68
2773.68
2776.71
2779.8
2782.82
2785.82
2788.72
2791.54
2794.24
2796.83
2799.3
2801.66
2803.9
2806.06
2808.09
2810.03
2811.85
2813.58
2815.2
2816.73
2818.14
2819.45
2820.67
2821.79
2822.83
2823.8
2824.71
2825.55
2826.34
2827.08
2827.77
2828.41
2829.01
2829.58
2830.11
2830.62
2831.09
2831.55
2831.98
2832.4
2832.8
2833.19
2833.56
2833.9
2834.37
3976.84
2944.44
2947.16
2948.35
2941.73
2940.24
2939.24
2937.76
2934.58
2930.01
2923.6
2916.12
2908.47
2901.22
2894.51
2888.21
2882.13
2876.13
2870.03
2863.69
2857
2849.97
2842.61
2834.95
2826.91
2818.4
2809.39
2799.95
2790.23
2780.32
2770.29
2760.23
2750.29
2740.61
2731.34
2722.58
2714.39
2706.81
2699.91
2693.76
2688.46
2684.1
2680.69
2678.24
2676.67
2675.9
2675.72
2676.15
2677.27
2678.83
2680.77
2683.66
2685.83
2689.23
2692.62
2695.76
2699.05
2702.02
2705.35
2708.98
2712.97
2716.95
2720.97
2724.78
2728.3
2731.65
2734.7
2737.7
2740.65
2743.69
2746.89
2750.25
2753.56
2756.81
2759.9
2762.85
2765.7
2768.53
2771.37
2774.26
2777.1
2779.93
2782.66
2785.33
2787.84
2790.23
2792.47
2794.61
2796.62
2798.53
2800.34
2802.06
2803.68
2805.22
2806.65
2807.99
2809.23
2810.39
2811.46
2812.44
2813.35
2814.19
2814.96
2815.68
2816.33
2816.94
2817.49
2818
2818.47
2818.91
2819.3
2819.69
2820.03
2820.37
2820.68
2821
2821.3
2821.61
2821.9
2822.11
2822
3976.61
2944.28
2946.64
2948.07
2941.5
2940.08
2939.1
2937.62
2934.43
2929.85
2923.43
2915.93
2908.28
2901.03
2894.33
2888.04
2881.95
2875.94
2869.82
2863.46
2856.74
2849.67
2842.28
2834.58
2826.51
2817.96
2808.91
2799.44
2789.67
2779.7
2769.6
2759.47
2749.42
2739.62
2730.21
2721.31
2712.97
2705.24
2698.16
2691.83
2686.35
2681.79
2678.2
2675.58
2673.87
2672.97
2672.67
2672.99
2674.01
2675.52
2677.41
2680.23
2682.33
2685.63
2688.88
2691.95
2695.22
2698.13
2701.34
2704.81
2708.71
2712.82
2716.9
2720.7
2724.29
2727.62
2730.57
2733.49
2736.34
2739.31
2742.41
2745.61
2748.8
2751.92
2754.93
2757.79
2760.54
2763.21
2765.86
2768.55
2771.19
2773.86
2776.45
2778.99
2781.37
2783.6
2785.68
2787.66
2789.53
2791.31
2793
2794.61
2796.12
2797.56
2798.89
2800.13
2801.27
2802.34
2803.32
2804.23
2805.07
2805.86
2806.58
2807.26
2807.88
2808.46
2808.99
2809.48
2809.94
2810.36
2810.74
2811.11
2811.44
2811.77
2812.06
2812.37
2812.64
2812.94
2813.25
2813.61
2814.04
3976.36
2944.08
2946.1
2947.78
2941.27
2939.92
2938.96
2937.48
2934.29
2929.69
2923.24
2915.74
2908.08
2900.85
2894.15
2887.87
2881.78
2875.75
2869.61
2863.22
2856.47
2849.37
2841.94
2834.2
2826.1
2817.52
2808.43
2798.91
2789.1
2779.08
2768.91
2758.69
2748.54
2738.62
2729.08
2720.02
2711.53
2703.63
2696.39
2689.87
2684.19
2679.44
2675.66
2672.87
2671.01
2669.96
2669.54
2669.76
2670.67
2672.13
2673.95
2676.64
2678.65
2681.92
2685.1
2688.12
2691.34
2694.19
2697.27
2700.6
2704.42
2708.67
2712.85
2716.67
2720.15
2723.31
2726.25
2729.22
2732.06
2735
2738.01
2741.07
2744.07
2747.01
2749.89
2752.61
2755.26
2757.79
2760.26
2762.75
2765.21
2767.7
2770.15
2772.55
2774.78
2776.85
2778.79
2780.66
2782.39
2784.06
2785.63
2787.13
2788.53
2789.86
2791.08
2792.23
2793.3
2794.29
2795.21
2796.06
2796.86
2797.6
2798.28
2798.92
2799.52
2800.06
2800.56
2801.02
2801.44
2801.83
2802.18
2802.5
2802.79
2803.06
2803.3
2803.53
2803.73
2803.92
2804.12
2804.41
2805.17
3976.23
2943.86
2945.54
2947.49
2941.03
2939.76
2938.81
2937.34
2934.14
2929.52
2923.06
2915.54
2907.89
2900.66
2893.97
2887.69
2881.6
2875.56
2869.4
2862.98
2856.2
2849.06
2841.59
2833.82
2825.68
2817.07
2807.94
2798.38
2788.52
2778.44
2768.21
2757.9
2747.65
2737.6
2727.92
2718.71
2710.06
2702
2694.57
2687.87
2681.98
2677.02
2673.04
2670.07
2668.03
2666.83
2666.31
2666.42
2667.21
2668.58
2670.35
2672.93
2674.91
2678.14
2681.26
2684.19
2687.28
2690.1
2693.18
2696.44
2700.22
2704.45
2708.6
2712.45
2715.82
2718.84
2721.72
2724.69
2727.52
2730.42
2733.26
2736.12
2738.92
2741.66
2744.36
2746.88
2749.35
2751.72
2754.02
2756.36
2758.65
2760.97
2763.27
2765.51
2767.61
2769.58
2771.44
2773.21
2774.86
2776.43
2777.88
2779.24
2780.5
2781.68
2782.76
2783.77
2784.7
2785.57
2786.38
2787.13
2787.82
2788.47
2789.06
2789.61
2790.12
2790.58
2791
2791.37
2791.7
2791.99
2792.24
2792.46
2792.65
2792.8
2792.93
2793.02
2793.1
2793.17
2793.27
2793.46
2793.13
3976
2943.62
2944.98
2947.18
2940.79
2939.59
2938.66
2937.19
2933.98
2929.35
2922.87
2915.34
2907.69
2900.46
2893.79
2887.52
2881.42
2875.37
2869.19
2862.74
2855.93
2848.75
2841.25
2833.43
2825.26
2816.61
2807.45
2797.85
2787.93
2777.8
2767.5
2757.11
2746.75
2736.57
2726.74
2717.38
2708.56
2700.33
2692.73
2685.82
2679.73
2674.55
2670.37
2667.2
2664.98
2663.62
2663
2663
2663.65
2664.94
2666.65
2669.12
2671.09
2674.26
2677.25
2680.11
2683.18
2686.05
2689.17
2692.33
2696.08
2700.21
2704.19
2708.01
2711.33
2714.31
2717.07
2719.9
2722.64
2725.46
2728.2
2730.93
2733.6
2736.25
2738.83
2741.2
2743.46
2745.71
2747.86
2750.04
2752.16
2754.3
2756.39
2758.42
2760.32
2762.16
2763.86
2765.51
2767.04
2768.48
2769.79
2771.01
2772.12
2773.15
2774.09
2774.97
2775.79
2776.55
2777.25
2777.9
2778.5
2779.05
2779.56
2780.02
2780.45
2780.83
2781.16
2781.45
2781.71
2781.92
2782.1
2782.24
2782.37
2782.45
2782.51
2782.54
2782.57
2782.57
2782.59
2782.65
2782.34
3975.77
2943.37
2944.41
2946.88
2940.54
2939.42
2938.51
2937.04
2933.83
2929.17
2922.68
2915.14
2907.49
2900.27
2893.61
2887.34
2881.24
2875.18
2868.97
2862.5
2855.65
2848.44
2840.9
2833.05
2824.83
2816.15
2806.95
2797.3
2787.34
2777.14
2766.78
2756.3
2745.84
2735.53
2725.56
2716.03
2707.05
2698.64
2690.85
2683.74
2677.43
2672.03
2667.62
2664.25
2661.84
2660.32
2659.59
2659.46
2659.98
2661.18
2662.83
2665.16
2667.13
2670.27
2673.18
2675.95
2679.03
2681.97
2685.21
2688.36
2691.99
2695.94
2699.65
2703.26
2706.46
2709.48
2712.24
2715
2717.62
2720.3
2722.94
2725.57
2728.16
2730.72
2733.14
2735.41
2737.55
2739.63
2741.62
2743.6
2745.5
2747.41
2749.27
2751.06
2752.76
2754.43
2756.01
2757.54
2758.97
2760.31
2761.51
2762.62
2763.62
2764.53
2765.37
2766.16
2766.89
2767.57
2768.2
2768.79
2769.34
2769.84
2770.3
2770.72
2771.11
2771.46
2771.76
2772.03
2772.26
2772.46
2772.63
2772.77
2772.88
2772.96
2773.03
2773.06
2773.08
2773.08
2773.06
2773
2772.91
3975.59
2943.12
2943.83
2946.57
2940.3
2939.25
2938.35
2936.9
2933.67
2929
2922.48
2914.94
2907.28
2900.08
2893.42
2887.16
2881.07
2874.99
2868.76
2862.25
2855.38
2848.13
2840.55
2832.66
2824.41
2815.69
2806.45
2796.76
2786.74
2776.49
2766.05
2755.49
2744.92
2734.49
2724.36
2714.67
2705.51
2696.93
2688.94
2681.64
2675.1
2669.47
2664.84
2661.24
2658.65
2656.97
2656.1
2655.84
2656.23
2657.31
2658.9
2661.12
2663.09
2666.2
2669.11
2671.84
2674.87
2677.9
2681.3
2684.47
2687.88
2691.48
2694.96
2698.41
2701.51
2704.52
2707.34
2710.1
2712.61
2715.11
2717.57
2720.1
2722.62
2725.09
2727.39
2729.54
2731.55
2733.48
2735.33
2737.15
2738.91
2740.61
2742.21
2743.79
2745.31
2746.79
2748.24
2749.64
2750.95
2752.17
2753.28
2754.29
2755.2
2756.04
2756.82
2757.54
2758.22
2758.85
2759.43
2759.98
2760.48
2760.94
2761.37
2761.76
2762.11
2762.44
2762.73
2762.98
2763.21
2763.41
2763.58
2763.72
2763.84
2763.94
2764.02
2764.09
2764.13
2764.16
2764.17
2764.16
2764.12
3975.45
2942.87
2943.25
2946.26
2940.05
2939.08
2938.2
2936.75
2933.51
2928.82
2922.29
2914.73
2907.08
2899.88
2893.24
2886.99
2880.89
2874.79
2868.54
2862.01
2855.1
2847.81
2840.19
2832.27
2823.98
2815.22
2805.94
2796.21
2786.14
2775.83
2765.32
2754.68
2744
2733.44
2723.16
2713.3
2703.97
2695.19
2687.02
2679.5
2672.74
2666.87
2662
2658.18
2655.38
2653.53
2652.5
2652.13
2652.4
2653.36
2654.87
2657.02
2658.97
2662.05
2664.9
2667.62
2670.69
2673.81
2677.38
2680.57
2683.75
2686.98
2690.18
2693.48
2696.52
2699.48
2702.25
2704.97
2707.38
2709.76
2712.07
2714.52
2716.91
2719.29
2721.48
2723.54
2725.45
2727.28
2729.03
2730.71
2732.31
2733.85
2735.28
2736.67
2737.98
2739.3
2740.59
2741.86
2743.05
2744.17
2745.19
2746.13
2746.98
2747.78
2748.51
2749.2
2749.84
2750.44
2750.99
2751.5
2751.96
2752.4
2752.79
2753.16
2753.5
2753.8
2754.09
2754.34
2754.58
2754.78
2754.97
2755.13
2755.28
2755.41
2755.52
2755.63
2755.71
2755.78
2755.85
2755.9
2755.93
3975.33
2942.61
2942.66
2945.94
2939.8
2938.9
2938.05
2936.6
2933.35
2928.64
2922.09
2914.52
2906.87
2899.69
2893.05
2886.81
2880.71
2874.6
2868.33
2861.77
2854.83
2847.5
2839.84
2831.88
2823.55
2814.76
2805.44
2795.66
2785.54
2775.17
2764.59
2753.86
2743.08
2732.39
2721.96
2711.93
2702.41
2693.45
2685.08
2677.35
2670.37
2664.26
2659.14
2655.08
2652.08
2650.04
2648.84
2648.36
2648.52
2649.33
2650.76
2652.81
2654.7
2657.8
2660.63
2663.37
2666.5
2669.74
2673.42
2676.65
2679.64
2682.6
2685.45
2688.41
2691.4
2694.43
2697.16
2699.81
2702.14
2704.45
2706.71
2709.04
2711.32
2713.51
2715.53
2717.45
2719.27
2720.98
2722.6
2724.18
2725.65
2727.07
2728.37
2729.6
2730.77
2731.93
2733.07
2734.2
2735.26
2736.27
2737.19
2738.06
2738.85
2739.61
2740.3
2740.96
2741.57
2742.13
2742.65
2743.13
2743.56
2743.96
2744.33
2744.66
2744.98
2745.27
2745.55
2745.8
2746.03
2746.25
2746.44
2746.63
2746.79
2746.96
2747.1
2747.24
2747.35
2747.47
2747.58
2747.69
2747.78
3975.23
2942.35
2942.07
2945.62
2939.55
2938.73
2937.89
2936.45
2933.19
2928.46
2921.89
2914.31
2906.67
2899.49
2892.87
2886.63
2880.53
2874.41
2868.12
2861.53
2854.55
2847.19
2839.49
2831.49
2823.12
2814.29
2804.94
2795.11
2784.94
2774.51
2763.86
2753.05
2742.16
2731.34
2720.75
2710.55
2700.85
2691.7
2683.13
2675.18
2667.96
2661.6
2656.23
2651.93
2648.7
2646.46
2645.1
2644.51
2644.55
2645.21
2646.55
2648.53
2650.39
2653.47
2656.27
2659.08
2662.21
2665.52
2669.31
2672.63
2675.49
2678.24
2680.81
2683.48
2686.32
2689.28
2692.05
2694.63
2696.89
2698.99
2701.17
2703.34
2705.48
2707.47
2709.35
2711.16
2712.87
2714.46
2716
2717.47
2718.85
2720.16
2721.34
2722.45
2723.49
2724.52
2725.52
2726.52
2727.47
2728.37
2729.22
2730.03
2730.78
2731.5
2732.17
2732.79
2733.37
2733.91
2734.39
2734.85
2735.26
2735.64
2735.98
2736.31
2736.61
2736.89
2737.16
2737.41
2737.64
2737.86
2738.07
2738.27
2738.45
2738.64
2738.8
2738.97
2739.12
2739.28
2739.43
2739.59
2739.74
3975.14
2942.07
2941.47
2945.29
2939.3
2938.55
2937.73
2936.29
2933.03
2928.27
2921.69
2914.11
2906.46
2899.3
2892.69
2886.45
2880.35
2874.22
2867.91
2861.29
2854.28
2846.88
2839.15
2831.1
2822.7
2813.83
2804.44
2794.57
2784.34
2773.85
2763.13
2752.23
2741.24
2730.29
2719.55
2709.18
2699.29
2689.94
2681.17
2673.01
2665.55
2658.94
2653.3
2648.75
2645.29
2642.85
2641.32
2640.59
2640.5
2641.04
2642.28
2644.19
2646.01
2649.05
2651.77
2654.6
2657.79
2661.18
2665.01
2668.39
2671.24
2673.86
2676.24
2678.69
2681.31
2684.07
2686.79
2689.36
2691.64
2693.68
2695.78
2697.77
2699.72
2701.53
2703.28
2704.94
2706.52
2708.04
2709.46
2710.81
2712.08
2713.28
2714.34
2715.34
2716.25
2717.14
2718.01
2718.86
2719.68
2720.48
2721.24
2721.98
2722.68
2723.34
2723.96
2724.54
2725.07
2725.58
2726.03
2726.46
2726.85
2727.21
2727.54
2727.86
2728.15
2728.43
2728.69
2728.93
2729.16
2729.39
2729.6
2729.81
2729.99
2730.2
2730.36
2730.56
2730.72
2730.9
2731.08
2731.26
2731.46
3975.08
2941.79
2940.87
2944.97
2939.04
2938.37
2937.58
2936.14
2932.87
2928.09
2921.49
2913.89
2906.25
2899.1
2892.5
2886.28
2880.17
2874.03
2867.69
2861.05
2854.01
2846.58
2838.8
2830.71
2822.27
2813.37
2803.93
2794.02
2783.74
2773.19
2762.4
2751.41
2740.32
2729.25
2718.35
2707.8
2697.72
2688.17
2679.19
2670.81
2663.12
2656.25
2650.34
2645.52
2641.81
2639.16
2637.46
2636.58
2636.36
2636.79
2637.94
2639.79
2641.56
2644.52
2647.21
2650.01
2653.19
2656.63
2660.48
2663.91
2666.86
2669.44
2671.65
2673.89
2676.34
2678.95
2681.5
2684.01
2686.3
2688.37
2690.34
2692.23
2694
2695.6
2697.19
2698.69
2700.13
2701.49
2702.75
2703.97
2705.1
2706.19
2707.16
2708.07
2708.87
2709.65
2710.38
2711.11
2711.8
2712.51
2713.19
2713.87
2714.5
2715.11
2715.67
2716.21
2716.7
2717.17
2717.6
2718.01
2718.39
2718.75
2719.08
2719.39
2719.69
2719.97
2720.24
2720.49
2720.73
2720.96
2721.18
2721.4
2721.59
2721.8
2721.97
2722.18
2722.35
2722.55
2722.73
2722.94
2723.16
3975.04
2941.49
2940.26
2944.64
2938.79
2938.19
2937.42
2935.99
2932.7
2927.91
2921.28
2913.68
2906.05
2898.9
2892.32
2886.1
2879.99
2873.84
2867.48
2860.81
2853.74
2846.27
2838.46
2830.33
2821.85
2812.91
2803.43
2793.48
2783.15
2772.53
2761.67
2750.6
2739.41
2728.21
2717.16
2706.42
2696.15
2686.4
2677.21
2668.6
2660.67
2653.54
2647.36
2642.26
2638.3
2635.43
2633.54
2632.5
2632.16
2632.48
2633.51
2635.28
2637.02
2639.91
2642.57
2645.35
2648.47
2651.83
2655.63
2659.15
2662.27
2664.91
2667.05
2669.09
2671.35
2673.86
2676.3
2678.75
2680.97
2682.99
2684.84
2686.64
2688.26
2689.75
2691.22
2692.59
2693.86
2695.05
2696.16
2697.23
2698.23
2699.2
2700.06
2700.86
2701.54
2702.2
2702.79
2703.4
2703.98
2704.6
2705.19
2705.78
2706.34
2706.88
2707.37
2707.85
2708.3
2708.72
2709.12
2709.49
2709.85
2710.19
2710.5
2710.81
2711.1
2711.38
2711.64
2711.9
2712.14
2712.38
2712.59
2712.82
2713.01
2713.23
2713.41
2713.62
2713.8
2714
2714.19
2714.4
2714.63
3975.03
2941.19
2939.64
2944.3
2938.53
2938.01
2937.26
2935.83
2932.54
2927.72
2921.08
2913.47
2905.84
2898.71
2892.13
2885.92
2879.82
2873.65
2867.27
2860.57
2853.47
2845.97
2838.11
2829.95
2821.43
2812.45
2802.94
2792.93
2782.55
2771.87
2760.93
2749.79
2738.49
2727.17
2715.96
2705.05
2694.57
2684.62
2675.21
2666.38
2658.2
2650.81
2644.35
2638.97
2634.73
2631.62
2629.53
2628.33
2627.89
2628.09
2628.98
2630.71
2632.42
2635.22
2637.83
2640.55
2643.54
2646.8
2650.56
2654.17
2657.43
2660.17
2662.34
2664.3
2666.33
2668.62
2671
2673.42
2675.57
2677.54
2679.3
2681.01
2682.52
2683.98
2685.34
2686.54
2687.66
2688.64
2689.59
2690.48
2691.33
2692.19
2692.93
2693.64
2694.22
2694.77
2695.25
2695.74
2696.22
2696.74
2697.24
2697.74
2698.21
2698.66
2699.09
2699.5
2699.89
2700.26
2700.62
2700.95
2701.28
2701.58
2701.88
2702.17
2702.44
2702.72
2702.98
2703.24
2703.49
2703.73
2703.96
2704.19
2704.4
2704.62
2704.81
2705.03
2705.21
2705.41
2705.61
2705.82
2706.04
3975.02
2940.87
2939.02
2943.97
2938.27
2937.82
2937.1
2935.68
2932.38
2927.54
2920.88
2913.26
2905.63
2898.51
2891.95
2885.75
2879.64
2873.46
2867.07
2860.34
2853.2
2845.66
2837.77
2829.57
2821.01
2811.99
2802.44
2792.39
2781.96
2771.21
2760.21
2748.97
2737.58
2726.13
2714.77
2703.68
2693
2682.83
2673.21
2664.15
2655.73
2648.06
2641.32
2635.64
2631.13
2627.77
2625.47
2624.1
2623.54
2623.6
2624.38
2626.02
2627.72
2630.44
2633.01
2635.68
2638.5
2641.61
2645.29
2648.96
2652.29
2655.08
2657.36
2659.4
2661.31
2663.37
2665.63
2668
2670.15
2672.1
2673.77
2675.37
2676.81
2678.17
2679.39
2680.48
2681.45
2682.27
2683.08
2683.81
2684.53
2685.25
2685.9
2686.5
2686.99
2687.44
2687.82
2688.21
2688.59
2689
2689.39
2689.78
2690.14
2690.5
2690.85
2691.18
2691.49
2691.79
2692.09
2692.36
2692.63
2692.89
2693.14
2693.39
2693.64
2693.88
2694.13
2694.38
2694.62
2694.87
2695.1
2695.33
2695.55
2695.78
2695.97
2696.19
2696.37
2696.58
2696.77
2696.98
2697.19
3975.08
2940.54
2938.39
2943.63
2938.01
2937.64
2936.94
2935.52
2932.21
2927.35
2920.67
2913.05
2905.43
2898.32
2891.77
2885.58
2879.47
2873.28
2866.86
2860.1
2852.94
2845.36
2837.43
2829.19
2820.59
2811.53
2801.94
2791.85
2781.36
2770.56
2759.48
2748.16
2736.67
2725.09
2713.58
2702.31
2691.43
2681.04
2671.19
2661.9
2653.23
2645.29
2638.25
2632.27
2627.47
2623.85
2621.32
2619.78
2619.08
2619
2619.69
2621.25
2622.92
2625.58
2628.12
2630.78
2633.47
2636.36
2639.89
2643.5
2646.89
2649.79
2652.2
2654.25
2656.12
2658.13
2660.25
2662.52
2664.64
2666.6
2668.25
2669.81
2671.16
2672.36
2673.44
2674.44
2675.28
2676.02
2676.68
2677.23
2677.82
2678.37
2678.9
2679.37
2679.77
2680.1
2680.39
2680.68
2680.97
2681.27
2681.56
2681.83
2682.09
2682.34
2682.59
2682.83
2683.06
2683.28
2683.5
2683.7
2683.91
2684.1
2684.31
2684.5
2684.71
2684.92
2685.15
2685.37
2685.6
2685.83
2686.06
2686.29
2686.51
2686.73
2686.94
2687.15
2687.34
2687.54
2687.73
2687.94
2688.15
3975.08
2940.2
2937.76
2943.28
2937.75
2937.45
2936.77
2935.37
2932.05
2927.17
2920.47
2912.84
2905.22
2898.12
2891.59
2885.4
2879.29
2873.09
2866.65
2859.87
2852.67
2845.06
2837.1
2828.81
2820.18
2811.08
2801.45
2791.31
2780.77
2769.9
2758.75
2747.35
2735.76
2724.06
2712.4
2700.94
2689.85
2679.25
2669.17
2659.64
2650.72
2642.51
2635.17
2628.88
2623.77
2619.87
2617.12
2615.39
2614.52
2614.31
2614.9
2616.36
2618.01
2620.61
2623.06
2625.73
2628.42
2631.18
2634.58
2638
2641.41
2644.41
2646.93
2649
2650.86
2652.89
2654.91
2657.09
2659.19
2661.19
2662.87
2664.38
2665.62
2666.63
2667.55
2668.4
2669.13
2669.76
2670.28
2670.67
2671.11
2671.51
2671.94
2672.29
2672.59
2672.8
2673
2673.19
2673.39
2673.57
2673.75
2673.9
2674.06
2674.2
2674.34
2674.47
2674.61
2674.73
2674.85
2674.97
2675.1
2675.23
2675.37
2675.52
2675.67
2675.84
2676.02
2676.2
2676.39
2676.58
2676.78
2676.97
2677.17
2677.36
2677.55
2677.74
2677.92
2678.1
2678.27
2678.46
2678.65
3975.25
2939.86
2937.11
2942.94
2937.49
2937.26
2936.61
2935.21
2931.88
2926.98
2920.27
2912.63
2905.01
2897.93
2891.4
2885.23
2879.12
2872.91
2866.45
2859.64
2852.41
2844.76
2836.76
2828.44
2819.76
2810.63
2800.96
2790.78
2780.18
2769.25
2758.02
2746.54
2734.85
2723.03
2711.21
2699.57
2688.28
2677.45
2667.14
2657.37
2648.18
2639.69
2632.05
2625.44
2620.02
2615.83
2612.83
2610.89
2609.84
2609.52
2610.01
2611.37
2613
2615.56
2617.94
2620.57
2623.24
2626.01
2629.33
2632.49
2635.88
2638.87
2641.58
2643.77
2645.66
2647.65
2649.58
2651.74
2653.82
2655.74
2657.39
2658.76
2659.89
2660.72
2661.49
2662.22
2662.91
2663.45
2663.85
2664.13
2664.41
2664.68
2664.98
2665.2
2665.38
2665.49
2665.59
2665.68
2665.77
2665.84
2665.9
2665.95
2666
2666.04
2666.07
2666.09
2666.12
2666.14
2666.16
2666.2
2666.24
2666.3
2666.38
2666.47
2666.57
2666.69
2666.82
2666.95
2667.09
2667.23
2667.38
2667.53
2667.68
2667.83
2667.98
2668.13
2668.28
2668.42
2668.56
2668.73
2668.9
3975.27
2939.5
2936.46
2942.58
2937.23
2937.06
2936.44
2935.05
2931.71
2926.79
2920.06
2912.42
2904.81
2897.73
2891.22
2885.06
2878.95
2872.73
2866.25
2859.41
2852.15
2844.47
2836.42
2828.06
2819.35
2810.17
2800.46
2790.24
2779.59
2768.6
2757.3
2745.73
2733.94
2722
2710.03
2698.21
2686.7
2675.65
2665.1
2655.08
2645.64
2636.86
2628.92
2621.98
2616.22
2611.73
2608.46
2606.3
2605.07
2604.64
2605.02
2606.25
2607.84
2610.37
2612.73
2615.35
2618.06
2620.83
2624.02
2626.9
2630.26
2633.27
2636.13
2638.47
2640.47
2642.4
2644.28
2646.4
2648.47
2650.31
2651.87
2653.09
2654.08
2654.79
2655.45
2656.08
2656.71
2657.16
2657.48
2657.65
2657.81
2657.96
2658.11
2658.2
2658.25
2658.25
2658.23
2658.2
2658.15
2658.1
2658.04
2657.99
2657.92
2657.85
2657.77
2657.67
2657.58
2657.49
2657.41
2657.35
2657.31
2657.29
2657.29
2657.31
2657.35
2657.4
2657.46
2657.53
2657.6
2657.68
2657.76
2657.85
2657.94
2658.03
2658.14
2658.23
2658.34
2658.43
2658.53
2658.64
2658.79
3975.49
2939.13
2935.79
2942.23
2936.96
2936.86
2936.27
2934.89
2931.54
2926.6
2919.86
2912.21
2904.6
2897.54
2891.04
2884.89
2878.78
2872.54
2866.04
2859.18
2851.88
2844.17
2836.09
2827.69
2818.94
2809.72
2799.97
2789.71
2779.01
2767.95
2756.57
2744.92
2733.03
2720.97
2708.85
2696.85
2685.13
2673.84
2663.04
2652.78
2643.07
2634.01
2625.75
2618.48
2612.38
2607.56
2604
2601.59
2600.18
2599.67
2599.92
2601.01
2602.57
2605.07
2607.43
2610.08
2612.86
2615.64
2618.68
2621.35
2624.61
2627.65
2630.65
2633.15
2635.26
2637.22
2639.03
2641.08
2643.06
2644.82
2646.23
2647.33
2648.19
2648.82
2649.38
2649.87
2650.42
2650.79
2651.05
2651.15
2651.2
2651.22
2651.23
2651.2
2651.13
2651.01
2650.87
2650.71
2650.52
2650.34
2650.14
2649.97
2649.78
2649.6
2649.39
2649.19
2648.99
2648.79
2648.61
2648.45
2648.3
2648.2
2648.11
2648.05
2648.01
2647.98
2647.96
2647.96
2647.96
2647.97
2647.99
2648.02
2648.06
2648.09
2648.15
2648.2
2648.26
2648.33
2648.4
2648.47
2648.54
3975.57
2938.75
2935.13
2941.87
2936.69
2936.66
2936.1
2934.72
2931.37
2926.41
2919.65
2911.99
2904.39
2897.35
2890.86
2884.72
2878.61
2872.36
2865.84
2858.95
2851.62
2843.88
2835.76
2827.32
2818.52
2809.27
2799.49
2789.18
2778.42
2767.3
2755.85
2744.11
2732.12
2719.94
2707.68
2695.49
2683.56
2672.03
2660.98
2650.46
2640.48
2631.13
2622.56
2614.95
2608.5
2603.33
2599.47
2596.81
2595.22
2594.56
2594.66
2595.64
2597.17
2599.64
2602.02
2604.68
2607.54
2610.43
2613.32
2615.81
2618.95
2622.04
2625.19
2627.85
2630.08
2632.08
2633.9
2635.87
2637.7
2639.31
2640.53
2641.54
2642.35
2642.95
2643.44
2643.81
2644.24
2644.55
2644.77
2644.78
2644.72
2644.6
2644.48
2644.31
2644.12
2643.89
2643.62
2643.33
2642.98
2642.66
2642.32
2642.02
2641.69
2641.37
2641.03
2640.72
2640.39
2640.09
2639.79
2639.51
2639.26
2639.03
2638.84
2638.67
2638.52
2638.39
2638.28
2638.18
2638.1
2638.03
2637.97
2637.93
2637.91
2637.88
2637.88
2637.88
2637.9
2637.93
2638.01
2638.16
2637.96
3975.83
2938.37
2934.45
2941.5
2936.42
2936.46
2935.92
2934.56
2931.2
2926.22
2919.44
2911.78
2904.19
2897.15
2890.68
2884.55
2878.44
2872.18
2865.64
2858.72
2851.36
2843.58
2835.43
2826.95
2818.11
2808.82
2799
2788.64
2777.84
2766.65
2755.12
2743.3
2731.21
2718.91
2706.5
2694.13
2681.98
2670.21
2658.91
2648.12
2637.87
2628.22
2619.33
2611.37
2604.56
2599.04
2594.85
2591.93
2590.14
2589.31
2589.26
2590.15
2591.64
2594.1
2596.54
2599.24
2602.07
2605.09
2607.92
2610.31
2613.29
2616.43
2619.69
2622.53
2624.89
2626.89
2628.74
2630.68
2632.39
2633.8
2634.91
2635.82
2636.6
2637.22
2637.64
2637.92
2638.25
2638.48
2638.58
2638.48
2638.28
2638.03
2637.77
2637.49
2637.18
2636.84
2636.43
2636
2635.51
2635.04
2634.56
2634.11
2633.62
2633.16
2632.68
2632.23
2631.79
2631.37
2630.95
2630.55
2630.18
2629.83
2629.51
2629.22
2628.95
2628.71
2628.48
2628.28
2628.09
2627.93
2627.78
2627.66
2627.55
2627.45
2627.38
2627.3
2627.26
2627.23
2627.28
2627.46
2627.01
3975.98
2937.97
2933.77
2941.12
2936.15
2936.26
2935.75
2934.39
2931.02
2926.02
2919.23
2911.57
2903.98
2896.96
2890.51
2884.38
2878.27
2872
2865.44
2858.49
2851.11
2843.29
2835.1
2826.58
2817.71
2808.37
2798.51
2788.11
2777.26
2766
2754.4
2742.49
2730.3
2717.88
2705.33
2692.78
2680.41
2668.39
2656.83
2645.77
2635.24
2625.3
2616.08
2607.77
2600.58
2594.69
2590.17
2586.97
2584.95
2583.93
2583.72
2584.52
2585.97
2588.41
2590.91
2593.73
2596.55
2599.69
2602.44
2604.89
2607.68
2610.77
2614.02
2617.1
2619.6
2621.68
2623.55
2625.48
2627.08
2628.4
2629.39
2630.18
2630.92
2631.58
2631.97
2632.23
2632.47
2632.62
2632.61
2632.37
2632.01
2631.6
2631.2
2630.78
2630.34
2629.89
2629.35
2628.78
2628.16
2627.56
2626.94
2626.32
2625.67
2625.05
2624.42
2623.83
2623.24
2622.69
2622.13
2621.6
2621.09
2620.6
2620.15
2619.72
2619.33
2618.95
2618.6
2618.27
2617.97
2617.69
2617.44
2617.21
2617
2616.81
2616.64
2616.48
2616.36
2616.25
2616.25
2616.44
2615.77
3976.27
2937.56
2933.08
2940.74
2935.87
2936.05
2935.57
2934.22
2930.84
2925.83
2919.02
2911.36
2903.78
2896.77
2890.33
2884.21
2878.1
2871.82
2865.24
2858.26
2850.85
2843
2834.77
2826.21
2817.3
2807.93
2798.02
2787.58
2776.67
2765.36
2753.68
2741.68
2729.39
2716.85
2704.15
2691.43
2678.84
2666.57
2654.74
2643.4
2632.58
2622.33
2612.78
2604.12
2596.55
2590.28
2585.4
2581.89
2579.63
2578.41
2578.05
2578.77
2580.19
2582.64
2585.17
2588.07
2590.97
2594.29
2597
2599.48
2602.14
2605.18
2608.32
2611.55
2614.25
2616.5
2618.36
2620.21
2621.78
2623.02
2623.93
2624.66
2625.39
2626.08
2626.43
2626.61
2626.72
2626.82
2626.72
2626.37
2625.86
2625.3
2624.75
2624.19
2623.63
2623.04
2622.37
2621.67
2620.92
2620.19
2619.42
2618.64
2617.83
2617.04
2616.26
2615.52
2614.78
2614.07
2613.37
2612.69
2612.04
2611.41
2610.82
2610.26
2609.73
2609.21
2608.73
2608.27
2607.84
2607.43
2607.06
2606.71
2606.39
2606.1
2605.83
2605.58
2605.36
2605.18
2605.12
2605.3
2604.42
3976.5
2937.14
2932.38
2940.35
2935.58
2935.83
2935.39
2934.04
2930.66
2925.63
2918.81
2911.14
2903.57
2896.57
2890.15
2884.04
2877.93
2871.64
2865.04
2858.04
2850.59
2842.71
2834.44
2825.85
2816.89
2807.48
2797.53
2787.05
2776.09
2764.71
2752.96
2740.87
2728.48
2715.82
2702.98
2690.07
2677.27
2664.75
2652.64
2641.01
2629.9
2619.34
2609.46
2600.43
2592.48
2585.81
2580.56
2576.72
2574.18
2572.75
2572.26
2572.89
2574.26
2576.73
2579.31
2582.21
2585.09
2588.63
2591.67
2594.06
2596.53
2599.57
2602.71
2606.09
2608.96
2611.36
2613.18
2614.97
2616.46
2617.67
2618.53
2619.31
2620.02
2620.61
2620.82
2620.91
2620.97
2621
2620.83
2620.4
2619.81
2619.12
2618.46
2617.78
2617.09
2616.37
2615.59
2614.77
2613.89
2613.02
2612.1
2611.17
2610.19
2609.26
2608.33
2607.44
2606.54
2605.66
2604.78
2603.94
2603.13
2602.34
2601.6
2600.88