/*--------------------------------*- C++ -*----------------------------------*\
| =========                 |                                                 |
| \\      /  F ield         | OpenFOAM: The Open Source CFD Toolbox           |
|  \\    /   O peration     | Version:  2406                                  |
|   \\  /    A nd           | Website:  www.openfoam.com                      |
|    \\/     M anipulation  |                                                 |
\*---------------------------------------------------------------------------*/
FoamFile
{
    version     2.0;
    format      ascii;
    arch        "LSB;label=32;scalar=64";
    class       volScalarField;
    location    "0.057";
    object      rho;
}
// * * * * * * * * * * * * * * * * * * * * * * * * * * * * * * * * * * * * * //

dimensions      [1 -3 0 0 0 0 0];

internalField   nonuniform List<scalar> 
78650
(
0.0523086
0.0429846
0.0422637
0.0422005
0.0421381
0.0420918
0.0420364
0.0419792
0.0419157
0.041849
0.0417785
0.0417073
0.0416417
0.0415891
0.041553
0.0415311
0.0415177
0.0415108
0.0415105
0.0415086
0.0415092
0.0415127
0.0415177
0.0415214
0.0415225
0.0415203
0.0415129
0.0415008
0.0414856
0.0414676
0.0414478
0.0414267
0.0414052
0.0413834
0.0413618
0.0413406
0.0413198
0.0412996
0.0412799
0.0412605
0.0412415
0.0412226
0.0412038
0.0411849
0.0411657
0.0411462
0.041126
0.0411051
0.041083
0.0410594
0.0410342
0.0410068
0.040977
0.0409443
0.0409083
0.0408683
0.0408241
0.0407749
0.0407204
0.0406598
0.0405925
0.0405178
0.0404346
0.0403424
0.0402404
0.0401279
0.0400042
0.0398682
0.0397187
0.0395549
0.0393756
0.0391797
0.038967
0.0387372
0.0384896
0.0382238
0.0379377
0.0376305
0.0373014
0.0369499
0.0365761
0.0361825
0.0357654
0.0353292
0.0348732
0.0344004
0.0339114
0.0334
0.0328734
0.0323402
0.031797
0.0312522
0.0307107
0.0301722
0.0296345
0.0290971
0.0285854
0.0280884
0.0276037
0.0271397
0.0266998
0.0263018
0.0259322
0.0255723
0.0252298
0.0248894
0.0245791
0.0242788
0.0239865
0.0237019
0.0234401
0.0231908
0.0229566
0.0227476
0.0225624
0.0224004
0.0222471
0.0220941
0.0219374
0.0217935
0.0215479
0.0521404
0.0429529
0.0422918
0.0422264
0.0421633
0.042112
0.0420526
0.0419928
0.0419292
0.041864
0.0417957
0.0417256
0.0416578
0.0416004
0.0415607
0.0415391
0.0415298
0.0415283
0.041535
0.0415383
0.0415413
0.0415457
0.0415512
0.0415562
0.041559
0.0415592
0.0415559
0.0415477
0.041536
0.0415212
0.0415043
0.0414861
0.041467
0.0414477
0.0414285
0.0414097
0.0413915
0.0413739
0.0413569
0.0413405
0.0413245
0.0413089
0.0412935
0.0412783
0.041263
0.0412475
0.0412317
0.0412153
0.0411981
0.0411798
0.04116
0.0411385
0.041115
0.041089
0.0410602
0.041028
0.040992
0.0409516
0.0409065
0.040856
0.0407996
0.0407365
0.0406658
0.040587
0.0404992
0.0404019
0.0402942
0.0401753
0.040044
0.0398997
0.0397414
0.0395679
0.0393786
0.0391721
0.0389473
0.0387037
0.0384402
0.0381563
0.0378522
0.037528
0.0371841
0.0368209
0.036435
0.0360296
0.0356014
0.0351539
0.0346861
0.0341942
0.0336852
0.0331672
0.0326454
0.0321169
0.0315874
0.0310513
0.0305263
0.030008
0.0294949
0.0289906
0.028491
0.0280039
0.0275099
0.0270324
0.0265902
0.0261756
0.0258019
0.0254434
0.025111
0.0247971
0.024507
0.024219
0.0239361
0.0236626
0.0234028
0.0231557
0.0229229
0.0227038
0.0224959
0.0222955
0.0221107
0.021942
0.0216589
0.0520039
0.0428796
0.0423192
0.0422503
0.0421856
0.0421304
0.0420677
0.0420057
0.0419416
0.0418777
0.0418126
0.0417461
0.0416798
0.0416198
0.0415756
0.0415518
0.041544
0.0415458
0.0415582
0.0415685
0.0415757
0.0415818
0.0415877
0.0415931
0.0415971
0.0415988
0.0415981
0.0415938
0.0415856
0.0415742
0.0415605
0.0415453
0.041529
0.0415123
0.0414956
0.0414794
0.0414637
0.0414488
0.0414347
0.0414212
0.0414084
0.0413961
0.0413842
0.0413726
0.0413611
0.0413498
0.0413383
0.0413265
0.0413141
0.0413009
0.0412867
0.041271
0.0412537
0.0412343
0.0412125
0.0411878
0.0411598
0.0411279
0.0410919
0.0410511
0.041005
0.040953
0.0408942
0.040828
0.0407537
0.0406705
0.0405779
0.040475
0.0403609
0.0402348
0.0400954
0.0399417
0.0397729
0.0395879
0.0393861
0.0391675
0.0389308
0.0386756
0.0384013
0.0381072
0.0377927
0.0374568
0.0370964
0.0367138
0.0363076
0.0358842
0.0354408
0.0349819
0.0345067
0.034009
0.0335041
0.032987
0.0324703
0.0319443
0.0314154
0.030882
0.0303424
0.0298195
0.0292962
0.0288003
0.0283215
0.0278253
0.0273475
0.0268676
0.0264225
0.0260085
0.0256198
0.0252586
0.0249278
0.0246245
0.0243466
0.0240796
0.0238275
0.0235825
0.0233457
0.0231107
0.0228776
0.0226451
0.0224213
0.0222104
0.021855
0.051863
0.0428223
0.0423431
0.0422715
0.0422037
0.0421459
0.0420816
0.0420184
0.0419537
0.041891
0.0418295
0.0417684
0.0417068
0.0416473
0.0415989
0.0415709
0.0415619
0.0415644
0.0415804
0.041598
0.041611
0.0416203
0.0416273
0.0416329
0.0416373
0.04164
0.0416408
0.0416395
0.0416347
0.0416268
0.0416165
0.0416045
0.0415912
0.0415773
0.0415633
0.0415497
0.0415367
0.0415245
0.0415131
0.0415026
0.0414928
0.0414838
0.0414753
0.0414672
0.0414595
0.0414521
0.0414448
0.0414374
0.0414297
0.0414215
0.0414125
0.0414025
0.0413911
0.041378
0.041363
0.0413455
0.0413252
0.0413016
0.0412743
0.0412429
0.0412068
0.0411655
0.0411183
0.0410645
0.0410033
0.0409342
0.0408566
0.0407697
0.0406726
0.0405644
0.0404442
0.040311
0.0401641
0.0400024
0.039825
0.0396311
0.0394192
0.039189
0.0389401
0.0386716
0.0383831
0.0380735
0.0377408
0.0373867
0.0370104
0.0366148
0.0361959
0.0357582
0.0352962
0.034814
0.0343135
0.0337971
0.0332705
0.0327401
0.0322016
0.0316708
0.0311267
0.0305891
0.0300634
0.0295262
0.0290255
0.028527
0.0280595
0.0276
0.0271483
0.0267142
0.0262856
0.0258707
0.025484
0.0251206
0.0247911
0.0244907
0.0242135
0.0239568
0.0237167
0.0234882
0.0232682
0.0230523
0.0228437
0.0226419
0.0223234
0.0517217
0.0427893
0.0423695
0.0422936
0.0422216
0.0421618
0.0420968
0.0420322
0.0419667
0.0419049
0.0418471
0.0417925
0.0417378
0.0416818
0.0416314
0.0415979
0.0415858
0.0415872
0.0416027
0.0416262
0.0416462
0.0416607
0.0416701
0.0416763
0.0416806
0.0416837
0.0416853
0.0416856
0.0416838
0.0416793
0.0416724
0.0416637
0.0416537
0.0416428
0.0416317
0.0416209
0.0416107
0.0416013
0.0415929
0.0415854
0.0415787
0.041573
0.0415679
0.0415635
0.0415595
0.0415561
0.041553
0.04155
0.041547
0.0415437
0.0415399
0.0415354
0.0415299
0.041523
0.0415146
0.0415042
0.0414914
0.0414758
0.041457
0.0414347
0.0414082
0.0413772
0.041341
0.041299
0.0412504
0.0411946
0.041131
0.041059
0.0409777
0.0408865
0.0407843
0.0406703
0.0405437
0.040403
0.0402473
0.0400763
0.0398888
0.0396849
0.0394639
0.0392243
0.0389651
0.0386851
0.0383828
0.038059
0.0377131
0.037347
0.0369597
0.0365553
0.0361272
0.0356817
0.0352164
0.034734
0.0342334
0.0337164
0.0331837
0.0326488
0.032117
0.0315676
0.0310367
0.0304815
0.0299444
0.0294086
0.0288796
0.0283794
0.0278837
0.027416
0.0269583
0.0265164
0.0261027
0.0256984
0.0253213
0.024961
0.0246213
0.0243005
0.0239912
0.023705
0.0234428
0.0232004
0.0229752
0.022773
0.0223813
0.0515614
0.0427934
0.0424087
0.0423255
0.0422464
0.0421823
0.0421149
0.0420483
0.0419817
0.0419205
0.0418664
0.0418189
0.0417725
0.0417229
0.0416735
0.0416347
0.041617
0.0416156
0.0416274
0.0416533
0.04168
0.0417013
0.0417152
0.0417229
0.0417274
0.0417302
0.041732
0.041733
0.0417331
0.0417316
0.041728
0.0417228
0.0417161
0.0417085
0.0417006
0.0416928
0.0416855
0.0416792
0.0416737
0.0416692
0.0416657
0.0416632
0.0416616
0.0416607
0.0416605
0.0416609
0.0416619
0.0416632
0.0416646
0.0416661
0.0416674
0.0416681
0.0416683
0.0416675
0.0416654
0.0416618
0.0416564
0.0416486
0.0416378
0.0416242
0.0416071
0.0415861
0.0415605
0.0415299
0.0414935
0.0414508
0.0414012
0.041344
0.0412786
0.0412043
0.04112
0.041025
0.0409184
0.040799
0.0406662
0.0405193
0.0403571
0.040179
0.0399837
0.0397695
0.0395362
0.0392836
0.039011
0.0387186
0.0384049
0.0380698
0.0377122
0.037333
0.0369284
0.0365063
0.0360602
0.0355966
0.0351153
0.0346153
0.0341088
0.0335854
0.0330687
0.032527
0.0319919
0.031442
0.0308941
0.0303625
0.0298294
0.0293173
0.0287999
0.0283012
0.0278243
0.0273592
0.0269267
0.0265011
0.0261046
0.0257285
0.0253722
0.025026
0.0246906
0.0243592
0.0240357
0.0237222
0.0234375
0.0231728
0.0226993
0.0513733
0.0428124
0.0424518
0.0423636
0.042278
0.0422084
0.0421364
0.0420669
0.0419991
0.0419387
0.041889
0.0418489
0.041811
0.0417694
0.0417239
0.0416821
0.0416571
0.0416511
0.0416579
0.0416812
0.0417118
0.04174
0.0417604
0.0417719
0.0417775
0.0417803
0.0417818
0.0417829
0.0417838
0.0417843
0.0417837
0.0417817
0.0417784
0.0417742
0.0417697
0.0417651
0.0417611
0.0417578
0.0417556
0.0417543
0.041754
0.0417549
0.0417567
0.0417594
0.041763
0.0417673
0.0417724
0.0417779
0.0417839
0.0417902
0.0417964
0.0418025
0.0418082
0.0418134
0.0418176
0.0418205
0.041822
0.0418218
0.041819
0.041814
0.041806
0.0417944
0.041779
0.0417593
0.0417345
0.0417042
0.0416677
0.0416243
0.0415737
0.041515
0.0414473
0.04137
0.0412823
0.0411831
0.0410717
0.0409471
0.0408079
0.040654
0.0404842
0.0402976
0.0400943
0.0398732
0.0396329
0.0393721
0.0390885
0.0387821
0.0384528
0.0381018
0.037728
0.0373352
0.0369168
0.0364795
0.0360182
0.0355405
0.0350464
0.0345372
0.0340167
0.0334712
0.0329172
0.0323758
0.0318187
0.0312746
0.0307232
0.0301895
0.029662
0.0291382
0.0286389
0.0281445
0.0276727
0.0272079
0.0267638
0.0263479
0.0259596
0.0255975
0.0252664
0.0249529
0.02465
0.0243502
0.0240661
0.0238058
0.0233752
0.0511546
0.0428366
0.0424843
0.0423977
0.0423074
0.0422337
0.0421581
0.0420865
0.0420191
0.0419612
0.0419174
0.0418844
0.0418544
0.041821
0.0417812
0.0417392
0.0417072
0.0416951
0.0416968
0.041713
0.0417425
0.0417755
0.0418034
0.0418211
0.0418296
0.0418331
0.0418345
0.0418353
0.0418364
0.0418379
0.0418394
0.0418402
0.0418403
0.0418395
0.0418384
0.0418373
0.0418366
0.0418367
0.0418377
0.0418397
0.0418429
0.0418471
0.0418524
0.0418587
0.041866
0.0418742
0.0418833
0.041893
0.0419034
0.0419143
0.0419254
0.0419366
0.0419477
0.0419585
0.0419687
0.0419781
0.0419863
0.0419931
0.0419982
0.0420011
0.0420018
0.0419995
0.0419941
0.041985
0.0419714
0.0419531
0.0419294
0.0418997
0.0418637
0.0418205
0.0417695
0.0417099
0.0416409
0.0415616
0.0414712
0.0413686
0.0412529
0.0411238
0.0409799
0.0408202
0.0406442
0.0404507
0.0402386
0.0400073
0.0397553
0.0394825
0.0391889
0.0388747
0.0385387
0.0381821
0.0378001
0.037398
0.0369717
0.0365297
0.0360657
0.0355841
0.0350827
0.0345669
0.0340333
0.0334968
0.0329364
0.032372
0.0318103
0.0312465
0.0306948
0.0301312
0.0295915
0.0290549
0.0285393
0.0280325
0.0275332
0.027058
0.0265966
0.0261624
0.0257581
0.0253831
0.0250327
0.0246871
0.0243492
0.0240463
0.0234488
0.0509061
0.0428611
0.0424947
0.0424146
0.0423273
0.0422549
0.0421793
0.0421083
0.0420441
0.0419922
0.041955
0.0419269
0.0419035
0.0418771
0.0418432
0.0418035
0.0417674
0.0417475
0.0417436
0.0417516
0.0417751
0.0418084
0.041842
0.0418672
0.0418813
0.0418875
0.0418898
0.0418907
0.0418915
0.0418932
0.0418959
0.041899
0.0419018
0.0419043
0.0419066
0.041909
0.0419119
0.0419155
0.0419199
0.0419254
0.0419321
0.0419398
0.0419488
0.0419588
0.0419698
0.041982
0.041995
0.042009
0.0420238
0.0420392
0.0420551
0.0420714
0.0420878
0.0421042
0.0421203
0.042136
0.0421509
0.0421647
0.0421772
0.042188
0.0421968
0.0422034
0.0422072
0.0422082
0.0422054
0.0421986
0.0421871
0.0421701
0.0421477
0.0421189
0.0420831
0.0420399
0.0419882
0.0419273
0.0418567
0.0417751
0.0416817
0.041576
0.0414566
0.0413229
0.0411745
0.0410101
0.0408284
0.0406287
0.0404087
0.040168
0.0399063
0.0396235
0.0393184
0.0389908
0.0386382
0.0382651
0.0378685
0.0374533
0.0370121
0.0365531
0.0360734
0.0355775
0.0350718
0.0345425
0.034007
0.0334515
0.0329165
0.0323676
0.031828
0.0312656
0.0307213
0.0301778
0.0296536
0.0291499
0.0286465
0.0281641
0.0276851
0.0272205
0.0267795
0.0263452
0.0259419
0.025548
0.0251686
0.0248067
0.0241082
0.0506219
0.0428699
0.0424893
0.0424177
0.0423379
0.0422724
0.0422032
0.0421378
0.0420797
0.0420371
0.0420029
0.0419791
0.0419598
0.0419376
0.0419079
0.0418715
0.0418346
0.0418077
0.0417975
0.0417989
0.041813
0.0418413
0.0418766
0.0419084
0.0419298
0.0419413
0.0419461
0.0419479
0.0419489
0.0419505
0.0419536
0.041958
0.0419631
0.0419684
0.0419739
0.0419797
0.0419861
0.0419933
0.0420013
0.0420105
0.0420207
0.0420321
0.0420447
0.0420584
0.0420733
0.0420893
0.0421063
0.0421244
0.0421434
0.0421633
0.0421839
0.042205
0.0422266
0.0422483
0.0422702
0.0422918
0.042313
0.0423335
0.0423531
0.0423715
0.0423884
0.0424035
0.0424163
0.0424266
0.042434
0.0424379
0.0424385
0.0424341
0.0424252
0.0424107
0.0423899
0.0423628
0.0423282
0.0422856
0.0422343
0.0421732
0.0421015
0.0420187
0.0419235
0.0418152
0.0416929
0.0415551
0.0414011
0.0412303
0.0410412
0.0408337
0.0406069
0.0403598
0.0400911
0.0398005
0.0394867
0.039152
0.0387924
0.0384096
0.0379998
0.0375721
0.0371213
0.036653
0.0361615
0.0356503
0.0351209
0.0345729
0.0340225
0.0334519
0.0328769
0.0322868
0.0317009
0.0311241
0.0305574
0.0300266
0.0294994
0.0289876
0.0284892
0.0280025
0.0275483
0.0270952
0.0266699
0.0262684
0.0259021
0.025576
0.025005
0.050305
0.0428464
0.0424641
0.0424076
0.0423395
0.0422877
0.0422342
0.0421831
0.0421361
0.0420945
0.0420645
0.042043
0.0420242
0.0420025
0.0419743
0.0419403
0.0419043
0.0418738
0.041857
0.0418533
0.0418588
0.0418781
0.0419096
0.0419442
0.0419721
0.0419907
0.0420009
0.0420055
0.0420077
0.0420097
0.0420129
0.042018
0.0420246
0.0420322
0.0420406
0.0420496
0.0420593
0.04207
0.0420817
0.0420945
0.0421085
0.0421237
0.04214
0.0421575
0.0421762
0.0421962
0.0422173
0.0422395
0.0422628
0.0422871
0.0423123
0.0423383
0.0423648
0.0423919
0.0424192
0.0424467
0.0424741
0.0425011
0.0425276
0.0425532
0.0425777
0.0426009
0.0426224
0.042642
0.0426591
0.0426733
0.0426844
0.0426917
0.042695
0.0426942
0.0426873
0.0426752
0.0426565
0.0426307
0.0425972
0.0425551
0.042504
0.0424428
0.0423705
0.0422865
0.0421899
0.0420795
0.041955
0.0418156
0.0416595
0.0414858
0.0412932
0.0410804
0.0408465
0.0405915
0.0403146
0.0400161
0.0396928
0.0393467
0.038977
0.0385889
0.0381763
0.0377437
0.0372851
0.0368078
0.0363126
0.0358037
0.0352762
0.034733
0.034174
0.0336149
0.0330425
0.0324628
0.0318663
0.0312929
0.0307146
0.0301429
0.0295854
0.0290278
0.0284995
0.0279732
0.02746
0.0269593
0.0264856
0.0260612
0.0252829
0.0499763
0.042797
0.042423
0.0423801
0.0423258
0.0422911
0.04226
0.0422293
0.0421949
0.0421617
0.042135
0.042114
0.0420946
0.0420725
0.0420447
0.0420108
0.0419743
0.0419412
0.0419189
0.0419107
0.0419112
0.0419213
0.0419456
0.0419781
0.0420093
0.0420344
0.0420515
0.0420612
0.0420664
0.0420698
0.0420736
0.042079
0.0420865
0.0420958
0.0421065
0.0421183
0.0421312
0.0421452
0.0421604
0.0421769
0.0421946
0.0422135
0.0422337
0.042255
0.0422776
0.0423015
0.0423265
0.0423528
0.0423803
0.0424089
0.0424386
0.0424692
0.0425006
0.0425327
0.0425653
0.0425983
0.0426316
0.0426648
0.0426978
0.0427303
0.0427621
0.042793
0.0428227
0.0428509
0.0428773
0.0429015
0.0429232
0.0429419
0.0429569
0.0429681
0.0429751
0.0429775
0.0429745
0.0429653
0.0429495
0.0429258
0.0428944
0.042854
0.0428037
0.0427431
0.0426712
0.0425868
0.0424894
0.0423779
0.0422506
0.042107
0.0419455
0.0417654
0.0415663
0.0413478
0.0411082
0.0408466
0.0405609
0.0402529
0.0399217
0.039569
0.0391894
0.0387868
0.0383565
0.0379068
0.0374352
0.0369453
0.0364335
0.0359013
0.03536
0.0348135
0.0342572
0.0336836
0.0330949
0.0325128
0.031954
0.0314034
0.0308701
0.0303287
0.0298053
0.029274
0.0287702
0.0282752
0.0277985
0.0273559
0.0265778
0.0496619
0.0427449
0.0423785
0.0423427
0.0423031
0.0422871
0.0422741
0.0422603
0.0422374
0.0422145
0.0421947
0.0421787
0.0421639
0.0421454
0.0421193
0.0420846
0.0420462
0.0420102
0.0419834
0.0419699
0.0419668
0.0419704
0.0419861
0.0420128
0.042043
0.0420717
0.0420954
0.042112
0.0421224
0.0421292
0.0421348
0.0421411
0.0421493
0.0421597
0.0421721
0.0421862
0.0422018
0.0422189
0.0422375
0.0422575
0.0422788
0.0423015
0.0423255
0.0423507
0.0423772
0.042405
0.0424341
0.0424644
0.0424961
0.0425289
0.042563
0.0425982
0.0426343
0.0426713
0.0427091
0.0427475
0.0427864
0.0428256
0.0428649
0.042904
0.0429428
0.0429811
0.0430186
0.0430551
0.0430902
0.0431236
0.0431551
0.0431842
0.0432105
0.0432337
0.0432531
0.0432684
0.0432792
0.0432849
0.0432858
0.0432792
0.0432664
0.0432456
0.0432159
0.0431775
0.0431289
0.0430693
0.0429982
0.0429144
0.0428167
0.0427045
0.0425761
0.0424309
0.0422684
0.0420872
0.0418855
0.0416626
0.0414178
0.0411518
0.0408629
0.0405504
0.0402109
0.039848
0.0394596
0.0390507
0.0386163
0.03816
0.0376801
0.0371819
0.0366631
0.0361252
0.0355718
0.0349944
0.0343987
0.0337776
0.0331667
0.0325536
0.0319636
0.0313707
0.0307903
0.0301995
0.0296322
0.0290899
0.0285701
0.028104
0.0271925
0.0493744
0.0426977
0.0423578
0.0423231
0.0422864
0.0422791
0.0422767
0.0422704
0.0422553
0.0422375
0.0422248
0.0422157
0.0422084
0.0421983
0.04218
0.0421504
0.0421135
0.0420757
0.0420451
0.042027
0.0420211
0.0420217
0.0420315
0.0420519
0.042078
0.0421064
0.0421339
0.0421568
0.0421738
0.0421858
0.0421949
0.0422032
0.0422125
0.0422238
0.0422375
0.0422534
0.0422713
0.0422911
0.0423127
0.0423359
0.0423607
0.042387
0.0424147
0.0424438
0.0424741
0.0425058
0.0425388
0.0425731
0.0426088
0.0426458
0.0426841
0.0427236
0.0427643
0.042806
0.0428487
0.0428922
0.0429365
0.0429813
0.0430264
0.0430718
0.0431172
0.0431624
0.0432072
0.0432514
0.0432947
0.0433369
0.0433777
0.0434167
0.0434535
0.0434878
0.0435193
0.0435475
0.043572
0.043592
0.0436074
0.0436176
0.0436221
0.0436206
0.0436105
0.0435933
0.0435667
0.0435307
0.0434844
0.0434269
0.0433572
0.0432744
0.043177
0.0430644
0.0429359
0.0427897
0.0426244
0.0424398
0.0422348
0.0420089
0.0417597
0.0414869
0.0411892
0.0408703
0.0405274
0.0401615
0.0397672
0.0393508
0.0389127
0.0384543
0.0379678
0.0374577
0.0369311
0.0363958
0.0358465
0.0352745
0.0346907
0.0340958
0.0335097
0.0329228
0.0323281
0.0317432
0.0311289
0.0305335
0.0299336
0.0293635
0.0283101
0.0491179
0.0426868
0.0423611
0.0423225
0.0422822
0.0422712
0.0422695
0.0422649
0.0422551
0.0422417
0.0422306
0.0422235
0.0422201
0.0422158
0.0422069
0.0421917
0.0421671
0.0421361
0.0421065
0.0420854
0.0420757
0.0420739
0.04208
0.0420953
0.042116
0.0421411
0.0421689
0.0421958
0.0422191
0.0422376
0.0422519
0.0422638
0.0422753
0.042288
0.0423028
0.0423201
0.0423399
0.0423619
0.0423861
0.0424123
0.0424403
0.04247
0.0425013
0.042534
0.0425681
0.0426036
0.0426405
0.0426788
0.0427184
0.0427595
0.0428019
0.0428457
0.0428908
0.0429371
0.0429845
0.0430329
0.0430823
0.0431325
0.0431833
0.0432346
0.0432862
0.0433379
0.0433897
0.0434412
0.0434922
0.0435426
0.043592
0.0436402
0.0436868
0.0437315
0.0437739
0.0438137
0.0438505
0.043884
0.0439136
0.0439388
0.0439588
0.0439734
0.0439821
0.0439847
0.043979
0.0439655
0.043943
0.0439098
0.0438667
0.0438118
0.043744
0.0436626
0.0435663
0.0434538
0.0433245
0.0431777
0.0430117
0.0428254
0.0426169
0.0423864
0.0421335
0.0418598
0.0415605
0.0412355
0.0408815
0.0405051
0.0401044
0.0396794
0.039224
0.0387444
0.0382449
0.0377331
0.0372048
0.0366542
0.0360766
0.0354798
0.0348716
0.034271
0.0336694
0.0330861
0.0324533
0.0318717
0.0313082
0.0307957
0.0298487
0.0488811
0.0427061
0.0423822
0.0423386
0.0422916
0.0422676
0.0422547
0.0422434
0.0422313
0.0422188
0.0422115
0.042208
0.0422099
0.0422115
0.0422096
0.0422029
0.0421906
0.0421753
0.0421568
0.0421396
0.0421288
0.0421258
0.0421302
0.0421424
0.042159
0.0421797
0.0422049
0.0422325
0.0422597
0.042284
0.0423044
0.0423214
0.0423365
0.0423515
0.0423678
0.0423864
0.0424076
0.0424315
0.0424579
0.0424866
0.0425175
0.0425503
0.0425848
0.042621
0.0426587
0.0426979
0.0427385
0.0427805
0.042824
0.042869
0.0429154
0.0429633
0.0430125
0.0430631
0.043115
0.0431681
0.0432222
0.0432774
0.0433335
0.0433903
0.0434477
0.0435055
0.0435637
0.043622
0.0436802
0.0437381
0.0437955
0.0438522
0.0439079
0.0439623
0.044015
0.0440657
0.0441142
0.0441601
0.0442028
0.0442421
0.0442775
0.0443083
0.0443339
0.0443538
0.0443674
0.0443741
0.0443747
0.0443644
0.0443466
0.0443181
0.0442781
0.0442264
0.0441612
0.044082
0.0439883
0.0438787
0.043751
0.0436046
0.0434379
0.0432511
0.0430435
0.0428141
0.0425587
0.0422785
0.0419723
0.041643
0.0412871
0.040907
0.040501
0.0400712
0.0396152
0.0391374
0.0386378
0.038118
0.0375716
0.0369993
0.0364089
0.0358066
0.0352048
0.0346046
0.033964
0.0333237
0.032663
0.032036
0.030914
0.0486431
0.042747
0.0424255
0.042369
0.04231
0.0422724
0.0422442
0.0422171
0.0421922
0.0421726
0.0421652
0.0421663
0.0421758
0.0421882
0.0421961
0.0421969
0.0421945
0.0421918
0.0421892
0.0421846
0.0421798
0.0421783
0.0421822
0.042192
0.0422058
0.0422228
0.042244
0.0422695
0.0422976
0.0423258
0.0423519
0.0423748
0.0423947
0.0424131
0.0424317
0.0424518
0.0424744
0.0424998
0.0425281
0.042559
0.0425923
0.0426279
0.0426654
0.0427048
0.0427459
0.0427885
0.0428327
0.0428784
0.0429256
0.0429743
0.0430245
0.0430763
0.0431296
0.0431843
0.0432404
0.0432979
0.0433566
0.0434166
0.0434776
0.0435396
0.0436024
0.043666
0.0437302
0.0437948
0.0438596
0.0439246
0.0439895
0.0440541
0.0441181
0.0441813
0.0442434
0.0443041
0.0443632
0.0444203
0.044475
0.044527
0.0445759
0.0446212
0.0446624
0.0446991
0.0447306
0.0447559
0.0447752
0.0447875
0.0447925
0.0447891
0.0447751
0.0447515
0.0447153
0.0446674
0.0446063
0.0445307
0.0444389
0.0443304
0.0442039
0.0440588
0.0438936
0.0437065
0.0434959
0.0432638
0.0430078
0.0427272
0.0424188
0.0420873
0.041732
0.041351
0.0409386
0.040499
0.0400356
0.0395535
0.039047
0.038518
0.0379633
0.0373923
0.0368041
0.0362078
0.0356052
0.0350092
0.0343624
0.033775
0.0327506
0.0483831
0.0428064
0.0424685
0.0423932
0.0423299
0.0422841
0.0422441
0.042207
0.0421714
0.0421385
0.0421164
0.0421105
0.0421199
0.0421394
0.0421604
0.0421764
0.0421861
0.0421922
0.0421992
0.0422085
0.0422185
0.0422258
0.0422329
0.0422428
0.0422558
0.0422707
0.0422883
0.0423102
0.0423365
0.0423657
0.0423955
0.0424237
0.042449
0.042472
0.0424937
0.042516
0.0425401
0.0425669
0.0425967
0.0426294
0.0426649
0.0427029
0.0427431
0.0427854
0.0428295
0.0428753
0.0429228
0.0429719
0.0430226
0.0430749
0.0431287
0.0431842
0.0432412
0.0432998
0.0433599
0.0434215
0.0434845
0.0435488
0.0436144
0.0436812
0.043749
0.0438178
0.0438875
0.0439578
0.0440288
0.0441002
0.0441718
0.0442436
0.0443152
0.0443865
0.0444572
0.044527
0.0445957
0.0446631
0.0447289
0.0447927
0.0448541
0.0449128
0.0449682
0.0450201
0.0450678
0.0451109
0.0451488
0.0451807
0.045206
0.0452243
0.0452347
0.0452375
0.0452288
0.0452106
0.0451804
0.0451368
0.0450802
0.0450085
0.0449209
0.0448161
0.0446923
0.0445482
0.0443839
0.0441993
0.0439905
0.0437568
0.0434963
0.0432127
0.0429032
0.0425674
0.0422011
0.0418066
0.0413864
0.0409448
0.0404805
0.039995
0.0394795
0.038941
0.0383721
0.0377896
0.0371838
0.0365856
0.0359255
0.0352908
0.0342311
0.0480732
0.0428261
0.042502
0.0424342
0.042377
0.0423198
0.0422646
0.0422156
0.0421717
0.0421309
0.0420963
0.0420766
0.0420735
0.0420855
0.0421096
0.042136
0.0421588
0.0421771
0.0421942
0.0422154
0.0422399
0.0422624
0.0422788
0.0422928
0.042307
0.0423215
0.0423369
0.0423551
0.0423781
0.0424059
0.0424371
0.042469
0.0424993
0.0425272
0.042553
0.0425781
0.0426041
0.0426324
0.0426636
0.0426979
0.0427352
0.0427753
0.0428179
0.0428627
0.0429096
0.0429584
0.0430089
0.0430612
0.0431151
0.0431707
0.043228
0.0432869
0.0433475
0.0434097
0.0434735
0.0435389
0.0436059
0.0436743
0.0437442
0.0438154
0.0438879
0.0439616
0.0440363
0.044112
0.0441885
0.0442658
0.0443436
0.0444219
0.0445005
0.0445791
0.0446576
0.0447356
0.0448131
0.0448898
0.0449654
0.0450397
0.0451123
0.0451829
0.0452511
0.0453166
0.0453788
0.0454374
0.0454919
0.0455417
0.0455864
0.0456253
0.0456573
0.0456822
0.0456988
0.0457069
0.0457069
0.0456922
0.0456686
0.045631
0.0455793
0.0455124
0.0454286
0.0453274
0.045208
0.0450687
0.0449068
0.0447229
0.0445147
0.0442824
0.0440228
0.0437389
0.0434283
0.0430914
0.042727
0.0423361
0.0419204
0.0414796
0.0410113
0.0405197
0.0399991
0.0394611
0.0388937
0.0383176
0.0377076
0.0371046
0.0361429
0.0477281
0.0428128
0.0425086
0.0424682
0.0424228
0.0423753
0.0423172
0.0422561
0.0421974
0.0421432
0.0421006
0.0420712
0.0420553
0.0420531
0.0420646
0.042088
0.0421189
0.0421503
0.0421807
0.0422117
0.042246
0.042282
0.0423137
0.0423371
0.0423561
0.0423728
0.0423881
0.0424043
0.0424238
0.0424486
0.0424787
0.0425121
0.0425462
0.0425787
0.0426089
0.0426375
0.0426661
0.0426961
0.0427287
0.0427644
0.0428033
0.0428452
0.0428899
0.042937
0.0429863
0.0430377
0.043091
0.0431461
0.0432031
0.0432617
0.0433221
0.0433843
0.0434481
0.0435137
0.043581
0.0436499
0.0437205
0.0437927
0.0438665
0.0439418
0.0440184
0.0440965
0.0441758
0.0442563
0.0443378
0.0444204
0.0445038
0.0445879
0.0446727
0.0447579
0.0448433
0.0449287
0.045014
0.045099
0.0451834
0.0452671
0.0453497
0.045431
0.0455106
0.0455883
0.0456636
0.0457362
0.0458056
0.0458714
0.0459331
0.0459903
0.0460424
0.0460885
0.046128
0.0461596
0.0461835
0.0461984
0.0462044
0.0461994
0.0461815
0.0461512
0.0461053
0.0460445
0.0459667
0.0458704
0.0457542
0.0456181
0.045459
0.0452761
0.0450672
0.0448354
0.0445774
0.0442931
0.0439782
0.0436332
0.0432608
0.0428614
0.0424379
0.0419874
0.0415065
0.040999
0.0404542
0.0398964
0.0392886
0.0386764
0.0377842
0.047391
0.0427253
0.0424808
0.0424867
0.0424693
0.0424457
0.0423961
0.0423264
0.0422515
0.042185
0.0421285
0.0420841
0.0420569
0.042045
0.0420442
0.0420533
0.0420778
0.0421129
0.042153
0.0421958
0.0422405
0.0422885
0.0423344
0.0423718
0.0423997
0.0424216
0.0424392
0.042455
0.0424723
0.0424939
0.0425215
0.0425545
0.0425906
0.0426268
0.0426613
0.0426938
0.0427253
0.0427574
0.0427916
0.0428287
0.042869
0.0429125
0.042959
0.0430081
0.0430596
0.0431133
0.0431691
0.0432268
0.0432865
0.0433479
0.0434112
0.0434763
0.0435432
0.0436119
0.0436823
0.0437545
0.0438284
0.0439041
0.0439814
0.0440604
0.0441409
0.0442229
0.0443063
0.0443912
0.0444773
0.0445646
0.044653
0.0447424
0.0448327
0.0449237
0.0450154
0.0451074
0.0451996
0.0452919
0.0453842
0.0454761
0.0455676
0.0456583
0.045748
0.0458364
0.0459231
0.046008
0.0460905
0.0461704
0.0462472
0.0463204
0.0463898
0.0464545
0.0465141
0.0465678
0.046615
0.0466547
0.0466862
0.0467088
0.0467215
0.0467249
0.0467134
0.0466902
0.0466517
0.0465965
0.0465252
0.0464353
0.0463253
0.046194
0.0460393
0.0458616
0.0456572
0.0454278
0.0451691
0.0448831
0.044569
0.0442272
0.043861
0.0434662
0.0430474
0.0425975
0.0421169
0.0416048
0.0410507
0.0404514
0.0396337
0.0471173
0.0425905
0.042423
0.04247
0.042484
0.0424899
0.0424696
0.0424118
0.0423311
0.0422494
0.0421777
0.0421191
0.042076
0.0420512
0.0420424
0.0420432
0.042054
0.0420801
0.0421209
0.0421718
0.042228
0.0422855
0.0423435
0.042395
0.0424347
0.0424646
0.0424872
0.0425052
0.0425221
0.0425414
0.0425661
0.0425974
0.0426337
0.0426723
0.0427104
0.0427467
0.0427815
0.0428161
0.0428521
0.0428906
0.0429323
0.0429773
0.0430253
0.0430762
0.0431297
0.0431855
0.0432435
0.0433036
0.0433656
0.0434296
0.0434955
0.0435633
0.0436329
0.0437044
0.0437777
0.0438529
0.0439298
0.0440086
0.0440892
0.0441714
0.0442554
0.0443409
0.0444281
0.0445168
0.0446069
0.0446984
0.0447913
0.0448853
0.0449804
0.0450766
0.0451736
0.0452714
0.0453697
0.0454684
0.0455675
0.0456666
0.0457658
0.0458647
0.0459631
0.0460608
0.0461575
0.046253
0.046347
0.0464391
0.0465291
0.0466164
0.0467009
0.046782
0.0468592
0.0469318
0.0469993
0.0470611
0.0471166
0.0471649
0.0472049
0.0472363
0.0472577
0.0472684
0.0472694
0.0472524
0.0472245
0.0471784
0.0471148
0.0470323
0.0469281
0.0468013
0.0466491
0.0464733
0.0462693
0.0460391
0.0457777
0.0454874
0.0451674
0.0448174
0.0444403
0.044028
0.0435861
0.0431066
0.0425933
0.0420192
0.04127
0.0469421
0.0424569
0.0423338
0.0424208
0.0424704
0.0425002
0.0425065
0.0424811
0.0424149
0.0423295
0.0422465
0.0421735
0.0421128
0.0420704
0.042049
0.0420437
0.0420488
0.0420658
0.0420977
0.0421468
0.0422097
0.0422779
0.0423453
0.042408
0.0424601
0.0425
0.0425296
0.0425518
0.0425704
0.0425891
0.0426117
0.0426407
0.0426762
0.0427159
0.0427567
0.0427964
0.0428344
0.0428717
0.0429097
0.0429498
0.0429929
0.0430392
0.0430888
0.0431412
0.0431964
0.0432541
0.0433141
0.0433762
0.0434405
0.0435067
0.043575
0.0436451
0.0437172
0.0437913
0.0438672
0.043945
0.0440247
0.0441062
0.0441897
0.0442749
0.0443619
0.0444506
0.0445411
0.0446332
0.0447269
0.0448221
0.0449189
0.0450169
0.0451164
0.045217
0.0453188
0.0454215
0.0455251
0.0456294
0.0457344
0.0458398
0.0459456
0.0460515
0.0461575
0.0462632
0.0463685
0.0464732
0.0465769
0.0466796
0.0467807
0.0468802
0.0469776
0.0470727
0.0471649
0.0472538
0.0473389
0.0474196
0.0474954
0.0475658
0.0476302
0.0476875
0.0477371
0.047777
0.0478081
0.0478275
0.0478359
0.0478307
0.0478084
0.0477716
0.0477154
0.0476397
0.0475422
0.0474226
0.0472769
0.0471063
0.046905
0.0466761
0.0464151
0.0461254
0.0458055
0.0454498
0.0450618
0.04463
0.0441624
0.0436285
0.0429377
0.0468607
0.0423472
0.0422257
0.0423317
0.0424287
0.0424926
0.0425183
0.0425159
0.0424796
0.0424067
0.0423224
0.0422415
0.0421675
0.042107
0.0420686
0.0420531
0.042052
0.0420623
0.0420877
0.0421311
0.0421938
0.0422682
0.0423437
0.0424155
0.0424782
0.0425278
0.0425652
0.0425931
0.0426151
0.042635
0.0426569
0.0426841
0.0427182
0.042758
0.0428006
0.0428431
0.0428842
0.0429243
0.0429645
0.0430063
0.0430508
0.0430985
0.0431494
0.0432034
0.0432601
0.0433195
0.0433812
0.0434452
0.0435114
0.0435797
0.04365
0.0437223
0.0437966
0.0438729
0.0439512
0.0440314
0.0441135
0.0441975
0.0442835
0.0443714
0.0444611
0.0445526
0.044646
0.0447411
0.0448379
0.0449364
0.0450365
0.0451381
0.0452412
0.0453458
0.0454516
0.0455587
0.0456668
0.0457759
0.0458858
0.0459966
0.046108
0.04622
0.0463323
0.0464448
0.0465573
0.0466697
0.0467817
0.0468932
0.0470039
0.0471135
0.0472218
0.0473287
0.0474336
0.0475363
0.0476362
0.0477331
0.0478263
0.0479156
0.0480002
0.0480797
0.0481532
0.0482201
0.0482796
0.0483303
0.0483714
0.0484023
0.0484213
0.0484288
0.0484206
0.0483958
0.0483533
0.0482898
0.0482037
0.0480942
0.047956
0.0477908
0.0475916
0.0473632
0.047098
0.0467961
0.046453
0.04606
0.0456276
0.0451265
0.0444804
0.0468364
0.0422812
0.0421182
0.0422204
0.0423533
0.0424627
0.0425145
0.0425277
0.0425167
0.0424696
0.0423946
0.0423124
0.0422316
0.0421583
0.0421028
0.0420728
0.0420634
0.0420673
0.0420859
0.0421245
0.0421848
0.0422616
0.0423433
0.0424216
0.0424919
0.0425496
0.0425945
0.0426286
0.042655
0.0426774
0.0427
0.0427264
0.0427593
0.0427988
0.0428424
0.0428871
0.042931
0.0429737
0.0430162
0.0430598