/*--------------------------------*- C++ -*----------------------------------*\
| =========                 |                                                 |
| \\      /  F ield         | OpenFOAM: The Open Source CFD Toolbox           |
|  \\    /   O peration     | Version:  2412                                  |
|   \\  /    A nd           | Website:  www.openfoam.com                      |
|    \\/     M anipulation  |                                                 |
\*---------------------------------------------------------------------------*/
FoamFile
{
    version     2.0;
    format      ascii;
    arch        "LSB;label=32;scalar=64";
    class       volScalarField;
    location    "0.06";
    object      p;
}
// * * * * * * * * * * * * * * * * * * * * * * * * * * * * * * * * * * * * * //

dimensions      [1 -1 -2 0 0 0 0];

internalField   nonuniform List<scalar> 
9831
(
1587.47
2490.24
1583.3
2488.53
2597.11
2593.64
2597.63
2604.7
2611.65
2618.38
2625.61
2633.29
2641.36
2649.77
2658.33
2666.71
2674.53
2681.55
2687.79
2693.38
2698.41
2702.99
2707.36
2711.85
2716.61
2721.53
2726.45
2731.44
2736.74
2742.58
2749.07
2756.26
2764.1
2772.46
2781.18
2790.07
2798.95
2807.69
2816.17
2824.34
2832.19
2839.7
2846.9
2853.8
2860.41
2866.74
2872.78
2878.51
2883.9
2888.96
2893.71
2898.17
1578.27
2486.86
2595.96
2592.59
2596.84
2604.1
2611.12
2617.89
2625.15
2632.85
2640.94
2649.37
2657.96
2666.35
2674.19
2681.23
2687.49
2693.09
2698.13
2702.73
2707.12
2711.62
2716.4
2721.32
2726.25
2731.26
2736.6
2742.48
2749.04
2756.3
2764.21
2772.64
2781.41
2790.34
2799.25
2807.99
2816.47
2824.64
2832.47
2839.97
2847.16
2854.05
2860.65
2866.98
2873
2878.71
2884.08
2889.13
2893.87
2898.32
2902.49
2906.35
1574.34
2485.2
2594.81
2591.56
2596.08
2603.53
2610.61
2617.41
2624.69
2632.42
2640.53
2648.98
2657.59
2666.01
2673.86
2680.92
2687.19
2692.8
2697.86
2702.47
2706.87
2711.4
2716.18
2721.12
2726.06
2731.09
2736.46
2742.39
2749.01
2756.34
2764.33
2772.83
2781.65
2790.62
2799.54
2808.29
2816.77
2824.93
2832.75
2840.24
2847.42
2854.3
2860.89
2867.21
2873.22
2878.91
2884.26
2889.3
2894.03
2898.48
2902.64
2906.5
2910.03
2913.23
1569.68
2483.57
2593.65
2590.55
2595.35
2602.98
2610.11
2616.95
2624.26
2632
2640.13
2648.6
2657.23
2665.66
2673.54
2680.61
2686.89
2692.52
2697.6
2702.22
2706.64
2711.17
2715.98
2720.92
2725.87
2730.92
2736.32
2742.31
2748.99
2756.4
2764.45
2773.02
2781.9
2790.89
2799.83
2808.59
2817.06
2825.21
2833.03
2840.51
2847.67
2854.55
2861.13
2867.44
2873.44
2879.11
2884.45
2889.47
2894.2
2898.65
2902.8
2906.65
2910.18
2913.38
2916.28
2918.87
2921.14
2923.06
2924.63
2925.81
2926.65
2927.16
2927.27
2927.04
2926.54
2925.75
2924.68
2923.34
2921.74
2919.9
2917.83
2915.55
2913.06
2910.4
2907.58
2904.62
2901.53
2898.34
2895.05
2891.7
2888.29
2884.85
2881.37
2877.88
2874.39
2870.91
2867.44
2864.01
2860.61
2857.26
2853.95
2850.71
2847.52
2844.4
2841.35
2838.37
2835.46
2832.64
2829.89
2827.21
2824.62
2822.11
2819.68
2817.32
2815.05
2812.85
2810.73
2808.69
2806.72
2804.82
2803
2801.24
2799.55
2797.93
2796.38
2794.88
2793.44
2792.21
2790.85
1566.02
2481.94
2592.49
2589.56
2594.65
2602.46
2609.64
2616.5
2623.83
2631.6
2639.74
2648.23
2656.87
2665.33
2673.22
2680.3
2686.6
2692.25
2697.34
2701.97
2706.4
2710.95
2715.77
2720.72
2725.69
2730.76
2736.19
2742.23
2748.97
2756.46
2764.59
2773.22
2782.14
2791.17
2800.13
2808.89
2817.36
2825.5
2833.3
2840.77
2847.93
2854.79
2861.37
2867.67
2873.65
2879.3
2884.63
2889.64
2894.37
2898.81
2902.97
2906.81
2910.34
2913.55
2916.46
2919.06
2921.34
2923.26
2924.82
2926.02
2926.86
2927.38
2927.53
2927.35
2926.9
2926.17
2925.16
2923.88
2922.35
2920.58
2918.57
2916.36
2913.96
2911.38
2908.64
2905.77
2902.77
2899.68
2896.5
2893.25
2889.95
2886.61
2883.24
2879.87
2876.49
2873.13
2869.77
2866.46
2863.17
2859.94
2856.74
2853.61
2850.54
2847.53
2844.58
2841.71
2838.91
2836.19
2833.54
2830.96
2828.47
2826.05
2823.71
2821.44
2819.26
2817.14
2815.11
2813.14
2811.25
2809.43
2807.68
2805.99
2804.37
2802.81
2801.33
2799.89
2798.51
2797.34
2796.04
2795.25
2792.76
1561.7
2480.33
2591.33
2588.6
2593.98
2601.95
2609.18
2616.07
2623.42
2631.2
2639.36
2647.86
2656.53
2665
2672.9
2680
2686.32
2691.98
2697.08
2701.73
2706.17
2710.73
2715.56
2720.53
2725.51
2730.6
2736.07
2742.15
2748.97
2756.52
2764.73
2773.42
2782.39
2791.45
2800.42
2809.18
2817.65
2825.78
2833.58
2841.04
2848.18
2855.04
2861.61
2867.89
2873.86
2879.5
2884.81
2889.82
2894.54
2898.99
2903.14
2906.98
2910.51
2913.73
2916.65
2919.27
2921.55
2923.48
2925.04
2926.24
2927.1
2927.65
2927.85
2927.71
2927.33
2926.66
2925.71
2924.5
2923.04
2921.33
2919.4
2917.27
2914.95
2912.45
2909.81
2907.03
2904.13
2901.14
2898.07
2894.94
2891.75
2888.53
2885.27
2882.02
2878.76
2875.51
2872.28
2869.09
2865.92
2862.8
2859.72
2856.71
2853.74
2850.85
2848.01
2845.25
2842.56
2839.93
2837.39
2834.91
2832.51
2830.19
2827.94
2825.77
2823.67
2821.64
2819.68
2817.8
2815.98
2814.23
2812.55
2810.93
2809.38
2807.89
2806.47
2805.09
2803.76
2802.68
2801.42
2800.7
2798.28
1558.27
2478.74
2590.17
2587.66
2593.33
2601.46
2608.73
2615.65
2623.03
2630.82
2638.99
2647.51
2656.18
2664.67
2672.59
2679.7
2686.03
2691.71
2696.82
2701.48
2705.94
2710.52
2715.36
2720.34
2725.33
2730.44
2735.95
2742.08
2748.97
2756.59
2764.87
2773.63
2782.64
2791.73
2800.71
2809.48
2817.94
2826.07
2833.85
2841.3
2848.44
2855.28
2861.85
2868.12
2874.07
2879.69
2884.99
2889.99
2894.72
2899.16
2903.31
2907.16
2910.69
2913.92
2916.86
2919.49
2921.78
2923.7
2925.27
2926.49
2927.38
2927.96
2928.21
2928.14
2927.82
2927.21
2926.32
2925.18
2923.79
2922.15
2920.3
2918.25
2916.01
2913.61
2911.06
2908.39
2905.6
2902.72
2899.76
2896.74
2893.67
2890.57
2887.44
2884.31
2881.17
2878.05
2874.95
2871.87
2868.83
2865.83
2862.88
2859.98
2857.13
2854.35
2851.63
2848.98
2846.39
2843.88
2841.43
2839.06
2836.76
2834.53
2832.38
2830.29
2828.28
2826.33
2824.46
2822.65
2820.91
2819.24
2817.63
2816.08
2814.6
2813.17
2811.81
2810.5
2809.22
2808.23
2807
2806.34
2803.99
1554.26
2477.15
2588.99
2586.74
2592.7
2600.98
2608.3
2615.25
2622.64
2630.44
2638.63
2647.16
2655.85
2664.35
2672.28
2679.41
2685.75
2691.44
2696.57
2701.24
2705.71
2710.31
2715.16
2720.15
2725.15
2730.28
2735.83
2742.02
2748.97
2756.67
2765.02
2773.84
2782.9
2792.01
2801.01
2809.77
2818.23
2826.35
2834.12
2841.56
2848.69
2855.53
2862.08
2868.34
2874.27
2879.88
2885.17
2890.17
2894.9
2899.34
2903.5
2907.34
2910.88
2914.13
2917.08
2919.72
2922.01
2923.94
2925.52
2926.76
2927.69
2928.31
2928.63
2928.63
2928.36
2927.82
2927
2925.93
2924.6
2923.05
2921.28
2919.31
2917.17
2914.87
2912.43
2909.86
2907.19
2904.43
2901.59
2898.69
2895.75
2892.78
2889.78
2886.77
2883.76
2880.77
2877.79
2874.84
2871.92
2869.05
2866.22
2863.44
2860.71
2858.05
2855.44
2852.9
2850.42
2848.01
2845.67
2843.4
2841.2
2839.06
2837
2835
2833.08
2831.22
2829.42
2827.69
2826.03
2824.43
2822.89
2821.41
2819.99
2818.62
2817.32
2816.07
2814.85
2813.9
2812.71
2812.11
2809.81
1551.04
2475.57
2587.82
2585.84
2592.1
2600.52
2607.88
2614.86
2622.27
2630.08
2638.28
2646.81
2655.52
2664.04
2671.98
2679.12
2685.48
2691.18
2696.32
2701
2705.49
2710.1
2714.97
2719.96
2724.98
2730.13
2735.72
2741.96
2748.98
2756.76
2765.18
2774.05
2783.15
2792.29
2801.3
2810.06
2818.52
2826.62
2834.38
2841.81
2848.94
2855.77
2862.32
2868.56
2874.48
2880.07
2885.35
2890.35
2895.08
2899.53
2903.68
2907.53
2911.08
2914.35
2917.31
2919.96
2922.26
2924.2
2925.79
2927.07
2928.04
2928.71
2929.1
2929.17
2928.95
2928.47
2927.73
2926.72
2925.48
2924
2922.32
2920.45
2918.41
2916.22
2913.89
2911.44
2908.88
2906.25
2903.53
2900.77
2897.95
2895.11
2892.24
2889.37
2886.49
2883.63
2880.78
2877.96
2875.17
2872.43
2869.72
2867.06
2864.46
2861.91
2859.42
2856.99
2854.63
2852.32
2850.09
2847.92
2845.81
2843.78
2841.8
2839.9
2838.06
2836.28
2834.57
2832.92
2831.33
2829.8
2828.33
2826.91
2825.56
2824.25
2823.01
2821.85
2820.66
2819.75
2818.61
2818.09
2815.84
1547.35
2473.99
2586.63
2584.96
2591.53
2600.08
2607.48
2614.48
2621.91
2629.73
2637.93
2646.48
2655.2
2663.73
2671.68
2678.83
2685.2
2690.92
2696.07
2700.77
2705.27
2709.89
2714.77
2719.78
2724.8
2729.99
2735.61
2741.91
2749
2756.85
2765.34
2774.27
2783.41
2792.57
2801.59
2810.36
2818.8
2826.9
2834.65
2842.07
2849.19
2856.01
2862.55
2868.78
2874.68
2880.26
2885.54
2890.54
2895.27
2899.72
2903.87
2907.73
2911.29
2914.57
2917.56
2920.21
2922.52
2924.47
2926.09
2927.41
2928.43
2929.16
2929.62
2929.75
2929.6
2929.19
2928.51
2927.58
2926.42
2925.03
2923.45
2921.68
2919.75
2917.67
2915.46
2913.14
2910.71
2908.2
2905.62
2902.99
2900.31
2897.6
2894.87
2892.13
2889.39
2886.66
2883.94
2881.26
2878.6
2875.98
2873.4
2870.86
2868.38
2865.95
2863.58
2861.26
2859
2856.81
2854.68
2852.61
2850.6
2848.66
2846.78
2844.96
2843.2
2841.51
2839.88
2838.3
2836.79
2835.33
2833.92
2832.58
2831.28
2830.04
2828.85
2827.77
2826.63
2825.75
2824.66
2824.21
2822.01
1544.33
2472.42
2585.44
2584.1
2590.97
2599.65
2607.09
2614.11
2621.55
2629.38
2637.59
2646.15
2654.88
2663.42
2671.39
2678.55
2684.93
2690.66
2695.83
2700.54
2705.05
2709.69
2714.58
2719.6
2724.64
2729.84
2735.5
2741.86
2749.02
2756.95
2765.51
2774.5
2783.68
2792.86
2801.88
2810.65
2819.09
2827.17
2834.91
2842.33
2849.43
2856.25
2862.78
2868.99
2874.88
2880.45
2885.72
2890.72
2895.45
2899.91
2904.06
2907.93
2911.51
2914.81
2917.81
2920.47
2922.79
2924.76
2926.42
2927.79
2928.86
2929.65
2930.17
2930.37
2930.28
2929.94
2929.33
2928.49
2927.41
2926.12
2924.64
2922.99
2921.17
2919.21
2917.13
2914.93
2912.64
2910.27
2907.82
2905.32
2902.78
2900.21
2897.62
2895.02
2892.41
2889.82
2887.24
2884.69
2882.16
2879.67
2877.22
2874.81
2872.45
2870.14
2867.88
2865.68
2863.54
2861.45
2859.42
2857.45
2855.55
2853.7
2851.91
2850.18
2848.51
2846.9
2845.34
2843.85
2842.4
2841.02
2839.68
2838.4
2837.16
2835.98
2834.85
2833.84
2832.74
2831.9
2830.88
2830.48
2828.34
1540.92
2470.84
2584.24
2583.27
2590.44
2599.23
2606.71
2613.76
2621.21
2629.05
2637.26
2645.83
2654.57
2663.12
2671.1
2678.27
2684.67
2690.41
2695.59
2700.31
2704.83
2709.49
2714.39
2719.42
2724.47
2729.7
2735.41
2741.82
2749.05
2757.06
2765.68
2774.72
2783.94
2793.14
2802.18
2810.94
2819.37
2827.45
2835.18
2842.58
2849.68
2856.49
2863
2869.2
2875.08
2880.64
2885.91
2890.91
2895.65
2900.1
2904.26
2908.14
2911.74
2915.06
2918.06
2920.74
2923.07
2925.07
2926.78
2928.2
2929.33
2930.18
2930.76
2931.04
2931.03
2930.74
2930.21
2929.46
2928.48
2927.3
2925.93
2924.39
2922.7
2920.87
2918.91
2916.85
2914.69
2912.46
2910.15
2907.8
2905.39
2902.97
2900.51
2898.05
2895.59
2893.14
2890.69
2888.27
2885.88
2883.52
2881.19
2878.91
2876.67
2874.48
2872.34
2870.26
2868.22
2866.24
2864.32
2862.45
2860.64
2858.89
2857.19
2855.55
2853.96
2852.43
2850.96
2849.54
2848.17
2846.85
2845.58
2844.36
2843.19
2842.07
2840.99
2840.04
2838.99
2838.18
2837.22
2836.88
2834.79
1538.11
2469.28
2583.04
2582.45
2589.93
2598.83
2606.35
2613.42
2620.88
2628.72
2636.94
2645.51
2654.27
2662.83
2670.81
2677.99
2684.4
2690.16
2695.35
2700.08
2704.62
2709.29
2714.2
2719.24
2724.31
2729.56
2735.31
2741.79
2749.09
2757.17
2765.86
2774.95
2784.21
2793.43
2802.47
2811.23
2819.65
2827.72
2835.44
2842.83
2849.92
2856.72
2863.23
2869.41
2875.27
2880.82
2886.09
2891.1
2895.84
2900.3
2904.47
2908.36
2911.98
2915.31
2918.33
2921.02
2923.37
2925.41
2927.16
2928.64
2929.84
2930.75
2931.38
2931.73
2931.8
2931.58
2931.14
2930.48
2929.6
2928.53
2927.28
2925.87
2924.3
2922.6
2920.78
2918.86
2916.84
2914.75
2912.58
2910.37
2908.11
2905.82
2903.51
2901.2
2898.88
2896.56
2894.26
2891.98
2889.72
2887.49
2885.3
2883.15
2881.03
2878.96
2876.94
2874.97
2873.05
2871.18
2869.36
2867.6
2865.88
2864.23
2862.62
2861.07
2859.57
2858.12
2856.72
2855.38
2854.08
2852.83
2851.63
2850.47
2849.37
2848.3
2847.27
2846.39
2845.39
2844.62
2843.72
2843.44
2841.4
1534.93
2467.7
2581.82
2581.66
2589.45
2598.44
2605.99
2613.09
2620.56
2628.4
2636.62
2645.2
2653.97
2662.54
2670.53
2677.72
2684.14
2689.91
2695.12
2699.86
2704.4
2709.09
2714.02
2719.06
2724.15
2729.43
2735.22
2741.76
2749.13
2757.28
2766.04
2775.19
2784.47
2793.71
2802.76
2811.52
2819.93
2827.99
2835.7
2843.08
2850.17
2856.96
2863.45
2869.62
2875.47
2881.01
2886.28
2891.29
2896.03
2900.5
2904.68
2908.58
2912.22
2915.57
2918.6
2921.31
2923.69
2925.77
2927.58
2929.12
2930.37
2931.34
2932.04
2932.47
2932.61
2932.47
2932.13
2931.57
2930.81
2929.85
2928.73
2927.44
2926.01
2924.45
2922.76
2920.98
2919.1
2917.15
2915.13
2913.06
2910.95
2908.81
2906.65
2904.48
2902.3
2900.13
2897.97
2895.83
2893.71
2891.61
2889.55
2887.53
2885.54
2883.59
2881.69
2879.83
2878.02
2876.26
2874.55
2872.89
2871.27
2869.71
2868.2
2866.74
2865.32
2863.95
2862.64
2861.37
2860.14
2858.96
2857.83
2856.74
2855.69
2854.68
2853.71
2852.89
2851.94
2851.21
2850.38
2850.15
2848.16
1532.32
2466.14
2580.6
2580.89
2588.98
2598.07
2605.65
2612.76
2620.25
2628.09
2636.32
2644.9
2653.67
2662.25
2670.26
2677.45
2683.89
2689.67
2694.88
2699.63
2704.19
2708.89
2713.83
2718.89
2723.99
2729.3
2735.13
2741.73
2749.18
2757.4
2766.23
2775.42
2784.74
2794
2803.05
2811.8
2820.21
2828.26
2835.95
2843.33
2850.41
2857.19
2863.67
2869.82
2875.66
2881.2
2886.47
2891.48
2896.23
2900.7
2904.89
2908.82
2912.47
2915.84
2918.89
2921.61
2924.02
2926.16
2928.02
2929.62
2930.93
2931.96
2932.72
2933.22
2933.45
2933.41
2933.16
2932.71
2932.07
2931.24
2930.24
2929.08
2927.78
2926.36
2924.82
2923.17
2921.44
2919.64
2917.77
2915.85
2913.88
2911.89
2909.88
2907.86
2905.83
2903.81
2901.79
2899.79
2897.81
2895.86
2893.93
2892.04
2890.18
2888.36
2886.58
2884.84
2883.15
2881.5
2879.89
2878.33
2876.82
2875.36
2873.94
2872.56
2871.23
2869.95
2868.71
2867.52
2866.37
2865.26
2864.19
2863.16
2862.18
2861.23
2860.31
2859.55
2858.65
2857.97
2857.18
2857.01
2855.06
1529.38
2464.55
2579.37
2580.14
2588.54
2597.7
2605.32
2612.45
2619.94
2627.78
2636.01
2644.6
2653.38
2661.97
2669.98
2677.19
2683.64
2689.43
2694.65
2699.41
2703.99
2708.7
2713.65
2718.72
2723.83
2729.17
2735.05
2741.71
2749.23
2757.53
2766.42
2775.66
2785.01
2794.28
2803.34
2812.09
2820.49
2828.52
2836.21
2843.58
2850.65
2857.42
2863.88
2870.02
2875.85
2881.39
2886.66
2891.68
2896.43
2900.9
2905.11
2909.05
2912.73
2916.11
2919.18
2921.92
2924.38
2926.56
2928.49
2930.15
2931.52
2932.61
2933.44
2934.02
2934.35
2934.41
2934.26
2933.93
2933.4
2932.7
2931.83
2930.81
2929.65
2928.36
2926.96
2925.47
2923.88
2922.23
2920.51
2918.75
2916.94
2915.1
2913.24
2911.37
2909.5
2907.62
2905.75
2903.9
2902.06
2900.25
2898.46
2896.7
2894.97
2893.28
2891.62
2890
2888.42
2886.88
2885.39
2883.93
2882.52
2881.15
2879.83
2878.54
2877.3
2876.1
2874.95
2873.83
2872.75
2871.71
2870.72
2869.75
2868.83
2867.94
2867.08
2866.38
2865.53
2864.9
2864.16
2864.01
2862.16
1526.96
2462.99
2578.13
2579.41
2588.12
2597.35
2605
2612.15
2619.65
2627.49
2635.72
2644.31
2653.09
2661.69
2669.71
2676.93
2683.38
2689.19
2694.42
2699.2
2703.78
2708.51
2713.47
2718.55
2723.68
2729.05
2734.98
2741.7
2749.29
2757.66
2766.62
2775.91
2785.29
2794.57
2803.63
2812.37
2820.76
2828.79
2836.47
2843.83
2850.89
2857.65
2864.1
2870.22
2876.04
2881.57
2886.85
2891.87
2896.63
2901.11
2905.33
2909.3
2912.99
2916.39
2919.47
2922.25
2924.75
2926.99
2928.98
2930.7
2932.13
2933.29
2934.19
2934.84
2935.27
2935.45
2935.41
2935.19
2934.79
2934.21
2933.48
2932.59
2931.57
2930.42
2929.17
2927.82
2926.39
2924.89
2923.33
2921.73
2920.08
2918.4
2916.7
2914.99
2913.27
2911.55
2909.83
2908.13
2906.44
2904.77
2903.12
2901.5
2899.9
2898.34
2896.81
2895.31
2893.85
2892.43
2891.04
2889.69
2888.39
2887.12
2885.89
2884.69
2883.54
2882.43
2881.35
2880.31
2879.31
2878.34
2877.41
2876.51
2875.66
2874.82
2874.02
2873.37
2872.57
2871.99
2871.29
2871.16
2869.41
1524.27
2461.41
2576.88
2578.71
2587.72
2597.01
2604.69
2611.86
2619.36
2627.2
2635.43
2644.02
2652.81
2661.42
2669.44
2676.67
2683.14
2688.95
2694.2
2698.98
2703.58
2708.32
2713.29
2718.38
2723.53
2728.93
2734.9
2741.69
2749.36
2757.8
2766.82
2776.15
2785.56
2794.86
2803.92
2812.66
2821.03
2829.05
2836.72
2844.07
2851.12
2857.87
2864.31
2870.42
2876.23
2881.76
2887.04
2892.07
2896.83
2901.32
2905.56
2909.54
2913.26
2916.67
2919.78
2922.59
2925.14
2927.44
2929.49
2931.26
2932.76
2933.99
2934.97
2935.72
2936.24
2936.55
2936.63
2936.52
2936.25
2935.8
2935.2
2934.45
2933.57
2932.57
2931.47
2930.28
2929.01
2927.67
2926.28
2924.83
2923.35
2921.84
2920.3
2918.75
2917.19
2915.63
2914.06
2912.51
2910.97
2909.44
2907.94
2906.45
2904.99
2903.56
2902.15
2900.78
2899.44
2898.13
2896.85
2895.61
2894.4
2893.23
2892.1
2891
2889.93
2888.9
2887.9
2886.94
2886.01
2885.12
2884.26
2883.43
2882.64
2881.86
2881.11
2880.54
2879.78
2879.25
2878.6
2878.49
2876.84
1522.02
2459.88
2575.63
2578.03
2587.33
2596.68
2604.39
2611.58
2619.08
2626.92
2635.15
2643.74
2652.54
2661.15
2669.18
2676.42
2682.89
2688.72
2693.97
2698.77
2703.38
2708.13
2713.12
2718.22
2723.38
2728.81
2734.84
2741.69
2749.43
2757.95
2767.02
2776.4
2785.83
2795.14
2804.2
2812.94
2821.31
2829.31
2836.97
2844.32
2851.36
2858.09
2864.51
2870.61
2876.42
2881.95
2887.23
2892.26
2897.03
2901.54
2905.79
2909.8
2913.53
2916.96
2920.1
2922.95
2925.55
2927.91
2930.01
2931.85
2933.41
2934.71
2935.78
2936.63
2937.25
2937.67
2937.88
2937.89
2937.73
2937.42
2936.95
2936.35
2935.62
2934.77
2933.83
2932.8
2931.7
2930.53
2929.3
2928.02
2926.71
2925.37
2924
2922.61
2921.22
2919.81
2918.41
2917.01
2915.62
2914.25
2912.88
2911.54
2910.22
2908.92
2907.64
2906.39
2905.17
2903.98
2902.81
2901.68
2900.58
2899.51
2898.47
2897.46
2896.48
2895.54
2894.62
2893.74
2892.89
2892.06
2891.27
2890.5
2889.77
2889.06
2888.37
2887.86
2887.14
2886.67
2886.05
2885.97
2884.42
1519.73
2458.34
2574.39
2577.35
2586.95
2596.36
2604.1
2611.31
2618.81
2626.65
2634.87
2643.47
2652.27
2660.88
2668.92
2676.16
2682.65
2688.49
2693.75
2698.55
2703.18
2707.94
2712.94
2718.05
2723.23
2728.7
2734.77
2741.69
2749.5
2758.09
2767.23
2776.65
2786.11
2795.43
2804.49
2813.22
2821.58
2829.57
2837.22
2844.56
2851.59
2858.31
2864.72
2870.81
2876.6
2882.14
2887.42
2892.46
2897.23
2901.75
2906.03
2910.05
2913.8
2917.26
2920.42
2923.32
2925.98
2928.4
2930.56
2932.45
2934.08
2935.47
2936.63
2937.58
2938.31
2938.84
2939.18
2939.33
2939.29
2939.11
2938.78
2938.33
2937.75
2937.07
2936.3
2935.44
2934.5
2933.5
2932.45
2931.35
2930.21
2929.04
2927.84
2926.62
2925.39
2924.15
2922.91
2921.67
2920.43
2919.2
2917.98
2916.78
2915.59
2914.42
2913.27
2912.14
2911.04
2909.96
2908.91
2907.88
2906.88
2905.91
2904.97
2904.05
2903.16
2902.3
2901.47
2900.66
2899.88
2899.13
2898.41
2897.71
2897.04
2896.41
2895.77
2895.32
2894.65
2894.22
2893.66
2893.59
2892.16
1517.42
2456.84
2573.15
2576.68
2586.58
2596.05
2603.82
2611.04
2618.55
2626.38
2634.6
2643.2
2652
2660.62
2668.66
2675.91
2682.41
2688.26
2693.53
2698.34
2702.98
2707.76
2712.77
2717.89
2723.09
2728.59
2734.71
2741.7
2749.59
2758.25
2767.44
2776.9
2786.39
2795.72
2804.78
2813.5
2821.84
2829.83
2837.47
2844.8
2851.82
2858.53
2864.92
2871
2876.79
2882.32
2887.61
2892.65
2897.44
2901.97
2906.27
2910.31
2914.08
2917.56
2920.75
2923.7
2926.41
2928.89
2931.11
2933.07
2934.78
2936.25
2937.51
2938.56
2939.4
2940.04
2940.5
2940.77
2940.88
2940.83
2940.65
2940.35
2939.94
2939.42
2938.82
2938.13
2937.38
2936.56
2935.68
2934.76
2933.79
2932.8
2931.77
2930.73
2929.66
2928.59
2927.51
2926.42
2925.34
2924.26
2923.19
2922.12
2921.07
2920.04
2919.02
2918.02
2917.03
2916.07
2915.13
2914.21
2913.32
2912.45
2911.6
2910.77
2909.97
2909.2
2908.45
2907.72
2907.02
2906.34
2905.68
2905.05
2904.45
2903.88
2903.3
2902.89
2902.26
2901.89
2901.36
2901.32
2899.97
1515.58
2455.34
2571.92
2576.02
2586.21
2595.75
2603.55
2610.79
2618.3
2626.12
2634.34
2642.93
2651.74
2660.36
2668.41
2675.67
2682.17
2688.03
2693.31
2698.14
2702.78
2707.57
2712.6
2717.73
2722.95
2728.48
2734.66
2741.71
2749.67
2758.41
2767.66
2777.16
2786.67
2796.01
2805.06
2813.77
2822.11
2830.08
2837.72
2845.03
2852.04
2858.74
2865.11
2871.18
2876.97
2882.51
2887.8
2892.84
2897.64
2902.2
2906.51
2910.58
2914.36
2917.86
2921.1
2924.09
2926.87
2929.41
2931.69
2933.71
2935.5
2937.06
2938.42
2939.58
2940.53
2941.28
2941.87
2942.27
2942.53
2942.63
2942.6
2942.46
2942.22
2941.88
2941.45
2940.95
2940.37
2939.73
2939.04
2938.3
2937.51
2936.69
2935.84
2934.97
2934.07
2933.16
2932.24
2931.31
2930.38
2929.45
2928.52
2927.59
2926.68
2925.77
2924.88
2924
2923.14
2922.29
2921.46
2920.65
2919.85
2919.08
2918.33
2917.59
2916.88
2916.19
2915.52
2914.87
2914.24
2913.63
2913.04
2912.48
2911.94
2911.46
2910.92
2910.55
2909.99
2909.66
2909.18
2909.15
2907.92
1513.52
2453.87
2570.69
2575.38
2585.85
2595.46
2603.28
2610.54
2618.05
2625.87
2634.08
2642.67
2651.48
2660.1
2668.16
2675.42
2681.94
2687.81
2693.1
2697.93
2702.59
2707.39
2712.42
2717.57
2722.81
2728.38
2734.61
2741.73
2749.76
2758.57
2767.88
2777.42
2786.95
2796.29
2805.35
2814.05
2822.38
2830.34
2837.96
2845.27
2852.27
2858.95
2865.31
2871.37
2877.15
2882.69
2887.99
2893.04
2897.85
2902.42
2906.76
2910.84
2914.64
2918.17
2921.45
2924.5
2927.33
2929.93
2932.27
2934.37
2936.24
2937.89
2939.35
2940.62
2941.68
2942.55
2943.26
2943.8
2944.19
2944.46
2944.6
2944.63
2944.55
2944.39
2944.15
2943.83
2943.43
2942.98
2942.46
2941.9
2941.29
2940.65
2939.97
2939.27
2938.54
2937.79
2937.03
2936.26
2935.48
2934.7
2933.92
2933.14
2932.36
2931.59
2930.83
2930.08
2929.33
2928.6
2927.89
2927.18
2926.5
2925.83
2925.17
2924.53
2923.91
2923.31
2922.72
2922.15
2921.6
2921.06
2920.54
2920.05
2919.57
2919.17
2918.68
2918.34
2917.85
2917.58
2917.13
2917.12
2916
1511.54
2452.4
2569.47
2574.74
2585.51
2595.17
2603.03
2610.3
2617.81
2625.63
2633.83
2642.42
2651.23
2659.85
2667.91
2675.18
2681.7
2687.58
2692.88
2697.73
2702.4
2707.21
2712.26
2717.41
2722.67
2728.28
2734.56
2741.75
2749.86
2758.74
2768.1
2777.68
2787.23
2796.58
2805.63
2814.32
2822.64
2830.59
2838.2
2845.5
2852.48
2859.15
2865.5
2871.55
2877.33
2882.87
2888.17
2893.23
2898.06
2902.65
2907
2911.1
2914.93
2918.49
2921.81
2924.92
2927.81
2930.46
2932.87
2935.04
2937
2938.75
2940.32
2941.69
2942.86
2943.86
2944.7
2945.38
2945.94
2946.36
2946.68
2946.88
2946.99
2947.01
2946.95
2946.81
2946.6
2946.33
2946
2945.62
2945.19
2944.72
2944.21
2943.68
2943.12
2942.53
2941.93
2941.32
2940.7
2940.06
2939.43
2938.79
2938.15
2937.51
2936.88
2936.25
2935.62
2935.01
2934.4
2933.81
2933.23
2932.65
2932.09
2931.55
2931.01
2930.49
2929.99
2929.5
2929.02
2928.56
2928.11
2927.68
2927.26
2926.95
2926.5
2926.2
2925.78
2925.56
2925.16
2925.17
2924.16
1509.98
2450.94
2568.26
2574.12
2585.17
2594.9
2602.78
2610.07
2617.58
2625.39
2633.59
2642.17
2650.97
2659.6
2667.66
2674.94
2681.47
2687.36
2692.67
2697.52
2702.2
2707.03
2712.09
2717.26
2722.54
2728.18
2734.52
2741.78
2749.97
2758.91
2768.33
2777.94
2787.51
2796.87
2805.92
2814.6
2822.9
2830.84
2838.44
2845.73
2852.7
2859.35
2865.69
2871.73
2877.51
2883.05
2888.36
2893.43
2898.26
2902.87
2907.25
2911.37
2915.22
2918.81
2922.18
2925.35
2928.29
2931
2933.48
2935.73
2937.78
2939.63
2941.29
2942.77
2944.06
2945.18
2946.16
2947
2947.71
2948.3
2948.79
2949.18
2949.47
2949.67
2949.79
2949.83
2949.81
2949.71
2949.56
2949.36
2949.11
2948.82
2948.48
2948.12
2947.73
2947.31
2946.88
2946.42
2945.95
2945.47
2944.99
2944.49
2943.99
2943.49
2942.99
2942.49
2942
2941.5
2941.02
2940.53
2940.06
2939.59
2939.13
2938.69
2938.25
2937.82
2937.4
2936.99
2936.59
2936.21
2935.83
2935.47
2935.12
2934.88
2934.49
2934.23
2933.88
2933.71
2933.35
2933.37
2932.48
1508.18
2449.5
2567.05
2573.5
2584.83
2594.63
2602.54
2609.84
2617.36
2625.15
2633.34
2641.92
2650.73
2659.36
2667.42
2674.7
2681.24
2687.14
2692.46
2697.32
2702.01
2706.85
2711.92
2717.11
2722.41
2728.08
2734.48
2741.81
2750.07
2759.08
2768.56
2778.21
2787.79
2797.16
2806.2
2814.87
2823.16
2831.09
2838.68
2845.95
2852.91
2859.55
2865.87
2871.9
2877.69
2883.23
2888.54
2893.62
2898.47
2903.1
2907.49
2911.63
2915.51
2919.14
2922.56
2925.78
2928.79
2931.56
2934.1
2936.44
2938.57
2940.52
2942.29
2943.89
2945.3
2946.56
2947.68
2948.68
2949.56
2950.33
2951
2951.56
2952.04
2952.42
2952.72
2952.95
2953.1
2953.19
2953.22
2953.19
2953.12
2953
2952.85
2952.66
2952.44
2952.19
2951.92
2951.62
2951.31
2950.99
2950.65
2950.3
2949.95
2949.58
2949.21
2948.84
2948.47
2948.1
2947.72
2947.35
2946.99
2946.62
2946.26
2945.91
2945.56
2945.22
2944.88
2944.55
2944.23
2943.92
2943.62
2943.32
2943.04
2942.86
2942.53
2942.32
2942.03
2941.91
2941.6
2941.64
2940.86
1506.77
2448.06
2565.85
2572.9
2584.51
2594.37
2602.31
2609.62
2617.13
2624.92
2633.11
2641.68
2650.49
2659.12
2667.18
2674.47
2681.02
2686.92
2692.25
2697.12
2701.82
2706.68
2711.76
2716.95
2722.28
2727.99
2734.45
2741.85
2750.19
2759.27
2768.79
2778.47
2788.08
2797.45
2806.48
2815.14
2823.42
2831.33
2838.91
2846.17
2853.12
2859.74
2866.05
2872.08
2877.86
2883.41
2888.73
2893.82
2898.68
2903.33
2907.74
2911.89
2915.8
2919.47
2922.95
2926.22
2929.28
2932.12
2934.74
2937.15
2939.38
2941.43
2943.31
2945.01
2946.55
2947.95
2949.23
2950.39
2951.44
2952.38
2953.23
2953.97
2954.62
2955.18
2955.66
2956.07
2956.4
2956.67
2956.88
2957.03
2957.14
2957.2
2957.23
2957.21
2957.17
2957.09
2956.99
2956.86
2956.71
2956.55
2956.37
2956.17
2955.96
2955.74
2955.52
2955.28
2955.04
2954.79
2954.54
2954.29
2954.03
2953.78
2953.53
2953.27
2953.02
2952.78
2952.53
2952.29
2952.05
2951.82
2951.59
2951.37
2951.15
2951.04
2950.77
2950.62
2950.38
2950.3
2950.05
2950.13
2949.45
1505.18
2446.63
2564.65
2572.31
2584.2
2594.12
2602.09
2609.41
2616.92
2624.7
2632.88
2641.44
2650.25
2658.88
2666.94
2674.23
2680.79
2686.71
2692.04
2696.92
2701.64
2706.5
2711.59
2716.8
2722.15
2727.91
2734.42
2741.89
2750.3
2759.45
2769.03
2778.74
2788.37
2797.74
2806.77
2815.41
2823.68
2831.58
2839.15
2846.39
2853.32
2859.93
2866.22
2872.25
2878.03
2883.58
2888.91
2894.01
2898.89
2903.56
2907.98
2912.16
2916.09
2919.82
2923.34
2926.67
2929.79
2932.69
2935.38
2937.89
2940.21
2942.36
2944.34
2946.17
2947.85
2949.4
2950.84
2952.17
2953.39
2954.51
2955.53
2956.45
2957.27
2958.01
2958.67
2959.25
2959.77
2960.22
2960.61
2960.96
2961.25
2961.49
2961.7
2961.87
2962
2962.1
2962.17
2962.22
2962.24
2962.23
2962.21
2962.17
2962.11
2962.03
2961.94
2961.84
2961.73
2961.61
2961.47
2961.34
2961.2
2961.05
2960.9
2960.74
2960.58
2960.43
2960.27
2960.11
2959.95
2959.79
2959.64
2959.48
2959.33
2959.28
2959.06
2958.98
2958.78
2958.73
2958.56
2958.66
2958.08
1503.91
2445.21
2563.45
2571.72
2583.9
2593.87
2601.87
2609.2
2616.71
2624.48
2632.65
2641.21
2650.01
2658.64
2666.71
2674
2680.57
2686.49
2691.84
2696.72
2701.45
2706.33
2711.43
2716.66
2722.03
2727.82
2734.39
2741.94
2750.43
2759.64
2769.27
2779.02
2788.65
2798.03
2807.05
2815.69
2823.93
2831.82
2839.38
2846.61
2853.52
2860.11
2866.4
2872.42
2878.2
2883.75
2889.09
2894.2
2899.1
2903.78
2908.23
2912.42
2916.39
2920.16
2923.74
2927.12
2930.3
2933.26
2936.03
2938.62
2941.04
2943.29
2945.39
2947.35
2949.16
2950.87
2952.47
2953.96
2955.35
2956.64
2957.83
2958.92
2959.92
2960.83
2961.67
2962.43
2963.13
2963.77
2964.35
2964.88
2965.36
2965.8
2966.19
2966.55
2966.87
2967.15
2967.4
2967.62
2967.81
2967.97
2968.11
2968.23
2968.32
2968.4
2968.45
2968.49
2968.52
2968.53
2968.52
2968.51
2968.48
2968.45
2968.41
2968.36
2968.3
2968.24
2968.18
2968.11
2968.03
2967.96
2967.88
2967.81
2967.73
2967.75
2967.6
2967.58
2967.43
2967.41
2967.33
2967.46
2967
1502.52
2443.78
2562.26
2571.16
2583.6
2593.64
2601.66
2609
2616.51
2624.27
2632.43
2640.98
2649.78
2658.41
2666.48
2673.78
2680.35
2686.28
2691.63
2696.53
2701.26
2706.15
2711.27
2716.51
2721.9
2727.74
2734.37
2741.99
2750.55
2759.84
2769.52
2779.29
2788.95
2798.32
2807.33
2815.96
2824.19
2832.06
2839.6
2846.82
2853.71
2860.29
2866.56
2872.58
2878.36
2883.92
2889.27
2894.39
2899.31
2904.01
2908.47
2912.69
2916.69
2920.51
2924.14
2927.58
2930.81
2933.84
2936.69
2939.38
2941.89
2944.25
2946.47
2948.56
2950.52
2952.39
2954.15
2955.81
2957.37
2958.82
2960.17
2961.43
2962.61
2963.7
2964.72
2965.67
2966.56
2967.39
2968.17
2968.9
2969.58
2970.21
2970.8
2971.35
2971.85
2972.32
2972.76
2973.15
2973.52
2973.85
2974.16
2974.43
2974.68
2974.9
2975.1
2975.28
2975.44
2975.58
2975.7
2975.8
2975.89
2975.96
2976.03
2976.08
2976.12
2976.15
2976.17
2976.18
2976.19
2976.19
2976.19
2976.19
2976.17
2976.24
2976.15
2976.18
2976.09
2976.1
2976.09
2976.24
2975.89
1501.4
2442.35
2561.07
2570.6
2583.32
2593.41
2601.45
2608.8
2616.31
2624.06
2632.21
2640.75
2649.55
2658.18
2666.25
2673.55
2680.13
2686.07
2691.43
2696.33
2701.08
2705.98
2711.11
2716.36
2721.78
2727.66
2734.35
2742.04
2750.69
2760.04
2769.76
2779.57
2789.24
2798.61
2807.62
2816.23
2824.44
2832.3
2839.83
2847.03
2853.9
2860.46
2866.73
2872.74
2878.53
2884.09
2889.44
2894.58
2899.52
2904.23
2908.7
2912.95
2917
2920.86
2924.55
2928.04
2931.33
2934.43
2937.36
2940.13
2942.74
2945.21
2947.56
2949.78
2951.9
2953.92
2955.84
2957.66
2959.37
2960.99
2962.5
2963.93
2965.28
2966.55
2967.76
2968.9
2969.99
2971.02
2972
2972.93
2973.81
2974.64
2975.43
2976.17
2976.88
2977.53
2978.15
2978.73
2979.28
2979.78
2980.25
2980.69
2981.1
2981.48
2981.83
2982.15
2982.44
2982.71
2982.96
2983.19
2983.4
2983.59
2983.76
2983.92
2984.06
2984.19
2984.31
2984.42
2984.51
2984.6
2984.67
2984.77
2984.82
2984.96
2984.93
2985.02
2984.99
2985.04
2985.1
2985.27
2985.07
1500.3
2440.92
2559.89
2570.06
2583.04
2593.18
2601.25
2608.61
2616.11
2623.85
2631.99
2640.53
2649.32
2657.95
2666.02
2673.32
2679.91
2685.86
2691.22
2696.13
2700.9
2705.81
2710.95
2716.22
2721.67
2727.59
2734.34
2742.11
2750.82
2760.24
2770.02
2779.86
2789.53
2798.91
2807.9
2816.49
2824.7
2832.54
2840.05
2847.23
2854.09
2860.63
2866.89
2872.9
2878.68
2884.26
2889.62
2894.77
2899.72
2904.44
2908.94
2913.22
2917.31
2921.22
2924.95
2928.49
2931.85
2935.02
2938.04
2940.9
2943.61
2946.2
2948.68
2951.05
2953.32
2955.49
2957.57
2959.54
2961.41
2963.18
2964.86
2966.47
2968
2969.46
2970.86
2972.21
2973.5
2974.74
2975.93
2977.07
2978.16
2979.2
2980.19
2981.13
2982.03
2982.88
2983.68
2984.45
2985.16
2985.84
2986.48
2987.08
2987.64
2988.17
2988.66
2989.13
2989.56
2989.96
2990.33
2990.68
2991
2991.3
2991.58
2991.84
2992.08
2992.3
2992.5
2992.69
2992.87
2993.03
2993.18
2993.35
2993.47
2993.65
2993.69
2993.83
2993.85
2993.94
2994.05
2994.22
2994.14
1499.25
2439.49
2558.71
2569.52
2582.77
2592.97
2601.06
2608.43
2615.92
2623.65
2631.78
2640.31
2649.1
2657.72
2665.79
2673.1
2679.69
2685.65
2691.02
2695.94
2700.71
2705.64
2710.79
2716.07
2721.55
2727.51
2734.33