/*--------------------------------*- C++ -*----------------------------------*\
| =========                 |                                                 |
| \\      /  F ield         | OpenFOAM: The Open Source CFD Toolbox           |
|  \\    /   O peration     | Version:  2412                                  |
|   \\  /    A nd           | Website:  www.openfoam.com                      |
|    \\/     M anipulation  |                                                 |
\*---------------------------------------------------------------------------*/
FoamFile
{
    version     2.0;
    format      ascii;
    arch        "LSB;label=32;scalar=64";
    class       volVectorField;
    location    "0.004";
    object      U;
}
// * * * * * * * * * * * * * * * * * * * * * * * * * * * * * * * * * * * * * //

dimensions      [0 1 -1 0 0 0 0];

internalField   nonuniform List<vector> 
9922
(
(208.723 0.218106 0)
(209.422 0.0608976 0)
(209.914 0.00644427 0)
(209.998 9.02366e-05 0)
(210 -1.00871e-06 0)
(210 -5.93735e-08 0)
(210 1.07803e-10 0)
(210 8.80899e-12 0)
(210 -1.60116e-12 0)
(210 -9.96092e-13 0)
(210 -9.37094e-13 0)
(210 3.48567e-13 0)
(210 2.28136e-14 0)
(210 -2.87795e-13 0)
(210 2.55258e-13 0)
(210 -2.72587e-13 0)
(210 -4.50624e-13 0)
(210 -1.07311e-12 0)
(210 -1.52415e-12 0)
(210 -9.19704e-15 0)
(210 1.12479e-12 0)
(210 1.00899e-12 0)
(210 2.18895e-12 0)
(210 8.2212e-13 0)
(210 1.15798e-12 0)
(210 9.59754e-13 0)
(210 -8.68023e-13 0)
(210 -1.39297e-12 0)
(210 -1.15409e-12 0)
(210 -2.32926e-13 0)
(210 1.64726e-12 0)
(210 1.04197e-12 0)
(210 -8.88416e-13 0)
(210 -1.44576e-12 0)
(210 6.57966e-11 0)
(210 1.54818e-08 0)
(210 3.11809e-06 0)
(210 0.000442691 0)
(209.994 0.0256775 0)
(209.917 0.397647 0)
(209.708 1.81828 0)
(209.615 3.55412 0)
(209.917 4.3531 0)
(210.395 4.45312 0)
(211.286 3.0725 0)
(212.435 0.752613 0)
(213.635 -1.14099 0)
(214.866 -2.56198 0)
(216.118 -3.7539 0)
(217.404 -4.85051 0)
(218.692 -5.89326 0)
(220.008 -6.87812 0)
(221.321 -7.82046 0)
(222.664 -8.71552 0)
(223.996 -9.58554 0)
(225.35 -10.4187 0)
(226.681 -11.2378 0)
(228.028 -12.0225 0)
(229.347 -12.7961 0)
(230.674 -13.54 0)
(231.966 -14.2777 0)
(233.259 -14.984 0)
(234.518 -15.6777 0)
(235.765 -16.3508 0)
(236.967 -17.0312 0)
(238.147 -17.699 0)
(239.296 -18.3453 0)
(240.432 -18.9479 0)
(241.537 -19.5242 0)
(242.614 -20.0844 0)
(243.635 -20.6563 0)
(244.608 -21.232 0)
(245.534 -21.7923 0)
(246.452 -22.3091 0)
(247.351 -22.7963 0)
(248.227 -23.2721 0)
(249.056 -23.7554 0)
(249.845 -24.2347 0)
(250.594 -24.7 0)
(251.316 -25.1409 0)
(252.009 -25.5589 0)
(252.678 -25.9548 0)
(253.319 -26.334 0)
(253.938 -26.6975 0)
(254.533 -27.0481 0)
(255.105 -27.3875 0)
(255.651 -27.717 0)
(256.176 -28.0348 0)
(256.675 -28.3414 0)
(257.155 -28.6346 0)
(257.612 -28.9164 0)
(258.05 -29.185 0)
(258.463 -29.4448 0)
(258.861 -29.693 0)
(259.232 -29.9353 0)
(259.593 -30.1672 0)
(259.924 -30.3955 0)
(260.256 -30.612 0)
(260.556 -30.8258 0)
(260.864 -31.0257 0)
(261.138 -31.2217 0)
(261.422 -31.4009 0)
(261.667 -31.5762 0)
(261.924 -31.7347 0)
(262.148 -31.8908 0)
(262.384 -32.034 0)
(262.604 -32.1729 0)
(262.803 -32.3041 0)
(262.984 -32.4327 0)
(263.089 -32.5469 0)
(263.259 -32.6697 0)
(263.357 -32.7792 0)
(263.403 -32.8666 0)
(263.414 -32.9553 0)
(263.4 -33.0323 0)
(263.38 -33.1027 0)
(263.38 -33.1752 0)
(263.417 -33.2415 0)
(263.503 -33.317 0)
(263.654 -33.421 0)
(263.746 -33.3434 0)
(209.467 0.0842324 0)
(209.748 0.0292533 0)
(209.961 0.00358633 0)
(209.999 6.37361e-05 0)
(210 -4.56579e-07 0)
(210 -4.65825e-08 0)
(210 -5.36525e-10 0)
(210 3.63786e-12 0)
(210 -1.41196e-12 0)
(210 -6.67901e-13 0)
(210 -8.04528e-13 0)
(210 -1.16666e-13 0)
(210 -6.36786e-14 0)
(210 6.90577e-14 0)
(210 -6.01808e-14 0)
(210 -2.18302e-13 0)
(210 -5.33279e-13 0)
(210 -9.36096e-13 0)
(210 -1.683e-12 0)
(210 1.57864e-13 0)
(210 1.07566e-12 0)
(210 7.47008e-13 0)
(210 2.3163e-12 0)
(210 9.01797e-13 0)
(210 1.16279e-12 0)
(210 1.27949e-12 0)
(210 -5.00514e-13 0)
(210 -1.12911e-12 0)
(210 -9.58253e-13 0)
(210 -3.43845e-13 0)
(210 1.3823e-12 0)
(210 1.2762e-12 0)
(210 -5.30082e-13 0)
(210 -1.3762e-12 0)
(210 5.56541e-11 0)
(210 1.31498e-08 0)
(210 2.65244e-06 0)
(210 0.000382287 0)
(209.994 0.0230364 0)
(209.919 0.373523 0)
(209.7 1.77341 0)
(209.581 3.55097 0)
(209.86 4.39968 0)
(210.327 4.54129 0)
(211.193 3.24829 0)
(212.342 0.958898 0)
(213.538 -0.938868 0)
(214.765 -2.35686 0)
(216.011 -3.53842 0)
(217.293 -4.62255 0)
(218.576 -5.65313 0)
(219.889 -6.62576 0)
(221.198 -7.55557 0)
(222.538 -8.43752 0)
(223.866 -9.29475 0)
(225.216 -10.1151 0)
(226.543 -10.9219 0)
(227.885 -11.6939 0)
(229.201 -12.4555 0)
(230.523 -13.1881 0)
(231.812 -13.9147 0)
(233.103 -14.6101 0)
(234.361 -15.2945 0)
(235.605 -15.9606 0)
(236.805 -16.6334 0)
(237.987 -17.2909 0)
(239.138 -17.9252 0)
(240.276 -18.5157 0)
(241.379 -19.081 0)
(242.452 -19.6336 0)
(243.469 -20.2025 0)
(244.439 -20.7744 0)
(245.369 -21.3262 0)
(246.293 -21.8342 0)
(247.194 -22.3176 0)
(248.068 -22.7955 0)
(248.893 -23.2822 0)
(249.678 -23.7613 0)
(250.426 -24.2214 0)
(251.15 -24.6541 0)
(251.845 -25.0638 0)
(252.517 -25.4529 0)
(253.163 -25.8266 0)
(253.786 -26.1861 0)
(254.384 -26.5351 0)
(254.957 -26.8741 0)
(255.502 -27.2039 0)
(256.024 -27.5213 0)
(256.52 -27.8268 0)
(256.995 -28.1183 0)
(257.446 -28.3983 0)
(257.882 -28.6648 0)
(258.294 -28.9229 0)
(258.695 -29.169 0)
(259.068 -29.4097 0)
(259.435 -29.6387 0)
(259.767 -29.8647 0)
(260.101 -30.0781 0)
(260.397 -30.2898 0)
(260.702 -30.4875 0)
(260.969 -30.6823 0)
(261.248 -30.8616 0)
(261.485 -31.0375 0)
(261.735 -31.1988 0)
(261.955 -31.3569 0)
(262.186 -31.5025 0)
(262.406 -31.6418 0)
(262.608 -31.7725 0)
(262.789 -31.9003 0)
(262.894 -32.0143 0)
(263.063 -32.1358 0)
(263.161 -32.2455 0)
(263.207 -32.3319 0)
(263.218 -32.4211 0)
(263.202 -32.4969 0)
(263.18 -32.5671 0)
(263.177 -32.6388 0)
(263.213 -32.7043 0)
(263.298 -32.779 0)
(263.448 -32.8823 0)
(263.539 -32.8047 0)
(209.887 0.0179002 0)
(209.942 0.00716222 0)
(209.99 0.0010226 0)
(210 1.96488e-05 0)
(210 -1.45465e-07 0)
(210 -1.8021e-08 0)
(210 -2.826e-10 0)
(210 1.44355e-12 0)
(210 -1.45133e-12 0)
(210 -6.72506e-13 0)
(210 -1.59107e-13 0)
(210 -1.18339e-13 0)
(210 -2.93368e-13 0)
(210 -1.78558e-13 0)
(210 -1.06282e-13 0)
(210 -6.53361e-14 0)
(210 -5.40515e-13 0)
(210 -8.24958e-13 0)
(210 -1.67244e-12 0)
(210 8.34342e-14 0)
(210 1.2541e-12 0)
(210 6.97972e-13 0)
(210 1.95455e-12 0)
(210 7.261e-13 0)
(210 7.76598e-13 0)
(210 1.10532e-12 0)
(210 -2.91398e-13 0)
(210 -7.68195e-13 0)
(210 -8.29397e-13 0)
(210 -5.42137e-13 0)
(210 1.41688e-12 0)
(210 1.258e-12 0)
(210 -5.55951e-14 0)
(210 -1.36335e-12 0)
(210 4.63791e-11 0)
(210 1.11439e-08 0)
(210 2.25068e-06 0)
(210 0.00032911 0)
(209.995 0.0205988 0)
(209.922 0.349913 0)
(209.694 1.72644 0)
(209.548 3.54395 0)
(209.803 4.44483 0)
(210.259 4.62529 0)
(211.099 3.42112 0)
(212.247 1.16508 0)
(213.441 -0.737312 0)
(214.663 -2.1528 0)
(215.903 -3.32417 0)
(217.18 -4.3958 0)
(218.457 -5.41407 0)
(219.764 -6.37421 0)
(221.067 -7.29119 0)
(222.401 -8.15968 0)
(223.724 -9.00388 0)
(225.069 -9.8114 0)
(226.392 -10.6057 0)
(227.732 -11.3653 0)
(229.045 -12.1154 0)
(230.366 -12.8369 0)
(231.654 -13.5525 0)
(232.945 -14.237 0)
(234.201 -14.9122 0)
(235.443 -15.5709 0)
(236.642 -16.235 0)
(237.824 -16.8811 0)
(238.976 -17.5028 0)
(240.114 -18.0811 0)
(241.215 -18.6365 0)
(242.285 -19.1836 0)
(243.299 -19.7513 0)
(244.27 -20.3203 0)
(245.207 -20.8653 0)
(246.137 -21.3669 0)
(247.041 -21.8485 0)
(247.912 -22.3283 0)
(248.733 -22.816 0)
(249.515 -23.2911 0)
(250.264 -23.743 0)
(250.992 -24.1665 0)
(251.691 -24.5688 0)
(252.368 -24.9527 0)
(253.019 -25.3224 0)
(253.646 -25.6799 0)
(254.245 -26.0284 0)
(254.818 -26.3674 0)
(255.36 -26.6968 0)
(255.879 -27.0134 0)
(256.37 -27.3185 0)
(256.842 -27.6098 0)
(257.29 -27.8902 0)
(257.724 -28.1563 0)
(258.132 -28.4135 0)
(258.532 -28.657 0)
(258.903 -28.8947 0)
(259.27 -29.1191 0)
(259.603 -29.3416 0)
(259.94 -29.5512 0)
(260.241 -29.7601 0)
(260.548 -29.955 0)
(260.817 -30.1482 0)
(261.094 -30.3272 0)
(261.33 -30.5036 0)
(261.577 -30.6672 0)
(261.791 -30.8272 0)
(262.016 -30.9755 0)
(262.232 -31.1163 0)
(262.433 -31.2471 0)
(262.614 -31.3749 0)
(262.718 -31.4893 0)
(262.887 -31.6102 0)
(262.985 -31.7206 0)
(263.031 -31.8064 0)
(263.042 -31.8966 0)
(263.025 -31.9715 0)
(263.001 -32.0416 0)
(262.995 -32.1124 0)
(263.028 -32.177 0)
(263.112 -32.2508 0)
(263.261 -32.3533 0)
(263.351 -32.2759 0)
(209.991 0.00134194 0)
(209.995 0.000640859 0)
(209.999 0.000109356 0)
(210 2.19381e-06 0)
(210 -1.71454e-08 0)
(210 -2.59995e-09 0)
(210 -4.44388e-11 0)
(210 2.903e-13 0)
(210 -1.57304e-12 0)
(210 -1.29414e-12 0)
(210 2.73988e-13 0)
(210 1.84866e-13 0)
(210 -8.80485e-13 0)
(210 -1.97225e-13 0)
(210 3.62545e-13 0)
(210 1.81157e-13 0)
(210 -2.78601e-13 0)
(210 -7.20451e-13 0)
(210 -1.60974e-12 0)
(210 -2.18482e-13 0)
(210 1.05027e-12 0)
(210 5.46366e-13 0)
(210 1.74876e-12 0)
(210 4.86879e-13 0)
(210 6.30046e-13 0)
(210 8.06763e-13 0)
(210 -2.24918e-13 0)
(210 -5.24887e-13 0)
(210 -5.19205e-13 0)
(210 -7.54337e-13 0)
(210 1.03944e-12 0)
(210 1.34894e-12 0)
(210 1.40019e-13 0)
(210 -8.75869e-13 0)
(210 3.8782e-11 0)
(210 9.42126e-09 0)
(210 1.90486e-06 0)
(210 0.000282441 0)
(209.995 0.0183564 0)
(209.924 0.326881 0)
(209.689 1.67746 0)
(209.517 3.53306 0)
(209.746 4.48858 0)
(210.19 4.70511 0)
(211.004 3.59087 0)
(212.152 1.37113 0)
(213.342 -0.536277 0)
(214.559 -1.94973 0)
(215.794 -3.11124 0)
(217.067 -4.17057 0)
(218.339 -5.17677 0)
(219.642 -6.1248 0)
(220.941 -7.02944 0)
(222.272 -7.88499 0)
(223.591 -8.71662 0)
(224.932 -9.51147 0)
(226.252 -10.2933 0)
(227.588 -11.0403 0)
(228.897 -11.7784 0)
(230.215 -12.4882 0)
(231.501 -13.1921 0)
(232.79 -13.8651 0)
(234.044 -14.5307 0)
(235.284 -15.1813 0)
(236.482 -15.836 0)
(237.665 -16.4703 0)
(238.819 -17.0799 0)
(239.957 -17.6474 0)
(241.058 -18.1951 0)
(242.126 -18.7393 0)
(243.137 -19.307 0)
(244.11 -19.8729 0)
(245.052 -20.4114 0)
(245.987 -20.9072 0)
(246.89 -21.3868 0)
(247.758 -21.867 0)
(248.574 -22.3524 0)
(249.356 -22.8204 0)
(250.108 -23.2627 0)
(250.841 -23.6781 0)
(251.546 -24.0746 0)
(252.228 -24.4546 0)
(252.884 -24.8218 0)
(253.513 -25.1782 0)
(254.112 -25.5269 0)
(254.682 -25.8658 0)
(255.222 -26.1947 0)
(255.737 -26.5105 0)
(256.224 -26.8156 0)
(256.692 -27.1073 0)
(257.134 -27.3885 0)
(257.564 -27.655 0)
(257.97 -27.9129 0)
(258.371 -28.1556 0)
(258.743 -28.3925 0)
(259.114 -28.614 0)
(259.451 -28.8335 0)
(259.789 -29.0381 0)
(260.091 -29.2418 0)
(260.398 -29.4313 0)
(260.665 -29.62 0)
(260.941 -29.7962 0)
(261.177 -29.9711 0)
(261.423 -30.1347 0)
(261.636 -30.2959 0)
(261.856 -30.447 0)
(262.066 -30.5907 0)
(262.266 -30.7231 0)
(262.446 -30.852 0)
(262.551 -30.9679 0)
(262.719 -31.0891 0)
(262.819 -31.2009 0)
(262.864 -31.2866 0)
(262.875 -31.3776 0)
(262.856 -31.4515 0)
(262.83 -31.5214 0)
(262.822 -31.5916 0)
(262.853 -31.6557 0)
(262.936 -31.7293 0)
(263.085 -31.8316 0)
(263.175 -31.754 0)
(210 2.84584e-05 0)
(210 1.60316e-05 0)
(210 3.34173e-06 0)
(210 6.93367e-08 0)
(210 -6.60501e-10 0)
(210 -1.0658e-10 0)
(210 -6.94703e-13 0)
(210 5.16018e-13 0)
(210 -1.46229e-12 0)
(210 -2.04172e-12 0)
(210 4.50309e-13 0)
(210 5.67103e-13 0)
(210 -1.30279e-12 0)
(210 -4.66505e-13 0)
(210 4.88405e-13 0)
(210 2.56265e-13 0)
(210 -5.76556e-15 0)
(210 -6.78611e-13 0)
(210 -1.5005e-12 0)
(210 -4.17244e-13 0)
(210 9.08028e-13 0)
(210 3.9187e-13 0)
(210 1.46632e-12 0)
(210 5.59801e-13 0)
(210 3.72632e-13 0)
(210 7.52615e-13 0)
(210 -1.87296e-13 0)
(210 -1.79055e-13 0)
(210 -2.7862e-13 0)
(210 -7.06915e-13 0)
(210 7.27553e-13 0)
(210 1.33638e-12 0)
(210 3.52772e-13 0)
(210 -7.43359e-13 0)
(210 3.24981e-11 0)
(210 7.94584e-09 0)
(210 1.60793e-06 0)
(210 0.000241614 0)
(209.995 0.0163008 0)
(209.927 0.304482 0)
(209.686 1.62661 0)
(209.487 3.51796 0)
(209.689 4.53097 0)
(210.12 4.78074 0)
(210.908 3.75746 0)
(212.055 1.57704 0)
(213.241 -0.335671 0)
(214.454 -1.74759 0)
(215.684 -2.89948 0)
(216.951 -3.94655 0)
(218.218 -4.94058 0)
(219.515 -5.87633 0)
(220.809 -6.76838 0)
(222.134 -7.61075 0)
(223.448 -8.42953 0)
(224.784 -9.21148 0)
(226.099 -9.9807 0)
(227.433 -10.7151 0)
(228.74 -11.4414 0)
(230.056 -12.1395 0)
(231.342 -12.8314 0)
(232.63 -13.4929 0)
(233.884 -14.1488 0)
(235.122 -14.7908 0)
(236.319 -15.4353 0)
(237.503 -16.0576 0)
(238.658 -16.6556 0)
(239.796 -17.2138 0)
(240.896 -17.756 0)
(241.961 -18.2997 0)
(242.972 -18.868 0)
(243.948 -19.4304 0)
(244.898 -19.9621 0)
(245.838 -20.4523 0)
(246.741 -20.9296 0)
(247.605 -21.4086 0)
(248.418 -21.8892 0)
(249.202 -22.3484 0)
(249.96 -22.7814 0)
(250.699 -23.1902 0)
(251.411 -23.5827 0)
(252.099 -23.9601 0)
(252.757 -24.3261 0)
(253.387 -24.6825 0)
(253.983 -25.0317 0)
(254.55 -25.37 0)
(255.087 -25.6976 0)
(255.599 -26.0126 0)
(256.083 -26.3183 0)
(256.55 -26.6111 0)
(256.989 -26.8942 0)
(257.419 -27.1624 0)
(257.821 -27.4215 0)
(258.22 -27.6635 0)
(258.587 -27.8991 0)
(258.956 -28.1182 0)
(259.291 -28.3345 0)
(259.632 -28.5349 0)
(259.938 -28.7342 0)
(260.249 -28.9196 0)
(260.525 -29.1049 0)
(260.804 -29.2782 0)
(261.047 -29.4511 0)
(261.296 -29.6136 0)
(261.512 -29.7746 0)
(261.729 -29.9271 0)
(261.932 -30.0735 0)
(262.129 -30.2073 0)
(262.308 -30.3378 0)
(262.411 -30.4548 0)
(262.577 -30.5764 0)
(262.676 -30.689 0)
(262.719 -30.7735 0)
(262.728 -30.865 0)
(262.707 -30.9371 0)
(262.678 -31.0067 0)
(262.667 -31.0759 0)
(262.696 -31.1396 0)
(262.778 -31.2129 0)
(262.926 -31.3151 0)
(263.015 -31.2383 0)
(210 1.90629e-07 0)
(210 1.17358e-07 0)
(210 3.14379e-08 0)
(210 3.16365e-10 0)
(210 -1.71455e-11 0)
(210 3.0311e-12 0)
(210 7.62669e-13 0)
(210 6.35526e-13 0)
(210 -1.35286e-12 0)
(210 -2.04361e-12 0)
(210 -9.62872e-15 0)
(210 5.2486e-13 0)
(210 -1.55737e-12 0)
(210 -9.94143e-13 0)
(210 -1.97552e-13 0)
(210 -1.80149e-13 0)
(210 1.00862e-13 0)
(210 -7.19454e-13 0)
(210 -1.28668e-12 0)
(210 -2.12908e-13 0)
(210 1.0829e-12 0)
(210 6.87053e-13 0)
(210 1.44385e-12 0)
(210 9.71275e-13 0)
(210 4.95483e-13 0)
(210 5.35652e-13 0)
(210 -4.97101e-13 0)
(210 9.46312e-15 0)
(210 -8.95402e-14 0)
(210 -5.32998e-13 0)
(210 5.80298e-13 0)
(210 1.09641e-12 0)
(210 2.91997e-13 0)
(210 -3.59093e-13 0)
(210 2.69344e-11 0)
(210 6.68456e-09 0)
(210 1.35365e-06 0)
(210 0.000206016 0)
(209.996 0.0144232 0)
(209.93 0.282771 0)
(209.683 1.57404 0)
(209.459 3.49848 0)
(209.631 4.57204 0)
(210.05 4.85214 0)
(210.812 3.92079 0)
(211.957 1.78273 0)
(213.14 -0.135451 0)
(214.348 -1.54631 0)
(215.573 -2.68893 0)
(216.835 -3.72394 0)
(218.097 -4.70596 0)
(219.391 -5.62972 0)
(220.68 -6.50963 0)
(222.002 -7.33928 0)
(223.312 -8.14568 0)
(224.645 -8.91502 0)
(225.957 -9.67172 0)
(227.287 -10.3934 0)
(228.591 -11.1075 0)
(229.904 -11.7933 0)
(231.188 -12.4727 0)
(232.474 -13.1224 0)
(233.726 -13.7682 0)
(234.961 -14.401 0)
(236.159 -15.0351 0)
(237.345 -15.646 0)
(238.502 -16.234 0)
(239.641 -16.7848 0)
(240.741 -17.3238 0)
(241.805 -17.8682 0)
(242.815 -18.4361 0)
(243.796 -18.9931 0)
(244.751 -19.5164 0)
(245.692 -19.9999 0)
(246.593 -20.474 0)
(247.453 -20.9503 0)
(248.265 -21.4246 0)
(249.054 -21.8747 0)
(249.82 -22.2999 0)
(250.566 -22.704 0)
(251.284 -23.0935 0)
(251.976 -23.4691 0)
(252.636 -23.8348 0)
(253.263 -24.1919 0)
(253.855 -24.5412 0)
(254.419 -24.8783 0)
(254.953 -25.2048 0)
(255.466 -25.5195 0)
(255.948 -25.8257 0)
(256.414 -26.1188 0)
(256.851 -26.403 0)
(257.279 -26.6723 0)
(257.677 -26.933 0)
(258.076 -27.176 0)
(258.443 -27.4133 0)
(258.813 -27.6326 0)
(259.149 -27.8478 0)
(259.49 -28.0453 0)
(259.798 -28.2406 0)
(260.109 -28.4216 0)
(260.386 -28.6023 0)
(260.667 -28.7713 0)
(260.915 -28.9408 0)
(261.167 -29.101 0)
(261.39 -29.2608 0)
(261.61 -29.4127 0)
(261.807 -29.5611 0)
(262.004 -29.6959 0)
(262.181 -29.8278 0)
(262.283 -29.9455 0)
(262.448 -30.0677 0)
(262.544 -30.1807 0)
(262.585 -30.2645 0)
(262.592 -30.3563 0)
(262.569 -30.4275 0)
(262.539 -30.4975 0)
(262.528 -30.5668 0)
(262.557 -30.6314 0)
(262.64 -30.7056 0)
(262.788 -30.8088 0)
(262.876 -30.7323 0)
(210 6.95512e-10 0)
(210 4.29504e-10 0)
(210 9.18892e-11 0)
(210 -6.87343e-11 0)
(210 -5.02022e-12 0)
(210 1.26829e-12 0)
(210 1.38062e-12 0)
(210 8.90799e-13 0)
(210 -1.13209e-12 0)
(210 -2.18135e-12 0)
(210 -8.38783e-14 0)
(210 8.82171e-13 0)
(210 -1.50194e-12 0)
(210 -9.49311e-13 0)
(210 -4.30347e-13 0)
(210 -5.24789e-13 0)
(210 6.88106e-13 0)
(210 -6.20456e-13 0)
(210 -1.35878e-12 0)
(210 -3.1336e-13 0)
(210 9.75166e-13 0)
(210 6.78216e-13 0)
(210 1.23053e-12 0)
(210 8.71034e-13 0)
(210 4.41995e-13 0)
(210 5.84852e-13 0)
(210 -5.85908e-13 0)
(210 4.19215e-14 0)
(210 3.98289e-15 0)
(210 -3.70046e-13 0)
(210 4.87072e-13 0)
(210 1.16938e-12 0)
(210 3.65539e-13 0)
(210 -6.68713e-13 0)
(210 2.23829e-11 0)
(210 5.60925e-09 0)
(210 1.13645e-06 0)
(210 0.000175079 0)
(209.996 0.0127145 0)
(209.933 0.261794 0)
(209.682 1.51992 0)
(209.433 3.47436 0)
(209.573 4.61185 0)
(209.98 4.91938 0)
(210.716 4.08077 0)
(211.857 1.98813 0)
(213.036 0.0644816 0)
(214.241 -1.34582 0)
(215.46 -2.47951 0)
(216.717 -3.50252 0)
(217.974 -4.47248 0)
(219.262 -5.38412 0)
(220.546 -6.25172 0)
(221.862 -7.06847 0)
(223.166 -7.86228 0)
(224.494 -8.61878 0)
(225.802 -9.36284 0)
(227.129 -10.0719 0)
(228.431 -10.7739 0)
(229.743 -11.4474 0)
(231.027 -12.1145 0)
(232.313 -12.7528 0)
(233.564 -13.3889 0)
(234.798 -14.0124 0)
(235.997 -14.6361 0)
(237.184 -15.2361 0)
(238.341 -15.8147 0)
(239.481 -16.3593 0)
(240.58 -16.8961 0)
(241.644 -17.4411 0)
(242.655 -18.0069 0)
(243.64 -18.5561 0)
(244.601 -19.0698 0)
(245.545 -19.5465 0)
(246.445 -20.0177 0)
(247.303 -20.4913 0)
(248.118 -20.9591 0)
(248.913 -21.4012 0)
(249.688 -21.8201 0)
(250.441 -22.2203 0)
(251.165 -22.6076 0)
(251.859 -22.9822 0)
(252.517 -23.3488 0)
(253.14 -23.7069 0)
(253.729 -24.056 0)
(254.292 -24.3915 0)
(254.825 -24.717 0)
(255.337 -25.0312 0)
(255.82 -25.3372 0)
(256.288 -25.6301 0)
(256.726 -25.9154 0)
(257.156 -26.1854 0)
(257.553 -26.4477 0)
(257.95 -26.6922 0)
(258.311 -26.9309 0)
(258.677 -27.1505 0)
(259.009 -27.3649 0)
(259.349 -27.5615 0)
(259.658 -27.7556 0)
(259.972 -27.935 0)
(260.256 -28.1138 0)
(260.543 -28.2807 0)
(260.8 -28.4484 0)
(261.059 -28.6069 0)
(261.289 -28.7655 0)
(261.516 -28.9143 0)
(261.71 -29.0622 0)
(261.906 -29.1959 0)
(262.08 -29.3276 0)
(262.18 -29.4444 0)
(262.342 -29.5665 0)
(262.435 -29.6788 0)
(262.472 -29.7613 0)
(262.476 -29.8538 0)
(262.451 -29.9245 0)
(262.42 -29.9952 0)
(262.409 -30.0648 0)
(262.438 -30.1298 0)
(262.52 -30.2042 0)
(262.668 -30.3077 0)
(262.756 -30.232 0)
(210 6.83923e-12 0)
(210 1.12294e-12 0)
(210 -2.13185e-11 0)
(210 -5.22548e-11 0)
(210 -4.70069e-12 0)
(210 1.09634e-12 0)
(210 1.2308e-12 0)
(210 1.1418e-12 0)
(210 -1.1844e-12 0)
(210 -2.12338e-12 0)
(210 -4.21151e-13 0)
(210 7.39331e-13 0)
(210 -1.38614e-12 0)
(210 -9.82461e-13 0)
(210 -1.08217e-13 0)
(210 -5.42941e-13 0)
(210 5.36049e-13 0)
(210 -4.35805e-13 0)
(210 -1.22289e-12 0)
(210 -1.55267e-13 0)
(210 6.38168e-13 0)
(210 5.79964e-13 0)
(210 1.18601e-12 0)
(210 7.40975e-13 0)
(210 4.48213e-13 0)
(210 5.90641e-13 0)
(210 -3.27201e-13 0)
(210 -2.69972e-13 0)
(210 5.18348e-14 0)
(210 -3.09783e-13 0)
(210 6.24094e-13 0)
(210 1.11757e-12 0)
(210 7.09018e-13 0)
(210 -5.21406e-13 0)
(210 1.85703e-11 0)
(210 4.69416e-09 0)
(210 9.51408e-07 0)
(210 0.000148285 0)
(209.997 0.0111654 0)
(209.936 0.24159 0)
(209.682 1.46444 0)
(209.408 3.44573 0)
(209.514 4.64964 0)
(209.909 4.98307 0)
(210.62 4.23713 0)
(211.756 2.19311 0)
(212.931 0.264204 0)
(214.132 -1.14605 0)
(215.347 -2.27121 0)
(216.599 -3.2824 0)
(217.85 -4.24042 0)
(219.134 -5.14015 0)
(220.414 -5.99579 0)
(221.727 -6.80006 0)
(223.027 -7.58173 0)
(224.352 -8.32576 0)
(225.657 -9.05747 0)
(226.981 -9.75396 0)
(228.28 -10.4439 0)
(229.589 -11.1049 0)
(230.872 -11.7596 0)
(232.155 -12.3867 0)
(233.403 -13.013 0)
(234.637 -13.6271 0)
(235.837 -14.2408 0)
(237.026 -14.8307 0)
(238.186 -15.4009 0)
(239.328 -15.9401 0)
(240.428 -16.4751 0)
(241.491 -17.0195 0)
(242.504 -17.5804 0)
(243.492 -18.1191 0)
(244.457 -18.6218 0)
(245.4 -19.092 0)
(246.298 -19.561 0)
(247.155 -20.0321 0)
(247.976 -20.4938 0)
(248.78 -20.9287 0)
(249.563 -21.3422 0)
(250.323 -21.7392 0)
(251.051 -22.1247 0)
(251.744 -22.4994 0)
(252.398 -22.8675 0)
(253.018 -23.2263 0)
(253.603 -23.5745 0)
(254.166 -23.9088 0)
(254.7 -24.2341 0)
(255.214 -24.5475 0)
(255.698 -24.8524 0)
(256.17 -25.1437 0)
(256.609 -25.4282 0)
(257.04 -25.6972 0)
(257.436 -25.9604 0)
(257.833 -26.2073 0)
(258.194 -26.4485 0)
(258.56 -26.6704 0)
(258.893 -26.8866 0)
(259.23 -27.0852 0)
(259.537 -27.2799 0)
(259.849 -27.4589 0)
(260.133 -27.6365 0)
(260.421 -27.8017 0)
(260.684 -27.9677 0)
(260.947 -28.1238 0)
(261.181 -28.2804 0)
(261.415 -28.4243 0)
(261.61 -28.5696 0)
(261.807 -28.7007 0)
(261.98 -28.8307 0)
(262.079 -28.9462 0)
(262.241 -29.0678 0)
(262.332 -29.1799 0)
(262.368 -29.2624 0)
(262.372 -29.3566 0)
(262.348 -29.4285 0)
(262.318 -29.5009 0)
(262.307 -29.5716 0)
(262.337 -29.6373 0)
(262.42 -29.7121 0)
(262.568 -29.8161 0)
(262.656 -29.7402 0)
(210 4.40023e-12 0)
(210 5.77826e-13 0)
(210 -9.7831e-12 0)
(210 -2.7343e-11 0)
(210 -2.95551e-12 0)
(210 4.17235e-13 0)
(210 1.37678e-12 0)
(210 1.00548e-12 0)
(210 -1.20672e-12 0)
(210 -1.96755e-12 0)
(210 -1.11456e-13 0)
(210 7.73949e-13 0)
(210 -7.88161e-13 0)
(210 -1.13829e-12 0)
(210 -2.65704e-13 0)
(210 -5.92591e-13 0)
(210 -4.2511e-13 0)
(210 -1.88325e-13 0)
(210 -1.10898e-12 0)
(210 -1.07638e-13 0)
(210 6.73112e-13 0)
(210 6.60789e-13 0)
(210 1.02728e-12 0)
(210 7.91161e-13 0)
(210 3.3847e-13 0)
(210 -5.36813e-14 0)
(210 -5.51537e-13 0)
(210 -3.22114e-13 0)
(210 -1.83793e-13 0)
(210 -3.1494e-13 0)
(210 6.69184e-13 0)
(210 1.06812e-12 0)
(210 7.62047e-13 0)
(210 -4.05038e-13 0)
(210 1.5341e-11 0)
(210 3.91779e-09 0)
(210 7.94194e-07 0)
(210 0.000125158 0)
(209.997 0.0097665 0)
(209.94 0.222198 0)
(209.682 1.40775 0)
(209.385 3.41291 0)
(209.456 4.68381 0)
(209.838 5.0448 0)
(210.523 4.38927 0)
(211.653 2.39757 0)
(212.825 0.463802 0)
(214.023 -0.946924 0)
(215.232 -2.06395 0)
(216.478 -3.06345 0)
(217.724 -4.00951 0)
(219.003 -4.89725 0)
(220.277 -5.7408 0)
(221.585 -6.53246 0)
(222.879 -7.3018 0)
(224.199 -8.03319 0)
(225.5 -8.75246 0)
(226.821 -9.43653 0)
(228.118 -10.1145 0)
(229.426 -10.7634 0)
(230.708 -11.4065 0)
(231.99 -12.0233 0)
(233.238 -12.6405 0)
(234.473 -13.2454 0)
(235.674 -13.8491 0)
(236.865 -14.4291 0)
(238.026 -14.9905 0)
(239.169 -15.5238 0)
(240.269 -16.0561 0)
(241.332 -16.5978 0)
(242.346 -17.1512 0)
(243.34 -17.6778 0)
(244.308 -18.1698 0)
(245.253 -18.6354 0)
(246.152 -19.1043 0)
(247.012 -19.5738 0)
(247.84 -20.0301 0)
(248.654 -20.4585 0)
(249.446 -20.8669 0)
(250.211 -21.2606 0)
(250.939 -21.6451 0)
(251.63 -22.0207 0)
(252.28 -22.3906 0)
(252.897 -22.7498 0)
(253.482 -23.0974 0)
(254.046 -23.4314 0)
(254.58 -23.7565 0)
(255.096 -24.068 0)
(255.584 -24.3708 0)
(256.06 -24.6596 0)
(256.503 -24.9424 0)
(256.94 -25.21 0)
(257.338 -25.4738 0)
(257.735 -25.7216 0)
(258.094 -25.9632 0)
(258.456 -26.1866 0)
(258.784 -26.405 0)
(259.118 -26.6067 0)
(259.422 -26.8045 0)
(259.734 -26.986 0)
(260.022 -27.1661 0)
(260.315 -27.333 0)
(260.584 -27.5001 0)
(260.855 -27.6542 0)
(261.09 -27.8094 0)
(261.329 -27.9481 0)
(261.527 -28.0894 0)
(261.726 -28.2169 0)
(261.897 -28.3438 0)
(261.997 -28.4573 0)
(262.16 -28.5775 0)
(262.25 -28.6891 0)
(262.285 -28.7713 0)
(262.29 -28.8674 0)
(262.265 -28.9403 0)
(262.233 -29.0137 0)
(262.219 -29.0847 0)
(262.246 -29.1498 0)
(262.327 -29.2235 0)
(262.474 -29.3269 0)
(262.561 -29.2511 0)
(210 4.3925e-12 0)
(210 5.29685e-13 0)
(210 -2.37679e-12 0)
(210 -4.85879e-12 0)
(210 -7.1745e-13 0)
(210 5.62458e-13 0)
(210 1.77229e-12 0)
(210 1.75542e-12 0)
(210 -1.09371e-12 0)
(210 -2.1618e-12 0)
(210 -4.42746e-14 0)
(210 1.44071e-12 0)
(210 -6.29856e-13 0)
(210 -1.10993e-12 0)
(210 -3.99544e-13 0)
(210 -9.88357e-13 0)
(210 -8.40994e-13 0)
(210 -5.62794e-13 0)
(210 -9.45252e-13 0)
(210 -2.68215e-14 0)
(210 6.18822e-13 0)
(210 5.07185e-13 0)
(210 8.19327e-13 0)
(210 8.65424e-13 0)
(210 5.10187e-13 0)
(210 -1.84313e-13 0)
(210 -6.0745e-13 0)
(210 9.47872e-14 0)
(210 -2.16648e-13 0)
(210 -2.76828e-13 0)
(210 5.85207e-13 0)
(210 1.32633e-12 0)
(210 1.15856e-12 0)
(210 -2.22197e-13 0)
(210 1.22735e-11 0)
(210 3.26064e-09 0)
(210 6.61003e-07 0)
(210 0.000105269 0)
(209.997 0.00850849 0)
(209.943 0.203652 0)
(209.684 1.35003 0)
(209.363 3.37577 0)
(209.399 4.71429 0)
(209.768 5.10467 0)
(210.425 4.537 0)
(211.548 2.60139 0)
(212.717 0.663351 0)
(213.912 -0.74836 0)
(215.116 -1.85774 0)
(216.357 -2.84574 0)
(217.598 -3.77992 0)
(218.872 -4.65581 0)
(220.142 -5.48755 0)
(221.446 -6.26693 0)
(222.737 -7.02432 0)
(224.053 -7.74341 0)
(225.351 -8.45063 0)
(226.67 -9.12257 0)
(227.964 -9.78875 0)
(229.27 -10.4257 0)
(230.55 -11.0575 0)
(231.829 -11.6642 0)
(233.075 -12.2722 0)
(234.309 -12.868 0)
(235.513 -13.4619 0)
(236.706 -14.032 0)
(237.87 -14.5846 0)
(239.015 -15.1114 0)
(240.117 -15.6399 0)
(241.181 -16.1769 0)
(242.197 -16.7207 0)
(243.194 -17.2344 0)
(244.165 -17.7169 0)
(245.111 -18.18 0)
(246.011 -18.65 0)
(246.875 -19.1181 0)
(247.712 -19.5686 0)
(248.535 -19.9902 0)
(249.333 -20.3933 0)
(250.101 -20.7842 0)
(250.827 -21.1687 0)
(251.515 -21.546 0)
(252.162 -21.9175 0)
(252.778 -22.2766 0)
(253.364 -22.6242 0)
(253.929 -22.9585 0)
(254.465 -23.283 0)
(254.985 -23.592 0)
(255.477 -23.8922 0)
(255.958 -24.1773 0)
(256.405 -24.4568 0)
(256.845 -24.7218 0)
(257.247 -24.9841 0)
(257.645 -25.231 0)
(258.009 -25.473 0)
(258.373 -25.6997 0)
(258.701 -25.9224 0)
(259.034 -26.1283 0)
(259.335 -26.33 0)
(259.646 -26.5151 0)
(259.931 -26.6985 0)
(260.224 -26.8671 0)
(260.49 -27.0353 0)
(260.762 -27.1864 0)
(260.995 -27.3397 0)
(261.235 -27.4747 0)
(261.439 -27.6121 0)
(261.641 -27.7368 0)
(261.815 -27.8609 0)
(261.919 -27.9741 0)
(262.085 -28.0925 0)
(262.178 -28.2044 0)
(262.217 -28.2871 0)
(262.225 -28.3851 0)
(262.201 -28.4593 0)
(262.168 -28.534 0)
(262.152 -28.6055 0)
(262.176 -28.6708 0)
(262.256 -28.7446 0)
(262.404 -28.8488 0)
(262.492 -28.772 0)
(210 4.18841e-12 0)
(210 5.77577e-13 0)
(210 -4.88755e-13 0)
(210 -1.44156e-12 0)
(210 -6.66462e-13 0)
(210 6.84295e-13 0)
(210 1.67648e-12 0)
(210 1.65452e-12 0)
(210 -8.21222e-13 0)
(210 -2.02768e-12 0)
(210 3.65934e-13 0)
(210 1.4783e-12 0)
(210 -4.08279e-13 0)
(210 -1.21274e-12 0)
(210 -6.13048e-13 0)
(210 -7.32332e-13 0)
(210 -2.08765e-13 0)
(210 -1.04326e-12 0)
(210 -1.06276e-12 0)
(210 -2.37963e-13 0)
(210 2.62724e-13 0)
(210 3.74849e-13 0)
(210 7.30515e-13 0)
(210 4.59962e-13 0)
(210 5.47874e-13 0)
(210 2.2937e-13 0)
(210 -6.23212e-13 0)
(210 1.39318e-13 0)
(210 1.94799e-13 0)
(210 -1.37404e-13 0)
(210 4.27364e-13 0)
(210 8.15255e-13 0)
(210 1.54669e-12 0)
(210 -1.55934e-13 0)
(210 1.02675e-11 0)
(210 2.7057e-09 0)
(210 5.4848e-07 0)
(210 8.82246e-05 0)
(209.998 0.00738184 0)
(209.946 0.18598 0)
(209.687 1.29143 0)
(209.342 3.33419 0)
(209.342 4.74095 0)
(209.697 5.1628 0)
(210.328 4.68016 0)
(211.441 2.80444 0)
(212.607 0.862947 0)
(213.799 -0.550283 0)
(214.998 -1.6525 0)
(216.234 -2.62917 0)
(217.469 -3.55147 0)
(218.738 -4.41546 0)
(220.002 -5.23532 0)
(221.301 -6.00227 0)
(222.586 -6.74753 0)
(223.898 -7.45415 0)
(225.192 -8.14918 0)
(226.507 -8.80901 0)
(227.8 -9.46354 0)
(229.104 -10.089 0)
(230.383 -10.7101 0)
(231.661 -11.3075 0)
(232.908 -11.9068 0)
(234.144 -12.4933 0)
(235.349 -13.0773 0)
(236.544 -13.6369 0)
(237.71 -14.1795 0)
(238.856 -14.6985 0)
(239.958 -15.2218 0)
(241.022 -15.7527 0)
(242.04 -16.2859 0)
(243.042 -16.7877 0)
(244.018 -17.263 0)
(244.967 -17.7264 0)
(245.871 -18.1988 0)
(246.743 -18.665 0)
(247.59 -19.1091 0)
(248.421 -19.5235 0)
(249.224 -19.9214 0)
(249.992 -20.31 0)
(250.716 -20.6954 0)
(251.4 -21.0748 0)
(252.046 -21.4476 0)
(252.664 -21.807 0)
(253.252 -22.1554 0)
(253.819 -22.4897 0)
(254.357 -22.8129 0)
(254.882 -23.1188 0)
(255.377 -23.416 0)
(255.863 -23.6973 0)
(256.317 -23.9737 0)
(256.763 -24.2361 0)
(257.171 -24.4957 0)
(257.575 -24.74 0)
(257.941 -24.9813 0)
(258.304 -25.2095 0)
(258.628 -25.4341 0)
(258.96 -25.6424 0)
(259.26 -25.8482 0)
(259.572 -26.0385 0)
(259.857 -26.2273 0)
(260.153 -26.3997 0)
(260.415 -26.571 0)
(260.689 -26.7211 0)
(260.919 -26.8737 0)
(261.159 -27.0078 0)
(261.37 -27.1426 0)
(261.576 -27.2662 0)
(261.754 -27.3886 0)
(261.861 -27.5021 0)
(262.029 -27.6185 0)
(262.126 -27.7304 0)
(262.167 -27.8123 0)
(262.178 -27.9104 0)
(262.154 -27.9839 0)
(262.119 -28.058 0)
(262.099 -28.1288 0)
(262.12 -28.1934 0)
(262.2 -28.2674 0)
(262.348 -28.3716 0)
(262.436 -28.2945 0)
(210 4.57147e-12 0)
(210 9.17046e-13 0)
(210 8.95236e-14 0)
(210 -1.0909e-12 0)
(210 -1.05548e-12 0)
(210 2.47888e-13 0)
(210 1.56669e-12 0)
(210 1.72314e-12 0)
(210 -9.24551e-13 0)
(210 -1.9752e-12 0)
(210 3.69975e-13 0)
(210 1.63582e-12 0)
(210 -2.17768e-13 0)
(210 -1.04189e-12 0)
(210 -5.90063e-13 0)
(210 -8.13652e-13 0)
(210 -4.46876e-13 0)
(210 -1.06927e-12 0)
(210 -9.29067e-13 0)
(210 1.24206e-13 0)
(210 2.24688e-13 0)
(210 2.47855e-13 0)
(210 5.52911e-13 0)
(210 4.46644e-13 0)
(210 3.59459e-13 0)
(210 2.30322e-13 0)
(210 -5.04211e-13 0)
(210 -2.7e-13 0)
(210 2.57828e-13 0)
(210 -3.96256e-14 0)
(210 4.60279e-13 0)
(210 4.95116e-13 0)
(210 1.26758e-12 0)
(210 2.48207e-13 0)
(210 8.1612e-12 0)
(210 2.23885e-09 0)
(210 4.53691e-07 0)
(210 7.367e-05 0)
(209.998 0.00637713 0)
(209.95 0.169204 0)
(209.692 1.23214 0)
(209.323 3.2881 0)
(209.286 4.76361 0)
(209.627 5.21932 0)
(210.23 4.81863 0)
(211.332 3.00652 0)
(212.495 1.06268 0)
(213.685 -0.352586 0)
(214.88 -1.4482 0)
(216.11 -2.41376 0)
(217.34 -3.32425 0)
(218.604 -4.17645 0)
(219.863 -4.98461 0)
(221.158 -5.73939 0)
(222.44 -6.47278 0)
(223.749 -7.16718 0)
(225.04 -7.85032 0)
(226.352 -8.49823 0)
(227.643 -9.14121 0)
(228.945 -9.75526 0)
(230.221 -10.3658 0)
(231.497 -10.9538 0)
(232.743 -11.5439 0)
(233.979 -12.1208 0)
(235.187 -12.6944 0)
(236.384 -13.2431 0)
(237.553 -13.7753 0)
(238.701 -14.2862 0)
(239.805 -14.8039 0)
(240.87 -15.3281 0)
(241.892 -15.8512 0)
(242.897 -16.3426 0)
(243.877 -16.8131 0)
(244.829 -17.278 0)
(245.738 -17.752 0)
(246.617 -18.2147 0)
(247.473 -18.6509 0)
(248.311 -19.0574 0)
(249.116 -19.4505 0)
(249.883 -19.8383 0)