/*--------------------------------*- C++ -*----------------------------------*\
| =========                 |                                                 |
| \\      /  F ield         | OpenFOAM: The Open Source CFD Toolbox           |
|  \\    /   O peration     | Version:  2412                                  |
|   \\  /    A nd           | Website:  www.openfoam.com                      |
|    \\/     M anipulation  |                                                 |
\*---------------------------------------------------------------------------*/
FoamFile
{
    version     2.0;
    format      ascii;
    arch        "LSB;label=32;scalar=64";
    class       volScalarField;
    location    "0.102";
    object      p;
}
// * * * * * * * * * * * * * * * * * * * * * * * * * * * * * * * * * * * * * //

dimensions      [1 -1 -2 0 0 0 0];

internalField   nonuniform List<scalar> 
9816
(
2970.03
2970.44
2970.74
2970.92
2970.99
2970.98
2970.85
2970.64
2970.34
2969.94
2969.44
2968.87
2968.22
2967.52
2966.76
2965.95
2965.1
2964.16
2963.36
2962.42
2961.56
2960.64
2959.7
2958.72
2957.71
2956.65
2955.57
2954.43
2953.26
2952.15
2951.01
2949.98
2948.85
2947.87
2946.68
2945.78
2944.55
2943.7
2942.37
2941.61
2940.32
2939.98
2900.11
2899.16
2898.16
2897.14
2896.11
2895.06
2894.07
2893.05
2892.03
2891.02
2890.02
2889.02
2888.03
2887.04
2886.15
2885.22
2884.35
2883.48
2882.62
2881.79
2880.97
2880.17
2879.4
2878.66
2878.03
2877.36
2876.9
2876.34
2876
2875.48
2875.11
2874.51
2874.07
2873.46
2873.04
2872.52
2872.2
2871.86
2871.69
2871.4
2871.07
2870.1
2867.61
2866.82
2866.07
2865.3
2864.58
2863.83
2863.17
2862.49
2861.84
2861.19
2860.57
2859.96
2859.37
2858.8
2858.23
2857.68
2857.15
2856.64
2856.14
2855.67
2855.21
2854.82
2854.41
2854.06
2853.67
2853.35
2852.96
2852.61
2852.22
2851.87
2851.53
2851.19
2850.8
2850.86
2850.9
2849.81
2849.42
2850.14
2850.32
2849.92
2849.31
2848.74
2848.31
2847.73
2847.17
2846.61
2846.06
2845.52
2844.98
2844.45
2843.94
2843.44
2842.96
2842.49
2842.03
2841.6
2841.18
2840.78
2840.4
2840.04
2839.69
2839.37
2839.08
2838.77
2838.5
2838.22
2837.97
2837.7
2837.46
2837.19
2837.01
2836.77
2836.49
2836.62
2836.53
2835.47
2835.58
2836.49
2836.52
2835.83
2835.04
2834.87
2834.8
2834.97
2836.06
2835.58
2835.11
2834.65
2834.2
2833.76
2833.35
2832.96
2832.59
2832.25
2831.92
2831.61
2831.3
2831.01
2830.73
2830.46
2830.2
2829.94
2829.69
2829.48
2829.23
2829.04
2828.81
2828.65
2828.42
2828.28
2828.09
2827.95
2827.74
2827.74
2827.72
2827.14
2827.07
2827.83
2827.69
2826.75
2826.41
2826.48
2826.7
2826.94
2827.12
2827.06
2826.89
2826.55
2826.22
2825.91
2825.63
2825.37
2825.1
2824.85
2824.59
2824.35
2824.11
2823.89
2823.68
2823.48
2823.28
2823.1
2822.91
2822.74
2822.59
2822.42
2822.29
2822.13
2822.02
2821.87
2821.77
2821.66
2821.56
2821.45
2821.41
2821.36
2820.95
2821.12
2821.65
2821.13
2820.26
2820.34
2820.64
2821.01
2821.17
2821.08
2820.73
2820.37
2820.58
2820.35
2820.12
2819.89
2819.66
2819.45
2819.25
2819.05
2818.87
2818.7
2818.52
2818.38
2818.23
2818.09
2817.95
2817.82
2817.69
2817.58
2817.46
2817.36
2817.24
2817.14
2817.03
2816.94
2816.84
2816.75
2816.67
2816.61
2816.46
2816.48
2816.59
2816.14
2815.84
2816.34
2816.64
2816.42
2815.87
2815.64
2815.62
2815.69
2815.86
2816.01
2815.61
2815.43
2815.26
2815.1
2814.95
2814.8
2814.68
2814.52
2814.41
2814.29
2814.18
2814.06
2813.95
2813.84
2813.74
2813.64
2813.55
2813.46
2813.38
2813.29
2813.22
2813.14
2813.09
2813.01
2812.97
2812.9
2812.84
2812.76
2812.81
2812.81
2812.41
2812.39
2812.96
2812.94
2812.31
2811.98
2812.02
2812.2
2812.45
2812.58
2812.58
2812.42
2811.55
2811.44
2811.33
2811.23
2811.13
2811.02
2810.92
2810.82
2810.71
2810.61
2810.51
2810.41
2810.32
2810.22
2810.13
2810.05
2809.96
2809.89
2809.81
2809.74
2809.67
2809.62
2809.55
2809.52
2809.47
2809.45
2809.39
2809.38
2809.39
2809.19
2809.14
2809.58
2809.48
2808.83
2808.71
2808.95
2809.31
2809.48
2809.43
2809.23
2808.98
2808.8
2808.44
2808.35
2808.27
2808.18
2808.1
2808.01
2807.92
2807.84
2807.75
2807.67
2807.59
2807.52
2807.45
2807.39
2807.33
2807.28
2807.24
2807.19
2807.15
2807.1
2807.08
2807.03
2807.01
2806.97
2806.94
2806.92
2806.87
2806.87
2806.86
2806.79
2806.67
2806.96
2807.09
2806.62
2806.3
2806.51
2806.83
2807.03
2807.01
2806.84
2806.58
2806.41
2805.62
2805.55
2805.48
2805.41
2805.34
2805.29
2805.24
2805.21
2805.18
2805.16
2805.14
2805.12
2805.1
2805.09
2805.07
2805.05
2805.03
2805.01
2804.98
2804.97
2804.94
2804.92
2804.88
2804.86
2804.82
2804.81
2804.78
2804.77
2804.76
2804.72
2804.67
2804.76
2804.85
2804.53
2804.43
2804.74
2804.95
2804.88
2804.62
2804.5
2804.48
2804.5
2803.5
2803.5
2803.51
2803.52
2803.52
2803.53
2803.52
2803.52
2803.5
2803.48
2803.46
2803.45
2803.43
2803.41
2803.4
2803.38
2803.37
2803.34
2803.34
2803.3
2803.32
2803.29
2803.31
2803.28
2803.29
2803.27
2803.27
2803.27
2803.26
2803.26
2803.21
2803.3
2803.32
2803.12
2803.03
2803.33
2803.54
2803.38
2803.07
2803
2803.03
2803.17
2802.13
2802.15
2802.15
2802.16
2802.17
2802.18
2802.18
2802.19
2802.19
2802.2
2802.2
2802.2
2802.2
2802.2
2802.19
2802.19
2802.19
2802.19
2802.21
2802.2
2802.23
2802.2
2802.24
2802.21
2802.25
2802.21
2802.26
2802.22
2802.26
2802.23
2802.27
2802.22
2802.25
2802.33
2802.26
2802.06
2802.18
2802.45
2802.5
2802.31
2802.09
2802.08
2800.9
2800.92
2800.95
2800.97
2800.98
2801
2801.01
2801.02
2801.03
2801.05
2801.07
2801.09
2801.12
2801.14
2801.17
2801.19
2801.21
2801.23
2801.24
2801.26
2801.26
2801.28
2801.28
2801.31
2801.3
2801.32
2801.32
2801.34
2801.34
2801.36
2801.35
2801.37
2801.39
2801.37
2801.31
2801.46
2801.57
2801.34
2801.15
2801.3
2801.51
2801.58
2799.83
2799.88
2799.93
2799.98
2800.04
2800.09
2800.14
2800.2
2800.24
2800.29
2800.32
2800.35
2800.38
2800.4
2800.43
2800.45
2800.47
2800.49
2800.51
2800.54
2800.54
2800.57
2800.58
2800.61
2800.61
2800.64
2800.64
2800.66
2800.67
2800.68
2800.69
2800.71
2800.73
2800.71
2800.67
2800.79
2800.94
2800.7
2800.48
2800.67
2800.98
2801.05
2799.08
2799.15
2799.22
2799.28
2799.34
2799.39
2799.44
2799.48
2799.53
2799.57
2799.61
2799.65
2799.68
2799.72
2799.75
2799.78
2799.81
2799.84
2799.87
2799.9
2799.92
2799.95
2799.97
2800
2800.01
2800.04
2800.05
2800.08
2800.08
2800.11
2800.12
2800.14
2800.15
2800.16
2800.19
2800.2
2800.13
2800.21
2800.4
2800.26
2800.02
2800.12
2798.58
2798.66
2798.74
2798.81
2798.88
2798.94
2799
2799.06
2799.12
2799.17
2799.23
2799.28
2799.33
2799.37
2799.42
2799.46
2799.5
2799.54
2799.58
2799.61
2799.64
2799.66
2799.7
2799.71
2799.75
2799.76
2799.8
2799.8
2799.84
2799.84
2799.88
2799.88
2799.91
2799.92
2799.95
2799.94
2799.97
2800.05
2799.99
2799.87
2800.05
2800.22
2798.24
2798.33
2798.41
2798.49
2798.56
2798.63
2798.69
2798.76
2798.82
2798.87
2798.93
2798.98
2799.03
2799.09
2799.13
2799.17
2799.22
2799.26
2799.31
2799.35
2799.4
2799.43
2799.49
2799.51
2799.56
2799.57
2799.61
2799.62
2799.66
2799.67
2799.7
2799.71
2799.74
2799.76
2799.78
2799.8
2799.81
2799.82
2799.87
2799.88
2799.79
2799.89
2798.08
2798.18
2798.27
2798.35
2798.43
2798.51
2798.59
2798.66
2798.72
2798.79
2798.85
2798.91
2798.96
2799.02
2799.07
2799.11
2799.16
2799.2
2799.24
2799.29
2799.31
2799.36
2799.38
2799.42
2799.44
2799.49
2799.51
2799.56
2799.58
2799.62
2799.64
2799.67
2799.69
2799.72
2799.74
2799.76
2799.78
2799.79
2799.82
2799.83
2799.84
2799.85
2798.48
2798.57
2798.66
2798.74
2798.83
2798.91
2798.98
2799.06
2799.12
2799.19
2799.25
2799.31
2799.36
2799.41
2799.46
2799.5
2799.55
2799.59
2799.63
2799.67
2799.7
2799.73
2799.77
2799.79
2799.83
2799.84
2799.86
2799.88
2799.91
2799.92
2799.96
2799.97
2800
2800.02
2800.05
2800.06
2800.09
2800.1
2800.12
2800.13
2800.15
2800.16
2798.76
2798.88
2798.98
2799.08
2799.18
2799.27
2799.36
2799.45
2799.53
2799.62
2799.69
2799.77
2799.84
2799.91
2799.97
2800.03
2800.09
2800.14
2800.2
2800.25
2800.3
2800.34
2800.38
2800.42
2800.46
2800.49
2800.54
2800.56
2800.59
2800.59
2800.62
2800.61
2800.64
2800.63
2800.66
2800.65
2800.67
2800.67
2800.68
2800.69
2800.7
2800.7
2799.06
2799.17
2799.28
2799.38
2799.47
2799.56
2799.64
2799.72
2799.79
2799.86
2799.93
2799.99
2800.05
2800.1
2800.15
2800.21
2800.25
2800.3
2800.34
2800.37
2800.42
2800.44
2800.49
2800.51
2800.55
2800.57
2800.61
2800.62
2800.66
2800.67
2800.72
2800.72
2800.77
2800.77
2800.81
2800.81
2800.85
2800.85
2800.88
2800.88
2800.9
2800.91
2799.32
2799.43
2799.53
2799.62
2799.71
2799.79
2799.87
2799.94
2800.01
2800.08
2800.14
2800.2
2800.26
2800.31
2800.36
2800.41
2800.46
2800.51
2800.55
2800.59
2800.64
2800.67
2800.71
2800.74
2800.78
2800.81
2800.84
2800.87
2800.9
2800.93
2800.96
2800.98
2801.01
2801.03
2801.05
2801.07
2801.09
2801.11
2801.12
2801.15
2801.15
2801.18
2799.48
2799.59
2799.69
2799.79
2799.88
2799.97
2800.05
2800.13
2800.21
2800.28
2800.35
2800.41
2800.47
2800.53
2800.59
2800.64
2800.69
2800.74
2800.78
2800.83
2800.86
2800.91
2800.94
2800.98
2801.01
2801.04
2801.07
2801.1
2801.13
2801.15
2801.18
2801.2
2801.23
2801.25
2801.27
2801.29
2801.31
2801.32
2801.34
2801.35
2801.37
2801.38
2799.59
2799.7
2799.81
2799.91
2800.01
2800.11
2800.19
2800.28
2800.36
2800.43
2800.5
2800.57
2800.63
2800.69
2800.74
2800.8
2800.85
2800.9
2800.95
2800.99
2801.03
2801.07
2801.11
2801.14
2801.18
2801.21
2801.24
2801.27
2801.3
2801.33
2801.35
2801.38
2801.39
2801.42
2801.43
2801.46
2801.47
2801.49
2801.51
2801.52
2801.51
2801.55
2799.63
2799.74
2799.86
2799.96
2800.06
2800.16
2800.25
2800.34
2800.42
2800.49
2800.57
2800.64
2800.7
2800.76
2800.83
2800.89
2800.93
2800.99
2801.03
2801.09
2801.12
2801.17
2801.2
2801.25
2801.27
2801.32
2801.34
2801.38
2801.4
2801.43
2801.45
2801.48
2801.5
2801.52
2801.54
2801.55
2801.58
2801.61
2801.57
2801.58
2801.74
2801.7
2799.57
2799.69
2799.81
2799.92
2800.03
2800.13
2800.23
2800.32
2800.4
2800.49
2800.56
2800.64
2800.71
2800.78
2800.84
2800.9
2800.96
2801.01
2801.07
2801.11
2801.17
2801.19
2801.25
2801.27
2801.33
2801.34
2801.39
2801.4
2801.45
2801.46
2801.5
2801.51
2801.54
2801.56
2801.58
2801.61
2801.64
2801.58
2801.59
2801.81
2801.8
2801.48
2799.35
2799.49
2799.62
2799.74
2799.86
2799.97
2800.07
2800.17
2800.27
2800.36
2800.44
2800.52
2800.6
2800.67
2800.73
2800.8
2800.86
2800.93
2800.97
2801.03
2801.07
2801.12
2801.15
2801.21
2801.23
2801.28
2801.3
2801.35
2801.36
2801.4
2801.42
2801.45
2801.48
2801.48
2801.51
2801.57
2801.56
2801.45
2801.62
2801.85
2801.63
2801.35
2798.97
2799.11
2799.25
2799.38
2799.51
2799.63
2799.74
2799.84
2799.94
2800.04
2800.13
2800.22
2800.3
2800.38
2800.46
2800.52
2800.6
2800.65
2800.72
2800.76
2800.83
2800.86
2800.92
2800.95
2801.01
2801.04
2801.09
2801.11
2801.15
2801.18
2801.21
2801.23
2801.27
2801.31
2801.29
2801.29
2801.43
2801.47
2801.24
2801.23
2801.48
2801.65
2798.48
2798.64
2798.78
2798.92
2799.06
2799.18
2799.31
2799.42
2799.53
2799.63
2799.74
2799.83
2799.92
2800.01
2800.09
2800.17
2800.23
2800.31
2800.36
2800.44
2800.48
2800.55
2800.59
2800.66
2800.68
2800.74
2800.77
2800.82
2800.84
2800.88
2800.91
2800.95
2800.95
2800.98
2801.08
2801.08
2800.92
2800.98
2801.23
2801.32
2801.2
2801.03
2797.91
2798.08
2798.23
2798.39
2798.53
2798.67
2798.81
2798.93
2799.05
2799.17
2799.28
2799.38
2799.48
2799.56
2799.65
2799.72
2799.81
2799.87
2799.95
2800
2800.08
2800.12
2800.2
2800.23
2800.3
2800.33
2800.39
2800.41
2800.46
2800.48
2800.52
2800.58
2800.58
2800.51
2800.64
2800.85
2800.75
2800.53
2800.54
2800.65
2800.81
2800.92
2797.42
2797.59
2797.75
2797.9
2798.05
2798.19
2798.31
2798.43
2798.55
2798.66
2798.76
2798.86
2798.94
2799.04
2799.11
2799.21
2799.27
2799.36
2799.41
2799.5
2799.54
2799.62
2799.66
2799.73
2799.76
2799.82
2799.85
2799.89
2799.93
2799.99
2799.97
2799.94
2800.11
2800.27
2800.1
2799.92
2799.98
2800.13
2800.31
2800.41
2800.38
2800.29
2796.91
2797.07
2797.22
2797.36
2797.5
2797.63
2797.76
2797.87
2797.99
2798.1
2798.2
2798.3
2798.39
2798.49
2798.56
2798.66
2798.72
2798.81
2798.86
2798.94
2798.99
2799.06
2799.1
2799.16
2799.2
2799.26
2799.28
2799.3
2799.39
2799.48
2799.33
2799.28
2799.58
2799.78
2799.64
2799.43
2799.39
2799.42
2799.55
2799.74
2799.86
2799.88
2796.4
2796.56
2796.71
2796.86
2796.99
2797.13
2797.25
2797.37
2797.49
2797.58
2797.71
2797.78
2797.9
2797.95
2798.07
2798.11
2798.22
2798.25
2798.36
2798.38
2798.47
2798.5
2798.58
2798.6
2798.66
2798.69
2798.77
2798.77
2798.7
2798.85
2799.08
2798.94
2798.7
2798.77
2798.93
2799.12
2799.23
2799.21
2799.13
2799.03
2798.98
2798.98
2795.98
2796.14
2796.28
2796.42
2796.56
2796.68
2796.8
2796.92
2797.02
2797.14
2797.22
2797.33
2797.4
2797.5
2797.56
2797.65
2797.71
2797.79
2797.84
2797.9
2797.96
2798.01
2798.05
2798.1
2798.15
2798.18
2798.16
2798.27
2798.44
2798.27
2798.08
2798.27
2798.54
2798.66
2798.61
2798.44
2798.37
2798.33
2798.37
2798.46
2798.61
2798.73
2795.66
2795.8
2795.94
2796.07
2796.2
2796.32
2796.44
2796.54
2796.64
2796.74
2796.83
2796.91
2796.99
2797.07
2797.14
2797.22
2797.27
2797.34
2797.39
2797.45
2797.49
2797.55
2797.58
2797.62
2797.65
2797.74
2797.77
2797.64
2797.74
2798.03
2798
2797.76
2797.74
2797.78
2797.92
2798.06
2798.13
2798.14
2798.08
2798.02
2797.97
2797.96
2795.41
2795.54
2795.66
2795.78
2795.9
2796.01
2796.11
2796.2
2796.29
2796.37
2796.46
2796.53
2796.61
2796.67
2796.75
2796.8
2796.88
2796.91
2796.98
2797.02
2797.07
2797.11
2797.16
2797.15
2797.23
2797.37
2797.25
2797.05
2797.34
2797.68
2797.61
2797.35
2797.22
2797.21
2797.33
2797.52
2797.69
2797.75
2797.73
2797.65
2797.54
2797.46
2795.24
2795.36
2795.47
2795.58
2795.68
2795.78
2795.86
2795.96
2796.02
2796.12
2796.17
2796.26
2796.3
2796.39
2796.42
2796.51
2796.53
2796.6
2796.62
2796.69
2796.7
2796.75
2796.76
2796.85
2796.9
2796.77
2796.75
2797.1
2797.21
2796.97
2796.81
2796.8
2796.89
2797.06
2797.22
2797.28
2797.26
2797.17
2797.08
2797.01
2796.97
2796.98
2795.14
2795.25
2795.34
2795.44
2795.53
2795.61
2795.7
2795.76
2795.85
2795.89
2795.98
2796.01
2796.1
2796.12
2796.2
2796.22
2796.29
2796.3
2796.36
2796.38
2796.44
2796.43
2796.43
2796.54
2796.68
2796.42
2796.33
2796.65
2796.89
2796.82
2796.62
2796.54
2796.5
2796.55
2796.67
2796.81
2796.89
2796.91
2796.87
2796.82
2796.75
2796.69
2795.07
2795.16
2795.25
2795.33
2795.4
2795.48
2795.54
2795.61
2795.65
2795.72
2795.76
2795.82
2795.85
2795.91
2795.94
2795.98
2796.01
2796.04
2796.07
2796.1
2796.14
2796.19
2796.11
2796.06
2796.33
2796.47
2796.21
2796.08
2796.1
2796.24
2796.4
2796.48
2796.47
2796.4
2796.31
2796.26
2796.24
2796.24
2796.29
2796.36
2796.44
2796.5
2795.02
2795.1
2795.17
2795.23
2795.29
2795.35
2795.4
2795.45
2795.49
2795.53
2795.57
2795.61
2795.64
2795.68
2795.7
2795.74
2795.75
2795.78
2795.8
2795.79
2795.79
2795.99
2795.96
2795.59
2795.67
2796.03
2796.18
2796.09
2795.93
2795.81
2795.77
2795.8
2795.88
2795.99
2796.08
2796.12
2796.11
2796.07
2796.02
2795.96
2795.9
2795.87
2794.9
2794.96
2795.02
2795.07
2795.12
2795.16
2795.2
2795.23
2795.27
2795.3
2795.34
2795.36
2795.39
2795.4
2795.42
2795.45
2795.46
2795.44
2795.52
2795.54
2795.32
2795.42
2795.8
2795.73
2795.45
2795.35
2795.32
2795.43
2795.58
2795.68
2795.71
2795.68
2795.61
2795.54
2795.47
2795.42
2795.41
2795.44
2795.5
2795.58
2795.66
2795.72
2794.62
2794.67
2794.71
2794.74
2794.77
2794.8
2794.83
2794.86
2794.88
2794.9
2794.92
2794.94
2794.96
2794.96
2794.98
2794.99
2794.95
2794.94
2795.2
2795.09
2794.59
2794.74
2795.16
2795.34
2795.23
2794.99
2794.83
2794.77
2794.78
2794.89
2795.04
2795.17
2795.23
2795.22
2795.15
2795.05
2794.94
2794.85
2794.79
2794.77
2794.78
2794.83
2794.18
2794.21
2794.22
2794.25
2794.26
2794.3
2794.29
2794.33
2794.32
2794.36
2794.33
2794.37
2794.35
2794.36
2794.38
2794.44
2794.17
2794.15
2794.74
2794.68
2794.1
2794.03
2794.05
2794.29
2794.52
2794.58
2794.51
2794.39
2794.23
2794.12
2794.06
2794.06
2794.13
2794.23
2794.33
2794.42
2794.46
2794.46
2794.43
2794.38
2794.31
2794.24
2793.58
2793.56
2793.6
2793.57
2793.62
2793.59
2793.63
2793.61
2793.62
2793.63
2793.6
2793.63
2793.58
2793.62
2793.54
2793.63
2793.56
2793.52
2793.51
2793.56
2793.57
2793.53
2793.5
2793.51
2793.48
2793.48
2793.47
2793.45
2793.44
2793.43
2793.42
2793.42
2793.43
2793.44
2793.45
2793.46
2793.46
2793.46
2793.44
2793.42
2793.39
2793.36
2792.83
2792.81
2792.84
2792.81
2792.85
2792.8
2792.84
2792.8
2792.81
2792.77
2792.8
2792.77
2792.69
2792.75
2792.91
2792.54
2792.42
2792.67
2792.83
2792.85
2792.75
2792.6
2792.51
2792.41
2792.42
2792.45
2792.55
2792.63
2792.69
2792.7
2792.68
2792.61
2792.53
2792.45
2792.37
2792.31
2792.28
2792.27
2792.28
2792.31
2792.35
2792.4
2791.92
2791.92
2791.9
2791.89
2791.88
2791.85
2791.85
2791.82
2791.82
2791.74
2791.81
2791.75
2791.56
2791.61
2792.02
2791.81
2791.5
2791.35
2791.38
2791.52
2791.65
2791.75
2791.72
2791.64
2791.5
2791.39
2791.29
2791.25
2791.25
2791.3
2791.37
2791.45
2791.51
2791.55
2791.56
2791.55
2791.51
2791.47
2791.42
2791.36
2791.31
2791.26
2790.94
2790.92
2790.91
2790.89
2790.87
2790.83
2790.79
2790.82
2790.81
2790.63
2790.57
2791
2790.71
2790.19
2790.37
2790.63
2790.83
2790.79
2790.63
2790.49
2790.28
2790.21
2790.16
2790.23
2790.32
2790.43
2790.49
2790.52
2790.49
2790.44
2790.36
2790.28
2790.2
2790.13
2790.08
2790.05
2790.03
2790.03
2790.04
2790.07
2790.1
2790.13
2789.76
2789.7
2789.7
2789.65
2789.61
2789.57
2789.58
2789.51
2789.37
2789.75
2789.69
2788.76
2788.79
2789.49
2789.98
2789.83
2789.46
2789.15
2788.91
2788.72
2788.79
2788.94
2789.21
2789.41
2789.52
2789.5
2789.39
2789.22
2789.02
2788.82
2788.67
2788.55
2788.5
2788.51
2788.57
2788.67
2788.8
2788.93
2789.05
2789.17
2789.26
2789.33
2788.64
2788.61
2788.57
2788.57
2788.52
2788.4
2788.34
2788.68
2788.53
2787.67
2788.09
2788.82
2788.71
2788.25
2787.96
2787.76
2787.67
2787.83
2788.04
2788.24
2788.33
2788.28
2788.16
2787.98
2787.8
2787.64
2787.54
2787.49
2787.5
2787.56
2787.65
2787.75
2787.84
2787.91
2787.96
2787.98
2787.98
2787.96
2787.92
2787.87
2787.8
2787.73
2787.46
2787.4
2787.4
2787.3
2787.19
2787.25
2787.57
2786.82
2786.44
2787.51
2787.96
2787.37
2786.57
2786.35
2786.32
2786.46
2786.81
2787.14
2787.31
2787.29
2787.11
2786.83
2786.54
2786.29
2786.13
2786.08
2786.13
2786.26
2786.45
2786.65
2786.83
2786.97
2787.06
2787.09
2787.07
2787
2786.9
2786.78
2786.64
2786.5
2786.36
2786.22
2786.26
2786.23
2786.17
2786.25
2786.03
2785.68
2786.18
2786.59
2785.54
2785.25
2785.46
2785.87
2786.1
2786.02
2785.84
2785.63
2785.48
2785.37
2785.34
2785.35
2785.39
2785.44
2785.49
2785.49
2785.48
2785.45
2785.41
2785.36
2785.32
2785.28
2785.25
2785.22
2785.19
2785.16
2785.13
2785.11
2785.08
2785.06
2785.04
2785.02
2785.01
2785
2785.08
2785.03
2784.89
2784.79
2785.19
2784.88
2784.06
2784.47
2785.07
2784.87
2784.62
2784.33
2784.21
2784.16
2784.16
2784.25
2784.26
2784.3
2784.25
2784.2
2784.11
2784.05
2783.98
2783.93
2783.88
2783.85
2783.83
2783.82
2783.82
2783.82
2783.82
2783.81
2783.81
2783.8
2783.79
2783.77
2783.76
2783.74
2783.72
2783.7
2783.69
2783.67
2783.76
2783.61
2783.57
2783.86
2783.52
2782.86
2783.06
2783.58
2783.53
2783.33
2782.93
2782.73
2782.68
2782.62
2782.76
2782.87
2782.94
2782.94
2782.85
2782.71
2782.54
2782.4
2782.27
2782.2
2782.17
2782.18
2782.21
2782.25
2782.3
2782.35
2782.37
2782.39
2782.38
2782.37
2782.33
2782.29
2782.24
2782.19
2782.13
2782.08
2782.02
2781.97
2782.23
2782.22
2782.19
2782.2
2781.57
2781.59
2781.78
2781.83
2781.72
2781.53
2781.38
2781.21
2781.17
2781.12
2781.17
2781.19
2781.2
2781.15
2781.06
2780.96
2780.84
2780.74
2780.65
2780.6
2780.57
2780.56
2780.57
2780.59
2780.6
2780.61
2780.61
2780.61
2780.59
2780.56
2780.52
2780.48
2780.43
2780.38
2780.34
2780.29
2780.24
2780.2
2780.58
2780.64
2780.41
2780.31
2780.08
2780.05
2780.04
2779.96
2779.9
2779.75
2779.71
2779.56
2779.55
2779.45
2779.43
2779.36
2779.33
2779.26
2779.2
2779.14
2779.07
2779.01
2778.95
2778.91
2778.87
2778.83
2778.8
2778.78
2778.75
2778.72
2778.7
2778.67
2778.64
2778.61
2778.58
2778.55
2778.52
2778.49
2778.46
2778.43
2778.41
2778.38
2779.05
2778.79
2778.77
2778.45
2778.48
2778.33
2778.24
2778.13
2778.06
2777.94
2777.89
2777.77
2777.72
2777.62
2777.56
2777.47
2777.42
2777.34
2777.29
2777.23
2777.17
2777.12
2777.07
2777.03
2776.98
2776.94
2776.9
2776.86
2776.82
2776.78
2776.75
2776.72
2776.68
2776.65
2776.62
2776.6
2776.57
2776.54
2776.52
2776.5
2776.47
2776.45
2777.19
2776.82
2776.9
2776.78
2776.61
2776.56
2776.39
2776.31
2776.19
2776.08
2775.99
2775.88
2775.8
2775.7
2775.63
2775.54
2775.47
2775.4
2775.33
2775.26
2775.2
2775.14
2775.09
2775.03
2774.98
2774.93
2774.89
2774.84
2774.8
2774.76
2774.73
2774.69
2774.66
2774.63
2774.6
2774.58
2774.55
2774.52
2774.5
2774.48
2774.46
2774.43
2775.27
2775.12
2774.92
2774.9
2774.64
2774.61
2774.43
2774.35
2774.24
2774.14
2774.05
2773.94
2773.86
2773.76
2773.67
2773.58
2773.5
2773.42
2773.34
2773.26
2773.19
2773.12
2773.05
2772.99
2772.93
2772.88
2772.82
2772.78
2772.73
2772.69
2772.65
2772.62
2772.58
2772.55
2772.52
2772.49
2772.47
2772.44
2772.41
2772.39
2772.37
2772.34
2773.25
2773.22
2772.93
2772.9
2772.68
2772.59
2772.45
2772.34
2772.24
2772.13
2772.03
2771.93
2771.83
2771.73
2771.64
2771.55
2771.46
2771.37
2771.29
2771.21
2771.14
2771.07
2771
2770.93
2770.87
2770.82
2770.76
2770.71
2770.66
2770.62
2770.58
2770.53
2770.5
2770.46
2770.42
2770.39
2770.36
2770.33
2770.3
2770.27
2770.25
2770.22
2771.33
2771.25
2771.01
2770.87
2770.72
2770.58
2770.45
2770.32
2770.21
2770.09
2769.98
2769.87
2769.77
2769.66
2769.57
2769.47
2769.38
2769.29
2769.2
2769.11
2769.03
2768.96
2768.89
2768.82
2768.76
2768.7
2768.64
2768.59
2768.54
2768.5
2768.46
2768.42
2768.39
2768.35
2768.32
2768.29
2768.26
2768.24
2768.21
2768.19
2768.16
2768.14
2769.3
2769.14
2769.01
2768.85
2768.72
2768.57
2768.43
2768.29
2768.14
2768
2767.86
2767.73
2767.61
2767.5
2767.39
2767.3
2767.21
2767.12
2767.05
2766.97
2766.91
2766.84
2766.78
2766.72
2766.67
2766.62
2766.57
2766.52
2766.47
2766.43
2766.39
2766.35
2766.31
2766.28
2766.24
2766.21
2766.18
2766.15
2766.12
2766.09
2766.06
2766.03
2767.29
2767.15
2767.02
2766.86
2766.71
2766.53
2766.36
2766.18
2766.02
2765.86
2765.72
2765.59
2765.48
2765.38
2765.29
2765.21
2765.14
2765.07
2765
2764.93
2764.87
2764.8
2764.74
2764.68
2764.62
2764.56
2764.5
2764.44
2764.39
2764.33
2764.28
2764.23
2764.19
2764.14
2764.1
2764.06
2764.03
2763.99
2763.96
2763.92
2763.89
2763.86
2765.47
2765.33
2765.15
2764.91
2764.66
2764.41
2764.16
2763.94
2763.75
2763.6
2763.48
2763.39
2763.32
2763.27
2763.23
2763.2
2763.16
2763.13
2763.08
2763.03
2762.98
2762.91
2762.85
2762.77
2762.7
2762.62
2762.54
2762.47
2762.39
2762.32
2762.25
2762.18
2762.12
2762.05
2762
2761.94
2761.89
2761.84
2761.8
2761.75
2761.71
2761.67
2763.78
2763.53
2763.19
2762.8
2762.41
2762.06
2761.77
2761.55
2761.39
2761.31
2761.27
2761.28
2761.31
2761.36
2761.4
2761.43
2761.44
2761.44
2761.41
2761.36
2761.29
2761.21
2761.12
2761.01
2760.9
2760.78
2760.67
2760.55
2760.44
2760.32
2760.22
2760.11
2760.01
2759.92
2759.83
2759.75
2759.67
2759.6
2759.53
2759.47
2759.41
2759.35
2761.58
2761.22
2760.83
2760.47
2760.16
2759.91
2759.74
2759.63
2759.57
2759.56
2759.57
2759.6
2759.62
2759.63
2759.62
2759.59
2759.53
2759.45
2759.36
2759.25
2759.12
2758.99
2758.85
2758.71
2758.57
2758.43
2758.3
2758.17
2758.05
2757.94
2757.83
2757.73
2757.64
2757.56
2757.48
2757.41
2757.35
2757.29
2757.24
2757.19
2757.15
2757.11
2759.2
2758.92
2758.69
2758.49
2758.34
2758.22
2758.12
2758.04
2757.97
2757.89
2757.81
2757.72
2757.61
2757.5
2757.37
2757.24
2757.1
2756.96
2756.82
2756.69
2756.55
2756.43
2756.31
2756.19
2756.09
2755.99
2755.91
2755.83
2755.76
2755.69
2755.64
2755.59
2755.54
2755.5
2755.47
2755.44
2755.41
2755.39
2755.37
2755.35
2755.34
2755.32
2757.08
2756.8
2756.58
2756.4
2756.28
2756.17
2756.09
2756
2755.91
2755.82
2755.71
2755.59
2755.46
2755.32
2755.18
2755.04
2754.9
2754.76
2754.62
2754.5
2754.38
2754.27
2754.16
2754.07
2753.98
2753.91
2753.84
2753.77
2753.72
2753.67
2753.62
2753.58
2753.55
2753.52
2753.49
2753.46
2753.44
2753.42
2753.4
2753.38
2753.36
2753.35
2754.92
2754.62
2754.39
2754.23
2754.11
2754.04
2753.97
2753.92
2753.85
2753.77
2753.68
2753.57
2753.45
2753.31
2753.17
2753.03
2752.88
2752.73
2752.59
2752.45
2752.32
2752.19
2752.08
2751.97
2751.87
2751.78
2751.69
2751.61
2751.54
2751.47
2751.41
2751.36
2751.31
2751.26
2751.22
2751.18
2751.15
2751.12
2751.09
2751.06
2751.04
2751.01
2752.89
2752.64
2752.45
2752.31
2752.2
2752.11
2752.02
2751.93
2751.83
2751.71
2751.58
2751.44
2751.29
2751.14
2750.98
2750.82
2750.66
2750.51
2750.35
2750.21
2750.07
2749.95
2749.83
2749.71
2749.61
2749.52
2749.43
2749.35
2749.27
2749.2
2749.14
2749.09
2749.04
2748.99
2748.95
2748.91
2748.87
2748.84
2748.81
2748.78
2748.76
2748.73
2751.11
2750.88
2750.67
2750.47
2750.28
2750.09
2749.92
2749.73
2749.56
2749.38
2749.21
2749.04
2748.87
2748.71
2748.56
2748.42
2748.28
2748.15
2748.03
2747.92
2747.82
2747.72
2747.63
2747.55
2747.47
2747.39
2747.33
2747.26
2747.2
2747.15
2747.1
2747.05
2747
2746.96
2746.92
2746.88
2746.84
2746.81
2746.77
2746.74
2746.71
2746.68
2749.34
2749.05
2748.75
2748.46
2748.17
2747.89
2747.63
2747.38
2747.16
2746.96
2746.78
2746.62
2746.47
2746.35
2746.23
2746.13
2746.04
2745.95
2745.88
2745.8
2745.73
2745.67
2745.6
2745.54
2745.48
2745.41
2745.36
2745.3
2745.24
2745.19
2745.13
2745.08
2745.03
2744.98
2744.94
2744.89
2744.85
2744.8
2744.76
2744.72
2744.68
2744.64
2747.18
2746.83
2746.49
2746.17
2745.88
2745.62
2745.39
2745.18
2745
2744.84
2744.7
2744.57
2744.46
2744.35
2744.25
2744.16
2744.07
2743.99
2743.9
2743.81
2743.73
2743.65
2743.57
2743.49
2743.41
2743.33
2743.25
2743.17
2743.1
2743.03
2742.96
2742.89
2742.82
2742.76
2742.69
2742.63
2742.58
2742.52
2742.47
2742.42
2742.36
2742.31
2744.91
2744.56
2744.25
2743.99
2743.78
2743.6
2743.44
2743.31
2743.18
2743.06
2742.95
2742.83
2742.7
2742.58
2742.45
2742.31
2742.18
2742.04
2741.91
2741.77
2741.64
2741.51
2741.38
2741.26
2741.14
2741.03
2740.92
2740.82
2740.72
2740.63
2740.55
2740.46
2740.39
2740.31
2740.24
2740.18
2740.12
2740.06
2740.01
2739.96
2739.91
2739.86
2742.96
2742.68
2742.45
2742.26
2742.09
2741.94
2741.79
2741.64
2741.48
2741.32
2741.16
2740.98
2740.8
2740.62
2740.44
2740.26
2740.08
2739.9
2739.73
2739.57
2739.41
2739.26
2739.12
2738.99
2738.87
2738.75
2738.65
2738.55
2738.46
2738.37
2738.3
2738.22
2738.16
2738.1
2738.04
2737.99
2737.94
2737.9
2737.86
2737.82
2737.78
2737.75
2741.47
2741.26
2741.06
2740.84
2740.62
2740.38
2740.14
2739.89
2739.63
2739.38
2739.13
2738.89
2738.66
2738.44
2738.23
2738.04
2737.87
2737.7
2737.55
2737.41
2737.29
2737.17
2737.07
2736.97
2736.89
2736.81
2736.74
2736.67
2736.61
2736.56
2736.5
2736.46
2736.41
2736.37
2736.34
2736.3
2736.27
2736.24
2736.21
2736.18
2736.16
2736.13
2740.09
2739.85
2739.59
2739.29
2738.97
2738.65
2738.32
2737.99
2737.68
2737.38
2737.11
2736.86
2736.63
2736.43
2736.25
2736.09
2735.95
2735.83
2735.73
2735.64
2735.56
2735.49
2735.43
2735.37
2735.32
2735.27
2735.23
2735.19
2735.15
2735.11
2735.08
2735.04
2735.01
2734.98
2734.95
2734.92
2734.89
2734.86
2734.83
2734.8
2734.77
2734.73
2738.55
2738.22
2737.87
2737.51
2737.15
2736.8
2736.46
2736.15
2735.86
2735.59
2735.36
2735.15
2734.97
2734.81
2734.67
2734.55
2734.45
2734.36
2734.28
2734.2
2734.14
2734.08
2734.03
2733.97
2733.92
2733.88
2733.83
2733.78
2733.73
2733.69
2733.64
2733.59
2733.53
2733.48
2733.43
2733.38
2733.33
2733.28
2733.24
2733.19
2733.14
2733.1
2736.87
2736.49
2736.11
2735.75
2735.41
2735.09
2734.8
2734.53
2734.29
2734.08
2733.89
2733.72
2733.57
2733.43
2733.31
2733.2
2733.09
2733
2732.91
2732.83
2732.75
2732.67
2732.59
2732.51
2732.44
2732.36
2732.28
2732.21
2732.14
2732.06
2732
2731.93
2731.86
2731.8
2731.74
2731.68
2731.62
2731.56
2731.51
2731.45
2731.4
2731.34
2735.23
2734.85
2734.5
2734.18
2733.88
2733.62
2733.37
2733.15
2732.95
2732.76
2732.58
2732.41
2732.25
2732.1
2731.96
2731.83
2731.7
2731.57
2731.45
2731.33
2731.21
2731.1
2730.99
2730.89
2730.78
2730.69
2730.59
2730.5
2730.41
2730.33
2730.25
2730.17
2730.09
2730.02
2729.95
2729.89
2729.82
2729.76
2729.71
2729.65
2729.59
2729.54
2733.74
2733.39
2733.07
2732.79
2732.53
2732.3
2732.08
2731.87
2731.67
2731.47
2731.28
2731.09
2730.9
2730.72
2730.54
2730.37
2730.2
2730.04
2729.88
2729.73
2729.58
2729.44
2729.31
2729.19
2729.07
2728.96
2728.85
2728.75
2728.66
2728.57
2728.49
2728.41
2728.33
2728.26
2728.2
2728.13
2728.07
2728.02
2727.97
2727.92
2727.87
2727.82
2732.48
2732.13
2731.82
2731.54
2731.28
2731.04
2730.81
2730.58
2730.35
2730.13
2729.91
2729.68
2729.46
2729.25
2729.04
2728.84
2728.64
2728.45
2728.27
2728.1
2727.94
2727.79
2727.65
2727.52
2727.4
2727.28
2727.17
2727.07
2726.98
2726.89
2726.81
2726.74
2726.67
2726.6
2726.54
2726.48
2726.43
2726.38
2726.33
2726.29
2726.25
2726.2
2731.42
2731.06
2730.72
2730.41
2730.12
2729.84
2729.56
2729.29
2729.03
2728.77
2728.51
2728.26
2728.02
2727.78
2727.55
2727.34
2727.13
2726.94
2726.75
2726.58
2726.42
2726.26
2726.12
2725.99
2725.87
2725.76
2725.65
2725.55
2725.46
2725.38
2725.3
2725.23
2725.16
2725.1
2725.04
2724.98
2724.93
2724.89
2724.84
2724.8
2724.76
2724.72
2730.57
2730.16
2729.77
2729.41
2729.06
2728.73
2728.4
2728.08
2727.78
2727.48
2727.2
2726.93
2726.67
2726.42
2726.18
2725.96
2725.75
2725.56
2725.38
2725.2
2725.04
2724.9
2724.76
2724.63
2724.51
2724.4
2724.29
2724.2
2724.11
2724.02
2723.94
2723.87
2723.8
2723.74
2723.68
2723.62
2723.57
2723.52
2723.47
2723.43
2723.39
2723.34
2729.92
2729.45
2729.01
2728.58
2728.18
2727.79
2727.41
2727.06
2726.72
2726.39
2726.09
2725.79
2725.52
2725.26
2725.02
2724.8
2724.59
2724.39
2724.21
2724.04
2723.88
2723.73
2723.59
2723.46
2723.34
2723.22
2723.12
2723.02
2722.93
2722.84
2722.76
2722.68
2722.6
2722.54
2722.47
2722.41
2722.35
2722.3
2722.24
2722.19
2722.15
2722.1
2729.49
2728.96
2728.45
2727.97
2727.5
2727.07
2726.65
2726.26
2725.89
2725.54
2725.21
2724.9
2724.61
2724.34
2724.09
2723.86
2723.64
2723.43
2723.24
2723.07
2722.9
2722.74
2722.6
2722.46
2722.33
2722.21
2722.1
2721.99
2721.89
2721.79
2721.7
2721.61
2721.53
2721.46
2721.38
2721.31
2721.25
2721.18
2721.13
2721.07
2721.01
2720.96
2729.3
2728.7
2728.13
2727.59
2727.09
2726.61
2726.15
2725.73
2725.33
2724.95
2724.6
2724.27
2723.97
2723.68
2723.41
2723.16
2722.92
2722.7
2722.5
2722.31
2722.12
2721.95
2721.79
2721.64
2721.5
2721.37
2721.24
2721.12
2721.01
2720.9
2720.8
2720.7
2720.61
2720.52
2720.44
2720.36
2720.29
2720.21
2720.15
2720.08
2720.02
2719.96
2729.34
2728.68
2728.06
2727.47
2726.92
2726.39
2725.9
2725.44
2725.01
2724.61
2724.23
2723.88
2723.54
2723.23
2722.94
2722.67
2722.41
2722.17
2721.94
2721.73
2721.53
2721.34
2721.16
2720.99
2720.83
2720.68
2720.54
2720.4
2720.27
2720.15
2720.04