/*--------------------------------*- C++ -*----------------------------------*\
| =========                 |                                                 |
| \\      /  F ield         | OpenFOAM: The Open Source CFD Toolbox           |
|  \\    /   O peration     | Version:  2412                                  |
|   \\  /    A nd           | Website:  www.openfoam.com                      |
|    \\/     M anipulation  |                                                 |
\*---------------------------------------------------------------------------*/
FoamFile
{
    version     2.0;
    format      ascii;
    arch        "LSB;label=32;scalar=64";
    class       volVectorField;
    location    "0.019";
    object      U;
}
// * * * * * * * * * * * * * * * * * * * * * * * * * * * * * * * * * * * * * //

dimensions      [0 1 -1 0 0 0 0];

internalField   nonuniform List<vector> 
9859
(
(210 -3.65347e-12 0)
(210 -2.73173e-12 0)
(210 -3.56901e-12 0)
(210 -4.55399e-12 0)
(210 -4.63495e-12 0)
(210 -4.27906e-12 0)
(210 -5.10602e-12 0)
(210 -4.89536e-12 0)
(210 -5.96529e-12 0)
(210 -4.98513e-12 0)
(210 -3.58234e-12 0)
(210 -2.79405e-12 0)
(210 -3.28382e-12 0)
(210 -4.44506e-12 0)
(210 -2.28646e-12 0)
(210 -2.71614e-12 0)
(210 -1.23215e-12 0)
(210 -2.81653e-12 0)
(210 -2.25826e-12 0)
(210 -2.29013e-12 0)
(210 -4.472e-12 0)
(210 -3.93061e-13 0)
(210 -1.05185e-12 0)
(210 -2.51886e-12 0)
(210 -3.83322e-13 0)
(210 -4.59835e-13 0)
(210 -3.51098e-13 0)
(210 -1.13255e-12 0)
(210 -1.52236e-12 0)
(210 -2.62253e-12 0)
(210 -1.48953e-12 0)
(210 -2.05682e-12 0)
(210 -1.53849e-12 0)
(210 4.14363e-13 0)
(210 4.07547e-13 0)
(210 -9.78193e-13 0)
(210 -2.31464e-12 0)
(210 -6.3673e-12 0)
(210 -5.02422e-12 0)
(210 -4.23592e-12 0)
(210 -3.3589e-12 0)
(210 -6.92972e-13 0)
(210 4.51367e-13 0)
(210 -4.32107e-13 0)
(210 -1.2624e-12 0)
(210 -9.66485e-13 0)
(210 -1.31521e-10 0)
(210 -1.83348e-08 0)
(210 -4.43836e-07 0)
(210 -2.45643e-06 0)
(210 -2.93002e-06 0)
(210 7.90134e-06 0)
(210 3.23352e-05 0)
(210 5.31263e-05 0)
(209.999 0.000254664 0)
(209.986 0.00342662 0)
(209.916 0.0206802 0)
(209.764 0.0618193 0)
(209.581 0.121336 0)
(209.431 0.187618 0)
(209.339 0.252544 0)
(209.302 0.310711 0)
(209.298 0.355368 0)
(209.392 0.403493 0)
(209.693 0.429956 0)
(210.061 0.447906 0)
(210.344 0.479469 0)
(210.516 0.528761 0)
(210.606 0.590343 0)
(210 -2.94254e-12 0)
(210 -1.85793e-12 0)
(210 -3.67615e-12 0)
(210 -4.21335e-12 0)
(210 -4.2137e-12 0)
(210 -4.22003e-12 0)
(210 -4.47938e-12 0)
(210 -5.03507e-12 0)
(210 -5.39659e-12 0)
(210 -4.59096e-12 0)
(210 -3.97502e-12 0)
(210 -2.5555e-12 0)
(210 -2.46414e-12 0)
(210 -3.51157e-12 0)
(210 -3.55415e-12 0)
(210 -2.17163e-12 0)
(210 -1.49123e-12 0)
(210 -2.10276e-12 0)
(210 -2.51701e-12 0)
(210 -2.39258e-12 0)
(210 -3.66076e-12 0)
(210 -9.56722e-13 0)
(210 -1.6108e-12 0)
(210 -3.27776e-12 0)
(210 -2.4858e-13 0)
(210 -4.49015e-13 0)
(210 7.02409e-13 0)
(210 -3.39955e-13 0)
(210 -1.244e-12 0)
(210 -2.1611e-12 0)
(210 -9.85619e-14 0)
(210 -2.53e-12 0)
(210 -8.90203e-13 0)
(210 3.82059e-13 0)
(210 1.12244e-12 0)
(210 -1.05002e-12 0)
(210 -2.03848e-12 0)
(210 -5.52017e-12 0)
(210 -5.86063e-12 0)
(210 -3.85399e-12 0)
(210 -2.77672e-12 0)
(210 -8.47314e-14 0)
(210 -4.06384e-13 0)
(210 4.32387e-13 0)
(210 -9.1538e-13 0)
(210 -1.11503e-12 0)
(210 -1.35342e-10 0)
(210 -1.84903e-08 0)
(210 -4.40723e-07 0)
(210 -2.39939e-06 0)
(210 -2.7244e-06 0)
(210 8.18598e-06 0)
(210 3.23456e-05 0)
(210 5.29937e-05 0)
(209.999 0.000256386 0)
(209.986 0.00344683 0)
(209.915 0.0207256 0)
(209.763 0.0618188 0)
(209.579 0.121208 0)
(209.427 0.187349 0)
(209.336 0.252172 0)
(209.298 0.310285 0)
(209.295 0.354914 0)
(209.388 0.403149 0)
(209.69 0.43003 0)
(210.057 0.448549 0)
(210.34 0.480608 0)
(210.512 0.530256 0)
(210.601 0.592062 0)
(210.639 0.65952 0)
(210.638 0.74139 0)
(210.552 0.858313 0)
(210.444 0.985409 0)
(210.38 1.1091 0)
(210.366 1.22832 0)
(210.917 3.08015 0)
(211.083 3.41653 0)
(211.238 3.80365 0)
(211.388 4.26556 0)
(211.586 4.80915 0)
(211.892 5.4359 0)
(212.319 6.15657 0)
(212.877 6.99898 0)
(213.618 7.99435 0)
(214.687 9.11824 0)
(216.252 10.2585 0)
(218.439 11.2551 0)
(221.348 11.8837 0)
(224.957 11.8474 0)
(228.901 10.6555 0)
(231.699 7.29701 0)
(230.508 1.79319 0)
(221.278 -5.62256 0)
(210.115 -11.6461 0)
(202.861 -14.3648 0)
(198.977 -14.7496 0)
(197.109 -13.9992 0)
(196.385 -13.3517 0)
(196.181 -13.129 0)
(196.135 -13.4713 0)
(196.366 -14.2298 0)
(196.78 -15.0818 0)
(197.137 -15.845 0)
(197.501 -16.4069 0)
(197.903 -17.0114 0)
(197.947 -17.9679 0)
(197.558 -19.1743 0)
(197.364 -20.4986 0)
(197.697 -21.9184 0)
(197.492 -23.9336 0)
(196.072 -26.9991 0)
(195.243 -31.4561 0)
(210 -2.8636e-12 0)
(210 -1.80353e-12 0)
(210 -2.98138e-12 0)
(210 -4.79905e-12 0)
(210 -4.27453e-12 0)
(210 -2.67459e-12 0)
(210 -3.93235e-12 0)
(210 -4.17127e-12 0)
(210 -5.12243e-12 0)
(210 -4.1166e-12 0)
(210 -3.1567e-12 0)
(210 -2.28174e-12 0)
(210 -1.38318e-12 0)
(210 -2.47043e-12 0)
(210 -3.7771e-12 0)
(210 -1.83978e-12 0)
(210 -1.29885e-12 0)
(210 -1.99782e-12 0)
(210 -2.46536e-12 0)
(210 -3.39364e-12 0)
(210 -3.2374e-12 0)
(210 -1.11199e-12 0)
(210 -1.26941e-12 0)
(210 -2.55904e-12 0)
(210 -5.22088e-13 0)
(210 7.06254e-13 0)
(210 8.03324e-13 0)
(210 6.18592e-13 0)
(210 -1.12959e-12 0)
(210 -2.13892e-12 0)
(210 4.26732e-13 0)
(210 -2.77507e-12 0)
(210 -3.93237e-13 0)
(210 1.4998e-12 0)
(210 7.35574e-13 0)
(210 -2.15645e-12 0)
(210 -2.5717e-12 0)
(210 -5.50218e-12 0)
(210 -6.07496e-12 0)
(210 -3.93553e-12 0)
(210 -3.61547e-12 0)
(210 1.72147e-13 0)
(210 1.85038e-13 0)
(210 -1.50923e-13 0)
(210 -1.5842e-12 0)
(210 -7.65757e-13 0)
(210 -1.40099e-10 0)
(210 -1.8639e-08 0)
(210 -4.37197e-07 0)
(210 -2.3392e-06 0)
(210 -2.512e-06 0)
(210 8.47441e-06 0)
(210 3.23439e-05 0)
(210 5.2849e-05 0)
(209.999 0.000258122 0)
(209.986 0.00346693 0)
(209.914 0.0207684 0)
(209.761 0.0618078 0)
(209.576 0.12106 0)
(209.424 0.187051 0)
(209.332 0.251767 0)
(209.295 0.309831 0)
(209.291 0.354442 0)
(209.385 0.402808 0)
(209.686 0.430139 0)
(210.053 0.449257 0)
(210.336 0.48183 0)
(210.508 0.531843 0)
(210.596 0.593875 0)
(210.634 0.661451 0)
(210.632 0.743538 0)
(210.545 0.860549 0)
(210.437 0.987577 0)
(210.373 1.11124 0)
(210.358 1.23055 0)
(210.386 1.35767 0)
(210.468 1.50004 0)
(210.571 1.65002 0)
(210.641 1.81508 0)
(210.678 2.00859 0)
(210.675 2.24166 0)
(210.684 2.49803 0)
(210.757 2.77942 0)
(210.896 3.08862 0)
(211.059 3.42682 0)
(211.211 3.81584 0)
(211.355 4.2798 0)
(211.548 4.82613 0)
(211.847 5.45796 0)
(212.267 6.18726 0)
(212.816 7.04311 0)
(213.547 8.05741 0)
(214.606 9.20646 0)
(216.176 10.3817 0)
(218.395 11.4246 0)
(221.354 12.0987 0)
(224.97 12.0936 0)
(228.832 10.9045 0)
(231.31 7.4027 0)
(229.252 1.66488 0)
(219.329 -6.0747 0)
(208.708 -12.0158 0)
(202.109 -14.5654 0)
(198.613 -14.8621 0)
(196.931 -14.0491 0)
(196.299 -13.3668 0)
(196.141 -13.1233 0)
(196.173 -13.4627 0)
(196.466 -14.2093 0)
(196.904 -15.0626 0)
(197.266 -15.831 0)
(197.652 -16.3943 0)
(198.055 -17.0066 0)
(198.058 -17.9773 0)
(197.674 -19.1892 0)
(197.559 -20.5034 0)
(197.902 -21.9223 0)
(197.604 -23.9666 0)
(196.234 -27.0587 0)
(195.734 -31.5273 0)
(210 -3.52665e-12 0)
(210 -2.7921e-12 0)
(210 -2.67615e-12 0)
(210 -5.05237e-12 0)
(210 -3.44705e-12 0)
(210 -2.82273e-12 0)
(210 -3.54718e-12 0)
(210 -3.14674e-12 0)
(210 -4.29957e-12 0)
(210 -3.86506e-12 0)
(210 -2.98948e-12 0)
(210 -9.81283e-13 0)
(210 -3.78512e-13 0)
(210 -2.38768e-12 0)
(210 -2.16279e-12 0)
(210 -1.54609e-12 0)
(210 -6.91441e-13 0)
(210 -1.46877e-12 0)
(210 -2.22285e-12 0)
(210 -3.52129e-12 0)
(210 -3.09537e-12 0)
(210 3.24686e-13 0)
(210 -6.07431e-13 0)
(210 -1.67385e-12 0)
(210 -9.6731e-13 0)
(210 1.45076e-12 0)
(210 6.3942e-15 0)
(210 3.07934e-13 0)
(210 -2.26178e-12 0)
(210 -1.94184e-12 0)
(210 3.75158e-13 0)
(210 -1.96144e-12 0)
(210 -5.87523e-13 0)
(210 1.30997e-12 0)
(210 -1.90083e-13 0)
(210 -2.02368e-12 0)
(210 -2.39618e-12 0)
(210 -5.26378e-12 0)
(210 -5.56989e-12 0)
(210 -3.22135e-12 0)
(210 -3.37233e-12 0)
(210 7.13915e-13 0)
(210 -4.38232e-13 0)
(210 -5.67669e-13 0)
(210 -1.68083e-12 0)
(210 -6.13979e-13 0)
(210 -1.43451e-10 0)
(210 -1.87803e-08 0)
(210 -4.3321e-07 0)
(210 -2.27573e-06 0)
(210 -2.29277e-06 0)
(210 8.76607e-06 0)
(210 3.23309e-05 0)
(210 5.26889e-05 0)
(209.999 0.000259859 0)
(209.985 0.00348679 0)
(209.913 0.0208075 0)
(209.759 0.0617843 0)
(209.573 0.120887 0)
(209.421 0.186717 0)
(209.329 0.251319 0)
(209.291 0.309326 0)
(209.287 0.353906 0)
(209.381 0.402397 0)
(209.682 0.430192 0)
(210.049 0.449937 0)
(210.331 0.48305 0)
(210.503 0.533448 0)
(210.591 0.595721 0)
(210.629 0.663424 0)
(210.626 0.745735 0)
(210.539 0.862831 0)
(210.429 0.989784 0)
(210.365 1.11342 0)
(210.349 1.23281 0)
(210.377 1.3601 0)
(210.458 1.50276 0)
(210.559 1.65313 0)
(210.629 1.81858 0)
(210.664 2.01276 0)
(210.659 2.24673 0)
(210.666 2.50391 0)
(210.737 2.78642 0)
(210.874 3.09712 0)
(211.034 3.43699 0)
(211.181 3.82762 0)
(211.32 4.29306 0)
(211.506 4.84108 0)
(211.798 5.47638 0)
(212.209 6.21258 0)
(212.746 7.08115 0)
(213.465 8.11635 0)
(214.516 9.29489 0)
(216.091 10.5083 0)
(218.339 11.6008 0)
(221.337 12.3261 0)
(224.946 12.3493 0)
(228.709 11.1531 0)
(230.818 7.49012 0)
(227.801 1.46373 0)
(217.379 -6.55313 0)
(207.355 -12.37 0)
(201.388 -14.7526 0)
(198.268 -14.972 0)
(196.767 -14.0998 0)
(196.226 -13.3774 0)
(196.126 -13.1223 0)
(196.226 -13.4477 0)
(196.584 -14.1894 0)
(197.029 -15.043 0)
(197.384 -15.8147 0)
(197.788 -16.3779 0)
(198.183 -17.0022 0)
(198.145 -17.9883 0)
(197.779 -19.2036 0)
(197.744 -20.4992 0)
(198.086 -21.9186 0)
(197.711 -23.9995 0)
(196.419 -27.1104 0)
(196.194 -31.5695 0)
(210 -4.25047e-12 0)
(210 -4.12435e-12 0)
(210 -3.13929e-12 0)
(210 -4.14181e-12 0)
(210 -3.25541e-12 0)
(210 -3.01169e-12 0)
(210 -3.69527e-12 0)
(210 -2.50631e-12 0)
(210 -3.25489e-12 0)
(210 -3.01579e-12 0)
(210 -4.13006e-12 0)
(210 4.37012e-14 0)
(210 -4.26179e-13 0)
(210 -2.86296e-12 0)
(210 -1.43347e-12 0)
(210 5.97538e-14 0)
(210 -2.01778e-13 0)
(210 -1.38351e-12 0)
(210 -3.11285e-12 0)
(210 -3.37553e-12 0)
(210 -3.81285e-12 0)
(210 5.06791e-13 0)
(210 -8.08968e-13 0)
(210 -1.43779e-12 0)
(210 -1.35187e-12 0)
(210 1.79738e-12 0)
(210 3.07359e-13 0)
(210 2.12337e-13 0)
(210 -1.71197e-12 0)
(210 -1.35299e-12 0)
(210 6.24941e-13 0)
(210 -9.64448e-13 0)
(210 -1.58399e-12 0)
(210 7.85252e-14 0)
(210 -8.28051e-13 0)
(210 -3.04861e-12 0)
(210 -1.22466e-12 0)
(210 -5.17741e-12 0)
(210 -5.69083e-12 0)
(210 -2.74532e-12 0)
(210 -2.71106e-12 0)
(210 5.96235e-13 0)
(210 -5.45824e-13 0)
(210 -1.48606e-12 0)
(210 -1.17451e-12 0)
(210 5.32957e-13 0)
(210 -1.47738e-10 0)
(210 -1.89121e-08 0)
(210 -4.28723e-07 0)
(210 -2.20886e-06 0)
(210 -2.06692e-06 0)
(210 9.06007e-06 0)
(210 3.23055e-05 0)
(210 5.25112e-05 0)
(209.999 0.000261588 0)
(209.985 0.00350621 0)
(209.912 0.0208425 0)
(209.757 0.0617468 0)
(209.57 0.120687 0)
(209.417 0.186347 0)
(209.325 0.250829 0)
(209.287 0.308781 0)
(209.283 0.353339 0)
(209.377 0.401974 0)
(209.678 0.430268 0)
(210.045 0.450673 0)
(210.327 0.484348 0)
(210.498 0.535143 0)
(210.586 0.597662 0)
(210.623 0.665491 0)
(210.62 0.748028 0)
(210.532 0.865201 0)
(210.421 0.992068 0)
(210.357 1.11566 0)
(210.341 1.23514 0)
(210.367 1.3626 0)
(210.447 1.50555 0)
(210.548 1.6563 0)
(210.616 1.82214 0)
(210.65 2.01698 0)
(210.642 2.25187 0)
(210.647 2.5099 0)
(210.716 2.79365 0)
(210.851 3.10607 0)
(211.007 3.44793 0)
(211.151 3.84057 0)
(211.283 4.30806 0)
(211.462 4.85879 0)
(211.748 5.4993 0)
(212.15 6.24477 0)
(212.676 7.12804 0)
(213.381 8.18424 0)
(214.423 9.39114 0)
(216.008 10.6453 0)
(218.299 11.7925 0)
(221.343 12.5697 0)
(224.909 12.6186 0)
(228.519 11.3973 0)
(230.211 7.56151 0)
(226.163 1.20251 0)
(215.434 -7.04595 0)
(206.042 -12.7075 0)
(200.686 -14.92 0)
(197.934 -15.0699 0)
(196.613 -14.1465 0)
(196.17 -13.3874 0)
(196.131 -13.1203 0)
(196.304 -13.4323 0)
(196.711 -14.1646 0)
(197.142 -15.0201 0)
(197.486 -15.7938 0)
(197.905 -16.3568 0)
(198.288 -16.994 0)
(198.215 -17.9953 0)
(197.877 -19.2124 0)
(197.92 -20.4931 0)
(198.255 -21.9213 0)
(197.816 -24.0368 0)
(196.636 -27.1656 0)
(196.619 -31.6081 0)
(198.504 -38.6643 0)
(210 -5.99614e-12 0)
(210 -3.83952e-12 0)
(210 -1.09327e-12 0)
(210 -2.64697e-12 0)
(210 -3.29044e-12 0)
(210 -3.85327e-12 0)
(210 -3.19871e-12 0)
(210 -2.42261e-12 0)
(210 -2.24348e-12 0)
(210 -2.38188e-12 0)
(210 -2.68387e-12 0)
(210 1.76443e-12 0)
(210 1.03842e-12 0)
(210 7.94267e-13 0)
(210 -1.38961e-12 0)
(210 -3.66401e-14 0)
(210 -7.75737e-13 0)
(210 -5.2256e-13 0)
(210 -2.9768e-12 0)
(210 -4.64034e-12 0)
(210 -3.6513e-12 0)
(210 3.25032e-14 0)
(210 5.9333e-15 0)
(210 -1.03791e-12 0)
(210 -2.32943e-12 0)
(210 2.67455e-12 0)
(210 7.49628e-13 0)
(210 6.26055e-13 0)
(210 -5.49902e-15 0)
(210 -1.22558e-12 0)
(210 -8.66687e-13 0)
(210 7.39427e-13 0)
(210 -6.64205e-13 0)
(210 -1.47674e-12 0)
(210 -2.91673e-12 0)
(210 -3.20448e-12 0)
(210 -2.76099e-12 0)
(210 -4.59831e-12 0)
(210 -5.22442e-12 0)
(210 -3.24342e-12 0)
(210 -3.63012e-12 0)
(210 -9.63423e-13 0)
(210 2.75305e-13 0)
(210 -1.42134e-12 0)
(210 -9.42494e-13 0)
(210 1.15786e-12 0)
(210 -1.50954e-10 0)
(210 -1.90312e-08 0)
(210 -4.23688e-07 0)
(210 -2.13846e-06 0)
(210 -1.8345e-06 0)
(210 9.35566e-06 0)
(210 3.22668e-05 0)
(210 5.23135e-05 0)
(209.999 0.000263293 0)
(209.985 0.00352505 0)
(209.911 0.0208722 0)
(209.754 0.061693 0)
(209.567 0.120458 0)
(209.414 0.185934 0)
(209.321 0.250287 0)
(209.283 0.308179 0)
(209.279 0.352704 0)
(209.372 0.401478 0)
(209.674 0.43029 0)
(210.04 0.451384 0)
(210.322 0.485647 0)
(210.493 0.536859 0)
(210.581 0.599636 0)
(210.617 0.6676 0)
(210.614 0.750371 0)
(210.524 0.867615 0)
(210.413 0.994387 0)
(210.348 1.11794 0)
(210.331 1.2375 0)
(210.357 1.36513 0)
(210.436 1.50838 0)
(210.535 1.65953 0)
(210.603 1.82578 0)
(210.634 2.02133 0)
(210.624 2.25717 0)
(210.627 2.51603 0)
(210.694 2.80093 0)
(210.826 3.11497 0)
(210.979 3.45863 0)
(211.118 3.85298 0)
(211.244 4.32189 0)
(211.416 4.8742 0)
(211.692 5.51816 0)
(212.084 6.27089 0)
(212.597 7.16782 0)
(213.287 8.24695 0)
(214.32 9.48726 0)
(215.917 10.7868 0)
(218.247 11.9921 0)
(221.319 12.8248 0)
(224.825 12.8949 0)
(228.243 11.6293 0)
(229.472 7.61125 0)
(224.356 0.862634 0)
(213.499 -7.54599 0)
(204.758 -13.0228 0)
(199.994 -15.0676 0)
(197.605 -15.1573 0)
(196.468 -14.1913 0)
(196.135 -13.3928 0)
(196.151 -13.1177 0)
(196.408 -13.4106 0)
(196.838 -14.1386 0)
(197.238 -14.9955 0)
(197.569 -15.7691 0)
(198.007 -16.3312 0)
(198.376 -16.9859 0)
(198.273 -18.0036 0)
(197.973 -19.2194 0)
(198.09 -20.4792 0)
(198.41 -21.9189 0)
(197.928 -24.0723 0)
(196.895 -27.2137 0)
(197.021 -31.6197 0)
(199.236 -38.6051 0)
(210 -6.00024e-12 0)
(210 -3.46321e-12 0)
(210 -8.18752e-13 0)
(210 -5.28259e-13 0)
(210 -1.72545e-12 0)
(210 -4.00871e-12 0)
(210 -7.33801e-13 0)
(210 -3.56901e-12 0)
(210 -3.54715e-12 0)
(210 1.63459e-13 0)
(210 -4.93e-13 0)
(210 3.30977e-12 0)
(210 2.64022e-12 0)
(210 8.66987e-13 0)
(210 -9.36538e-13 0)
(210 -3.42091e-13 0)
(210 -1.98114e-12 0)
(210 -1.72758e-12 0)
(210 -1.56947e-12 0)
(210 -4.74443e-12 0)
(210 -1.03866e-12 0)
(210 1.2734e-12 0)
(210 -2.9021e-13 0)
(210 -1.49843e-13 0)
(210 -2.67934e-13 0)
(210 2.28831e-12 0)
(210 1.93644e-12 0)
(210 1.92486e-13 0)
(210 1.59032e-12 0)
(210 -1.85181e-13 0)
(210 -3.57935e-13 0)
(210 1.45213e-12 0)
(210 -7.72043e-13 0)
(210 -2.56822e-12 0)
(210 -4.45544e-12 0)
(210 -1.45418e-12 0)
(210 -5.55664e-12 0)
(210 -2.64609e-12 0)
(210 -3.67961e-12 0)
(210 -4.87578e-12 0)
(210 -4.42338e-12 0)
(210 -3.33935e-12 0)
(210 2.32927e-13 0)
(210 1.25653e-12 0)
(210 1.93032e-12 0)
(210 2.24925e-13 0)
(210 -1.54095e-10 0)
(210 -1.91322e-08 0)
(210 -4.18057e-07 0)
(210 -2.06445e-06 0)
(210 -1.59585e-06 0)
(210 9.65193e-06 0)
(210 3.22127e-05 0)
(210 5.20947e-05 0)
(209.999 0.000264956 0)
(209.985 0.00354305 0)
(209.91 0.0208958 0)
(209.752 0.0616209 0)
(209.564 0.120195 0)
(209.41 0.185476 0)
(209.316 0.249693 0)
(209.278 0.307525 0)
(209.274 0.352024 0)
(209.368 0.400954 0)
(209.669 0.430322 0)
(210.035 0.452143 0)
(210.317 0.487018 0)
(210.488 0.53866 0)
(210.575 0.601703 0)
(210.611 0.669802 0)
(210.607 0.752806 0)
(210.516 0.870114 0)
(210.405 0.996779 0)
(210.339 1.12028 0)
(210.322 1.23992 0)
(210.347 1.36772 0)
(210.425 1.51126 0)
(210.522 1.66282 0)
(210.588 1.82946 0)
(210.618 2.02572 0)
(210.606 2.26251 0)
(210.606 2.52222 0)
(210.67 2.80839 0)
(210.8 3.12429 0)
(210.95 3.47011 0)
(211.084 3.86662 0)
(211.203 4.33761 0)
(211.368 4.89262 0)
(211.636 5.54187 0)
(212.017 6.30448 0)
(212.516 7.2173 0)
(213.191 8.31974 0)
(214.216 9.59264 0)
(215.831 10.9401 0)
(218.209 12.207 0)
(221.299 13.0942 0)
(224.698 13.1819 0)
(227.871 11.8462 0)
(228.579 7.63741 0)
(222.402 0.455642 0)
(211.58 -8.04896 0)
(203.498 -13.313 0)
(199.305 -15.1905 0)
(197.275 -15.23 0)
(196.326 -14.2284 0)
(196.128 -13.3999 0)
(196.203 -13.1203 0)
(196.541 -13.3896 0)
(196.959 -14.1109 0)
(197.313 -14.9676 0)
(197.638 -15.74 0)
(198.098 -16.3019 0)
(198.451 -16.9757 0)
(198.326 -18.0092 0)
(198.07 -19.2217 0)
(198.256 -20.464 0)
(198.556 -21.9224 0)
(198.048 -24.1124 0)
(197.182 -27.2642 0)
(197.431 -31.6306 0)
(199.952 -38.5203 0)
(210 -3.99264e-12 0)
(210 -3.40366e-12 0)
(210 -2.50781e-12 0)
(210 2.16401e-13 0)
(210 -3.17658e-15 0)
(210 -2.35886e-12 0)
(210 -5.02556e-13 0)
(210 -4.20452e-12 0)
(210 -4.31836e-12 0)
(210 1.68658e-12 0)
(210 2.21153e-12 0)
(210 3.03843e-12 0)
(210 2.20194e-12 0)
(210 9.79819e-13 0)
(210 -2.45591e-13 0)
(210 -9.54656e-13 0)
(210 -1.17374e-12 0)
(210 -2.12905e-12 0)
(210 -5.85959e-13 0)
(210 -1.35341e-12 0)
(210 3.78093e-13 0)
(210 1.97267e-12 0)
(210 -2.05365e-12 0)
(210 1.69738e-12 0)
(210 1.92587e-12 0)
(210 1.01639e-12 0)
(210 5.40665e-12 0)
(210 1.48793e-12 0)
(210 9.88061e-13 0)
(210 8.39215e-13 0)
(210 1.69736e-12 0)
(210 1.14314e-12 0)
(210 -1.36272e-12 0)
(210 -4.58283e-12 0)
(210 -5.65774e-12 0)
(210 -9.16303e-13 0)
(210 -5.73585e-12 0)
(210 -2.95177e-12 0)
(210 -2.53748e-12 0)
(210 -5.08469e-12 0)
(210 -2.53316e-12 0)
(210 -4.50603e-12 0)
(210 9.06689e-13 0)
(210 3.53643e-12 0)
(210 2.27533e-12 0)
(210 2.12679e-13 0)
(210 -1.56132e-10 0)
(210 -1.9216e-08 0)
(210 -4.11781e-07 0)
(210 -1.98673e-06 0)
(210 -1.35117e-06 0)
(210 9.94796e-06 0)
(210 3.21424e-05 0)
(210 5.18515e-05 0)
(209.999 0.000266558 0)
(209.984 0.00355998 0)
(209.909 0.0209121 0)
(209.75 0.0615278 0)
(209.561 0.119894 0)
(209.406 0.184966 0)
(209.312 0.249039 0)
(209.274 0.306805 0)
(209.269 0.351269 0)
(209.363 0.400353 0)
(209.664 0.430301 0)
(210.03 0.452877 0)
(210.311 0.488392 0)
(210.482 0.540485 0)
(210.569 0.603805 0)
(210.605 0.672046 0)
(210.6 0.755289 0)
(210.508 0.872653 0)
(210.396 0.999199 0)
(210.329 1.12264 0)
(210.311 1.24236 0)
(210.335 1.37032 0)
(210.412 1.51416 0)
(210.509 1.66615 0)
(210.573 1.83323 0)
(210.601 2.03025 0)
(210.586 2.268 0)
(210.584 2.52852 0)
(210.646 2.81583 0)
(210.772 3.13341 0)
(210.918 3.48117 0)
(211.047 3.87952 0)
(211.16 4.35195 0)
(211.316 4.90847 0)
(211.574 5.56105 0)
(211.942 6.3312 0)
(212.426 7.25852 0)
(213.082 8.3861 0)
(214.101 9.69733 0)
(215.739 11.0992 0)
(218.16 12.4308 0)
(221.246 13.3707 0)
(224.512 13.4742 0)
(227.392 12.0424 0)
(227.509 7.62427 0)
(220.326 -0.0220519 0)
(209.683 -8.54869 0)
(202.26 -13.5749 0)
(198.613 -15.289 0)
(196.937 -15.2838 0)
(196.178 -14.2544 0)
(196.14 -13.4022 0)
(196.299 -13.1202 0)
(196.692 -13.365 0)
(197.069 -14.0829 0)
(197.369 -14.9377 0)
(197.696 -15.7066 0)
(198.181 -16.269 0)
(198.519 -16.9661 0)
(198.379 -18.0159 0)
(198.173 -19.2224 0)
(198.422 -20.443 0)
(198.697 -21.922 0)
(198.185 -24.1485 0)
(197.484 -27.3039 0)
(197.871 -31.6213 0)
(200.644 -38.4113 0)
(210 -2.48398e-12 0)
(210 -1.81762e-12 0)
(210 -3.21687e-12 0)
(210 9.16392e-15 0)
(210 -1.64672e-12 0)
(210 -1.47177e-12 0)
(210 -2.78372e-12 0)
(210 -2.47633e-12 0)
(210 -2.1601e-12 0)
(210 -2.8298e-13 0)
(210 4.63728e-12 0)
(210 2.06256e-12 0)
(210 6.97809e-13 0)
(210 2.04725e-12 0)
(210 1.10818e-12 0)
(210 -1.3906e-12 0)
(210 -7.79533e-13 0)
(210 5.89292e-13 0)
(210 -7.4346e-14 0)
(210 1.33341e-12 0)
(210 -7.16126e-14 0)
(210 8.3054e-13 0)
(210 -1.63294e-12 0)
(210 2.3792e-12 0)
(210 4.90103e-12 0)
(210 2.15122e-12 0)
(210 5.52772e-12 0)
(210 4.1554e-12 0)
(210 -2.97011e-13 0)
(210 3.30072e-12 0)
(210 1.1969e-12 0)
(210 2.36253e-12 0)
(210 1.21195e-12 0)
(210 -4.69439e-12 0)
(210 -5.41875e-12 0)
(210 -1.51102e-12 0)
(210 -4.56709e-12 0)
(210 -3.0801e-12 0)
(210 -1.55778e-12 0)
(210 -5.34953e-12 0)
(210 -1.62543e-12 0)
(210 -2.72021e-12 0)
(210 5.6232e-13 0)
(210 2.98381e-12 0)
(210 3.38356e-13 0)
(210 3.86406e-13 0)
(210 -1.60238e-10 0)
(210 -1.92767e-08 0)
(210 -4.0481e-07 0)
(210 -1.90524e-06 0)
(210 -1.10096e-06 0)
(210 1.02425e-05 0)
(210 3.20545e-05 0)
(210 5.15819e-05 0)
(209.999 0.000268078 0)
(209.984 0.00357555 0)
(209.908 0.0209199 0)
(209.748 0.0614109 0)
(209.557 0.119552 0)
(209.401 0.1844 0)
(209.307 0.248319 0)
(209.269 0.30602 0)
(209.264 0.350452 0)
(209.358 0.399707 0)
(209.659 0.430275 0)
(210.025 0.453648 0)
(210.306 0.489831 0)
(210.476 0.54239 0)
(210.562 0.605996 0)
(210.598 0.674379 0)
(210.592 0.75786 0)
(210.499 0.875269 0)
(210.386 1.00168 0)
(210.319 1.12505 0)
(210.3 1.24485 0)
(210.324 1.37296 0)
(210.399 1.5171 0)
(210.494 1.66951 0)
(210.557 1.837 0)
(210.583 2.03477 0)
(210.565 2.2735 0)
(210.56 2.53484 0)
(210.619 2.82338 0)
(210.743 3.1429 0)
(210.885 3.49299 0)
(211.009 3.89371 0)
(211.115 4.36834 0)
(211.262 4.92761 0)
(211.51 5.58549 0)
(211.866 6.36594 0)
(212.333 7.31039 0)
(212.972 8.46393 0)
(213.987 9.81358 0)
(215.656 11.2728 0)
(218.122 12.6705 0)
(221.171 13.6577 0)
(224.257 13.7732 0)
(226.804 12.2225 0)
(226.238 7.56354 0)
(218.155 -0.557163 0)
(207.816 -9.03799 0)
(201.046 -13.8098 0)
(197.917 -15.3595 0)
(196.583 -15.3187 0)
(196.024 -14.2677 0)
(196.172 -13.3919 0)
(196.442 -13.1196 0)
(196.852 -13.3448 0)
(197.165 -14.0561 0)
(197.41 -14.9055 0)
(197.752 -15.6697 0)
(198.261 -16.2336 0)
(198.583 -16.955 0)
(198.435 -18.0196 0)
(198.284 -19.2186 0)
(198.591 -20.4216 0)
(198.84 -21.9276 0)
(198.336 -24.1889 0)
(197.796 -27.3409 0)
(198.359 -31.62 0)
(201.315 -38.2798 0)
(210 -2.67236e-12 0)
(210 -2.64028e-12 0)
(210 -5.18962e-12 0)
(210 -1.34326e-12 0)
(210 -3.43158e-12 0)
(210 -1.5424e-12 0)
(210 -3.95834e-12 0)
(210 -4.54195e-12 0)
(210 -1.99806e-12 0)
(210 -1.33239e-12 0)
(210 4.10942e-12 0)
(210 -5.3943e-13 0)
(210 -8.37211e-13 0)
(210 2.05969e-12 0)
(210 2.1494e-12 0)
(210 -1.59423e-12 0)
(210 -1.14505e-12 0)
(210 2.40115e-12 0)
(210 7.20402e-13 0)
(210 2.1694e-12 0)
(210 4.09681e-13 0)
(210 6.98244e-13 0)
(210 -1.24928e-13 0)
(210 5.00505e-13 0)
(210 4.92076e-12 0)
(210 3.89782e-12 0)
(210 4.71423e-12 0)
(210 5.54625e-12 0)
(210 7.35617e-13 0)
(210 3.47824e-12 0)
(210 2.6199e-12 0)
(210 2.0079e-12 0)
(210 1.63166e-12 0)
(210 -4.20571e-12 0)
(210 -4.33137e-12 0)
(210 -2.36665e-12 0)
(210 -5.91681e-12 0)
(210 -3.4702e-12 0)
(210 -2.24717e-12 0)
(210 -4.06205e-12 0)
(210 -4.73153e-12 0)
(210 -9.53294e-13 0)
(210 -3.5908e-13 0)
(210 8.27787e-13 0)
(210 1.89194e-12 0)
(210 -1.74677e-12 0)
(210 -1.62639e-10 0)
(210 -1.93102e-08 0)
(210 -3.97089e-07 0)
(210 -1.81992e-06 0)
(210 -8.456e-07 0)
(210 1.05341e-05 0)
(210 3.19472e-05 0)
(210 5.12837e-05 0)
(209.999 0.000269487 0)
(209.984 0.00358943 0)
(209.907 0.0209178 0)
(209.745 0.0612674 0)
(209.554 0.119164 0)
(209.397 0.183771 0)
(209.303 0.247527 0)
(209.264 0.305158 0)
(209.259 0.34955 0)
(209.352 0.398978 0)
(209.653 0.430193 0)
(210.019 0.454395 0)
(210.3 0.491274 0)
(210.469 0.544319 0)
(210.556 0.608221 0)
(210.591 0.676752 0)
(210.584 0.760473 0)
(210.49 0.877917 0)
(210.376 1.00418 0)
(210.308 1.12747 0)
(210.289 1.24733 0)
(210.311 1.3756 0)
(210.385 1.52005 0)
(210.479 1.67291 0)
(210.54 1.84085 0)
(210.564 2.03945 0)
(210.543 2.27915 0)
(210.535 2.5412 0)
(210.591 2.83077 0)
(210.712 3.152 0)
(210.85 3.50416 0)
(210.969 3.90692 0)
(211.067 4.38311 0)
(211.205 4.94388 0)
(211.441 5.6049 0)
(211.781 6.39285 0)
(212.229 7.35272 0)
(212.848 8.53397 0)
(213.862 9.92854 0)
(215.568 11.453 0)
(218.067 12.9181 0)
(221.047 13.9464 0)
(223.913 14.0706 0)
(226.102 12.3824 0)
(224.749 7.43 0)
(215.916 -1.15265 0)
(205.982 -9.5099 0)
(199.862 -14.017 0)
(197.218 -15.4041 0)
(196.199 -15.3286 0)
(195.88 -14.2618 0)
(196.242 -13.3805 0)
(196.617 -13.1147 0)
(197.006 -13.3249 0)
(197.249 -14.0309 0)
(197.448 -14.8738 0)
(197.811 -15.6298 0)
(198.341 -16.1963 0)
(198.647 -16.945 0)
(198.498 -18.0245 0)
(198.406 -19.2135 0)
(198.762 -20.3958 0)
(198.989 -21.9303 0)
(198.5 -24.2245 0)
(198.12 -27.3627 0)
(198.888 -31.5959 0)
(201.974 -38.1244 0)
(210 -3.59389e-12 0)
(210 -2.67106e-12 0)
(210 -2.85014e-12 0)
(210 -2.42086e-12 0)
(210 -5.07156e-12 0)
(210 -4.96807e-12 0)
(210 -3.55094e-12 0)
(210 -6.17299e-12 0)
(210 -1.4114e-13 0)
(210 -5.25454e-13 0)
(210 2.30372e-12 0)
(210 -3.94214e-13 0)
(210 6.83682e-13 0)
(210 3.52003e-12 0)
(210 3.04223e-12 0)
(210 -1.06612e-12 0)
(210 2.91158e-13 0)
(210 3.27149e-12 0)
(210 2.71486e-12 0)
(210 2.04913e-12 0)
(210 1.52198e-12 0)
(210 1.36248e-12 0)
(210 1.35769e-12 0)
(210 3.15853e-13 0)
(210 6.29919e-12 0)
(210 5.29906e-12 0)
(210 6.37754e-12 0)
(210 5.0168e-12 0)
(210 2.15379e-12 0)
(210 1.5359e-12 0)
(210 3.4546e-12 0)
(210 1.95696e-12 0)
(210 5.79786e-14 0)
(210 -5.56887e-12 0)
(210 -4.13986e-12 0)
(210 -3.0194e-12 0)
(210 -5.79294e-12 0)
(210 -5.9498e-12 0)
(210 -2.55429e-12 0)
(210 -3.25109e-12 0)
(210 -4.7504e-12 0)
(210 -1.0912e-12 0)
(210 2.17784e-12 0)
(210 7.09714e-13 0)
(210 1.75138e-12 0)
(210 -3.17539e-12 0)
(210 -1.65561e-10 0)
(210 -1.93105e-08 0)
(210 -3.88566e-07 0)
(210 -1.73077e-06 0)
(210 -5.85712e-07 0)
(210 1.08214e-05 0)
(210 3.18192e-05 0)
(210 5.0955e-05 0)
(209.999 0.000270757 0)
(209.983 0.00360126 0)
(209.905 0.020904 0)
(209.742 0.0610934 0)
(209.55 0.118723 0)
(209.392 0.183074 0)
(209.297 0.246656 0)
(209.258 0.304215 0)
(209.254 0.348569 0)
(209.346 0.398184 0)
(209.647 0.43009 0)
(210.013 0.455165 0)
(210.293 0.492773 0)
(210.463 0.546321 0)
(210.548 0.610527 0)
(210.583 0.679209 0)
(210.576 0.763167 0)
(210.481 0.880631 0)
(210.366 1.00673 0)
(210.297 1.12992 0)
(210.277 1.24984 0)
(210.298 1.37826 0)
(210.371 1.523 0)
(210.463 1.6763 0)
(210.523 1.84468 0)
(210.544 2.04409 0)
(210.52 2.28476 0)
(210.509 2.54751 0)
(210.562 2.83818 0)
(210.679 3.16135 0)
(210.814 3.51601 0)
(210.926 3.92145 0)
(211.017 4.40011 0)
(211.145 4.96377 0)
(211.369 5.63002 0)
(211.694 6.42839 0)
(212.122 7.4067 0)
(212.722 8.61705 0)
(213.743 10.0581 0)
(215.497 11.652 0)
(218.017 13.1806 0)
(220.866 14.2349 0)
(223.459 14.3661 0)
(225.275 12.5299 0)
(223.031 7.21955 0)
(213.623 -1.78452 0)
(204.182 -9.96171 0)
(198.714 -14.1966 0)
(196.523 -15.4281 0)
(195.768 -15.3018 0)
(195.778 -14.2516 0)
(196.355 -13.3616 0)
(196.799 -13.107 0)
(197.148 -13.309 0)
(197.325 -14.0081 0)
(197.487 -14.8416 0)
(197.878 -15.5865 0)
(198.424 -16.1571 0)
(198.712 -16.9333 0)
(198.57 -18.0253 0)
(198.539 -19.2033 0)
(198.937 -20.3696 0)
(199.151 -21.9404 0)
(198.672 -24.2626 0)
(198.466 -27.3793 0)
(199.447 -31.5755 0)
(202.641 -37.956 0)
(210 -3.88737e-12 0)
(210 -2.7139e-12 0)
(210 -2.21594e-12 0)
(210 -3.998e-12 0)
(210 -5.64094e-12 0)
(210 -5.99073e-12 0)
(210 -2.76012e-12 0)
(210 -6.01382e-12 0)
(210 -4.52543e-13 0)
(210 1.26311e-12 0)
(210 2.8446e-12 0)
(210 1.8736e-12 0)
(210 1.98933e-12 0)
(210 2.02039e-12 0)
(210 2.86075e-12 0)
(210 4.14925e-13 0)
(210 1.04715e-12 0)
(210 5.05413e-12 0)
(210 4.01245e-12 0)
(210 3.35733e-12 0)
(210 1.80329e-12 0)
(210 1.65919e-12 0)
(210 8.52911e-13 0)
(210 2.34929e-12 0)
(210 6.52734e-12 0)
(210 5.94796e-12 0)
(210 6.33527e-12 0)
(210 3.6961e-12 0)
(210 2.12003e-12 0)
(210 1.90777e-12 0)
(210 2.42665e-12 0)
(210 2.25535e-12 0)
(210 -6.71492e-13 0)
(210 -4.17187e-12 0)
(210 -3.78783e-12 0)
(210 -2.10381e-12 0)
(210 -3.88749e-12 0)
(210 -5.57563e-12 0)
(210 -3.42417e-12 0)
(210 -5.02326e-12 0)
(210 -2.92766e-12 0)
(210 6.8986e-16 0)
(210 1.70879e-12 0)
(210 2.2353e-12 0)
(210 -1.22008e-13 0)
(210 -2.80367e-12 0)
(210 -1.69687e-10 0)
(210 -1.92739e-08 0)
(210 -3.79192e-07 0)
(210 -1.63778e-06 0)
(210 -3.21884e-07 0)
(210 1.1103e-05 0)
(210 3.16693e-05 0)
(210 5.05915e-05 0)
(209.999 0.000271849 0)
(209.983 0.00361061 0)
(209.904 0.0208772 0)
(209.74 0.0608856 0)
(209.546 0.118226 0)
(209.388 0.182301 0)
(209.292 0.245698 0)
(209.253 0.30318 0)
(209.248 0.347491 0)
(209.34 0.397296 0)
(209.641 0.429922 0)
(210.006 0.455906 0)
(210.286 0.494274 0)
(210.455 0.548344 0)
(210.541 0.612867 0)
(210.575 0.681703 0)
(210.567 0.765899 0)
(210.471 0.883366 0)
(210.355 1.00928 0)
(210.285 1.13235 0)
(210.265 1.25233 0)
(210.285 1.38089 0)
(210.356 1.52593 0)
(210.446 1.67971 0)
(210.504 1.84859 0)
(210.523 2.04888 0)
(210.495 2.29049 0)
(210.481 2.55379 0)
(210.531 2.84527 0)
(210.645 3.17005 0)
(210.775 3.52693 0)
(210.881 3.9347 0)
(210.964 4.41521 0)
(211.081 4.98044 0)
(211.292 5.64951 0)
(211.598 6.45511 0)
(212.003 7.44962 0)
(212.583 8.69109 0)
(213.615 10.1864 0)
(215.414 11.8565 0)
(217.933 13.4457 0)
(220.611 14.5158 0)
(222.868 14.6438 0)
(224.301 12.6601 0)
(221.082 6.91102 0)
(211.284 -2.44571 0)
(202.41 -10.3775 0)
(197.599 -14.3423 0)
(195.842 -15.4478 0)
(195.296 -15.2396 0)
(195.733 -14.1935 0)
(196.495 -13.3308 0)
(196.969 -13.0957 0)
(197.275 -13.2949 0)
(197.396 -13.9882 0)
(197.537 -14.8103 0)
(197.955 -15.5406 0)
(198.51 -16.1174 0)
(198.782 -16.9231 0)
(198.652 -18.0274 0)
(198.683 -19.1921 0)
(199.118 -20.3407 0)
(199.322 -21.9467 0)
(198.853 -24.2923 0)
(198.844 -27.3791 0)
(200.01 -31.528 0)
(203.317 -37.7636 0)
(210 -6.12604e-12 0)
(210 -5.11015e-12 0)
(210 -3.97102e-12 0)
(210 -4.7118e-12 0)
(210 -5.0269e-12 0)
(210 -4.19715e-12 0)
(210 -2.62881e-12 0)
(210 -6.85202e-12 0)
(210 -2.07101e-12 0)
(210 9.30712e-13 0)
(210 3.28247e-12 0)
(210 2.20276e-12 0)
(210 1.51627e-12 0)
(210 1.53428e-12 0)
(210 1.62149e-12 0)
(210 -4.59218e-13 0)
(210 9.02138e-13 0)
(210 5.21705e-12 0)
(210 3.7556e-12 0)
(210 3.69213e-12 0)
(210 2.07222e-12 0)
(210 2.99936e-13 0)
(210 4.66967e-13 0)
(210 3.14698e-12 0)
(210 4.0961e-12 0)
(210 5.3755e-12 0)
(210 4.88542e-12 0)
(210 2.80036e-12 0)