/*--------------------------------*- C++ -*----------------------------------*\
| =========                 |                                                 |
| \\      /  F ield         | OpenFOAM: The Open Source CFD Toolbox           |
|  \\    /   O peration     | Version:  2412                                  |
|   \\  /    A nd           | Website:  www.openfoam.com                      |
|    \\/     M anipulation  |                                                 |
\*---------------------------------------------------------------------------*/
FoamFile
{
    version     2.0;
    format      ascii;
    arch        "LSB;label=32;scalar=64";
    class       volVectorField;
    location    "0.04";
    object      U;
}
// * * * * * * * * * * * * * * * * * * * * * * * * * * * * * * * * * * * * * //

dimensions      [0 1 -1 0 0 0 0];

internalField   nonuniform List<vector> 
9831
(
(275.779 70.0561 0)
(251.672 -1.74346 0)
(276.244 70.7229 0)
(252.004 -1.73542 0)
(238.316 -5.0279 0)
(229.524 -6.3377 0)
(225.724 -8.47853 0)
(223.829 -9.6647 0)
(222.389 -10.366 0)
(221.079 -10.7374 0)
(219.895 -10.9014 0)
(218.819 -10.9556 0)
(217.811 -10.9648 0)
(216.847 -10.973 0)
(215.931 -10.9816 0)
(215.072 -10.9771 0)
(214.263 -10.9579 0)
(213.488 -10.9316 0)
(212.738 -10.8993 0)
(212.007 -10.8602 0)
(211.287 -10.8052 0)
(210.572 -10.7457 0)
(209.861 -10.672 0)
(209.154 -10.5918 0)
(208.453 -10.4941 0)
(207.757 -10.3865 0)
(207.065 -10.2692 0)
(206.371 -10.1562 0)
(205.672 -10.0445 0)
(204.969 -9.93222 0)
(204.261 -9.82092 0)
(203.551 -9.72307 0)
(202.843 -9.64172 0)
(202.145 -9.56677 0)
(201.458 -9.48574 0)
(200.78 -9.39792 0)
(200.107 -9.31184 0)
(199.436 -9.23647 0)
(198.768 -9.17584 0)
(198.105 -9.1289 0)
(197.451 -9.09092 0)
(196.806 -9.05808 0)
(196.17 -9.02961 0)
(195.543 -9.00769 0)
(194.926 -8.99396 0)
(194.322 -8.98905 0)
(193.734 -8.99239 0)
(193.163 -9.00386 0)
(192.613 -9.02317 0)
(192.084 -9.05033 0)
(191.579 -9.08483 0)
(191.098 -9.126 0)
(276.57 71.3219 0)
(252.327 -1.71256 0)
(238.528 -5.06814 0)
(229.654 -6.39198 0)
(225.808 -8.53971 0)
(223.894 -9.72056 0)
(222.448 -10.4159 0)
(221.133 -10.7827 0)
(219.943 -10.9434 0)
(218.862 -10.9956 0)
(217.849 -11.0038 0)
(216.88 -11.011 0)
(215.961 -11.0183 0)
(215.1 -11.0123 0)
(214.289 -10.9922 0)
(213.512 -10.9655 0)
(212.761 -10.9332 0)
(212.028 -10.8945 0)
(211.308 -10.8401 0)
(210.592 -10.7816 0)
(209.881 -10.709 0)
(209.174 -10.6299 0)
(208.473 -10.5333 0)
(207.778 -10.4267 0)
(207.086 -10.3107 0)
(206.392 -10.1991 0)
(205.693 -10.0891 0)
(204.989 -9.97865 0)
(204.281 -9.86923 0)
(203.571 -9.77312 0)
(202.864 -9.69313 0)
(202.166 -9.61922 0)
(201.48 -9.53933 0)
(200.802 -9.45305 0)
(200.128 -9.36883 0)
(199.457 -9.29539 0)
(198.789 -9.23664 0)
(198.127 -9.19148 0)
(197.474 -9.15521 0)
(196.83 -9.12413 0)
(196.194 -9.09751 0)
(195.568 -9.07744 0)
(194.951 -9.06536 0)
(194.348 -9.06178 0)
(193.76 -9.0661 0)
(193.191 -9.0782 0)
(192.641 -9.09781 0)
(192.114 -9.12498 0)
(191.61 -9.15914 0)
(191.131 -9.19963 0)
(190.677 -9.24543 0)
(190.252 -9.29541 0)
(277.012 71.9581 0)
(252.649 -1.70471 0)
(238.738 -5.11047 0)
(229.786 -6.44211 0)
(225.895 -8.59604 0)
(223.959 -9.77406 0)
(222.504 -10.4648 0)
(221.185 -10.8271 0)
(219.991 -10.9845 0)
(218.905 -11.0346 0)
(217.887 -11.0419 0)
(216.914 -11.0482 0)
(215.991 -11.0542 0)
(215.128 -11.0469 0)
(214.314 -11.0258 0)
(213.535 -10.9988 0)
(212.782 -10.9666 0)
(212.049 -10.9282 0)
(211.327 -10.8746 0)
(210.611 -10.8171 0)
(209.9 -10.7456 0)
(209.193 -10.6677 0)
(208.492 -10.5722 0)
(207.797 -10.4666 0)
(207.105 -10.3518 0)
(206.411 -10.2417 0)
(205.712 -10.1334 0)
(205.007 -10.0248 0)
(204.299 -9.91728 0)
(203.589 -9.82292 0)
(202.882 -9.74432 0)
(202.185 -9.67149 0)
(201.499 -9.59281 0)
(200.821 -9.50811 0)
(200.146 -9.42578 0)
(199.475 -9.35431 0)
(198.807 -9.29746 0)
(198.145 -9.2541 0)
(197.492 -9.21961 0)
(196.849 -9.19037 0)
(196.214 -9.16567 0)
(195.587 -9.14752 0)
(194.971 -9.13715 0)
(194.368 -9.13497 0)
(193.781 -9.14032 0)
(193.212 -9.15309 0)
(192.664 -9.17308 0)
(192.138 -9.20031 0)
(191.635 -9.23422 0)
(191.157 -9.2741 0)
(190.704 -9.31884 0)
(190.28 -9.36723 0)
(189.885 -9.4185 0)
(189.522 -9.47184 0)
(277.317 72.526 0)
(252.963 -1.67997 0)
(238.947 -5.15015 0)
(229.912 -6.49509 0)
(225.974 -8.65528 0)
(224.02 -9.82787 0)
(222.56 -10.5127 0)
(221.236 -10.8705 0)
(220.037 -11.025 0)
(218.946 -11.0732 0)
(217.923 -11.0795 0)
(216.946 -11.0849 0)
(216.02 -11.0897 0)
(215.154 -11.081 0)
(214.339 -11.059 0)
(213.558 -11.0317 0)
(212.804 -10.9995 0)
(212.069 -10.9614 0)
(211.347 -10.9085 0)
(210.63 -10.852 0)
(209.919 -10.7816 0)
(209.212 -10.7048 0)
(208.512 -10.6103 0)
(207.817 -10.5058 0)
(207.126 -10.3923 0)
(206.432 -10.2837 0)
(205.732 -10.1771 0)
(205.027 -10.0703 0)
(204.319 -9.9647 0)
(203.609 -9.87207 0)
(202.903 -9.79483 0)
(202.206 -9.72309 0)
(201.52 -9.64564 0)
(200.842 -9.56255 0)
(200.168 -9.48213 0)
(199.496 -9.4126 0)
(198.828 -9.35764 0)
(198.168 -9.31605 0)
(197.515 -9.2833 0)
(196.872 -9.25587 0)
(196.238 -9.23308 0)
(195.612 -9.21681 0)
(194.996 -9.20812 0)
(194.394 -9.20727 0)
(193.808 -9.21359 0)
(193.24 -9.22699 0)
(192.693 -9.24729 0)
(192.168 -9.27454 0)
(191.666 -9.30814 0)
(191.188 -9.34736 0)
(190.737 -9.39096 0)
(190.314 -9.43769 0)
(189.92 -9.48674 0)
(189.558 -9.53715 0)
(189.23 -9.58794 0)
(188.937 -9.63862 0)
(188.68 -9.68861 0)
(188.46 -9.73711 0)
(188.278 -9.78371 0)
(188.133 -9.82729 0)
(188.026 -9.86672 0)
(187.957 -9.90222 0)
(187.933 -9.93625 0)
(187.947 -9.97086 0)
(187.991 -9.98899 0)
(188.07 -10.0006 0)
(188.184 -10.0037 0)
(188.334 -9.99949 0)
(188.515 -9.98692 0)
(188.727 -9.96594 0)
(188.965 -9.93615 0)
(189.228 -9.89678 0)
(189.52 -9.84887 0)
(189.831 -9.79228 0)
(190.159 -9.72665 0)
(190.507 -9.65242 0)
(190.869 -9.57027 0)
(191.244 -9.47997 0)
(191.629 -9.38323 0)
(192.023 -9.27807 0)
(192.425 -9.16888 0)
(192.831 -9.05091 0)
(193.241 -8.9318 0)
(193.652 -8.80294 0)
(194.066 -8.6764 0)
(194.474 -8.53879 0)
(194.886 -8.40722 0)
(195.288 -8.26315 0)
(195.692 -8.12864 0)
(196.084 -7.98037 0)
(196.478 -7.84472 0)
(196.855 -7.69444 0)
(197.236 -7.5592 0)
(197.598 -7.40894 0)
(197.963 -7.27531 0)
(198.308 -7.12681 0)
(198.655 -6.99574 0)
(198.982 -6.85041 0)
(199.31 -6.72271 0)
(199.617 -6.58168 0)
(199.925 -6.45807 0)
(200.213 -6.32228 0)
(200.502 -6.2034 0)
(200.771 -6.07356 0)
(201.041 -5.95984 0)
(201.292 -5.83625 0)
(201.543 -5.72791 0)
(201.777 -5.61074 0)
(202.012 -5.50816 0)
(202.234 -5.39803 0)
(202.459 -5.30173 0)
(202.672 -5.19913 0)
(202.885 -5.10903 0)
(203.083 -5.01372 0)
(203.272 -4.92957 0)
(203.434 -4.84062 0)
(203.573 -4.7616 0)
(203.666 -4.67137 0)
(203.688 -4.6013 0)
(277.737 73.1316 0)
(253.276 -1.67265 0)
(239.155 -5.1917 0)
(230.038 -6.54411 0)
(226.055 -8.70982 0)
(224.082 -9.87937 0)
(222.613 -10.5598 0)
(221.285 -10.9131 0)
(220.083 -11.0645 0)
(218.987 -11.1108 0)
(217.959 -11.1163 0)
(216.978 -11.1209 0)
(216.049 -11.1244 0)
(215.181 -11.1145 0)
(214.363 -11.0916 0)
(213.581 -11.064 0)
(212.825 -11.0319 0)
(212.089 -10.9942 0)
(211.366 -10.942 0)
(210.649 -10.8865 0)
(209.937 -10.8172 0)
(209.23 -10.7415 0)
(208.53 -10.6482 0)
(207.835 -10.5447 0)
(207.145 -10.4324 0)
(206.45 -10.3254 0)
(205.75 -10.2206 0)
(205.045 -10.1156 0)
(204.336 -10.0119 0)
(203.626 -9.92101 0)
(202.921 -9.84517 0)
(202.224 -9.77455 0)
(201.539 -9.69838 0)
(200.861 -9.61695 0)
(200.186 -9.53847 0)
(199.514 -9.47092 0)
(198.846 -9.41787 0)
(198.186 -9.3781 0)
(197.534 -9.34715 0)
(196.891 -9.3216 0)
(196.257 -9.3008 0)
(195.632 -9.28648 0)
(195.016 -9.27952 0)
(194.415 -9.28007 0)
(193.829 -9.28741 0)
(193.262 -9.30148 0)
(192.716 -9.32216 0)
(192.192 -9.3495 0)
(191.69 -9.38288 0)
(191.214 -9.4215 0)
(190.763 -9.46401 0)
(190.341 -9.50916 0)
(189.948 -9.55604 0)
(189.588 -9.60357 0)
(189.261 -9.65079 0)
(188.969 -9.69721 0)
(188.713 -9.74221 0)
(188.493 -9.78501 0)
(188.311 -9.82509 0)
(188.167 -9.86127 0)
(188.06 -9.89186 0)
(187.991 -9.91738 0)
(187.966 -9.94207 0)
(187.977 -9.96572 0)
(188.02 -9.97197 0)
(188.096 -9.97158 0)
(188.208 -9.96173 0)
(188.353 -9.94378 0)
(188.531 -9.91696 0)
(188.737 -9.8807 0)
(188.972 -9.83495 0)
(189.234 -9.78032 0)
(189.514 -9.71611 0)
(189.816 -9.64288 0)
(190.138 -9.56044 0)
(190.475 -9.46946 0)
(190.827 -9.37033 0)
(191.192 -9.26317 0)
(191.567 -9.14943 0)
(191.95 -9.02782 0)
(192.34 -8.90194 0)
(192.734 -8.76795 0)
(193.132 -8.6325 0)
(193.53 -8.48829 0)
(193.931 -8.34589 0)
(194.328 -8.19368 0)
(194.726 -8.04679 0)
(195.116 -7.88889 0)
(195.508 -7.73971 0)
(195.887 -7.5784 0)
(196.269 -7.42882 0)
(196.635 -7.2663 0)
(197.003 -7.11793 0)
(197.354 -6.9562 0)
(197.707 -6.81029 0)
(198.041 -6.65108 0)
(198.377 -6.5086 0)
(198.693 -6.3533 0)
(199.01 -6.21505 0)
(199.307 -6.06477 0)
(199.605 -5.93146 0)
(199.883 -5.78712 0)
(200.163 -5.65933 0)
(200.423 -5.52161 0)
(200.684 -5.3997 0)
(200.926 -5.26886 0)
(201.169 -5.15305 0)
(201.394 -5.02926 0)
(201.622 -4.91985 0)
(201.836 -4.80369 0)
(202.054 -4.70111 0)
(202.26 -4.59298 0)
(202.467 -4.49712 0)
(202.658 -4.39688 0)
(202.84 -4.3074 0)
(202.994 -4.21388 0)
(203.125 -4.1293 0)
(203.211 -4.03504 0)
(203.227 -3.96243 0)
(203.296 -3.86725 0)
(203.327 -3.92073 0)
(278.022 73.6697 0)
(253.582 -1.64635 0)
(239.361 -5.23129 0)
(230.158 -6.59595 0)
(226.129 -8.76712 0)
(224.139 -9.93114 0)
(222.666 -10.6058 0)
(221.334 -10.9548 0)
(220.127 -11.1034 0)
(219.026 -11.148 0)
(217.993 -11.1527 0)
(217.009 -11.1563 0)
(216.077 -11.1587 0)
(215.207 -11.1475 0)
(214.387 -11.1238 0)
(213.603 -11.0959 0)
(212.845 -11.0638 0)
(212.109 -11.0264 0)
(211.385 -10.975 0)
(210.667 -10.9204 0)
(209.956 -10.8522 0)
(209.249 -10.7776 0)
(208.549 -10.6853 0)
(207.855 -10.5829 0)
(207.165 -10.4719 0)
(206.47 -10.3665 0)
(205.77 -10.2634 0)
(205.065 -10.1604 0)
(204.356 -10.0585 0)
(203.646 -9.96932 0)
(202.941 -9.89486 0)
(202.246 -9.82538 0)
(201.56 -9.75051 0)
(200.882 -9.67077 0)
(200.207 -9.59423 0)
(199.535 -9.52864 0)
(198.868 -9.47747 0)
(198.208 -9.43948 0)
(197.557 -9.41031 0)
(196.915 -9.38662 0)
(196.281 -9.36778 0)
(195.656 -9.35539 0)
(195.042 -9.35011 0)
(194.44 -9.35199 0)
(193.856 -9.36029 0)
(193.29 -9.37499 0)
(192.744 -9.396 0)
(192.221 -9.4234 0)
(191.721 -9.45651 0)
(191.245 -9.49449 0)
(190.795 -9.53587 0)
(190.374 -9.57937 0)
(189.982 -9.62399 0)
(189.622 -9.66858 0)
(189.296 -9.7122 0)
(189.004 -9.75437 0)
(188.748 -9.79437 0)
(188.529 -9.83147 0)
(188.346 -9.86507 0)
(188.2 -9.89423 0)
(188.091 -9.91697 0)
(188.021 -9.93357 0)
(187.994 -9.9482 0)
(188.003 -9.96038 0)
(188.043 -9.95513 0)
(188.115 -9.94275 0)
(188.221 -9.92012 0)
(188.362 -9.88895 0)
(188.533 -9.8477 0)
(188.734 -9.79699 0)
(188.961 -9.73658 0)
(189.211 -9.66658 0)
(189.486 -9.5863 0)
(189.781 -9.49683 0)
(190.093 -9.39804 0)
(190.422 -9.29054 0)
(190.765 -9.17467 0)
(191.12 -9.05089 0)
(191.485 -8.92033 0)
(191.857 -8.78219 0)
(192.237 -8.63954 0)
(192.62 -8.48934 0)
(193.008 -8.33738 0)
(193.395 -8.17754 0)
(193.785 -8.01909 0)
(194.17 -7.85202 0)
(194.557 -7.68972 0)
(194.935 -7.51783 0)
(195.315 -7.35399 0)
(195.682 -7.17959 0)
(196.052 -7.0162 0)
(196.406 -6.84151 0)
(196.762 -6.68022 0)
(197.101 -6.50722 0)
(197.443 -6.34934 0)
(197.765 -6.17971 0)
(198.09 -6.02621 0)
(198.394 -5.86133 0)
(198.7 -5.71298 0)
(198.986 -5.55393 0)
(199.274 -5.41142 0)
(199.54 -5.25908 0)
(199.81 -5.12294 0)
(200.059 -4.97794 0)
(200.311 -4.84846 0)
(200.543 -4.71101 0)
(200.777 -4.58836 0)
(200.993 -4.45861 0)
(201.212 -4.34303 0)
(201.417 -4.2215 0)
(201.627 -4.11329 0)
(201.825 -4.0003 0)
(202.024 -3.89935 0)
(202.208 -3.79482 0)
(202.382 -3.70067 0)
(202.528 -3.60332 0)
(202.647 -3.51371 0)
(202.728 -3.41611 0)
(202.737 -3.3416 0)
(202.801 -3.24335 0)
(202.831 -3.28989 0)
(278.422 74.2456 0)
(253.888 -1.63985 0)
(239.564 -5.27244 0)
(230.278 -6.6441 0)
(226.206 -8.81992 0)
(224.198 -9.98068 0)
(222.717 -10.6509 0)
(221.38 -10.9957 0)
(220.17 -11.1414 0)
(219.065 -11.1843 0)
(218.028 -11.1882 0)
(217.039 -11.1911 0)
(216.105 -11.1924 0)
(215.232 -11.1799 0)
(214.41 -11.1554 0)
(213.624 -11.1273 0)
(212.866 -11.0953 0)
(212.128 -11.0583 0)
(211.403 -11.0076 0)
(210.685 -10.954 0)
(209.974 -10.8869 0)
(209.266 -10.8134 0)
(208.567 -10.7222 0)
(207.873 -10.6209 0)
(207.183 -10.5112 0)
(206.488 -10.4073 0)
(205.788 -10.3061 0)
(205.082 -10.2049 0)
(204.373 -10.1049 0)
(203.664 -10.0175 0)
(202.959 -9.9444 0)
(202.264 -9.87611 0)
(201.579 -9.8026 0)
(200.9 -9.72458 0)
(200.225 -9.65002 0)
(199.553 -9.58641 0)
(198.886 -9.53716 0)
(198.227 -9.50101 0)
(197.576 -9.47369 0)
(196.934 -9.45193 0)
(196.301 -9.43513 0)
(195.676 -9.42471 0)
(195.062 -9.42118 0)
(194.461 -9.42445 0)
(193.877 -9.43376 0)
(193.312 -9.44914 0)
(192.767 -9.47056 0)
(192.245 -9.49808 0)
(191.745 -9.53101 0)
(191.27 -9.5684 0)
(190.821 -9.6087 0)
(190.4 -9.65061 0)
(190.009 -9.69302 0)
(189.65 -9.73469 0)
(189.324 -9.77477 0)
(189.033 -9.81272 0)
(188.778 -9.84777 0)
(188.558 -9.87922 0)
(188.375 -9.90635 0)
(188.229 -9.92823 0)
(188.119 -9.94259 0)
(188.048 -9.95016 0)
(188.017 -9.95439 0)
(188.024 -9.95504 0)
(188.061 -9.93917 0)
(188.129 -9.91504 0)
(188.231 -9.87952 0)
(188.366 -9.83459 0)
(188.533 -9.77937 0)
(188.728 -9.71415 0)
(188.947 -9.63859 0)
(189.191 -9.55301 0)
(189.457 -9.45706 0)
(189.742 -9.35163 0)
(190.044 -9.23662 0)
(190.363 -9.11291 0)
(190.695 -8.98076 0)
(191.038 -8.84085 0)
(191.391 -8.69412 0)
(191.751 -8.54023 0)
(192.118 -8.38174 0)
(192.487 -8.2163 0)
(192.862 -8.0489 0)
(193.235 -7.87448 0)
(193.611 -7.7011 0)
(193.982 -7.52017 0)
(194.356 -7.3435 0)
(194.72 -7.15852 0)
(195.087 -6.98094 0)
(195.441 -6.79424 0)
(195.798 -6.61782 0)
(196.139 -6.43161 0)
(196.483 -6.25805 0)
(196.809 -6.0743 0)
(197.139 -5.90496 0)
(197.449 -5.72534 0)
(197.763 -5.56119 0)
(198.055 -5.38703 0)
(198.351 -5.22886 0)
(198.625 -5.06123 0)
(198.903 -4.90969 0)
(199.16 -4.74947 0)
(199.42 -4.60505 0)
(199.66 -4.4528 0)
(199.902 -4.31577 0)
(200.125 -4.17168 0)
(200.351 -4.04215 0)
(200.558 -3.90637 0)
(200.77 -3.78455 0)
(200.968 -3.65755 0)
(201.171 -3.54365 0)
(201.362 -3.42575 0)
(201.554 -3.31971 0)
(201.73 -3.21087 0)
(201.898 -3.11214 0)
(202.035 -3.01111 0)
(202.144 -2.91662 0)
(202.221 -2.81596 0)
(202.225 -2.73919 0)
(202.287 -2.63854 0)
(202.316 -2.67818 0)
(278.689 74.7545 0)
(254.185 -1.61243 0)
(239.763 -5.31208 0)
(230.392 -6.69505 0)
(226.275 -8.87539 0)
(224.252 -10.0305 0)
(222.766 -10.6952 0)
(221.426 -11.0358 0)
(220.211 -11.1788 0)
(219.102 -11.2202 0)
(218.061 -11.2234 0)
(217.069 -11.2254 0)
(216.132 -11.2256 0)
(215.257 -11.2119 0)
(214.433 -11.1866 0)
(213.645 -11.1582 0)
(212.886 -11.1263 0)
(212.147 -11.0896 0)
(211.422 -11.0396 0)
(210.703 -10.987 0)
(209.992 -10.921 0)
(209.285 -10.8486 0)
(208.586 -10.7585 0)
(207.892 -10.6582 0)
(207.202 -10.5498 0)
(206.508 -10.4476 0)
(205.807 -10.3482 0)
(205.101 -10.2489 0)
(204.392 -10.1508 0)
(203.683 -10.065 0)
(202.979 -9.99333 0)
(202.285 -9.92623 0)
(201.6 -9.8541 0)
(200.921 -9.77782 0)
(200.246 -9.70523 0)
(199.575 -9.6436 0)
(198.909 -9.59623 0)
(198.25 -9.56189 0)
(197.6 -9.53638 0)
(196.958 -9.51654 0)
(196.325 -9.50175 0)
(195.701 -9.49328 0)
(195.087 -9.49144 0)
(194.487 -9.49604 0)
(193.904 -9.5063 0)
(193.34 -9.52233 0)
(192.796 -9.54412 0)
(192.274 -9.57173 0)
(191.775 -9.60445 0)
(191.301 -9.64122 0)
(190.852 -9.68042 0)
(190.432 -9.72069 0)
(190.042 -9.76082 0)
(189.683 -9.79957 0)
(189.357 -9.83613 0)
(189.066 -9.8699 0)
(188.81 -9.90006 0)
(188.59 -9.92591 0)
(188.405 -9.94665 0)
(188.256 -9.96158 0)
(188.143 -9.96803 0)
(188.07 -9.96826 0)
(188.037 -9.96022 0)
(188.041 -9.95026 0)
(188.072 -9.92453 0)
(188.134 -9.88841 0)
(188.23 -9.84 0)
(188.361 -9.78216 0)
(188.519 -9.71356 0)
(188.705 -9.63428 0)
(188.916 -9.54406 0)
(189.151 -9.4435 0)
(189.407 -9.33225 0)
(189.682 -9.21125 0)
(189.975 -9.08046 0)
(190.283 -8.94087 0)
(190.603 -8.79267 0)
(190.936 -8.63674 0)
(191.277 -8.47386 0)
(191.625 -8.30407 0)
(191.98 -8.1295 0)
(192.338 -7.94849 0)
(192.701 -7.76533 0)
(193.062 -7.57591 0)
(193.425 -7.38727 0)
(193.784 -7.19213 0)
(194.145 -7.00086 0)
(194.497 -6.80256 0)
(194.851 -6.61116 0)
(195.192 -6.41206 0)
(195.536 -6.22267 0)
(195.865 -6.02498 0)
(196.196 -5.83934 0)
(196.51 -5.64502 0)
(196.827 -5.46451 0)
(197.125 -5.27518 0)
(197.427 -5.10078 0)
(197.707 -4.91774 0)
(197.992 -4.75021 0)
(198.255 -4.5745 0)
(198.522 -4.41446 0)
(198.767 -4.24689 0)
(199.017 -4.09478 0)
(199.246 -3.93588 0)
(199.479 -3.79191 0)
(199.692 -3.64183 0)
(199.908 -3.50606 0)
(200.107 -3.3649 0)
(200.31 -3.23747 0)
(200.499 -3.10563 0)
(200.695 -2.98665 0)
(200.878 -2.8644 0)
(201.063 -2.7538 0)
(201.232 -2.6411 0)
(201.392 -2.53824 0)
(201.521 -2.43432 0)
(201.615 -2.33517 0)
(201.689 -2.23166 0)
(201.688 -2.15446 0)
(201.749 -2.05074 0)
(201.779 -2.08356 0)
(279.069 75.3018 0)
(254.483 -1.60704 0)
(239.958 -5.35269 0)
(230.506 -6.74255 0)
(226.348 -8.92656 0)
(224.307 -10.0781 0)
(222.815 -10.7385 0)
(221.471 -11.075 0)
(220.252 -11.2154 0)
(219.139 -11.2552 0)
(218.094 -11.2577 0)
(217.098 -11.2591 0)
(216.159 -11.2581 0)
(215.282 -11.2433 0)
(214.456 -11.2174 0)
(213.666 -11.1887 0)
(212.905 -11.1569 0)
(212.166 -11.1206 0)
(211.439 -11.0714 0)
(210.721 -11.0197 0)
(210.009 -10.9548 0)
(209.302 -10.8835 0)
(208.603 -10.7945 0)
(207.91 -10.6953 0)
(207.22 -10.5883 0)
(206.526 -10.4877 0)
(205.825 -10.3901 0)
(205.118 -10.2926 0)
(204.409 -10.1964 0)
(203.701 -10.1124 0)
(202.997 -10.0422 0)
(202.303 -9.97629 0)
(201.618 -9.90559 0)
(200.939 -9.83109 0)
(200.264 -9.76051 0)
(199.593 -9.70088 0)
(198.927 -9.65543 0)
(198.269 -9.62296 0)
(197.619 -9.59934 0)
(196.978 -9.58148 0)
(196.345 -9.56878 0)
(195.721 -9.56231 0)
(195.107 -9.56223 0)
(194.508 -9.56821 0)
(193.925 -9.57948 0)
(193.362 -9.59621 0)
(192.819 -9.61844 0)
(192.298 -9.64623 0)
(191.799 -9.6788 0)
(191.325 -9.715 0)
(190.877 -9.75314 0)
(190.457 -9.79182 0)
(190.067 -9.82971 0)
(189.709 -9.86557 0)
(189.384 -9.89864 0)
(189.093 -9.92826 0)
(188.836 -9.95353 0)
(188.615 -9.97382 0)
(188.429 -9.98815 0)
(188.279 -9.99584 0)
(188.164 -9.99424 0)
(188.088 -9.98675 0)
(188.054 -9.96757 0)
(188.053 -9.94479 0)
(188.078 -9.91097 0)
(188.135 -9.86237 0)
(188.226 -9.80108 0)
(188.349 -9.73063 0)
(188.501 -9.64835 0)
(188.679 -9.55482 0)
(188.882 -9.45002 0)
(189.108 -9.3345 0)
(189.354 -9.20809 0)
(189.619 -9.07171 0)
(189.9 -8.92538 0)
(190.196 -8.77022 0)
(190.505 -8.60648 0)
(190.824 -8.43518 0)
(191.152 -8.25698 0)
(191.486 -8.07223 0)
(191.827 -7.88272 0)
(192.171 -7.68731 0)
(192.518 -7.48967 0)
(192.864 -7.28649 0)
(193.213 -7.08386 0)
(193.557 -6.87567 0)
(193.904 -6.67096 0)
(194.241 -6.46033 0)
(194.581 -6.25611 0)
(194.908 -6.04544 0)
(195.238 -5.8439 0)
(195.553 -5.6354 0)
(195.872 -5.43833 0)
(196.173 -5.23395 0)
(196.477 -5.04275 0)
(196.763 -4.84408 0)
(197.053 -4.65976 0)
(197.322 -4.46809 0)
(197.595 -4.2914 0)
(197.847 -4.10772 0)
(198.103 -3.93926 0)
(198.339 -3.76435 0)
(198.579 -3.60451 0)
(198.798 -3.43886 0)
(199.022 -3.28782 0)
(199.226 -3.13156 0)
(199.434 -2.98935 0)
(199.624 -2.84255 0)
(199.82 -2.70921 0)
(200.002 -2.57221 0)
(200.19 -2.44783 0)
(200.367 -2.32086 0)
(200.545 -2.20533 0)
(200.708 -2.08828 0)
(200.861 -1.98098 0)
(200.984 -1.87374 0)
(201.06 -1.76916 0)
(201.135 -1.66303 0)
(201.132 -1.58121 0)
(201.194 -1.47436 0)
(201.223 -1.50253 0)
(279.32 75.7824 0)
(254.771 -1.5789 0)
(240.149 -5.39222 0)
(230.615 -6.79281 0)
(226.414 -8.98034 0)
(224.359 -10.126 0)
(222.862 -10.781 0)
(221.514 -11.1136 0)
(220.292 -11.2514 0)
(219.174 -11.2898 0)
(218.125 -11.2917 0)
(217.126 -11.2923 0)
(216.185 -11.2903 0)
(215.305 -11.2743 0)
(214.478 -11.2477 0)
(213.687 -11.2188 0)
(212.925 -11.187 0)
(212.184 -11.1511 0)
(211.457 -11.1026 0)
(210.738 -11.0519 0)
(210.026 -10.9881 0)
(209.32 -10.9179 0)
(208.621 -10.8299 0)
(207.929 -10.7318 0)
(207.24 -10.6261 0)
(206.545 -10.5272 0)
(205.844 -10.4315 0)
(205.137 -10.3359 0)
(204.429 -10.2416 0)
(203.72 -10.1592 0)
(203.017 -10.0904 0)
(202.324 -10.0258 0)
(201.639 -9.95651 0)
(200.961 -9.88381 0)
(200.286 -9.81522 0)
(199.615 -9.75757 0)
(198.949 -9.71402 0)
(198.292 -9.68339 0)
(197.643 -9.66164 0)
(197.002 -9.64575 0)
(196.37 -9.6351 0)
(195.746 -9.6306 0)
(195.133 -9.63221 0)
(194.534 -9.63952 0)
(193.953 -9.65174 0)
(193.39 -9.66914 0)
(192.848 -9.69179 0)
(192.327 -9.71974 0)
(191.829 -9.75215 0)
(191.356 -9.78776 0)
(190.908 -9.82483 0)
(190.488 -9.86188 0)
(190.099 -9.89751 0)
(189.74 -9.93052 0)
(189.415 -9.96017 0)
(189.123 -9.98573 0)
(188.865 -10.0062 0)
(188.642 -10.0211 0)
(188.454 -10.0292 0)
(188.301 -10.0298 0)
(188.182 -10.021 0)
(188.102 -10.0059 0)
(188.066 -9.97668 0)
(188.06 -9.93941 0)
(188.078 -9.89876 0)
(188.128 -9.8382 0)
(188.212 -9.76512 0)
(188.327 -9.68193 0)
(188.47 -9.58648 0)
(188.639 -9.47944 0)
(188.832 -9.36065 0)
(189.048 -9.23073 0)
(189.283 -9.08966 0)
(189.536 -8.93842 0)
(189.806 -8.77703 0)
(190.089 -8.60668 0)
(190.385 -8.42762 0)
(190.692 -8.24098 0)
(191.007 -8.04734 0)
(191.329 -7.84736 0)
(191.657 -7.64252 0)
(191.987 -7.43222 0)
(192.321 -7.2196 0)
(192.654 -7.00211 0)
(192.99 -6.78503 0)
(193.32 -6.56329 0)
(193.653 -6.34481 0)
(193.977 -6.12151 0)
(194.303 -5.90431 0)
(194.617 -5.68191 0)
(194.934 -5.46823 0)
(195.235 -5.24893 0)
(195.54 -5.04057 0)
(195.829 -4.82628 0)
(196.121 -4.62466 0)
(196.394 -4.41694 0)
(196.671 -4.22308 0)
(196.928 -4.02315 0)
(197.189 -3.83779 0)
(197.43 -3.64661 0)
(197.675 -3.47027 0)
(197.899 -3.28858 0)
(198.129 -3.12161 0)
(198.338 -2.94984 0)
(198.552 -2.79238 0)
(198.746 -2.63062 0)
(198.944 -2.48265 0)
(199.125 -2.33093 0)
(199.313 -2.19243 0)
(199.486 -2.05103 0)
(199.666 -1.92201 0)
(199.835 -1.79108 0)
(200.006 -1.67142 0)
(200.161 -1.55069 0)
(200.308 -1.44022 0)
(200.423 -1.32997 0)
(200.477 -1.22149 0)
(200.554 -1.11326 0)
(200.549 -1.02841 0)
(200.608 -0.919771 0)
(200.635 -0.942551 0)
(279.682 76.3021 0)
(255.06 -1.57462 0)
(240.336 -5.43225 0)
(230.724 -6.83981 0)
(226.484 -9.02999 0)
(224.412 -10.1718 0)
(222.908 -10.8226 0)
(221.556 -11.1513 0)
(220.331 -11.2866 0)
(219.21 -11.3236 0)
(218.157 -11.3249 0)
(217.155 -11.3248 0)
(216.21 -11.3219 0)
(215.329 -11.3049 0)
(214.5 -11.2775 0)
(213.707 -11.2485 0)
(212.944 -11.2168 0)
(212.202 -11.1813 0)
(211.474 -11.1335 0)
(210.755 -11.0838 0)
(210.043 -11.0211 0)
(209.336 -10.952 0)
(208.638 -10.8651 0)
(207.946 -10.7681 0)
(207.257 -10.6638 0)
(206.562 -10.5666 0)
(205.861 -10.4727 0)
(205.154 -10.379 0)
(204.446 -10.2866 0)
(203.737 -10.206 0)
(203.035 -10.1386 0)
(202.341 -10.0752 0)
(201.657 -10.0075 0)
(200.979 -9.93659 0)
(200.304 -9.87004 0)
(199.633 -9.8144 0)
(198.968 -9.7728 0)
(198.311 -9.74406 0)
(197.662 -9.72424 0)
(197.022 -9.71039 0)
(196.39 -9.70186 0)
(195.766 -9.69939 0)
(195.153 -9.70276 0)
(194.555 -9.71144 0)
(193.974 -9.72469 0)
(193.412 -9.74282 0)
(192.871 -9.76595 0)
(192.351 -9.79413 0)
(191.853 -9.82644 0)
(191.38 -9.86152 0)
(190.932 -9.89755 0)
(190.513 -9.93301 0)
(190.123 -9.96642 0)
(189.765 -9.99661 0)
(189.439 -10.0229 0)
(189.147 -10.0444 0)
(188.888 -10.0601 0)
(188.663 -10.0695 0)
(188.473 -10.0714 0)
(188.317 -10.0648 0)
(188.197 -10.0489 0)
(188.115 -10.0252 0)
(188.073 -9.98679 0)
(188.06 -9.93733 0)
(188.074 -9.8873 0)
(188.118 -9.81415 0)
(188.194 -9.72965 0)
(188.301 -9.63398 0)
(188.435 -9.52531 0)
(188.595 -9.40462 0)
(188.779 -9.27183 0)
(188.983 -9.12758 0)
(189.207 -8.97197 0)
(189.449 -8.806 0)
(189.706 -8.62978 0)
(189.976 -8.44462 0)
(190.259 -8.25082 0)
(190.551 -8.04962 0)
(190.851 -7.84156 0)
(191.158 -7.62747 0)
(191.47 -7.40862 0)
(191.785 -7.18482 0)
(192.103 -6.95869 0)
(192.421 -6.72832 0)
(192.741 -6.49823 0)
(193.056 -6.26425 0)
(193.373 -6.03327 0)
(193.682 -5.79843 0)
(193.993 -5.56931 0)
(194.292 -5.33608 0)
(194.594 -5.11109 0)
(194.882 -4.88167 0)
(195.173 -4.66268 0)
(195.448 -4.43896 0)
(195.727 -4.22739 0)
(195.988 -4.01094 0)
(196.253 -3.80783 0)
(196.498 -3.59983 0)
(196.748 -3.40591 0)
(196.977 -3.20728 0)
(197.211 -3.02304 0)
(197.425 -2.83447 0)
(197.645 -2.66024 0)
(197.844 -2.48213 0)
(198.049 -2.318 0)
(198.234 -2.15043 0)
(198.424 -1.99634 0)
(198.597 -1.83928 0)
(198.777 -1.69517 0)
(198.943 -1.54886 0)
(199.117 -1.41468 0)
(199.279 -1.27918 0)
(199.444 -1.15481 0)
(199.592 -1.02972 0)
(199.733 -0.915754 0)
(199.842 -0.800749 0)
(199.878 -0.689027 0)
(199.955 -0.578041 0)
(199.948 -0.4904 0)
(200.004 -0.379431 0)
(200.03 -0.396056 0)
(279.916 76.7557 0)
(255.34 -1.54602 0)
(240.521 -5.47177 0)
(230.829 -6.8895 0)
(226.547 -9.0822 0)
(224.46 -10.2179 0)
(222.952 -10.8635 0)
(221.598 -11.1884 0)
(220.368 -11.3214 0)
(219.243 -11.3571 0)
(218.187 -11.3578 0)
(217.182 -11.357 0)
(216.235 -11.353 0)
(215.352 -11.335 0)
(214.521 -11.307 0)
(213.727 -11.2778 0)
(212.962 -11.2462 0)
(212.22 -11.211 0)
(211.492 -11.164 0)
(210.772 -11.1152 0)
(210.06 -11.0536 0)
(209.354 -10.9855 0)
(208.656 -10.8997 0)
(207.965 -10.8039 0)
(207.276 -10.701 0)
(206.581 -10.6055 0)
(205.88 -10.5135 0)
(205.173 -10.4217 0)
(204.465 -10.3311 0)
(203.757 -10.2521 0)
(203.055 -10.1862 0)
(202.362 -10.1241 0)
(201.678 -10.0579 0)
(201 -9.98884 0)
(200.326 -9.9243 0)
(199.655 -9.87065 0)
(198.991 -9.83097 0)
(198.334 -9.8041 0)
(197.686 -9.7862 0)
(197.046 -9.77436 0)
(196.414 -9.76792 0)
(195.791 -9.76743 0)
(195.179 -9.7725 0)
(194.582 -9.7825 0)
(194.002 -9.79673 0)
(193.441 -9.81557 0)
(192.9 -9.83917 0)
(192.38 -9.86758 0)
(191.883 -9.89977 0)
(191.41 -9.93431 0)
(190.963 -9.96931 0)
(190.543 -10.0032 0)
(190.153 -10.0344 0)
(189.795 -10.0618 0)
(189.468 -10.0848 0)
(189.174 -10.1024 0)
(188.913 -10.1136 0)
(188.686 -10.1177 0)
(188.493 -10.1135 0)
(188.334 -10.1002 0)
(188.209 -10.0774 0)
(188.122 -10.0452 0)
(188.075 -9.99733 0)
(188.056 -9.93772 0)
(188.064 -9.87624 0)
(188.098 -9.794 0)
(188.166 -9.69793 0)
(188.264 -9.58974 0)
(188.389 -9.46856 0)
(188.538 -9.33501 0)
(188.71 -9.18886 0)
(188.903 -9.03091 0)
(189.114 -8.86137 0)
(189.343 -8.68128 0)
(189.587 -8.49079 0)
(189.844 -8.2912 0)
(190.112 -8.08284 0)
(190.391 -7.86705 0)
(190.677 -7.64433 0)
(190.97 -7.41572 0)
(191.268 -7.18233 0)
(191.568 -6.94435 0)
(191.872 -6.70403 0)
(192.175 -6.46005 0)
(192.481 -6.21632 0)
(192.781 -5.96949 0)
(193.084 -5.72557 0)
(193.379 -5.47875 0)
(193.675 -5.23745 0)
(193.961 -4.99316 0)
(194.248 -4.75682 0)
(194.523 -4.51724 0)
(194.8 -4.28772 0)
(195.061 -4.05471 0)
(195.327 -3.83345 0)
(195.575 -3.60853 0)
(195.827 -3.39655 0)
(196.06 -3.18086 0)
(196.298 -2.97885 0)
(196.515 -2.77325 0)
(196.738 -2.58167 0)
(196.941 -2.3868 0)
(197.15 -2.20593 0)
(197.339 -2.02215 0)
(197.533 -1.85205 0)
(197.708 -1.67937 0)
(197.889 -1.51992 0)
(198.053 -1.35832 0)
(198.224 -1.20939 0)
(198.382 -1.05901 0)
(198.548 -0.920507 0)
(198.702 -0.781293 0)
(198.86 -0.653048 0)
(199.001 -0.524618 0)
(199.135 -0.407733 0)
(199.236 -0.288303 0)
(199.257 -0.175153 0)
(199.331 -0.0614555 0)
(199.321 0.0274426 0)
(199.372 0.140338 0)
(199.396 0.129538 0)
(280.26 77.2483 0)
(255.62 -1.54303 0)
(240.704 -5.51146 0)
(230.935 -6.93606 0)
(226.614 -9.13045 0)
(224.51 -10.262 0)
(222.996 -10.9035 0)
(221.638 -11.2247 0)
(220.406 -11.3553 0)
(219.277 -11.3897 0)
(218.217 -11.39 0)
(217.209 -11.3885 0)
(216.26 -11.3836 0)
(215.375 -11.3646 0)
(214.542 -11.336 0)
(213.747 -11.3067 0)
(212.981 -11.2752 0)
(212.237 -11.2404 0)
(211.508 -11.1942 0)
(210.788 -11.1464 0)
(210.076 -11.0858 0)
(209.37 -11.0189 0)
(208.673 -10.9341 0)
(207.982 -10.8394 0)
(207.293 -10.738 0)
(206.599 -10.6442 0)
(205.897 -10.5541 0)
(205.19 -10.4642 0)
(204.481 -10.3754 0)
(203.774 -10.2982 0)
(203.072 -10.2338 0)
(202.38 -10.173 0)
(201.697 -10.1083 0)
(201.019 -10.0412 0)
(200.344 -9.97869 0)
(199.674 -9.92708 0)
(199.01 -9.88938 0)
(198.353 -9.86443 0)
(197.705 -9.8485 0)
(197.066 -9.83875 0)
(196.434 -9.83446 0)
(195.811 -9.83602 0)
(195.2 -9.84285 0)
(194.603 -9.85422 0)
(194.024 -9.8695 0)
(193.463 -9.88912 0)
(192.923 -9.91327 0)
(192.404 -9.94197 0)
(191.907 -9.9741 0)
(191.434 -10.0081 0)
(190.986 -10.0421 0)
(190.567 -10.0744 0)
(190.177 -10.1035 0)
(189.818 -10.1282 0)
(189.49 -10.1479 0)
(189.195 -10.1616 0)
(188.933 -10.1681 0)
(188.703 -10.167 0)
(188.507 -10.1568 0)
(188.345 -10.1366 0)
(188.217 -10.1069 0)
(188.126 -10.0661 0)
(188.073 -10.0098 0)
(188.049 -9.94097 0)
(188.049 -9.8663 0)
(188.074 -9.77385 0)
(188.133 -9.66679 0)
(188.223 -9.54639 0)
(188.338 -9.41256 0)
(188.477 -9.26594 0)
(188.637 -9.10646 0)
(188.818 -8.93488 0)
(189.017 -8.7515 0)
(189.232 -8.5574 0)
(189.462 -8.35287 0)
(189.705 -8.13928 0)
(189.959 -7.91705 0)
(190.222 -7.68758 0)
(190.492 -7.45136 0)
(190.769 -7.20956 0)
(191.05 -6.96316 0)
(191.334 -6.7126 0)
(191.621 -6.45977 0)
(191.907 -6.20381 0)
(192.196 -5.94805 0)
(192.48 -5.68983 0)
(192.767 -5.43437 0)
(193.046 -5.17679 0)
(193.326 -4.92447 0)
(193.597 -4.67007 0)
(193.869 -4.42326 0)
(194.129 -4.17422 0)
(194.392 -3.93482 0)
(194.64 -3.69302 0)
(194.892 -3.46249 0)
(195.127 -3.2294 0)
(195.366 -3.00878 0)
(195.587 -2.78552 0)
(195.813 -2.57549 0)
(196.019 -2.36288 0)
(196.231 -2.16389 0)
(196.423 -1.96255 0)
(196.622 -1.77484 0)
(196.801 -1.58509 0)
(196.986 -1.40867 0)
(197.153 -1.23048 0)
(197.325 -1.0652 0)
(197.481 -0.898508 0)
(197.644 -0.744205 0)
(197.795 -0.589108 0)
(197.954 -0.445603 0)
(198.101 -0.301969 0)
(198.252 -0.169076 0)
(198.388 -0.0366558 0)
(198.515 0.0844349 0)
(198.609 0.208694 0)
(198.622 0.324158 0)
(198.691 0.441637 0)
(198.677 0.532382 0)
(198.723 0.648004 0)
(198.745 0.643356 0)
(280.48 77.6762 0)
(255.892 -1.51423 0)
(240.885 -5.55109 0)
(231.037 -6.98523 0)
(226.674 -9.18117 0)
(224.556 -10.3064 0)
(223.038 -10.9427 0)
(221.677 -11.2603 0)
(220.441 -11.3888 0)
(219.309 -11.422 0)
(218.245 -11.4218 0)
(217.235 -11.4197 0)
(216.284 -11.4138 0)
(215.397 -11.3938 0)
(214.563 -11.3647 0)
(213.766 -11.3352 0)
(212.999 -11.3038 0)
(212.254 -11.2694 0)
(211.525 -11.2239 0)
(210.805 -11.1771 0)
(210.093 -11.1176 0)
(209.387 -11.0517 0)
(208.691 -10.9681 0)
(208 -10.8745 0)
(207.312 -10.7745 0)
(206.617 -10.6824 0)
(205.915 -10.5942 0)
(205.208 -10.5062 0)
(204.5 -10.4193 0)
(203.793 -10.3438 0)
(203.092 -10.2808 0)
(202.401 -10.2214 0)
(201.718 -10.1583 0)