/*--------------------------------*- C++ -*----------------------------------*\
| =========                 |                                                 |
| \\      /  F ield         | OpenFOAM: The Open Source CFD Toolbox           |
|  \\    /   O peration     | Version:  2412                                  |
|   \\  /    A nd           | Website:  www.openfoam.com                      |
|    \\/     M anipulation  |                                                 |
\*---------------------------------------------------------------------------*/
FoamFile
{
    version     2.0;
    format      ascii;
    arch        "LSB;label=32;scalar=64";
    class       volScalarField;
    location    "0.084";
    object      p;
}
// * * * * * * * * * * * * * * * * * * * * * * * * * * * * * * * * * * * * * //

dimensions      [1 -1 -2 0 0 0 0];

internalField   nonuniform List<scalar> 
9922
(
4486.99
2844.39
2850.28
2871.34
2872.35
2870.4
2864.78
2860.64
2855.28
2850.35
2844.83
2838.93
2832.44
2825.37
2817.84
2810.01
2802.06
2794.09
2786.12
2778.14
2770.1
2761.94
2753.61
2745.06
2736.25
2727.15
2717.75
2708.03
2697.97
2687.57
2676.81
2665.68
2654.16
2642.22
2629.83
2616.97
2603.58
2589.63
2575.1
2559.99
2544.3
2527.97
2510.94
2493.18
2474.67
2455.43
2435.5
2414.88
2393.6
2371.7
2349.23
2326.27
2302.92
2279.3
2255.44
2231.51
2208.35
2187.26
2166.96
2132.52
2020.52
1839.38
1716.35
1655.54
1617.19
1585.28
1557.06
1531.74
1509.34
1489.07
1470.52
1453.8
1438.34
1424
1410.59
1398.01
1386.17
1375.11
1364.84
1355.18
1346.11
1337.41
1329
1321.07
1313.68
1306.7
1300.04
1293.65
1287.55
1281.74
1276.11
1270.79
1265.74
1260.91
1256.28
1251.84
1247.57
1243.47
1239.53
1235.74
1232.06
1228.5
1225.08
1221.82
1218.75
1215.83
1213.04
1210.39
1207.84
1205.43
1203.1
1200.9
1198.75
1196.73
1194.8
1192.98
1191.21
1189.57
1187.94
1186.36
1183.98
4490.86
2843.65
2849.02
2870.26
2871.44
2869.7
2864.22
2860.16
2854.88
2850.01
2844.55
2838.7
2832.26
2825.24
2817.75
2809.94
2802
2794.03
2786.06
2778.07
2770.02
2761.86
2753.52
2744.96
2736.14
2727.03
2717.61
2707.88
2697.8
2687.37
2676.59
2665.42
2653.86
2641.87
2629.42
2616.49
2603.02
2588.97
2574.32
2559.07
2543.19
2526.65
2509.38
2491.33
2472.47
2452.81
2432.36
2411.11
2389.06
2366.22
2342.61
2318.27
2293.19
2267.32
2240.6
2213.34
2186.11
2156.76
2112.66
2012.22
1872.15
1764.26
1698.63
1653.85
1617.15
1585.43
1557.33
1532.08
1509.46
1489.15
1470.85
1453.93
1438.52
1423.98
1410.61
1398.01
1386.25
1375.03
1364.59
1354.73
1345.36
1336.46
1328.18
1320.46
1313.13
1306.11
1299.41
1293.03
1286.92
1281.06
1275.53
1270.31
1265.31
1260.5
1255.86
1251.38
1247.02
1242.82
1238.82
1235.03
1231.42
1227.99
1224.75
1221.68
1218.77
1215.97
1213.27
1210.68
1208.18
1205.78
1203.43
1201.21
1199.04
1197
1195.04
1193.19
1191.37
1189.69
1188.02
1186.47
1184.21
4494.76
2842.96
2847.76
2869.16
2870.52
2868.98
2863.65
2859.68
2854.47
2849.66
2844.26
2838.47
2832.08
2825.11
2817.65
2809.86
2801.93
2793.97
2786
2778
2769.95
2761.78
2753.44
2744.87
2736.03
2726.91
2717.48
2707.73
2697.63
2687.18
2676.37
2665.17
2653.57
2641.53
2629.03
2616.02
2602.47
2588.33
2573.56
2558.16
2542.12
2525.37
2507.86
2489.52
2470.32
2450.24
2429.27
2407.38
2384.54
2360.74
2335.95
2310.13
2283.16
2254.87
2225.18
2194.02
2159.42
2112.32
2030.62
1918.71
1818.67
1747.28
1695.26
1653.29
1617.58
1585.82
1557.55
1532.72
1510.04
1489.55
1470.93
1453.89
1438.3
1423.75
1410.22
1397.57
1385.68
1374.54
1364.2
1354.42
1345.2
1336.49
1328.28
1320.45
1312.96
1305.83
1299.11
1292.76
1286.66
1280.77
1275.16
1269.86
1264.8
1259.93
1255.24
1250.78
1246.54
1242.55
1238.8
1235.22
1231.78
1228.46
1225.24
1222.15
1219.16
1216.28
1213.52
1210.88
1208.35
1205.95
1203.62
1201.43
1199.3
1197.3
1195.39
1193.57
1191.79
1190.12
1188.43
1186.83
1184.51
4498.69
2842.31
2846.5
2868.05
2869.59
2868.26
2863.07
2859.19
2854.06
2849.3
2843.96
2838.22
2831.89
2824.97
2817.55
2809.79
2801.87
2793.9
2785.93
2777.94
2769.88
2761.7
2753.35
2744.77
2735.92
2726.79
2717.34
2707.57
2697.46
2686.99
2676.16
2664.93
2653.29
2641.2
2628.64
2615.57
2601.95
2587.71
2572.83
2557.29
2541.07
2524.13
2506.38
2487.76
2468.22
2447.72
2426.23
2403.71
2380.09
2355.31
2329.31
2301.95
2273.01
2242.26
2209.32
2172.57
2126.54
2060.61
1967.99
1875.7
1800.09
1741.32
1694.05
1653.3
1617.31
1585.96
1558.1
1532.81
1510.01
1489.35
1470.61
1453.35
1437.56
1422.94
1409.6
1396.94
1385.18
1374.17
1363.87
1354.14
1344.97
1336.25
1327.94
1320.03
1312.51
1305.39
1298.75
1292.51
1286.43
1280.46
1274.69
1269.29
1264.21
1259.44
1254.93
1250.64
1246.55
1242.58
1238.68
1234.85
1231.12
1227.55
1224.13
1220.87
1217.78
1214.85
1212.07
1209.43
1206.91
1204.54
1202.24
1200.07
1197.95
1195.97
1194.07
1192.27
1190.5
1188.84
1187.15
1185.53
1183.18
4502.65
2841.72
2845.25
2866.93
2868.64
2867.53
2862.48
2858.69
2853.63
2848.94
2843.65
2837.98
2831.7
2824.83
2817.45
2809.71
2801.81
2793.84
2785.87
2777.87
2769.81
2761.63
2753.27
2744.68
2735.82
2726.67
2717.21
2707.43
2697.3
2686.81
2675.95
2664.7
2653.02
2640.89
2628.27
2615.14
2601.44
2587.11
2572.12
2556.45
2540.06
2522.92
2504.94
2486.05
2466.17
2445.26
2423.27
2400.12
2375.72
2349.98
2322.74
2293.81
2262.9
2229.61
2192.74
2148.92
2091.93
2016.22
1932.57
1855.78
1791.63
1738.9
1693.4
1653.89
1618.98
1587.24
1558.81
1533.42
1510.69
1489.88
1470.82
1453.6
1437.94
1423.52
1410.2
1397.63
1385.85
1374.66
1364.15
1354.15
1344.65
1335.68
1327.32
1319.42
1311.85
1304.7
1298.01
1291.66
1285.47
1279.54
1274.04
1268.95
1264.09
1259.4
1254.83
1250.35
1245.93
1241.63
1237.48
1233.57
1229.95
1226.57
1223.37
1220.32
1217.42
1214.66
1212.01
1209.47
1207.02
1204.7
1202.44
1200.29
1198.19
1196.21
1194.33
1192.53
1190.76
1189.12
1187.45
1185.9
1183.6
4506.64
2841.18
2843.99
2865.8
2867.67
2866.78
2861.88
2858.19
2853.2
2848.56
2843.34
2837.72
2831.5
2824.69
2817.34
2809.64
2801.74
2793.79
2785.81
2777.81
2769.74
2761.55
2753.19
2744.59
2735.71
2726.55
2717.08
2707.28
2697.14
2686.63
2675.75
2664.47
2652.76
2640.58
2627.92
2614.72
2600.95
2586.54
2571.44
2555.64
2539.09
2521.76
2503.55
2484.38
2464.18
2442.87
2420.39
2396.63
2371.47
2344.77
2316.32
2285.86
2252.99
2216.94
2175.6
2125.16
2062.25
1986.99
1912.39
1845.24
1787.67
1737.97
1694.78
1656.09
1621.08
1589.77
1561.5
1535.85
1512.57
1491.53
1472.47
1454.99
1439.2
1424.47
1410.8
1397.92
1385.9
1374.56
1363.97
1354.04
1344.77
1336
1327.63
1319.62
1312.04
1304.93
1298.2
1291.75
1285.59
1279.78
1274.26
1268.89
1263.64
1258.62
1253.81
1249.26
1244.97
1240.99
1237.27
1233.74
1230.36
1227.08
1223.88
1220.79
1217.82
1214.98
1212.24
1209.61
1207.08
1204.68
1202.37
1200.2
1198.08
1196.08
1194.17
1192.36
1190.57
1188.89
1187.19
1185.6
1183.29
4510.65
2840.7
2842.74
2864.66
2866.69
2866.03
2861.28
2857.67
2852.76
2848.18
2843.02
2837.46
2831.3
2824.54
2817.24
2809.56
2801.68
2793.73
2785.75
2777.74
2769.67
2761.48
2753.1
2744.49
2735.61
2726.44
2716.95
2707.14
2696.98
2686.46
2675.56
2664.25
2652.51
2640.29
2627.58
2614.32
2600.48
2585.99
2570.79
2554.86
2538.15
2520.63
2502.21
2482.77
2462.25
2440.56
2417.6
2393.25
2367.35
2339.71
2310.08
2278.13
2243.28
2204.33
2158.8
2104.01
2039.49
1968.74
1900.73
1839.79
1786.38
1739.23
1696.7
1658.49
1624.09
1592.64
1564
1538.18
1514.69
1493.29
1473.71
1455.73
1439.3
1424.07
1410.12
1397.07
1385.08
1373.83
1363.31
1353.34
1344
1335.2
1326.92
1319.06
1311.57
1304.45
1297.59
1291.04
1284.8
1278.91
1273.21
1267.75
1262.62
1257.89
1253.46
1249.27
1245.25
1241.32
1237.44
1233.63
1229.91
1226.3
1222.84
1219.55
1216.43
1213.48
1210.67
1208
1205.44
1203.03
1200.71
1198.56
1196.45
1194.46
1192.56
1190.77
1189
1187.36
1185.65
1184.05
1181.8
4514.68
2840.27
2841.5
2863.52
2865.7
2865.26
2860.66
2857.14
2852.31
2847.8
2842.69
2837.19
2831.1
2824.39
2817.13
2809.48
2801.62
2793.67
2785.69
2777.68
2769.6
2761.4
2753.02
2744.4
2735.51
2726.32
2716.82
2707
2696.82
2686.29
2675.37
2664.04
2652.27
2640.01
2627.25
2613.94
2600.03
2585.46
2570.17
2554.11
2537.26
2519.56
2500.91
2481.22
2460.39
2438.33
2414.91
2389.98
2363.37
2334.83
2304.08
2270.66
2233.82
2192.09
2143.26
2086.29
2022.25
1956.31
1893.78
1837.16
1786.34
1740.41
1699.14
1661.22
1626.25
1594.5
1565.71
1539.49
1515.69
1493.99
1474.15
1455.92
1439.25
1424.06
1410.38
1397.71
1386
1374.77
1364.17
1354.13
1344.67
1335.67
1327.16
1319.06
1311.29
1303.84
1296.81
1290.27
1284.23
1278.58
1273.15
1267.94
1262.99
1258.25
1253.6
1249.04
1244.55
1240.21
1236.04
1232.13
1228.45
1224.98
1221.73
1218.66
1215.74
1212.95
1210.27
1207.72
1205.27
1202.94
1200.69
1198.59
1196.52
1194.58
1192.73
1190.96
1189.22
1187.63
1185.95
1184.41
1182.13
4518.73
2839.9
2840.26
2862.37
2864.7
2864.49
2860.04
2856.61
2851.85
2847.4
2842.36
2836.92
2830.89
2824.24
2817.03
2809.4
2801.56
2793.61
2785.63
2777.62
2769.53
2761.33
2752.94
2744.32
2735.41
2726.21
2716.7
2706.86
2696.67
2686.12
2675.19
2663.84
2652.04
2639.75
2626.94
2613.58
2599.61
2584.96
2569.57
2553.4
2536.4
2518.52
2499.67
2479.73
2458.6
2436.17
2412.31
2386.84
2359.54
2330.14
2298.3
2263.47
2224.74
2180.69
2129.83
2072.49
2010.24
1948.34
1889.85
1836.26
1787.19
1742.71
1701.72
1664.15
1629.54
1597.44
1568.14
1541.56
1517.47
1495.55
1475.58
1457.43
1440.96
1425.82
1412.03
1399.06
1386.91
1375.29
1364.4
1354.15
1344.59
1335.6
1327.2
1319.28
1311.63
1304.23
1297.26
1290.82
1284.81
1279.03
1273.29
1267.71
1262.32
1257.17
1252.25
1247.65
1243.36
1239.38
1235.65
1232.1
1228.67
1225.36
1222.18
1219.13
1216.17
1213.31
1210.56
1207.93
1205.41
1202.99
1200.65
1198.46
1196.32
1194.31
1192.4
1190.58
1188.78
1187.12
1185.37
1183.8
1181.55
4522.79
2839.59
2839.03
2861.23
2863.68
2863.7
2859.41
2856.07
2851.38
2847
2842.02
2836.64
2830.68
2824.08
2816.92
2809.32
2801.49
2793.55
2785.57
2777.56
2769.47
2761.26
2752.86
2744.23
2735.32
2726.11
2716.58
2706.73
2696.53
2685.96
2675.01
2663.64
2651.82
2639.5
2626.65
2613.23
2599.2
2584.48
2569.01
2552.72
2535.59
2517.54
2498.49
2478.31
2456.89
2434.11
2409.82
2383.82
2355.87
2325.65
2292.77
2256.61
2216.23
2170.46
2118.65
2061.98
2001.94
1943.31
1887.79
1836.3
1789.12
1745.69
1705.84
1668.7
1634.11
1602.24
1572.81
1545.81
1521.16
1498.79
1478.48
1459.87
1442.84
1427.05
1412.54
1398.91
1386.32
1374.51
1363.65
1353.47
1344
1335.04
1326.55
1318.4
1310.59
1303.2
1296.34
1290.01
1283.95
1277.99
1272.13
1266.59
1261.46
1256.67
1252.16
1247.9
1243.8
1239.82
1235.92
1232.1
1228.36
1224.77
1221.34
1218.07
1214.94
1211.93
1209.07
1206.36
1203.79
1201.33
1198.96
1196.75
1194.59
1192.56
1190.64
1188.84
1187.06
1185.44
1183.71
1182.14
1180
4526.86
2839.34
2837.8
2860.08
2862.66
2862.9
2858.77
2855.52
2850.91
2846.59
2841.67
2836.36
2830.46
2823.92
2816.81
2809.25
2801.43
2793.5
2785.52
2777.5
2769.4
2761.19
2752.79
2744.14
2735.22
2726
2716.46
2706.6
2696.39
2685.81
2674.85
2663.46
2651.61
2639.26
2626.37
2612.91
2598.82
2584.03
2568.47
2552.09
2534.82
2516.61
2497.36
2476.95
2455.26
2432.14
2407.44
2380.94
2352.37
2321.38
2287.54
2250.2
2208.53
2161.72
2109.82
2054.29
1996.6
1940.61
1887.58
1838.35
1792.69
1750.29
1710.46
1673.32
1638.8
1606.6
1576.82
1549.47
1524.42
1501.51
1480.53
1461.26
1443.57
1427.3
1412.54
1398.95
1386.69
1375.26
1364.7
1354.64
1345.11
1336.01
1327.28
1318.87
1310.86
1303.45
1296.66
1290.29
1284.16
1278.17
1272.42
1267.05
1261.95
1257.01
1252.19
1247.54
1243.02
1238.67
1234.49
1230.51
1226.75
1223.23
1219.92
1216.8
1213.81
1210.96
1208.26
1205.71
1203.26
1200.93
1198.68
1196.55
1194.44
1192.48
1190.63
1188.88
1187.14
1185.57
1183.86
1182.36
1180.17
4530.95
2839.16
2836.59
2858.93
2861.64
2862.1
2858.12
2854.96
2850.43
2846.17
2841.32
2836.07
2830.23
2823.76
2816.7
2809.17
2801.37
2793.45
2785.46
2777.44
2769.34
2761.12
2752.71
2744.06
2735.13
2725.9
2716.35
2706.48
2696.25
2685.66
2674.69
2663.28
2651.42
2639.04
2626.11
2612.6
2598.46
2583.61
2567.97
2551.49
2534.1
2515.74
2496.31
2475.67
2453.71
2430.27
2405.18
2378.21
2349.05
2317.35
2282.65
2244.34
2201.73
2154.42
2102.93
2048.7
1993.4
1939.78
1888.84
1841.25
1796.52
1754.29
1714.75
1677.52
1642.45
1609.86
1579.72
1551.95
1526.46
1503.13
1481.82
1462.39
1444.76
1428.71
1414.2
1400.7
1388.38
1376.69
1365.62
1354.97
1344.89
1335.44
1326.71
1318.61
1311.09
1303.97
1297.06
1290.36
1283.87
1277.65
1271.76
1266.19
1260.82
1255.65
1250.72
1246.11
1241.79
1237.74
1233.91
1230.27
1226.8
1223.48
1220.28
1217.2
1214.23
1211.38
1208.66
1206.03
1203.51
1201.1
1198.76
1196.53
1194.34
1192.3
1190.35
1188.5
1186.62
1184.9
1183.04
1181.37
1178.99
4535.04
2839.04
2835.4
2857.78
2860.6
2861.29
2857.47
2854.39
2849.93
2845.74
2840.95
2835.77
2830.01
2823.6
2816.58
2809.09
2801.31
2793.39
2785.41
2777.38
2769.28
2761.05
2752.64
2743.98
2735.04
2725.8
2716.24
2706.36
2696.12
2685.52
2674.53
2663.12
2651.23
2638.83
2625.87
2612.32
2598.12
2583.21
2567.51
2550.93
2533.43
2514.93
2495.32
2474.47
2452.25
2428.51
2403.06
2375.64
2345.95
2313.61
2278.18
2239.13
2195.95
2148.58
2097.74
2044.83
1991.57
1939.93
1890.64
1843.98
1799.86
1758.38
1719.17
1682.27
1647.51
1614.78
1584.27
1556.06
1530.13
1506.44
1484.9
1465.34
1447.59
1431.23
1416.2
1402.08
1389.02
1376.69
1365.17
1354.4
1344.6
1335.4
1326.7
1318.48
1310.77
1303.4
1296.21
1289.24
1282.66
1276.58
1270.91
1265.56
1260.42
1255.5
1250.85
1246.46
1242.26
1238.22
1234.29
1230.49
1226.81
1223.26
1219.81
1216.49
1213.31
1210.28
1207.36
1204.56
1201.89
1199.37
1196.93
1194.64
1192.41
1190.34
1188.39
1186.54
1184.71
1183.07
1181.3
1179.71
1177.54
4539.13
2838.99
2834.21
2856.63
2859.57
2860.47
2856.8
2853.81
2849.43
2845.3
2840.58
2835.47
2829.77
2823.43
2816.47
2809.01
2801.25
2793.34
2785.36
2777.32
2769.22
2760.99
2752.57
2743.91
2734.96
2725.71
2716.14
2706.24
2696
2685.39
2674.39
2662.96
2651.06
2638.63
2625.64
2612.05
2597.81
2582.85
2567.07
2550.42
2532.81
2514.18
2494.4
2473.36
2450.9
2426.87
2401.08
2373.25
2343.08
2310.2
2274.19
2234.62
2191.18
2144.03
2093.99
2042.37
1990.94
1941.01
1893.04
1847.63
1804.62
1763.81
1725.28
1688.66
1653.94
1621.22
1590.5
1561.89
1535.43
1511.14
1488.93
1468.62
1450.02
1432.85
1417.11
1402.47
1389.21
1376.91
1365.77
1355.41
1345.78
1336.48
1327.74
1319.55
1311.68
1303.98
1296.53
1289.53
1283.15
1277.28
1271.66
1266.19
1260.85
1255.7
1250.74
1246
1241.44
1237.07
1232.9
1228.95
1225.18
1221.59
1218.16
1214.89
1211.79
1208.87
1206.11
1203.5
1201.04
1198.71
1196.44
1194.31
1192.22
1190.26
1188.37
1186.59
1184.82
1183.2
1181.45
1179.86
1177.52
4543.22
2839.01
2833.05
2855.49
2858.53
2859.65
2856.12
2853.23
2848.92
2844.85
2840.2
2835.16
2829.53
2823.26
2816.35
2808.93
2801.19
2793.28
2785.3
2777.27
2769.16
2760.92
2752.5
2743.83
2734.88
2725.61
2716.04
2706.13
2695.88
2685.26
2674.25
2662.81
2650.9
2638.45
2625.44
2611.81
2597.53
2582.51
2566.68
2549.95
2532.25
2513.49
2493.56
2472.34
2449.66
2425.37
2399.26
2371.07
2340.49
2307.16
2270.73
2230.86
2187.39
2140.59
2091.34
2041.03
1991.31
1943.1
1896.73
1852.62
1810.49
1770.15
1731.47
1694.6
1659.61
1626.46
1595.35
1566.35
1539.44
1514.58
1491.68
1470.68
1451.48
1434
1418.3
1403.94
1390.98
1378.71
1367.29
1356.26
1345.79
1336.09
1327.25
1318.93
1310.85
1303.03
1295.66
1288.91
1282.68
1276.75
1270.89
1265.13
1259.56
1254.3
1249.33
1244.67
1240.27
1236.12
1232.19
1228.48
1224.92
1221.53
1218.27
1215.14
1212.13
1209.26
1206.53
1203.92
1201.39
1198.95
1196.56
1194.29
1192.02
1189.84
1187.76
1185.82
1183.91
1182.17
1180.35
1178.7
1176.37
4547.31
2839.1
2831.91
2854.36
2857.5
2858.82
2855.43
2852.64
2848.4
2844.39
2839.8
2834.83
2829.29
2823.08
2816.23
2808.85
2801.13
2793.23
2785.25
2777.21
2769.1
2760.86
2752.44
2743.76
2734.8
2725.53
2715.94
2706.03
2695.77
2685.14
2674.12
2662.67
2650.75
2638.29
2625.25
2611.59
2597.27
2582.2
2566.31
2549.52
2531.73
2512.87
2492.81
2471.41
2448.53
2424.01
2397.62
2369.11
2338.19
2304.52
2267.8
2227.77
2184.38
2138.05
2089.84
2041.08
1992.93
1946.28
1901.19
1857.76
1815.85
1775.49
1736.91
1699.96
1664.62
1631.2
1599.74
1570.3
1542.93
1517.63
1494.41
1473.24
1454.07
1436.69
1420.96
1406.3
1392.74
1379.85
1367.91
1356.65
1346.43
1336.97
1327.97
1319.21
1310.76
1302.78
1295.5
1288.88
1282.64
1276.55
1270.58
1264.83
1259.41
1254.36
1249.59
1245.04
1240.67
1236.5
1232.49
1228.65
1224.97
1221.43
1218.01
1214.71
1211.5
1208.41
1205.45
1202.61
1199.87
1197.28
1194.81
1192.47
1190.2
1188.08
1186.13
1184.33
1182.56
1180.94
1179.22
1177.66
1175.48
4551.38
2839.27
2830.8
2853.23
2856.46
2857.99
2854.73
2852.03
2847.87
2843.92
2839.41
2834.51
2829.03
2822.9
2816.11
2808.77
2801.08
2793.18
2785.2
2777.16
2769.04
2760.8
2752.37
2743.69
2734.72
2725.44
2715.85
2705.93
2695.66
2685.03
2674
2662.54
2650.61
2638.13
2625.07
2611.39
2597.03
2581.92
2565.99
2549.13
2531.27
2512.31
2492.13
2470.59
2447.53
2422.79
2396.16
2367.39
2336.2
2302.29
2265.39
2225.31
2182.13
2136.48
2089.42
2042.03
1995.24
1949.75
1905.26
1862.17
1820.79
1781.11
1743.02
1706.55
1671.6
1638.17
1606.47
1576.66
1548.84
1523.07
1499.4
1477.75
1458.01
1439.91
1423.3
1407.76
1393.37
1380.01
1368.09
1357.22
1347.18
1337.51
1328.29
1319.56
1311.4
1303.8
1296.69
1289.91
1283.31
1276.95
1270.84
1265
1259.44
1254.18
1249.12
1244.23
1239.54
1235.11
1230.91
1226.93
1223.15
1219.56
1216.12
1212.84
1209.7
1206.74
1203.99
1201.42
1198.99
1196.66
1194.39
1192.22
1190.13
1188.14
1186.25
1184.46
1182.66
1181
1179.22
1177.6
1175.28
4555.44
2839.48
2829.71
2852.12
2855.43
2857.15
2854.02
2851.43
2847.33
2843.45
2839
2834.17
2828.77
2822.71
2815.98
2808.69
2801.02
2793.13
2785.14
2777.1
2768.99
2760.74
2752.31
2743.63
2734.65
2725.37
2715.76
2705.83
2695.56
2684.92
2673.89
2662.43
2650.48
2638
2624.92
2611.21
2596.82
2581.68
2565.69
2548.78
2530.85
2511.81
2491.53
2469.86
2446.65
2421.73
2394.9
2365.92
2334.52
2300.44
2263.44
2223.41
2180.59
2135.73
2089.83
2043.61
1997.98
1953.46
1909.9
1867.92
1827.54
1788.47
1750.74
1714.29
1679.18
1645.57
1613.6
1583.43
1555.14
1528.77
1504.33
1481.84
1461.18
1442.25
1424.92
1409.04
1394.83
1381.63
1369.5
1357.97
1347.33
1337.35
1327.93
1319.09
1310.99
1303.52
1296.26
1289.08
1282.07
1275.48
1269.27
1263.44
1257.92
1252.72
1247.76
1243.04
1238.55
1234.31
1230.25
1226.38
1222.68
1219.17
1215.85
1212.7
1209.68
1206.81
1204.07
1201.43
1198.84
1196.25
1193.71
1191.33
1189.06
1186.9
1184.86
1182.93
1181
1179.26
1177.39
1175.72
1173.36
4559.49
2839.81
2828.65
2851.02
2854.4
2856.31
2853.31
2850.81
2846.79
2842.96
2838.58
2833.82
2828.5
2822.52
2815.86
2808.61
2800.96
2793.08
2785.1
2777.05
2768.93
2760.69
2752.25
2743.56
2734.58
2725.29
2715.68
2705.74
2695.47
2684.82
2673.79
2662.32
2650.37
2637.88
2624.79
2611.06
2596.64
2581.46
2565.43
2548.48
2530.49
2511.38
2491.01
2469.24
2445.9
2420.82
2393.83
2364.69
2333.15
2298.96
2261.93
2222.05
2179.78
2135.86
2090.87
2045.75
2001.28
1957.9
1915.63
1874.6
1834.67
1795.7
1757.75
1720.97
1685.52
1651.5
1619.14
1588.57
1559.84
1532.96
1507.95
1484.87
1463.74
1444.6
1427.39
1411.74
1397.55
1384.07
1371.61
1359.9
1349.11
1338.9
1329.36
1320.47
1312.16
1304.2
1296.38
1288.81
1281.72
1275.25
1269.22
1263.57
1258.22
1253.14
1248.24
1243.51
1238.96
1234.61
1230.41
1226.4
1222.6
1219.03
1215.62
1212.32
1209.1
1205.96
1202.9
1199.93
1197.08
1194.4
1191.95
1189.71
1187.57
1185.52
1183.59
1181.75
1179.9
1178.23
1176.41
1174.82
1172.56
4563.51
2840.21
2827.62
2849.94
2853.37
2855.46
2852.58
2850.18
2846.23
2842.47
2838.16
2833.47
2828.23
2822.32
2815.72
2808.52
2800.9
2793.03
2785.05
2777
2768.88
2760.63
2752.19
2743.5
2734.52
2725.22
2715.6
2705.66
2695.38
2684.73
2673.69
2662.22
2650.27
2637.77
2624.68
2610.93
2596.48
2581.27
2565.21
2548.21
2530.18
2511.01
2490.57
2468.7
2445.26
2420.06
2392.95
2363.69
2332.05
2297.8
2260.81
2221.27
2179.66
2136.46
2092.52
2048.67
2005.38
1963.07
1921.59
1880.67
1840.71
1801.84
1764.16
1727.61
1692.18
1658.11
1625.53
1594.58
1565.41
1538.1
1512.73
1489.36
1468.02
1448.59
1430.9
1414.57
1399.49
1385.31
1372.32
1360.17
1349.06
1338.68
1329.22
1320.4
1312
1303.88
1296.03
1288.69
1281.93
1275.67
1269.66
1263.87
1258.25
1252.8
1247.5
1242.42
1237.61
1233.06
1228.73
1224.61
1220.75
1217.13
1213.66
1210.3
1207.1
1204.07
1201.24
1198.59
1196.11
1193.74
1191.45
1189.21
1186.97
1184.79
1182.71
1180.76
1178.78
1176.99
1175.06
1173.35
1170.91
4567.51
2840.68
2826.63
2848.87
2852.35
2854.61
2851.85
2849.55
2845.67
2841.97
2837.72
2833.11
2827.95
2822.12
2815.59
2808.44
2800.84
2792.98
2785
2776.96
2768.83
2760.58
2752.14
2743.44
2734.45
2725.15
2715.53
2705.58
2695.3
2684.65
2673.61
2662.14
2650.19
2637.69
2624.58
2610.82
2596.36
2581.12
2565.03
2547.99
2529.92
2510.7
2490.19
2468.26
2444.73
2419.46
2392.25
2362.9
2331.2
2296.96
2260.14
2221.03
2180
2137.67
2094.91
2052.16
2009.73
1968.09
1926.93
1886.5
1847.36
1809.28
1772.13
1735.99
1700.86
1666.78
1634.02
1602.79
1573.21
1545.39
1519.42
1495.35
1473.18
1452.82
1434.11
1416.84
1400.97
1386.35
1373.14
1360.84
1349.79
1339.5
1329.98
1320.87
1312.04
1303.56
1295.59
1288.26
1281.45
1274.99
1268.81
1262.88
1257.17
1251.7
1246.48
1241.58
1236.98
1232.62
1228.39
1224.34
1220.51
1216.86
1213.34
1210
1206.84
1203.81
1200.83
1197.88
1195.01
1192.27
1189.66
1187.23
1184.9
1182.71
1180.68
1178.79
1176.89
1175.18
1173.32
1171.71
1169.47
4571.47
2841.23
2825.68
2847.83
2851.33
2853.76
2851.11
2848.91
2845.09
2841.45
2837.27
2832.73
2827.66
2821.91
2815.45
2808.35
2800.78
2792.94
2784.96
2776.91
2768.78
2760.53
2752.09
2743.39
2734.4
2725.09
2715.46
2705.51
2695.23
2684.58
2673.54
2662.07
2650.12
2637.62
2624.51
2610.74
2596.26
2581
2564.88
2547.8
2529.69
2510.44
2489.89
2467.9
2444.31
2418.96
2391.69
2362.32
2330.61
2296.43
2259.89
2221.24
2180.89
2139.57
2097.78
2055.82
2014.16
1973.25
1933.05
1893.77
1855.41
1817.72
1780.7
1744.4
1708.97
1674.62
1641.56
1609.98
1580
1551.68
1525.07
1500.25
1477.27
1456.16
1436.9
1419.36
1403.61
1389
1375.71
1363.23
1351.9
1341.18
1331.2
1321.84
1313.06
1304.73
1296.88
1289.5
1282.41
1275.63
1269.25
1263.28
1257.61
1252.16
1246.93
1241.96
1237.21
1232.65
1228.26
1224.1
1220.15
1216.38
1212.77
1209.37
1206.12
1203
1199.94
1196.96
1194.13
1191.45
1188.95
1186.62
1184.37
1182.2
1180.14
1178.19
1176.2
1174.39
1172.45
1170.7
1168.23
4575.39
2841.87
2824.77
2846.81
2850.33
2852.91
2850.36
2848.26
2844.5
2840.92
2836.81
2832.35
2827.36
2821.69
2815.3
2808.26
2800.73
2792.9
2784.93
2776.88
2768.74
2760.49
2752.04
2743.34
2734.35
2725.03
2715.4
2705.45
2695.17
2684.52
2673.48
2662.01
2650.06
2637.57
2624.47
2610.69
2596.2
2580.92
2564.78
2547.68
2529.54
2510.23
2489.65
2467.62
2443.99
2418.62
2391.33
2361.91
2330.2
2296.23
2260.06
2221.91
2182.37
2141.92
2100.9
2059.79
2019.15
1979.23
1940.19
1901.47
1863.11
1825.3
1788.08
1751.63
1716.05
1681.49
1648.16
1616.22
1585.83
1557.07
1530.01
1504.74
1481.34
1459.93
1440.55
1422.98
1407.06
1392.1
1378.27
1365.04
1352.71
1341.3
1330.96
1321.39
1312.64
1304.46
1296.64
1289.07
1281.85
1275.12
1268.81
1262.81
1256.92
1251.21
1245.76
1240.64
1235.78
1231.15
1226.75
1222.59
1218.58
1214.7
1211.02
1207.59
1204.35
1201.26
1198.31
1195.47
1192.74
1190.13
1187.59
1185.14
1182.74
1180.44
1178.31
1176.36
1174.43
1172.72
1170.87
1169.23
1166.9
4579.27
2842.59
2823.9
2845.81
2849.33
2852.06
2849.61
2847.6
2843.91
2840.39
2836.35
2831.96
2827.05
2821.47
2815.16
2808.17
2800.67
2792.86
2784.89
2776.84
2768.71
2760.45
2752
2743.3
2734.3
2724.98
2715.35
2705.4
2695.11
2684.47
2673.43
2661.97
2650.03
2637.53
2624.43
2610.66
2596.16
2580.86
2564.69
2547.57
2529.41
2510.1
2489.5
2467.45
2443.8
2418.38
2391.03
2361.64
2330.13
2296.39
2260.58
2223.06
2184.27
2144.56
2104.41
2064.39
2024.73
1985.49
1946.79
1907.99
1869.78
1832.44
1795.87
1759.96
1724.72
1690.3
1656.89
1624.71
1593.95
1564.75
1537.25
1511.5
1487.61
1465.58
1445.37
1426.88
1409.99
1394.41
1380.29
1366.92
1354.62
1343.16
1332.79
1323.13
1314.08
1305.4
1297.03
1289
1281.45
1274.48
1268.04
1261.93
1256.09
1250.59
1245.44
1240.59
1235.9
1231.36
1227.01
1222.84
1218.76
1214.84
1211.13
1207.66
1204.32
1201.11
1198
1194.99
1192.17
1189.51
1186.95
1184.52
1182.19
1180.01
1178
1176.12
1174.21
1172.46
1170.55
1168.81
1166.32
4583.1
2843.4
2823.08
2844.84
2848.34
2851.2
2848.85
2846.93
2843.3
2839.84
2835.87
2831.56
2826.74
2821.24
2815
2808.08
2800.62
2792.82
2784.86
2776.81
2768.68
2760.42
2751.96
2743.26
2734.26
2724.94
2715.3
2705.35
2695.07
2684.43
2673.4
2661.94
2650
2637.52
2624.43
2610.66
2596.17
2580.87
2564.69
2547.54
2529.34
2509.99
2489.36
2467.29
2443.63
2418.23
2390.96
2361.68
2330.31
2296.85
2261.51
2224.62
2186.51
2147.6
2108.47
2069.33
2030.22
1991.48
1953.19
1915.21
1878.06
1841.5
1805.29
1769.54
1734.35
1699.83
1666.26
1633.83
1602.74
1573.11
1545.04
1518.62
1493.93
1471.01
1449.88
1430.42
1412.54
1396.3
1381.86
1368.61
1356.65
1345.15
1334.37
1324.18
1314.64
1305.67
1297.34
1289.58
1282.33
1275.54
1269.06
1262.76
1256.78
1251.16
1245.79
1240.62
1235.61
1230.82
1226.27
1221.91
1217.74
1213.82
1210.11
1206.57
1203.19
1200
1196.96
1194.06
1191.3
1188.65
1186.08
1183.64
1181.28
1179.01
1176.87
1174.86
1172.83
1170.99
1169.01
1167.22
1164.71
4586.86
2844.3
2822.31
2843.91
2847.38
2850.36
2848.09
2846.26
2842.69
2839.28
2835.38
2831.15
2826.42
2821.01
2814.85
2807.98
2800.56
2792.79
2784.84
2776.78
2768.65
2760.38
2751.93
2743.22
2734.22
2724.9
2715.26
2705.31
2695.03
2684.4
2673.38
2661.93
2650
2637.53
2624.45
2610.69
2596.2
2580.9
2564.72
2547.57
2529.36
2510
2489.37
2467.3
2443.65
2418.27
2391.06
2361.9
2330.73
2297.64
2262.81
2226.52
2189.13
2151.13
2112.81
2074.24
2035.77
1997.83
1960.49
1923.69
1886.9
1850.3
1813.98
1778.02
1742.56
1707.82
1673.99
1641.28
1609.84
1579.8
1551.25
1524.28
1498.97
1475.4
1453.77
1433.98
1416.08
1399.55
1384.39
1370.25
1357.53
1345.7
1334.73
1324.34
1314.66
1305.68
1297.51
1289.96
1282.78
1275.79
1268.84
1262.12
1255.84
1250.02
1244.52
1239.26
1234.26
1229.55
1225.05
1220.72
1216.61
1212.77
1209.06
1205.48
1202.05
1198.8
1195.7
1192.77
1190.02
1187.39
1184.87
1182.47
1180.13
1177.88
1175.8
1173.89
1171.97
1170.23
1168.28
1166.55
1164.03
4590.56
2845.29
2821.59
2843.01
2846.42
2849.52
2847.34
2845.59
2842.07
2838.72
2834.89
2830.74
2826.09
2820.77
2814.69
2807.89
2800.51
2792.76
2784.81
2776.76
2768.62
2760.36
2751.9
2743.19
2734.18
2724.86
2715.23
2705.28
2695.01
2684.38
2673.37
2661.93
2650.02
2637.56
2624.49
2610.75
2596.27
2580.98
2564.8
2547.64
2529.43
2510.07
2489.43
2467.38
2443.76
2418.44
2391.32
2362.33
2331.45
2298.76
2264.45
2228.79
2192.17
2154.92
2117.21
2079.39
2041.97
2004.93
1968.27
1931.62
1894.6
1858.01
1821.9
1786.24
1751.06
1716.43
1682.54
1649.6
1617.82
1587.37
1558.39
1530.97
1505.21
1481.23
1459.07
1438.91
1420.72
1403.83
1388.32
1373.83
1360.69
1348.42
1337.16
1326.54
1316.73
1307.67
1299.35
1291.44
1283.5
1275.53
1267.96
1261.29
1255.45
1250.03
1244.75
1239.58
1234.63
1229.91
1225.36
1221.01
1216.91
1213.02
1209.23
1205.57
1202.08
1198.73
1195.55
1192.55
1189.74
1187.02
1184.37
1181.82
1179.33
1176.94
1174.72
1172.68
1170.57
1168.67
1166.58
1164.79
1162.26
4594.19
2846.38
2820.93
2842.15
2845.49
2848.68
2846.58
2844.91
2841.44
2838.14
2834.38
2830.31
2825.75
2820.52
2814.53
2807.79
2800.46
2792.73
2784.79
2776.74
2768.6
2760.33
2751.87
2743.16
2734.16
2724.83
2715.2
2705.25
2694.99
2684.37
2673.38
2661.95
2650.05
2637.61
2624.56
2610.83
2596.37
2581.09
2564.92
2547.77
2529.56
2510.2
2489.58
2467.55
2443.98
2418.75
2391.77
2363
2332.44
2300.18
2266.4
2231.39
2195.47
2158.86
2121.92
2085.13
2048.51
2011.86
1975.37
1938.88
1902.52
1866.79
1831.45
1796.32
1761.44
1726.96
1693.06
1660
1627.97
1597.16
1567.72
1539.77
1513.39
1488.68
1465.66
1444.43
1424.95
1407.14
1391.15
1376.34
1363.02
1350.34
1338.44
1327.27
1317.18
1307.94
1299.32
1290.96
1282.68
1274.87
1268.04
1261.97
1256.16
1250.36
1244.58
1239.03
1233.77
1228.78
1224.07
1219.65
1215.47
1211.42
1207.5
1203.8
1200.27
1196.86
1193.63
1190.6
1187.73
1184.94
1182.26
1179.73
1177.34
1175.05
1172.91
1170.9
1168.82
1166.98
1164.91
1163.17
1160.7
4597.72
2847.57
2820.32
2841.34
2844.58
2847.86
2845.83
2844.24
2840.81
2837.56
2833.87
2829.87
2825.4
2820.26
2814.36
2807.69
2800.4
2792.7
2784.77
2776.72
2768.58
2760.31
2751.85
2743.14
2734.13
2724.81
2715.18
2705.24
2694.98
2684.38
2673.4
2661.99
2650.1
2637.68
2624.65
2610.95
2596.51
2581.25
2565.1
2547.97
2529.77
2510.43
2489.83
2467.85
2444.35
2419.24
2392.43
2363.91
2333.71
2301.89
2268.67
2234.28
2198.98
2163.1
2127.09
2091.05
2054.79
2018.58
1982.74
1947.25
1911.97
1876.61
1841.3
1806.08
1771.05
1736.4
1702.35
1669.08
1636.8
1605.66
1575.8
1547.34
1520.35
1494.91
1471.21
1449.16
1428.68
1410.02
1393.36
1378.1
1364.27
1351.18
1339.25
1328.29
1318.55
1309.4
1300.41
1291.56
1283.08
1275.32
1268.4
1261.96
1255.7
1249.61
1243.83
1238.39
1233.26
1228.37
1223.76
1219.41
1215.16
1211.01
1207.09
1203.46
1199.94
1196.51
1193.28
1190.23
1187.3
1184.46
1181.77
1179.25
1176.79
1174.36
1172.01
1169.81
1167.58
1165.61
1163.39
1161.5
1158.78
4601.19
2848.86
2819.77
2840.56
2843.69
2847.04
2845.08
2843.56
2840.17
2836.98
2833.35
2829.43
2825.04
2820
2814.19
2807.59
2800.35
2792.68
2784.76
2776.71
2768.57
2760.29
2751.83
2743.12
2734.11
2724.79
2715.16
2705.23
2694.99
2684.4
2673.43
2662.04
2650.17
2637.77
2624.77
2611.09
2596.68
2581.46
2565.33
2548.22
2530.05
2510.74
2490.18
2468.26
2444.87
2419.89
2393.3
2365.06
2335.22
2303.88
2271.2
2237.39
2202.77
2167.71
2132.44
2096.87
2061.26
2026.04
1991.03
1956.22
1920.95
1885.32
1849.93
1814.74
1779.76
1745.15
1711.02
1677.58
1645.01
1613.5
1583.21
1554.29
1526.8
1500.85
1476.6
1454.12
1433.64
1414.87
1397.73
1382.05
1367.81
1354.39
1342.36
1331.19
1320.84
1310.88
1301.09
1291.81
1283.39
1275.78
1268.91
1262.58
1256.37
1250.28
1244.43
1238.87
1233.57
1228.56
1223.81
1219.25
1214.77
1210.47
1206.47
1202.71
1199.01
1195.44
1192.06
1188.83
1185.71
1182.72
1179.88
1177.19
1174.55
1172.03
1169.73
1167.69
1165.65
1163.85
1161.79
1160.06
1157.65
4604.5
2850.26
2819.29
2839.83
2842.82
2846.23
2844.33
2842.88
2839.53
2836.38
2832.82
2828.97
2824.67
2819.73
2814
2807.49
2800.3
2792.66
2784.75
2776.7
2768.55
2760.28
2751.82
2743.11
2734.1
2724.78
2715.16
2705.24
2695
2684.43
2673.48
2662.11
2650.27
2637.89
2624.91
2611.27
2596.89
2581.7
2565.61
2548.54
2530.41
2511.15
2490.66
2468.82
2445.55
2420.75
2394.38
2366.45
2337
2306.11
2273.96
2240.76
2206.85
2172.5
2137.79
2102.93
2068.33
2033.8
1999.04
1964.2
1928.97
1893.88
1859.2
1824.71
1790.28
1755.98
1721.98
1688.5
1655.75