/*--------------------------------*- C++ -*----------------------------------*\
| =========                 |                                                 |
| \\      /  F ield         | OpenFOAM: The Open Source CFD Toolbox           |
|  \\    /   O peration     | Version:  2412                                  |
|   \\  /    A nd           | Website:  www.openfoam.com                      |
|    \\/     M anipulation  |                                                 |
\*---------------------------------------------------------------------------*/
FoamFile
{
    version     2.0;
    format      ascii;
    arch        "LSB;label=32;scalar=64";
    class       volScalarField;
    location    "0.084";
    object      T;
}
// * * * * * * * * * * * * * * * * * * * * * * * * * * * * * * * * * * * * * //

dimensions      [0 0 0 1 0 0 0];

internalField   nonuniform List<scalar> 
9922
(
249.679
221.487
223.479
224.777
224.921
224.89
224.763
224.663
224.535
224.416
224.286
224.148
223.997
223.832
223.656
223.472
223.285
223.097
222.909
222.72
222.529
222.336
222.137
221.933
221.722
221.504
221.279
221.045
220.802
220.55
220.288
220.017
219.736
219.443
219.139
218.822
218.49
218.144
217.781
217.403
217.008
216.596
216.164
215.711
215.236
214.741
214.224
213.687
213.129
212.551
211.954
211.34
210.711
210.07
209.418
208.759
208.117
207.53
206.961
205.987
202.732
197.178
193.182
191.133
189.814
188.699
187.701
186.794
185.982
185.241
184.556
183.934
183.354
182.812
182.301
181.82
181.363
180.935
180.534
180.156
179.799
179.456
179.121
178.805
178.51
178.229
177.96
177.702
177.454
177.217
176.988
176.769
176.562
176.363
176.172
175.988
175.811
175.64
175.476
175.317
175.163
175.016
174.876
174.745
174.619
174.495
174.366
174.231
174.091
173.958
173.843
173.764
173.723
173.713
173.726
173.767
173.834
173.911
173.971
174.003
173.943
249.753
221.484
223.459
224.753
224.9
224.874
224.75
224.652
224.525
224.408
224.279
224.143
223.993
223.829
223.654
223.47
223.284
223.096
222.908
222.719
222.528
222.334
222.135
221.931
221.72
221.501
221.275
221.041
220.797
220.545
220.283
220.011
219.729
219.435
219.129
218.81
218.476
218.127
217.762
217.38
216.981
216.563
216.124
215.664
215.18
214.673
214.143
213.588
213.009
212.405
211.777
211.124
210.447
209.743
209.01
208.256
207.496
206.67
205.413
202.478
198.206
194.759
192.589
191.075
189.813
188.705
187.71
186.806
185.987
185.244
184.569
183.939
183.36
182.811
182.302
181.82
181.366
180.932
180.525
180.139
179.77
179.418
179.089
178.781
178.487
178.205
177.935
177.677
177.428
177.19
176.964
176.75
176.544
176.346
176.155
175.969
175.788
175.613
175.446
175.287
175.137
174.995
174.862
174.739
174.62
174.501
174.376
174.244
174.107
173.973
173.856
173.775
173.732
173.721
173.733
173.773
173.838
173.914
173.974
174.007
173.951
249.827
221.481
223.44
224.73
224.879
224.857
224.736
224.641
224.516
224.4
224.273
224.137
223.988
223.826
223.651
223.469
223.282
223.094
222.906
222.717
222.526
222.332
222.133
221.929
221.717
221.499
221.272
221.037
220.793
220.54
220.278
220.005
219.722
219.426
219.119
218.798
218.463
218.111
217.743
217.357
216.953
216.53
216.086
215.617
215.125
214.606
214.062
213.49
212.89
212.26
211.599
210.905
210.175
209.402
208.584
207.717
206.744
205.402
203.022
199.649
196.515
194.203
192.476
191.056
189.828
188.718
187.718
186.829
186.008
185.259
184.571
183.937
183.352
182.802
182.287
181.803
181.344
180.912
180.51
180.127
179.764
179.419
179.093
178.781
178.481
178.194
177.923
177.666
177.418
177.178
176.949
176.731
176.523
176.323
176.129
175.944
175.768
175.602
175.445
175.295
175.152
175.014
174.883
174.758
174.636
174.514
174.387
174.254
174.115
173.981
173.864
173.783
173.74
173.731
173.744
173.786
173.853
173.931
173.99
174.022
173.965
249.901
221.479
223.421
224.705
224.858
224.84
224.723
224.629
224.506
224.392
224.266
224.132
223.984
223.823
223.649
223.467
223.281
223.093
222.905
222.715
222.524
222.33
222.131
221.926
221.715
221.496
221.269
221.033
220.789
220.536
220.272
219.999
219.715
219.418
219.11
218.787
218.45
218.096
217.725
217.335
216.927
216.499
216.048
215.572
215.071
214.541
213.983
213.394
212.773
212.116
211.421
210.684
209.898
209.055
208.143
207.115
205.809
203.902
201.151
198.316
195.919
194.007
192.436
191.056
189.818
188.723
187.738
186.832
186.007
185.251
184.559
183.917
183.324
182.771
182.264
181.778
181.325
180.898
180.497
180.116
179.754
179.409
179.079
178.764
178.462
178.176
177.908
177.655
177.409
177.165
176.929
176.708
176.499
176.302
176.116
175.938
175.768
175.603
175.44
175.28
175.124
174.976
174.836
174.704
174.578
174.454
174.327
174.194
174.055
173.921
173.804
173.722
173.679
173.67
173.683
173.726
173.795
173.874
173.935
173.966
173.907
249.976
221.479
223.402
224.681
224.836
224.823
224.709
224.618
224.496
224.384
224.259
224.126
223.98
223.819
223.647
223.465
223.279
223.091
222.903
222.714
222.523
222.328
222.129
221.924
221.712
221.493
221.266
221.03
220.785
220.531
220.267
219.993
219.708
219.411
219.101
218.777
218.437
218.081
217.707
217.314
216.902
216.468
216.011
215.528
215.018
214.478
213.906
213.3
212.657
211.974
211.245
210.464
209.622
208.706
207.681
206.446
204.813
202.594
200.074
197.691
195.647
193.927
192.414
191.076
189.876
188.768
187.763
186.854
186.031
185.271
184.567
183.926
183.338
182.794
182.286
181.805
181.351
180.917
180.508
180.116
179.742
179.387
179.055
178.74
178.436
178.148
177.878
177.621
177.369
177.128
176.903
176.694
176.494
176.301
176.112
175.926
175.743
175.563
175.39
175.226
175.075
174.934
174.804
174.68
174.563
174.446
174.325
174.196
174.06
173.929
173.813
173.731
173.688
173.679
173.693
173.736
173.806
173.887
173.95
173.984
173.926
250.052
221.482
223.384
224.656
224.814
224.806
224.695
224.606
224.486
224.375
224.251
224.12
223.975
223.816
223.644
223.463
223.278
223.09
222.902
222.712
222.521
222.326
222.127
221.922
221.71
221.49
221.262
221.026
220.781
220.527
220.263
219.988
219.702
219.403
219.092
218.766
218.425
218.067
217.69
217.294
216.877
216.439
215.976
215.486
214.967
214.416
213.831
213.208
212.545
211.835
211.072
210.248
209.35
208.355
207.2
205.769
203.95
201.722
199.454
197.359
195.519
193.897
192.46
191.152
189.949
188.857
187.859
186.942
186.1
185.331
184.628
183.978
183.386
182.829
182.309
181.816
181.353
180.913
180.5
180.112
179.747
179.4
179.067
178.747
178.444
178.158
177.886
177.625
177.374
177.138
176.912
176.691
176.475
176.268
176.069
175.881
175.703
175.537
175.381
175.233
175.092
174.956
174.825
174.7
174.579
174.46
174.335
174.203
174.064
173.929
173.81
173.726
173.681
173.671
173.684
173.728
173.798
173.879
173.942
173.975
173.919
250.128
221.485
223.366
224.631
224.791
224.789
224.68
224.594
224.476
224.366
224.244
224.114
223.97
223.813
223.642
223.462
223.276
223.089
222.9
222.711
222.519
222.325
222.125
221.92
221.707
221.487
221.259
221.023
220.777
220.523
220.258
219.982
219.696
219.396
219.083
218.756
218.413
218.053
217.674
217.274
216.853
216.41
215.941
215.445
214.917
214.356
213.758
213.119
212.435
211.699
210.904
210.038
209.083
208.004
206.726
205.161
203.282
201.173
199.094
197.186
195.477
193.938
192.525
191.234
190.053
188.958
187.947
187.025
186.177
185.396
184.674
184.006
183.39
182.814
182.283
181.783
181.321
180.885
180.475
180.084
179.716
179.368
179.039
178.725
178.425
178.138
177.861
177.596
177.342
177.102
176.868
176.644
176.433
176.238
176.055
175.881
175.714
175.551
175.388
175.229
175.073
174.923
174.78
174.647
174.52
174.396
174.269
174.136
173.996
173.859
173.739
173.654
173.609
173.599
173.613
173.658
173.731
173.816
173.88
173.913
173.858
250.205
221.491
223.348
224.605
224.768
224.772
224.666
224.582
224.466
224.357
224.236
224.108
223.966
223.809
223.639
223.46
223.275
223.087
222.899
222.709
222.518
222.323
222.123
221.918
221.705
221.485
221.256
221.02
220.774
220.519
220.253
219.977
219.69
219.389
219.075
218.747
218.402
218.04
217.658
217.255
216.831
216.383
215.908
215.405
214.869
214.298
213.687
213.033
212.33
211.569
210.742
209.834
208.822
207.662
206.285
204.649
202.773
200.796
198.878
197.103
195.476
193.977
192.606
191.326
190.127
189.023
188.008
187.072
186.213
185.422
184.691
184.013
183.388
182.814
182.293
181.808
181.357
180.921
180.508
180.115
179.743
179.387
179.048
178.725
178.414
178.114
177.83
177.564
177.319
177.088
176.866
176.652
176.449
176.253
176.06
175.871
175.685
175.504
175.33
175.165
175.011
174.867
174.733
174.609
174.491
174.374
174.253
174.124
173.989
173.856
173.738
173.655
173.612
173.604
173.62
173.667
173.742
173.83
173.896
173.932
173.875
250.282
221.497
223.332
224.579
224.745
224.754
224.651
224.569
224.455
224.348
224.229
224.101
223.961
223.806
223.637
223.458
223.273
223.086
222.898
222.708
222.516
222.321
222.121
221.915
221.703
221.482
221.253
221.016
220.77
220.515
220.249
219.972
219.684
219.383
219.068
218.738
218.392
218.027
217.643
217.237
216.809
216.357
215.877
215.367
214.823
214.242
213.62
212.951
212.228
211.443
210.585
209.637
208.571
207.342
205.902
204.248
202.416
200.554
198.756
197.074
195.503
194.053
192.693
191.426
190.241
189.126
188.094
187.147
186.278
185.479
184.743
184.069
183.452
182.881
182.356
181.86
181.392
180.942
180.517
180.116
179.739
179.384
179.05
178.734
178.427
178.129
177.848
177.587
177.343
177.106
176.872
176.643
176.421
176.208
176.005
175.813
175.635
175.469
175.313
175.164
175.021
174.883
174.752
174.629
174.509
174.389
174.265
174.134
173.996
173.858
173.736
173.648
173.601
173.59
173.605
173.652
173.727
173.816
173.883
173.921
173.867
250.36
221.505
223.315
224.554
224.721
224.736
224.636
224.556
224.444
224.339
224.221
224.095
223.956
223.802
223.634
223.456
223.272
223.085
222.896
222.706
222.515
222.319
222.12
221.913
221.7
221.479
221.25
221.013
220.767
220.511
220.245
219.968
219.679
219.377
219.06
218.729
218.382
218.016
217.629
217.221
216.789
216.332
215.847
215.33
214.778
214.188
213.554
212.871
212.13
211.323
210.436
209.45
208.335
207.055
205.582
203.942
202.169
200.401
198.692
197.075
195.566
194.151
192.831
191.581
190.399
189.294
188.26
187.299
186.411
185.597
184.851
184.16
183.523
182.927
182.376
181.854
181.369
180.912
180.488
180.089
179.716
179.361
179.024
178.698
178.385
178.088
177.811
177.554
177.307
177.064
176.824
176.597
176.385
176.187
176.001
175.824
175.654
175.488
175.324
175.164
175.007
174.857
174.716
174.583
174.456
174.33
174.202
174.068
173.928
173.788
173.662
173.571
173.522
173.511
173.525
173.575
173.655
173.75
173.821
173.86
173.81
250.438
221.515
223.299
224.528
224.697
224.717
224.621
224.544
224.433
224.329
224.213
224.088
223.951
223.798
223.632
223.454
223.27
223.083
222.895
222.705
222.513
222.318
222.118
221.911
221.698
221.477
221.248
221.01
220.763
220.507
220.241
219.963
219.674
219.371
219.054
218.721
218.372
218.004
217.616
217.205
216.769
216.308
215.818
215.295
214.736
214.137
213.492
212.795
212.037
211.208
210.294
209.274
208.121
206.808
205.328
203.716
202.009
200.319
198.686
197.14
195.681
194.301
192.985
191.737
190.56
189.446
188.401
187.43
186.53
185.697
184.926
184.212
183.55
182.937
182.376
181.856
181.383
180.94
180.529
180.135
179.76
179.4
179.053
178.717
178.396
178.098
177.823
177.565
177.316
177.071
176.836
176.615
176.405
176.201
176.002
175.809
175.621
175.439
175.264
175.097
174.939
174.792
174.656
174.529
174.407
174.289
174.168
174.041
173.906
173.771
173.649
173.561
173.514
173.505
173.523
173.576
173.659
173.759
173.833
173.875
173.823
250.516
221.527
223.284
224.503
224.673
224.699
224.606
224.531
224.422
224.319
224.204
224.081
223.945
223.794
223.629
223.452
223.269
223.082
222.894
222.704
222.512
222.316
222.116
221.909
221.696
221.474
221.245
221.007
220.76
220.503
220.237
219.959
219.669
219.365
219.047
218.714
218.363
217.994
217.603
217.19
216.751
216.286
215.791
215.262
214.696
214.088
213.433
212.723
211.949
211.1
210.161
209.112
207.931
206.601
205.13
203.552
201.913
200.293
198.725
197.232
195.804
194.433
193.127
191.879
190.685
189.559
188.504
187.518
186.603
185.756
184.974
184.254
183.595
182.99
182.439
181.923
181.449
180.996
180.565
180.148
179.751
179.377
179.03
178.707
178.405
178.119
177.84
177.568
177.304
177.05
176.809
176.58
176.359
176.145
175.941
175.749
175.569
175.4
175.24
175.087
174.941
174.803
174.671
174.545
174.425
174.307
174.185
174.055
173.916
173.777
173.651
173.558
173.506
173.494
173.509
173.558
173.637
173.732
173.802
173.84
173.782
250.594
221.54
223.269
224.477
224.648
224.68
224.591
224.517
224.41
224.309
224.196
224.074
223.94
223.791
223.626
223.451
223.268
223.081
222.892
222.702
222.51
222.315
222.114
221.908
221.694
221.472
221.242
221.004
220.757
220.5
220.233
219.955
219.664
219.36
219.041
218.707
218.355
217.984
217.591
217.176
216.734
216.265
215.766
215.231
214.659
214.042
213.377
212.655
211.866
210.999
210.039
208.969
207.77
206.436
204.98
203.439
201.859
200.298
198.781
197.318
195.912
194.566
193.274
192.039
190.858
189.73
188.664
187.665
186.736
185.877
185.087
184.364
183.701
183.085
182.515
181.976
181.473
180.996
180.547
180.125
179.74
179.376
179.03
178.702
178.392
178.096
177.805
177.522
177.254
177.006
176.774
176.554
176.342
176.139
175.946
175.764
175.589
175.42
175.256
175.096
174.941
174.793
174.65
174.514
174.385
174.259
174.13
173.993
173.848
173.703
173.571
173.473
173.42
173.406
173.421
173.471
173.553
173.652
173.726
173.767
173.716
250.673
221.555
223.255
224.451
224.624
224.661
224.575
224.504
224.399
224.299
224.187
224.067
223.935
223.787
223.624
223.449
223.266
223.08
222.891
222.701
222.509
222.313
222.113
221.906
221.692
221.47
221.24
221.001
220.754
220.497
220.229
219.951
219.66
219.355
219.036
218.7
218.347
217.975
217.581
217.163
216.719
216.246
215.742
215.203
214.624
214
213.325
212.592
211.79
210.907
209.93
208.844
207.637
206.306
204.872
203.366
201.84
200.331
198.855
197.434
196.064
194.744
193.477
192.255
191.078
189.953
188.883
187.872
186.927
186.048
185.236
184.486
183.792
183.147
182.55
181.991
181.481
181.005
180.571
180.165
179.786
179.419
179.071
178.745
178.429
178.119
177.818
177.534
177.274
177.035
176.804
176.58
176.36
176.147
175.942
175.745
175.555
175.372
175.197
175.031
174.872
174.722
174.579
174.446
174.32
174.199
174.077
173.948
173.813
173.676
173.55
173.459
173.411
173.401
173.419
173.472
173.556
173.658
173.733
173.774
173.717
250.752
221.572
223.242
224.426
224.599
224.642
224.559
224.49
224.387
224.289
224.178
224.06
223.929
223.783
223.621
223.447
223.265
223.078
222.89
222.7
222.507
222.312
222.111
221.904
221.69
221.468
221.237
220.999
220.751
220.494
220.226
219.947
219.656
219.351
219.031
218.694
218.34
217.966
217.571
217.151
216.704
216.229
215.721
215.177
214.591
213.961
213.277
212.534
211.72
210.825
209.836
208.74
207.53
206.208
204.795
203.327
201.851
200.395
198.97
197.591
196.253
194.95
193.682
192.454
191.272
190.135
189.053
188.031
187.071
186.173
185.337
184.562
183.847
183.19
182.595
182.047
181.549
181.075
180.63
180.199
179.786
179.403
179.052
178.72
178.396
178.081
177.783
177.509
177.255
177.013
176.773
176.536
176.306
176.089
175.883
175.689
175.505
175.332
175.167
175.011
174.861
174.719
174.584
174.456
174.334
174.216
174.095
173.967
173.828
173.686
173.555
173.457
173.399
173.381
173.391
173.435
173.512
173.609
173.684
173.724
173.668
250.831
221.59
223.229
224.4
224.574
224.622
224.543
224.477
224.375
224.278
224.169
224.053
223.923
223.779
223.618
223.445
223.263
223.077
222.888
222.698
222.506
222.31
222.109
221.902
221.688
221.465
221.235
220.996
220.748
220.491
220.223
219.944
219.652
219.347
219.026
218.689
218.334
217.959
217.562
217.14
216.691
216.213
215.701
215.153
214.562
213.925
213.234
212.482
211.659
210.754
209.756
208.655
207.446
206.136
204.752
203.328
201.899
200.491
199.108
197.753
196.424
195.124
193.862
192.634
191.442
190.298
189.206
188.171
187.196
186.284
185.437
184.657
183.944
183.291
182.696
182.137
181.617
181.119
180.654
180.214
179.812
179.438
179.08
178.731
178.392
178.071
177.776
177.508
177.254
177.005
176.76
176.524
176.3
176.091
175.893
175.704
175.522
175.348
175.18
175.018
174.863
174.714
174.572
174.437
174.307
174.18
174.05
173.914
173.767
173.619
173.482
173.377
173.316
173.298
173.312
173.363
173.448
173.552
173.632
173.677
173.626
250.91
221.612
223.217
224.375
224.55
224.603
224.527
224.462
224.362
224.267
224.16
224.045
223.917
223.774
223.615
223.443
223.262
223.076
222.887
222.697
222.505
222.309
222.108
221.901
221.686
221.464
221.233
220.994
220.746
220.488
220.22
219.941
219.649
219.343
219.022
218.684
218.328
217.952
217.553
217.13
216.679
216.199
215.684
215.132
214.536
213.893
213.196
212.436
211.606
210.693
209.69
208.587
207.383
206.091
204.74
203.356
201.968
200.597
199.233
197.892
196.582
195.306
194.063
192.854
191.679
190.538
189.441
188.396
187.407
186.481
185.619
184.824
184.091
183.412
182.785
182.193
181.641
181.125
180.661
180.236
179.841
179.459
179.093
178.745
178.418
178.112
177.825
177.55
177.281
177.021
176.771
176.531
176.301
176.084
175.874
175.67
175.475
175.29
175.113
174.946
174.786
174.635
174.492
174.357
174.23
174.109
173.99
173.866
173.734
173.596
173.466
173.366
173.311
173.296
173.312
173.364
173.449
173.552
173.631
173.674
173.618
250.989
221.635
223.206
224.35
224.525
224.583
224.51
224.448
224.35
224.256
224.15
224.037
223.911
223.77
223.612
223.441
223.261
223.075
222.886
222.696
222.503
222.307
222.106
221.899
221.684
221.462
221.231
220.991
220.743
220.485
220.217
219.938
219.646
219.34
219.018
218.679
218.323
217.946
217.546
217.121
216.669
216.186
215.669
215.113
214.514
213.866
213.163
212.397
211.561
210.643
209.637
208.534
207.339
206.07
204.751
203.403
202.05
200.709
199.377
198.072
196.797
195.544
194.316
193.112
191.935
190.792
189.689
188.634
187.632
186.686
185.8
184.975
184.209
183.501
182.846
182.242
181.697
181.188
180.716
180.266
179.847
179.453
179.079
178.726
178.401
178.1
177.807
177.516
177.23
176.961
176.706
176.466
176.238
176.023
175.817
175.621
175.433
175.256
175.086
174.923
174.766
174.619
174.48
174.351
174.229
174.112
173.994
173.869
173.731
173.583
173.439
173.327
173.261
173.24
173.25
173.295
173.374
173.475
173.553
173.596
173.54
251.068
221.66
223.196
224.325
224.5
224.564
224.494
224.434
224.337
224.244
224.14
224.029
223.905
223.765
223.609
223.439
223.259
223.073
222.885
222.694
222.502
222.306
222.105
221.897
221.683
221.46
221.229
220.989
220.741
220.483
220.215
219.935
219.643
219.337
219.015
218.676
218.318
217.94
217.54
217.114
216.66
216.175
215.656
215.097
214.494
213.842
213.135
212.365
211.524
210.603
209.595
208.497
207.317
206.074
204.781
203.466
202.149
200.844
199.553
198.281
197.023
195.778
194.546
193.334
192.149
190.995
189.882
188.815
187.8
186.838
185.932
185.086
184.304
183.589
182.94
182.345
181.802
181.282
180.798
180.341
179.917
179.514
179.136
178.781
178.448
178.128
177.812
177.505
177.216
176.951
176.704
176.471
176.251
176.041
175.837
175.64
175.45
175.268
175.092
174.924
174.763
174.612
174.47
174.335
174.205
174.077
173.946
173.807
173.658
173.506
173.365
173.258
173.197
173.179
173.192
173.241
173.325
173.432
173.515
173.563
173.51
251.146
221.686
223.187
224.3
224.476
224.544
224.477
224.419
224.324
224.233
224.13
224.021
223.899
223.761
223.606
223.437
223.258
223.072
222.884
222.693
222.501
222.305
222.104
221.896
221.681
221.458
221.227
220.987
220.739
220.481
220.213
219.933
219.641
219.334
219.012
218.672
218.314
217.936
217.534
217.107
216.652
216.166
215.644
215.083
214.477
213.822
213.111
212.338
211.494
210.572
209.565
208.475
207.313
206.091
204.829
203.551
202.271
201.001
199.736
198.47
197.215
195.975
194.755
193.554
192.373
191.22
190.102
189.026
187.998
187.022
186.106
185.252
184.463
183.738
183.073
182.453
181.876
181.33
180.826
180.352
179.915
179.506
179.13
178.778
178.442
178.115
177.798
177.5
177.225
176.969
176.722
176.484
176.252
176.026
175.806
175.595
175.394
175.204
175.022
174.848
174.685
174.532
174.387
174.249
174.119
173.996
173.875
173.751
173.619
173.48
173.346
173.237
173.169
173.146
173.155
173.198
173.277
173.381
173.461
173.506
173.448
251.225
221.714
223.179
224.275
224.451
224.524
224.46
224.404
224.311
224.221
224.12
224.012
223.892
223.756
223.603
223.435
223.256
223.071
222.883
222.692
222.499
222.303
222.102
221.895
221.68
221.456
221.225
220.985
220.737
220.479
220.211
219.931
219.639
219.332
219.01
218.67
218.311
217.932
217.529
217.101
216.645
216.158
215.635
215.072
214.464
213.806
213.093
212.317
211.472
210.549
209.546
208.468
207.323
206.125
204.898
203.654
202.401
201.152
199.9
198.652
197.425
196.214
195.015
193.831
192.664
191.515
190.395
189.313
188.274
187.284
186.348
185.471
184.655
183.897
183.194
182.539
181.933
181.37
180.858
180.378
179.944
179.538
179.16
178.797
178.444
178.102
177.78
177.483
177.205
176.941
176.687
176.443
176.207
175.981
175.764
175.56
175.368
175.185
175.008
174.837
174.675
174.521
174.373
174.236
174.107
173.984
173.858
173.722
173.573
173.418
173.27
173.151
173.08
173.056
173.067
173.114
173.197
173.307
173.394
173.444
173.394
251.303
221.745
223.172
224.251
224.427
224.504
224.442
224.389
224.297
224.209
224.11
224.004
223.885
223.751
223.6
223.433
223.255
223.07
222.882
222.691
222.498
222.302
222.101
221.893
221.678
221.455
221.224
220.984
220.735
220.477
220.209
219.929
219.637
219.33
219.008
218.668
218.309
217.929
217.526
217.097
216.64
216.151
215.627
215.062
214.453
213.793
213.078
212.302
211.456
210.535
209.539
208.474
207.348
206.179
204.981
203.761
202.532
201.308
200.088
198.878
197.679
196.484
195.293
194.108
192.935
191.781
190.654
189.563
188.513
187.509
186.553
185.651
184.806
184.022
183.299
182.635
182.034
181.473
180.958
180.472
180.027
179.604
179.209
178.836
178.485
178.149
177.832
177.533
177.244
176.967
176.705
176.46
176.225
176
175.782
175.575
175.377
175.187
175.002
174.827
174.66
174.5
174.349
174.208
174.076
173.95
173.82
173.683
173.537
173.384
173.24
173.126
173.057
173.034
173.044
173.089
173.17
173.278
173.362
173.409
173.35
251.381
221.777
223.166
224.228
224.402
224.484
224.425
224.374
224.283
224.197
224.099
223.995
223.878
223.746
223.596
223.431
223.254
223.069
222.881
222.69
222.497
222.301
222.1
221.892
221.677
221.454
221.222
220.982
220.734
220.476
220.207
219.928
219.636
219.329
219.007
218.666
218.307
217.927
217.523
217.094
216.636
216.146
215.621
215.055
214.445
213.784
213.069
212.291
211.445
210.529
209.544
208.493
207.389
206.246
205.071
203.877
202.681
201.488
200.306
199.116
197.921
196.726
195.532
194.345
193.171
192.013
190.88
189.78
188.719
187.701
186.731
185.815
184.956
184.163
183.437
182.773
182.167
181.592
181.057
180.542
180.059
179.609
179.199
178.818
178.467
178.139
177.822
177.515
177.221
176.946
176.687
176.44
176.197
175.96
175.734
175.52
175.317
175.123
174.938
174.763
174.593
174.429
174.274
174.132
174
173.875
173.75
173.62
173.478
173.329
173.183
173.062
172.985
172.958
172.965
173.01
173.096
173.211
173.303
173.356
173.303
251.458
221.812
223.162
224.204
224.378
224.465
224.407
224.359
224.269
224.184
224.088
223.985
223.871
223.741
223.593
223.429
223.252
223.068
222.88
222.69
222.497
222.3
222.099
221.891
221.676
221.452
221.221
220.981
220.732
220.474
220.206
219.927
219.635
219.328
219.006
218.666
218.306
217.925
217.521
217.091
216.633
216.143
215.617
215.051
214.44
213.778
213.061
212.284
211.443
210.534
209.558
208.525
207.443
206.321
205.172
204.012
202.846
201.676
200.507
199.318
198.13
196.953
195.783
194.618
193.459
192.31
191.179
190.074
189.004
187.974
186.992
186.061
185.187
184.373
183.618
182.921
182.279
181.681
181.136
180.616
180.134
179.683
179.272
178.888
178.525
178.177
177.838
177.513
177.205
176.92
176.655
176.404
176.162
175.934
175.72
175.518
175.322
175.132
174.949
174.774
174.601
174.435
174.279
174.134
173.999
173.868
173.737
173.6
173.456
173.304
173.157
173.035
172.961
172.938
172.95
173.001
173.09
173.206
173.298
173.349
173.29
251.535
221.848
223.158
224.182
224.354
224.445
224.39
224.343
224.255
224.171
224.077
223.976
223.864
223.735
223.589
223.427
223.251
223.067
222.879
222.689
222.496
222.299
222.098
221.89
221.675
221.451
221.22
220.98
220.731
220.473
220.205
219.926
219.634
219.328
219.006
218.666
218.306
217.925
217.521
217.09
216.631
216.14
215.613
215.047
214.435
213.774
213.059
212.285
211.448
210.546
209.584
208.568
207.506
206.408
205.289
204.156
203.008
201.856
200.701
199.54
198.389
197.24
196.086
194.93
193.777
192.63
191.497
190.389
189.311
188.27
187.271
186.319
185.419
184.574
183.787
183.055
182.376
181.754
181.196
180.682
180.214
179.761
179.335
178.929
178.548
178.187
177.851
177.536
177.241
176.964
176.697
176.438
176.191
175.958
175.734
175.519
175.31
175.109
174.918
174.734
174.558
174.391
174.235
174.088
173.95
173.82
173.693
173.561
173.42
173.269
173.12
172.997
172.92
172.892
172.9
172.945
173.03
173.145
173.238
173.289
173.23
251.612
221.887
223.156
224.16
224.331
224.425
224.372
224.327
224.241
224.158
224.065
223.967
223.856
223.73
223.586
223.424
223.25
223.067
222.879
222.688
222.495
222.299
222.097
221.889
221.674
221.45
221.219
220.979
220.73
220.473
220.205
219.926
219.634
219.328
219.006
218.667
218.307
217.926
217.522
217.091
216.631
216.14
215.613
215.047
214.436
213.775
213.062
212.291
211.459
210.568
209.619
208.62
207.579
206.508
205.414
204.299
203.172
202.046
200.923
199.801
198.664
197.518
196.364
195.206
194.047
192.896
191.76
190.645
189.558
188.506
187.493
186.524
185.604
184.737
183.932
183.189
182.511
181.879
181.294
180.746
180.248
179.783
179.349
178.936
178.549
178.188
177.858
177.552
177.259
176.974
176.689
176.412
176.152
175.911
175.682
175.462
175.253
175.056
174.867
174.684
174.51
174.347
174.19
174.041
173.901
173.768
173.639
173.507
173.367
173.218
173.069
172.945
172.867
172.839
172.85
172.9
172.992
173.116
173.214
173.27
173.21
251.688
221.928
223.156
224.138
224.307
224.405
224.354
224.312
224.226
224.145
224.054
223.957
223.849
223.724
223.582
223.422
223.249
223.066
222.878
222.688
222.495
222.298
222.097
221.889
221.673
221.45
221.218
220.978
220.73
220.472
220.205
219.926
219.635
219.329
219.007
218.668
218.309
217.928
217.524
217.093
216.633
216.142
215.615
215.049
214.439
213.78
213.069
212.302
211.478
210.598
209.664
208.683
207.664
206.615
205.54
204.449
203.354
202.258
201.158
200.044
198.903
197.761
196.617
195.472
194.327
193.183
192.048
190.93
189.836
188.773
187.748
186.766
185.832
184.952
184.13
183.375
182.687
182.043
181.447
180.885
180.372
179.89
179.445
179.024
178.631
178.268
177.932
177.612
177.289
176.963
176.652
176.377
176.136
175.911
175.691
175.476
175.269
175.071
174.88
174.696
174.523
174.358
174.197
174.045
173.901
173.765
173.633
173.498
173.357
173.204
173.049
172.916
172.828
172.795
172.8
172.843
172.928
173.047
173.141
173.197
173.137
251.763
221.972
223.156
224.117
224.284
224.386
224.337
224.296
224.211
224.131
224.042
223.947
223.841
223.719
223.578
223.42
223.247
223.065
222.878
222.687
222.494
222.297
222.096
221.888
221.672
221.449
221.217
220.977
220.729
220.472
220.205
219.926
219.635
219.33
219.009
218.67
218.311
217.931
217.527
217.096
216.636
216.145
215.619
215.053
214.444
213.788
213.08
212.32
211.505
210.636
209.718
208.755
207.757
206.727
205.675
204.615
203.547
202.464
201.372
200.266
199.149
198.036
196.921
195.797
194.666
193.533
192.402
191.285
190.187
189.116
188.079
187.082
186.13
185.227
184.376
183.583
182.848
182.17
181.556
180.983
180.463
179.966
179.496
179.053
178.649
178.279
177.931
177.592
177.255
176.936
176.656
176.405
176.165
175.925
175.684
175.452
175.232
175.023
174.825
174.639
174.462
174.29
174.123
173.969
173.824
173.685
173.551
173.416
173.272
173.116
172.958
172.824
172.738
172.707
172.714
172.759
172.846
172.969
173.067
173.126
173.07
251.838
222.018
223.158
224.097
224.262
224.367
224.319
224.28
224.196
224.118
224.03
223.937
223.832
223.713
223.574
223.418
223.246
223.065
222.877
222.687
222.494
222.297
222.095
221.887
221.672
221.448
221.217
220.977
220.729
220.472
220.205
219.927
219.637
219.332
219.011
218.673
218.315
217.935
217.531
217.101
216.642
216.151
215.625
215.061
214.454
213.801
213.098
212.344
211.539
210.683
209.78
208.835
207.855
206.847
205.823
204.787
203.731
202.664
201.594
200.521
199.44
198.343
197.234
196.111
194.98
193.845
192.714
191.593
190.491
189.413
188.365
187.354
186.382
185.455
184.582
183.76
182.989
182.28
181.641
181.051
180.512
179.999
179.528
179.093
178.704
178.337
177.975
177.617
177.272
176.955
176.67
176.405
176.146
175.894
175.653
175.426
175.211
175.006
174.812
174.629
174.449
174.272
174.106
173.954
173.809
173.67
173.536
173.401
173.255
173.096
172.938
172.802
172.71
172.672
172.669
172.705
172.786
172.904
172.997
173.051
172.986
251.912
222.066
223.162
224.078
224.24
224.347
224.302
224.264
224.181
224.104
224.018
223.926
223.824
223.706
223.57
223.415
223.245
223.064
222.877
222.686
222.493
222.297
222.095
221.887
221.671
221.448
221.216
220.977
220.729
220.473
220.206
219.928
219.638
219.334
219.014
218.676
218.319
217.94
217.537
217.107
216.649
216.159
215.634
215.072
214.467
213.818
213.121
212.375
211.579
210.736
209.849
208.921
207.96
206.977
205.976
204.955
203.92
202.884
201.842
200.793
199.717
198.615
197.506
196.388
195.263
194.133
193.003
191.881
190.773
189.686
188.627
187.602
186.615
185.673
184.781
183.945
183.176
182.465
181.809
181.204
180.651
180.126
179.651
179.209
178.796
178.397
178.003
177.627
177.284
176.974
176.691
176.431
176.174
175.921
175.678
175.446
175.224
175.014
174.814
174.622
174.432
174.249
174.08
173.922
173.769
173.623
173.483
173.341
173.188
173.023
172.857
172.71
172.606
172.56
172.558
172.6
172.69
172.819
172.922
172.985
172.932
251.984
222.117
223.167
224.059
224.218
224.329
224.284
224.248
224.166
224.09
224.005
223.915
223.816
223.7
223.566
223.413
223.244
223.063
222.877
222.686
222.493
222.296
222.095
221.887
221.671
221.448
221.216
220.977
220.73
220.474
220.207
219.93
219.641
219.337
219.018
218.681
218.324
217.946
217.544
217.115
216.658
216.169
215.646
215.086
214.485
213.84
213.149
212.411
211.627
210.797
209.924
209.014
208.074
207.112
206.129
205.13
204.127