/*--------------------------------*- C++ -*----------------------------------*\
| =========                 |                                                 |
| \\      /  F ield         | OpenFOAM: The Open Source CFD Toolbox           |
|  \\    /   O peration     | Version:  2412                                  |
|   \\  /    A nd           | Website:  www.openfoam.com                      |
|    \\/     M anipulation  |                                                 |
\*---------------------------------------------------------------------------*/
FoamFile
{
    version     2.0;
    format      ascii;
    arch        "LSB;label=32;scalar=64";
    class       volScalarField;
    location    "0.052";
    object      rho;
}
// * * * * * * * * * * * * * * * * * * * * * * * * * * * * * * * * * * * * * //

dimensions      [1 -3 0 0 0 0 0];

internalField   nonuniform List<scalar> 
78650
(
0.0421332
0.0421369
0.042167
0.0422529
0.0423478
0.042393
0.0423861
0.0423223
0.0421801
0.0420377
0.0419245
0.0418288
0.0417416
0.0416745
0.0416464
0.041647
0.0416689
0.0417003
0.0417152
0.0417166
0.0417097
0.0416941
0.0416762
0.0416607
0.0416466
0.0416329
0.0416198
0.0416066
0.0415913
0.041572
0.0415474
0.0415183
0.0414864
0.0414526
0.0414176
0.0413814
0.0413444
0.0413072
0.0412704
0.0412345
0.0412
0.0411673
0.0411365
0.0411078
0.0410813
0.0410569
0.0410347
0.0410143
0.0409958
0.0409792
0.0409645
0.0409513
0.0409395
0.0409291
0.0409195
0.0409108
0.0409025
0.0408946
0.0408866
0.0408785
0.04087
0.0408607
0.0408505
0.0408386
0.0408248
0.0408087
0.0407897
0.0407676
0.0407416
0.0407109
0.0406751
0.0406335
0.0405856
0.0405303
0.0404666
0.0403931
0.0403089
0.0402132
0.0401051
0.0399835
0.039847
0.0396936
0.0395214
0.0393284
0.0391133
0.0388743
0.0386106
0.0383201
0.0380007
0.0376485
0.0372636
0.0368431
0.0363888
0.035891
0.0353641
0.0348004
0.0341917
0.0335387
0.0328439
0.0321138
0.0313496
0.0305411
0.0297302
0.0289265
0.0281627
0.0274357
0.0267179
0.0260086
0.0252989
0.0245863
0.0238955
0.0232639
0.0226848
0.0221617
0.0216874
0.0212262
0.0208061
0.0204155
0.0200355
0.0196752
0.0190705
0.0421331
0.0421352
0.0421567
0.0422328
0.0423353
0.042393
0.0423937
0.042351
0.0422213
0.042078
0.0419642
0.0418706
0.0417838
0.0417089
0.041667
0.0416594
0.0416732
0.0417056
0.0417273
0.0417324
0.0417289
0.0417166
0.0416995
0.0416839
0.0416703
0.0416575
0.0416452
0.041633
0.0416191
0.0416013
0.0415785
0.0415511
0.0415207
0.0414884
0.0414547
0.0414197
0.0413841
0.0413484
0.0413132
0.0412791
0.0412466
0.0412157
0.0411869
0.0411601
0.0411355
0.0411131
0.0410928
0.0410744
0.041058
0.0410435
0.0410309
0.0410201
0.0410108
0.0410029
0.0409961
0.0409902
0.0409851
0.0409804
0.0409759
0.0409715
0.0409669
0.0409619
0.0409561
0.0409492
0.0409407
0.0409302
0.0409173
0.0409017
0.0408828
0.0408599
0.0408323
0.0407997
0.0407614
0.0407167
0.0406645
0.0406037
0.0405332
0.0404521
0.0403598
0.0402553
0.0401371
0.0400037
0.0398532
0.0396837
0.0394941
0.0392826
0.0390479
0.0387872
0.0384972
0.0381753
0.037822
0.0374361
0.0370183
0.0365606
0.0360712
0.035535
0.0349625
0.03435
0.0336965
0.0330203
0.0323164
0.0315634
0.0307787
0.0299604
0.0291179
0.0283164
0.0275412
0.0268037
0.0261004
0.0253917
0.0246821
0.0240182
0.023371
0.0227695
0.0222234
0.0217068
0.0212459
0.0208149
0.0204072
0.0200057
0.0193116
0.0421331
0.0421342
0.0421487
0.0422126
0.0423183
0.042391
0.0424007
0.0423751
0.0422617
0.0421193
0.0420038
0.0419111
0.0418255
0.0417458
0.0416912
0.041675
0.0416817
0.0417108
0.0417389
0.041749
0.0417486
0.0417408
0.0417255
0.0417099
0.0416965
0.0416842
0.0416727
0.0416613
0.0416485
0.0416321
0.0416108
0.0415851
0.0415563
0.0415254
0.041493
0.0414594
0.041425
0.0413906
0.0413569
0.0413245
0.0412938
0.0412649
0.041238
0.0412133
0.0411906
0.0411702
0.0411519
0.0411355
0.0411212
0.0411088
0.0410984
0.0410899
0.0410831
0.0410778
0.0410737
0.0410708
0.0410687
0.0410673
0.0410663
0.0410656
0.0410649
0.041064
0.0410627
0.0410606
0.0410573
0.0410524
0.0410454
0.0410362
0.0410242
0.0410088
0.0409893
0.0409653
0.0409362
0.0409016
0.0408604
0.0408115
0.0407538
0.0406866
0.0406091
0.0405203
0.0404192
0.0403043
0.040174
0.0400263
0.0398599
0.0396725
0.0394632
0.0392295
0.03897
0.0386827
0.0383665
0.0380172
0.0376328
0.0372099
0.0367567
0.0362633
0.0357376
0.035164
0.0345457
0.0338821
0.0331882
0.0324763
0.031727
0.0309645
0.0301321
0.0292864
0.0284478
0.0276022
0.0268012
0.0260506
0.0253122
0.0246366
0.0239727
0.0233378
0.022753
0.0221909
0.0216711
0.0211546
0.0207003
0.0202981
0.0196004
0.0421331
0.0421336
0.0421426
0.0421932
0.0422971
0.0423851
0.042407
0.0423939
0.0423015
0.0421635
0.042045
0.041951
0.0418668
0.0417849
0.0417201
0.0416936
0.0416942
0.0417164
0.0417489
0.0417661
0.0417694
0.0417657
0.0417535
0.0417381
0.0417249
0.0417131
0.0417022
0.0416915
0.0416797
0.0416646
0.0416449
0.0416207
0.0415935
0.0415641
0.0415331
0.0415007
0.0414676
0.0414345
0.0414022
0.0413713
0.0413423
0.0413153
0.0412903
0.0412675
0.0412469
0.0412284
0.0412121
0.0411977
0.0411854
0.0411752
0.0411669
0.0411606
0.0411561
0.0411533
0.041152
0.0411519
0.0411528
0.0411545
0.0411568
0.0411597
0.0411628
0.0411659
0.0411689
0.0411714
0.041173
0.0411734
0.0411721
0.041169
0.0411637
0.0411554
0.0411437
0.0411279
0.0411077
0.0410827
0.041052
0.0410146
0.0409694
0.0409156
0.0408525
0.0407793
0.0406951
0.0405985
0.0404881
0.0403619
0.0402184
0.0400559
0.0398734
0.0396687
0.0394398
0.0391838
0.0388989
0.0385822
0.0382338
0.0378513
0.0374361
0.0369766
0.0364812
0.0359373
0.0353587
0.0347388
0.0340651
0.0333647
0.0326207
0.0318772
0.0311045
0.0303005
0.0294922
0.02864
0.0277607
0.026912
0.0260811
0.0252868
0.0245487
0.0238456
0.0231985
0.0226039
0.022071
0.0215391
0.0210214
0.0205491
0.0197574
0.042133
0.0421333
0.0421384
0.0421758
0.0422728
0.0423743
0.0424105
0.0424085
0.0423406
0.0422103
0.042087
0.0419902
0.0419076
0.0418265
0.0417547
0.0417162
0.0417103
0.0417248
0.0417583
0.0417833
0.0417914
0.0417908
0.0417826
0.0417685
0.0417554
0.0417441
0.0417337
0.0417238
0.0417128
0.0416989
0.0416807
0.0416581
0.0416324
0.0416045
0.041575
0.0415439
0.041512
0.0414801
0.0414491
0.0414197
0.0413923
0.041367
0.041344
0.0413232
0.0413046
0.0412882
0.0412738
0.0412615
0.0412513
0.0412431
0.041237
0.041233
0.0412308
0.0412306
0.0412319
0.0412345
0.0412383
0.0412431
0.0412488
0.0412551
0.0412619
0.041269
0.0412762
0.0412832
0.0412897
0.0412952
0.0412995
0.0413023
0.0413033
0.0413019
0.0412978
0.0412902
0.0412784
0.0412626
0.0412418
0.0412153
0.0411819
0.0411408
0.0410914
0.0410327
0.0409642
0.0408844
0.0407923
0.040686
0.0405642
0.0404249
0.040267
0.0400882
0.0398873
0.0396624
0.0394114
0.0391306
0.0388183
0.0384721
0.0380925
0.0376735
0.0372221
0.0367264
0.0361951
0.0356116
0.0349845
0.0343076
0.0335821
0.0328056
0.0320235
0.0312261
0.0304244
0.0296337
0.0288058
0.0279744
0.0271302
0.026279
0.0254563
0.0246758
0.023936
0.0232494
0.0226056
0.0219827
0.0214073
0.0208742
0.0199161
0.042133
0.0421331
0.0421358
0.0421612
0.0422462
0.0423573
0.0424111
0.0424213
0.042377
0.0422579
0.0421295
0.0420295
0.041949
0.0418712
0.0417956
0.0417447
0.0417304
0.0417378
0.0417678
0.041799
0.0418136
0.0418161
0.041812
0.0418002
0.0417875
0.0417767
0.041767
0.0417578
0.0417478
0.0417351
0.0417184
0.0416975
0.0416733
0.0416469
0.0416188
0.0415892
0.0415586
0.041528
0.0414982
0.0414701
0.0414441
0.0414205
0.0413993
0.0413804
0.0413638
0.0413494
0.0413371
0.0413269
0.0413187
0.0413126
0.0413087
0.0413069
0.041307
0.0413093
0.041313
0.0413183
0.041325
0.0413328
0.0413417
0.0413514
0.0413618
0.0413727
0.0413839
0.0413953
0.0414064
0.041417
0.0414266
0.0414351
0.0414421
0.0414473
0.0414501
0.0414504
0.0414469
0.04144
0.0414288
0.0414126
0.0413906
0.0413618
0.0413256
0.0412812
0.0412279
0.0411649
0.0410908
0.0410042
0.0409037
0.0407873
0.0406538
0.0405015
0.0403291
0.040134
0.0399134
0.0396649
0.0393882
0.0390809
0.038741
0.0383629
0.0379505
0.0374949
0.0370033
0.036462
0.0358838
0.035261
0.0345928
0.0338602
0.0330724
0.0322506
0.0313875
0.0305351
0.0296871
0.0288358
0.0280109
0.0271703
0.0263438
0.0255521
0.0247625
0.0240208
0.0233261
0.0226561
0.0220459
0.0214848
0.020509
0.042133
0.0421331
0.0421343
0.0421499
0.0422191
0.0423344
0.0424083
0.0424328
0.0424069
0.0423031
0.0421728
0.0420703
0.0419916
0.0419182
0.041842
0.0417806
0.0417557
0.0417567
0.0417784
0.0418128
0.0418354
0.041842
0.041841
0.0418325
0.0418208
0.0418105
0.0418017
0.0417933
0.0417844
0.041773
0.0417579
0.0417386
0.041716
0.0416911
0.0416644
0.0416363
0.0416072
0.0415779
0.0415493
0.0415225
0.0414979
0.0414758
0.0414563
0.0414392
0.0414245
0.0414122
0.0414019
0.0413938
0.0413878
0.0413838
0.041382
0.0413824
0.0413851
0.0413894
0.0413957
0.0414038
0.0414133
0.0414241
0.0414361
0.0414492
0.0414631
0.0414777
0.0414929
0.0415085
0.0415242
0.0415396
0.0415544
0.0415685
0.0415815
0.0415932
0.0416028
0.04161
0.0416146
0.0416162
0.0416141
0.041608
0.0415968
0.0415796
0.0415558
0.0415247
0.0414858
0.041438
0.0413806
0.041312
0.0412309
0.0411358
0.0410253
0.0408975
0.0407512
0.0405843
0.0403951
0.0401816
0.0399413
0.0396703
0.0393674
0.0390301
0.0386603
0.0382489
0.0378
0.0373027
0.0367679
0.0361832
0.0355555
0.0348897
0.0341674
0.0334009
0.0325714
0.0316978
0.0308145
0.0298778
0.0289603
0.0280415
0.0271288
0.026275
0.0254215
0.0246138
0.0238484
0.0231111
0.0224372
0.0218316
0.0207277
0.042133
0.0421331
0.0421335
0.0421421
0.0421936
0.0423056
0.0424013
0.0424406
0.0424264
0.0423468
0.0422199
0.0421143
0.0420355
0.0419664
0.0418931
0.0418251
0.041787
0.0417804
0.0417927
0.0418254
0.0418552
0.0418675
0.0418689
0.0418642
0.0418544
0.041845
0.0418371
0.0418299
0.0418222
0.0418123
0.041799
0.0417815
0.0417606
0.0417372
0.041712
0.0416853
0.0416576
0.0416298
0.0416026
0.041577
0.0415536
0.0415329
0.0415149
0.0414996
0.0414868
0.0414763
0.0414681
0.0414621
0.0414582
0.0414564
0.0414567
0.0414594
0.0414641
0.0414709
0.0414797
0.0414903
0.0415025
0.0415163
0.0415313
0.0415476
0.0415649
0.0415832
0.0416022
0.0416219
0.0416419
0.041662
0.0416819
0.0417012
0.0417199
0.0417376
0.0417538
0.0417683
0.0417804
0.0417899
0.0417964
0.0417994
0.0417988
0.0417929
0.0417815
0.0417632
0.0417381
0.0417054
0.0416642
0.0416133
0.0415515
0.0414772
0.0413892
0.0412856
0.0411653
0.0410262
0.0408664
0.0406835
0.0404756
0.0402402
0.039976
0.0396791
0.0393482
0.0389761
0.0385666
0.0381118
0.0376179
0.0370728
0.0364841
0.0358461
0.0351612
0.034425
0.0336501
0.0328344
0.0320097
0.0311383
0.0302328
0.0293257
0.0283624
0.0274293
0.0264938
0.025592
0.0247423
0.0239246
0.0231524
0.0224443
0.0211195
0.042133
0.042133
0.0421332
0.0421374
0.0421719
0.0422724
0.0423866
0.0424427
0.0424399
0.042388
0.0422702
0.0421604
0.0420799
0.0420148
0.0419469
0.0418763
0.0418255
0.0418089
0.0418129
0.0418376
0.0418715
0.0418913
0.0418963
0.0418947
0.0418877
0.0418797
0.0418731
0.0418673
0.041861
0.0418528
0.0418414
0.041826
0.0418069
0.041785
0.0417612
0.041736
0.0417098
0.0416835
0.0416577
0.0416334
0.0416113
0.0415918
0.0415752
0.0415614
0.0415504
0.0415417
0.0415355
0.0415316
0.0415298
0.0415301
0.0415328
0.0415374
0.0415444
0.0415535
0.0415648
0.041578
0.0415929
0.0416095
0.0416276
0.041647
0.0416677
0.0416895
0.0417123
0.0417359
0.0417602
0.0417849
0.0418095
0.041834
0.0418582
0.0418818
0.0419044
0.0419256
0.041945
0.0419623
0.0419773
0.0419891
0.0419975
0.042002
0.0420023
0.0419964
0.0419847
0.0419657
0.0419395
0.0419047
0.0418605
0.0418052
0.0417379
0.0416568
0.0415606
0.0414475
0.0413161
0.0411645
0.0409905
0.0407909
0.0405636
0.0403052
0.0400149
0.0396881
0.0393271
0.0389234
0.038479
0.0379841
0.0374452
0.0368522
0.0362054
0.0355035
0.0347422
0.0339195
0.0330374
0.0321633
0.0312531
0.0303596
0.0294344
0.0284849
0.0275458
0.0266044
0.0256975
0.0248295
0.0240112
0.0232652
0.0219194
0.042133
0.042133
0.0421331
0.0421348
0.0421555
0.0422377
0.0423617
0.0424403
0.0424504
0.0424235
0.0423206
0.042208
0.0421257
0.0420634
0.0420016
0.0419323
0.0418717
0.0418416
0.0418374
0.0418511
0.0418845
0.0419126
0.0419231
0.0419241
0.0419204
0.0419146
0.0419095
0.0419054
0.0419008
0.0418944
0.041885
0.0418717
0.0418545
0.0418342
0.0418119
0.0417881
0.0417635
0.0417387
0.0417144
0.0416915
0.0416706
0.0416524
0.0416371
0.0416247
0.0416152
0.0416082
0.0416038
0.0416019
0.0416022
0.0416048
0.0416093
0.0416162
0.0416254
0.0416368
0.0416505
0.0416661
0.0416837
0.0417031
0.0417241
0.0417466
0.0417705
0.0417957
0.041822
0.0418494
0.0418778
0.0419068
0.0419361
0.0419655
0.0419949
0.0420241
0.0420527
0.0420804
0.0421067
0.0421315
0.0421542
0.0421747
0.0421926
0.0422069
0.0422172
0.0422231
0.0422243
0.0422191
0.0422077
0.0421887
0.0421615
0.0421248
0.0420775
0.0420182
0.0419455
0.0418578
0.0417535
0.0416305
0.0414867
0.04132
0.0411287
0.0409098
0.0406617
0.04038
0.0400648
0.0397083
0.0393126
0.0388698
0.0383845
0.0378475
0.037261
0.0366217
0.0359236
0.03517
0.0343387
0.0334608
0.0325214
0.0315278
0.0305488
0.0295175
0.028523
0.0275027
0.0265119
0.0255498
0.0246161
0.0237817
0.0221491
0.042133
0.042133
0.0421331
0.0421337
0.0421445
0.0422052
0.0423284
0.0424309
0.0424597
0.042449
0.0423683
0.0422577
0.0421733
0.0421114
0.0420543
0.0419884
0.0419225
0.0418789
0.0418656
0.0418701
0.0418965
0.0419304
0.041949
0.0419537
0.0419531
0.0419498
0.0419468
0.0419444
0.0419416
0.0419371
0.0419297
0.0419185
0.0419033
0.0418846
0.0418637
0.0418414
0.0418183
0.0417951
0.0417723
0.0417509
0.0417313
0.0417144
0.0417003
0.0416892
0.041681
0.0416755
0.0416729
0.0416727
0.0416753
0.0416797
0.0416864
0.0416954
0.0417068
0.0417205
0.0417365
0.0417546
0.0417748
0.0417969
0.0418208
0.0418463
0.0418733
0.0419018
0.0419317
0.0419628
0.0419951
0.0420283
0.0420621
0.0420963
0.0421307
0.0421653
0.0421996
0.0422335
0.0422665
0.0422983
0.0423286
0.0423572
0.0423836
0.0424074
0.0424281
0.0424446
0.0424568
0.0424642
0.0424665
0.0424622
0.0424509
0.0424313
0.0424024
0.042363
0.042312
0.0422478
0.0421689
0.0420738
0.0419606
0.0418271
0.0416712
0.0414896
0.0412807
0.0410404
0.0407677
0.0404557
0.040106
0.0397108
0.039273
0.0387839
0.0382454
0.0376522
0.0370009
0.0362958
0.0355376
0.0347135
0.0338528
0.0329281
0.0319965
0.0309829
0.0299498
0.028894
0.0278248
0.0268024
0.0257811
0.0248519
0.0230564
0.042133
0.042133
0.042133
0.0421332
0.0421382
0.0421781
0.0422897
0.0424129
0.0424631
0.0424657
0.0424133
0.0423101
0.042221
0.0421567
0.0421029
0.0420424
0.0419762
0.0419227
0.0418985
0.0418955
0.0419108
0.0419458
0.0419735
0.0419846
0.0419865
0.041986
0.0419849
0.0419845
0.0419836
0.041981
0.0419755
0.0419663
0.0419529
0.0419359
0.0419163
0.0418954
0.0418738
0.0418522
0.0418311
0.0418111
0.0417929
0.0417772
0.0417644
0.0417545
0.0417476
0.0417435
0.0417424
0.0417442
0.0417483
0.0417547
0.0417635
0.0417746
0.0417881
0.041804
0.0418223
0.0418429
0.0418655
0.0418903
0.0419169
0.0419452
0.0419753
0.042007
0.0420402
0.0420749
0.0421108
0.042148
0.0421861
0.0422248
0.042264
0.0423036
0.0423434
0.0423831
0.0424224
0.0424609
0.0424983
0.0425345
0.0425692
0.0426018
0.042632
0.042659
0.0426826
0.0427019
0.0427165
0.042726
0.0427299
0.0427271
0.0427161
0.0426963
0.0426659
0.0426242
0.0425695
0.0425004
0.0424151
0.0423116
0.042188
0.0420417
0.0418709
0.0416715
0.0414418
0.0411762
0.0408758
0.0405328
0.0401484
0.0397137
0.0392294
0.0386886
0.0380883
0.0374294
0.0367044
0.0359161
0.0350591
0.0341424
0.0331569
0.032136
0.0310698
0.0300403
0.0289599
0.0279048
0.0268392
0.0258839
0.0241093
0.042133
0.042133
0.042133
0.0421331
0.042135
0.0421582
0.0422497
0.0423849
0.0424593
0.0424797
0.0424519
0.0423608
0.0422662
0.0421992
0.0421484
0.0420944
0.0420315
0.0419727
0.0419372
0.0419266
0.0419323
0.0419615
0.0419961
0.0420156
0.0420219
0.0420236
0.0420247
0.0420262
0.042027
0.0420261
0.0420224
0.0420149
0.0420032
0.0419876
0.0419694
0.0419498
0.0419297
0.0419096
0.0418901
0.0418716
0.0418549
0.0418405
0.0418289
0.0418203
0.0418145
0.0418119
0.041812
0.0418154
0.0418212
0.0418295
0.0418401
0.0418533
0.0418689
0.041887
0.0419075
0.0419304
0.0419556
0.0419829
0.0420122
0.0420434
0.0420764
0.0421112
0.0421476
0.0421857
0.0422253
0.0422662
0.0423084
0.0423515
0.0423953
0.0424398
0.0424848
0.04253
0.0425752
0.0426201
0.0426643
0.0427077
0.0427501
0.042791
0.0428301
0.0428668
0.0429006
0.0429311
0.0429578
0.0429802
0.0429973
0.0430088
0.043014
0.0430124
0.0430013
0.0429809
0.0429484
0.0429039
0.0428452
0.042771
0.0426792
0.0425672
0.0424327
0.0422725
0.0420851
0.0418661
0.0416153
0.0413252
0.0409963
0.0406199
0.0401966
0.0397193
0.0391869
0.0385971
0.0379389
0.0372173
0.0364271
0.0355698
0.0346303
0.0336257
0.0325388
0.0314403
0.0302381
0.0290889
0.0279032
0.0268065
0.024674
0.042133
0.042133
0.042133
0.0421331
0.0421337
0.0421454
0.0422126
0.0423481
0.0424507
0.0424916
0.0424778
0.0424056
0.0423106
0.0422415
0.0421929
0.0421447
0.0420869
0.0420269
0.0419824
0.0419634
0.0419623
0.0419806
0.0420173
0.0420461
0.0420589
0.0420634
0.0420662
0.0420695
0.042072
0.0420723
0.0420701
0.0420641
0.0420538
0.0420395
0.0420225
0.042004
0.0419853
0.0419668
0.0419489
0.0419319
0.0419167
0.0419036
0.0418932
0.0418858
0.0418813
0.0418799
0.0418816
0.0418862
0.0418936
0.0419036
0.0419161
0.0419312
0.0419488
0.041969
0.0419917
0.0420168
0.0420443
0.0420741
0.042106
0.0421399
0.0421757
0.0422134
0.042253
0.0422943
0.0423373
0.0423818
0.0424278
0.042475
0.0425232
0.0425722
0.042622
0.0426725
0.0427233
0.0427741
0.0428247
0.0428748
0.0429244
0.042973
0.0430205
0.0430662
0.0431098
0.0431508
0.0431887
0.0432232
0.0432538
0.0432797
0.0432998
0.0433137
0.0433207
0.043321
0.0433098
0.0432888
0.0432545
0.0432069
0.0431437
0.043063
0.0429629
0.0428406
0.0426943
0.0425195
0.0423145
0.0420724
0.0417933
0.0414688
0.0411001
0.0406796
0.0402051
0.0396704
0.0390681
0.0384038
0.0376657
0.0368612
0.0359879
0.0350396
0.034033
0.0329461
0.031807
0.0306491
0.0294765
0.0283607
0.0262386
0.042133
0.042133
0.042133
0.042133
0.0421332
0.0421384
0.0421824
0.042306
0.0424355
0.0424956
0.0424934
0.0424461
0.0423556
0.0422843
0.042236
0.0421924
0.0421403
0.0420825
0.0420336
0.0420061
0.041999
0.0420074
0.0420394
0.0420754
0.0420959
0.0421042
0.0421087
0.0421134
0.0421176
0.0421192
0.042118
0.0421132
0.042104
0.0420908
0.0420747
0.0420574
0.0420401
0.0420231
0.0420067
0.0419913
0.0419775
0.0419657
0.0419567
0.0419505
0.0419474
0.0419471
0.0419504
0.0419563
0.0419651
0.0419767
0.0419909
0.0420078
0.0420273
0.0420495
0.0420743
0.0421016
0.0421314
0.0421636
0.042198
0.0422346
0.0422731
0.0423137
0.0423562
0.0424006
0.0424469
0.0424949
0.0425446
0.0425957
0.042648
0.0427014
0.0427558
0.0428111
0.0428672
0.0429236
0.0429802
0.0430367
0.043093
0.0431489
0.0432041
0.0432582
0.0433108
0.0433614
0.0434097
0.0434553
0.0434978
0.0435365
0.0435709
0.0436002
0.0436232
0.0436395
0.0436483
0.0436495
0.0436386
0.0436168
0.0435809
0.0435303
0.0434627
0.0433757
0.0432668
0.0431322
0.0429702
0.0427751
0.0425468
0.0422774
0.0419677
0.041609
0.0411979
0.0407265
0.0401904
0.0395916
0.038916
0.0381687
0.0373419
0.0364391
0.0354547
0.0343458
0.0331948
0.0318826
0.0306058
0.0294093
0.0271202
0.042133
0.042133
0.042133
0.042133
0.0421331
0.0421351
0.0421609
0.0422634
0.0424092
0.0424939
0.0425047
0.0424803
0.0423993
0.0423255
0.0422768
0.0422373
0.0421915
0.0421384
0.0420886
0.0420542
0.0420408
0.0420421
0.0420636
0.042102
0.0421309
0.0421446
0.0421513
0.0421571
0.0421628
0.0421656
0.0421652
0.0421614
0.042153
0.0421406
0.0421255
0.0421094
0.0420933
0.0420778
0.042063
0.0420491
0.0420368
0.0420264
0.0420187
0.0420138
0.042012
0.0420132
0.0420177
0.042025
0.0420353
0.0420484
0.0420643
0.0420828
0.0421042
0.0421282
0.042155
0.0421845
0.0422165
0.042251
0.0422878
0.0423268
0.042368
0.0424113
0.0424566
0.042504
0.0425533
0.0426045
0.0426576
0.0427124
0.0427685
0.042826
0.0428847
0.0429446
0.0430055
0.0430671
0.0431292
0.0431917
0.0432542
0.0433168
0.0433791
0.043441
0.0435019
0.0435615
0.0436194
0.0436754
0.0437291
0.0437799
0.0438274
0.0438707
0.0439094
0.0439427
0.0439691
0.0439882
0.043999
0.0440013
0.0439907
0.0439678
0.0439297
0.0438749
0.0438013
0.0437058
0.0435866
0.0434389
0.0432616
0.0430476
0.0427967
0.0424988
0.0421522
0.0417494
0.0412881
0.0407641
0.040165
0.0394945
0.0387401
0.0379053
0.0369855
0.0359774
0.0348682
0.0337045
0.0323965
0.0311464
0.0287501
0.042133
0.042133
0.042133
0.042133
0.0421331
0.0421338
0.0421473
0.042225
0.0423741
0.0424855
0.0425156
0.0425054
0.0424379
0.0423639
0.0423157
0.0422805
0.0422408
0.0421925
0.0421438
0.0421052
0.0420847
0.0420802
0.0420911
0.0421262
0.0421624
0.0421828
0.0421924
0.0421993
0.0422059
0.0422101
0.0422105
0.0422074
0.0421997
0.042188
0.0421739
0.0421589
0.0421442
0.0421302
0.0421169
0.0421047
0.0420938
0.0420849
0.0420786
0.0420751
0.0420744
0.0420774
0.0420831
0.0420919
0.0421037
0.0421183
0.0421357
0.0421559
0.042179
0.0422049
0.0422336
0.042265
0.0422991
0.0423358
0.0423749
0.0424164
0.0424601
0.042506
0.042554
0.0426042
0.0426565
0.0427108
0.0427671
0.0428253
0.0428851
0.0429465
0.0430092
0.0430734
0.0431388
0.0432053
0.0432726
0.0433405
0.043409
0.0434778
0.0435467
0.0436156
0.0436842
0.0437521
0.0438188
0.0438842
0.043948
0.0440098
0.044069
0.0441251
0.0441776
0.0442257
0.0442688
0.0443061
0.0443359
0.0443578
0.0443706
0.044374
0.0443639
0.04434
0.0442995
0.0442404
0.0441607
0.0440561
0.0439248
0.04376
0.0435608
0.0433177
0.0430309
0.0426924
0.0422981
0.0418387
0.0413064
0.0407029
0.0400123
0.0392359
0.0383583
0.0373926
0.0363232
0.0351875
0.0338511
0.0326448
0.0304662
0.042133
0.042133
0.042133
0.042133
0.042133
0.0421333
0.0421398
0.0421941
0.0423351
0.0424713
0.0425225
0.0425205
0.0424715
0.0424012
0.0423538
0.0423217
0.0422867
0.0422426
0.0421958
0.0421556
0.0421293
0.0421198
0.0421233
0.0421501
0.0421903
0.042218
0.0422317
0.0422399
0.042247
0.0422521
0.0422531
0.0422505
0.0422433
0.0422324
0.0422191
0.0422052
0.0421919
0.0421795
0.0421679
0.0421573
0.042148
0.0421407
0.0421357
0.0421337
0.0421345
0.042139
0.0421462
0.0421565
0.0421698
0.042186
0.042205
0.0422268
0.0422515
0.0422791
0.0423096
0.042343
0.0423791
0.0424179
0.0424592
0.042503
0.0425491
0.0425974
0.042648
0.0427008
0.0427559
0.0428131
0.0428724
0.0429338
0.042997
0.0430619
0.0431284
0.0431965
0.0432661
0.043337
0.0434091
0.0434821
0.0435559
0.0436303
0.0437053
0.0437807
0.0438562
0.0439316
0.0440065
0.0440805
0.0441536
0.0442254
0.0442955
0.0443633
0.0444285
0.0444904
0.0445484
0.0446018
0.0446498
0.0446914
0.0447249
0.0447498
0.0447648
0.0447694
0.0447596
0.0447342
0.0446905
0.0446252
0.0445366
0.0444191
0.0442717
0.0440862
0.0438633
0.0435923
0.043269
0.0428843
0.0424331
0.0419105
0.0413021
0.0406136
0.0398315
0.0389547
0.0379509
0.036827
0.0355641
0.034247
0.0319527
0.042133
0.042133
0.042133
0.042133
0.042133
0.0421331
0.0421361
0.0421716
0.0422967
0.0424517
0.042523
0.0425318
0.0425011
0.0424372
0.0423892
0.042359
0.042328
0.0422878
0.0422436
0.042204
0.0421747
0.0421607
0.0421594
0.0421762
0.0422163
0.0422511
0.0422695
0.0422791
0.0422863
0.0422913
0.0422927
0.0422903
0.0422834
0.0422731
0.0422607
0.0422479
0.042236
0.0422251
0.0422152
0.0422064
0.0421988
0.0421931
0.0421897
0.0421889
0.0421917
0.0421975
0.0422064
0.0422183
0.0422332
0.0422511
0.0422717
0.0422951
0.0423214
0.0423507
0.0423829
0.0424181
0.0424561
0.0424969
0.0425403
0.0425863
0.0426347
0.0426854
0.0427384
0.0427938
0.0428514
0.0429114
0.0429735
0.0430379
0.0431043
0.0431726
0.0432426
0.0433143
0.0433878
0.0434628
0.0435393
0.043617
0.0436957
0.0437754
0.043856
0.0439373
0.0440192
0.0441014
0.0441836
0.0442655
0.044347
0.0444278
0.0445076
0.044586
0.0446625
0.0447367
0.0448081
0.044876
0.0449397
0.0449985
0.0450514
0.0450974
0.0451349
0.045163
0.0451803
0.0451861
0.0451762
0.0451483
0.0451006
0.0450284
0.044931
0.0448007
0.0446368
0.0444274
0.0441707
0.043857
0.0434813
0.0430357
0.0425097
0.0419025
0.0411953
0.0403897
0.0394559
0.0384191
0.0372345
0.0359952
0.0339519
0.042133
0.042133
0.042133
0.042133
0.042133
0.0421331
0.0421344
0.0421566
0.0422621
0.0424278
0.042519
0.0425434
0.0425262
0.0424686
0.0424203
0.042392
0.0423652
0.0423293
0.0422883
0.0422506
0.0422207
0.042203
0.0421979
0.042207
0.0422426
0.0422827
0.0423061
0.0423172
0.042324
0.0423284
0.0423295
0.042327
0.0423202
0.0423103
0.0422986
0.0422869
0.0422762
0.0422669
0.0422587
0.0422516
0.0422459
0.0422418
0.04224
0.042241
0.0422455
0.0422529
0.0422635
0.0422771
0.0422937
0.0423132
0.0423355
0.0423606
0.0423886
0.0424195
0.0424534
0.0424903
0.0425302
0.0425728
0.0426183
0.0426663
0.0427169
0.0427698
0.0428251
0.0428829
0.042943
0.0430055
0.0430703
0.0431374
0.0432067
0.0432781
0.0433513
0.0434264
0.0435034
0.0435823
0.0436627
0.0437446
0.0438278
0.0439123
0.0439979
0.0440845
0.0441721
0.0442604
0.0443492
0.0444382
0.0445273
0.0446162
0.0447047
0.0447926
0.0448793
0.0449646
0.045048
0.045129
0.045207
0.0452814
0.0453513
0.0454158
0.0454741
0.0455251
0.0455668
0.0455984
0.045618
0.0456249
0.0456147
0.0455838
0.0455307
0.0454485
0.0453365
0.0451843
0.0449922
0.0447484
0.0444487
0.0440832
0.0436423
0.0431193
0.0424966
0.0417686
0.0409075
0.0399298
0.0387618
0.0375222
0.0355729
0.042133
0.042133
0.042133
0.042133
0.042133
0.042133
0.0421336
0.0421473
0.0422335
0.0424019
0.0425139
0.0425541
0.0425446
0.0424944
0.0424479
0.0424222
0.0423998
0.0423683
0.0423304
0.042295
0.0422659
0.0422459
0.0422379
0.0422419
0.0422705
0.0423133
0.0423415
0.0423544
0.0423606
0.0423638
0.0423641
0.0423612
0.0423542
0.0423444
0.0423333
0.0423224
0.0423128
0.0423049
0.0422983
0.042293
0.0422891
0.0422868
0.0422866
0.0422896
0.0422957
0.0423049
0.0423173
0.0423326
0.042351
0.0423723
0.0423963
0.0424231
0.0424527
0.0424852
0.0425208
0.0425594
0.042601
0.0426455
0.0426929
0.0427429
0.0427955
0.0428506
0.0429081
0.042968
0.0430305
0.0430953
0.0431626
0.0432323
0.0433043
0.0433785
0.0434548
0.043533
0.0436133
0.0436955
0.0437796
0.0438653
0.0439527
0.0440415
0.0441317
0.0442232
0.0443159
0.0444098
0.0445045
0.0445999
0.0446957
0.0447919
0.0448882
0.0449845
0.0450804
0.0451755
0.0452695
0.045362
0.0454526
0.0455406
0.0456256
0.0457066
0.0457829
0.0458535
0.0459175
0.0459738
0.0460201
0.046055
0.0460767
0.0460842
0.0460724
0.0460367
0.0459762
0.0458824
0.0457561
0.0455837
0.0453625
0.0450792
0.0447256
0.0442922
0.0437653
0.0431364
0.0423872
0.041503
0.0404523
0.0392598
0.0375007
0.042133
0.042133
0.042133
0.042133
0.042133
0.042133
0.0421333
0.042142
0.0422118
0.0423772
0.0425096
0.0425618
0.0425571
0.0425163
0.042473
0.0424504
0.0424323
0.0424051
0.0423699
0.0423365
0.0423089
0.0422881
0.0422782
0.0422792
0.042301
0.042344
0.0423765
0.042391
0.0423964
0.0423979
0.042397
0.0423929
0.0423856
0.0423758
0.0423651
0.0423549
0.0423463
0.0423395
0.0423344
0.0423308
0.0423286
0.042328
0.0423299
0.0423346
0.0423424
0.0423535
0.0423677
0.0423849
0.0424051
0.0424282
0.0424539
0.0424824
0.0425137
0.0425479
0.0425851
0.0426254
0.0426687
0.042715
0.0427641
0.0428161
0.0428706
0.0429277
0.0429872
0.0430493
0.0431139
0.043181
0.0432506
0.0433227
0.0433972
0.043474
0.043553
0.0436341
0.0437173
0.0438027
0.0438901
0.0439793
0.0440703
0.044163
0.0442573
0.0443532
0.0444505
0.0445493
0.0446493
0.0447503
0.0448521
0.0449547
0.0450579
0.0451616
0.0452655
0.0453692
0.0454726
0.0455753
0.0456769
0.0457771
0.0458752
0.0459707
0.046063
0.0461512
0.0462345
0.0463119
0.0463822
0.0464441
0.046495
0.0465336
0.0465578
0.0465658
0.0465523
0.0465113
0.0464415
0.0463304
0.0461773
0.0459668
0.0456947
0.0453491
0.0449158
0.044382
0.0437194
0.0428966
0.0419149
0.0407242
0.0391268
0.042133
0.042133
0.042133
0.042133
0.042133
0.042133
0.0421332
0.042139
0.0421965
0.0423565
0.0425054
0.0425675
0.0425665
0.0425347
0.0424958
0.0424768
0.0424627
0.0424394
0.0424064
0.0423746
0.0423488
0.0423287
0.0423182
0.0423175
0.0423345
0.0423756
0.0424109
0.0424264
0.0424305
0.0424301
0.0424275
0.0424222
0.0424144
0.0424047
0.0423943
0.0423847
0.0423768
0.0423711
0.0423674
0.0423654
0.0423648
0.0423661
0.0423698
0.0423762
0.0423859
0.0423988
0.0424149
0.042434
0.042456
0.0424809
0.0425084
0.0425386
0.0425716
0.0426075
0.0426463
0.0426883
0.0427332
0.0427812
0.0428321
0.0428858
0.0429422
0.0430011
0.0430626
0.0431267
0.0431933
0.0432625
0.0433342
0.0434085
0.0434853
0.0435646
0.0436461
0.0437297
0.0438157
0.0439039
0.0439942
0.0440866
0.0441809
0.0442771
0.0443751
0.0444749
0.0445763
0.0446794
0.0447841
0.0448901
0.0449973
0.0451056
0.0452149
0.0453251
0.045436
0.0455474
0.045659
0.0457706
0.0458818
0.0459925
0.0461021
0.0462102
0.0463162
0.0464196
0.0465197
0.0466156
0.0467065
0.0467911
0.0468681
0.0469362
0.0469921
0.0470343
0.0470604
0.0470679
0.0470501
0.0469993
0.046915
0.0467824
0.0465998
0.0463498
0.0460184
0.045591
0.0450324
0.0443178
0.043441
0.0423299
0.0408431
0.042133
0.042133
0.042133
0.042133
0.042133
0.042133
0.0421332
0.0421375
0.0421868
0.0423414
0.0425015
0.0425722
0.0425745
0.0425503
0.0425166
0.0425015
0.0424908
0.0424706
0.0424396
0.0424093
0.0423858
0.0423677
0.0423577
0.0423563
0.0423702
0.0424082
0.0424441
0.0424594
0.0424616
0.0424594
0.0424547
0.0424484
0.0424403
0.0424308
0.0424209
0.0424118
0.0424047
0.0424001
0.0423977
0.042397
0.0423982
0.0424012
0.0424066
0.0424148
0.0424263
0.0424411
0.0424591
0.04248
0.0425039
0.0425305
0.0425598
0.0425918
0.0426265
0.042664
0.0427045
0.042748
0.0427946
0.0428442
0.0428968
0.0429522
0.0430104
0.0430712
0.0431345
0.0432004
0.0432689
0.0433401
0.0434138
0.0434902
0.0435691
0.0436505
0.0437343
0.0438204
0.0439088
0.0439996
0.0440926
0.0441878
0.0442851
0.0443844
0.0444858
0.044589
0.0446941
0.0448011
0.0449099
0.0450203
0.0451322
0.0452455
0.0453601
0.045476
0.0455931
0.045711
0.0458297
0.045949
0.0460686
0.0461883
0.0463078
0.0464267
0.0465446
0.0466611
0.0467756
0.0468875
0.0469962
0.0471005
0.0471996
0.0472923
0.0473766
0.0474515
0.0475128
0.0475592
0.0475877
0.0475952
0.0475734
0.0475128
0.0474105
0.0472493
0.0470215
0.046709
0.046268
0.0456667
0.0448643
0.0438171
0.0424108
0.042133
0.042133
0.042133
0.042133
0.042133
0.042133
0.0421331
0.0421369
0.0421818
0.0423326
0.0425001
0.0425765
0.042582
0.0425638
0.0425358
0.0425246
0.0425166
0.042499
0.0424697
0.0424413
0.0424206
0.0424051
0.0423965
0.0423949
0.0424065
0.0424406
0.0424747
0.0424884
0.0424883
0.0424839
0.0424776
0.0424707
0.0424627
0.0424537
0.0424443
0.042436
0.0424299
0.0424265
0.0424254
0.0424263
0.0424291
0.0424336