/*--------------------------------*- C++ -*----------------------------------*\
| =========                 |                                                 |
| \\      /  F ield         | OpenFOAM: The Open Source CFD Toolbox           |
|  \\    /   O peration     | Version:  2412                                  |
|   \\  /    A nd           | Website:  www.openfoam.com                      |
|    \\/     M anipulation  |                                                 |
\*---------------------------------------------------------------------------*/
FoamFile
{
    version     2.0;
    format      ascii;
    arch        "LSB;label=32;scalar=64";
    class       volScalarField;
    location    "0.052";
    object      rho;
}
// * * * * * * * * * * * * * * * * * * * * * * * * * * * * * * * * * * * * * //

dimensions      [1 -3 0 0 0 0 0];

internalField   nonuniform List<scalar> 
78650
(
0.0421332
0.0421369
0.042167
0.0422529
0.0423478
0.042393
0.0423861
0.0423223
0.0421801
0.0420377
0.0419245
0.0418288
0.0417416
0.0416745
0.0416464
0.041647
0.0416689
0.0417003
0.0417151
0.0417166
0.0417097
0.0416941
0.0416762
0.0416607
0.0416466
0.041633
0.0416199
0.0416066
0.0415914
0.041572
0.0415474
0.0415184
0.0414864
0.0414526
0.0414175
0.0413813
0.0413443
0.0413072
0.0412704
0.0412345
0.0412
0.0411672
0.0411364
0.0411077
0.0410813
0.0410569
0.0410347
0.0410144
0.0409959
0.0409793
0.0409645
0.0409513
0.0409395
0.040929
0.0409195
0.0409107
0.0409026
0.0408947
0.0408868
0.0408786
0.0408699
0.0408606
0.0408504
0.0408387
0.0408251
0.0408089
0.04079
0.0407679
0.040742
0.0407114
0.0406755
0.0406336
0.0405853
0.0405299
0.0404662
0.0403931
0.0403091
0.0402135
0.0401052
0.0399832
0.0398461
0.0396925
0.0395206
0.0393283
0.0391139
0.0388751
0.0386108
0.0383193
0.0379995
0.0376481
0.0372646
0.0368453
0.036392
0.0358931
0.0353628
0.034797
0.0341875
0.0335336
0.0328424
0.0321437
0.0314171
0.0306412
0.0298293
0.0289844
0.0281397
0.0273439
0.0265793
0.0258672
0.0251853
0.0245189
0.0238825
0.0232871
0.0227167
0.022181
0.0216986
0.0212438
0.0208412
0.0204388
0.0200603
0.0197105
0.019117
0.0421331
0.0421352
0.0421567
0.0422328
0.0423353
0.042393
0.0423937
0.042351
0.0422213
0.042078
0.0419642
0.0418706
0.0417838
0.0417089
0.041667
0.0416594
0.0416732
0.0417056
0.0417273
0.0417324
0.0417289
0.0417166
0.0416994
0.0416839
0.0416703
0.0416575
0.0416453
0.0416331
0.0416192
0.0416014
0.0415785
0.0415511
0.0415207
0.0414884
0.0414546
0.0414197
0.041384
0.0413484
0.0413133
0.0412792
0.0412466
0.0412157
0.0411868
0.0411601
0.0411355
0.0411131
0.0410928
0.0410744
0.0410581
0.0410436
0.041031
0.0410201
0.0410107
0.0410028
0.040996
0.0409902
0.0409851
0.0409805
0.0409761
0.0409716
0.0409669
0.0409618
0.040956
0.0409492
0.0409409
0.0409305
0.0409176
0.0409019
0.0408831
0.0408603
0.0408328
0.0407999
0.0407613
0.0407164
0.0406642
0.0406035
0.0405333
0.0404523
0.04036
0.0402551
0.0401366
0.0400028
0.0398522
0.039683
0.0394938
0.0392824
0.0390477
0.0387869
0.0384973
0.0381763
0.0378239
0.0374384
0.0370205
0.0365619
0.0360713
0.0355337
0.0349589
0.0343426
0.0336812
0.0329886
0.0322824
0.0315627
0.0308217
0.0300539
0.0292224
0.0283981
0.027574
0.0267529
0.0259953
0.0252649
0.0245716
0.0239368
0.0233186
0.022733
0.0222007
0.0216973
0.0212438
0.020809
0.0204009
0.0200153
0.0193865
0.0421331
0.0421342
0.0421487
0.0422126
0.0423183
0.042391
0.0424007
0.0423751
0.0422617
0.0421193
0.0420038
0.0419111
0.0418255
0.0417458
0.0416912
0.041675
0.0416817
0.0417108
0.0417389
0.041749
0.0417486
0.0417408
0.0417255
0.0417098
0.0416965
0.0416842
0.0416727
0.0416614
0.0416485
0.0416322
0.0416109
0.0415851
0.0415563
0.0415254
0.0414929
0.0414593
0.0414249
0.0413906
0.041357
0.0413246
0.0412938
0.0412649
0.041238
0.0412132
0.0411906
0.0411702
0.0411519
0.0411355
0.0411212
0.0411089
0.0410985
0.0410899
0.041083
0.0410777
0.0410736
0.0410707
0.0410687
0.0410674
0.0410665
0.0410657
0.0410649
0.0410639
0.0410626
0.0410606
0.0410575
0.0410526
0.0410457
0.0410364
0.0410245
0.0410092
0.0409898
0.0409656
0.0409363
0.0409014
0.04086
0.0408113
0.0407538
0.0406868
0.0406092
0.0405203
0.0404188
0.0403035
0.0401729
0.0400254
0.0398595
0.0396728
0.0394638
0.03923
0.0389699
0.0386822
0.0383664
0.0380186
0.0376356
0.0372113
0.0367544
0.0362573
0.0357305
0.0351573
0.0345377
0.0338694
0.0331539
0.0324254
0.0316738
0.0309455
0.0301593
0.029357
0.0285607
0.0277159
0.0268825
0.0260817
0.0252797
0.024538
0.0238468
0.0231991
0.0226181
0.022069
0.0215609
0.0210551
0.0205802
0.0201493
0.0194171
0.0421331
0.0421336
0.0421426
0.0421932
0.0422971
0.0423851
0.042407
0.0423939
0.0423015
0.0421635
0.042045
0.041951
0.0418668
0.0417849
0.0417201
0.0416936
0.0416942
0.0417165
0.0417489
0.0417661
0.0417694
0.0417657
0.0417534
0.0417381
0.0417249
0.0417131
0.0417022
0.0416916
0.0416797
0.0416646
0.0416449
0.0416208
0.0415935
0.0415641
0.041533
0.0415006
0.0414675
0.0414344
0.0414022
0.0413714
0.0413423
0.0413153
0.0412903
0.0412675
0.0412468
0.0412284
0.041212
0.0411977
0.0411855
0.0411752
0.041167
0.0411607
0.0411561
0.0411533
0.0411519
0.0411518
0.0411527
0.0411546
0.041157
0.0411598
0.0411628
0.0411658
0.0411688
0.0411714
0.0411731
0.0411736
0.0411724
0.0411693
0.041164
0.0411558
0.0411441
0.0411283
0.0411079
0.0410825
0.0410516
0.0410143
0.0409693
0.0409158
0.0408527
0.0407794
0.0406948
0.0405978
0.0404871
0.040361
0.0402178
0.0400557
0.0398734
0.0396686
0.0394394
0.0391835
0.038899
0.0385827
0.0382338
0.0378507
0.0374366
0.0369793
0.0364847
0.0359403
0.0353629
0.0347477
0.034078
0.0333675
0.0326061
0.0318151
0.0310334
0.0302282
0.0294531
0.0286623
0.0278416
0.0270555
0.026247
0.0254471
0.0246939
0.0239818
0.0233184
0.0227016
0.0221227
0.0215593
0.0210338
0.0205454
0.0196753
0.042133
0.0421333
0.0421384
0.0421758
0.0422728
0.0423743
0.0424105
0.0424085
0.0423406
0.0422103
0.042087
0.0419902
0.0419076
0.0418265
0.0417547
0.0417162
0.0417103
0.0417248
0.0417583
0.0417833
0.0417914
0.0417908
0.0417826
0.0417684
0.0417554
0.0417441
0.0417338
0.0417238
0.0417128
0.041699
0.0416808
0.0416582
0.0416325
0.0416046
0.0415749
0.0415438
0.041512
0.0414801
0.0414491
0.0414197
0.0413923
0.041367
0.041344
0.0413231
0.0413045
0.0412881
0.0412738
0.0412615
0.0412513
0.0412432
0.0412371
0.041233
0.0412308
0.0412305
0.0412318
0.0412345
0.0412383
0.0412432
0.0412489
0.0412552
0.0412619
0.0412689
0.0412761
0.0412832
0.0412897
0.0412954
0.0412998
0.0413025
0.0413036
0.0413023
0.0412982
0.0412906
0.0412787
0.0412625
0.0412415
0.041215
0.0411818
0.0411409
0.0410916
0.0410329
0.040964
0.040884
0.0407915
0.040685
0.0405633
0.0404244
0.040267
0.0400885
0.0398875
0.0396621
0.0394109
0.0391306
0.0388193
0.0384744
0.0380962
0.0376779
0.0372255
0.0367285
0.0361986
0.0356205
0.0350025
0.034342
0.0336298
0.0328488
0.0320482
0.0312086
0.0303487
0.0295138
0.0286619
0.0278379
0.027043
0.0262391
0.0254647
0.0247239
0.0240051
0.0233325
0.0227104
0.0221019
0.0215422
0.0210295
0.0201556
0.042133
0.0421331
0.0421358
0.0421612
0.0422462
0.0423573
0.0424111
0.0424213
0.042377
0.0422579
0.0421295
0.0420295
0.041949
0.0418712
0.0417956
0.0417447
0.0417304
0.0417378
0.0417678
0.041799
0.0418136
0.041816
0.041812
0.0418001
0.0417875
0.0417766
0.041767
0.0417579
0.0417478
0.0417352
0.0417185
0.0416975
0.0416733
0.0416469
0.0416187
0.0415891
0.0415585
0.0415279
0.0414982
0.0414701
0.0414442
0.0414206
0.0413993
0.0413804
0.0413637
0.0413494
0.0413371
0.0413269
0.0413188
0.0413127
0.0413087
0.0413069
0.041307
0.0413092
0.041313
0.0413182
0.0413249
0.0413328
0.0413418
0.0413515
0.0413618
0.0413727
0.0413838
0.0413952
0.0414064
0.0414171
0.0414269
0.0414354
0.0414424
0.0414476
0.0414505
0.0414508
0.0414473
0.0414401
0.0414286
0.0414123
0.0413904
0.0413618
0.0413258
0.0412814
0.041228
0.0411646
0.0410901
0.0410033
0.0409028
0.0407867
0.0406536
0.0405016
0.0403291
0.0401339
0.0399133
0.0396648
0.0393882
0.0390816
0.038743
0.0383648
0.0379503
0.0374922
0.0369984
0.0364538
0.0358726
0.0352497
0.0345875
0.0338832
0.033126
0.0323451
0.0314987
0.0306347
0.0297407
0.0288216
0.0279342
0.0270349
0.0261753
0.0253685
0.0245677
0.0238214
0.0231284
0.0224713
0.0218713
0.0213252
0.0203398
0.042133
0.0421331
0.0421343
0.0421499
0.0422191
0.0423344
0.0424083
0.0424328
0.0424069
0.0423031
0.0421728
0.0420703
0.0419916
0.0419182
0.041842
0.0417807
0.0417557
0.0417567
0.0417785
0.0418128
0.0418353
0.041842
0.0418409
0.0418324
0.0418208
0.0418105
0.0418017
0.0417934
0.0417844
0.0417731
0.041758
0.0417387
0.0417161
0.0416912
0.0416644
0.0416362
0.0416071
0.0415778
0.0415493
0.0415225
0.0414979
0.0414758
0.0414563
0.0414392
0.0414245
0.0414121
0.0414019
0.0413938
0.0413878
0.0413839
0.0413821
0.0413824
0.0413851
0.0413894
0.0413957
0.0414037
0.0414132
0.0414241
0.0414362
0.0414493
0.0414632
0.0414777
0.0414929
0.0415084
0.0415242
0.0415397
0.0415547
0.0415687
0.0415818
0.0415934
0.0416031
0.0416104
0.041615
0.0416164
0.041614
0.0416077
0.0415966
0.0415795
0.041556
0.0415249
0.0414858
0.0414379
0.0413801
0.0413113
0.0412301
0.041135
0.0410248
0.0408974
0.0407513
0.0405843
0.0403949
0.0401813
0.0399415
0.0396711
0.0393676
0.0390279
0.0386555
0.0382425
0.0377906
0.0372883
0.0367479
0.0361565
0.0355199
0.034839
0.0341022
0.0333448
0.0325424
0.0317229
0.0309011
0.0300256
0.0291411
0.0282399
0.0273141
0.0264486
0.0255677
0.0247411
0.023965
0.0232145
0.0225139
0.0218673
0.0206803
0.042133
0.0421331
0.0421335
0.0421421
0.0421936
0.0423056
0.0424013
0.0424406
0.0424264
0.0423468
0.0422199
0.0421143
0.0420355
0.0419664
0.0418931
0.0418251
0.041787
0.0417804
0.0417927
0.0418254
0.0418552
0.0418674
0.0418689
0.0418642
0.0418543
0.041845
0.0418371
0.0418299
0.0418222
0.0418124
0.041799
0.0417816
0.0417607
0.0417372
0.041712
0.0416852
0.0416575
0.0416297
0.0416026
0.041577
0.0415537
0.041533
0.041515
0.0414995
0.0414867
0.0414763
0.0414681
0.0414621
0.0414582
0.0414564
0.0414568
0.0414595
0.0414641
0.0414709
0.0414796
0.0414902
0.0415024
0.0415162
0.0415314
0.0415477
0.041565
0.0415832
0.0416021
0.0416218
0.0416419
0.0416621
0.0416821
0.0417015
0.0417201
0.0417378
0.0417541
0.0417687
0.0417808
0.0417901
0.0417964
0.0417993
0.0417985
0.0417928
0.0417816
0.0417634
0.0417383
0.0417053
0.0416639
0.0416127
0.0415508
0.0414765
0.0413886
0.0412853
0.0411652
0.0410263
0.0408666
0.0406837
0.0404755
0.0402393
0.039974
0.0396773
0.039349
0.0389805
0.038573
0.0381198
0.0376297
0.0370882
0.0364996
0.0358591
0.035172
0.0344209
0.0336089
0.0327448
0.0318789
0.0309863
0.0300751
0.029206
0.0282882
0.0273871
0.0264879
0.0256095
0.0247871
0.0239961
0.0232618
0.0225875
0.0213858
0.042133
0.042133
0.0421332
0.0421374
0.0421719
0.0422724
0.0423866
0.0424427
0.0424399
0.042388
0.0422702
0.0421604
0.0420799
0.0420148
0.0419469
0.0418764
0.0418255
0.0418089
0.0418129
0.0418376
0.0418715
0.0418913
0.0418963
0.0418947
0.0418876
0.0418797
0.0418731
0.0418673
0.0418611
0.0418529
0.0418414
0.041826
0.0418069
0.041785
0.0417612
0.0417359
0.0417097
0.0416834
0.0416576
0.0416334
0.0416113
0.0415919
0.0415753
0.0415614
0.0415503
0.0415417
0.0415354
0.0415316
0.0415298
0.0415302
0.0415328
0.0415375
0.0415444
0.0415535
0.0415647
0.0415779
0.0415928
0.0416095
0.0416276
0.0416471
0.0416678
0.0416895
0.0417122
0.0417358
0.0417601
0.0417849
0.0418097
0.0418343
0.0418584
0.041882
0.0419047
0.0419259
0.0419454
0.0419626
0.0419774
0.041989
0.0419974
0.0420019
0.0420023
0.0419966
0.0419849
0.0419658
0.0419393
0.0419042
0.0418598
0.0418045
0.0417373
0.0416564
0.0415604
0.0414475
0.0413162
0.0411644
0.0409903
0.0407906
0.0405637
0.0403069
0.0400189
0.0396931
0.0393315
0.0389276
0.0384846
0.0379912
0.0374561
0.0368721
0.0362379
0.0355514
0.0348172
0.0340176
0.033158
0.0322479
0.0312837
0.0303331
0.0293658
0.0283612
0.0274034
0.0264309
0.0255007
0.0246012
0.0237561
0.0230003
0.0215268
0.042133
0.042133
0.0421331
0.0421348
0.0421555
0.0422377
0.0423617
0.0424403
0.0424504
0.0424235
0.0423206
0.042208
0.0421257
0.0420634
0.0420016
0.0419323
0.0418717
0.0418416
0.0418375
0.0418511
0.0418845
0.0419126
0.0419231
0.041924
0.0419204
0.0419145
0.0419095
0.0419054
0.0419008
0.0418945
0.041885
0.0418717
0.0418545
0.0418343
0.0418119
0.0417881
0.0417634
0.0417386
0.0417143
0.0416915
0.0416707
0.0416525
0.0416371
0.0416247
0.0416151
0.0416081
0.0416038
0.0416019
0.0416022
0.0416048
0.0416094
0.0416163
0.0416254
0.0416368
0.0416504
0.041666
0.0416836
0.041703
0.0417241
0.0417466
0.0417706
0.0417957
0.041822
0.0418494
0.0418777
0.0419068
0.0419362
0.0419658
0.0419952
0.0420243
0.0420529
0.0420807
0.0421071
0.0421318
0.0421544
0.0421747
0.0421925
0.0422067
0.0422171
0.0422232
0.0422244
0.0422192
0.0422076
0.0421883
0.0421609
0.0421242
0.042077
0.0420177
0.0419452
0.0418576
0.0417535
0.0416308
0.0414871
0.0413201
0.0411287
0.0409098
0.0406612
0.0403777
0.0400603
0.0397014
0.0393017
0.0388527
0.0383614
0.0378185
0.037223
0.0365739
0.0358748
0.0351311
0.0343243
0.033478
0.0325925
0.0316669
0.0307403
0.0297305
0.0287369
0.0277304
0.0267277
0.0257664
0.0248227
0.0239657
0.0223373
0.042133
0.042133
0.0421331
0.0421337
0.0421445
0.0422052
0.0423284
0.0424309
0.0424597
0.042449
0.0423683
0.0422577
0.0421733
0.0421114
0.0420543
0.0419884
0.0419225
0.0418789
0.0418656
0.0418701
0.0418965
0.0419304
0.041949
0.0419537
0.041953
0.0419498
0.0419468
0.0419444
0.0419417
0.0419371
0.0419297
0.0419186
0.0419033
0.0418847
0.0418638
0.0418414
0.0418182
0.041795
0.0417723
0.0417508
0.0417314
0.0417144
0.0417003
0.0416892
0.041681
0.0416755
0.0416729
0.0416727
0.0416753
0.0416797
0.0416864
0.0416955
0.0417068
0.0417205
0.0417365
0.0417546
0.0417747
0.0417968
0.0418207
0.0418463
0.0418734
0.0419019
0.0419317
0.0419628
0.041995
0.0420282
0.0420622
0.0420965
0.042131
0.0421655
0.0421998
0.0422338
0.0422668
0.0422986
0.0423289
0.0423572
0.0423835
0.0424072
0.042428
0.0424447
0.0424569
0.0424643
0.0424665
0.0424619
0.0424504
0.0424307
0.0424018
0.0423625
0.0423116
0.0422476
0.0421689
0.042074
0.041961
0.0418276
0.0416715
0.0414893
0.0412791
0.0410379
0.0407656
0.0404546
0.0401052
0.0397107
0.0392746
0.0387856
0.0382443
0.0376491
0.0369951
0.0362802
0.0355028
0.0346534
0.0337584
0.0327908
0.031808
0.0307852
0.0297745
0.0287621
0.0277244
0.0267232
0.0257375
0.024867
0.0232606
0.042133
0.042133
0.042133
0.0421332
0.0421382
0.0421781
0.0422897
0.0424129
0.0424631
0.0424657
0.0424133
0.0423101
0.042221
0.0421567
0.0421029
0.0420424
0.0419762
0.0419227
0.0418985
0.0418955
0.0419108
0.0419458
0.0419735
0.0419846
0.0419865
0.0419859
0.0419849
0.0419845
0.0419837
0.041981
0.0419756
0.0419663
0.041953
0.041936
0.0419164
0.0418954
0.0418738
0.0418521
0.041831
0.041811
0.0417929
0.0417773
0.0417644
0.0417546
0.0417476
0.0417435
0.0417423
0.0417442
0.0417483
0.0417547
0.0417635
0.0417747
0.0417882
0.0418041
0.0418223
0.0418428
0.0418655
0.0418902
0.0419168
0.0419453
0.0419754
0.0420071
0.0420402
0.0420748
0.0421107
0.0421479
0.0421861
0.042225
0.0422642
0.0423038
0.0423436
0.0423833
0.0424227
0.0424612
0.0424986
0.0425347
0.0425691
0.0426017
0.0426318
0.0426591
0.0426827
0.0427021
0.0427166
0.0427259
0.0427295
0.0427266
0.0427156
0.0426959
0.0426655
0.0426239
0.0425693
0.0425005
0.0424155
0.0423121
0.0421883
0.0420413
0.0418699
0.0416713
0.0414437
0.0411803
0.0408815
0.0405408
0.0401591
0.0397259
0.0392448
0.0387124
0.0381214
0.03747
0.0367564
0.0359872
0.0351584
0.0342492
0.0332631
0.0322328
0.0311327
0.0300651
0.0289101
0.0278147
0.0266932
0.0256689
0.0236827
0.042133
0.042133
0.042133
0.0421331
0.042135
0.0421582
0.0422497
0.0423849
0.0424593
0.0424797
0.0424519
0.0423608
0.0422663
0.0421992
0.0421484
0.0420944
0.0420315
0.0419727
0.0419372
0.0419266
0.0419323
0.0419615
0.0419961
0.0420156
0.0420219
0.0420235
0.0420247
0.0420262
0.0420271
0.0420261
0.0420224
0.0420149
0.0420032
0.0419877
0.0419695
0.0419498
0.0419296
0.0419096
0.04189
0.0418716
0.0418549
0.0418405
0.0418289
0.0418203
0.0418145
0.0418119
0.0418119
0.0418154
0.0418212
0.0418295
0.0418402
0.0418534
0.041869
0.041887
0.0419075
0.0419304
0.0419555
0.0419828
0.0420121
0.0420434
0.0420765
0.0421112
0.0421477
0.0421857
0.0422252
0.0422662
0.0423084
0.0423516
0.0423956
0.04244
0.042485
0.0425302
0.0425755
0.0426204
0.0426646
0.0427079
0.0427501
0.0427909
0.0428299
0.0428667
0.0429007
0.0429312
0.0429579
0.0429801
0.042997
0.0430083
0.0430135
0.0430119
0.043001
0.0429805
0.0429481
0.0429038
0.0428454
0.0427715
0.0426797
0.0425675
0.0424331
0.0422733
0.0420861
0.0418663
0.0416138
0.0413214
0.0409884
0.040607
0.0401807
0.0396998
0.0391584
0.0385592
0.0378989
0.0371773
0.036382
0.0355202
0.0345875
0.0336222
0.0325771
0.031528
0.0303954
0.0292979
0.028178
0.0271134
0.025092
0.042133
0.042133
0.042133
0.0421331
0.0421337
0.0421454
0.0422126
0.0423481
0.0424507
0.0424916
0.0424778
0.0424056
0.0423106
0.0422415
0.0421929
0.0421447
0.0420869
0.0420269
0.0419824
0.0419634
0.0419623
0.0419806
0.0420173
0.0420461
0.0420588
0.0420633
0.0420662
0.0420695
0.042072
0.0420723
0.0420702
0.0420642
0.0420538
0.0420396
0.0420225
0.0420041
0.0419853
0.0419667
0.0419488
0.0419319
0.0419166
0.0419036
0.0418933
0.0418859
0.0418813
0.0418799
0.0418816
0.0418862
0.0418936
0.0419036
0.0419161
0.0419312
0.0419489
0.041969
0.0419917
0.0420168
0.0420443
0.042074
0.0421059
0.0421399
0.0421758
0.0422135
0.042253
0.0422943
0.0423372
0.0423817
0.0424278
0.0424751
0.0425234
0.0425724
0.0426222
0.0426726
0.0427235
0.0427744
0.042825
0.0428751
0.0429245
0.042973
0.0430203
0.0430661
0.0431099
0.0431509
0.0431889
0.0432233
0.0432536
0.0432793
0.0432994
0.0433133
0.0433204
0.0433207
0.0433095
0.0432886
0.0432546
0.0432074
0.0431445
0.0430639
0.0429634
0.0428405
0.0426931
0.0425171
0.0423115
0.0420691
0.0417897
0.0414666
0.0411
0.0406785
0.040202
0.0396708
0.0390738
0.038406
0.0376595
0.0368483
0.0359694
0.035004
0.0339534
0.0327983
0.0316071
0.0303608
0.0291609
0.0280661
0.0259194
0.042133
0.042133
0.042133
0.042133
0.0421332
0.0421384
0.0421824
0.042306
0.0424355
0.0424956
0.0424934
0.0424461
0.0423556
0.0422843
0.042236
0.0421924
0.0421403
0.0420825
0.0420336
0.0420061
0.041999
0.0420074
0.0420394
0.0420754
0.0420959
0.0421042
0.0421087
0.0421134
0.0421177
0.0421193
0.0421181
0.0421132
0.042104
0.0420908
0.0420748
0.0420575
0.0420401
0.042023
0.0420066
0.0419912
0.0419774
0.0419657
0.0419568
0.0419506
0.0419475
0.0419471
0.0419503
0.0419562
0.0419651
0.0419767
0.0419909
0.0420079
0.0420274
0.0420496
0.0420743
0.0421016
0.0421314
0.0421635
0.0421979
0.0422345
0.0422731
0.0423138
0.0423563
0.0424006
0.0424468
0.0424948
0.0425445
0.0425957
0.0426481
0.0427016
0.042756
0.0428113
0.0428673
0.0429239
0.0429805
0.043037
0.0430932
0.0431489
0.043204
0.0432581
0.0433108
0.0433615
0.0434099
0.0434554
0.0434977
0.0435362
0.0435705
0.0435998
0.0436228
0.0436392
0.0436481
0.0436493
0.0436385
0.043617
0.0435814
0.043531
0.0434631
0.0433755
0.0432662
0.043132
0.0429713
0.0427778
0.0425515
0.0422845
0.041976
0.0416169
0.041209
0.0407441
0.0402117
0.0396145
0.0389488
0.0382167
0.0373988
0.0364981
0.0355242
0.034448
0.0333514
0.0321271
0.0308364
0.0295943
0.0272103
0.042133
0.042133
0.042133
0.042133
0.0421331
0.0421351
0.0421609
0.0422634
0.0424092
0.0424939
0.0425047
0.0424803
0.0423993
0.0423255
0.0422768
0.0422373
0.0421915
0.0421384
0.0420886
0.0420542
0.0420408
0.0420421
0.0420636
0.042102
0.0421308
0.0421445
0.0421513
0.0421571
0.0421628
0.0421657
0.0421652
0.0421614
0.042153
0.0421407
0.0421256
0.0421094
0.0420933
0.0420778
0.0420629
0.0420491
0.0420367
0.0420264
0.0420188
0.0420139
0.0420121
0.0420132
0.0420177
0.042025
0.0420353
0.0420484
0.0420643
0.0420829
0.0421042
0.0421283
0.0421551
0.0421845
0.0422165
0.0422509
0.0422877
0.0423267
0.042368
0.0424113
0.0424567
0.042504
0.0425533
0.0426045
0.0426575
0.0427123
0.0427686
0.0428262
0.0428849
0.0429448
0.0430056
0.0430673
0.0431295
0.0431919
0.0432544
0.0433169
0.0433791
0.0434408
0.0435018
0.0435616
0.0436196
0.0436756
0.0437291
0.0437797
0.043827
0.0438702
0.043909
0.0439424
0.0439688
0.043988
0.0439989
0.0440013
0.0439911
0.0439685
0.0439305
0.0438756
0.0438019
0.0437067
0.0435877
0.0434396
0.0432613
0.0430449
0.0427899
0.0424884
0.04214
0.0417332
0.0412638
0.0407339
0.0401341
0.039459
0.0386879
0.0378364
0.0369001
0.0358859
0.0347455
0.0335847
0.0322614
0.0311003
0.0289369
0.042133
0.042133
0.042133
0.042133
0.0421331
0.0421338
0.0421473
0.042225
0.0423741
0.0424855
0.0425156
0.0425054
0.0424379
0.0423639
0.0423157
0.0422805
0.0422408
0.0421925
0.0421438
0.0421052
0.0420847
0.0420802
0.0420911
0.0421262
0.0421624
0.0421827
0.0421924
0.0421992
0.0422059
0.0422101
0.0422105
0.0422074
0.0421997
0.0421881
0.042174
0.042159
0.0421442
0.0421302
0.0421169
0.0421046
0.0420937
0.0420849
0.0420786
0.0420751
0.0420745
0.0420774
0.0420831
0.0420919
0.0421036
0.0421183
0.0421357
0.042156
0.0421791
0.0422049
0.0422336
0.042265
0.0422991
0.0423358
0.0423748
0.0424163
0.0424601
0.042506
0.0425541
0.0426042
0.0426564
0.0427107
0.042767
0.0428252
0.0428852
0.0429466
0.0430094
0.0430735
0.0431389
0.0432054
0.0432728
0.0433408
0.0434092
0.0434779
0.0435467
0.0436155
0.0436841
0.0437521
0.043819
0.0438844
0.0439481
0.0440096
0.0440687
0.0441247
0.0441772
0.0442253
0.0442685
0.0443058
0.0443357
0.0443577
0.0443708
0.0443745
0.0443647
0.0443408
0.0443001
0.0442405
0.0441602
0.0440547
0.0439226
0.0437574
0.0435588
0.0433183
0.0430343
0.0426968
0.0423046
0.041852
0.0413253
0.0407229
0.0400347
0.039272
0.0384097
0.0374588
0.036394
0.0352412
0.0338929
0.0325698
0.0301657
0.042133
0.042133
0.042133
0.042133
0.042133
0.0421333
0.0421398
0.0421941
0.0423351
0.0424713
0.0425225
0.0425205
0.0424715
0.0424012
0.0423538
0.0423217
0.0422867
0.0422426
0.0421958
0.0421556
0.0421293
0.0421198
0.0421233
0.0421501
0.0421903
0.0422179
0.0422316
0.0422398
0.042247
0.0422521
0.0422532
0.0422505
0.0422433
0.0422324
0.0422192
0.0422053
0.042192
0.0421794
0.0421678
0.0421572
0.0421479
0.0421406
0.0421357
0.0421337
0.0421346
0.042139
0.0421462
0.0421565
0.0421698
0.042186
0.042205
0.0422268
0.0422516
0.0422792
0.0423097
0.042343
0.0423791
0.0424178
0.0424591
0.0425029
0.042549
0.0425974
0.0426481
0.0427009
0.0427559
0.042813
0.0428723
0.0429337
0.042997
0.0430621
0.0431286
0.0431967
0.0432662
0.0433372
0.0434093
0.0434823
0.0435561
0.0436305
0.0437053
0.0437806
0.0438561
0.0439316
0.0440066
0.0440807
0.0441537
0.0442254
0.0442952
0.0443629
0.0444281
0.04449
0.0445482
0.0446016
0.0446495
0.0446912
0.044725
0.0447501
0.0447654
0.0447701
0.0447602
0.0447344
0.0446906
0.0446256
0.0445377
0.0444213
0.0442756
0.0440915
0.0438679
0.0435953
0.0432721
0.042887
0.0424311
0.0419049
0.0412991
0.0406135
0.0398242
0.0389372
0.0379346
0.0368149
0.0355812
0.0343492
0.0322206
0.042133
0.042133
0.042133
0.042133
0.042133
0.0421331
0.0421361
0.0421716
0.0422967
0.0424517
0.042523
0.0425318
0.0425011
0.0424372
0.0423892
0.042359
0.042328
0.0422878
0.0422436
0.0422041
0.0421747
0.0421607
0.0421594
0.0421762
0.0422163
0.042251
0.0422694
0.0422791
0.0422863
0.0422914
0.0422928
0.0422903
0.0422835
0.0422731
0.0422607
0.042248
0.042236
0.0422251
0.0422152
0.0422063
0.0421987
0.042193
0.0421897
0.0421889
0.0421918
0.0421976
0.0422064
0.0422183
0.0422332
0.042251
0.0422717
0.0422951
0.0423215
0.0423508
0.042383
0.0424181
0.0424561
0.0424969
0.0425403
0.0425862
0.0426346
0.0426854
0.0427385
0.0427938
0.0428514
0.0429113
0.0429735
0.0430378
0.0431043
0.0431727
0.0432428
0.0433145
0.0433879
0.043463
0.0435395
0.0436172
0.0436959
0.0437756
0.0438561
0.0439373
0.0440191
0.0441013
0.0441837
0.0442657
0.0443472
0.0444279
0.0445074
0.0445856
0.0446621
0.0447363
0.0448078
0.0448757
0.0449395
0.0449983
0.0450513
0.0450977
0.0451354
0.0451637
0.045181
0.0451867
0.0451768
0.045149
0.0451012
0.0450285
0.04493
0.0447975
0.0446307
0.0444196
0.0441624
0.0438465
0.0434684
0.0430244
0.0425016
0.0418935
0.0411804
0.0403676
0.0394265
0.0383651
0.0371683
0.0358502
0.0337089
0.042133
0.042133
0.042133
0.042133
0.042133
0.0421331
0.0421344
0.0421566
0.0422621
0.0424278
0.042519
0.0425434
0.0425262
0.0424686
0.0424203
0.042392
0.0423652
0.0423293
0.0422883
0.0422506
0.0422207
0.042203
0.0421979
0.042207
0.0422426
0.0422826
0.042306
0.0423172
0.042324
0.0423284
0.0423296
0.042327
0.0423203
0.0423103
0.0422986
0.0422869
0.0422763
0.0422669
0.0422587
0.0422515
0.0422458
0.0422418
0.04224
0.042241
0.0422455
0.0422529
0.0422635
0.0422771
0.0422937
0.0423132
0.0423355
0.0423606
0.0423886
0.0424195
0.0424534
0.0424903
0.0425302
0.0425728
0.0426182
0.0426663
0.0427168
0.0427698
0.0428252
0.0428829
0.042943
0.0430054
0.0430702
0.0431374
0.0432067
0.0432782
0.0433515
0.0434267
0.0435036
0.0435824
0.0436628
0.0437448
0.043828
0.0439125
0.043998
0.0440845
0.044172
0.0442604
0.0443492
0.0444384
0.0445275
0.0446163
0.0447047
0.0447923
0.0448789
0.0449642
0.0450477
0.0451287
0.0452068
0.0452812
0.0453512
0.0454159
0.0454744
0.0455256
0.0455674
0.0455989
0.0456185
0.0456252
0.0456147
0.0455834
0.04553
0.0454481
0.0453376
0.0451882
0.0449989
0.0447576
0.0444621
0.0441005
0.04366
0.0431352
0.0425142
0.041795
0.0409528
0.0400038
0.0388753
0.037679
0.0357538
0.042133
0.042133
0.042133
0.042133
0.042133
0.042133
0.0421336
0.0421473
0.0422335
0.0424019
0.0425139
0.0425541
0.0425446
0.0424944
0.0424479
0.0424222
0.0423998
0.0423683
0.0423304
0.042295
0.0422659
0.0422459
0.0422379
0.0422419
0.0422705
0.0423133
0.0423415
0.0423544
0.0423606
0.0423638
0.0423642
0.0423612
0.0423542
0.0423444
0.0423333
0.0423225
0.0423129
0.0423049
0.0422983
0.0422929
0.042289
0.0422868
0.0422866
0.0422896
0.0422957
0.0423049
0.0423173
0.0423326
0.042351
0.0423722
0.0423963
0.0424231
0.0424527
0.0424853
0.0425208
0.0425594
0.042601
0.0426455
0.0426928
0.0427428
0.0427954
0.0428506
0.0429081
0.0429681
0.0430305
0.0430953
0.0431626
0.0432323
0.0433043
0.0433786
0.0434549
0.0435332
0.0436134
0.0436956
0.0437797
0.0438655
0.0439529
0.0440417
0.0441318
0.0442232
0.0443159
0.0444097
0.0445045
0.0446
0.0446959
0.0447921
0.0448883
0.0449843
0.04508
0.045175
0.0452691
0.0453617
0.0454523
0.0455404
0.0456254
0.0457065
0.0457831
0.045854
0.0459181
0.0459744
0.0460206
0.0460555
0.0460773
0.0460848
0.0460733
0.0460379
0.0459778
0.0458836
0.0457554
0.0455802
0.0453556
0.0450668
0.0447071
0.044271
0.0437446
0.043113
0.0423512
0.0414433
0.0403628
0.0391405
0.0373762
0.042133
0.042133
0.042133
0.042133
0.042133
0.042133
0.0421333
0.042142
0.0422118
0.0423772
0.0425096
0.0425618
0.0425571
0.0425163
0.042473
0.0424504
0.0424323
0.0424051
0.0423699
0.0423365
0.0423089
0.0422881
0.0422782
0.0422792
0.042301
0.0423439
0.0423764
0.042391
0.0423963
0.0423979
0.042397
0.042393
0.0423856
0.0423759
0.0423652
0.042355
0.0423463
0.0423395
0.0423344
0.0423308
0.0423285
0.0423279
0.0423299
0.0423346
0.0423425
0.0423535
0.0423677
0.0423849
0.0424051
0.0424281
0.0424539
0.0424824
0.0425138
0.042548
0.0425852
0.0426254
0.0426687
0.042715
0.0427641
0.042816
0.0428706
0.0429277
0.0429873
0.0430494
0.0431139
0.043181
0.0432506
0.0433227
0.0433972
0.0434741
0.0435531
0.0436343
0.0437175
0.0438028
0.0438902
0.0439795
0.0440705
0.0441632
0.0442574
0.0443532
0.0444505
0.0445492
0.0446492
0.0447503
0.0448523
0.0449549
0.045058
0.0451615
0.0452652
0.0453688
0.0454722
0.045575
0.0456767
0.0457768
0.045875
0.0459706
0.0460631
0.0461515
0.0462349
0.0463124
0.0463827
0.0464447
0.0464956
0.0465341
0.046558
0.0465656
0.0465513
0.0465091
0.0464388
0.0463282
0.046177
0.0459697
0.0457024
0.0453621
0.0449319
0.0443986
0.0437389
0.0429279
0.041966
0.0407886
0.0392004
0.042133
0.042133
0.042133
0.042133
0.042133
0.042133
0.0421332
0.042139
0.0421965
0.0423565
0.0425054
0.0425675
0.0425665
0.0425347
0.0424958
0.0424768
0.0424627
0.0424394
0.0424064
0.0423746
0.0423488
0.0423287
0.0423182
0.0423175
0.0423345
0.0423756
0.0424109
0.0424264
0.0424304
0.0424301
0.0424275
0.0424222
0.0424144
0.0424047
0.0423944
0.0423847
0.0423769
0.0423711
0.0423674
0.0423653
0.0423647
0.042366
0.0423697
0.0423762
0.0423859
0.0423989
0.0424149
0.042434
0.042456
0.0424808
0.0425084
0.0425386
0.0425717
0.0426075
0.0426464
0.0426883
0.0427332
0.0427812
0.0428321
0.0428858
0.0429421
0.0430011
0.0430627
0.0431267
0.0431933
0.0432625
0.0433342
0.0434085
0.0434853
0.0435646
0.0436462
0.0437299
0.0438159
0.043904
0.0439943
0.0440867
0.0441811
0.0442773
0.0443753
0.0444749
0.0445763
0.0446794
0.044784
0.0448901
0.0449974
0.0451058
0.0452151
0.0453251
0.0454358
0.0455471
0.0456586
0.0457702
0.0458816
0.0459922
0.0461019
0.04621
0.0463162
0.0464198
0.04652
0.046616
0.0467069
0.0467916
0.0468686
0.0469366
0.0469924
0.0470345
0.0470606
0.0470686
0.047052
0.0470027
0.0469192
0.0467873
0.046605
0.0463545
0.0460226
0.0455961
0.0450381
0.0443189
0.0434302
0.0423108
0.0408149
0.042133
0.042133
0.042133
0.042133
0.042133
0.042133
0.0421332
0.0421375
0.0421868
0.0423414
0.0425015
0.0425722
0.0425745
0.0425503
0.0425166
0.0425015
0.0424908
0.0424706
0.0424396
0.0424093
0.0423858
0.0423677
0.0423577
0.0423563
0.0423702
0.0424082
0.0424441
0.0424593
0.0424616
0.0424594
0.0424547
0.0424484
0.0424403
0.0424308
0.0424209
0.0424118
0.0424048
0.0424001
0.0423977
0.042397
0.0423982
0.0424011
0.0424065
0.0424148
0.0424263
0.0424412
0.0424591
0.04248
0.0425038
0.0425305
0.0425598
0.0425918
0.0426265
0.0426641
0.0427046
0.0427481
0.0427946
0.0428442
0.0428968
0.0429522
0.0430104
0.0430711
0.0431345
0.0432004
0.0432689
0.04334
0.0434138
0.0434901
0.0435691
0.0436505
0.0437344
0.0438206
0.043909
0.0439997
0.0440927
0.044188
0.0442853
0.0443846
0.0444859
0.0445891
0.0446941
0.044801
0.0449098
0.0450203
0.0451323
0.0452456
0.0453603
0.0454761
0.0455929
0.0457107
0.0458293
0.0459486
0.0460683
0.046188
0.0463076
0.0464265
0.0465446
0.0466612
0.0467759
0.0468878
0.0469965
0.047101
0.0472001
0.0472929
0.0473771
0.047452
0.0475132
0.0475595
0.0475875
0.0475941
0.0475703
0.0475072
0.0474012
0.0472356
0.047002
0.0466844
0.0462404
0.0456405
0.0448462
0.0438086
0.0424151
0.042133
0.042133
0.042133
0.042133
0.042133
0.042133
0.0421331
0.0421369
0.0421818
0.0423326
0.0425001
0.0425765
0.042582
0.0425638
0.0425358
0.0425246
0.0425166
0.042499
0.0424697
0.0424413
0.0424206
0.0424051
0.0423965
0.0423949
0.0424065
0.0424405
0.0424747
0.0424883
0.0424882
0.0424839
0.0424777
0.0424707
0.0424627
0.0424537
0.0424444
0.0424361
0.04243
0.0424266
0.0424254
0.0424263
0.042429
0.0424335
0.0424406
0.0424507