/*--------------------------------*- C++ -*----------------------------------*\
| =========                 |                                                 |
| \\      /  F ield         | OpenFOAM: The Open Source CFD Toolbox           |
|  \\    /   O peration     | Version:  2406                                  |
|   \\  /    A nd           | Website:  www.openfoam.com                      |
|    \\/     M anipulation  |                                                 |
\*---------------------------------------------------------------------------*/
FoamFile
{
    version     2.0;
    format      ascii;
    arch        "LSB;label=32;scalar=64";
    class       volScalarField;
    location    "0.052";
    object      T;
}
// * * * * * * * * * * * * * * * * * * * * * * * * * * * * * * * * * * * * * //

dimensions      [0 0 0 1 0 0 0];

internalField   nonuniform List<scalar> 
78650
(
241.304
224.796
223.427
223.24
223.045
222.939
222.863
222.81
222.759
222.703
222.625
222.53
222.43
222.328
222.224
222.118
222.01
221.901
221.79
221.676
221.56
221.444
221.334
221.236
221.154
221.091
221.048
221.022
221.009
221.003
221
220.998
220.995
220.989
220.978
220.962
220.943
220.922
220.897
220.87
220.842
220.812
220.781
220.747
220.713
220.676
220.637
220.596
220.551
220.502
220.448
220.39
220.325
220.253
220.172
220.082
219.982
219.871
219.746
219.606
219.452
219.279
219.087
218.874
218.638
218.376
218.088
217.771
217.422
217.041
216.623
216.166
215.668
215.124
214.532
213.891
213.201
212.461
211.67
210.821
209.916
208.953
207.931
206.857
205.73
204.547
203.305
201.99
200.624
199.235
197.814
196.322
194.836
193.425
192.019
190.578
189.168
187.751
186.316
184.949
183.687
182.435
181.215
180.106
179.113
178.149
177.232
176.341
175.519
174.732
173.983
173.255
172.563
171.932
171.375
170.889
170.502
170.207
170.005
169.884
169.313
240.758
224.645
223.49
223.353
223.17
223.066
222.98
222.911
222.848
222.782
222.695
222.594
222.489
222.384
222.281
222.179
222.077
221.973
221.868
221.76
221.651
221.54
221.433
221.335
221.249
221.181
221.133
221.102
221.087
221.084
221.085
221.089
221.095
221.098
221.098
221.093
221.084
221.073
221.058
221.04
221.021
221.001
220.978
220.954
220.929
220.903
220.874
220.843
220.81
220.773
220.732
220.688
220.637
220.581
220.517
220.445
220.364
220.272
220.17
220.054
219.924
219.779
219.616
219.434
219.231
219.005
218.755
218.479
218.175
217.84
217.472
217.066
216.621
216.134
215.603
215.027
214.403
213.729
213.004
212.225
211.395
210.512
209.571
208.577
207.523
206.412
205.239
203.997
202.698
201.358
200.019
198.671
197.281
195.85
194.408
192.991
191.538
190.112
188.753
187.384
186.028
184.735
183.406
182.128
180.947
179.807
178.741
177.711
176.754
175.868
175.034
174.225
173.448
172.723
172.062
171.481
170.982
170.585
170.332
170.222
169.554
240.266
224.452
223.558
223.46
223.304
223.2
223.1
223.014
222.939
222.858
222.763
222.657
222.548
222.441
222.338
222.239
222.143
222.047
221.948
221.846
221.743
221.639
221.537
221.441
221.355
221.284
221.23
221.195
221.176
221.172
221.175
221.183
221.196
221.207
221.215
221.221
221.222
221.221
221.216
221.209
221.2
221.189
221.176
221.161
221.146
221.13
221.112
221.092
221.07
221.045
221.017
220.986
220.95
220.909
220.861
220.806
220.744
220.672
220.59
220.497
220.391
220.271
220.136
219.984
219.812
219.62
219.405
219.167
218.902
218.61
218.286
217.93
217.538
217.106
216.635
216.12
215.561
214.954
214.299
213.593
212.835
212.021
211.151
210.227
209.246
208.215
207.128
205.989
204.799
203.541
202.234
200.889
199.5
198.101
196.624
195.166
193.765
192.319
190.882
189.486
188.09
186.73
185.407
184.11
182.915
181.756
180.674
179.586
178.523
177.488
176.519
175.599
174.74
173.93
173.183
172.505
171.899
171.388
170.995
170.73
169.829
239.816
224.211
223.623
223.562
223.423
223.321
223.213
223.113
223.027
222.934
222.832
222.722
222.61
222.5
222.397
222.302
222.211
222.122
222.031
221.935
221.838
221.74
221.643
221.552
221.469
221.397
221.341
221.301
221.278
221.271
221.273
221.283
221.299
221.316
221.333
221.347
221.358
221.367
221.372
221.375
221.376
221.374
221.371
221.367
221.361
221.355
221.347
221.339
221.328
221.315
221.299
221.281
221.259
221.232
221.2
221.162
221.117
221.065
221.003
220.931
220.849
220.753
220.645
220.521
220.38
220.221
220.041
219.84
219.615
219.365
219.088
218.78
218.44
218.063
217.648
217.194
216.696
216.153
215.564
214.926
214.24
213.503
212.714
211.871
210.971
210.016
208.998
207.926
206.789
205.593
204.33
203.032
201.683
200.324
198.97
197.54
196.099
194.636
193.187
191.741
190.295
188.879
187.501
186.105
184.781
183.515
182.355
181.258
180.184
179.139
178.167
177.259
176.413
175.585
174.784
174.051
173.425
172.914
172.509
172.197
171.228
239.37
224.018
223.661
223.625
223.503
223.408
223.298
223.195
223.098
222.997
222.893
222.786
222.675
222.565
222.461
222.368
222.283
222.201
222.117
222.028
221.937
221.844
221.752
221.666
221.587
221.518
221.462
221.42
221.394
221.384
221.384
221.393
221.411
221.432
221.454
221.476
221.496
221.513
221.529
221.541
221.552
221.561
221.568
221.573
221.578
221.582
221.585
221.587
221.587
221.586
221.583
221.577
221.569
221.557
221.541
221.519
221.491
221.457
221.415
221.364
221.303
221.232
221.149
221.052
220.94
220.811
220.665
220.498
220.311
220.1
219.864
219.601
219.308
218.983
218.623
218.226
217.789
217.312
216.792
216.227
215.614
214.95
214.232
213.461
212.633
211.752
210.814
209.826
208.774
207.671
206.517
205.3
204.046
202.725
201.386
199.976
198.538
197.081
195.615
194.184
192.77
191.354
189.976
188.508
187.058
185.66
184.318
183.049
181.797
180.567
179.394
178.315
177.334
176.413
175.525
174.714
174.028
173.495
173.123
172.896
171.973
238.929
223.898
223.675
223.642
223.532
223.442
223.337
223.232
223.128
223.027
222.929
222.832
222.733
222.63
222.531
222.44
222.359
222.282
222.206
222.125
222.04
221.952
221.865
221.783
221.709
221.645
221.591
221.55
221.523
221.51
221.509
221.516
221.533
221.556
221.582
221.609
221.635
221.661
221.685
221.707
221.728
221.746
221.763
221.779
221.794
221.808
221.822
221.835
221.846
221.857
221.866
221.873
221.877
221.879
221.878
221.872
221.861
221.844
221.821
221.79
221.751
221.703
221.644
221.573
221.489
221.391
221.276
221.144
220.993
220.822
220.627
220.409
220.164
219.889
219.583
219.242
218.865
218.449
217.993
217.492
216.946
216.354
215.713
215.023
214.281
213.485
212.633
211.725
210.751
209.726
208.633
207.486
206.282
205.027
203.722
202.367
200.974
199.57
198.143
196.681
195.23
193.762
192.342
190.922
189.497
188.122
186.792
185.546
184.343
183.135
181.924
180.704
179.548
178.45
177.427
176.462
175.565
174.795
174.22
173.793
172.573
238.476
223.776
223.666
223.642
223.536
223.446
223.339
223.235
223.131
223.03
222.935
222.848
222.762
222.676
222.59
222.51
222.437
222.367
222.298
222.225
222.146
222.063
221.98
221.902
221.833
221.773
221.724
221.687
221.661
221.648
221.647
221.654
221.67
221.693
221.72
221.75
221.782
221.814
221.845
221.876
221.905
221.933
221.96
221.986
222.012
222.036
222.06
222.084
222.107
222.129
222.15
222.17
222.188
222.203
222.216
222.226
222.231
222.232
222.226
222.215
222.197
222.17
222.135
222.089
222.031
221.961
221.877
221.777
221.66
221.524
221.368
221.191
220.989
220.761
220.505
220.217
219.896
219.541
219.148
218.716
218.244
217.725
217.16
216.545
215.878
215.158
214.383
213.552
212.662
211.722
210.717
209.662
208.546
207.384
206.174
204.909
203.589
202.205
200.805
199.341
197.895
196.398
194.924
193.483
192.012
190.55
189.068
187.673
186.368
185.105
183.878
182.653
181.478
180.375
179.395
178.496
177.679
176.95
176.356
175.901
174.697
238.013
223.659
223.645
223.625
223.508
223.413
223.312
223.213
223.112
223.013
222.925
222.844
222.767
222.691
222.619
222.555
222.499
222.444
222.387
222.324
222.253
222.176
222.098
222.024
221.958
221.903
221.858
221.826
221.804
221.794
221.794
221.802
221.818
221.841
221.87
221.902
221.937
221.973
222.01
222.047
222.085
222.122
222.158
222.193
222.228
222.263
222.298
222.332
222.366
222.4
222.432
222.464
222.495
222.524
222.551
222.576
222.596
222.613
222.626
222.633
222.635
222.629
222.616
222.595
222.563
222.52
222.465
222.396
222.312
222.212
222.094
221.957
221.799
221.617
221.41
221.174
220.909
220.611
220.279
219.909
219.5
219.049
218.555
218.016
217.43
216.795
216.109
215.37
214.575
213.724
212.808
211.837
210.801
209.717
208.573
207.372
206.117
204.796
203.445
202.05
200.618
199.161
197.711
196.291
194.803
193.323
191.787
190.288
188.85
187.436
186.045
184.665
183.292
181.98
180.784
179.711
178.786
177.958
177.249
176.735
175.107
237.612
223.636
223.619
223.585
223.44
223.331
223.232
223.141
223.05
222.965
222.889
222.819
222.753
222.685
222.621
222.568
222.525
222.49
222.454
222.41
222.353
222.286
222.214
222.145
222.083
222.032
221.992
221.964
221.947
221.942
221.945
221.958
221.977
222.001
222.031
222.065
222.102
222.142
222.183
222.226
222.27
222.314
222.358
222.403
222.447
222.492
222.536
222.581
222.626
222.671
222.715
222.759
222.803
222.845
222.886
222.925
222.961
222.994
223.024
223.049
223.069
223.084
223.092
223.093
223.085
223.069
223.042
223.001
222.948
222.881
222.798
222.699
222.58
222.44
222.278
222.09
221.876
221.633
221.359
221.052
220.712
220.333
219.913
219.451
218.942
218.383
217.775
217.116
216.402
215.633
214.804
213.922
212.978
211.982
210.921
209.813
208.645
207.423
206.148
204.823
203.432
202.014
200.566
199.149
197.67
196.182
194.709
193.222
191.8
190.409
189.051
187.725
186.374
185.01
183.708
182.45
181.344
180.353
179.493
178.772
176.853
237.3
223.76
223.584
223.524
223.349
223.208
223.096
223.011
222.938
222.872
222.812
222.758
222.708
222.656
222.604
222.56
222.526
222.502
222.483
222.463
222.431
222.382
222.323
222.262
222.205
222.158
222.123
222.101
222.09
222.089
222.099
222.116
222.14
222.168
222.201
222.237
222.277
222.319
222.363
222.41
222.459
222.51
222.561
222.613
222.666
222.72
222.774
222.829
222.884
222.94
222.995
223.051
223.106
223.161
223.216
223.268
223.319
223.368
223.414
223.456
223.495
223.529
223.557
223.579
223.595
223.602
223.602
223.59
223.568
223.533
223.484
223.421
223.34
223.242
223.124
222.984
222.82
222.63
222.412
222.164
221.883
221.566
221.212
220.819
220.384
219.907
219.385
218.816
218.195
217.521
216.792
216.006
215.157
214.251
213.284
212.265
211.18
210.039
208.838
207.579
206.27
204.921
203.52
202.065
200.584
199.086
197.599
196.043
194.524
193.022
191.581
190.181
188.795
187.394
186.031
184.709
183.539
182.553
181.777
181.18
179.684
237.027
223.96
223.563
223.479
223.291
223.129
222.993
222.891
222.816
222.758
222.709
222.665
222.626
222.588
222.553
222.526
222.506
222.492
222.485
222.481
222.471
222.449
222.411
222.365
222.319
222.279
222.25
222.232
222.228
222.232
222.249
222.273
222.303
222.337
222.375
222.415
222.458
222.504
222.552
222.603
222.656
222.711
222.768
222.827
222.888
222.949
223.012
223.076
223.142
223.208
223.274
223.341
223.408
223.476
223.543
223.609
223.674
223.737
223.799
223.858
223.914
223.966
224.014
224.057
224.095
224.125
224.148
224.163
224.168
224.163
224.146
224.116
224.071
224.011
223.933
223.836
223.718
223.578
223.412
223.22
222.999
222.747
222.464
222.144
221.786
221.387
220.944
220.454
219.914
219.324
218.682
217.985
217.228
216.418
215.549
214.626
213.639
212.6
211.497
210.337
209.122
207.853
206.541
205.134
203.717
202.274
200.836
199.29
197.73
196.169
194.635
193.152
191.679
190.185
188.709
187.216
185.808
184.54
183.47
182.6
180.498
236.729
224.236
223.591
223.493
223.305
223.132
222.978
222.859
222.772
222.708
222.652
222.601
222.553
222.51
222.479
222.463
222.46
222.462
222.47
222.477
222.481
222.479
222.468
222.444
222.415
222.387
222.366
222.357
222.358
222.37
222.393
222.425
222.462
222.504
222.548
222.595
222.643
222.693
222.745
222.8
222.857
222.917
222.979
223.044
223.11
223.179
223.25
223.322
223.396
223.472
223.549
223.626
223.704
223.783
223.862
223.942
224.02
224.098
224.174
224.249
224.321
224.391
224.457
224.52
224.578
224.631
224.677
224.717
224.748
224.771
224.784
224.787
224.777
224.754
224.716
224.659
224.586
224.492
224.377
224.238
224.074
223.881
223.659
223.403
223.111
222.784
222.416
222.007
221.556
221.059
220.513
219.915
219.261
218.554
217.789
216.968
216.084
215.14
214.125
213.054
211.924
210.741
209.496
208.195
206.848
205.478
204.079
202.624
201.124
199.618
198.101
196.622
195.168
193.707
192.279
190.808
189.433
188.169
187.077
186.193
184.216
236.316
224.472
223.683
223.557
223.367
223.186
223.016
222.878
222.778
222.706
222.647
222.59
222.532
222.476
222.429
222.403
222.402
222.411
222.433
222.456
222.473
222.486
222.493
222.491
222.483
222.473
222.467
222.467
222.477
222.498
222.529
222.569
222.615
222.664
222.717
222.771
222.826
222.882
222.94
222.999
223.061
223.126
223.193
223.263
223.335
223.41
223.488
223.568
223.65
223.735
223.821
223.908
223.997
224.087
224.177
224.269
224.36
224.451
224.542
224.631
224.719
224.805
224.889
224.97
225.048
225.121
225.19
225.252
225.309
225.358
225.398
225.43
225.451
225.46
225.459
225.441
225.409
225.359
225.29
225.2
225.088
224.952
224.789
224.598
224.376
224.122
223.832
223.503
223.135
222.722
222.262
221.753
221.192
220.578
219.909
219.185
218.398
217.553
216.644
215.683
214.657
213.572
212.421
211.215
209.951
208.629
207.253
205.834
204.34
202.801
201.191
199.615
198.049
196.502
194.961
193.406
191.907
190.511
189.246
188.216
185.778
235.757
224.604
223.884
223.717
223.527
223.329
223.135
222.968
222.841
222.75
222.679
222.613
222.546
222.479
222.419
222.38
222.369
222.375
222.395
222.426
222.455
222.48
222.499
222.515
222.527
222.536
222.547
222.562
222.584
222.615
222.655
222.704
222.758
222.817
222.878
222.94
223.004
223.067
223.132
223.198
223.265
223.335
223.407
223.482
223.56
223.64
223.724
223.811
223.9
223.993
224.087
224.184
224.282
224.382
224.483
224.586
224.689
224.793
224.896
225
225.102
225.204
225.304
225.402
225.498
225.591
225.68
225.765
225.844
225.918
225.985
226.044
226.096
226.137
226.167
226.186
226.193
226.184
226.159
226.117
226.053
225.97
225.863
225.731
225.572
225.383
225.161
224.906
224.614
224.282
223.907
223.49
223.026
222.513
221.948
221.329
220.654
219.925
219.135
218.287
217.369
216.394
215.361
214.274
213.113
211.885
210.607
209.295
207.945
206.516
205.027
203.509
202.011
200.499
198.971
197.438
195.884
194.412
193.016
191.773
189.043
235.073
224.692
224.133
223.932
223.705
223.497
223.301
223.12
222.971
222.859
222.774
222.696
222.613
222.523
222.441
222.385
222.363
222.367
222.382
222.411
222.443
222.474
222.501
222.527
222.553
222.579
222.607
222.638
222.674
222.717
222.768
222.826
222.891
222.959
223.029
223.101
223.173
223.245
223.317
223.39
223.464
223.54
223.618
223.699
223.782
223.869
223.958
224.051
224.148
224.247
224.349
224.454
224.561
224.671
224.782
224.895
225.01
225.125
225.241
225.357
225.474
225.59
225.705
225.82
225.932
226.043
226.151
226.256
226.356
226.453
226.544
226.629
226.707
226.777
226.839
226.89
226.93
226.958
226.973
226.976
226.958
226.924
226.87
226.792
226.692
226.565
226.411
226.227
226.01
225.757
225.468
225.139
224.766
224.347
223.877
223.357
222.786
222.163
221.479
220.734
219.922
219.056
218.131
217.144
216.079
214.947
213.758
212.528
211.252
209.917
208.51
207.029
205.523
203.977
202.439
200.93
199.368
197.944
196.64
195.535
193.118
234.29
224.729
224.262
224.096
223.89
223.694
223.507
223.326
223.163
223.029
222.926
222.835
222.74
222.634
222.527
222.441
222.393
222.383
222.391
222.414
222.443
222.474
222.504
222.536
222.569
222.607
222.649
222.695
222.746
222.803
222.867
222.937
223.012
223.09
223.17
223.252
223.333
223.414
223.495
223.576
223.657
223.74
223.824
223.911
224
224.093
224.188
224.287
224.389
224.495
224.604
224.717
224.832
224.95
225.07
225.193
225.318
225.444
225.571
225.699
225.828
225.958
226.087
226.216
226.344
226.471
226.597
226.72
226.841
226.958
227.071
227.18
227.284
227.381
227.471
227.553
227.627
227.69
227.741
227.78
227.806
227.817
227.812
227.785
227.74
227.672
227.58
227.461
227.313
227.133
226.922
226.674
226.386
226.057
225.683
225.263
224.796
224.279
223.703
223.071
222.38
221.633
220.821
219.948
219.011
218.014
216.951
215.83
214.653
213.421
212.12
210.743
209.294
207.804
206.278
204.796
203.21
201.681
200.156
198.775
195.956
233.487
224.554
224.275
224.168
223.996
223.857
223.706
223.548
223.389
223.247
223.129
223.026
222.922
222.805
222.676
222.56
222.478
222.44
222.435
222.441
222.461
222.486
222.514
222.546
222.583
222.627
222.679
222.739
222.804
222.875
222.952
223.034
223.12
223.209
223.3
223.391
223.482
223.573
223.662
223.751
223.841
223.931
224.023
224.116
224.212
224.31
224.411
224.516
224.624
224.737
224.853
224.972
225.094
225.22
225.349
225.48
225.614
225.75
225.888
226.028
226.168
226.31
226.452
226.595
226.738
226.88
227.021
227.162
227.3
227.437
227.57
227.7
227.827
227.948
228.064
228.174
228.276
228.37
228.456
228.531
228.595
228.645
228.682
228.704
228.71
228.695
228.66
228.602
228.517
228.407
228.268
228.097
227.892
227.651
227.369
227.044
226.675
226.258
225.791
225.273
224.699
224.066
223.37
222.618
221.811
220.943
219.998
218.984
217.906
216.778
215.586
214.333
213.006
211.62
210.186
208.729
207.285
205.904
204.443
203.192
200.736
232.812
224.281
224.163
224.116
223.992
223.888
223.807
223.72
223.605
223.478
223.356
223.243
223.134
223.015
222.878
222.74
222.626
222.554
222.52
222.511
222.514
222.526
222.545
222.571
222.605
222.65
222.707
222.775
222.851
222.935
223.024
223.119
223.217
223.318
223.419
223.521
223.621
223.721
223.819
223.917
224.015
224.113
224.212
224.312
224.414
224.519
224.627
224.737
224.852
224.97
225.092
225.218
225.347
225.48
225.616
225.755
225.898
226.043
226.19
226.339
226.49
226.643
226.797
226.952
227.108
227.264
227.42
227.576
227.73
227.884
228.036
228.186
228.333
228.476
228.616
228.751
228.88
229.003
229.119
229.226
229.325
229.413
229.49
229.553
229.603
229.636
229.652
229.654
229.627
229.582
229.51
229.41
229.281
229.119
228.922
228.687
228.41
228.091
227.726
227.315
226.849
226.328
225.748
225.113
224.42
223.665
222.839
221.944
220.985
219.972
218.9
217.773
216.57
215.302
213.951
212.558
211.121
209.735
208.256
206.882
204.36
232.385
223.97
223.887
223.942
223.909
223.851
223.814
223.79
223.75
223.676
223.574
223.459
223.346
223.229
223.096
222.953
222.82
222.719
222.655
222.62
222.603
222.599
222.603
222.618
222.644
222.684
222.741
222.814
222.897
222.989
223.09
223.195
223.305
223.416
223.528
223.64
223.75
223.859
223.967
224.073
224.179
224.284
224.391
224.498
224.607
224.718
224.832
224.949
225.069
225.193
225.321
225.453
225.589
225.728
225.871
226.018
226.168
226.321
226.477
226.635
226.796
226.959
227.123
227.29
227.457
227.626
227.795
227.965
228.134
228.303
228.472
228.639
228.805
228.968
229.129
229.286
229.439
229.587
229.73
229.866
229.995
230.117
230.229
230.331
230.421
230.499
230.561
230.608
230.638
230.65
230.64
230.605
230.546
230.458
230.34
230.189
230.002
229.777
229.512
229.203
228.846
228.439
227.979
227.465
226.891
226.26
225.569
224.816
223.999
223.118
222.177
221.175
220.102
218.968
217.76
216.51
215.206
213.91
212.588
211.324
209.113
232.243
223.768
223.56
223.642
223.692
223.739
223.765
223.79
223.805
223.802
223.751
223.656
223.545
223.431
223.307
223.17
223.031
222.911
222.823
222.764
222.726
222.703
222.692
222.695
222.707
222.736
222.788
222.861
222.947
223.045
223.153
223.268
223.386
223.508
223.629
223.751
223.871
223.989
224.105
224.219
224.333
224.446
224.559
224.674
224.789
224.907
225.027
225.15
225.276
225.406
225.54
225.677
225.819
225.964
226.114
226.267
226.424
226.584
226.748
226.915
227.084
227.256
227.43
227.606
227.784
227.963
228.144
228.326
228.509
228.692
228.875
229.058
229.24
229.421
229.6
229.777
229.951
230.122
230.289
230.451
230.608
230.758
230.902
231.038
231.164
231.281
231.385
231.478
231.555
231.616
231.66
231.685
231.692
231.671
231.628
231.555
231.449
231.311
231.136
230.922
230.665
230.364
230.013
229.61
229.151
228.639
228.069
227.44
226.743
225.977
225.147
224.251
223.294
222.271
221.173
220.018
218.79
217.559
216.25
214.966
212.939
232.307
223.707
223.294
223.319
223.39
223.518
223.644
223.753
223.82
223.862
223.871
223.82
223.723
223.611
223.495
223.37
223.237
223.111
223.007
222.929
222.873
222.832
222.805
222.794
222.797
222.812
222.854
222.922
223.007
223.106
223.219
223.34
223.466
223.595
223.725
223.855
223.984
224.11
224.234
224.356
224.477
224.598
224.718
224.839
224.961
225.085
225.211
225.34
225.472
225.608
225.747
225.89
226.037
226.188
226.344
226.503
226.666
226.833
227.003
227.177
227.354
227.534
227.716
227.901
228.089
228.278
228.47
228.663
228.857
229.052
229.248
229.445
229.641
229.837
230.033
230.228
230.42
230.611
230.799
230.983
231.164
231.34
231.512
231.677
231.835
231.985
232.126
232.257
232.377
232.485
232.578
232.655
232.715
232.755
232.775
232.775
232.741
232.684
232.593
232.469
232.31
232.111
231.868
231.579
231.241
230.852
230.405
229.903
229.337
228.709
228.016
227.259
226.443
225.558
224.615
223.61
222.551
221.457
220.302
219.077
217.274
232.441
223.628
223.134
223.053
223.071
223.208
223.422
223.638
223.791
223.886
223.934
223.934
223.872
223.768
223.657
223.544
223.423
223.3
223.189
223.099
223.029
222.976
222.936
222.912
222.905
222.91
222.939
222.999
223.08
223.178
223.291
223.416
223.547
223.682
223.819
223.956
224.091
224.225
224.356
224.486
224.614
224.741
224.868
224.995
225.123
225.253
225.385
225.519
225.657
225.798
225.942
226.091
226.243
226.4
226.56
226.725
226.894
227.067
227.243
227.424
227.607
227.794
227.984
228.177
228.372
228.571
228.771
228.973
229.178
229.384
229.591
229.799
230.009
230.218
230.428
230.638
230.846
231.054
231.26
231.464
231.666
231.864
232.059
232.249
232.435
232.615
232.788
232.953
233.109
233.256
233.392
233.515
233.625
233.719
233.795
233.854
233.891
233.907
233.897
233.855
233.786
233.679
233.536
233.351
233.122
232.843
232.511
232.128
231.684
231.183
230.615
229.983
229.283
228.513
227.681
226.775
225.819
224.811
223.764
222.605
220.99
232.594
223.658
223.051
222.873
222.818
222.897
223.122
223.427
223.699
223.869
223.961
223.997
223.975
223.899
223.798
223.694
223.586
223.47
223.358
223.261
223.184
223.123
223.074
223.041
223.026
223.026
223.042
223.092
223.169
223.261
223.373
223.498
223.633
223.772
223.913
224.055
224.196
224.336
224.473
224.609
224.743
224.876
225.009
225.142
225.275
225.411
225.548
225.688
225.831
225.977
226.126
226.279
226.437
226.598
226.764
226.933
227.107
227.286
227.468
227.654
227.843
228.036
228.233
228.432
228.635
228.841
229.049
229.26
229.473
229.688
229.905
230.124
230.344
230.565
230.787
231.01
231.232
231.455
231.676
231.897
232.116
232.333
232.549
232.761
232.97
233.174
233.374
233.568
233.756
233.936
234.108
234.271
234.423
234.563
234.69
234.802
234.897
234.973
235.029
235.061
235.07
235.047
234.994
234.906
234.779
234.611
234.396
234.135
233.818
233.447
233.011
232.513
231.944
231.31
230.608
229.835
229.011
228.126
227.201
226.153
224.702
232.727
223.686
223.012
222.773
222.642
222.661
222.814
223.139
223.515
223.804
223.956
224.024
224.036
223.998
223.917
223.824
223.727
223.62
223.51
223.41
223.328
223.264
223.212
223.174
223.153
223.149
223.158
223.199
223.269
223.357
223.464
223.589
223.724
223.865
224.009
224.155
224.3
224.444
224.586
224.727
224.866
225.004
225.142
225.28
225.419
225.559
225.702
225.846
225.994
226.145
226.299
226.457
226.619
226.784
226.955
227.129
227.308
227.491
227.678
227.868
228.063
228.262
228.464
228.67
228.878
229.091
229.306
229.524
229.744
229.967
230.193
230.42
230.65
230.88
231.113
231.346
231.581
231.815
232.05
232.284
232.519
232.752
232.984
233.214
233.443
233.668
233.891
234.109
234.323
234.532
234.734
234.93
235.118
235.297
235.466
235.623
235.769
235.899
236.014
236.11
236.187
236.242
236.272
236.279
236.248
236.189
236.088
235.945
235.755
235.515
235.216
234.859
234.43
233.936
233.362
232.714
231.996
231.204
230.366
229.401
228.067
232.835
223.71
222.992
222.722
222.534
222.489
222.56
222.828
223.254
223.659
223.912
224.027
224.066
224.061
224.014
223.935
223.848
223.749
223.642
223.542
223.458
223.394
223.343
223.305
223.282
223.275
223.281
223.316
223.38
223.462
223.565
223.687
223.821
223.963
224.108
224.255
224.403
224.55
224.696
224.841
224.984
225.127
225.269
225.411
225.555
225.699
225.846
225.995
226.147
226.302
226.461
226.623
226.789
226.959
227.133
227.311
227.494
227.681
227.873
228.068
228.268
228.471
228.678
228.889
229.103
229.321
229.542
229.766
229.993
230.223
230.455
230.69
230.927
231.166
231.407
231.65
231.894
232.139
232.385
232.631
232.878
233.124
233.37
233.616
233.86
234.103
234.344
234.583
234.818
235.05
235.278
235.501
235.718
235.929
236.133
236.328
236.514
236.69
236.854
237.005
237.141
237.26
237.358
237.436
237.488
237.515
237.516
237.469
237.393
237.27
237.097
236.873
236.585
236.239
235.814
235.325
234.749
234.093
233.365
232.497
231.283
232.933
223.693
222.966
222.695
222.467
222.371
222.392
222.558
222.954
223.443
223.816
224.005
224.078
224.098
224.082
224.027
223.951
223.86
223.757
223.657
223.574
223.512
223.464
223.428
223.406
223.398
223.404
223.437
223.496
223.574
223.674
223.793
223.925
224.065
224.21
224.358
224.507
224.655
224.804
224.951
225.098
225.244
225.39
225.536
225.684
225.832
225.983
226.136
226.291
226.45
226.613
226.779
226.948
227.122
227.3
227.482
227.669
227.86
228.055
228.255
228.458
228.665
228.877
229.092
229.311
229.533
229.759
229.989
230.221
230.457
230.695
230.937
231.18
231.426
231.675
231.925
232.177
232.431
232.686
232.942
233.199
233.456
233.714
233.972
234.23
234.487
234.743
234.998
235.251
235.502
235.75
235.995
236.236
236.473
236.705
236.931
237.151
237.363
237.567
237.761
237.945
238.116
238.274
238.415
238.54
238.642
238.726
238.781
238.811
238.813
238.764
238.685
238.548
238.357
238.099
237.778
237.364
236.871
236.259
235.51
234.404
233.012
223.665
222.938
222.673
222.433
222.301
222.282
222.357
222.668
223.185
223.666
223.947
224.069
224.115
224.126
224.1
224.038
223.953
223.854
223.755
223.674
223.616
223.573
223.541
223.522
223.517
223.524
223.558
223.613
223.689
223.786
223.903
224.032
224.171
224.315
224.462
224.611
224.76
224.909
225.059
225.208
225.357
225.506
225.655
225.806
225.958
226.111
226.268
226.427
226.59
226.755
226.925
227.098
227.275
227.457
227.642
227.832
228.027
228.225
228.428
228.635
228.847
229.062
229.281
229.504
229.73
229.961
230.195
230.432
230.673
230.916
231.163
231.412
231.664
231.919
232.176
232.435
232.696
232.959
233.223
233.488
233.754
234.022
234.29
234.558
234.827
235.096
235.364
235.631
235.897
236.162
236.424
236.685
236.942
237.196
237.447
237.693
237.934
238.17
238.399
238.62
238.833
239.037
239.23
239.411
239.578
239.729
239.862
239.971
240.06
240.118
240.149
240.147
240.087
239.996
239.847
239.631
239.353
238.935
238.43
237.575
233.066
223.62
222.909
222.659
222.413
222.261
222.204
222.231
222.436
222.918
223.477
223.858
224.045
224.124
224.157
224.151
224.107
224.029
223.934
223.839
223.762
223.707
223.67
223.644
223.628
223.628
223.64
223.676
223.73
223.805
223.901
224.015
224.143
224.28
224.422
224.567
224.715
224.864
225.014
225.164
225.314
225.465
225.616
225.768
225.922
226.076
226.233
226.393
226.555
226.72
226.889
227.062
227.238
227.419
227.603
227.792
227.985
228.183
228.384
228.591
228.801
229.015
229.234
229.456
229.683
229.913
230.148
230.385
230.627
230.872
231.12
231.371
231.625
231.882
232.142
232.405
232.67
232.937
233.206
233.477
233.75
234.024
234.299
234.576
234.853
235.132
235.41
235.689
235.968
236.247
236.524
236.801
237.077
237.351
237.623
237.892
238.159
238.423
238.683
238.939
239.19
239.435
239.674
239.905
240.128
240.342
240.545
240.736
240.913
241.075
241.219
241.341
241.443
241.51
241.551
241.559
241.517
241.439
241.257
241.037
240.543
233.1
223.571
222.872
222.641
222.398
222.233
222.153
222.161
222.268
222.671
223.27
223.748
224.008
224.124
224.175
224.185
224.158
224.09
224.001
223.91
223.837
223.788
223.756
223.736
223.726
223.729
223.749
223.789
223.844
223.92
224.015
224.128
224.254
224.388
224.528
224.672
224.818
224.966
225.116
225.266
225.417
225.57
225.723
225.877
226.032
226.189
226.349
226.511
226.676
226.844
227.016
227.191
227.37
227.554
227.741
227.933
228.129
228.329
228.534
228.743
228.956
229.173
229.395
229.621
229.85
230.084
230.322
230.563
230.809
231.057
231.309
231.565
231.824
232.085
232.35
232.617
232.887
233.16
233.435
233.712
233.99
234.271
234.553
234.837
235.122
235.408
235.695
235.983
236.271
236.56
236.848
237.136
237.424
237.711
237.997
238.281
238.564
238.845
239.124
239.4
239.672
239.941
240.206
240.465
240.72
240.968
241.209
241.442
241.667
241.881
242.084
242.275
242.449
242.605
242.738
242.851
242.949
243.028
243.064
243.043
242.934
233.122
223.525
222.825
222.615
222.381
222.213
222.12
222.106
222.155
222.469
223.071
223.63
223.962
224.117
224.184
224.207
224.193
224.138
224.055
223.969
223.901
223.857
223.831
223.817
223.815
223.823
223.851
223.895
223.954
224.032
224.128
224.239
224.363
224.496
224.634
224.775
224.919
225.066
225.215
225.365
225.516
225.669
225.824
225.979
226.137
226.296
226.457
226.622
226.789
226.96
227.134
227.312
227.494
227.68
227.87
228.064
228.263
228.466
228.673
228.884
229.1
229.32
229.545
229.773
230.006
230.243
230.484
230.728
230.977
231.229
231.485
231.744
232.007
232.272
232.541
232.813
233.088
233.365
233.645
233.927
234.211
234.497
234.785
235.075
235.366
235.659
235.953
236.249
236.545
236.841
237.138
237.435
237.732
238.029
238.326
238.621
238.916
239.209
239.501
239.791
240.079
240.364
240.647
240.925
241.2
241.47
241.736
241.996
242.249
242.494
242.732
242.961
243.178
243.383
243.571
243.744
243.902
244.048
244.183
244.268
244.347
233.117
223.46
222.766
222.579
222.358
222.193
222.089
222.055
222.08
222.317
222.896
223.515
223.911
224.105
224.188
224.218
224.212
224.171
224.097
224.017
223.956
223.918
223.899
223.891
223.894
223.912
223.946
223.995
224.058
224.139
224.236
224.347
224.47
224.6
224.736
224.875
225.018
225.163
225.31
225.46
225.612
225.765
225.92
226.077
226.236
226.397
226.56
226.727
226.896
227.069
227.245
227.425
227.609
227.798
227.99
228.187
228.388
228.593
228.803
229.017
229.235