/*--------------------------------*- C++ -*----------------------------------*\
| =========                 |                                                 |
| \\      /  F ield         | OpenFOAM: The Open Source CFD Toolbox           |
|  \\    /   O peration     | Version:  2412                                  |
|   \\  /    A nd           | Website:  www.openfoam.com                      |
|    \\/     M anipulation  |                                                 |
\*---------------------------------------------------------------------------*/
FoamFile
{
    version     2.0;
    format      ascii;
    arch        "LSB;label=32;scalar=64";
    class       volVectorField;
    location    "0.069";
    object      U;
}
// * * * * * * * * * * * * * * * * * * * * * * * * * * * * * * * * * * * * * //

dimensions      [0 1 -1 0 0 0 0];

internalField   nonuniform List<vector> 
9857
(
(209.504 -0.171433 0)
(208.853 -0.355645 0)
(208.401 -0.697683 0)
(209.429 -0.220149 0)
(208.866 -0.422355 0)
(208.577 -0.782324 0)
(208.563 -1.17044 0)
(208.864 -1.45855 0)
(209.426 -1.63326 0)
(210.03 -1.76045 0)
(210.593 -1.87399 0)
(211.108 -1.98106 0)
(211.571 -2.06819 0)
(211.946 -2.14042 0)
(212.203 -2.21081 0)
(212.348 -2.27857 0)
(212.422 -2.34271 0)
(212.447 -2.39836 0)
(212.439 -2.44037 0)
(212.405 -2.46424 0)
(212.349 -2.47045 0)
(212.275 -2.4602 0)
(212.19 -2.43333 0)
(212.101 -2.3909 0)
(212.012 -2.33412 0)
(211.915 -2.26725 0)
(211.805 -2.19486 0)
(211.678 -2.11327 0)
(209.373 -0.277216 0)
(208.944 -0.525555 0)
(208.786 -0.895472 0)
(208.83 -1.28738 0)
(209.188 -1.56977 0)
(209.755 -1.73521 0)
(210.338 -1.85577 0)
(210.877 -1.96393 0)
(211.367 -2.06685 0)
(211.803 -2.1505 0)
(212.145 -2.22473 0)
(212.366 -2.29751 0)
(212.485 -2.36718 0)
(212.537 -2.43184 0)
(212.545 -2.48741 0)
(212.521 -2.52953 0)
(212.471 -2.55446 0)
(212.399 -2.56251 0)
(212.312 -2.55349 0)
(212.221 -2.52712 0)
(212.131 -2.48475 0)
(212.039 -2.42896 0)
(211.939 -2.36265 0)
(211.819 -2.29365 0)
(211.686 -2.21179 0)
(209.376 -0.345135 0)
(209.115 -0.650448 0)
(209.066 -1.04123 0)
(209.171 -1.42239 0)
(209.566 -1.68511 0)
(210.125 -1.84388 0)
(210.681 -1.96324 0)
(211.191 -2.06782 0)
(211.65 -2.16485 0)
(212.048 -2.24554 0)
(212.35 -2.31996 0)
(212.534 -2.39284 0)
(212.627 -2.46312 0)
(212.657 -2.52814 0)
(212.648 -2.58398 0)
(212.612 -2.62649 0)
(212.552 -2.65279 0)
(212.473 -2.6631 0)
(212.378 -2.65664 0)
(212.278 -2.63284 0)
(212.178 -2.59283 0)
(212.077 -2.53869 0)
(211.969 -2.47566 0)
(211.844 -2.40665 0)
(211.697 -2.32768 0)
(209.476 -0.376359 0)
(209.41 -0.751912 0)
(209.402 -1.20094 0)
(209.567 -1.56691 0)
(209.989 -1.80431 0)
(210.528 -1.95561 0)
(211.053 -2.0729 0)
(211.533 -2.17119 0)
(211.957 -2.25993 0)
(212.31 -2.33697 0)
(212.563 -2.4127 0)
(212.709 -2.48707 0)
(212.774 -2.55943 0)
(212.781 -2.6271 0)
(212.751 -2.68661 0)
(212.695 -2.73328 0)
(212.618 -2.76356 0)
(212.527 -2.77721 0)
(212.428 -2.77328 0)
(212.327 -2.75157 0)
(212.225 -2.71408 0)
(212.121 -2.66134 0)
(212.001 -2.60413 0)
(211.87 -2.53335 0)
(211.709 -2.46041 0)
(209.738 -0.510378 0)
(209.725 -0.879685 0)
(209.752 -1.33272 0)
(209.969 -1.67935 0)
(210.404 -1.90284 0)
(210.916 -2.0521 0)
(211.408 -2.16695 0)
(211.853 -2.2597 0)
(212.238 -2.34048 0)
(212.548 -2.41396 0)
(212.756 -2.49 0)
(212.868 -2.56629 0)
(212.909 -2.64115 0)
(212.901 -2.71141 0)
(212.861 -2.77403 0)
(212.795 -2.82472 0)
(212.708 -2.86095 0)
(212.605 -2.88221 0)
(212.494 -2.8846 0)
(212.384 -2.868 0)
(212.277 -2.83397 0)
(212.167 -2.78425 0)
(212.04 -2.73015 0)
(211.899 -2.66077 0)
(211.721 -2.59383 0)
(210.168 -0.571869 0)
(210.052 -0.982997 0)
(210.113 -1.43987 0)
(210.367 -1.77727 0)
(210.805 -1.98951 0)
(211.29 -2.13594 0)
(211.746 -2.24768 0)
(212.153 -2.33782 0)
(212.498 -2.41461 0)
(212.762 -2.4881 0)
(212.928 -2.56566 0)
(213.009 -2.64566 0)
(213.025 -2.7258 0)
(212.996 -2.80147 0)
(212.941 -2.86845 0)
(212.867 -2.92234 0)
(212.776 -2.9626 0)
(212.67 -2.98826 0)
(212.556 -2.99416 0)
(212.442 -2.98257 0)
(212.328 -2.9518 0)
(212.21 -2.90819 0)
(212.079 -2.85314 0)
(211.926 -2.78862 0)
(211.734 -2.72739 0)
(210.729 -0.56641 0)
(210.394 -1.10098 0)
(210.482 -1.54346 0)
(210.757 -1.87384 0)
(211.189 -2.07746 0)
(211.645 -2.22307 0)
(212.068 -2.33377 0)
(212.437 -2.42222 0)
(212.744 -2.49573 0)
(212.965 -2.56754 0)
(213.1 -2.64314 0)
(213.158 -2.72205 0)
(213.158 -2.80288 0)
(213.117 -2.88182 0)
(213.048 -2.95471 0)
(212.96 -3.01583 0)
(212.857 -3.06407 0)
(212.744 -3.09468 0)
(212.627 -3.10369 0)
(212.509 -3.0961 0)
(212.39 -3.06788 0)
(212.258 -3.03203 0)
(212.12 -2.97415 0)
(211.952 -2.9176 0)
(211.747 -2.86071 0)
(211.506 -2.79847 0)
(211.394 -0.51491 0)
(210.792 -1.21099 0)
(210.869 -1.64464 0)
(211.148 -1.96335 0)
(211.567 -2.16258 0)
(211.996 -2.30842 0)
(212.39 -2.41957 0)
(212.728 -2.50803 0)
(212.996 -2.58367 0)
(213.176 -2.6587 0)
(213.274 -2.73688 0)
(213.305 -2.81775 0)
(213.286 -2.89978 0)
(213.231 -2.97961 0)
(213.153 -3.05389 0)
(213.055 -3.11849 0)
(212.941 -3.17191 0)
(212.819 -3.20494 0)
(212.696 -3.21685 0)
(212.574 -3.21168 0)
(212.45 -3.18581 0)
(212.311 -3.15297 0)
(212.163 -3.09637 0)
(211.979 -3.04692 0)
(211.761 -2.99365 0)
(211.506 -2.93576 0)
(212.142 -0.410629 0)
(211.261 -1.31767 0)
(211.274 -1.7466 0)
(211.543 -2.0553 0)
(211.943 -2.25068 0)
(212.348 -2.39946 0)
(212.714 -2.5182 0)
(213.018 -2.61404 0)
(213.247 -2.69495 0)
(213.391 -2.77216 0)
(213.461 -2.85042 0)
(213.469 -2.93037 0)
(213.431 -3.01122 0)
(213.363 -3.09004 0)
(213.274 -3.16392 0)
(213.167 -3.23003 0)
(213.043 -3.28492 0)
(212.91 -3.31769 0)
(212.777 -3.33281 0)
(212.647 -3.329 0)
(212.515 -3.30677 0)
(212.369 -3.27185 0)
(212.206 -3.22044 0)
(212.007 -3.17629 0)
(211.774 -3.12628 0)
(211.507 -3.07266 0)
(211.206 -3.01292 0)
(212.957 -0.224129 0)
(211.796 -1.41656 0)
(211.702 -1.83735 0)
(211.945 -2.14296 0)
(212.322 -2.34276 0)
(212.703 -2.49823 0)
(213.042 -2.62375 0)
(213.316 -2.72497 0)
(213.512 -2.81157 0)
(213.624 -2.893 0)
(213.665 -2.97364 0)
(213.648 -3.05455 0)
(213.59 -3.13562 0)
(213.505 -3.21446 0)
(213.402 -3.28828 0)
(213.281 -3.35535 0)
(213.145 -3.40756 0)
(213.002 -3.43754 0)
(212.862 -3.45372 0)
(212.724 -3.44906 0)
(212.58 -3.43029 0)
(212.428 -3.39071 0)
(212.25 -3.34677 0)
(212.036 -3.30531 0)
(211.789 -3.25866 0)
(211.507 -3.2092 0)
(211.193 -3.1536 0)
(213.849 0.0672919 0)
(212.361 -1.54663 0)
(212.136 -1.94216 0)
(212.347 -2.23667 0)
(212.701 -2.43719 0)
(213.056 -2.59958 0)
(213.364 -2.73499 0)
(213.603 -2.84599 0)
(213.766 -2.94055 0)
(213.852 -3.02717 0)
(213.872 -3.10997 0)
(213.839 -3.19055 0)
(213.768 -3.27004 0)
(213.67 -3.34734 0)
(213.552 -3.4204 0)
(213.414 -3.48685 0)
(213.261 -3.53482 0)
(213.107 -3.56151 0)
(212.955 -3.5787 0)
(212.807 -3.57268 0)
(212.653 -3.55274 0)
(212.488 -3.51375 0)
(212.293 -3.47436 0)
(212.066 -3.43411 0)
(211.805 -3.39089 0)
(211.509 -3.34541 0)
(211.182 -3.29408 0)
(210.818 -3.23507 0)
(214.846 0.441636 0)
(212.947 -1.67986 0)
(212.579 -2.04594 0)
(212.75 -2.32917 0)
(213.079 -2.52891 0)
(213.406 -2.69576 0)
(213.681 -2.8386 0)
(213.888 -2.95949 0)
(214.021 -3.06568 0)
(214.08 -3.16322 0)
(214.077 -3.25386 0)
(214.025 -3.33848 0)
(213.94 -3.41983 0)
(213.833 -3.4936 0)
(213.7 -3.56636 0)
(213.544 -3.62854 0)
(213.378 -3.66927 0)
(213.213 -3.69305 0)
(213.052 -3.70672 0)
(212.893 -3.69945 0)
(212.728 -3.6763 0)
(212.547 -3.63949 0)
(212.338 -3.60251 0)
(212.097 -3.56326 0)
(211.821 -3.52315 0)
(211.511 -3.48119 0)
(211.169 -3.43389 0)
(210.787 -3.37982 0)
(215.922 0.908707 0)
(213.556 -1.81305 0)
(213.041 -2.15051 0)
(213.151 -2.42046 0)
(213.448 -2.61726 0)
(213.744 -2.78735 0)
(213.986 -2.93759 0)
(214.164 -3.06845 0)
(214.276 -3.18548 0)
(214.319 -3.29356 0)
(214.3 -3.39272 0)
(214.233 -3.48447 0)
(214.136 -3.56712 0)
(214.011 -3.64396 0)
(213.859 -3.71547 0)
(213.686 -3.77285 0)
(213.505 -3.80704 0)
(213.327 -3.82869 0)
(213.154 -3.83793 0)
(212.982 -3.82767 0)
(212.803 -3.80194 0)
(212.606 -3.76698 0)
(212.383 -3.73103 0)
(212.127 -3.693 0)
(211.838 -3.65555 0)
(211.515 -3.61686 0)
(211.158 -3.57377 0)
(210.759 -3.52527 0)
(210.294 -3.47824 0)
(209.735 -3.44652 0)
(209.054 -3.44967 0)
(208.239 -3.50523 0)
(207.304 -3.62378 0)
(206.293 -3.79529 0)
(205.262 -3.99152 0)
(204.259 -4.17949 0)
(203.313 -4.3391 0)
(202.435 -4.46015 0)
(201.626 -4.53712 0)
(200.875 -4.56892 0)
(200.165 -4.56138 0)
(199.481 -4.52401 0)
(198.811 -4.46559 0)
(198.152 -4.39154 0)
(197.499 -4.3048 0)
(196.85 -4.20781 0)
(196.201 -4.10326 0)
(195.549 -3.99372 0)
(194.89 -3.88132 0)
(194.221 -3.76799 0)
(193.541 -3.65555 0)
(192.846 -3.5457 0)
(192.137 -3.43995 0)
(191.41 -3.33971 0)
(190.664 -3.24624 0)
(189.9 -3.16074 0)
(189.116 -3.08434 0)
(188.31 -3.01816 0)
(187.482 -2.96334 0)
(186.63 -2.92099 0)
(217.07 1.46405 0)
(214.188 -1.94137 0)
(213.522 -2.26328 0)
(213.541 -2.51689 0)
(213.802 -2.71052 0)
(214.065 -2.88231 0)
(214.276 -3.03962 0)
(214.428 -3.18225 0)
(214.519 -3.3124 0)
(214.547 -3.43181 0)
(214.514 -3.53962 0)
(214.435 -3.63771 0)
(214.325 -3.72145 0)
(214.179 -3.80076 0)
(214.009 -3.87067 0)
(213.822 -3.92232 0)
(213.63 -3.9497 0)
(213.44 -3.96815 0)
(213.257 -3.97154 0)
(213.073 -3.95736 0)
(212.88 -3.92959 0)
(212.667 -3.8955 0)
(212.428 -3.86002 0)
(212.158 -3.82332 0)
(211.854 -3.78802 0)
(211.517 -3.75215 0)
(211.144 -3.71297 0)
(210.724 -3.67012 0)
(210.233 -3.63113 0)
(209.643 -3.61011 0)
(208.929 -3.62569 0)
(208.086 -3.69291 0)
(207.136 -3.81979 0)
(206.121 -3.99502 0)
(205.097 -4.19115 0)
(204.106 -4.37656 0)
(203.173 -4.53214 0)
(202.308 -4.64888 0)
(201.508 -4.72253 0)
(200.762 -4.75272 0)
(200.054 -4.7453 0)
(199.37 -4.70939 0)
(198.701 -4.65323 0)
(198.042 -4.58189 0)
(197.39 -4.49828 0)
(196.742 -4.40495 0)
(196.095 -4.30467 0)
(195.443 -4.19998 0)
(194.785 -4.09303 0)
(194.117 -3.98575 0)
(193.438 -3.88 0)
(192.745 -3.77751 0)
(192.038 -3.67982 0)
(191.314 -3.5883 0)
(190.573 -3.50412 0)
(189.812 -3.42835 0)
(189.031 -3.36212 0)
(188.229 -3.30672 0)
(187.404 -3.26341 0)
(186.557 -3.23338 0)
(218.276 2.10781 0)
(214.837 -2.06344 0)
(214.024 -2.38157 0)
(213.93 -2.6054 0)
(214.15 -2.79378 0)
(214.385 -2.96496 0)
(214.573 -3.12803 0)
(214.705 -3.28312 0)
(214.777 -3.42938 0)
(214.788 -3.56376 0)
(214.743 -3.68281 0)
(214.654 -3.78398 0)
(214.525 -3.87269 0)
(214.358 -3.9544 0)
(214.17 -4.02406 0)
(213.966 -4.07108 0)
(213.76 -4.09367 0)
(213.557 -4.10894 0)
(213.361 -4.10635 0)
(213.164 -4.08831 0)
(212.956 -4.0589 0)
(212.728 -4.02481 0)
(212.473 -3.98963 0)
(212.188 -3.9541 0)
(211.872 -3.92062 0)
(211.521 -3.88751 0)
(211.132 -3.85259 0)
(210.691 -3.81609 0)
(210.173 -3.78607 0)
(209.55 -3.77643 0)
(208.804 -3.80448 0)
(207.936 -3.88272 0)
(206.972 -4.01684 0)
(205.956 -4.19455 0)
(204.938 -4.38935 0)
(203.957 -4.57098 0)
(203.034 -4.72143 0)
(202.178 -4.83295 0)
(201.384 -4.90252 0)
(200.641 -4.93051 0)
(199.934 -4.92278 0)
(199.25 -4.88797 0)
(198.582 -4.83376 0)
(197.924 -4.76492 0)
(197.273 -4.68434 0)
(196.626 -4.59462 0)
(195.98 -4.49856 0)
(195.33 -4.39872 0)
(194.672 -4.29719 0)
(194.005 -4.19594 0)
(193.327 -4.09677 0)
(192.635 -4.00138 0)
(191.928 -3.91127 0)
(191.206 -3.82788 0)
(190.466 -3.75251 0)
(189.708 -3.68639 0)
(188.932 -3.63068 0)
(188.134 -3.58659 0)
(187.315 -3.55527 0)
(186.474 -3.53779 0)
(219.533 2.83766 0)
(215.504 -2.16893 0)
(214.542 -2.50396 0)
(214.316 -2.69751 0)
(214.484 -2.88945 0)
(214.693 -3.06343 0)
(214.862 -3.23135 0)
(214.976 -3.39484 0)
(215.03 -3.55337 0)
(215.023 -3.70072 0)
(214.958 -3.8339 0)
(214.856 -3.93378 0)
(214.707 -4.02986 0)
(214.523 -4.11214 0)
(214.321 -4.18007 0)
(214.104 -4.22125 0)
(213.886 -4.2396 0)
(213.673 -4.25041 0)
(213.466 -4.24173 0)
(213.255 -4.21993 0)
(213.032 -4.18911 0)
(212.788 -4.15467 0)
(212.517 -4.11981 0)
(212.218 -4.08509 0)
(211.887 -4.05307 0)
(211.522 -4.0224 0)
(211.115 -3.99162 0)
(210.65 -3.96166 0)
(210.103 -3.94093 0)
(209.448 -3.94287 0)
(208.671 -3.98312 0)
(207.782 -4.07167 0)
(206.808 -4.21228 0)
(205.793 -4.39212 0)
(204.784 -4.58575 0)
(203.815 -4.76423 0)
(202.906 -4.9105 0)
(202.061 -5.01784 0)
(201.274 -5.08429 0)
(200.536 -5.11083 0)
(199.831 -5.10321 0)
(199.148 -5.06962 0)
(198.481 -5.0173 0)
(197.824 -4.95081 0)
(197.175 -4.87308 0)
(196.53 -4.78681 0)
(195.885 -4.69479 0)
(195.236 -4.59956 0)
(194.58 -4.50322 0)
(193.914 -4.40774 0)
(193.237 -4.31498 0)
(192.548 -4.22668 0)
(191.844 -4.14433 0)
(191.126 -4.06931 0)
(190.39 -4.00278 0)
(189.637 -3.94588 0)
(188.864 -3.89992 0)
(188.07 -3.86626 0)
(187.256 -3.84605 0)
(186.422 -3.84052 0)
(220.825 3.65439 0)
(216.184 -2.26214 0)
(215.065 -2.65039 0)
(214.702 -2.80307 0)
(214.811 -2.99422 0)
(214.998 -3.16863 0)
(215.15 -3.33921 0)
(215.249 -3.50734 0)
(215.29 -3.67331 0)
(215.268 -3.83002 0)
(215.189 -3.97185 0)
(215.067 -4.07728 0)
(214.897 -4.18127 0)
(214.696 -4.26565 0)
(214.478 -4.33312 0)
(214.245 -4.36939 0)
(214.013 -4.38518 0)
(213.788 -4.39115 0)
(213.569 -4.3772 0)
(213.345 -4.35203 0)
(213.107 -4.31993 0)
(212.847 -4.28501 0)
(212.561 -4.25034 0)
(212.248 -4.21613 0)
(211.905 -4.18547 0)
(211.526 -4.15745 0)
(211.101 -4.13138 0)
(210.612 -4.10873 0)
(210.034 -4.09805 0)
(209.345 -4.11191 0)
(208.54 -4.16394 0)
(207.631 -4.26175 0)
(206.649 -4.40758 0)
(205.635 -4.58832 0)
(204.634 -4.77962 0)
(203.675 -4.95382 0)
(202.776 -5.09498 0)
(201.939 -5.19743 0)
(201.158 -5.26024 0)
(200.422 -5.28493 0)
(199.718 -5.27713 0)
(199.037 -5.24451 0)
(198.371 -5.19389 0)
(197.717 -5.12965 0)
(197.07 -5.05472 0)
(196.426 -4.97186 0)
(195.782 -4.88386 0)
(195.134 -4.79322 0)
(194.479 -4.70206 0)
(193.815 -4.61233 0)
(193.139 -4.52585 0)
(192.451 -4.44431 0)
(191.749 -4.36922 0)
(191.032 -4.30201 0)
(190.299 -4.24402 0)
(189.55 -4.19654 0)
(188.782 -4.16077 0)
(187.994 -4.13796 0)
(187.187 -4.12922 0)
(186.358 -4.13569 0)
(222.152 4.54943 0)
(216.866 -2.37055 0)
(215.614 -2.76567 0)
(215.111 -2.87344 0)
(215.156 -3.06769 0)
(215.32 -3.2506 0)
(215.449 -3.43414 0)
(215.523 -3.61666 0)
(215.539 -3.79585 0)
(215.497 -3.96441 0)
(215.4 -4.11063 0)
(215.257 -4.22449 0)
(215.07 -4.33462 0)
(214.855 -4.42024 0)
(214.624 -4.48633 0)
(214.38 -4.51744 0)
(214.137 -4.53066 0)
(213.903 -4.53074 0)
(213.672 -4.51211 0)
(213.434 -4.48396 0)
(213.181 -4.4508 0)
(212.904 -4.41557 0)
(212.603 -4.38098 0)
(212.276 -4.34699 0)
(211.919 -4.31744 0)
(211.524 -4.29194 0)
(211.079 -4.27047 0)
(210.564 -4.25557 0)
(209.955 -4.25524 0)
(209.235 -4.28097 0)
(208.403 -4.34419 0)
(207.478 -4.45042 0)
(206.491 -4.60085 0)
(205.483 -4.7824 0)
(204.492 -4.97178 0)
(203.546 -5.14243 0)
(202.659 -5.27938 0)
(201.831 -5.37787 0)
(201.057 -5.43781 0)
(200.325 -5.4612 0)
(199.623 -5.45343 0)
(198.944 -5.42179 0)
(198.28 -5.37274 0)
(197.628 -5.31059 0)
(196.982 -5.2383 0)
(196.34 -5.15867 0)
(195.697 -5.0745 0)
(195.051 -4.98823 0)
(194.397 -4.902 0)
(193.735 -4.81778 0)
(193.062 -4.73745 0)
(192.377 -4.66271 0)
(191.679 -4.59505 0)
(190.967 -4.53582 0)
(190.239 -4.48619 0)
(189.494 -4.44744 0)
(188.73 -4.42104 0)
(187.947 -4.40829 0)
(187.146 -4.4102 0)
(186.325 -4.42819 0)
(223.508 5.52733 0)
(217.573 -2.43257 0)
(216.15 -2.91504 0)
(215.509 -2.97597 0)
(215.482 -3.16554 0)
(215.63 -3.34821 0)
(215.743 -3.53457 0)
(215.797 -3.72284 0)
(215.794 -3.90983 0)
(215.733 -4.08932 0)
(215.62 -4.2357 0)
(215.454 -4.36326 0)
(215.249 -4.48045 0)
(215.02 -4.56911 0)
(214.773 -4.63511 0)
(214.514 -4.66299 0)
(214.259 -4.67466 0)
(214.015 -4.66891 0)
(213.772 -4.64638 0)
(213.521 -4.61559 0)
(213.252 -4.58155 0)
(212.961 -4.5461 0)
(212.646 -4.51142 0)
(212.306 -4.47757 0)
(211.936 -4.44921 0)
(211.525 -4.4267 0)
(211.059 -4.41092 0)
(210.517 -4.40414 0)
(209.876 -4.41472 0)
(209.125 -4.45223 0)
(208.268 -4.5258 0)
(207.329 -4.63919 0)
(206.339 -4.79293 0)
(205.335 -4.97412 0)
(204.352 -5.1605 0)
(203.416 -5.32664 0)
(202.538 -5.45864 0)
(201.717 -5.55265 0)
(200.948 -5.6094 0)
(200.218 -5.63122 0)
(199.519 -5.6233 0)
(198.842 -5.59247 0)
(198.181 -5.54489 0)
(197.53 -5.48477 0)
(196.887 -5.41509 0)
(196.246 -5.33868 0)
(195.605 -5.2583 0)
(194.959 -5.17641 0)
(194.308 -5.09512 0)
(193.647 -5.0164 0)
(192.976 -4.94204 0)
(192.293 -4.87374 0)
(191.597 -4.813 0)
(190.887 -4.76127 0)
(190.163 -4.71993 0)
(189.422 -4.69034 0)
(188.665 -4.67368 0)
(187.889 -4.67125 0)
(187.094 -4.68409 0)
(186.28 -4.71361 0)
(224.869 6.5779 0)
(218.299 -2.50063 0)
(216.694 -3.08042 0)
(215.91 -3.0867 0)
(215.799 -3.26912 0)
(215.922 -3.45452 0)
(216.019 -3.6434 0)
(216.054 -3.83615 0)
(216.03 -4.02996 0)
(215.945 -4.22125 0)
(215.817 -4.36471 0)
(215.633 -4.50504 0)
(215.413 -4.6264 0)
(215.171 -4.71736 0)
(214.912 -4.78225 0)
(214.643 -4.80707 0)
(214.379 -4.81678 0)
(214.125 -4.80529 0)
(213.871 -4.77948 0)
(213.607 -4.74652 0)
(213.322 -4.71186 0)
(213.015 -4.67634 0)
(212.686 -4.64147 0)
(212.332 -4.60761 0)
(211.947 -4.58034 0)
(211.52 -4.56086 0)
(211.032 -4.55095 0)
(210.461 -4.5528 0)
(209.788 -4.57432 0)
(209.008 -4.62321 0)
(208.13 -4.70631 0)
(207.18 -4.8261 0)
(206.19 -4.98276 0)
(205.193 -5.16374 0)
(204.221 -5.34764 0)
(203.297 -5.51002 0)
(202.43 -5.63791 0)
(201.618 -5.72822 0)
(200.854 -5.78237 0)
(200.129 -5.80297 0)
(199.433 -5.79498 0)
(198.758 -5.76489 0)
(198.099 -5.71863 0)
(197.451 -5.66038 0)
(196.809 -5.59316 0)
(196.17 -5.51981 0)
(195.53 -5.44305 0)
(194.886 -5.36531 0)
(194.236 -5.2887 0)
(193.578 -5.21524 0)
(192.91 -5.14676 0)
(192.231 -5.08496 0)
(191.54 -5.03129 0)
(190.836 -4.98711 0)
(190.116 -4.95366 0)
(189.38 -4.93233 0)
(188.627 -4.92468 0)
(187.858 -4.93183 0)
(187.07 -4.9549 0)
(186.264 -4.99594 0)
(226.248 7.67645 0)
(218.997 -2.62871 0)
(217.286 -3.14282 0)
(216.347 -3.11718 0)
(216.139 -3.32125 0)
(216.225 -3.52879 0)
(216.301 -3.73195 0)
(216.316 -3.93476 0)
(216.272 -4.13712 0)
(216.17 -4.33578 0)
(216.019 -4.48729 0)
(215.817 -4.63917 0)
(215.581 -4.76498 0)
(215.325 -4.85989 0)
(215.051 -4.92481 0)
(214.77 -4.94832 0)
(214.496 -4.9563 0)
(214.233 -4.93987 0)
(213.967 -4.91138 0)
(213.689 -4.87669 0)
(213.39 -4.8416 0)
(213.069 -4.80599 0)
(212.727 -4.77083 0)
(212.361 -4.73707 0)
(211.962 -4.71121 0)
(211.517 -4.69544 0)
(211.005 -4.69218 0)
(210.405 -4.70345 0)
(209.7 -4.73608 0)
(208.892 -4.79574 0)
(207.995 -4.88725 0)
(207.037 -5.01215 0)
(206.046 -5.1705 0)
(205.055 -5.35021 0)
(204.092 -5.53069 0)
(203.177 -5.68851 0)
(202.318 -5.81172 0)
(201.512 -5.898 0)
(200.753 -5.94935 0)
(200.03 -5.96858 0)
(199.337 -5.96038 0)
(198.665 -5.93093 0)
(198.009 -5.88594 0)
(197.363 -5.82954 0)
(196.723 -5.76477 0)
(196.085 -5.69446 0)
(195.447 -5.6213 0)
(194.805 -5.54773 0)
(194.157 -5.47584 0)
(193.502 -5.40759 0)
(192.836 -5.34479 0)
(192.159 -5.28909 0)
(191.47 -5.24202 0)
(190.769 -5.20505 0)
(190.053 -5.17964 0)
(189.323 -5.16713 0)
(188.577 -5.16865 0)
(187.815 -5.18559 0)
(187.034 -5.21955 0)
(186.233 -5.2707 0)
(227.663 8.84764 0)
(219.723 -2.68001 0)
(217.842 -3.2758 0)
(216.783 -3.18185 0)
(216.474 -3.39382 0)
(216.515 -3.61313 0)
(216.567 -3.82829 0)
(216.559 -4.04216 0)
(216.494 -4.25459 0)
(216.374 -4.45503 0)
(216.202 -4.61512 0)
(215.984 -4.77566 0)
(215.735 -4.9039 0)
(215.467 -5.00142 0)
(215.183 -5.06509 0)
(214.893 -5.08721 0)
(214.611 -5.09292 0)
(214.338 -5.07235 0)
(214.061 -5.04169 0)
(213.77 -5.00581 0)
(213.456 -4.97056 0)
(213.121 -4.93494 0)
(212.765 -4.8994 0)
(212.385 -4.86571 0)
(211.971 -4.8413 0)
(211.507 -4.82952 0)
(210.97 -4.83332 0)
(210.34 -4.85428 0)
(209.605 -4.89786 0)
(208.771 -4.96757 0)
(207.858 -5.0666 0)
(206.895 -5.19601 0)
(205.908 -5.35594 0)
(204.924 -5.5347 0)
(203.972 -5.71232 0)
(203.068 -5.86628 0)
(202.219 -5.98554 0)
(201.421 -6.06841 0)
(200.667 -6.1174 0)
(199.948 -6.13545 0)
(199.258 -6.12704 0)
(198.589 -6.09811 0)
(197.935 -6.05425 0)
(197.291 -5.99956 0)
(196.653 -5.9371 0)
(196.017 -5.86968 0)
(195.38 -5.79996 0)
(194.741 -5.73031 0)
(194.096 -5.66287 0)
(193.443 -5.59963 0)
(192.781 -5.54242 0)
(192.109 -5.4929 0)
(191.426 -5.45253 0)
(190.73 -5.42268 0)
(190.019 -5.40468 0)
(189.293 -5.3999 0)
(188.554 -5.41008 0)
(187.798 -5.43647 0)
(187.024 -5.47955 0)
(186.233 -5.54119 0)
(229.076 10.1021 0)
(220.516 -2.64135 0)
(218.384 -3.47005 0)
(217.177 -3.31669 0)
(216.779 -3.49854 0)
(216.787 -3.70594 0)
(216.829 -3.91898 0)
(216.807 -4.1376 0)
(216.724 -4.36009 0)
(216.586 -4.56132 0)
(216.391 -4.73538 0)
(216.156 -4.90467 0)
(215.892 -5.03646 0)
(215.61 -5.13807 0)
(215.313 -5.20151 0)
(215.013 -5.22327 0)
(214.723 -5.22657 0)
(214.44 -5.20278 0)
(214.152 -5.17044 0)
(213.847 -5.13385 0)
(213.52 -5.09859 0)
(213.172 -5.06288 0)
(212.804 -5.02694 0)
(212.412 -4.99356 0)
(211.983 -4.97113 0)
(211.499 -4.96414 0)
(210.935 -4.97588 0)
(210.274 -5.00706 0)
(209.509 -5.06137 0)
(208.652 -5.14021 0)
(207.725 -5.2455 0)
(206.757 -5.37817 0)
(205.773 -5.53858 0)
(204.796 -5.71545 0)
(203.852 -5.8894 0)
(202.957 -6.03887 0)
(202.115 -6.15379 0)
(201.322 -6.23305 0)
(200.573 -6.27956 0)
(199.858 -6.29632 0)
(199.171 -6.28762 0)
(198.505 -6.25916 0)
(197.854 -6.21642 0)
(197.212 -6.16345 0)
(196.575 -6.1033 0)
(195.941 -6.03877 0)
(195.307 -5.97246 0)
(194.669 -5.90678 0)
(194.027 -5.84382 0)
(193.376 -5.78552 0)
(192.717 -5.73366 0)
(192.048 -5.68992 0)
(191.367 -5.65583 0)
(190.674 -5.63292 0)
(189.969 -5.62265 0)
(189.251 -5.62621 0)
(188.518 -5.64528 0)
(187.768 -5.6807 0)
(187.002 -5.73338 0)
(186.219 -5.80609 0)
(230.473 11.3738 0)
(221.236 -2.80172 0)
(219.013 -3.48647 0)
(217.61 -3.38624 0)
(217.091 -3.58103 0)
(217.046 -3.79417 0)
(217.072 -4.0137 0)
(217.034 -4.24022 0)
(216.934 -4.47498 0)
(216.782 -4.67315 0)
(216.565 -4.8602 0)
(216.314 -5.03529 0)
(216.037 -5.16911 0)
(215.744 -5.27322 0)
(215.437 -5.33546 0)
(215.13 -5.35679 0)
(214.832 -5.35727 0)
(214.54 -5.33101 0)
(214.24 -5.29738 0)
(213.922 -5.26062 0)
(213.581 -5.2256 0)
(213.22 -5.18984 0)
(212.839 -5.15343 0)
(212.433 -5.12042 0)
(211.988 -5.10017 0)
(211.482 -5.09815 0)
(210.892 -5.11839 0)
(210.201 -5.15996 0)
(209.408 -5.22458 0)
(208.529 -5.31168 0)
(207.593 -5.42243 0)
(206.624 -5.558 0)
(205.644 -5.71896 0)
(204.676 -5.89434 0)
(203.743 -6.0652 0)
(202.858 -6.21083 0)
(202.024 -6.32201 0)
(201.239 -6.39813 0)
(200.494 -6.44244 0)
(199.783 -6.458 0)
(199.1 -6.44894 0)
(198.437 -6.42085 0)
(197.787 -6.37911 0)
(197.148 -6.32774 0)
(196.513 -6.26978 0)
(195.881 -6.20798 0)
(195.249 -6.14492 0)
(194.614 -6.08296 0)
(193.974 -6.02419 0)
(193.327 -5.97063 0)
(192.672 -5.92407 0)
(192.008 -5.88617 0)
(191.333 -5.85841 0)
(190.646 -5.84219 0)
(189.946 -5.83874 0)
(189.232 -5.84978 0)
(188.507 -5.87732 0)
(187.764 -5.92046 0)
(187.007 -5.9832 0)
(186.234 -6.06587 0)
(231.908 12.6683 0)
(221.806 -3.04987 0)
(219.737 -3.38209 0)
(218.106 -3.36026 0)
(217.426 -3.6228 0)
(217.311 -3.86026 0)
(217.317 -4.09338 0)
(217.266 -4.33008 0)
(217.152 -4.57448 0)
(216.98 -4.7789 0)
(216.745 -4.97743 0)
(216.478 -5.15875 0)
(216.185 -5.29656 0)
(215.879 -5.40419 0)
(215.56 -5.46603 0)
(215.245 -5.48755 0)
(214.939 -5.48523 0)
(214.637 -5.45723 0)
(214.326 -5.42267 0)
(213.995 -5.38609 0)
(213.642 -5.35137 0)
(213.268 -5.31551 0)
(212.876 -5.27871 0)
(212.458 -5.24642 0)
(211.996 -5.2291 0)
(211.467 -5.23344 0)
(210.848 -5.26238 0)
(210.127 -5.31457 0)
(209.307 -5.38891 0)
(208.41 -5.48315 0)
(207.465 -5.59811 0)
(206.494 -5.73543 0)
(205.518 -5.89598 0)
(204.557 -6.06906 0)
(203.632 -6.23616 0)
(202.754 -6.37749 0)
(201.927 -6.48467 0)
(201.147 -6.55752 0)
(200.407 -6.59957 0)
(199.701 -6.61386 0)
(199.02 -6.60443 0)
(198.36 -6.5767 0)
(197.713 -6.53598 0)
(197.076 -6.48624 0)
(196.444 -6.43048 0)
(195.814 -6.3714 0)
(195.183 -6.31158 0)
(194.551 -6.25336 0)
(193.914 -6.19883 0)
(193.27 -6.14992 0)
(192.618 -6.1084 0)
(191.957 -6.07596 0)
(191.285 -6.05419 0)
(190.602 -6.04458 0)
(189.908 -6.04855 0)
(189.203 -6.06784 0)
(188.481 -6.10221 0)
(187.748 -6.15512 0)
(186.999 -6.22747 0)
(186.234 -6.32014 0)
(233.372 14.0564 0)
(222.514 -3.092 0)
(220.268 -3.56855 0)
(218.597 -3.41041 0)
(217.765 -3.67543 0)
(217.567 -3.93134 0)
(217.544 -4.18138 0)
(217.478 -4.4298 0)
(217.351 -4.67913 0)
(217.16 -4.89129 0)
(216.91 -5.09892 0)
(216.629 -5.28386 0)
(216.324 -5.42415 0)
(216.007 -5.53365 0)
(215.679 -5.5943 0)
(215.357 -5.61579 0)
(215.044 -5.6106 0)
(214.733 -5.5814 0)
(214.41 -5.54622 0)
(214.066 -5.51023 0)
(213.699 -5.47597 0)
(213.313 -5.44003 0)
(212.908 -5.40285 0)
(212.476 -5.3714 0)
(211.996 -5.35731 0)
(211.444 -5.36834 0)
(210.796 -5.40659 0)
(210.045 -5.46913 0)
(209.201 -5.55249 0)
(208.289 -5.65301 0)
(207.338 -5.77158 0)
(206.369 -5.91049 0)
(205.4 -6.07085 0)
(204.448 -6.24207 0)
(203.532 -6.40596 0)
(202.664 -6.54355 0)
(201.845 -6.64719 0)
(201.071 -6.71711 0)
(200.336 -6.75706 0)
(199.633 -6.77011 0)
(198.956 -6.76025 0)
(198.298 -6.7328 0)
(197.654 -6.693 0)
(197.019 -6.64477 0)
(196.389 -6.59108 0)
(195.761 -6.53457 0)
(195.133 -6.4778 0)
(194.503 -6.42308 0)
(193.869 -6.3725 0)
(193.229 -6.32805 0)
(192.582 -6.29153 0)
(191.926 -6.2646 0)
(191.261 -6.24876 0)
(190.584 -6.2453 0)
(189.895 -6.25596 0)
(189.194 -6.28156 0)
(188.483 -6.32435 0)
(187.757 -6.38553 0)
(187.016 -6.46647 0)
(186.262 -6.56832 0)
(234.824 15.5355 0)
(223.325 -3.01398 0)
(220.763 -3.79598 0)
(219.01 -3.55582 0)
(218.086 -3.75513 0)
(217.823 -3.99768 0)
(217.775 -4.25583 0)
(217.694 -4.51689 0)
(217.552 -4.77057 0)
(217.343 -4.9954 0)
(217.078 -5.21345 0)
(216.783 -5.40326 0)
(216.465 -5.54766 0)
(216.135 -5.6597 0)
(215.798 -5.71975 0)
(215.467 -5.74138 0)
(215.146 -5.73358 0)
(214.825 -5.70373 0)
(214.491 -5.66821 0)
(214.135 -5.63299 0)
(213.756 -5.59914 0)
(213.359 -5.56311 0)
(212.943 -5.52572 0)
(212.497 -5.49562 0)
(211.999 -5.48559 0)
(211.421 -5.50412 0)
(210.744 -5.55233 0)
(209.964 -5.62502 0)
(209.097 -5.71648 0)
(208.172 -5.82208 0)
(207.216 -5.94311 0)
(206.248 -6.08262 0)
(205.283 -6.24198 0)
(204.338 -6.41065 0)
(203.43 -6.57082 0)
(202.568 -6.70432 0)
(201.755 -6.80425 0)
(200.987 -6.87116 0)
(200.256 -6.90897 0)
(199.557 -6.92078 0)
(198.883 -6.9105 0)
(198.229 -6.88337 0)
(197.587 -6.84453 0)
(196.954 -6.79785 0)
(196.326 -6.74622 0)
(195.701 -6.69228 0)
(195.076 -6.63855 0)
(194.448 -6.58736 0)
(193.817 -6.54076 0)
(193.181 -6.50069 0)
(192.536 -6.4689 0)
(191.883 -6.44715 0)
(191.221 -6.43693 0)
(190.549 -6.43998 0)
(189.868 -6.45745 0)
(189.176 -6.49037 0)
(188.47 -6.54088 0)
(187.752 -6.61049 0)
(187.02 -6.70038 0)
(186.276 -6.81164 0)
(236.25 17.0331 0)
(224.122 -3.07113 0)
(221.358 -3.8427 0)
(219.415 -3.69379 0)
(218.389 -3.84455 0)
(218.062 -4.07328 0)
(217.988 -4.33733 0)
(217.892 -4.60944 0)
(217.738 -4.8647 0)
(217.51 -5.10232 0)
(217.233 -5.32937 0)
(216.926 -5.52326 0)
(216.597 -5.67096 0)
(216.259 -5.78434 0)
(215.913 -5.84327 0)
(215.576 -5.86466 0)
(215.247 -5.85436 0)
(214.916 -5.8242 0)
(214.57 -5.78865 0)
(214.201 -5.75445 0)
(213.81 -5.72109 0)
(213.4 -5.68497 0)
(212.972 -5.64744 0)
(212.512 -5.61888 0)
(211.994 -5.61334 0)
(211.39 -5.63988 0)
(210.684 -5.69815 0)
(209.876 -5.78059 0)
(208.99 -5.87927 0)
(208.055 -5.9892 0)
(207.097 -6.1123 0)
(206.133 -6.25243 0)
(205.175 -6.41109 0)
(204.238 -6.57766 0)
(203.339 -6.73458 0)
(202.486 -6.86446 0)
(201.68 -6.96102 0)
(200.917 -7.02514 0)
(200.19 -7.06093 0)
(199.495 -7.0715 0)
(198.825 -7.06077 0)
(198.173 -7.03388 0)
(197.534 -6.99592 0)
(196.903 -6.95066 0)
(196.278 -6.90096 0)
(195.655 -6.84943 0)
(195.032 -6.79856 0)
(194.408 -6.75064 0)
(193.78 -6.70775 0)
(193.147 -6.67186 0)
(192.508 -6.64477 0)
(191.862 -6.62817 0)
(191.206 -6.62343 0)
(190.541 -6.63236 0)
(189.863 -6.6553 0)
(189.177 -6.69525 0)
(188.48 -6.75314 0)
(187.771 -6.83044 0)
(187.049 -6.92835 0)
(186.317 -7.04812 0)
(237.683 18.531 0)
(224.777 -3.25794 0)
(222.042 -3.77715 0)
(219.856 -3.77078 0)
(218.693 -3.91809 0)
(218.299 -4.14064 0)
(218.199 -4.40899 0)
(218.09 -4.69236 0)
(217.922 -4.95065 0)
(217.678 -5.20139 0)
(217.39 -5.43773 0)
(217.072 -5.63721 0)
(216.731 -5.79008 0)
(216.382 -5.90575 0)
(216.028 -5.96427 0)
(215.683 -5.98547 0)
(215.346 -5.97312 0)
(215.005 -5.94302 0)
(214.647 -5.90766 0)
(214.267 -5.87448 0)
(213.864 -5.84151 0)
(213.444 -5.80531 0)
(213.005 -5.76795 0)
(212.529 -5.74155 0)
(211.99 -5.74134 0)
(211.359 -5.77672 0)
(210.623 -5.84527 0)
(209.79 -5.93692 0)
(208.885 -6.04177 0)
(207.941 -6.15485 0)
(206.981 -6.279 0)
(206.02 -6.41894 0)
(205.067 -6.57623 0)
(204.137 -6.74012 0)
(203.244 -6.8934 0)
(202.398 -7.01939 0)
(201.597 -7.11247 0)
(200.839 -7.17376 0)
(200.117 -7.20753 0)
(199.426 -7.21691 0)
(198.759 -7.20579 0)
(198.11 -7.17919 0)
(197.473 -7.14214 0)
(196.845 -7.09833 0)
(196.222 -7.05057 0)
(195.602 -7.00144 0)
(194.982 -6.95342 0)
(194.36 -6.90881 0)
(193.736 -6.86965 0)
(193.107 -6.83785 0)
(192.47 -6.81522 0)
(191.827 -6.8034 0)
(191.175 -6.80428 0)
(190.514 -6.81872 0)
(189.846 -6.84838 0)
(189.168 -6.89532 0)
(188.478 -6.96051 0)
(187.777 -7.04563 0)
(187.065 -7.15183 0)
(186.344 -7.28038 0)
(239.125 20.0634 0)
(225.456 -3.37357 0)
(222.689 -3.76266 0)
(220.324 -3.80858 0)
(219.002 -3.97548 0)
(218.527 -4.20639 0)
(218.397 -4.48238 0)
(218.275 -4.77407 0)
(218.093 -5.03889 0)
(217.834 -5.30127 0)
(217.535 -5.54628 0)
(217.206 -5.75082 0)
(216.857 -5.90807 0)
(216.5 -6.02533 0)
(216.14 -6.08338 0)
(215.788 -6.10413 0)
(215.443 -6.08997 0)
(215.092 -6.06016 0)
(214.723 -6.02529 0)
(214.33 -5.99329 0)
(213.915 -5.96072 0)
(213.483 -5.92445 0)
(213.031 -5.88735 0)
(212.539 -5.86341 0)
(211.978 -5.86879 0)
(211.32 -5.9135 0)
(210.556 -5.99229 0)
(209.698 -6.09248 0)
(208.779 -6.20266 0)
(207.829 -6.31832 0)
(206.871 -6.44332 0)
(205.914 -6.58323 0)
(204.968 -6.73949 0)
(204.046 -6.90113 0)
(203.162 -7.05118 0)
(202.322 -7.17364 0)
(201.528 -7.26347 0)
(200.775 -7.32209 0)
(200.058 -7.35392 0)
(199.37 -7.36212 0)
(198.706 -7.35056 0)
(198.06 -7.3242 0)
(197.426 -7.28797 0)
(196.8 -7.24548 0)
(196.18 -7.19952 0)
(195.562 -7.15263 0)
(194.945 -7.10728 0)
(194.326 -7.06573 0)
(193.705 -7.03003 0)
(193.08 -7.00213 0)
(192.45 -6.98387 0)
(191.812 -6.97684 0)
(191.168 -6.98282 0)
(190.513 -7.0025 0)
(189.85 -7.03799 0)
(189.178 -7.09108 0)
(188.496 -7.16298 0)
(187.805 -7.25512 0)
(187.105 -7.36873 0)
(186.394 -7.50522 0)
(185.673 -7.66617 0)
(184.939 -7.85293 0)
(184.194 -8.06694 0)
(183.439 -8.30927 0)
(182.674 -8.58125 0)