/*--------------------------------*- C++ -*----------------------------------*\
| =========                 |                                                 |
| \\      /  F ield         | OpenFOAM: The Open Source CFD Toolbox           |
|  \\    /   O peration     | Version:  2412                                  |
|   \\  /    A nd           | Website:  www.openfoam.com                      |
|    \\/     M anipulation  |                                                 |
\*---------------------------------------------------------------------------*/
FoamFile
{
    version     2.0;
    format      ascii;
    arch        "LSB;label=32;scalar=64";
    class       volScalarField;
    location    "0.093";
    object      rho;
}
// * * * * * * * * * * * * * * * * * * * * * * * * * * * * * * * * * * * * * //

dimensions      [1 -3 0 0 0 0 0];

internalField   nonuniform List<scalar> 
9763
(
0.042365
0.0430927
0.0423714
0.0430592
0.0423801
0.0430305
0.0423885
0.0430223
0.0423972
0.0430138
0.0424048
0.0430085
0.0424113
0.0430009
0.0424164
0.0429914
0.0424204
0.042979
0.042423
0.0429649
0.0424241
0.0429484
0.0424244
0.0429304
0.0424242
0.0429102
0.0424233
0.0428889
0.0424218
0.0428658
0.0424195
0.0428417
0.0424172
0.0428162
0.0424144
0.0427902
0.0424118
0.0427633
0.0424089
0.042736
0.0424061
0.0427083
0.0424032
0.0426803
0.0424003
0.042652
0.0423973
0.0426233
0.0423942
0.042594
0.0423908
0.0425641
0.0423874
0.0425333
0.0423835
0.0425016
0.0423793
0.0424688
0.0423746
0.0424349
0.0423695
0.0424002
0.0423644
0.0423646
0.0423591
0.0423285
0.0423526
0.0422922
0.0423444
0.0422559
0.0423349
0.0422192
0.0423241
0.0421821
0.0423123
0.0421445
0.0422994
0.0421063
0.0422855
0.0420679
0.042029
0.0419901
0.0419508
0.0590349
0.043606
0.0433681
0.0432629
0.04317
0.0431102
0.0430287
0.0429492
0.0428621
0.0427715
0.0426784
0.0425893
0.0425024
0.0424198
0.0423408
0.0422653
0.0421922
0.04212
0.042048
0.0419757
0.0419029
0.041829
0.0417538
0.041677
0.0415985
0.0415186
0.0414376
0.0413562
0.0412751
0.0411949
0.0411165
0.0410408
0.0409684
0.0409
0.0408361
0.040777
0.0407233
0.0406753
0.0406337
0.0405985
0.0405692
0.0405459
0.0405286
0.0405172
0.0405116
0.0405114
0.0405168
0.040528
0.0405431
0.0405618
0.040584
0.0406097
0.0406387
0.0406709
0.040706
0.0407435
0.0407829
0.0408238
0.0408658
0.0409058
0.0409511
0.0409872
0.0410308
0.0410694
0.0411098
0.0411497
0.0411889
0.0412304
0.0412715
0.0413143
0.041357
0.0413992
0.0414422
0.0414851
0.0415282
0.0415719
0.0416157
0.04166
0.0417043
0.0417486
0.0417924
0.0418363
0.04188
0.0419241
0.0419682
0.042012
0.0420553
0.0420969
0.0421365
0.042174
0.0422094
0.0422416
0.0422728
0.042304
0.0423357
0.0423683
0.0424009
0.0424336
0.0424657
0.0424959
0.042525
0.0425517
0.0425767
0.0425991
0.0426188
0.0426356
0.0426483
0.0426567
0.0426607
0.0426609
0.0426562
0.0426468
0.0426325
0.0426142
0.0425931
0.0425696
0.0425449
0.0425177
0.0424906
0.0424846
0.042405
0.0590711
0.0435983
0.0433623
0.043259
0.043167
0.0431078
0.0430269
0.0429476
0.0428606
0.0427701
0.0426771
0.042588
0.0425011
0.0424185
0.0423395
0.042264
0.0421909
0.0421188
0.0420467
0.0419744
0.0419014
0.0418275
0.0417522
0.0416753
0.0415967
0.0415165
0.0414352
0.0413534
0.0412717
0.0411909
0.0411118
0.0410351
0.0409617
0.0408921
0.0408269
0.0407663
0.0407111
0.0406615
0.0406182
0.0405812
0.0405502
0.0405253
0.0405062
0.040493
0.0404859
0.0404839
0.0404875
0.0404971
0.0405109
0.0405282
0.040549
0.0405734
0.0406011
0.0406321
0.040666
0.0407022
0.0407402
0.0407798
0.0408208
0.0408604
0.0409052
0.040942
0.0409851
0.041024
0.0410635
0.0411029
0.0411407
0.0411809
0.041221
0.0412629
0.0413049
0.0413466
0.0413889
0.041431
0.0414729
0.041515
0.0415569
0.0415989
0.041641
0.0416834
0.0417261
0.0417691
0.0418121
0.0418554
0.0418984
0.0419409
0.0419829
0.0420229
0.0420609
0.0420962
0.0421293
0.0421603
0.0421904
0.0422201
0.0422497
0.0422797
0.0423092
0.042339
0.0423674
0.0423946
0.0424205
0.0424446
0.0424668
0.042487
0.0425051
0.0425207
0.0425335
0.0425427
0.0425484
0.0425507
0.0425492
0.042544
0.0425359
0.0425255
0.042515
0.0425057
0.0424983
0.0424926
0.0424885
0.0424865
0.0424858
0.0590745
0.0435938
0.0433585
0.0432562
0.0431646
0.0431061
0.0430255
0.0429462
0.0428593
0.0427687
0.0426758
0.0425867
0.0424999
0.0424173
0.0423383
0.0422628
0.0421897
0.0421176
0.0420455
0.0419731
0.0419001
0.0418261
0.0417506
0.0416736
0.0415948
0.0415145
0.0414328
0.0413506
0.0412684
0.041187
0.0411071
0.0410294
0.0409549
0.040884
0.0408174
0.0407554
0.0406985
0.0406473
0.0406021
0.0405633
0.0405306
0.0405038
0.0404829
0.0404679
0.0404589
0.0404554
0.0404571
0.0404647
0.0404771
0.040493
0.0405123
0.0405352
0.0405615
0.040591
0.0406234
0.0406582
0.0406947
0.0407328
0.0407722
0.0408109
0.040854
0.0408897
0.0409309
0.0409681
0.041006
0.041044
0.0410806
0.0411193
0.0411579
0.0411982
0.0412384
0.0412785
0.0413194
0.0413602
0.0414009
0.0414412
0.0414807
0.0415196
0.0415582
0.0415968
0.0416358
0.0416752
0.041715
0.0417548
0.041794
0.0418324
0.04187
0.0419054
0.0419391
0.041971
0.0420014
0.0420307
0.0420592
0.0420874
0.042115
0.0421427
0.0421693
0.0421958
0.0422206
0.0422443
0.0422666
0.0422874
0.0423064
0.0423238
0.0423391
0.0423523
0.0423629
0.04237
0.0423742
0.042375
0.0423718
0.0423653
0.0423551
0.0423428
0.0423302
0.0423194
0.0423116
0.042307
0.042305
0.042305
0.04231
0.0590746
0.0435891
0.0433544
0.0432529
0.043162
0.0431042
0.043024
0.0429448
0.0428579
0.0427674
0.0426745
0.0425855
0.0424988
0.0424162
0.0423372
0.0422617
0.0421886
0.0421164
0.0420444
0.041972
0.0418989
0.0418247
0.0417492
0.0416721
0.0415931
0.0415126
0.0414306
0.041348
0.0412653
0.0411833
0.0411026
0.0410241
0.0409485
0.0408764
0.0408085
0.0407451
0.0406866
0.0406337
0.0405869
0.0405463
0.0405118
0.0404833
0.0404606
0.0404437
0.0404328
0.0404278
0.0404279
0.0404334
0.0404443
0.0404588
0.0404767
0.0404981
0.040523
0.0405511
0.040582
0.0406152
0.0406502
0.0406868
0.0407247
0.0407623
0.0408041
0.0408387
0.0408778
0.0409133
0.0409494
0.0409859
0.0410209
0.0410578
0.0410944
0.0411324
0.0411704
0.0412086
0.0412479
0.041287
0.0413259
0.0413641
0.0414012
0.0414371
0.0414726
0.0415079
0.0415435
0.0415792
0.041615
0.0416505
0.0416852
0.041719
0.0417517
0.041782
0.0418107
0.0418375
0.0418629
0.0418878
0.0419121
0.0419364
0.0419601
0.0419839
0.0420065
0.0420291
0.0420501
0.0420701
0.042089
0.0421067
0.042123
0.0421382
0.0421517
0.0421636
0.0421733
0.0421804
0.0421848
0.0421861
0.0421837
0.0421778
0.0421682
0.0421563
0.0421442
0.042134
0.0421271
0.0421237
0.0421229
0.0421251
0.0421314
0.0590793
0.0435854
0.0433506
0.0432498
0.0431594
0.0431024
0.0430226
0.0429434
0.0428566
0.0427661
0.0426733
0.0425843
0.0424976
0.0424151
0.0423361
0.0422606
0.0421875
0.0421154
0.0420433
0.0419708
0.0418977
0.0418234
0.0417478
0.0416706
0.0415915
0.0415107
0.0414285
0.0413455
0.0412624
0.0411798
0.0410984
0.041019
0.0409423
0.0408691
0.0407999
0.0407351
0.0406752
0.0406207
0.0405721
0.0405298
0.0404936
0.0404633
0.0404388
0.0404201
0.0404074
0.0404009
0.0403993
0.0404028
0.040412
0.0404252
0.0404417
0.0404617
0.0404852
0.0405118
0.0405413
0.040573
0.0406064
0.0406414
0.0406777
0.0407142
0.0407544
0.0407878
0.0408246
0.0408585
0.0408928
0.0409279
0.0409617
0.0409969
0.0410318
0.0410677
0.0411036
0.0411397
0.0411772
0.0412147
0.0412521
0.0412888
0.0413241
0.0413579
0.0413907
0.0414228
0.0414548
0.0414864
0.041518
0.0415491
0.0415794
0.0416087
0.0416371
0.0416633
0.0416881
0.0417114
0.0417337
0.0417557
0.041777
0.0417985
0.0418191
0.0418398
0.041859
0.0418781
0.0418953
0.0419115
0.0419266
0.0419405
0.0419532
0.0419649
0.0419748
0.0419834
0.0419901
0.0419947
0.0419971
0.0419963
0.0419922
0.0419845
0.0419731
0.0419598
0.0419462
0.0419347
0.0419267
0.0419229
0.0419221
0.0419244
0.041931
0.0590832
0.0435816
0.0433466
0.0432467
0.0431569
0.0431005
0.0430211
0.042942
0.0428553
0.0427649
0.0426721
0.0425831
0.0424965
0.042414
0.0423351
0.0422596
0.0421864
0.0421143
0.0420422
0.0419697
0.0418965
0.0418222
0.0417465
0.0416691
0.0415899
0.041509
0.0414265
0.0413431
0.0412595
0.0411763
0.0410943
0.041014
0.0409364
0.040862
0.0407916
0.0407254
0.0406641
0.040608
0.0405577
0.0405136
0.0404757
0.0404438
0.0404175
0.040397
0.0403826
0.0403743
0.0403711
0.0403729
0.0403803
0.040392
0.0404071
0.0404257
0.0404479
0.0404731
0.0405011
0.0405314
0.0405634
0.0405969
0.0406317
0.040667
0.0407054
0.0407375
0.0407717
0.0408042
0.0408366
0.0408703
0.0409026
0.040936
0.0409688
0.0410025
0.0410363
0.0410705
0.0411061
0.0411417
0.0411774
0.0412123
0.041246
0.0412784
0.0413097
0.0413401
0.0413698
0.0413985
0.0414268
0.0414541
0.0414806
0.0415061
0.0415304
0.0415528
0.0415736
0.0415933
0.0416121
0.041631
0.0416495
0.0416683
0.0416863
0.0417046
0.0417212
0.0417377
0.0417523
0.041766
0.0417786
0.04179
0.0418003
0.0418094
0.0418169
0.0418231
0.0418275
0.0418303
0.0418305
0.0418275
0.0418217
0.0418114
0.0417982
0.0417825
0.0417668
0.041753
0.041743
0.0417374
0.0417351
0.0417358
0.0417334
0.0590877
0.0435778
0.0433424
0.0432435
0.0431543
0.0430987
0.0430197
0.0429406
0.042854
0.0427636
0.0426709
0.042582
0.0424954
0.042413
0.042334
0.0422585
0.0421854
0.0421132
0.0420411
0.0419686
0.0418954
0.041821
0.0417452
0.0416677
0.0415884
0.0415072
0.0414245
0.0413408
0.0412567
0.0411729
0.0410902
0.0410091
0.0409305
0.040855
0.0407833
0.0407158
0.0406529
0.0405952
0.0405432
0.0404974
0.0404577
0.040424
0.040396
0.0403736
0.0403573
0.0403472
0.0403426
0.0403427
0.0403479
0.0403582
0.0403718
0.040389
0.0404097
0.0404336
0.0404602
0.040489
0.0405194
0.0405514
0.0405845
0.0406186
0.0406548
0.0406857
0.0407172
0.0407483
0.0407788
0.0408109
0.0408417
0.0408733
0.0409042
0.0409358
0.0409675
0.0409997
0.0410334
0.0410669
0.0411009
0.0411341
0.0411664
0.0411974
0.0412274
0.0412563
0.0412842
0.0413107
0.0413364
0.0413608
0.0413843
0.0414069
0.0414283
0.0414479
0.0414664
0.041484
0.0415011
0.0415183
0.0415354
0.0415527
0.0415696
0.0415864
0.0416016
0.0416164
0.0416295
0.0416414
0.0416522
0.0416618
0.0416702
0.0416776
0.0416835
0.0416881
0.0416917
0.041693
0.0416922
0.0416885
0.0416815
0.0416707
0.0416567
0.0416404
0.0416238
0.0416091
0.0415985
0.0415929
0.0415911
0.0415933
0.0415981
0.0590916
0.0435738
0.0433382
0.0432402
0.0431516
0.0430968
0.0430182
0.0429392
0.0428527
0.0427623
0.0426696
0.0425808
0.0424943
0.0424119
0.042333
0.0422575
0.0421843
0.0421121
0.0420401
0.0419675
0.0418942
0.0418197
0.0417438
0.0416662
0.0415868
0.0415054
0.0414224
0.0413384
0.0412538
0.0411695
0.0410861
0.0410042
0.0409246
0.040848
0.040775
0.0407061
0.0406417
0.0405824
0.0405287
0.0404811
0.0404396
0.0404041
0.0403742
0.04035
0.0403318
0.0403198
0.0403137
0.0403121
0.0403153
0.0403238
0.040336
0.0403517
0.0403709
0.0403934
0.0404186
0.0404459
0.0404748
0.0405053
0.0405368
0.0405696
0.0406034
0.0406331
0.0406617
0.0406918
0.04072
0.0407501
0.0407788
0.0408082
0.040837
0.0408666
0.0408963
0.0409264
0.0409579
0.040989
0.0410205
0.0410515
0.0410818
0.0411112
0.0411401
0.0411679
0.0411946
0.0412197
0.0412435
0.0412656
0.0412866
0.0413062
0.0413244
0.0413408
0.0413562
0.0413711
0.0413859
0.041401
0.0414166
0.0414324
0.0414483
0.041464
0.0414782
0.0414919
0.0415039
0.0415147
0.0415244
0.0415328
0.0415401
0.0415464
0.0415513
0.0415553
0.0415579
0.0415586
0.0415571
0.0415527
0.041545
0.0415336
0.041519
0.0415022
0.0414847
0.0414687
0.0414563
0.041449
0.0414467
0.041448
0.0414594
0.0590953
0.0435695
0.0433338
0.0432369
0.043149
0.0430949
0.0430167
0.0429378
0.0428513
0.042761
0.0426684
0.0425796
0.0424932
0.0424108
0.0423319
0.0422564
0.0421832
0.0421111
0.042039
0.0419664
0.041893
0.0418185
0.0417425
0.0416648
0.0415852
0.0415036
0.0414204
0.041336
0.041251
0.0411661
0.041082
0.0409992
0.0409186
0.0408409
0.0407666
0.0406963
0.0406304
0.0405694
0.0405139
0.0404645
0.0404211
0.0403837
0.040352
0.0403259
0.0403057
0.0402917
0.0402837
0.0402806
0.0402819
0.0402883
0.040299
0.0403131
0.0403308
0.0403518
0.0403755
0.0404013
0.0404287
0.0404577
0.0404875
0.0405188
0.0405499
0.0405784
0.0406042
0.0406333
0.040659
0.0406869
0.0407133
0.0407405
0.0407674
0.040795
0.0408227
0.0408507
0.0408799
0.0409083
0.0409371
0.0409654
0.0409932
0.0410205
0.0410476
0.0410739
0.0410992
0.0411229
0.0411454
0.0411658
0.041185
0.0412023
0.0412179
0.0412318
0.0412447
0.0412571
0.0412699
0.0412829
0.0412966
0.0413104
0.0413247
0.0413383
0.0413504
0.0413618
0.0413711
0.0413791
0.0413858
0.0413913
0.0413956
0.041399
0.0414014
0.041403
0.0414032
0.0414016
0.041398
0.0413914
0.0413818
0.0413686
0.0413525
0.0413339
0.0413146
0.0412963
0.0412811
0.0412706
0.0412657
0.0412661
0.0412623
0.0590994
0.0435649
0.0433293
0.0432335
0.0431462
0.0430929
0.0430151
0.0429363
0.0428499
0.0427597
0.0426671
0.0425784
0.042492
0.0424097
0.0423308
0.0422553
0.0421821
0.04211
0.0420378
0.0419652
0.0418918
0.0418172
0.0417411
0.0416633
0.0415836
0.0415019
0.0414184
0.0413336
0.0412481
0.0411627
0.0410779
0.0409943
0.0409127
0.0408338
0.0407582
0.0406864
0.040619
0.0405564
0.0404991
0.0404477
0.0404024
0.0403631
0.0403295
0.0403014
0.0402793
0.0402632
0.0402533
0.0402486
0.0402482
0.0402523
0.0402613
0.0402738
0.0402898
0.0403092
0.0403315
0.0403559
0.0403818
0.0404093
0.0404375
0.0404671
0.0404957
0.040523
0.0405461
0.0405744
0.0405974
0.0406228
0.0406467
0.0406715
0.0406964
0.040722
0.0407475
0.040773
0.0407994
0.0408247
0.0408503
0.0408754
0.0409003
0.040925
0.0409499
0.0409744
0.0409982
0.0410207
0.041042
0.0410609
0.0410784
0.0410936
0.0411065
0.0411177
0.0411279
0.0411377
0.0411481
0.0411589
0.0411707
0.0411827
0.0411952
0.0412069
0.0412171
0.0412263
0.041233
0.0412384
0.0412424
0.0412452
0.0412469
0.0412478
0.0412482
0.0412477
0.0412462
0.0412432
0.0412382
0.0412306
0.0412202
0.0412064
0.0411898
0.0411707
0.041151
0.0411321
0.0411164
0.041105
0.0410985
0.0410961
0.0410925
0.0591036
0.0435602
0.0433247
0.04323
0.0431434
0.0430909
0.0430136
0.0429348
0.0428485
0.0427584
0.0426658
0.0425771
0.0424909
0.0424086
0.0423297
0.0422542
0.042181
0.0421088
0.0420367
0.0419641
0.0418906
0.0418159
0.0417398
0.0416619
0.041582
0.0415001
0.0414163
0.0413312
0.0412453
0.0411593
0.0410738
0.0409894
0.0409068
0.0408267
0.0407497
0.0406766
0.0406076
0.0405432
0.0404841
0.0404308
0.0403835
0.0403422
0.0403066
0.0402766
0.0402523
0.0402342
0.0402222
0.0402158
0.0402136
0.0402156
0.0402226
0.0402335
0.0402478
0.0402655
0.0402862
0.0403091
0.0403336
0.0403595
0.040386
0.0404137
0.0404398
0.0404656
0.0404864
0.0405138
0.0405341
0.0405571
0.0405785
0.040601
0.0406239
0.0406475
0.0406709
0.0406941
0.0407176
0.0407399
0.0407623
0.040784
0.0408056
0.0408274
0.0408494
0.0408715
0.0408932
0.0409141
0.040934
0.0409518
0.0409681
0.0409819
0.0409931
0.0410027
0.0410112
0.0410195
0.0410282
0.0410376
0.0410477
0.0410582
0.0410689
0.0410783
0.0410865
0.0410932
0.0410969
0.0410995
0.0411008
0.0411011
0.0411007
0.0410997
0.0410984
0.0410966
0.041094
0.0410903
0.0410849
0.0410771
0.0410666
0.041053
0.0410365
0.0410178
0.0409983
0.0409796
0.0409638
0.0409521
0.0409449
0.0409413
0.0409391
0.0591082
0.0435554
0.0433201
0.0432265
0.0431406
0.0430889
0.043012
0.0429333
0.0428471
0.042757
0.0426646
0.0425759
0.0424897
0.0424074
0.0423287
0.0422531
0.0421799
0.0421077
0.0420356
0.0419629
0.0418894
0.0418147
0.0417384
0.0416604
0.0415804
0.0414983
0.0414143
0.0413288
0.0412425
0.0411559
0.0410697
0.0409845
0.0409009
0.0408196
0.0407414
0.0406667
0.0405961
0.0405301
0.0404691
0.0404138
0.0403645
0.0403213
0.0402837
0.0402516
0.0402252
0.040205
0.0401909
0.0401825
0.0401788
0.040179
0.0401836
0.0401927
0.0402052
0.0402212
0.0402402
0.0402616
0.0402847
0.0403092
0.040334
0.0403596
0.0403836
0.0404078
0.0404266
0.0404528
0.0404704
0.0404911
0.04051
0.04053
0.0405507
0.0405721
0.040593
0.0406136
0.0406342
0.0406535
0.0406728
0.0406913
0.0407099
0.0407287
0.0407478
0.040767
0.0407861
0.0408048
0.0408227
0.0408388
0.0408534
0.0408655
0.0408753
0.0408835
0.0408908
0.040898
0.0409058
0.0409143
0.0409234
0.0409331
0.0409423
0.0409503
0.0409566
0.0409613
0.0409625
0.0409629
0.0409623
0.0409606
0.0409587
0.0409566
0.0409545
0.0409524
0.0409498
0.0409463
0.0409414
0.0409343
0.0409246
0.0409119
0.0408963
0.0408785
0.0408599
0.040842
0.0408268
0.0408156
0.0408088
0.0408056
0.0408041
0.059113
0.0435505
0.0433154
0.043223
0.0431378
0.0430869
0.0430104
0.0429318
0.0428457
0.0427556
0.0426633
0.0425747
0.0424885
0.0424063
0.0423276
0.0422521
0.0421788
0.0421066
0.0420344
0.0419618
0.0418882
0.0418134
0.0417371
0.041659
0.0415788
0.0414965
0.0414123
0.0413265
0.0412397
0.0411525
0.0410656
0.0409796
0.040895
0.0408126
0.040733
0.0406569
0.0405847
0.0405169
0.040454
0.0403968
0.0403455
0.0403001
0.0402605
0.0402263
0.0401979
0.0401754
0.0401592
0.0401487
0.0401433
0.0401417
0.040144
0.0401511
0.0401619
0.040176
0.0401933
0.0402131
0.0402347
0.0402576
0.0402807
0.0403042
0.0403263
0.0403487
0.0403658
0.0403906
0.0404058
0.0404244
0.0404408
0.0404581
0.040476
0.0404946
0.040513
0.0405313
0.0405495
0.0405664
0.0405832
0.0405991
0.0406148
0.0406307
0.0406467
0.040663
0.040679
0.0406951
0.0407103
0.0407245
0.0407371
0.0407479
0.0407565
0.0407641
0.0407708
0.0407778
0.0407851
0.0407933
0.0408017
0.0408105
0.0408182
0.0408245
0.0408286
0.040831
0.0408303
0.0408285
0.0408259
0.0408228
0.0408198
0.0408172
0.040815
0.040813
0.0408108
0.0408079
0.0408037
0.0407975
0.0407886
0.0407767
0.0407619
0.0407449
0.0407269
0.0407098
0.0406952
0.0406844
0.040678
0.0406752
0.0406747
0.0591181
0.0435453
0.0433106
0.0432194
0.0431349
0.0430848
0.0430088
0.0429303
0.0428442
0.0427543
0.042662
0.0425734
0.0424873
0.0424052
0.0423265
0.042251
0.0421777
0.0421055
0.0420333
0.0419606
0.041887
0.0418121
0.0417357
0.0416575
0.0415772
0.0414948
0.0414103
0.0413242
0.0412369
0.0411492
0.0410616
0.0409748
0.0408892
0.0408056
0.0407248
0.0406472
0.0405734
0.0405038
0.0404391
0.0403798
0.0403264
0.040279
0.0402373
0.0402011
0.0401705
0.0401458
0.0401274
0.0401149
0.0401075
0.0401043
0.0401047
0.0401094
0.0401183
0.0401306
0.040146
0.0401641
0.0401842
0.0402055
0.040227
0.0402485
0.0402691
0.0402897
0.0403053
0.0403284
0.0403413
0.0403578
0.0403715
0.0403857
0.0404006
0.0404162
0.0404319
0.0404478
0.0404637
0.0404786
0.0404932
0.0405068
0.0405198
0.0405328
0.0405458
0.040559
0.0405719
0.0405849
0.0405972
0.0406087
0.0406188
0.0406278
0.0406351
0.0406418
0.0406481
0.0406549
0.0406622
0.0406702
0.0406781
0.0406864
0.0406926
0.0406974
0.0406995
0.0407
0.040698
0.0406946
0.0406904
0.0406864
0.040683
0.0406807
0.0406791
0.0406779
0.0406767
0.0406749
0.0406718
0.0406667
0.040659
0.0406483
0.0406345
0.0406183
0.0406012
0.0405848
0.0405709
0.0405607
0.0405548
0.0405526
0.0405532
0.0591237
0.0435401
0.0433058
0.0432158
0.043132
0.0430827
0.0430071
0.0429288
0.0428428
0.0427529
0.0426606
0.0425722
0.0424862
0.0424041
0.0423254
0.0422499
0.0421766
0.0421044
0.0420322
0.0419594
0.0418857
0.0418108
0.0417344
0.0416561
0.0415757
0.0414931
0.0414084
0.0413219
0.0412342
0.0411459
0.0410577
0.04097
0.0408835
0.0407988
0.0407166
0.0406375
0.0405621
0.0404908
0.0404241
0.0403628
0.0403073
0.0402578
0.040214
0.0401757
0.0401429
0.040116
0.0400954
0.0400807
0.0400713
0.0400663
0.0400649
0.0400672
0.0400741
0.0400845
0.040098
0.0401143
0.0401327
0.0401524
0.0401722
0.0401917
0.0402107
0.0402295
0.0402438
0.0402651
0.040276
0.0402906
0.0403019
0.0403133
0.0403251
0.0403378
0.0403506
0.0403641
0.0403776
0.0403906
0.0404031
0.0404145
0.040425
0.0404352
0.0404452
0.0404554
0.0404653
0.0404754
0.0404847
0.0404937
0.0405012
0.0405083
0.0405143
0.0405202
0.0405262
0.0405328
0.0405399
0.0405477
0.040555
0.0405623
0.0405669
0.0405701
0.0405702
0.040569
0.0405651
0.0405603
0.040555
0.0405507
0.0405475
0.0405458
0.0405448
0.0405443
0.0405438
0.0405427
0.0405405
0.0405365
0.0405299
0.0405201
0.0405071
0.0404916
0.040475
0.040459
0.0404456
0.0404359
0.0404303
0.0404284
0.0404297
0.0591291
0.0435346
0.0433009
0.0432121
0.043129
0.0430806
0.0430055
0.0429272
0.0428413
0.0427515
0.0426593
0.0425709
0.042485
0.0424029
0.0423243
0.0422488
0.0421755
0.0421033
0.042031
0.0419582
0.0418845
0.0418095
0.041733
0.0416546
0.0415741
0.0414913
0.0414064
0.0413196
0.0412315
0.0411427
0.0410538
0.0409653
0.0408778
0.040792
0.0407085
0.040628
0.0405509
0.0404779
0.0404093
0.040346
0.0402884
0.0402367
0.0401908
0.0401503
0.0401153
0.0400862
0.0400634
0.0400465
0.0400351
0.0400281
0.040025
0.0400254
0.0400298
0.0400382
0.0400498
0.0400643
0.040081
0.0400989
0.0401169
0.0401346
0.040152
0.0401691
0.0401822
0.0402016
0.0402106
0.0402234
0.0402324
0.0402413
0.0402504
0.0402603
0.0402705
0.0402814
0.0402922
0.0403027
0.0403128
0.0403215
0.0403291
0.0403362
0.0403433
0.0403506
0.0403579
0.0403653
0.0403718
0.0403783
0.0403833
0.0403882
0.0403925
0.0403971
0.0404024
0.0404085
0.0404155
0.0404227
0.0404296
0.0404358
0.0404392
0.0404409
0.0404396
0.0404367
0.0404312
0.0404254
0.0404197
0.0404156
0.0404131
0.040412
0.0404117
0.0404121
0.0404125
0.0404125
0.0404115
0.0404086
0.0404031
0.0403943
0.0403821
0.0403671
0.0403508
0.0403351
0.040322
0.0403128
0.0403077
0.040306
0.040308
0.059135
0.0435289
0.043296
0.0432084
0.0431261
0.0430785
0.0430038
0.0429257
0.0428399
0.0427501
0.042658
0.0425697
0.0424838
0.0424018
0.0423232
0.0422477
0.0421744
0.0421022
0.0420299
0.0419571
0.0418833
0.0418083
0.0417317
0.0416532
0.0415726
0.0414896
0.0414045
0.0413174
0.0412289
0.0411395
0.04105
0.0409607
0.0408723
0.0407853
0.0407005
0.0406185
0.0405399
0.040465
0.0403946
0.0403292
0.0402694
0.0402156
0.0401675
0.0401248
0.0400876
0.0400563
0.0400311
0.0400121
0.0399985
0.0399895
0.0399846
0.0399831
0.0399851
0.0399914
0.0400011
0.0400137
0.0400285
0.0400446
0.0400608
0.0400767
0.0400925
0.0401081
0.0401198
0.0401371
0.0401441
0.0401549
0.0401621
0.0401691
0.0401762
0.040184
0.0401918
0.0402
0.0402077
0.0402153
0.0402223
0.0402279
0.0402326
0.0402367
0.0402409
0.0402456
0.0402506
0.0402556
0.0402598
0.040264
0.0402667
0.0402694
0.0402719
0.0402751
0.0402794
0.0402847
0.0402911
0.0402972
0.0403035
0.0403082
0.0403102
0.0403102
0.0403074
0.0403029
0.0402961
0.0402896
0.0402836
0.0402798
0.0402777
0.040277
0.0402774
0.0402786
0.0402798
0.0402805
0.0402805
0.0402784
0.0402738
0.0402656
0.0402538
0.040239
0.0402227
0.0402071
0.040194
0.0401849
0.04018
0.0401784
0.0401807
0.0591417
0.0435231
0.043291
0.0432047
0.0431231
0.0430763
0.0430021
0.0429241
0.0428384
0.0427487
0.0426567
0.0425684
0.0424826
0.0424007
0.0423221
0.0422466
0.0421733
0.0421011
0.0420288
0.0419559
0.0418821
0.041807
0.0417303
0.0416518
0.041571
0.041488
0.0414026
0.0413152
0.0412263
0.0411364
0.0410462
0.0409561
0.0408668
0.0407787
0.0406926
0.0406092
0.0405289
0.0404523
0.0403799
0.0403125
0.0402506
0.0401946
0.0401443
0.0400995
0.04006
0.0400264
0.039999
0.0399777
0.0399619
0.0399509
0.039944
0.0399407
0.0399408
0.0399445
0.0399523
0.039963
0.0399759
0.0399901
0.0400045
0.0400188
0.0400331
0.0400471
0.0400573
0.0400723
0.0400771
0.0400855
0.0400908
0.0400962
0.0401015
0.0401074
0.040113
0.0401185
0.0401231
0.0401273
0.0401309
0.0401332
0.0401349
0.0401362
0.0401379
0.0401402
0.040143
0.0401456
0.0401474
0.0401492
0.0401495
0.04015
0.0401504
0.0401518
0.0401547
0.040159
0.0401644
0.0401692
0.0401747
0.0401778
0.0401786
0.040177
0.0401728
0.0401667
0.0401591
0.0401521
0.0401465
0.0401432
0.040142
0.040142
0.0401437
0.040146
0.0401476
0.040149
0.0401497
0.0401483
0.0401441
0.0401365
0.040125
0.0401103
0.040094
0.0400782
0.0400652
0.0400562
0.0400515
0.0400501
0.0400527
0.0591485
0.0435172
0.0432859
0.0432009
0.04312
0.0430741
0.0430004
0.0429225
0.0428369
0.0427473
0.0426554
0.0425672
0.0424814
0.0423995
0.042321
0.0422455
0.0421723
0.0421
0.0420277
0.0419548
0.0418809
0.0418057
0.041729
0.0416503
0.0415695
0.0414863
0.0414007
0.041313
0.0412237
0.0411333
0.0410424
0.0409516
0.0408613
0.0407722
0.0406848
0.0405999
0.040518
0.0404397
0.0403654
0.0402959
0.0402318
0.0401736
0.0401211
0.040074
0.0400323
0.0399964
0.0399666
0.039943
0.0399251
0.039912
0.039903
0.0398979
0.039896
0.0398974
0.0399029
0.0399118
0.0399228
0.0399351
0.0399476
0.0399603
0.0399728
0.0399851
0.0399936
0.0400062
0.0400086
0.0400146
0.0400179
0.0400212
0.0400245
0.0400284
0.0400317
0.0400347
0.0400365
0.0400378
0.0400385
0.040038
0.0400372
0.0400364
0.0400361
0.0400363
0.0400366
0.0400366
0.0400357
0.0400349
0.0400328
0.0400307
0.0400291
0.0400288
0.0400301
0.0400333
0.0400372
0.0400406
0.0400448
0.0400458
0.0400452
0.0400419
0.0400362
0.0400287
0.0400206
0.0400133
0.0400082
0.0400054
0.0400047
0.0400056
0.0400082
0.0400117
0.0400132
0.0400152
0.0400162
0.0400149
0.0400108
0.0400033
0.0399915
0.0399767
0.0399599
0.0399438
0.0399303
0.0399212
0.0399164
0.0399151
0.0399176
0.0591557
0.0435111
0.0432807
0.0431971
0.043117
0.0430719
0.0429987
0.0429209
0.0428354
0.0427459
0.0426541
0.0425659
0.0424803
0.0423984
0.0423199
0.0422444
0.0421712
0.0420989
0.0420266
0.0419536
0.0418797
0.0418044
0.0417276
0.0416489
0.041568
0.0414846
0.0413988
0.0413109
0.0412211
0.0411302
0.0410388
0.0409472
0.040856
0.0407658
0.0406771
0.0405908
0.0405073
0.0404272
0.040351
0.0402794
0.0402132
0.0401527
0.040098
0.0400487
0.0400047
0.0399664
0.0399343
0.0399084
0.0398883
0.0398731
0.039862
0.0398548
0.0398511
0.0398505
0.0398535
0.0398604
0.0398697
0.0398801
0.0398907
0.0399017
0.0399123
0.0399228
0.0399298
0.0399399
0.0399398
0.039943
0.0399438
0.0399447
0.0399454
0.0399466
0.039947
0.0399474
0.0399467
0.0399457
0.0399441
0.0399416
0.039939
0.0399367
0.039935
0.0399332
0.0399311
0.0399282
0.0399242
0.0399201
0.039915
0.0399101
0.0399065
0.0399045
0.0399039
0.0399055
0.0399076
0.0399097
0.039912
0.0399111
0.0399088
0.0399039
0.0398969
0.0398884
0.03988
0.039873
0.0398685
0.0398666
0.0398666
0.0398686
0.0398718
0.0398761
0.0398775
0.0398801
0.0398812
0.0398799
0.0398758
0.0398681
0.0398561
0.0398409
0.0398236
0.039807
0.039793
0.0397835
0.0397786
0.0397773
0.0397797
0.0591632
0.0435049
0.0432754
0.0431932
0.0431139
0.0430697
0.0429969
0.0429193
0.0428339
0.0427445
0.0426527
0.0425647
0.0424791
0.0423973
0.0423188
0.0422434
0.0421701
0.0420978
0.0420254
0.0419524
0.0418784
0.0418031
0.0417263
0.0416475
0.0415664
0.041483
0.041397
0.0413088
0.0412186
0.0411272
0.0410351
0.0409428
0.0408507
0.0407594
0.0406695
0.0405818
0.0404967
0.0404149
0.0403367
0.0402631
0.0401946
0.0401318
0.0400748
0.0400233
0.039977
0.0399364
0.0399018
0.0398736
0.0398512
0.0398338
0.0398207
0.0398113
0.0398056
0.0398032
0.039804
0.0398085
0.039816
0.0398246
0.0398334
0.0398426
0.0398511
0.0398596
0.0398648
0.0398729
0.0398707
0.0398715
0.0398694
0.0398673
0.0398648
0.0398627
0.0398598
0.0398575
0.0398547
0.0398518
0.0398486
0.0398447
0.039841
0.0398376
0.0398346
0.0398309
0.0398263
0.0398203
0.0398133
0.0398059
0.0397982
0.0397907
0.0397847
0.0397807
0.0397785
0.0397779
0.0397777
0.0397782
0.0397778
0.0397751
0.0397706
0.039764
0.0397557
0.0397465
0.0397378
0.039731
0.0397272
0.0397261
0.0397265
0.0397292
0.0397326
0.039737
0.0397385
0.0397413
0.0397419
0.0397402
0.0397359
0.0397277
0.0397154
0.0396996
0.0396817
0.0396642
0.0396496
0.0396396
0.0396344
0.039633
0.0396352
0.0591711
0.0434984
0.0432701
0.0431893
0.0431107
0.0430675
0.0429952
0.0429177
0.0428324
0.0427431
0.0426514
0.0425634
0.0424779
0.0423962
0.0423177
0.0422423
0.042169
0.0420967
0.0420243
0.0419513
0.0418772
0.0418019
0.0417249
0.0416461
0.0415649
0.0414813
0.0413952
0.0413066
0.0412162
0.0411243
0.0410316
0.0409385
0.0408455
0.0407532
0.0406621
0.0405729
0.0404862
0.0404026
0.0403226
0.0402468
0.0401762
0.0401111
0.0400518
0.039998
0.0399494
0.0399064
0.0398694
0.0398388
0.0398142
0.0397946
0.0397793
0.0397678
0.03976
0.0397557
0.0397547
0.0397567
0.0397621
0.039769
0.0397761
0.0397835
0.03979
0.0397963
0.0397995
0.0398058
0.039802
0.0398007
0.0397961
0.039791
0.0397851
0.0397791
0.0397727
0.0397672
0.039762
0.0397574
0.0397529
0.039748
0.0397432
0.0397388
0.0397341
0.0397282
0.0397208
0.0397116
0.0397014
0.0396909
0.0396806
0.0396706
0.0396623
0.039656
0.0396519
0.0396494
0.0396468
0.0396456
0.0396419
0.0396373
0.0396304
0.039622
0.0396123
0.0396024
0.0395936
0.0395872
0.0395838
0.0395832
0.0395843
0.0395873
0.0395908
0.0395949
0.0395963
0.0395988
0.0395989
0.0395968
0.0395921
0.0395833
0.0395706
0.0395541
0.0395356
0.0395173
0.0395019
0.0394912
0.0394857
0.0394842
0.0394861
0.0591791
0.0434918
0.0432647
0.0431854
0.0431075
0.0430652
0.0429934
0.042916
0.0428308
0.0427416
0.0426501
0.0425622
0.0424767
0.0423951
0.0423166
0.0422412
0.042168
0.0420956
0.0420232
0.0419501
0.041876
0.0418006
0.0417236
0.0416446
0.0415634
0.0414797
0.0413933
0.0413046
0.0412137
0.0411214
0.041028
0.0409342
0.0408404
0.040747
0.0406547
0.0405641
0.0404759
0.0403905
0.0403086
0.0402307
0.0401578
0.0400904
0.0400288
0.0399726
0.0399217
0.0398763
0.0398369
0.0398038
0.0397769
0.0397551
0.0397377
0.0397241
0.039714
0.0397076
0.0397048
0.0397048
0.0397077
0.0397129
0.0397183
0.0397239
0.0397284
0.0397326
0.0397334
0.0397378
0.0397328
0.0397304
0.039724
0.0397165
0.0397081
0.039699
0.0396892
0.0396805
0.0396722
0.039665
0.0396582
0.0396516
0.0396452
0.0396391
0.0396326
0.0396245
0.0396146
0.0396027
0.03959
0.0395768
0.0395641
0.0395516
0.0395408
0.0395322
0.0395257
0.0395207
0.0395156
0.0395124
0.0395054
0.0394985
0.0394892
0.0394788
0.0394677
0.0394571
0.0394481
0.0394417
0.0394384
0.0394379
0.0394391
0.0394422
0.0394455
0.0394489
0.0394496
0.0394511
0.0394507
0.0394478
0.0394422
0.0394326
0.0394193
0.0394023
0.039383
0.0393636
0.0393471
0.0393356
0.0393296
0.0393279
0.0393295
0.0591876
0.043485
0.0432592
0.0431814
0.0431043
0.0430629
0.0429916
0.0429144
0.0428293
0.0427402
0.0426487
0.0425609
0.0424756
0.0423939
0.0423155
0.0422402
0.0421669
0.0420946
0.0420221
0.041949
0.0418748
0.0417993
0.0417222
0.0416432
0.0415619
0.041478
0.0413915
0.0413025
0.0412113
0.0411185
0.0410246
0.04093
0.0408353
0.0407409
0.0406474
0.0405554
0.0404656
0.0403786
0.0402947
0.0402148
0.0401396
0.0400699
0.0400059
0.0399474
0.0398942
0.0398463
0.0398044
0.0397688
0.0397395
0.0397156
0.039696
0.0396803
0.0396681
0.0396595
0.0396546
0.0396528
0.0396536
0.0396566
0.0396602
0.0396642
0.0396666
0.0396689
0.0396672
0.0396695
0.039663
0.0396591
0.0396515
0.0396426
0.039633
0.0396224
0.0396107
0.0395994
0.0395876
0.0395766
0.0395659
0.0395557
0.0395462
0.0395372
0.039528