/*--------------------------------*- C++ -*----------------------------------*\
| =========                 |                                                 |
| \\      /  F ield         | OpenFOAM: The Open Source CFD Toolbox           |
|  \\    /   O peration     | Version:  2412                                  |
|   \\  /    A nd           | Website:  www.openfoam.com                      |
|    \\/     M anipulation  |                                                 |
\*---------------------------------------------------------------------------*/
FoamFile
{
    version     2.0;
    format      ascii;
    arch        "LSB;label=32;scalar=64";
    class       volScalarField;
    location    "0.063";
    object      p;
}
// * * * * * * * * * * * * * * * * * * * * * * * * * * * * * * * * * * * * * //

dimensions      [1 -1 -2 0 0 0 0];

internalField   nonuniform List<scalar> 
9831
(
1549.86
2482.84
1545.3
2481.22
2598.7
2595.49
2599.27
2606.03
2612.48
2618.58
2624.79
2631.24
2637.78
2644.35
2650.88
2657.35
2663.72
2669.93
2675.97
2681.92
2687.85
2693.73
2699.43
2705.01
2710.86
2717.46
2725.11
2733.84
2743.41
2753.48
2763.67
2773.68
2783.31
2792.51
2801.28
2809.68
2817.72
2825.42
2832.79
2839.88
2846.75
2853.45
2859.97
2866.3
2872.43
2878.34
2884.01
2889.44
2894.6
2899.5
2904.11
2908.42
1540.96
2479.63
2597.75
2594.65
2598.67
2605.59
2612.11
2618.23
2624.46
2630.91
2637.44
2643.99
2650.52
2656.98
2663.35
2669.57
2675.63
2681.6
2687.56
2693.46
2699.19
2704.82
2710.73
2717.4
2725.15
2733.98
2743.65
2753.79
2764.02
2774.03
2783.65
2792.83
2801.59
2809.97
2817.98
2825.66
2833
2840.08
2846.95
2853.63
2860.14
2866.47
2872.58
2878.47
2884.13
2889.54
2894.7
2899.58
2904.17
2908.47
2912.46
2916.12
1536.41
2478.09
2596.79
2593.83
2598.09
2605.18
2611.76
2617.9
2624.14
2630.58
2637.11
2643.65
2650.17
2656.62
2662.98
2669.21
2675.29
2681.28
2687.27
2693.2
2698.96
2704.62
2710.59
2717.35
2725.2
2734.13
2743.89
2754.1
2764.36
2774.38
2783.99
2793.15
2801.89
2810.25
2818.24
2825.89
2833.22
2840.28
2847.14
2853.81
2860.32
2866.63
2872.73
2878.61
2884.25
2889.65
2894.79
2899.66
2904.24
2908.52
2912.5
2916.15
2919.49
2922.51
1532.03
2476.53
2595.84
2593.02
2597.53
2604.78
2611.41
2617.58
2623.83
2630.27
2636.79
2643.32
2649.82
2656.26
2662.62
2668.86
2674.95
2680.97
2686.98
2692.94
2698.73
2704.44
2710.46
2717.3
2725.25
2734.29
2744.14
2754.41
2764.71
2774.73
2784.33
2793.47
2802.19
2810.52
2818.5
2826.12
2833.43
2840.48
2847.33
2854
2860.49
2866.79
2872.88
2878.74
2884.37
2889.76
2894.88
2899.74
2904.31
2908.58
2912.54
2916.19
2919.52
2922.54
2925.23
2927.55
2929.52
2931.15
2932.45
2933.43
2934.12
2934.44
2934.38
2934.03
2933.35
2932.35
2931.06
2929.5
2927.69
2925.64
2923.37
2920.91
2918.27
2915.46
2912.5
2909.42
2906.21
2902.92
2899.54
2896.1
2892.61
2889.08
2885.53
2881.98
2878.41
2874.88
2871.35
2867.87
2864.41
2861.01
2857.66
2854.37
2851.15
2847.99
2844.9
2841.89
2838.95
2836.09
2833.31
2830.62
2828
2825.46
2823.01
2820.63
2818.34
2816.13
2813.99
2811.93
2809.94
2808.03
2806.19
2804.43
2802.73
2801.09
2799.53
2798.02
2796.57
2795.34
2793.97
1528.37
2475.01
2594.89
2592.24
2597
2604.4
2611.08
2617.27
2623.53
2629.97
2636.47
2642.99
2649.48
2655.91
2662.27
2668.51
2674.62
2680.66
2686.7
2692.68
2698.5
2704.25
2710.34
2717.26
2725.31
2734.45
2744.39
2754.73
2765.05
2775.08
2784.66
2793.79
2802.48
2810.8
2818.75
2826.35
2833.64
2840.68
2847.51
2854.18
2860.66
2866.95
2873.02
2878.87
2884.49
2889.86
2894.98
2899.82
2904.38
2908.64
2912.59
2916.23
2919.57
2922.58
2925.26
2927.58
2929.55
2931.19
2932.52
2933.52
2934.22
2934.57
2934.54
2934.2
2933.54
2932.57
2931.33
2929.83
2928.08
2926.11
2923.92
2921.55
2918.99
2916.28
2913.42
2910.44
2907.33
2904.14
2900.87
2897.54
2894.15
2890.74
2887.3
2883.86
2880.41
2876.99
2873.58
2870.21
2866.87
2863.58
2860.35
2857.17
2854.05
2851.01
2848.03
2845.12
2842.29
2839.53
2836.85
2834.25
2831.73
2829.29
2826.93
2824.64
2822.43
2820.3
2818.25
2816.27
2814.36
2812.52
2810.76
2809.06
2807.43
2805.86
2804.36
2802.91
2801.52
2800.36
2799.04
2798.25
2795.74
1524.23
2473.53
2593.94
2591.47
2596.49
2604.04
2610.77
2616.97
2623.25
2629.68
2636.17
2642.68
2649.15
2655.57
2661.92
2668.17
2674.29
2680.35
2686.42
2692.43
2698.28
2704.07
2710.22
2717.23
2725.38
2734.62
2744.65
2755.05
2765.4
2775.42
2784.99
2794.1
2802.77
2811.07
2819
2826.58
2833.85
2840.87
2847.7
2854.35
2860.83
2867.1
2873.16
2879
2884.61
2889.97
2895.07
2899.9
2904.45
2908.7
2912.65
2916.29
2919.62
2922.63
2925.29
2927.61
2929.59
2931.26
2932.61
2933.65
2934.35
2934.72
2934.72
2934.41
2933.77
2932.86
2931.68
2930.24
2928.57
2926.68
2924.59
2922.3
2919.84
2917.23
2914.47
2911.58
2908.59
2905.5
2902.34
2899.12
2895.84
2892.55
2889.22
2885.9
2882.57
2879.26
2875.97
2872.71
2869.49
2866.32
2863.2
2860.14
2857.13
2854.2
2851.32
2848.52
2845.8
2843.14
2840.57
2838.07
2835.64
2833.29
2831.02
2828.82
2826.7
2824.65
2822.68
2820.78
2818.95
2817.18
2815.49
2813.86
2812.29
2810.79
2809.35
2807.96
2806.63
2805.55
2804.27
2803.55
2801.1
1520.61
2472.05
2592.98
2590.72
2596
2603.69
2610.46
2616.69
2622.97
2629.4
2635.88
2642.37
2648.82
2655.23
2661.58
2667.84
2673.97
2680.05
2686.15
2692.18
2698.06
2703.89
2710.11
2717.2
2725.45
2734.8
2744.92
2755.37
2765.74
2775.76
2785.32
2794.4
2803.06
2811.34
2819.24
2826.8
2834.05
2841.07
2847.88
2854.53
2860.99
2867.25
2873.3
2879.13
2884.72
2890.07
2895.17
2899.99
2904.52
2908.77
2912.71
2916.35
2919.68
2922.68
2925.34
2927.67
2929.66
2931.36
2932.74
2933.8
2934.51
2934.9
2934.93
2934.65
2934.06
2933.2
2932.09
2930.73
2929.15
2927.34
2925.34
2923.15
2920.79
2918.27
2915.61
2912.83
2909.95
2906.97
2903.92
2900.81
2897.65
2894.47
2891.26
2888.06
2884.85
2881.66
2878.49
2875.36
2872.26
2869.21
2866.2
2863.26
2860.37
2857.55
2854.79
2852.1
2849.48
2846.93
2844.45
2842.05
2839.72
2837.47
2835.29
2833.18
2831.15
2829.19
2827.29
2825.47
2823.71
2822.02
2820.4
2818.84
2817.34
2815.9
2814.53
2813.21
2811.92
2810.93
2809.68
2809.02
2806.64
1516.75
2470.58
2592.02
2590
2595.53
2603.35
2610.17
2616.41
2622.71
2629.13
2635.6
2642.07
2648.51
2654.9
2661.25
2667.51
2673.66
2679.76
2685.87
2691.94
2697.85
2703.72
2710
2717.17
2725.53
2734.98
2745.18
2755.69
2766.08
2776.1
2785.64
2794.71
2803.35
2811.6
2819.48
2827.02
2834.26
2841.26
2848.07
2854.7
2861.15
2867.4
2873.44
2879.26
2884.84
2890.18
2895.26
2900.07
2904.6
2908.84
2912.77
2916.41
2919.74
2922.74
2925.41
2927.74
2929.76
2931.48
2932.89
2933.96
2934.69
2935.11
2935.18
2934.93
2934.4
2933.61
2932.58
2931.31
2929.82
2928.11
2926.2
2924.1
2921.84
2919.42
2916.87
2914.2
2911.42
2908.55
2905.62
2902.63
2899.59
2896.53
2893.45
2890.36
2887.28
2884.22
2881.17
2878.16
2875.19
2872.26
2869.37
2866.55
2863.78
2861.07
2858.42
2855.84
2853.33
2850.89
2848.52
2846.21
2843.98
2841.83
2839.74
2837.72
2835.77
2833.89
2832.08
2830.33
2828.65
2827.03
2825.48
2823.99
2822.55
2821.17
2819.86
2818.61
2817.37
2816.42
2815.21
2814.62
2812.29
1513.59
2469.14
2591.06
2589.29
2595.09
2603.03
2609.89
2616.15
2622.45
2628.87
2635.32
2641.77
2648.2
2654.58
2660.92
2667.18
2673.35
2679.47
2685.61
2691.69
2697.63
2703.55
2709.89
2717.16
2725.62
2735.17
2745.46
2756.01
2766.42
2776.44
2785.96
2795.01
2803.63
2811.86
2819.72
2827.24
2834.46
2841.45
2848.25
2854.87
2861.31
2867.55
2873.58
2879.38
2884.95
2890.28
2895.35
2900.16
2904.68
2908.91
2912.84
2916.48
2919.81
2922.81
2925.48
2927.83
2929.88
2931.63
2933.06
2934.15
2934.9
2935.34
2935.45
2935.26
2934.8
2934.09
2933.15
2931.96
2930.56
2928.94
2927.13
2925.13
2922.97
2920.65
2918.2
2915.64
2912.98
2910.23
2907.41
2904.55
2901.63
2898.7
2895.75
2892.79
2889.84
2886.91
2883.99
2881.11
2878.26
2875.46
2872.7
2870
2867.35
2864.76
2862.23
2859.76
2857.36
2855.03
2852.76
2850.56
2848.43
2846.37
2844.37
2842.44
2840.58
2838.79
2837.06
2835.39
2833.78
2832.24
2830.75
2829.33
2827.96
2826.64
2825.39
2824.22
2823.03
2822.1
2820.95
2820.43
2818.16
1509.82
2467.72
2590.1
2588.6
2594.66
2602.71
2609.61
2615.89
2622.21
2628.62
2635.05
2641.49
2647.89
2654.26
2660.6
2666.87
2673.04
2679.18
2685.34
2691.45
2697.42
2703.38
2709.79
2717.14
2725.71
2735.37
2745.73
2756.33
2766.76
2776.77
2786.28
2795.31
2803.91
2812.11
2819.95
2827.45
2834.66
2841.63
2848.43
2855.04
2861.47
2867.7
2873.71
2879.5
2885.07
2890.39
2895.45
2900.24
2904.76
2908.99
2912.92
2916.56
2919.88
2922.89
2925.57
2927.94
2930.02
2931.79
2933.24
2934.35
2935.12
2935.61
2935.78
2935.65
2935.27
2934.65
2933.79
2932.7
2931.39
2929.86
2928.14
2926.24
2924.18
2921.97
2919.63
2917.19
2914.64
2912.02
2909.33
2906.59
2903.81
2901.01
2898.19
2895.37
2892.56
2889.76
2886.98
2884.23
2881.51
2878.84
2876.21
2873.63
2871.1
2868.63
2866.22
2863.87
2861.58
2859.35
2857.19
2855.09
2853.06
2851.1
2849.2
2847.36
2845.58
2843.87
2842.22
2840.63
2839.1
2837.63
2836.21
2834.85
2833.55
2832.29
2831.1
2830.01
2828.86
2827.97
2826.88
2826.42
2824.2
1506.95
2466.29
2589.13
2587.92
2594.25
2602.41
2609.35
2615.65
2621.97
2628.37
2634.79
2641.21
2647.59
2653.95
2660.28
2666.55
2672.74
2678.9
2685.08
2691.22
2697.22
2703.22
2709.69
2717.14
2725.81
2735.57
2746.01
2756.65
2767.09
2777.1
2786.59
2795.61
2804.18
2812.37
2820.18
2827.66
2834.85
2841.82
2848.6
2855.21
2861.63
2867.84
2873.84
2879.62
2885.18
2890.49
2895.54
2900.33
2904.84
2909.07
2913
2916.64
2919.97
2922.98
2925.67
2928.07
2930.17
2931.97
2933.44
2934.57
2935.38
2935.91
2936.14
2936.1
2935.8
2935.26
2934.49
2933.49
2932.27
2930.84
2929.22
2927.42
2925.46
2923.36
2921.14
2918.81
2916.4
2913.9
2911.35
2908.75
2906.11
2903.45
2900.77
2898.09
2895.41
2892.75
2890.11
2887.5
2884.92
2882.38
2879.88
2877.43
2875.03
2872.68
2870.39
2868.16
2865.98
2863.87
2861.81
2859.82
2857.89
2856.02
2854.22
2852.47
2850.78
2849.16
2847.59
2846.08
2844.62
2843.22
2841.87
2840.58
2839.34
2838.15
2837
2835.99
2834.89
2834.03
2833.01
2832.61
2830.45
1503.62
2464.89
2588.16
2587.27
2593.86
2602.12
2609.09
2615.41
2621.74
2628.13
2634.54
2640.94
2647.3
2653.65
2659.97
2666.24
2672.44
2678.62
2684.83
2690.99
2697.01
2703.06
2709.6
2717.14
2725.92
2735.78
2746.29
2756.98
2767.43
2777.42
2786.9
2795.9
2804.46
2812.62
2820.41
2827.87
2835.04
2842
2848.78
2855.38
2861.78
2867.98
2873.97
2879.74
2885.29
2890.59
2895.64
2900.42
2904.92
2909.15
2913.09
2916.72
2920.06
2923.08
2925.79
2928.21
2930.35
2932.17
2933.65
2934.81
2935.66
2936.25
2936.57
2936.61
2936.39
2935.94
2935.27
2934.35
2933.22
2931.88
2930.36
2928.66
2926.82
2924.84
2922.75
2920.55
2918.27
2915.92
2913.5
2911.05
2908.55
2906.04
2903.5
2900.97
2898.44
2895.93
2893.43
2890.96
2888.51
2886.11
2883.74
2881.42
2879.15
2876.93
2874.75
2872.64
2870.58
2868.57
2866.63
2864.74
2862.91
2861.14
2859.42
2857.77
2856.17
2854.62
2853.14
2851.7
2850.32
2848.99
2847.71
2846.49
2845.31
2844.18
2843.09
2842.14
2841.08
2840.26
2839.31
2838.97
2836.85
1500.87
2463.53
2587.18
2586.63
2593.48
2601.83
2608.84
2615.18
2621.52
2627.9
2634.29
2640.67
2647.02
2653.35
2659.67
2665.94
2672.15
2678.34
2684.57
2690.76
2696.81
2702.91
2709.51
2717.15
2726.03
2735.99
2746.58
2757.3
2767.76
2777.75
2787.21
2796.19
2804.72
2812.86
2820.63
2828.07
2835.24
2842.18
2848.95
2855.54
2861.93
2868.12
2874.1
2879.86
2885.4
2890.69
2895.73
2900.51
2905.01
2909.23
2913.17
2916.82
2920.15
2923.19
2925.92
2928.38
2930.53
2932.37
2933.88
2935.07
2935.98
2936.64
2937.05
2937.17
2937.02
2936.67
2936.08
2935.25
2934.21
2932.97
2931.55
2929.97
2928.25
2926.4
2924.44
2922.38
2920.24
2918.04
2915.77
2913.46
2911.12
2908.76
2906.38
2904
2901.62
2899.25
2896.9
2894.57
2892.27
2890
2887.77
2885.58
2883.44
2881.34
2879.29
2877.3
2875.35
2873.46
2871.62
2869.84
2868.11
2866.44
2864.82
2863.25
2861.74
2860.28
2858.87
2857.51
2856.2
2854.95
2853.74
2852.57
2851.46
2850.38
2849.35
2848.46
2847.46
2846.68
2845.78
2845.5
2843.44
1497.81
2462.16
2586.2
2586.01
2593.12
2601.56
2608.6
2614.96
2621.3
2627.68
2634.05
2640.41
2646.74
2653.05
2659.37
2665.64
2671.86
2678.07
2684.32
2690.53
2696.62
2702.76
2709.43
2717.16
2726.15
2736.21
2746.87
2757.62
2768.09
2778.07
2787.52
2796.47
2804.99
2813.11
2820.85
2828.27
2835.43
2842.36
2849.12
2855.7
2862.08
2868.26
2874.23
2879.98
2885.5
2890.79
2895.83
2900.6
2905.1
2909.32
2913.26
2916.91
2920.26
2923.31
2926.07
2928.55
2930.73
2932.59
2934.13
2935.37
2936.35
2937.08
2937.57
2937.79
2937.72
2937.45
2936.94
2936.2
2935.26
2934.12
2932.82
2931.37
2929.77
2928.06
2926.24
2924.34
2922.35
2920.3
2918.19
2916.04
2913.85
2911.65
2909.42
2907.19
2904.96
2902.75
2900.54
2898.36
2896.2
2894.07
2891.98
2889.92
2887.9
2885.93
2884.01
2882.13
2880.3
2878.51
2876.78
2875.1
2873.47
2871.9
2870.37
2868.89
2867.47
2866.09
2864.76
2863.48
2862.25
2861.06
2859.92
2858.82
2857.76
2856.75
2855.77
2854.94
2853.99
2853.25
2852.41
2852.19
2850.18
1495.13
2460.81
2585.22
2585.4
2592.78
2601.29
2608.37
2614.75
2621.1
2627.46
2633.82
2640.16
2646.46
2652.76
2659.07
2665.35
2671.57
2677.8
2684.08
2690.31
2696.42
2702.61
2709.36
2717.18
2726.28
2736.43
2747.16
2757.94
2768.42
2778.39
2787.82
2796.76
2805.25
2813.35
2821.07
2828.48
2835.61
2842.54
2849.29
2855.86
2862.23
2868.39
2874.35
2880.09
2885.61
2890.89
2895.92
2900.69
2905.19
2909.42
2913.36
2917.01
2920.37
2923.44
2926.23
2928.73
2930.94
2932.82
2934.4
2935.7
2936.75
2937.56
2938.12
2938.43
2938.46
2938.25
2937.83
2937.19
2936.35
2935.33
2934.15
2932.83
2931.38
2929.81
2928.15
2926.4
2924.57
2922.67
2920.72
2918.73
2916.71
2914.66
2912.59
2910.52
2908.44
2906.38
2904.32
2902.28
2900.26
2898.28
2896.32
2894.4
2892.51
2890.67
2888.86
2887.1
2885.39
2883.72
2882.1
2880.52
2878.99
2877.51
2876.08
2874.69
2873.35
2872.05
2870.8
2869.6
2868.44
2867.32
2866.24
2865.21
2864.22
2863.26
2862.33
2861.57
2860.66
2859.98
2859.18
2859.01
2857.05
1492.69
2459.47
2584.23
2584.82
2592.45
2601.03
2608.15
2614.55
2620.9
2627.26
2633.59
2639.91
2646.2
2652.48
2658.78
2665.06
2671.29
2677.54
2683.83
2690.08
2696.23
2702.46
2709.28
2717.2
2726.41
2736.66
2747.45
2758.27
2768.74
2778.7
2788.12
2797.04
2805.51
2813.58
2821.29
2828.67
2835.8
2842.72
2849.46
2856.01
2862.37
2868.52
2874.47
2880.2
2885.71
2890.99
2896.01
2900.78
2905.28
2909.51
2913.46
2917.12
2920.49
2923.58
2926.4
2928.93
2931.15
2933.07
2934.7
2936.07
2937.2
2938.08
2938.73
2939.12
2939.23
2939.1
2938.77
2938.23
2937.51
2936.62
2935.58
2934.4
2933.1
2931.69
2930.18
2928.59
2926.92
2925.19
2923.41
2921.58
2919.71
2917.82
2915.91
2914
2912.07
2910.16
2908.25
2906.36
2904.48
2902.63
2900.81
2899.02
2897.27
2895.55
2893.86
2892.22
2890.62
2889.06
2887.54
2886.07
2884.64
2883.26
2881.92
2880.62
2879.36
2878.15
2876.98
2875.85
2874.76
2873.71
2872.71
2871.74
2870.81
2869.91
2869.04
2868.33
2867.48
2866.84
2866.09
2865.94
2864.08
1489.87
2458.15
2583.23
2584.25
2592.14
2600.78
2607.93
2614.35
2620.71
2627.05
2633.37
2639.67
2645.93
2652.2
2658.49
2664.77
2671.02
2677.28
2683.59
2689.87
2696.04
2702.32
2709.22
2717.24
2726.55
2736.89
2747.74
2758.59
2769.07
2779.02
2788.42
2797.32
2805.77
2813.82
2821.5
2828.87
2835.98
2842.89
2849.62
2856.17
2862.51
2868.65
2874.59
2880.31
2885.82
2891.09
2896.11
2900.87
2905.37
2909.61
2913.56
2917.23
2920.62
2923.74
2926.58
2929.13
2931.38
2933.34
2935.02
2936.47
2937.68
2938.64
2939.35
2939.82
2940.02
2939.98
2939.74
2939.32
2938.72
2937.97
2937.07
2936.05
2934.9
2933.65
2932.31
2930.88
2929.37
2927.81
2926.18
2924.52
2922.81
2921.08
2919.33
2917.57
2915.81
2914.04
2912.28
2910.54
2908.81
2907.1
2905.41
2903.76
2902.13
2900.54
2898.98
2897.46
2895.97
2894.53
2893.12
2891.75
2890.42
2889.13
2887.89
2886.68
2885.51
2884.38
2883.29
2882.24
2881.22
2880.24
2879.3
2878.39
2877.53
2876.68
2875.87
2875.22
2874.41
2873.83
2873.12
2872.99
2871.22
1487.79
2456.84
2582.23
2583.69
2591.84
2600.54
2607.72
2614.16
2620.52
2626.86
2633.16
2639.43
2645.68
2651.93
2658.21
2664.49
2670.74
2677.02
2683.35
2689.65
2695.86
2702.19
2709.16
2717.27
2726.7
2737.13
2748.04
2758.91
2769.39
2779.33
2788.71
2797.59
2806.02
2814.05
2821.71
2829.07
2836.17
2843.07
2849.79
2856.32
2862.65
2868.78
2874.71
2880.42
2885.92
2891.18
2896.2
2900.96
2905.47
2909.7
2913.67
2917.35
2920.76
2923.9
2926.76
2929.34
2931.63
2933.63
2935.38
2936.9
2938.19
2939.23
2940.01
2940.55
2940.85
2940.92
2940.78
2940.48
2940.02
2939.42
2938.68
2937.81
2936.83
2935.74
2934.56
2933.29
2931.95
2930.55
2929.09
2927.58
2926.04
2924.47
2922.88
2921.28
2919.66
2918.05
2916.44
2914.84
2913.26
2911.69
2910.14
2908.62
2907.13
2905.66
2904.22
2902.82
2901.45
2900.11
2898.81
2897.55
2896.32
2895.13
2893.98
2892.86
2891.78
2890.73
2889.72
2888.74
2887.8
2886.89
2886.02
2885.18
2884.38
2883.59
2882.84
2882.25
2881.49
2880.95
2880.29
2880.18
2878.51
1485.29
2455.56
2581.21
2583.16
2591.56
2600.3
2607.52
2613.97
2620.34
2626.67
2632.95
2639.2
2645.42
2651.66
2657.93
2664.21
2670.47
2676.76
2683.11
2689.44
2695.68
2702.05
2709.1
2717.32
2726.85
2737.37
2748.33
2759.23
2769.71
2779.64
2789
2797.86
2806.27
2814.28
2821.92
2829.26
2836.35
2843.24
2849.95
2856.47
2862.79
2868.9
2874.82
2880.53
2886.02
2891.28
2896.29
2901.06
2905.56
2909.81
2913.78
2917.47
2920.9
2924.07
2926.96
2929.57
2931.89
2933.94
2935.77
2937.37
2938.73
2939.83
2940.69
2941.3
2941.7
2941.88
2941.87
2941.7
2941.38
2940.93
2940.35
2939.64
2938.82
2937.89
2936.88
2935.77
2934.6
2933.35
2932.06
2930.72
2929.34
2927.93
2926.5
2925.05
2923.6
2922.14
2920.68
2919.24
2917.8
2916.37
2914.97
2913.58
2912.22
2910.89
2909.58
2908.3
2907.05
2905.83
2904.64
2903.48
2902.36
2901.26
2900.2
2899.18
2898.18
2897.22
2896.29
2895.4
2894.53
2893.69
2892.89
2892.11
2891.37
2890.66
2889.95
2889.43
2888.71
2888.22
2887.6
2887.52
2885.95
1483.2
2454.29
2580.19
2582.63
2591.28
2600.07
2607.32
2613.79
2620.17
2626.48
2632.75
2638.98
2645.18
2651.39
2657.65
2663.93
2670.2
2676.51
2682.88
2689.23
2695.5
2701.92
2709.05
2717.37
2727.01
2737.61
2748.63
2759.54
2770.02
2779.94
2789.29
2798.13
2806.52
2814.5
2822.13
2829.45
2836.53
2843.41
2850.1
2856.61
2862.92
2869.03
2874.93
2880.64
2886.12
2891.38
2896.39
2901.15
2905.66
2909.91
2913.89
2917.6
2921.05
2924.24
2927.16
2929.8
2932.16
2934.28
2936.18
2937.86
2939.29
2940.46
2941.39
2942.1
2942.59
2942.91
2943.04
2943
2942.84
2942.55
2942.12
2941.57
2940.91
2940.15
2939.3
2938.36
2937.34
2936.27
2935.13
2933.96
2932.74
2931.5
2930.23
2928.94
2927.65
2926.35
2925.05
2923.75
2922.46
2921.19
2919.92
2918.68
2917.45
2916.24
2915.06
2913.9
2912.77
2911.67
2910.59
2909.54
2908.52
2907.53
2906.56
2905.63
2904.72
2903.85
2903
2902.18
2901.39
2900.63
2899.89
2899.19
2898.51
2897.87
2897.23
2896.76
2896.09
2895.65
2895.08
2895.02
2893.57
1481.26
2453.07
2579.17
2582.12
2591.01
2599.85
2607.13
2613.62
2620
2626.3
2632.55
2638.76
2644.93
2651.13
2657.38
2663.66
2669.94
2676.26
2682.65
2689.02
2695.32
2701.8
2709
2717.43
2727.17
2737.86
2748.93
2759.86
2770.34
2780.25
2789.58
2798.4
2806.77
2814.73
2822.33
2829.64
2836.71
2843.58
2850.26
2856.76
2863.05
2869.15
2875.05
2880.74
2886.22
2891.47
2896.48
2901.24
2905.76
2910.01
2914
2917.73
2921.21
2924.42
2927.37
2930.04
2932.46
2934.65
2936.62
2938.37
2939.86
2941.1
2942.11
2942.91
2943.52
2943.97
2944.25
2944.38
2944.36
2944.21
2943.95
2943.56
2943.05
2942.45
2941.76
2940.98
2940.13
2939.22
2938.25
2937.25
2936.2
2935.12
2934.02
2932.9
2931.77
2930.64
2929.49
2928.36
2927.22
2926.1
2924.98
2923.88
2922.79
2921.72
2920.67
2919.64
2918.63
2917.64
2916.68
2915.74
2914.83
2913.94
2913.08
2912.24
2911.42
2910.64
2909.87
2909.14
2908.42
2907.73
2907.07
2906.43
2905.82
2905.25
2904.66
2904.24
2903.61
2903.23
2902.7
2902.65
2901.3
1479.45
2451.88
2578.16
2581.6
2590.75
2599.63
2606.94
2613.45
2619.84
2626.13
2632.36
2638.54
2644.7
2650.88
2657.12
2663.39
2669.68
2676.01
2682.42
2688.81
2695.14
2701.68
2708.96
2717.49
2727.34
2738.11
2749.23
2760.18
2770.65
2780.55
2789.87
2798.67
2807.01
2814.95
2822.54
2829.83
2836.88
2843.74
2850.41
2856.9
2863.18
2869.27
2875.15
2880.84
2886.32
2891.56
2896.57
2901.34
2905.85
2910.12
2914.12
2917.87
2921.37
2924.61
2927.59
2930.3
2932.78
2935.04
2937.08
2938.89
2940.45
2941.76
2942.87
2943.78
2944.52
2945.1
2945.53
2945.82
2945.96
2945.97
2945.85
2945.62
2945.28
2944.83
2944.3
2943.69
2943.01
2942.27
2941.48
2940.64
2939.77
2938.86
2937.94
2936.99
2936.03
2935.06
2934.08
2933.1
2932.12
2931.15
2930.18
2929.22
2928.28
2927.34
2926.42
2925.52
2924.64
2923.77
2922.92
2922.09
2921.28
2920.5
2919.73
2918.99
2918.26
2917.56
2916.88
2916.23
2915.59
2914.97
2914.38
2913.81
2913.26
2912.78
2912.24
2911.86
2911.29
2910.97
2910.48
2910.46
2909.21
1477.46
2450.71
2577.15
2581.1
2590.49
2599.42
2606.76
2613.29
2619.68
2625.96
2632.17
2638.33
2644.46
2650.62
2656.85
2663.13
2669.42
2675.77
2682.19
2688.6
2694.97
2701.56
2708.93
2717.56
2727.51
2738.37
2749.53
2760.49
2770.97
2780.85
2790.15
2798.93
2807.25
2815.17
2822.74
2830.01
2837.06
2843.9
2850.56
2857.03
2863.31
2869.38
2875.26
2880.94
2886.41
2891.65
2896.66
2901.43
2905.95
2910.23
2914.24
2918.01
2921.53
2924.8
2927.81
2930.58
2933.11
2935.44
2937.55
2939.42
2941.04
2942.44
2943.65
2944.69
2945.56
2946.29
2946.86
2947.3
2947.6
2947.76
2947.78
2947.7
2947.51
2947.24
2946.87
2946.43
2945.92
2945.36
2944.75
2944.09
2943.39
2942.67
2941.92
2941.15
2940.36
2939.56
2938.75
2937.94
2937.12
2936.31
2935.49
2934.69
2933.88
2933.09
2932.31
2931.54
2930.78
2930.04
2929.31
2928.59
2927.9
2927.22
2926.55
2925.91
2925.28
2924.67
2924.07
2923.5
2922.94
2922.4
2921.88
2921.38
2920.9
2920.5
2920.01
2919.67
2919.17
2918.9
2918.45
2918.45
2917.32
1475.9
2449.56
2576.15
2580.6
2590.23
2599.21
2606.59
2613.13
2619.52
2625.8
2631.99
2638.13
2644.24
2650.38
2656.59
2662.87
2669.16
2675.53
2681.97
2688.4
2694.8
2701.44
2708.89
2717.63
2727.69
2738.62
2749.83
2760.81
2771.28
2781.14
2790.43
2799.19
2807.49
2815.38
2822.93
2830.19
2837.23
2844.06
2850.71
2857.17
2863.43
2869.49
2875.37
2881.04
2886.5
2891.74
2896.75
2901.52
2906.05
2910.34
2914.37
2918.16
2921.7
2925
2928.05
2930.86
2933.47
2935.86
2938.04
2939.97
2941.66
2943.16
2944.49
2945.65
2946.66
2947.54
2948.26
2948.84
2949.29
2949.6
2949.78
2949.86
2949.83
2949.72
2949.52
2949.26
2948.94
2948.56
2948.13
2947.66
2947.15
2946.61
2946.04
2945.45
2944.84
2944.22
2943.58
2942.93
2942.28
2941.62
2940.96
2940.3
2939.65
2938.99
2938.34
2937.7
2937.07
2936.45
2935.83
2935.23
2934.64
2934.07
2933.5
2932.95
2932.41
2931.89
2931.38
2930.89
2930.41
2929.94
2929.5
2929.06
2928.64
2928.33
2927.88
2927.58
2927.16
2926.94
2926.54
2926.55
2925.54
1474.45
2448.43
2575.14
2580.11
2589.98
2599.01
2606.42
2612.98
2619.37
2625.64
2631.81
2637.93
2644.01
2650.13
2656.34
2662.61
2668.91
2675.29
2681.75
2688.2
2694.63
2701.33
2708.87
2717.72
2727.87
2738.88
2750.13
2761.12
2771.59
2781.44
2790.7
2799.44
2807.72
2815.6
2823.13
2830.37
2837.39
2844.22
2850.86
2857.3
2863.55
2869.61
2875.47
2881.14
2886.6
2891.83
2896.84
2901.62
2906.15
2910.45
2914.5
2918.31
2921.88
2925.21
2928.3
2931.17
2933.83
2936.29
2938.53
2940.53
2942.3
2943.9
2945.35
2946.65
2947.8
2948.82
2949.68
2950.4
2950.99
2951.45
2951.79
2952.03
2952.17
2952.23
2952.21
2952.13
2951.99
2951.8
2951.57
2951.29
2950.97
2950.62
2950.24
2949.83
2949.4
2948.96
2948.49
2948.02
2947.53
2947.03
2946.53
2946.02
2945.51
2945
2944.5
2943.99
2943.49
2942.99
2942.5
2942.01
2941.53
2941.06
2940.6
2940.15
2939.71
2939.28
2938.86
2938.45
2938.05
2937.66
2937.29
2936.93
2936.57
2936.34
2935.94
2935.69
2935.33
2935.17
2934.81
2934.83
2933.94
1472.93
2447.32
2574.14
2579.62
2589.73
2598.81
2606.25
2612.83
2619.23
2625.48
2631.64
2637.73
2643.79
2649.9
2656.09
2662.35
2668.66
2675.05
2681.52
2688
2694.47
2701.23
2708.85
2717.8
2728.06
2739.15
2750.43
2761.43
2771.89
2781.73
2790.98
2799.7
2807.95
2815.81
2823.32
2830.55
2837.56
2844.37
2851
2857.43
2863.67
2869.71
2875.57
2881.23
2886.69
2891.92
2896.93
2901.71
2906.25
2910.56
2914.63
2918.46
2922.06
2925.42
2928.56
2931.48
2934.21
2936.73
2939.03
2941.1
2942.97
2944.68
2946.27
2947.71
2948.99
2950.15
2951.15
2952.01
2952.74
2953.35
2953.85
2954.26
2954.58
2954.82
2955
2955.11
2955.17
2955.17
2955.13
2955.05
2954.93
2954.77
2954.57
2954.36
2954.11
2953.84
2953.55
2953.25
2952.92
2952.59
2952.24
2951.89
2951.52
2951.15
2950.78
2950.4
2950.03
2949.65
2949.27
2948.9
2948.53
2948.16
2947.8
2947.45
2947.1
2946.75
2946.42
2946.09
2945.76
2945.45
2945.15
2944.85
2944.56
2944.39
2944.05
2943.85
2943.55
2943.43
2943.12
2943.17
2942.38
1471.5
2446.23
2573.13
2579.14
2589.49
2598.62
2606.09
2612.69
2619.08
2625.33
2631.47
2637.54
2643.58
2649.66
2655.84
2662.1
2668.41
2674.81
2681.31
2687.81
2694.31
2701.12
2708.83
2717.89
2728.25
2739.41
2750.73
2761.74
2772.2
2782.02
2791.25
2799.95
2808.18
2816.01
2823.5
2830.72
2837.72
2844.53
2851.14
2857.56
2863.78
2869.82
2875.67
2881.32
2886.77
2892.01
2897.02
2901.8
2906.35
2910.67
2914.76
2918.61
2922.24
2925.64
2928.83
2931.81
2934.6
2937.18
2939.54
2941.69
2943.66
2945.5
2947.22
2948.79
2950.2
2951.49
2952.62
2953.62
2954.5
2955.26
2955.93
2956.51
2957.02
2957.45
2957.82
2958.13
2958.39
2958.6
2958.75
2958.87
2958.94
2958.97
2958.97
2958.94
2958.88
2958.79
2958.68
2958.54
2958.38
2958.21
2958.02
2957.82
2957.61
2957.38
2957.15
2956.91
2956.66
2956.41
2956.15
2955.9
2955.64
2955.38
2955.13
2954.87
2954.62
2954.37
2954.12
2953.88
2953.64
2953.4
2953.18
2952.95
2952.73
2952.62
2952.34
2952.19
2951.95
2951.87
2951.62
2951.7
2951.02
1470.4
2445.14
2572.13
2578.67
2589.25
2598.44
2605.94
2612.55
2618.95
2625.18
2631.3
2637.35
2643.37
2649.43
2655.6
2661.85
2668.17
2674.58
2681.09
2687.61
2694.15
2701.02
2708.82
2717.99
2728.45
2739.67
2751.03
2762.05
2772.5
2782.31
2791.52
2800.2
2808.41
2816.21
2823.69
2830.89
2837.88
2844.67
2851.28
2857.68
2863.9
2869.92
2875.77
2881.41
2886.86
2892.09
2897.1
2901.89
2906.45
2910.78
2914.89
2918.77
2922.43
2925.87
2929.1
2932.15
2934.99
2937.63
2940.06
2942.3
2944.39
2946.35
2948.21
2949.91
2951.45
2952.86
2954.13
2955.27
2956.3
2957.24
2958.08
2958.85
2959.55
2960.18
2960.75
2961.27
2961.73
2962.14
2962.5
2962.81
2963.08
2963.31
2963.5
2963.65
2963.77
2963.86
2963.92
2963.96
2963.97
2963.96
2963.92
2963.87
2963.8
2963.72
2963.62
2963.51
2963.39
2963.26
2963.13
2962.98
2962.83
2962.68
2962.52
2962.36
2962.2
2962.04
2961.87
2961.71
2961.55
2961.39
2961.23
2961.07
2960.91
2960.87
2960.65
2960.55
2960.36
2960.3
2960.13
2960.24
2959.65
1469.25
2444.08
2571.12
2578.2
2589.02
2598.26
2605.79
2612.41
2618.81
2625.04
2631.14
2637.17
2643.16
2649.2
2655.35
2661.61
2667.93
2674.35
2680.87
2687.42
2693.99
2700.93
2708.82
2718.1
2728.65
2739.94
2751.33
2762.36
2772.8
2782.6
2791.79
2800.44
2808.63
2816.41
2823.87
2831.06
2838.04
2844.82
2851.41
2857.8
2864.01
2870.02
2875.86
2881.5
2886.94
2892.17
2897.19
2901.98
2906.55
2910.9
2915.02
2918.93
2922.62
2926.1
2929.39
2932.49
2935.39
2938.09
2940.6
2942.94
2945.14
2947.23
2949.21
2951.03
2952.69
2954.23
2955.63
2956.93
2958.12
2959.23
2960.26
2961.22
2962.11
2962.95
2963.72
2964.44
2965.1
2965.71
2966.27
2966.79
2967.25
2967.67
2968.05
2968.39
2968.69
2968.96
2969.2
2969.41
2969.58
2969.73
2969.86
2969.96
2970.04
2970.11
2970.15
2970.18
2970.19
2970.19
2970.18
2970.15
2970.12
2970.07
2970.02
2969.97
2969.9
2969.84
2969.76
2969.69
2969.61
2969.53
2969.45
2969.37
2969.29
2969.3
2969.14
2969.12
2968.98
2968.95
2968.86
2969
2968.53
1468.19
2443.01
2570.12
2577.74
2588.79
2598.08
2605.64
2612.28
2618.68
2624.9
2630.98
2636.99
2642.95
2648.98
2655.12
2661.36
2667.69
2674.12
2680.66
2687.22
2693.84
2700.84
2708.82
2718.2
2728.86
2740.21
2751.63
2762.66
2773.1
2782.88
2792.05
2800.68
2808.84
2816.61
2824.05
2831.23
2838.19
2844.96
2851.54
2857.92
2864.11
2870.12
2875.95
2881.59
2887.02
2892.25
2897.27
2902.07
2906.65
2911.01
2915.16
2919.09
2922.82
2926.35
2929.68
2932.84
2935.8
2938.57
2941.16
2943.6
2945.93
2948.14
2950.24
2952.18
2953.96
2955.63
2957.18
2958.63
2960
2961.29
2962.52
2963.68
2964.78
2965.82
2966.8
2967.72
2968.58
2969.4
2970.15
2970.86
2971.52
2972.14
2972.71
2973.23
2973.72
2974.17
2974.58
2974.95
2975.3
2975.61
2975.9
2976.15
2976.38
2976.59
2976.77
2976.93
2977.08
2977.2
2977.31
2977.4
2977.48
2977.54
2977.59
2977.63
2977.66
2977.68
2977.7
2977.7
2977.7
2977.7
2977.69
2977.69
2977.67
2977.73
2977.63
2977.66
2977.56
2977.57
2977.56
2977.71
2977.35
1467.35
2441.96
2569.11
2577.28
2588.57
2597.9
2605.5
2612.15
2618.56
2624.76
2630.83
2636.81
2642.75
2648.75
2654.88
2661.12
2667.45
2673.89
2680.45
2687.03
2693.68
2700.75
2708.83
2718.32
2729.07
2740.48
2751.93
2762.97
2773.39
2783.16
2792.32
2800.92
2809.05
2816.8
2824.22
2831.39
2838.34
2845.1
2851.67
2858.04
2864.22
2870.22
2876.04
2881.67
2887.1
2892.33
2897.35
2902.15
2906.75
2911.13
2915.3
2919.26
2923.02
2926.59
2929.98
2933.19
2936.21
2939.05
2941.73
2944.29
2946.73
2949.06
2951.27
2953.32
2955.22
2957.03
2958.73
2960.35
2961.9
2963.38
2964.8
2966.16
2967.46
2968.7
2969.88
2971
2972.07
2973.08
2974.03
2974.93
2975.79
2976.59
2977.35
2978.06
2978.74
2979.36
2979.95
2980.5
2981.02
2981.5
2981.95
2982.36
2982.75
2983.1
2983.43
2983.73
2984.01
2984.27
2984.5
2984.72
2984.91
2985.09
2985.26
2985.4
2985.54
2985.66
2985.76
2985.86
2985.95
2986.03
2986.1
2986.19
2986.24
2986.37
2986.34
2986.43
2986.39
2986.44
2986.5
2986.66
2986.45
1466.56
2440.9
2568.11
2576.83
2588.35
2597.74
2605.36
2612.03
2618.44
2624.63
2630.68
2636.64
2642.56
2648.54
2654.65
2660.89
2667.21
2673.67
2680.24
2686.85
2693.53
2700.66
2708.84
2718.44
2729.28
2740.76
2752.23
2763.27
2773.69
2783.44
2792.57
2801.15
2809.26
2816.99
2824.39
2831.55
2838.49
2845.24
2851.79
2858.15
2864.32
2870.31
2876.12
2881.75
2887.18
2892.41
2897.43
2902.24
2906.84
2911.24
2915.43
2919.42
2923.22
2926.84
2930.28
2933.55
2936.63
2939.55
2942.33
2945
2947.56
2950
2952.31
2954.48
2956.51
2958.46
2960.33
2962.13
2963.87
2965.55
2967.17
2968.73
2970.23
2971.67
2973.04
2974.36
2975.63
2976.83
2977.99
2979.09
2980.13
2981.13
2982.08
2982.98
2983.84
2984.65
2985.42
2986.15
2986.84
2987.49
2988.1
2988.67
2989.21
2989.72
2990.19
2990.63
2991.05
2991.43
2991.79
2992.13
2992.44
2992.73
2993
2993.25
2993.48
2993.69
2993.89
2994.07
2994.24
2994.39
2994.54
2994.71
2994.82
2995.01
2995.04
2995.18
2995.19
2995.28
2995.39
2995.56
2995.47
1465.75
2439.85
2567.1
2576.39
2588.14
2597.57
2605.22
2611.91
2618.32
2624.5
2630.53
2636.47
2642.36
2648.32
2654.42
2660.65
2666.98
2673.44
2680.03
2686.66
2693.39
2700.58
2708.85
2718.56
2729.5