/*--------------------------------*- C++ -*----------------------------------*\
| =========                 |                                                 |
| \\      /  F ield         | OpenFOAM: The Open Source CFD Toolbox           |
|  \\    /   O peration     | Version:  2412                                  |
|   \\  /    A nd           | Website:  www.openfoam.com                      |
|    \\/     M anipulation  |                                                 |
\*---------------------------------------------------------------------------*/
FoamFile
{
    version     2.0;
    format      ascii;
    arch        "LSB;label=32;scalar=64";
    class       volScalarField;
    location    "0.056";
    object      p;
}
// * * * * * * * * * * * * * * * * * * * * * * * * * * * * * * * * * * * * * //

dimensions      [1 -1 -2 0 0 0 0];

internalField   nonuniform List<scalar> 
78650
(
2791.12
2796.1
2804.67
2810.81
2811.71
2809.54
2799.03
2784.4
2771.23
2760.71
2753.22
2749.37
2748.55
2749.37
2752.17
2755.39
2757.59
2758.86
2759.8
2760.43
2760.78
2761.42
2761.97
2762.17
2761.81
2760.64
2758.56
2755.69
2752.21
2748.26
2743.95
2739.39
2734.75
2730.17
2725.66
2721.18
2716.83
2712.63
2708.62
2704.82
2701.23
2697.87
2694.72
2691.78
2689.07
2686.59
2684.32
2682.25
2680.37
2678.65
2677.09
2675.66
2674.38
2673.21
2672.16
2671.22
2670.35
2669.53
2668.73
2667.92
2667.07
2666.15
2665.15
2664.03
2662.77
2661.34
2659.67
2657.71
2655.39
2652.66
2649.47
2645.78
2641.53
2636.66
2631.05
2624.6
2617.19
2608.74
2599.17
2588.36
2576.21
2562.58
2547.31
2530.23
2511.16
2489.96
2466.48
2440.62
2412.11
2381.02
2347.2
2310.93
2271.36
2228.77
2182.36
2133.1
2081.25
2026.32
1969.39
1908.87
1847.4
1783.47
1721.75
1657.8
1594.17
1531.75
1468.94
1411.13
1360.92
1314.99
1269.49
1224.4
1178.98
1136.19
1098.22
1065.98
1039.81
1016.91
997.161
981.433
944.678
2790.7
2794.69
2803.05
2810.36
2812.25
2811.16
2802.83
2789.16
2775.96
2764.79
2755.98
2750.46
2748.73
2749.26
2751.56
2754.71
2757.07
2758.37
2759.07
2759.31
2759.18
2759.33
2759.51
2759.49
2759.05
2757.91
2755.98
2753.34
2750.15
2746.57
2742.7
2738.63
2734.41
2730.14
2725.82
2721.56
2717.48
2713.59
2709.89
2706.4
2703.14
2700.08
2697.25
2694.62
2692.21
2690.02
2688.04
2686.27
2684.69
2683.27
2682.01
2680.89
2679.91
2679.06
2678.34
2677.72
2677.19
2676.73
2676.3
2675.88
2675.44
2674.95
2674.4
2673.75
2673
2672.11
2671.02
2669.68
2668.03
2666.03
2663.61
2660.74
2657.39
2653.47
2648.92
2643.6
2637.44
2630.31
2622.17
2612.92
2602.44
2590.6
2577.23
2562.2
2545.33
2526.52
2505.57
2482.37
2456.66
2428.46
2397.41
2363.55
2326.36
2286.41
2243.23
2197.6
2148.95
2097.24
2041.47
1983.29
1924.24
1861.54
1798.46
1735.17
1669.58
1606.92
1543.82
1480.25
1420.75
1367.87
1319.24
1274.83
1230.68
1187.97
1146.57
1107.32
1072.49
1041.25
1016.26
996.145
956.063
2790.41
2793.43
2801.24
2809.55
2812.53
2812.32
2806.2
2793.68
2780.62
2769.3
2759.79
2752.82
2749.67
2749.56
2751.33
2754.55
2757.13
2758.49
2759.09
2759.21
2758.92
2758.87
2758.87
2758.73
2758.2
2757.05
2755.16
2752.6
2749.52
2746.08
2742.39
2738.52
2734.48
2730.33
2726.21
2722.2
2718.37
2714.75
2711.34
2708.14
2705.18
2702.43
2699.89
2697.56
2695.45
2693.55
2691.87
2690.39
2689.11
2687.99
2687.02
2686.21
2685.54
2685.01
2684.6
2684.31
2684.13
2684.02
2683.96
2683.92
2683.89
2683.84
2683.73
2683.56
2683.3
2682.94
2682.42
2681.69
2680.7
2679.4
2677.73
2675.68
2673.18
2670.19
2666.63
2662.4
2657.4
2651.54
2644.75
2636.93
2627.99
2617.81
2606.23
2593.13
2578.35
2561.74
2543.12
2522.32
2499.15
2473.6
2445.43
2414.66
2380.78
2344.01
2303.71
2260.56
2214.29
2165.39
2113.78
2058.64
2000.01
1939.48
1875.34
1813.55
1748.09
1682.06
1618.26
1552.1
1485.31
1422.52
1363.69
1310.96
1264.37
1222.84
1183.68
1145.8
1110.17
1075.34
1043.4
1015.38
963.035
2790.22
2792.35
2799.29
2808.3
2812.6
2813.32
2809.19
2797.91
2784.92
2773.7
2764.17
2756.38
2751.67
2750.52
2751.59
2754.6
2757.41
2758.89
2759.43
2759.49
2759.13
2758.95
2758.89
2758.71
2758.18
2757.04
2755.17
2752.63
2749.56
2746.15
2742.51
2738.7
2734.78
2730.84
2726.94
2723.17
2719.59
2716.21
2713.05
2710.12
2707.43
2704.96
2702.71
2700.66
2698.84
2697.22
2695.81
2694.62
2693.62
2692.8
2692.13
2691.61
2691.24
2691.01
2690.92
2690.95
2691.09
2691.33
2691.63
2691.97
2692.33
2692.69
2693.02
2693.3
2693.53
2693.66
2693.69
2693.55
2693.2
2692.58
2691.64
2690.35
2688.68
2686.57
2683.97
2680.79
2676.93
2672.3
2666.83
2660.42
2653.02
2644.5
2634.72
2623.55
2610.83
2596.42
2580.12
2561.83
2541.37
2518.66
2493.32
2465.28
2434.18
2400.34
2363.48
2323.95
2281
2234.74
2184.86
2131.87
2074.93
2015.97
1952.88
1888.11
1824.9
1758.34
1693.67
1630.32
1564.84
1499.77
1435.75
1371.22
1311.65
1257.58
1209.91
1169.23
1134.54
1102.92
1074.82
1049.02
996.443
2790.11
2791.5
2797.29
2806.66
2812.46
2814.25
2811.67
2801.82
2788.98
2777.93
2768.68
2760.64
2754.71
2752.37
2752.63
2754.91
2757.96
2759.77
2760.34
2760.35
2759.83
2759.38
2759.16
2758.94
2758.41
2757.3
2755.46
2752.93
2749.87
2746.48
2742.89
2739.19
2735.45
2731.72
2728.06
2724.52
2721.15
2717.99
2715.06
2712.37
2709.92
2707.72
2705.73
2703.96
2702.41
2701.06
2699.94
2699.03
2698.31
2697.76
2697.38
2697.16
2697.09
2697.16
2697.38
2697.73
2698.19
2698.76
2699.42
2700.13
2700.89
2701.65
2702.41
2703.14
2703.84
2704.48
2705.03
2705.46
2705.7
2705.75
2705.51
2704.99
2704.12
2702.86
2701.18
2698.99
2696.22
2692.76
2688.53
2683.47
2677.49
2670.51
2662.39
2653
2642.2
2629.86
2615.81
2599.92
2581.97
2561.85
2539.31
2514.37
2486.74
2456.45
2422.89
2386.13
2345.71
2302.04
2255.03
2205.1
2152.22
2095.26
2035.81
1970.55
1905.51
1837.59
1768.07
1701.22
1636.15
1571.35
1510.26
1447.78
1385.85
1325.88
1266.92
1211.78
1163.61
1120.76
1086.86
1060.34
1004.63
2790.05
2790.87
2795.36
2804.59
2812.06
2815
2813.42
2805.53
2793.16
2782.16
2773.16
2765.22
2758.59
2754.98
2754.43
2755.77
2758.73
2760.97
2761.72
2761.73
2761.15
2760.43
2759.99
2759.64
2759.09
2758.02
2756.24
2753.75
2750.71
2747.34
2743.8
2740.21
2736.61
2733.07
2729.62
2726.3
2723.14
2720.18
2717.45
2714.96
2712.73
2710.75
2709.01
2707.49
2706.19
2705.1
2704.24
2703.6
2703.15
2702.88
2702.79
2702.85
2703.07
2703.44
2703.95
2704.6
2705.38
2706.29
2707.29
2708.37
2709.5
2710.66
2711.84
2713
2714.16
2715.28
2716.35
2717.33
2718.16
2718.81
2719.26
2719.45
2719.36
2718.94
2718.16
2716.91
2715.18
2712.85
2709.84
2706.09
2701.52
2696.06
2689.59
2681.99
2673.12
2662.85
2651.01
2637.47
2622.04
2604.61
2584.89
2562.81
2538.06
2510.68
2480.25
2446.82
2409.91
2369.79
2326.26
2279.42
2229.2
2175.73
2118.88
2058.46
1993.15
1927.08
1856.16
1783.75
1712.61
1641.26
1572.81
1508.9
1447.21
1390.3
1333.17
1279.6
1227.93
1178.87
1132.82
1093.53
1019.63
2790.02
2790.45
2793.65
2802.18
2811.14
2815.31
2814.67
2809.1
2797.59
2786.49
2777.55
2769.83
2762.91
2758.21
2756.76
2757.34
2759.75
2762.36
2763.46
2763.58
2763.11
2762.24
2761.56
2761.04
2760.43
2759.37
2757.65
2755.22
2752.22
2748.87
2745.36
2741.81
2738.31
2734.9
2731.61
2728.49
2725.53
2722.76
2720.21
2717.9
2715.85
2714.07
2712.55
2711.27
2710.21
2709.36
2708.75
2708.36
2708.18
2708.18
2708.38
2708.72
2709.21
2709.86
2710.67
2711.63
2712.73
2713.96
2715.3
2716.73
2718.23
2719.79
2721.37
2722.97
2724.57
2726.16
2727.73
2729.24
2730.65
2731.93
2733.03
2733.9
2734.54
2734.91
2734.99
2734.67
2733.94
2732.69
2730.83
2728.31
2725.05
2721.01
2716.07
2710.12
2703.02
2694.66
2684.89
2673.57
2660.53
2645.61
2628.62
2609.51
2588.01
2564.04
2537.05
2507.01
2473.56
2436.98
2397.1
2353.88
2306.96
2256.31
2201.95
2144.28
2082.55
2018.2
1950.62
1879.59
1807.63
1733.74
1656.62
1583.66
1510.02
1441.83
1378.22
1321.44
1270.16
1223.39
1181.71
1144.38
1069.13
2790.01
2790.21
2792.26
2799.54
2809.5
2815.29
2815.61
2812.36
2802.16
2790.93
2781.97
2774.51
2767.58
2761.99
2759.43
2759.3
2760.87
2763.66
2765.34
2765.71
2765.44
2764.64
2763.81
2763.15
2762.45
2761.39
2759.71
2757.35
2754.4
2751.1
2747.61
2744.09
2740.62
2737.28
2734.11
2731.13
2728.34
2725.75
2723.36
2721.21
2719.33
2717.72
2716.38
2715.3
2714.45
2713.83
2713.45
2713.3
2713.37
2713.66
2714.09
2714.7
2715.48
2716.41
2717.51
2718.76
2720.16
2721.71
2723.38
2725.15
2727.01
2728.95
2730.93
2732.94
2734.98
2737.03
2739.08
2741.1
2743.06
2744.92
2746.65
2748.21
2749.57
2750.7
2751.56
2752.12
2752.33
2752.13
2751.41
2750.11
2748.13
2745.47
2742.02
2737.7
2732.37
2725.91
2718.19
2709.06
2698.38
2686
2671.73
2655.41
2636.74
2615.66
2591.82
2565.28
2535.69
2503.09
2467.01
2427.25
2383.61
2336.05
2284.44
2229.15
2170.38
2107.19
2041.37
1971.89
1900.44
1830.41
1756.39
1682.91
1608.28
1531.86
1457.53
1384.72
1318.2
1257.34
1207.06
1167.31
1084.27
2790
2790.09
2791.26
2796.93
2807.14
2814.82
2816.47
2814.93
2806.57
2795.55
2786.54
2779.24
2772.41
2766.18
2762.34
2761.44
2762.23
2764.83
2767.16
2767.95
2767.93
2767.41
2766.63
2765.9
2765.14
2764.08
2762.42
2760.1
2757.2
2753.93
2750.48
2746.97
2743.51
2740.19
2737.08
2734.2
2731.55
2729.12
2726.88
2724.88
2723.14
2721.67
2720.5
2719.6
2718.93
2718.52
2718.36
2718.43
2718.75
2719.26
2719.96
2720.84
2721.88
2723.09
2724.47
2726.01
2727.71
2729.57
2731.56
2733.67
2735.89
2738.19
2740.56
2742.98
2745.44
2747.93
2750.45
2752.98
2755.47
2757.9
2760.24
2762.44
2764.49
2766.36
2768.02
2769.42
2770.5
2771.23
2771.56
2771.43
2770.69
2769.35
2767.26
2764.44
2760.72
2756.02
2750.19
2743.12
2734.65
2724.65
2712.91
2699.33
2683.67
2665.87
2645.54
2622.65
2596.75
2567.73
2535.11
2498.81
2458.73
2414.88
2367.15
2315.42
2259.49
2199.73
2135.41
2066.68
1993.55
1918.52
1844.15
1767.47
1694.01
1620.03
1547.7
1478.34
1408.07
1342.32
1278.93
1224.25
1119.36
2790
2790.03
2790.62
2794.6
2804.23
2813.71
2817.01
2816.67
2810.75
2800.45
2791.25
2783.89
2777.21
2770.66
2765.68
2763.84
2763.97
2765.92
2768.72
2770.22
2770.53
2770.34
2769.78
2769.1
2768.35
2767.3
2765.68
2763.39
2760.53
2757.29
2753.88
2750.4
2746.94
2743.62
2740.53
2737.71
2735.15
2732.85
2730.76
2728.9
2727.28
2725.94
2724.9
2724.15
2723.65
2723.43
2723.45
2723.75
2724.26
2725.01
2725.95
2727.08
2728.38
2729.86
2731.5
2733.32
2735.31
2737.46
2739.76
2742.2
2744.75
2747.41
2750.16
2752.97
2755.84
2758.76
2761.73
2764.73
2767.74
2770.71
2773.63
2776.45
2779.16
2781.73
2784.14
2786.34
2788.31
2789.99
2791.29
2792.18
2792.61
2792.59
2791.88
2790.55
2788.4
2785.42
2781.44
2776.37
2770.05
2762.36
2753.13
2742.23
2729.38
2714.49
2697.25
2677.66
2655.27
2629.94
2601.22
2569.08
2533.41
2494.1
2450.93
2403.6
2351.75
2295.77
2235.34
2170.38
2100.9
2024.91
1947.91
1865.56
1783.01
1699.46
1619.02
1542.65
1469.24
1403.61
1344.62
1293.16
1188.49
2790
2790.01
2790.27
2792.76
2801.05
2811.81
2817.02
2817.98
2814.52
2805.35
2795.8
2788.28
2781.88
2775.41
2769.67
2766.64
2766.12
2767.23
2770.12
2772.41
2773.27
2773.35
2773.1
2772.6
2771.93
2770.93
2769.36
2767.11
2764.27
2761.06
2757.67
2754.23
2750.79
2747.47
2744.37
2741.57
2739.08
2736.88
2734.91
2733.19
2731.7
2730.48
2729.56
2728.93
2728.58
2728.51
2728.73
2729.19
2729.91
2730.87
2732.04
2733.41
2734.96
2736.7
2738.61
2740.7
2742.96
2745.4
2748
2750.76
2753.64
2756.65
2759.76
2762.95
2766.23
2769.57
2772.97
2776.43
2779.93
2783.43
2786.9
2790.32
2793.66
2796.91
2800.03
2803
2805.78
2808.33
2810.6
2812.53
2814.04
2815.09
2815.66
2815.73
2815.06
2813.69
2811.41
2808.19
2803.87
2798.36
2791.48
2783.11
2773.01
2761.11
2747.11
2730.93
2712.12
2690.55
2665.83
2637.96
2606.7
2571.77
2532.82
2489.49
2441.63
2389.47
2332.55
2271.2
2205.33
2135.38
2061.75
1983.49
1902.96
1816.47
1729.91
1641.76
1553.48
1471.77
1396.59
1334.54
1209.11
2790
2790
2790.1
2791.46
2797.89
2809.11
2816.53
2819.22
2817.43
2809.8
2800.17
2792.59
2786.5
2780.39
2774.27
2770.07
2768.76
2769.15
2771.54
2774.43
2776.02
2776.48
2776.49
2776.26
2775.75
2774.85
2773.35
2771.13
2768.32
2765.13
2761.77
2758.35
2754.95
2751.64
2748.53
2745.73
2743.28
2741.15
2739.29
2737.7
2736.33
2735.24
2734.43
2733.91
2733.7
2733.76
2734.14
2734.77
2735.66
2736.82
2738.21
2739.8
2741.59
2743.56
2745.72
2748.07
2750.6
2753.31
2756.2
2759.26
2762.46
2765.8
2769.25
2772.82
2776.47
2780.21
2784.03
2787.93
2791.89
2795.89
2799.89
2803.88
2807.82
2811.71
2815.51
2819.2
2822.76
2826.15
2829.32
2832.21
2834.79
2837
2838.75
2840.04
2840.8
2841
2840.41
2839.01
2836.62
2833.18
2828.54
2822.58
2815.1
2805.97
2794.93
2781.88
2766.46
2748.6
2727.92
2704.28
2677.26
2646.51
2611.72
2572.57
2528.92
2480.64
2427.35
2369.49
2306.43
2238.51
2165.67
2088.81
2006.84
1924.83
1838.85
1757.36
1668.24
1586.98
1504.77
1430.41
1284.42
2790
2790
2790.03
2790.68
2795.12
2805.78
2815.57
2819.87
2819.2
2813.84
2804.64
2796.95
2791.04
2785.37
2779.27
2774.2
2771.93
2771.75
2773.24
2776.31
2778.7
2779.73
2779.98
2779.93
2779.62
2778.87
2777.47
2775.32
2772.54
2769.37
2766.03
2762.64
2759.28
2755.99
2752.89
2750.1
2747.66
2745.58
2743.82
2742.34
2741.1
2740.14
2739.44
2739.03
2738.94
2739.15
2739.65
2740.42
2741.49
2742.82
2744.41
2746.21
2748.22
2750.43
2752.83
2755.43
2758.22
2761.2
2764.37
2767.71
2771.22
2774.88
2778.67
2782.58
2786.61
2790.73
2794.96
2799.28
2803.69
2808.16
2812.67
2817.2
2821.71
2826.21
2830.65
2835.04
2839.33
2843.51
2847.52
2851.32
2854.88
2858.12
2861.02
2863.53
2865.57
2867.08
2868
2868.28
2867.72
2866.25
2863.73
2860.04
2855.04
2848.6
2840.47
2830.55
2818.51
2804.28
2787.43
2767.79
2744.87
2718.41
2688.18
2653.93
2615.48
2572.52
2524.68
2471.95
2413.46
2349.71
2280.05
2204.64
2123.16
2037.72
1945.41
1851.95
1757.3
1667.69
1585.72
1516.11
1375.38
2790
2790
2790.01
2790.28
2792.99
2802.15
2813.73
2819.96
2820.34
2817.37
2809.12
2801.25
2795.38
2790.19
2784.47
2778.99
2775.72
2774.9
2775.57
2778.22
2781.2
2782.88
2783.46
2783.56
2783.42
2782.82
2781.55
2779.49
2776.76
2773.63
2770.32
2766.98
2763.66
2760.41
2757.35
2754.56
2752.14
2750.1
2748.42
2747.05
2745.93
2745.1
2744.52
2744.25
2744.25
2744.6
2745.22
2746.14
2747.35
2748.85
2750.62
2752.62
2754.84
2757.27
2759.89
2762.73
2765.76
2768.99
2772.42
2776.04
2779.84
2783.8
2787.91
2792.15
2796.53
2801.02
2805.63
2810.35
2815.17
2820.09
2825.08
2830.12
2835.17
2840.24
2845.3
2850.33
2855.31
2860.22
2865.03
2869.69
2874.17
2878.41
2882.37
2886.02
2889.31
2892.19
2894.54
2896.31
2897.42
2897.83
2897.35
2895.83
2893.17
2889.21
2883.78
2876.77
2867.89
2857.07
2843.88
2828.17
2809.45
2787.58
2762.3
2733.29
2700.23
2662.64
2620.2
2572.64
2519.16
2460.36
2395.62
2325.77
2250.09
2167.2
2082.04
1985.11
1891.16
1786.67
1684.69
1594.82
1422.99
2790
2790
2790
2790.1
2791.57
2798.67
2810.89
2819.44
2821.37
2820.09
2813.25
2805.36
2799.55
2794.84
2789.69
2784.17
2780.02
2778.41
2778.44
2780.17
2783.36
2785.77
2786.82
2787.08
2787.03
2786.58
2785.42
2783.47
2780.83
2777.76
2774.52
2771.23
2767.98
2764.79
2761.78
2759.03
2756.64
2754.63
2753.02
2751.73
2750.75
2750.04
2749.59
2749.45
2749.6
2750.06
2750.81
2751.86
2753.21
2754.86
2756.8
2758.98
2761.4
2764.03
2766.88
2769.93
2773.2
2776.68
2780.36
2784.24
2788.31
2792.56
2796.97
2801.54
2806.25
2811.1
2816.07
2821.17
2826.4
2831.74
2837.19
2842.7
2848.27
2853.88
2859.51
2865.15
2870.78
2876.39
2881.93
2887.39
2892.72
2897.88
2902.83
2907.53
2911.95
2916.04
2919.73
2922.96
2925.62
2927.62
2928.91
2929.43
2929.02
2927.45
2924.64
2920.4
2914.55
2906.96
2897.27
2885.35
2870.77
2853.38
2832.8
2808.63
2780.48
2747.8
2710.25
2667.47
2618.97
2564.97
2504.43
2438.08
2365.37
2286.49
2201.21
2111.71
2015.9
1921.68
1822.69
1733.57
1557.64
2790
2790
2790
2790.03
2790.73
2795.7
2807.45
2818.28
2822.12
2821.8
2816.88
2809.4
2803.66
2799.28
2794.66
2789.31
2784.6
2782.1
2781.56
2782.42
2785.33
2788.38
2789.99
2790.47
2790.47
2790.09
2789.02
2787.16
2784.62
2781.65
2778.48
2775.28
2772.11
2769.02
2766.09
2763.4
2761.06
2759.1
2757.56
2756.35
2755.48
2754.89
2754.59
2754.57
2754.89
2755.47
2756.35
2757.53
2759.02
2760.82
2762.91
2765.27
2767.87
2770.7
2773.75
2777.02
2780.5
2784.21
2788.13
2792.26
2796.59
2801.11
2805.81
2810.68
2815.7
2820.88
2826.19
2831.65
2837.25
2842.99
2848.86
2854.82
2860.86
2866.97
2873.14
2879.35
2885.59
2891.83
2898.07
2904.26
2910.39
2916.4
2922.28
2927.97
2933.45
2938.68
2943.61
2948.17
2952.3
2955.92
2958.93
2961.22
2962.73
2963.38
2963.05
2961.4
2958.4
2953.81
2947.43
2939.12
2928.5
2915.36
2899.23
2879.75
2856.54
2829.12
2797.22
2760.37
2718.16
2670.33
2615.9
2555.26
2487.29
2412.52
2329.71
2239.32
2141.04
2041.76
1928.83
1833.32
1657.59
2790
2790
2790
2790.01
2790.31
2793.46
2803.83
2816.44
2822.22
2822.96
2820.07
2813.37
2807.55
2803.3
2799.14
2794.15
2789.24
2786
2784.9
2785.14
2787.31
2790.72
2792.96
2793.74
2793.8
2793.43
2792.36
2790.55
2788.1
2785.22
2782.16
2779.06
2776
2773.02
2770.2
2767.61
2765.34
2763.45
2761.97
2760.85
2760.09
2759.61
2759.45
2759.58
2760.04
2760.76
2761.79
2763.11
2764.74
2766.68
2768.92
2771.45
2774.22
2777.24
2780.48
2783.95
2787.64
2791.56
2795.71
2800.07
2804.65
2809.43
2814.4
2819.55
2824.88
2830.37
2836.01
2841.81
2847.76
2853.88
2860.14
2866.52
2873.01
2879.6
2886.26
2893
2899.81
2906.65
2913.53
2920.4
2927.26
2934.06
2940.78
2947.38
2953.83
2960.1
2966.15
2971.93
2977.37
2982.42
2986.99
2991.01
2994.38
2996.96
2998.7
2999.49
2999.25
2997.52
2994.32
2989.36
2982.41
2973.22
2961.35
2946.55
2928.44
2906.62
2880.75
2850.24
2814.59
2773.27
2725.51
2671.46
2609.87
2541.23
2464.04
2379.76
2286.99
2191.17
2078.61
1971.48
1777.48
2790
2790
2790
2790
2790.12
2791.95
2800.42
2813.97
2821.77
2824.16
2822.67
2816.9
2811.02
2806.9
2803.19
2798.7
2793.89
2790.18
2788.49
2788.26
2789.57
2792.97
2795.8
2796.93
2797.06
2796.64
2795.5
2793.69
2791.29
2788.5
2785.54
2782.54
2779.6
2776.76
2774.06
2771.59
2769.43
2767.63
2766.23
2765.2
2764.54
2764.17
2764.12
2764.43
2765.02
2765.9
2767.09
2768.56
2770.33
2772.41
2774.8
2777.48
2780.43
2783.62
2787.04
2790.7
2794.59
2798.72
2803.08
2807.66
2812.47
2817.49
2822.72
2828.13
2833.74
2839.52
2845.47
2851.58
2857.87
2864.33
2870.95
2877.72
2884.62
2891.64
2898.77
2906
2913.32
2920.72
2928.17
2935.68
2943.2
2950.73
2958.22
2965.65
2972.99
2980.22
2987.3
2994.2
3000.87
3007.23
3013.24
3018.81
3023.87
3028.35
3032.12
3035.02
3037
3037.94
3037.78
3035.93
3032.48
3026.98
3019.24
3008.98
2995.82
2979.3
2958.98
2934.15
2904.36
2868.94
2827.22
2778.92
2723.14
2660.27
2588.58
2508.84
2420.02
2323.84
2220.51
2118.67
1942.29
2790
2790
2790
2790
2790.04
2791.03
2797.49
2811.05
2821.11
2825.13
2824.44
2819.87
2814.19
2810.23
2806.96
2803
2798.43
2794.5
2792.27
2791.62
2792.28
2795.27
2798.56
2800.04
2800.26
2799.77
2798.51
2796.63
2794.25
2791.53
2788.65
2785.76
2782.94
2780.23
2777.67
2775.33
2773.28
2771.6
2770.29
2769.37
2768.8
2768.56
2768.6
2769.07
2769.8
2770.85
2772.19
2773.82
2775.74
2777.97
2780.51
2783.35
2786.46
2789.82
2793.42
2797.25
2801.34
2805.66
2810.21
2815.01
2820.03
2825.28
2830.75
2836.41
2842.28
2848.33
2854.57
2860.98
2867.57
2874.36
2881.32
2888.45
2895.74
2903.16
2910.72
2918.4
2926.2
2934.11
2942.11
2950.18
2958.32
2966.5
2974.7
2982.89
2991.04
2999.14
3007.15
3015.06
3022.81
3030.36
3037.65
3044.62
3051.2
3057.33
3062.91
3067.86
3072.06
3075.3
3077.55
3078.65
3078.56
3076.52
3072.73
3066.61
3058
3046.35
3031.27
3012.11
2988.49
2959.65
2925.02
2884.05
2835.79
2780.11
2715.51
2642.31
2557.53
2463.74
2358.21
2246.49
2068.26
2790
2790
2790
2790
2790.02
2790.53
2795.22
2808.04
2820.28
2825.68
2825.57
2822.38
2817.12
2813.37
2810.5
2807
2802.72
2798.75
2796.15
2795.18
2795.42
2797.78
2801.29
2803.1
2803.4
2802.83
2801.41
2799.43
2797.04
2794.35
2791.53
2788.73
2786.02
2783.45
2781.03
2778.83
2776.9
2775.34
2774.13
2773.34
2772.86
2772.73
2772.91
2773.51
2774.37
2775.58
2777.09
2778.89
2780.97
2783.35
2786.03
2789.03
2792.29
2795.82
2799.59
2803.6
2807.86
2812.36
2817.11
2822.1
2827.33
2832.79
2838.48
2844.38
2850.49
2856.79
2863.29
2869.98
2876.86
2883.94
2891.22
2898.68
2906.32
2914.11
2922.06
2930.15
2938.38
2946.75
2955.24
2963.84
2972.53
2981.3
2990.13
2999
3007.89
3016.77
3025.63
3034.44
3043.17
3051.79
3060.24
3068.47
3076.43
3084.06
3091.28
3098.02
3104.16
3109.63
3114.3
3117.91
3120.44
3121.7
3121.65
3119.34
3115.06
3108.01
3098.14
3084.77
3067.55
3045.63
3018.5
2985.29
2945.07
2897.28
2840.61
2774.57
2697.45
2611.7
2512.17
2408.4
2242.9
2790
2790
2790
2790
2790.01
2790.28
2793.6
2805.26
2819.09
2825.96
2826.44
2824.46
2819.81
2816.29
2813.74
2810.62
2806.64
2802.8
2800.06
2798.87
2798.86
2800.6
2804.06
2806.09
2806.42
2805.75
2804.15
2802.04
2799.61
2796.94
2794.17
2791.45
2788.86
2786.43
2784.15
2782.08
2780.28
2778.84
2777.77
2777.09
2776.73
2776.69
2777.03
2777.72
2778.73
2780.1
2781.77
2783.73
2785.98
2788.51
2791.36
2794.5
2797.93
2801.61
2805.54
2809.72
2814.15
2818.83
2823.76
2828.93
2834.35
2840.02
2845.91
2852.03
2858.36
2864.9
2871.64
2878.59
2885.74
2893.09
2900.66
2908.42
2916.38
2924.51
2932.82
2941.28
2949.91
2958.7
2967.64
2976.71
2985.91
2995.22
3004.62
3014.11
3023.65
3033.24
3042.85
3052.47
3062.08
3071.65
3081.12
3090.47
3099.64
3108.6
3117.27
3125.6
3133.49
3140.87
3147.63
3153.66
3158.84
3162.83
3165.64
3167.01
3166.89
3164.2
3159.37
3151.35
3140.04
3124.41
3104.04
3077.76
3044.74
3004.31
2955.31
2896.82
2827.25
2745.56
2650.53
2544.41
2391.88
2790
2790
2790
2790
2790
2790.15
2792.53
2802.95
2817.72
2825.95
2827.31
2826.19
2822.19
2818.92
2816.65
2813.88
2810.23
2806.63
2803.95
2802.65
2802.45
2803.68
2806.84
2808.9
2809.19
2808.35
2806.56
2804.35
2801.89
2799.23
2796.51
2793.88
2791.42
2789.14
2787.02
2785.09
2783.43
2782.1
2781.17
2780.61
2780.39
2780.46
2780.95
2781.74
2782.89
2784.4
2786.23
2788.36
2790.77
2793.47
2796.47
2799.76
2803.35
2807.19
2811.28
2815.62
2820.21
2825.05
2830.15
2835.5
2841.1
2846.95
2853.04
2859.36
2865.9
2872.66
2879.63
2886.81
2894.21
2901.81
2909.64
2917.69
2925.94
2934.38
2943
2951.81
2960.8
2969.97
2979.3
2988.8
2998.44
3008.23
3018.15
3028.18
3038.31
3048.52
3058.8
3069.14
3079.52
3089.92
3100.3
3110.64
3120.89
3131.01
3140.97
3150.7
3160.13
3169.22
3177.84
3185.94
3193.37
3200.02
3205.73
3210.14
3213.24
3214.73
3214.53
3211.33
3205.53
3195.81
3182.14
3163.18
3138.36
3106.55
3066.33
3016.71
2955.56
2880.85
2793.61
2688.63
2548.04
2790
2790
2790
2790
2790
2790.09
2791.86
2801.17
2816.43
2825.89
2828.22
2827.57
2824.21
2821.25
2819.27
2816.85
2813.54
2810.24
2807.75
2806.41
2806.05
2806.86
2809.5
2811.38
2811.52
2810.47
2808.5
2806.21
2803.76
2801.14
2798.48
2795.97
2793.67
2791.56
2789.61
2787.83
2786.32
2785.13
2784.35
2783.91
2783.81
2784.05
2784.65
2785.56
2786.84
2788.49
2790.47
2792.77
2795.35
2798.21
2801.36
2804.82
2808.55
2812.55
2816.79
2821.28
2826.03
2831.03
2836.29
2841.81
2847.58
2853.6
2859.87
2866.38
2873.11
2880.07
2887.25
2894.65
2902.27
2910.11
2918.18
2926.47
2934.99
2943.71
2952.63
2961.74
2971.05
2980.56
2990.26
3000.13
3010.18
3020.4
3030.77
3041.28
3051.93
3062.7
3073.58
3084.55
3095.61
3106.75
3117.93
3129.13
3140.31
3151.46
3162.53
3173.48
3184.26
3194.81
3205.07
3214.97
3224.39
3233.28
3241.43
3248.74
3255.02
3259.85
3263.25
3264.78
3264.29
3260.36
3253.44
3241.89
3225.52
3202.79
3172.55
3133.48
3082.34
3016.9
2936.73
2836.1
2701.88
2790
2790
2790
2790
2790
2790.06
2791.47
2799.95
2815.43
2825.94
2829.04
2828.67
2825.92
2823.34
2821.67
2819.61
2816.64
2813.65
2811.38
2810.02
2809.51
2809.92
2811.89
2813.42
2813.31
2812.02
2809.89
2807.58
2805.15
2802.6
2800.04
2797.67
2795.55
2793.64
2791.88
2790.29
2788.93
2787.91
2787.27
2786.99
2787.02
2787.44
2788.15
2789.19
2790.6
2792.38
2794.52
2796.97
2799.71
2802.73
2806.05
2809.66
2813.54
2817.69
2822.08
2826.73
2831.62
2836.78
2842.19
2847.86
2853.79
2859.98
2866.42
2873.1
2880.01
2887.16
2894.53
2902.13
2909.96
2918.01
2926.3
2934.83
2943.58
2952.56
2961.74
2971.13
2980.74
2990.55
3000.57
3010.79
3021.19
3031.79
3042.56
3053.5
3064.61
3075.87
3087.26
3098.79
3110.45
3122.23
3134.1
3146.04
3158.04
3170.07
3182.11
3194.11
3206.05
3217.87
3229.54
3240.99
3252.15
3262.96
3273.27
3283
3291.96
3300.02
3306.94
3312.29
3316.02
3317.6
3316.78
3311.85
3303.12
3288.52
3267.54
3238.14
3196.68
3141.01
3067.97
2973.82
2846.93
2790
2790
2790
2790
2790
2790.05
2791.29
2799.25
2814.85
2826.13
2829.76
2829.58
2827.41
2825.25
2823.93
2822.2
2819.54
2816.84
2814.79
2813.39
2812.7
2812.72
2813.87
2814.95
2814.6
2813.04
2810.77
2808.43
2806.05
2803.59
2801.17
2798.97
2797.05
2795.36
2793.81
2792.43
2791.26
2790.43
2789.95
2789.82
2790.04
2790.61
2791.46
2792.63
2794.17
2796.09
2798.37
2800.98
2803.88
2807.06
2810.53
2814.29
2818.33
2822.62
2827.16
2831.94
2836.98
2842.28
2847.84
2853.66
2859.75
2866.09
2872.69
2879.53
2886.61
2893.92
2901.47
2909.26
2917.27
2925.52
2934.01
2942.75
2951.72
2960.92
2970.35
2979.99
2989.85
2999.94
3010.25
3020.77
3031.49
3042.42
3053.55
3064.87
3076.38
3088.07
3099.92
3111.94
3124.12
3136.45
3148.92
3161.52
3174.22
3187.01
3199.88
3212.79
3225.72
3238.64
3251.5
3264.28
3276.91
3289.36
3301.51
3313.31
3324.58
3335.28
3345.16
3354.1
3361.75
3367.64
3371.67
3373.17
3371.52
3364.83
3353.48
3335.22
3307.29
3266.16
3203.44
3117.94
2996.13
2790
2790
2790
2790
2790
2790.05
2791.25
2799.09
2814.77
2826.54
2830.43
2830.37
2828.72
2827.02
2826.05
2824.63
2822.26
2819.81
2817.94
2816.45
2815.48
2815.06
2815.38
2815.98
2815.4
2813.58
2811.18
2808.82
2806.5
2804.17
2801.9
2799.89
2798.18
2796.71
2795.39
2794.23
2793.29
2792.66
2792.38
2792.42
2792.86
2793.56
2794.57
2795.89
2797.57
2799.62
2802.05
2804.81
2807.87
2811.2
2814.83
2818.74
2822.92
2827.36
2832.03
2836.96
2842.14
2847.58
2853.28
2859.24
2865.47
2871.95
2878.7
2885.69
2892.93
2900.41
2908.12
2916.07
2924.26
2932.69
2941.37
2950.3
2959.47
2968.89
2978.53
2988.4
2998.5
3008.84
3019.4
3030.19
3041.21
3052.44
3063.89
3075.54
3087.41
3099.47
3111.73
3124.18
3136.81
3149.63
3162.63
3175.79
3189.1
3202.55
3216.13
3229.82
3243.61
3257.45
3271.34
3285.24
3299.12
3312.95
3326.66
3340.19
3353.45
3366.37
3378.78
3390.61
3401.57
3411.51
3419.97
3426.52
3430.93
3432.36
3430.04
3422.07
3406.88
3380.09
3330.97
3261.91
3145.46
2790
2790
2790
2790
2790
2790.05
2791.29
2799.31
2815.18
2827.19
2831.08
2831.12
2829.93
2828.7
2828.07
2826.94
2824.8
2822.56
2820.75
2819.12
2817.72
2816.8
2816.43
2816.51
2815.72
2813.69
2811.18
2808.77
2806.5
2804.3
2802.25
2800.46
2798.97
2797.73
2796.66
2795.74
2795.04
2794.63
2794.54
2794.82
2795.45
2796.32
2797.48
2798.96
2800.78
2802.98
2805.55
2808.46
2811.66
2815.16
2818.93
2822.99
2827.31
2831.89
2836.7
2841.76
2847.07
2852.64
2858.48
2864.58
2870.94
2877.57
2884.45
2891.59
2898.97
2906.6
2914.47
2922.58
2930.93
2939.53
2948.38
2957.49
2966.85
2976.45
2986.29
2996.37
3006.69
3017.25
3028.06
3039.1
3050.37
3061.87
3073.6
3085.56
3097.75
3110.15
3122.77
3135.6
3148.63
3161.88
3175.34
3189
3202.84
3216.87
3231.06
3245.43
3259.94
3274.58
3289.34
3304.2
3319.14
3334.14
3349.16
3364.15
3379.05
3393.81
3408.34
3422.56
3436.29
3449.46
3461.74
3473.03
3482.55
3489.86
3494.37
3495.29
3491.11
3478.29
3447.95
3404.08
3309.73
2790
2790
2790
2790
2790
2790.06
2791.46
2800.04
2816.14
2828.01
2831.71
2831.88
2831.11
2830.32
2830.01
2829.12
2827.18
2825.04
2823.16
2821.24
2819.32
2817.88
2817.02
2816.6
2815.6
2813.37
2810.72
2808.31
2806.16
2804.15
2802.29
2800.73
2799.48
2798.47
2797.63
2796.96
2796.5
2796.33
2796.49
2797.01
2797.82
2798.88
2800.22
2801.86
2803.83
2806.18
2808.9
2811.95
2815.31
2818.95
2822.87
2827.07
2831.53
2836.24
2841.19
2846.37
2851.82
2857.52
2863.48
2869.71
2876.2
2882.96
2889.98
2897.26
2904.78
2912.55
2920.56
2928.82
2937.32
2946.08
2955.09
2964.37
2973.9
2983.68
2993.71
3003.98
3014.5
3025.27
3036.29
3047.56
3059.07
3070.82
3082.82
3095.05
3107.52
3120.23
3133.17
3146.34
3159.75
3173.38
3187.25
3201.35
3215.66
3230.19
3244.93
3259.88
3275.03
3290.36
3305.88
3321.56
3337.4
3353.39
3369.52
3385.73
3402.01
3418.3
3434.58
3450.78
3466.81
3482.59
3497.91
3512.7
3526.5
3539.27
3550
3558.53
3563.9
3564.48
3552.72
3529.83
3474.73
2790
2790
2790
2790
2790
2790.09
2791.82
2801.23
2817.51
2828.95
2832.37
2832.68
2832.29
2831.9
2831.88
2831.18
2829.35
2827.13
2825.02
2822.65
2820.23
2818.33
2817.12
2816.26
2814.86
2812.41
2809.79
2807.53
2805.56
2803.73
2802.08
2800.75
2799.74
2798.96
2798.35
2797.92
2797.71
2797.78
2798.21
2798.96
2799.97
2801.23
2802.75
2804.56
2806.7
2809.21
2812.08
2815.28
2818.78
2822.56
2826.63
2830.97
2835.57
2840.4
2845.48
2850.79
2856.36
2862.18
2868.27
2874.63
2881.25
2888.13
2895.28
2902.69
2910.34
2918.24
2926.39
2934.79
2943.44
2952.35
2961.52
2970.95
2980.65
2990.6
3000.81
3011.26
3021.97
3032.94
3044.16
3055.64
3067.38
3079.36
3091.6
3104.09
3116.83
3129.82
3143.07
3156.55
3170.29
3184.28
3198.52
3213.02
3227.76
3242.74
3257.97
3273.44
3289.16
3305.1
3321.27
3337.66
3354.29
3371.13
3388.19
3405.43
3422.85
3440.41
3458.12
3475.93
3493.8
3511.65
3529.42
3547.02
3564.22
3581
3596.73
3611.55
3623.85
3633.89
3638.84
3633.15
3618.16
2790
2790
2790
2790
2790
2790.14
2792.38
2802.9
2819.2
2829.96
2833.11
2833.55
2833.51
2833.48
2833.66
2833.06
2831.15
2828.67
2826.18
2823.32
2820.48
2818.24
2816.59
2815.17
2813.47
2811.07
2808.61
2806.56
2804.78
2803.15
2801.71
2800.59
2799.8
2799.26
2798.89
2798.69
2798.71
2799.05
2799.74
2800.72
2801.94
2803.4
2805.11
2807.09
2809.41
2812.08
2815.1
2818.45
2822.1
2826.03
2830.23
2834.71
2839.43
2844.39
2849.58
2855.01
2860.7
2866.65
2872.86
2879.33
2886.08
2893.09
2900.36
2907.89
2915.66
2923.7
2931.98
2940.51
2949.3
2958.35
2967.66
2977.25
2987.1
2997.21
3007.58
3018.21
3029.09
3040.24
3051.66
3063.34
3075.28
3087.48
3099.95
3112.67
3125.67
3138.92
3152.44
3166.21
3180.25
3194.57
3209.15
3224.01
3239.13
3254.52
3270.19
3286.12
3302.33
3318.81
3335.56
3352.57
3369.86
3387.43
3405.28
3423.38
3441.75
3460.35
3479.22
3498.3
3517.6
3537.07
3556.7
3576.41
3596.11
3615.68
3634.86
3653.67
3671.21
3687.93
3701.26
3708.82
3717.15
2790
2790
2790
2790
2790.01
2790.23
2793.22
2804.99
2821.12
2830.98
2833.93
2834.52
2834.79
2835.08
2835.32
2834.61
2832.39
2829.54
2826.61
2823.35
2820.11
2817.27
2815.15
2813.52
2811.77
2809.53
2807.26
2805.41
2803.82
2802.39
2801.19
2800.31
2799.75
2799.41
2799.25
2799.25
2799.52
2800.14
2801.08
2802.3
2803.74
2805.4
2807.3
2809.46
2811.95
2814.78
2817.96
2821.46
2825.25
2829.32
2833.66
2838.27
2843.11
2848.19
2853.5
2859.05
2864.85
2870.91
2877.24
2883.83
2890.69
2897.81
2905.2
2912.85
2920.75
2928.9
2937.31
2945.97
2954.9
2964.08
2973.54
2983.27
2993.27
3003.53
3014.06
3024.85
3035.91
3047.23
3058.83
3070.7
3082.84
3095.25
3107.93
3120.88
3134.11
3147.61
3161.38