/*--------------------------------*- C++ -*----------------------------------*\
| =========                 |                                                 |
| \\      /  F ield         | OpenFOAM: The Open Source CFD Toolbox           |
|  \\    /   O peration     | Version:  2406                                  |
|   \\  /    A nd           | Website:  www.openfoam.com                      |
|    \\/     M anipulation  |                                                 |
\*---------------------------------------------------------------------------*/
FoamFile
{
    version     2.0;
    format      ascii;
    arch        "LSB;label=32;scalar=64";
    class       volScalarField;
    location    "0.056";
    object      p;
}
// * * * * * * * * * * * * * * * * * * * * * * * * * * * * * * * * * * * * * //

dimensions      [1 -1 -2 0 0 0 0];

internalField   nonuniform List<scalar> 
78650
(
3762.31
2860.57
2802.05
2795.78
2789.31
2784.54
2778.96
2773.33
2766.96
2760.19
2753.34
2746.74
2740.59
2735.23
2731.16
2728.83
2728.06
2728.4
2729.73
2731.12
2732.12
2732.77
2733.22
2733.54
2733.69
2733.55
2733.13
2732.38
2731.27
2729.85
2728.19
2726.32
2724.31
2722.2
2720.02
2717.82
2715.63
2713.47
2711.36
2709.3
2707.3
2705.35
2703.44
2701.54
2699.65
2697.74
2695.78
2693.75
2691.62
2689.36
2686.95
2684.34
2681.51
2678.41
2675
2671.25
2667.1
2662.5
2657.39
2651.71
2645.41
2638.42
2630.67
2622.12
2612.69
2602.29
2590.83
2578.22
2564.4
2549.35
2532.96
2515.11
2495.73
2474.73
2452.04
2427.68
2401.62
2373.89
2344.38
2312.91
2279.49
2244.54
2208.01
2170.3
2131.17
2090.24
2047.43
2003.28
1958.53
1912.53
1866.83
1822.28
1778.89
1735.46
1691.53
1649.47
1608.36
1567.89
1527.77
1492.02
1459.76
1427.81
1396.78
1367.31
1340.31
1314.65
1290.26
1266.81
1245.51
1225.8
1208.11
1192.07
1177.13
1162.96
1149.17
1136.24
1124.19
1113.12
1103.16
1094.67
1077.72
3744.58
2859.12
2805.14
2797.73
2790.68
2785.63
2779.97
2774.25
2767.94
2761.46
2755.13
2749.19
2743.63
2738.52
2734.25
2731.39
2730.27
2730.43
2731.72
2733.51
2735.01
2736.03
2736.65
2736.99
2737.13
2736.96
2736.59
2735.98
2735.09
2733.94
2732.55
2730.99
2729.29
2727.49
2725.62
2723.73
2721.84
2719.99
2718.19
2716.45
2714.77
2713.15
2711.59
2710.05
2708.54
2707.03
2705.49
2703.9
2702.23
2700.47
2698.58
2696.53
2694.29
2691.82
2689.09
2686.05
2682.66
2678.88
2674.64
2669.9
2664.61
2658.68
2652.07
2644.73
2636.58
2627.56
2617.57
2606.55
2594.4
2581.06
2566.41
2550.39
2532.97
2514.06
2493.6
2471.58
2447.88
2422.43
2395.11
2365.81
2334.66
2301.92
2267.41
2231.38
2193.48
2154.16
2113.36
2071.04
2028.17
1985.07
1941.29
1896.73
1851.88
1807.6
1762.98
1719.51
1676.03
1635.01
1596.13
1557.29
1520.42
1485.39
1452.22
1419.95
1388.98
1360.08
1333.92
1309.12
1286.11
1264.27
1244.34
1225.8
1208.54
1192.18
1176.54
1161.7
1147.92
1134.82
1122.4
1110.92
1090.01
3729.6
2854.38
2807.77
2799.56
2792.04
2786.77
2781.04
2775.27
2769.06
2762.87
2757.08
2751.84
2746.96
2742.3
2738
2734.65
2732.97
2732.81
2733.8
2735.78
2737.75
2739.23
2740.15
2740.63
2740.79
2740.62
2740.21
2739.68
2738.95
2738.01
2736.89
2735.61
2734.22
2732.73
2731.19
2729.62
2728.05
2726.52
2725.03
2723.62
2722.28
2721
2719.79
2718.63
2717.5
2716.39
2715.27
2714.13
2712.93
2711.66
2710.3
2708.8
2707.14
2705.29
2703.22
2700.88
2698.24
2695.25
2691.86
2688.02
2683.68
2678.78
2673.26
2667.07
2660.14
2652.41
2643.81
2634.24
2623.61
2611.87
2598.94
2584.76
2569.29
2552.41
2534.01
2514.03
2492.35
2468.94
2443.74
2416.72
2387.98
2357.56
2325.27
2291.32
2255.68
2218.88
2180.51
2140.59
2099.01
2055.51
2010.96
1966.34
1920.77
1875.85
1831.5
1787.74
1745.02
1700.72
1658.69
1617.77
1579.62
1541.23
1503.91
1468.24
1434.96
1404
1374.26
1345.31
1318.45
1293.61
1271.61
1251.34
1233
1215.67
1199.48
1184.46
1170.34
1156.95
1144.84
1134.16
1110.54
3715.7
2850.52
2810.75
2801.93
2793.78
2788.16
2782.32
2776.52
2770.41
2764.54
2759.31
2754.79
2750.63
2746.51
2742.4
2738.72
2736.33
2735.63
2736.21
2738.02
2740.25
2742.21
2743.59
2744.33
2744.6
2744.51
2744.07
2743.54
2742.91
2742.14
2741.25
2740.24
2739.14
2737.96
2736.74
2735.5
2734.26
2733.05
2731.9
2730.81
2729.81
2728.88
2728.02
2727.22
2726.46
2725.75
2725.05
2724.33
2723.59
2722.8
2721.94
2720.98
2719.89
2718.64
2717.2
2715.54
2713.62
2711.4
2708.83
2705.86
2702.46
2698.56
2694.1
2689.04
2683.32
2676.88
2669.65
2661.54
2652.47
2642.4
2631.23
2618.89
2605.31
2590.34
2573.93
2556.03
2536.55
2515.46
2492.72
2468.27
2442.11
2414.13
2384.14
2352.35
2318.8
2283.74
2246.76
2208.28
2167.94
2126.25
2083.42
2039.98
1996.55
1951.59
1907.55
1861.55
1816.98
1770.89
1727.41
1683.37
1641.73
1602.16
1562.97
1526.13
1489.94
1456.18
1424.11
1392.71
1363.77
1335.91
1309.95
1285.38
1262.56
1242.11
1224.02
1207.57
1191.96
1177.36
1164.64
1154.09
1134.22
3700.16
2847.87
2814.16
2805.19
2796.29
2790.09
2783.95
2778.06
2772.09
2766.59
2761.97
2758.14
2754.63
2751.07
2747.3
2743.51
2740.45
2739.05
2739.15
2740.42
2742.63
2744.96
2746.86
2748.06
2748.56
2748.6
2748.23
2747.67
2747.07
2746.42
2745.71
2744.94
2744.11
2743.24
2742.34
2741.42
2740.52
2739.65
2738.84
2738.1
2737.44
2736.86
2736.36
2735.93
2735.56
2735.25
2734.96
2734.69
2734.4
2734.09
2733.73
2733.3
2732.77
2732.11
2731.3
2730.3
2729.09
2727.62
2725.84
2723.73
2721.23
2718.29
2714.86
2710.89
2706.32
2701.09
2695.16
2688.43
2680.83
2672.3
2662.74
2652.1
2640.3
2627.24
2612.88
2597.17
2579.98
2561.25
2540.9
2518.85
2495.03
2469.28
2441.55
2412.12
2381.06
2348.45
2313.98
2277.92
2239.85
2200.43
2159.55
2116.85
2073.41
2028.13
1983.74
1937.82
1892.47
1846.38
1800.37
1756.63
1712.57
1671.53
1630.79
1591.72
1553.03
1515.07
1479.8
1445.76
1414.68
1384.87
1356.16
1327.9
1300.44
1274.91
1252.19
1231.83
1212.91
1194.35
1176.69
1161.48
1133.05
3682.8
2849.25
2817.28
2808.5
2799.08
2792.29
2785.81
2779.86
2774.19
2769.21
2765.23
2761.98
2759.01
2755.96
2752.59
2748.93
2745.47
2743.2
2742.62
2743.25
2745.06
2747.43
2749.77
2751.57
2752.5
2752.77
2752.6
2752.08
2751.48
2750.89
2750.32
2749.75
2749.17
2748.58
2747.98
2747.39
2746.83
2746.3
2745.83
2745.44
2745.13
2744.91
2744.77
2744.72
2744.73
2744.81
2744.93
2745.09
2745.25
2745.4
2745.53
2745.61
2745.63
2745.55
2745.34
2744.99
2744.47
2743.72
2742.71
2741.43
2739.8
2737.79
2735.36
2732.45
2729.01
2724.99
2720.35
2714.99
2708.85
2701.87
2693.96
2685.07
2675.12
2664.01
2651.7
2638.07
2622.99
2606.43
2588.31
2568.56
2547.11
2523.88
2498.86
2472.19
2443.74
2413.39
2380.98
2346.77
2310.57
2273.05
2233.6
2192.82
2150.55
2107.6
2063.54
2019.11
1973.57
1928.58
1881.63
1835.59
1789.38
1745.99
1703.21
1660.89
1619.4
1578.39
1540.63
1504.38
1470.47
1438
1407.25
1378.37
1351.12
1325.11
1300.99
1278.95
1259.41
1240.78
1222.72
1205.63
1171.69
3663.28
2851.42
2818.92
2810.74
2801.38
2794.3
2787.74
2782.02
2776.93
2772.62
2769.19
2766.36
2763.8
2761.16
2758.17
2754.74
2751.13
2748.13
2746.67
2746.68
2747.77
2749.85
2752.37
2754.72
2756.3
2756.96
2757.06
2756.75
2756.2
2755.64
2755.15
2754.73
2754.36
2754.03
2753.72
2753.45
2753.21
2753.03
2752.91
2752.87
2752.92
2753.06
2753.3
2753.62
2754.03
2754.5
2755.04
2755.63
2756.24
2756.86
2757.48
2758.08
2758.63
2759.12
2759.52
2759.79
2759.92
2759.91
2759.64
2759.16
2758.4
2757.28
2755.81
2753.92
2751.56
2748.69
2745.25
2741.18
2736.41
2730.89
2724.52
2717.26
2709.03
2699.72
2689.3
2677.67
2664.72
2650.44
2634.74
2617.49
2598.64
2578.06
2555.73
2531.66
2505.68
2477.79
2448.07
2416.7
2383.46
2348.53
2311.39
2272.81
2232.45
2190.76
2147.83
2103.61
2058.33
2013.06
1966.03
1919.07
1871.74
1825.63
1781.69
1736.92
1693.7
1650.34
1609.86
1570.49
1532.37
1495.45
1459.88
1426.65
1395.65
1365.94
1337.58
1311.1
1287.5
1266.88
1249.18
1234.18
1203.15
3640.54
2853.59
2819.16
2811.59
2802.85
2796.2
2790.11
2785.04
2780.65
2777.02
2773.89
2771.3
2768.97
2766.63
2763.95
2760.76
2757.21
2753.8
2751.45
2750.69
2751.07
2752.5
2754.78
2757.41
2759.67
2760.97
2761.46
2761.48
2761.13
2760.65
2760.22
2759.91
2759.7
2759.59
2759.56
2759.57
2759.66
2759.8
2760.03
2760.34
2760.75
2761.25
2761.86
2762.56
2763.35
2764.23
2765.18
2766.19
2767.24
2768.32
2769.42
2770.51
2771.59
2772.64
2773.61
2774.5
2775.28
2775.93
2776.41
2776.68
2776.75
2776.51
2775.98
2775.09
2773.78
2772.03
2769.79
2766.98
2763.58
2759.51
2754.68
2749.05
2742.55
2735.07
2726.59
2717
2706.2
2694.14
2680.68
2665.74
2649.3
2631.26
2611.58
2590.17
2566.86
2541.7
2514.77
2486.08
2455.38
2422.67
2387.65
2351.05
2312.57
2272.85
2231.36
2188.61
2145.12
2100.07
2054.42
2006.93
1960.74
1913.18
1868.03
1821.89
1777.55
1732.21
1688.66
1646.76
1605.59
1566.66
1528.71
1493.17
1459.98
1427.63
1396.35
1365.65
1336.26
1309.1
1285.25
1263.84
1222.02
3613.38
2853.74
2818.27
2811.89
2804.26
2798.54
2793.38
2789.28
2785.72
2782.36
2779.44
2776.82
2774.51
2772.28
2769.8
2766.81
2763.36
2759.81
2756.83
2755.2
2754.98
2755.64
2757.34
2759.86
2762.55
2764.57
2765.71
2766.14
2766.15
2765.88
2765.56
2765.34
2765.26
2765.33
2765.54
2765.83
2766.2
2766.66
2767.22
2767.87
2768.64
2769.51
2770.49
2771.57
2772.76
2774.03
2775.39
2776.83
2778.32
2779.86
2781.44
2783.03
2784.63
2786.22
2787.77
2789.26
2790.68
2792
2793.19
2794.21
2795.04
2795.66
2796
2796.08
2795.77
2795.11
2794.01
2792.39
2790.27
2787.53
2784.14
2780.04
2775.14
2769.39
2762.72
2755.03
2746.24
2736.31
2725.11
2712.6
2698.73
2683.34
2666.3
2647.54
2626.95
2604.64
2580.65
2554.84
2526.99
2497.11
2465.17
2431.64
2396.21
2359.21
2320.02
2279.33
2236.87
2193.25
2148.75
2102.93
2057
2008.52
1961.19
1914.05
1867.38
1820.65
1773.44
1729.16
1685.09
1643.55
1602.21
1562.41
1525.31
1489.89
1457.26
1425.44
1395.42
1367.47
1343.12
1322.67
1284.34
3582.59
2851.32
2816.1
2811.19
2805.24
2801.55
2798.17
2795.04
2791.86
2788.72
2785.72
2782.95
2780.53
2778.23
2775.74
2772.79
2769.4
2765.84
2762.61
2760.32
2759.41
2759.49
2760.4
2762.41
2765.14
2767.65
2769.5
2770.61
2771.07
2771.16
2771.07
2770.99
2771.03
2771.26
2771.64
2772.17
2772.82
2773.58
2774.45
2775.43
2776.53
2777.76
2779.1
2780.56
2782.13
2783.8
2785.57
2787.42
2789.35
2791.33
2793.37
2795.45
2797.55
2799.66
2801.76
2803.84
2805.87
2807.83
2809.7
2811.45
2813.05
2814.48
2815.68
2816.64
2817.32
2817.67
2817.71
2817.26
2816.41
2815.02
2813.04
2810.45
2807.16
2803.1
2798.23
2792.44
2785.68
2777.87
2768.89
2758.67
2747.14
2734.17
2719.7
2703.69
2686.04
2666.78
2645.78
2622.84
2597.86
2570.95
2542.11
2511.44
2478.56
2443.64
2406.42
2367.69
2327.01
2285.14
2242.05
2197.98
2151.99
2104.63
2055.49
2008.29
1960.17
1913.19
1864.2
1818.02
1771.91
1727.74
1683.76
1639.94
1597.79
1556.76
1518.86
1482.07
1446.69
1412.74
1380.86
1353.53
1300.55
3550.64
2846.77
2812.82
2809.4
2805.25
2803.3
2801.51
2799.69
2797.4
2794.68
2791.99
2789.37
2786.97
2784.58
2781.95
2778.86
2775.29
2771.6
2768.23
2765.61
2764.14
2763.79
2764.09
2765.41
2767.79
2770.43
2772.79
2774.61
2775.76
2776.37
2776.64
2776.81
2777.02
2777.38
2777.93
2778.66
2779.55
2780.58
2781.74
2783.04
2784.46
2786.03
2787.73
2789.55
2791.5
2793.56
2795.73
2798
2800.35
2802.78
2805.28
2807.83
2810.43
2813.06
2815.71
2818.35
2820.97
2823.56
2826.09
2828.54
2830.88
2833.09
2835.12
2836.97
2838.58
2839.9
2840.93
2841.61
2841.91
2841.81
2841.14
2839.98
2838.17
2835.7
2832.5
2828.48
2823.62
2817.81
2810.95
2802.99
2793.87
2783.45
2771.68
2758.45
2743.63
2727.17
2708.94
2688.85
2666.96
2643.34
2617.85
2590.34
2560.47
2528.54
2494.58
2459.08
2421.54
2382.47
2341.5
2299.07
2254.89
2208.8
2161.73
2113.99
2066.13
2018.41
1969.31
1920
1872.15
1825.06
1779.9
1733.98
1689.64
1646.38
1606.69
1568.87
1533.39
1498.95
1465.87
1435.83
1376.15
3519.65
2841.42
2809.75
2807.36
2804.53
2803.66
2802.97
2802.09
2800.52
2798.63
2796.61
2794.44
2792.37
2790.22
2787.75
2784.68
2781.04
2777.2
2773.68
2770.89
2769.1
2768.39
2768.36
2769.06
2770.88
2773.28
2775.81
2778.15
2779.99
2781.27
2782.09
2782.64
2783.11
2783.66
2784.37
2785.28
2786.38
2787.64
2789.07
2790.65
2792.38
2794.26
2796.29
2798.47
2800.77
2803.21
2805.77
2808.43
2811.2
2814.06
2817
2820.02
2823.09
2826.22
2829.39
2832.57
2835.77
2838.95
2842.11
2845.23
2848.28
2851.22
2854.05
2856.73
2859.22
2861.51
2863.55
2865.3
2866.71
2867.76
2868.41
2868.63
2868.31
2867.42
2865.89
2863.59
2860.58
2856.72
2851.93
2846.16
2839.29
2831.24
2821.95
2811.32
2799.24
2785.68
2770.49
2753.65
2735.17
2714.93
2692.64
2668.15
2641.4
2612.74
2582.2
2549.87
2515.22
2478.59
2439.64
2399.12
2356.84
2313.02
2267.29
2220.02
2172.43
2123.74
2075.66
2024.05
1973.95
1923.58
1876.23
1828.27
1781.1
1733.39
1688.14
1645.19
1605.74
1568.22
1533.26
1502.76
1440.37
3491.7
2836.92
2808.65
2806.43
2803.74
2803.23
2802.9
2802.4
2801.59
2800.19
2798.3
2796.44
2794.87
2793.55
2791.97
2789.59
2786.4
2782.69
2779.04
2776.05
2774.03
2773.09
2772.89
2773.27
2774.58
2776.55
2778.92
2781.46
2783.81
2785.75
2787.22
2788.32
2789.2
2790.03
2790.95
2792.03
2793.31
2794.79
2796.45
2798.29
2800.3
2802.47
2804.82
2807.32
2809.97
2812.77
2815.7
2818.76
2821.93
2825.21
2828.58
2832.04
2835.58
2839.2
2842.87
2846.59
2850.34
2854.1
2857.87
2861.63
2865.35
2869.01
2872.59
2876.06
2879.4
2882.58
2885.56
2888.31
2890.8
2893
2894.83
2896.27
2897.28
2897.8
2897.87
2897.19
2895.94
2893.92
2891.07
2887.37
2882.7
2877.02
2870.25
2862.27
2852.95
2842.22
2829.95
2816.11
2800.66
2783.42
2764.21
2743.04
2719.98
2695.17
2668.38
2639.48
2608.06
2574.46
2538.52
2501.07
2461.93
2421.15
2377.96
2332.86
2286.33
2239.3
2191.11
2141.58
2091.5
2040.1
1990.15
1941.1
1892.26
1842.11
1792.32
1742.99
1697.25
1653.73
1612.07
1573.54
1496.39
3467.47
2836.34
2809.88
2807.18
2803.34
2801.94
2801.38
2801.15
2800.57
2799.31
2797.65
2796.2
2795.09
2794.3
2793.43
2792.08
2790.17
2787.46
2784.28
2781.3
2779.09
2777.95
2777.64
2777.88
2778.91
2780.46
2782.48
2784.9
2787.44
2789.85
2791.95
2793.67
2795.09
2796.33
2797.55
2798.85
2800.32
2801.98
2803.85
2805.91
2808.17
2810.62
2813.24
2816.05
2819.03
2822.16
2825.44
2828.87
2832.42
2836.1
2839.88
2843.77
2847.76
2851.83
2855.98
2860.2
2864.47
2868.79
2873.13
2877.49
2881.85
2886.18
2890.47
2894.7
2898.83
2902.86
2906.74
2910.45
2913.95
2917.21
2920.19
2922.88
2925.2
2927.1
2928.54
2929.48
2929.88
2929.68
2928.7
2927.02
2924.44
2920.97
2916.49
2910.91
2904.15
2896.14
2886.77
2876.03
2863.8
2849.89
2834.22
2816.83
2797.64
2776.5
2753.1
2727.38
2699.29
2669.17
2636.89
2602.92
2566.94
2528.98
2488.45
2445.78
2401
2354.94
2307.92
2259.9
2210.37
2159.64
2107.75
2057.14
2007.04
1957.05
1906.01
1855.29
1807.04
1762.55
1722.35
1686.87
1621.03
3445.57
2839.56
2813.07
2809.07
2803.78
2800.41
2798.37
2797.58
2796.94
2795.88
2794.7
2793.89
2793.46
2793.28
2793.08
2792.6
2791.7
2790.35
2788.45
2786.19
2784.16
2782.92
2782.53
2782.73
2783.68
2784.98
2786.66
2788.77
2791.21
2793.81
2796.34
2798.65
2800.66
2802.43
2804.05
2805.65
2807.34
2809.19
2811.25
2813.52
2816
2818.69
2821.58
2824.66
2827.94
2831.39
2835
2838.77
2842.69
2846.75
2850.93
2855.23
2859.63
2864.15
2868.76
2873.46
2878.24
2883.08
2887.97
2892.91
2897.87
2902.85
2907.81
2912.75
2917.63
2922.45
2927.17
2931.77
2936.21
2940.48
2944.52
2948.32
2951.84
2955.03
2957.84
2960.22
2962.11
2963.47
2964.26
2964.48
2963.89
2962.55
2960.34
2957.12
2952.95
2947.64
2941.12
2933.31
2924.06
2913.25
2900.85
2886.84
2870.99
2853.14
2833.11
2811.02
2786.94
2761.03
2732.94
2702.78
2670.24
2635.6
2598.54
2559.22
2517.38
2473.82
2428.88
2382.88
2335.16
2285.19
2233.4
2180.65
2128.41
2077.26
2023.66
1971.36
1913.34
1861.18
1810.54
1764.52
1679.01
3424.18
2846.69
2817.2
2811.29
2804.67
2799.76
2796.33
2794.06
2792.3
2790.59
2789.35
2788.96
2789.38
2790.36
2791.34
2791.79
2791.62
2791.11
2790.45
2789.71
2788.72
2787.87
2787.57
2787.8
2788.75
2789.99
2791.47
2793.26
2795.42
2797.92
2800.61
2803.31
2805.85
2808.18
2810.3
2812.3
2814.28
2816.36
2818.61
2821.06
2823.74
2826.65
2829.77
2833.11
2836.65
2840.39
2844.31
2848.4
2852.66
2857.07
2861.62
2866.3
2871.1
2876.03
2881.08
2886.23
2891.47
2896.8
2902.21
2907.68
2913.21
2918.78
2924.37
2929.97
2935.55
2941.11
2946.62
2952.05
2957.37
2962.57
2967.61
2972.47
2977.11
2981.51
2985.6
2989.35
2992.71
2995.64
2998.06
2999.94
3001.21
3001.82
3001.84
3000.79
2999.02
2996.18
2992.25
2987.17
2980.81
2973.12
2964.06
2953.49
2941.19
2927.08
2911.09
2893.31
2873.68
2852.09
2828.09
2801.72
2772.82
2741.86
2708.68
2673.3
2635.39
2595.39
2553.43
2509.9
2464.52
2417.33
2368.11
2317.5
2266.57
2215.82
2165.64
2114.03
2061.11
2009.77
1958.39
1913.05
1831.07
3399.99
2854.46
2820.8
2813
2805.82
2800.31
2796.35
2793.17
2790.51
2787.85
2785.37
2784.06
2784.27
2785.43
2787.25
2788.92
2789.96
2790.41
2790.7
2791.08
2791.61
2792.01
2792.33
2792.88
2793.9
2795.23
2796.69
2798.29
2800.16
2802.41
2805.01
2807.85
2810.75
2813.57
2816.2
2818.67
2821.03
2823.4
2825.86
2828.51
2831.37
2834.47
2837.81
2841.37
2845.16
2849.17
2853.37
2857.76
2862.33
2867.06
2871.96
2877
2882.18
2887.5
2892.95
2898.53
2904.22
2910.01
2915.9
2921.88
2927.94
2934.07
2940.25
2946.47
2952.7
2958.95
2965.18
2971.38
2977.52
2983.58
2989.54
2995.37
3001.04
3006.53
3011.79
3016.78
3021.46
3025.79
3029.73
3033.24
3036.24
3038.64
3040.45
3041.59
3042.02
3041.6
3040.2
3037.84
3034.31
3029.67
3023.75
3016.42
3007.52
2997.03
2984.85
2970.91
2955.01
2936.96
2916.55
2893.85
2868.84
2841.88
2812.79
2781.56
2747.73
2711.35
2672.38
2631.33
2588.32
2543.69
2496.91
2448.29
2397.48
2345.64
2293.03
2240.47
2187.73
2130.31
2073.44
2021.31
1929.24
3370.13
2858.87
2823.32
2815.77
2809.61
2803.87
2798.66
2794.45
2790.89
2787.66
2784.45
2781.94
2780.79
2781.11
2782.52
2784.7
2786.92
2788.59
2789.86
2791.07
2792.67
2794.53
2796.17
2797.51
2798.91
2800.49
2802.11
2803.71
2805.41
2807.38
2809.73
2812.48
2815.51
2818.65
2821.74
2824.68
2827.48
2830.2
2832.94
2835.8
2838.85
2842.13
2845.65
2849.42
2853.44
2857.68
2862.13
2866.79
2871.65
2876.69
2881.9
2887.27
2892.8
2898.48
2904.31
2910.27
2916.37
2922.59
2928.93
2935.38
2941.92
2948.56
2955.28
2962.06
2968.9
2975.77
2982.67
2989.57
2996.46
3003.32
3010.11
3016.83
3023.45
3029.94
3036.29
3042.43
3048.34
3053.98
3059.31
3064.29
3068.87
3073
3076.62
3079.67
3082.07
3083.78
3084.73
3084.94
3084.02
3082.2
3079.18
3074.86
3069.25
3062.22
3053.66
3043.42
3031.32
3017.26
3001.2
2983.23
2963.16
2941.09
2916.73
2890.12
2860.84
2828.99
2794.48
2757.71
2718.89
2678.18
2635.26
2590.26
2542.59
2493.34
2442.38
2391.19
2338.81
2286.78
2230.88
2178.54
2087.33
3335.89
2857.54
2826.71
2821.1
2815.14
2809.83
2804.29
2798.96
2794.13
2789.61
2785.44
2782.08
2779.92
2779.09
2779.32
2780.65
2782.87
2785.35
2787.76
2790.1
2792.55
2795.38
2798.4
2801.09
2803.33
2805.41
2807.38
2809.17
2810.88
2812.7
2814.81
2817.34
2820.29
2823.56
2826.95
2830.32
2833.56
2836.68
2839.74
2842.85
2846.11
2849.57
2853.27
2857.23
2861.44
2865.9
2870.59
2875.5
2880.61
2885.93
2891.43
2897.11
2902.96
2908.97
2915.15
2921.48
2927.95
2934.57
2941.32
2948.2
2955.2
2962.31
2969.53
2976.83
2984.22
2991.67
2999.18
3006.73
3014.3
3021.88
3029.44
3036.96
3044.44
3051.85
3059.16
3066.34
3073.35
3080.16
3086.74
3093.06
3099.06
3104.71
3109.96
3114.76
3119.06
3122.78
3125.83
3128.18
3129.74
3130.47
3130.37
3128.91
3126.55
3122.87
3117.81
3111.25
3103.03
3093.1
3081.45
3067.98
3052.36
3034.53
3014.23
2991.66
2966.57
2939.12
2909.06
2876.54
2841.6
2804.3
2764.71
2722.82
2678.52
2632.32
2583.78
2534.29
2482.92
2431.56
2377.89
2324.8
2239.7
3300.42
2849.98
2826.56
2824.08
2820.73
2817.13
2812.3
2806.39
2800.18
2794.34
2789.07
2784.34
2780.81
2778.9
2778.34
2778.59
2779.71
2781.93
2784.79
2788
2791.46
2795.15
2799.23
2803.25
2806.71
2809.65
2812.22
2814.43
2816.36
2818.19
2820.16
2822.46
2825.22
2828.44
2831.97
2835.64
2839.27
2842.79
2846.21
2849.62
2853.11
2856.77
2860.64
2864.77
2869.17
2873.82
2878.72
2883.85
2889.2
2894.77
2900.54
2906.5
2912.64
2918.95
2925.44
2932.1
2938.93
2945.9
2953.03
2960.3
2967.7
2975.25
2982.91
2990.69
2998.57
3006.54
3014.59
3022.72
3030.91
3039.14
3047.38
3055.64
3063.88
3072.1
3080.28
3088.39
3096.4
3104.27
3111.98
3119.5
3126.79
3133.82
3140.54
3146.92
3152.89
3158.42
3163.43
3167.87
3171.67
3174.7
3176.99
3178.39
3178.93
3178.33
3176.5
3173.4
3168.78
3162.73
3155.03
3145.53
3133.99
3120.35
3104.49
3086.56
3066.36
3043.95
3018.86
2991.21
2960.81
2927.81
2892.47
2854.71
2814.72
2772.22
2727.02
2679.83
2629.89
2579.7
2525.79
2472.23
2392.94
3271.55
2837.78
2821.48
2822.8
2822.18
2821.84
2819.82
2815.27
2808.62
2801.4
2794.69
2788.7
2783.78
2780.41
2778.71
2778.32
2778.67
2779.89
2782.17
2785.48
2789.6
2794.24
2799.12
2804.19
2808.91
2812.92
2816.31
2819.13
2821.49
2823.55
2825.54
2827.72
2830.29
2833.35
2836.88
2840.7
2844.63
2848.52
2852.31
2856.04
2859.79
2863.66
2867.72
2872.02
2876.58
2881.41
2886.5
2891.84
2897.41
2903.2
2909.21
2915.42
2921.83
2928.42
2935.2
2942.16
2949.29
2956.6
2964.06
2971.69
2979.47
2987.4
2995.47
3003.67
3012
3020.44
3028.99
3037.64
3046.38
3055.18
3064.05
3072.95
3081.88
3090.83
3099.78
3108.72
3117.6
3126.41
3135.11
3143.7
3152.13
3160.37
3168.4
3176.16
3183.63
3190.76
3197.49
3203.77
3209.55
3214.76
3219.33
3223.17
3226.2
3228.33
3229.51
3229.78
3228.57
3226.29
3222.45
3216.92
3209.78
3200.83
3189.99
3177.16
3162.13
3144.85
3124.92
3102.53
3077.34
3049.61
3019.27
2986.32
2951.01
2912.99
2872.74
2829.81
2784.41
2736.94
2686.36
2632.64
2558.09
3252.45
2824.54
2812.4
2817.68
2820.55
2822.82
2823.52
2821.97
2816.91
2809.58
2802.04
2795.08
2788.85
2783.79
2780.48
2779.01
2778.83
2779.4
2781.04
2783.71
2787.7
2792.81
2798.51
2804.39
2810.1
2815.21
2819.55
2823.14
2826.08
2828.54
2830.74
2832.94
2835.4
2838.31
2841.74
2845.6
2849.72
2853.9
2858.03
2862.08
2866.12
2870.22
2874.47
2878.95
2883.68
2888.68
2893.94
2899.46
2905.23
2911.23
2917.45
2923.89
2930.53
2937.38
2944.42
2951.65
2959.06
2966.66
2974.43
2982.38
2990.49
2998.76
3007.19
3015.78
3024.5
3033.36
3042.35
3051.46
3060.68
3069.99
3079.4
3088.87
3098.41
3107.99
3117.62
3127.27
3136.92
3146.55
3156.13
3165.64
3175.07
3184.38
3193.54
3202.53
3211.3
3219.84
3228.09
3236
3243.51
3250.6
3257.19
3263.22
3268.63
3273.33
3277.21
3280.26
3282.29
3283.3
3283.29
3281.41
3278.5
3273.83
3267.44
3259.09
3248.6
3235.9
3220.78
3203.31
3183.02
3160.16
3134.33
3105.77
3074.42
3040.25
3003.61
2963.86
2921.77
2876.86
2829.59
2777.29
2708.53
3244.67
2814.42
2802.02
2809.31
2816.34
2821.83
2824.57
2825.01
2822.97
2817.32
2809.92
2802.55
2795.58
2789.21
2784.13
2781.03
2779.85
2779.88
2780.89
2783.11
2786.63
2791.66
2797.79
2804.3
2810.79
2816.84
2822.07
2826.45
2830.05
2833.01
2835.56
2837.93
2840.4
2843.22
2846.54
2850.37
2854.58
2858.98
2863.39
2867.75
2872.07
2876.42
2880.88
2885.53
2890.43
2895.59
2901.01
2906.71
2912.65
2918.84
2925.26
2931.9
2938.76
2945.82
2953.09
2960.57
2968.23
2976.09
2984.14
2992.36
3000.77
3009.35
3018.11
3027.03
3036.1
3045.33
3054.7
3064.21
3073.86
3083.63
3093.5
3103.48
3113.54
3123.68
3133.9
3144.17
3154.49
3164.83
3175.16
3185.48
3195.76
3205.99
3216.13
3226.17
3236.08
3245.82
3255.37
3264.68
3273.71
3282.43
3290.77
3298.69
3306.14
3313.06
3319.37
3324.97
3329.8
3333.68
3336.66
3338.5
3339.26
3338.63
3336.37
3332.57
3326.86
3319.29
3309.63
3297.78
3283.33
3266.42
3246.54
3223.97
3198.31
3169.86
3138.51
3103.84
3066.35
3025.15
2981.15
2931.28
2866.01
3242.01
2808.26
2791.6
2798.22
2808.15
2817.92
2823.65
2826.24
2826.27
2823.35
2817.22
2810.05
2802.85
2795.79
2789.39
2784.64
2782.06
2781.32
2781.6
2783.2
2786.33
2791.13
2797.37
2804.32
2811.38
2818.13
2824.13
2829.23
2833.47
2836.98
2839.94
2842.59
2845.19
2848.01
2851.25
2855.03
2859.27
2863.8
2868.44
2873.08
2877.67
2882.27
2886.94
2891.78
2896.84
2902.15
2907.73
2913.58
2919.69
2926.05
2932.64
2939.47
2946.52
2953.79
2961.27
2968.95
2976.85
2984.94
2993.22
3001.7
3010.37
3019.22
3028.26
3037.47
3046.86
3056.4
3066.11
3075.98
3085.99
3096.15
3106.43
3116.84
3127.35
3137.97
3148.69
3159.5
3170.39
3181.33
3192.31
3203.31
3214.32
3225.33
3236.3
3247.23
3258.09
3268.86
3279.51
3290.01
3300.33
3310.42
3320.26
3329.81
3339
3347.8
3356.15
3363.98
3371.23
3377.83
3383.7
3388.68
3392.69
3395.64
3397.42
3398.06
3397.03
3394.45
3390.04
3383.54
3374.8
3363.7
3349.75
3333.1
3313.07
3290.14
3263.63
3233.68
3200.09
3162.28
3121.4
3074.39
3013.04
3243.66
2805.83
2781.53
2786.41
2797.45
2811.32
2821.66
2826.32
2827.75
2827.02
2823.04
2816.71
2809.64
2802.38
2795.31
2789.4
2785.49
2783.66
2783.33
2784.1
2786.62
2791.13
2797.4
2804.62
2812.08
2819.33
2825.93
2831.65
2836.46
2840.48
2843.88
2846.86
2849.67
2852.57
2855.81
2859.54
2863.78
2868.4
2873.21
2878.07
2882.92
2887.76
2892.64
2897.66
2902.89
2908.35
2914.08
2920.08
2926.34
2932.85
2939.61
2946.6
2953.83
2961.27
2968.93
2976.81
2984.9
2993.2
3001.7
3010.4
3019.3
3028.39
3037.67
3047.14
3056.8
3066.62
3076.62
3086.79
3097.13
3107.62
3118.26
3129.03
3139.94
3150.97
3162.11
3173.38
3184.75
3196.2
3207.73
3219.3
3230.93
3242.59
3254.27
3265.94
3277.6
3289.23
3300.8
3312.3
3323.68
3334.93
3346.01
3356.9
3367.56
3377.94
3388.01
3397.71
3407
3415.82
3424.09
3431.72
3438.63
3444.72
3449.86
3454
3456.93
3458.57
3458.92
3457.16
3453.82
3448.32
3440.37
3430.06
3416.69
3400.64
3380.9
3357.98
3330.4
3297.95
3260.87
3216.75
3158.61
3246.82
2801.05
2775.89
2778.23
2786.98
2802.67
2817.28
2825.27
2828.39
2828.64
2826.86
2821.94
2815.32
2808.22
2801.03
2794.57
2789.72
2786.89
2785.89
2786
2787.72
2791.8
2798
2805.34
2813.03
2820.61
2827.64
2833.83
2839.12
2843.61
2847.42
2850.75
2853.82
2856.87
2860.17
2863.9
2868.13
2872.8
2877.74
2882.79
2887.86
2892.92
2898.01
2903.22
2908.6
2914.22
2920.09
2926.23
2932.63
2939.28
2946.19
2953.33
2960.71
2968.32
2976.14
2984.19
2992.46
3000.94
3009.63
3018.52
3027.62
3036.92
3046.42
3056.12
3066.01
3076.08
3086.33
3096.76
3107.37
3118.15
3129.09
3140.18
3151.42
3162.8
3174.32
3185.97
3197.74
3209.63
3221.61
3233.67
3245.81
3258.02
3270.28
3282.58
3294.9
3307.24
3319.57
3331.88
3344.15
3356.34
3368.45
3380.44
3392.29
3403.98
3415.45
3426.69
3437.65
3448.28
3458.53
3468.34
3477.65
3486.38
3494.47
3501.81
3508.32
3513.8
3518.3
3521.5
3523.37
3523.86
3522.04
3518.5
3512.21
3503.35
3491.1
3475.84
3455.51
3430.38
3398.13
3358.82
3304.5
3249.39
2797.8
2773.3
2772.39
2777.35
2792.51
2810.47
2822.86
2827.97
2829.32
2829.03
2825.89
2819.92
2813.02
2805.95
2799.41
2794.15
2790.67
2789.02
2788.75
2789.76
2793.23
2799.22
2806.54
2814.31
2822.07
2829.36
2835.88
2841.55
2846.41
2850.6
2854.26
2857.61
2860.87
2864.27
2868.04
2872.29
2877
2882.04
2887.24
2892.5
2897.76
2903.05
2908.43
2913.98
2919.74
2925.76
2932.03
2938.56
2945.35
2952.39
2959.67
2967.19
2974.94
2982.92
2991.13
2999.55
3008.19
3017.05
3026.12
3035.4
3044.88
3054.58
3064.47
3074.57
3084.85
3095.33
3105.99
3116.85
3127.88
3139.08
3150.44
3161.97
3173.65
3185.48
3197.46
3209.58
3221.84
3234.2
3246.68
3259.25
3271.92
3284.66
3297.48
3310.35
3323.27
3336.23
3349.21
3362.2
3375.17
3388.1
3400.99
3413.8
3426.53
3439.14
3451.61
3463.9
3476
3487.84
3499.42
3510.66
3521.51
3531.92
3541.83
3551.16
3559.84
3567.75
3574.77
3580.7
3585.56
3588.93
3590.88
3591.23
3588.99
3584.78
3577.87
3567.06
3552.22
3528.99
3500.82
3457.34
3253.24
2798.78
2770.23
2767.68
2769.58
2782.21
2802.17
2818.91
2826.95
2829.86
2830.08
2828.49
2823.33
2816.69
2809.91
2803.6
2798.37
2794.63
2792.55
2792.07
2792.59
2795.41
2801.1
2808.29
2815.99
2823.77
2831.17
2837.88
2843.81
2848.98
2853.49
2857.46
2861.08
2864.55
2868.11
2871.96
2876.26
2881.01
2886.12
2891.45
2896.87
2902.31
2907.78
2913.33
2919.03
2924.94
2931.09
2937.49
2944.15
2951.06
2958.23
2965.64
2973.29
2981.17
2989.29
2997.63
3006.2
3014.99
3024
3033.22
3042.66
3052.31
3062.18
3072.25
3082.53
3093
3103.67
3114.55
3125.61
3136.86
3148.29
3159.9
3171.68
3183.62
3195.72
3207.99
3220.41
3232.98
3245.68
3258.51
3271.45
3284.5
3297.66
3310.91
3324.25
3337.66
3351.14
3364.67
3378.25
3391.85
3405.47
3419.08
3432.68
3446.25
3459.76
3473.21
3486.56
3499.81
3512.91
3525.84
3538.58
3551.06
3563.26
3575.12
3586.61
3597.66
3608.23
3618.23
3627.59
3636.18
3643.91
3650.52
3656.1
3660.06
3662.56
3663.26
3661.3
3656.33
3645.11
3630.99
3604.81
3253.72
2797.73
2766.37
2763.62
2763.9
2773.06
2793.38
2813.95
2825.52
2830.18
2830.75
2830.04
2825.82
2819.45
2812.97
2807.02
2802.1
2798.46
2796.27
2795.66
2795.96
2798.3
2803.62
2810.54
2818.02
2825.68
2833.06
2839.84
2845.94
2851.34
2856.11
2860.35
2864.24
2867.94
2871.67
2875.64
2880
2884.82
2890.01
2895.44
2901
2906.6
2912.23
2917.94
2923.79
2929.84
2936.11
2942.64
2949.42
2956.45
2963.74
2971.27
2979.04
2987.05
2995.29
3003.76
3012.46
3021.38
3030.53
3039.9
3049.48
3059.28
3069.31
3079.54
3089.98
3100.63
3111.48
3122.54
3133.79
3145.25
3156.88
3168.71
3180.71
3192.88
3205.23
3217.75
3230.44
3243.28
3256.27
3269.4
3282.66
3296.05
3309.56
3323.18
3336.9
3350.73
3364.64
3378.63
3392.7
3406.82
3420.98
3435.18
3449.41
3463.64
3477.87
3492.09
3506.27
3520.4
3534.46
3548.44
3562.29
3576.02
3589.56
3602.92
3616.04
3628.89
3641.44
3653.62
3665.39
3676.66
3687.39
3697.43
3706.72
3715.1
3722.4
3728.56
3733.38
3736.31
3736.87
3733.49
3726.81
3250.79
2794.23
2763.02
2760.51
2759.82
2765.85
2785.13
2808.66
2824.03
2830.12
2831.34
2830.92
2827.52
2821.44
2815.21
2809.69
2805.23
2801.97
2799.94
2799.35
2799.63
2801.77
2806.68
2813.2
2820.35
2827.78
2835.03
2841.79
2847.97
2853.54
2858.51
2862.99
2867.11
2871.03
2874.95
2879.06
2883.52
2888.4
2893.67
2899.2
2904.88
2910.62
2916.4
2922.25
2928.24
2934.42
2940.83
2947.47
2954.36
2961.51
2968.9
2976.54
2984.43
2992.55
3000.9
3009.49
3018.31
3027.36
3036.63
3046.13
3055.85
3065.79
3075.95
3086.34
3096.93
3107.73
3118.75
3129.97
3141.4
3153.03
3164.86
3176.87
3189.07
3201.46
3214.02
3226.77
3239.69
3252.78
3266.03
3279.43
3292.97
3306.66
3320.47
3334.42
3348.47
3362.65
3376.92
3391.3
3405.77
3420.31
3434.92
3449.59
3464.3
3479.06
3493.84
3508.64
3523.43
3538.22
3552.98
3567.7
3582.35
3596.93
3611.4
3625.74
3639.91
3653.92
3667.7
3681.23
3694.46
3707.34
3719.84
3731.86
3743.32
3754.18
3764.2
3773.35
3781.45
3788.2
3793.69
3796.29
3799.65
3245.89
2790.99
2760.61
2758.05
2756.67
2760.37
2777.86
2803.57
2822.46
2829.97
2831.8
2831.33
2828.41
2822.67
2816.72
2811.7
2807.85
2805.14
2803.49
2803.02
2803.44
2805.57
2810.07
2816.09
2822.85
2829.98
2837.03
2843.72
2849.93
2855.6
2860.74
2865.42
2869.75
2873.88
2877.99
2882.24
2886.81
2891.78
2897.13
2902.75
2908.54
2914.4
2920.3
2926.29
2932.41
2938.71
2945.24
2951.99
2959
2966.25
2973.75
2981.49
2989.48
2997.71
3006.17
3014.87
3023.79
3032.96
3042.34
3051.96
3061.8
3071.87
3082.16