/*--------------------------------*- C++ -*----------------------------------*\
| =========                 |                                                 |
| \\      /  F ield         | OpenFOAM: The Open Source CFD Toolbox           |
|  \\    /   O peration     | Version:  2412                                  |
|   \\  /    A nd           | Website:  www.openfoam.com                      |
|    \\/     M anipulation  |                                                 |
\*---------------------------------------------------------------------------*/
FoamFile
{
    version     2.0;
    format      ascii;
    arch        "LSB;label=32;scalar=64";
    class       volScalarField;
    location    "0.056";
    object      rho;
}
// * * * * * * * * * * * * * * * * * * * * * * * * * * * * * * * * * * * * * //

dimensions      [1 -3 0 0 0 0 0];

internalField   nonuniform List<scalar> 
78650
(
0.0421449
0.0421979
0.042289
0.0423542
0.0423637
0.0423407
0.042229
0.0420734
0.0419331
0.0418209
0.0417409
0.0416998
0.041691
0.0416998
0.0417297
0.041764
0.0417875
0.0418011
0.0418111
0.0418178
0.0418216
0.0418284
0.0418343
0.0418365
0.0418327
0.0418202
0.0417979
0.0417672
0.04173
0.0416879
0.0416418
0.041593
0.0415434
0.0414944
0.041446
0.0413981
0.0413513
0.0413063
0.0412633
0.0412225
0.041184
0.0411478
0.041114
0.0410824
0.0410533
0.0410266
0.0410022
0.04098
0.0409597
0.0409412
0.0409242
0.0409089
0.0408951
0.0408826
0.0408712
0.0408609
0.0408514
0.0408426
0.040834
0.0408255
0.0408165
0.0408067
0.040796
0.0407839
0.0407702
0.0407545
0.0407363
0.040715
0.04069
0.0406607
0.0406264
0.0405865
0.0405405
0.0404876
0.0404269
0.0403573
0.0402774
0.040186
0.0400821
0.0399644
0.0398317
0.0396827
0.0395157
0.0393291
0.0391207
0.0388888
0.0386312
0.0383462
0.0380309
0.0376863
0.0373091
0.0369011
0.0364537
0.0359728
0.035447
0.0348817
0.0342748
0.0336213
0.0329458
0.0322541
0.0315338
0.0307712
0.0299659
0.0291568
0.028329
0.027567
0.0268149
0.0261078
0.0254376
0.0247755
0.0241394
0.02354
0.0229582
0.022418
0.0219245
0.021463
0.0210499
0.0206568
0.0202942
0.0199614
0.0193768
0.0421405
0.0421829
0.0422718
0.0423495
0.0423695
0.0423579
0.0422694
0.042124
0.0419835
0.0418644
0.0417704
0.0417114
0.0416929
0.0416986
0.0417231
0.0417568
0.041782
0.0417959
0.0418033
0.0418059
0.0418045
0.0418061
0.041808
0.0418079
0.0418032
0.041791
0.0417704
0.0417422
0.0417081
0.0416698
0.0416284
0.0415849
0.0415398
0.0414941
0.0414478
0.0414021
0.0413584
0.0413166
0.041277
0.0412395
0.0412044
0.0411716
0.0411411
0.0411129
0.041087
0.0410635
0.0410423
0.0410232
0.0410062
0.0409909
0.0409772
0.0409652
0.0409547
0.0409456
0.0409377
0.0409309
0.0409252
0.0409201
0.0409156
0.0409112
0.0409066
0.0409016
0.0408957
0.0408887
0.0408805
0.0408707
0.0408587
0.0408441
0.0408264
0.0408049
0.040779
0.0407482
0.0407118
0.0406694
0.0406201
0.0405628
0.0404965
0.0404198
0.0403317
0.0402311
0.040117
0.0399881
0.0398427
0.039679
0.0394948
0.0392887
0.0390587
0.0388037
0.0385215
0.0382107
0.0378659
0.0374875
0.0370717
0.0366264
0.0361425
0.0356219
0.0350567
0.0344454
0.0337943
0.0331207
0.0324226
0.031707
0.0309447
0.030175
0.0293646
0.0285583
0.0277615
0.0269705
0.0262304
0.0255164
0.0248383
0.0242033
0.0235895
0.0230179
0.0224774
0.0219643
0.0214984
0.0210504
0.020644
0.0202683
0.019628
0.0421374
0.0421695
0.0422525
0.0423408
0.0423724
0.0423702
0.0423052
0.0421721
0.0420331
0.0419125
0.0418111
0.0417367
0.041703
0.0417018
0.0417207
0.0417551
0.0417827
0.0417971
0.0418035
0.0418048
0.0418018
0.0418012
0.0418012
0.0417997
0.0417941
0.0417818
0.0417617
0.0417343
0.0417013
0.0416645
0.041625
0.0415837
0.0415406
0.0414961
0.0414519
0.041409
0.0413679
0.0413291
0.0412925
0.0412582
0.0412263
0.0411968
0.0411695
0.0411445
0.0411218
0.0411015
0.0410834
0.0410676
0.0410537
0.0410417
0.0410312
0.0410225
0.0410153
0.0410096
0.0410052
0.0410019
0.0409999
0.0409986
0.040998
0.0409978
0.0409976
0.0409972
0.0409961
0.0409943
0.0409915
0.0409874
0.0409816
0.0409735
0.0409629
0.040949
0.0409312
0.0409092
0.0408822
0.0408497
0.0408112
0.0407657
0.0407121
0.0406492
0.040576
0.0404913
0.0403943
0.0402836
0.0401579
0.0400153
0.0398544
0.0396735
0.0394706
0.0392441
0.0389911
0.0387104
0.0383989
0.0380581
0.0376847
0.0372789
0.0368278
0.0363357
0.035803
0.0352388
0.0346379
0.033991
0.0333006
0.0325819
0.0318389
0.0310803
0.0303109
0.0294879
0.0286979
0.0278641
0.0270604
0.0262785
0.025516
0.0248137
0.0241473
0.0235398
0.0229775
0.0224341
0.0219177
0.0213768
0.0208736
0.0204304
0.019716
0.0421354
0.0421581
0.0422318
0.0423276
0.0423732
0.0423809
0.0423369
0.0422171
0.0420789
0.0419595
0.0418579
0.0417746
0.0417243
0.0417121
0.0417235
0.0417556
0.0417857
0.0418014
0.0418071
0.0418078
0.0418039
0.0418021
0.0418014
0.0417995
0.0417938
0.0417817
0.0417618
0.0417346
0.0417018
0.0416653
0.0416263
0.0415856
0.0415438
0.0415015
0.0414598
0.0414194
0.041381
0.0413447
0.0413109
0.0412794
0.0412505
0.041224
0.0411998
0.0411778
0.0411582
0.0411408
0.0411258
0.041113
0.0411023
0.0410934
0.0410861
0.0410805
0.0410765
0.0410741
0.0410732
0.0410734
0.0410748
0.0410773
0.0410805
0.0410843
0.0410884
0.0410924
0.0410961
0.0410992
0.0411015
0.0411028
0.0411029
0.0411012
0.0410973
0.0410908
0.0410807
0.0410671
0.0410491
0.0410262
0.0409981
0.0409638
0.0409225
0.040873
0.0408143
0.0407452
0.040665
0.0405726
0.0404666
0.0403456
0.0402078
0.0400515
0.0398745
0.0396756
0.0394526
0.0392043
0.0389262
0.0386184
0.0382775
0.0379042
0.0374913
0.0370438
0.0365579
0.0360365
0.0354721
0.0348643
0.0342102
0.0334999
0.0327674
0.031994
0.0312422
0.0304255
0.0296217
0.028801
0.0279663
0.0271666
0.0263547
0.02558
0.024831
0.0241237
0.0234751
0.0229006
0.0223925
0.0219011
0.0213807
0.0208661
0.0199853
0.0421342
0.042149
0.0422106
0.0423101
0.0423717
0.0423907
0.0423633
0.0422587
0.0421221
0.0420045
0.0419059
0.0418202
0.0417568
0.0417318
0.0417346
0.0417589
0.0417915
0.0418108
0.0418169
0.041817
0.0418114
0.0418067
0.0418044
0.041802
0.0417963
0.0417845
0.0417649
0.0417378
0.0417051
0.0416688
0.0416304
0.0415909
0.0415508
0.0415109
0.0414717
0.0414338
0.0413978
0.0413639
0.0413325
0.0413036
0.0412773
0.0412536
0.0412323
0.0412133
0.0411966
0.0411822
0.0411701
0.0411603
0.0411527
0.0411468
0.0411427
0.0411402
0.0411394
0.0411403
0.0411426
0.0411463
0.0411512
0.0411572
0.0411643
0.041172
0.0411803
0.0411887
0.0411969
0.0412049
0.0412123
0.041219
0.0412247
0.0412292
0.0412317
0.0412322
0.0412298
0.0412243
0.0412151
0.0412015
0.0411832
0.0411596
0.0411299
0.041093
0.0410479
0.0409935
0.0409291
0.0408535
0.0407657
0.0406642
0.0405475
0.0404139
0.0402617
0.0400896
0.039895
0.0396764
0.0394309
0.039159
0.0388567
0.0385219
0.0381482
0.0377404
0.0372944
0.0368089
0.0362771
0.0357026
0.0350867
0.0344262
0.0337267
0.0329886
0.0322088
0.0314243
0.0305861
0.0297791
0.0289209
0.0280994
0.0272717
0.0264675
0.0256796
0.0249092
0.0241483
0.0234198
0.0227692
0.0221795
0.0216807
0.021243
0.0204033
0.0421335
0.0421423
0.0421901
0.0422882
0.0423674
0.0423986
0.0423819
0.0422981
0.0421666
0.0420496
0.0419536
0.041869
0.0417982
0.0417597
0.0417538
0.0417681
0.0417998
0.0418237
0.0418317
0.0418317
0.0418255
0.0418179
0.0418132
0.0418095
0.0418036
0.0417922
0.0417732
0.0417466
0.0417141
0.041678
0.0416402
0.0416017
0.0415633
0.0415254
0.0414884
0.0414529
0.0414191
0.0413874
0.0413581
0.0413314
0.0413074
0.0412862
0.0412674
0.0412511
0.0412372
0.0412255
0.0412163
0.0412094
0.0412046
0.0412017
0.0412008
0.0412013
0.0412037
0.0412077
0.0412132
0.0412201
0.0412285
0.0412381
0.0412488
0.0412604
0.0412727
0.0412853
0.0412981
0.0413107
0.041323
0.041335
0.0413463
0.0413566
0.0413654
0.0413724
0.0413772
0.0413794
0.0413786
0.041374
0.0413655
0.041352
0.0413335
0.0413087
0.0412768
0.0412367
0.0411876
0.0411286
0.0410587
0.0409767
0.0408811
0.0407704
0.0406427
0.0404966
0.0403301
0.0401417
0.0399285
0.0396889
0.0394183
0.0391169
0.0387829
0.0384184
0.0380143
0.0375665
0.0370724
0.0365388
0.0359666
0.0353544
0.0346966
0.0340006
0.0332248
0.0324502
0.0316152
0.0307853
0.0299159
0.0290415
0.0281906
0.0273335
0.0265226
0.0257475
0.0250055
0.0242792
0.0235387
0.0227929
0.0221005
0.0215031
0.0204569
0.0421332
0.0421379
0.0421719
0.0422625
0.0423577
0.042402
0.0423951
0.042336
0.0422137
0.0420956
0.0420004
0.0419182
0.0418444
0.0417942
0.0417787
0.0417849
0.0418106
0.0418384
0.0418502
0.0418514
0.0418464
0.0418372
0.0418299
0.0418244
0.0418179
0.0418066
0.0417882
0.0417623
0.0417302
0.0416944
0.0416568
0.0416189
0.0415814
0.041545
0.0415098
0.0414763
0.0414446
0.041415
0.0413877
0.0413629
0.041341
0.0413218
0.0413054
0.0412917
0.0412803
0.0412712
0.0412647
0.0412605
0.0412587
0.0412586
0.0412607
0.0412643
0.0412696
0.0412766
0.0412854
0.0412956
0.0413073
0.0413204
0.0413347
0.0413501
0.0413664
0.0413832
0.0414003
0.0414175
0.0414347
0.0414517
0.0414683
0.0414843
0.0414993
0.0415129
0.0415247
0.0415342
0.0415411
0.0415451
0.0415459
0.0415423
0.0415344
0.0415211
0.0415016
0.0414749
0.0414401
0.0413965
0.0413432
0.0412791
0.0412028
0.0411129
0.0410078
0.0408861
0.0407458
0.0405855
0.0404025
0.0401959
0.0399618
0.0397004
0.0394081
0.0390833
0.0387166
0.0383083
0.0378592
0.0373736
0.0368486
0.0362809
0.0356641
0.0349958
0.0342828
0.0335133
0.0327215
0.0318686
0.0310214
0.0301192
0.0292344
0.0283211
0.027413
0.0265381
0.0257021
0.0249664
0.0242649
0.023595
0.0229137
0.0222484
0.0210389
0.0421331
0.0421353
0.0421571
0.0422344
0.0423403
0.0424017
0.0424051
0.0423707
0.0422623
0.0421429
0.0420475
0.0419681
0.0418942
0.0418345
0.0418072
0.0418059
0.0418226
0.0418523
0.0418702
0.0418742
0.0418713
0.0418628
0.041854
0.0418469
0.0418395
0.0418282
0.0418103
0.041785
0.0417535
0.0417182
0.0416809
0.0416433
0.0416062
0.0415705
0.0415365
0.0415047
0.0414748
0.041447
0.0414215
0.0413985
0.0413783
0.041361
0.0413465
0.041335
0.0413259
0.0413192
0.0413152
0.0413136
0.0413143
0.0413174
0.0413221
0.0413286
0.0413368
0.0413469
0.0413587
0.0413721
0.0413871
0.0414035
0.0414213
0.0414404
0.0414604
0.0414813
0.0415026
0.0415243
0.0415461
0.041568
0.0415898
0.0416113
0.0416321
0.041652
0.0416704
0.0416871
0.0417019
0.0417139
0.041723
0.041729
0.0417311
0.0417289
0.0417215
0.0417079
0.041687
0.0416584
0.0416212
0.0415747
0.0415174
0.0414482
0.0413654
0.0412676
0.0411531
0.0410206
0.0408676
0.0406923
0.0404908
0.0402632
0.0400063
0.039718
0.0393917
0.0390299
0.0386323
0.0381978
0.037719
0.0371901
0.0366094
0.0359807
0.0353038
0.0345748
0.0338137
0.0329805
0.0321441
0.0312478
0.0303556
0.0294408
0.0285207
0.0275881
0.0266363
0.0256993
0.0248334
0.0240361
0.0233457
0.0227566
0.0216127
0.0421331
0.0421339
0.0421464
0.0422067
0.0423152
0.0423967
0.0424143
0.0423979
0.0423091
0.042192
0.0420962
0.0420185
0.0419457
0.0418792
0.0418383
0.0418287
0.0418371
0.0418648
0.0418896
0.0418981
0.0418978
0.0418923
0.041884
0.0418762
0.0418682
0.0418568
0.0418392
0.0418144
0.0417834
0.0417485
0.0417116
0.0416741
0.0416371
0.0416016
0.0415683
0.0415376
0.0415091
0.041483
0.0414592
0.0414378
0.0414191
0.0414034
0.0413907
0.0413811
0.0413739
0.0413695
0.0413678
0.0413686
0.0413721
0.0413775
0.041385
0.0413944
0.0414055
0.0414185
0.0414333
0.0414498
0.041468
0.0414877
0.041509
0.0415316
0.0415554
0.0415801
0.0416056
0.0416316
0.041658
0.0416847
0.0417115
0.0417383
0.0417648
0.0417906
0.0418156
0.0418391
0.0418611
0.0418811
0.0418988
0.0419136
0.0419251
0.0419329
0.0419364
0.0419353
0.0419277
0.0419135
0.041891
0.0418606
0.0418206
0.0417702
0.0417079
0.0416324
0.0415419
0.0414352
0.04131
0.0411648
0.0409971
0.0408061
0.0405872
0.0403386
0.0400559
0.0397415
0.0393907
0.0389981
0.0385574
0.0380674
0.0375294
0.0369468
0.0363176
0.03564
0.0349059
0.0341247
0.0332835
0.032406
0.0315051
0.0305741
0.0296442
0.0287305
0.0278018
0.0268966
0.0259576
0.0250297
0.0240982
0.0232761
0.0217783
0.042133
0.0421334
0.0421396
0.042182
0.0422843
0.042385
0.04242
0.0424164
0.0423536
0.0422441
0.0421463
0.0420679
0.0419969
0.0419271
0.0418739
0.0418542
0.0418557
0.0418764
0.0419063
0.0419222
0.0419256
0.0419236
0.0419176
0.0419104
0.0419024
0.0418912
0.0418739
0.0418495
0.0418189
0.0417844
0.0417479
0.0417107
0.0416738
0.0416383
0.0416052
0.041575
0.0415477
0.041523
0.0415006
0.0414807
0.0414635
0.0414491
0.041438
0.0414299
0.0414245
0.0414221
0.0414224
0.0414256
0.0414311
0.0414391
0.0414492
0.0414612
0.0414751
0.0414909
0.0415086
0.0415281
0.0415493
0.0415722
0.0415968
0.0416228
0.0416502
0.0416787
0.0417082
0.0417384
0.0417691
0.0418004
0.041832
0.0418639
0.0418957
0.0419274
0.0419584
0.0419885
0.0420175
0.0420449
0.0420705
0.0420939
0.0421148
0.0421326
0.0421465
0.0421561
0.042161
0.0421609
0.0421533
0.0421389
0.0421157
0.0420837
0.0420413
0.0419872
0.04192
0.0418382
0.04174
0.0416241
0.0414874
0.0413286
0.0411435
0.040932
0.0406909
0.04042
0.0401116
0.0397611
0.039366
0.0389281
0.0384486
0.0379247
0.0373482
0.0367185
0.0360307
0.0352856
0.0344759
0.0336236
0.0326921
0.0317671
0.0307508
0.0297623
0.0287629
0.02781
0.0268959
0.026034
0.0251816
0.0243663
0.0228097
0.042133
0.0421331
0.0421359
0.0421623
0.0422505
0.0423648
0.0424201
0.0424302
0.0423936
0.0422962
0.0421947
0.0421147
0.0420466
0.0419777
0.0419165
0.0418841
0.0418786
0.0418905
0.0419212
0.0419457
0.0419547
0.0419556
0.041953
0.0419477
0.0419405
0.04193
0.0419132
0.0418892
0.0418589
0.0418246
0.0417884
0.0417516
0.0417149
0.0416794
0.0416463
0.0416164
0.0415897
0.0415661
0.0415451
0.0415267
0.0415107
0.0414977
0.0414879
0.0414811
0.0414773
0.0414766
0.041479
0.0414839
0.0414916
0.0415019
0.0415145
0.0415291
0.0415456
0.0415641
0.0415846
0.041607
0.0416312
0.0416572
0.0416849
0.0417143
0.0417452
0.0417774
0.0418107
0.0418449
0.0418799
0.0419156
0.0419519
0.0419886
0.0420257
0.0420628
0.0420998
0.0421362
0.0421718
0.0422063
0.0422396
0.0422711
0.0423006
0.0423276
0.0423517
0.0423724
0.0423885
0.0423998
0.0424059
0.0424066
0.0423992
0.0423844
0.04236
0.0423257
0.0422799
0.0422214
0.0421485
0.0420599
0.0419531
0.0418267
0.0416773
0.0415045
0.0413041
0.0410741
0.0408074
0.040503
0.0401607
0.0397802
0.0393586
0.0388894
0.0383654
0.0377844
0.0371419
0.0364465
0.0356962
0.0348924
0.0340218
0.0331212
0.0321367
0.0310892
0.0300626
0.0289304
0.0278495
0.0267826
0.0258047
0.0249807
0.0233839
0.042133
0.0421331
0.0421341
0.0421486
0.042217
0.0423361
0.0424148
0.0424435
0.0424244
0.0423434
0.0422412
0.0421605
0.0420958
0.0420307
0.0419655
0.0419207
0.0419068
0.0419109
0.0419364
0.0419672
0.0419841
0.041989
0.0419891
0.0419867
0.0419812
0.0419717
0.0419557
0.0419321
0.0419021
0.041868
0.0418321
0.0417956
0.0417593
0.0417239
0.0416908
0.0416609
0.0416346
0.0416118
0.041592
0.0415749
0.0415604
0.0415486
0.04154
0.0415344
0.0415322
0.0415328
0.0415369
0.0415436
0.0415532
0.0415656
0.0415804
0.0415974
0.0416165
0.0416376
0.0416607
0.0416858
0.0417129
0.0417418
0.0417726
0.0418051
0.0418393
0.041875
0.0419119
0.04195
0.0419891
0.042029
0.0420697
0.0421111
0.0421531
0.0421955
0.042238
0.0422803
0.0423222
0.0423635
0.0424039
0.0424432
0.0424808
0.0425167
0.0425502
0.042581
0.0426084
0.042632
0.0426507
0.0426641
0.042672
0.0426739
0.0426674
0.0426524
0.0426272
0.0425908
0.0425418
0.042479
0.0424002
0.0423039
0.042187
0.0420488
0.0418851
0.0416941
0.041471
0.0412162
0.0409275
0.0406007
0.0402292
0.0398055
0.0393268
0.0387947
0.0382059
0.0375624
0.0368557
0.0360921
0.0352744
0.0343703
0.0334626
0.0324562
0.031468
0.030419
0.0293041
0.0282381
0.0270819
0.0260212
0.0240351
0.042133
0.042133
0.0421334
0.0421403
0.0421875
0.0423008
0.0424047
0.0424503
0.0424432
0.0423863
0.0422886
0.0422069
0.0421441
0.0420837
0.0420188
0.0419647
0.0419406
0.0419387
0.0419545
0.0419872
0.0420127
0.0420236
0.0420262
0.0420258
0.0420225
0.0420145
0.0419996
0.0419767
0.0419471
0.0419132
0.0418776
0.0418415
0.0418055
0.0417704
0.0417374
0.0417075
0.0416815
0.0416592
0.0416404
0.0416246
0.0416114
0.0416011
0.0415936
0.0415892
0.0415882
0.0415905
0.0415958
0.0416041
0.0416155
0.0416298
0.0416468
0.041666
0.0416875
0.041711
0.0417367
0.0417644
0.0417942
0.041826
0.0418597
0.0418953
0.0419327
0.0419717
0.0420122
0.042054
0.042097
0.042141
0.042186
0.0422319
0.0422785
0.0423259
0.0423737
0.0424217
0.0424696
0.0425173
0.0425645
0.042611
0.0426564
0.0427005
0.0427429
0.0427832
0.0428209
0.0428553
0.0428861
0.0429126
0.0429339
0.0429496
0.0429591
0.0429619
0.0429559
0.0429404
0.0429139
0.0428752
0.0428227
0.0427551
0.0426696
0.0425653
0.0424381
0.0422866
0.0421069
0.0418986
0.0416567
0.0413758
0.0410504
0.040677
0.0402558
0.0397855
0.0392624
0.0386843
0.038036
0.0373182
0.0365313
0.0356874
0.0347622
0.0337649
0.0326704
0.0316432
0.0304789
0.029416
0.0283574
0.0273652
0.0254301
0.042133
0.042133
0.0421331
0.042136
0.0421649
0.0422622
0.0423851
0.0424512
0.0424553
0.0424238
0.0423362
0.0422527
0.0421902
0.042135
0.0420742
0.0420158
0.041981
0.0419722
0.0419793
0.0420075
0.0420393
0.0420572
0.0420633
0.0420644
0.0420629
0.0420566
0.042043
0.0420211
0.0419921
0.0419587
0.0419234
0.0418877
0.0418523
0.0418176
0.0417849
0.0417552
0.0417294
0.0417075
0.0416896
0.0416749
0.041663
0.0416541
0.0416479
0.041645
0.041645
0.0416488
0.0416554
0.0416652
0.0416782
0.0416943
0.0417131
0.0417345
0.0417582
0.041784
0.0418121
0.0418423
0.0418747
0.0419092
0.0419456
0.0419841
0.0420245
0.0420667
0.0421106
0.0421559
0.0422025
0.0422504
0.0422994
0.0423495
0.0424006
0.0424526
0.0425054
0.0425587
0.0426123
0.0426659
0.0427195
0.0427727
0.0428254
0.0428772
0.0429279
0.0429771
0.0430244
0.0430693
0.0431113
0.0431497
0.0431843
0.0432144
0.0432389
0.0432574
0.043269
0.0432732
0.0432681
0.0432523
0.0432245
0.0431833
0.0431267
0.0430534
0.0429601
0.0428458
0.0427065
0.042541
0.0423432
0.0421097
0.0418373
0.0415245
0.0411701
0.0407684
0.0403123
0.039796
0.0392118
0.0385653
0.0378438
0.0370532
0.0361889
0.0352595
0.0342339
0.0331244
0.0319375
0.0306645
0.0294192
0.0282798
0.0261103
0.042133
0.042133
0.0421331
0.0421341
0.0421497
0.0422252
0.042355
0.0424457
0.0424662
0.0424527
0.0423801
0.0422963
0.0422346
0.0421845
0.0421297
0.0420709
0.0420268
0.0420096
0.0420099
0.0420284
0.0420623
0.0420879
0.0420991
0.0421019
0.0421014
0.0420966
0.0420843
0.0420635
0.0420354
0.0420027
0.0419681
0.0419331
0.0418983
0.0418644
0.0418322
0.0418029
0.0417774
0.0417559
0.0417387
0.041725
0.0417144
0.0417069
0.0417021
0.0417006
0.0417022
0.0417071
0.0417151
0.0417263
0.0417408
0.0417585
0.0417791
0.0418025
0.0418282
0.0418563
0.0418866
0.0419192
0.041954
0.0419911
0.0420302
0.0420715
0.0421147
0.04216
0.042207
0.0422557
0.0423058
0.0423574
0.0424102
0.0424643
0.0425197
0.0425762
0.0426337
0.042692
0.0427508
0.0428101
0.0428697
0.0429293
0.0429888
0.0430479
0.0431063
0.0431637
0.0432199
0.0432744
0.0433266
0.0433761
0.0434225
0.0434652
0.0435038
0.0435375
0.0435652
0.0435862
0.0435997
0.0436052
0.043601
0.0435849
0.0435559
0.0435118
0.0434508
0.0433715
0.04327
0.0431446
0.04299
0.0428051
0.0425871
0.042333
0.0420377
0.0416928
0.0412927
0.0408332
0.0403094
0.0397232
0.0390632
0.0383368
0.0375327
0.0366524
0.0357021
0.0346463
0.033581
0.0324075
0.0311447
0.0299264
0.0275767
0.042133
0.042133
0.042133
0.0421334
0.0421408
0.0421937
0.0423185
0.0424334
0.0424742
0.0424708
0.0424185
0.0423392
0.0422783
0.0422317
0.0421826
0.0421257
0.0420756
0.0420489
0.0420432
0.0420523
0.0420832
0.0421157
0.0421329
0.042138
0.042138
0.042134
0.0421225
0.0421028
0.0420757
0.0420441
0.0420104
0.0419763
0.0419424
0.0419095
0.0418782
0.0418495
0.0418246
0.0418037
0.0417872
0.0417742
0.041765
0.0417587
0.0417555
0.0417553
0.0417586
0.0417648
0.0417743
0.0417869
0.0418029
0.0418221
0.0418444
0.0418696
0.0418973
0.0419274
0.0419598
0.0419947
0.0420318
0.0420713
0.0421129
0.0421568
0.0422028
0.0422508
0.0423008
0.0423526
0.0424061
0.0424611
0.0425175
0.0425754
0.0426347
0.0426953
0.0427572
0.0428201
0.0428839
0.0429484
0.0430135
0.043079
0.0431448
0.0432106
0.0432762
0.0433413
0.0434056
0.043469
0.0435308
0.0435906
0.0436481
0.0437028
0.0437543
0.0438019
0.0438449
0.0438827
0.0439141
0.0439381
0.0439539
0.0439609
0.0439577
0.0439408
0.04391
0.0438625
0.0437962
0.0437091
0.043597
0.0434591
0.0432911
0.0430885
0.0428449
0.0425535
0.0422118
0.0418161
0.0413623
0.0408467
0.0402568
0.0395954
0.0388475
0.0380171
0.0370952
0.0360838
0.0349511
0.0338015
0.0324838
0.0313463
0.0292304
0.042133
0.042133
0.042133
0.0421331
0.0421363
0.0421698
0.0422801
0.042414
0.0424752
0.0424831
0.0424524
0.0423813
0.0423195
0.0422745
0.0422302
0.0421771
0.0421249
0.0420904
0.0420787
0.0420812
0.0421044
0.0421407
0.0421644
0.0421727
0.0421734
0.0421694
0.0421581
0.0421389
0.0421128
0.0420822
0.0420496
0.0420165
0.0419838
0.0419521
0.041922
0.0418944
0.0418703
0.0418501
0.0418343
0.0418223
0.0418143
0.0418091
0.0418074
0.0418088
0.0418137
0.0418214
0.0418324
0.0418465
0.0418639
0.0418846
0.0419085
0.0419355
0.041965
0.0419971
0.0420316
0.0420685
0.0421078
0.0421495
0.0421936
0.0422399
0.0422885
0.0423392
0.042392
0.0424468
0.0425033
0.0425616
0.0426215
0.0426829
0.0427459
0.0428104
0.0428764
0.0429437
0.0430122
0.0430816
0.0431519
0.0432229
0.0432945
0.0433665
0.0434387
0.0435109
0.0435828
0.0436542
0.0437247
0.043794
0.0438615
0.043927
0.0439901
0.0440503
0.044107
0.0441595
0.0442071
0.044249
0.0442842
0.0443112
0.0443295
0.044338
0.044336
0.0443184
0.0442855
0.0442337
0.0441609
0.0440652
0.0439421
0.0437873
0.0435961
0.0433644
0.0430903
0.0427681
0.0423921
0.0419548
0.0414458
0.0408647
0.0401985
0.0394524
0.0386048
0.0376586
0.0365986
0.0354954
0.0341204
0.0327876
0.030431
0.042133
0.042133
0.042133
0.0421331
0.0421343
0.0421538
0.0422438
0.0423877
0.0424705
0.0424958
0.04248
0.0424188
0.0423564
0.0423126
0.0422732
0.0422255
0.0421743
0.0421349
0.0421169
0.0421144
0.0421284
0.0421645
0.0421946
0.0422066
0.0422081
0.0422036
0.0421915
0.0421722
0.0421467
0.0421171
0.0420855
0.0420536
0.0420222
0.0419919
0.0419632
0.0419369
0.0419138
0.0418947
0.0418797
0.0418687
0.0418617
0.0418578
0.0418572
0.0418605
0.0418668
0.0418762
0.0418889
0.0419045
0.0419234
0.0419456
0.0419712
0.0419998
0.0420311
0.0420651
0.0421015
0.0421404
0.0421818
0.0422256
0.0422719
0.0423206
0.0423715
0.0424248
0.0424802
0.0425377
0.0425972
0.0426585
0.0427215
0.0427863
0.0428527
0.0429208
0.0429906
0.0430619
0.0431346
0.0432085
0.0432835
0.0433595
0.0434365
0.0435142
0.0435925
0.0436711
0.0437499
0.0438287
0.0439072
0.043985
0.0440618
0.0441372
0.044211
0.0442828
0.044352
0.0444181
0.0444805
0.0445384
0.044591
0.0446376
0.0446769
0.0447072
0.044728
0.0447381
0.0447369
0.044718
0.0446823
0.0446254
0.044545
0.0444377
0.0443001
0.0441284
0.0439183
0.0436616
0.043352
0.042981
0.0425412
0.0420298
0.0414361
0.040763
0.0399929
0.0391279
0.0381497
0.03707
0.0358795
0.0346621
0.0325114
0.042133
0.042133
0.042133
0.042133
0.0421335
0.042144
0.0422127
0.0423567
0.0424635
0.0425061
0.0424987
0.0424503
0.04239
0.042348
0.0423133
0.0422712
0.0422226
0.0421809
0.0421571
0.0421503
0.0421572
0.042189
0.042224
0.0422398
0.042242
0.0422368
0.0422235
0.0422035
0.0421782
0.0421493
0.0421187
0.0420879
0.0420578
0.0420289
0.0420017
0.0419768
0.0419549
0.041937
0.041923
0.0419132
0.0419071
0.0419045
0.041905
0.0419101
0.0419178
0.041929
0.0419433
0.0419607
0.0419812
0.0420049
0.042032
0.0420622
0.0420953
0.0421311
0.0421693
0.0422101
0.0422534
0.0422994
0.0423478
0.0423986
0.0424518
0.0425074
0.0425653
0.0426254
0.0426876
0.0427517
0.0428177
0.0428855
0.0429552
0.0430267
0.0431
0.043175
0.0432516
0.0433297
0.0434092
0.0434898
0.0435717
0.0436546
0.0437385
0.043823
0.0439081
0.0439936
0.0440794
0.0441649
0.0442501
0.0443344
0.0444178
0.0444999
0.0445803
0.0446586
0.0447341
0.0448063
0.0448745
0.0449381
0.044996
0.0450473
0.045091
0.0451248
0.0451484
0.0451601
0.0451595
0.0451382
0.0450986
0.045035
0.0449463
0.044827
0.0446719
0.044473
0.0442254
0.043922
0.0435572
0.0431243
0.0426122
0.0420187
0.041327
0.0405372
0.0396145
0.0385809
0.0373824
0.0361113
0.034053
0.042133
0.042133
0.042133
0.042133
0.0421332
0.0421387
0.0421885
0.0423247
0.0424547
0.0425119
0.0425107
0.0424769
0.0424211
0.0423813
0.0423509
0.0423137
0.0422682
0.0422261
0.0421984
0.0421881
0.0421907
0.0422157
0.042253
0.0422722
0.0422754
0.0422694
0.0422544
0.0422333
0.0422079
0.0421793
0.0421493
0.0421195
0.0420907
0.0420633
0.0420375
0.042014
0.0419935
0.0419768
0.041964
0.0419555
0.0419504
0.041949
0.041951
0.0419573
0.0419666
0.0419795
0.0419955
0.0420146
0.0420368
0.0420621
0.0420908
0.0421227
0.0421575
0.0421949
0.0422349
0.0422775
0.0423227
0.0423706
0.042421
0.0424738
0.0425292
0.042587
0.0426472
0.0427097
0.0427744
0.0428411
0.0429098
0.0429805
0.0430532
0.0431278
0.0432043
0.0432827
0.0433629
0.0434448
0.0435282
0.0436131
0.0436994
0.0437871
0.0438759
0.0439658
0.0440566
0.0441481
0.0442403
0.0443329
0.0444255
0.0445179
0.0446099
0.0447013
0.0447918
0.0448809
0.0449683
0.0450534
0.0451357
0.0452146
0.0452892
0.0453588
0.0454223
0.0454789
0.0455273
0.0455648
0.0455911
0.045604
0.0456034
0.0455797
0.0455364
0.0454646
0.0453626
0.0452231
0.0450436
0.0448155
0.0445335
0.0441878
0.043768
0.0432678
0.0426715
0.0419703
0.0411383
0.040191
0.0390623
0.0378586
0.0359599
0.042133
0.042133
0.042133
0.042133
0.0421331
0.042136
0.0421714
0.0422953
0.0424421
0.0425148
0.04252
0.042499
0.0424497
0.0424123
0.0423853
0.0423522
0.0423099
0.0422691
0.0422399
0.0422273
0.0422272
0.0422457
0.0422824
0.0423039
0.0423075
0.0423004
0.0422834
0.0422611
0.0422353
0.0422068
0.0421774
0.0421484
0.0421209
0.0420949
0.0420707
0.0420486
0.0420295
0.0420141
0.0420027
0.0419955
0.0419916
0.0419912
0.0419949
0.0420023
0.042013
0.0420275
0.0420453
0.0420662
0.0420901
0.0421171
0.0421474
0.0421809
0.0422173
0.0422565
0.0422982
0.0423426
0.0423895
0.0424392
0.0424914
0.0425463
0.0426036
0.0426635
0.0427258
0.0427905
0.0428575
0.0429267
0.042998
0.0430713
0.0431467
0.0432241
0.0433036
0.0433851
0.0434686
0.043554
0.0436411
0.0437298
0.0438202
0.0439121
0.0440056
0.0441003
0.0441962
0.0442932
0.0443912
0.04449
0.0445894
0.044689
0.0447887
0.0448884
0.0449878
0.0450865
0.0451844
0.0452808
0.0453755
0.0454678
0.0455571
0.0456429
0.0457241
0.0458002
0.0458698
0.045932
0.0459853
0.0460264
0.0460553
0.0460694
0.0460683
0.0460407
0.0459904
0.0459076
0.045792
0.0456329
0.0454252
0.0451566
0.0448177
0.0444003
0.0438918
0.0432821
0.0425508
0.0416788
0.040646
0.0394664
0.0377524
0.042133
0.042133
0.042133
0.042133
0.0421331
0.0421347
0.04216
0.0422707
0.0424275
0.0425148
0.0425291
0.0425173
0.0424749
0.0424402
0.0424161
0.0423867
0.042348
0.0423097
0.0422813
0.0422675
0.0422654
0.0422784
0.0423119
0.0423338
0.0423369
0.042328
0.042309
0.0422855
0.0422594
0.0422312
0.0422022
0.0421743
0.0421481
0.0421238
0.0421012
0.0420806
0.042063
0.0420489
0.042039
0.042033
0.0420306
0.0420314
0.0420366
0.042045
0.0420573
0.0420733
0.0420928
0.0421155
0.0421411
0.0421698
0.0422018
0.0422369
0.0422749
0.0423157
0.0423591
0.0424051
0.0424538
0.0425052
0.0425592
0.0426159
0.0426751
0.0427369
0.0428012
0.042868
0.0429372
0.0430086
0.0430822
0.0431579
0.0432358
0.0433159
0.0433981
0.0434825
0.0435689
0.0436574
0.0437478
0.04384
0.043934
0.0440298
0.0441273
0.0442264
0.0443269
0.0444287
0.0445319
0.0446362
0.0447414
0.0448474
0.0449539
0.0450609
0.0451681
0.0452754
0.0453824
0.0454889
0.0455944
0.0456985
0.0458008
0.0459008
0.0459977
0.0460909
0.0461794
0.0462625
0.0463388
0.0464069
0.0464652
0.0465101
0.0465419
0.0465571
0.0465551
0.0465232
0.0464652
0.0463667
0.0462269
0.0460319
0.0457756
0.0454464
0.04503
0.0445141
0.0438707
0.0430709
0.0421186
0.0409581
0.0394034
0.042133
0.042133
0.042133
0.042133
0.0421331
0.042134
0.0421528
0.0422518
0.0424138
0.0425142
0.0425388
0.0425319
0.0424963
0.0424649
0.0424439
0.0424183
0.0423832
0.0423482
0.0423217
0.0423074
0.0423036
0.0423122
0.0423402
0.0423602
0.0423616
0.0423505
0.0423296
0.0423053
0.0422793
0.0422515
0.0422232
0.0421965
0.042172
0.0421495
0.0421288
0.0421099
0.0420938
0.0420811
0.0420728
0.0420681
0.0420671
0.0420696
0.0420761
0.0420857
0.0420994
0.0421169
0.042138
0.0421624
0.0421898
0.0422202
0.0422538
0.0422905
0.0423302
0.0423726
0.0424176
0.0424653
0.0425156
0.0425686
0.0426243
0.0426826
0.0427436
0.0428072
0.0428734
0.0429421
0.0430133
0.0430867
0.0431625
0.0432404
0.0433206
0.043403
0.0434877
0.0435747
0.0436639
0.0437552
0.0438486
0.0439439
0.0440412
0.0441404
0.0442416
0.0443445
0.0444491
0.0445553
0.044663
0.0447722
0.0448827
0.0449943
0.0451068
0.0452202
0.0453343
0.045449
0.0455641
0.0456793
0.0457942
0.0459086
0.0460222
0.0461344
0.0462448
0.0463528
0.0464577
0.046559
0.0466553
0.046746
0.0468291
0.0469035
0.0469674
0.0470168
0.0470515
0.0470673
0.0470625
0.0470218
0.0469502
0.0468316
0.0466644
0.0464313
0.0461207
0.0457194
0.045191
0.0445069
0.0436545
0.0425647
0.0411099
0.042133
0.042133
0.042133
0.042133
0.0421331
0.0421337
0.0421486
0.0422388
0.0424032
0.0425147
0.0425475
0.0425436
0.0425145
0.0424871
0.0424694
0.0424475
0.0424161
0.0423843
0.0423602
0.0423458
0.0423404
0.0423447
0.0423656
0.0423818
0.0423807
0.042367
0.0423444
0.0423198
0.0422941
0.042267
0.0422398
0.0422146
0.042192
0.0421716
0.0421529
0.0421359
0.0421215
0.0421107
0.0421039
0.0421009
0.0421012
0.0421057
0.0421133
0.0421244
0.0421394
0.0421583
0.042181
0.0422071
0.0422362
0.0422684
0.0423036
0.0423419
0.0423832
0.0424272
0.0424738
0.042523
0.0425748
0.0426294
0.0426867
0.0427467
0.0428094
0.0428747
0.0429426
0.0430131
0.043086
0.0431614
0.0432391
0.0433191
0.0434014
0.043486
0.043573
0.0436623
0.0437539
0.0438478
0.0439439
0.0440421
0.0441423
0.0442446
0.044349
0.0444554
0.0445636
0.0446736
0.0447853
0.0448988
0.0450139
0.0451304
0.0452482
0.0453672
0.0454873
0.0456085
0.0457305
0.0458532
0.0459763
0.0460995
0.0462227
0.0463455
0.0464675
0.0465883
0.0467073
0.046824
0.0469378
0.0470478
0.0471525
0.0472513
0.0473422
0.047424
0.0474941
0.0475481
0.0475858
0.0476018
0.0475933
0.0475443
0.0474576
0.0473117
0.0471024
0.0468089
0.0463889
0.0458111
0.045035
0.0440215
0.0426587
0.042133
0.042133
0.042133
0.042133
0.042133
0.0421336
0.0421467
0.0422314
0.0423971
0.0425167
0.0425552
0.0425532
0.0425302
0.0425073
0.0424933
0.042475
0.0424468
0.0424182
0.0423964
0.0423815
0.0423743
0.0423744
0.0423866
0.0423981
0.0423943
0.0423778
0.0423537
0.0423289
0.0423037
0.0422775
0.0422518
0.0422284
0.042208
0.0421899
0.0421735
0.0421587
0.0421464
0.0421375
0.0421324
0.042131
0.0421334