/*--------------------------------*- C++ -*----------------------------------*\
| =========                 |                                                 |
| \\      /  F ield         | OpenFOAM: The Open Source CFD Toolbox           |
|  \\    /   O peration     | Version:  2406                                  |
|   \\  /    A nd           | Website:  www.openfoam.com                      |
|    \\/     M anipulation  |                                                 |
\*---------------------------------------------------------------------------*/
FoamFile
{
    version     2.0;
    format      ascii;
    arch        "LSB;label=32;scalar=64";
    class       volScalarField;
    location    "0.056";
    object      rho;
}
// * * * * * * * * * * * * * * * * * * * * * * * * * * * * * * * * * * * * * //

dimensions      [1 -3 0 0 0 0 0];

internalField   nonuniform List<scalar> 
78650
(
0.0522077
0.0430088
0.0423388
0.0422489
0.0421671
0.0421077
0.0420411
0.0419755
0.0419033
0.0418283
0.0417538
0.041683
0.0416177
0.041561
0.041518
0.0414935
0.0414853
0.0414888
0.0415026
0.041517
0.041527
0.0415332
0.0415373
0.0415399
0.0415408
0.0415389
0.0415339
0.0415253
0.041513
0.0414974
0.0414792
0.0414589
0.0414371
0.0414142
0.0413907
0.0413669
0.0413432
0.0413199
0.041297
0.0412748
0.0412532
0.0412321
0.0412114
0.0411909
0.0411704
0.0411498
0.0411286
0.0411067
0.0410836
0.0410593
0.0410332
0.0410051
0.0409745
0.040941
0.0409043
0.0408638
0.0408189
0.0407693
0.0407141
0.0406528
0.0405847
0.040509
0.0404251
0.0403324
0.0402301
0.0401172
0.0399927
0.0398554
0.0397048
0.0395404
0.0393612
0.0391655
0.0389527
0.0387215
0.038471
0.0382014
0.037912
0.0376031
0.0372732
0.03692
0.0365433
0.0361478
0.0357323
0.0353014
0.0348518
0.034379
0.0338814
0.033365
0.0328381
0.0322929
0.0317475
0.0312119
0.0306864
0.0301564
0.0296164
0.0290956
0.028583
0.0280749
0.0275671
0.0271112
0.0266966
0.0262834
0.0258795
0.0254936
0.025138
0.0247979
0.0244728
0.0241581
0.0238711
0.0236047
0.0233653
0.0231479
0.0229449
0.0227508
0.022559
0.0223748
0.0221961
0.0220214
0.0218512
0.0216928
0.0214349
0.0520429
0.0429956
0.0423683
0.0422684
0.0421811
0.0421186
0.0420514
0.041985
0.0419136
0.0418418
0.041773
0.0417093
0.0416503
0.0415963
0.0415511
0.041521
0.041509
0.0415105
0.041524
0.0415426
0.041558
0.0415682
0.0415741
0.041577
0.0415777
0.0415756
0.041571
0.041564
0.041554
0.0415412
0.041526
0.041509
0.0414905
0.041471
0.0414508
0.0414303
0.0414099
0.0413899
0.0413704
0.0413515
0.0413334
0.0413159
0.0412989
0.0412823
0.0412659
0.0412496
0.041233
0.0412158
0.0411978
0.0411787
0.0411583
0.0411363
0.0411121
0.0410854
0.041056
0.0410232
0.0409867
0.0409459
0.0409002
0.0408491
0.0407919
0.0407279
0.0406565
0.0405772
0.0404891
0.0403913
0.0402831
0.0401635
0.0400315
0.0398863
0.0397267
0.0395518
0.0393613
0.039154
0.0389293
0.0386868
0.038425
0.0381432
0.0378396
0.0375129
0.0371643
0.0367964
0.0364069
0.0359984
0.0355666
0.0351162
0.0346464
0.0341563
0.0336568
0.0331514
0.0326345
0.032105
0.0315681
0.0310345
0.0304931
0.0299618
0.0294263
0.0289172
0.0284308
0.0279414
0.0274735
0.0270259
0.0265996
0.0261819
0.0257786
0.0253995
0.0250541
0.0247247
0.0244175
0.0241245
0.0238563
0.0236065
0.0233735
0.0231517
0.0229371
0.022729
0.0225283
0.0223273
0.0221258
0.0219301
0.0216188
0.0518972
0.0429428
0.0423932
0.0422865
0.0421947
0.0421301
0.0420624
0.0419956
0.0419254
0.0418567
0.0417937
0.0417376
0.041686
0.0416368
0.0415914
0.041556
0.0415381
0.0415361
0.0415464
0.041567
0.0415874
0.0416025
0.0416117
0.041616
0.0416169
0.0416147
0.0416098
0.0416036
0.0415953
0.0415849
0.0415725
0.0415585
0.0415433
0.0415272
0.0415104
0.0414934
0.0414765
0.0414599
0.0414438
0.0414285
0.0414139
0.0414002
0.041387
0.0413744
0.0413621
0.0413501
0.041338
0.0413256
0.0413127
0.041299
0.0412842
0.041268
0.0412502
0.0412302
0.0412079
0.0411827
0.0411542
0.041122
0.0410855
0.0410442
0.0409975
0.0409447
0.0408851
0.0408184
0.0407436
0.0406601
0.0405672
0.0404637
0.0403485
0.0402212
0.0400808
0.0399266
0.0397581
0.0395738
0.0393726
0.0391537
0.0389156
0.0386576
0.0383793
0.0380798
0.0377603
0.0374208
0.037059
0.036677
0.0362742
0.0358563
0.0354184
0.0349603
0.0344805
0.0339756
0.0334551
0.0329305
0.0323911
0.0318558
0.0313234
0.0307943
0.0302739
0.0297302
0.0292105
0.0287009
0.0282227
0.027738
0.0272634
0.0268065
0.0263769
0.0259747
0.0255857
0.0252044
0.0248486
0.0245177
0.0242236
0.0239519
0.0237057
0.0234717
0.0232505
0.0230398
0.0228342
0.0226299
0.0224349
0.0222521
0.0219049
0.051754
0.0428988
0.0424223
0.0423105
0.0422123
0.0421442
0.0420756
0.0420087
0.0419396
0.0418744
0.0418175
0.0417692
0.0417253
0.0416819
0.0416386
0.0415996
0.0415742
0.0415664
0.0415723
0.0415911
0.0416142
0.0416344
0.0416485
0.0416558
0.0416579
0.0416563
0.0416511
0.0416449
0.0416377
0.0416291
0.0416192
0.0416081
0.0415961
0.0415832
0.0415699
0.0415564
0.041543
0.0415299
0.0415174
0.0415056
0.0414947
0.0414846
0.0414752
0.0414665
0.0414583
0.0414505
0.0414429
0.0414351
0.041427
0.0414185
0.0414091
0.0413987
0.0413869
0.0413735
0.041358
0.0413401
0.0413194
0.0412955
0.0412679
0.041236
0.0411994
0.0411574
0.0411095
0.041055
0.0409934
0.040924
0.0408461
0.0407586
0.0406607
0.0405518
0.040431
0.0402973
0.0401499
0.0399873
0.0398086
0.0396134
0.0394005
0.0391695
0.0389197
0.0386503
0.0383613
0.0380512
0.0377176
0.0373626
0.0369864
0.0365916
0.0361732
0.0357356
0.0352745
0.0347954
0.0343002
0.0337948
0.0332864
0.0327566
0.032234
0.0316844
0.0311479
0.0305893
0.0300585
0.0295167
0.0290007
0.0285065
0.0280136
0.0275467
0.0270848
0.026651
0.026236
0.0258267
0.0254473
0.0250797
0.0247356
0.0244086
0.0241041
0.0238299
0.0235846
0.0233567
0.0231332
0.0229141
0.0227107
0.0225292
0.0222348
0.0515904
0.0428656
0.0424566
0.0423443
0.0422382
0.0421642
0.0420926
0.0420248
0.0419572
0.0418962
0.0418458
0.041805
0.0417681
0.0417309
0.0416912
0.0416511
0.0416185
0.0416032
0.0416037
0.0416168
0.0416398
0.041664
0.0416836
0.0416958
0.0417003
0.0417
0.0416957
0.0416891
0.0416823
0.0416749
0.041667
0.0416585
0.0416494
0.0416398
0.0416299
0.0416199
0.0416101
0.0416006
0.0415917
0.0415836
0.0415764
0.0415701
0.0415646
0.0415598
0.0415558
0.0415523
0.0415491
0.041546
0.0415429
0.0415394
0.0415354
0.0415307
0.041525
0.0415179
0.0415091
0.0414983
0.0414853
0.0414694
0.0414504
0.0414277
0.0414008
0.0413692
0.0413324
0.0412898
0.0412407
0.0411845
0.0411207
0.0410483
0.0409665
0.0408746
0.0407716
0.0406567
0.0405291
0.0403877
0.0402321
0.0400616
0.0398745
0.0396704
0.0394481
0.0392067
0.0389451
0.0386615
0.0383552
0.0380289
0.0376833
0.037319
0.0369323
0.036526
0.0360949
0.0356463
0.0351784
0.034687
0.034184
0.0336564
0.0331358
0.0325937
0.0320547
0.0315029
0.030948
0.0304163
0.0298768
0.0293706
0.0288644
0.0283755
0.0278879
0.027406
0.0269549
0.0265164
0.0261135
0.0257245
0.0253479
0.0249754
0.0246119
0.0242718
0.0239661
0.0236866
0.0234189
0.0231459
0.0228751
0.0226302
0.0222183
0.0514069
0.0428679
0.0424881
0.0423785
0.0422673
0.0421873
0.042112
0.0420434
0.0419792
0.0419239
0.0418806
0.0418461
0.0418152
0.0417833
0.0417479
0.0417091
0.0416722
0.0416478
0.041641
0.0416472
0.0416659
0.0416905
0.0417148
0.0417333
0.0417426
0.0417447
0.0417424
0.0417363
0.0417294
0.0417228
0.0417164
0.04171
0.0417035
0.0416969
0.0416903
0.0416838
0.0416776
0.0416718
0.0416666
0.0416622
0.0416587
0.0416562
0.0416546
0.0416539
0.0416539
0.0416546
0.0416558
0.0416573
0.0416589
0.0416605
0.0416617
0.0416625
0.0416626
0.0416617
0.0416594
0.0416555
0.0416498
0.0416419
0.041631
0.0416172
0.0415997
0.0415782
0.0415521
0.0415209
0.0414841
0.041441
0.0413911
0.0413336
0.0412678
0.0411928
0.0411078
0.0410121
0.040905
0.0407853
0.0406523
0.0405051
0.0403418
0.0401621
0.0399653
0.0397502
0.0395161
0.0392618
0.0389872
0.0386937
0.0383795
0.0380431
0.0376826
0.0373004
0.0368941
0.0364711
0.036024
0.0355594
0.0350752
0.0345803
0.0340696
0.0335513
0.0330164
0.0324844
0.0319252
0.0313729
0.0308143
0.0302861
0.0297614
0.0292387
0.0287223
0.0282081
0.027731
0.0272695
0.0268349
0.0264159
0.0260169
0.0256402
0.0252835
0.0249409
0.0246204
0.0243221
0.0240492
0.0237785
0.0235053
0.0232372
0.0227536
0.0512028
0.042885
0.0425038
0.0424013
0.0422914
0.0422085
0.0421322
0.042066
0.0420079
0.0419599
0.0419229
0.0418931
0.0418665
0.041839
0.0418077
0.0417714
0.0417329
0.0417006
0.0416846
0.0416838
0.041695
0.0417165
0.0417426
0.041767
0.0417833
0.0417896
0.04179
0.0417862
0.0417799
0.0417735
0.041768
0.0417633
0.041759
0.0417552
0.0417518
0.0417486
0.0417459
0.0417438
0.0417423
0.0417417
0.0417421
0.0417434
0.0417458
0.0417491
0.0417533
0.0417583
0.0417639
0.04177
0.0417764
0.041783
0.0417895
0.0417957
0.0418016
0.0418067
0.0418108
0.0418137
0.041815
0.0418148
0.0418119
0.0418067
0.0417985
0.0417865
0.0417708
0.0417505
0.0417253
0.0416945
0.0416578
0.0416142
0.0415632
0.041504
0.0414358
0.0413579
0.0412696
0.0411697
0.0410577
0.0409325
0.0407929
0.0406388
0.040469
0.0402822
0.0400776
0.0398538
0.0396103
0.0393471
0.0390623
0.0387555
0.0384275
0.03808
0.0377103
0.0373202
0.0369034
0.0364686
0.0360112
0.0355361
0.0350441
0.0345343
0.034009
0.0334803
0.0329274
0.0323715
0.0318072
0.0312535
0.0307217
0.030176
0.0296452
0.0291085
0.0286035
0.0281087
0.0276262
0.0271553
0.0266988
0.0262697
0.0258676
0.0254797
0.0251062
0.0247518
0.0244273
0.0241319
0.0238649
0.0236264
0.0231856
0.0509661
0.0429
0.0425048
0.0424091
0.0423066
0.0422284
0.0421569
0.0420975
0.042047
0.0420066
0.0419729
0.0419459
0.0419219
0.0418976
0.0418696
0.0418359
0.041798
0.0417613
0.0417357
0.0417268
0.0417303
0.0417448
0.0417684
0.0417958
0.0418192
0.0418326
0.0418372
0.0418367
0.0418326
0.0418271
0.0418223
0.0418186
0.0418162
0.0418148
0.0418142
0.0418141
0.0418148
0.0418162
0.0418184
0.0418216
0.0418257
0.041831
0.0418373
0.0418447
0.041853
0.0418622
0.0418722
0.0418828
0.0418939
0.0419053
0.0419169
0.0419285
0.0419399
0.0419509
0.0419612
0.0419707
0.0419789
0.0419857
0.0419908
0.0419936
0.0419942
0.0419917
0.0419859
0.0419764
0.0419624
0.0419437
0.0419197
0.0418898
0.0418535
0.04181
0.0417584
0.0416983
0.0416287
0.0415488
0.0414579
0.0413552
0.0412392
0.0411096
0.0409648
0.0408039
0.0406264
0.0404314
0.0402181
0.0399856
0.0397318
0.0394571
0.0391621
0.0388469
0.0385084
0.0381463
0.0377572
0.0373486
0.0369169
0.0364692
0.0359989
0.0355118
0.0350132
0.0344937
0.0339638
0.033409
0.0328656
0.0323019
0.0317631
0.0312084
0.0306714
0.0301182
0.0295827
0.0290637
0.0285499
0.0280603
0.0275798
0.0271272
0.0267022
0.0262853
0.0258787
0.0254733
0.0250763
0.024697
0.02435
0.0240269
0.0234425
0.0506853
0.0428949
0.0424926
0.0424113
0.0423207
0.0422524
0.0421908
0.0421419
0.0421006
0.0420633
0.0420322
0.042005
0.0419812
0.0419582
0.0419323
0.0419006
0.0418637
0.0418256
0.0417933
0.0417753
0.0417719
0.0417785
0.0417958
0.041822
0.0418501
0.041871
0.0418826
0.0418867
0.0418862
0.041883
0.0418793
0.0418766
0.0418756
0.0418761
0.0418781
0.0418809
0.0418847
0.0418895
0.0418952
0.041902
0.04191
0.0419191
0.0419294
0.0419408
0.0419533
0.0419668
0.0419812
0.0419963
0.0420121
0.0420284
0.042045
0.0420619
0.0420788
0.0420956
0.042112
0.0421278
0.0421428
0.0421568
0.0421694
0.0421802
0.042189
0.0421955
0.0421991
0.0421999
0.0421966
0.0421895
0.0421778
0.0421605
0.0421379
0.0421088
0.0420726
0.0420289
0.0419767
0.0419154
0.0418442
0.0417621
0.0416682
0.041562
0.0414421
0.041308
0.041159
0.0409935
0.04081
0.0406075
0.0403848
0.040143
0.0398822
0.0396008
0.0392962
0.0389684
0.0386167
0.038246
0.0378526
0.03744
0.0370008
0.0365426
0.0360618
0.035565
0.0350552
0.0345269
0.0339939
0.0334277
0.0328708
0.0323124
0.0317555
0.0311938
0.0306219
0.0300812
0.0295391
0.0290241
0.0285078
0.0280076
0.0275383
0.0270874
0.0266686
0.0262544
0.0258551
0.0254715
0.0251227
0.0248163
0.0242857
0.0503687
0.0428638
0.0424673
0.0424016
0.042329
0.0422824
0.0422403
0.0422023
0.0421655
0.0421309
0.0420993
0.0420706
0.0420456
0.0420219
0.0419957
0.0419645
0.0419282
0.04189
0.0418551
0.04183
0.0418195
0.0418196
0.0418286
0.0418493
0.0418777
0.0419038
0.041923
0.0419344
0.0419389
0.0419394
0.0419381
0.041937
0.0419372
0.0419394
0.0419433
0.0419487
0.0419554
0.0419633
0.0419724
0.0419827
0.0419943
0.0420072
0.0420213
0.0420367
0.0420532
0.0420709
0.0420896
0.0421092
0.0421295
0.0421506
0.0421721
0.0421941
0.0422163
0.0422387
0.0422609
0.0422829
0.0423044
0.0423251
0.0423449
0.0423634
0.0423804
0.0423955
0.0424082
0.0424183
0.0424255
0.0424291
0.0424295
0.0424247
0.0424156
0.0424009
0.0423798
0.0423523
0.0423173
0.0422743
0.0422224
0.0421609
0.0420889
0.0420057
0.04191
0.041801
0.0416778
0.0415391
0.0413842
0.0412123
0.0410227
0.0408153
0.0405886
0.0403404
0.0400694
0.0397767
0.0394618
0.0391259
0.0387644
0.038379
0.0379663
0.037535
0.0370795
0.0366083
0.0361208
0.0356193
0.0350927
0.0345469
0.0339769
0.0334255
0.0328594
0.0323027
0.0317178
0.0311624
0.0306034
0.0300642
0.029523
0.0289801
0.0284543
0.0279389
0.0274588
0.0269863
0.0265226
0.026065
0.0256211
0.025226
0.0245038
0.0500414
0.0428104
0.0424303
0.0423802
0.042327
0.0422986
0.0422741
0.042251
0.0422242
0.0421946
0.0421663
0.0421393
0.0421145
0.0420897
0.0420621
0.0420293
0.0419912
0.0419515
0.041915
0.0418865
0.04187
0.0418654
0.041868
0.0418813
0.041906
0.0419335
0.0419582
0.0419772
0.041989
0.041995
0.0419976
0.0419991
0.0420011
0.0420047
0.0420103
0.042018
0.0420272
0.042038
0.0420502
0.0420638
0.0420788
0.0420953
0.0421132
0.0421325
0.042153
0.0421748
0.0421977
0.0422217
0.0422466
0.0422723
0.0422987
0.0423257
0.0423532
0.0423811
0.042409
0.042437
0.0424648
0.0424921
0.0425189
0.0425448
0.0425695
0.0425928
0.0426143
0.0426338
0.0426508
0.0426648
0.0426756
0.0426828
0.0426859
0.0426848
0.0426777
0.0426653
0.0426462
0.04262
0.0425861
0.0425435
0.042492
0.0424303
0.0423575
0.042273
0.042176
0.0420652
0.0419398
0.0417987
0.0416403
0.0414643
0.0412689
0.041053
0.0408173
0.0405623
0.0402864
0.0399878
0.0396626
0.0393135
0.0389409
0.0385499
0.0381344
0.0377001
0.0372423
0.0367658
0.0362667
0.035743
0.0352049
0.0346554
0.034101
0.0335443
0.0329675
0.0323839
0.0318132
0.0312475
0.0307009
0.0301412
0.0295969
0.029062
0.0285676
0.0280904
0.0276339
0.0271786
0.0267275
0.0263039
0.0255058
0.0497246
0.0427499
0.0423946
0.0423555
0.0423161
0.0423006
0.0422881
0.0422758
0.0422574
0.0422369
0.0422159
0.0421936
0.0421723
0.04215
0.042124
0.0420914
0.0420524
0.0420112
0.0419731
0.0419428
0.0419229
0.0419146
0.0419134
0.0419203
0.041939
0.0419639
0.0419904
0.0420149
0.0420342
0.0420474
0.0420557
0.0420613
0.042066
0.0420717
0.0420791
0.0420885
0.0421
0.0421133
0.0421283
0.0421449
0.0421632
0.042183
0.0422044
0.0422274
0.0422518
0.0422775
0.0423045
0.0423327
0.042362
0.0423922
0.0424233
0.0424551
0.0424876
0.0425207
0.0425541
0.0425878
0.0426216
0.0426552
0.0426886
0.0427215
0.0427537
0.0427848
0.0428146
0.0428428
0.0428691
0.0428932
0.0429147
0.0429332
0.042948
0.0429591
0.0429659
0.0429682
0.0429648
0.0429553
0.0429391
0.0429149
0.0428831
0.0428423
0.0427917
0.0427306
0.042658
0.0425727
0.0424742
0.0423615
0.0422332
0.0420889
0.0419272
0.0417475
0.04155
0.0413332
0.0410939
0.0408303
0.0405416
0.0402313
0.0398995
0.0395471
0.0391679
0.0387653
0.0383352
0.0378857
0.0374143
0.036923
0.0364073
0.035871
0.0353277
0.0347682
0.0342119
0.0336104
0.0330223
0.0324264
0.0318623
0.0312867
0.0307167
0.0301358
0.0295803
0.0290469
0.0285477
0.0280604
0.0275918
0.0271679
0.0263454
0.0494395
0.0426996
0.0423797
0.0423429
0.0423044
0.0422929
0.0422853
0.0422783
0.0422687
0.0422537
0.042234
0.0422151
0.0421991
0.0421856
0.042169
0.0421436
0.0421095
0.0420696
0.0420301
0.0419976
0.0419754
0.0419646
0.0419615
0.0419651
0.0419784
0.0419988
0.0420235
0.0420502
0.0420749
0.0420951
0.0421105
0.0421218
0.0421309
0.0421396
0.0421491
0.0421605
0.0421739
0.0421894
0.0422069
0.0422263
0.0422474
0.0422704
0.0422951
0.0423215
0.0423496
0.0423791
0.0424101
0.0424424
0.0424759
0.0425105
0.0425461
0.0425827
0.0426201
0.0426582
0.042697
0.0427362
0.0427758
0.0428155
0.0428553
0.0428949
0.0429341
0.0429727
0.0430104
0.0430469
0.0430821
0.0431155
0.0431469
0.0431758
0.043202
0.0432251
0.0432443
0.0432595
0.0432701
0.0432755
0.0432762
0.0432691
0.0432559
0.0432346
0.0432046
0.0431657
0.0431165
0.0430565
0.0429851
0.0429009
0.0428025
0.042689
0.0425591
0.0424124
0.0422484
0.0420651
0.0418604
0.0416343
0.0413875
0.0411213
0.040833
0.040521
0.0401808
0.0398155
0.0394233
0.0390128
0.0385819
0.0381308
0.0376505
0.0371462
0.0366229
0.0360908
0.035542
0.0349743
0.0343963
0.0337988
0.0332141
0.0326358
0.0320561
0.0314564
0.030856
0.0302542
0.0296867
0.0291333
0.028588
0.0280687
0.0270673
0.0491919
0.04269
0.0423885
0.0423469
0.0422975
0.0422772
0.0422681
0.0422645
0.0422579
0.0422448
0.0422277
0.0422129
0.0422017
0.0421937
0.0421846
0.04217
0.0421495
0.0421201
0.0420857
0.0420533
0.0420291
0.0420161
0.0420119
0.0420142
0.0420245
0.0420404
0.0420614
0.0420868
0.0421135
0.0421388
0.0421608
0.0421789
0.0421937
0.0422067
0.0422194
0.0422331
0.0422485
0.042266
0.0422856
0.0423074
0.0423312
0.0423569
0.0423847
0.0424143
0.0424457
0.0424788
0.0425135
0.0425496
0.0425871
0.0426259
0.0426659
0.0427069
0.0427489
0.0427919
0.0428357
0.0428802
0.0429252
0.0429706
0.0430164
0.0430623
0.0431082
0.0431538
0.0431989
0.0432433
0.0432867
0.043329
0.0433698
0.0434087
0.0434454
0.0434796
0.043511
0.0435391
0.0435635
0.0435833
0.0435984
0.0436083
0.0436124
0.0436103
0.0436001
0.0435825
0.0435553
0.0435189
0.0434719
0.0434133
0.0433423
0.043258
0.0431594
0.0430462
0.0429172
0.0427703
0.0426045
0.0424202
0.0422164
0.0419916
0.0417421
0.0414671
0.0411659
0.0408418
0.0404934
0.0401254
0.039734
0.0393194
0.0388746
0.038404
0.0379074
0.0373939
0.0368665
0.0363245
0.0357619
0.0351818
0.0345843
0.0339976
0.0334129
0.0328252
0.0322205
0.0316133
0.031027
0.030474
0.0299593
0.029491
0.0286535
0.0489678
0.042721
0.0424169
0.0423631
0.0422998
0.0422596
0.0422356
0.0422266
0.0422198
0.0422089
0.0421969
0.0421888
0.0421846
0.0421829
0.0421808
0.0421755
0.0421656
0.0421505
0.0421298
0.042105
0.0420827
0.0420688
0.0420638
0.0420655
0.0420752
0.0420885
0.0421059
0.042128
0.0421536
0.0421809
0.0422076
0.0422318
0.042253
0.0422716
0.0422886
0.0423054
0.0423232
0.0423427
0.0423643
0.0423882
0.0424143
0.0424427
0.0424732
0.0425057
0.0425403
0.0425767
0.0426148
0.0426546
0.0426959
0.0427387
0.0427828
0.0428281
0.0428745
0.0429221
0.0429707
0.0430202
0.0430704
0.0431214
0.0431728
0.0432247
0.0432769
0.0433292
0.0433813
0.0434331
0.0434844
0.0435349
0.0435844
0.0436326
0.0436791
0.0437237
0.043766
0.0438058
0.0438426
0.0438759
0.0439053
0.0439302
0.0439499
0.0439641
0.0439724
0.0439747
0.0439684
0.0439545
0.0439314
0.0438977
0.0438541
0.0437985
0.0437302
0.0436484
0.0435515
0.043438
0.0433077
0.0431602
0.0429933
0.0428048
0.042593
0.0423588
0.042103
0.0418269
0.0415269
0.0412037
0.0408537
0.0404798
0.0400781
0.0396501
0.0391926
0.0387138
0.0382173
0.0377062
0.0371729
0.0366109
0.0360246
0.0354238
0.0348247
0.0342343
0.0336104
0.0329958
0.0323042
0.0316694
0.0310374
0.0304478
0.0293781
0.0487478
0.0427921
0.0424556
0.0423831
0.0423069
0.0422517
0.0422138
0.0421896
0.0421711
0.0421532
0.0421405
0.0421367
0.0421413
0.0421517
0.0421621
0.0421666
0.0421642
0.0421583
0.0421506
0.042142
0.0421307
0.0421211
0.0421171
0.0421193
0.0421289
0.0421415
0.0421569
0.0421756
0.0421983
0.0422246
0.042253
0.0422814
0.0423082
0.0423327
0.042355
0.0423761
0.042397
0.0424189
0.0424425
0.0424684
0.0424966
0.0425272
0.0425601
0.0425953
0.0426327
0.0426721
0.0427134
0.0427565
0.0428014
0.0428478
0.0428958
0.0429451
0.0429957
0.0430476
0.0431006
0.0431548
0.0432099
0.0432659
0.0433227
0.0433802
0.0434383
0.0434967
0.0435553
0.0436139
0.0436724
0.0437306
0.0437882
0.043845
0.0439006
0.0439549
0.0440076
0.0440583
0.0441067
0.0441525
0.0441952
0.0442343
0.0442693
0.0442998
0.044325
0.0443445
0.0443578
0.0443642
0.0443644
0.0443534
0.044335
0.0443054
0.0442645
0.0442116
0.0441452
0.044065
0.0439704
0.0438599
0.0437311
0.0435833
0.0434155
0.0432286
0.0430219
0.0427939
0.0425401
0.0422604
0.041953
0.0416227
0.0412674
0.0408871
0.0404781
0.0400446
0.0395877
0.0391114
0.0386121
0.03809
0.0375423
0.0369759
0.0364024
0.0358274
0.0352546
0.0346599
0.0340422
0.0334325
0.0328084
0.0322429
0.0312428
0.0484971
0.042867
0.0424884
0.0423977
0.0423172
0.0422571
0.0422146
0.0421808
0.0421526
0.0421247
0.0420987
0.042085
0.0420871
0.0420992
0.0421183
0.0421356
0.042146
0.0421502
0.0421526
0.042156
0.0421609
0.0421645
0.0421674
0.0421728
0.0421832
0.042197
0.0422122
0.042229
0.0422486
0.0422722
0.0422997
0.0423297
0.0423603
0.04239
0.0424178
0.0424438
0.0424686
0.0424935
0.0425195
0.0425474
0.0425775
0.0426102
0.0426453
0.0426829
0.0427228
0.042765
0.0428092
0.0428555
0.0429036
0.0429535
0.043005
0.043058
0.0431126
0.0431685
0.0432258
0.0432843
0.0433441
0.0434049
0.0434667
0.0435294
0.0435929
0.0436571
0.0437218
0.0437868
0.043852
0.0439173
0.0439824
0.0440471
0.0441112
0.0441744
0.0442365
0.0442971
0.0443562
0.0444133
0.044468
0.0445199
0.0445686
0.0446135
0.0446544
0.0446908
0.0447219
0.0447468
0.0447656
0.0447774
0.0447819
0.0447775
0.044763
0.0447386
0.044702
0.0446538
0.0445923
0.0445161
0.0444236
0.0443145
0.0441876
0.0440421
0.043876
0.0436872
0.0434731
0.0432347
0.0429712
0.0426865
0.0423784
0.0420466
0.0416858
0.0412966
0.0408778
0.0404346
0.0399682
0.0394817
0.0389692
0.0384336
0.0378708
0.0372933
0.0367029
0.0361075
0.0355027
0.0348344
0.0341592
0.0335262
0.0324238
0.0481858
0.0429021
0.0425094
0.0424245
0.0423571
0.0422956
0.0422403
0.0421958
0.042158
0.0421238
0.0420896
0.0420627
0.0420503
0.0420532
0.0420677
0.0420902
0.0421131
0.0421302
0.042143
0.0421552
0.0421717
0.0421907
0.0422077
0.0422216
0.0422361
0.0422526
0.0422696
0.0422864
0.0423043
0.042325
0.0423498
0.0423788
0.0424108
0.0424439
0.0424765
0.0425076
0.0425371
0.0425657
0.0425946
0.0426247
0.0426568
0.0426913
0.0427284
0.0427681
0.0428103
0.042855
0.0429019
0.042951
0.0430021
0.0430551
0.0431099
0.0431663
0.0432244
0.0432841
0.0433453
0.0434079
0.0434718
0.0435371
0.0436035
0.043671
0.0437395
0.0438089
0.0438792
0.04395
0.0440214
0.0440931
0.044165
0.044237
0.0443087
0.04438
0.0444507
0.0445205
0.0445893
0.0446567
0.0447225
0.0447863
0.0448475
0.0449059
0.0449611
0.0450126
0.04506
0.0451027
0.0451402
0.0451716
0.0451965
0.0452142
0.0452239
0.0452261
0.0452166
0.0451978
0.0451667
0.045122
0.045064
0.0449914
0.0449027
0.0447967
0.0446712
0.0445252
0.0443582
0.044171
0.0439616
0.0437307
0.0434754
0.0431958
0.0428873
0.0425506
0.0421846
0.0417931
0.041378
0.0409409
0.0404779
0.0399904
0.0394714
0.0389325
0.0383712
0.0378026
0.0372137
0.0366195
0.0359697
0.0353491
0.0342821
0.0478289
0.0428769
0.0425414
0.0424804
0.0424167
0.0423604
0.0423016
0.0422452
0.0421939
0.0421458
0.0421012
0.042065
0.0420414
0.0420318
0.0420336
0.0420468
0.0420695
0.042095
0.0421199
0.0421441
0.0421695
0.0421993
0.0422308
0.042259
0.0422826
0.0423045
0.0423252
0.0423441
0.0423621
0.0423813
0.0424036
0.0424303
0.0424615
0.042496
0.0425318
0.0425673
0.0426015
0.0426343
0.0426666
0.0426994
0.0427336
0.0427701
0.042809
0.0428507
0.042895
0.0429419
0.0429912
0.0430428
0.0430966
0.0431525
0.0432103
0.04327
0.0433314
0.0433945
0.0434592
0.0435256
0.0435934
0.0436627
0.0437334
0.0438053
0.0438785
0.0439528
0.0440281
0.0441043
0.0441813
0.0442589
0.0443371
0.0444156
0.0444944
0.0445731
0.0446516
0.0447297
0.0448072
0.0448839
0.0449596
0.0450339
0.0451064
0.0451768
0.0452448
0.0453099
0.0453719
0.0454301
0.0454842
0.0455337
0.0455779
0.0456162
0.0456476
0.0456718
0.0456878
0.0456953
0.0456943
0.0456794
0.0456552
0.0456172
0.0455652
0.0454977
0.045413
0.0453107
0.0451905
0.0450513
0.0448897
0.0447049
0.0444942
0.0442593
0.0439978
0.0437108
0.0433956
0.0430536
0.0426848
0.0422896
0.0418686
0.0414212
0.0409462
0.0404485
0.0399228
0.0393825
0.038815
0.0382391
0.037627
0.0370119
0.0360366
0.0474577
0.0427847
0.0425378
0.0425119
0.0424767
0.0424389
0.0423879
0.0423254
0.0422597
0.0421975
0.042141
0.0420901
0.0420515
0.0420303
0.0420229
0.0420248
0.0420356
0.0420581
0.0420876
0.042121
0.0421572
0.042196
0.0422392
0.0422814
0.042318
0.042349
0.0423763
0.0423996
0.0424201
0.0424394
0.0424602
0.0424845
0.0425137
0.0425477
0.042585
0.0426237
0.042662
0.0426991
0.0427351
0.042771
0.0428077
0.0428462
0.0428869
0.0429304
0.0429766
0.0430255
0.043077
0.0431309
0.0431872
0.0432456
0.0433062
0.0433687
0.0434331
0.0434993
0.0435674
0.0436371
0.0437085
0.0437815
0.043856
0.0439319
0.0440092
0.0440879
0.0441679
0.0442489
0.0443309
0.0444138
0.0444976
0.044582
0.044667
0.0447523
0.0448378
0.0449233
0.0450086
0.0450936
0.0451781
0.0452619
0.0453445
0.0454256
0.0455051
0.0455825
0.0456575
0.0457298
0.0457989
0.0458643
0.0459257
0.0459824
0.0460338
0.0460793
0.0461182
0.0461493
0.0461727
0.0461871
0.0461926
0.0461865
0.0461678
0.0461361
0.0460889
0.0460269
0.045948
0.0458505
0.045732
0.0455919
0.0454286
0.0452437
0.0450351
0.0448031
0.0445429
0.0442553
0.0439382
0.0435929
0.0432218
0.042824
0.0424013
0.0419504
0.0414684
0.0409615
0.0404191
0.039866
0.0392628
0.0386549
0.0377633
0.0471551
0.0426461
0.0424839
0.0424985
0.0424923
0.0424894
0.0424685
0.0424208
0.0423506
0.042274
0.0422021
0.0421377
0.0420842
0.0420471
0.0420276
0.0420215
0.0420244
0.0420362
0.0420593
0.0420937
0.0421368
0.0421856
0.0422372
0.0422909
0.0423409
0.0423833
0.0424193
0.0424492
0.0424742
0.042496
0.0425171
0.0425401
0.0425672
0.0425996
0.0426369
0.0426772
0.0427187
0.0427597
0.0427996
0.0428388
0.0428783
0.042919
0.0429617
0.0430069
0.0430548
0.0431056
0.0431591
0.0432151
0.0432736
0.0433344
0.0433974
0.0434625
0.0435296
0.0435987
0.0436697
0.0437425
0.0438171
0.0438934
0.0439714
0.044051
0.0441321
0.0442147
0.0442988
0.0443842
0.0444707
0.0445584
0.0446472
0.0447369
0.0448275
0.0449187
0.0450104
0.0451025
0.0451948
0.0452871
0.0453795
0.0454715
0.045563
0.0456537
0.0457432
0.0458313
0.0459179
0.0460025
0.0460847
0.0461642
0.0462407
0.0463136
0.0463824
0.0464466
0.0465056
0.0465587
0.0466054
0.0466445
0.0466755
0.0466972
0.0467093
0.0467121
0.0466998
0.0466766
0.0466375
0.0465811
0.0465083
0.046417
0.0463063
0.0461752
0.0460213
0.0458441
0.0456395
0.045409
0.0451492
0.0448625
0.044548
0.0442053
0.0438372
0.0434398
0.0430173
0.0425634
0.0420784
0.0415639
0.0410074
0.0404097
0.0395872
0.0469541
0.0424997
0.0423872
0.0424436
0.0424747
0.0424997
0.0425086
0.0424928
0.0424399
0.0423623
0.0422817
0.0422068
0.0421393
0.0420839
0.0420471
0.0420296
0.0420257
0.0420307
0.042047
0.0420744
0.0421161
0.0421699
0.0422302
0.0422924
0.0423529
0.0424071
0.0424531
0.0424912
0.0425224
0.0425485
0.0425719
0.0425952
0.0426212
0.042652
0.0426882
0.042729
0.0427725
0.0428165
0.04286
0.0429027
0.0429451
0.0429882
0.043033
0.04308
0.0431296
0.0431821
0.0432374
0.0432954
0.0433559
0.0434188
0.043484
0.0435515
0.043621
0.0436926
0.0437663
0.0438418
0.0439193
0.0439986
0.0440797
0.0441625
0.044247
0.0443332
0.0444209
0.0445101
0.0446007
0.0446926
0.0447858
0.0448802
0.0449756
0.045072
0.0451692
0.045267
0.0453653
0.0454641
0.0455633
0.0456626
0.0457618
0.0458607
0.045959
0.0460565
0.046153
0.0462483
0.046342
0.0464339
0.0465235
0.0466106
0.0466946
0.0467752
0.0468518
0.0469239
0.0469909
0.0470522
0.0471071
0.0471549
0.0471943
0.0472252
0.0472458
0.0472561
0.047256
0.0472371
0.0472076
0.0471603
0.0470955
0.0470108
0.0469042
0.0467752
0.0466212
0.0464431
0.0462359
0.0460019
0.045737
0.0454434
0.0451204
0.0447676
0.044388
0.0439734
0.0435298
0.0430495
0.0425365
0.0419637
0.0412171
0.046873
0.0423915
0.0422753
0.0423531
0.0424287
0.0424886
0.0425197
0.0425265
0.0425052
0.0424455
0.0423667
0.0422875
0.042212
0.0421425
0.0420866
0.0420518
0.042037
0.0420357
0.0420451
0.0420677
0.0421043
0.0421572
0.042222
0.0422909
0.0423597
0.0424238
0.0424794
0.0425259
0.0425641
0.0425956
0.0426227
0.0426478
0.042674
0.0427038
0.0427389
0.0427794
0.0428238
0.0428701
0.0429166
0.0429625
0.043008
0.0430537
0.0431005
0.0431494
0.0432008
0.0432549
0.0433119
0.0433716
0.0434339
0.0434987
0.0435659
0.0436355
0.0437072
0.0437811
0.0438571
0.0439352
0.0440152
0.0440972
0.044181
0.0442667
0.0443542
0.0444434
0.0445344
0.044627
0.0447212
0.0448168
0.0449139
0.0450123
0.045112
0.0452129
0.0453148
0.0454177
0.0455213
0.0456257
0.0457307
0.0458363
0.0459422
0.0460482
0.0461541
0.0462597
0.0463648
0.0464693
0.0465728
0.0466751
0.046776
0.0468752
0.0469723
0.047067
0.0471587
0.0472471
0.0473317
0.0474119
0.0474874
0.0475573
0.0476211
0.0476778
0.0477266
0.0477658
0.0477959
0.0478146
0.0478223
0.0478159
0.0477933
0.047755
0.0476975
0.0476211
0.0475235
0.0474037
0.0472575
0.0470861
0.0468841
0.0466547
0.0463933
0.046103
0.0457824
0.0454255
0.0450357
0.0446009
0.0441295
0.0435912
0.042894
0.0468455
0.0423275
0.0421617
0.0422327
0.04234
0.0424467
0.0425104
0.0425398
0.0425414
0.0425105
0.0424451
0.0423682
0.0422904
0.0422135
0.0421435
0.0420909
0.0420614
0.0420511
0.042053
0.0420686
0.0421009
0.0421512
0.0422172
0.0422907
0.0423655
0.0424371
0.0425008
0.042555
0.0426001
0.0426373
0.0426688
0.0426969
0.0427245
0.0427543
0.0427886
0.0428284
0.0428732
0.042921
0.0429699
0.0430186
0.043067
0.0431153
0.0431644
0.0432151
0.0432682
0.043324
0.0433825
0.0434438
0.0435078
0.0435744
0.0436434
0.0437149
0.0437886
0.0438645
0.0439426
0.0440228
0.0441051
0.0441895
0.0442758
0.044364
0.0444541
0.0445461
0.0446399
0.0447355
0.0448327
0.0449316
0.045032
0.045134
0.0452374
0.0453422
0.0454482
0.0455554
0.0456635
0.0457727
0.0458828
0.0459937
0.0461052
0.0462172
0.0463295
0.0464419
0.0465543
0.0466665
0.0467784
0.0468896
0.047
0.0471094
0.0472175
0.047324
0.0474285
0.0475306
0.0476301
0.0477265
0.0478194
0.0479082
0.0479923
0.0480712
0.0481442
0.0482106
0.0482696
0.0483197
0.0483601
0.0483898
0.0484078
0.0484142
0.048404
0.0483781
0.0483339
0.0482687
0.048181
0.0480695
0.0479292
0.0477615
0.0475596
0.0473282
0.0470601
0.0467556
0.0464103
0.0460157
0.0455825
0.0450809
0.0444345
0.0468631
0.0423039
0.042051
0.0421048
0.042226
0.0423773
0.0424898
0.0425411
0.0425576
0.0425501
0.0425078
0.0424399
0.0423635
0.0422845
0.0422073
0.0421423
0.0420986
0.0420771
0.0420712
0.0420784
0.0421042
0.0421511
0.0422172
0.0422935
0.0423726
0.0424494
0.0425195
0.0425802
0.0426314
0.0426741
0.0427102
0.0427419
0.0427717
0.0428024
0.0428366
0.042876
0.0429207
0.0429694
0.0430201
0.0430712
0.0431222