/*--------------------------------*- C++ -*----------------------------------*\
| =========                 |                                                 |
| \\      /  F ield         | OpenFOAM: The Open Source CFD Toolbox           |
|  \\    /   O peration     | Version:  2412                                  |
|   \\  /    A nd           | Website:  www.openfoam.com                      |
|    \\/     M anipulation  |                                                 |
\*---------------------------------------------------------------------------*/
FoamFile
{
    version     2.0;
    format      ascii;
    arch        "LSB;label=32;scalar=64";
    class       volScalarField;
    location    "0.056";
    object      rho;
}
// * * * * * * * * * * * * * * * * * * * * * * * * * * * * * * * * * * * * * //

dimensions      [1 -3 0 0 0 0 0];

internalField   nonuniform List<scalar> 
78650
(
0.0421449
0.0421979
0.042289
0.0423542
0.0423637
0.0423407
0.042229
0.0420734
0.0419331
0.0418209
0.0417409
0.0416997
0.041691
0.0416998
0.0417297
0.041764
0.0417875
0.0418011
0.0418111
0.0418179
0.0418216
0.0418284
0.0418343
0.0418365
0.0418326
0.0418201
0.0417979
0.0417672
0.0417301
0.0416879
0.0416418
0.041593
0.0415434
0.0414944
0.041446
0.0413981
0.0413514
0.0413064
0.0412634
0.0412225
0.041184
0.0411479
0.041114
0.0410824
0.0410533
0.0410266
0.0410021
0.0409799
0.0409596
0.0409412
0.0409243
0.040909
0.0408951
0.0408826
0.0408713
0.0408611
0.0408517
0.0408429
0.0408342
0.0408255
0.0408163
0.0408065
0.0407956
0.0407836
0.04077
0.0407546
0.0407366
0.0407154
0.0406904
0.0406609
0.0406264
0.0405865
0.0405407
0.0404879
0.0404273
0.0403574
0.0402771
0.0401854
0.0400815
0.0399641
0.0398318
0.0396832
0.0395164
0.0393296
0.0391206
0.0388876
0.0386289
0.0383433
0.0380272
0.0376812
0.0373034
0.0368964
0.0364502
0.0359674
0.0354381
0.0348728
0.0342734
0.0336336
0.0329651
0.0322481
0.031513
0.0307408
0.0299874
0.0291985
0.0284044
0.0276163
0.0268135
0.0260656
0.0254083
0.0248004
0.0241925
0.0235851
0.022968
0.0223818
0.0218538
0.021393
0.0209999
0.0206307
0.0202809
0.0199665
0.0193906
0.0421405
0.0421829
0.0422718
0.0423495
0.0423695
0.0423579
0.0422694
0.042124
0.0419835
0.0418644
0.0417704
0.0417114
0.0416929
0.0416986
0.0417231
0.0417568
0.041782
0.0417959
0.0418033
0.0418059
0.0418045
0.0418061
0.041808
0.0418079
0.0418032
0.041791
0.0417703
0.0417421
0.0417081
0.0416698
0.0416285
0.0415849
0.0415398
0.0414941
0.0414478
0.0414021
0.0413584
0.0413166
0.041277
0.0412396
0.0412045
0.0411717
0.0411412
0.0411129
0.041087
0.0410635
0.0410422
0.0410232
0.0410061
0.0409909
0.0409773
0.0409652
0.0409547
0.0409456
0.0409377
0.0409311
0.0409254
0.0409204
0.0409158
0.0409113
0.0409065
0.0409013
0.0408953
0.0408884
0.0408803
0.0408707
0.0408589
0.0408445
0.0408268
0.0408051
0.040779
0.0407482
0.0407119
0.0406697
0.0406205
0.040563
0.0404964
0.0404193
0.0403311
0.0402308
0.0401171
0.0399884
0.0398429
0.039679
0.0394949
0.039289
0.0390593
0.0388041
0.0385206
0.0382085
0.0378637
0.0374863
0.0370698
0.0366202
0.0361316
0.0356124
0.0350551
0.0344588
0.0338107
0.033129
0.0324311
0.0316832
0.0309231
0.0301524
0.029345
0.0285648
0.0277698
0.0269589
0.0261905
0.0254992
0.0248567
0.0242646
0.0236713
0.0230933
0.0225266
0.0219783
0.0214735
0.0209927
0.02057
0.0201921
0.0195649
0.0421374
0.0421695
0.0422525
0.0423408
0.0423724
0.0423702
0.0423052
0.0421721
0.0420331
0.0419125
0.0418111
0.0417367
0.041703
0.0417018
0.0417207
0.0417551
0.0417827
0.0417972
0.0418036
0.0418049
0.0418018
0.0418012
0.0418012
0.0417997
0.0417941
0.0417817
0.0417616
0.0417342
0.0417013
0.0416645
0.0416251
0.0415837
0.0415405
0.0414961
0.0414519
0.041409
0.0413679
0.0413291
0.0412925
0.0412582
0.0412264
0.0411968
0.0411696
0.0411446
0.0411219
0.0411015
0.0410833
0.0410675
0.0410537
0.0410416
0.0410313
0.0410225
0.0410153
0.0410096
0.0410052
0.041002
0.0410001
0.0409989
0.0409983
0.0409979
0.0409976
0.040997
0.0409958
0.040994
0.0409912
0.0409873
0.0409818
0.0409739
0.0409632
0.0409492
0.0409313
0.0409091
0.0408822
0.04085
0.0408116
0.040766
0.0407121
0.0406488
0.0405754
0.0404909
0.0403942
0.0402838
0.0401582
0.0400159
0.0398551
0.0396741
0.0394707
0.0392431
0.0389888
0.0387076
0.0383965
0.0380555
0.0376786
0.0372677
0.0368153
0.0363281
0.0358027
0.0352439
0.03465
0.0340107
0.0333254
0.0326117
0.0318481
0.0311054
0.0303101
0.0294991
0.0287063
0.0278741
0.0270232
0.0262128
0.0254437
0.0247469
0.0241253
0.0235674
0.0230357
0.0225114
0.0219994
0.0214715
0.0209545
0.0204701
0.0196706
0.0421354
0.0421581
0.0422318
0.0423276
0.0423732
0.0423809
0.0423369
0.0422171
0.0420789
0.0419595
0.0418579
0.0417746
0.0417243
0.041712
0.0417235
0.0417556
0.0417857
0.0418014
0.0418072
0.0418079
0.041804
0.0418021
0.0418014
0.0417995
0.0417938
0.0417816
0.0417617
0.0417346
0.0417018
0.0416654
0.0416264
0.0415856
0.0415437
0.0415015
0.0414598
0.0414194
0.041381
0.0413447
0.0413109
0.0412794
0.0412505
0.041224
0.0411999
0.0411779
0.0411583
0.0411409
0.0411258
0.041113
0.0411022
0.0410933
0.0410861
0.0410806
0.0410766
0.0410741
0.0410732
0.0410734
0.041075
0.0410775
0.0410808
0.0410845
0.0410884
0.0410922
0.0410958
0.0410988
0.0411012
0.0411027
0.041103
0.0411014
0.0410976
0.0410911
0.0410809
0.0410671
0.0410491
0.0410264
0.0409984
0.0409642
0.0409227
0.0408728
0.0408138
0.0407447
0.0406648
0.0405727
0.040467
0.0403461
0.0402083
0.0400518
0.0398745
0.0396751
0.0394516
0.0392029
0.0389247
0.0386158
0.038272
0.0378965
0.0374856
0.0370429
0.0365593
0.0360354
0.0354669
0.0348587
0.0342002
0.0335128
0.0327704
0.032001
0.0312425
0.0304354
0.0296425
0.028857
0.0280352
0.0272085
0.0263845
0.0255434
0.0247579
0.0240376
0.0233946
0.0228356
0.0223409
0.0218633
0.0214055
0.0209535
0.0201548
0.0421342
0.042149
0.0422106
0.0423101
0.0423717
0.0423907
0.0423633
0.0422587
0.0421221
0.0420045
0.0419059
0.0418202
0.0417568
0.0417318
0.0417346
0.0417589
0.0417915
0.0418108
0.0418169
0.041817
0.0418114
0.0418067
0.0418044
0.0418019
0.0417963
0.0417844
0.0417648
0.0417378
0.0417051
0.0416688
0.0416305
0.0415909
0.0415509
0.0415109
0.0414717
0.0414338
0.0413978
0.0413639
0.0413325
0.0413036
0.0412773
0.0412536
0.0412323
0.0412133
0.0411967
0.0411822
0.0411701
0.0411603
0.0411526
0.0411467
0.0411427
0.0411403
0.0411395
0.0411403
0.0411426
0.0411463
0.0411513
0.0411575
0.0411645
0.0411722
0.0411803
0.0411885
0.0411967
0.0412045
0.041212
0.0412189
0.0412248
0.0412294
0.041232
0.0412325
0.04123
0.0412244
0.0412151
0.0412015
0.0411835
0.04116
0.0411302
0.041093
0.0410475
0.040993
0.0409288
0.0408535
0.040766
0.0406647
0.040548
0.0404145
0.0402622
0.0400898
0.0398946
0.0396754
0.0394291
0.039156
0.0388524
0.0385185
0.038147
0.0377384
0.037287
0.0367967
0.0362657
0.0356982
0.0350929
0.034436
0.0337447
0.0329791
0.0322085
0.0313954
0.0305539
0.0297354
0.0289292
0.0281168
0.027342
0.02654
0.0257365
0.0249496
0.024166
0.0234195
0.022746
0.0221157
0.0215772
0.0211162
0.0202764
0.0421335
0.0421423
0.0421901
0.0422882
0.0423674
0.0423986
0.0423819
0.0422981
0.0421666
0.0420496
0.0419536
0.041869
0.0417982
0.0417597
0.0417538
0.0417681
0.0417997
0.0418237
0.0418317
0.0418318
0.0418255
0.0418179
0.0418131
0.0418095
0.0418036
0.0417922
0.0417732
0.0417466
0.0417141
0.0416781
0.0416402
0.0416018
0.0415633
0.0415254
0.0414884
0.0414529
0.0414191
0.0413874
0.0413581
0.0413314
0.0413074
0.0412862
0.0412675
0.0412512
0.0412373
0.0412256
0.0412163
0.0412094
0.0412046
0.0412017
0.0412007
0.0412014
0.0412038
0.0412077
0.0412132
0.0412202
0.0412286
0.0412383
0.0412491
0.0412606
0.0412727
0.0412852
0.0412978
0.0413104
0.0413227
0.0413348
0.0413462
0.0413567
0.0413656
0.0413727
0.0413775
0.0413795
0.0413786
0.041374
0.0413657
0.0413524
0.0413338
0.0413088
0.0412765
0.0412362
0.0411872
0.0411285
0.041059
0.0409772
0.0408817
0.040771
0.0406432
0.0404969
0.0403299
0.0401407
0.0399264
0.0396859
0.0394155
0.0391155
0.038781
0.0384121
0.038003
0.0375562
0.037069
0.0365417
0.0359726
0.0353626
0.0347092
0.0340089
0.0332451
0.0324649
0.0316185
0.0307444
0.0298752
0.0289924
0.0281349
0.027324
0.0265327
0.0257957
0.0250473
0.024334
0.0236246
0.0229199
0.022221
0.0215871
0.0204935
0.0421332
0.0421379
0.0421719
0.0422625
0.0423577
0.042402
0.0423951
0.042336
0.0422137
0.0420956
0.0420004
0.0419182
0.0418444
0.0417942
0.0417787
0.0417849
0.0418106
0.0418384
0.0418502
0.0418514
0.0418464
0.0418372
0.0418299
0.0418244
0.0418178
0.0418066
0.0417882
0.0417622
0.0417302
0.0416944
0.0416569
0.041619
0.0415815
0.041545
0.0415098
0.0414764
0.0414446
0.041415
0.0413876
0.0413629
0.0413409
0.0413219
0.0413055
0.0412917
0.0412803
0.0412712
0.0412647
0.0412605
0.0412586
0.0412586
0.0412607
0.0412644
0.0412696
0.0412767
0.0412854
0.0412956
0.0413074
0.0413206
0.041335
0.0413503
0.0413664
0.0413831
0.0414001
0.0414172
0.0414344
0.0414514
0.0414682
0.0414844
0.0414995
0.0415132
0.041525
0.0415344
0.0415412
0.0415451
0.041546
0.0415426
0.0415348
0.0415214
0.0415015
0.0414745
0.0414396
0.0413963
0.0413433
0.0412795
0.0412033
0.0411135
0.0410084
0.0408866
0.040746
0.0405849
0.0404011
0.040194
0.0399605
0.0396994
0.0394046
0.0390754
0.0387074
0.0383033
0.0378608
0.0373786
0.0368522
0.0362804
0.0356624
0.0350018
0.034289
0.0335391
0.032744
0.0318995
0.031034
0.0301347
0.0291839
0.0282722
0.0273401
0.0264666
0.025641
0.0248921
0.0241956
0.0235307
0.0229004
0.022299
0.0211984
0.0421331
0.0421353
0.0421571
0.0422344
0.0423403
0.0424017
0.0424051
0.0423707
0.0422623
0.0421429
0.0420475
0.0419681
0.0418942
0.0418345
0.0418072
0.0418059
0.0418226
0.0418523
0.0418703
0.0418742
0.0418713
0.0418628
0.041854
0.0418469
0.0418394
0.0418281
0.0418102
0.0417849
0.0417535
0.0417182
0.041681
0.0416433
0.0416062
0.0415705
0.0415365
0.0415047
0.0414748
0.041447
0.0414215
0.0413984
0.0413782
0.0413609
0.0413466
0.041335
0.0413259
0.0413192
0.0413152
0.0413136
0.0413143
0.0413174
0.041322
0.0413286
0.0413369
0.0413469
0.0413587
0.0413721
0.0413871
0.0414037
0.0414216
0.0414406
0.0414606
0.0414813
0.0415025
0.041524
0.0415458
0.0415677
0.0415897
0.0416114
0.0416323
0.0416522
0.0416707
0.0416873
0.0417019
0.0417139
0.0417231
0.0417291
0.0417314
0.0417292
0.0417215
0.0417076
0.0416866
0.0416581
0.0416212
0.041575
0.041518
0.0414489
0.0413661
0.0412683
0.0411535
0.0410205
0.0408668
0.0406909
0.0404891
0.0402608
0.0400019
0.039713
0.0393898
0.0390324
0.0386352
0.0381956
0.0377107
0.037179
0.0365986
0.0359723
0.0353016
0.0345744
0.03381
0.0329951
0.0321482
0.0313088
0.0304113
0.0295094
0.028582
0.0276204
0.0266723
0.0257276
0.0248405
0.0239944
0.0232514
0.0226201
0.0214174
0.0421331
0.0421339
0.0421464
0.0422067
0.0423152
0.0423967
0.0424143
0.0423979
0.0423091
0.042192
0.0420962
0.0420185
0.0419457
0.0418792
0.0418383
0.0418286
0.0418371
0.0418648
0.0418896
0.0418981
0.0418979
0.0418923
0.041884
0.0418762
0.0418682
0.0418568
0.0418392
0.0418143
0.0417834
0.0417485
0.0417116
0.0416741
0.0416371
0.0416016
0.0415683
0.0415376
0.0415091
0.0414831
0.0414592
0.0414377
0.0414191
0.0414034
0.0413907
0.0413811
0.041374
0.0413695
0.0413678
0.0413686
0.041372
0.0413775
0.041385
0.0413944
0.0414056
0.0414186
0.0414333
0.0414498
0.041468
0.0414879
0.0415092
0.0415318
0.0415555
0.0415802
0.0416055
0.0416314
0.0416577
0.0416844
0.0417113
0.0417383
0.0417649
0.0417909
0.0418158
0.0418393
0.0418612
0.0418811
0.0418988
0.0419138
0.0419254
0.0419331
0.0419366
0.0419352
0.0419273
0.0419131
0.0418908
0.0418607
0.041821
0.0417709
0.0417086
0.041633
0.0415425
0.0414354
0.0413095
0.0411638
0.0409955
0.0408037
0.0405843
0.0403367
0.0400556
0.0397398
0.0393835
0.0389855
0.0385441
0.0380585
0.0375271
0.0369476
0.0363166
0.0356373
0.0349
0.0341048
0.03325
0.0323632
0.0314739
0.0305459
0.029646
0.028729
0.0278218
0.026939
0.026022
0.0251304
0.024227
0.0234025
0.0219088
0.042133
0.0421334
0.0421396
0.042182
0.0422843
0.042385
0.04242
0.0424164
0.0423536
0.0422441
0.0421463
0.0420679
0.0419969
0.0419271
0.0418739
0.0418542
0.0418556
0.0418764
0.0419063
0.0419223
0.0419256
0.0419236
0.0419176
0.0419104
0.0419024
0.0418911
0.0418738
0.0418494
0.0418189
0.0417844
0.0417479
0.0417107
0.0416738
0.0416383
0.0416052
0.041575
0.0415477
0.041523
0.0415006
0.0414807
0.0414634
0.0414491
0.041438
0.0414299
0.0414245
0.0414222
0.0414224
0.0414256
0.0414311
0.0414391
0.0414492
0.0414613
0.0414752
0.041491
0.0415086
0.0415281
0.0415494
0.0415724
0.041597
0.0416231
0.0416504
0.0416788
0.0417081
0.0417382
0.0417689
0.0418001
0.0418317
0.0418638
0.0418958
0.0419276
0.0419586
0.0419887
0.0420176
0.042045
0.0420706
0.042094
0.042115
0.0421328
0.0421467
0.0421561
0.0421608
0.0421606
0.042153
0.0421389
0.042116
0.0420843
0.042042
0.041988
0.0419206
0.0418387
0.0417401
0.0416236
0.0414861
0.0413266
0.0411416
0.0409308
0.0406895
0.0404157
0.0401043
0.0397547
0.039365
0.0389339
0.038458
0.0379334
0.0373552
0.0367266
0.0360428
0.0353017
0.0345017
0.0336176
0.0327118
0.0317312
0.0307358
0.0297152
0.0287195
0.0277594
0.0268147
0.0259376
0.0251059
0.0243367
0.0228699
0.042133
0.0421331
0.0421359
0.0421623
0.0422505
0.0423648
0.0424201
0.0424302
0.0423936
0.0422962
0.0421947
0.0421147
0.0420466
0.0419777
0.0419165
0.0418841
0.0418786
0.0418905
0.0419212
0.0419457
0.0419548
0.0419556
0.041953
0.0419477
0.0419405
0.0419299
0.0419132
0.0418891
0.0418588
0.0418246
0.0417884
0.0417516
0.0417149
0.0416795
0.0416463
0.0416164
0.0415897
0.0415661
0.0415451
0.0415267
0.0415107
0.0414976
0.0414878
0.0414811
0.0414773
0.0414766
0.041479
0.0414839
0.0414916
0.0415018
0.0415144
0.0415291
0.0415457
0.0415642
0.0415846
0.041607
0.0416312
0.0416573
0.0416851
0.0417145
0.0417454
0.0417775
0.0418107
0.0418448
0.0418797
0.0419153
0.0419516
0.0419885
0.0420257
0.042063
0.0421
0.0421364
0.0421719
0.0422064
0.0422396
0.0422712
0.0423007
0.0423278
0.0423519
0.0423725
0.0423884
0.0423996
0.0424056
0.0424065
0.0423993
0.0423848
0.0423606
0.0423264
0.0422806
0.042222
0.0421489
0.0420598
0.0419523
0.0418253
0.0416758
0.0415028
0.0413012
0.0410696
0.0408035
0.0405026
0.0401639
0.0397841
0.0393588
0.0388833
0.0383554
0.0377763
0.0371402
0.0364494
0.0357014
0.0348998
0.0340475
0.0331318
0.0321788
0.0311426
0.030092
0.0290049
0.0278919
0.0268255
0.0257957
0.024896
0.0231613
0.042133
0.0421331
0.0421341
0.0421486
0.042217
0.0423361
0.0424148
0.0424435
0.0424244
0.0423434
0.0422412
0.0421605
0.0420958
0.0420307
0.0419655
0.0419207
0.0419068
0.0419109
0.0419364
0.0419672
0.0419841
0.041989
0.0419891
0.0419867
0.0419812
0.0419716
0.0419556
0.041932
0.041902
0.041868
0.0418321
0.0417957
0.0417593
0.0417239
0.0416908
0.0416609
0.0416346
0.0416118
0.041592
0.041575
0.0415603
0.0415486
0.04154
0.0415344
0.0415322
0.0415328
0.0415369
0.0415436
0.0415532
0.0415655
0.0415804
0.0415974
0.0416165
0.0416376
0.0416607
0.0416858
0.0417129
0.0417419
0.0417727
0.0418053
0.0418395
0.0418751
0.041912
0.04195
0.0419889
0.0420287
0.0420694
0.0421109
0.0421531
0.0421956
0.0422382
0.0422805
0.0423224
0.0423637
0.042404
0.0424432
0.042481
0.0425169
0.0425505
0.0425811
0.0426084
0.0426318
0.0426504
0.042664
0.0426721
0.0426742
0.0426679
0.0426531
0.0426279
0.0425915
0.0425424
0.0424792
0.0423998
0.042303
0.0421856
0.0420468
0.0418825
0.0416919
0.0414707
0.0412172
0.0409268
0.0405951
0.0402185
0.039793
0.0393162
0.0387861
0.0381973
0.0375537
0.0368469
0.036079
0.0352478
0.0343618
0.0334062
0.032439
0.0314124
0.0304264
0.0293266
0.0282916
0.0271977
0.0261574
0.0241785
0.042133
0.042133
0.0421334
0.0421403
0.0421875
0.0423008
0.0424047
0.0424503
0.0424432
0.0423863
0.0422886
0.0422069
0.0421441
0.0420837
0.0420188
0.0419647
0.0419406
0.0419387
0.0419545
0.0419872
0.0420127
0.0420236
0.0420263
0.0420258
0.0420225
0.0420144
0.0419995
0.0419766
0.041947
0.0419132
0.0418776
0.0418415
0.0418056
0.0417705
0.0417374
0.0417075
0.0416815
0.0416593
0.0416404
0.0416246
0.0416114
0.041601
0.0415936
0.0415892
0.0415882
0.0415905
0.0415958
0.0416041
0.0416155
0.0416297
0.0416467
0.041666
0.0416875
0.0417111
0.0417367
0.0417645
0.0417942
0.0418261
0.0418598
0.0418955
0.0419329
0.0419719
0.0420123
0.042054
0.0420969
0.0421408
0.0421857
0.0422316
0.0422785
0.042326
0.0423739
0.0424219
0.0424698
0.0425175
0.0425646
0.042611
0.0426565
0.0427007
0.0427431
0.0427834
0.0428209
0.0428552
0.0428858
0.0429124
0.0429339
0.0429498
0.0429595
0.0429625
0.0429566
0.0429411
0.0429145
0.0428756
0.0428228
0.0427547
0.0426688
0.0425638
0.0424361
0.0422851
0.042106
0.0418968
0.0416522
0.041369
0.0410445
0.0406754
0.0402595
0.0397926
0.03927
0.0386905
0.0380433
0.0373327
0.0365494
0.0356936
0.0347591
0.0337681
0.032684
0.0315712
0.0304218
0.0293011
0.028229
0.0272694
0.0253961
0.042133
0.042133
0.0421331
0.042136
0.0421649
0.0422622
0.0423851
0.0424512
0.0424553
0.0424238
0.0423362
0.0422527
0.0421902
0.042135
0.0420742
0.0420158
0.041981
0.0419722
0.0419793
0.0420075
0.0420393
0.0420572
0.0420634
0.0420644
0.0420629
0.0420566
0.042043
0.0420211
0.0419921
0.0419586
0.0419234
0.0418877
0.0418523
0.0418177
0.0417849
0.0417552
0.0417294
0.0417076
0.0416896
0.0416749
0.041663
0.0416541
0.0416479
0.041645
0.041645
0.0416488
0.0416554
0.0416652
0.0416782
0.0416942
0.0417131
0.0417345
0.0417582
0.0417841
0.0418121
0.0418424
0.0418747
0.0419092
0.0419458
0.0419843
0.0420248
0.0420669
0.0421107
0.0421559
0.0422024
0.0422502
0.0422991
0.0423492
0.0424004
0.0424526
0.0425055
0.0425589
0.0426124
0.0426661
0.0427196
0.0427728
0.0428255
0.0428774
0.0429281
0.0429774
0.0430246
0.0430693
0.0431111
0.0431495
0.0431842
0.0432144
0.0432393
0.0432579
0.0432696
0.0432739
0.0432688
0.0432529
0.0432249
0.0431832
0.0431261
0.0430522
0.0429585
0.0428443
0.0427049
0.0425386
0.0423402
0.0421078
0.0418385
0.0415285
0.0411741
0.0407696
0.0403109
0.0397941
0.0392097
0.0385628
0.0378452
0.0370646
0.036211
0.0352665
0.0342853
0.0331538
0.0320374
0.0307635
0.0294702
0.0282769
0.0260293
0.042133
0.042133
0.0421331
0.0421341
0.0421497
0.0422252
0.042355
0.0424457
0.0424662
0.0424527
0.0423801
0.0422963
0.0422346
0.0421845
0.0421297
0.0420709
0.0420268
0.0420096
0.0420099
0.0420284
0.0420623
0.042088
0.0420991
0.042102
0.0421014
0.0420965
0.0420842
0.0420634
0.0420353
0.0420027
0.0419681
0.0419331
0.0418984
0.0418644
0.0418323
0.0418029
0.0417774
0.0417559
0.0417387
0.041725
0.0417144
0.0417069
0.0417021
0.0417006
0.0417022
0.0417071
0.0417151
0.0417263
0.0417408
0.0417584
0.0417791
0.0418024
0.0418282
0.0418563
0.0418866
0.0419192
0.0419541
0.0419911
0.0420303
0.0420716
0.042115
0.0421602
0.0422071
0.0422557
0.0423057
0.0423572
0.04241
0.0424641
0.0425195
0.0425761
0.0426338
0.0426921
0.042751
0.0428103
0.0428698
0.0429294
0.0429889
0.043048
0.0431064
0.0431639
0.04322
0.0432744
0.0433264
0.0433759
0.0434223
0.0434652
0.043504
0.0435379
0.0435658
0.0435869
0.0436004
0.0436058
0.0436015
0.0435851
0.0435557
0.0435112
0.0434498
0.0433701
0.0432682
0.0431427
0.0429891
0.0428055
0.0425878
0.0423317
0.0420324
0.0416838
0.0412818
0.0408218
0.0402977
0.0397107
0.0390481
0.0383167
0.0375084
0.0366234
0.0356564
0.0346287
0.0335103
0.0323847
0.0311601
0.0300058
0.0277638
0.042133
0.042133
0.042133
0.0421334
0.0421408
0.0421937
0.0423185
0.0424334
0.0424742
0.0424708
0.0424185
0.0423392
0.0422783
0.0422317
0.0421826
0.0421257
0.0420756
0.0420489
0.0420432
0.0420523
0.0420833
0.0421157
0.0421329
0.042138
0.042138
0.0421339
0.0421225
0.0421027
0.0420757
0.042044
0.0420104
0.0419763
0.0419425
0.0419095
0.0418782
0.0418495
0.0418246
0.0418037
0.0417872
0.0417743
0.041765
0.0417587
0.0417555
0.0417553
0.0417587
0.0417648
0.0417743
0.0417869
0.0418028
0.041822
0.0418443
0.0418695
0.0418973
0.0419274
0.0419599
0.0419947
0.0420319
0.0420713
0.042113
0.0421569
0.042203
0.0422511
0.042301
0.0423527
0.042406
0.0424609
0.0425173
0.0425751
0.0426345
0.0426952
0.0427572
0.0428203
0.0428841
0.0429486
0.0430137
0.0430792
0.0431449
0.0432107
0.0432763
0.0433415
0.0434058
0.043469
0.0435307
0.0435904
0.0436479
0.0437027
0.0437544
0.0438022
0.0438454
0.0438833
0.0439148
0.0439387
0.0439545
0.0439613
0.0439579
0.0439406
0.0439093
0.0438613
0.0437946
0.0437076
0.0435963
0.0434585
0.043289
0.0430839
0.042839
0.042549
0.0422106
0.0418182
0.0413668
0.0408528
0.0402645
0.0396049
0.03886
0.038034
0.0371102
0.0360897
0.0349623
0.0337991
0.0324359
0.0312321
0.0290349
0.042133
0.042133
0.042133
0.0421331
0.0421363
0.0421698
0.0422801
0.042414
0.0424752
0.0424831
0.0424524
0.0423813
0.0423195
0.0422745
0.0422302
0.0421771
0.0421249
0.0420904
0.0420787
0.0420812
0.0421044
0.0421407
0.0421644
0.0421728
0.0421734
0.0421694
0.0421581
0.0421389
0.0421127
0.0420821
0.0420495
0.0420165
0.0419839
0.0419522
0.0419221
0.0418944
0.0418703
0.0418501
0.0418343
0.0418223
0.0418143
0.0418091
0.0418074
0.0418088
0.0418137
0.0418214
0.0418324
0.0418465
0.0418638
0.0418845
0.0419084
0.0419354
0.041965
0.0419971
0.0420316
0.0420685
0.0421079
0.0421496
0.0421936
0.04224
0.0422887
0.0423395
0.0423922
0.0424469
0.0425033
0.0425615
0.0426213
0.0426827
0.0427457
0.0428103
0.0428764
0.0429439
0.0430123
0.0430818
0.043152
0.043223
0.0432946
0.0433666
0.0434388
0.043511
0.043583
0.0436543
0.0437247
0.0437938
0.0438613
0.0439269
0.0439901
0.0440505
0.0441074
0.04416
0.0442077
0.0442496
0.0442848
0.0443117
0.0443298
0.0443381
0.0443356
0.0443176
0.0442843
0.0442326
0.0441601
0.0440643
0.0439403
0.0437855
0.0435959
0.0433668
0.0430946
0.0427727
0.0423953
0.0419559
0.0414458
0.0408652
0.0401996
0.0394526
0.0386054
0.0376704
0.036626
0.0355257
0.0341975
0.032887
0.0305159
0.042133
0.042133
0.042133
0.0421331
0.0421343
0.0421538
0.0422438
0.0423877
0.0424705
0.0424958
0.04248
0.0424188
0.0423564
0.0423126
0.0422732
0.0422255
0.0421743
0.0421349
0.0421169
0.0421144
0.0421284
0.0421645
0.0421947
0.0422067
0.0422081
0.0422036
0.0421915
0.0421722
0.0421467
0.042117
0.0420855
0.0420536
0.0420223
0.041992
0.0419633
0.0419369
0.0419138
0.0418947
0.0418797
0.0418687
0.0418617
0.0418578
0.0418572
0.0418605
0.0418668
0.0418763
0.0418889
0.0419045
0.0419234
0.0419456
0.0419711
0.0419997
0.042031
0.042065
0.0421015
0.0421404
0.0421818
0.0422257
0.042272
0.0423207
0.0423717
0.042425
0.0424805
0.0425379
0.0425972
0.0426584
0.0427214
0.042786
0.0428525
0.0429207
0.0429906
0.043062
0.0431347
0.0432087
0.0432837
0.0433597
0.0434366
0.0435143
0.0435926
0.0436712
0.0437501
0.0438288
0.0439072
0.0439849
0.0440616
0.044137
0.0442109
0.0442829
0.0443523
0.0444186
0.044481
0.044539
0.0445916
0.0446381
0.0446773
0.0447074
0.044728
0.0447378
0.0447361
0.044717
0.0446812
0.0446242
0.0445438
0.0444371
0.0443001
0.0441279
0.0439158
0.043656
0.0433434
0.0429704
0.0425293
0.0420163
0.0414208
0.0407456
0.0399699
0.0390988
0.0381153
0.0370296
0.0358316
0.0346135
0.0325089
0.042133
0.042133
0.042133
0.042133
0.0421335
0.042144
0.0422127
0.0423567
0.0424635
0.0425061
0.0424987
0.0424503
0.04239
0.042348
0.0423133
0.0422712
0.0422226
0.0421809
0.0421571
0.0421503
0.0421572
0.042189
0.042224
0.0422398
0.0422421
0.0422368
0.0422235
0.0422035
0.0421782
0.0421493
0.0421186
0.0420878
0.0420578
0.042029
0.0420017
0.0419768
0.0419549
0.041937
0.041923
0.0419132
0.0419071
0.0419045
0.041905
0.0419101
0.0419178
0.041929
0.0419433
0.0419607
0.0419812
0.0420049
0.0420319
0.0420621
0.0420952
0.042131
0.0421693
0.0422101
0.0422535
0.0422994
0.0423478
0.0423987
0.042452
0.0425077
0.0425656
0.0426256
0.0426876
0.0427517
0.0428176
0.0428853
0.042955
0.0430265
0.0430999
0.0431751
0.0432518
0.0433299
0.0434093
0.04349
0.0435718
0.0436547
0.0437386
0.0438231
0.0439083
0.0439938
0.0440794
0.0441649
0.0442499
0.0443343
0.0444177
0.0445
0.0445806
0.044659
0.0447346
0.0448069
0.0448751
0.0449387
0.0449964
0.0450477
0.0450912
0.0451247
0.0451479
0.0451593
0.0451584
0.0451374
0.0450982
0.045035
0.0449459
0.0448253
0.0446689
0.0444699
0.044224
0.043923
0.0435605
0.0431299
0.0426204
0.0420297
0.0413403
0.0405523
0.0396279
0.0385872
0.0373881
0.0360854
0.034
0.042133
0.042133
0.042133
0.042133
0.0421332
0.0421387
0.0421885
0.0423247
0.0424547
0.0425119
0.0425107
0.0424769
0.0424211
0.0423813
0.0423509
0.0423137
0.0422682
0.0422261
0.0421984
0.042188
0.0421907
0.0422158
0.042253
0.0422723
0.0422754
0.0422694
0.0422544
0.0422333
0.0422078
0.0421793
0.0421493
0.0421195
0.0420907
0.0420633
0.0420375
0.042014
0.0419935
0.0419768
0.041964
0.0419555
0.0419504
0.041949
0.041951
0.0419573
0.0419666
0.0419795
0.0419955
0.0420146
0.0420368
0.0420621
0.0420908
0.0421226
0.0421574
0.0421948
0.0422349
0.0422775
0.0423228
0.0423706
0.042421
0.0424739
0.0425293
0.0425872
0.0426474
0.0427099
0.0427744
0.0428411
0.0429098
0.0429804
0.043053
0.0431276
0.0432042
0.0432827
0.043363
0.0434449
0.0435283
0.0436132
0.0436995
0.0437872
0.043876
0.0439659
0.0440567
0.0441483
0.0442404
0.0443328
0.0444253
0.0445177
0.0446098
0.0447013
0.0447919
0.0448812
0.0449687
0.0450539
0.0451363
0.0452151
0.0452897
0.0453592
0.0454226
0.045479
0.0455271
0.0455643
0.0455904
0.0456034
0.0456029
0.0455792
0.0455351
0.0454626
0.0453609
0.0452229
0.045045
0.0448181
0.0445365
0.0441909
0.0437707
0.0432697
0.0426728
0.0419719
0.0411436
0.0402073
0.0390966
0.0379096
0.0360159
0.042133
0.042133
0.042133
0.042133
0.0421331
0.042136
0.0421714
0.0422953
0.0424421
0.0425148
0.04252
0.042499
0.0424497
0.0424123
0.0423853
0.0423522
0.0423099
0.0422691
0.0422399
0.0422273
0.0422272
0.0422457
0.0422824
0.042304
0.0423076
0.0423004
0.0422834
0.042261
0.0422352
0.0422068
0.0421773
0.0421484
0.0421208
0.042095
0.0420707
0.0420487
0.0420295
0.0420141
0.0420027
0.0419955
0.0419916
0.0419912
0.0419949
0.0420022
0.042013
0.0420275
0.0420453
0.0420662
0.0420901
0.0421171
0.0421474
0.0421808
0.0422172
0.0422564
0.0422982
0.0423425
0.0423896
0.0424392
0.0424914
0.0425463
0.0426037
0.0426637
0.0427261
0.0427907
0.0428576
0.0429267
0.0429979
0.0430711
0.0431465
0.0432239
0.0433035
0.0433852
0.0434687
0.0435541
0.0436412
0.0437299
0.0438203
0.0439122
0.0440057
0.0441004
0.0441963
0.0442934
0.0443913
0.04449
0.0445893
0.0446888
0.0447886
0.0448883
0.0449878
0.0450868
0.0451847
0.0452813
0.045376
0.0454683
0.0455576
0.0456434
0.0457245
0.0458004
0.0458698
0.0459318
0.0459849
0.0460258
0.0460547
0.0460688
0.0460675
0.0460401
0.0459905
0.0459083
0.0457922
0.0456317
0.0454219
0.0451507
0.0448091
0.0443896
0.0438792
0.0432662
0.042529
0.0416494
0.0406055
0.0394149
0.0377001
0.042133
0.042133
0.042133
0.042133
0.0421331
0.0421347
0.04216
0.0422707
0.0424275
0.0425148
0.0425291
0.0425173
0.0424749
0.0424402
0.0424161
0.0423867
0.042348
0.0423097
0.0422813
0.0422675
0.0422654
0.0422784
0.042312
0.0423339
0.0423369
0.042328
0.042309
0.0422855
0.0422594
0.0422311
0.0422022
0.0421742
0.0421481
0.0421238
0.0421013
0.0420807
0.042063
0.0420489
0.042039
0.042033
0.0420306
0.0420314
0.0420366
0.042045
0.0420573
0.0420733
0.0420928
0.0421155
0.0421411
0.0421698
0.0422017
0.0422368
0.0422748
0.0423156
0.0423591
0.0424051
0.0424538
0.0425052
0.0425592
0.0426159
0.0426752
0.0427371
0.0428015
0.0428682
0.0429373
0.0430086
0.0430821
0.0431578
0.0432356
0.0433157
0.043398
0.0434825
0.043569
0.0436576
0.0437479
0.0438401
0.0439342
0.04403
0.0441274
0.0442265
0.044327
0.0444289
0.044532
0.0446362
0.0447414
0.0448473
0.0449538
0.0450608
0.0451681
0.0452756
0.0453827
0.0454892
0.0455948
0.045699
0.0458013
0.0459013
0.0459981
0.0460912
0.0461795
0.0462625
0.0463385
0.0464065
0.0464648
0.0465098
0.0465416
0.0465568
0.0465548
0.0465222
0.046463
0.0463638
0.0462241
0.0460299
0.0457752
0.0454482
0.0450338
0.0445198
0.0438798
0.0430856
0.0421404
0.0409829
0.0394297
0.042133
0.042133
0.042133
0.042133
0.0421331
0.042134
0.0421528
0.0422518
0.0424138
0.0425142
0.0425388
0.0425319
0.0424963
0.0424649
0.0424439
0.0424183
0.0423832
0.0423481
0.0423217
0.0423074
0.0423036
0.0423122
0.0423403
0.0423602
0.0423617
0.0423505
0.0423296
0.0423053
0.0422793
0.0422514
0.0422232
0.0421964
0.042172
0.0421496
0.0421288
0.0421099
0.0420938
0.0420811
0.0420728
0.0420681
0.0420671
0.0420696
0.0420761
0.0420857
0.0420993
0.0421168
0.042138
0.0421624
0.0421898
0.0422202
0.0422538
0.0422905
0.0423301
0.0423725
0.0424176
0.0424652
0.0425156
0.0425686
0.0426243
0.0426826
0.0427437
0.0428074
0.0428736
0.0429423
0.0430134
0.0430867
0.0431624
0.0432403
0.0433204
0.0434028
0.0434876
0.0435747
0.043664
0.0437553
0.0438487
0.043944
0.0440413
0.0441406
0.0442417
0.0443446
0.0444492
0.0445554
0.0446631
0.0447723
0.0448827
0.0449942
0.0451067
0.0452201
0.0453343
0.0454491
0.0455643
0.0456796
0.0457946
0.045909
0.0460226
0.0461348
0.0462452
0.0463531
0.046458
0.0465591
0.0466552
0.0467457
0.0468288
0.0469032
0.0469671
0.0470162
0.0470508
0.0470664
0.0470615
0.0470216
0.0469514
0.0468338
0.0466672
0.0464355
0.0461268
0.0457267
0.0451978
0.0445107
0.0436533
0.0425607
0.0411028
0.042133
0.042133
0.042133
0.042133
0.0421331
0.0421337
0.0421486
0.0422388
0.0424032
0.0425147
0.0425475
0.0425436
0.0425145
0.0424871
0.0424694
0.0424475
0.0424161
0.0423843
0.0423602
0.0423458
0.0423404
0.0423447
0.0423656
0.0423819
0.0423807
0.042367
0.0423444
0.0423198
0.0422941
0.0422669
0.0422398
0.0422146
0.042192
0.0421717
0.0421529
0.042136
0.0421216
0.0421107
0.0421039
0.0421009
0.0421012
0.0421057
0.0421133
0.0421243
0.0421394
0.0421583
0.042181
0.0422071
0.0422362
0.0422684
0.0423036
0.0423419
0.0423831
0.0424271
0.0424737
0.0425229
0.0425748
0.0426294
0.0426867
0.0427467
0.0428094
0.0428748
0.0429428
0.0430133
0.0430861
0.0431614
0.0432391
0.043319
0.0434013
0.0434859
0.0435729
0.0436623
0.043754
0.0438479
0.043944
0.0440421
0.0441424
0.0442447
0.0443491
0.0444555
0.0445637
0.0446737
0.0447855
0.0448989
0.0450139
0.0451304
0.0452481
0.0453671
0.0454873
0.0456085
0.0457307
0.0458534
0.0459766
0.0460999
0.0462232
0.046346
0.0464679
0.0465886
0.0467075
0.0468242
0.0469378
0.0470477
0.0471523
0.0472512
0.047342
0.0474236
0.0474937
0.0475479
0.0475857
0.0476018
0.0475934
0.0475437
0.0474553
0.0473076
0.0470953
0.0467972
0.0463732
0.0457947
0.0450217
0.0440124
0.0426543
0.042133
0.042133
0.042133
0.042133
0.042133
0.0421336
0.0421467
0.0422314
0.0423971
0.0425167
0.0425552
0.0425532
0.0425302
0.0425073
0.0424933
0.042475
0.0424468
0.0424182
0.0423964
0.0423815
0.0423743
0.0423744
0.0423866
0.0423981
0.0423944
0.0423778
0.0423537
0.0423289
0.0423036
0.0422775
0.0422517
0.0422284
0.0422079
0.0421899
0.0421735
0.0421588
0.0421464
0.0421375
0.0421324
0.042131
0.0421334
0.0421394
0.0421484
0.042161