/*--------------------------------*- C++ -*----------------------------------*\
| =========                 |                                                 |
| \\      /  F ield         | OpenFOAM: The Open Source CFD Toolbox           |
|  \\    /   O peration     | Version:  2412                                  |
|   \\  /    A nd           | Website:  www.openfoam.com                      |
|    \\/     M anipulation  |                                                 |
\*---------------------------------------------------------------------------*/
FoamFile
{
    version     2.0;
    format      ascii;
    arch        "LSB;label=32;scalar=64";
    class       volVectorField;
    location    "0.056";
    object      U;
}
// * * * * * * * * * * * * * * * * * * * * * * * * * * * * * * * * * * * * * //

dimensions      [0 1 -1 0 0 0 0];

internalField   nonuniform List<vector> 
78650
(
(209.921 0.0366333 0)
(209.548 0.160877 0)
(208.934 0.431798 0)
(208.537 0.649489 0)
(208.414 0.759592 0)
(208.616 0.796455 0)
(209.389 0.584827 0)
(210.473 0.295113 0)
(211.486 0.0884579 0)
(212.354 0.0562644 0)
(213.008 0.104384 0)
(213.383 0.234561 0)
(213.51 0.431967 0)
(213.547 0.666148 0)
(213.425 0.960784 0)
(213.255 1.25418 0)
(213.161 1.50823 0)
(213.135 1.73563 0)
(213.183 1.93559 0)
(213.232 2.15346 0)
(213.303 2.366 0)
(213.345 2.60387 0)
(213.398 2.86244 0)
(213.479 3.14794 0)
(213.601 3.43961 0)
(213.777 3.72622 0)
(214.006 4.00704 0)
(214.276 4.28176 0)
(214.577 4.55658 0)
(214.902 4.84055 0)
(215.249 5.14178 0)
(215.608 5.46652 0)
(215.974 5.8177 0)
(216.331 6.19427 0)
(216.682 6.59925 0)
(217.027 7.05277 0)
(217.35 7.54012 0)
(217.656 8.05988 0)
(217.939 8.61305 0)
(218.206 9.19886 0)
(218.447 9.8181 0)
(218.663 10.4707 0)
(218.862 11.1564 0)
(219.037 11.8753 0)
(219.182 12.6281 0)
(219.311 13.4139 0)
(219.42 14.2325 0)
(219.5 15.0837 0)
(219.552 15.9666 0)
(219.589 16.8804 0)
(219.612 17.825 0)
(219.615 18.8003 0)
(219.597 19.8064 0)
(219.561 20.8436 0)
(219.508 21.9116 0)
(219.438 23.011 0)
(219.355 24.1426 0)
(219.26 25.3064 0)
(219.153 26.5028 0)
(219.039 27.7319 0)
(218.92 28.9944 0)
(218.798 30.2909 0)
(218.676 31.6221 0)
(218.556 32.9895 0)
(218.441 34.3944 0)
(218.335 35.8388 0)
(218.24 37.3232 0)
(218.159 38.8474 0)
(218.105 40.4145 0)
(218.077 42.0244 0)
(218.076 43.6781 0)
(218.121 45.3791 0)
(218.204 47.1273 0)
(218.339 48.9253 0)
(218.533 50.7737 0)
(218.789 52.6717 0)
(219.131 54.62 0)
(219.554 56.6174 0)
(220.089 58.6655 0)
(220.722 60.7632 0)
(221.489 62.91 0)
(222.389 65.1031 0)
(223.444 67.3404 0)
(224.671 69.6189 0)
(226.081 71.9332 0)
(227.705 74.272 0)
(229.543 76.6267 0)
(231.65 78.9749 0)
(233.991 81.3178 0)
(236.671 83.6246 0)
(239.578 85.9331 0)
(242.919 88.141 0)
(246.494 90.3347 0)
(250.604 92.3132 0)
(254.939 94.2437 0)
(259.682 95.9129 0)
(264.819 97.3692 0)
(270.549 98.617 0)
(276.832 99.5853 0)
(283.333 100.172 0)
(290.115 100.476 0)
(296.813 100.515 0)
(303.433 100.325 0)
(310.331 99.6243 0)
(317.151 98.6283 0)
(324.701 97.1134 0)
(331.967 95.3495 0)
(339.414 93.2554 0)
(346.734 90.8234 0)
(353.077 88.538 0)
(359.442 86.1352 0)
(365.175 83.8354 0)
(370.178 81.8399 0)
(375.106 79.4936 0)
(378.585 77.3193 0)
(380.78 75.166 0)
(382.532 72.8574 0)
(385.01 71.5055 0)
(390.115 70.077 0)
(398.18 68.7967 0)
(401.15 72.7285 0)
(209.95 0.0212414 0)
(209.65 0.116885 0)
(209.047 0.369937 0)
(208.559 0.614451 0)
(208.366 0.736279 0)
(208.489 0.805901 0)
(209.113 0.64791 0)
(210.119 0.359649 0)
(211.122 0.134397 0)
(212.028 0.103551 0)
(212.775 0.167536 0)
(213.269 0.296592 0)
(213.469 0.488428 0)
(213.515 0.701274 0)
(213.431 0.986925 0)
(213.263 1.29253 0)
(213.151 1.55697 0)
(213.123 1.79258 0)
(213.185 2.0159 0)
(213.254 2.2639 0)
(213.354 2.49796 0)
(213.427 2.75658 0)
(213.5 3.03848 0)
(213.591 3.34106 0)
(213.714 3.64603 0)
(213.881 3.94423 0)
(214.092 4.22914 0)
(214.341 4.5014 0)
(214.616 4.76904 0)
(214.911 5.0422 0)
(215.221 5.32915 0)
(215.541 5.63524 0)
(215.868 5.96311 0)
(216.201 6.32812 0)
(216.536 6.73235 0)
(216.851 7.1739 0)
(217.151 7.64852 0)
(217.431 8.15396 0)
(217.686 8.69075 0)
(217.925 9.25917 0)
(218.137 9.86031 0)
(218.326 10.4942 0)
(218.498 11.1608 0)
(218.643 11.8604 0)
(218.761 12.5933 0)
(218.865 13.3589 0)
(218.946 14.1574 0)
(218.996 14.9883 0)
(219.021 15.8507 0)
(219.032 16.7439 0)
(219.028 17.6677 0)
(219.002 18.6219 0)
(218.955 19.6067 0)
(218.889 20.6222 0)
(218.805 21.6683 0)
(218.705 22.7452 0)
(218.59 23.8541 0)
(218.46 24.995 0)
(218.318 26.1681 0)
(218.166 27.3737 0)
(218.008 28.6125 0)
(217.844 29.885 0)
(217.678 31.1918 0)
(217.511 32.5344 0)
(217.345 33.9141 0)
(217.185 35.333 0)
(217.032 36.7921 0)
(216.889 38.2906 0)
(216.767 39.8322 0)
(216.665 41.4168 0)
(216.585 43.0453 0)
(216.544 44.7216 0)
(216.534 46.4456 0)
(216.569 48.2202 0)
(216.652 50.0467 0)
(216.789 51.9253 0)
(217 53.8574 0)
(217.281 55.8418 0)
(217.661 57.8807 0)
(218.127 59.9734 0)
(218.714 62.1229 0)
(219.418 64.3276 0)
(220.261 66.5856 0)
(221.258 68.8922 0)
(222.427 71.2413 0)
(223.795 73.6262 0)
(225.365 76.0444 0)
(227.185 78.4873 0)
(229.225 80.9582 0)
(231.589 83.4224 0)
(234.182 85.8818 0)
(237.179 88.255 0)
(240.372 90.6199 0)
(244.037 92.8587 0)
(247.909 95.0904 0)
(252.322 97.0731 0)
(257.044 98.8996 0)
(262.152 100.443 0)
(267.598 101.845 0)
(273.571 103.071 0)
(279.982 103.969 0)
(286.844 104.453 0)
(293.587 104.592 0)
(300.991 104.282 0)
(307.556 103.981 0)
(315.399 102.911 0)
(322.119 101.822 0)
(329.691 100.099 0)
(336.943 98.1138 0)
(343.846 95.892 0)
(350.825 93.438 0)
(357.324 90.9254 0)
(363.239 88.6244 0)
(369.245 86.0652 0)
(373.891 83.7983 0)
(377.285 81.5213 0)
(379.525 79.1065 0)
(381.613 77.5308 0)
(386.223 76.0239 0)
(394.872 74.5419 0)
(398.419 78.9587 0)
(209.971 0.0122697 0)
(209.743 0.0805021 0)
(209.176 0.305767 0)
(208.608 0.572382 0)
(208.332 0.719385 0)
(208.396 0.807834 0)
(208.868 0.696226 0)
(209.781 0.424002 0)
(210.76 0.184225 0)
(211.669 0.143313 0)
(212.457 0.203512 0)
(213.057 0.332969 0)
(213.366 0.525237 0)
(213.462 0.741309 0)
(213.413 1.00139 0)
(213.237 1.30143 0)
(213.111 1.58 0)
(213.085 1.83539 0)
(213.143 2.07073 0)
(213.206 2.32895 0)
(213.307 2.56952 0)
(213.388 2.84025 0)
(213.468 3.13704 0)
(213.563 3.45174 0)
(213.686 3.77022 0)
(213.847 4.07803 0)
(214.048 4.36776 0)
(214.285 4.64092 0)
(214.546 4.90616 0)
(214.824 5.17382 0)
(215.114 5.45376 0)
(215.418 5.75517 0)
(215.732 6.08556 0)
(216.046 6.4481 0)
(216.358 6.84591 0)
(216.65 7.27538 0)
(216.928 7.73445 0)
(217.182 8.22467 0)
(217.414 8.74592 0)
(217.627 9.29831 0)
(217.812 9.88292 0)
(217.975 10.4999 0)
(218.121 11.1494 0)
(218.238 11.8315 0)
(218.331 12.5466 0)
(218.41 13.294 0)
(218.463 14.0742 0)
(218.484 14.8867 0)
(218.482 15.7306 0)
(218.466 16.605 0)
(218.434 17.5098 0)
(218.379 18.4448 0)
(218.302 19.41 0)
(218.206 20.4059 0)
(218.091 21.4326 0)
(217.959 22.4894 0)
(217.81 23.5781 0)
(217.645 24.6985 0)
(217.467 25.851 0)
(217.277 27.0359 0)
(217.078 28.2538 0)
(216.871 29.5049 0)
(216.66 30.7901 0)
(216.445 32.1108 0)
(216.229 33.468 0)
(216.016 34.8633 0)
(215.804 36.2998 0)
(215.601 37.7747 0)
(215.412 39.2926 0)
(215.237 40.8539 0)
(215.082 42.4581 0)
(214.958 44.1102 0)
(214.859 45.8097 0)
(214.799 47.5596 0)
(214.779 49.3616 0)
(214.805 51.2162 0)
(214.895 53.1253 0)
(215.044 55.0875 0)
(215.282 57.1056 0)
(215.594 59.1786 0)
(216.015 61.3102 0)
(216.538 63.4986 0)
(217.185 65.7427 0)
(217.97 68.0403 0)
(218.907 70.3897 0)
(220.02 72.789 0)
(221.312 75.236 0)
(222.826 77.7201 0)
(224.542 80.2353 0)
(226.548 82.7586 0)
(228.764 85.3 0)
(231.355 87.8231 0)
(234.155 90.379 0)
(237.436 92.8515 0)
(240.942 95.2837 0)
(244.946 97.4891 0)
(249.194 99.6552 0)
(253.958 101.663 0)
(259.147 103.535 0)
(264.76 105.139 0)
(270.734 106.463 0)
(277.211 107.46 0)
(283.783 108.038 0)
(290.964 108.295 0)
(298.077 108.193 0)
(305.279 107.853 0)
(312.963 107.031 0)
(319.99 106.022 0)
(327.456 104.537 0)
(334.567 102.753 0)
(341.498 100.743 0)
(348.505 98.4257 0)
(354.836 96.2767 0)
(361.583 93.6431 0)
(366.781 91.1818 0)
(370.753 88.6291 0)
(373.597 85.8352 0)
(376.131 84.0956 0)
(381.544 82.7891 0)
(391.362 81.4294 0)
(395.375 86.4862 0)
(209.984 0.00618398 0)
(209.823 0.0512573 0)
(209.315 0.23997 0)
(208.685 0.519133 0)
(208.311 0.706579 0)
(208.323 0.783295 0)
(208.647 0.728408 0)
(209.464 0.501015 0)
(210.426 0.261625 0)
(211.319 0.2024 0)
(212.102 0.245302 0)
(212.759 0.363201 0)
(213.19 0.538609 0)
(213.354 0.770667 0)
(213.366 1.00796 0)
(213.201 1.29701 0)
(213.049 1.58789 0)
(213.006 1.85964 0)
(213.062 2.11267 0)
(213.128 2.38757 0)
(213.234 2.63899 0)
(213.318 2.9137 0)
(213.395 3.21278 0)
(213.484 3.53143 0)
(213.601 3.85695 0)
(213.756 4.17366 0)
(213.952 4.47232 0)
(214.184 4.75248 0)
(214.44 5.02263 0)
(214.712 5.29394 0)
(214.994 5.57651 0)
(215.283 5.8787 0)
(215.578 6.20667 0)
(215.87 6.56328 0)
(216.157 6.94847 0)
(216.427 7.3653 0)
(216.683 7.81177 0)
(216.914 8.28809 0)
(217.122 8.79417 0)
(217.311 9.3305 0)
(217.471 9.89809 0)
(217.609 10.4973 0)
(217.729 11.1283 0)
(217.819 11.7916 0)
(217.887 12.4872 0)
(217.942 13.2147 0)
(217.967 13.9748 0)
(217.96 14.7671 0)
(217.933 15.5904 0)
(217.892 16.444 0)
(217.833 17.3279 0)
(217.75 18.2418 0)
(217.646 19.1857 0)
(217.521 20.1597 0)
(217.377 21.1643 0)
(217.216 22.197 0)
(217.036 23.2634 0)
(216.839 24.3607 0)
(216.627 25.4895 0)
(216.402 26.6504 0)
(216.165 27.8436 0)
(215.919 29.0697 0)
(215.666 30.3295 0)
(215.407 31.6242 0)
(215.145 32.955 0)
(214.883 34.323 0)
(214.615 35.7338 0)
(214.355 37.1799 0)
(214.105 38.6682 0)
(213.862 40.2013 0)
(213.635 41.7766 0)
(213.432 43.3999 0)
(213.247 45.071 0)
(213.096 46.792 0)
(212.976 48.5656 0)
(212.894 50.3924 0)
(212.864 52.2759 0)
(212.884 54.2146 0)
(212.98 56.2123 0)
(213.139 58.2676 0)
(213.394 60.3857 0)
(213.736 62.5656 0)
(214.187 64.809 0)
(214.76 67.1155 0)
(215.467 69.4839 0)
(216.333 71.9108 0)
(217.364 74.3917 0)
(218.6 76.9218 0)
(220.023 79.5019 0)
(221.715 82.1174 0)
(223.611 84.7644 0)
(225.861 87.4065 0)
(228.304 90.0719 0)
(231.174 92.6818 0)
(234.235 95.2846 0)
(237.813 97.771 0)
(241.659 100.254 0)
(246.009 102.561 0)
(250.67 104.753 0)
(255.787 106.71 0)
(261.385 108.436 0)
(267.362 109.859 0)
(273.945 111.031 0)
(280.432 111.883 0)
(288.122 112.401 0)
(294.776 112.564 0)
(303.233 112.235 0)
(310.366 111.719 0)
(318.324 110.655 0)
(326.087 109.225 0)
(333.041 107.737 0)
(340.59 105.694 0)
(347.368 103.764 0)
(354.366 101.362 0)
(360.482 99.0993 0)
(366.291 95.9314 0)
(369.712 92.8398 0)
(372.374 89.8322 0)
(376.911 88.5771 0)
(387.174 87.3493 0)
(390.77 93.8891 0)
(209.992 0.00286113 0)
(209.887 0.0298201 0)
(209.458 0.177099 0)
(208.793 0.455197 0)
(208.313 0.672607 0)
(208.266 0.747768 0)
(208.453 0.745516 0)
(209.163 0.587769 0)
(210.105 0.351002 0)
(210.98 0.264628 0)
(211.736 0.279968 0)
(212.406 0.379054 0)
(212.931 0.535627 0)
(213.184 0.765723 0)
(213.257 0.999203 0)
(213.145 1.28446 0)
(212.969 1.58853 0)
(212.9 1.87577 0)
(212.946 2.14544 0)
(213.012 2.43483 0)
(213.122 2.70079 0)
(213.219 2.98304 0)
(213.3 3.28807 0)
(213.387 3.61241 0)
(213.496 3.94438 0)
(213.642 4.26781 0)
(213.829 4.57263 0)
(214.053 4.85762 0)
(214.303 5.13058 0)
(214.566 5.4027 0)
(214.837 5.68438 0)
(215.112 5.98292 0)
(215.386 6.30335 0)
(215.657 6.65015 0)
(215.922 7.02437 0)
(216.17 7.42792 0)
(216.404 7.86074 0)
(216.615 8.32348 0)
(216.803 8.81545 0)
(216.97 9.33712 0)
(217.107 9.88928 0)
(217.223 10.4723 0)
(217.317 11.0867 0)
(217.381 11.7327 0)
(217.427 12.4104 0)
(217.456 13.1195 0)
(217.452 13.8609 0)
(217.419 14.6343 0)
(217.367 15.4383 0)
(217.301 16.2723 0)
(217.213 17.1371 0)
(217.101 18.031 0)
(216.969 18.9538 0)
(216.815 19.9063 0)
(216.641 20.89 0)
(216.447 21.9042 0)
(216.236 22.9483 0)
(216.006 24.0235 0)
(215.759 25.1301 0)
(215.497 26.2684 0)
(215.222 27.4389 0)
(214.935 28.642 0)
(214.639 29.8785 0)
(214.335 31.1492 0)
(214.025 32.4557 0)
(213.71 33.8002 0)
(213.392 35.1816 0)
(213.075 36.6029 0)
(212.762 38.0646 0)
(212.451 39.5735 0)
(212.154 41.12 0)
(211.874 42.7133 0)
(211.607 44.3562 0)
(211.369 46.0477 0)
(211.154 47.7925 0)
(210.971 49.5894 0)
(210.831 51.4431 0)
(210.731 53.352 0)
(210.697 55.3203 0)
(210.716 57.3461 0)
(210.821 59.4355 0)
(210.999 61.5874 0)
(211.273 63.8046 0)
(211.651 66.0868 0)
(212.148 68.4331 0)
(212.784 70.8433 0)
(213.564 73.317 0)
(214.524 75.8532 0)
(215.65 78.448 0)
(217.015 81.0911 0)
(218.561 83.7842 0)
(220.424 86.5168 0)
(222.47 89.3012 0)
(224.931 92.0699 0)
(227.593 94.8476 0)
(230.752 97.5664 0)
(234.157 100.311 0)
(238.08 102.928 0)
(242.321 105.451 0)
(247.014 107.761 0)
(252.095 109.902 0)
(257.677 111.798 0)
(263.765 113.507 0)
(270.042 114.876 0)
(277.009 115.992 0)
(284.137 116.602 0)
(291.494 116.911 0)
(299.473 116.831 0)
(307.018 116.402 0)
(315.322 115.436 0)
(322.653 114.341 0)
(330.891 112.61 0)
(337.865 111.065 0)
(345.159 108.887 0)
(351.158 107.128 0)
(357.083 104.531 0)
(361.147 101.912 0)
(364.962 99.6917 0)
(371.284 97.4675 0)
(382.188 95.5244 0)
(386.45 100.793 0)
(209.996 0.0011363 0)
(209.934 0.0154657 0)
(209.598 0.120653 0)
(208.93 0.378866 0)
(208.343 0.621118 0)
(208.223 0.711469 0)
(208.292 0.76203 0)
(208.875 0.673964 0)
(209.784 0.441522 0)
(210.647 0.329731 0)
(211.377 0.323485 0)
(212.033 0.410819 0)
(212.609 0.548673 0)
(212.965 0.750757 0)
(213.083 0.996808 0)
(213.047 1.26174 0)
(212.872 1.56796 0)
(212.766 1.87036 0)
(212.788 2.15635 0)
(212.85 2.4546 0)
(212.953 2.7369 0)
(213.064 3.02919 0)
(213.156 3.3437 0)
(213.246 3.67573 0)
(213.351 4.01522 0)
(213.488 4.34577 0)
(213.666 4.65641 0)
(213.881 4.94574 0)
(214.124 5.22138 0)
(214.381 5.49426 0)
(214.642 5.77441 0)
(214.904 6.06848 0)
(215.161 6.38152 0)
(215.412 6.71802 0)
(215.655 7.08121 0)
(215.882 7.47351 0)
(216.096 7.89434 0)
(216.286 8.34436 0)
(216.455 8.82278 0)
(216.601 9.33009 0)
(216.717 9.86681 0)
(216.813 10.4335 0)
(216.883 11.0306 0)
(216.922 11.6588 0)
(216.947 12.3176 0)
(216.951 13.0073 0)
(216.919 13.7288 0)
(216.86 14.4816 0)
(216.787 15.2653 0)
(216.696 16.0781 0)
(216.58 16.921 0)
(216.442 17.791 0)
(216.282 18.6934 0)
(216.1 19.6247 0)
(215.898 20.5848 0)
(215.677 21.5744 0)
(215.435 22.5942 0)
(215.175 23.6448 0)
(214.896 24.7263 0)
(214.6 25.8392 0)
(214.29 26.9837 0)
(213.966 28.1603 0)
(213.63 29.3695 0)
(213.285 30.6125 0)
(212.93 31.8905 0)
(212.569 33.2049 0)
(212.201 34.5576 0)
(211.829 35.9492 0)
(211.457 37.3819 0)
(211.089 38.8546 0)
(210.727 40.3702 0)
(210.374 41.9315 0)
(210.025 43.5443 0)
(209.704 45.1997 0)
(209.397 46.9107 0)
(209.117 48.6734 0)
(208.87 50.4945 0)
(208.653 52.3718 0)
(208.491 54.3101 0)
(208.37 56.3076 0)
(208.323 58.3712 0)
(208.336 60.5 0)
(208.433 62.6982 0)
(208.618 64.967 0)
(208.905 67.307 0)
(209.313 69.7195 0)
(209.849 72.2031 0)
(210.546 74.7573 0)
(211.392 77.3804 0)
(212.454 80.0705 0)
(213.683 82.8243 0)
(215.206 85.6241 0)
(216.903 88.4636 0)
(218.978 91.3117 0)
(221.224 94.2106 0)
(223.932 97.1139 0)
(226.858 100.032 0)
(230.279 102.83 0)
(233.996 105.572 0)
(238.206 108.2 0)
(242.814 110.771 0)
(247.909 113.191 0)
(253.495 115.435 0)
(259.719 117.399 0)
(266.014 118.896 0)
(273.419 120.252 0)
(280.062 121.139 0)
(288.437 121.719 0)
(295.684 121.867 0)
(304.135 121.51 0)
(312.253 120.761 0)
(320.33 119.657 0)
(328.731 118.061 0)
(336.826 116.074 0)
(344.309 113.876 0)
(350.703 111.553 0)
(354.962 109.017 0)
(358.013 106.997 0)
(363.383 105.669 0)
(375.057 103.884 0)
(379.039 110.64 0)
(209.999 0.000393511 0)
(209.965 0.007018 0)
(209.725 0.0746168 0)
(209.099 0.296018 0)
(208.419 0.555984 0)
(208.194 0.682556 0)
(208.169 0.771751 0)
(208.597 0.73561 0)
(209.445 0.519047 0)
(210.307 0.38917 0)
(211.022 0.364447 0)
(211.656 0.438935 0)
(212.252 0.559776 0)
(212.698 0.728478 0)
(212.875 0.968715 0)
(212.902 1.21728 0)
(212.766 1.52009 0)
(212.619 1.84344 0)
(212.602 2.15047 0)
(212.654 2.45308 0)
(212.738 2.75188 0)
(212.854 3.05348 0)
(212.958 3.37684 0)
(213.055 3.71707 0)
(213.159 4.06356 0)
(213.289 4.4003 0)
(213.456 4.71519 0)
(213.661 5.00647 0)
(213.893 5.2818 0)
(214.142 5.55252 0)
(214.394 5.82908 0)
(214.647 6.11813 0)
(214.892 6.42479 0)
(215.128 6.75308 0)
(215.352 7.10626 0)
(215.56 7.48724 0)
(215.754 7.89628 0)
(215.924 8.33412 0)
(216.076 8.79988 0)
(216.203 9.29393 0)
(216.301 9.81653 0)
(216.378 10.3681 0)
(216.425 10.9494 0)
(216.442 11.561 0)
(216.447 12.2022 0)
(216.425 12.8737 0)
(216.365 13.5765 0)
(216.285 14.31 0)
(216.188 15.074 0)
(216.072 15.8632 0)
(215.927 16.6876 0)
(215.76 17.5397 0)
(215.573 18.4196 0)
(215.365 19.3284 0)
(215.134 20.2664 0)
(214.882 21.234 0)
(214.609 22.2313 0)
(214.316 23.2587 0)
(214.004 24.3166 0)
(213.673 25.4054 0)
(213.326 26.5254 0)
(212.963 27.6771 0)
(212.587 28.861 0)
(212.198 30.0781 0)
(211.799 31.3295 0)
(211.389 32.6167 0)
(210.971 33.9409 0)
(210.546 35.3033 0)
(210.117 36.7054 0)
(209.686 38.1492 0)
(209.256 39.6358 0)
(208.831 41.1669 0)
(208.416 42.7412 0)
(208.014 44.3643 0)
(207.614 46.0453 0)
(207.243 47.7708 0)
(206.895 49.5541 0)
(206.57 51.3945 0)
(206.29 53.2956 0)
(206.043 55.2563 0)
(205.86 57.2821 0)
(205.725 59.3722 0)
(205.663 61.5317 0)
(205.674 63.7625 0)
(205.772 66.0658 0)
(205.973 68.4438 0)
(206.284 70.8968 0)
(206.732 73.4272 0)
(207.309 76.0331 0)
(208.075 78.7152 0)
(208.987 81.4709 0)
(210.156 84.2989 0)
(211.477 87.1981 0)
(213.146 90.1581 0)
(214.979 93.1922 0)
(217.25 96.247 0)
(219.727 99.3136 0)
(222.696 102.319 0)
(225.953 105.333 0)
(229.704 108.312 0)
(233.834 111.27 0)
(238.435 114.093 0)
(243.46 116.755 0)
(248.975 119.148 0)
(255.107 121.284 0)
(261.651 123.114 0)
(268.67 124.628 0)
(276.064 125.791 0)
(283.83 126.607 0)
(291.762 126.94 0)
(300.032 126.865 0)
(307.92 126.381 0)
(316.506 125.463 0)
(324.819 124.163 0)
(332.801 122.702 0)
(342.056 119.841 0)
(347.506 116.689 0)
(352.072 113.001 0)
(357.689 111.466 0)
(370.071 110.331 0)
(373.498 119.253 0)
(210 0.000112405 0)
(209.984 0.00269282 0)
(209.828 0.0409364 0)
(209.288 0.214101 0)
(208.539 0.478307 0)
(208.176 0.660118 0)
(208.074 0.750075 0)
(208.344 0.766962 0)
(209.104 0.593639 0)
(209.961 0.454995 0)
(210.668 0.40569 0)
(211.28 0.467904 0)
(211.874 0.582745 0)
(212.383 0.730623 0)
(212.643 0.951605 0)
(212.706 1.20101 0)
(212.635 1.49087 0)
(212.471 1.81991 0)
(212.404 2.13774 0)
(212.434 2.44133 0)
(212.494 2.74899 0)
(212.598 3.05633 0)
(212.707 3.38231 0)
(212.808 3.72613 0)
(212.912 4.07732 0)
(213.037 4.41968 0)
(213.195 4.73913 0)
(213.39 5.03291 0)
(213.613 5.30863 0)
(213.853 5.57811 0)
(214.098 5.85227 0)
(214.343 6.13767 0)
(214.58 6.43923 0)
(214.805 6.7608 0)
(215.014 7.10599 0)
(215.205 7.47759 0)
(215.38 7.8763 0)
(215.532 8.30294 0)
(215.667 8.75672 0)
(215.775 9.23798 0)
(215.856 9.74676 0)
(215.915 10.2836 0)
(215.94 10.8491 0)
(215.94 11.4439 0)
(215.926 12.0674 0)
(215.875 12.7206 0)
(215.792 13.4044 0)
(215.693 14.1163 0)
(215.577 14.8556 0)
(215.428 15.6304 0)
(215.259 16.4311 0)
(215.068 17.2597 0)
(214.856 18.1166 0)
(214.62 19.0022 0)
(214.362 19.9164 0)
(214.082 20.8593 0)
(213.781 21.8312 0)
(213.459 22.8325 0)
(213.116 23.8638 0)
(212.754 24.9255 0)
(212.373 26.0178 0)
(211.975 27.1413 0)
(211.561 28.2963 0)
(211.133 29.4837 0)
(210.693 30.7046 0)
(210.24 31.9604 0)
(209.775 33.2525 0)
(209.301 34.5823 0)
(208.818 35.9511 0)
(208.331 37.3599 0)
(207.841 38.8102 0)
(207.351 40.3042 0)
(206.863 41.8444 0)
(206.379 43.4332 0)
(205.907 45.069 0)
(205.448 46.7568 0)
(205 48.5027 0)
(204.569 50.3054 0)
(204.174 52.1644 0)
(203.799 54.087 0)
(203.482 56.0753 0)
(203.198 58.131 0)
(202.977 60.2569 0)
(202.812 62.4572 0)
(202.721 64.7334 0)
(202.716 67.0893 0)
(202.804 69.5253 0)
(203.01 72.0444 0)
(203.331 74.6454 0)
(203.815 77.3339 0)
(204.428 80.1059 0)
(205.27 82.9596 0)
(206.255 85.8838 0)
(207.555 88.8792 0)
(208.996 91.9487 0)
(210.832 95.0614 0)
(212.844 98.2141 0)
(215.323 101.386 0)
(218.062 104.627 0)
(221.281 107.879 0)
(224.871 111.122 0)
(228.944 114.253 0)
(233.454 117.266 0)
(238.479 120.113 0)
(243.989 122.788 0)
(250.07 125.187 0)
(256.9 127.428 0)
(263.695 129.11 0)
(271.839 130.732 0)
(279.352 131.71 0)
(287.909 132.397 0)
(296.356 132.521 0)
(304.809 132.271 0)
(313.261 131.537 0)
(321.089 130.79 0)
(329.584 129.077 0)
(335.783 127.042 0)
(341.32 124.473 0)
(348.143 122.19 0)
(361.02 120.019 0)
(365.049 127.089 0)
(210 2.57247e-05 0)
(209.993 0.000832085 0)
(209.903 0.0194582 0)
(209.478 0.140521 0)
(208.715 0.394415 0)
(208.192 0.618137 0)
(208.001 0.706534 0)
(208.141 0.773818 0)
(208.773 0.666986 0)
(209.601 0.515139 0)
(210.303 0.429678 0)
(210.9 0.480903 0)
(211.481 0.598691 0)
(212.03 0.74086 0)
(212.387 0.94016 0)
(212.491 1.19475 0)
(212.487 1.45985 0)
(212.336 1.78322 0)
(212.21 2.11348 0)
(212.202 2.4234 0)
(212.238 2.73527 0)
(212.314 3.04292 0)
(212.415 3.36775 0)
(212.517 3.71228 0)
(212.62 4.06509 0)
(212.74 4.41008 0)
(212.89 4.73189 0)
(213.075 5.02657 0)
(213.288 5.3013 0)
(213.519 5.56822 0)
(213.757 5.83899 0)
(213.995 6.12044 0)
(214.225 6.41735 0)
(214.443 6.73298 0)
(214.641 7.07102 0)
(214.819 7.43413 0)
(214.977 7.82338 0)
(215.111 8.23961 0)
(215.229 8.68218 0)
(215.319 9.1514 0)
(215.386 9.64717 0)
(215.428 10.17 0)
(215.433 10.7207 0)
(215.419 11.2996 0)
(215.384 11.9063 0)
(215.305 12.5426 0)
(215.204 13.206 0)
(215.09 13.8955 0)
(214.942 14.6207 0)
(214.771 15.3721 0)
(214.577 16.1518 0)
(214.36 16.9592 0)
(214.121 17.7943 0)
(213.859 18.6572 0)
(213.573 19.5482 0)
(213.265 20.4675 0)
(212.934 21.4154 0)
(212.581 22.3922 0)
(212.207 23.3984 0)
(211.811 24.4344 0)
(211.395 25.5005 0)
(210.96 26.5972 0)
(210.508 27.7249 0)
(210.039 28.8843 0)
(209.556 30.0765 0)
(209.058 31.3027 0)
(208.546 32.5642 0)
(208.021 33.8625 0)
(207.486 35.1987 0)
(206.942 36.5744 0)
(206.391 37.991 0)
(205.836 39.45 0)
(205.279 40.9532 0)
(204.723 42.5026 0)
(204.17 44.1017 0)
(203.623 45.7524 0)
(203.087 47.4553 0)
(202.567 49.2117 0)
(202.066 51.0274 0)
(201.571 52.9107 0)
(201.133 54.8479 0)
(200.711 56.8565 0)
(200.352 58.9328 0)
(200.031 61.0845 0)
(199.774 63.3105 0)
(199.585 65.6166 0)
(199.474 68.0036 0)
(199.46 70.4769 0)
(199.541 73.0365 0)
(199.76 75.6889 0)
(200.088 78.4295 0)
(200.613 81.2664 0)
(201.256 84.1947 0)
(202.175 87.2259 0)
(203.217 90.3457 0)
(204.627 93.5404 0)
(206.195 96.8097 0)
(208.207 100.154 0)
(210.447 103.579 0)
(213.148 107.011 0)
(216.179 110.423 0)
(219.668 113.772 0)
(223.591 117.082 0)
(228.016 120.308 0)
(232.913 123.473 0)
(238.398 126.474 0)
(244.383 129.226 0)
(251.073 131.688 0)
(258.373 133.813 0)
(265.818 135.484 0)
(274.481 136.906 0)
(282.496 137.758 0)
(291.897 138.181 0)
(300.964 137.977 0)
(310.324 137.218 0)
(319.256 136.057 0)
(325.985 134.447 0)
(331.209 132.216 0)
(336.958 131.087 0)
(350.914 129.239 0)
(354.653 138.366 0)
(210 4.13112e-06 0)
(209.998 0.000184638 0)
(209.952 0.0077191 0)
(209.65 0.0821348 0)
(208.925 0.301703 0)
(208.26 0.555644 0)
(207.944 0.663578 0)
(207.993 0.776859 0)
(208.463 0.718675 0)
(209.229 0.558346 0)
(209.935 0.450443 0)
(210.528 0.504122 0)
(211.09 0.630638 0)
(211.65 0.775931 0)
(212.088 0.95188 0)
(212.259 1.19468 0)
(212.3 1.44632 0)
(212.202 1.75624 0)
(212.033 2.08931 0)
(211.963 2.40295 0)
(211.974 2.70502 0)
(212.018 3.01655 0)
(212.099 3.33793 0)
(212.192 3.67816 0)
(212.291 4.02883 0)
(212.404 4.37412 0)
(212.546 4.69684 0)
(212.722 4.99136 0)
(212.927 5.26452 0)
(213.149 5.52877 0)
(213.378 5.79618 0)
(213.609 6.0738 0)
(213.832 6.36623 0)
(214.044 6.67643 0)
(214.233 7.00803 0)
(214.401 7.36354 0)
(214.544 7.74421 0)
(214.663 8.15086 0)
(214.764 8.58295 0)
(214.836 9.04076 0)
(214.889 9.52409 0)
(214.914 10.0335 0)
(214.903 10.5699 0)
(214.877 11.1332 0)
(214.817 11.7241 0)
(214.715 12.3422 0)
(214.606 12.9815 0)
(214.464 13.6585 0)
(214.295 14.3608 0)
(214.101 15.0914 0)
(213.883 15.8492 0)
(213.642 16.6339 0)
(213.378 17.4455 0)
(213.091 18.2843 0)
(212.78 19.1505 0)
(212.445 20.0443 0)
(212.087 20.9659 0)
(211.706 21.9157 0)
(211.303 22.8941 0)
(210.877 23.9016 0)
(210.429 24.9385 0)
(209.962 26.0053 0)
(209.475 27.1023 0)
(208.97 28.2303 0)
(208.448 29.3901 0)
(207.909 30.5829 0)
(207.355 31.81 0)
(206.785 33.0729 0)
(206.201 34.3729 0)
(205.605 35.7112 0)
(204.999 37.0893 0)
(204.385 38.5087 0)
(203.764 39.9715 0)
(203.139 41.4797 0)
(202.512 43.0353 0)
(201.886 44.6408 0)
(201.264 46.2992 0)
(200.647 48.0134 0)
(200.04 49.7855 0)
(199.453 51.613 0)
(198.894 53.5034 0)
(198.325 55.4753 0)
(197.829 57.499 0)
(197.348 59.6049 0)
(196.927 61.786 0)
(196.553 64.0514 0)
(196.244 66.3996 0)
(196.012 68.8367 0)
(195.861 71.3625 0)
(195.826 73.9855 0)
(195.884 76.7022 0)
(196.111 79.5241 0)
(196.438 82.44 0)
(197.011 85.4617 0)
(197.691 88.5697 0)
(198.702 91.7792 0)
(199.835 95.0883 0)
(201.368 98.5012 0)
(203.087 101.991 0)
(205.246 105.515 0)
(207.713 109.076 0)
(210.635 112.672 0)
(213.985 116.322 0)
(217.84 119.983 0)
(222.179 123.609 0)
(227.082 127.076 0)
(232.503 130.425 0)
(238.548 133.504 0)
(245.12 136.229 0)
(252.567 138.792 0)
(260.071 140.8 0)
(268.606 142.516 0)
(276.544 143.668 0)
(286.501 144.566 0)
(295.249 144.751 0)
(306.299 144.246 0)
(314.559 142.703 0)
(322.461 139.431 0)
(329.356 137.359 0)
(343.552 136.372 0)
(346.979 146.961 0)
(210 2.35581e-07 0)
(209.999 1.64006e-05 0)
(209.979 0.00242194 0)
(209.788 0.0413836 0)
(209.161 0.211265 0)
(208.389 0.474823 0)
(207.915 0.640818 0)
(207.895 0.73446 0)
(208.184 0.725854 0)
(208.854 0.594634 0)
(209.57 0.485419 0)
(210.169 0.536596 0)
(210.704 0.660793 0)
(211.245 0.806278 0)
(211.733 0.961837 0)
(212 1.18078 0)
(212.074 1.44456 0)
(212.051 1.7249 0)
(211.873 2.05075 0)
(211.734 2.36617 0)
(211.699 2.66899 0)
(211.72 2.97554 0)
(211.772 3.29381 0)
(211.847 3.62857 0)
(211.936 3.97323 0)
(212.04 4.31376 0)
(212.173 4.63388 0)
(212.34 4.92675 0)
(212.537 5.19803 0)
(212.751 5.45964 0)
(212.971 5.72357 0)
(213.193 5.99715 0)
(213.409 6.28491 0)
(213.615 6.58964 0)
(213.798 6.91494 0)
(213.958 7.26317 0)
(214.088 7.63561 0)
(214.194 8.03301 0)
(214.278 8.45485 0)
(214.334 8.90143 0)
(214.373 9.37246 0)
(214.379 9.86855 0)
(214.357 10.3908 0)
(214.316 10.9392 0)
(214.23 11.5145 0)
(214.121 12.1091 0)
(213.989 12.7385 0)
(213.828 13.3929 0)
(213.639 14.0753 0)
(213.423 14.785 0)
(213.182 15.5215 0)
(212.916 16.2843 0)
(212.628 17.0732 0)
(212.315 17.8886 0)
(211.978 18.7309 0)
(211.616 19.6001 0)
(211.231 20.4965 0)
(210.821 21.4204 0)
(210.388 22.3723 0)
(209.93 23.3526 0)
(209.45 24.3617 0)
(208.948 25.3999 0)
(208.425 26.4677 0)
(207.882 27.5657 0)
(207.32 28.6947 0)
(206.74 29.8558 0)
(206.142 31.0501 0)
(205.526 32.2792 0)
(204.893 33.5442 0)
(204.245 34.8464 0)
(203.583 36.1873 0)
(202.91 37.5684 0)
(202.226 38.9913 0)
(201.535 40.4582 0)
(200.837 41.9712 0)
(200.134 43.5326 0)
(199.43 45.1447 0)
(198.727 46.81 0)
(198.027 48.5313 0)
(197.338 50.3125 0)
(196.656 52.1563 0)
(195.999 54.0568 0)
(195.373 56.0275 0)
(194.739 58.0835 0)
(194.176 60.1981 0)
(193.637 62.3993 0)
(193.157 64.6833 0)
(192.733 67.0574 0)
(192.374 69.5217 0)
(192.106 72.0855 0)
(191.913 74.7458 0)
(191.859 77.517 0)
(191.885 80.3894 0)
(192.119 83.3841 0)
(192.436 86.4819 0)
(193.045 89.7111 0)
(193.75 93.0509 0)
(194.825 96.5082 0)
(196.057 100.047 0)
(197.713 103.669 0)
(199.636 107.392 0)
(201.991 111.22 0)
(204.74 115.137 0)
(207.94 119.086 0)
(211.622 123.031 0)
(215.882 126.882 0)
(220.619 130.649 0)
(226.022 134.256 0)
(232.063 137.802 0)
(238.743 140.993 0)
(245.847 143.742 0)
(254.179 146.434 0)
(262.317 148.375 0)
(271.126 149.985 0)
(280.756 151.204 0)
(289.49 151.674 0)
(298.584 151.608 0)
(306.468 150.432 0)
(313.696 149.314 0)
(327.942 148.045 0)
(330.995 157.663 0)
(210 -1.32391e-07 0)
(210 -8.5384e-06 0)
(209.992 0.000522757 0)
(209.887 0.0173696 0)
(209.396 0.132102 0)
(208.573 0.382522 0)
(207.935 0.589017 0)
(207.841 0.670583 0)
(207.954 0.711371 0)
(208.496 0.646773 0)
(209.21 0.535742 0)
(209.818 0.567649 0)
(210.325 0.68098 0)
(210.827 0.826264 0)
(211.333 0.973942 0)
(211.69 1.17331 0)
(211.817 1.43413 0)
(211.854 1.6938 0)
(211.713 2.00416 0)
(211.52 2.32073 0)
(211.422 2.62371 0)
(211.415 2.92464 0)
(211.442 3.23868 0)
(211.493 3.56574 0)
(211.565 3.90456 0)
(211.656 4.24022 0)
(211.778 4.55592 0)
(211.936 4.84418 0)
(212.125 5.11085 0)
(212.331 5.36813 0)
(212.544 5.62774 0)
(212.757 5.89676 0)
(212.964 6.17937 0)
(213.163 6.47821 0)
(213.339 6.79681 0)
(213.494 7.13754 0)
(213.613 7.50175 0)
(213.708 7.89012 0)
(213.775 8.30201 0)
(213.816 8.73775 0)
(213.839 9.19687 0)
(213.827 9.68011 0)
(213.795 10.1885 0)
(213.736 10.7225 0)
(213.63 11.2802 0)
(213.513 11.8583 0)
(213.361 12.47 0)
(213.181 13.1059 0)
(212.972 13.7684 0)
(212.735 14.4573 0)
(212.472 15.1721 0)
(212.185 15.9124 0)
(211.873 16.678 0)
(211.536 17.4691 0)
(211.175 18.2861 0)
(210.789 19.1293 0)
(210.378 19.9989 0)
(209.942 20.8952 0)
(209.481 21.8185 0)
(208.996 22.7693 0)
(208.487 23.748 0)
(207.954 24.7551 0)
(207.399 25.7908 0)
(206.822 26.8558 0)
(206.225 27.9507 0)
(205.608 29.0767 0)
(204.97 30.2347 0)
(204.313 31.4262 0)
(203.637 32.6525 0)
(202.942 33.9149 0)
(202.231 35.2147 0)
(201.504 36.5532 0)
(200.764 37.9324 0)
(200.012 39.354 0)
(199.248 40.8202 0)
(198.475 42.3334 0)
(197.695 43.8959 0)
(196.91 45.5102 0)
(196.122 47.1788 0)
(195.334 48.905 0)
(194.551 50.6914 0)
(193.779 52.5427 0)
(193.014 54.4616 0)
(192.272 56.4453 0)
(191.561 58.506 0)
(190.848 60.6557 0)
(190.195 62.8791 0)
(189.578 65.1937 0)
(189.016 67.6004 0)
(188.525 70.1085 0)
(188.093 72.7146 0)
(187.774 75.4338 0)
(187.52 78.2562 0)
(187.441 81.2054 0)
(187.428 84.2587 0)
(187.668 87.4526 0)
(187.981 90.7552 0)
(188.627 94.1946 0)
(189.39 97.7407 0)
(190.541 101.431 0)
(191.902 105.264 0)
(193.666 109.23 0)
(195.778 113.291 0)
(198.318 117.4 0)
(201.324 121.532 0)
(204.848 125.676 0)
(208.891 129.873 0)
(213.628 133.985 0)
(218.853 138.033 0)
(224.853 141.936 0)
(231.613 145.7 0)
(238.883 148.847 0)
(247.474 152.091 0)
(255.855 154.16 0)
(266.367 156.44 0)
(276.058 157.695 0)
(285.696 158.076 0)
(293.913 157.315 0)
(300.434 157.233 0)
(315.302 156.938 0)
(317.33 168.995 0)
(210 -6.5956e-08 0)
(210 -5.58268e-06 0)
(209.998 2.68283e-05 0)
(209.947 0.00573223 0)
(209.606 0.0720033 0)
(208.808 0.28461 0)
(208.02 0.50684 0)