/*--------------------------------*- C++ -*----------------------------------*\
| =========                 |                                                 |
| \\      /  F ield         | OpenFOAM: The Open Source CFD Toolbox           |
|  \\    /   O peration     | Version:  2406                                  |
|   \\  /    A nd           | Website:  www.openfoam.com                      |
|    \\/     M anipulation  |                                                 |
\*---------------------------------------------------------------------------*/
FoamFile
{
    version     2.0;
    format      ascii;
    arch        "LSB;label=32;scalar=64";
    class       volVectorField;
    location    "0.056";
    object      U;
}
// * * * * * * * * * * * * * * * * * * * * * * * * * * * * * * * * * * * * * //

dimensions      [0 1 -1 0 0 0 0];

internalField   nonuniform List<vector> 
78650
(
(159.871 43.3022 0)
(196.012 -3.60686 0)
(203.538 -5.50704 0)
(205.184 -4.67677 0)
(206.529 -4.70386 0)
(207.618 -4.31412 0)
(208.812 -4.0365 0)
(209.933 -3.64057 0)
(210.986 -3.2383 0)
(211.911 -2.80994 0)
(212.702 -2.39084 0)
(213.361 -1.99894 0)
(213.921 -1.6525 0)
(214.406 -1.35862 0)
(214.804 -1.10973 0)
(215.1 -0.887688 0)
(215.297 -0.657836 0)
(215.462 -0.449825 0)
(215.561 -0.170342 0)
(215.668 0.149697 0)
(215.81 0.514345 0)
(215.979 0.928605 0)
(216.158 1.39148 0)
(216.336 1.8973 0)
(216.509 2.44577 0)
(216.685 3.01614 0)
(216.866 3.61441 0)
(217.055 4.24412 0)
(217.253 4.90562 0)
(217.459 5.60037 0)
(217.672 6.32878 0)
(217.888 7.0912 0)
(218.103 7.88712 0)
(218.313 8.71589 0)
(218.516 9.57732 0)
(218.707 10.4708 0)
(218.888 11.3958 0)
(219.057 12.3521 0)
(219.211 13.3395 0)
(219.352 14.3582 0)
(219.479 15.408 0)
(219.593 16.4885 0)
(219.695 17.5995 0)
(219.787 18.7411 0)
(219.871 19.9134 0)
(219.949 21.1165 0)
(220.022 22.3501 0)
(220.094 23.6146 0)
(220.166 24.9101 0)
(220.242 26.2373 0)
(220.324 27.5964 0)
(220.415 28.9879 0)
(220.52 30.412 0)
(220.64 31.869 0)
(220.78 33.3597 0)
(220.943 34.8842 0)
(221.138 36.4431 0)
(221.369 38.0363 0)
(221.632 39.6633 0)
(221.944 41.3245 0)
(222.311 43.0196 0)
(222.731 44.7472 0)
(223.213 46.5078 0)
(223.776 48.301 0)
(224.408 50.1249 0)
(225.123 51.9782 0)
(225.949 53.8561 0)
(226.867 55.7543 0)
(227.899 57.673 0)
(229.069 59.6104 0)
(230.352 61.5633 0)
(231.779 63.5221 0)
(233.365 65.4741 0)
(235.092 67.4136 0)
(237 69.3304 0)
(239.099 71.2133 0)
(241.358 73.0699 0)
(243.831 74.888 0)
(246.5 76.6507 0)
(249.367 78.3319 0)
(252.445 79.9306 0)
(255.761 81.4215 0)
(259.238 82.8677 0)
(262.951 84.1657 0)
(266.854 85.3631 0)
(271.09 86.3338 0)
(275.639 87.0882 0)
(280.279 87.6415 0)
(284.899 88.0989 0)
(289.274 88.454 0)
(293.651 88.6316 0)
(298.038 88.6977 0)
(303.109 88.5067 0)
(308.416 87.91 0)
(314.276 87.0179 0)
(319.438 86.1322 0)
(323.993 85.4315 0)
(327.69 84.6668 0)
(330.679 83.9932 0)
(334.129 83.1239 0)
(338.126 82.2475 0)
(343.127 80.8938 0)
(347.795 79.3756 0)
(351.798 78.0037 0)
(355.34 76.5905 0)
(357.904 75.4531 0)
(360.219 74.2567 0)
(362.33 73.5216 0)
(364.977 72.4394 0)
(367.263 71.7922 0)
(369.998 70.7741 0)
(372.008 70.1448 0)
(373.95 69.2255 0)
(375.178 68.5859 0)
(376.15 67.6937 0)
(376.894 66.9851 0)
(378.02 66.2723 0)
(379.684 65.8494 0)
(381.97 65.5247 0)
(385.199 65.0775 0)
(386.437 66.7196 0)
(160.653 43.6148 0)
(195.819 -2.51615 0)
(203.472 -5.22695 0)
(205.136 -4.50421 0)
(206.472 -4.53106 0)
(207.578 -4.15093 0)
(208.771 -3.85906 0)
(209.871 -3.45951 0)
(210.887 -3.05813 0)
(211.773 -2.64577 0)
(212.52 -2.25331 0)
(213.131 -1.89387 0)
(213.653 -1.57865 0)
(214.125 -1.30889 0)
(214.546 -1.07764 0)
(214.885 -0.86907 0)
(215.113 -0.650063 0)
(215.288 -0.449001 0)
(215.382 -0.177877 0)
(215.448 0.141945 0)
(215.54 0.5047 0)
(215.668 0.917467 0)
(215.821 1.38123 0)
(215.985 1.88785 0)
(216.146 2.43798 0)
(216.314 3.01123 0)
(216.48 3.60958 0)
(216.647 4.23815 0)
(216.817 4.89643 0)
(216.994 5.58598 0)
(217.175 6.30766 0)
(217.358 7.06184 0)
(217.539 7.84793 0)
(217.717 8.66569 0)
(217.885 9.51506 0)
(218.044 10.3954 0)
(218.193 11.3063 0)
(218.33 12.2479 0)
(218.452 13.2197 0)
(218.559 14.2221 0)
(218.652 15.2549 0)
(218.731 16.3179 0)
(218.798 17.4109 0)
(218.853 18.5338 0)
(218.897 19.6869 0)
(218.934 20.8704 0)
(218.964 22.0842 0)
(218.991 23.3285 0)
(219.015 24.6036 0)
(219.04 25.9102 0)
(219.068 27.2487 0)
(219.102 28.6197 0)
(219.145 30.0235 0)
(219.2 31.4606 0)
(219.271 32.9317 0)
(219.36 34.4373 0)
(219.475 35.9783 0)
(219.619 37.5546 0)
(219.791 39.1657 0)
(220.004 40.8132 0)
(220.266 42.4967 0)
(220.571 44.215 0)
(220.933 45.9693 0)
(221.366 47.7597 0)
(221.858 49.5841 0)
(222.426 51.4427 0)
(223.094 53.3332 0)
(223.842 55.2527 0)
(224.695 57.201 0)
(225.674 59.1734 0)
(226.756 61.1642 0)
(227.978 63.1685 0)
(229.351 65.1812 0)
(230.858 67.2012 0)
(232.542 69.2234 0)
(234.407 71.238 0)
(236.424 73.2429 0)
(238.651 75.2158 0)
(241.067 77.1375 0)
(243.673 78.9938 0)
(246.49 80.7823 0)
(249.525 82.4875 0)
(252.722 84.1364 0)
(256.168 85.6349 0)
(259.734 87.0506 0)
(263.485 88.2886 0)
(267.382 89.4214 0)
(271.462 90.3984 0)
(275.674 91.2485 0)
(280.135 91.9056 0)
(285.074 92.3673 0)
(290.121 92.4721 0)
(295.303 92.4497 0)
(300.109 92.3327 0)
(304.659 92.2378 0)
(309.026 91.8987 0)
(312.895 91.6049 0)
(317.334 90.9703 0)
(322.018 90.1572 0)
(327.418 88.9727 0)
(332.379 87.7703 0)
(337.177 86.5582 0)
(341.127 85.4478 0)
(344.611 84.3164 0)
(347.811 83.2933 0)
(351.076 82.3709 0)
(354.737 81.1254 0)
(357.786 80.0204 0)
(361.064 78.5662 0)
(363.504 77.6446 0)
(366.181 76.538 0)
(368.301 75.977 0)
(370.61 75.143 0)
(372.384 74.5385 0)
(373.999 73.5512 0)
(374.949 72.7983 0)
(375.755 71.8174 0)
(376.64 71.402 0)
(378.73 71.1112 0)
(382.465 70.7377 0)
(384 72.9121 0)
(160.741 43.2951 0)
(196.217 -1.61719 0)
(203.469 -4.93871 0)
(205.106 -4.31556 0)
(206.454 -4.3552 0)
(207.572 -3.98681 0)
(208.736 -3.67699 0)
(209.796 -3.27117 0)
(210.778 -2.87588 0)
(211.628 -2.48744 0)
(212.328 -2.13092 0)
(212.891 -1.80965 0)
(213.368 -1.52639 0)
(213.813 -1.27916 0)
(214.24 -1.0623 0)
(214.62 -0.863708 0)
(214.899 -0.662608 0)
(215.087 -0.445017 0)
(215.202 -0.191143 0)
(215.241 0.125286 0)
(215.283 0.487251 0)
(215.362 0.899803 0)
(215.479 1.36369 0)
(215.618 1.87358 0)
(215.767 2.42317 0)
(215.922 3.00359 0)
(216.08 3.60319 0)
(216.229 4.23156 0)
(216.376 4.88752 0)
(216.526 5.57234 0)
(216.677 6.28756 0)
(216.828 7.03368 0)
(216.977 7.8101 0)
(217.12 8.617 0)
(217.255 9.45442 0)
(217.381 10.3218 0)
(217.496 11.2193 0)
(217.599 12.1468 0)
(217.688 13.1042 0)
(217.761 14.0918 0)
(217.819 15.1094 0)
(217.862 16.157 0)
(217.892 17.2344 0)
(217.908 18.3415 0)
(217.912 19.4787 0)
(217.907 20.6462 0)
(217.893 21.8439 0)
(217.873 23.0721 0)
(217.848 24.331 0)
(217.821 25.6212 0)
(217.794 26.9433 0)
(217.771 28.2978 0)
(217.753 29.6853 0)
(217.743 31.1059 0)
(217.745 32.5606 0)
(217.76 34.0499 0)
(217.799 35.5751 0)
(217.859 37.1358 0)
(217.942 38.7319 0)
(218.062 40.3651 0)
(218.223 42.035 0)
(218.42 43.7408 0)
(218.668 45.4838 0)
(218.98 47.2641 0)
(219.34 49.0798 0)
(219.771 50.9322 0)
(220.29 52.8198 0)
(220.878 54.7384 0)
(221.562 56.6876 0)
(222.36 58.6641 0)
(223.249 60.6661 0)
(224.269 62.6935 0)
(225.422 64.7421 0)
(226.691 66.8085 0)
(228.123 68.8844 0)
(229.715 70.9574 0)
(231.445 73.0229 0)
(233.375 75.0661 0)
(235.482 77.0787 0)
(237.771 79.0587 0)
(240.277 81.0024 0)
(242.991 82.894 0)
(245.885 84.7329 0)
(249.032 86.4679 0)
(252.332 88.1618 0)
(255.893 89.7119 0)
(259.607 91.1967 0)
(263.632 92.4703 0)
(267.91 93.5882 0)
(272.326 94.4438 0)
(276.788 95.182 0)
(281.259 95.7849 0)
(285.498 96.2816 0)
(290.11 96.5608 0)
(294.51 96.7736 0)
(299.398 96.7555 0)
(304.458 96.4215 0)
(309.743 95.7923 0)
(315.138 95.0172 0)
(319.952 94.3267 0)
(324.49 93.5401 0)
(328.273 92.9365 0)
(332.168 92.0164 0)
(335.878 91.0935 0)
(339.743 90.0484 0)
(343.468 89.0636 0)
(347.08 87.9689 0)
(350.259 86.9987 0)
(353.644 85.6907 0)
(356.41 84.8078 0)
(359.776 83.578 0)
(362.327 82.8868 0)
(365.457 81.8199 0)
(367.526 81.2107 0)
(369.537 80.2075 0)
(370.749 79.5254 0)
(371.971 78.5914 0)
(373.488 78.1666 0)
(376.148 77.6115 0)
(380.132 77.1803 0)
(381.623 79.5789 0)
(160.845 42.2394 0)
(196.836 -1.16805 0)
(203.524 -4.71388 0)
(205.09 -4.15605 0)
(206.439 -4.19329 0)
(207.543 -3.818 0)
(208.67 -3.48699 0)
(209.701 -3.07925 0)
(210.654 -2.69603 0)
(211.47 -2.33836 0)
(212.128 -2.02473 0)
(212.643 -1.74498 0)
(213.071 -1.49241 0)
(213.477 -1.26442 0)
(213.893 -1.05877 0)
(214.302 -0.869769 0)
(214.636 -0.676205 0)
(214.855 -0.450988 0)
(214.995 -0.205757 0)
(215.035 0.109237 0)
(215.043 0.473776 0)
(215.071 0.885795 0)
(215.137 1.34873 0)
(215.24 1.8595 0)
(215.37 2.40393 0)
(215.507 2.98813 0)
(215.655 3.58773 0)
(215.792 4.21466 0)
(215.921 4.86761 0)
(216.047 5.54692 0)
(216.171 6.2547 0)
(216.292 6.99174 0)
(216.409 7.75763 0)
(216.518 8.55279 0)
(216.62 9.37709 0)
(216.712 10.23 0)
(216.795 11.1121 0)
(216.864 12.0233 0)
(216.919 12.9638 0)
(216.958 13.9335 0)
(216.982 14.9327 0)
(216.991 15.9613 0)
(216.985 17.0192 0)
(216.964 18.1062 0)
(216.93 19.2226 0)
(216.885 20.3691 0)
(216.83 21.5452 0)
(216.766 22.7514 0)
(216.696 23.9879 0)
(216.621 25.2554 0)
(216.543 26.5544 0)
(216.465 27.8859 0)
(216.39 29.2503 0)
(216.318 30.6476 0)
(216.255 32.0791 0)
(216.201 33.5454 0)
(216.165 35.0481 0)
(216.145 36.5867 0)
(216.142 38.1614 0)
(216.171 39.7745 0)
(216.233 41.4255 0)
(216.324 43.1139 0)
(216.459 44.8419 0)
(216.649 46.6095 0)
(216.878 48.4153 0)
(217.171 50.2619 0)
(217.541 52.1482 0)
(217.967 54.0703 0)
(218.483 56.0298 0)
(219.101 58.0253 0)
(219.798 60.0548 0)
(220.617 62.1179 0)
(221.554 64.2081 0)
(222.599 66.3196 0)
(223.803 68.4471 0)
(225.154 70.5835 0)
(226.639 72.7283 0)
(228.32 74.8726 0)
(230.164 77.0106 0)
(232.184 79.1386 0)
(234.416 81.2444 0)
(236.84 83.3064 0)
(239.446 85.313 0)
(242.287 87.2334 0)
(245.286 89.1027 0)
(248.536 90.8594 0)
(251.925 92.5647 0)
(255.558 94.0667 0)
(259.293 95.4987 0)
(263.285 96.7535 0)
(267.451 97.8746 0)
(271.851 98.8946 0)
(276.5 99.7346 0)
(281.199 100.316 0)
(286.323 100.733 0)
(291.2 100.899 0)
(296.524 100.858 0)
(301.053 100.792 0)
(306.185 100.408 0)
(310.143 100.324 0)
(314.851 99.7824 0)
(318.903 99.4041 0)
(323.651 98.6419 0)
(328.217 97.8026 0)
(332.63 96.8929 0)
(337.076 95.8399 0)
(340.989 94.7185 0)
(344.587 93.6567 0)
(348.419 92.374 0)
(351.522 91.5203 0)
(355.119 90.303 0)
(357.907 89.5259 0)
(361.152 88.3227 0)
(363.451 87.5868 0)
(365.696 86.5125 0)
(367.034 85.8235 0)
(368.387 84.8254 0)
(369.947 84.2705 0)
(372.56 83.7429 0)
(376.463 83.3615 0)
(378.084 85.29 0)
(160.868 40.8537 0)
(197.417 -0.936998 0)
(203.565 -4.54316 0)
(205.004 -4.01526 0)
(206.353 -4.02747 0)
(207.469 -3.64152 0)
(208.589 -3.29558 0)
(209.595 -2.8878 0)
(210.514 -2.52311 0)
(211.294 -2.20593 0)
(211.912 -1.9432 0)
(212.381 -1.70834 0)
(212.76 -1.48563 0)
(213.123 -1.2736 0)
(213.515 -1.07485 0)
(213.933 -0.889683 0)
(214.316 -0.701437 0)
(214.584 -0.480705 0)
(214.748 -0.231751 0)
(214.818 0.0796258 0)
(214.812 0.445084 0)
(214.797 0.856293 0)
(214.806 1.3201 0)
(214.859 1.83163 0)
(214.956 2.37925 0)
(215.071 2.96288 0)
(215.2 3.56657 0)
(215.328 4.19261 0)
(215.444 4.84327 0)
(215.551 5.51819 0)
(215.65 6.21949 0)
(215.743 6.94788 0)
(215.828 7.70348 0)
(215.905 8.487 0)
(215.973 9.29819 0)
(216.032 10.1368 0)
(216.08 11.0037 0)
(216.114 11.899 0)
(216.134 12.8228 0)
(216.139 13.7752 0)
(216.127 14.7567 0)
(216.099 15.7674 0)
(216.055 16.8072 0)
(215.996 17.876 0)
(215.923 18.9738 0)
(215.836 20.1015 0)
(215.737 21.2587 0)
(215.628 22.4459 0)
(215.51 23.6633 0)
(215.385 24.9114 0)
(215.255 26.1909 0)
(215.122 27.5023 0)
(214.987 28.847 0)
(214.854 30.2243 0)
(214.726 31.6354 0)
(214.603 33.0813 0)
(214.493 34.5637 0)
(214.394 36.0823 0)
(214.309 37.6365 0)
(214.25 39.2298 0)
(214.218 40.861 0)
(214.207 42.5299 0)
(214.237 44.2394 0)
(214.312 45.9889 0)
(214.42 47.777 0)
(214.585 49.6073 0)
(214.817 51.4785 0)
(215.095 53.3872 0)
(215.455 55.3364 0)
(215.903 57.3241 0)
(216.418 59.3474 0)
(217.047 61.4074 0)
(217.778 63.4987 0)
(218.605 65.62 0)
(219.58 67.7719 0)
(220.681 69.9493 0)
(221.902 72.1498 0)
(223.304 74.3642 0)
(224.851 76.586 0)
(226.565 78.8092 0)
(228.481 81.0171 0)
(230.574 83.1922 0)
(232.853 85.3338 0)
(235.369 87.4354 0)
(238.058 89.5158 0)
(240.987 91.5332 0)
(244.09 93.5073 0)
(247.484 95.3263 0)
(251.013 97.0896 0)
(254.841 98.6458 0)
(258.835 100.112 0)
(263.035 101.336 0)
(267.474 102.483 0)
(271.781 103.372 0)
(276.513 104.257 0)
(280.793 104.921 0)
(285.707 105.389 0)
(290.086 105.712 0)
(294.978 105.801 0)
(299.805 105.707 0)
(304.576 105.48 0)
(309.764 105.142 0)
(314.621 104.705 0)
(319.595 104.056 0)
(324.036 103.289 0)
(328.243 102.466 0)
(332.507 101.468 0)
(336.168 100.747 0)
(340.278 99.7003 0)
(343.44 98.9999 0)
(346.873 97.8687 0)
(349.736 97.0524 0)
(352.972 95.8374 0)
(355.583 94.9878 0)
(358.184 93.8558 0)
(359.936 93.1301 0)
(361.666 92.0599 0)
(363.372 91.37 0)
(366.119 90.7545 0)
(370.91 90.0754 0)
(372.671 92.7606 0)
(160.954 39.2001 0)
(197.964 -1.04738 0)
(203.602 -4.35356 0)
(204.884 -3.84443 0)
(206.24 -3.83678 0)
(207.384 -3.44859 0)
(208.49 -3.09389 0)
(209.465 -2.69862 0)
(210.351 -2.36399 0)
(211.096 -2.10078 0)
(211.673 -1.8918 0)
(212.099 -1.69859 0)
(212.433 -1.50103 0)
(212.756 -1.30306 0)
(213.118 -1.11037 0)
(213.525 -0.924413 0)
(213.932 -0.73313 0)
(214.255 -0.511473 0)
(214.451 -0.24074 0)
(214.561 0.0626487 0)
(214.57 0.431671 0)
(214.535 0.845452 0)
(214.494 1.30659 0)
(214.487 1.8144 0)
(214.534 2.36086 0)
(214.621 2.9333 0)
(214.72 3.5389 0)
(214.833 4.16147 0)
(214.939 4.80784 0)
(215.031 5.47681 0)
(215.11 6.16992 0)
(215.178 6.88795 0)
(215.235 7.63188 0)
(215.28 8.4026 0)
(215.316 9.19954 0)
(215.342 10.0224 0)
(215.355 10.8724 0)
(215.356 11.7497 0)
(215.341 12.6548 0)
(215.311 13.5876 0)
(215.264 14.5485 0)
(215.201 15.5381 0)
(215.121 16.5564 0)
(215.024 17.603 0)
(214.913 18.6768 0)
(214.787 19.7815 0)
(214.647 20.9152 0)
(214.495 22.078 0)
(214.333 23.2706 0)
(214.161 24.4934 0)
(213.982 25.747 0)
(213.798 27.0321 0)
(213.608 28.3513 0)
(213.417 29.7017 0)
(213.227 31.0857 0)
(213.04 32.5042 0)
(212.86 33.9588 0)
(212.685 35.4513 0)
(212.522 36.9785 0)
(212.378 38.5458 0)
(212.253 40.152 0)
(212.145 41.7962 0)
(212.071 43.4827 0)
(212.032 45.2105 0)
(212.018 46.9785 0)
(212.057 48.7918 0)
(212.149 50.6489 0)
(212.278 52.547 0)
(212.481 54.4906 0)
(212.758 56.4771 0)
(213.094 58.5046 0)
(213.534 60.5765 0)
(214.061 62.688 0)
(214.675 64.8389 0)
(215.427 67.029 0)
(216.286 69.2494 0)
(217.261 71.4957 0)
(218.409 73.7628 0)
(219.685 76.0459 0)
(221.122 78.3422 0)
(222.747 80.64 0)
(224.532 82.9303 0)
(226.502 85.2149 0)
(228.697 87.4832 0)
(231.06 89.7301 0)
(233.649 91.9172 0)
(236.417 94.0445 0)
(239.435 96.0631 0)
(242.591 98.0523 0)
(246.066 99.8816 0)
(249.635 101.691 0)
(253.491 103.295 0)
(257.479 104.816 0)
(261.726 106.19 0)
(266.101 107.42 0)
(270.659 108.445 0)
(275.392 109.309 0)
(280.305 109.954 0)
(285.174 110.345 0)
(290.623 110.52 0)
(295.448 110.541 0)
(300.748 110.5 0)
(305.266 110.49 0)
(310.067 110.215 0)
(314.602 109.747 0)
(319.037 109.152 0)
(323.725 108.373 0)
(327.678 107.834 0)
(332.172 106.947 0)
(335.776 106.256 0)
(339.922 105.129 0)
(343.373 104.265 0)
(347.465 103.038 0)
(350.641 102.136 0)
(354.029 100.849 0)
(356.097 99.974 0)
(357.824 98.7748 0)
(359.318 98.2481 0)
(362.128 97.8096 0)
(367.102 97.484 0)
(368.76 100.953 0)
(161.154 37.3018 0)
(198.488 -1.21568 0)
(203.735 -4.14515 0)
(204.875 -3.64706 0)
(206.187 -3.60392 0)
(207.298 -3.21761 0)
(208.367 -2.87141 0)
(209.319 -2.51763 0)
(210.168 -2.23302 0)
(210.868 -2.03572 0)
(211.401 -1.87825 0)
(211.789 -1.71849 0)
(212.084 -1.53778 0)
(212.373 -1.34808 0)
(212.708 -1.1579 0)
(213.093 -0.971279 0)
(213.5 -0.778884 0)
(213.867 -0.559182 0)
(214.116 -0.288216 0)
(214.254 0.0257308 0)
(214.305 0.396423 0)
(214.276 0.81297 0)
(214.204 1.27505 0)
(214.138 1.78253 0)
(214.12 2.32761 0)
(214.161 2.89992 0)
(214.228 3.49955 0)
(214.312 4.11959 0)
(214.403 4.76083 0)
(214.483 5.42533 0)
(214.545 6.11221 0)
(214.591 6.82122 0)
(214.621 7.55375 0)
(214.638 8.31116 0)
(214.643 9.09403 0)
(214.636 9.90144 0)
(214.615 10.7351 0)
(214.581 11.5947 0)
(214.53 12.4813 0)
(214.465 13.394 0)
(214.382 14.3344 0)
(214.281 15.3037 0)
(214.164 16.3008 0)
(214.028 17.326 0)
(213.877 18.38 0)
(213.709 19.4622 0)
(213.527 20.5736 0)
(213.331 21.714 0)
(213.122 22.884 0)
(212.902 24.084 0)
(212.672 25.3148 0)
(212.434 26.5773 0)
(212.189 27.8712 0)
(211.939 29.1979 0)
(211.686 30.558 0)
(211.434 31.952 0)
(211.185 33.3812 0)
(210.933 34.8513 0)
(210.694 36.3515 0)
(210.468 37.8919 0)
(210.252 39.4726 0)
(210.052 41.0906 0)
(209.88 42.7515 0)
(209.733 44.454 0)
(209.607 46.196 0)
(209.528 47.9843 0)
(209.491 49.8159 0)
(209.483 51.689 0)
(209.544 53.6096 0)
(209.664 55.5738 0)
(209.834 57.5811 0)
(210.099 59.636 0)
(210.432 61.7328 0)
(210.845 63.8723 0)
(211.381 66.0557 0)
(212.006 68.2753 0)
(212.737 70.5326 0)
(213.624 72.8275 0)
(214.617 75.1545 0)
(215.762 77.5108 0)
(217.081 79.8855 0)
(218.546 82.2709 0)
(220.195 84.6678 0)
(222.055 87.0621 0)
(224.076 89.4435 0)
(226.315 91.7936 0)
(228.746 94.1215 0)
(231.416 96.407 0)
(234.262 98.6708 0)
(237.414 100.809 0)
(240.674 102.905 0)
(244.27 104.796 0)
(247.98 106.659 0)
(251.964 108.302 0)
(256.118 109.879 0)
(260.476 111.245 0)
(264.886 112.43 0)
(269.637 113.552 0)
(274.162 114.333 0)
(279.243 114.975 0)
(283.774 115.482 0)
(288.693 115.895 0)
(293.324 116.206 0)
(298.058 116.291 0)
(303.042 116.161 0)
(307.777 115.888 0)
(312.786 115.434 0)
(317.099 115.032 0)
(321.82 114.321 0)
(325.939 113.637 0)
(330.282 112.728 0)
(334.099 112.09 0)
(338.261 111.233 0)
(341.681 110.648 0)
(345.481 109.567 0)
(348.119 108.659 0)
(350.529 107.427 0)
(352.679 106.8 0)
(355.905 106.261 0)
(360.843 105.917 0)
(362.603 108.814 0)
(161.566 35.2208 0)
(199.022 -1.40634 0)
(203.92 -3.8829 0)
(204.931 -3.38805 0)
(206.148 -3.31679 0)
(207.191 -2.96612 0)
(208.209 -2.66108 0)
(209.14 -2.37214 0)
(209.952 -2.16348 0)
(210.602 -2.01696 0)
(211.094 -1.90694 0)
(211.447 -1.77287 0)
(211.714 -1.60434 0)
(211.981 -1.41615 0)
(212.288 -1.21884 0)
(212.643 -1.02054 0)
(213.032 -0.818619 0)
(213.413 -0.593499 0)
(213.717 -0.322343 0)
(213.888 0.0120595 0)
(213.984 0.37899 0)
(213.988 0.802299 0)
(213.919 1.26509 0)
(213.814 1.76811 0)
(213.729 2.3076 0)
(213.705 2.872 0)
(213.731 3.45887 0)
(213.777 4.07589 0)
(213.842 4.70645 0)
(213.905 5.36001 0)
(213.953 6.03685 0)
(213.981 6.73549 0)
(213.988 7.45616 0)
(213.98 8.19915 0)
(213.956 8.96639 0)
(213.919 9.75608 0)
(213.865 10.5717 0)
(213.797 11.4119 0)
(213.713 12.2775 0)
(213.612 13.1695 0)
(213.493 14.0882 0)
(213.357 15.0338 0)
(213.203 16.0069 0)
(213.03 17.0074 0)
(212.841 18.0355 0)
(212.634 19.092 0)
(212.411 20.1769 0)
(212.173 21.2904 0)
(211.921 22.4329 0)
(211.656 23.6048 0)
(211.379 24.8067 0)
(211.092 26.0395 0)
(210.794 27.3039 0)
(210.489 28.6004 0)
(210.179 29.9299 0)
(209.865 31.2935 0)
(209.548 32.6927 0)
(209.232 34.126 0)
(208.919 35.5965 0)
(208.615 37.1045 0)
(208.311 38.6567 0)
(208.022 40.2422 0)
(207.754 41.8703 0)
(207.501 43.5426 0)
(207.265 45.2548 0)
(207.07 47.0158 0)
(206.903 48.8216 0)
(206.76 50.6706 0)
(206.677 52.571 0)
(206.637 54.5174 0)
(206.642 56.5108 0)
(206.73 58.5566 0)
(206.87 60.648 0)
(207.086 62.7886 0)
(207.412 64.9804 0)
(207.807 67.2154 0)
(208.304 69.4966 0)
(208.942 71.8218 0)
(209.67 74.1816 0)
(210.548 76.5765 0)
(211.582 79.0006 0)
(212.741 81.4506 0)
(214.076 83.9271 0)
(215.6 86.4146 0)
(217.273 88.9024 0)
(219.161 91.3827 0)
(221.234 93.8596 0)
(223.519 96.3162 0)
(225.992 98.7461 0)
(228.74 101.088 0)
(231.632 103.39 0)
(234.86 105.563 0)
(238.174 107.741 0)
(241.821 109.735 0)
(245.552 111.692 0)
(249.558 113.452 0)
(253.756 115.16 0)
(258.105 116.638 0)
(262.683 117.954 0)
(267.275 119.02 0)
(272.272 120.019 0)
(276.931 120.738 0)
(282.392 121.464 0)
(287.027 121.867 0)
(292.627 122.153 0)
(297.291 122.235 0)
(302.49 122.084 0)
(307.087 121.888 0)
(311.797 121.555 0)
(316.436 121.064 0)
(320.724 120.491 0)
(324.826 119.91 0)
(328.749 119.256 0)
(332.263 118.764 0)
(336.174 117.868 0)
(339.078 116.946 0)
(341.521 115.625 0)
(343.535 114.766 0)
(346.787 114.21 0)
(352.705 113.878 0)
(354.484 117.824 0)
(162.307 33.0667 0)
(199.637 -1.47748 0)
(204.134 -3.60904 0)
(205.029 -3.11916 0)
(206.129 -3.04793 0)
(207.083 -2.7536 0)
(208.038 -2.51753 0)
(208.92 -2.29103 0)
(209.691 -2.15751 0)
(210.293 -2.07048 0)
(210.743 -1.99124 0)
(211.067 -1.86516 0)
(211.324 -1.6957 0)
(211.582 -1.50112 0)
(211.868 -1.29514 0)
(212.194 -1.08487 0)
(212.558 -0.872509 0)
(212.93 -0.640142 0)
(213.263 -0.367341 0)
(213.483 -0.0334638 0)
(213.607 0.349039 0)
(213.653 0.771622 0)
(213.615 1.23467 0)
(213.504 1.73804 0)
(213.368 2.27648 0)
(213.276 2.83399 0)
(213.237 3.4127 0)
(213.242 4.01255 0)
(213.267 4.64103 0)
(213.304 5.28325 0)
(213.333 5.94859 0)
(213.344 6.63669 0)
(213.332 7.34392 0)
(213.302 8.07139 0)
(213.251 8.82389 0)
(213.183 9.59886 0)
(213.099 10.3962 0)
(212.998 11.2172 0)
(212.881 12.0625 0)
(212.745 12.9328 0)
(212.591 13.8289 0)
(212.418 14.7516 0)
(212.226 15.7011 0)
(212.015 16.6777 0)
(211.786 17.6816 0)
(211.538 18.7132 0)
(211.274 19.7728 0)
(210.992 20.8606 0)
(210.695 21.9771 0)
(210.383 23.1226 0)
(210.057 24.2978 0)
(209.718 25.5034 0)
(209.367 26.7401 0)
(209.006 28.0086 0)
(208.637 29.3095 0)
(208.26 30.6439 0)
(207.878 32.0126 0)
(207.492 33.4172 0)
(207.106 34.8581 0)
(206.721 36.337 0)
(206.34 37.8524 0)
(205.966 39.4067 0)
(205.606 41.0019 0)
(205.249 42.6453 0)
(204.913 44.3225 0)
(204.608 46.0471 0)
(204.318 47.819 0)
(204.055 49.6323 0)
(203.84 51.4991 0)
(203.656 53.4111 0)
(203.512 55.3705 0)
(203.438 57.3837 0)
(203.403 59.4429 0)
(203.438 61.555 0)
(203.564 63.7211 0)
(203.742 65.9324 0)
(204.018 68.1963 0)
(204.412 70.5113 0)
(204.879 72.8709 0)
(205.486 75.2821 0)
(206.221 77.7392 0)
(207.066 80.2356 0)
(208.083 82.7684 0)
(209.27 85.3226 0)
(210.598 87.8948 0)
(212.133 90.4889 0)
(213.84 93.1043 0)
(215.746 95.7225 0)
(217.847 98.3271 0)
(220.198 100.883 0)
(222.709 103.418 0)
(225.525 105.89 0)
(228.472 108.36 0)
(231.772 110.685 0)
(235.17 112.988 0)
(238.921 115.064 0)
(242.763 117.091 0)
(246.88 118.93 0)
(251.176 120.704 0)
(255.6 122.167 0)
(260.426 123.675 0)
(265.051 124.699 0)
(270.213 125.761 0)
(274.76 126.573 0)
(279.925 127.333 0)
(284.613 127.826 0)
(289.667 128.097 0)
(294.698 128.223 0)
(299.311 128.334 0)
(304.642 128.224 0)
(309.095 128.03 0)
(314.073 127.585 0)
(318.719 127.119 0)
(323.106 126.641 0)
(327.867 125.913 0)
(331.318 125.122 0)
(334.512 123.823 0)
(337.055 122.843 0)
(340.525 122.098 0)
(346.305 121.812 0)
(348.025 125.391 0)
(163.297 30.9435 0)
(200.302 -1.38176 0)
(204.362 -3.30566 0)
(205.221 -2.83322 0)
(206.206 -2.81508 0)
(207.057 -2.62119 0)
(207.914 -2.47056 0)
(208.713 -2.32502 0)
(209.398 -2.24235 0)
(209.931 -2.18799 0)
(210.339 -2.12244 0)
(210.645 -1.98919 0)
(210.901 -1.80495 0)
(211.15 -1.58768 0)
(211.422 -1.35846 0)
(211.732 -1.13339 0)
(212.081 -0.916723 0)
(212.437 -0.682452 0)
(212.768 -0.407395 0)
(213.023 -0.071392 0)
(213.177 0.324052 0)
(213.253 0.754189 0)
(213.262 1.21924 0)
(213.174 1.72036 0)
(213.021 2.25599 0)
(212.877 2.80569 0)
(212.771 3.37041 0)
(212.712 3.95691 0)
(212.692 4.56401 0)
(212.691 5.19522 0)
(212.693 5.84682 0)
(212.683 6.51958 0)
(212.656 7.20918 0)
(212.604 7.92444 0)
(212.53 8.65939 0)
(212.436 9.41537 0)
(212.324 10.1931 0)
(212.193 10.9932 0)
(212.043 11.8167 0)
(211.875 12.6642 0)
(211.686 13.5364 0)
(211.478 14.4341 0)
(211.25 15.3576 0)
(211.003 16.3074 0)
(210.736 17.2837 0)
(210.451 18.287 0)
(210.146 19.3176 0)
(209.824 20.3758 0)
(209.484 21.462 0)
(209.129 22.5766 0)
(208.757 23.7201 0)
(208.371 24.8933 0)
(207.971 26.0969 0)
(207.558 27.3317 0)
(207.134 28.5983 0)
(206.7 29.8977 0)
(206.258 31.2307 0)
(205.808 32.5984 0)
(205.354 34.0019 0)
(204.896 35.4424 0)
(204.438 36.921 0)
(203.982 38.4388 0)
(203.53 39.9979 0)
(203.085 41.5965 0)
(202.652 43.2373 0)
(202.24 44.9228 0)
(201.824 46.6645 0)
(201.444 48.4382 0)
(201.096 50.2679 0)
(200.766 52.1469 0)
(200.475 54.0755 0)
(200.237 56.0615 0)
(200.026 58.0951 0)
(199.881 60.1866 0)
(199.809 62.3344 0)
(199.775 64.5307 0)
(199.835 66.7875 0)
(199.991 69.1004 0)
(200.209 71.462 0)
(200.561 73.8806 0)
(201.018 76.3461 0)
(201.574 78.8553 0)
(202.294 81.4128 0)
(203.154 84.0101 0)
(204.14 86.6481 0)
(205.319 89.328 0)
(206.653 92.0357 0)
(208.173 94.7538 0)
(209.89 97.4744 0)
(211.831 100.187 0)
(213.945 102.909 0)
(216.338 105.605 0)
(218.888 108.28 0)
(221.755 110.848 0)
(224.728 113.397 0)
(228.073 115.795 0)
(231.49 118.191 0)
(235.25 120.395 0)
(239.118 122.608 0)
(243.266 124.643 0)
(247.566 126.512 0)
(252.176 128.159 0)
(256.723 129.522 0)
(261.631 130.919 0)
(266.275 132.03 0)
(271.622 133.147 0)
(276.427 133.875 0)
(281.952 134.513 0)
(286.524 134.985 0)
(291.859 135.303 0)
(296.325 135.474 0)
(301.401 135.306 0)
(305.971 135.1 0)
(310.407 134.866 0)
(314.788 134.455 0)
(318.302 134.041 0)
(321.76 133.105 0)
(324.553 132.195 0)
(328.008 131.555 0)
(334.655 131.028 0)
(336.207 135.48 0)
(164.362 28.8838 0)
(200.901 -1.14232 0)
(204.732 -2.99722 0)
(205.564 -2.55222 0)
(206.415 -2.58237 0)
(207.156 -2.49386 0)
(207.906 -2.43516 0)
(208.579 -2.37019 0)
(209.139 -2.32629 0)
(209.584 -2.30428 0)
(209.939 -2.2555 0)
(210.216 -2.12845 0)
(210.458 -1.9428 0)
(210.696 -1.71407 0)
(210.957 -1.46109 0)
(211.26 -1.20341 0)
(211.601 -0.955824 0)
(211.944 -0.701316 0)
(212.266 -0.420547 0)
(212.532 -0.0907154 0)
(212.715 0.295459 0)
(212.804 0.729582 0)
(212.849 1.18769 0)
(212.8 1.68551 0)
(212.661 2.21927 0)
(212.494 2.76447 0)
(212.338 3.31857 0)
(212.213 3.88943 0)
(212.13 4.48028 0)
(212.079 5.09278 0)
(212.043 5.72743 0)
(212.006 6.38296 0)
(211.957 7.05956 0)
(211.886 7.75618 0)
(211.792 8.47378 0)
(211.674 9.21178 0)
(211.535 9.97033 0)
(211.375 10.7502 0)
(211.195 11.5521 0)
(210.995 12.3769 0)
(210.773 13.2254 0)
(210.531 14.0983 0)
(210.267 14.9962 0)
(209.983 15.9196 0)
(209.678 16.8689 0)
(209.353 17.8446 0)
(209.008 18.847 0)
(208.644 19.8764 0)
(208.261 20.9333 0)
(207.861 22.0181 0)
(207.443 23.1312 0)
(207.008 24.2735 0)
(206.557 25.4455 0)
(206.091 26.6481 0)
(205.611 27.8819 0)
(205.119 29.1477 0)
(204.615 30.4466 0)
(204.101 31.7795 0)
(203.579 33.1475 0)
(203.049 34.5516 0)
(202.516 35.9927 0)
(201.98 37.4719 0)
(201.444 38.9906 0)
(200.909 40.5506 0)
(200.381 42.1529 0)
(199.86 43.7999 0)
(199.351 45.4878 0)
(198.859 47.2226 0)
(198.388 49.0068 0)
(197.921 50.846 0)
(197.5 52.7256 0)
(197.112 54.6636 0)
(196.744 56.6497 0)
(196.439 58.6966 0)
(196.185 60.7998 0)
(195.958 62.9525 0)
(195.82 65.1711 0)
(195.752 67.4467 0)
(195.734 69.7764 0)
(195.839 72.1727 0)
(196.019 74.6245 0)
(196.289 77.1344 0)
(196.707 79.7078 0)
(197.237 82.3315 0)
(197.887 85.0044 0)
(198.72 87.7259 0)
(199.689 90.481 0)
(200.834 93.267 0)
(202.162 96.0869 0)
(203.681 98.9368 0)
(205.366 101.814 0)
(207.307 104.684 0)
(209.417 107.532 0)
(211.817 110.328 0)
(214.361 113.127 0)
(217.253 115.855 0)
(220.249 118.593 0)
(223.638 121.183 0)
(227.108 123.759 0)
(230.891 126.134 0)
(234.813 128.44 0)
(239.022 130.504 0)
(243.496 132.45 0)
(248.164 134.288 0)
(252.801 135.84 0)
(257.786 137.414 0)
(262.504 138.615 0)
(267.789 139.722 0)
(272.685 140.547 0)
(277.732 141.294 0)
(282.817 141.891 0)
(287.833 142.263 0)
(293.184 142.437 0)
(298.147 142.51 0)
(303.431 142.455 0)
(307.739 142.255 0)
(311.827 141.621 0)
(314.952 140.929 0)
(318.633 140.436 0)
(325.44 140.34 0)
(326.865 145.5 0)
(165.335 26.855 0)
(201.345 -0.894324 0)
(205.108 -2.71058 0)
(205.963 -2.28017 0)
(206.762 -2.38744 0)
(207.451 -2.33433 0)
(208.092 -2.32305 0)
(208.613 -2.3138 0)
(209.026 -2.33904 0)
(209.364 -2.35609 0)
(209.65 -2.32218 0)
(209.86 -2.21105 0)
(210.046 -2.0341 0)
(210.243 -1.7996 0)
(210.484 -1.53211 0)
(210.779 -1.26239 0)
(211.112 -1.00068 0)
(211.447 -0.731207 0)
(211.767 -0.441365 0)
(212.035 -0.110729 0)
(212.225 0.272062 0)
(212.328 0.703858 0)
(212.382 1.16379 0)
(212.366 1.65326 0)
(212.26 2.1825 0)
(212.099 2.72288 0)
(211.919 3.26715 0)
(211.743 3.8229 0)
(211.597 4.39369 0)
(211.484 4.98453 0)
(211.398 5.59761 0)
(211.323 6.23295 0)
(211.245 6.88976 0)
(211.153 7.56764 0)
(211.039 8.26586 0)
(210.9 8.9839 0)
(210.738 9.72167 0)
(210.552 10.4796 0)
(210.344 11.2585 0)
(210.114 12.0592 0)
(209.862 12.8824 0)
(209.588 13.729 0)
(209.291 14.5995 0)
(208.972 15.4947 0)
(208.632 16.4148 0)
(208.27 17.3603 0)
(207.887 18.3316 0)
(207.484 19.3293 0)
(207.061 20.3536 0)
(206.618 21.4049 0)
(206.157 22.4837 0)
(205.678 23.5908 0)
(205.181 24.7268 0)
(204.666 25.8924 0)
(204.136 27.0883 0)
(203.59 28.3154 0)
(203.031 29.5745 0)
(202.458 30.8666 0)
(201.874 32.1929 0)
(201.279 33.5543 0)
(200.676 34.9521 0)
(200.066 36.3872 0)
(199.451 37.8611 0)
(198.833 39.3749 0)
(198.215 40.9304 0)
(197.598 42.5291 0)
(196.987 44.1729 0)
(196.383 45.8629 0)
(195.789 47.6009 0)
(195.21 49.3847 0)
(194.656 51.2216 0)
(194.113 53.1168 0)
(193.59 55.0603 0)
(193.123 57.0628 0)
(192.682 59.1248 0)
(192.272 61.2372 0)
(191.938 63.4217 0)
(191.649 65.6628 0)
(191.408 67.9627 0)
(191.276 70.3337 0)
(191.193 72.7585 0)
(191.2 75.2468 0)
(191.34 77.8032 0)
(191.561 80.4141 0)
(191.896 83.086 0)
(192.39 85.821 0)
(192.991 88.6068 0)
(193.754 91.4508 0)
(194.684 94.3531 0)
(195.779 97.3005 0)
(197.047 100.278 0)
(198.556 103.26 0)
(200.239 106.245 0)
(202.183 109.237 0)
(204.295 112.258 0)
(206.713 115.252 0)
(209.259 118.241 0)
(212.178 121.12 0)
(215.189 123.984 0)
(218.576 126.705 0)
(222.062 129.423 0)
(225.893 131.965 0)
(229.887 134.414 0)
(234.151 136.642 0)
(238.607 138.863 0)
(243.113 140.76 0)
(248.008 142.734 0)
(252.785 144.178 0)
(258.158 145.669 0)
(263.005 146.822 0)
(268.353 148.03 0)
(273.024 148.906 0)
(278.664 149.655 0)
(283.467 150.148 0)
(289.185 150.546 0)
(293.717 150.833 0)
(298.195 150.692 0)
(301.521 150.427 0)
(305.23 150.135 0)
(311.863 150.092 0)
(313.101 155.035 0)
(166.07 24.7983 0)
(201.627 -0.758026 0)
(205.464 -2.57333 0)
(206.382 -2.12294 0)