/*--------------------------------*- C++ -*----------------------------------*\
| =========                 |                                                 |
| \\      /  F ield         | OpenFOAM: The Open Source CFD Toolbox           |
|  \\    /   O peration     | Version:  2412                                  |
|   \\  /    A nd           | Website:  www.openfoam.com                      |
|    \\/     M anipulation  |                                                 |
\*---------------------------------------------------------------------------*/
FoamFile
{
    version     2.0;
    format      ascii;
    arch        "LSB;label=32;scalar=64";
    class       volScalarField;
    location    "0.118";
    object      p;
}
// * * * * * * * * * * * * * * * * * * * * * * * * * * * * * * * * * * * * * //

dimensions      [1 -1 -2 0 0 0 0];

internalField   nonuniform List<scalar> 
9922
(
4398.07
2741.18
2768.3
2783.45
2784.64
2783.94
2780.81
2778.72
2775.4
2772.15
2768.45
2764.84
2761.12
2757.43
2753.6
2749.68
2745.61
2741.41
2737.04
2732.5
2727.73
2722.7
2717.33
2711.57
2705.38
2698.69
2691.48
2683.69
2675.31
2666.28
2656.6
2646.24
2635.15
2623.3
2610.65
2597.17
2582.8
2567.52
2551.24
2533.93
2515.52
2495.94
2475.12
2452.99
2429.48
2404.48
2377.83
2349.34
2318.75
2285.73
2249.8
2210.1
2164.85
2111.95
2050.72
1981.98
1914.26
1851.71
1796
1746.55
1702.69
1663.13
1627.31
1595.24
1566.14
1539.78
1515.87
1493.88
1473.45
1454.37
1436.79
1420.82
1406.47
1393.26
1381.07
1369.28
1357.94
1347.06
1336.85
1327.35
1318.54
1310.19
1302.27
1294.73
1287.55
1280.68
1274.05
1267.68
1261.61
1255.85
1250.39
1245.23
1240.31
1235.61
1231.14
1226.85
1222.66
1218.63
1214.74
1211.01
1207.44
1204.04
1200.79
1197.69
1194.73
1191.89
1189.16
1186.54
1184.02
1181.61
1179.28
1177.06
1174.89
1172.83
1170.87
1168.97
1167.16
1165.45
1163.83
1162.24
1159.81
4402.31
2740.37
2767.04
2782.44
2783.88
2783.46
2780.45
2778.4
2775.09
2771.85
2768.15
2764.55
2760.85
2757.18
2753.38
2749.49
2745.45
2741.27
2736.93
2732.4
2727.64
2722.61
2717.25
2711.49
2705.29
2698.6
2691.37
2683.56
2675.15
2666.09
2656.37
2645.96
2634.81
2622.89
2610.17
2596.6
2582.13
2566.73
2550.32
2532.84
2514.24
2494.43
2473.34
2450.88
2426.97
2401.49
2374.25
2345.03
2313.53
2279.37
2241.98
2200.3
2152.6
2097.82
2036.28
1970.62
1906.77
1847.98
1795.04
1747.31
1704.07
1664.95
1629.29
1596.69
1567.31
1540.81
1516.67
1494.57
1474.23
1455.44
1438.14
1422.28
1407.73
1393.99
1381.12
1368.84
1357.56
1347.18
1337.59
1328.41
1319.61
1311.17
1303.12
1295.53
1288.32
1281.45
1274.83
1268.52
1262.49
1256.76
1251.27
1246
1240.84
1235.82
1230.97
1226.35
1222.04
1217.98
1214.11
1210.39
1206.83
1203.43
1200.17
1197.05
1194.07
1191.22
1188.48
1185.87
1183.36
1180.99
1178.71
1176.58
1174.5
1172.55
1170.71
1168.93
1167.21
1165.53
1163.98
1162.43
1160.11
4406.62
2739.56
2765.75
2781.42
2783.1
2782.97
2780.09
2778.09
2774.78
2771.53
2767.84
2764.26
2760.58
2756.93
2753.16
2749.3
2745.29
2741.14
2736.81
2732.3
2727.56
2722.53
2717.17
2711.42
2705.21
2698.51
2691.26
2683.44
2675
2665.91
2656.15
2645.68
2634.48
2622.5
2609.7
2596.04
2581.48
2565.96
2549.41
2531.79
2513
2492.97
2471.61
2448.84
2424.54
2398.59
2370.77
2340.85
2308.48
2273.25
2234.47
2191.02
2141.54
2085.89
2024.84
1962.14
1901.71
1845.85
1794.79
1748.32
1706
1667.09
1631.55
1599.13
1569.45
1542.53
1518.17
1495.97
1475.58
1456.89
1439.69
1423.41
1408.11
1393.8
1380.92
1369.2
1358.65
1348.39
1338.39
1328.69
1319.39
1310.62
1302.44
1294.77
1287.51
1280.57
1273.94
1267.67
1261.73
1256.05
1250.54
1245.25
1240.19
1235.45
1231.01
1226.78
1222.71
1218.76
1214.94
1211.26
1207.71
1204.31
1201.05
1197.93
1194.92
1192.03
1189.25
1186.59
1184.02
1181.58
1179.22
1176.99
1174.82
1172.77
1170.84
1168.98
1167.19
1165.45
1163.8
1162.21
1159.9
4410.99
2738.77
2764.45
2780.38
2782.3
2782.48
2779.74
2777.76
2774.46
2771.22
2767.53
2763.96
2760.3
2756.68
2752.94
2749.1
2745.12
2741
2736.7
2732.2
2727.47
2722.45
2717.09
2711.34
2705.13
2698.42
2691.16
2683.31
2674.85
2665.73
2655.92
2645.41
2634.16
2622.12
2609.25
2595.5
2580.84
2565.21
2548.54
2530.76
2511.79
2491.55
2469.94
2446.86
2422.2
2395.79
2367.43
2336.83
2303.65
2267.4
2227.33
2182.38
2131.7
2075.95
2016
1956.08
1898.6
1845.27
1796.09
1750.95
1709.41
1671.21
1635.89
1603.3
1573.51
1546.3
1521.52
1498.97
1478.27
1458.97
1440.86
1424.06
1408.74
1394.71
1382.14
1370.33
1359.12
1348.21
1337.8
1328.03
1319.03
1310.61
1302.68
1295.1
1287.79
1280.77
1274.03
1267.66
1261.61
1255.9
1250.52
1245.47
1240.67
1235.99
1231.35
1226.89
1222.61
1218.51
1214.58
1210.85
1207.28
1203.89
1200.66
1197.58
1194.63
1191.8
1189.08
1186.5
1184.02
1181.69
1179.43
1177.31
1175.25
1173.31
1171.47
1169.7
1167.98
1166.33
1164.7
1163.08
1160.71
4415.42
2737.99
2763.11
2779.3
2781.47
2781.98
2779.38
2777.43
2774.13
2770.89
2767.21
2763.66
2760.02
2756.42
2752.71
2748.91
2744.96
2740.86
2736.58
2732.1
2727.38
2722.37
2717.02
2711.26
2705.05
2698.33
2691.06
2683.19
2674.7
2665.55
2655.71
2645.15
2633.85
2621.74
2608.8
2594.98
2580.22
2564.48
2547.69
2529.76
2510.63
2490.18
2468.33
2444.96
2419.93
2393.09
2364.21
2332.98
2299.04
2261.84
2220.62
2174.56
2123.37
2068.11
2009.74
1952.29
1897.41
1846.11
1798.67
1754.68
1713.79
1675.59
1640.01
1607.14
1576.87
1549.24
1524.13
1501.26
1480.29
1460.78
1442.6
1425.87
1410.66
1396.43
1383.19
1370.52
1358.75
1347.93
1338.1
1328.93
1320.25
1311.82
1303.71
1295.97
1288.61
1281.61
1274.94
1268.62
1262.59
1256.85
1251.3
1245.85
1240.54
1235.48
1230.76
1226.39
1222.24
1218.27
1214.44
1210.79
1207.26
1203.89
1200.64
1197.53
1194.53
1191.66
1188.88
1186.23
1183.7
1181.29
1178.96
1176.76
1174.63
1172.62
1170.73
1168.92
1167.19
1165.56
1163.93
1162.33
1159.95
4419.9
2737.21
2761.74
2778.19
2780.62
2781.48
2779.02
2777.1
2773.79
2770.56
2766.89
2763.36
2759.74
2756.16
2752.48
2748.7
2744.78
2740.71
2736.46
2731.99
2727.29
2722.29
2716.94
2711.19
2704.97
2698.24
2690.96
2683.07
2674.56
2665.38
2655.5
2644.9
2633.54
2621.38
2608.37
2594.47
2579.62
2563.78
2546.86
2528.8
2509.5
2488.87
2466.78
2443.13
2417.77
2390.52
2361.15
2329.33
2294.67
2256.61
2214.46
2167.68
2116.47
2062.01
2005.43
1950.13
1897.23
1847.61
1801.21
1757.71
1716.89
1678.77
1643.19
1609.97
1579.32
1551.25
1525.69
1502.47
1481.34
1462.07
1444.38
1427.77
1412.15
1397.29
1383.5
1370.83
1359.67
1349.24
1339.4
1329.82
1320.49
1311.58
1303.18
1295.31
1287.92
1280.93
1274.28
1267.96
1261.94
1256.25
1250.82
1245.6
1240.6
1235.87
1231.38
1227.05
1222.85
1218.82
1214.95
1211.25
1207.7
1204.33
1201.09
1198
1195.03
1192.2
1189.47
1186.86
1184.35
1181.97
1179.67
1177.47
1175.33
1173.3
1171.38
1169.53
1167.75
1166.09
1164.44
1162.86
1160.51
4424.45
2736.45
2760.32
2777.04
2779.75
2780.98
2778.66
2776.76
2773.45
2770.22
2766.57
2763.05
2759.45
2755.9
2752.24
2748.5
2744.61
2740.57
2736.34
2731.89
2727.2
2722.21
2716.87
2711.12
2704.9
2698.16
2690.86
2682.96
2674.42
2665.21
2655.29
2644.65
2633.25
2621.03
2607.96
2593.98
2579.04
2563.1
2546.07
2527.87
2508.42
2487.6
2465.29
2441.38
2415.7
2388.07
2358.24
2325.88
2290.56
2251.77
2208.96
2161.86
2110.95
2057.39
2002.63
1949.16
1897.77
1849.29
1803.71
1760.89
1720.74
1682.96
1647.53
1614.45
1583.64
1555.2
1529.23
1505.61
1484.05
1464.16
1445.72
1428.66
1412.8
1398.04
1384.77
1372.47
1361.12
1350.17
1339.64
1329.52
1320.09
1311.4
1303.38
1295.76
1288.41
1281.35
1274.54
1268.02
1261.82
1255.97
1250.47
1245.32
1240.33
1235.52
1230.84
1226.34
1222.04
1217.98
1214.11
1210.42
1206.88
1203.5
1200.25
1197.15
1194.17
1191.32
1188.59
1185.99
1183.5
1181.15
1178.89
1176.77
1174.68
1172.73
1170.88
1169.11
1167.39
1165.76
1164.14
1162.6
1160.31
4429.05
2735.71
2758.87
2775.87
2778.86
2780.49
2778.31
2776.42
2773.1
2769.88
2766.24
2762.73
2759.15
2755.63
2752
2748.29
2744.43
2740.42
2736.21
2731.79
2727.11
2722.13
2716.79
2711.04
2704.82
2698.08
2690.76
2682.85
2674.28
2665.04
2655.1
2644.41
2632.96
2620.69
2607.55
2593.5
2578.49
2562.44
2545.31
2526.98
2507.38
2486.38
2463.87
2439.71
2413.73
2385.75
2355.5
2322.64
2286.76
2247.39
2204.14
2156.96
2106.48
2053.86
2000.74
1948.95
1899.26
1852.32
1808.05
1766.17
1726.5
1689.01
1653.59
1620.26
1589.15
1560.28
1533.77
1509.61
1487.61
1467.35
1448.34
1430.72
1414.81
1400.17
1386.71
1373.82
1361.73
1350.27
1339.72
1330.03
1321.21
1312.78
1304.64
1296.76
1289.16
1281.98
1275.19
1268.77
1262.64
1256.78
1251.08
1245.59
1240.41
1235.55
1230.94
1226.56
1222.39
1218.42
1214.61
1210.94
1207.41
1204.03
1200.78
1197.65
1194.64
1191.76
1188.99
1186.33
1183.77
1181.35
1179.01
1176.8
1174.64
1172.59
1170.67
1168.85
1167.07
1165.39
1163.72
1162.18
1159.96
4433.72
2734.97
2757.42
2774.7
2777.98
2779.99
2777.95
2776.06
2772.75
2769.54
2765.91
2762.41
2758.85
2755.35
2751.75
2748.08
2744.25
2740.27
2736.09
2731.69
2727.02
2722.05
2716.72
2710.97
2704.75
2698
2690.67
2682.74
2674.15
2664.88
2654.9
2644.18
2632.68
2620.36
2607.16
2593.04
2577.95
2561.82
2544.57
2526.13
2506.39
2485.23
2462.52
2438.12
2411.87
2383.56
2352.93
2319.63
2283.29
2243.5
2200
2152.95
2103.12
2051.68
2000.2
1950.1
1902.03
1856.31
1812.81
1771.3
1731.78
1694.18
1658.54
1624.89
1593.28
1563.89
1536.84
1512.13
1489.66
1469.29
1450.76
1433.45
1417.28
1402.05
1387.83
1374.4
1362.25
1351.14
1341.09
1331.46
1322.19
1313.2
1304.47
1296.21
1288.47
1281.24
1274.48
1268.11
1262.07
1256.33
1250.88
1245.7
1240.65
1235.78
1231.05
1226.54
1222.24
1218.14
1214.2
1210.44
1206.86
1203.44
1200.17
1197.05
1194.07
1191.24
1188.53
1185.96
1183.49
1181.16
1178.9
1176.78
1174.7
1172.74
1170.87
1169.1
1167.34
1165.7
1164.02
1162.44
1160.16
4438.44
2734.28
2755.99
2773.56
2777.09
2779.5
2777.6
2775.7
2772.39
2769.18
2765.57
2762.09
2758.55
2755.07
2751.5
2747.86
2744.07
2740.12
2735.97
2731.58
2726.93
2721.97
2716.65
2710.9
2704.68
2697.92
2690.58
2682.63
2674.03
2664.73
2654.72
2643.96
2632.42
2620.05
2606.79
2592.6
2577.43
2561.22
2543.87
2525.32
2505.44
2484.13
2461.24
2436.63
2410.12
2381.52
2350.54
2316.88
2280.16
2240.08
2196.51
2149.8
2100.78
2050.57
2000.55
1951.9
1904.88
1859.79
1816.69
1775.43
1736.03
1698.55
1662.97
1629.23
1597.44
1567.72
1540.22
1515.04
1492.1
1471.17
1452.05
1434.53
1418.21
1402.8
1388.56
1375.36
1363.56
1352.46
1341.93
1331.75
1321.98
1312.84
1304.43
1296.59
1289.19
1282.09
1275.27
1268.72
1262.38
1256.31
1250.53
1245.06
1239.88
1234.97
1230.29
1225.86
1221.64
1217.61
1213.74
1210.04
1206.49
1203.08
1199.8
1196.64
1193.6
1190.7
1187.93
1185.29
1182.75
1180.33
1177.99
1175.79
1173.64
1171.61
1169.69
1167.85
1166.07
1164.42
1162.72
1161.13
1158.85
4443.21
2733.62
2754.57
2772.43
2776.2
2779
2777.24
2775.33
2772.02
2768.83
2765.22
2761.76
2758.24
2754.79
2751.25
2747.64
2743.89
2739.97
2735.84
2731.48
2726.84
2721.9
2716.58
2710.84
2704.61
2697.84
2690.5
2682.53
2673.9
2664.58
2654.54
2643.74
2632.16
2619.74
2606.43
2592.18
2576.94
2560.64
2543.21
2524.54
2504.55
2483.09
2460.04
2435.23
2408.49
2379.62
2348.35
2314.39
2277.4
2237.17
2193.75
2147.57
2099.4
2050.26
2001.45
1953.93
1907.82
1863.52
1821.18
1780.68
1741.95
1704.86
1669.44
1635.77
1603.87
1573.87
1545.95
1520.28
1496.78
1475.22
1455.24
1436.84
1420.06
1404.65
1390.61
1377.3
1364.85
1352.96
1341.97
1331.78
1322.51
1313.88
1305.74
1297.8
1290.06
1282.68
1275.68
1269.04
1262.73
1256.75
1251.07
1245.65
1240.47
1235.56
1230.89
1226.45
1222.18
1218.09
1214.16
1210.41
1206.83
1203.39
1200.1
1196.95
1193.93
1191.06
1188.33
1185.73
1183.21
1180.8
1178.45
1176.24
1174.06
1172
1170.04
1168.18
1166.37
1164.73
1163.03
1161.46
1159.15
4448.02
2732.98
2753.15
2771.27
2775.32
2778.49
2776.85
2774.95
2771.65
2768.47
2764.87
2761.42
2757.93
2754.5
2750.99
2747.42
2743.7
2739.81
2735.72
2731.37
2726.76
2721.82
2716.51
2710.77
2704.54
2697.77
2690.41
2682.43
2673.78
2664.44
2654.36
2643.53
2631.91
2619.45
2606.09
2591.78
2576.48
2560.1
2542.58
2523.82
2503.71
2482.12
2458.91
2433.93
2406.99
2377.88
2346.37
2312.17
2275.01
2234.78
2191.63
2145.94
2098.51
2050.48
2002.95
1956.67
1911.84
1868.77
1827.42
1787.5
1748.94
1711.87
1676.31
1642.34
1610.07
1579.61
1551.14
1524.81
1500.7
1478.78
1458.8
1440.39
1423.33
1407.48
1392.88
1379.1
1366.27
1354.16
1343.34
1333.26
1323.86
1314.77
1305.88
1297.42
1289.45
1281.96
1274.93
1268.24
1261.88
1255.88
1250.27
1244.98
1239.86
1234.92
1230.17
1225.63
1221.26
1217.08
1213.1
1209.34
1205.74
1202.29
1198.99
1195.83
1192.81
1189.93
1187.21
1184.62
1182.12
1179.75
1177.45
1175.3
1173.18
1171.18
1169.28
1167.46
1165.66
1163.97
1162.25
1160.62
1158.26
4452.86
2732.36
2751.69
2770.14
2774.48
2777.97
2776.44
2774.56
2771.27
2768.1
2764.52
2761.08
2757.61
2754.21
2750.73
2747.19
2743.51
2739.66
2735.59
2731.27
2726.67
2721.75
2716.45
2710.71
2704.48
2697.7
2690.33
2682.34
2673.67
2664.3
2654.2
2643.33
2631.67
2619.17
2605.76
2591.4
2576.03
2559.59
2541.99
2523.13
2502.92
2481.21
2457.87
2432.73
2405.61
2376.31
2344.61
2310.24
2273.02
2232.91
2190.05
2144.94
2098.48
2051.63
2005.36
1960.31
1916.62
1874.16
1832.99
1793.07
1754.48
1717.32
1681.65
1647.52
1614.95
1584.1
1555.15
1528.28
1503.57
1481.06
1460.62
1442.04
1424.87
1408.77
1393.82
1379.91
1367.5
1355.76
1344.75
1334.18
1324.07
1314.48
1305.65
1297.52
1290
1282.78
1275.79
1269.08
1262.66
1256.58
1250.8
1245.31
1240.05
1235.04
1230.29
1225.77
1221.44
1217.31
1213.39
1209.66
1206.07
1202.62
1199.3
1196.14
1193.1
1190.19
1187.41
1184.75
1182.17
1179.71
1177.32
1175.07
1172.86
1170.8
1168.85
1167.02
1165.2
1163.52
1161.83
1160.3
1158.1
4457.67
2731.7
2750.38
2769.35
2773.76
2777.43
2775.98
2774.15
2770.88
2767.73
2764.16
2760.74
2757.28
2753.91
2750.47
2746.96
2743.32
2739.5
2735.46
2731.17
2726.58
2721.67
2716.38
2710.65
2704.42
2697.63
2690.26
2682.25
2673.56
2664.17
2654.04
2643.14
2631.45
2618.9
2605.45
2591.04
2575.62
2559.11
2541.43
2522.5
2502.19
2480.38
2456.91
2431.63
2404.36
2374.91
2343.06
2308.61
2271.41
2231.47
2188.97
2144.56
2099.13
2053.45
2008.24
1964.07
1920.87
1878.64
1837.83
1798.38
1760.22
1723.38
1687.89
1653.8
1621.22
1590.23
1560.99
1533.74
1508.58
1485.47
1464.2
1444.7
1426.88
1410.49
1395.42
1381.25
1368.23
1356.05
1344.79
1334.11
1324.25
1315.2
1306.89
1298.79
1290.89
1283.3
1276.02
1269.15
1262.72
1256.68
1250.94
1245.44
1240.14
1235.08
1230.24
1225.61
1221.17
1216.96
1212.95
1209.13
1205.46
1201.97
1198.65
1195.52
1192.54
1189.69
1186.97
1184.36
1181.85
1179.47
1177.15
1174.99
1172.88
1170.89
1168.98
1167.17
1165.37
1163.68
1161.97
1160.36
1158.03
4462.43
2731.3
2749.7
2769.06
2773.18
2776.89
2775.5
2773.73
2770.49
2767.35
2763.8
2760.39
2756.96
2753.61
2750.2
2746.73
2743.12
2739.34
2735.33
2731.06
2726.5
2721.6
2716.32
2710.59
2704.36
2697.57
2690.18
2682.16
2673.46
2664.04
2653.88
2642.96
2631.23
2618.65
2605.16
2590.71
2575.23
2558.66
2540.92
2521.91
2501.51
2479.61
2456.04
2430.65
2403.26
2373.69
2341.75
2307.28
2270.16
2230.41
2188.41
2144.87
2100.33
2055.49
2011.13
1967.75
1925.33
1884.12
1844.3
1805.62
1767.94
1731.32
1695.88
1661.72
1628.93
1597.64
1567.99
1540.19
1514.41
1490.73
1469.04
1449.18
1430.92
1414.1
1398.63
1384.09
1370.52
1357.74
1346.22
1335.53
1325.76
1316.44
1307.42
1298.71
1290.43
1282.71
1275.49
1268.69
1262.29
1256.2
1250.35
1244.72
1239.32
1234.21
1229.35
1224.73
1220.35
1216.21
1212.27
1208.48
1204.83
1201.33
1198
1194.83
1191.79
1188.87
1186.04
1183.33
1180.73
1178.25
1175.87
1173.64
1171.46
1169.42
1167.5
1165.71
1163.94
1162.3
1160.6
1159
1156.68
4467.13
2731.23
2749.5
2768.99
2772.7
2776.33
2774.99
2773.3
2770.1
2766.97
2763.43
2760.04
2756.62
2753.3
2749.92
2746.49
2742.92
2739.18
2735.2
2730.96
2726.41
2721.53
2716.26
2710.53
2704.3
2697.51
2690.11
2682.08
2673.36
2663.92
2653.74
2642.79
2631.03
2618.41
2604.89
2590.39
2574.86
2558.24
2540.44
2521.36
2500.9
2478.91
2455.26
2429.77
2402.29
2372.64
2340.67
2306.22
2269.23
2229.84
2188.51
2145.6
2101.79
2057.87
2014.58
1972.25
1931.07
1890.81
1851.4
1812.81
1775.09
1738.37
1702.78
1668.39
1635.31
1603.64
1573.52
1545.16
1518.7
1494.32
1472.06
1451.85
1433.34
1416.23
1400.44
1385.8
1372.58
1359.99
1348.31
1337.16
1326.64
1316.62
1307.28
1298.79
1291.11
1283.7
1276.54
1269.72
1263.23
1257.07
1251.09
1245.37
1239.93
1234.8
1229.92
1225.27
1220.86
1216.69
1212.68
1208.82
1205.11
1201.59
1198.24
1195.06
1192.02
1189.1
1186.27
1183.54
1180.92
1178.43
1176.02
1173.75
1171.52
1169.43
1167.48
1165.67
1163.88
1162.23
1160.51
1158.88
1156.47
4471.75
2731.39
2749.5
2769.02
2772.22
2775.75
2774.48
2772.87
2769.71
2766.59
2763.06
2759.68
2756.28
2752.98
2749.64
2746.24
2742.72
2739.01
2735.07
2730.85
2726.33
2721.46
2716.2
2710.48
2704.25
2697.45
2690.05
2682
2673.26
2663.81
2653.6
2642.62
2630.83
2618.19
2604.63
2590.1
2574.53
2557.86
2540.01
2520.87
2500.35
2478.29
2454.57
2429.01
2401.47
2371.78
2339.82
2305.45
2268.68
2229.73
2188.9
2146.62
2103.71
2060.98
2018.78
1977.37
1936.81
1896.66
1857.23
1818.75
1781.17
1744.56
1709.01
1674.63
1641.47
1609.63
1579.26
1550.54
1523.67
1498.75
1475.82
1454.85
1435.7
1418.14
1402.01
1386.96
1373.28
1360.47
1348.66
1337.38
1326.84
1317.07
1308.36
1300.03
1291.91
1284.05
1276.5
1269.43
1262.83
1256.57
1250.54
1244.77
1239.32
1234.17
1229.21
1224.47
1219.96
1215.67
1211.55
1207.61
1203.85
1200.29
1196.9
1193.68
1190.6
1187.64
1184.79
1182.07
1179.48
1177.04
1174.67
1172.42
1170.23
1168.17
1166.22
1164.37
1162.53
1160.83
1159.07
1157.42
1155.02
4476.32
2731.72
2749.56
2768.94
2771.67
2775.16
2773.98
2772.44
2769.31
2766.2
2762.68
2759.31
2755.94
2752.66
2749.35
2746
2742.51
2738.84
2734.93
2730.75
2726.24
2721.39
2716.14
2710.43
2704.2
2697.39
2689.98
2681.92
2673.17
2663.7
2653.47
2642.47
2630.65
2617.98
2604.39
2589.83
2574.22
2557.51
2539.61
2520.43
2499.85
2477.75
2453.97
2428.37
2400.79
2371.1
2339.18
2304.95
2268.46
2229.93
2189.59
2148.13
2106.31
2064.54
2023.03
1982.15
1941.89
1902.18
1863.47
1825.75
1788.8
1752.62
1717.31
1682.98
1649.78
1617.81
1587.2
1558.13
1530.81
1505.38
1481.89
1460.32
1440.56
1422.45
1405.84
1390.3
1375.9
1362.38
1350.14
1338.74
1328.4
1318.58
1309.22
1300.16
1291.54
1283.66
1276.44
1269.65
1263.14
1256.83
1250.7
1244.89
1239.42
1234.24
1229.28
1224.56
1220.07
1215.8
1211.69
1207.75
1203.99
1200.41
1196.97
1193.69
1190.52
1187.48
1184.55
1181.76
1179.1
1176.58
1174.13
1171.82
1169.6
1167.51
1165.53
1163.67
1161.81
1160.14
1158.4
1156.83
1154.52
4480.86
2732.07
2749.42
2768.7
2771
2774.56
2773.51
2772.02
2768.9
2765.8
2762.3
2758.94
2755.59
2752.34
2749.06
2745.74
2742.3
2738.67
2734.8
2730.64
2726.16
2721.32
2716.08
2710.38
2704.15
2697.34
2689.92
2681.85
2673.09
2663.6
2653.35
2642.33
2630.49
2617.79
2604.18
2589.58
2573.94
2557.2
2539.26
2520.04
2499.42
2477.28
2453.47
2427.84
2400.26
2370.6
2338.77
2304.72
2268.57
2230.42
2190.74
2150.19
2109.21
2068.02
2027.16
1987.02
1947.71
1909.23
1871.37
1834.07
1797.27
1761.09
1725.69
1691.22
1657.79
1625.51
1594.52
1564.98
1537.03
1510.87
1486.66
1464.47
1444.21
1425.68
1408.71
1393.03
1378.75
1365.28
1352.93
1341.2
1330.29
1319.78
1309.59
1300.38
1292.41
1284.98
1277.76
1270.7
1263.8
1257.2
1250.95
1245.1
1239.59
1234.34
1229.27
1224.45
1219.86
1215.47
1211.26
1207.26
1203.45
1199.84
1196.39
1193.1
1189.94
1186.94
1184.08
1181.35
1178.74
1176.25
1173.85
1171.59
1169.37
1167.25
1165.22
1163.3
1161.38
1159.62
1157.79
1156.12
1153.73
4485.39
2732.34
2749.05
2768.22
2770.21
2773.95
2773.06
2771.59
2768.49
2765.41
2761.91
2758.57
2755.23
2752.01
2748.77
2745.49
2742.08
2738.5
2734.66
2730.53
2726.08
2721.26
2716.03
2710.33
2704.1
2697.29
2689.87
2681.79
2673.01
2663.51
2653.24
2642.19
2630.33
2617.61
2603.98
2589.36
2573.7
2556.92
2538.96
2519.71
2499.06
2476.89
2453.06
2427.43
2399.87
2370.27
2338.56
2304.78
2268.92
2231.27
2192.33
2152.53
2112.14
2071.78
2031.99
1992.86
1954.46
1916.49
1878.54
1841.09
1804.23
1768.04
1732.62
1698.07
1664.49
1631.99
1600.71
1570.81
1542.42
1515.73
1490.87
1468
1447.09
1428.01
1410.56
1394.46
1379.85
1366.28
1353.87
1341.97
1330.83
1320.32
1310.86
1301.98
1293.65
1285.54
1277.59
1270.06
1262.96
1256.32
1250.19
1244.51
1239.07
1233.78
1228.67
1223.83
1219.23
1214.84
1210.63
1206.63
1202.81
1199.18
1195.67
1192.29
1189.03
1185.94
1183.01
1180.21
1177.54
1174.99
1172.54
1170.23
1167.96
1165.78
1163.75
1161.88
1160.02
1158.32
1156.54
1154.91
1152.64
4489.94
2732.5
2748.45
2767.5
2769.33
2773.33
2772.61
2771.17
2768.08
2765
2761.52
2758.19
2754.87
2751.68
2748.47
2745.23
2741.87
2738.32
2734.53
2730.43
2725.99
2721.19
2715.98
2710.28
2704.06
2697.25
2689.82
2681.73
2672.94
2663.42
2653.14
2642.07
2630.19
2617.46
2603.8
2589.16
2573.48
2556.69
2538.7
2519.43
2498.76
2476.57
2452.74
2427.13
2399.62
2370.11
2338.61
2305.05
2269.56
2232.49
2194.2
2154.99
2115.46
2076.23
2037.34
1998.76
1960.61
1922.61
1884.9
1847.97
1811.67
1775.9
1740.74
1706.32
1672.77
1640.21
1608.8
1578.65
1549.98
1522.97
1497.7
1474.29
1452.74
1433
1414.91
1398.17
1382.71
1368.32
1355.2
1342.89
1331.69
1321.37
1311.98
1302.72
1293.61
1285.09
1277.44
1270.4
1263.72
1257.34
1251.35
1245.67
1240.07
1234.59
1229.35
1224.42
1219.74
1215.28
1211
1206.95
1203.11
1199.47
1195.95
1192.55
1189.3
1186.22
1183.29
1180.49
1177.82
1175.25
1172.78
1170.43
1168.17
1166.03
1164.04
1162.19
1160.33
1158.64
1156.83
1155.16
1152.75
4494.56
2732.62
2747.67
2766.65
2768.41
2772.69
2772.14
2770.74
2767.66
2764.59
2761.12
2757.8
2754.5
2751.34
2748.16
2744.96
2741.65
2738.15
2734.39
2730.32
2725.91
2721.13
2715.92
2710.24
2704.02
2697.21
2689.77
2681.67
2672.88
2663.35
2653.05
2641.96
2630.07
2617.31
2603.64
2588.99
2573.3
2556.49
2538.49
2519.2
2498.52
2476.34
2452.53
2426.95
2399.51
2370.17
2338.83
2305.55
2270.51
2233.98
2196.26
2157.85
2119.36
2080.91
2042.39
2004.2
1966.52
1929.4
1892.81
1856.62
1820.77
1785.25
1750.2
1715.77
1682.11
1649.35
1617.67
1587.17
1558.02
1530.35
1504.38
1480.25
1458
1437.64
1419.05
1402.02
1386.46
1371.88
1358.49
1345.85
1334.25
1323.09
1312.46
1302.65
1293.82
1285.91
1278.76
1271.69
1264.55
1257.75
1251.38
1245.34
1239.43
1233.74
1228.42
1223.45
1218.71
1214.17
1209.83
1205.74
1201.88
1198.19
1194.61
1191.16
1187.91
1184.85
1181.95
1179.17
1176.5
1173.92
1171.43
1169.09
1166.86
1164.71
1162.67
1160.76
1158.84
1157.13
1155.28
1153.61
1151.2
4499.26
2732.73
2746.78
2765.71
2767.44
2772
2771.65
2770.3
2767.24
2764.18
2760.72
2757.41
2754.13
2750.99
2747.85
2744.69
2741.42
2737.97
2734.25
2730.21
2725.83
2721.07
2715.88
2710.2
2703.98
2697.17
2689.73
2681.62
2672.82
2663.28
2652.97
2641.87
2629.96
2617.19
2603.51
2588.85
2573.15
2556.33
2538.32
2519.03
2498.36
2476.19
2452.39
2426.9
2399.58
2370.36
2339.24
2306.3
2271.7
2235.7
2198.68
2161.17
2123.4
2085.33
2047.46
2010.2
1973.52
1937.38
1901.16
1864.9
1828.96
1793.37
1758.24
1723.72
1689.91
1656.94
1624.96
1594.14
1564.56
1536.32
1509.66
1484.78
1461.8
1440.76
1421.6
1404.1
1388.23
1373.51
1360.18
1347.63
1336.11
1324.79
1314.06
1304.13
1295.29
1287.06
1279.13
1271.46
1264.07
1257.22
1250.9
1244.87
1239.04
1233.53
1228.43
1223.65
1219
1214.48
1210.14
1206.06
1202.17
1198.39
1194.69
1191.17
1187.84
1184.7
1181.7
1178.81
1176.02
1173.34
1170.8
1168.42
1166.12
1163.89
1161.81
1159.89
1157.95
1156.21
1154.34
1152.69
1150.32
4504.08
2732.81
2745.74
2764.62
2766.42
2771.29
2771.14
2769.86
2766.82
2763.77
2760.32
2757.02
2753.76
2750.64
2747.54
2744.42
2741.2
2737.79
2734.11
2730.11
2725.75
2721.01
2715.83
2710.16
2703.95
2697.14
2689.69
2681.58
2672.77
2663.22
2652.9
2641.79
2629.86
2617.09
2603.4
2588.73
2573.03
2556.21
2538.2
2518.92
2498.24
2476.11
2452.4
2426.98
2399.76
2370.72
2339.86
2307.27
2273.14
2237.72
2201.46
2164.64
2127.35
2090.08
2053.35
2016.95
1980.73
1944.61
1908.23
1872.08
1836.42
1801.15
1766.27
1731.88
1698.1
1665.08
1632.96
1601.91
1572.08
1543.69
1516.75
1491.48
1467.99
1446.34
1426.5
1408.25
1391.43
1375.81
1361.73
1348.69
1337.02
1326.08
1315.63
1305.52
1296.05
1287.22
1279.16
1271.78
1264.86
1258.18
1251.7
1245.41
1239.41
1233.85
1228.7
1223.81
1218.99
1214.31
1209.89
1205.73
1201.71
1197.82
1194.1
1190.62
1187.33
1184.17
1181.11
1178.18
1175.36
1172.69
1170.15
1167.73
1165.37
1163.09
1160.95
1158.94
1156.89
1154.99
1152.97
1151.13
1148.56
4509
2732.85
2744.47
2763.36
2765.38
2770.58
2770.63
2769.41
2766.39
2763.34
2759.9
2756.61
2753.37
2750.29
2747.22
2744.15
2740.97
2737.6
2733.97
2730
2725.67
2720.95
2715.79
2710.13
2703.92
2697.11
2689.66
2681.54
2672.73
2663.17
2652.84
2641.72
2629.79
2617
2603.31
2588.65
2572.94
2556.13
2538.12
2518.85
2498.24
2476.15
2452.49
2427.16
2400.09
2371.25
2340.67
2308.47
2274.82
2240.04
2204.42
2168.16
2131.67
2095.48
2059.43
2023.23
1987.19
1951.36
1915.79
1880.58
1845.62
1810.84
1776.25
1742.01
1708.26
1675.16
1642.89
1611.58
1581.41
1552.55
1525.07
1499.2
1475.03
1452.66
1432.14
1413.36
1396.2
1380.24
1365.71
1352.01
1339.29
1327.17
1316.08
1305.83
1296.6
1288.14
1280.47
1272.97
1265.43
1258.2
1251.24
1244.7
1238.79
1233.45
1228.44
1223.52
1218.6
1213.88
1209.44
1205.24
1201.13
1197.15
1193.39
1189.88
1186.49
1183.19
1179.99
1176.94
1174.08
1171.39
1168.84
1166.42
1164.1
1161.91
1159.87
1157.94
1155.97
1154.17
1152.26
1150.57
1148.18
4514.01
2732.89
2743.03
2762.02
2764.36
2769.89
2770.13
2768.96
2765.96
2762.92
2759.49
2756.21
2752.99
2749.93
2746.9
2743.87
2740.74
2737.42
2733.83
2729.9
2725.6
2720.89
2715.75
2710.1
2703.89
2697.08
2689.63
2681.51
2672.69
2663.13
2652.8
2641.67
2629.73
2616.94
2603.25
2588.59
2572.89
2556.08
2538.11
2518.88
2498.29
2476.25
2452.67
2427.46
2400.55
2371.94
2341.68
2309.87
2276.75
2242.56
2207.53
2172.01
2136.47
2100.92
2065.06
2029.35
1994.1
1959.28
1924.74
1889.85
1854.9
1820.1
1785.49
1751.2
1717.36
1684.1
1651.59
1620.01
1589.46
1559.94
1531.82
1505.23
1480.26
1457.11
1435.84
1416.43
1398.87
1382.78
1368.29
1354.7
1342.26
1329.98
1318.71
1308.3
1298.83
1289.81
1281.06
1272.79
1265.11
1258.1
1251.64
1245.6
1240.03
1234.72
1229.4
1224.12
1218.96
1214.1
1209.57
1205.26
1201.12
1197.2
1193.54
1190.08
1186.7
1183.4
1180.22
1177.21
1174.39
1171.71
1169.16
1166.77
1164.49
1162.29
1160.19
1158.19
1156.15
1154.29
1152.29
1150.48
1147.9
4519.17
2733.03
2741.57
2760.74
2763.4
2769.24
2769.63
2768.51
2765.52
2762.49
2759.06
2755.8
2752.6
2749.57
2746.58
2743.59
2740.5
2737.23
2733.68
2729.79
2725.52
2720.84
2715.71
2710.07
2703.87
2697.06
2689.61
2681.49
2672.66
2663.1
2652.76
2641.63
2629.69
2616.9
2603.21
2588.55
2572.87
2556.1
2538.15
2518.95
2498.4
2476.44
2452.96
2427.88
2401.16
2372.81
2342.87
2311.51
2278.9
2245.27
2210.9
2176.2
2141.32
2106.08
2070.93
2036.33
2001.89
1967.49
1932.89
1897.78
1862.84
1828.19
1793.75
1759.57
1725.76
1692.44
1659.79
1628
1597.19
1567.51
1539.08
1512.04
1486.68
1463.07
1441.21
1421.09
1402.64
1385.63
1370.22
1356
1343.52
1331.8
1320.81
1310.16
1299.96
1290.29
1281.38
1273.52
1266.53
1259.68
1252.87
1246.38
1240.2
1234.3
1228.49
1222.87
1217.6
1212.75
1208.2
1203.81
1199.63
1195.75
1192.13
1188.64
1185.21
1181.9
1178.79
1175.87
1173.09
1170.43
1167.88
1165.45
1163.07
1160.75
1158.55
1156.52
1154.49
1152.7
1150.73
1148.97
1146.52
4524.58
2733.33
2740.21
2759.56
2762.48
2768.6
2769.14
2768.05
2765.08
2762.05
2758.64
2755.39
2752.21
2749.21
2746.25
2743.31
2740.27
2737.05
2733.54
2729.69
2725.44
2720.79
2715.67
2710.05
2703.86
2697.05
2689.59
2681.47
2672.65
2663.08
2652.74
2641.61
2629.66
2616.87
2603.2
2588.56
2572.9
2556.15
2538.23
2519.07
2498.6
2476.71
2453.34
2428.42
2401.91
2373.83
2344.26
2313.33
2281.23
2248.2
2214.55
2180.51
2146.08
2111.61
2077.58
2043.55
2009.2
1974.8
1940.37
1906
1871.84
1837.82
1803.83
1769.93
1736.27
1703
1670.29
1638.31
1607.25
1577.38
1548.56
1521.07
1495.2
1470.97
1448.41
1427.63
1408.6
1391.03
1374.91
1359.67
1345.78
1333
1321.5
1310.63
1300.49
1291.13
1282.93
1275.1
1267.34
1259.76
1252.45
1245.68
1239.46
1233.65
1228.05
1222.71
1217.74
1213.05
1208.46
1204.01
1199.84
1196
1192.31
1188.66
1185.1
1181.74
1178.61
1175.65
1172.82
1170.1
1167.46
1164.91
1162.44
1160.06
1157.88
1155.9
1153.89
1152.09
1150.12
1148.34
1145.8
4530.24
2733.77
2738.94
2758.43
2761.59
2767.96
2768.64
2767.58
2764.63
2761.61
2758.21
2754.97
2751.81
2748.84
2745.92
2743.02
2740.04
2736.86
2733.4
2729.58
2725.37
2720.74
2715.64
2710.03
2703.84
2697.04
2689.58
2681.46
2672.64
2663.07
2652.74
2641.61
2629.67
2616.88
2603.21
2588.6
2572.96
2556.24
2538.36
2519.26
2498.86
2477.07
2453.84
2429.09
2402.81
2375.03
2345.83
2315.35
2283.77
2251.36
2218.34
2184.85
2151.16
2117.68
2084.15
2050.13
2016.19
1982.52
1949.14
1915.75
1881.91
1848.01
1814.1
1780.25
1746.59
1713.25
1680.4
1648.21
1616.83
1586.33
1556.98
1529.01
1502.28
1477.1
1453.64
1432.07
1412.42
1394.54
1378.4
1363.37
1349.72
1336.57
1324.5
1313.25
1303.05
1293.39
1284.21
1275.51
1267.24
1259.65
1252.75
1246.24
1240.01
1233.99
1228.13
1222.68
1217.58
1212.7
1207.93
1203.4
1199.23
1195.33
1191.5
1187.76
1184.21
1180.93
1177.84
1174.86
1171.96
1169.14
1166.35
1163.68
1161.11
1158.65
1156.37
1154.28
1152.17
1150.29
1148.26
1146.42
1143.85
4535.88
2734.25
2737.68
2757.31
2760.69
2767.31
2768.13
2767.11
2764.18
2761.17
2757.78
2754.56
2751.42
2748.48
2745.59
2742.74
2739.8
2736.67
2733.26
2729.48
2725.3
2720.69
2715.61
2710.01
2703.84
2697.03
2689.58
2681.46
2672.63
2663.08
2652.75
2641.62
2629.69
2616.91
2603.26
2588.66
2573.05
2556.37
2538.55
2519.52
2499.2
2477.53
2454.44
2429.88
2403.85
2376.38
2347.56
2317.54
2286.51
2254.68
2222.25
2189.45
2156.62
2123.68
2090.29
2056.98
2024.1
1991.2
1958.18
1924.73
1890.7
1856.77
1822.92
1789.15
1755.52
1722.15
1689.18
1656.83
1625.21
1594.37
1564.66
1536.2
1509.04
1483.53
1459.63
1437.43
1416.94
1398.14
1380.99
1365.32
1351.51
1338.53
1326.61
1315.29
1304.76
1294.7
1285.01
1276.16
1268.43
1261.08
1253.88
1246.91
1240.05
1233.54
1227.72
1222.49
1217.51
1212.59
1207.79
1203.27
1199.01
1194.91
1190.86
1186.99
1183.38
1180.04
1176.84
1173.73
1170.7
1167.77
1164.94
1162.28
1159.76
1157.35
1155.12
1153.08
1151.03
1149.2
1147.2
1145.44
1142.87
4541.36
2734.7
2736.39
2756.18
2759.79
2766.65
2767.6
2766.62
2763.72
2760.73
2757.35
2754.14
2751.02
2748.11
2745.26
2742.45
2739.56
2736.49
2733.12
2729.38
2725.23
2720.65
2715.58
2710
2703.83
2697.04
2689.59
2681.46
2672.64
2663.09
2652.77
2641.65
2629.73
2616.97
2603.33
2588.76
2573.19
2556.55
2538.8
2519.84
2499.62
2478.07
2455.15
2430.8
2405.03
2377.89
2349.47
2319.91
2289.42
2258.17
2226.37
2194.32
2162.08
2129.47
2096.85
2064.65
2032.21
1999.32
1966.23
1932.93
1899.52
1866.19
1832.88
1799.49
1766.11