/*--------------------------------*- C++ -*----------------------------------*\
| =========                 |                                                 |
| \\      /  F ield         | OpenFOAM: The Open Source CFD Toolbox           |
|  \\    /   O peration     | Version:  2412                                  |
|   \\  /    A nd           | Website:  www.openfoam.com                      |
|    \\/     M anipulation  |                                                 |
\*---------------------------------------------------------------------------*/
FoamFile
{
    version     2.0;
    format      ascii;
    arch        "LSB;label=32;scalar=64";
    class       volScalarField;
    location    "0.076";
    object      T;
}
// * * * * * * * * * * * * * * * * * * * * * * * * * * * * * * * * * * * * * //

dimensions      [0 0 0 1 0 0 0];

internalField   nonuniform List<scalar> 
9816
(
227.184
227.194
227.202
227.208
227.211
227.212
227.211
227.208
227.202
227.195
227.186
227.176
227.165
227.153
227.139
227.124
227.106
227.089
227.068
227.044
227.017
226.985
226.95
226.911
226.872
226.836
226.808
226.791
226.787
226.794
226.836
226.935
227.11
227.356
227.657
228.001
228.374
228.777
229.202
229.658
230.099
230.506
225.659
225.642
225.624
225.604
225.585
225.565
225.545
225.525
225.504
225.485
225.466
225.447
225.428
225.409
225.386
225.363
225.335
225.303
225.266
225.228
225.192
225.163
225.144
225.139
225.145
225.188
225.291
225.48
225.749
226.087
226.466
226.87
227.276
227.68
228.074
228.444
228.777
229.047
229.246
229.363
229.412
229.398
224.928
224.913
224.898
224.883
224.869
224.855
224.841
224.829
224.817
224.805
224.793
224.78
224.764
224.747
224.725
224.7
224.675
224.653
224.636
224.628
224.627
224.636
224.669
224.743
224.872
225.067
225.33
225.658
226.047
226.484
226.949
227.417
227.851
228.212
228.496
228.709
228.814
228.846
228.874
228.886
228.882
228.853
224.479
224.468
224.456
224.445
224.434
224.423
224.414
224.404
224.396
224.386
224.374
224.361
224.344
224.324
224.302
224.281
224.264
224.253
224.25
224.255
224.273
224.319
224.408
224.559
224.782
225.087
225.464
225.908
226.392
226.889
227.365
227.78
228.083
228.306
228.467
228.531
228.532
228.534
228.535
228.532
228.518
228.484
224.143
224.134
224.126
224.118
224.111
224.105
224.1
224.095
224.088
224.081
224.071
224.058
224.043
224.027
224.012
224.001
223.996
223.995
224.002
224.022
224.072
224.163
224.316
224.54
224.846
225.23
225.688
226.191
226.703
227.181
227.597
227.9
228.074
228.199
228.284
228.311
228.304
228.286
228.281
228.271
228.255
228.229
223.905
223.9
223.894
223.889
223.885
223.88
223.876
223.871
223.865
223.856
223.846
223.833
223.821
223.81
223.803
223.8
223.802
223.811
223.835
223.886
223.979
224.129
224.349
224.649
225.033
225.488
225.992
226.504
226.985
227.384
227.685
227.908
228.029
228.058
228.079
228.105
228.126
228.134
228.129
228.106
228.071
228.027
223.699
223.694
223.689
223.685
223.681
223.676
223.672
223.666
223.659
223.65
223.64
223.63
223.622
223.618
223.618
223.62
223.63
223.655
223.707
223.796
223.941
224.154
224.448
224.825
225.277
225.776
226.289
226.773
227.18
227.488
227.718
227.85
227.885
227.908
227.938
227.966
227.983
227.984
227.971
227.942
227.908
227.869
223.526
223.523
223.52
223.517
223.515
223.512
223.508
223.503
223.496
223.488
223.48
223.474
223.471
223.47
223.472
223.48
223.501
223.543
223.619
223.745
223.937
224.208
224.563
224.995
225.485
225.999
226.496
226.931
227.283
227.545
227.696
227.757
227.807
227.851
227.873
227.88
227.871
227.861
227.851
227.839
227.824
227.803
223.387
223.384
223.381
223.379
223.376
223.372
223.367
223.361
223.353
223.345
223.338
223.333
223.331
223.332
223.336
223.349
223.378
223.434
223.531
223.684
223.91
224.217
224.607
225.067
225.573
226.087
226.568
226.98
227.31
227.535
227.651
227.726
227.785
227.811
227.815
227.811
227.81
227.812
227.815
227.816
227.81
227.791
223.267
223.264
223.262
223.26
223.257
223.253
223.247
223.24
223.232
223.225
223.219
223.215
223.214
223.216
223.223
223.24
223.277
223.345
223.46
223.637
223.889
224.223
224.636
225.111
225.623
226.132
226.603
227.006
227.323
227.531
227.653
227.742
227.791
227.801
227.798
227.804
227.814
227.825
227.833
227.834
227.824
227.799
223.159
223.158
223.157
223.155
223.152
223.148
223.142
223.135
223.128
223.122
223.117
223.115
223.116
223.119
223.129
223.154
223.203
223.29
223.429
223.636
223.916
224.277
224.71
225.199
225.712
226.217
226.677
227.067
227.363
227.563
227.703
227.784
227.805
227.81
227.826
227.845
227.863
227.872
227.871
227.861
227.843
227.822
223.071
223.069
223.067
223.064
223.06
223.056
223.05
223.045
223.04
223.036
223.034
223.034
223.037
223.045
223.065
223.105
223.178
223.295
223.47
223.714
224.037
224.436
224.901
225.407
225.923
226.416
226.853
227.216
227.492
227.671
227.781
227.859
227.899
227.905
227.906
227.914
227.923
227.933
227.939
227.939
227.93
227.911
222.996
222.994
222.992
222.99
222.987
222.983
222.98
222.977
222.974
222.973
222.974
222.977
222.985
223.004
223.042
223.109
223.217
223.38
223.611
223.92
224.307
224.762
225.267
225.791
226.303
226.771
227.167
227.477
227.71
227.864
227.937
227.978
228.016
228.042
228.052
228.053
228.049
228.045
228.043
228.041
228.036
228.026
222.929
222.927
222.925
222.923
222.92
222.917
222.916
222.915
222.914
222.915
222.918
222.928
222.947
222.986
223.053
223.161
223.325
223.56
223.872
224.267
224.734
225.253
225.796
226.329
226.819
227.242
227.576
227.819
227.996
228.105
228.143
228.162
228.186
228.21
228.227
228.232
228.23
228.22
228.208
228.197
228.183
228.167
222.879
222.878
222.875
222.873
222.871
222.87
222.869
222.869
222.87
222.873
222.882
222.901
222.938
223.003
223.11
223.275
223.512
223.833
224.24
224.726
225.271
225.844
226.41
226.933
227.383
227.748
228.019
228.191
228.295
228.372
228.415
228.426
228.43
228.434
228.438
228.445
228.45
228.451
228.444
228.427
228.403
228.372
222.835
222.832
222.829
222.826
222.824
222.822
222.822
222.822
222.824
222.831
222.847
222.88
222.941
223.041
223.198
223.426
223.742
224.149
224.645
225.209
225.816
226.425
226.999
227.502
227.911
228.213
228.427
228.571
228.64
228.663
228.687
228.71
228.729
228.739
228.74
228.735
228.725
228.714
228.701
228.684
228.663
228.636
222.802
222.799
222.796
222.793
222.791
222.79
222.789
222.791
222.796
222.809
222.836
222.888
222.976
223.116
223.327
223.623
224.014
224.501
225.071
225.698
226.345
226.972
227.537
228.014
228.39
228.656
228.818
228.925
228.996
229.024
229.029
229.035
229.042
229.052
229.061
229.067
229.064
229.053
229.034
229.008
228.976
228.939
222.779
222.775
222.772
222.77
222.768
222.768
222.768
222.773
222.784
222.809
222.854
222.932
223.058
223.252
223.528
223.901
224.373
224.938
225.573
226.244
226.912
227.535
228.078
228.514
228.848
229.082
229.212
229.276
229.329
229.37
229.386
229.389
229.386
229.385
229.385
229.387
229.389
229.385
229.373
229.348
229.312
229.268
222.763
222.759
222.757
222.755
222.755
222.756
222.761
222.773
222.796
222.839
222.915
223.039
223.229
223.502
223.871
224.342
224.909
225.554
226.244
226.939
227.597
228.182
228.664
229.039
229.306
229.462
229.548
229.615
229.659
229.674
229.676
229.676
229.678
229.683
229.688
229.69
229.685
229.669
229.64
229.601
229.554
229.503
222.76
222.759
222.758
222.758
222.759
222.764
222.777
222.802
222.85
222.933
223.068
223.272
223.564
223.956
224.453
225.047
225.717
226.43
227.144
227.816
228.411
228.899
229.267
229.535
229.714
229.797
229.828
229.864
229.896
229.919
229.926
229.924
229.913
229.9
229.887
229.869
229.845
229.814
229.778
229.735
229.688
229.638
222.763
222.762
222.763
222.765
222.772
222.786
222.816
222.87
222.964
223.116
223.346
223.671
224.104
224.648
225.29
226.003
226.748
227.481
228.152
228.727
229.189
229.529
229.74
229.871
229.967
230.016
230.029
230.029
230.033
230.038
230.041
230.042
230.035
230.015
229.982
229.94
229.889
229.836
229.783
229.734
229.688
229.647
222.769
222.769
222.771
222.777
222.793
222.824
222.885
222.989
223.157
223.41
223.769
224.244
224.836
225.528
226.286
227.063
227.806
228.472
229.014
229.421
229.719
229.903
229.97
230.007
230.048
230.082
230.101
230.107
230.1
230.083
230.066
230.048
230.027
229.999
229.966
229.926
229.88
229.831
229.78
229.729
229.68
229.634
222.779
222.781
222.788
222.804
222.838
222.902
223.012
223.192
223.461
223.844
224.349
224.976
225.701
226.486
227.28
228.024
228.667
229.18
229.561
229.797
229.918
230.003
230.061
230.085
230.092
230.089
230.087
230.086
230.085
230.08
230.068
230.046
230.011
229.966
229.913
229.856
229.799
229.745
229.695
229.651
229.612
229.578
222.796
222.803
222.821
222.858
222.925
223.041
223.229
223.512
223.909
224.432
225.075
225.813
226.603
227.389
228.116
228.735
229.215
229.568
229.803
229.915
229.965
230.012
230.05
230.068
230.074
230.069
230.056
230.044
230.028
230.006
229.975
229.936
229.887
229.832
229.774
229.716
229.66
229.61
229.564
229.524
229.489
229.458
222.826
222.848
222.891
222.966
223.095
223.297
223.597
224.012
224.552
225.204
225.942
226.718
227.478
228.167
228.747
229.191
229.506
229.719
229.849
229.909
229.942
229.964
229.976
229.981
229.977
229.964
229.943
229.911
229.871
229.823
229.77
229.713
229.655
229.597
229.543
229.492
229.446
229.404
229.367
229.334
229.303
229.275
222.89
222.944
223.04
223.192
223.426
223.759
224.209
224.773
225.44
226.17
226.921
227.632
228.266
228.776
229.167
229.433
229.609
229.714
229.776
229.799
229.81
229.811
229.808
229.797
229.774
229.739
229.694
229.64
229.58
229.518
229.456
229.395
229.338
229.286
229.24
229.198
229.16
229.127
229.097
229.069
229.043
229.017
223.027
223.154
223.352
223.638
224.031
224.534
225.142
225.824
226.545
227.247
227.89
228.426
228.849
229.147
229.351
229.473
229.548
229.578
229.59
229.59
229.584
229.568
229.538
229.495
229.442
229.381
229.316
229.25
229.185
229.123
229.066
229.014
228.967
228.926
228.889
228.855
228.824
228.796
228.769
228.743
228.718
228.692
223.314
223.576
223.94
224.413
224.99
225.646
226.344
227.032
227.665
228.198
228.619
228.917
229.121
229.24
229.315
229.346
229.356
229.354
229.343
229.315
229.272
229.215
229.149
229.078
229.007
228.936
228.869
228.806
228.75
228.698
228.652
228.611
228.573
228.539
228.508
228.478
228.451
228.424
228.399
228.375
228.351
228.327
223.849
224.305
224.868
225.521
226.215
226.905
227.531
228.059
228.469
228.752
228.937
229.043
229.11
229.139
229.147
229.139
229.117
229.075
229.016
228.943
228.862
228.776
228.693
228.614
228.542
228.478
228.422
228.373
228.329
228.29
228.253
228.219
228.187
228.156
228.126
228.098
228.071
228.045
228.02
227.997
227.974
227.952
224.674
225.323
226.03
226.742
227.391
227.935
228.352
228.623
228.773
228.869
228.942
228.977
228.982
228.963
228.924
228.864
228.789
228.702
228.61
228.516
228.427
228.341
228.263
228.191
228.128
228.072
228.023
227.981
227.943
227.91
227.879
227.851
227.824
227.799
227.775
227.752
227.73
227.708
227.687
227.666
227.646
227.626
225.695
226.434
227.132
227.731
228.177
228.46
228.654
228.767
228.808
228.809
228.815
228.807
228.778
228.725
228.645
228.544
228.432
228.315
228.205
228.105
228.019
227.945
227.883
227.831
227.786
227.747
227.712
227.679
227.647
227.617
227.587
227.558
227.53
227.503
227.476
227.451
227.427
227.404
227.382
227.361
227.342
227.322
226.688
227.357
227.887
228.276
228.515
228.6
228.653
228.701
228.719
228.717
228.688
228.627
228.535
228.423
228.298
228.176
228.061
227.959
227.872
227.797
227.732
227.674
227.623
227.576
227.532
227.491
227.453
227.417
227.384
227.353
227.324
227.297
227.272
227.249
227.228
227.208
227.189
227.171
227.155
227.139
227.124
227.108
227.451
227.951
228.247
228.449
228.574
228.611
228.601
228.596
228.58
228.545
228.482
228.389
228.271
228.14
228.007
227.883
227.773
227.682
227.607
227.545
227.494
227.45
227.411
227.374
227.339
227.306
227.272
227.24
227.208
227.178
227.149
227.121
227.095
227.07
227.047
227.026
227.006
226.987
226.969
226.953
226.937
226.922
227.886
228.216
228.412
228.476
228.494
228.508
228.514
228.497
228.457
228.38
228.27
228.135
227.994
227.858
227.739
227.639
227.557
227.491
227.436
227.389
227.347
227.306
227.266
227.227
227.189
227.151
227.115
227.081
227.049
227.019
226.991
226.965
226.942
226.92
226.9
226.882
226.865
226.849
226.834
226.82
226.807
226.794
228.131
228.312
228.376
228.419
228.434
228.438
228.42
228.37
228.282
228.166
228.027
227.89
227.76
227.648
227.555
227.478
227.413
227.357
227.306
227.258
227.213
227.17
227.128
227.088
227.051
227.017
226.985
226.955
226.928
226.903
226.88
226.859
226.84
226.821
226.803
226.787
226.771
226.756
226.741
226.727
226.713
226.699
228.187
228.271
228.336
228.362
228.362
228.339
228.285
228.195
228.084
227.952
227.82
227.696
227.587
227.494
227.415
227.345
227.283
227.227
227.176
227.129
227.085
227.045
227.008
226.975
226.944
226.916
226.89
226.865
226.842
226.82
226.799
226.778
226.758
226.738
226.719
226.7
226.682
226.665
226.648
226.632
226.616
226.6
228.157
228.247
228.281
228.277
228.251
228.203
228.128
228.024
227.904
227.775
227.652
227.539
227.439
227.352
227.276
227.209
227.151
227.1
227.055
227.014
226.978
226.946
226.915
226.887
226.861
226.835
226.809
226.784
226.76
226.735
226.711
226.687
226.664
226.642
226.62
226.6
226.58
226.562
226.545
226.528
226.512
226.497
228.148
228.185
228.177
228.158
228.123
228.072
227.985
227.874
227.746
227.616
227.49
227.379
227.283
227.203
227.137
227.082
227.035
226.994
226.958
226.924
226.892
226.86
226.829
226.799
226.768
226.738
226.708
226.68
226.652
226.625
226.6
226.576
226.554
226.533
226.513
226.495
226.478
226.463
226.449
226.435
226.422
226.41
228.065
228.069
228.073
228.058
228.022
227.95
227.842
227.71
227.57
227.436
227.32
227.224
227.145
227.082
227.028
226.982
226.939
226.898
226.858
226.82
226.782
226.746
226.711
226.678
226.647
226.618
226.591
226.565
226.541
226.519
226.499
226.479
226.461
226.444
226.429
226.414
226.4
226.386
226.374
226.362
226.35
226.339
227.976
227.979
227.977
227.95
227.893
227.795
227.674
227.536
227.403
227.281
227.178
227.092
227.021
226.96
226.908
226.86
226.816
226.775
226.735
226.697
226.662
226.628
226.596
226.566
226.539
226.513
226.488
226.465
226.443
226.422
226.403
226.384
226.367
226.35
226.334
226.319
226.305
226.291
226.278
226.266
226.254
226.242
227.876
227.87
227.854
227.815
227.74
227.637
227.508
227.373
227.243
227.127
227.029
226.947
226.881
226.825
226.776
226.733
226.692
226.654
226.617
226.581
226.547
226.514
226.483
226.453
226.425
226.399
226.374
226.351
226.329
226.308
226.289
226.271
226.254
226.238
226.223
226.209
226.196
226.184
226.172
226.161
226.15
226.14
227.77
227.767
227.738
227.677
227.578
227.459
227.323
227.194
227.074
226.972
226.885
226.813
226.751
226.697
226.648
226.603
226.562
226.523
226.486
226.451
226.418
226.387
226.358
226.331
226.305
226.281
226.258
226.237
226.217
226.198
226.18
226.163
226.147
226.132
226.118
226.104
226.092
226.079
226.068
226.057
226.046
226.035
227.669
227.649
227.597
227.514
227.398
227.268
227.137
227.016
226.91
226.82
226.743
226.676
226.616
226.562
226.513
226.467
226.426
226.387
226.352
226.32
226.29
226.262
226.236
226.212
226.189
226.168
226.147
226.126
226.107
226.088
226.071
226.053
226.037
226.021
226.006
225.992
225.979
225.966
225.954
225.942
225.931
225.92
227.539
227.502
227.434
227.332
227.213
227.082
226.959
226.846
226.749
226.664
226.591
226.527
226.471
226.42
226.374
226.333
226.295
226.261
226.229
226.2
226.172
226.146
226.121
226.097
226.073
226.051
226.029
226.007
225.987
225.967
225.948
225.931
225.914
225.898
225.883
225.869
225.856
225.843
225.832
225.821
225.811
225.8
227.396
227.343
227.265
227.155
227.029
226.899
226.778
226.671
226.579
226.501
226.436
226.38
226.331
226.288
226.248
226.211
226.177
226.144
226.112
226.081
226.052
226.024
225.996
225.97
225.945
225.922
225.899
225.878
225.858
225.839
225.821
225.805
225.789
225.775
225.761
225.749
225.737
225.727
225.717
225.707
225.698
225.689
227.25
227.194
227.095
226.976
226.841
226.71
226.593
226.493
226.412
226.346
226.292
226.246
226.205
226.166
226.129
226.092
226.056
226.021
225.986
225.953
225.921
225.891
225.864
225.837
225.813
225.791
225.77
225.75
225.733
225.716
225.701
225.686
225.673
225.661
225.649
225.638
225.628
225.618
225.609
225.6
225.591
225.582
227.1
227.03
226.916
226.788
226.653
226.53
226.423
226.336
226.265
226.206
226.157
226.113
226.073
226.035
225.998
225.961
225.926
225.891
225.858
225.827
225.797
225.769
225.742
225.717
225.694
225.672
225.652
225.633
225.616
225.599
225.584
225.57
225.556
225.544
225.532
225.521
225.51
225.5
225.49
225.481
225.472
225.463
226.941
226.856
226.737
226.607
226.48
226.367
226.271
226.193
226.128
226.073
226.025
225.981
225.941
225.902
225.865
225.83
225.797
225.765
225.735
225.706
225.678
225.652
225.627
225.604
225.581
225.56
225.539
225.52
225.502
225.485
225.469
225.454
225.439
225.426
225.413
225.401
225.39
225.38
225.37
225.36
225.351
225.341
226.783
226.687
226.57
226.443
226.324
226.219
226.131
226.057
225.995
225.941
225.893
225.851
225.811
225.775
225.74
225.707
225.676
225.646
225.617
225.59
225.563
225.538
225.513
225.49
225.467
225.445
225.425
225.406
225.387
225.37
225.353
225.338
225.324
225.31
225.297
225.285
225.274
225.264
225.254
225.244
225.235
225.226
226.633
226.533
226.418
226.293
226.18
226.079
225.994
225.922
225.862
225.81
225.766
225.726
225.689
225.655
225.623
225.592
225.562
225.532
225.504
225.476
225.449
225.423
225.398
225.374
225.351
225.33
225.309
225.29
225.272
225.255
225.24
225.225
225.211
225.198
225.186
225.175
225.165
225.155
225.146
225.137
225.128
225.12
226.495
226.391
226.274
226.15
226.037
225.938
225.856
225.789
225.734
225.687
225.647
225.611
225.576
225.543
225.51
225.478
225.447
225.416
225.387
225.358
225.331
225.305
225.281
225.258
225.236
225.216
225.197
225.18
225.163
225.148
225.134
225.121
225.108
225.097
225.086
225.075
225.065
225.056
225.047
225.039
225.03
225.022
226.36
226.25
226.128
226.003
225.893
225.799
225.725
225.664
225.615
225.573
225.534
225.498
225.462
225.427
225.393
225.359
225.327
225.296
225.267
225.24
225.215
225.191
225.169
225.148
225.129
225.111
225.094
225.078
225.063
225.049
225.036
225.023
225.011
225
224.989
224.978
224.968
224.958
224.949
224.94
224.931
224.923
226.214
226.104
225.983
225.863
225.758
225.67
225.599
225.542
225.494
225.452
225.413
225.377
225.341
225.307
225.274
225.242
225.212
225.183
225.156
225.13
225.106
225.083
225.062
225.042
225.024
225.006
224.989
224.973
224.959
224.944
224.931
224.918
224.906
224.894
224.883
224.872
224.862
224.852
224.843
224.834
224.825
224.817
226.063
225.954
225.835
225.72
225.621
225.539
225.472
225.417
225.37
225.328
225.29
225.254
225.22
225.187
225.156
225.126
225.097
225.07
225.044
225.019
224.996
224.974
224.953
224.933
224.914
224.897
224.88
224.864
224.849
224.834
224.821
224.808
224.796
224.784
224.773
224.763
224.753
224.744
224.735
224.726
224.718
224.709
225.909
225.797
225.679
225.57
225.477
225.401
225.34
225.289
225.245
225.206
225.169
225.133
225.099
225.067
225.035
225.005
224.977
224.95
224.925
224.901
224.879
224.857
224.837
224.818
224.8
224.783
224.767
224.752
224.737
224.723
224.71
224.698
224.686
224.675
224.665
224.654
224.645
224.636
224.627
224.618
224.61
224.602
225.745
225.631
225.516
225.415
225.33
225.262
225.207
225.16
225.118
225.08
225.043
225.007
224.972
224.939
224.908
224.879
224.851
224.825
224.801
224.779
224.758
224.738
224.719
224.701
224.684
224.668
224.653
224.638
224.624
224.61
224.598
224.585
224.574
224.562
224.552
224.541
224.532
224.522
224.513
224.505
224.496
224.488
225.573
225.46
225.35
225.257
225.18
225.119
225.067
225.023
224.983
224.945
224.909
224.874
224.84
224.808
224.778
224.749
224.723
224.698
224.675
224.653
224.633
224.613
224.595
224.578
224.561
224.546
224.531
224.516
224.502
224.489
224.477
224.465
224.453
224.442
224.431
224.421
224.412
224.402
224.394
224.385
224.377
224.369
225.391
225.28
225.18
225.095
225.025
224.969
224.921
224.879
224.84
224.803
224.768
224.734
224.702
224.671
224.642
224.615
224.589
224.565
224.543
224.522
224.502
224.483
224.465
224.448
224.431
224.416
224.401
224.387
224.374
224.361
224.348
224.337
224.326
224.315
224.305
224.295
224.286
224.277
224.269
224.261
224.253
224.246
225.2
225.094
225.002
224.925
224.863
224.811
224.766
224.726
224.689
224.653
224.619
224.587
224.556
224.526
224.499
224.473
224.449
224.426
224.404
224.383
224.364
224.345
224.328
224.311
224.295
224.28
224.266
224.252
224.239
224.227
224.216
224.205
224.194
224.184
224.175
224.166
224.157
224.149
224.142
224.134
224.127
224.12
224.999
224.899
224.816
224.747
224.691
224.643
224.602
224.564
224.529
224.495
224.462
224.431
224.401
224.374
224.347
224.323
224.299
224.278
224.257
224.237
224.219
224.201
224.185
224.169
224.154
224.14
224.127
224.114
224.102
224.091
224.08
224.07
224.061
224.052
224.043
224.035
224.027
224.02
224.013
224.007
224
223.994
224.788
224.696
224.621
224.56
224.51
224.467
224.429
224.393
224.36
224.327
224.297
224.267
224.239
224.213
224.189
224.166
224.144
224.124
224.105
224.087
224.07
224.054
224.039
224.024
224.011
223.998
223.986
223.975
223.965
223.955
223.945
223.936
223.928
223.92
223.912
223.905
223.899
223.892
223.886
223.881
223.875
223.87
224.567
224.486
224.419
224.366
224.322
224.283
224.248
224.215
224.184
224.154
224.125
224.098
224.073
224.049
224.027
224.006
223.987
223.969
223.952
223.936
223.921
223.907
223.894
223.882
223.87
223.859
223.849
223.839
223.83
223.822
223.814
223.807
223.799
223.793
223.787
223.781
223.775
223.77
223.765
223.76
223.756
223.751
224.342
224.272
224.215
224.169
224.13
224.096
224.065
224.035
224.007
223.98
223.955
223.931
223.909
223.888
223.869
223.851
223.835
223.819
223.805
223.792
223.779
223.768
223.757
223.747
223.737
223.728
223.72
223.712
223.705
223.698
223.692
223.686
223.681
223.675
223.671
223.666
223.662
223.658
223.654
223.65
223.647
223.643
224.118
224.06
224.013
223.975
223.943
223.913
223.886
223.86
223.836
223.813
223.791
223.772
223.753
223.737
223.721
223.707
223.694
223.682
223.67
223.66
223.65
223.641
223.633
223.625
223.618
223.612
223.605
223.6
223.594
223.589
223.585
223.58
223.576
223.572
223.569
223.566
223.562
223.56
223.557
223.554
223.552
223.549
223.906
223.86
223.823
223.793
223.767
223.742
223.72
223.699
223.679
223.661
223.644
223.629
223.615
223.602
223.59
223.58
223.57
223.561
223.553
223.546
223.539
223.533
223.527
223.521
223.516
223.512
223.508
223.504
223.5
223.497
223.494
223.491
223.488
223.486
223.483
223.481
223.479
223.477
223.476
223.474
223.472
223.471
223.713
223.68
223.653
223.631
223.61
223.592
223.575
223.559
223.545
223.532
223.52
223.509
223.5
223.491
223.484
223.477
223.47
223.465
223.46
223.455
223.451
223.447
223.444
223.44
223.438
223.435
223.433
223.431
223.429
223.427
223.425
223.424
223.422
223.421
223.42
223.419
223.418
223.417
223.416
223.415
223.414
223.414
223.553
223.531
223.513
223.497
223.484
223.471
223.46
223.45
223.441
223.433
223.426
223.419
223.414
223.409
223.405
223.401
223.398
223.395
223.393
223.391
223.389
223.387
223.385
223.384
223.383
223.382
223.381
223.38
223.379
223.379
223.378
223.378
223.377
223.377
223.377
223.376
223.376
223.376
223.375
223.375
223.375
223.375
223.43
223.417
223.406
223.397
223.389
223.382
223.375
223.37
223.365
223.361
223.358
223.356
223.354
223.352
223.351
223.35
223.349
223.348
223.348
223.347
223.347
223.347
223.347
223.347
223.347
223.347
223.347
223.347
223.347
223.348
223.348
223.348
223.348
223.348
223.349
223.349
223.349
223.349
223.35
223.35
223.35
223.35
223.353
223.346
223.341
223.337
223.333
223.33
223.327
223.325
223.323
223.322
223.321
223.321
223.321
223.321
223.321
223.321
223.321
223.322
223.322
223.323
223.323
223.323
223.324
223.324
223.325
223.325
223.326
223.326
223.327
223.327
223.328
223.328
223.329
223.329
223.329
223.33
223.33
223.331
223.331
223.331
223.332
223.332
223.308
223.304
223.302
223.3
223.298
223.298
223.297
223.297
223.297
223.297
223.298
223.298
223.299
223.3
223.301
223.302
223.303
223.304
223.305
223.306
223.307
223.308
223.309
223.31
223.311
223.312
223.312
223.313
223.314
223.315
223.316
223.316
223.317
223.317
223.318
223.319
223.319
223.32
223.32
223.321
223.321
223.322
223.284
223.282
223.281
223.281
223.28
223.28
223.28
223.28
223.28
223.281
223.282
223.283
223.284
223.286
223.287
223.289
223.291
223.292
223.294
223.295
223.296
223.298
223.299
223.3
223.302
223.303
223.304
223.305
223.306
223.307
223.308
223.309
223.309
223.31
223.311
223.312
223.312
223.313
223.314
223.314
223.315
223.315
223.271
223.27
223.269
223.269
223.269
223.269
223.27
223.27
223.271
223.272
223.274
223.275
223.277
223.279
223.281
223.283
223.285
223.287
223.288
223.29
223.292
223.293
223.295
223.296
223.297
223.299
223.3
223.301
223.302
223.303
223.304
223.305
223.306
223.307
223.307
223.308
223.309
223.31
223.31
223.311
223.311
223.312
223.265
223.264
223.264
223.264
223.264
223.264
223.265
223.266
223.267
223.269
223.27
223.272
223.274
223.276
223.278
223.28
223.282
223.284
223.286
223.288
223.289
223.291
223.292
223.294
223.295
223.296
223.298
223.299
223.3
223.301
223.302
223.303
223.304
223.305
223.305
223.306
223.307
223.308
223.308
223.309
223.309
223.31
223.261
223.261
223.261
223.261
223.261
223.262
223.263
223.264
223.265
223.267
223.269
223.271
223.273
223.275
223.277
223.279
223.281
223.283
223.284
223.286
223.288
223.289
223.291
223.292
223.294
223.295
223.296
223.297
223.298
223.299
223.3
223.301
223.302
223.303
223.304
223.304
223.305
223.306
223.306
223.307
223.308
223.308
223.26
223.259
223.259
223.259
223.259
223.26
223.261
223.262
223.263
223.265
223.267
223.269
223.271
223.273
223.275
223.277
223.279
223.281
223.283
223.284
223.286
223.287
223.289
223.29
223.292
223.293
223.294
223.295
223.296
223.297
223.298
223.299
223.3
223.3
223.301
223.302
223.302
223.303
223.304
223.304
223.305
223.305
223.257
223.257
223.257
223.257
223.257
223.258
223.259
223.26
223.261
223.263
223.265
223.267
223.269
223.271
223.273
223.275
223.277
223.278
223.28
223.282
223.283
223.284
223.286
223.287
223.288
223.289
223.291
223.292
223.292
223.293
223.294
223.295
223.296
223.296
223.297
223.298
223.298
223.299
223.299
223.3
223.3
223.301
223.255
223.254
223.254
223.254
223.255
223.255
223.256
223.257
223.258
223.26
223.262
223.264
223.265
223.267
223.269
223.271
223.272
223.274
223.276
223.277
223.278
223.28
223.281
223.282
223.283
223.284
223.285
223.286
223.287
223.288
223.289
223.289
223.29
223.291
223.291
223.292
223.292
223.293
223.293
223.294
223.294
223.295
223.249
223.249
223.249
223.249
223.249
223.25
223.251
223.252
223.253
223.255
223.256
223.258
223.26
223.262
223.263
223.265
223.267
223.268
223.27
223.271
223.272
223.273
223.275
223.276
223.277
223.278
223.279
223.279
223.28
223.281
223.282
223.282
223.283
223.284
223.284
223.285
223.285
223.286
223.286
223.287
223.287
223.288
223.243
223.243
223.243
223.243
223.243
223.244
223.245
223.246
223.247
223.248
223.25
223.252
223.254
223.255
223.257
223.258
223.26
223.261
223.263
223.264
223.265
223.266
223.267
223.269
223.27
223.27
223.271
223.272
223.273
223.274
223.274
223.275
223.276
223.276
223.277
223.277
223.278
223.278
223.279
223.279
223.28
223.28
223.237
223.237
223.237
223.237
223.238
223.238
223.239
223.24
223.241
223.243
223.244
223.246
223.248
223.249
223.251
223.252
223.254
223.255
223.256
223.257
223.259
223.26
223.261
223.262
223.263
223.264
223.264
223.265
223.266
223.267
223.267
223.268
223.269
223.269
223.27
223.27
223.271
223.271
223.271
223.272
223.272
223.273
223.233
223.233
223.233
223.233
223.234
223.234
223.235
223.236
223.237
223.238
223.24
223.241
223.243
223.244
223.245
223.247
223.248
223.249
223.251
223.252
223.253
223.254
223.255
223.256
223.257
223.257
223.258
223.259
223.26
223.26
223.261
223.262
223.262
223.263
223.263
223.264
223.264
223.265
223.265
223.265
223.266
223.266
223.228
223.228
223.228
223.229
223.229
223.23
223.231
223.232
223.233
223.234
223.236
223.237
223.238
223.24
223.241
223.242
223.243
223.245
223.246
223.247
223.248
223.249
223.25
223.251
223.252
223.252
223.253
223.254
223.255
223.255
223.256
223.256
223.257
223.257
223.258
223.258
223.259
223.259
223.26
223.26
223.26
223.261
223.223
223.222
223.222
223.223
223.223
223.223
223.224
223.225
223.226
223.228
223.229
223.23
223.232
223.233
223.234
223.236
223.237
223.238
223.239
223.24
223.241
223.242
223.243
223.244
223.245
223.246
223.246
223.247
223.248
223.249
223.249
223.25
223.25
223.251
223.251
223.252
223.252
223.253
223.253
223.253
223.254
223.254
223.223
223.223
223.223
223.223
223.223
223.224
223.224
223.225
223.226
223.227
223.228
223.229
223.23
223.232
223.233
223.234
223.235
223.236
223.237
223.237
223.238
223.239
223.24
223.241
223.241
223.242
223.243
223.243
223.244
223.245
223.245
223.246
223.246
223.247
223.247
223.248
223.248
223.248
223.249
223.249
223.25
223.25
223.219
223.219
223.22
223.22
223.22
223.221
223.222
223.223
223.224
223.225
223.226
223.227
223.228
223.229
223.23
223.231
223.232
223.233
223.233
223.234
223.235
223.236
223.236
223.237
223.238
223.238
223.239
223.239
223.24
223.241
223.241
223.242
223.242
223.242
223.243
223.243
223.244
223.244
223.244
223.245
223.245
223.245
223.213
223.213
223.213
223.214
223.214
223.215
223.216
223.217
223.218
223.219
223.22
223.221
223.222
223.223
223.224
223.225
223.226
223.227
223.227
223.228
223.229
223.229
223.23
223.23
223.231
223.231
223.232
223.232
223.233
223.233
223.234
223.234
223.234
223.235
223.235
223.236
223.236
223.236
223.236
223.237
223.237
223.237
223.2
223.201
223.201
223.202
223.203
223.204
223.205
223.207
223.208
223.209
223.21
223.211
223.212
223.213
223.214
223.215
223.216
223.217
223.217
223.218
223.219
223.219
223.22
223.221
223.221
223.222
223.222
223.223
223.223
223.224
223.224
223.225
223.225
223.225
223.226
223.226
223.227
223.227
223.227
223.228
223.228
223.228
223.185
223.186
223.186
223.187
223.188
223.189
223.19
223.191
223.192
223.193
223.194
223.194
223.195
223.196
223.197
223.197
223.198
223.198
223.199
223.199
223.2
223.2
223.201
223.201
223.201
223.202
223.202
223.202
223.203
223.203
223.203
223.204
223.204
223.204
223.204
223.205
223.205