/*--------------------------------*- C++ -*----------------------------------*\
| =========                 |                                                 |
| \\      /  F ield         | OpenFOAM: The Open Source CFD Toolbox           |
|  \\    /   O peration     | Version:  2412                                  |
|   \\  /    A nd           | Website:  www.openfoam.com                      |
|    \\/     M anipulation  |                                                 |
\*---------------------------------------------------------------------------*/
FoamFile
{
    version     2.0;
    format      ascii;
    arch        "LSB;label=32;scalar=64";
    class       volScalarField;
    location    "0.078";
    object      p;
}
// * * * * * * * * * * * * * * * * * * * * * * * * * * * * * * * * * * * * * //

dimensions      [1 -1 -2 0 0 0 0];

internalField   nonuniform List<scalar> 
78650
(
3047.17
2899.06
2897.23
2899.06
2901.75
2903.7
2904.3
2903.58
2901
2896.66
2890.54
2882.84
2874.19
2865.55
2857.33
2849.71
2842.73
2836.35
2830.61
2825.48
2820.87
2816.69
2812.79
2808.99
2805.14
2801.14
2796.92
2792.55
2788.1
2783.68
2779.32
2775.06
2770.92
2766.9
2763.04
2759.38
2755.94
2752.78
2749.9
2747.32
2745
2742.91
2741.01
2739.25
2737.62
2736.08
2734.65
2733.32
2732.08
2730.94
2729.88
2728.92
2728.06
2727.28
2726.57
2725.9
2725.26
2724.63
2724.02
2723.41
2722.78
2722.1
2721.35
2720.5
2719.51
2718.34
2716.96
2715.33
2713.42
2711.2
2708.59
2705.52
2701.91
2697.71
2692.86
2687.3
2680.93
2673.62
2665.27
2655.75
2644.97
2632.79
2619.1
2603.72
2586.52
2567.34
2546.04
2522.46
2496.44
2467.82
2436.46
2402.23
2365.21
2325.12
2282.32
2236.12
2187.1
2134.83
2079.62
2021.9
1963.28
1903.16
1843.08
1783.01
1724.85
1663.16
1601.49
1542.91
1489.29
1442.18
1396.65
1354.55
1313.3
1274.75
1241.12
1210.05
1182
1155.77
1133.84
1116.27
1079.22
3017.5
2892.73
2894.28
2897.38
2901.21
2903.86
2905.04
2904.74
2902.76
2898.61
2892.46
2884.71
2875.89
2867.05
2858.59
2850.79
2843.68
2837.16
2831.29
2826.02
2821.29
2817.08
2813.2
2809.51
2805.81
2801.98
2797.96
2793.77
2789.49
2785.21
2781
2776.89
2772.88
2769
2765.28
2761.75
2758.44
2755.38
2752.6
2750.12
2747.9
2745.93
2744.17
2742.58
2741.12
2739.78
2738.55
2737.42
2736.4
2735.49
2734.66
2733.94
2733.33
2732.82
2732.38
2732.01
2731.66
2731.35
2731.07
2730.8
2730.54
2730.25
2729.92
2729.51
2728.99
2728.32
2727.48
2726.42
2725.13
2723.57
2721.68
2719.39
2716.63
2713.34
2709.47
2704.98
2699.75
2693.71
2686.72
2678.69
2669.5
2659.04
2647.2
2633.81
2618.77
2601.89
2583.05
2562.05
2538.69
2512.78
2484.13
2452.61
2418.22
2380.81
2340.72
2297.4
2251.6
2202.64
2150.76
2095.88
2038.02
1977.44
1915.64
1852.56
1791.62
1731.11
1671.45
1613.32
1553.72
1499.59
1449.11
1401.7
1357.3
1315.33
1276.93
1242.54
1211.93
1182.05
1154.87
1131.57
1088.7
2987.27
2883.76
2889.39
2894.66
2899.85
2903.51
2905.12
2905.24
2903.86
2899.99
2893.92
2886.08
2877.13
2868.08
2859.4
2851.44
2844.2
2837.54
2831.54
2826.16
2821.38
2817.15
2813.34
2809.78
2806.27
2802.66
2798.87
2794.89
2790.8
2786.7
2782.66
2778.7
2774.85
2771.12
2767.54
2764.15
2760.98
2758.05
2755.39
2753.02
2750.91
2749.06
2747.44
2746
2744.71
2743.56
2742.52
2741.61
2740.81
2740.11
2739.53
2739.05
2738.68
2738.43
2738.28
2738.19
2738.15
2738.16
2738.21
2738.29
2738.39
2738.49
2738.56
2738.59
2738.54
2738.37
2738.06
2737.57
2736.88
2735.96
2734.77
2733.23
2731.29
2728.88
2725.96
2722.47
2718.34
2713.48
2707.78
2701.13
2693.43
2684.57
2674.43
2662.89
2649.82
2635.04
2618.4
2599.73
2578.87
2555.66
2529.92
2501.51
2470.35
2436.27
2399.35
2359.12
2316.1
2269.61
2220.49
2168.57
2113.93
2057.06
1997.58
1935.33
1870.56
1807.16
1741.15
1680.06
1619.2
1559.34
1505.4
1452.68
1402.99
1357.69
1314.15
1274.89
1240.68
1209.56
1181.92
1156.51
1105.56
2957.7
2872.17
2881.71
2889.58
2896.73
2902.01
2904.63
2905.18
2904.18
2900.78
2894.92
2887.02
2877.97
2868.75
2859.88
2851.72
2844.35
2837.6
2831.55
2826.13
2821.32
2817.1
2813.33
2809.87
2806.57
2803.22
2799.68
2795.95
2792.08
2788.18
2784.32
2780.55
2776.87
2773.31
2769.89
2766.65
2763.62
2760.83
2758.3
2756.05
2754.06
2752.33
2750.83
2749.53
2748.41
2747.43
2746.59
2745.87
2745.29
2744.82
2744.46
2744.21
2744.1
2744.1
2744.22
2744.41
2744.67
2744.99
2745.36
2745.77
2746.23
2746.7
2747.17
2747.62
2748.01
2748.32
2748.52
2748.58
2748.47
2748.17
2747.65
2746.84
2745.67
2744.11
2742.09
2739.58
2736.5
2732.79
2728.34
2723.05
2716.82
2709.54
2701.12
2691.43
2680.34
2667.68
2653.33
2637.12
2618.91
2598.48
2575.61
2550.09
2521.74
2490.33
2455.83
2417.97
2377.18
2332.86
2285.82
2235.44
2182.35
2126.73
2068.44
2009.4
1946.56
1885.92
1821.78
1755.88
1694.23
1628.99
1567.67
1509.03
1452.19
1401.67
1353.73
1308.99
1269.46
1233.48
1204.34
1180.77
1132.57
2927.43
2856.44
2869.74
2881.16
2891.15
2898.56
2902.83
2904.44
2903.85
2901.1
2895.56
2887.61
2878.47
2869.06
2859.99
2851.73
2844.27
2837.44
2831.36
2825.92
2821.1
2816.89
2813.18
2809.83
2806.7
2803.6
2800.35
2796.9
2793.3
2789.62
2785.97
2782.4
2778.92
2775.54
2772.29
2769.21
2766.34
2763.7
2761.32
2759.2
2757.34
2755.74
2754.38
2753.23
2752.26
2751.45
2750.79
2750.28
2749.9
2749.65
2749.52
2749.51
2749.64
2749.9
2750.27
2750.75
2751.31
2751.93
2752.62
2753.36
2754.17
2755.01
2755.87
2756.73
2757.56
2758.35
2759.04
2759.62
2760.07
2760.37
2760.49
2760.38
2759.98
2759.24
2758.08
2756.5
2754.43
2751.8
2748.52
2744.5
2739.65
2733.85
2727.02
2719.03
2709.77
2699.1
2686.88
2672.95
2657.13
2639.23
2619.06
2596.44
2571.22
2543.21
2512.36
2478.42
2441.5
2401.05
2357.62
2310.41
2259.9
2205.74
2148.21
2088.03
2024.65
1958.59
1894.98
1828.75
1766.22
1702.43
1638.53
1578.8
1518.1
1460.8
1406.9
1355.71
1308.68
1265.2
1226.82
1194.81
1132.48
2899.14
2837.13
2852.39
2867.53
2881.57
2892.25
2899.05
2902.15
2902.57
2900.75
2895.67
2887.76
2878.57
2869.04
2859.89
2851.52
2843.96
2837.08
2830.96
2825.51
2820.69
2816.51
2812.87
2809.65
2806.7
2803.84
2800.9
2797.78
2794.47
2791.05
2787.64
2784.29
2781.03
2777.85
2774.78
2771.88
2769.17
2766.69
2764.46
2762.5
2760.79
2759.32
2758.1
2757.08
2756.27
2755.62
2755.14
2754.81
2754.63
2754.6
2754.7
2754.93
2755.29
2755.79
2756.43
2757.18
2758.03
2758.96
2759.96
2761.03
2762.17
2763.37
2764.61
2765.86
2767.12
2768.36
2769.53
2770.63
2771.63
2772.51
2773.24
2773.78
2774.09
2774.14
2773.83
2773.16
2772.05
2770.47
2768.33
2765.54
2762.03
2757.69
2752.43
2746.13
2738.71
2730.02
2719.93
2708.26
2694.86
2679.57
2662.22
2642.62
2620.54
2595.77
2568.14
2537.47
2503.83
2466.81
2426.78
2383.06
2336.31
2286.04
2232.4
2175.04
2115
2049.64
1982.69
1913.37
1842.18
1775.71
1707.01
1642.52
1581.72
1522.43
1465.98
1413.34
1364.75
1320.8
1280.24
1243.4
1171.49
2875.92
2817.17
2830.31
2847.39
2866.6
2882.01
2892.12
2897.59
2899.3
2898.57
2894.63
2887.27
2878.22
2868.63
2859.48
2851
2843.32
2836.39
2830.27
2824.82
2820.03
2815.9
2812.35
2809.27
2806.54
2803.95
2801.32
2798.54
2795.56
2792.44
2789.29
2786.19
2783.16
2780.2
2777.35
2774.63
2772.09
2769.78
2767.72
2765.91
2764.36
2763.05
2761.97
2761.11
2760.45
2759.96
2759.65
2759.5
2759.52
2759.71
2760.02
2760.48
2761.08
2761.83
2762.72
2763.75
2764.88
2766.1
2767.41
2768.81
2770.28
2771.83
2773.44
2775.09
2776.77
2778.44
2780.09
2781.68
2783.21
2784.65
2785.99
2787.18
2788.18
2788.94
2789.43
2789.62
2789.45
2788.87
2787.82
2786.17
2783.92
2780.93
2777.13
2772.4
2766.67
2759.79
2751.66
2742.11
2731.01
2718.2
2703.49
2686.69
2667.56
2645.92
2621.6
2594.36
2564.12
2530.49
2493.6
2452.83
2408.68
2360.68
2309.4
2254.87
2197.04
2136.91
2072.39
2007.06
1938.26
1869.17
1796.68
1722.2
1652.78
1582.07
1516.97
1456.92
1401.88
1351.9
1309.03
1274.63
1204.04
2862.21
2803.88
2810.85
2823.53
2844.19
2865.2
2881.24
2890.54
2894.24
2894.56
2892.12
2885.87
2877.21
2867.74
2858.62
2850.1
2842.35
2835.42
2829.34
2823.96
2819.24
2815.19
2811.73
2808.81
2806.27
2803.94
2801.64
2799.22
2796.6
2793.81
2790.95
2788.12
2785.34
2782.62
2779.99
2777.47
2775.12
2772.98
2771.09
2769.45
2768.07
2766.93
2766.01
2765.3
2764.79
2764.47
2764.32
2764.34
2764.56
2764.93
2765.46
2766.14
2766.97
2767.96
2769.11
2770.4
2771.81
2773.33
2774.94
2776.65
2778.45
2780.34
2782.31
2784.34
2786.42
2788.52
2790.62
2792.69
2794.73
2796.71
2798.61
2800.42
2802.08
2803.57
2804.84
2805.82
2806.51
2806.86
2806.88
2806.37
2805.35
2803.67
2801.3
2798.11
2794.04
2788.97
2782.8
2775.36
2766.52
2756.12
2743.97
2729.91
2713.73
2695.23
2674.19
2650.36
2623.59
2593.54
2560.26
2523.26
2482.82
2438.3
2390.07
2338.07
2282.13
2222.16
2158.65
2092.37
2024.48
1953.38
1885.71
1814.48
1746.84
1675.47
1604.58
1538.31
1471.66
1410.86
1354.38
1307.08
1215.52
2855.89
2801.66
2800.9
2803.25
2817.5
2840.47
2863.2
2879.3
2887.08
2888.83
2887.73
2883.08
2875.12
2865.97
2857.01
2848.55
2840.83
2834.02
2828.08
2822.86
2818.29
2814.36
2811.03
2808.26
2805.93
2803.86
2801.88
2799.81
2797.56
2795.12
2792.58
2790.04
2787.53
2785.07
2782.68
2780.38
2778.23
2776.27
2774.55
2773.08
2771.87
2770.9
2770.16
2769.63
2769.29
2769.13
2769.14
2769.35
2769.73
2770.29
2771.02
2771.92
2772.98
2774.2
2775.6
2777.15
2778.84
2780.64
2782.55
2784.57
2786.7
2788.93
2791.24
2793.64
2796.11
2798.63
2801.17
2803.71
2806.24
2808.74
2811.2
2813.6
2815.9
2818.07
2820.06
2821.85
2823.4
2824.64
2825.55
2826.1
2826.24
2825.8
2824.77
2823.03
2820.48
2817.07
2812.67
2807.17
2800.43
2792.31
2782.62
2771.23
2757.92
2742.52
2724.79
2704.47
2681.39
2655.22
2625.96
2593.13
2556.92
2516.79
2473
2424.97
2372.48
2316.03
2255.62
2191.2
2123.04
2048.92
1973.58
1898.04
1821.89
1751.69
1679.3
1613.76
1546.61
1484.85
1428.44
1378.32
1280.64
2853.1
2802.99
2797.76
2792.88
2797.53
2813.24
2837.75
2861.38
2876.23
2881.91
2882.17
2879.21
2872.11
2863.36
2854.64
2846.37
2838.85
2832.3
2826.64
2821.66
2817.31
2813.55
2810.36
2807.75
2805.6
2803.78
2802.1
2800.37
2798.48
2796.41
2794.21
2791.97
2789.75
2787.56
2785.42
2783.36
2781.42
2779.65
2778.1
2776.8
2775.77
2774.98
2774.42
2774.07
2773.91
2773.92
2774.12
2774.47
2775.03
2775.77
2776.69
2777.79
2779.07
2780.52
2782.15
2783.95
2785.9
2787.99
2790.19
2792.51
2794.95
2797.5
2800.16
2802.92
2805.76
2808.67
2811.64
2814.63
2817.63
2820.63
2823.62
2826.59
2829.49
2832.31
2835.01
2837.54
2839.88
2842
2843.86
2845.4
2846.56
2847.3
2847.56
2847.24
2846.22
2844.44
2841.79
2838.19
2833.5
2827.59
2820.28
2811.44
2800.86
2788.38
2773.75
2756.75
2737.17
2714.71
2689.29
2660.49
2628.41
2592.43
2552.67
2508.5
2460.02
2407.64
2351.08
2290.48
2225.3
2156.5
2082.01
2006.79
1925.62
1844.56
1762.38
1681.78
1605.45
1534.56
1472.88
1421.59
1317.36
2849.85
2805.77
2799.14
2790.98
2788.32
2793.65
2810.7
2836.32
2859.47
2872.1
2875.6
2874.31
2868.73
2860.63
2852.03
2843.77
2836.4
2830.12
2824.8
2820.17
2816.16
2812.66
2809.68
2807.26
2805.31
2803.72
2802.31
2800.9
2799.36
2797.65
2795.79
2793.88
2791.96
2790.05
2788.17
2786.36
2784.65
2783.08
2781.72
2780.59
2779.73
2779.12
2778.74
2778.59
2778.61
2778.82
2779.17
2779.71
2780.43
2781.35
2782.46
2783.75
2785.24
2786.9
2788.76
2790.8
2793.02
2795.38
2797.86
2800.48
2803.22
2806.09
2809.08
2812.19
2815.39
2818.69
2822.06
2825.49
2828.95
2832.43
2835.93
2839.44
2842.92
2846.36
2849.72
2852.96
2856.07
2859
2861.73
2864.21
2866.41
2868.24
2869.64
2870.55
2870.93
2870.68
2869.66
2867.84
2865.01
2861.15
2856.07
2849.66
2841.71
2832.07
2820.53
2806.87
2790.84
2772.17
2750.67
2725.95
2697.97
2666.11
2630.38
2590.16
2545.69
2497
2443.41
2385.36
2322.56
2255.89
2185.99
2112.08
2035.45
1955.73
1876.86
1795.32
1714.32
1634.36
1557.18
1490.24
1361.4
2844.99
2808.62
2802.62
2792.44
2786.59
2785.66
2791.86
2810.02
2835.8
2856.96
2867.03
2868.47
2865.54
2858.41
2849.91
2841.6
2834.23
2828
2822.89
2818.58
2814.96
2811.79
2809.08
2806.88
2805.14
2803.75
2802.57
2801.44
2800.23
2798.86
2797.35
2795.76
2794.15
2792.54
2790.94
2789.38
2787.9
2786.56
2785.39
2784.44
2783.75
2783.31
2783.13
2783.15
2783.39
2783.77
2784.31
2785.02
2785.92
2787.01
2788.29
2789.78
2791.45
2793.32
2795.39
2797.66
2800.12
2802.74
2805.51
2808.41
2811.44
2814.62
2817.92
2821.36
2824.92
2828.58
2832.34
2836.18
2840.07
2844.02
2848
2852.02
2856.05
2860.07
2864.06
2867.98
2871.8
2875.51
2879.06
2882.44
2885.59
2888.46
2891.02
2893.17
2894.83
2895.95
2896.49
2896.42
2895.44
2893.6
2890.63
2886.53
2881.05
2874.09
2865.42
2854.87
2842.19
2827.11
2809.42
2788.74
2764.97
2737.54
2706.48
2671.24
2631.99
2588.11
2538.84
2484.66
2425.38
2361.74
2292.56
2217.56
2137.82
2053.61
1970.62
1883.15
1801.6
1723.02
1648.33
1582.22
1452.77
2838.68
2810.38
2806.77
2796.85
2788.04
2784.37
2784.44
2791.61
2810.37
2834.81
2853.11
2860.05
2859.89
2855.43
2848.13
2840.36
2833.03
2826.53
2821.2
2816.98
2813.67
2810.88
2808.52
2806.59
2805.06
2803.84
2802.87
2801.99
2801.07
2800.02
2798.83
2797.57
2796.28
2794.98
2793.67
2792.37
2791.14
2790.01
2789.06
2788.3
2787.79
2787.53
2787.51
2787.75
2788.15
2788.73
2789.47
2790.37
2791.45
2792.71
2794.17
2795.83
2797.7
2799.76
2802.04
2804.52
2807.21
2810.08
2813.11
2816.29
2819.61
2823.08
2826.69
2830.45
2834.34
2838.36
2842.49
2846.73
2851.04
2855.43
2859.87
2864.38
2868.93
2873.51
2878.09
2882.64
2887.15
2891.58
2895.91
2900.11
2904.16
2908
2911.59
2914.86
2917.77
2920.23
2922.15
2923.5
2924.21
2924.27
2923.3
2921.39
2918.24
2913.83
2907.93
2900.41
2891
2879.45
2865.52
2848.86
2829.34
2806.45
2780.22
2750.07
2715.89
2676.84
2632.83
2584.37
2530.72
2471.87
2406.84
2336.34
2260.53
2180.16
2095.92
2004.1
1909.71
1813.37
1721.63
1642.94
1490.66
2832.04
2810.98
2809.99
2802.53
2792.21
2785.57
2783.39
2784.19
2792.27
2810.5
2832.09
2846.91
2852.03
2850.72
2845.64
2839.14
2832.31
2825.78
2820.24
2815.92
2812.69
2810.15
2808.08
2806.4
2805.06
2804.02
2803.24
2802.58
2801.92
2801.16
2800.26
2799.3
2798.33
2797.34
2796.34
2795.32
2794.34
2793.45
2792.71
2792.15
2791.83
2791.74
2791.92
2792.32
2792.92
2793.7
2794.64
2795.73
2796.98
2798.42
2800.06
2801.9
2803.94
2806.19
2808.66
2811.35
2814.25
2817.36
2820.63
2824.07
2827.66
2831.41
2835.32
2839.38
2843.59
2847.95
2852.43
2857.04
2861.75
2866.54
2871.43
2876.39
2881.43
2886.53
2891.66
2896.81
2901.95
2907.06
2912.12
2917.11
2921.99
2926.73
2931.3
2935.64
2939.7
2943.4
2946.71
2949.55
2951.81
2953.45
2954.39
2954.59
2953.68
2951.69
2948.37
2943.61
2937.2
2928.94
2918.57
2905.81
2890.45
2872.04
2850.51
2825.2
2795.88
2761.83
2723.29
2679.97
2630.68
2575.54
2514.31
2448.41
2376.95
2299.73
2216.46
2129.36
2036.92
1949.65
1855.69
1770.74
1605.05
2825.87
2811.26
2811.79
2807.25
2797.64
2788.7
2784.31
2783.58
2785.11
2793.32
2809.29
2826.92
2838.45
2842.4
2841.43
2837.34
2831.54
2825.35
2819.84
2815.42
2812.05
2809.56
2807.7
2806.24
2805.1
2804.25
2803.64
2803.17
2802.74
2802.24
2801.62
2800.93
2800.26
2799.58
2798.89
2798.17
2797.46
2796.81
2796.29
2795.95
2795.81
2795.92
2796.28
2796.86
2797.65
2798.62
2799.75
2801.03
2802.48
2804.1
2805.91
2807.93
2810.15
2812.58
2815.23
2818.11
2821.22
2824.54
2828.05
2831.74
2835.59
2839.61
2843.8
2848.15
2852.67
2857.34
2862.16
2867.12
2872.21
2877.4
2882.7
2888.1
2893.6
2899.19
2904.85
2910.55
2916.29
2922.03
2927.77
2933.48
2939.14
2944.72
2950.18
2955.5
2960.6
2965.45
2969.99
2974.14
2977.88
2981.12
2983.73
2985.65
2986.79
2987.1
2986.24
2984.17
2980.67
2975.56
2968.63
2959.6
2948.21
2934.07
2916.99
2896.3
2871.91
2843.27
2810.4
2772.39
2728.46
2679.01
2623.58
2562.55
2494.1
2418.92
2336.28
2247.49
2153.74
2058.57
1954.89
1867.94
1706.66
2820
2811.16
2812.68
2810.38
2802.75
2793.42
2787.02
2784.64
2784.86
2786.73
2793.67
2805.82
2818.98
2828.27
2832.43
2832.27
2828.96
2824.04
2819.09
2815.03
2811.72
2809.24
2807.46
2806.16
2805.19
2804.52
2804.06
2803.78
2803.56
2803.3
2802.91
2802.47
2802.06
2801.69
2801.32
2800.91
2800.47
2800.08
2799.79
2799.67
2799.72
2800.04
2800.58
2801.35
2802.33
2803.49
2804.81
2806.28
2807.91
2809.72
2811.71
2813.9
2816.29
2818.9
2821.73
2824.79
2828.09
2831.62
2835.35
2839.27
2843.36
2847.64
2852.09
2856.72
2861.52
2866.49
2871.62
2876.91
2882.35
2887.91
2893.6
2899.4
2905.33
2911.37
2917.51
2923.73
2930.02
2936.35
2942.72
2949.1
2955.48
2961.83
2968.12
2974.33
2980.42
2986.33
2992.01
2997.42
3002.5
3007.19
3011.42
3015.12
3018.12
3020.35
3021.72
3022.16
3021.35
3019.18
3015.42
3009.81
3002.16
2992.1
2979.43
2963.61
2944.6
2921.73
2894.74
2862.69
2825.44
2782.98
2734.27
2679.12
2616.16
2546.75
2469.88
2386.74
2295.78
2200.35
2092.58
1991.73
1808.18
2814.06
2810.76
2813.23
2812.42
2807.13
2798.65
2791.38
2787.3
2786.11
2786.52
2787.65
2791.82
2799.27
2808.69
2817.47
2822.55
2824.13
2821.93
2817.9
2814.34
2811.39
2808.98
2807.25
2806.04
2805.23
2804.73
2804.43
2804.31
2804.31
2804.28
2804.12
2803.91
2803.74
2803.64
2803.57
2803.48
2803.35
2803.22
2803.17
2803.26
2803.54
2804.05
2804.79
2805.75
2806.92
2808.26
2809.76
2811.43
2813.24
2815.23
2817.4
2819.77
2822.34
2825.11
2828.11
2831.35
2834.83
2838.55
2842.49
2846.63
2850.96
2855.47
2860.17
2865.06
2870.13
2875.38
2880.81
2886.41
2892.18
2898.09
2904.14
2910.33
2916.66
2923.12
2929.71
2936.41
2943.21
2950.09
2957.04
2964.04
2971.08
2978.14
2985.2
2992.23
2999.2
3006.07
3012.79
3019.32
3025.61
3031.62
3037.29
3042.53
3047.27
3051.42
3054.82
3057.39
3059.01
3059.61
3058.88
3056.56
3052.49
3046.33
3037.89
3026.71
3012.65
2994.91
2973.25
2946.92
2915.89
2879.44
2836.4
2786.76
2729.87
2666.4
2594.57
2515.22
2427.39
2331.83
2230.19
2132.95
1962.93
2808.16
2810.32
2813.91
2813.92
2810.67
2803.46
2796.27
2791.25
2788.68
2787.63
2787.01
2786.58
2786.62
2790.04
2797.94
2806.97
2813.6
2815.96
2815.16
2813.13
2810.8
2808.59
2806.97
2805.84
2805.23
2804.9
2804.75
2804.78
2804.99
2805.16
2805.23
2805.24
2805.28
2805.43
2805.66
2805.88
2806.05
2806.21
2806.41
2806.73
2807.22
2807.93
2808.88
2810.04
2811.4
2812.93
2814.62
2816.46
2818.46
2820.62
2822.97
2825.51
2828.25
2831.2
2834.37
2837.77
2841.43
2845.33
2849.47
2853.81
2858.35
2863.09
2868.02
2873.15
2878.47
2883.99
2889.69
2895.58
2901.65
2907.88
2914.27
2920.81
2927.51
2934.37
2941.37
2948.5
2955.77
2963.14
2970.62
2978.19
2985.83
2993.54
3001.29
3009.07
3016.85
3024.59
3032.26
3039.82
3047.23
3054.45
3061.43
3068.1
3074.41
3080.26
3085.56
3090.21
3094.06
3096.99
3098.87
3099.61
3098.9
3096.36
3091.89
3084.98
3075.52
3062.74
3046.56
3026.22
3001.58
2971.5
2935.28
2892.88
2843.52
2787.1
2721.76
2647.85
2563.08
2469.79
2367.44
2258.63
2082.05
2803.45
2809.65
2814.29
2815.13
2813.3
2807.47
2800.72
2795.46
2791.99
2789.76
2787.73
2785.49
2781.37
2778.8
2780.69
2787.85
2797.59
2805.36
2808.94
2809.78
2808.84
2807.45
2806.43
2805.59
2805.16
2804.93
2804.91
2805.17
2805.54
2805.9
2806.2
2806.43
2806.69
2807.08
2807.58
2808.1
2808.58
2809.03
2809.49
2810.05
2810.76
2811.68
2812.82
2814.19
2815.75
2817.47
2819.34
2821.36
2823.53
2825.87
2828.39
2831.1
2834.01
2837.13
2840.47
2844.04
2847.86
2851.94
2856.25
2860.79
2865.54
2870.48
2875.63
2880.98
2886.54
2892.3
2898.26
2904.42
2910.77
2917.3
2924
2930.87
2937.91
2945.13
2952.51
2960.05
2967.74
2975.58
2983.54
2991.63
2999.82
3008.12
3016.5
3024.96
3033.46
3041.99
3050.52
3059
3067.4
3075.7
3083.85
3091.8
3099.5
3106.88
3113.85
3120.34
3126.23
3131.43
3135.77
3139.08
3141.24
3142.11
3141.38
3138.52
3133.5
3125.62
3114.91
3100.47
3082.11
3058.72
3030.06
2995.51
2953.84
2904.53
2846.35
2779.51
2702.6
2618.09
2520.05
2419.1
2255.45
2800.09
2808.4
2814.27
2816.11
2815.19
2810.71
2804.53
2799.36
2795.45
2792.36
2789.24
2785.4
2779.79
2773.63
2770.22
2771.87
2779.2
2789.65
2798.39
2803.59
2805.84
2805.92
2805.5
2805.04
2804.84
2804.79
2804.93
2805.38
2805.94
2806.48
2807.01
2807.48
2807.98
2808.59
2809.34
2810.15
2810.93
2811.66
2812.4
2813.2
2814.14
2815.27
2816.62
2818.19
2819.96
2821.88
2823.93
2826.13
2828.47
2830.97
2833.66
2836.53
2839.61
2842.89
2846.39
2850.13
2854.11
2858.35
2862.84
2867.57
2872.5
2877.64
2882.99
2888.56
2894.33
2900.32
2906.52
2912.92
2919.53
2926.33
2933.32
2940.48
2947.84
2955.38
2963.11
2971.02
2979.1
2987.34
2995.75
3004.3
3012.99
3021.82
3030.77
3039.82
3048.98
3058.21
3067.5
3076.81
3086.1
3095.36
3104.56
3113.66
3122.61
3131.36
3139.84
3147.97
3155.67
3162.85
3169.4
3175.21
3180.05
3183.76
3186.19
3187.16
3186.37
3183.1
3177.41
3168.28
3155.73
3138.65
3116.85
3089.09
3054.39
3012.49
2962.38
2903.15
2833.18
2751.58
2656.51
2551.55
2399.52
2797.62
2806.83
2814.2
2816.84
2816.54
2813.35
2807.88
2802.89
2798.74
2794.93
2790.92
2785.75
2779.21
2771.61
2765.12
2762.1
2764.25
2772.33
2783.53
2793.33
2799.67
2802.44
2803.23
2803.89
2804.24
2804.52
2804.85
2805.45
2806.18
2806.93
2807.67
2808.4
2809.14
2809.98
2810.97
2812.05
2813.12
2814.13
2815.14
2816.19
2817.36
2818.71
2820.27
2822.04
2824.01
2826.13
2828.37
2830.73
2833.24
2835.9
2838.75
2841.78
2845.02
2848.47
2852.12
2856.01
2860.16
2864.56
2869.22
2874.11
2879.22
2884.55
2890.09
2895.84
2901.82
2908.02
2914.43
2921.06
2927.91
2934.96
2942.21
2949.65
2957.29
2965.13
2973.18
2981.42
2989.85
2998.47
3007.27
3016.24
3025.38
3034.69
3044.14
3053.74
3063.48
3073.34
3083.3
3093.34
3103.43
3113.55
3123.68
3133.78
3143.83
3153.78
3163.57
3173.15
3182.45
3191.39
3199.88
3207.82
3215.08
3221.52
3226.92
3231.05
3233.75
3234.79
3233.75
3229.72
3222.93
3212.17
3197.41
3177.16
3150.89
3117.81
3076.46
3025.96
2964.72
2890.86
2805.27
2702.54
2564.12
2795.82
2805.28
2814.01
2817.45
2817.66
2815.58
2810.9
2806.09
2801.69
2797.16
2792.13
2786.05
2778.92
2770.71
2762.67
2757.08
2755.12
2758.28
2767.46
2779.6
2790.27
2796.79
2800.41
2802.38
2803.3
2803.91
2804.52
2805.3
2806.29
2807.31
2808.28
2809.24
2810.21
2811.27
2812.49
2813.81
2815.14
2816.43
2817.7
2819.01
2820.42
2821.99
2823.76
2825.74
2827.91
2830.22
2832.65
2835.19
2837.86
2840.67
2843.67
2846.86
2850.26
2853.85
2857.67
2861.71
2866.01
2870.57
2875.38
2880.44
2885.72
2891.22
2896.94
2902.88
2909.04
2915.43
2922.04
2928.88
2935.94
2943.22
2950.71
2958.4
2966.3
2974.41
2982.74
2991.29
3000.03
3008.98
3018.14
3027.48
3037.02
3046.75
3056.66
3066.74
3076.99
3087.4
3097.95
3108.63
3119.42
3130.28
3141.22
3152.2
3163.21
3174.21
3185.16
3196
3206.69
3217.17
3227.37
3237.2
3246.55
3255.32
3263.33
3270.48
3276.46
3281.01
3283.95
3285
3283.68
3278.94
3270.84
3257.84
3239.83
3215.36
3183.02
3142
3089.57
3023.7
2944.77
2847.2
2716.93
2794.58
2803.97
2813.74
2818
2818.77
2817.46
2813.57
2808.94
2804.2
2798.84
2792.65
2785.88
2778.28
2769.95
2761.5
2754.36
2750.3
2749.73
2754.3
2764.95
2777.96
2788.69
2795.54
2799.44
2801.54
2802.8
2803.87
2805.02
2806.33
2807.63
2808.8
2809.97
2811.17
2812.44
2813.87
2815.43
2817.01
2818.57
2820.11
2821.67
2823.33
2825.12
2827.1
2829.29
2831.65
2834.16
2836.77
2839.47
2842.29
2845.26
2848.41
2851.74
2855.28
2859.03
2863
2867.19
2871.64
2876.34
2881.31
2886.53
2891.97
2897.63
2903.51
2909.61
2915.95
2922.52
2929.31
2936.34
2943.6
2951.08
2958.79
2966.7
2974.84
2983.19
2991.78
3000.59
3009.62
3018.87
3028.33
3038.02
3047.91
3058.01
3068.32
3078.82
3089.52
3100.42
3111.49
3122.74
3134.13
3145.65
3157.29
3169.04
3180.88
3192.78
3204.73
3216.66
3228.55
3240.35
3252.01
3263.47
3274.64
3285.42
3295.71
3305.39
3314.26
3322.19
3328.78
3333.78
3336.93
3337.84
3335.77
3329.54
3319
3302.49
3278.98
3247.48
3204.56
3148.56
3077.73
2987.62
2867.12
2793.79
2802.98
2813.48
2818.58
2819.84
2819.08
2815.92
2811.38
2806.13
2799.72
2792.52
2784.96
2777.07
2768.89
2760.62
2752.96
2747.41
2745.02
2745.99
2752.53
2764.79
2778.19
2788.72
2795.43
2799.07
2801.27
2802.96
2804.62
2806.31
2807.9
2809.3
2810.64
2812.03
2813.51
2815.15
2816.94
2818.78
2820.59
2822.39
2824.21
2826.1
2828.13
2830.32
2832.7
2835.25
2837.94
2840.73
2843.6
2846.58
2849.69
2852.98
2856.45
2860.14
2864.03
2868.14
2872.48
2877.07
2881.92
2887.04
2892.4
2897.99
2903.8
2909.84
2916.1
2922.6
2929.33
2936.29
2943.49
2950.93
2958.6
2966.5
2974.62
2982.96
2991.54
3000.36
3009.41
3018.69
3028.21
3037.95
3047.93
3058.14
3068.57
3079.23
3090.1
3101.2
3112.52
3124.05
3135.77
3147.69
3159.78
3172.03
3184.43
3196.99
3209.67
3222.46
3235.32
3248.24
3261.17
3274.08
3286.91
3299.62
3312.13
3324.36
3336.21
3347.54
3358.24
3368.04
3376.79
3384.01
3389.47
3392.83
3393.58
3390.5
3382.8
3369.38
3349.17
3318.23
3274.42
3211.98
3129.22
3014.98
2793.36
2802.36
2813.39
2819.27
2820.92
2820.48
2817.91
2813.31
2807.3
2799.77
2791.52
2783.29
2775.31
2767.43
2759.58
2752.07
2745.79
2742.13
2741.33
2743.99
2753.03
2766.76
2780.15
2789.86
2795.67
2799.28
2801.82
2804.09
2806.2
2808.12
2809.75
2811.25
2812.82
2814.51
2816.37
2818.38
2820.46
2822.52
2824.56
2826.62
2828.75
2830.99
2833.39
2835.96
2838.7
2841.56
2844.52
2847.55
2850.67
2853.93
2857.35
2860.97
2864.79
2868.82
2873.07
2877.55
2882.28
2887.28
2892.53
2898.04
2903.77
2909.73
2915.9
2922.31
2928.96
2935.84
2942.95
2950.32
2957.92
2965.76
2973.83
2982.14
2990.67
2999.44
3008.47
3017.73
3027.24
3036.99
3046.99
3057.23
3067.71
3078.43
3089.4
3100.6
3112.05
3123.73
3135.65
3147.8
3160.17
3172.74
3185.51
3198.48
3211.65
3224.99
3238.5
3252.16
3265.94
3279.82
3293.78
3307.78
3321.79
3335.74
3349.6
3363.27
3376.68
3389.72
3402.22
3414.06
3424.93
3434.73
3442.74
3448.79
3452.21
3452.59
3447.65
3437.22
3417.57
3386.83
3335.32
3265.45
3158.37
2793.24
2802.16
2813.54
2820.08
2822.03
2821.73
2819.49
2814.52
2807.52
2798.93
2789.63
2780.95
2773.05
2765.57
2758.24
2751.18
2744.81
2740.39
2738.47
2738.95
2744.12
2755.85
2770.52
2783.07
2791.49
2796.8
2800.43
2803.41
2806.08
2808.33
2810.2
2811.89
2813.62
2815.51
2817.58
2819.8
2822.1
2824.38
2826.64
2828.92
2831.27
2833.73
2836.33
2839.09
2842
2845.04
2848.15
2851.34
2854.61
2858
2861.56
2865.31
2869.26
2873.43
2877.81
2882.43
2887.3
2892.44
2897.83
2903.47
2909.34
2915.43
2921.74
2928.29
2935.07
2942.08
2949.35
2956.85
2964.61
2972.6
2980.83
2989.3
2998.01
3006.96
3016.17
3025.63
3035.34
3045.3
3055.52
3065.99
3076.72
3087.7
3098.94
3110.43
3122.18
3134.19
3146.45
3158.97
3171.73
3184.72
3197.95
3211.41
3225.09
3239
3253.13
3267.45
3281.97
3296.65
3311.49
3326.47
3341.56
3356.72
3371.92
3387.11
3402.24
3417.23
3431.98
3446.36
3460.2
3473.37
3485.46
3496.34
3504.98
3511.37
3514.59
3514.27
3506.75
3490.77
3453.94
3402.81
3305.58
2793.28
2802.37
2814.09
2820.94
2823.16
2822.84
2820.51
2814.81
2806.84
2796.91
2786.88
2778.06
2770.4
2763.39
2756.64
2750.13
2744.07
2739.28
2736.43
2735.99
2738.21
2746.77
2760.91
2775.46
2786.56
2793.85
2798.81
2802.62
2805.87
2808.53
2810.68
2812.55
2814.45
2816.53
2818.79
2821.21
2823.69
2826.16
2828.62
2831.11
2833.67
2836.33
2839.12
2842.07
2845.15
2848.35
2851.61
2854.94
2858.36
2861.89
2865.58
2869.46
2873.54
2877.84
2882.36
2887.11
2892.11
2897.38
2902.91
2908.68
2914.68
2920.9
2927.34
2934.01
2940.92
2948.07
2955.46
2963.11
2971
2979.14
2987.52
2996.14
3005
3014.12
3023.5
3033.14
3043.03
3053.19
3063.6
3074.29
3085.23
3096.45
3107.93
3119.68
3131.7
3144
3156.56
3169.4
3182.51
3195.87
3209.5
3223.37
3237.51
3251.91
3266.56
3281.46
3296.59
3311.96
3327.54
3343.34
3359.33
3375.49
3391.81
3408.24
3424.78
3441.35
3457.92
3474.38
3490.64
3506.56
3522
3536.78
3550.44
3562.74
3572.47
3579.62
3582.83
3579.69
3560.2
3530.36
3458.37
2793.55
2803.06
2815.08
2821.86
2824.19
2823.73
2820.81
2814.29
2804.76
2793.82
2783.45
2774.78
2767.51
2760.99
2754.82
2748.87
2743.26
2738.31
2735.02
2733.84
2734.7
2740.06
2752.26
2767.69
2781.15
2790.6
2797.04
2801.81
2805.7
2808.78
2811.21
2813.28
2815.34
2817.59
2820.02
2822.6
2825.24
2827.88
2830.51
2833.19
2835.94
2838.8
2841.79
2844.92
2848.17
2851.52
2854.94
2858.41
2861.96
2865.62
2869.44
2873.45
2877.66
2882.08
2886.73
2891.61
2896.74
2902.14
2907.8
2913.69
2919.81
2926.15
2932.71
2939.5
2946.53
2953.81
2961.32
2969.09
2977.12
2985.39
2993.9
3002.67
3011.68
3020.94
3030.48
3040.28
3050.34
3060.67
3071.27
3082.15
3093.3
3104.73
3116.43
3128.42
3140.68
3153.23
3166.07
3179.2
3192.61
3206.31
3220.28
3234.52
3249.06
3263.88
3278.99
3294.38
3310.05
3325.99
3342.21
3358.69
3375.45
3392.45
3409.69
3427.15
3444.84
3462.7
3480.74
3498.87
3517.07
3535.24
3553.3
3571.09
3588.41
3605
3620.34
3633.97
3644.92
3652.02
3652.31
3638.69
3604.22
2794.14
2804.22
2816.44
2822.82
2824.86
2824.16
2820.46
2812.43
2801.45
2789.88
2779.57
2771.27
2764.48
2758.45
2752.8
2747.39
2742.25
2737.4
2733.9
2732.22
2732.23
2735.42
2745.22
2760.45
2775.65
2787.19
2795.21
2801.04
2805.58
2809.08
2811.78
2814.04
2816.26
2818.66
2821.25
2823.96
2826.73
2829.51
2832.31
2835.15
2838.09
2841.14
2844.32
2847.63
2851.05
2854.54
2858.1
2861.7
2865.38
2869.18
2873.13
2877.26
2881.6
2886.14
2890.91
2895.92
2901.18
2906.71
2912.49
2918.5
2924.74
2931.19
2937.87
2944.78
2951.92
2959.31
2966.95
2974.84
2982.98
2991.38
3000.02
3008.92
3018.07
3027.48
3037.16
3047.11
3057.33
3067.83
3078.6
3089.66
3101
3112.62
3124.54
3136.74
3149.23
3162.02
3175.12
3188.51
3202.21
3216.2
3230.49
3245.07
3259.97
3275.17
3290.69
3306.51
3322.65
3339.1
3355.86
3372.93
3390.33
3408.03
3426.05
3444.35
3462.97
3481.87
3501.08
3520.52
3540.21
3560.08
3580.1
3600.18
3620.22
3640.09
3659.51
3678.24
3695.75
3710.64
3722.36
3724.87
3722.99
2795.09
2805.86
2818.04
2823.8
2825.1
2823.96
2818.91
2809.24
2797.21
2785.46
2775.52
2767.71
2761.41
2755.81
2750.63
2745.71
2741.02
2736.43
2732.87
2730.95
2730.56
2732.38
2739.95
2754.2
2770.42
2783.82
2793.43
2800.35
2805.53
2809.43
2812.37
2814.82
2817.18
2819.72
2822.45
2825.29
2828.18
2831.09
2834.03
2837.05
2840.16
2843.4
2846.77
2850.25
2853.82
2857.45
2861.13
2864.85
2868.66
2872.58
2876.65
2880.9
2885.35
2890.02
2894.91
2900.04
2905.43
2911.08
2916.98
2923.11
2929.45
2936.02
2942.8
2949.81
2957.07
2964.57
2972.32
2980.32
2988.58
2997.09
3005.86
3014.88
3024.15
3033.7
3043.52
3053.61
3063.99
3074.64
3085.57
3096.8
3108.31
3120.12
3132.22
3144.63
3157.33
3170.34
3183.67
3197.31
3211.26
3225.52
3240.09
3254.98
3270.2
3285.74
3301.62
3317.83
3334.39
3351.27
3368.51
3386.08
3404.02
3422.31
3440.96
3459.95
3479.32
3499.04
3519.14
3539.57
3560.38
3581.48
3602.9
3624.57
3646.46
3668.49
3690.36
3712.05
3732.91
3752.91
3770.13
3781.75
3794.79
2796.49
2807.95
2819.66
2824.63
2824.95
2822.83
2815.96
2804.81
2792.27
2780.81
2771.47
2764.21
2758.35
2753.13
2748.35
2743.91
2739.66
2735.45
2732.01
2729.97
2729.42
2730.38
2736.18
2749.14
2765.77
2780.66
2791.76
2799.75
2805.55
2809.8
2812.97
2815.59
2818.09
2820.76
2823.61
2826.56
2829.56
2832.59
2835.67
2838.85
2842.14
2845.56
2849.1
2852.75
2856.46
2860.22
2864.02
2867.86
2871.78
2875.82
2880
2884.37
2888.94
2893.72
2898.73
2903.98
2909.5
2915.26
2921.27
2927.51
2933.96
2940.62