/*--------------------------------*- C++ -*----------------------------------*\
| =========                 |                                                 |
| \\      /  F ield         | OpenFOAM: The Open Source CFD Toolbox           |
|  \\    /   O peration     | Version:  2412                                  |
|   \\  /    A nd           | Website:  www.openfoam.com                      |
|    \\/     M anipulation  |                                                 |
\*---------------------------------------------------------------------------*/
FoamFile
{
    version     2.0;
    format      ascii;
    arch        "LSB;label=32;scalar=64";
    class       volScalarField;
    location    "0.118";
    object      T;
}
// * * * * * * * * * * * * * * * * * * * * * * * * * * * * * * * * * * * * * //

dimensions      [0 0 0 1 0 0 0];

internalField   nonuniform List<scalar> 
9857
(
216.895
220.783
220.794
216.44
220.652
220.74
220.955
221.447
221.934
222.256
222.455
222.596
222.686
222.731
222.74
222.735
222.739
222.772
222.848
222.94
223.032
223.121
223.202
223.272
223.332
223.385
223.434
223.484
215.959
220.509
220.691
220.945
221.449
221.928
222.246
222.452
222.597
222.688
222.733
222.74
222.735
222.738
222.766
222.84
222.929
223.022
223.112
223.195
223.266
223.328
223.382
223.433
223.486
215.24
220.374
220.644
220.936
221.453
221.926
222.241
222.453
222.601
222.693
222.734
222.741
222.735
222.733
222.756
222.827
222.916
223.009
223.102
223.187
223.26
223.323
223.379
223.433
223.487
214.34
220.219
220.59
220.926
221.46
221.93
222.244
222.46
222.609
222.699
222.736
222.738
222.729
222.723
222.74
222.811
222.9
222.996
223.091
223.178
223.254
223.318
223.376
223.431
223.488
213.413
220.056
220.526
220.912
221.47
221.939
222.257
222.477
222.624
222.709
222.737
222.731
222.719
222.709
222.722
222.794
222.886
222.983
223.081
223.171
223.248
223.314
223.373
223.431
223.49
212.453
219.903
220.47
220.907
221.482
221.947
222.268
222.492
222.639
222.718
222.736
222.724
222.707
222.694
222.705
222.778
222.872
222.972
223.073
223.164
223.242
223.309
223.37
223.43
223.491
211.479
219.744
220.449
220.922
221.5
221.957
222.278
222.504
222.651
222.725
222.737
222.72
222.697
222.682
222.691
222.764
222.861
222.963
223.065
223.158
223.237
223.305
223.368
223.429
223.493
223.56
210.471
219.617
220.411
220.899
221.495
221.953
222.276
222.505
222.655
222.728
222.739
222.719
222.691
222.673
222.681
222.752
222.852
222.956
223.059
223.152
223.232
223.301
223.365
223.428
223.494
223.564
209.44
219.449
220.374
220.89
221.494
221.951
222.272
222.501
222.654
222.728
222.74
222.721
222.69
222.668
222.675
222.742
222.845
222.95
223.053
223.146
223.226
223.296
223.362
223.427
223.496
223.567
223.641
208.368
219.285
220.359
220.905
221.51
221.954
222.264
222.491
222.647
222.725
222.741
222.723
222.69
222.666
222.671
222.735
222.84
222.944
223.047
223.14
223.22
223.291
223.358
223.426
223.497
223.57
223.646
207.251
219.093
220.378
220.954
221.551
221.964
222.254
222.474
222.634
222.718
222.74
222.723
222.691
222.665
222.669
222.729
222.835
222.939
223.042
223.134
223.214
223.286
223.355
223.425
223.498
223.574
223.651
223.73
206.097
218.918
220.408
221.01
221.591
221.971
222.24
222.454
222.617
222.707
222.736
222.724
222.691
222.664
222.666
222.724
222.831
222.934
223.036
223.127
223.208
223.281
223.352
223.424
223.499
223.577
223.656
223.737
204.932
218.688
220.43
221.061
221.627
221.975
222.224
222.432
222.598
222.695
222.73
222.721
222.689
222.662
222.662
222.719
222.826
222.928
223.03
223.121
223.202
223.276
223.349
223.423
223.501
223.58
223.661
223.743
223.827
223.91
223.994
224.079
224.163
224.249
224.334
224.422
224.511
224.601
224.694
224.789
224.885
224.984
225.086
225.19
225.296
225.405
225.514
225.626
225.739
225.855
225.974
226.096
226.222
226.351
226.483
226.619
226.758
226.901
227.048
227.198
203.738
218.466
220.476
221.117
221.659
221.975
222.206
222.409
222.578
222.681
222.721
222.714
222.682
222.657
222.656
222.712
222.821
222.923
223.024
223.114
223.196
223.271
223.346
223.423
223.502
223.584
223.666
223.75
223.834
223.919
224.004
224.09
224.175
224.261
224.348
224.436
224.526
224.618
224.711
224.806
224.903
225.003
225.105
225.21
225.316
225.424
225.533
225.644
225.758
225.874
225.992
226.114
226.239
226.368
226.5
226.635
226.773
226.915
227.06
227.21
202.506
218.268
220.493
221.165
221.691
221.975
222.189
222.388
222.559
222.666
222.709
222.704
222.672
222.648
222.649
222.706
222.816
222.918
223.018
223.108
223.19
223.267
223.344
223.423
223.504
223.587
223.671
223.756
223.842
223.928
224.014
224.1
224.186
224.273
224.361
224.45
224.541
224.634
224.728
224.823
224.921
225.021
225.124
225.228
225.335
225.442
225.551
225.662
225.775
225.891
226.009
226.131
226.255
226.383
226.514
226.648
226.786
226.926
227.071
227.219
201.258
218.071
220.514
221.214
221.719
221.975
222.175
222.369
222.541
222.65
222.694
222.689
222.659
222.638
222.641
222.699
222.812
222.913
223.013
223.103
223.185
223.263
223.342
223.423
223.506
223.591
223.676
223.763
223.849
223.936
224.023
224.11
224.197
224.285
224.374
224.464
224.556
224.649
224.743
224.839
224.937
225.038
225.141
225.246
225.352
225.459
225.568
225.679
225.791
225.907
226.025
226.146
226.27
226.397
226.527
226.66
226.797
226.936
227.079
227.226
200.02
217.88
220.532
221.256
221.744
221.975
222.161
222.352
222.522
222.631
222.675
222.67
222.643
222.625
222.633
222.694
222.807
222.909
223.007
223.097
223.18
223.26
223.34
223.423
223.508
223.594
223.681
223.769
223.856
223.944
224.032
224.119
224.207
224.296
224.386
224.477
224.569
224.663
224.758
224.855
224.953
225.055
225.158
225.263
225.368
225.475
225.584
225.694
225.806
225.921
226.039
226.16
226.283
226.409
226.539
226.671
226.806
226.944
227.086
227.231
198.803
217.641
220.556
221.291
221.765
221.973
222.148
222.335
222.503
222.611
222.655
222.651
222.627
222.612
222.624
222.689
222.803
222.905
223.003
223.092
223.176
223.257
223.34
223.424
223.511
223.598
223.686
223.775
223.863
223.952
224.04
224.129
224.217
224.307
224.398
224.49
224.583
224.677
224.772
224.869
224.969
225.07
225.174
225.278
225.384
225.49
225.598
225.708
225.82
225.935
226.052
226.172
226.295
226.42
226.549
226.68
226.814
226.951
227.091
227.235
197.599
217.426
220.562
221.312
221.782
221.972
222.137
222.318
222.483
222.589
222.634
222.631
222.611
222.599
222.615
222.686
222.8
222.901
222.998
223.088
223.173
223.255
223.339
223.425
223.513
223.602
223.691
223.781
223.87
223.959
224.048
224.137
224.227
224.318
224.409
224.502
224.595
224.69
224.786
224.883
224.983
225.085
225.188
225.293
225.398
225.504
225.612
225.721
225.833
225.947
226.064
226.184
226.306
226.43
226.557
226.687
226.82
226.956
227.095
227.237
196.399
217.241
220.597
221.335
221.79
221.967
222.125
222.301
222.462
222.567
222.612
222.611
222.595
222.587
222.607
222.683
222.796
222.898
222.994
223.084
223.17
223.254
223.339
223.427
223.516
223.606
223.696
223.787
223.877
223.966
224.056
224.146
224.236
224.328
224.42
224.513
224.607
224.702
224.798
224.897
224.997
225.099
225.202
225.306
225.411
225.517
225.624
225.734
225.845
225.959
226.075
226.194
226.315
226.438
226.564
226.693
226.825
226.959
227.096
227.237
195.183
217.074
220.593
221.354
221.789
221.959
222.113
222.284
222.442
222.546
222.592
222.592
222.579
222.574
222.599
222.679
222.793
222.894
222.989
223.081
223.168
223.253
223.34
223.428
223.519
223.61
223.701
223.792
223.883
223.973
224.064
224.154
224.245
224.338
224.431
224.524
224.618
224.714
224.811
224.91
225.01
225.112
225.215
225.319
225.423
225.529
225.636
225.745
225.856
225.969
226.085
226.203
226.323
226.445
226.57
226.698
226.828
226.961
227.097
227.236
193.936
216.936
220.564
221.347
221.784
221.947
222.1
222.267
222.421
222.525
222.571
222.574
222.564
222.562
222.591
222.675
222.789
222.891
222.986
223.078
223.166
223.253
223.341
223.43
223.522
223.614
223.706
223.798
223.889
223.98
224.071
224.162
224.254
224.347
224.441
224.535
224.629
224.725
224.823
224.922
225.023
225.125
225.228
225.331
225.435
225.54
225.647
225.755
225.866
225.979
226.094
226.211
226.33
226.451
226.575
226.701
226.83
226.962
227.096
227.233
192.7
216.79
220.551
221.346
221.772
221.934
222.085
222.251
222.402
222.504
222.551
222.555
222.547
222.548
222.582
222.671
222.786
222.887
222.982
223.076
223.165
223.253
223.342
223.433
223.525
223.617
223.71
223.803
223.895
223.986
224.078
224.17
224.263
224.356
224.45
224.544
224.64
224.736
224.834
224.934
225.035
225.136
225.239
225.342
225.446
225.55
225.657
225.765
225.875
225.987
226.102
226.218
226.336
226.456
226.579
226.703
226.831
226.961
227.093
227.229
191.517
216.624
220.55
221.341
221.756
221.918
222.07
222.234
222.383
222.482
222.529
222.535
222.53
222.534
222.573
222.666
222.782
222.883
222.978
223.073
223.164
223.253
223.343
223.435
223.528
223.621
223.715
223.808
223.9
223.992
224.084
224.177
224.271
224.365
224.459
224.554
224.65
224.746
224.845
224.945
225.046
225.147
225.25
225.352
225.455
225.56
225.666
225.774
225.884
225.995
226.108
226.224
226.341
226.46
226.581
226.705
226.831
226.959
227.09
227.223
190.375
216.375
220.578
221.333
221.744
221.902
222.055
222.219
222.364
222.46
222.505
222.513
222.511
222.519
222.564
222.661
222.778
222.88
222.975
223.071
223.163
223.254
223.345
223.437
223.531
223.625
223.719
223.813
223.905
223.998
224.091
224.185
224.279
224.373
224.468
224.563
224.659
224.756
224.855
224.955
225.056
225.158
225.259
225.362
225.465
225.569
225.675
225.782
225.891
226.002
226.114
226.229
226.345
226.463
226.582
226.705
226.829
226.956
227.085
227.216
189.268
216.15
220.57
221.32
221.733
221.886
222.04
222.203
222.345
222.437
222.48
222.491
222.492
222.504
222.555
222.656
222.774
222.876
222.972
223.069
223.162
223.255
223.347
223.44
223.534
223.629
223.723
223.817
223.91
224.003
224.097
224.192
224.286
224.381
224.476
224.572
224.668
224.766
224.865
224.965
225.066
225.167
225.269
225.371
225.473
225.577
225.683
225.789
225.898
226.008
226.12
226.233
226.348
226.464
226.583
226.704
226.826
226.951
227.078
227.208
188.146
215.967
220.595
221.317
221.722
221.869
222.023
222.186
222.323
222.412
222.454
222.467
222.472
222.489
222.546
222.651
222.77
222.873
222.969
223.067
223.162
223.255
223.349
223.442
223.537
223.632
223.727
223.821
223.915
224.009
224.103
224.198
224.293
224.388
224.484
224.58
224.677
224.775
224.874
224.974
225.075
225.176
225.277
225.379
225.481
225.585
225.69
225.796
225.904
226.013
226.124
226.236
226.35
226.465
226.582
226.702
226.823
226.946
227.071
227.198
187.001
215.786
220.569
221.311
221.713
221.852
222.005
222.165
222.298
222.385
222.427
222.443
222.452
222.474
222.537
222.646
222.766
222.869
222.967
223.066
223.162
223.256
223.35
223.445
223.54
223.636
223.731
223.825
223.919
224.014
224.109
224.204
224.3
224.395
224.491
224.588
224.685
224.783
224.883
224.983
225.084
225.184
225.285
225.386
225.489
225.592
225.696
225.802
225.909
226.018
226.127
226.238
226.351
226.465
226.581
226.698
226.818
226.939
227.063
227.188
185.862
215.625
220.53
221.306
221.708
221.839
221.986
222.141
222.271
222.357
222.399
222.419
222.433
222.46
222.529
222.641
222.762
222.866
222.965
223.065
223.162
223.257
223.352
223.447
223.543
223.639
223.734
223.829
223.924
224.019
224.115
224.21
224.306
224.402
224.498
224.595
224.693
224.792
224.891
224.991
225.091
225.192
225.293
225.394
225.496
225.598
225.703
225.808
225.914
226.022
226.13
226.24
226.351
226.464
226.579
226.695
226.812
226.932
227.053
227.176
184.752
215.421
220.498
221.305
221.703
221.83
221.971
222.117
222.242
222.327
222.371
222.395
222.413
222.446
222.521
222.636
222.758
222.864
222.964
223.065
223.162
223.258
223.354
223.45
223.546
223.642
223.738
223.833
223.928
224.024
224.12
224.216
224.312
224.409
224.505
224.603
224.7
224.799
224.899
224.999
225.099
225.199
225.3
225.4
225.502
225.604
225.708
225.813
225.918
226.025
226.132
226.241
226.351
226.463
226.576
226.69
226.806
226.924
227.043
227.163
227.286
227.409
227.534
227.66
227.787
227.915
228.044
228.173
228.303
228.432
228.561
228.689
228.816
228.94
229.063
229.183
229.3
229.412
229.521
229.624
229.721
229.813
229.898
229.976
230.046
230.108
230.161
230.206
230.242
230.269
230.287
230.297
230.298
230.29
230.272
230.248
230.215
230.176
230.13
183.652
215.232
220.469
221.297
221.701
221.826
221.961
222.098
222.215
222.298
222.343
222.371
222.394
222.432
222.514
222.632
222.755
222.861
222.963
223.064
223.163
223.259
223.356
223.452
223.548
223.645
223.741
223.836
223.932
224.028
224.125
224.221
224.318
224.415
224.512
224.609
224.708
224.806
224.906
225.006
225.106
225.206
225.306
225.407
225.508
225.61
225.713
225.817
225.922
226.027
226.134
226.242
226.35
226.46
226.572
226.685
226.799
226.915
227.032
227.15
227.27
227.39
227.512
227.636
227.759
227.884
228.009
228.134
228.26
228.384
228.508
228.631
228.753
228.872
228.989
229.102
229.213
229.319
229.42
229.516
229.607
229.691
229.768
229.838
229.901
229.955
230.001
230.039
230.068
230.088
230.099
230.103
230.097
230.083
230.061
230.031
229.994
229.951
229.902
229.847
229.786
229.722
229.653
229.582
229.507
229.431
229.353
229.273
229.193
182.555
215.056
220.429
221.287
221.7
221.826
221.959
222.086
222.192
222.271
222.316
222.347
222.375
222.419
222.508
222.629
222.752
222.859
222.962
223.064
223.163
223.261
223.357
223.454
223.551
223.648
223.744
223.84
223.936
224.033
224.13
224.227
224.324
224.421
224.518
224.616
224.714
224.813
224.913
225.013
225.113
225.212
225.312
225.412
225.513
225.615
225.717
225.821
225.924
226.029
226.135
226.241
226.349
226.458
226.567
226.679
226.791
226.905
227.02
227.136
227.253
227.371
227.49
227.61
227.73
227.852
227.973
228.094
228.215
228.335
228.454
228.572
228.688
228.802
228.912
229.02
229.124
229.223
229.318
229.407
229.49
229.567
229.637
229.7
229.755
229.802
229.84
229.871
229.893
229.906
229.911
229.909
229.897
229.877
229.85
229.816
229.775
229.728
229.675
229.618
229.555
229.489
229.418
229.346
229.27
229.194
229.116
229.036
228.956
228.875
228.794
228.713
228.632
228.554
228.478
228.406
228.338
228.274
228.211
228.143
228.047
181.463
214.869
220.382
221.277
221.7
221.829
221.961
222.082
222.176
222.247
222.29
222.324
222.356
222.407
222.502
222.626
222.749
222.857
222.962
223.065
223.164
223.262
223.359
223.456
223.553
223.65
223.747
223.843
223.94
224.037
224.134
224.232
224.329
224.426
224.524
224.622
224.721
224.82
224.919
225.019
225.119
225.218
225.318
225.418
225.518
225.62
225.721
225.824
225.927
226.03
226.135
226.24
226.347
226.454
226.562
226.672
226.782
226.894
227.007
227.12
227.235
227.351
227.467
227.583
227.701
227.818
227.935
228.052
228.169
228.285
228.399
228.511
228.622
228.73
228.835
228.936
229.034
229.127
229.214
229.297
229.373
229.442
229.505
229.56
229.608
229.648
229.68
229.703
229.718
229.725
229.725
229.715
229.698
229.673
229.641
229.603
229.558
229.507
229.452
229.392
229.326
229.259
229.186
229.113
229.036
228.959
228.881
228.801
228.722
228.641
228.56
228.481
228.401
228.324
228.249
228.178
228.111
228.048
227.987
227.92
227.826
180.4
214.693
220.346
221.265
221.698
221.836
221.97
222.083
222.164
222.226
222.266
222.301
222.338
222.395
222.497
222.623
222.747
222.856
222.961
223.065
223.165
223.263
223.361
223.459
223.556
223.653
223.749
223.846
223.943
224.041
224.138
224.236
224.334
224.432
224.53
224.628
224.727
224.826
224.925
225.025
225.124
225.224
225.323
225.423
225.523
225.624
225.725
225.826
225.929
226.031
226.135
226.239
226.344
226.45
226.557
226.664
226.773
226.883
226.993
227.105
227.217
227.329
227.442
227.556
227.67
227.783
227.897
228.01
228.122
228.233
228.342
228.449
228.555
228.657
228.756
228.851
228.942
229.028
229.109
229.185
229.254
229.316
229.372
229.42
229.46
229.493
229.518
229.534
229.543
229.545
229.537
229.522
229.499
229.47
229.433
229.391
229.342
229.289
229.23
229.167
229.1
229.031
228.957
228.883
228.806
228.728
228.65
228.57
228.491
228.411
228.33
228.251
228.173
228.096
228.023
227.953
227.887
227.825
227.765
227.7
227.607
179.37
214.444
220.325
221.251
221.699
221.847
221.984
222.087
222.157
222.209
222.245
222.28
222.321
222.384
222.493
222.621
222.745
222.854
222.961
223.065
223.166
223.265
223.363
223.461
223.558
223.655
223.752
223.849
223.946
224.044
224.143
224.241
224.339
224.437
224.535
224.633
224.732
224.832
224.931
225.031
225.13
225.229
225.328
225.428
225.527
225.627
225.728
225.829
225.93
226.032
226.134
226.237
226.341
226.445
226.55
226.657
226.763
226.871
226.979
227.088
227.197
227.307
227.417
227.528
227.638
227.748
227.857
227.966
228.074
228.18
228.284
228.386
228.486
228.583
228.676
228.765
228.849
228.929
229.003
229.072
229.134
229.19
229.238
229.279
229.313
229.338
229.356
229.367
229.37
229.364
229.351
229.33
229.303
229.268
229.228
229.181
229.129
229.073
229.011
228.946
228.876
228.806
228.73
228.656
228.578
228.5
228.422
228.341
228.262
228.182
228.103
228.024
227.946
227.871
227.798
227.729
227.665
227.603
227.544
227.479
227.388
178.361
214.232
220.32
221.228
221.7
221.86
221.999
222.095
222.152
222.193
222.225
222.26
222.304
222.373
222.488
222.618
222.743
222.853
222.961
223.066
223.167
223.266
223.365
223.463
223.56
223.657
223.754
223.852
223.95
224.048
224.147
224.245
224.343
224.442
224.54
224.638
224.738
224.837
224.937
225.036
225.135
225.234
225.333
225.432
225.531
225.631
225.73
225.83
225.931
226.032
226.133
226.235
226.337
226.44
226.544
226.648
226.753
226.858
226.964
227.071
227.178
227.285
227.392
227.498
227.605
227.711
227.817
227.921
228.024
228.126
228.225
228.322
228.416
228.507
228.594
228.677
228.755
228.829
228.896
228.958
229.013
229.062
229.103
229.138
229.164
229.183
229.195
229.199
229.196
229.184
229.165
229.14
229.107
229.068
229.024
228.974
228.918
228.859
228.794
228.727
228.656
228.583
228.507
228.431
228.353
228.275
228.196
228.116
228.037
227.957
227.878
227.8
227.723
227.648
227.576
227.508
227.444
227.384
227.324
227.26
227.17
177.355
214.065
220.296
221.202
221.7
221.872
222.014
222.104
222.15
222.18
222.206
222.241
222.288
222.363
222.483
222.615
222.741
222.852
222.961
223.067
223.169
223.268
223.367
223.465
223.562
223.66
223.757
223.854
223.953
224.052
224.151
224.249
224.348
224.446
224.545
224.643
224.743
224.842
224.942
225.041
225.14
225.238
225.337
225.436
225.535
225.634
225.733
225.832
225.931
226.031
226.131
226.232
226.333
226.435
226.537
226.639
226.742
226.846
226.949
227.053
227.157
227.261
227.365
227.469
227.572
227.674
227.776
227.876
227.974
228.071
228.165
228.257
228.346
228.431
228.512
228.589
228.661
228.728
228.789
228.844
228.892
228.934
228.969
228.996
229.016
229.029
229.034
229.033
229.023
229.006
228.982
228.951
228.914
228.871
228.822
228.768
228.71
228.647
228.58
228.512
228.438
228.364
228.287
228.21
228.131
228.052
227.973
227.893
227.814
227.734
227.655
227.578
227.501
227.427
227.355
227.288
227.225
227.165
227.106
227.042
226.954
176.313
213.927
220.261
221.199
221.701
221.88
222.027
222.112
222.149
222.169
222.189
222.223
222.273
222.353
222.478
222.612
222.739
222.851
222.962
223.067
223.17
223.269
223.368
223.467
223.564
223.662
223.759
223.857
223.956
224.055
224.154
224.253
224.352
224.45
224.549
224.648
224.747
224.847
224.946
225.046
225.144
225.243
225.341
225.439
225.538
225.636
225.734
225.833
225.932
226.03
226.129
226.229
226.329
226.429
226.529
226.63
226.731
226.832
226.933
227.035
227.136
227.237
227.338
227.438
227.538
227.636
227.734
227.829
227.923
228.015
228.105
228.191
228.274
228.354
228.429
228.5
228.565
228.625
228.68
228.728
228.77
228.805
228.833
228.854
228.868
228.874
228.874
228.866
228.85
228.828
228.799
228.763
228.722
228.674
228.622
228.565
228.503
228.438
228.369
228.298
228.223
228.148
228.069
227.991
227.912
227.832
227.753
227.673
227.594
227.515
227.436
227.358
227.282
227.208
227.138
227.071
227.008
226.948
226.89
226.827
226.739
175.234
213.786
220.196
221.191
221.705
221.887
222.037
222.119
222.146
222.157
222.172
222.205
222.259
222.343
222.472
222.608
222.736
222.85
222.962
223.068
223.171
223.271
223.37
223.469
223.566
223.664
223.761
223.86
223.959
224.058
224.158
224.257
224.356
224.454
224.553
224.653
224.752
224.852
224.951
225.05
225.148
225.247
225.345
225.443
225.541
225.638
225.736
225.834
225.931
226.029
226.127
226.225
226.324
226.422
226.521
226.62
226.719
226.818
226.917
227.016
227.115
227.213
227.31
227.407
227.503
227.598
227.691
227.783
227.872
227.959
228.043
228.124
228.202
228.276
228.345
228.41
228.469
228.523
228.571
228.613
228.648
228.677
228.698
228.713
228.72
228.722
228.715
228.7
228.679
228.651
228.617
228.577
228.532
228.481
228.425
228.364
228.3
228.232
228.161
228.088
228.011
227.934
227.855
227.776
227.697
227.616
227.536
227.456
227.376
227.297
227.218
227.141
227.065
226.992
226.922
226.855
226.793
226.734
226.675
226.612
226.525
174.127
213.594
220.147
221.181
221.704
221.891
222.044
222.122
222.143
222.146
222.155
222.187
222.244
222.334
222.466
222.604
222.733
222.849
222.962
223.069
223.172
223.272
223.372
223.47
223.568
223.666
223.763
223.862
223.962
224.061
224.161
224.26
224.359
224.458
224.557
224.657
224.756
224.856
224.955
225.054
225.152
225.25
225.348
225.446
225.543
225.64
225.737
225.834
225.931
226.028
226.124
226.221
226.318
226.416
226.513
226.61
226.707
226.804
226.901
226.997
227.093
227.188
227.282
227.376
227.468
227.559
227.648
227.735
227.82
227.902
227.981
228.057
228.129
228.197
228.261
228.319
228.372
228.42
228.462
228.497
228.526
228.548
228.563
228.572
228.574
228.568
228.555
228.535
228.509
228.476
228.438
228.393
228.343
228.289
228.229
228.166
228.099
228.029
227.955
227.88
227.802
227.724
227.644
227.564
227.483
227.402
227.322
227.242
227.162
227.083
227.004
226.927
226.852
226.778
226.709
226.643
226.58
226.521
226.463
226.401
226.315
173.083
213.455
220.108
221.175
221.698
221.894
222.049
222.124
222.138
222.134
222.138
222.17
222.229
222.324
222.46
222.6
222.73
222.848
222.962
223.069
223.174
223.274
223.374
223.472
223.57
223.668
223.766
223.865
223.964
224.064
224.164
224.263
224.362
224.462
224.561
224.661
224.761
224.86
224.959
225.058
225.156
225.254
225.351
225.448
225.545
225.642
225.738
225.834
225.93
226.026
226.122
226.217
226.313
226.409
226.504
226.6
226.695
226.789
226.884
226.977
227.07
227.163
227.254
227.344
227.432
227.519
227.604
227.687
227.767
227.844
227.919
227.989
228.056
228.118
228.176
228.228
228.276
228.317
228.352
228.381
228.404
228.42
228.429
228.432
228.427
228.415
228.397
228.372
228.34
228.303
228.26
228.211
228.157
228.099
228.036
227.97
227.9
227.828
227.752
227.675
227.595
227.516
227.435
227.354
227.274
227.192
227.111
227.03
226.95
226.871
226.793
226.715
226.64
226.567
226.498
226.432
226.37
226.311
226.254
226.192
226.105
172.123
213.233
220.077
221.159
221.688
221.893
222.051
222.122
222.131
222.121
222.12
222.152
222.215
222.314
222.454
222.595
222.727
222.846
222.961
223.07
223.175
223.275
223.375
223.474
223.572
223.669
223.768
223.867
223.967
224.067
224.167
224.266
224.366
224.465
224.565
224.665
224.765
224.864
224.963
225.062
225.16
225.257
225.354
225.451
225.547
225.643
225.739
225.834
225.929
226.024
226.118
226.213
226.307
226.401
226.495
226.589
226.682
226.775
226.866
226.958
227.048
227.137
227.225
227.311
227.396
227.479
227.56
227.638
227.714
227.786
227.855
227.921
227.982
228.038
228.09
228.137
228.178
228.213
228.243
228.265
228.282
228.292
228.295
228.292
228.281
228.263
228.24
228.209
228.173
228.131
228.083
228.031
227.973
227.912
227.846
227.777
227.704
227.63
227.552
227.474
227.392
227.312
227.23
227.148
227.067
226.984
226.903
226.822
226.742
226.663
226.584
226.507
226.432
226.36
226.29
226.225
226.163
226.104
226.047
225.984
225.898
171.22
213.013
220.09
221.128
221.674
221.89
222.05
222.117
222.121
222.106
222.102
222.134
222.2
222.304
222.447
222.59
222.724
222.845
222.961
223.07
223.176
223.277
223.377
223.475
223.573
223.671
223.77
223.869
223.969
224.07
224.169
224.269
224.369
224.468
224.568
224.668
224.768
224.868
224.967
225.065
225.163
225.26
225.357
225.453
225.549
225.644
225.739
225.833
225.928
226.021
226.115
226.208
226.301
226.394
226.486
226.578
226.669
226.759
226.849
226.937
227.025
227.111
227.195
227.278
227.36
227.439
227.515
227.589
227.66
227.728
227.792
227.852
227.908
227.959
228.005
228.046
228.081
228.11
228.133
228.15
228.16
228.164
228.162
228.152
228.136
228.113
228.084
228.049
228.008
227.961
227.91
227.853
227.792
227.727
227.658
227.586
227.511
227.435
227.355
227.275
227.192
227.111
227.028
226.945
226.863
226.78
226.699
226.617
226.537
226.457
226.379
226.302
226.227
226.154
226.085
226.02
225.958
225.9
225.842
225.781
225.695
170.329
212.847
220.085
221.087
221.657
221.882
222.044
222.107
222.107
222.089
222.083
222.115
222.185
222.293
222.44
222.585
222.72
222.843
222.96
223.071
223.177
223.278
223.378
223.477
223.575
223.673
223.772
223.872
223.972
224.072
224.172
224.272
224.372
224.472
224.572
224.672
224.772
224.871
224.97
225.068
225.166
225.263
225.359
225.455
225.55
225.645
225.739
225.833
225.926
226.019
226.111
226.204
226.295
226.386
226.477
226.567
226.656
226.744
226.831
226.917
227.001
227.085
227.166
227.245
227.323
227.398
227.47
227.54
227.606
227.669
227.728
227.783
227.833
227.879
227.919
227.954
227.983
228.007
228.024
228.035
228.039
228.038
228.029
228.013
227.992
227.964
227.929
227.889
227.844
227.793
227.737
227.677
227.612
227.544
227.473
227.398
227.321
227.242
227.16
227.079
226.996
226.913
226.829
226.745
226.663
226.579
226.497
226.416
226.335
226.256
226.177
226.1
226.025
225.953
225.884
225.819
225.758
225.7
225.642
225.58
225.494
169.419
212.716
220.075
221.057
221.638
221.87
222.032
222.093
222.091
222.07
222.063
222.096
222.17
222.283
222.432
222.579
222.716
222.841
222.959
223.071
223.177
223.279
223.38
223.478
223.576
223.675
223.774
223.874
223.974
224.074
224.174
224.274
224.374
224.475
224.575
224.675
224.775
224.875
224.973
225.071
225.169
225.265
225.362
225.457
225.551
225.645
225.739
225.832
225.924
226.016
226.108
226.199
226.289
226.379
226.467
226.555
226.643
226.728
226.813
226.896
226.978
227.058
227.136
227.212
227.286
227.357
227.425
227.49
227.552
227.61
227.664
227.714
227.759
227.799
227.834
227.863
227.886
227.904
227.915
227.92
227.919
227.911
227.897
227.876
227.849
227.816
227.777
227.732
227.682
227.627
227.567
227.504
227.436
227.365
227.29
227.213
227.133
227.053
226.969
226.887
226.802
226.718
226.634
226.549
226.466
226.382
226.299
226.218
226.136
226.057
225.978
225.901
225.827
225.755
225.686
225.621
225.56
225.502
225.444
225.383
225.298
168.462
212.601
220.045
221.037
221.618
221.854
222.015
222.075
222.071
222.049
222.042
222.077
222.154
222.272
222.424
222.573
222.712
222.838
222.958
223.071
223.178
223.28
223.381
223.48
223.578
223.676
223.776
223.876
223.976
224.076
224.176
224.277
224.377
224.478
224.578
224.678
224.778
224.878
224.976
225.074
225.171
225.268
225.364
225.458
225.552
225.646
225.739
225.831
225.922
226.013
226.104
226.193
226.282
226.371
226.458
226.544
226.629
226.713
226.795
226.875
226.954
227.031
227.106
227.179
227.249
227.316
227.38
227.441
227.498
227.551
227.6
227.645
227.684
227.719
227.748
227.772
227.789
227.801
227.806
227.807
227.799
227.785
227.766
227.74
227.707
227.669
227.625
227.576
227.522
227.463
227.4
227.332
227.261
227.187
227.11
227.031
226.949
226.867
226.782
226.698
226.612
226.527
226.441
226.356
226.272
226.188
226.105
226.023
225.942
225.862
225.784
225.707
225.632
225.56
225.492
225.427
225.367
225.309
225.252
225.191
225.106
167.474
212.468
219.996
221.017
221.599
221.834
221.995
222.053
222.049
222.026
222.02
222.057
222.138
222.26
222.416
222.566
222.707
222.835
222.957
223.071
223.179
223.281
223.382
223.481
223.579
223.678
223.777
223.877
223.978
224.078
224.178
224.279
224.38
224.48
224.581
224.681
224.781
224.881
224.979
225.077
225.174
225.27
225.365
225.46
225.553
225.646
225.738
225.829
225.92
226.01
226.1
226.188
226.276
226.363
226.448
226.532
226.615
226.697
226.777
226.855
226.931
227.004
227.076
227.145
227.211
227.274
227.334
227.391
227.443
227.492
227.536
227.575
227.61
227.639
227.663
227.681
227.693
227.699
227.7
227.693
227.68
227.661
227.636
227.605
227.567
227.525
227.476
227.423
227.364
227.302
227.235
227.164
227.09
227.013
226.933
226.852
226.768
226.684
226.597
226.512
226.425
226.339
226.253
226.167
226.082
225.997
225.914
225.832
225.751
225.671
225.592
225.515
225.441
225.369
225.301
225.237
225.176
225.119
225.061
225
224.915
166.465
212.293
219.957
221.002
221.577
221.812
221.972
222.028
222.025
222.002
221.997
222.037
222.122
222.249
222.407
222.56
222.702
222.833
222.956
223.07
223.179
223.282
223.383
223.482
223.581
223.679
223.779
223.879
223.98
224.08
224.18
224.281
224.382
224.483
224.584
224.684
224.784
224.883
224.982
225.079
225.176
225.272
225.367
225.461
225.554
225.646
225.737
225.828
225.918
226.007
226.096
226.183
226.269
226.354
226.438
226.521
226.602
226.681
226.758
226.833
226.907
226.977
227.046
227.111
227.174
227.233
227.289
227.341
227.389
227.433
227.472
227.506
227.535
227.559
227.577
227.59
227.597
227.598
227.592
227.58
227.562
227.537
227.507
227.471
227.429
227.381
227.328
227.271
227.208
227.142
227.072
226.998
226.921
226.842
226.759
226.676
226.59
226.505
226.416
226.33
226.242
226.154
226.068
225.981
225.895
225.811
225.727
225.645
225.563
225.484
225.405
225.329
225.254
225.183
225.115
225.051
224.99
224.933
224.876
224.816
224.732
165.517
212.159
219.923
220.986
221.552
221.786
221.945
222.001
221.999
221.977
221.974
222.016
222.106
222.237
222.398
222.553
222.697
222.829
222.954
223.07
223.179
223.283
223.384
223.483
223.582
223.681
223.78
223.881
223.981
224.082
224.182
224.283
224.384
224.486
224.587
224.687
224.787
224.886
224.984
225.082
225.178
225.274
225.368
225.462
225.554
225.646
225.737
225.827
225.916
226.004
226.091
226.177
226.262
226.346
226.428
226.509
226.588
226.665
226.74
226.812
226.883
226.95
227.015
227.077
227.136
227.192
227.243
227.291
227.335
227.374
227.408
227.437
227.461
227.48
227.493
227.5
227.502
227.497
227.486
227.468
227.445
227.415
227.38
227.339
227.292
227.24
227.183