/*--------------------------------*- C++ -*----------------------------------*\
| =========                 |                                                 |
| \\      /  F ield         | OpenFOAM: The Open Source CFD Toolbox           |
|  \\    /   O peration     | Version:  2412                                  |
|   \\  /    A nd           | Website:  www.openfoam.com                      |
|    \\/     M anipulation  |                                                 |
\*---------------------------------------------------------------------------*/
FoamFile
{
    version     2.0;
    format      ascii;
    arch        "LSB;label=32;scalar=64";
    class       volScalarField;
    location    "0.098";
    object      T;
}
// * * * * * * * * * * * * * * * * * * * * * * * * * * * * * * * * * * * * * //

dimensions      [0 0 0 1 0 0 0];

internalField   nonuniform List<scalar> 
9771
(
155.081
207.848
216.804
218.234
219.18
219.724
220.096
220.391
220.659
220.911
154.972
207.654
216.782
218.223
219.171
219.718
220.092
220.388
220.657
220.909
154.839
207.455
216.76
218.212
219.162
219.713
220.088
220.385
220.654
220.906
154.72
207.246
216.739
218.202
219.153
219.707
220.084
220.382
220.651
220.904
154.623
207.032
216.719
218.191
219.144
219.702
220.08
220.378
220.649
220.902
154.56
206.798
216.7
218.179
219.134
219.696
220.076
220.375
220.646
220.9
154.486
206.55
216.681
218.168
219.125
219.691
220.072
220.372
220.643
220.897
221.14
221.372
221.594
221.809
222.015
222.21
222.393
222.563
222.721
222.866
222.999
223.12
223.232
223.337
223.439
223.539
223.638
223.737
223.836
223.935
224.035
224.136
154.433
206.285
216.664
218.157
219.115
219.685
220.068
220.369
220.641
220.895
221.138
221.37
221.592
221.807
222.013
222.208
222.39
222.56
222.718
222.863
222.995
223.116
223.228
223.333
223.434
223.534
223.633
223.732
223.831
223.93
224.029
224.13
224.23
224.331
224.431
224.531
224.629
224.726
154.33
205.995
216.648
218.145
219.105
219.679
220.063
220.365
220.638
220.893
221.136
221.368
221.591
221.805
222.011
222.206
222.388
222.557
222.715
222.859
222.991
223.112
223.223
223.328
223.429
223.529
223.628
223.727
223.825
223.924
224.024
224.124
224.224
224.325
224.425
224.524
224.622
224.718
224.814
154.298
205.7
216.634
218.134
219.096
219.674
220.059
220.362
220.635
220.89
221.134
221.366
221.589
221.804
222.009
222.204
222.386
222.555
222.711
222.856
222.987
223.108
223.218
223.323
223.424
223.524
223.623
223.722
223.82
223.919
224.018
224.118
224.218
224.318
224.418
224.517
224.614
224.711
224.806
154.198
205.426
216.622
218.124
219.087
219.668
220.054
220.358
220.632
220.888
221.132
221.364
221.587
221.802
222.008
222.202
222.383
222.552
222.708
222.852
222.983
223.103
223.214
223.318
223.42
223.519
223.618
223.716
223.815
223.913
224.012
224.112
224.212
224.312
224.411
224.51
224.607
224.703
224.797
154.248
204.822
216.559
217.861
218.912
219.519
219.945
220.28
220.575
220.843
221.097
221.335
221.562
221.779
221.983
222.174
222.351
222.516
222.667
222.807
222.935
223.052
223.161
223.264
223.365
223.465
223.563
223.661
223.758
223.855
223.952
224.05
224.148
224.245
224.341
224.435
224.529
224.621
224.711
224.8
224.887
224.973
225.057
225.14
225.221
225.302
225.382
225.461
225.539
225.617
225.694
225.77
225.846
225.92
225.994
226.067
226.139
226.21
226.28
226.348
226.416
226.481
226.545
226.606
226.665
226.722
226.776
226.826
226.874
226.919
226.96
226.997
227.032
227.062
227.089
227.113
227.133
227.151
227.165
165.625
205.583
215.456
217.317
218.577
219.245
219.746
220.138
220.47
220.762
221.034
221.284
221.519
221.737
221.939
222.123
222.292
222.447
222.59
222.722
222.842
222.954
223.06
223.163
223.263
223.362
223.459
223.555
223.65
223.745
223.839
223.932
224.025
224.116
224.205
224.292
224.378
224.461
224.542
224.621
224.697
224.771
224.843
224.912
224.978
225.043
225.104
225.164
225.221
225.275
225.326
225.374
225.418
225.46
225.499
225.535
225.568
225.597
225.624
225.648
225.669
225.687
225.703
225.715
225.725
225.732
225.736
225.738
225.737
225.733
225.727
225.719
225.709
225.696
225.682
225.666
225.649
225.63
225.61
184.411
210.821
215.529
217.002
218.235
218.952
219.527
219.98
220.355
220.678
220.971
221.236
221.478
221.696
221.893
222.069
222.229
222.375
222.509
222.632
222.747
222.856
222.96
223.062
223.161
223.259
223.356
223.451
223.544
223.635
223.726
223.814
223.901
223.985
224.066
224.145
224.221
224.295
224.366
224.433
224.497
224.558
224.616
224.671
224.722
224.771
224.816
224.858
224.896
224.931
224.962
224.989
225.014
225.035
225.053
225.068
225.08
225.089
225.096
225.099
225.101
225.099
225.095
225.09
225.083
225.073
225.063
225.051
225.037
225.022
225.006
224.989
224.971
224.953
224.934
224.915
224.896
224.877
224.858
193.081
210.928
214.57
216.459
217.929
218.684
219.31
219.818
220.237
220.591
220.907
221.187
221.435
221.652
221.843
222.012
222.163
222.3
222.427
222.544
222.654
222.76
222.862
222.963
223.062
223.159
223.254
223.346
223.437
223.526
223.612
223.696
223.776
223.852
223.925
223.995
224.063
224.127
224.188
224.245
224.298
224.347
224.392
224.433
224.471
224.506
224.537
224.565
224.589
224.609
224.626
224.64
224.651
224.66
224.665
224.669
224.67
224.668
224.665
224.661
224.654
224.646
224.637
224.627
224.615
224.603
224.59
224.577
224.563
224.548
224.533
224.518
224.502
224.488
224.473
224.458
224.444
224.429
224.416
199.664
211.473
214.126
215.985
217.6
218.429
219.109
219.661
220.118
220.502
220.841
221.134
221.388
221.604
221.79
221.951
222.095
222.225
222.345
222.457
222.563
222.666
222.768
222.867
222.965
223.06
223.153
223.243
223.33
223.416
223.498
223.576
223.65
223.72
223.786
223.849
223.908
223.963
224.013
224.06
224.104
224.144
224.18
224.213
224.243
224.268
224.29
224.308
224.323
224.335
224.343
224.35
224.354
224.356
224.355
224.353
224.349
224.344
224.338
224.33
224.321
224.312
224.301
224.29
224.279
224.268
224.256
224.244
224.232
224.219
224.207
224.195
224.183
224.171
224.159
224.148
224.137
224.127
224.117
204.651
212.183
213.756
215.641
217.346
218.214
218.932
219.517
220.004
220.413
220.771
221.075
221.334
221.549
221.73
221.886
222.024
222.149
222.264
222.373
222.477
222.578
222.678
222.776
222.872
222.965
223.055
223.142
223.226
223.307
223.385
223.458
223.527
223.591
223.652
223.709
223.761
223.81
223.853
223.893
223.928
223.959
223.987
224.011
224.033
224.052
224.068
224.081
224.091
224.099
224.104
224.107
224.108
224.107
224.105
224.101
224.096
224.091
224.084
224.076
224.067
224.058
224.049
224.04
224.03
224.021
224.011
224.002
223.992
223.984
223.974
223.966
223.957
223.949
223.94
223.932
223.924
223.916
223.908
208.626
212.994
213.457
215.451
217.171
218.071
218.799
219.395
219.9
220.327
220.7
221.012
221.273
221.487
221.665
221.817
221.952
222.074
222.186
222.293
222.396
222.496
222.595
222.691
222.785
222.875
222.962
223.045
223.125
223.202
223.275
223.344
223.408
223.468
223.524
223.576
223.624
223.667
223.705
223.739
223.769
223.796
223.82
223.84
223.857
223.872
223.884
223.893
223.9
223.905
223.908
223.91
223.91
223.909
223.907
223.903
223.899
223.894
223.888
223.882
223.876
223.869
223.862
223.855
223.848
223.841
223.834
223.827
223.82
223.813
223.806
223.799
223.792
223.785
223.777
223.77
223.763
223.756
223.749
211.742
214.215
213.594
215.271
216.998
218
218.719
219.303
219.812
220.248
220.628
220.943
221.205
221.417
221.594
221.745
221.879
221.999
222.111
222.217
222.32
222.42
222.518
222.613
222.704
222.792
222.876
222.955
223.031
223.103
223.172
223.236
223.296
223.352
223.404
223.451
223.495
223.535
223.571
223.602
223.629
223.652
223.672
223.689
223.704
223.716
223.726
223.734
223.74
223.745
223.748
223.75
223.75
223.75
223.748
223.746
223.743
223.739
223.735
223.73
223.725
223.72
223.715
223.71
223.704
223.699
223.693
223.688
223.682
223.676
223.671
223.665
223.66
223.655
223.65
223.646
223.642
223.638
223.634
214.088
215.259
214.193
215.502
217.014
217.981
218.683
219.249
219.748
220.182
220.56
220.872
221.131
221.342
221.519
221.67
221.805
221.926
222.04
222.147
222.251
222.351
222.449
222.542
222.631
222.716
222.797
222.873
222.945
223.013
223.077
223.138
223.194
223.247
223.295
223.339
223.379
223.415
223.447
223.476
223.503
223.526
223.546
223.563
223.576
223.587
223.596
223.602
223.608
223.612
223.615
223.617
223.618
223.618
223.617
223.616
223.614
223.612
223.61
223.607
223.604
223.601
223.597
223.594
223.591
223.587
223.584
223.581
223.577
223.574
223.571
223.568
223.565
223.563
223.56
223.557
223.555
223.552
223.549
215.873
216.216
214.876
215.841
217.101
218.048
218.695
219.232
219.712
220.132
220.501
220.802
221.055
221.263
221.439
221.593
221.73
221.855
221.971
222.082
222.187
222.289
222.386
222.478
222.565
222.648
222.726
222.799
222.868
222.933
222.993
223.05
223.103
223.152
223.198
223.239
223.277
223.31
223.341
223.368
223.391
223.412
223.43
223.447
223.462
223.475
223.485
223.494
223.5
223.505
223.509
223.512
223.514
223.515
223.516
223.516
223.515
223.514
223.513
223.512
223.511
223.509
223.508
223.506
223.504
223.503
223.501
223.499
223.497
223.495
223.493
223.491
223.489
223.487
223.484
223.481
223.479
223.476
223.473
217.252
217.052
215.614
216.309
217.272
218.168
218.763
219.25
219.7
220.102
220.451
220.737
220.98
221.182
221.358
221.514
221.655
221.784
221.906
222.02
222.129
222.232
222.329
222.421
222.507
222.587
222.663
222.734
222.8
222.862
222.92
222.974
223.023
223.069
223.112
223.151
223.186
223.219
223.248
223.274
223.297
223.318
223.335
223.35
223.363
223.374
223.384
223.392
223.4
223.407
223.413
223.417
223.421
223.424
223.425
223.427
223.428
223.429
223.429
223.429
223.428
223.427
223.427
223.426
223.424
223.423
223.422
223.42
223.419
223.417
223.416
223.414
223.413
223.412
223.412
223.411
223.411
223.411
223.41
218.353
217.782
216.357
216.882
217.528
218.336
218.881
219.319
219.722
220.091
220.416
220.682
220.91
221.104
221.278
221.435
221.58
221.714
221.841
221.961
222.074
222.18
222.279
222.371
222.456
222.535
222.608
222.677
222.741
222.8
222.856
222.907
222.954
222.998
223.038
223.075
223.109
223.139
223.167
223.192
223.215
223.235
223.253
223.269
223.282
223.294
223.304
223.313
223.321
223.328
223.334
223.338
223.341
223.345
223.347
223.35
223.352
223.355
223.357
223.36
223.361
223.363
223.363
223.364
223.365
223.365
223.365
223.366
223.366
223.366
223.366
223.366
223.366
223.366
223.366
223.366
223.365
223.365
223.364
219.226
218.435
217.112
217.525
217.857
218.533
219.015
219.409
219.769
220.102
220.397
220.638
220.849
221.032
221.201
221.358
221.506
221.645
221.778
221.904
222.022
222.132
222.233
222.326
222.412
222.49
222.562
222.628
222.69
222.747
222.8
222.85
222.895
222.936
222.975
223.01
223.042
223.071
223.098
223.122
223.143
223.163
223.18
223.196
223.211
223.223
223.235
223.245
223.254
223.261
223.268
223.274
223.279
223.284
223.288
223.291
223.294
223.297
223.299
223.301
223.302
223.304
223.306
223.307
223.309
223.31
223.311
223.312
223.313
223.314
223.316
223.316
223.317
223.318
223.319
223.319
223.32
223.32
223.321
219.94
218.997
217.814
218.159
218.253
218.794
219.184
219.519
219.832
220.128
220.391
220.607
220.799
220.97
221.133
221.287
221.436
221.579
221.716
221.848
221.971
222.085
222.19
222.286
222.373
222.451
222.522
222.587
222.647
222.702
222.753
222.8
222.844
222.884
222.92
222.954
222.985
223.013
223.039
223.062
223.082
223.101
223.119
223.135
223.149
223.162
223.174
223.185
223.194
223.203
223.21
223.217
223.223
223.229
223.234
223.239
223.244
223.248
223.251
223.254
223.257
223.26
223.263
223.265
223.268
223.27
223.272
223.274
223.276
223.278
223.28
223.281
223.282
223.283
223.284
223.285
223.286
223.287
223.287
220.54
219.498
218.412
218.706
218.683
219.102
219.378
219.64
219.901
220.159
220.392
220.586
220.761
220.92
221.074
221.224
221.371
221.516
221.657
221.793
221.921
222.04
222.149
222.248
222.337
222.417
222.489
222.553
222.611
222.664
222.713
222.759
222.801
222.839
222.874
222.906
222.936
222.963
222.988
223.01
223.03
223.049
223.066
223.082
223.096
223.11
223.122
223.133
223.143
223.153
223.161
223.169
223.177
223.184
223.19
223.196
223.201
223.206
223.211
223.215
223.219
223.223
223.227
223.231
223.234
223.237
223.24
223.243
223.246
223.249
223.251
223.253
223.256
223.257
223.259
223.261
223.262
223.264
223.265
221.042
219.957
218.957
219.166
219.093
219.397
219.584
219.783
219.982
220.196
220.399
220.575
220.734
220.882
221.027
221.171
221.315
221.459
221.602
221.741
221.873
221.997
222.11
222.212
222.304
222.386
222.459
222.523
222.581
222.633
222.681
222.724
222.765
222.801
222.835
222.866
222.894
222.92
222.944
222.966
222.986
223.005
223.022
223.038
223.052
223.066
223.078
223.09
223.1
223.11
223.12
223.129
223.137
223.145
223.152
223.159
223.166
223.172
223.177
223.182
223.187
223.192
223.197
223.201
223.205
223.209
223.212
223.216
223.219
223.222
223.225
223.228
223.23
223.233
223.236
223.238
223.24
223.242
223.245
221.465
220.396
219.458
219.508
219.511
219.665
219.796
219.944
220.075
220.239
220.411
220.57
220.717
220.855
220.992
221.129
221.268
221.41
221.552
221.693
221.828
221.955
222.072
222.177
222.271
222.355
222.43
222.496
222.555
222.607
222.653
222.696
222.735
222.771
222.803
222.833
222.86
222.885
222.908
222.929
222.949
222.968
222.985
223.001
223.016
223.029
223.042
223.054
223.065
223.076
223.086
223.095
223.104
223.113
223.121
223.128
223.135
223.142
223.148
223.154
223.16
223.165
223.17
223.175
223.179
223.184
223.188
223.192
223.196
223.2
223.203
223.206
223.21
223.213
223.216
223.218
223.221
223.224
223.226
221.829
220.84
220.004
219.73
219.839
219.902
220.019
220.128
220.185
220.292
220.43
220.572
220.71
220.841
220.97
221.099
221.233
221.371
221.511
221.651
221.787
221.916
222.035
222.142
222.238
222.324
222.401
222.469
222.529
222.582
222.629
222.672
222.71
222.745
222.777
222.806
222.832
222.856
222.879
222.9
222.92
222.938
222.955
222.971
222.986
223
223.013
223.026
223.037
223.048
223.058
223.068
223.077
223.086
223.094
223.102
223.109
223.116
223.123
223.129
223.136
223.141
223.147
223.152
223.158
223.163
223.167
223.172
223.176
223.181
223.185
223.188
223.192
223.195
223.199
223.202
223.205
223.207
223.21
222.143
221.247
220.525
220.003
220.082
220.133
220.249
220.316
220.305
220.354
220.454
220.58
220.709
220.835
220.959
221.083
221.211
221.344
221.481
221.618
221.753
221.881
222
222.108
222.205
222.293
222.371
222.441
222.502
222.557
222.605
222.649
222.688
222.723
222.755
222.784
222.81
222.834
222.856
222.877
222.896
222.914
222.931
222.947
222.962
222.976
222.989
223.002
223.014
223.025
223.035
223.045
223.054
223.063
223.072
223.08
223.088
223.095
223.102
223.109
223.116
223.122
223.128
223.134
223.14
223.145
223.15
223.155
223.16
223.164
223.169
223.173
223.177
223.18
223.184
223.187
223.19
223.193
223.196
222.418
221.603
220.968
220.307
220.364
220.389
220.477
220.498
220.443
220.437
220.488
220.592
220.713
220.835
220.956
221.078
221.203
221.332
221.464
221.596
221.726
221.851
221.968
222.075
222.172
222.26
222.339
222.411
222.474
222.531
222.581
222.626
222.667
222.703
222.735
222.765
222.791
222.816
222.838
222.859
222.878
222.896
222.912
222.928
222.943
222.957
222.97
222.983
222.995
223.006
223.017
223.027
223.037
223.046
223.055
223.063
223.072
223.08
223.087
223.094
223.101
223.108
223.114
223.12
223.126
223.132
223.138
223.143
223.148
223.153
223.157
223.162
223.166
223.17
223.174
223.177
223.181
223.184
223.188
222.66
221.901
221.343
220.635
220.668
220.647
220.694
220.676
220.588
220.537
220.544
220.613
220.72
220.839
220.959
221.08
221.204
221.33
221.459
221.587
221.711
221.829
221.941
222.045
222.141
222.228
222.307
222.38
222.445
222.504
222.556
222.604
222.646
222.683
222.717
222.747
222.775
222.8
222.823
222.844
222.863
222.881
222.898
222.913
222.928
222.942
222.955
222.968
222.98
222.992
223.003
223.013
223.023
223.033
223.042
223.051
223.06
223.068
223.076
223.084
223.091
223.098
223.105
223.112
223.118
223.124
223.13
223.136
223.141
223.146
223.151
223.156
223.161
223.165
223.169
223.173
223.177
223.181
223.185
222.871
222.157
221.664
220.965
220.967
220.892
220.904
220.853
220.735
220.643
220.616
220.653
220.735
220.846
220.966
221.088
221.211
221.336
221.462
221.586
221.705
221.817
221.922
222.021
222.113
222.198
222.276
222.349
222.415
222.476
222.531
222.58
222.624
222.664
222.699
222.731
222.76
222.786
222.81
222.831
222.851
222.869
222.886
222.902
222.917
222.931
222.945
222.958
222.971
222.983
222.994
223.005
223.016
223.026
223.035
223.045
223.054
223.062
223.071
223.079
223.086
223.094
223.101
223.108
223.115
223.121
223.127
223.133
223.139
223.144
223.15
223.154
223.159
223.164
223.168
223.172
223.176
223.18
223.184
223.053
222.383
221.95
221.288
221.256
221.129
221.107
221.025
220.885
220.751
220.698
220.711
220.764
220.859
220.976
221.101
221.226
221.351
221.473
221.592
221.705
221.811
221.91
222.003
222.09
222.171
222.248
222.319
222.386
222.447
222.504
222.555
222.601
222.643
222.681
222.714
222.745
222.773
222.797
222.82
222.841
222.86
222.878
222.895
222.911
222.925
222.94
222.953
222.966
222.978
222.99
223.001
223.012
223.022
223.032
223.042
223.051
223.06
223.069
223.077
223.085
223.093
223.101
223.108
223.115
223.121
223.128
223.134
223.139
223.145
223.15
223.155
223.16
223.165
223.169
223.173
223.178
223.182
223.186
223.216
222.596
222.212
221.59
221.533
221.36
221.306
221.194
221.035
220.867
220.788
220.778
220.807
220.882
220.991
221.116
221.245
221.372
221.493
221.606
221.713
221.812
221.905
221.991
222.073
222.15
222.223
222.292
222.357
222.419
222.476
222.529
222.577
222.62
222.66
222.696
222.729
222.759
222.785
222.81
222.832
222.853
222.872
222.89
222.907
222.923
222.938
222.952
222.965
222.977
222.99
223.001
223.012
223.023
223.033
223.043
223.053
223.062
223.071
223.079
223.087
223.095
223.103
223.11
223.117
223.124
223.13
223.136
223.142
223.148
223.153
223.158
223.163
223.168
223.173
223.177
223.182
223.186
223.19
223.372
222.803
222.455
221.862
221.791
221.582
221.504
221.365
221.191
220.999
220.881
220.849
220.863
220.918
221.013
221.135
221.266
221.395
221.516
221.627
221.728
221.82
221.906
221.986
222.062
222.134
222.203
222.269
222.332
222.392
222.449
222.502
222.551
222.596
222.638
222.676
222.711
222.743
222.772
222.799
222.824
222.846
222.867
222.887
222.905
222.922
222.938
222.953
222.967
222.98
222.993
223.005
223.017
223.028
223.039
223.049
223.058
223.068
223.077
223.085
223.093
223.101
223.109
223.116
223.123
223.13
223.136
223.142
223.148
223.154
223.159
223.164
223.169
223.174
223.179
223.183
223.188
223.192
223.196
223.528
223.008
222.682
222.107
222.027
221.79
221.696
221.537
221.352
221.139
220.982
220.927
220.929
220.967
221.047
221.159
221.288
221.418
221.54
221.65
221.747
221.834
221.913
221.987
222.057
222.125
222.189
222.251
222.311
222.369
222.424
222.476
222.525
222.572
222.615
222.655
222.692
222.726
222.758
222.787
222.814
222.838
222.861
222.883
222.902
222.921
222.938
222.955
222.97
222.984
222.998
223.011
223.023
223.035
223.046
223.056
223.066
223.075
223.085
223.093
223.101
223.109
223.117
223.124
223.131
223.138
223.144
223.15
223.156
223.162
223.167
223.172
223.177
223.181
223.186
223.19
223.194
223.198
223.202
223.685
223.209
222.897
222.326
222.241
221.982
221.879
221.708
221.513
221.289
221.101
221.012
220.999
221.027
221.091
221.191
221.313
221.441
221.563
221.672
221.768
221.851
221.926
221.995
222.059
222.121
222.181
222.239
222.295
222.35
222.402
222.453
222.502
222.548
222.592
222.633
222.672
222.708
222.742
222.774
222.803
222.83
222.855
222.878
222.9
222.92
222.939
222.957
222.973
222.989
223.003
223.017
223.03
223.042
223.054
223.065
223.075
223.084
223.094
223.102
223.111
223.119
223.126
223.133
223.14
223.147
223.153
223.159
223.164
223.17
223.175
223.18
223.185
223.189
223.194
223.198
223.202
223.206
223.209
223.84
223.405
223.099
222.525
222.435
222.158
222.048
221.871
221.672
221.444
221.234
221.106
221.075
221.096
221.146
221.232
221.342
221.465
221.585
221.693
221.788
221.87
221.942
222.007
222.067
222.124
222.179
222.233
222.285
222.336
222.386
222.435
222.482
222.528
222.572
222.613
222.653
222.691
222.726
222.76
222.791
222.82
222.847
222.872
222.896
222.918
222.938
222.957
222.975
222.992
223.007
223.022
223.035
223.048
223.06
223.071
223.082
223.092
223.101
223.11
223.119
223.127
223.134
223.142
223.149
223.155
223.162
223.168
223.173
223.179
223.184
223.189
223.194
223.199
223.203
223.208
223.212
223.215
223.219
223.99
223.592
223.288
222.706
222.611
222.32
222.205
222.027
221.827
221.597
221.379
221.216
221.161
221.172
221.21
221.281
221.378
221.49
221.605
221.712
221.807
221.888
221.959
222.022
222.079
222.132
222.182
222.232
222.281
222.328
222.375
222.422
222.467
222.512
222.555
222.596
222.637
222.675
222.712
222.746
222.779
222.81
222.838
222.865
222.89
222.913
222.935
222.955
222.974
222.991
223.007
223.023
223.037
223.05
223.063
223.074
223.086
223.096
223.106
223.115
223.124
223.133
223.141
223.148
223.155
223.162
223.169
223.175
223.18
223.186
223.191
223.196
223.201
223.205
223.209
223.213
223.217
223.22
223.223
224.133
223.768
223.462
222.87
222.768
222.469
222.351
222.174
221.977
221.749
221.529
221.345
221.26
221.254
221.281
221.338
221.419
221.519
221.625
221.729
221.823
221.905
221.976
222.038
222.093
222.144
222.191
222.236
222.281
222.326
222.371
222.415
222.459
222.501
222.543
222.584
222.624
222.662
222.699
222.734
222.768
222.799
222.829
222.857
222.882
222.907
222.929
222.95
222.97
222.988
223.005
223.021
223.035
223.049
223.062
223.074
223.086
223.097
223.107
223.117
223.126
223.135
223.143
223.15
223.158
223.164
223.171
223.177
223.183
223.188
223.193
223.198
223.203
223.208
223.212
223.216
223.22
223.223
223.226
224.269
223.931
223.623
223.02
222.91
222.608
222.486
222.315
222.126
221.9
221.684
221.492
221.369
221.341
221.359
221.401
221.467
221.552
221.647
221.745
221.837
221.919
221.991
222.053
222.108
222.157
222.202
222.246
222.288
222.33
222.372
222.414
222.456
222.498
222.538
222.578
222.617
222.654
222.69
222.725
222.758
222.789
222.819
222.847
222.874
222.898
222.921
222.943
222.963
222.982
222.999
223.016
223.031
223.046
223.059
223.072
223.084
223.095
223.105
223.115
223.124
223.133
223.141
223.149
223.157
223.163
223.17
223.176
223.182
223.188
223.193
223.199
223.204
223.209
223.213
223.217
223.221
223.225
223.227
224.398
224.082
223.771
223.157
223.041
222.741
222.615
222.451
222.272
222.052
221.841
221.646
221.495
221.437
221.442
221.47
221.52
221.59
221.673
221.762
221.849
221.931
222.003
222.066
222.122
222.171
222.216
222.258
222.299
222.339
222.379
222.419
222.459
222.499
222.538
222.577
222.614
222.65
222.685
222.719
222.751
222.781
222.81
222.838
222.864
222.889
222.912
222.934
222.954
222.973
222.991
223.008
223.024
223.038
223.052
223.065
223.077
223.089
223.099
223.109
223.119
223.128
223.137
223.145
223.152
223.159
223.166
223.173
223.179
223.185
223.191
223.196
223.201
223.206
223.211
223.215
223.219
223.223
223.225
224.521
224.224
223.909
223.286
223.162
222.867
222.734
222.58
222.415
222.206
222
221.805
221.638
221.545
221.529
221.544
221.578
221.632
221.702
221.781
221.862
221.941
222.013
222.077
222.134
222.184
222.23
222.272
222.313
222.352
222.39
222.429
222.467
222.505
222.542
222.579
222.615
222.65
222.683
222.715
222.746
222.775
222.803
222.83
222.855
222.879
222.902
222.923
222.943
222.962
222.98
222.997
223.013
223.028
223.042
223.055
223.068
223.079
223.091
223.101
223.111
223.12
223.129
223.138
223.146
223.153
223.16
223.167
223.174
223.18
223.186
223.191
223.197
223.202
223.207
223.211
223.215
223.219
223.222
224.641
224.358
224.039
223.409
223.267
222.988
222.848
222.703
222.555
222.358
222.16
221.966
221.791
221.665
221.621
221.622
221.641
221.68
221.736
221.804
221.877
221.951
222.022
222.086
222.145
222.197
222.244
222.288
222.329
222.368
222.406
222.443
222.48
222.516
222.551
222.586
222.619
222.652
222.684
222.714
222.743
222.771
222.797
222.823
222.847
222.87
222.892
222.913
222.932
222.951
222.969
222.985
223.001
223.016
223.03
223.044
223.057
223.069
223.08
223.091
223.101
223.111
223.121
223.129
223.138
223.146
223.153
223.16
223.167
223.174
223.18
223.186
223.192
223.197
223.202
223.207
223.211
223.214
223.217
224.756
224.483
224.164
223.533
223.344
223.107
222.959
222.823
222.69
222.508
222.321
222.129
221.952
221.803
221.721
221.703
221.71
221.733
221.774
221.83
221.894
221.962
222.03
222.094
222.154
222.208
222.258
222.303
222.346
222.386
222.424
222.46
222.496
222.53
222.564
222.596
222.627
222.657
222.686
222.715
222.742
222.768
222.793
222.817
222.84
222.862
222.883
222.903
222.922
222.94
222.957
222.974
222.989
223.004
223.019
223.032
223.045
223.057
223.069
223.08
223.091
223.101
223.11
223.119
223.128
223.136
223.144
223.152
223.159
223.166
223.173
223.179
223.185
223.19
223.195
223.2
223.203
223.207
223.209
224.868
224.6
224.283
223.661
223.42
223.212
223.057
222.937
222.82
222.654
222.48
222.292
222.115
221.951
221.833
221.787
221.782
221.791
221.817
221.86
221.915
221.976
222.039
222.102
222.162
222.219
222.271
222.319
222.363
222.404
222.442
222.479
222.513
222.547
222.578
222.608
222.637
222.665
222.692
222.718
222.743
222.767
222.791
222.813
222.835
222.855
222.875
222.894
222.913
222.93
222.947
222.963
222.978
222.993
223.007
223.021
223.034
223.046
223.058
223.069
223.08
223.09
223.1
223.109
223.118
223.126
223.135
223.142
223.15
223.157
223.164
223.17
223.176
223.182
223.187
223.191
223.195
223.198
223.201
224.976
224.711
224.395
223.79
223.504
223.307
223.139
223.042
222.943
222.795
222.637
222.456
222.279
222.107
221.961
221.879
221.855
221.854
221.866
221.895
221.939
221.992
222.05
222.111
222.171
222.228
222.283
222.333
222.379
222.421
222.461
222.497
222.531
222.563
222.593
222.622
222.649
222.675
222.7
222.724
222.747
222.769
222.791
222.812
222.832
222.852
222.87
222.888
222.906
222.923
222.939
222.954
222.969
222.984
222.998
223.011
223.024
223.036
223.048
223.059
223.07
223.08
223.09
223.099
223.108
223.117
223.125
223.133
223.14
223.148
223.155
223.161
223.167
223.173
223.178
223.182
223.185
223.189
223.191
225.082
224.818
224.503
223.917
223.59
223.394
223.213
223.139
223.059
222.93
222.79
222.619
222.443
222.266
222.103
221.984
221.931
221.918
221.92
221.935
221.967
222.012
222.065
222.122
222.18
222.238
222.294
222.346
222.394
222.438
222.477
222.514
222.548
222.579
222.608
222.635
222.661
222.685
222.709
222.731
222.753
222.774
222.794
222.813
222.832
222.851
222.868
222.885
222.902
222.918
222.933
222.948
222.963
222.977
222.99
223.003
223.015
223.027
223.039
223.05
223.06
223.07
223.08
223.089
223.098
223.107
223.115
223.123
223.131
223.138
223.145
223.152
223.158
223.163
223.167
223.171
223.175
223.178
223.181
225.184
224.923
224.606
224.039
223.673
223.474
223.287
223.233
223.167
223.059
222.94
222.779
222.606
222.426
222.249
222.102
222.015
221.983
221.976
221.98
222
222.035
222.082
222.135
222.191
222.249
222.305
222.358
222.407
222.451
222.492
222.529
222.562
222.593
222.621
222.648
222.673
222.696
222.718
222.74
222.76
222.78
222.799
222.817
222.835
222.852
222.869
222.885
222.901
222.916
222.931
222.945
222.959
222.972
222.985
222.997
223.009
223.021
223.032
223.042
223.053
223.062
223.072
223.081
223.089
223.098
223.106
223.114
223.122
223.129
223.136
223.142
223.147
223.152
223.156
223.16
223.164
223.167
223.172
225.282
225.024
224.705
224.152
223.751
223.549
223.359
223.324
223.27
223.184
223.084
222.935
222.766
222.584
222.4
222.233
222.111
222.051
222.032
222.03
222.039
222.064
222.103
222.151
222.205
222.26
222.315
222.368
222.418
222.463
222.504
222.541
222.575
222.606
222.634
222.66
222.684
222.707
222.728
222.749
222.768
222.787
222.805
222.823
222.84
222.856
222.872
222.888
222.903
222.917
222.931
222.945
222.958
222.971
222.983
222.995
223.006
223.017
223.028
223.038
223.047
223.057
223.066
223.075
223.083
223.091
223.099
223.107
223.114
223.121
223.127
223.133
223.138
223.142
223.146
223.15
223.154
223.159
223.166
225.376
225.12
224.798
224.256
223.825
223.623
223.43
223.412
223.371
223.305
223.222
223.086
222.924
222.742
222.551
222.369
222.22
222.129
222.091
222.081
222.083
222.098
222.128
222.171
222.22
222.272
222.325
222.377
222.426
222.472
222.514
222.551
222.585
222.616
222.644
222.67
222.694
222.717
222.738
222.758
222.777
222.796
222.813
222.83
222.847
222.862
222.878
222.892
222.907
222.92
222.934
222.946
222.959
222.971
222.983
222.994
223.004
223.015
223.025
223.034
223.043
223.052
223.061
223.069
223.077
223.085
223.093
223.1
223.107
223.113
223.119
223.124
223.129
223.133
223.137
223.141
223.147
223.155
223.167
225.464
225.21
224.885
224.351
223.899
223.696
223.501
223.498
223.469
223.422
223.355
223.231
223.076
222.896
222.702
222.51
222.342
222.219
222.155
222.134
222.131
222.138
222.159
222.194
222.237
222.286
222.336
222.386
222.434
222.479
222.521
222.559
222.593
222.625
222.653
222.68
222.704
222.727
222.748
222.768
222.787
222.805
222.822
222.839
222.855
222.87
222.884
222.898
222.912
222.925
222.938
222.95
222.961
222.972
222.983
222.994
223.004
223.014
223.024
223.033
223.042
223.051
223.06
223.068
223.076
223.084
223.091
223.098
223.105
223.11
223.115
223.12
223.124
223.127
223.132
223.139
223.147
223.159
223.175
225.547
225.293
224.964
224.439
223.975
223.764
223.574
223.582
223.565
223.535
223.482
223.369
223.222
223.046
222.852
222.653
222.47
222.322
222.229
222.189
222.18
222.182
222.194
222.22
222.257
222.3
222.347
222.394
222.44
222.484
222.526
222.564
222.599
222.631
222.661
222.688
222.713
222.736
222.757
222.777
222.796
222.814
222.832
222.848
222.863
222.878
222.892
222.906
222.919
222.931
222.943
222.955
222.966
222.977
222.988
222.998
223.008
223.018
223.027
223.036
223.045
223.053
223.061
223.069
223.077
223.084
223.091
223.097
223.103
223.107
223.111
223.115
223.118
223.123
223.13
223.139
223.152
223.168
223.195
225.625
225.371
225.037
224.521
224.051
223.832
223.649
223.665
223.659
223.644
223.602
223.5
223.362
223.192
222.999
222.797
222.603
222.436
222.315
222.251
222.23
222.228
222.234
222.251
222.279
222.317
222.359
222.402
222.446
222.489
222.529
222.568
222.603
222.636
222.667
222.694
222.72
222.744
222.766
222.786
222.806
222.824
222.841
222.857