/*--------------------------------*- C++ -*----------------------------------*\
| =========                 |                                                 |
| \\      /  F ield         | OpenFOAM: The Open Source CFD Toolbox           |
|  \\    /   O peration     | Version:  2412                                  |
|   \\  /    A nd           | Website:  www.openfoam.com                      |
|    \\/     M anipulation  |                                                 |
\*---------------------------------------------------------------------------*/
FoamFile
{
    version     2.0;
    format      ascii;
    arch        "LSB;label=32;scalar=64";
    class       volScalarField;
    location    "0.072";
    object      p;
}
// * * * * * * * * * * * * * * * * * * * * * * * * * * * * * * * * * * * * * //

dimensions      [1 -1 -2 0 0 0 0];

internalField   nonuniform List<scalar> 
9857
(
2808.23
2805.88
2807.03
2808.33
2804.13
2804.34
2800.07
2792.13
2783.06
2774.42
2766.55
2759.54
2753.76
2749.49
2746.56
2744.44
2742.8
2741.44
2740.28
2739.23
2738.2
2737.14
2736.02
2734.95
2734.03
2733.45
2733.18
2733.32
2807.87
2802.09
2801.53
2796.47
2788.3
2779.47
2771.2
2763.71
2757.13
2751.81
2747.99
2745.36
2743.45
2741.96
2740.72
2739.63
2738.61
2737.6
2736.53
2735.43
2734.38
2733.54
2733.03
2732.86
2733.1
2806.3
2799.09
2798.05
2792.26
2784.01
2775.49
2767.62
2760.55
2754.45
2749.64
2746.26
2743.93
2742.23
2740.89
2739.75
2738.74
2737.77
2736.77
2735.72
2734.64
2733.66
2732.92
2732.51
2732.46
2732.85
2803.13
2795.16
2793.69
2787.46
2779.28
2771.12
2763.68
2757.06
2751.48
2747.19
2744.23
2742.19
2740.69
2739.51
2738.49
2737.55
2736.64
2735.69
2734.67
2733.65
2732.75
2732.15
2731.86
2731.95
2732.55
2798.56
2791.2
2789
2782.53
2774.6
2766.82
2759.77
2753.56
2748.43
2744.6
2741.98
2740.16
2738.84
2737.8
2736.9
2736.07
2735.25
2734.37
2733.42
2732.5
2731.73
2731.29
2731.15
2731.39
2732.23
2792.59
2787.06
2784.09
2777.61
2769.97
2762.56
2755.84
2750
2745.28
2741.85
2739.51
2737.9
2736.74
2735.83
2735.05
2734.34
2733.63
2732.85
2732
2731.21
2730.62
2730.33
2730.37
2730.83
2731.9
2785.09
2782.79
2779.08
2772.7
2765.35
2758.26
2751.87
2746.4
2742.09
2739
2736.89
2735.45
2734.43
2733.64
2733
2732.42
2731.84
2731.17
2730.46
2729.82
2729.42
2729.31
2729.52
2730.26
2731.55
2733.47
2775.45
2778.68
2774.39
2767.94
2760.77
2753.98
2747.93
2742.85
2738.93
2736.13
2734.2
2732.89
2731.97
2731.29
2730.78
2730.35
2729.9
2729.38
2728.81
2728.36
2728.14
2728.22
2728.69
2729.69
2731.18
2733.34
2764.75
2774.24
2769.61
2763.21
2756.26
2749.79
2744.11
2739.44
2735.87
2733.29
2731.51
2730.28
2729.44
2728.87
2728.5
2728.21
2727.9
2727.51
2727.11
2726.85
2726.81
2727.1
2727.87
2729.1
2730.8
2733.25
2737.16
2752.94
2769.54
2764.82
2758.54
2751.85
2745.74
2740.46
2736.17
2732.89
2730.49
2728.8
2727.63
2726.87
2726.42
2726.19
2726.04
2725.86
2725.61
2725.39
2725.3
2725.46
2726.01
2727.04
2728.49
2730.43
2733.2
2737.57
2740.15
2764.58
2760.02
2753.92
2747.55
2741.83
2736.95
2732.99
2729.93
2727.67
2726.05
2724.96
2724.3
2723.99
2723.89
2723.88
2723.82
2723.71
2723.65
2723.74
2724.13
2724.96
2726.22
2727.89
2730.09
2733.21
2738.08
2745.71
2726.2
2759.55
2755.31
2749.44
2743.4
2738.04
2733.5
2729.81
2726.95
2724.82
2723.31
2722.33
2721.79
2721.6
2721.62
2721.73
2721.8
2721.83
2721.92
2722.2
2722.85
2723.91
2725.4
2727.3
2729.78
2733.29
2738.69
2746.94
2711.23
2754.55
2750.69
2745.09
2739.35
2734.31
2730.04
2726.58
2723.91
2721.94
2720.58
2719.74
2719.35
2719.29
2719.43
2719.65
2719.82
2719.97
2720.23
2720.72
2721.59
2722.89
2724.6
2726.75
2729.52
2733.45
2739.41
2748.28
2760.29
2774.4
2788.89
2802.39
2814.17
2824.08
2832.4
2839.59
2846.05
2852.06
2857.74
2863.18
2868.45
2873.64
2878.83
2884.04
2889.33
2894.7
2900.17
2905.75
2911.45
2917.26
2923.19
2929.24
2935.4
2941.68
2948.09
2954.63
2961.29
2968.08
2974.99
2982.04
2695.28
2749.59
2746.16
2740.86
2735.4
2730.6
2726.57
2723.33
2720.87
2719.1
2717.92
2717.25
2717
2717.05
2717.31
2717.61
2717.89
2718.17
2718.58
2719.28
2720.37
2721.9
2723.83
2726.22
2729.32
2733.71
2740.25
2749.72
2762.16
2776.38
2790.71
2803.91
2815.4
2825.1
2833.29
2840.41
2846.85
2852.83
2858.5
2863.93
2869.2
2874.41
2879.61
2884.85
2890.15
2895.54
2901.03
2906.63
2912.34
2918.15
2924.08
2930.11
2936.26
2942.52
2948.9
2955.41
2962.03
2968.77
2975.62
2982.62
2678.43
2744.78
2741.77
2736.73
2731.5
2726.89
2723.07
2720.07
2717.85
2716.31
2715.35
2714.86
2714.75
2714.92
2715.28
2715.66
2716.02
2716.42
2717
2717.89
2719.2
2720.94
2723.09
2725.74
2729.2
2734.07
2741.2
2751.25
2764.04
2778.32
2792.46
2805.37
2816.57
2826.07
2834.14
2841.21
2847.61
2853.57
2859.23
2864.65
2869.93
2875.14
2880.36
2885.61
2890.94
2896.35
2901.86
2907.47
2913.18
2919
2924.91
2930.93
2937.06
2943.3
2949.65
2956.11
2962.69
2969.37
2976.17
2983.11
2660.74
2740.12
2737.48
2732.68
2727.67
2723.24
2719.64
2716.89
2714.92
2713.62
2712.87
2712.55
2712.58
2712.89
2713.33
2713.77
2714.21
2714.74
2715.47
2716.55
2718.07
2720.01
2722.39
2725.32
2729.16
2734.54
2742.27
2752.85
2765.94
2780.22
2794.14
2806.76
2817.7
2827.01
2834.97
2841.97
2848.34
2854.28
2859.92
2865.33
2870.61
2875.84
2881.07
2886.35
2891.69
2897.12
2902.64
2908.26
2913.98
2919.79
2925.69
2931.69
2937.79
2944.01
2950.32
2956.74
2963.27
2969.89
2976.63
2983.51
2642.29
2735.55
2733.31
2728.7
2723.95
2719.7
2716.32
2713.81
2712.09
2711.03
2710.49
2710.34
2710.51
2710.94
2711.45
2711.95
2712.48
2713.12
2714
2715.27
2716.98
2719.13
2721.73
2724.96
2729.2
2735.12
2743.44
2754.51
2767.83
2782.05
2795.75
2808.08
2818.78
2827.91
2835.77
2842.71
2849.04
2854.96
2860.58
2865.99
2871.27
2876.51
2881.75
2887.05
2892.41
2897.85
2903.39
2909.01
2914.73
2920.53
2926.42
2932.4
2938.48
2944.65
2950.93
2957.3
2963.77
2970.33
2977.02
2983.83
2623.08
2731.18
2729.23
2724.77
2720.28
2716.26
2713.12
2710.86
2709.38
2708.54
2708.19
2708.2
2708.52
2709.06
2709.63
2710.2
2710.8
2711.56
2712.6
2714.05
2715.94
2718.28
2721.11
2724.66
2729.33
2735.81
2744.7
2756.21
2769.7
2783.83
2797.28
2809.35
2819.81
2828.78
2836.54
2843.42
2849.71
2855.6
2861.21
2866.61
2871.89
2877.14
2882.4
2887.71
2893.09
2898.55
2904.09
2909.72
2915.43
2921.22
2927.09
2933.05
2939.1
2945.24
2951.48
2957.79
2964.2
2970.7
2977.33
2984.08
2603.19
2726.9
2725.2
2720.96
2716.75
2712.96
2710.04
2708
2706.76
2706.14
2705.95
2706.13
2706.62
2707.25
2707.88
2708.5
2709.19
2710.06
2711.25
2712.87
2714.94
2717.47
2720.55
2724.43
2729.57
2736.6
2746.04
2757.93
2771.53
2785.53
2798.74
2810.54
2820.79
2829.61
2837.27
2844.1
2850.35
2856.22
2861.8
2867.2
2872.49
2877.75
2883.03
2888.35
2893.74
2899.21
2904.77
2910.39
2916.1
2921.87
2927.72
2933.65
2939.67
2945.77
2951.95
2958.21
2964.56
2971
2977.56
2984.24
2582.73
2722.59
2721.23
2717.2
2713.32
2709.8
2707.1
2705.3
2704.26
2703.82
2703.79
2704.15
2704.77
2705.48
2706.17
2706.85
2707.62
2708.61
2709.95
2711.73
2713.98
2716.71
2720.04
2724.29
2729.91
2737.5
2747.45
2759.66
2773.32
2787.17
2800.13
2811.68
2821.73
2830.41
2837.98
2844.74
2850.96
2856.8
2862.37
2867.76
2873.06
2878.33
2883.62
2888.96
2894.36
2899.84
2905.4
2911.03
2916.72
2922.47
2928.3
2934.2
2940.18
2946.24
2952.37
2958.57
2964.85
2971.23
2977.73
2984.34
2561.72
2718.36
2717.35
2713.52
2709.99
2706.76
2704.29
2702.7
2701.87
2701.57
2701.7
2702.25
2702.98
2703.75
2704.5
2705.24
2706.09
2707.21
2708.7
2710.64
2713.05
2715.98
2719.6
2724.23
2730.35
2738.49
2748.91
2761.38
2775.05
2788.73
2801.45
2812.76
2822.62
2831.17
2838.65
2845.35
2851.53
2857.35
2862.9
2868.29
2873.6
2878.88
2884.18
2889.54
2894.96
2900.45
2906
2911.62
2917.3
2923.03
2928.83
2934.7
2940.65
2946.65
2952.72
2958.86
2965.08
2971.4
2977.83
2984.38
2540.2
2714.24
2713.57
2709.95
2706.74
2703.81
2701.58
2700.22
2699.58
2699.44
2699.73
2700.42
2701.23
2702.07
2702.86
2703.67
2704.61
2705.84
2707.48
2709.58
2712.16
2715.3
2719.21
2724.26
2730.89
2739.56
2750.41
2763.08
2776.73
2790.22
2802.71
2813.8
2823.48
2831.89
2839.29
2845.94
2852.07
2857.86
2863.41
2868.8
2874.11
2879.4
2884.72
2890.09
2895.52
2901.02
2906.57
2912.18
2917.84
2923.55
2929.32
2935.16
2941.06
2947.01
2953.02
2959.09
2965.25
2971.5
2977.87
2984.32
2518.29
2709.88
2709.86
2706.54
2703.64
2700.97
2698.97
2697.84
2697.38
2697.38
2697.85
2698.67
2699.55
2700.43
2701.27
2702.13
2703.16
2704.52
2706.31
2708.55
2711.3
2714.66
2718.89
2724.36
2731.52
2740.71
2751.93
2764.75
2778.33
2791.64
2803.89
2814.78
2824.29
2832.58
2839.89
2846.48
2852.59
2858.36
2863.89
2869.28
2874.6
2879.91
2885.24
2890.62
2896.06
2901.56
2907.11
2912.7
2918.34
2924.03
2929.77
2935.57
2941.42
2947.31
2953.26
2959.27
2965.37
2971.56
2977.85
2984.19
2496.05
2705.43
2706.43
2703.14
2700.59
2698.24
2696.5
2695.6
2695.29
2695.45
2696.1
2696.99
2697.92
2698.83
2699.7
2700.62
2701.74
2703.23
2705.16
2707.55
2710.47
2714.06
2718.63
2724.56
2732.25
2741.92
2753.45
2766.38
2779.87
2792.99
2805.03
2815.71
2825.07
2833.24
2840.47
2847
2853.07
2858.82
2864.35
2869.74
2875.07
2880.38
2885.73
2891.13
2896.57
2902.07
2907.61
2913.19
2918.8
2924.46
2930.17
2935.93
2941.73
2947.56
2953.45
2959.4
2965.43
2971.56
2977.73
2983.98
2473.49
2701.15
2703.04
2699.78
2697.64
2695.61
2694.13
2693.45
2693.3
2693.62
2694.43
2695.39
2696.36
2697.29
2698.19
2699.16
2700.37
2701.98
2704.04
2706.59
2709.68
2713.52
2718.44
2724.85
2733.05
2743.17
2754.97
2767.95
2781.34
2794.26
2806.1
2816.6
2825.8
2833.86
2841.01
2847.49
2853.53
2859.26
2864.79
2870.18
2875.51
2880.84
2886.21
2891.61
2897.06
2902.55
2908.08
2913.64
2919.23
2924.87
2930.54
2936.25
2941.99
2947.77
2953.59
2959.48
2965.46
2971.48
2977.58
2983.73
2450.67
2696.85
2699.68
2696.52
2694.78
2693.09
2691.9
2691.4
2691.41
2691.92
2692.85
2693.87
2694.86
2695.8
2696.71
2697.73
2699.03
2700.76
2702.96
2705.64
2708.92
2713.03
2718.34
2725.23
2733.93
2744.45
2756.47
2769.48
2782.74
2795.48
2807.12
2817.44
2826.5
2834.44
2841.51
2847.95
2853.96
2859.68
2865.19
2870.59
2875.93
2881.28
2886.66
2892.07
2897.52
2903.01
2908.52
2914.06
2919.63
2925.23
2930.87
2936.53
2942.21
2947.92
2953.68
2959.52
2965.41
2971.36
2977.35
2983.4
2427.85
2692.75
2696.41
2693.57
2692.07
2690.67
2689.77
2689.44
2689.6
2690.32
2691.36
2692.42
2693.43
2694.37
2695.29
2696.35
2697.74
2699.58
2701.91
2704.73
2708.2
2712.59
2718.32
2725.69
2734.88
2745.75
2757.93
2770.93
2784.08
2796.64
2808.09
2818.24
2827.15
2834.99
2841.99
2848.39
2854.37
2860.07
2865.58
2870.98
2876.34
2881.7
2887.09
2892.51
2897.96
2903.44
2908.93
2914.45
2919.99
2925.56
2931.15
2936.76
2942.38
2948.04
2953.74
2959.52
2965.32
2971.17
2977.07
2983.02
2404.98
2686.96
2693.37
2690.76
2689.52
2688.37
2687.73
2687.56
2687.9
2688.8
2689.94
2691.03
2692.06
2692.99
2693.91
2695.02
2696.49
2698.44
2700.88
2703.85
2707.52
2712.22
2718.36
2726.24
2735.88
2747.06
2759.37
2772.34
2785.35
2797.74
2809.01
2818.99
2827.77
2835.51
2842.44
2848.8
2854.75
2860.44
2865.95
2871.36
2876.73
2882.11
2887.51
2892.93
2898.38
2903.84
2909.31
2914.81
2920.32
2925.85
2931.4
2936.95
2942.52
2948.11
2953.76
2959.45
2965.17
2970.93
2976.73
2982.59
2382.06
2681.43
2691.02
2688
2687.08
2686.19
2685.77
2685.75
2686.3
2687.36
2688.57
2689.71
2690.73
2691.66
2692.59
2693.74
2695.29
2697.34
2699.9
2703.01
2706.89
2711.91
2718.49
2726.86
2736.92
2748.36
2760.75
2773.68
2786.57
2798.78
2809.87
2819.7
2828.35
2836
2842.87
2849.18
2855.11
2860.79
2866.3
2871.72
2877.11
2882.5
2887.91
2893.33
2898.77
2904.21
2909.67
2915.14
2920.62
2926.11
2931.61
2937.11
2942.62
2948.15
2953.74
2959.35
2964.99
2970.65
2976.35
2982.12
2359.01
2676.05
2688.67
2685.38
2684.74
2684.11
2683.86
2683.99
2684.77
2685.98
2687.26
2688.42
2689.45
2690.37
2691.31
2692.5
2694.12
2696.27
2698.94
2702.2
2706.3
2711.66
2718.7
2727.54
2737.99
2749.64
2762.1
2774.96
2787.72
2799.77
2810.7
2820.37
2828.9
2836.45
2843.26
2849.54
2855.45
2861.12
2866.64
2872.06
2877.47
2882.87
2888.28
2893.71
2899.13
2904.56
2910
2915.44
2920.89
2926.34
2931.79
2937.23
2942.68
2948.16
2953.67
2959.2
2964.74
2970.31
2975.93
2981.6
2987.35
2993.17
2999.06
3004.99
3010.97
3016.99
3023.05
3029.13
3035.24
3041.34
3047.44
3053.52
3059.55
3065.52
3071.41
3077.19
3082.83
3088.31
3093.61
3098.7
3103.55
3108.13
3112.42
3116.39
3120.03
3123.31
3126.22
3128.73
3130.84
3132.54
3133.83
3134.71
3135.19
3135.3
3134.99
3134.28
3133.24
3131.86
3130.17
2335.82
2671.46
2685.62
2682.81
2682.53
2682.1
2682
2682.3
2683.29
2684.63
2685.97
2687.15
2688.19
2689.11
2690.07
2691.3
2693.01
2695.25
2698.03
2701.44
2705.77
2711.49
2718.99
2728.29
2739.08
2750.9
2763.39
2776.19
2788.82
2800.71
2811.47
2821
2829.41
2836.88
2843.63
2849.87
2855.77
2861.44
2866.96
2872.4
2877.81
2883.23
2888.64
2894.06
2899.48
2904.89
2910.3
2915.72
2921.13
2926.54
2931.93
2937.32
2942.71
2948.13
2953.57
2959.01
2964.47
2969.94
2975.47
2981.05
2986.7
2992.41
2998.17
3003.97
3009.8
3015.67
3021.56
3027.47
3033.38
3039.29
3045.18
3051.04
3056.84
3062.56
3068.19
3073.69
3079.05
3084.24
3089.23
3094
3098.52
3102.77
3106.72
3110.35
3113.64
3116.58
3119.14
3121.31
3123.09
3124.46
3125.44
3126.02
3126.24
3126.08
3125.49
3124.57
3123.32
3121.76
3119.9
3117.79
3115.4
3112.85
3110.01
3107.14
3104.03
3100.91
3097.66
3094.32
3090.97
2312.69
2666.82
2682.44
2680.49
2680.42
2680.12
2680.18
2680.68
2681.85
2683.29
2684.68
2685.9
2686.95
2687.87
2688.85
2690.14
2691.92
2694.26
2697.14
2700.71
2705.3
2711.4
2719.35
2729.09
2740.18
2752.14
2764.63
2777.36
2789.87
2801.6
2812.2
2821.59
2829.89
2837.28
2843.98
2850.19
2856.07
2861.74
2867.26
2872.72
2878.15
2883.57
2888.99
2894.4
2899.8
2905.2
2910.59
2915.97
2921.35
2926.7
2932.04
2937.37
2942.72
2948.07
2953.42
2958.78
2964.15
2969.53
2974.97
2980.46
2986.01
2991.6
2997.23
3002.89
3008.57
3014.28
3020
3025.73
3031.46
3037.17
3042.85
3048.48
3054.04
3059.52
3064.88
3070.11
3075.18
3080.07
3084.76
3089.21
3093.41
3097.33
3100.94
3104.23
3107.19
3109.78
3112.01
3113.85
3115.3
3116.37
3117.04
3117.36
3117.32
3116.86
3116.06
3114.93
3113.49
3111.76
3109.74
3107.52
3105
3102.37
3099.47
3096.54
3093.41
3090.26
3087
3083.67
3080.33
3076.92
3073.53
3070.16
3066.78
3063.46
3060.16
3056.92
3053.73
3050.63
3047.54
3044.29
3040.01
2289.61
2661.83
2679.91
2678.33
2678.37
2678.19
2678.39
2679.11
2680.43
2681.95
2683.39
2684.65
2685.72
2686.66
2687.67
2689.02
2690.88
2693.31
2696.3
2700.03
2704.89
2711.38
2719.79
2729.93
2741.27
2753.34
2765.82
2778.48
2790.86
2802.44
2812.89
2822.15
2830.34
2837.65
2844.3
2850.49
2856.36
2862.02
2867.56
2873.03
2878.47
2883.89
2889.31
2894.72
2900.1
2905.48
2910.85
2916.2
2921.53
2926.84
2932.13
2937.4
2942.69
2947.97
2953.25
2958.52
2963.79
2969.1
2974.44
2979.84
2985.28
2990.75
2996.25
3001.76
3007.3
3012.84
3018.4
3023.95
3029.49
3034.99
3040.46
3045.87
3051.19
3056.41
3061.52
3066.47
3071.26
3075.86
3080.24
3084.38
3088.25
3091.85
3095.13
3098.09
3100.71
3102.98
3104.88
3106.4
3107.54
3108.3
3108.71
3108.77
3108.44
3107.74
3106.72
3105.39
3103.76
3101.87
3099.71
3097.36
3094.74
3092.02
3089.05
3086.08
3082.92
3079.74
3076.49
3073.15
3069.83
3066.44
3063.09
3059.75
3056.43
3053.15
3049.91
3046.73
3043.61
3040.56
3037.54
3034.35
3030.18
2266.69
2656.8
2677.58
2676.27
2676.37
2676.31
2676.67
2677.55
2678.99
2680.59
2682.09
2683.39
2684.49
2685.45
2686.51
2687.93
2689.87
2692.38
2695.49
2699.39
2704.53
2711.43
2720.29
2730.8
2742.36
2754.5
2766.97
2779.55
2791.8
2803.24
2813.54
2822.66
2830.75
2838
2844.6
2850.76
2856.63
2862.3
2867.84
2873.32
2878.77
2884.21
2889.62
2895.01
2900.39
2905.74
2911.08
2916.4
2921.69
2926.95
2932.19
2937.42
2942.63
2947.84
2953.04
2958.22
2963.41
2968.63
2973.89
2979.19
2984.51
2989.86
2995.22
3000.59
3005.97
3011.36
3016.74
3022.11
3027.45
3032.76
3038.01
3043.19
3048.27
3053.24
3058.08
3062.76
3067.27
3071.57
3075.64
3079.47
3083.03
3086.3
3089.26
3091.9
3094.19
3096.13
3097.72
3098.93
3099.77
3100.25
3100.4
3100.18
3099.58
3098.67
3097.45
3095.93
3094.13
3092.09
3089.8
3087.34
3084.62
3081.83
3078.8
3075.78
3072.6
3069.4
3066.14
3062.8
3059.49
3056.13
3052.79
3049.5
3046.21
3042.97
3039.78
3036.65
3033.58
3030.59
3027.62
3024.5
3020.43
2243.94
2651.84
2675.31
2674.29
2674.42
2674.48
2674.99
2676
2677.54
2679.21
2680.78
2682.13
2683.25
2684.25
2685.37
2686.86
2688.89
2691.5
2694.72
2698.8
2704.25
2711.56
2720.85
2731.7
2743.44
2755.62
2768.06
2780.56
2792.69
2803.98
2814.14
2823.15
2831.14
2838.32
2844.89
2851.03
2856.88
2862.56
2868.11
2873.61
2879.07
2884.5
2889.91
2895.29
2900.65
2905.99
2911.3
2916.58
2921.83
2927.04
2932.22
2937.39
2942.55
2947.69
2952.8
2957.89
2963
2968.14
2973.3
2978.5
2983.71
2988.93
2994.15
2999.38
3004.6
3009.83
3015.04
3020.23
3025.38
3030.48
3035.51
3040.46
3045.3
3050.02
3054.6
3059.01
3063.23
3067.24
3071.01
3074.54
3077.78
3080.74
3083.38
3085.69
3087.67
3089.3
3090.57
3091.49
3092.04
3092.27
3092.15
3091.65
3090.83
3089.7
3088.28
3086.58
3084.62
3082.44
3080.01
3077.44
3074.63
3071.76
3068.68
3065.61
3062.41
3059.18
3055.92
3052.57
3049.27
3045.94
3042.63
3039.36
3036.11
3032.91
3029.76
3026.67
3023.66
3020.71
3017.79
3014.72
3010.71
2221.35
2646.96
2673.09
2672.36
2672.52
2672.68
2673.33
2674.44
2676.05
2677.81
2679.45
2680.85
2682.01
2683.06
2684.24
2685.81
2687.93
2690.63
2693.98
2698.27
2704.02
2711.75
2721.46
2732.61
2744.5
2756.71
2769.12
2781.53
2793.54
2804.69
2814.71
2823.6
2831.5
2838.62
2845.15
2851.27
2857.13
2862.81
2868.38
2873.88
2879.35
2884.78
2890.19
2895.56
2900.9
2906.21
2911.5
2916.74
2921.94
2927.1
2932.24
2937.35
2942.44
2947.49
2952.52
2957.54
2962.57
2967.62
2972.7
2977.78
2982.87
2987.96
2993.04
2998.12
3003.2
3008.26
3013.29
3018.3
3023.25
3028.14
3032.96
3037.68
3042.28
3046.75
3051.06
3055.19
3059.13
3062.85
3066.33
3069.54
3072.48
3075.12
3077.45
3079.46
3081.12
3082.45
3083.42
3084.04
3084.34
3084.32
3083.9
3083.17
3082.13
3080.8
3079.19
3077.32
3075.21
3072.9
3070.35
3067.69
3064.78
3061.85
3058.73
3055.62
3052.39
3049.14
3045.86
3042.52
3039.22
3035.9
3032.6
3029.36
3026.14
3022.97
3019.86
3016.81
3013.82
3010.92
3008.03
3004.99
3001.02
2198.92
2642.15
2670.93
2670.49
2670.67
2670.91
2671.66
2672.85
2674.54
2676.38
2678.1
2679.55
2680.77
2681.87
2683.13
2684.79
2687
2689.8
2693.28
2697.78
2703.87
2712.02
2722.12
2733.53
2745.53
2757.76
2770.12
2782.44
2794.34
2805.35
2815.24
2824.02
2831.84
2838.9
2845.4
2851.5
2857.36
2863.05
2868.63
2874.15
2879.62
2885.05
2890.44
2895.8
2901.13
2906.42
2911.67
2916.88
2922.03
2927.14
2932.23
2937.29
2942.3
2947.28
2952.23
2957.17
2962.12
2967.08
2972.06
2977.04
2982.01
2986.96
2991.9
2996.84
3001.76
3006.65
3011.52
3016.33
3021.09
3025.77
3030.37
3034.86
3039.22
3043.43
3047.48
3051.35
3055
3058.43
3061.62
3064.54
3067.17
3069.51
3071.53
3073.23
3074.6
3075.62
3076.3
3076.66
3076.72
3076.39
3075.73
3074.78
3073.53
3072
3070.21
3068.18
3065.92
3063.48
3060.82
3058.06
3055.07
3052.07
3048.9
3045.74
3042.49
3039.21
3035.93
3032.58
3029.29
3025.99
3022.71
3019.48
3016.29
3013.15
3010.07
3007.05
3004.1
3001.22
2998.37
2995.37
2991.47
2176.69
2637.4
2668.84
2668.66
2668.86
2669.15
2669.98
2671.25
2673.01
2674.93
2676.73
2678.24
2679.51
2680.68
2682.02
2683.78
2686.09
2688.99
2692.61
2697.34
2703.78
2712.34
2722.82
2734.45
2746.54
2758.76
2771.07
2783.31
2795.09
2805.97
2815.74
2824.41
2832.15
2839.16
2845.63
2851.72
2857.58
2863.28
2868.88
2874.4
2879.87
2885.3
2890.69
2896.03
2901.34
2906.61
2911.83
2916.99
2922.1
2927.17
2932.2
2937.19
2942.14
2947.04
2951.91
2956.77
2961.65
2966.52
2971.4
2976.26
2981.11
2985.93
2990.73
2995.52
3000.28
3005.01
3009.7
3014.33
3018.89
3023.36
3027.74
3031.99
3036.11
3040.07
3043.86
3047.45
3050.83
3053.97
3056.86
3059.49
3061.82
3063.86
3065.58
3066.98
3068.05
3068.79
3069.21
3069.32
3069.08
3068.5
3067.62
3066.45
3064.99
3063.28
3061.32
3059.14
3056.75
3054.19
3051.42
3048.57
3045.51
3042.45
3039.24
3036.04
3032.77
3029.46
3026.17
3022.81
3019.51
3016.22
3012.95
3009.75
3006.57
3003.45
3000.39
2997.4
2994.48
2991.63
2988.81
2985.83
2981.97
2154.68
2632.74
2666.83
2666.86
2667.05
2667.38
2668.28
2669.62
2671.46
2673.47
2675.34
2676.92
2678.26
2679.5
2680.93
2682.79
2685.2
2688.21
2691.99
2696.96
2703.76
2712.73
2723.54
2735.37
2747.52
2759.73
2771.98
2784.14
2795.8
2806.55
2816.2
2824.77
2832.44
2839.4
2845.84
2851.93
2857.8
2863.51
2869.11
2874.64
2880.12
2885.54
2890.92
2896.25
2901.54
2906.78
2911.97
2917.09
2922.15
2927.18
2932.15
2937.08
2941.95
2946.78
2951.58
2956.37
2961.16
2965.95
2970.72
2975.46
2980.18
2984.87
2989.53
2994.17
2998.78
3003.34
3007.86
3012.3
3016.66
3020.92
3025.08
3029.1
3032.98
3036.69
3040.22
3043.54
3046.64
3049.5
3052.1
3054.43
3056.48
3058.22
3059.65
3060.76
3061.54
3062.01
3062.17
3062.01
3061.51
3060.7
3059.59
3058.21
3056.57
3054.68
3052.56
3050.23
3047.7
3045.03
3042.14
3039.21
3036.08
3032.96
3029.7
3026.46
3023.16
3019.83
3016.53
3013.17
3009.87
3006.59
3003.33
3000.13
2996.98
2993.88
2990.84
2987.88
2984.98
2982.16
2979.35
2976.4
2972.56
2132.9
2628.17
2664.87
2665.06
2665.24
2665.6
2666.58
2667.98
2669.9
2671.99
2673.93
2675.59
2676.99
2678.31
2679.84
2681.81
2684.33
2687.46
2691.4
2696.63
2703.8
2713.17
2724.3
2736.28
2748.47
2760.65
2772.85
2784.92
2796.47
2807.1
2816.63
2825.11
2832.71
2839.62
2846.05
2852.13
2858.01
2863.73
2869.34
2874.88
2880.35
2885.77
2891.13
2896.45
2901.72
2906.94
2912.09
2917.17
2922.19
2927.16
2932.08
2936.94
2941.74
2946.5
2951.23
2955.95
2960.65
2965.35
2970.01
2974.63
2979.23
2983.78
2988.31
2992.8
2997.25
3001.65
3005.98
3010.23
3014.4
3018.45
3022.38
3026.17
3029.81
3033.27
3036.53
3039.59
3042.41
3044.99
3047.31
3049.35
3051.11
3052.56
3053.7
3054.53
3055.04
3055.25
3055.16
3054.72
3053.97
3052.94
3051.63
3050.05
3048.22
3046.16
3043.89
3041.42
3038.77
3035.99
3033.01
3030
3026.8
3023.63
3020.33
3017.05
3013.73
3010.37
3007.05
3003.69
3000.38
2997.11
2993.85
2990.67
2987.52
2984.44
2981.42
2978.47
2975.59
2972.79
2970
2967.09
2963.3
2111.5
2623.71
2662.94
2663.25
2663.42
2663.82
2664.86
2666.34
2668.33
2670.5
2672.52
2674.25
2675.72
2677.14
2678.77
2680.84
2683.48
2686.73
2690.85
2696.36
2703.9
2713.66
2725.06
2737.18
2749.38
2761.54
2773.68
2785.66
2797.1
2807.61
2817.03
2825.42
2832.95
2839.83
2846.24
2852.33
2858.21
2863.94
2869.56
2875.1
2880.57
2885.98
2891.34
2896.64
2901.89
2907.08
2912.19
2917.23
2922.21
2927.13
2932
2936.79
2941.52
2946.21
2950.87
2955.51
2960.13
2964.73
2969.28
2973.78
2978.25
2982.68
2987.07
2991.41
2995.7
2999.93
3004.09
3008.15
3012.11
3015.96
3019.67
3023.23
3026.62
3029.83
3032.84
3035.63
3038.18
3040.49
3042.53
3044.29
3045.76
3046.93
3047.79
3048.34
3048.6
3048.57
3048.18
3047.5
3046.53
3045.28
3043.76
3041.99
3039.99
3037.76
3035.34
3032.75
3029.97
3027.09
3024.01
3020.92
3017.66
3014.43
3011.09
3007.77
3004.42
3001.04
2997.7
2994.34
2991.02
2987.75
2984.51
2981.33
2978.2
2975.13
2972.13
2969.2
2966.34
2963.56
2960.79
2957.89
2954.12
2090.27
2619.32
2661.05
2661.46
2661.61
2662.04
2663.15
2664.69
2666.76
2669
2671.1
2672.9
2674.46
2675.96
2677.7
2679.89
2682.64
2686.02
2690.33
2696.13
2704.05
2714.19
2725.84
2738.06
2750.27
2762.38
2774.46
2786.36
2797.7
2808.09
2817.4
2825.71
2833.18
2840.03
2846.42
2852.51
2858.4
2864.14
2869.76
2875.31
2880.78
2886.18
2891.53
2896.82
2902.05
2907.2
2912.28
2917.28
2922.22
2927.09
2931.89
2936.62
2941.28
2945.9
2950.49
2955.06
2959.6
2964.08
2968.52
2972.91
2977.26
2981.55
2985.8
2990
2994.13
2998.2
3002.17
3006.04
3009.8
3013.43
3016.92
3020.25
3023.41
3026.37
3029.12
3031.64
3033.93
3035.96
3037.72
3039.2
3040.4
3041.29
3041.87
3042.17
3042.19
3041.87
3041.24
3040.33
3039.14
3037.68
3035.97
3034.02
3031.84
3029.47
3026.9
3024.19
3021.3
3018.32
3015.15
3012
3008.68
3005.39
3002.03
2998.66
2995.29
2991.88
2988.53
2985.16
2981.83
2978.57
2975.32
2972.15
2969.03
2965.97
2962.98
2960.06
2957.21
2954.44
2951.69
2948.79
2945.03
2069.52
2615
2659.21
2659.67
2659.8
2660.26
2661.43
2663.04
2665.19
2667.51
2669.68
2671.56
2673.2
2674.8
2676.65
2678.96
2681.82
2685.35
2689.86
2695.96
2704.26
2714.75
2726.63
2738.92
2751.12
2763.19
2775.21
2787.03
2798.26
2808.54
2817.75
2825.97
2833.39
2840.21
2846.6
2852.69
2858.58
2864.33
2869.96
2875.5
2880.97
2886.37
2891.71
2896.98
2902.19
2907.31
2912.36
2917.32
2922.21
2927.03
2931.77
2936.43
2941.03
2945.59
2950.11
2954.6
2959.04
2963.43
2967.76
2972.03
2976.25
2980.41
2984.52
2988.57
2992.55
2996.44
3000.24
3003.92
3007.48
3010.9
3014.17
3017.27
3020.18
3022.9
3025.39
3027.66
3029.68
3031.44
3032.93
3034.14
3035.06
3035.68
3036.02
3036.08
3035.82
3035.24
3034.38
3033.24
3031.84
3030.18
3028.28
3026.15
3023.82
3021.3
3018.6
3015.76
3012.76
3009.69
3006.44
3003.21
2999.83
2996.49
2993.09
2989.68
2986.29
2982.86
2979.49
2976.12
2972.78
2969.52
2966.28
2963.11
2960
2956.96
2953.98
2951.07
2948.24
2945.49
2942.76
2939.89
2936.17
2049.01
2610.75
2657.4
2657.91
2658
2658.49
2659.72
2661.4
2663.62
2666.02
2668.27
2670.22
2671.95
2673.65
2675.61
2678.03
2681.02
2684.69
2689.43
2695.84
2704.52
2715.34
2727.42
2739.77
2751.94
2763.96
2775.91
2787.65
2798.78
2808.96
2818.07
2826.22
2833.59
2840.39
2846.77
2852.86
2858.76
2864.51
2870.15
2875.69
2881.16
2886.55
2891.87
2897.13
2902.32
2907.41
2912.42
2917.34
2922.19
2926.95
2931.63
2936.23
2940.77
2945.26
2949.72
2954.12
2958.47
2962.75
2966.97
2971.13
2975.22
2979.26
2983.23
2987.13
2990.95
2994.67
2998.29
3001.78
3005.14
3008.34
3011.39
3014.26
3016.94
3019.41
3021.65
3023.66
3025.42
3026.91
3028.14
3029.08
3029.73
3030.1
3030.2
3029.98
3029.45
3028.65
3027.56
3026.21
3024.6
3022.75
3020.67
3018.38
3015.9
3013.23
3010.41
3007.46
3004.35
3001.2
2997.87
2994.57
2991.15
2987.76
2984.33
2980.89
2977.47
2974.02
2970.63
2967.25
2963.91
2960.64
2957.41
2954.24
2951.14
2948.1
2945.13
2942.24
2939.43
2936.69
2933.97
2931.11
2927.4
2028.73
2606.51
2655.65
2656.16
2656.22
2656.74
2658.02
2659.78
2662.08
2664.55
2666.87
2668.9
2670.71
2672.52
2674.59
2677.13
2680.24
2684.07
2689.03
2695.78
2704.83
2715.96
2728.2
2740.58
2752.72
2764.69
2776.58
2788.25
2799.28
2809.35
2818.37
2826.44
2833.78
2840.55
2846.93
2853.03
2858.93
2864.69
2870.33
2875.87
2881.33
2886.72
2892.03
2897.27
2902.43
2907.5
2912.47
2917.35
2922.15
2926.86
2931.48
2936.02
2940.5
2944.93
2949.31
2953.63
2957.89
2962.06
2966.17
2970.21
2974.19
2978.1
2981.93
2985.68
2989.34
2992.89
2996.33
2999.63
3002.78
3005.78
3008.61
3011.25
3013.69
3015.92
3017.92
3019.67
3021.17
3022.41
3023.37
3024.05
3024.45
3024.58
3024.42
3023.94
3023.18
3022.14
3020.84
3019.28
3017.47
3015.44
3013.18
3010.73
3008.1
3005.3
3002.36
2999.3
2996.09
2992.85
2989.44
2986.08
2982.61
2979.17
2975.7
2972.22
2968.78
2965.31
2961.91
2958.53
2955.18
2951.91
2948.69
2945.53
2942.44
2939.41
2936.46
2933.58
2930.78
2928.05
2925.35
2922.51
2918.83
2009.18
2602.38
2653.93
2654.44
2654.47
2655.01
2656.34
2658.17
2660.56
2663.11
2665.49
2667.59
2669.49
2671.4
2673.59
2676.24
2679.48
2683.48
2688.68
2695.77
2705.19
2716.6
2728.98
2741.37
2753.47
2765.38
2777.22
2788.81
2799.74
2809.71
2818.64
2826.65
2833.95
2840.71
2847.08
2853.18
2859.09
2864.86
2870.5
2876.04
2881.5
2886.88
2892.18
2897.4
2902.53
2907.57
2912.51
2917.36
2922.1
2926.76
2931.32
2935.8
2940.22
2944.59
2948.9
2953.13
2957.29
2961.36
2965.36
2969.29
2973.15
2976.93
2980.62
2984.22
2987.72
2991.1
2994.36
2997.46
3000.42
3003.21
3005.82
3008.23
3010.44
3012.42
3014.17
3015.68
3016.92
3017.9
3018.61
3019.03
3019.2
3019.08
3018.64
3017.93
3016.94
3015.68
3014.17
3012.41
3010.42
3008.2
3005.79
3003.18
3000.41
2997.49
2994.42
2991.27
2987.96
2984.64
2981.17
2977.75
2974.24
2970.76
2967.25
2963.74
2960.28
2956.79
2953.37
2949.99
2946.64
2943.37
2940.14
2936.99
2933.9
2930.89
2927.94
2925.08
2922.29
2919.59
2916.9
2914.09
2910.45
1989.38
2598.25
2652.26
2652.76
2652.73
2653.3
2654.68
2656.6
2659.07
2661.69
2664.14
2666.31
2668.29
2670.3
2672.6
2675.37
2678.75
2682.91
2688.37
2695.79
2705.58
2717.26
2729.74
2742.14
2754.18
2766.04
2777.83
2789.34
2800.18
2810.05
2818.89
2826.85
2834.11
2840.86
2847.22
2853.33
2859.25
2865.02
2870.66
2876.2
2881.65
2887.03
2892.32
2897.52
2902.63
2907.63
2912.54
2917.34
2922.04
2926.64
2931.14
2935.57
2939.94
2944.24
2948.47
2952.62
2956.68
2960.65
2964.55
2968.36
2972.1
2975.75
2979.31
2982.76
2986.1
2989.31
2992.38
2995.3
2998.05
3000.64
3003.03
3005.22
3007.19
3008.94
3010.45
3011.71
3012.7
3013.43
3013.88
3014.07
3014
3013.61
3012.94
3012
3010.79
3009.32
3007.6
3005.65
3003.47
3001.09
2998.51
2995.76
2992.85
2989.81
2986.64
2983.39
2979.98
2976.59
2973.05
2969.57
2966.01
2962.48
2958.94
2955.4
2951.92
2948.42
2944.98
2941.6
2938.25
2934.98
2931.76
2928.62
2925.54
2922.54
2919.61
2916.76
2914
2911.3
2908.63
2905.82
2902.16
1970.48
2594.18
2650.65
2651.1
2651.02
2651.62
2653.06
2655.07
2657.63
2660.32
2662.82
2665.06
2667.12
2669.23
2671.64
2674.52
2678.03
2682.38
2688.1
2695.87
2706.01
2717.93
2730.5
2742.87
2754.87
2766.67
2778.4
2789.84
2800.58
2810.36
2819.13
2827.03
2834.26
2841
2847.36
2853.47
2859.4
2865.17
2870.81
2876.35
2881.8
2887.17
2892.45
2897.63
2902.71
2907.68
2912.55
2917.32
2921.97
2926.51
2930.97
2935.34
2939.65
2943.89
2948.04
2952.09
2956.06
2959.93
2963.73
2967.43
2971.05
2974.57
2977.98
2981.29
2984.46
2987.5
2990.39
2993.12
2995.68
2998.05
3000.23
3002.2
3003.94
3005.45
3006.72
3007.74
3008.49
3008.96
3009.19
3009.15
3008.8
3008.17
3007.28
3006.11
3004.69
3003.01
3001.1
2998.96
2996.61
2994.06
2991.34
2988.45
2985.41
2982.26
2978.97
2975.63
2972.14
2968.68
2965.08
2961.56
2957.96
2954.39
2950.83
2947.26
2943.75
2940.24
2936.79
2933.4
2930.05
2926.78
2923.57
2920.43
2917.36
2914.37
2911.45
2908.62
2905.86
2903.19
2900.53
2897.76
2894.17
1951.76
2590.2
2649.08
2649.48
2649.35
2649.97
2651.49
2653.6
2656.25
2658.99
2661.54
2663.84
2665.98
2668.18
2670.69
2673.7
2677.34
2681.88
2687.88
2695.99
2706.46
2718.6
2731.23
2743.58
2755.52
2767.27
2778.94
2790.31
2800.96
2810.65
2819.34
2827.2
2834.41
2841.13
2847.49
2853.61
2859.54
2865.31
2870.96
2876.5
2881.94
2887.3
2892.56
2897.73
2902.78
2907.73
2912.56
2917.28
2921.89
2926.38
2930.78
2935.1
2939.35
2943.52
2947.59
2951.56
2955.43
2959.21
2962.9
2966.49
2969.99
2973.38
2976.66
2979.81
2982.83
2985.7
2988.41
2990.95
2993.31
2995.48
2997.44
2999.19
3000.71
3001.99
3003.02
3003.8
3004.31
3004.56
3004.56
3004.26
3003.67
3002.81
3001.69
3000.31
2998.68
2996.81
2994.7
2992.38
2989.86
2987.16
2984.29
2981.27
2978.11
2974.85
2971.46
2968.04
2964.46
2960.93
2957.28