/*--------------------------------*- C++ -*----------------------------------*\
| =========                 |                                                 |
| \\      /  F ield         | OpenFOAM: The Open Source CFD Toolbox           |
|  \\    /   O peration     | Version:  2412                                  |
|   \\  /    A nd           | Website:  www.openfoam.com                      |
|    \\/     M anipulation  |                                                 |
\*---------------------------------------------------------------------------*/
FoamFile
{
    version     2.0;
    format      ascii;
    arch        "LSB;label=32;scalar=64";
    class       volScalarField;
    location    "0.05";
    object      p;
}
// * * * * * * * * * * * * * * * * * * * * * * * * * * * * * * * * * * * * * //

dimensions      [1 -1 -2 0 0 0 0];

internalField   nonuniform List<scalar> 
9859
(
2799.62
2800.29
2800.74
2801.29
2801.71
2802.31
2802.68
2803.23
2803.53
2803.93
2804.29
2804.64
2804.95
2804.97
2804.79
2804.4
2804.02
2803.65
2803.47
2803.37
2803.33
2803.27
2803.21
2803.14
2803.07
2802.99
2802.88
2802.74
2802.6
2802.48
2802.39
2802.29
2802.16
2802.01
2801.9
2801.84
2801.82
2801.8
2801.74
2801.65
2801.56
2801.49
2801.44
2801.38
2801.27
2801.13
2800.94
2800.71
2800.42
2800.03
2799.5
2798.83
2797.98
2796.94
2795.67
2794.13
2792.25
2790.12
2788.27
2788.28
2787.15
2787.47
2788.47
2790.47
2792.39
2793.91
2795.26
2796.2
2796.86
2799.54
2800.22
2800.67
2801.24
2801.67
2802.29
2802.67
2803.23
2803.55
2803.96
2804.33
2804.69
2805.01
2805.03
2804.86
2804.46
2804.07
2803.7
2803.51
2803.4
2803.36
2803.3
2803.24
2803.16
2803.1
2803.01
2802.91
2802.77
2802.63
2802.52
2802.42
2802.32
2802.2
2802.06
2801.94
2801.89
2801.87
2801.85
2801.8
2801.71
2801.62
2801.56
2801.51
2801.45
2801.35
2801.21
2801.03
2800.8
2800.51
2800.12
2799.6
2798.92
2798.06
2797.01
2795.73
2794.17
2792.27
2790.1
2788.12
2788.49
2786.88
2787.43
2788.54
2790.58
2792.49
2794.02
2795.35
2796.32
2796.99
2797.45
2797.78
2798.13
2798.59
2798.87
2799.22
2799.92
2800
2800.12
2800.1
2800.11
2800.29
2800.5
2800.72
2801.02
2801.42
2801.89
2802.42
2803.06
2803.78
2804.57
2805.41
2806.27
2807.12
2807.88
2808.59
2809.28
2810.13
2811.01
2811.99
2813.1
2814.28
2815.36
2816.58
2817.81
2819.34
2821.38
2823.69
2826.3
2829.86
2833.12
2837.57
2839.16
2799.45
2800.14
2800.61
2801.19
2801.63
2802.27
2802.67
2803.24
2803.57
2803.99
2804.37
2804.73
2805.06
2805.1
2804.93
2804.53
2804.14
2803.75
2803.55
2803.43
2803.39
2803.32
2803.26
2803.19
2803.13
2803.04
2802.94
2802.8
2802.66
2802.55
2802.46
2802.36
2802.24
2802.1
2801.99
2801.94
2801.93
2801.91
2801.86
2801.78
2801.69
2801.64
2801.59
2801.54
2801.44
2801.3
2801.12
2800.9
2800.61
2800.22
2799.69
2799.01
2798.15
2797.09
2795.79
2794.2
2792.28
2790.12
2788.01
2788.65
2786.62
2787.42
2788.63
2790.69
2792.59
2794.13
2795.45
2796.45
2797.13
2797.59
2797.89
2798.29
2798.73
2799.02
2799.37
2799.63
2799.74
2799.81
2799.9
2799.94
2799.97
2800.01
2800.06
2800.1
2800.18
2800.31
2800.29
2800.3
2800.48
2800.69
2800.91
2801.21
2801.61
2802.09
2802.61
2803.26
2803.98
2804.77
2805.62
2806.47
2807.33
2808.09
2808.79
2809.5
2810.34
2811.21
2812.18
2813.29
2814.45
2815.51
2816.71
2817.91
2819.4
2821.39
2823.65
2826.18
2829.6
2832.65
2836.68
2837.55
2799.35
2800.06
2800.53
2801.13
2801.59
2802.24
2802.66
2803.25
2803.59
2804.02
2804.41
2804.78
2805.12
2805.16
2805
2804.6
2804.2
2803.81
2803.6
2803.47
2803.42
2803.35
2803.29
2803.22
2803.16
2803.07
2802.97
2802.83
2802.7
2802.59
2802.5
2802.4
2802.28
2802.15
2802.04
2802
2801.99
2801.97
2801.93
2801.85
2801.77
2801.71
2801.68
2801.62
2801.53
2801.39
2801.21
2801
2800.71
2800.32
2799.8
2799.11
2798.25
2797.17
2795.85
2794.23
2792.28
2790.11
2787.92
2788.74
2786.37
2787.43
2788.72
2790.8
2792.7
2794.26
2795.55
2796.58
2797.26
2797.73
2798
2798.46
2798.89
2799.18
2799.52
2799.78
2799.9
2799.97
2800.07
2800.12
2800.15
2800.2
2800.25
2800.29
2800.37
2800.5
2800.5
2800.5
2800.68
2800.89
2801.11
2801.41
2801.81
2802.29
2802.82
2803.47
2804.19
2804.98
2805.83
2806.68
2807.54
2808.31
2809.01
2809.72
2810.55
2811.42
2812.38
2813.48
2814.62
2815.66
2816.85
2818.01
2819.46
2821.4
2823.6
2826.05
2829.32
2832.15
2835.71
2835.83
2799.25
2799.97
2800.46
2801.07
2801.54
2802.22
2802.65
2803.25
2803.61
2804.05
2804.45
2804.83
2805.18
2805.23
2805.07
2804.67
2804.27
2803.86
2803.65
2803.51
2803.45
2803.39
2803.32
2803.25
2803.19
2803.11
2803
2802.87
2802.74
2802.63
2802.54
2802.45
2802.33
2802.2
2802.1
2802.05
2802.05
2802.04
2802
2801.92
2801.85
2801.8
2801.76
2801.71
2801.62
2801.49
2801.31
2801.1
2800.82
2800.43
2799.9
2799.21
2798.34
2797.26
2795.93
2794.29
2792.31
2790.13
2787.89
2788.72
2786.14
2787.44
2788.81
2790.92
2792.82
2794.4
2795.66
2796.71
2797.4
2797.87
2798.12
2798.64
2799.04
2799.35
2799.68
2799.95
2800.07
2800.15
2800.25
2800.3
2800.34
2800.39
2800.44
2800.49
2800.57
2800.7
2800.71
2800.71
2800.9
2801.1
2801.32
2801.63
2802.02
2802.51
2803.04
2803.69
2804.41
2805.2
2806.05
2806.91
2807.77
2808.54
2809.24
2809.96
2810.78
2811.65
2812.6
2813.69
2814.8
2815.82
2816.99
2818.12
2819.52
2821.41
2823.54
2825.91
2829.01
2831.63
2834.67
2834.03
2813.02
2799.14
2799.88
2800.38
2801.01
2801.49
2802.19
2802.64
2803.26
2803.63
2804.08
2804.49
2804.88
2805.24
2805.3
2805.15
2804.75
2804.34
2803.93
2803.7
2803.55
2803.49
2803.42
2803.36
2803.28
2803.22
2803.14
2803.04
2802.91
2802.77
2802.67
2802.58
2802.49
2802.38
2802.25
2802.15
2802.12
2802.12
2802.11
2802.07
2802
2801.93
2801.88
2801.85
2801.81
2801.72
2801.59
2801.42
2801.21
2800.93
2800.55
2800.01
2799.32
2798.45
2797.35
2795.99
2794.31
2792.3
2790.15
2787.94
2788.59
2785.97
2787.45
2788.92
2791.04
2792.94
2794.55
2795.77
2796.85
2797.55
2798.02
2798.25
2798.82
2799.21
2799.52
2799.85
2800.11
2800.25
2800.33
2800.43
2800.49
2800.54
2800.59
2800.65
2800.7
2800.79
2800.91
2800.94
2800.93
2801.12
2801.33
2801.55
2801.85
2802.25
2802.74
2803.27
2803.92
2804.65
2805.43
2806.29
2807.14
2808.01
2808.78
2809.49
2810.21
2811.02
2811.88
2812.82
2813.9
2814.99
2815.99
2817.14
2818.24
2819.58
2821.41
2823.47
2825.75
2828.67
2831.08
2833.56
2832.11
2809.75
2799.02
2799.78
2800.29
2800.94
2801.44
2802.16
2802.63
2803.26
2803.65
2804.11
2804.53
2804.93
2805.3
2805.38
2805.23
2804.83
2804.42
2803.99
2803.75
2803.6
2803.53
2803.46
2803.39
2803.32
2803.26
2803.18
2803.07
2802.94
2802.81
2802.71
2802.63
2802.54
2802.43
2802.31
2802.21
2802.18
2802.18
2802.18
2802.15
2802.08
2802.02
2801.98
2801.95
2801.91
2801.83
2801.7
2801.53
2801.32
2801.05
2800.66
2800.13
2799.44
2798.56
2797.44
2796.05
2794.33
2792.27
2790.14
2788.09
2788.36
2785.86
2787.48
2789.02
2791.16
2793.06
2794.71
2795.9
2797
2797.69
2798.18
2798.41
2799
2799.39
2799.7
2800.03
2800.29
2800.43
2800.52
2800.63
2800.69
2800.74
2800.8
2800.86
2800.92
2801.01
2801.12
2801.18
2801.16
2801.36
2801.56
2801.79
2802.09
2802.49
2802.98
2803.51
2804.17
2804.89
2805.67
2806.54
2807.39
2808.26
2809.04
2809.74
2810.47
2811.27
2812.13
2813.06
2814.13
2815.18
2816.17
2817.29
2818.36
2819.65
2821.41
2823.4
2825.58
2828.31
2830.5
2832.37
2830.07
2806.45
2798.9
2799.67
2800.2
2800.87
2801.38
2802.13
2802.62
2803.27
2803.67
2804.14
2804.57
2804.98
2805.36
2805.45
2805.31
2804.91
2804.49
2804.06
2803.81
2803.65
2803.57
2803.49
2803.43
2803.36
2803.29
2803.22
2803.11
2802.98
2802.86
2802.76
2802.67
2802.59
2802.48
2802.37
2802.28
2802.25
2802.26
2802.26
2802.23
2802.17
2802.11
2802.07
2802.05
2802.01
2801.94
2801.81
2801.65
2801.45
2801.17
2800.79
2800.26
2799.56
2798.68
2797.55
2796.13
2794.36
2792.25
2790.11
2788.34
2787.98
2785.81
2787.5
2789.13
2791.29
2793.19
2794.88
2796.03
2797.15
2797.85
2798.33
2798.58
2799.19
2799.57
2799.88
2800.21
2800.48
2800.63
2800.72
2800.83
2800.9
2800.96
2801.02
2801.09
2801.16
2801.25
2801.35
2801.43
2801.4
2801.61
2801.81
2802.04
2802.35
2802.75
2803.24
2803.77
2804.43
2805.15
2805.93
2806.8
2807.65
2808.52
2809.31
2810.01
2810.74
2811.54
2812.39
2813.31
2814.36
2815.38
2816.35
2817.46
2818.48
2819.72
2821.41
2823.31
2825.4
2827.91
2829.87
2831.12
2827.94
2803.14
2798.77
2799.56
2800.1
2800.79
2801.32
2802.09
2802.6
2803.27
2803.69
2804.17
2804.61
2805.04
2805.43
2805.53
2805.4
2804.99
2804.58
2804.13
2803.87
2803.7
2803.61
2803.54
2803.47
2803.4
2803.34
2803.26
2803.15
2803.03
2802.9
2802.8
2802.72
2802.64
2802.54
2802.43
2802.34
2802.32
2802.33
2802.34
2802.32
2802.26
2802.21
2802.17
2802.15
2802.12
2802.05
2801.93
2801.77
2801.57
2801.3
2800.92
2800.39
2799.69
2798.8
2797.66
2796.21
2794.38
2792.21
2790.04
2788.68
2787.47
2785.83
2787.53
2789.25
2791.42
2793.32
2795.06
2796.18
2797.32
2798.01
2798.5
2798.76
2799.38
2799.76
2800.08
2800.4
2800.67
2800.83
2800.93
2801.04
2801.12
2801.19
2801.26
2801.34
2801.41
2801.5
2801.59
2801.69
2801.66
2801.88
2802.07
2802.31
2802.62
2803.02
2803.51
2804.04
2804.7
2805.43
2806.2
2807.07
2807.93
2808.8
2809.59
2810.29
2811.03
2811.81
2812.67
2813.58
2814.6
2815.59
2816.55
2817.62
2818.61
2819.79
2821.4
2823.21
2825.2
2827.49
2829.2
2829.81
2825.69
2799.79
2798.63
2799.44
2799.99
2800.71
2801.26
2802.05
2802.58
2803.27
2803.7
2804.2
2804.66
2805.09
2805.5
2805.6
2805.48
2805.08
2804.66
2804.21
2803.94
2803.75
2803.66
2803.58
2803.51
2803.44
2803.38
2803.3
2803.2
2803.07
2802.95
2802.85
2802.78
2802.7
2802.6
2802.49
2802.41
2802.4
2802.41
2802.43
2802.41
2802.36
2802.31
2802.28
2802.27
2802.24
2802.17
2802.05
2801.9
2801.7
2801.44
2801.06
2800.52
2799.82
2798.93
2797.78
2796.3
2794.41
2792.17
2789.91
2789.03
2786.92
2785.89
2787.57
2789.38
2791.56
2793.46
2795.25
2796.34
2797.5
2798.18
2798.66
2798.97
2799.58
2799.97
2800.29
2800.6
2800.88
2801.05
2801.15
2801.28
2801.37
2801.43
2801.51
2801.59
2801.67
2801.76
2801.85
2801.96
2801.93
2802.15
2802.34
2802.59
2802.91
2803.31
2803.8
2804.33
2804.99
2805.71
2806.49
2807.36
2808.22
2809.09
2809.88
2810.59
2811.33
2812.1
2812.96
2813.86
2814.85
2815.81
2816.76
2817.8
2818.75
2819.86
2821.38
2823.1
2824.98
2827.04
2828.47
2828.44
2823.39
2796.41
2798.48
2799.31
2799.88
2800.62
2801.19
2802.01
2802.56
2803.27
2803.72
2804.23
2804.7
2805.14
2805.57
2805.68
2805.57
2805.18
2804.75
2804.29
2804
2803.81
2803.71
2803.63
2803.56
2803.48
2803.42
2803.35
2803.25
2803.12
2803
2802.91
2802.83
2802.76
2802.67
2802.56
2802.49
2802.47
2802.5
2802.52
2802.51
2802.46
2802.41
2802.39
2802.38
2802.36
2802.3
2802.18
2802.03
2801.84
2801.58
2801.2
2800.66
2799.97
2799.07
2797.91
2796.4
2794.45
2792.11
2789.75
2789.38
2786.39
2785.99
2787.62
2789.53
2791.71
2793.61
2795.45
2796.51
2797.7
2798.35
2798.83
2799.19
2799.79
2800.18
2800.51
2800.85
2801.11
2801.27
2801.38
2801.5
2801.6
2801.68
2801.76
2801.85
2801.94
2802.04
2802.13
2802.24
2802.21
2802.44
2802.64
2802.89
2803.22
2803.61
2804.1
2804.63
2805.3
2806.02
2806.79
2807.66
2808.53
2809.4
2810.19
2810.91
2811.65
2812.41
2813.26
2814.15
2815.12
2816.05
2816.98
2817.98
2818.9
2819.94
2821.36
2822.98
2824.74
2826.55
2827.69
2827
2821.01
2792.95
2798.32
2799.18
2799.76
2800.52
2801.11
2801.96
2802.54
2803.27
2803.73
2804.26
2804.74
2805.2
2805.63
2805.77
2805.66
2805.27
2804.84
2804.38
2804.08
2803.87
2803.77
2803.68
2803.61
2803.53
2803.47
2803.39
2803.3
2803.18
2803.06
2802.96
2802.89
2802.82
2802.73
2802.63
2802.57
2802.56
2802.59
2802.61
2802.61
2802.57
2802.52
2802.51
2802.5
2802.49
2802.43
2802.32
2802.18
2801.99
2801.73
2801.35
2800.82
2800.12
2799.22
2798.04
2796.5
2794.5
2792.07
2789.6
2789.69
2785.88
2786.1
2787.69
2789.68
2791.87
2793.77
2795.64
2796.69
2797.9
2798.53
2799.01
2799.42
2800
2800.4
2800.72
2801.03
2801.31
2801.5
2801.63
2801.75
2801.86
2801.95
2802.04
2802.14
2802.23
2802.34
2802.43
2802.52
2802.52
2802.75
2802.95
2803.21
2803.54
2803.94
2804.42
2804.95
2805.62
2806.34
2807.11
2807.98
2808.85
2809.72
2810.51
2811.24
2811.98
2812.73
2813.57
2814.45
2815.39
2816.3
2817.21
2818.17
2819.05
2820.02
2821.34
2822.84
2824.48
2826.03
2826.86
2825.5
2818.57
2789.45
2798.16
2799.03
2799.63
2800.42
2801.04
2801.91
2802.51
2803.26
2803.75
2804.28
2804.78
2805.25
2805.71
2805.85
2805.76
2805.37
2804.94
2804.46
2804.15
2803.94
2803.83
2803.73
2803.66
2803.58
2803.52
2803.45
2803.35
2803.23
2803.11
2803.03
2802.96
2802.89
2802.81
2802.71
2802.65
2802.65
2802.68
2802.71
2802.71
2802.68
2802.64
2802.63
2802.63
2802.62
2802.57
2802.47
2802.32
2802.14
2801.89
2801.51
2800.97
2800.28
2799.38
2798.18
2796.6
2794.55
2792.03
2789.47
2789.93
2785.42
2786.19
2787.79
2789.85
2792.05
2793.93
2795.83
2796.89
2798.12
2798.72
2799.21
2799.67
2800.22
2800.63
2800.96
2801.27
2801.56
2801.75
2801.88
2802
2802.12
2802.22
2802.31
2802.42
2802.53
2802.64
2802.74
2802.82
2802.85
2803.07
2803.27
2803.55
2803.89
2804.28
2804.76
2805.3
2805.96
2806.67
2807.45
2808.32
2809.19
2810.05
2810.86
2811.58
2812.32
2813.07
2813.91
2814.77
2815.68
2816.56
2817.45
2818.36
2819.2
2820.1
2821.32
2822.69
2824.19
2825.47
2825.96
2823.91
2816.02
2785.96
2797.98
2798.87
2799.49
2800.31
2800.95
2801.86
2802.48
2803.25
2803.76
2804.31
2804.83
2805.31
2805.78
2805.93
2805.86
2805.47
2805.04
2804.56
2804.24
2804.01
2803.89
2803.79
2803.71
2803.64
2803.58
2803.5
2803.41
2803.29
2803.18
2803.09
2803.03
2802.96
2802.88
2802.79
2802.74
2802.74
2802.78
2802.82
2802.83
2802.8
2802.77
2802.76
2802.77
2802.76
2802.71
2802.62
2802.48
2802.31
2802.05
2801.67
2801.14
2800.45
2799.54
2798.32
2796.71
2794.62
2792.02
2789.41
2790
2785.04
2786.27
2787.89
2790.04
2792.24
2794.11
2796.01
2797.1
2798.35
2798.91
2799.42
2799.92
2800.45
2800.88
2801.22
2801.52
2801.8
2802.01
2802.15
2802.28
2802.39
2802.5
2802.61
2802.73
2802.85
2802.96
2803.06
2803.15
2803.2
2803.4
2803.61
2803.9
2804.26
2804.65
2805.12
2805.66
2806.32
2807.03
2807.8
2808.67
2809.54
2810.41
2811.22
2811.95
2812.68
2813.42
2814.26
2815.1
2815.99
2816.84
2817.71
2818.57
2819.36
2820.19
2821.29
2822.53
2823.88
2824.87
2825
2822.25
2813.41
2782.49
2797.78
2798.7
2799.35
2800.19
2800.86
2801.8
2802.44
2803.24
2803.76
2804.33
2804.87
2805.36
2805.85
2806.01
2805.95
2805.58
2805.14
2804.65
2804.32
2804.08
2803.95
2803.85
2803.77
2803.7
2803.64
2803.56
2803.47
2803.35
2803.24
2803.16
2803.1
2803.04
2802.96
2802.88
2802.83
2802.84
2802.89
2802.93
2802.95
2802.92
2802.9
2802.9
2802.91
2802.91
2802.87
2802.78
2802.65
2802.48
2802.23
2801.85
2801.32
2800.64
2799.71
2798.46
2796.82
2794.68
2792.02
2789.46
2789.83
2784.76
2786.36
2788.01
2790.25
2792.46
2794.31
2796.16
2797.33
2798.59
2799.12
2799.66
2800.17
2800.69
2801.12
2801.47
2801.78
2802.06
2802.27
2802.42
2802.56
2802.68
2802.8
2802.92
2803.05
2803.18
2803.3
2803.4
2803.49
2803.57
2803.76
2803.98
2804.26
2804.64
2805.04
2805.51
2806.04
2806.7
2807.4
2808.18
2809.05
2809.92
2810.78
2811.6
2812.33
2813.06
2813.79
2814.62
2815.45
2816.3
2817.13
2817.98
2818.78
2819.52
2820.27
2821.27
2822.35
2823.54
2824.24
2823.96
2820.49
2810.67
2779.03
2797.58
2798.53
2799.19
2800.06
2800.76
2801.73
2802.4
2803.22
2803.77
2804.35
2804.9
2805.42
2805.92
2806.09
2806.05
2805.69
2805.25
2804.76
2804.41
2804.16
2804.03
2803.92
2803.84
2803.76
2803.7
2803.63
2803.53
2803.42
2803.31
2803.23
2803.17
2803.12
2803.05
2802.97
2802.93
2802.94
2803
2803.05
2803.07
2803.05
2803.03
2803.04
2803.06
2803.06
2803.03
2802.94
2802.82
2802.65
2802.41
2802.03
2801.51
2800.83
2799.89
2798.61
2796.93
2794.76
2792.03
2789.62
2789.49
2784.57
2786.45
2788.14
2790.47
2792.71
2794.54
2796.29
2797.59
2798.85
2799.34
2799.92
2800.44
2800.94
2801.4
2801.73
2802.05
2802.33
2802.55
2802.71
2802.86
2802.99
2803.12
2803.25
2803.39
2803.53
2803.65
2803.76
2803.85
2803.96
2804.14
2804.36
2804.65
2805.04
2805.45
2805.91
2806.45
2807.1
2807.8
2808.58
2809.44
2810.31
2811.18
2812
2812.73
2813.45
2814.18
2815
2815.81
2816.64
2817.45
2818.26
2819
2819.68
2820.36
2821.25
2822.16
2823.16
2823.58
2822.85
2818.67
2807.87
2775.52
2797.36
2798.33
2799.02
2799.93
2800.65
2801.66
2802.36
2803.19
2803.77
2804.37
2804.94
2805.47
2805.99
2806.18
2806.15
2805.8
2805.36
2804.86
2804.51
2804.25
2804.1
2803.99
2803.91
2803.83
2803.77
2803.69
2803.6
2803.49
2803.39
2803.31
2803.26
2803.21
2803.14
2803.07
2803.03
2803.05
2803.11
2803.18
2803.2
2803.19
2803.18
2803.19
2803.22
2803.23
2803.2
2803.12
2803
2802.84
2802.6
2802.22
2801.71
2801.04
2800.09
2798.77
2797.03
2794.83
2792.05
2789.9
2789.02
2784.46
2786.55
2788.3
2790.73
2792.99
2794.8
2796.39
2797.87
2799.12
2799.56
2800.19
2800.71
2801.2
2801.65
2802.02
2802.33
2802.61
2802.84
2803.01
2803.16
2803.31
2803.45
2803.59
2803.74
2803.89
2804.02
2804.14
2804.24
2804.37
2804.54
2804.78
2805.06
2805.45
2805.89
2806.34
2806.88
2807.53
2808.23
2809
2809.85
2810.73
2811.6
2812.42
2813.15
2813.86
2814.59
2815.4
2816.19
2817
2817.79
2818.56
2819.23
2819.85
2820.45
2821.22
2821.96
2822.75
2822.86
2821.67
2816.76
2804.99
2771.97
2797.13
2798.13
2798.84
2799.78
2800.53
2801.57
2802.3
2803.16
2803.76
2804.38
2804.97
2805.52
2806.05
2806.26
2806.26
2805.91
2805.47
2804.97
2804.61
2804.34
2804.19
2804.07
2803.98
2803.9
2803.84
2803.77
2803.67
2803.57
2803.46
2803.39
2803.34
2803.3
2803.24
2803.17
2803.14
2803.17
2803.24
2803.31
2803.34
2803.34
2803.33
2803.35
2803.38
2803.4
2803.37
2803.3
2803.19
2803.04
2802.79
2802.43
2801.93
2801.26
2800.29
2798.93
2797.13
2794.9
2792.08
2790.27
2788.47
2784.45
2786.66
2788.49
2791
2793.3
2795.11
2796.49
2798.17
2799.41
2799.82
2800.47
2800.99
2801.48
2801.94
2802.31
2802.63
2802.91
2803.15
2803.33
2803.49
2803.64
2803.8
2803.95
2804.11
2804.27
2804.41
2804.54
2804.66
2804.8
2804.97
2805.21
2805.51
2805.89
2806.34
2806.8
2807.33
2807.98
2808.67
2809.44
2810.29
2811.17
2812.03
2812.86
2813.6
2814.3
2815.02
2815.81
2816.58
2817.38
2818.16
2818.87
2819.47
2820.03
2820.55
2821.2
2821.74
2822.31
2822.12
2820.44
2814.79
2802.07
2768.39
2796.87
2797.91
2798.64
2799.62
2800.41
2801.48
2802.24
2803.12
2803.75
2804.39
2805
2805.57
2806.12
2806.34
2806.36
2806.02
2805.58
2805.08
2804.71
2804.43
2804.27
2804.15
2804.06
2803.98
2803.92
2803.85
2803.75
2803.65
2803.55
2803.48
2803.44
2803.4
2803.34
2803.28
2803.26
2803.3
2803.37
2803.45
2803.49
2803.49
2803.49
2803.51
2803.55
2803.58
2803.56
2803.49
2803.39
2803.24
2803
2802.64
2802.16
2801.49
2800.51
2799.11
2797.24
2794.97
2792.13
2790.65
2787.85
2784.52
2786.76
2788.7
2791.3
2793.62
2795.45
2796.61
2798.5
2799.69
2800.09
2800.77
2801.28
2801.77
2802.23
2802.62
2802.95
2803.23
2803.47
2803.66
2803.83
2803.99
2804.16
2804.33
2804.5
2804.67
2804.82
2804.96
2805.1
2805.25
2805.43
2805.67
2805.98
2806.35
2806.81
2807.28
2807.82
2808.45
2809.15
2809.91
2810.76
2811.63
2812.5
2813.32
2814.06
2814.75
2815.47
2816.24
2817
2817.78
2818.54
2819.19
2819.71
2820.22
2820.65
2821.16
2821.51
2821.83
2821.31
2819.1
2812.72
2799.1
2764.82
2796.61
2797.67
2798.44
2799.45
2800.27
2801.38
2802.17
2803.08
2803.73
2804.39
2805.03
2805.61
2806.18
2806.42
2806.46
2806.13
2805.7
2805.2
2804.82
2804.53
2804.37
2804.24
2804.15
2804.07
2804
2803.93
2803.84
2803.74
2803.64
2803.58
2803.53
2803.5
2803.45
2803.4
2803.39
2803.43
2803.51
2803.6
2803.64
2803.65
2803.66
2803.69
2803.74
2803.76
2803.75
2803.69
2803.59
2803.45
2803.22
2802.87
2802.4
2801.74
2800.76
2799.31
2797.35
2795.05
2792.19
2790.98
2787.28
2784.67
2786.89
2788.94
2791.6
2793.96
2795.85
2796.77
2798.85
2800.01
2800.39
2801.08
2801.58
2802.07
2802.54
2802.94
2803.27
2803.56
2803.81
2804.01
2804.19
2804.36
2804.54
2804.73
2804.91
2805.09
2805.25
2805.4
2805.55
2805.73
2805.9
2806.17
2806.47
2806.85
2807.3
2807.79
2808.32
2808.95
2809.65
2810.41
2811.25
2812.12
2812.98
2813.81
2814.54
2815.24
2815.95
2816.7
2817.45
2818.21
2818.93
2819.52
2819.98
2820.42
2820.77
2821.13
2821.28
2821.33
2820.47
2817.69
2810.59
2796.07
2761.27
2796.32
2797.42
2798.21
2799.27
2800.12
2801.27
2802.09
2803.02
2803.7
2804.38
2805.04
2805.65
2806.23
2806.5
2806.56
2806.25
2805.81
2805.32
2804.93
2804.64
2804.46
2804.33
2804.24
2804.16
2804.09
2804.02
2803.93
2803.83
2803.74
2803.68
2803.64
2803.61
2803.57
2803.53
2803.52
2803.56
2803.66
2803.75
2803.8
2803.82
2803.84
2803.87
2803.93
2803.96
2803.96
2803.91
2803.81
2803.68
2803.45
2803.12
2802.66
2802.01
2801.02
2799.53
2797.5
2795.14
2792.24
2791.18
2786.82
2784.87
2787.04
2789.22
2791.92
2794.3
2796.29
2796.97
2799.24
2800.28
2800.71
2801.4
2801.9
2802.38
2802.86
2803.27
2803.61
2803.91
2804.16
2804.38
2804.57
2804.75
2804.94
2805.14
2805.34
2805.53
2805.71
2805.87
2806.04
2806.22
2806.41
2806.69
2807
2807.38
2807.83
2808.32
2808.86
2809.49
2810.18
2810.94
2811.77
2812.64
2813.49
2814.33
2815.05
2815.75
2816.46
2817.19
2817.92
2818.65
2819.33
2819.85
2820.27
2820.63
2820.88
2821.07
2821.03
2820.8
2819.55
2816.16
2808.4
2792.95
2757.77
2796.01
2797.15
2797.97
2799.07
2799.96
2801.15
2802
2802.96
2803.66
2804.37
2805.05
2805.68
2806.28
2806.57
2806.66
2806.36
2805.93
2805.44
2805.05
2804.75
2804.57
2804.43
2804.34
2804.25
2804.19
2804.12
2804.03
2803.93
2803.84
2803.79
2803.75
2803.73
2803.69
2803.66
2803.66
2803.71
2803.81
2803.92
2803.98
2804
2804.02
2804.07
2804.13
2804.17
2804.17
2804.13
2804.04
2803.91
2803.69
2803.37
2802.95
2802.3
2801.31
2799.8
2797.7
2795.24
2792.29
2791.18
2786.53
2785.11
2787.23
2789.53
2792.27
2794.67
2796.79
2797.24
2799.65
2800.59
2801.05
2801.74
2802.23
2802.72
2803.2
2803.62
2803.97
2804.27
2804.53
2804.76
2804.96
2805.15
2805.36
2805.57
2805.79
2805.99
2806.19
2806.37
2806.55
2806.74
2806.95
2807.24
2807.55
2807.94
2808.39
2808.89
2809.43
2810.05
2810.74
2811.49
2812.32
2813.18
2814.03
2814.86
2815.6
2816.29
2816.99
2817.7
2818.42
2819.12
2819.75
2820.21
2820.58
2820.85
2821
2821.02
2820.8
2820.25
2818.62
2814.59
2806.2
2789.8
2754.28
2795.68
2796.86
2797.72
2798.86
2799.78
2801.01
2801.89
2802.88
2803.61
2804.34
2805.05
2805.7
2806.33
2806.64
2806.76
2806.47
2806.05
2805.56
2805.17
2804.86
2804.68
2804.53
2804.45
2804.36
2804.3
2804.22
2804.14
2804.04
2803.96
2803.9
2803.88
2803.86
2803.83
2803.8
2803.81
2803.87
2803.98
2804.09
2804.16
2804.19
2804.22
2804.27
2804.34
2804.39
2804.4
2804.36
2804.28
2804.16
2803.95
2803.65
2803.25
2802.62
2801.64
2800.11
2797.97
2795.38
2792.28
2791.05
2786.42
2785.41
2787.47
2789.88
2792.65
2795.05
2797.35
2797.59
2800.04
2800.9
2801.4
2802.07
2802.58
2803.06
2803.55
2803.98
2804.34
2804.65
2804.92
2805.16
2805.37
2805.58
2805.8
2806.03
2806.26
2806.48
2806.69
2806.89
2807.08
2807.29
2807.52
2807.81
2808.14
2808.54
2808.98
2809.49
2810.03
2810.64
2811.33
2812.08
2812.9
2813.75
2814.6
2815.43
2816.16
2816.86
2817.55
2818.24
2818.94
2819.61
2820.19
2820.58
2820.91
2821.09
2821.11
2820.94
2820.54
2819.63
2817.61
2812.91
2803.99
2786.62
2750.79
2795.32
2796.55
2797.44
2798.63
2799.59
2800.86
2801.77
2802.79
2803.55
2804.31
2805.04
2805.71
2806.36
2806.7
2806.85
2806.57
2806.17
2805.68
2805.29
2804.98
2804.79
2804.65
2804.56
2804.47
2804.41
2804.34
2804.25
2804.16
2804.08
2804.03
2804.01
2803.99
2803.97
2803.95
2803.96
2804.03
2804.15
2804.27
2804.35
2804.39
2804.42
2804.48
2804.56
2804.61
2804.64
2804.6
2804.53
2804.42
2804.22
2803.95
2803.57
2802.96
2801.99
2800.46
2798.31
2795.61
2792.13
2790.87
2786.46
2785.77
2787.76
2790.28
2793.07
2795.46
2797.91
2798.08
2800.39
2801.25
2801.81
2802.44
2802.93
2803.43
2803.93
2804.36
2804.73
2805.05
2805.33
2805.58
2805.81
2806.03
2806.26
2806.51
2806.76
2807
2807.22
2807.44
2807.65
2807.89
2808.15
2808.45
2808.78
2809.16
2809.62
2810.12
2810.66
2811.27
2811.95
2812.7
2813.52
2814.35
2815.2
2816.02
2816.76
2817.46
2818.14
2818.81
2819.49
2820.12
2820.65
2820.99
2821.24
2821.33
2821.23
2820.87
2820.3
2818.98
2816.6
2811.21
2801.73
2783.44
2747.24
2794.93
2796.21
2797.14
2798.38
2799.38
2800.68
2801.63
2802.68
2803.47
2804.25
2805.01
2805.71
2806.39
2806.76
2806.93
2806.67
2806.28
2805.81
2805.42
2805.1
2804.91
2804.76
2804.68
2804.59
2804.53
2804.46
2804.38
2804.29
2804.21
2804.17
2804.15
2804.14
2804.12
2804.11
2804.13
2804.21
2804.34
2804.47
2804.55
2804.6
2804.64
2804.71
2804.79
2804.85
2804.88
2804.85
2804.79
2804.69
2804.5
2804.26
2803.92
2803.33
2802.37
2800.81
2798.6
2795.88
2792.04
2790.76
2786.6
2786.18
2788.12
2790.73
2793.55
2795.95
2798.42
2798.68
2800.74
2801.61
2802.17
2802.81
2803.32
2803.82
2804.33
2804.76
2805.14
2805.47
2805.76
2806.02
2806.26
2806.5
2806.74
2807.01
2807.28
2807.54
2807.78
2808.01
2808.24
2808.49
2808.77
2809.07
2809.43
2809.83
2810.28
2810.78
2811.33
2811.93
2812.61
2813.35
2814.16
2814.99
2815.84
2816.65
2817.39
2818.08
2818.75
2819.41
2820.07
2820.66
2821.14
2821.44
2821.59
2821.61
2821.34
2820.81
2820.03
2818.28
2815.47
2809.45
2799.47
2780.24
2743.58
2794.52
2795.85
2796.82
2798.11
2799.15
2800.49
2801.47
2802.55
2803.37
2804.18
2804.97
2805.7
2806.4
2806.8
2807
2806.77
2806.4
2805.93
2805.54
2805.22
2805.03
2804.88
2804.8
2804.72
2804.66
2804.59
2804.51
2804.42
2804.35
2804.31
2804.3
2804.3
2804.29
2804.28
2804.31
2804.4
2804.53
2804.67
2804.76
2804.82
2804.87
2804.94
2805.03
2805.1
2805.14
2805.12
2805.07
2804.97
2804.81
2804.6
2804.29
2803.73
2802.76
2801.16
2798.84
2796.02
2792.2
2790.73
2786.9
2786.69
2788.56
2791.23
2794.08
2796.59
2798.94
2799.26
2801.12
2802.03
2802.61
2803.2
2803.72
2804.23
2804.74
2805.18
2805.57
2805.91
2806.21
2806.48
2806.74
2806.99
2807.25
2807.53
2807.82
2808.11
2808.37
2808.62
2808.87
2809.14
2809.44
2809.77
2810.15
2810.58
2811.03
2811.48
2812.02
2812.65
2813.3
2814.04
2814.85
2815.66
2816.5
2817.3
2818.05
2818.74
2819.4
2820.04
2820.67
2821.23
2821.67
2821.93
2821.98
2821.85
2821.44
2820.76
2819.74
2817.61
2814.33
2807.74
2797.04
2777.09
2739.97
2794.07
2795.45
2796.47
2797.82
2798.89
2800.28
2801.29
2802.39
2803.25
2804.09
2804.91
2805.66
2806.4
2806.83
2807.06
2806.86
2806.51
2806.05
2805.67
2805.35
2805.15
2805.01
2804.93
2804.86
2804.8
2804.73
2804.65
2804.57
2804.5
2804.47
2804.46
2804.47
2804.47
2804.47
2804.5
2804.6
2804.74
2804.89
2804.99
2805.05
2805.11
2805.19
2805.29
2805.37
2805.41
2805.4
2805.35
2805.27
2805.14
2804.97
2804.69
2804.15
2803.17
2801.52
2799.07
2796.04
2792.54
2790.79
2787.36
2787.31
2789.09
2791.78
2794.66
2797.31
2799.58
2799.79
2801.53
2802.4
2802.99
2803.63
2804.15
2804.66
2805.18
2805.62
2806.01
2806.37
2806.68
2806.97
2807.24
2807.51
2807.79
2808.09
2808.4
2808.7
2808.99
2809.25
2809.52
2809.81
2810.13
2810.46
2810.85
2811.28
2811.74
2812.26
2812.85
2813.35
2814.04
2814.77
2815.56
2816.36
2817.21
2818
2818.74
2819.41
2820.06
2820.69
2821.31
2821.83
2822.23
2822.43
2822.38
2822.13
2821.61
2820.75
2819.38
2816.91
2813.08
2805.98
2794.7
2773.85
2736.23
2793.59
2795.03
2796.09
2797.49
2798.61
2800.03
2801.08
2802.22
2803.11
2803.98
2804.82
2805.61
2806.38
2806.85
2807.12
2806.94
2806.61
2806.17
2805.8
2805.48
2805.28
2805.14
2805.07
2805
2804.94
2804.88
2804.8
2804.73
2804.66
2804.64
2804.64
2804.65
2804.66
2804.66
2804.71
2804.81
2804.96
2805.12
2805.22
2805.29
2805.36
2805.45
2805.55
2805.64
2805.7
2805.69
2805.66
2805.59
2805.49
2805.36
2805.11
2804.57
2803.58
2801.9
2799.4
2796.05
2792.92
2790.95
2787.94
2788
2789.73
2792.4
2795.36
2798.2
2800.07
2800.4
2801.97
2802.83
2803.44
2804.06
2804.59
2805.11
2805.63
2806.08
2806.48
2806.85
2807.17
2807.48
2807.76
2808.05
2808.35
2808.67
2809
2809.33
2809.64
2809.93
2810.22
2810.53
2810.86
2811.22
2811.63
2812.07
2812.54
2813.02
2813.55
2814.15
2814.81
2815.52
2816.33
2817.11
2817.94
2818.73
2819.47
2820.12
2820.77
2821.39
2821.98
2822.47
2822.83
2822.94
2822.8
2822.43
2821.77
2820.7
2819
2816.27
2811.89
2804.38
2792.15
2770.6
2732.66
2793.07
2794.57
2795.68
2797.14
2798.3
2799.76
2800.85
2802.01
2802.94
2803.83
2804.71
2805.54
2806.34
2806.85
2807.15
2807.01
2806.71
2806.29
2805.92
2805.61
2805.41
2805.27
2805.2
2805.15
2805.09
2805.04
2804.97
2804.9
2804.84
2804.82
2804.83
2804.85
2804.86
2804.87
2804.92
2805.03
2805.19
2805.36
2805.47
2805.55
2805.63
2805.73
2805.83
2805.93
2805.99
2806
2805.97
2805.92
2805.86
2805.77
2805.54
2805.01
2804.01
2802.31
2799.75
2796.2
2793.32
2791.21
2788.62
2788.79
2790.51
2793.15
2796.13
2799.05
2800.48
2801.05
2802.43
2803.29
2803.91
2804.53
2805.07
2805.59
2806.11
2806.56
2806.98
2807.35
2807.69
2808.01
2808.32
2808.62
2808.94
2809.28
2809.64
2809.99
2810.32
2810.63
2810.94
2811.27
2811.63
2812.01
2812.44
2812.89
2813.38
2813.89
2814.42
2815.01
2815.63
2816.34
2817.11
2817.9
2818.72
2819.5
2820.22
2820.87
2821.51
2822.11
2822.68
2823.13
2823.42
2823.47
2823.25
2822.79
2822.01
2820.67
2818.65
2815.6
2810.68
2802.64
2789.57
2767.42
2729
2792.51
2794.08
2795.24
2796.76
2797.96
2799.46
2800.58
2801.77
2802.73
2803.66
2804.57
2805.43
2806.27
2806.82
2807.16
2807.07
2806.8
2806.39
2806.04
2805.73
2805.54
2805.41
2805.35
2805.3
2805.25
2805.21
2805.14
2805.08
2805.03
2805.02
2805.03
2805.05
2805.08
2805.1
2805.15
2805.27
2805.44
2805.61
2805.74
2805.82
2805.91
2806.01
2806.13
2806.23
2806.3
2806.32
2806.31
2806.28
2806.26
2806.21
2805.99
2805.47
2804.45
2802.72
2800.07
2796.49
2793.81
2791.62
2789.42
2789.7
2791.44
2794.04
2796.98
2799.79
2801.03
2801.73
2802.93
2803.78
2804.41
2805.02
2805.57
2806.1
2806.62
2807.07
2807.5
2807.89
2808.24
2808.58
2808.9
2809.22
2809.56
2809.93
2810.31
2810.69
2811.04
2811.38
2811.71
2812.06
2812.43
2812.85
2813.29
2813.76
2814.25
2814.77
2815.3
2815.89
2816.55
2817.27
2817.94
2818.73
2819.53
2820.29
2821.03
2821.69
2822.32
2822.89
2823.42
2823.83
2824.04
2824.04
2823.74
2823.17
2822.22
2820.61
2818.31
2814.99
2809.42
2800.92
2787.12
2764.39
2725.63
2791.89
2793.54
2794.75
2796.33
2797.58
2799.11
2800.27
2801.49
2802.49
2803.45
2804.4
2805.3
2806.18
2806.77
2807.14
2807.1
2806.88
2806.5
2806.16
2805.86
2805.67
2805.54
2805.49
2805.45
2805.42
2805.38
2805.33
2805.27
2805.23
2805.22
2805.25
2805.28
2805.31
2805.34
2805.4
2805.52
2805.7
2805.88
2806.01
2806.11
2806.2
2806.32
2806.44
2806.55
2806.63
2806.65
2806.66
2806.66
2806.68
2806.66
2806.45
2805.93
2804.91
2803.15
2800.43
2796.96
2794.4
2792.18
2790.34
2790.73
2792.5
2795.06
2797.91
2800.44
2801.64
2802.41
2803.48
2804.3
2804.94
2805.54
2806.1
2806.63
2807.15
2807.61
2808.04
2808.45
2808.82
2809.17
2809.51
2809.85
2810.21
2810.6
2811.01
2811.41
2811.79
2812.15
2812.52
2812.89
2813.3
2813.73
2814.19
2814.68
2815.18
2815.7
2816.23
2816.82
2817.45
2818.12
2818.89
2819.74
2820.49
2821.18
2821.83
2822.52
2823.12
2823.67
2824.16
2824.52
2824.68
2824.63
2824.27
2823.62
2822.51
2820.61
2818.03
2814.38
2808.2
2799.21
2784.61
2761.44
2722.68
2791.23
2792.95
2794.22
2795.86
2797.15
2798.72