/*--------------------------------*- C++ -*----------------------------------*\
| =========                 |                                                 |
| \\      /  F ield         | OpenFOAM: The Open Source CFD Toolbox           |
|  \\    /   O peration     | Version:  2412                                  |
|   \\  /    A nd           | Website:  www.openfoam.com                      |
|    \\/     M anipulation  |                                                 |
\*---------------------------------------------------------------------------*/
FoamFile
{
    version     2.0;
    format      ascii;
    arch        "LSB;label=32;scalar=64";
    class       volScalarField;
    location    "0.088";
    object      rho;
}
// * * * * * * * * * * * * * * * * * * * * * * * * * * * * * * * * * * * * * //

dimensions      [1 -3 0 0 0 0 0];

internalField   nonuniform List<scalar> 
9771
(
0.025656
0.0384404
0.039489
0.0395712
0.0397831
0.0400426
0.0403203
0.0405695
0.0407899
0.0409816
0.0256023
0.0383539
0.0394813
0.0395675
0.0397806
0.0400413
0.0403194
0.0405688
0.0407892
0.0409809
0.0255461
0.0382651
0.0394742
0.0395638
0.0397782
0.0400401
0.0403186
0.0405681
0.0407886
0.0409802
0.0254926
0.0381671
0.0394675
0.0395602
0.0397757
0.0400388
0.0403177
0.0405674
0.0407879
0.0409795
0.0254422
0.0380629
0.0394613
0.0395565
0.0397733
0.0400376
0.0403168
0.0405667
0.0407872
0.0409788
0.0253943
0.0379467
0.0394557
0.0395528
0.0397707
0.0400363
0.0403159
0.0405659
0.0407865
0.0409781
0.0253461
0.0378166
0.0394507
0.039549
0.0397682
0.0400351
0.040315
0.0405652
0.0407858
0.0409773
0.0411442
0.0412892
0.0414165
0.0415303
0.0416344
0.0417308
0.0418209
0.0419059
0.0419867
0.042064
0.0421384
0.0422107
0.0422809
0.042349
0.0424144
0.0424764
0.0425349
0.0425898
0.0426412
0.0426896
0.0427355
0.0427792
0.0252965
0.0376684
0.0394464
0.0395452
0.0397656
0.0400338
0.0403141
0.0405644
0.0407851
0.0409766
0.0411434
0.0412884
0.0414155
0.0415294
0.0416334
0.0417298
0.0418199
0.0419049
0.0419857
0.042063
0.0421375
0.0422098
0.0422801
0.0423482
0.0424135
0.0424755
0.0425338
0.0425886
0.0426398
0.0426881
0.0427339
0.0427774
0.0428188
0.0428583
0.0428962
0.0429327
0.0429681
0.0430024
0.025244
0.0374955
0.039443
0.0395414
0.039763
0.0400325
0.0403131
0.0405636
0.0407844
0.0409758
0.0411426
0.0412875
0.0414146
0.0415284
0.0416324
0.0417288
0.0418189
0.0419039
0.0419847
0.042062
0.0421365
0.0422088
0.0422792
0.0423473
0.0424125
0.0424745
0.0425327
0.0425873
0.0426385
0.0426866
0.0427322
0.0427755
0.0428167
0.042856
0.0428936
0.0429299
0.042965
0.0429991
0.0430322
0.0251907
0.0373007
0.0394407
0.0395376
0.0397605
0.0400313
0.0403122
0.0405628
0.0407836
0.040975
0.0411417
0.0412866
0.0414137
0.0415274
0.0416314
0.0417278
0.0418179
0.0419029
0.0419837
0.042061
0.0421355
0.0422079
0.0422782
0.0423464
0.0424116
0.0424734
0.0425316
0.0425861
0.042637
0.042685
0.0427304
0.0427735
0.0428145
0.0428536
0.0428909
0.042927
0.0429618
0.0429956
0.0430285
0.0251335
0.0371308
0.0394406
0.039534
0.039758
0.0400301
0.0403112
0.0405621
0.0407829
0.0409742
0.0411409
0.0412857
0.0414128
0.0415265
0.0416305
0.0417268
0.0418169
0.0419018
0.0419826
0.04206
0.0421346
0.0422069
0.0422773
0.0423454
0.0424106
0.0424724
0.0425304
0.0425848
0.0426356
0.0426834
0.0427286
0.0427716
0.0428124
0.0428512
0.0428883
0.0429241
0.0429587
0.0429922
0.0430249
0.021616
0.0367614
0.0395273
0.0394646
0.0397123
0.0400025
0.0402929
0.0405475
0.0407694
0.0409608
0.0411272
0.0412717
0.0413988
0.0415128
0.041617
0.0417136
0.041804
0.0418892
0.0419704
0.0420482
0.0421233
0.042196
0.0422666
0.0423345
0.042399
0.0424597
0.0425164
0.0425692
0.0426183
0.0426644
0.0427078
0.0427489
0.0427877
0.0428244
0.0428593
0.0428927
0.0429249
0.0429559
0.042986
0.0430153
0.0430438
0.0430718
0.0430995
0.0431269
0.0431543
0.0431816
0.043209
0.0432365
0.0432641
0.0432918
0.0433195
0.0433473
0.0433751
0.0434029
0.0434306
0.0434583
0.0434859
0.0435134
0.0435407
0.0435677
0.0435942
0.0436202
0.0436456
0.0436701
0.0436937
0.0437163
0.0437377
0.0437579
0.0437767
0.0437942
0.0438103
0.0438249
0.0438379
0.0438495
0.0438596
0.0438682
0.0438754
0.0438812
0.0438855
0.0240314
0.0374201
0.0391093
0.0392949
0.0396367
0.039959
0.0402656
0.0405251
0.0407477
0.0409385
0.0411036
0.0412473
0.0413741
0.0414882
0.0415929
0.0416898
0.0417806
0.0418664
0.0419483
0.0420269
0.0421028
0.0421762
0.0422469
0.0423141
0.042377
0.0424355
0.0424894
0.0425391
0.0425849
0.0426275
0.0426673
0.0427046
0.0427396
0.0427723
0.0428029
0.0428318
0.0428592
0.0428854
0.0429104
0.0429344
0.0429574
0.0429797
0.0430013
0.0430221
0.0430423
0.0430619
0.0430807
0.0430987
0.043116
0.0431324
0.0431479
0.0431625
0.0431762
0.0431889
0.0432008
0.0432116
0.0432214
0.0432301
0.0432376
0.043244
0.043249
0.0432528
0.0432553
0.0432566
0.0432566
0.0432553
0.043253
0.0432495
0.043245
0.0432394
0.0432331
0.0432258
0.0432177
0.0432089
0.0431994
0.0431894
0.0431789
0.043168
0.0431566
0.0278019
0.0382835
0.0392119
0.0392339
0.0395619
0.0399177
0.0402378
0.0404995
0.0407227
0.0409137
0.0410785
0.0412217
0.0413485
0.0414629
0.0415679
0.0416655
0.0417569
0.0418435
0.0419261
0.0420054
0.0420817
0.0421548
0.0422243
0.0422894
0.0423494
0.0424043
0.0424544
0.0425002
0.0425423
0.042581
0.0426169
0.0426502
0.0426812
0.0427099
0.0427364
0.0427609
0.0427838
0.0428051
0.0428251
0.0428438
0.0428614
0.042878
0.0428936
0.0429082
0.0429218
0.0429345
0.042946
0.0429564
0.0429657
0.0429736
0.0429804
0.042986
0.0429906
0.0429941
0.0429965
0.042998
0.0429982
0.0429973
0.0429954
0.0429924
0.0429884
0.0429836
0.0429779
0.0429715
0.0429644
0.0429565
0.0429483
0.0429395
0.0429302
0.0429207
0.0429107
0.0429006
0.0428902
0.0428798
0.042869
0.0428585
0.0428477
0.0428371
0.0428265
0.0296593
0.0377441
0.038772
0.0390382
0.0395101
0.0398863
0.040212
0.0404765
0.0407015
0.0408925
0.0410563
0.0411985
0.0413247
0.0414391
0.0415446
0.0416428
0.0417349
0.0418223
0.0419056
0.0419852
0.0420611
0.0421328
0.0421998
0.0422614
0.0423174
0.042368
0.0424138
0.0424556
0.0424937
0.0425286
0.0425605
0.0425899
0.042617
0.0426419
0.0426645
0.042685
0.0427037
0.0427207
0.0427364
0.0427507
0.0427639
0.0427759
0.0427866
0.0427961
0.0428043
0.0428113
0.042817
0.0428216
0.0428249
0.0428273
0.0428287
0.042829
0.0428282
0.0428266
0.042824
0.0428206
0.0428164
0.0428112
0.0428054
0.0427988
0.0427917
0.0427842
0.0427762
0.0427679
0.0427594
0.0427506
0.0427415
0.0427325
0.0427231
0.042714
0.0427046
0.0426955
0.0426864
0.0426775
0.0426687
0.0426602
0.0426519
0.0426439
0.0426361
0.0314505
0.0374115
0.0385028
0.0388798
0.0394451
0.0398461
0.0401837
0.0404545
0.0406824
0.0408734
0.0410361
0.0411769
0.0413023
0.0414165
0.0415223
0.041621
0.0417139
0.0418021
0.0418859
0.0419653
0.0420398
0.042109
0.0421724
0.0422296
0.042281
0.0423269
0.0423683
0.0424059
0.04244
0.0424711
0.0424993
0.0425249
0.0425482
0.0425695
0.0425887
0.0426059
0.0426213
0.0426351
0.0426474
0.0426583
0.0426682
0.0426769
0.0426846
0.0426911
0.0426963
0.0427002
0.0427029
0.0427045
0.042705
0.0427045
0.0427031
0.0427008
0.0426975
0.0426935
0.0426888
0.0426837
0.0426781
0.042672
0.0426656
0.0426588
0.0426518
0.0426445
0.0426371
0.0426296
0.042622
0.0426144
0.0426065
0.042599
0.0425913
0.0425837
0.0425763
0.0425688
0.0425615
0.0425542
0.0425469
0.0425398
0.0425327
0.0425257
0.0425189
0.0329541
0.0371482
0.0382065
0.0387435
0.0393855
0.0398052
0.0401606
0.040439
0.0406687
0.0408582
0.0410192
0.0411582
0.0412824
0.0413962
0.0415019
0.0416011
0.0416947
0.0417834
0.0418673
0.0419458
0.0420181
0.0420838
0.0421427
0.0421951
0.0422415
0.0422828
0.0423197
0.0423532
0.0423836
0.0424111
0.0424359
0.0424581
0.0424781
0.0424962
0.0425126
0.0425272
0.0425403
0.0425519
0.0425621
0.0425709
0.0425785
0.0425847
0.0425899
0.042594
0.0425972
0.0425996
0.0426012
0.042602
0.0426018
0.0426008
0.042599
0.0425962
0.0425928
0.0425886
0.042584
0.0425791
0.0425738
0.0425683
0.0425625
0.0425565
0.0425503
0.0425439
0.0425373
0.0425306
0.0425238
0.042517
0.0425101
0.0425032
0.0424963
0.0424895
0.0424828
0.0424763
0.0424701
0.042464
0.0424583
0.0424528
0.0424476
0.0424428
0.042438
0.0342111
0.037072
0.0379097
0.038707
0.0393452
0.039775
0.0401434
0.0404285
0.0406599
0.040848
0.0410064
0.041143
0.0412656
0.0413785
0.0414839
0.0415831
0.041677
0.0417659
0.0418492
0.0419259
0.0419951
0.0420567
0.0421108
0.0421583
0.0422
0.0422368
0.0422697
0.0422993
0.0423261
0.0423504
0.0423722
0.0423917
0.042409
0.0424247
0.0424389
0.0424517
0.0424631
0.0424734
0.0424824
0.0424902
0.042497
0.0425027
0.0425072
0.0425106
0.042513
0.0425146
0.0425153
0.0425151
0.0425142
0.0425128
0.0425107
0.0425081
0.0425051
0.0425016
0.0424978
0.0424938
0.0424894
0.0424849
0.0424802
0.0424752
0.0424702
0.0424649
0.0424596
0.0424545
0.0424493
0.0424442
0.0424393
0.0424345
0.04243
0.0424255
0.0424211
0.042417
0.0424129
0.0424091
0.0424053
0.0424017
0.0423981
0.0423946
0.0423911
0.0351987
0.0371382
0.0378385
0.0386664
0.0393061
0.0397596
0.0401359
0.0404244
0.0406558
0.0408421
0.0409982
0.0411321
0.0412527
0.0413642
0.0414687
0.0415675
0.0416612
0.0417495
0.0418312
0.0419052
0.0419707
0.0420278
0.0420772
0.04212
0.0421574
0.0421902
0.0422194
0.0422457
0.0422694
0.0422908
0.0423102
0.0423275
0.0423429
0.0423568
0.0423694
0.0423811
0.0423917
0.0424013
0.0424098
0.0424172
0.0424236
0.042429
0.0424336
0.0424373
0.0424404
0.0424427
0.0424443
0.0424451
0.0424451
0.0424446
0.0424435
0.042442
0.0424401
0.0424378
0.0424353
0.0424324
0.0424293
0.042426
0.0424225
0.042419
0.0424153
0.0424115
0.0424076
0.0424041
0.0424003
0.0423964
0.0423929
0.0423891
0.0423854
0.0423818
0.0423781
0.0423747
0.0423712
0.0423678
0.0423644
0.0423611
0.0423578
0.0423546
0.0423515
0.0359959
0.0372762
0.0379051
0.0387175
0.0393161
0.0397705
0.0401401
0.0404269
0.0406573
0.0408403
0.0409938
0.0411252
0.0412438
0.0413536
0.0414569
0.0415547
0.0416472
0.0417338
0.041813
0.0418835
0.0419448
0.0419972
0.0420421
0.0420808
0.0421144
0.0421439
0.04217
0.0421935
0.0422146
0.0422337
0.0422511
0.0422668
0.042281
0.042294
0.0423058
0.0423166
0.0423264
0.0423354
0.0423439
0.0423519
0.042359
0.0423652
0.0423702
0.0423743
0.0423775
0.0423801
0.0423822
0.0423837
0.0423847
0.0423852
0.0423851
0.0423849
0.0423842
0.0423833
0.0423819
0.0423803
0.0423783
0.0423762
0.0423739
0.0423714
0.0423689
0.0423662
0.0423633
0.0423608
0.042358
0.0423552
0.0423522
0.0423494
0.0423465
0.0423439
0.0423411
0.0423385
0.0423359
0.0423334
0.042331
0.0423288
0.0423267
0.0423248
0.042323
0.0366445
0.037473
0.0380497
0.0388596
0.0393821
0.0398028
0.04015
0.0404321
0.0406609
0.0408415
0.0409925
0.0411217
0.0412388
0.041347
0.0414486
0.0415447
0.0416352
0.0417191
0.0417947
0.0418609
0.0419175
0.0419655
0.0420063
0.0420413
0.0420717
0.0420984
0.0421222
0.0421436
0.0421628
0.0421802
0.042196
0.0422105
0.042224
0.0422365
0.0422481
0.0422588
0.0422687
0.0422779
0.0422862
0.0422938
0.0423007
0.0423073
0.0423135
0.0423193
0.0423242
0.0423283
0.0423315
0.042334
0.0423359
0.0423372
0.0423382
0.0423388
0.0423391
0.042339
0.0423387
0.0423382
0.0423374
0.0423364
0.0423353
0.0423341
0.0423326
0.0423311
0.0423294
0.042328
0.0423262
0.0423247
0.0423229
0.0423214
0.0423199
0.0423185
0.0423173
0.0423161
0.0423149
0.0423137
0.0423124
0.0423111
0.0423098
0.0423083
0.0423069
0.0371806
0.0377112
0.0382211
0.0390122
0.039452
0.0398389
0.040164
0.0404399
0.0406658
0.040844
0.0409935
0.0411209
0.0412369
0.0413438
0.0414439
0.0415376
0.0416251
0.041705
0.0417761
0.0418374
0.0418894
0.0419331
0.0419702
0.0420021
0.0420299
0.0420545
0.0420765
0.0420963
0.0421143
0.0421306
0.0421455
0.0421592
0.0421722
0.0421845
0.0421962
0.0422071
0.0422173
0.0422269
0.0422359
0.0422444
0.0422522
0.0422593
0.0422656
0.0422713
0.0422764
0.0422812
0.0422857
0.0422897
0.0422931
0.0422961
0.0422986
0.0423008
0.0423025
0.0423038
0.0423048
0.0423055
0.042306
0.0423062
0.0423062
0.0423061
0.0423058
0.0423053
0.0423048
0.0423042
0.0423036
0.042303
0.0423024
0.0423016
0.0423007
0.0422998
0.0422986
0.0422974
0.0422962
0.042295
0.0422938
0.0422927
0.0422915
0.0422904
0.0422893
0.0376283
0.0379605
0.0384182
0.0391875
0.0395392
0.0398857
0.0401838
0.0404496
0.0406708
0.0408471
0.0409962
0.0411227
0.0412377
0.0413433
0.0414417
0.0415328
0.0416165
0.0416917
0.0417576
0.0418137
0.041861
0.0419007
0.0419344
0.0419637
0.0419895
0.0420125
0.0420332
0.0420521
0.0420694
0.0420851
0.0420996
0.0421131
0.042126
0.0421383
0.0421501
0.0421613
0.0421719
0.0421821
0.0421917
0.0422009
0.0422095
0.0422176
0.0422251
0.0422321
0.0422383
0.0422441
0.0422491
0.0422538
0.0422579
0.0422618
0.0422653
0.0422684
0.0422713
0.0422737
0.0422759
0.0422778
0.0422794
0.0422808
0.042282
0.042283
0.0422838
0.0422844
0.0422849
0.0422852
0.0422855
0.0422856
0.0422857
0.0422857
0.0422856
0.0422853
0.042285
0.0422846
0.0422842
0.0422838
0.0422835
0.0422832
0.0422829
0.0422826
0.0422822
0.038005
0.0382108
0.0386265
0.0393655
0.0396329
0.0399397
0.040209
0.0404615
0.040676
0.0408504
0.0409995
0.0411263
0.0412415
0.0413456
0.0414419
0.0415299
0.0416092
0.0416791
0.0417392
0.0417901
0.0418327
0.0418687
0.0418997
0.0419268
0.0419511
0.041973
0.0419929
0.0420111
0.042028
0.0420437
0.0420582
0.0420719
0.0420849
0.0420976
0.0421098
0.0421215
0.0421326
0.0421433
0.0421536
0.0421634
0.0421727
0.0421815
0.0421899
0.0421979
0.0422056
0.0422125
0.0422189
0.0422248
0.0422301
0.0422349
0.0422394
0.0422434
0.0422471
0.0422504
0.0422535
0.0422562
0.0422588
0.042261
0.042263
0.0422648
0.0422663
0.0422676
0.0422688
0.0422698
0.0422707
0.0422714
0.0422719
0.0422724
0.0422728
0.042273
0.0422732
0.0422734
0.0422736
0.0422738
0.0422739
0.0422741
0.0422743
0.0422743
0.0422744
0.0383291
0.0384514
0.0388339
0.0395361
0.0397317
0.0400023
0.0402414
0.0404768
0.0406819
0.040854
0.041003
0.0411309
0.0412469
0.0413505
0.0414446
0.0415287
0.0416029
0.041667
0.0417213
0.0417669
0.0418052
0.0418379
0.0418665
0.0418919
0.041915
0.0419362
0.0419556
0.0419736
0.0419903
0.0420061
0.042021
0.0420351
0.0420486
0.0420617
0.0420745
0.0420869
0.0420989
0.0421103
0.0421213
0.0421318
0.0421418
0.0421513
0.0421605
0.0421693
0.0421776
0.0421855
0.042193
0.0421999
0.0422064
0.0422123
0.0422178
0.0422227
0.0422272
0.0422313
0.0422351
0.0422385
0.0422417
0.0422445
0.042247
0.0422493
0.0422514
0.0422533
0.0422551
0.0422566
0.042258
0.0422593
0.0422604
0.0422615
0.0422624
0.0422632
0.042264
0.0422648
0.0422654
0.042266
0.0422665
0.042267
0.0422673
0.0422677
0.0422679
0.038621
0.0386824
0.0390295
0.0396905
0.0398396
0.0400768
0.040283
0.0404973
0.04069
0.0408582
0.0410066
0.0411358
0.0412531
0.0413567
0.0414492
0.0415293
0.0415981
0.0416559
0.0417043
0.0417446
0.041779
0.0418088
0.0418353
0.0418594
0.0418817
0.0419023
0.0419216
0.0419394
0.0419563
0.0419723
0.0419877
0.0420024
0.0420165
0.0420303
0.0420437
0.042057
0.0420698
0.0420822
0.042094
0.0421053
0.0421162
0.0421267
0.0421367
0.0421462
0.0421552
0.0421638
0.0421718
0.0421793
0.0421864
0.0421931
0.0421993
0.042205
0.0422104
0.0422152
0.0422198
0.0422238
0.0422276
0.042231
0.0422341
0.042237
0.0422396
0.0422421
0.0422444
0.0422464
0.0422483
0.04225
0.0422515
0.042253
0.0422542
0.0422555
0.0422565
0.0422577
0.0422586
0.0422598
0.0422606
0.0422616
0.0422623
0.0422631
0.0422638
0.0388957
0.0389113
0.0392098
0.0398234
0.0399546
0.0401623
0.0403348
0.0405249
0.0407023
0.0408643
0.0410105
0.0411405
0.0412589
0.0413629
0.0414541
0.0415307
0.0415942
0.041646
0.0416886
0.0417241
0.0417547
0.0417819
0.0418067
0.0418297
0.0418513
0.0418716
0.0418907
0.0419087
0.0419258
0.0419422
0.0419581
0.0419734
0.0419883
0.0420028
0.0420171
0.0420312
0.042045
0.0420582
0.042071
0.0420833
0.0420953
0.0421067
0.0421175
0.0421278
0.0421375
0.0421467
0.0421553
0.0421634
0.042171
0.0421781
0.0421847
0.0421909
0.0421968
0.0422022
0.0422073
0.0422119
0.0422162
0.0422202
0.0422239
0.0422273
0.0422304
0.0422333
0.042236
0.0422385
0.0422406
0.0422429
0.0422448
0.0422469
0.0422486
0.0422506
0.0422522
0.0422538
0.0422552
0.0422566
0.0422578
0.0422589
0.0422599
0.0422608
0.0422615
0.0391597
0.0391385
0.0393819
0.0399283
0.0400731
0.0402496
0.0403926
0.0405592
0.0407201
0.0408739
0.0410159
0.0411454
0.0412641
0.0413682
0.0414582
0.0415316
0.0415905
0.041637
0.0416745
0.0417056
0.0417329
0.0417578
0.041781
0.041803
0.0418239
0.041844
0.0418631
0.0418813
0.0418988
0.0419156
0.0419321
0.0419481
0.0419638
0.0419791
0.0419943
0.0420093
0.0420239
0.0420381
0.0420518
0.0420652
0.042078
0.0420903
0.0421021
0.0421131
0.0421235
0.0421333
0.0421426
0.0421512
0.0421593
0.0421669
0.042174
0.0421806
0.0421868
0.0421925
0.0421979
0.0422029
0.0422076
0.042212
0.0422161
0.0422199
0.0422236
0.0422269
0.0422301
0.042233
0.0422357
0.0422382
0.0422405
0.0422427
0.0422447
0.0422465
0.0422482
0.0422497
0.0422512
0.0422524
0.0422536
0.0422547
0.0422557
0.0422567
0.0422576
0.0394132
0.0393682
0.0395631
0.0399971
0.040187
0.0403263
0.04045
0.0405979
0.0407435
0.0408878
0.0410238
0.0411509
0.0412684
0.0413719
0.0414602
0.0415308
0.041586
0.0416282
0.0416616
0.0416894
0.0417139
0.0417366
0.0417584
0.0417795
0.0417998
0.0418196
0.0418387
0.0418572
0.041875
0.0418924
0.0419095
0.0419263
0.0419428
0.041959
0.0419751
0.0419909
0.0420065
0.0420216
0.0420362
0.0420503
0.042064
0.042077
0.0420895
0.0421013
0.0421124
0.0421228
0.0421325
0.0421417
0.0421503
0.0421583
0.0421657
0.0421727
0.0421792
0.0421853
0.042191
0.0421963
0.0422013
0.042206
0.0422103
0.0422144
0.0422182
0.0422217
0.042225
0.042228
0.0422308
0.0422334
0.0422359
0.0422381
0.0422403
0.0422422
0.0422441
0.0422459
0.0422475
0.042249
0.0422504
0.0422517
0.042253
0.0422541
0.0422552
0.0396575
0.0395929
0.0397539
0.0400542
0.0402813
0.0403821
0.0405023
0.0406383
0.0407711
0.0409059
0.0410348
0.0411576
0.0412722
0.0413737
0.0414599
0.0415279
0.04158
0.0416192
0.0416498
0.0416751
0.0416975
0.0417185
0.041739
0.0417591
0.0417789
0.0417983
0.0418174
0.0418361
0.0418545
0.0418725
0.0418903
0.0419079
0.0419253
0.0419424
0.0419594
0.041976
0.0419923
0.0420082
0.0420237
0.0420385
0.0420527
0.0420664
0.0420794
0.0420917
0.0421032
0.0421142
0.0421244
0.042134
0.0421429
0.0421513
0.0421591
0.0421664
0.0421732
0.0421796
0.0421856
0.0421911
0.0421963
0.0422011
0.0422055
0.0422097
0.0422136
0.0422172
0.0422206
0.0422238
0.0422267
0.0422295
0.0422321
0.0422346
0.0422368
0.042239
0.042241
0.042243
0.0422448
0.0422465
0.0422481
0.0422495
0.0422509
0.0422522
0.0422535
0.0398896
0.0398043
0.0399406
0.0401224
0.0403571
0.0404288
0.0405525
0.0406792
0.0408017
0.0409275
0.0410488
0.0411659
0.0412757
0.0413738
0.0414569
0.0415222
0.0415721
0.0416094
0.0416385
0.0416624
0.0416834
0.0417031
0.0417225
0.0417418
0.041761
0.0417802
0.0417993
0.0418182
0.0418371
0.0418558
0.0418745
0.0418929
0.0419112
0.0419291
0.0419469
0.0419643
0.0419813
0.0419979
0.042014
0.0420294
0.0420441
0.0420581
0.0420714
0.042084
0.0420959
0.0421071
0.0421176
0.0421275
0.0421367
0.0421454
0.0421535
0.042161
0.042168
0.0421746
0.0421807
0.0421864
0.0421917
0.0421966
0.0422012
0.0422055
0.0422096
0.0422134
0.042217
0.0422203
0.0422234
0.0422264
0.0422291
0.0422317
0.0422342
0.0422365
0.0422386
0.0422407
0.0422426
0.0422444
0.0422462
0.0422477
0.0422492
0.0422506
0.042252
0.0401074
0.0400051
0.0401186
0.0401998
0.0404093
0.04048
0.0406053
0.0407211
0.0408351
0.0409523
0.0410659
0.041176
0.0412794
0.0413723
0.0414512
0.0415137
0.0415619
0.0415985
0.0416273
0.0416509
0.0416713
0.0416903
0.0417088
0.0417273
0.0417461
0.0417651
0.0417842
0.0418035
0.0418229
0.0418423
0.0418617
0.041881
0.0419001
0.0419188
0.0419373
0.0419553
0.041973
0.0419901
0.0420066
0.0420224
0.0420374
0.0420517
0.0420652
0.0420779
0.04209
0.0421013
0.0421119
0.0421219
0.0421313
0.0421401
0.0421483
0.042156
0.0421632
0.0421699
0.0421762
0.042182
0.0421875
0.0421926
0.0421974
0.0422018
0.042206
0.04221
0.0422137
0.0422172
0.0422205
0.0422235
0.0422264
0.0422291
0.0422317
0.0422341
0.0422364
0.0422385
0.0422406
0.0422425
0.0422442
0.0422459
0.0422475
0.042249
0.0422505
0.0403078
0.0401934
0.0402849
0.0402835
0.0404565
0.0405295
0.040655
0.0407629
0.0408711
0.0409804
0.0410862
0.0411884
0.0412839
0.0413699
0.0414432
0.0415025
0.0415495
0.0415864
0.0416158
0.0416399
0.0416606
0.0416794
0.0416975
0.0417157
0.0417341
0.041753
0.0417723
0.0417919
0.0418119
0.041832
0.0418521
0.0418721
0.0418919
0.0419113
0.0419304
0.041949
0.041967
0.0419844
0.0420012
0.0420172
0.0420324
0.0420468
0.0420603
0.0420732
0.0420852
0.0420965
0.0421072
0.0421172
0.0421266
0.0421354
0.0421437
0.0421515
0.0421588
0.0421656
0.042172
0.042178
0.0421836
0.0421889
0.0421938
0.0421985
0.0422028
0.0422069
0.0422108
0.0422144
0.0422178
0.042221
0.042224
0.0422269
0.0422296
0.0422322
0.0422346
0.0422369
0.042239
0.0422411
0.042243
0.0422448
0.0422465
0.0422482
0.0422498
0.040488
0.0403587
0.0404308
0.0403821
0.0405163
0.0405806
0.0407027
0.040805
0.0409094
0.0410118
0.0411099
0.0412034
0.0412899
0.0413673
0.0414338
0.0414893
0.0415352
0.0415727
0.0416035
0.0416289
0.0416507
0.0416701
0.0416884
0.0417066
0.041725
0.0417439
0.0417635
0.0417835
0.041804
0.0418247
0.0418454
0.041866
0.0418863
0.0419063
0.0419258
0.0419447
0.041963
0.0419806
0.0419974
0.0420134
0.0420286
0.0420429
0.0420565
0.0420693
0.0420813
0.0420926
0.0421032
0.0421132
0.0421225
0.0421313
0.0421396
0.0421473
0.0421547
0.0421616
0.0421681
0.0421742
0.0421799
0.0421854
0.0421905
0.0421953
0.0421998
0.042204
0.042208
0.0422118
0.0422154
0.0422188
0.042222
0.042225
0.0422278
0.0422305
0.0422331
0.0422355
0.0422377
0.0422398
0.0422418
0.0422437
0.0422455
0.0422472
0.0422488
0.0406483
0.0405052
0.0405626
0.0404909
0.0405894
0.0406374
0.0407493
0.040846
0.0409483
0.0410456
0.0411368
0.0412216
0.0412981
0.0413657
0.0414244
0.0414754
0.0415197
0.0415577
0.04159
0.0416174
0.0416408
0.0416616
0.0416809
0.0416997
0.0417185
0.0417379
0.0417579
0.0417785
0.0417995
0.0418207
0.0418419
0.0418629
0.0418836
0.0419039
0.0419236
0.0419426
0.0419609
0.0419783
0.041995
0.0420108
0.0420258
0.04204
0.0420535
0.0420661
0.042078
0.0420892
0.0420997
0.0421096
0.0421189
0.0421276
0.0421359
0.0421436
0.0421509
0.0421578
0.0421643
0.0421705
0.0421763
0.0421818
0.042187
0.0421919
0.0421965
0.0422009
0.042205
0.0422089
0.0422126
0.0422161
0.0422193
0.0422224
0.0422253
0.0422281
0.0422307
0.0422331
0.0422354
0.0422376
0.0422396
0.0422415
0.0422434
0.0422451
0.0422469
0.0407929
0.0406398
0.0406866
0.0406029
0.0406679
0.0406983
0.0407974
0.0408859
0.040986
0.0410801
0.0411658
0.0412422
0.0413087
0.0413659
0.0414163
0.041462
0.041504
0.0415419
0.0415756
0.0416049
0.0416305
0.0416534
0.0416744
0.0416945
0.0417144
0.0417348
0.0417555
0.0417767
0.0417981
0.0418196
0.041841
0.0418622
0.041883
0.0419033
0.0419229
0.0419418
0.0419599
0.0419772
0.0419936
0.0420092
0.042024
0.0420379
0.0420511
0.0420635
0.0420753
0.0420863
0.0420967
0.0421065
0.0421157
0.0421244
0.0421326
0.0421404
0.0421477
0.0421545
0.0421611
0.0421672
0.042173
0.0421785
0.0421838
0.0421887
0.0421933
0.0421978
0.0422019
0.0422058
0.0422096
0.0422131
0.0422164
0.0422195
0.0422225
0.0422253
0.0422279
0.0422304
0.0422327
0.042235
0.042237
0.0422391
0.042241
0.0422429
0.0422447
0.0409238
0.0407649
0.0408045
0.0407146
0.0407492
0.0407632
0.0408472
0.0409255
0.0410219
0.0411137
0.0411952
0.0412643
0.0413214
0.0413686
0.0414109
0.0414506
0.0414893
0.0415261
0.0415604
0.0415916
0.0416196
0.041645
0.0416684
0.0416906
0.0417123
0.041734
0.0417556
0.0417774
0.0417991
0.0418208
0.0418421
0.0418633
0.0418839
0.0419039
0.0419233
0.0419419
0.0419597
0.0419767
0.0419929
0.0420082
0.0420227
0.0420364
0.0420493
0.0420615
0.042073
0.0420839
0.0420941
0.0421038
0.042113
0.0421216
0.0421297
0.0421374
0.0421447
0.0421515
0.042158
0.0421641
0.0421698
0.0421753
0.0421805
0.0421854
0.04219
0.0421943
0.0421985
0.0422024
0.0422061
0.0422096
0.0422129
0.0422161
0.0422191
0.042222
0.0422247
0.0422272
0.0422296
0.0422319
0.0422341
0.0422361
0.0422381
0.0422401
0.042242
0.0410403
0.0408806
0.0409187
0.0408269
0.040834
0.0408315
0.0408979
0.0409649
0.0410557
0.041145
0.0412232
0.0412862
0.0413351
0.0413737
0.0414084
0.041442
0.0414766
0.0415113
0.0415454
0.0415778
0.0416081
0.0416362
0.0416625
0.0416876
0.0417115
0.0417348
0.0417575
0.0417801
0.0418023
0.0418241
0.0418455
0.0418663
0.0418866
0.0419062
0.0419251
0.0419432
0.0419606
0.0419771
0.0419929
0.0420078
0.0420219
0.0420353
0.0420479
0.0420599
0.0420712
0.0420818
0.0420919
0.0421014
0.0421104
0.0421189
0.042127
0.0421346
0.0421417
0.0421485
0.0421549
0.0421609
0.0421666
0.042172
0.0421771
0.0421819
0.0421865
0.0421908
0.0421949
0.0421988
0.0422024
0.0422059
0.0422092
0.0422124
0.0422154
0.0422182
0.0422209
0.0422234
0.0422258
0.0422281
0.0422303
0.0422324
0.0422344
0.0422364
0.0422384
0.0411435
0.0409878
0.0410338
0.0409409
0.0409184
0.0409031
0.0409524
0.0410055
0.041088
0.0411737
0.0412489
0.0413067
0.041349
0.0413805
0.0414086
0.0414365
0.0414667
0.0414984
0.0415313
0.0415642
0.0415964
0.0416273
0.0416567
0.0416848
0.0417113
0.0417367
0.0417611
0.0417846
0.0418073
0.0418293
0.0418505
0.041871
0.0418907
0.0419098
0.041928
0.0419456
0.0419623
0.0419783
0.0419936
0.042008
0.0420218
0.0420348
0.0420471
0.0420587
0.0420697
0.0420801
0.04209
0.0420993
0.0421081
0.0421165
0.0421244
0.0421318
0.0421389
0.0421456
0.0421519
0.0421579
0.0421635
0.0421689
0.0421739
0.0421787
0.0421832
0.0421875
0.0421916
0.0421954
0.0421991
0.0422026
0.0422058
0.042209
0.0422119
0.0422147
0.0422173
0.0422198
0.0422222
0.0422245
0.0422266
0.0422287
0.0422308
0.0422328
0.0422349
0.0412371
0.0410885
0.0411472
0.0410554
0.0410015
0.0409779
0.0410113
0.0410483
0.0411192
0.0411994
0.0412713
0.0413248
0.0413621
0.0413883
0.041411
0.0414342
0.0414598
0.0414881
0.0415191
0.0415519
0.0415853
0.0416186
0.041651
0.0416821
0.0417114
0.0417393
0.0417654
0.0417902
0.0418135
0.0418357
0.0418568
0.0418769
0.0418962
0.0419146
0.0419322
0.041949
0.0419651
0.0419805
0.0419952
0.0420091
0.0420224
0.0420349
0.0420468
0.0420581
0.0420687
0.0420788
0.0420884
0.0420975
0.0421061
0.0421142
0.0421219
0.0421291
0.042136
0.0421425
0.0421487
0.0421546
0.0421601
0.0421653
0.0421703
0.042175
0.0421794
0.0421836
0.0421876
0.0421914
0.042195
0.0421984
0.0422016
0.0422046
0.0422075
0.0422103
0.0422129
0.0422154
0.0422178
0.0422201
0.0422223
0.0422245
0.0422267
0.0422289
0.042231
0.0413239
0.0411836
0.0412536
0.0411675
0.0410861
0.041057
0.0410741
0.0410943
0.0411504
0.0412226
0.0412904
0.0413403
0.0413741
0.0413968
0.0414157
0.0414346
0.041456
0.0414808
0.0415095
0.0415415
0.0415756
0.0416107
0.0416456
0.0416795
0.0417117
0.0417419
0.0417699
0.041796
0.0418201
0.0418427
0.0418638
0.0418837
0.0419025
0.0419203
0.0419372
0.0419533
0.0419687
0.0419834
0.0419974
0.0420108
0.0420235
0.0420356
0.0420471
0.0420579
0.0420683
0.042078
0.0420873
0.042096
0.0421044
0.0421122
0.0421196
0.0421266
0.0421333
0.0421396
0.0421457
0.0421513
0.0421567
0.0421618
0.0421666
0.0421712
0.0421755
0.0421796
0.0421836
0.0421873
0.0421908
0.0421942
0.0421975
0.0422006
0.0422036
0.0422064
0.0422091
0.0422117
0.0422142
0.0422167
0.042219
0.0422213
0.0422235
0.0422257
0.0422277
0.0414057
0.0412735
0.0413513
0.0412758
0.0411742
0.0411408
0.0411398
0.0411433
0.0411823
0.0412437
0.0413062
0.0413529
0.0413843
0.041405
0.0414211
0.0414367
0.0414549
0.0414767
0.041503
0.0415338
0.041568
0.0416043
0.0416411
0.0416774
0.0417119
0.0417443
0.0417742
0.0418016
0.0418267
0.0418498
0.0418711
0.0418908
0.0419092
0.0419265
0.0419428
0.0419583
0.041973
0.041987
0.0420004
0.0420132
0.0420253
0.0420369
0.0420479
0.0420583
0.0420682
0.0420776
0.0420865
0.042095
0.0421029
0.0421105
0.0421176
0.0421245
0.042131
0.0421371
0.0421429
0.0421485
0.0421537
0.0421587
0.0421635
0.0421681
0.0421725
0.0421768
0.0421809
0.0421848
0.0421885
0.042192
0.0421954
0.0421985
0.0422014
0.0422041
0.0422067
0.0422091
0.0422114
0.0422137
0.042216
0.0422182
0.0422204
0.0422224
0.0422243
0.041484
0.041359
0.041441
0.0413807
0.0412674
0.0412273
0.0412052
0.0411954
0.0412172
0.0412639
0.0413192
0.0413626
0.0413927
0.0414124
0.0414269
0.0414404
0.0414559
0.0414755
0.0415
0.0415295
0.0415633
0.0416001
0.0416381
0.041676
0.0417124
0.0417465
0.041778
0.0418067
0.0418327
0.0418564
0.041878
0.0418977
0.0419159
0.0419329
0.0419487
0.0419637
0.0419778
0.0419912
0.042004
0.0420161
0.0420277
0.0420387
0.0420492
0.0420592
0.0420687
0.0420777
0.0420862
0.0420943
0.0421019
0.0421093
0.0421162
0.0421229
0.0421292
0.0421352
0.0421408
0.0421462
0.0421514
0.0421564
0.0421612
0.0421658
0.0421701
0.0421741
0.0421779
0.0421815
0.0421848
0.042188
0.0421909
0.0421938
0.0421965
0.0421992
0.0422017
0.0422042
0.0422067
0.0422092
0.0422116
0.042214
0.0422164
0.0422184
0.0422202
0.0415594
0.0414407
0.0415239
0.0414832
0.0413647
0.0413132
0.0412692
0.0412489
0.0412565
0.0412846
0.0413301
0.0413695
0.0413988
0.0414185
0.0414325
0.0414449
0.0414588
0.0414768
0.0415
0.0415287
0.041562
0.0415988
0.0416372
0.0416759
0.0417132
0.0417486
0.0417812
0.041811
0.0418378
0.0418621
0.0418841
0.041904
0.0419222
0.041939
0.0419546
0.0419692
0.0419828
0.0419957
0.0420079
0.0420195
0.0420305
0.042041
0.042051
0.0420604
0.0420695
0.0420781
0.0420863
0.042094
0.0421015
0.0421086
0.0421154
0.0421218
0.0421279
0.0421337
0.0421392
0.0421445
0.0421496
0.0421545
0.042159
0.0421634
0.0421674
0.0421712
0.0421748
0.0421783
0.0421816
0.0421848
0.0421878
0.0421908
0.0421936
0.0421963
0.042199
0.0422016
0.0422041
0.0422066
0.042209
0.0422112
0.0422132
0.0422149
0.042216
0.0416324
0.0415194
0.0416023
0.0415842
0.0414638
0.0413943
0.0413328
0.041303
0.0412988
0.0413075
0.0413404
0.0413745
0.041403
0.0414231
0.0414373
0.0414495
0.0414629
0.0414802
0.0415026
0.0415307
0.0415636
0.0416
0.0416383
0.0416771
0.0417148
0.0417507
0.041784
0.0418145
0.041842
0.0418668
0.0418892
0.0419095
0.0419279
0.0419447
0.0419601
0.0419744
0.0419877
0.0420002
0.042012
0.042023
0.0420336
0.0420435
0.042053
0.0420621
0.0420707
0.0420789
0.0420868
0.0420943
0.0421015
0.0421084
0.042115
0.0421212
0.0421271
0.0421328
0.0421382
0.0421433
0.0421482
0.0421529
0.0421573
0.0421615
0.0421654
0.0421692
0.0421729
0.0421764
0.0421798
0.042183
0.042186
0.0421889
0.0421916
0.0421942
0.0421968
0.0421994
0.0422019
0.0422044
0.0422067
0.0422088
0.0422105
0.0422116
0.0422125
0.0417027
0.0415954
0.0416779
0.0416799
0.04157
0.0414686
0.041396
0.0413559
0.0413406
0.041333