/*--------------------------------*- C++ -*----------------------------------*\
| =========                 |                                                 |
| \\      /  F ield         | OpenFOAM: The Open Source CFD Toolbox           |
|  \\    /   O peration     | Version:  2412                                  |
|   \\  /    A nd           | Website:  www.openfoam.com                      |
|    \\/     M anipulation  |                                                 |
\*---------------------------------------------------------------------------*/
FoamFile
{
    version     2.0;
    format      ascii;
    arch        "LSB;label=32;scalar=64";
    class       volScalarField;
    location    "0.024";
    object      p;
}
// * * * * * * * * * * * * * * * * * * * * * * * * * * * * * * * * * * * * * //

dimensions      [1 -1 -2 0 0 0 0];

internalField   nonuniform List<scalar> 
9771
(
1927.85
2406.22
2529.7
2567.77
2589.11
2605.21
2618.79
2632.09
2649.07
2673.12
1922.87
2405.06
2529.46
2567.56
2588.91
2605.03
2618.6
2631.9
2648.9
2672.99
1917.66
2403.95
2529.22
2567.35
2588.72
2604.85
2618.42
2631.72
2648.73
2672.86
1912.12
2402.92
2528.99
2567.14
2588.53
2604.67
2618.23
2631.53
2648.56
2672.73
1906.23
2401.94
2528.76
2566.94
2588.35
2604.5
2618.05
2631.34
2648.39
2672.59
1899.97
2401.03
2528.53
2566.73
2588.16
2604.32
2617.87
2631.15
2648.22
2672.46
1893.16
2400.2
2528.3
2566.53
2587.97
2604.14
2617.68
2630.96
2648.05
2672.32
2705.19
2737.35
2763.17
2782.9
2799.39
2815.72
2831.5
2845.39
2856.29
2864.42
2870.92
2876.46
2881.29
2885.68
2889.05
2891.6
2893.83
2896.08
2898.38
2900.72
2903.08
2905.45
1885.94
2399.45
2528.08
2566.32
2587.78
2603.96
2617.49
2630.77
2647.87
2672.19
2705.07
2737.16
2762.93
2782.59
2799.06
2815.39
2831.15
2845.02
2855.92
2864.08
2870.64
2876.23
2881.09
2885.5
2888.88
2891.45
2893.69
2895.95
2898.23
2900.55
2902.89
2905.24
2907.59
2910.02
2912.57
2915.2
2917.8
2920.34
1877.7
2398.79
2527.85
2566.11
2587.59
2603.77
2617.31
2630.58
2647.7
2672.06
2704.94
2736.96
2762.7
2782.28
2798.72
2815.05
2830.8
2844.65
2855.55
2863.74
2870.35
2876.01
2880.89
2885.32
2888.71
2891.3
2893.56
2895.81
2898.08
2900.38
2902.7
2905.02
2907.35
2909.75
2912.27
2914.88
2917.45
2919.97
2922.55
1868.76
2398.27
2527.64
2565.91
2587.39
2603.59
2617.12
2630.39
2647.52
2671.92
2704.81
2736.76
2762.47
2781.96
2798.38
2814.71
2830.44
2844.28
2855.17
2863.39
2870.06
2875.77
2880.67
2885.13
2888.54
2891.15
2893.42
2895.67
2897.93
2900.21
2902.5
2904.8
2907.1
2909.48
2911.97
2914.55
2917.1
2919.6
2922.14
1861.31
2398.01
2527.45
2565.7
2587.2
2603.41
2616.93
2630.2
2647.35
2671.8
2704.69
2736.56
2762.24
2781.66
2798.05
2814.37
2830.09
2843.9
2854.79
2863.04
2869.76
2875.54
2880.46
2884.93
2888.36
2890.99
2893.27
2895.52
2897.78
2900.03
2902.3
2904.58
2906.86
2909.21
2911.67
2914.22
2916.75
2919.22
2921.73
1856.16
2415.42
2523.14
2559.15
2581.91
2598.94
2612.88
2626.62
2644.43
2670.02
2702.93
2733.68
2758.58
2777.11
2793.29
2809.59
2825.23
2838.94
2849.91
2858.55
2865.86
2872.34
2877.66
2882.43
2886.1
2888.98
2891.45
2893.76
2895.94
2898.04
2900.11
2902.17
2904.22
2906.31
2908.5
2910.79
2913.08
2915.32
2917.55
2919.86
2922.28
2924.72
2927.03
2929.18
2931.25
2933.33
2935.49
2937.72
2940.01
2942.31
2944.62
2946.94
2949.27
2951.62
2953.98
2956.33
2958.67
2960.98
2963.26
2965.5
2967.67
2969.76
2971.75
2973.64
2975.44
2977.13
2978.7
2980.17
2981.51
2982.72
2983.81
2984.78
2985.62
2986.34
2986.93
2987.39
2987.71
2987.91
2988
1986.93
2463.09
2516.91
2547.79
2572.4
2590.73
2605.42
2620.12
2639.38
2667.31
2700.17
2728.63
2751.82
2768.62
2784.38
2800.61
2816.07
2829.53
2840.67
2850.04
2858.46
2866.19
2872.27
2877.57
2881.71
2885.06
2887.88
2890.29
2892.34
2894.15
2895.83
2897.47
2899.07
2900.69
2902.36
2904.11
2905.92
2907.72
2909.44
2911.1
2912.78
2914.49
2916.16
2917.69
2919.09
2920.36
2921.54
2922.64
2923.7
2924.71
2925.67
2926.57
2927.38
2928.09
2928.68
2929.17
2929.56
2929.86
2930.06
2930.14
2930.07
2929.86
2929.52
2929.06
2928.5
2927.83
2927.05
2926.18
2925.2
2924.15
2923.01
2921.81
2920.54
2919.22
2917.84
2916.41
2914.94
2913.43
2911.89
2076.6
2476.71
2508.38
2538.9
2564.14
2583.06
2598.65
2614.73
2635.78
2665.8
2697.76
2723.58
2744.44
2759.81
2775.16
2791.17
2806.35
2819.53
2830.82
2840.83
2850.15
2858.81
2866.09
2871.75
2876.45
2880.35
2883.55
2886.12
2888.1
2889.69
2891.04
2892.27
2893.45
2894.61
2895.78
2896.96
2898.18
2899.42
2900.59
2901.64
2902.58
2903.48
2904.35
2905.14
2905.79
2906.29
2906.64
2906.87
2907.02
2907.08
2907.08
2906.98
2906.76
2906.41
2905.94
2905.36
2904.7
2903.96
2903.14
2902.22
2901.2
2900.09
2898.9
2897.65
2896.34
2894.97
2893.56
2892.1
2890.62
2889.12
2887.6
2886.08
2884.56
2883.04
2881.53
2880.03
2878.54
2877.09
2875.65
2149.9
2482.8
2505.02
2533.23
2556.85
2575.84
2592.39
2610.11
2633.25
2664.83
2695.24
2718.68
2736.9
2751.27
2766.35
2782
2796.76
2809.63
2821.02
2831.49
2841.45
2850.74
2858.94
2865.36
2870.5
2874.94
2878.52
2881.26
2883.28
2884.76
2885.88
2886.8
2887.6
2888.36
2889.07
2889.71
2890.3
2890.9
2891.49
2892
2892.35
2892.59
2892.75
2892.84
2892.82
2892.67
2892.37
2891.95
2891.45
2890.89
2890.27
2889.55
2888.73
2887.8
2886.78
2885.69
2884.55
2883.35
2882.09
2880.8
2879.45
2878.06
2876.65
2875.21
2873.76
2872.29
2870.82
2869.35
2867.89
2866.45
2865.02
2863.63
2862.26
2860.92
2859.61
2858.34
2857.09
2855.88
2854.72
2211.58
2482.98
2504.88
2529.45
2550.71
2569.4
2586.76
2606.17
2631.62
2663.94
2692.33
2713.71
2729.38
2742.92
2757.68
2772.81
2787.02
2799.62
2811.13
2821.99
2832.41
2842.13
2850.88
2858.36
2863.95
2868.89
2872.81
2875.78
2877.92
2879.4
2880.4
2881.1
2881.61
2882.01
2882.32
2882.5
2882.56
2882.58
2882.57
2882.55
2882.44
2882.21
2881.86
2881.43
2880.92
2880.3
2879.55
2878.71
2877.79
2876.84
2875.84
2874.77
2873.64
2872.44
2871.2
2869.91
2868.59
2867.24
2865.88
2864.49
2863.1
2861.7
2860.3
2858.91
2857.53
2856.16
2854.82
2853.49
2852.19
2850.92
2849.67
2848.47
2847.29
2846.15
2845.05
2843.99
2842.96
2841.98
2841.02
2267.73
2482.24
2504.97
2526.55
2545.88
2563.84
2581.86
2602.83
2630.63
2662.86
2688.94
2708.56
2722.05
2734.92
2749.29
2763.82
2777.46
2789.78
2801.35
2812.45
2823.14
2833.15
2842.26
2850.38
2857.05
2862.3
2866.54
2869.77
2872.1
2873.68
2874.69
2875.28
2875.59
2875.7
2875.67
2875.51
2875.2
2874.76
2874.25
2873.74
2873.2
2872.59
2871.89
2871.12
2870.28
2869.36
2868.36
2867.29
2866.16
2864.99
2863.78
2862.53
2861.25
2859.94
2858.61
2857.27
2855.92
2854.58
2853.23
2851.89
2850.56
2849.25
2847.95
2846.68
2845.44
2844.22
2843.04
2841.89
2840.76
2839.68
2838.62
2837.61
2836.63
2835.69
2834.78
2833.9
2833.06
2832.24
2831.45
2319.26
2479.64
2503.9
2524.34
2542.29
2559.21
2577.82
2600.09
2629.97
2661.45
2685.24
2703.01
2714.94
2727.25
2741.15
2755.05
2768.08
2780.1
2791.64
2802.86
2813.72
2823.93
2833.32
2841.86
2849.39
2855.28
2859.88
2863.39
2865.96
2867.73
2868.82
2869.39
2869.58
2869.51
2869.25
2868.83
2868.24
2867.52
2866.69
2865.82
2864.94
2864.02
2863.05
2862.02
2860.96
2859.86
2858.71
2857.52
2856.29
2855.02
2853.73
2852.43
2851.11
2849.79
2848.47
2847.16
2845.86
2844.57
2843.31
2842.07
2840.85
2839.66
2838.5
2837.37
2836.26
2835.2
2834.16
2833.16
2832.19
2831.25
2830.34
2829.47
2828.62
2827.8
2827.02
2826.25
2825.52
2824.81
2824.14
2364.72
2479.97
2500.46
2521.54
2539.2
2555.38
2574.68
2598.03
2629.42
2659.63
2681.41
2697.09
2708.03
2719.92
2733.28
2746.51
2758.93
2770.6
2782.03
2793.29
2804.25
2814.63
2824.26
2833.07
2841.01
2847.77
2852.92
2856.78
2859.64
2861.63
2862.86
2863.49
2863.65
2863.48
2863.09
2862.5
2861.74
2860.85
2859.84
2858.78
2857.68
2856.55
2855.39
2854.21
2853
2851.79
2850.57
2849.33
2848.07
2846.78
2845.5
2844.21
2842.92
2841.66
2840.4
2839.17
2837.95
2836.76
2835.58
2834.44
2833.31
2832.23
2831.16
2830.14
2829.14
2828.19
2827.26
2826.37
2825.5
2824.68
2823.88
2823.11
2822.37
2821.66
2820.98
2820.33
2819.7
2819.1
2818.53
2401.42
2483.43
2498.84
2520.02
2536.66
2552.28
2572.31
2596.65
2628.81
2657.3
2677.49
2691.04
2701.32
2712.88
2725.66
2738.2
2750.02
2761.33
2772.57
2783.8
2794.81
2805.33
2815.15
2824.18
2832.36
2839.62
2845.58
2849.98
2853.19
2855.46
2856.91
2857.67
2857.86
2857.66
2857.23
2856.56
2855.71
2854.72
2853.65
2852.5
2851.3
2850.06
2848.8
2847.53
2846.26
2845
2843.75
2842.5
2841.25
2839.99
2838.76
2837.53
2836.32
2835.14
2833.97
2832.82
2831.68
2830.58
2829.49
2828.44
2827.41
2826.43
2825.47
2824.56
2823.67
2822.82
2822
2821.21
2820.45
2819.72
2819.01
2818.33
2817.68
2817.05
2816.45
2815.87
2815.31
2814.77
2814.26
2430.34
2487.9
2498.6
2519.51
2534.66
2549.93
2570.6
2595.92
2628.09
2654.57
2673.42
2685.02
2694.81
2706.07
2718.27
2730.14
2741.4
2752.33
2763.31
2774.43
2785.44
2796.05
2806.03
2815.25
2823.64
2831.17
2837.71
2842.9
2846.64
2849.26
2851
2851.98
2852.29
2852.11
2851.69
2851.02
2850.14
2849.13
2848.03
2846.86
2845.63
2844.38
2843.1
2841.82
2840.55
2839.28
2838.03
2836.78
2835.55
2834.34
2833.16
2832
2830.86
2829.75
2828.65
2827.59
2826.53
2825.52
2824.52
2823.56
2822.62
2821.73
2820.86
2820.02
2819.21
2818.42
2817.67
2816.94
2816.24
2815.56
2814.91
2814.29
2813.69
2813.12
2812.57
2812.05
2811.56
2811.08
2810.63
2453.27
2493.33
2499.92
2520.28
2533.15
2548.27
2569.42
2595.73
2627.26
2651.69
2669.08
2679.11
2688.51
2699.47
2711.1
2722.34
2733.07
2743.62
2754.29
2765.24
2776.2
2786.86
2796.96
2806.35
2814.93
2822.66
2829.53
2835.41
2839.89
2843.02
2845.14
2846.44
2846.95
2846.87
2846.51
2845.89
2845.05
2844.05
2842.95
2841.78
2840.56
2839.32
2838.07
2836.81
2835.56
2834.32
2833.09
2831.88
2830.71
2829.55
2828.43
2827.33
2826.23
2825.17
2824.12
2823.1
2822.11
2821.15
2820.22
2819.33
2818.46
2817.63
2816.84
2816.07
2815.33
2814.62
2813.95
2813.3
2812.68
2812.08
2811.52
2810.98
2810.46
2809.97
2809.51
2809.06
2808.63
2808.23
2807.84
2471.16
2498.82
2502.44
2522.34
2532.5
2547.41
2568.79
2595.86
2626.22
2648.93
2664.45
2673.36
2682.43
2693.06
2704.15
2714.81
2725.03
2735.18
2745.53
2756.26
2767.12
2777.8
2787.98
2797.51
2806.28
2814.22
2821.34
2827.62
2832.82
2836.65
2839.3
2840.99
2841.78
2841.9
2841.66
2841.15
2840.39
2839.46
2838.39
2837.24
2836.04
2834.82
2833.58
2832.34
2831.1
2829.88
2828.68
2827.52
2826.38
2825.27
2824.19
2823.14
2822.1
2821.11
2820.14
2819.21
2818.3
2817.44
2816.61
2815.81
2815.04
2814.29
2813.58
2812.89
2812.23
2811.6
2810.99
2810.4
2809.84
2809.31
2808.79
2808.3
2807.83
2807.38
2806.95
2806.54
2806.15
2805.77
2805.41
2485.14
2503.94
2505.4
2524.74
2532.39
2547.2
2568.67
2596.21
2625.07
2646.22
2659.71
2667.83
2676.59
2686.85
2697.42
2707.53
2717.28
2727.03
2737.03
2747.53
2758.25
2768.9
2779.14
2788.78
2797.72
2805.89
2813.26
2819.83
2825.51
2830.06
2833.37
2835.56
2836.76
2837.15
2837.04
2836.7
2836.1
2835.28
2834.3
2833.22
2832.06
2830.86
2829.64
2828.42
2827.21
2826.02
2824.87
2823.75
2822.65
2821.6
2820.58
2819.59
2818.63
2817.71
2816.81
2815.95
2815.12
2814.32
2813.55
2812.8
2812.09
2811.4
2810.74
2810.11
2809.5
2808.91
2808.36
2807.82
2807.31
2806.82
2806.36
2805.91
2805.49
2805.08
2804.69
2804.31
2803.95
2803.61
2803.28
2496.05
2508.57
2508.58
2527.21
2532.95
2547.57
2568.95
2596.69
2623.84
2643.52
2654.99
2662.54
2671.02
2680.88
2690.92
2700.51
2709.8
2719.16
2728.83
2739.06
2749.61
2760.19
2770.44
2780.18
2789.28
2797.68
2805.32
2812.16
2818.18
2823.27
2827.29
2830.13
2831.83
2832.54
2832.65
2832.46
2832.05
2831.41
2830.58
2829.61
2828.54
2827.4
2826.23
2825.06
2823.9
2822.75
2821.64
2820.56
2819.52
2818.53
2817.57
2816.65
2815.75
2814.89
2814.06
2813.26
2812.48
2811.74
2811.02
2810.32
2809.66
2809.01
2808.4
2807.8
2807.24
2806.69
2806.17
2805.67
2805.19
2804.74
2804.3
2803.88
2803.48
2803.09
2802.73
2802.38
2802.04
2801.72
2801.42
2504.63
2512.69
2511.63
2529.38
2534.3
2548.6
2569.62
2597.25
2622.5
2640.84
2650.39
2657.47
2665.7
2675.14
2684.65
2693.74
2702.61
2711.59
2720.92
2730.87
2741.22
2751.68
2761.91
2771.71
2780.96
2789.58
2797.49
2804.63
2810.97
2816.48
2821.07
2824.6
2826.93
2828.1
2828.47
2828.43
2828.2
2827.75
2827.1
2826.29
2825.35
2824.33
2823.25
2822.15
2821.04
2819.94
2818.86
2817.83
2816.84
2815.88
2814.96
2814.07
2813.21
2812.39
2811.6
2810.84
2810.12
2809.42
2808.76
2808.11
2807.49
2806.9
2806.33
2805.78
2805.25
2804.74
2804.25
2803.79
2803.34
2802.92
2802.51
2802.11
2801.74
2801.38
2801.04
2800.71
2800.4
2800.1
2799.82
2511.44
2516.28
2514.45
2531.2
2536.2
2550.23
2570.64
2597.84
2621.25
2638.03
2646
2652.64
2660.63
2669.64
2678.63
2687.24
2695.7
2704.31
2713.3
2722.96
2733.08
2743.39
2753.59
2763.44
2772.81
2781.63
2789.8
2797.24
2803.89
2809.76
2814.81
2818.95
2821.99
2823.76
2824.5
2824.66
2824.56
2824.29
2823.82
2823.17
2822.39
2821.5
2820.54
2819.53
2818.48
2817.44
2816.42
2815.44
2814.47
2813.53
2812.62
2811.75
2810.93
2810.16
2809.42
2808.7
2808.01
2807.33
2806.68
2806.05
2805.45
2804.87
2804.33
2803.81
2803.31
2802.83
2802.38
2801.94
2801.52
2801.12
2800.74
2800.38
2800.04
2799.71
2799.4
2799.1
2798.82
2798.55
2798.29
2516.86
2519.35
2517.26
2532.78
2538.27
2552.05
2571.82
2598.41
2620.11
2635.12
2641.82
2648.05
2655.78
2664.37
2672.85
2681
2689.07
2697.32
2705.97
2715.32
2725.19
2735.34
2745.47
2755.35
2764.83
2773.81
2782.21
2789.93
2796.91
2803.12
2808.57
2813.2
2816.9
2819.4
2820.7
2821.14
2821.17
2821.04
2820.72
2820.24
2819.61
2818.86
2818.01
2817.09
2816.14
2815.17
2814.21
2813.25
2812.3
2811.38
2810.5
2809.68
2808.91
2808.16
2807.45
2806.74
2806.07
2805.43
2804.82
2804.24
2803.7
2803.19
2802.7
2802.23
2801.78
2801.35
2800.93
2800.52
2800.13
2799.75
2799.39
2799.04
2798.7
2798.39
2798.08
2797.8
2797.52
2797.26
2797.01
2521.03
2522.03
2520.17
2534.31
2540.25
2553.75
2573.09
2598.89
2619.02
2632.22
2637.87
2643.68
2651.15
2659.32
2667.3
2675.01
2682.71
2690.61
2698.93
2707.96
2717.55
2727.53
2737.57
2747.45
2757.03
2766.19
2774.8
2782.8
2790.07
2796.61
2802.39
2807.43
2811.66
2814.89
2816.89
2817.79
2818.03
2818
2817.82
2817.49
2817.01
2816.4
2815.66
2814.85
2813.99
2813.11
2812.19
2811.25
2810.34
2809.47
2808.66
2807.89
2807.14
2806.39
2805.67
2804.97
2804.32
2803.73
2803.18
2802.67
2802.18
2801.69
2801.21
2800.75
2800.29
2799.86
2799.44
2799.04
2798.66
2798.31
2797.98
2797.67
2797.39
2797.12
2796.86
2796.61
2796.37
2796.14
2795.92
2524.3
2524.46
2523.03
2535.74
2542.08
2555.24
2574.4
2599.23
2617.92
2629.4
2634.13
2639.54
2646.72
2654.47
2661.96
2669.26
2676.6
2684.18
2692.17
2700.85
2710.17
2719.98
2729.93
2739.78
2749.42
2758.73
2767.58
2775.82
2783.4
2790.25
2796.34
2801.71
2806.35
2810.18
2812.93
2814.46
2815.05
2815.17
2815.1
2814.92
2814.58
2814.1
2813.48
2812.78
2812.02
2811.21
2810.34
2809.47
2808.63
2807.83
2807.07
2806.31
2805.55
2804.81
2804.11
2803.45
2802.85
2802.29
2801.77
2801.26
2800.76
2800.25
2799.76
2799.29
2798.83
2798.41
2798
2797.63
2797.27
2796.95
2796.66
2796.39
2796.12
2795.86
2795.6
2795.35
2795.1
2794.85
2794.62
2526.94
2526.67
2525.75
2537.01
2543.71
2556.64
2575.61
2599.41
2616.81
2626.67
2630.6
2635.62
2642.47
2649.81
2656.83
2663.72
2670.74
2678
2685.67
2693.99
2703.03
2712.65
2722.51
2732.33
2742.01
2751.42
2760.45
2768.96
2776.82
2783.99
2790.42
2796.11
2801.09
2805.38
2808.77
2811.03
2812.14
2812.51
2812.55
2812.49
2812.28
2811.93
2811.43
2810.85
2810.17
2809.43
2808.65
2807.87
2807.12
2806.36
2805.6
2804.83
2804.09
2803.39
2802.75
2802.14
2801.55
2800.97
2800.4
2799.84
2799.3
2798.79
2798.31
2797.87
2797.47
2797.1
2796.74
2796.4
2796.07
2795.76
2795.46
2795.16
2794.87
2794.59
2794.31
2794.04
2793.79
2793.55
2793.33
2529.12
2528.72
2528.33
2538.13
2545.16
2557.9
2576.68
2599.44
2615.67
2624.04
2627.26
2631.89
2638.39
2645.32
2651.9
2658.4
2665.09
2672.06
2679.42
2687.38
2696.13
2705.54
2715.3
2725.11
2734.81
2744.31
2753.5
2762.24
2770.41
2777.88
2784.63
2790.63
2795.94
2800.58
2804.49
2807.42
2809.2
2809.97
2810.18
2810.21
2810.1
2809.88
2809.49
2809.01
2808.42
2807.77
2807.08
2806.39
2805.69
2804.96
2804.23
2803.5
2802.81
2802.16
2801.53
2800.91
2800.29
2799.68
2799.08
2798.52
2798
2797.53
2797.1
2796.7
2796.32
2795.95
2795.58
2795.22
2794.87
2794.53
2794.2
2793.88
2793.57
2793.29
2793.02
2792.77
2792.55
2792.34
2792.15
2531
2530.6
2530.67
2539.14
2546.38
2559.01
2577.58
2599.35
2614.51
2621.53
2624.12
2628.35
2634.49
2641
2647.16
2653.26
2659.64
2666.34
2673.42
2681.04
2689.47
2698.65
2708.29
2718.09
2727.84
2737.41
2746.73
2755.67
2764.11
2771.89
2778.96
2785.28
2790.9
2795.87
2800.16
2803.66
2806.12
2807.48
2808
2808.13
2808.09
2807.95
2807.67
2807.28
2806.78
2806.22
2805.62
2805
2804.34
2803.65
2802.97
2802.3
2801.66
2801.03
2800.4
2799.77
2799.15
2798.56
2798.02
2797.5
2797.02
2796.57
2796.14
2795.71
2795.29
2794.87
2794.47
2794.09
2793.75
2793.43
2793.13
2792.85
2792.59
2792.34
2792.11
2791.89
2791.7
2791.51
2791.33
2532.49
2532.42
2532.76
2539.98
2547.39
2559.97
2578.27
2599.11
2613.33
2619.12
2621.14
2624.98
2630.75
2636.85
2642.59
2648.3
2654.37
2660.81
2667.64
2674.96
2683.08
2691.99
2701.5
2711.28
2721.07
2730.72
2740.16
2749.26
2757.93
2766
2773.38
2780.04
2785.99
2791.25
2795.87
2799.8
2802.87
2804.9
2805.91
2806.24
2806.27
2806.2
2806.01
2805.71
2805.3
2804.82
2804.29
2803.72
2803.1
2802.46
2801.82
2801.19
2800.58
2799.97
2799.35
2798.74
2798.15
2797.59
2797.08
2796.59
2796.11
2795.65
2795.2
2794.76
2794.32
2793.9
2793.51
2793.15
2792.84
2792.54
2792.26
2791.99
2791.73
2791.48
2791.24
2791.01
2790.79
2790.58
2790.37
2533.8
2534.04
2534.61
2540.69
2548.18
2560.75
2578.75
2598.75
2612.13
2616.82
2618.31
2621.75
2627.16
2632.87
2638.21
2643.52
2649.27
2655.46
2662.06
2669.11
2676.95
2685.58
2694.92
2704.65
2714.49
2724.24
2733.78
2743.04
2751.91
2760.23
2767.92
2774.9
2781.17
2786.75
2791.66
2795.93
2799.48
2802.13
2803.74
2804.45
2804.62
2804.61
2804.5
2804.29
2803.98
2803.57
2803.09
2802.56
2802
2801.4
2800.79
2800.18
2799.58
2798.99
2798.4
2797.82
2797.26
2796.72
2796.21
2795.71
2795.23
2794.76
2794.31
2793.86
2793.43
2793.02
2792.63
2792.27
2791.92
2791.59
2791.27
2790.96
2790.66
2790.38
2790.1
2789.84
2789.58
2789.34
2789.1
2535.09
2535.48
2536.23
2541.29
2548.76
2561.33
2579
2598.28
2610.91
2614.61
2615.58
2618.65
2623.72
2629.06
2634.01
2638.93
2644.35
2650.26
2656.62
2663.47
2671.04
2679.4
2688.54
2698.2
2708.07
2717.92
2727.6
2737.01
2746.06
2754.62
2762.58
2769.87
2776.46
2782.35
2787.56
2792.13
2796.03
2799.19
2801.4
2802.63
2803.09
2803.17
2803.13
2803.01
2802.78
2802.45
2802.03
2801.55
2801.02
2800.45
2799.87
2799.29
2798.71
2798.13
2797.56
2797.01
2796.47
2795.95
2795.44
2794.95
2794.47
2794
2793.54
2793.09
2792.65
2792.25
2791.86
2791.48
2791.11
2790.75
2790.4
2790.07
2789.75
2789.44
2789.13
2788.84
2788.55
2788.28
2788.01
2536.27
2536.79
2537.7
2541.81
2549.15
2561.72
2579.03
2597.67
2609.62
2612.45
2612.99
2615.7
2620.42
2625.39
2629.98
2634.54
2639.61
2645.21
2651.34
2657.99
2665.34
2673.45
2682.39
2691.92
2701.8
2711.74
2721.56
2731.15
2740.39
2749.17
2757.4
2764.97
2771.87
2778.07
2783.58
2788.43
2792.64
2796.17
2798.89
2800.68
2801.58
2801.86
2801.89
2801.83
2801.68
2801.42
2801.07
2800.64
2800.15
2799.62
2799.08
2798.53
2797.98
2797.41
2796.84
2796.3
2795.79
2795.3
2794.82
2794.34
2793.86
2793.37
2792.9
2792.43
2792
2791.59
2791.21
2790.84
2790.47
2790.11
2789.75
2789.4
2789.05
2788.71
2788.38
2788.06
2787.75
2787.45
2787.16
2537.37
2537.93
2539.01
2542.26
2549.38
2561.89
2578.81
2596.89
2608.21
2610.35
2610.56
2612.94
2617.28
2621.87
2626.1
2630.31
2635.04
2640.33
2646.2
2652.67
2659.82
2667.72
2676.46
2685.84
2695.68
2705.68
2715.64
2725.41
2734.86
2743.87
2752.35
2760.22
2767.42
2773.92
2779.73
2784.86
2789.35
2793.2
2796.32
2798.61
2800.01
2800.63
2800.79
2800.78
2800.68
2800.49
2800.21
2799.83
2799.38
2798.9
2798.41
2797.92
2797.39
2796.83
2796.26
2795.74
2795.26
2794.81
2794.35
2793.88
2793.4
2792.91
2792.42
2791.96
2791.53
2791.14
2790.76
2790.39
2790.03
2789.67
2789.32
2788.95
2788.58
2788.22
2787.87
2787.53
2787.21
2786.91
2786.61
2538.36
2538.98
2540.13
2542.64
2549.53
2561.9
2578.34
2595.93
2606.72
2608.37
2608.29
2610.34
2614.27
2618.46
2622.34
2626.21
2630.62
2635.6
2641.22
2647.49
2654.46
2662.2
2670.75
2679.97
2689.73
2699.76
2709.83
2719.77
2729.43
2738.69
2747.43
2755.59
2763.09
2769.9
2776
2781.42
2786.2
2790.34
2793.78
2796.47
2798.34
2799.39
2799.79
2799.86
2799.81
2799.68
2799.46
2799.14
2798.75
2798.33
2797.9
2797.43
2796.93
2796.39
2795.87
2795.38
2794.93
2794.5
2794.06
2793.6
2793.13
2792.65
2792.19
2791.75
2791.35
2790.96
2790.59
2790.22
2789.87
2789.53
2789.18
2788.83
2788.46
2788.1
2787.76
2787.44
2787.14
2786.85
2786.57
2539.24
2539.76
2541.09
2543
2549.57
2561.72
2577.68
2594.82
2605.2
2606.53
2606.15
2607.86
2611.37
2615.16
2618.69
2622.23
2626.31
2630.99
2636.36
2642.44
2649.24
2656.84
2665.24
2674.32
2683.98
2694
2704.15
2714.23
2724.09
2733.58
2742.59
2751.04
2758.86
2765.98
2772.39
2778.11
2783.18
2787.61
2791.34
2794.35
2796.6
2798.07
2798.82
2799.07
2799.08
2799.01
2798.83
2798.58
2798.27
2797.91
2797.5
2797.04
2796.57
2796.1
2795.65
2795.21
2794.77
2794.33
2793.88
2793.44
2793.02
2792.6
2792.21
2791.84
2791.47
2791.11
2790.74
2790.38
2790.03
2789.7
2789.36
2789.03
2788.7
2788.38
2788.09
2787.81
2787.55
2787.3
2787.05
2540.04
2540.45
2541.89
2543.33
2549.51
2561.35
2576.85
2593.6
2603.67
2604.84
2604.12
2605.45
2608.57
2611.97
2615.14
2618.35
2622.1
2626.5
2631.62
2637.49
2644.13
2651.61
2659.9
2668.88
2678.46
2688.43
2698.62
2708.81
2718.84
2728.54
2737.82
2746.56
2754.69
2762.13
2768.86
2774.9
2780.28
2785
2789.02
2792.31
2794.87
2796.69
2797.81
2798.34
2798.48
2798.45
2798.32
2798.13
2797.88
2797.57
2797.18
2796.75
2796.33
2795.95
2795.57
2795.16
2794.72
2794.26
2793.83
2793.43
2793.08
2792.75
2792.44
2792.11
2791.77
2791.41
2791.04
2790.69
2790.35
2790.03
2789.73
2789.44
2789.19
2788.95
2788.73
2788.52
2788.31
2788.11
2787.89
2540.69
2541.15
2542.48
2543.64
2549.4
2560.8
2575.87
2592.29
2602.14
2603.26
2602.2
2603.1
2605.84
2608.88
2611.71
2614.58
2618
2622.1
2626.97
2632.62
2639.1
2646.49
2654.69
2663.61
2673.13
2683.08
2693.29
2703.56
2713.71
2723.61
2733.11
2742.14
2750.56
2758.33
2765.4
2771.78
2777.48
2782.5
2786.79
2790.36
2793.2
2795.33
2796.78
2797.61
2797.95
2797.99
2797.91
2797.76
2797.56
2797.3
2796.95
2796.57
2796.21
2795.87
2795.53
2795.16
2794.75
2794.34
2793.95
2793.61
2793.3
2793.02
2792.74
2792.43
2792.11
2791.78
2791.46
2791.15
2790.85
2790.58
2790.33
2790.1
2789.89
2789.69
2789.51
2789.32
2789.13
2788.94
2788.74
2541.14
2541.83
2542.92
2543.89
2549.24
2560.08
2574.73
2590.87
2600.57
2601.77
2600.4
2600.81
2603.16
2605.9
2608.36
2610.91
2614.01
2617.8
2622.4
2627.83
2634.15
2641.45
2649.59
2658.48
2667.97
2677.91
2688.14
2698.48
2708.74
2718.8
2728.52
2737.79
2746.51
2754.59
2761.99
2768.72
2774.75
2780.08
2784.65
2788.48
2791.59
2794.01
2795.74
2796.86
2797.44
2797.62
2797.59
2797.48
2797.31
2797.09
2796.82
2796.5
2796.17
2795.85
2795.54
2795.23
2794.9
2794.56
2794.22
2793.9
2793.59
2793.3
2793.03
2792.76
2792.5
2792.25
2792
2791.75
2791.51
2791.28
2791.05
2790.83
2790.61
2790.41
2790.22
2790.04
2789.86
2789.69
2789.53
2541.43
2542.41
2543.21
2544.06
2549.02
2559.23
2573.46
2589.34
2598.95
2600.35
2598.68
2598.54
2600.56
2603.02
2605.08
2607.32
2610.12
2613.62
2617.92
2623.12
2629.28
2636.48
2644.57
2653.46
2662.95
2672.91
2683.18
2693.58
2703.95
2714.15
2724.06
2733.57
2742.55
2750.94
2758.66
2765.73
2772.08
2777.71
2782.56
2786.67
2790.05
2792.73
2794.73
2796.11
2796.93
2797.29
2797.34
2797.26
2797.12
2796.95
2796.74
2796.49
2796.19
2795.89
2795.61
2795.35
2795.09
2794.82
2794.52
2794.21
2793.9
2793.61
2793.36
2793.13
2792.93
2792.74
2792.55
2792.35
2792.15
2791.94
2791.73
2791.51
2791.31
2791.12
2790.94
2790.77
2790.62
2790.48
2790.35
2541.61
2542.8
2543.38
2544.17
2548.75
2558.27
2572.05
2587.69
2597.26
2598.99
2597.03
2596.36
2598.06
2600.17
2601.84
2603.8
2606.32
2609.51
2613.53
2618.48
2624.48
2631.57
2639.62
2648.51
2658.03
2668.04
2678.36
2688.85
2699.33
2709.68
2719.78
2729.51
2738.75
2747.41
2755.45
2762.83
2769.48
2775.4
2780.52
2784.9
2788.55
2791.5
2793.75
2795.37
2796.4
2796.95
2797.13
2797.09
2796.98
2796.85
2796.7
2796.49
2796.24
2795.97
2795.72
2795.49
2795.27
2795.04
2794.79
2794.51
2794.23
2793.97
2793.73
2793.53
2793.35
2793.18
2793.01
2792.85
2792.67
2792.5
2792.32
2792.14
2791.97
2791.8
2791.65
2791.51
2791.38
2791.26
2791.15
2541.79
2543.02
2543.47
2544.24
2548.43
2557.22
2570.48
2585.91
2595.51
2597.73
2595.45
2594.31
2595.61
2597.31
2598.66
2600.34
2602.58
2605.46
2609.22
2613.94
2619.77
2626.74
2634.73
2643.62
2653.17
2663.25
2673.66
2684.26
2694.87
2705.38
2715.67
2725.63
2735.1
2744.04
2752.36
2760.04
2766.98
2773.17
2778.55
2783.2
2787.1
2790.3
2792.79
2794.64
2795.88
2796.61
2796.92
2796.96
2796.89
2796.79
2796.66
2796.49
2796.29
2796.07
2795.84
2795.63
2795.43
2795.22
2795
2794.77
2794.53
2794.31
2794.1
2793.9
2793.73
2793.57
2793.41
2793.26
2793.11
2792.97
2792.82
2792.68
2792.53
2792.4
2792.27
2792.15
2792.04
2791.94
2791.84
2541.99
2543.11
2543.47
2544.24
2548.05
2556.1
2568.77
2583.98
2593.66
2596.57
2593.93
2592.42
2593.17
2594.42
2595.57
2596.94
2598.88
2601.44
2604.97
2609.48
2615.13
2621.97
2629.89
2638.76
2648.35
2658.53
2669.05
2679.78
2690.55
2701.24
2711.73
2721.91
2731.63
2740.83
2749.42
2757.38
2764.6
2771.06
2776.69
2781.58
2785.72
2789.16
2791.88
2793.93
2795.36
2796.25
2796.7
2796.83
2796.8
2796.72
2796.62
2796.48
2796.32
2796.14
2795.95
2795.75
2795.56
2795.37
2795.17
2794.98
2794.78
2794.59
2794.41
2794.24
2794.07
2793.92
2793.78
2793.64
2793.5
2793.38
2793.25
2793.13
2793.01
2792.9
2792.79
2792.69
2792.59
2792.49
2792.4
2542.07
2543.04
2543.4
2544.18
2547.62
2554.93
2566.92
2581.88
2591.78
2595.42
2592.52
2590.67
2590.67
2591.54
2592.56
2593.58
2595.18
2597.45
2600.79
2605.1
2610.58
2617.26
2625.1
2633.94
2643.58
2653.85
2664.51
2675.4
2686.34
2697.23
2707.93
2718.35
2728.31
2737.77
2746.62
2754.86
2762.35
2769.09
2774.97
2780.1
2784.45
2788.1
2791.02
2793.26
2794.86
2795.89
2796.46
2796.67
2796.69
2796.64
2796.56
2796.44
2796.31
2796.16
2796
2795.83
2795.66
2795.49
2795.32
2795.15
2794.98
2794.82
2794.66
2794.51
2794.37
2794.23
2794.1
2793.97
2793.86
2793.74
2793.63
2793.52
2793.42
2793.32
2793.23
2793.14
2793.05
2792.97
2792.89
2542.07
2542.88
2543.29
2544.08
2547.15
2553.72
2564.96
2579.64
2589.86
2594.15
2591.25
2588.97
2588.16
2588.78
2589.56
2590.2
2591.49
2593.5
2596.66
2600.77
2606.1
2612.63
2620.37
2629.17
2638.87
2649.23
2660.04
2671.1
2682.24
2693.34
2704.26
2714.92
2725.14
2734.85
2743.96
2752.47
2760.24
2767.25
2773.4
2778.76
2783.32
2787.16
2790.25
2792.65
2794.4
2795.54
2796.23
2796.5
2796.56
2796.52
2796.47
2796.37
2796.27
2796.15
2796.02
2795.87
2795.72
2795.57
2795.42
2795.27
2795.12
2794.98
2794.84
2794.7
2794.58
2794.46
2794.34
2794.23
2794.13
2794.03
2793.93
2793.84
2793.75
2793.66
2793.58
2793.5
2793.42
2793.34
2793.27
2541.99
2542.69
2543.14
2543.92
2546.62
2552.48
2562.92
2577.28
2587.91
2592.68
2590.16
2587.29
2585.78
2586.09
2586.46
2586.79
2587.82
2589.62
2592.6
2596.49
2601.66
2608.04
2615.7
2624.47
2634.23
2644.68
2655.64
2666.88
2678.22
2689.54
2700.7
2711.61
2722.09
2732.06
2741.42
2750.2
2758.25
2765.56
2771.97
2777.57
2782.33
2786.34
2789.58
2792.1
2793.99
2795.21
2796.01
2796.33
2796.44
2796.4
2796.36
2796.28
2796.2
2796.1
2795.99
2795.87
2795.75
2795.62
2795.49
2795.35
2795.22
2795.08
2794.96
2794.83
2794.71
2794.59
2794.48
2794.37
2794.27
2794.17
2794.08
2793.99
2793.9
2793.82
2793.74
2793.67
2793.59
2793.52
2793.45
2541.81
2542.5
2542.96
2543.72
2546.05
2551.22
2560.82
2574.81
2585.86
2590.96
2589.23
2585.65
2583.62
2583.36
2583.16
2583.38
2584.2
2585.84
2588.59
2592.23
2597.26
2603.5
2611.08
2619.84
2629.66
2640.21
2651.31
2662.73
2674.29
2685.84
2697.25
2708.4
2719.15
2729.39
2739.02
2748.07
2756.4
2764
2770.69
2776.52
2781.48
2785.63
2789
2791.61
2793.61
2794.92
2795.8
2796.21
2796.36
2796.34
2796.29
2796.22
2796.14
2796.05
2795.97
2795.87
2795.77
2795.66
2795.55
2795.43
2795.31
2795.18
2795.05
2794.92
2794.8
2794.68
2794.56
2794.44
2794.33
2794.22
2794.12
2794.01
2793.92
2793.83
2793.74
2793.66
2793.58
2793.5
2793.43
2541.57
2542.26
2542.73
2543.46
2545.44
2549.95
2558.69
2572.22
2583.64
2589.08
2588.43
2584.08
2581.56
2580.46
2579.81
2580.01
2580.64
2582.13
2584.63
2588.03
2592.9
2598.99
2606.52
2615.29
2625.16
2635.81
2647.07
2658.66
2670.45
2682.24
2693.9
2705.3
2716.33
2726.84
2736.75
2746.06
2754.67
2762.55
2769.53
2775.6
2780.75
2785.02
2788.51
2791.18
2793.26
2794.65
2795.6
2796.12
2796.32
2796.34
2796.29
2796.22
2796.15
2796.07
2796.01
2795.93
2795.85
2795.76
2795.66
2795.55
2795.44
2795.32
2795.2
2795.06
2794.93
2794.79
2794.66
2794.52
2794.4
2794.27
2794.15
2794.03
2793.92
2793.81
2793.7
2793.6
2793.51
2793.42
2793.34
2541.28
2541.96
2542.43
2543.13
2544.79
2548.68
2556.56
2569.51
2581.23
2587.17
2587.61
2582.56
2579.43
2577.52
2576.55
2576.68
2577.09
2578.43
2580.68
2583.88
2588.58
2594.54
2602.03
2610.81
2620.73
2631.49
2642.9
2654.69
2666.71
2678.74
2690.66
2702.32
2713.62
2724.41
2734.62
2744.19
2753.07
2761.22
2768.48
2774.77
2780.13
2784.48
2788.08
2790.79
2792.93
2794.41
2795.42
2796.04
2796.31
2796.39
2796.36
2796.31
2796.25
2796.18
2796.13
2796.06
2796
2795.92
2795.84
2795.75
2795.65
2795.53
2795.41
2795.27
2795.13
2794.99
2794.84
2794.69
2794.55
2794.4
2794.26
2794.12
2794
2793.87
2793.76
2793.64
2793.54
2793.44
2793.35
2540.95
2541.61
2542.06
2542.74
2544.1
2547.41
2554.45
2566.72
2578.75
2585.26
2586.49
2581.19
2577.17
2574.56
2573.42
2573.33
2573.5
2574.69
2576.73
2579.78
2584.33
2590.15
2597.61
2606.39
2616.37
2627.24
2638.81
2650.8
2663.06
2675.34
2687.54
2699.45
2711.04
2722.11
2732.63
2742.47
2751.62
2760
2767.51
2774
2779.55
2784
2787.68
2790.46
2792.62
2794.2
2795.25
2795.97
2796.32
2796.47
2796.49
2796.45
2796.41
2796.34
2796.29
2796.22
2796.17
2796.09
2796.02
2795.92
2795.82
2795.71
2795.58
2795.45
2795.31
2795.16
2795.01
2794.87
2794.72
2794.57
2794.43
2794.29
2794.16
2794.04
2793.92
2793.8
2793.7
2793.6
2793.5
2540.58
2541.22
2541.62
2542.26
2543.37
2546.16
2552.4
2563.88
2576.25
2583.33
2584.93
2579.97
2574.86
2571.69
2570.36
2569.87
2569.86
2570.87
2572.76
2575.73
2580.14
2585.85
2593.26
2602.04
2612.08
2623.08
2634.82
2647.02
2659.53
2672.07
2684.54
2696.72
2708.59
2719.94
2730.77
2740.9
2750.31
2758.9
2766.61
2773.26
2778.99
2783.56
2787.32
2790.2
2792.38
2794.05
2795.16
2795.94
2796.38
2796.56
2796.62
2796.58