/*--------------------------------*- C++ -*----------------------------------*\
| =========                 |                                                 |
| \\      /  F ield         | OpenFOAM: The Open Source CFD Toolbox           |
|  \\    /   O peration     | Version:  2412                                  |
|   \\  /    A nd           | Website:  www.openfoam.com                      |
|    \\/     M anipulation  |                                                 |
\*---------------------------------------------------------------------------*/
FoamFile
{
    version     2.0;
    format      ascii;
    arch        "LSB;label=32;scalar=64";
    class       volScalarField;
    location    "0.114";
    object      p;
}
// * * * * * * * * * * * * * * * * * * * * * * * * * * * * * * * * * * * * * //

dimensions      [1 -1 -2 0 0 0 0];

internalField   nonuniform List<scalar> 
9859
(
2797.81
2798.87
2799.43
2800.04
2800.48
2800.93
2801.23
2801.67
2802.33
2803.56
2805.26
2807.24
2808.53
2808.83
2808.57
2807.63
2806.11
2804.65
2803.74
2803.32
2803.16
2803.07
2802.98
2802.82
2802.58
2802.3
2801.98
2801.68
2801.33
2801
2800.64
2800.3
2799.91
2799.53
2799.12
2798.68
2798.22
2797.71
2797.13
2796.43
2795.56
2794.5
2793.28
2791.96
2790.56
2789.13
2787.65
2786.1
2784.51
2782.82
2781.04
2779.23
2777.39
2775.5
2773.59
2771.53
2769.44
2767.33
2765.25
2762.9
2760.29
2757.56
2754.76
2751.86
2748.9
2745.95
2743.13
2740.56
2738.34
2797.74
2798.8
2799.36
2799.97
2800.41
2800.86
2801.16
2801.6
2802.27
2803.5
2805.21
2807.2
2808.51
2808.82
2808.56
2807.62
2806.09
2804.62
2803.7
2803.27
2803.11
2803.02
2802.92
2802.76
2802.52
2802.23
2801.91
2801.6
2801.25
2800.92
2800.55
2800.2
2799.81
2799.42
2799
2798.56
2798.08
2797.56
2796.97
2796.26
2795.38
2794.31
2793.09
2791.74
2790.32
2788.85
2787.36
2785.81
2784.19
2782.48
2780.69
2778.87
2777
2775.1
2773.21
2771.19
2769.12
2766.94
2764.72
2762.36
2759.83
2757.03
2754.2
2751.32
2748.36
2745.42
2742.62
2740.07
2737.87
2736.08
2734.71
2733.87
2733.62
2733.88
2734.59
2748.01
2750.32
2752.77
2755.28
2757.6
2760.03
2762.35
2764.46
2766.38
2768.13
2769.76
2771.38
2773.04
2774.81
2776.67
2778.67
2780.83
2783.07
2785.37
2787.73
2790.1
2792.43
2794.65
2796.74
2798.66
2800.31
2801.9
2803.3
2804.7
2806.12
2807.71
2809.74
2812.06
2815.03
2819.05
2823.74
2827.12
2797.66
2798.72
2799.29
2799.9
2800.33
2800.78
2801.09
2801.53
2802.19
2803.44
2805.15
2807.16
2808.48
2808.8
2808.54
2807.6
2806.07
2804.6
2803.67
2803.23
2803.07
2802.97
2802.87
2802.7
2802.45
2802.17
2801.84
2801.52
2801.17
2800.83
2800.46
2800.1
2799.7
2799.31
2798.88
2798.42
2797.93
2797.4
2796.8
2796.08
2795.19
2794.12
2792.88
2791.51
2790.06
2788.56
2787.06
2785.49
2783.85
2782.12
2780.33
2778.49
2776.59
2774.67
2772.77
2770.75
2768.69
2766.51
2764.23
2761.79
2759.26
2756.48
2753.63
2750.75
2747.8
2744.87
2742.08
2739.56
2737.39
2735.64
2734.32
2733.54
2733.33
2733.63
2734.38
2735.45
2736.53
2737.71
2738.94
2740.35
2741.97
2743.77
2745.77
2747.92
2750.24
2752.7
2755.21
2757.54
2759.96
2762.28
2764.39
2766.31
2768.06
2769.68
2771.3
2772.97
2774.74
2776.6
2778.62
2780.77
2783.02
2785.33
2787.69
2790.07
2792.39
2794.6
2796.69
2798.59
2800.21
2801.78
2803.17
2804.51
2805.93
2807.44
2809.38
2811.62
2814.4
2818.1
2822.33
2824.69
2797.58
2798.65
2799.21
2799.83
2800.26
2800.71
2801.01
2801.45
2802.12
2803.37
2805.09
2807.12
2808.45
2808.78
2808.53
2807.59
2806.06
2804.57
2803.63
2803.19
2803.02
2802.92
2802.81
2802.64
2802.39
2802.1
2801.77
2801.44
2801.08
2800.74
2800.36
2799.99
2799.59
2799.18
2798.75
2798.28
2797.78
2797.23
2796.62
2795.88
2794.98
2793.9
2792.66
2791.27
2789.79
2788.26
2786.73
2785.16
2783.5
2781.74
2779.94
2778.08
2776.16
2774.23
2772.29
2770.22
2768.14
2765.97
2763.71
2761.25
2758.65
2755.88
2753.04
2750.15
2747.2
2744.29
2741.52
2739.02
2736.88
2735.17
2733.91
2733.19
2733.03
2733.37
2734.16
2735.26
2736.34
2737.52
2738.76
2740.19
2741.83
2743.65
2745.67
2747.83
2750.16
2752.62
2755.13
2757.47
2759.89
2762.21
2764.32
2766.23
2767.98
2769.61
2771.22
2772.89
2774.67
2776.53
2778.55
2780.71
2782.98
2785.29
2787.65
2790.04
2792.35
2794.56
2796.63
2798.51
2800.11
2801.66
2803.04
2804.32
2805.71
2807.16
2808.99
2811.15
2813.74
2817.08
2820.84
2822.12
2797.49
2798.56
2799.13
2799.75
2800.18
2800.63
2800.93
2801.37
2802.04
2803.3
2805.03
2807.08
2808.42
2808.76
2808.51
2807.57
2806.04
2804.54
2803.59
2803.14
2802.96
2802.86
2802.75
2802.57
2802.32
2802.02
2801.69
2801.36
2800.99
2800.64
2800.25
2799.88
2799.46
2799.05
2798.61
2798.13
2797.61
2797.06
2796.43
2795.68
2794.76
2793.67
2792.41
2791.01
2789.5
2787.95
2786.39
2784.8
2783.12
2781.35
2779.54
2777.64
2775.7
2773.76
2771.8
2769.7
2767.58
2765.39
2763.13
2760.68
2758.05
2755.26
2752.4
2749.52
2746.58
2743.68
2740.94
2738.46
2736.36
2734.69
2733.49
2732.83
2732.72
2733.11
2733.93
2735.05
2736.13
2737.32
2738.57
2740.02
2741.68
2743.52
2745.56
2747.73
2750.08
2752.54
2755.04
2757.4
2759.81
2762.13
2764.24
2766.15
2767.9
2769.52
2771.14
2772.82
2774.6
2776.46
2778.49
2780.65
2782.94
2785.24
2787.61
2790
2792.31
2794.51
2796.56
2798.43
2800.01
2801.52
2802.91
2804.11
2805.47
2806.86
2808.59
2810.65
2813.05
2816
2819.28
2819.43
2795.07
2797.41
2798.48
2799.04
2799.66
2800.09
2800.54
2800.84
2801.29
2801.96
2803.23
2804.97
2807.03
2808.39
2808.73
2808.49
2807.55
2806.02
2804.51
2803.55
2803.09
2802.91
2802.8
2802.68
2802.5
2802.25
2801.95
2801.6
2801.26
2800.89
2800.54
2800.15
2799.76
2799.34
2798.92
2798.46
2797.97
2797.44
2796.87
2796.23
2795.46
2794.52
2793.41
2792.15
2790.73
2789.21
2787.64
2786.05
2784.42
2782.72
2780.95
2779.1
2777.17
2775.22
2773.26
2771.29
2769.17
2767.05
2764.83
2762.51
2760.05
2757.42
2754.6
2751.73
2748.86
2745.93
2743.04
2740.32
2737.88
2735.82
2734.19
2733.06
2732.46
2732.4
2732.83
2733.7
2734.84
2735.92
2737.11
2738.38
2739.85
2741.53
2743.39
2745.45
2747.63
2749.99
2752.46
2754.95
2757.33
2759.72
2762.05
2764.15
2766.06
2767.81
2769.43
2771.06
2772.74
2774.52
2776.39
2778.42
2780.59
2782.89
2785.2
2787.57
2789.96
2792.26
2794.45
2796.49
2798.33
2799.91
2801.37
2802.76
2803.89
2805.21
2806.55
2808.17
2810.11
2812.31
2814.86
2817.61
2816.61
2790.47
2797.32
2798.39
2798.96
2799.58
2800.01
2800.45
2800.75
2801.21
2801.88
2803.15
2804.9
2806.98
2808.35
2808.71
2808.46
2807.54
2805.99
2804.48
2803.51
2803.04
2802.85
2802.74
2802.61
2802.43
2802.17
2801.87
2801.52
2801.17
2800.79
2800.43
2800.03
2799.64
2799.2
2798.77
2798.3
2797.79
2797.25
2796.67
2796.02
2795.23
2794.26
2793.13
2791.85
2790.42
2788.89
2787.32
2785.69
2784.02
2782.31
2780.52
2778.64
2776.68
2774.71
2772.73
2770.75
2768.62
2766.47
2764.23
2761.87
2759.38
2756.74
2753.91
2751.03
2748.16
2745.24
2742.37
2739.68
2737.28
2735.25
2733.68
2732.62
2732.08
2732.07
2732.56
2733.46
2734.61
2735.7
2736.9
2738.19
2739.67
2741.37
2743.26
2745.33
2747.53
2749.9
2752.38
2754.86
2757.25
2759.64
2761.97
2764.06
2765.97
2767.71
2769.34
2770.96
2772.66
2774.44
2776.31
2778.35
2780.52
2782.83
2785.15
2787.52
2789.92
2792.21
2794.39
2796.41
2798.23
2799.8
2801.21
2802.6
2803.67
2804.93
2806.22
2807.72
2809.54
2811.52
2813.68
2815.86
2813.66
2785.9
2797.22
2798.3
2798.87
2799.49
2799.92
2800.36
2800.66
2801.12
2801.79
2803.07
2804.83
2806.92
2808.32
2808.69
2808.44
2807.52
2805.97
2804.45
2803.47
2802.99
2802.79
2802.67
2802.54
2802.35
2802.09
2801.78
2801.42
2801.07
2800.69
2800.32
2799.91
2799.5
2799.06
2798.62
2798.13
2797.61
2797.06
2796.46
2795.79
2794.98
2793.99
2792.82
2791.54
2790.09
2788.56
2786.96
2785.32
2783.62
2781.88
2780.06
2778.14
2776.17
2774.18
2772.17
2770.16
2768
2765.84
2763.58
2761.2
2758.69
2756.02
2753.18
2750.29
2747.43
2744.53
2741.68
2739.01
2736.65
2734.66
2733.15
2732.16
2731.69
2731.74
2732.28
2733.21
2734.38
2735.47
2736.68
2737.98
2739.49
2741.22
2743.13
2745.22
2747.43
2749.8
2752.29
2754.77
2757.17
2759.54
2761.88
2763.97
2765.87
2767.61
2769.24
2770.87
2772.57
2774.36
2776.23
2778.28
2780.46
2782.78
2785.1
2787.47
2789.87
2792.16
2794.33
2796.33
2798.12
2799.69
2801.05
2802.42
2803.44
2804.63
2805.86
2807.26
2808.92
2810.69
2812.44
2814
2810.59
2781.28
2797.12
2798.2
2798.77
2799.39
2799.82
2800.27
2800.57
2801.02
2801.7
2802.98
2804.76
2806.87
2808.28
2808.66
2808.42
2807.5
2805.95
2804.42
2803.42
2802.93
2802.73
2802.6
2802.46
2802.27
2802
2801.69
2801.33
2800.97
2800.58
2800.2
2799.78
2799.37
2798.91
2798.45
2797.95
2797.42
2796.85
2796.24
2795.56
2794.71
2793.7
2792.51
2791.2
2789.74
2788.18
2786.59
2784.91
2783.19
2781.41
2779.57
2777.62
2775.62
2773.61
2771.58
2769.55
2767.36
2765.17
2762.89
2760.48
2757.96
2755.27
2752.41
2749.52
2746.66
2743.77
2740.95
2738.31
2735.99
2734.06
2732.61
2731.69
2731.28
2731.4
2731.99
2732.96
2734.14
2735.23
2736.44
2737.77
2739.3
2741.05
2742.99
2745.1
2747.32
2749.7
2752.2
2754.67
2757.08
2759.44
2761.78
2763.87
2765.77
2767.51
2769.14
2770.77
2772.48
2774.27
2776.15
2778.2
2780.38
2782.72
2785.04
2787.42
2789.82
2792.1
2794.26
2796.24
2798.01
2799.56
2800.87
2802.23
2803.2
2804.31
2805.49
2806.77
2808.27
2809.8
2811.15
2812.04
2807.39
2776.67
2797.02
2798.1
2798.67
2799.3
2799.72
2800.17
2800.47
2800.93
2801.6
2802.89
2804.68
2806.81
2808.24
2808.63
2808.39
2807.48
2805.93
2804.38
2803.38
2802.87
2802.65
2802.52
2802.38
2802.18
2801.91
2801.59
2801.23
2800.86
2800.46
2800.08
2799.64
2799.22
2798.75
2798.28
2797.77
2797.22
2796.64
2796.01
2795.31
2794.44
2793.4
2792.19
2790.85
2789.39
2787.79
2786.16
2784.48
2782.73
2780.93
2779.04
2777.06
2775.05
2773.01
2770.94
2768.88
2766.68
2764.48
2762.17
2759.73
2757.19
2754.47
2751.6
2748.7
2745.85
2742.99
2740.19
2737.59
2735.31
2733.43
2732.05
2731.21
2730.87
2731.05
2731.69
2732.7
2733.89
2734.97
2736.21
2737.56
2739.11
2740.89
2742.85
2744.97
2747.21
2749.59
2752.11
2754.57
2756.99
2759.34
2761.68
2763.76
2765.66
2767.4
2769.03
2770.66
2772.38
2774.17
2776.07
2778.12
2780.31
2782.66
2784.98
2787.37
2789.76
2792.04
2794.18
2796.14
2797.89
2799.43
2800.69
2802.01
2802.95
2803.98
2805.08
2806.26
2807.58
2808.85
2809.8
2809.98
2804.06
2772.01
2796.91
2798
2798.57
2799.19
2799.62
2800.07
2800.37
2800.83
2801.5
2802.8
2804.6
2806.75
2808.2
2808.61
2808.37
2807.46
2805.9
2804.35
2803.33
2802.81
2802.58
2802.44
2802.29
2802.09
2801.81
2801.49
2801.12
2800.75
2800.34
2799.94
2799.5
2799.06
2798.58
2798.1
2797.57
2797.01
2796.41
2795.77
2795.04
2794.15
2793.09
2791.86
2790.49
2789
2787.38
2785.71
2784
2782.24
2780.4
2778.48
2776.49
2774.44
2772.37
2770.28
2768.2
2765.97
2763.73
2761.4
2758.94
2756.37
2753.64
2750.76
2747.85
2745.01
2742.16
2739.39
2736.82
2734.59
2732.78
2731.47
2730.73
2730.44
2730.7
2731.4
2732.43
2733.63
2734.71
2735.96
2737.33
2738.91
2740.72
2742.71
2744.85
2747.1
2749.49
2752
2754.46
2756.89
2759.23
2761.56
2763.65
2765.54
2767.28
2768.92
2770.55
2772.27
2774.07
2775.98
2778.04
2780.23
2782.59
2784.92
2787.31
2789.7
2791.97
2794.1
2796.03
2797.76
2799.29
2800.5
2801.77
2802.68
2803.63
2804.65
2805.71
2806.83
2807.84
2808.39
2807.82
2800.61
2767.36
2796.8
2797.89
2798.46
2799.09
2799.52
2799.96
2800.26
2800.72
2801.4
2802.71
2804.52
2806.69
2808.16
2808.58
2808.35
2807.44
2805.88
2804.31
2803.27
2802.74
2802.5
2802.35
2802.2
2801.99
2801.71
2801.39
2801.01
2800.63
2800.21
2799.8
2799.35
2798.89
2798.4
2797.9
2797.35
2796.78
2796.17
2795.51
2794.75
2793.83
2792.76
2791.52
2790.12
2788.6
2786.95
2785.23
2783.48
2781.71
2779.84
2777.88
2775.88
2773.8
2771.68
2769.57
2767.45
2765.2
2762.95
2760.59
2758.1
2755.5
2752.75
2749.86
2746.95
2744.12
2741.3
2738.56
2736.03
2733.86
2732.11
2730.88
2730.22
2730.01
2730.35
2731.09
2732.15
2733.36
2734.44
2735.71
2737.1
2738.71
2740.55
2742.56
2744.72
2746.99
2749.39
2751.88
2754.36
2756.79
2759.12
2761.45
2763.53
2765.42
2767.15
2768.8
2770.44
2772.16
2773.96
2775.89
2777.95
2780.15
2782.52
2784.85
2787.25
2789.64
2791.9
2794.01
2795.91
2797.62
2799.12
2800.3
2801.53
2802.39
2803.26
2804.2
2805.14
2806.05
2806.78
2806.91
2805.55
2797.07
2762.7
2796.68
2797.77
2798.35
2798.98
2799.4
2799.85
2800.15
2800.61
2801.3
2802.61
2804.44
2806.62
2808.12
2808.55
2808.32
2807.41
2805.85
2804.27
2803.22
2802.67
2802.42
2802.26
2802.1
2801.89
2801.61
2801.27
2800.89
2800.5
2800.08
2799.65
2799.18
2798.72
2798.21
2797.69
2797.13
2796.54
2795.91
2795.22
2794.44
2793.5
2792.4
2791.14
2789.72
2788.15
2786.51
2784.73
2782.96
2781.14
2779.25
2777.27
2775.22
2773.1
2770.96
2768.83
2766.69
2764.4
2762.11
2759.72
2757.21
2754.59
2751.83
2748.93
2746.01
2743.18
2740.39
2737.68
2735.2
2733.09
2731.43
2730.29
2729.72
2729.58
2729.99
2730.78
2731.86
2733.07
2734.17
2735.45
2736.87
2738.51
2740.38
2742.41
2744.59
2746.88
2749.28
2751.76
2754.25
2756.68
2758.99
2761.32
2763.39
2765.28
2767.02
2768.67
2770.31
2772.04
2773.86
2775.79
2777.86
2780.07
2782.44
2784.79
2787.18
2789.57
2791.82
2793.92
2795.79
2797.48
2798.94
2800.09
2801.25
2802.07
2802.88
2803.72
2804.53
2805.21
2805.65
2805.37
2803.18
2793.43
2758.07
2796.57
2797.65
2798.23
2798.86
2799.29
2799.73
2800.04
2800.5
2801.19
2802.51
2804.35
2806.56
2808.07
2808.53
2808.3
2807.39
2805.83
2804.24
2803.16
2802.59
2802.33
2802.17
2802
2801.79
2801.49
2801.15
2800.76
2800.37
2799.93
2799.49
2799
2798.53
2798
2797.47
2796.88
2796.27
2795.62
2794.91
2794.1
2793.14
2792.02
2790.71
2789.26
2787.67
2786.01
2784.26
2782.41
2780.56
2778.62
2776.61
2774.54
2772.37
2770.19
2768.02
2765.84
2763.53
2761.22
2758.81
2756.27
2753.62
2750.83
2747.93
2745.02
2742.21
2739.45
2736.78
2734.36
2732.3
2730.72
2729.67
2729.19
2729.13
2729.62
2730.46
2731.56
2732.78
2733.88
2735.18
2736.63
2738.3
2740.2
2742.26
2744.46
2746.76
2749.17
2751.64
2754.14
2756.56
2758.87
2761.19
2763.26
2765.14
2766.88
2768.53
2770.18
2771.92
2773.74
2775.69
2777.77
2779.99
2782.36
2784.71
2787.11
2789.49
2791.74
2793.81
2795.66
2797.31
2798.74
2799.87
2800.97
2801.74
2802.48
2803.21
2803.89
2804.33
2804.47
2803.75
2800.69
2789.7
2753.45
2796.44
2797.53
2798.11
2798.74
2799.16
2799.61
2799.92
2800.38
2801.07
2802.41
2804.26
2806.5
2808.03
2808.5
2808.27
2807.37
2805.8
2804.19
2803.1
2802.51
2802.24
2802.07
2801.9
2801.67
2801.37
2801.02
2800.63
2800.22
2799.77
2799.32
2798.81
2798.32
2797.78
2797.23
2796.62
2795.99
2795.32
2794.58
2793.74
2792.75
2791.6
2790.26
2788.76
2787.15
2785.46
2783.69
2781.85
2779.92
2777.96
2775.91
2773.77
2771.59
2769.4
2767.19
2764.97
2762.63
2760.29
2757.84
2755.28
2752.61
2749.81
2746.91
2744
2741.19
2738.46
2735.83
2733.46
2731.49
2730.01
2729.06
2728.67
2728.69
2729.26
2730.14
2731.25
2732.47
2733.59
2734.91
2736.39
2738.09
2740.03
2742.11
2744.33
2746.64
2749.05
2751.52
2754.02
2756.43
2758.72
2761.04
2763.11
2764.99
2766.73
2768.39
2770.05
2771.79
2773.63
2775.59
2777.67
2779.89
2782.27
2784.64
2787.03
2789.41
2791.65
2793.7
2795.51
2797.15
2798.53
2799.64
2800.66
2801.38
2802.06
2802.68
2803.18
2803.38
2803.24
2802.04
2798.1
2785.9
2748.83
2796.31
2797.4
2797.98
2798.61
2799.03
2799.48
2799.79
2800.26
2800.96
2802.3
2804.18
2806.43
2807.99
2808.47
2808.25
2807.35
2805.77
2804.15
2803.03
2802.43
2802.15
2801.97
2801.79
2801.56
2801.25
2800.89
2800.49
2800.07
2799.61
2799.13
2798.62
2798.1
2797.54
2796.97
2796.34
2795.69
2794.99
2794.22
2793.35
2792.34
2791.16
2789.79
2788.26
2786.6
2784.87
2783.08
2781.18
2779.27
2777.23
2775.16
2773
2770.77
2768.52
2766.26
2764.02
2761.66
2759.28
2756.81
2754.22
2751.52
2748.7
2745.8
2742.9
2740.12
2737.43
2734.85
2732.55
2730.66
2729.26
2728.42
2728.11
2728.23
2728.88
2729.81
2730.93
2732.16
2733.28
2734.63
2736.14
2737.87
2739.85
2741.96
2744.19
2746.52
2748.93
2751.4
2753.89
2756.3
2758.59
2760.9
2762.95
2764.82
2766.57
2768.23
2769.9
2771.65
2773.5
2775.48
2777.57
2779.8
2782.18
2784.56
2786.95
2789.32
2791.55
2793.58
2795.36
2796.95
2798.29
2799.39
2800.34
2801
2801.61
2802.11
2802.46
2802.37
2801.94
2800.23
2795.39
2782.04
2744.29
2796.18
2797.27
2797.85
2798.47
2798.9
2799.35
2799.66
2800.13
2800.84
2802.2
2804.09
2806.36
2807.94
2808.44
2808.21
2807.32
2805.74
2804.1
2802.96
2802.35
2802.05
2801.86
2801.67
2801.43
2801.12
2800.75
2800.33
2799.9
2799.42
2798.94
2798.4
2797.87
2797.29
2796.7
2796.05
2795.37
2794.64
2793.84
2792.94
2791.91
2790.69
2789.29
2787.73
2786.04
2784.25
2782.43
2780.5
2778.52
2776.5
2774.35
2772.14
2769.91
2767.62
2765.33
2763.02
2760.64
2758.23
2755.73
2753.11
2750.41
2747.58
2744.67
2741.78
2739.01
2736.36
2733.83
2731.6
2729.8
2728.54
2727.81
2727.59
2727.8
2728.51
2729.48
2730.6
2731.83
2732.97
2734.34
2735.89
2737.66
2739.67
2741.8
2744.05
2746.39
2748.8
2751.27
2753.75
2756.15
2758.43
2760.73
2762.78
2764.65
2766.4
2768.07
2769.75
2771.51
2773.38
2775.37
2777.46
2779.71
2782.08
2784.48
2786.86
2789.23
2791.44
2793.44
2795.2
2796.76
2798.05
2799.11
2799.98
2800.58
2801.15
2801.51
2801.66
2801.32
2800.61
2798.33
2792.58
2778.12
2739.71
2796.04
2797.13
2797.71
2798.33
2798.76
2799.21
2799.52
2800
2800.72
2802.09
2803.99
2806.29
2807.89
2808.41
2808.18
2807.29
2805.71
2804.05
2802.89
2802.26
2801.95
2801.75
2801.55
2801.3
2800.98
2800.6
2800.17
2799.72
2799.23
2798.73
2798.18
2797.63
2797.03
2796.41
2795.74
2795.03
2794.27
2793.43
2792.5
2791.44
2790.19
2788.75
2787.16
2785.43
2783.62
2781.73
2779.8
2777.76
2775.66
2773.52
2771.27
2768.94
2766.6
2764.29
2761.96
2759.55
2757.1
2754.56
2751.92
2749.18
2746.34
2743.44
2740.59
2737.84
2735.24
2732.77
2730.62
2728.92
2727.77
2727.16
2727.01
2727.33
2728.12
2729.13
2730.26
2731.49
2732.65
2734.05
2735.64
2737.44
2739.49
2741.65
2743.92
2746.27
2748.68
2751.14
2753.61
2756.01
2758.29
2760.56
2762.6
2764.46
2766.21
2767.89
2769.59
2771.36
2773.25
2775.25
2777.35
2779.61
2781.98
2784.39
2786.76
2789.12
2791.32
2793.3
2795.02
2796.53
2797.77
2798.82
2799.61
2800.16
2800.64
2800.86
2800.83
2800.22
2799.2
2796.34
2789.65
2774.16
2735.27
2795.89
2796.98
2797.56
2798.18
2798.61
2799.06
2799.38
2799.87
2800.59
2801.97
2803.89
2806.21
2807.83
2808.36
2808.14
2807.26
2805.67
2804
2802.82
2802.17
2801.84
2801.63
2801.42
2801.16
2800.83
2800.44
2799.99
2799.53
2799.02
2798.51
2797.94
2797.37
2796.74
2796.09
2795.4
2794.66
2793.86
2792.99
2792.03
2790.93
2789.65
2788.17
2786.54
2784.77
2782.92
2781
2779.02
2776.96
2774.81
2772.58
2770.31
2767.97
2765.6
2763.21
2760.82
2758.39
2755.9
2753.35
2750.69
2747.96
2745.11
2742.2
2739.35
2736.63
2734.06
2731.68
2729.63
2728.04
2727.02
2726.54
2726.49
2726.91
2727.76
2728.78
2729.91
2731.13
2732.33
2733.76
2735.39
2737.23
2739.31
2741.49
2743.78
2746.13
2748.54
2751
2753.46
2755.84
2758.11
2760.37
2762.42
2764.26
2766.03
2767.71
2769.42
2771.21
2773.12
2775.12
2777.24
2779.5
2781.87
2784.3
2786.66
2789.01
2791.18
2793.13
2794.83
2796.31
2797.51
2798.5
2799.19
2799.71
2800.11
2800.2
2799.92
2799.1
2797.71
2794.25
2786.64
2770.14
2730.74
2795.74
2796.83
2797.41
2798.03
2798.45
2798.91
2799.23
2799.73
2800.46
2801.85
2803.79
2806.12
2807.77
2808.32
2808.1
2807.23
2805.63
2803.95
2802.74
2802.07
2801.73
2801.49
2801.28
2801.01
2800.67
2800.27
2799.81
2799.33
2798.81
2798.27
2797.69
2797.09
2796.43
2795.76
2795.02
2794.26
2793.42
2792.52
2791.52
2790.38
2789.05
2787.54
2785.86
2784.06
2782.16
2780.19
2778.18
2776.06
2773.91
2771.64
2769.28
2766.87
2764.47
2762.06
2759.64
2757.18
2754.64
2752.04
2749.35
2746.59
2743.72
2740.85
2738.06
2735.39
2732.87
2730.56
2728.59
2727.13
2726.25
2725.88
2725.91
2726.44
2727.34
2728.4
2729.55
2730.78
2732.01
2733.46
2735.13
2737.01
2739.13
2741.34
2743.64
2746
2748.41
2750.86
2753.3
2755.68
2757.96
2760.18
2762.21
2764.04
2765.81
2767.51
2769.24
2771.05
2772.97
2774.99
2777.12
2779.39
2781.77
2784.2
2786.56
2788.89
2791.03
2792.97
2794.62
2796.05
2797.18
2798.15
2798.78
2799.25
2799.5
2799.47
2798.98
2797.93
2796.14
2792.06
2783.54
2766.09
2726.37
2795.58
2796.67
2797.25
2797.87
2798.3
2798.75
2799.08
2799.58
2800.32
2801.73
2803.69
2806.04
2807.7
2808.27
2808.05
2807.19
2805.59
2803.89
2802.66
2801.97
2801.6
2801.35
2801.12
2800.85
2800.5
2800.09
2799.61
2799.11
2798.57
2798.02
2797.41
2796.78
2796.09
2795.38
2794.62
2793.82
2792.95
2792.01
2790.97
2789.78
2788.41
2786.86
2785.16
2783.3
2781.35
2779.33
2777.27
2775.11
2772.89
2770.61
2768.22
2765.78
2763.29
2760.82
2758.34
2755.84
2753.27
2750.67
2747.97
2745.22
2742.37
2739.49
2736.73
2734.1
2731.63
2729.4
2727.57
2726.26
2725.49
2725.25
2725.41
2726.03
2726.98
2728.05
2729.18
2730.39
2731.68
2733.16
2734.88
2736.81
2738.96
2741.18
2743.49
2745.85
2748.27
2750.71
2753.14
2755.49
2757.76
2759.96
2762.01
2763.83
2765.61
2767.31
2769.05
2770.89
2772.83
2774.85
2777
2779.27
2781.66
2784.09
2786.44
2788.75
2790.87
2792.78
2794.4
2795.79
2796.87
2797.79
2798.3
2798.75
2798.88
2798.75
2797.95
2796.73
2794.48
2789.79
2780.39
2761.96
2722.07
2795.42
2796.51
2797.08
2797.7
2798.13
2798.59
2798.92
2799.43
2800.18
2801.6
2803.58
2805.95
2807.64
2808.22
2808.01
2807.15
2805.55
2803.83
2802.58
2801.86
2801.46
2801.2
2800.96
2800.67
2800.31
2799.89
2799.4
2798.89
2798.32
2797.74
2797.11
2796.45
2795.73
2794.98
2794.18
2793.34
2792.44
2791.47
2790.38
2789.13
2787.72
2786.13
2784.37
2782.48
2780.49
2778.42
2776.31
2774.1
2771.82
2769.47
2767.04
2764.57
2762.06
2759.54
2757.02
2754.49
2751.88
2749.23
2746.51
2743.75
2740.9
2738.05
2735.32
2732.73
2730.32
2728.2
2726.52
2725.36
2724.75
2724.6
2724.86
2725.56
2726.54
2727.64
2728.77
2730.03
2731.35
2732.86
2734.63
2736.59
2738.78
2741.03
2743.35
2745.72
2748.13
2750.56
2752.96
2755.31
2757.58
2759.74
2761.77
2763.59
2765.37
2767.1
2768.86
2770.72
2772.67
2774.71
2776.87
2779.16
2781.54
2783.97
2786.31
2788.6
2790.69
2792.59
2794.18
2795.5
2796.49
2797.38
2797.83
2798.26
2798.21
2797.94
2796.88
2795.49
2792.74
2787.43
2777.19
2757.82
2717.58
2795.25
2796.33
2796.91
2797.53
2797.96
2798.42
2798.76
2799.27
2800.03
2801.47
2803.47
2805.86
2807.57
2808.17
2807.96
2807.12
2805.5
2803.77
2802.49
2801.74
2801.32
2801.04
2800.78
2800.49
2800.12
2799.68
2799.18
2798.64
2798.06
2797.45
2796.78
2796.09
2795.33
2794.56
2793.71
2792.84
2791.9
2790.88
2789.74
2788.44
2786.98
2785.34
2783.54
2781.6
2779.55
2777.43
2775.27
2773.02
2770.68
2768.28
2765.79
2763.25
2760.68
2758.13
2755.57
2753.01
2750.36
2747.69
2744.94
2742.16
2739.31
2736.51
2733.84
2731.33
2729.01
2727.01
2725.45
2724.46
2723.99
2723.97
2724.37
2725.15
2726.16
2727.26
2728.4
2729.64
2731.01
2732.56
2734.39
2736.39
2738.6
2740.87
2743.2
2745.57
2747.97
2750.39
2752.78
2755.12
2757.36
2759.5
2761.53
2763.37
2765.14
2766.87
2768.67
2770.57
2772.52
2774.57
2776.74
2779.03
2781.42
2783.84
2786.18
2788.44
2790.5
2792.37
2793.92
2795.18
2796.15
2796.98
2797.33
2797.7
2797.48
2797.06
2795.8
2794.18
2790.93
2784.97
2773.97
2753.75
2713.26
2795.07
2796.15
2796.72
2797.35
2797.78
2798.25
2798.59
2799.12
2799.89
2801.33
2803.36
2805.77
2807.5
2808.12
2807.92
2807.08
2805.46
2803.71
2802.39
2801.61
2801.17
2800.87
2800.6
2800.29
2799.9
2799.45
2798.93
2798.38
2797.77
2797.13
2796.43
2795.7
2794.91
2794.09
2793.21
2792.29
2791.3
2790.23
2789.04
2787.69
2786.18
2784.48
2782.63
2780.64
2778.55
2776.37
2774.15
2771.85
2769.45
2767
2764.46
2761.87
2759.25
2756.64
2754.03
2751.42
2748.74
2746.05
2743.31
2740.55
2737.74
2734.97
2732.35
2729.9
2727.67
2725.79
2724.4
2723.58
2723.25
2723.35
2723.86
2724.72
2725.73
2726.84
2727.98
2729.27
2730.7
2732.26
2734.15
2736.19
2738.43
2740.72
2743.06
2745.43
2747.83
2750.22
2752.59
2754.92
2757.15
2759.26
2761.27
2763.11
2764.89
2766.63
2768.43
2770.35
2772.33
2774.41
2776.62
2778.93
2781.32
2783.72
2786.04
2788.28
2790.32
2792.16
2793.66
2794.85
2795.76
2796.48
2796.78
2797.09
2796.76
2796.16
2794.68
2792.79
2789.08
2782.44
2770.69
2749.66
2709.27
2794.88
2795.96
2796.53
2797.16
2797.59
2798.06
2798.42
2798.95
2799.73
2801.2
2803.25
2805.68
2807.43
2808.07
2807.87
2807.04
2805.41
2803.64
2802.28
2801.47
2801.01
2800.69
2800.41
2800.08
2799.68
2799.2
2798.67
2798.09
2797.45
2796.78
2796.04
2795.27
2794.44
2793.59
2792.66
2791.7
2790.65
2789.52
2788.27
2786.87
2785.31
2783.56
2781.65
2779.6
2777.46
2775.23
2772.95
2770.59
2768.13
2765.62
2763.03
2760.38
2757.71
2755.05
2752.4
2749.76
2747.06
2744.36
2741.6
2738.83
2736.04
2733.32
2730.77
2728.42
2726.31
2724.58
2723.37
2722.71
2722.53
2722.75
2723.35
2724.26
2725.28
2726.4
2727.57
2728.89
2730.37
2732
2733.92
2736
2738.26
2740.56
2742.9
2745.28
2747.66
2750.05
2752.4
2754.7
2756.9
2759.01
2760.98
2762.82
2764.61
2766.41
2768.28
2770.18
2772.15
2774.25
2776.47
2778.78
2781.16
2783.55
2785.87
2788.07
2790.08
2791.87
2793.31
2794.43
2795.32
2796.06
2796.26
2796.44
2796
2795.16
2793.54
2791.32
2787.15
2779.83
2767.42
2745.54
2705.2
2794.68
2795.77
2796.33
2796.96
2797.39
2797.87
2798.23
2798.78
2799.58
2801.06
2803.14
2805.58
2807.36
2808.01
2807.82
2806.99
2805.35
2803.56
2802.17
2801.33
2800.84
2800.5
2800.19
2799.85
2799.43
2798.94
2798.38
2797.77
2797.1
2796.39
2795.61
2794.81
2793.94
2793.03
2792.06
2791.05
2789.94
2788.75
2787.44
2785.98
2784.36
2782.55
2780.59
2778.48
2776.28
2773.99
2771.64
2769.24
2766.72
2764.14
2761.49
2758.79
2756.07
2753.37
2750.68
2748
2745.27
2742.55
2739.8
2737.06
2734.3
2731.64
2729.17
2726.91
2724.92
2723.37
2722.35
2721.87
2721.83
2722.18
2722.88
2723.82
2724.84
2725.96
2727.15
2728.51
2730.03
2731.74
2733.7
2735.81
2738.09
2740.41
2742.75
2745.13
2747.5
2749.87
2752.19
2754.45
2756.62
2758.71
2760.68
2762.54
2764.34
2766.13
2767.99
2769.95
2771.97
2774.09
2776.32
2778.64
2781.02
2783.39
2785.7
2787.88
2789.87
2791.63
2793.03
2794.1
2794.91
2795.41
2795.64
2795.75
2795.23
2794.15
2792.36
2789.75
2785.17
2777.27
2764.21
2741.54
2701.15
2794.48
2795.56
2796.12
2796.75
2797.18
2797.67
2798.04
2798.6
2799.42
2800.92
2803.02
2805.48
2807.27
2807.95
2807.77
2806.94
2805.29
2803.47
2802.04
2801.18
2800.66
2800.29
2799.97
2799.6
2799.16
2798.65
2798.06
2797.42
2796.72
2795.97
2795.15
2794.3
2793.38
2792.43
2791.4
2790.33
2789.16
2787.9
2786.53
2785.01
2783.33
2781.46
2779.44
2777.27
2775.01
2772.66
2770.24
2767.77
2765.2
2762.54
2759.84
2757.08
2754.31
2751.57
2748.84
2746.12
2743.38
2740.66
2737.92
2735.2
2732.49
2729.89
2727.51
2725.37
2723.54
2722.18
2721.36
2721.05
2721.15
2721.62
2722.39
2723.36
2724.38
2725.51
2726.75
2728.18
2729.73
2731.49
2733.5
2735.65
2737.94
2740.27
2742.59
2744.96
2747.32
2749.67
2751.96
2754.21
2756.38
2758.46
2760.43
2762.29
2764.08
2765.87
2767.74
2769.74
2771.78
2773.93
2776.17
2778.49
2780.87
2783.22
2785.5
2787.64
2789.58
2791.27
2792.6
2793.61
2794.43
2794.85
2795.03
2794.99
2794.39
2793.05
2791.16
2788.15
2783.13
2774.6
2760.88
2737.63
2697.41
2794.25
2795.33
2795.9
2796.53
2796.96
2797.45
2797.84
2798.42
2799.26
2800.78
2802.9
2805.37
2807.18
2807.87
2807.7
2806.89
2805.22
2803.37
2801.91
2801.01
2800.46
2800.07
2799.72
2799.33
2798.87
2798.33
2797.72
2797.04
2796.3
2795.51
2794.65
2793.75
2792.78
2791.77
2790.69
2789.54
2788.31
2786.99
2785.54
2783.96
2782.2
2780.27
2778.19
2775.96
2773.63
2771.21
2768.73
2766.18
2763.56
2760.83
2758.06
2755.25
2752.43
2749.64
2746.87
2744.13
2741.39
2738.67
2735.95
2733.27
2730.61
2728.09
2725.82
2723.81
2722.17
2721.01
2720.39
2720.26
2720.5
2721.08
2721.92
2722.89
2723.93
2725.06
2726.33
2727.8
2729.42
2731.24
2733.28
2735.45
2737.76
2740.1
2742.46
2744.82
2747.16
2749.49
2751.77
2753.96
2756.07
2758.1
2760.05
2761.93
2763.76
2765.59
2767.5
2769.53
2771.59
2773.76
2776.01
2778.35
2780.71
2783.05
2785.3
2787.4
2789.3
2790.93
2792.19
2793.14
2793.92
2794.23
2794.4
2794.2
2793.51
2791.93
2789.93
2786.5
2781.03
2771.91
2757.62
2733.82
2693.74
2794.02
2795.1
2795.67
2796.3
2796.73
2797.23
2797.63
2798.23
2799.09
2800.63
2802.78
2805.25
2807.09
2807.79
2807.64
2806.83
2805.15
2803.27
2801.77
2800.83
2800.23
2799.82
2799.44
2799.04
2798.55
2797.99
2797.34
2796.63
2795.84
2795.01
2794.1
2793.15
2792.12
2791.05
2789.9
2788.69
2787.38
2785.98
2784.46
2782.8
2780.97
2778.98
2776.83
2774.53
2772.14
2769.65
2767.09
2764.46
2761.79
2758.99
2756.16
2753.29
2750.41
2747.59
2744.79
2742.03
2739.29
2736.58
2733.89
2731.26
2728.66
2726.25
2724.1
2722.26
2720.82
2719.87
2719.46
2719.49
2719.87
2720.55
2721.43
2722.42
2723.46
2724.62
2725.96
2727.47
2729.15
2731.03
2733.09
2735.29
2737.6
2739.94
2742.28
2744.63
2746.95
2749.23
2751.48
2753.67
2755.77
2757.78
2759.72
2761.6
2763.45
2765.3
2767.24
2769.31
2771.39
2773.58
2775.85
2778.19
2780.55
2782.86
2785.08
2787.15
2789
2790.57
2791.77
2792.66
2793.37
2793.59
2793.72
2793.38
2792.57
2790.79
2788.61
2784.79
2778.87
2769.25
2754.3
2730.16
2690.29
2793.78
2794.85
2795.42
2796.05
2796.49
2797
2797.42
2798.03
2798.91
2800.48
2802.65
2805.12
2806.99
2807.71
2807.57
2806.76
2805.07
2803.16
2801.61
2800.63
2799.99
2799.55
2799.14
2798.71
2798.21
2797.61
2796.93
2796.17
2795.34
2794.46
2793.5
2792.49
2791.39
2790.26
2789.03
2787.75
2786.36
2784.88
2783.27
2781.53
2779.63
2777.56
2775.34
2772.98
2770.51
2767.95
2765.31
2762.61
2759.88
2757.01
2754.1
2751.19
2748.27
2745.4
2742.58
2739.82
2737.08
2734.4
2731.75
2729.19
2726.67
2724.37
2722.37
2720.72
2719.49
2718.77
2718.57
2718.75
2719.26
2720.03
2720.94
2721.94
2723
2724.19
2725.55
2727.12
2728.86
2730.8
2732.9
2735.12
2737.45
2739.79
2742.13
2744.46
2746.76
2749.02
2751.24
2753.39
2755.46
2757.45
2759.37
2761.25
2763.12
2765.01
2766.98
2769.08
2771.19
2773.41
2775.7
2778.04
2780.38
2782.67
2784.85
2786.87
2788.66
2790.17
2791.32
2792.16
2792.77
2792.91
2792.99
2792.54
2791.56
2789.62
2787.24
2783.04
2776.65
2766.61
2751.08
2726.58
2687.04
2793.52
2794.59
2795.17
2795.8
2796.24
2796.77
2797.19
2797.83
2798.74
2800.33
2802.51
2805
2806.88
2807.63
2807.49
2806.69
2804.98
2803.03
2801.43
2800.41
2799.73
2799.25
2798.81
2798.35
2797.82
2797.19
2796.47
2795.67
2794.79
2793.85
2792.83
2791.75
2790.59
2789.37
2788.07
2786.71
2785.23
2783.66
2781.97
2780.14
2778.16
2776.02
2773.72
2771.29
2768.74
2766.1
2763.39
2760.61
2757.8
2754.88
2751.9
2748.94
2745.97
2743.08
2740.24
2737.48
2734.77
2732.12
2729.54
2727.05
2724.63
2722.47
2720.65
2719.21
2718.21
2717.73
2717.71
2718.05
2718.69
2719.51
2720.45
2721.45
2722.54
2723.78
2725.19
2726.82
2728.62
2730.61
2732.73
2734.97
2737.29
2739.64
2741.97
2744.28
2746.55
2748.78
2750.95
2753.07
2755.11
2757.08
2759
2760.89
2762.79
2764.71
2766.73
2768.85
2770.99
2773.24
2775.54
2777.88
2780.19
2782.45
2784.59
2786.57
2788.29
2789.75
2790.84
2791.62
2792.13
2792.2
2792.2
2791.66
2790.49
2788.43
2785.78
2781.27
2774.38
2763.94
2747.88
2723.14
2684
2793.25
2794.32