/*--------------------------------*- C++ -*----------------------------------*\
| =========                 |                                                 |
| \\      /  F ield         | OpenFOAM: The Open Source CFD Toolbox           |
|  \\    /   O peration     | Version:  2412                                  |
|   \\  /    A nd           | Website:  www.openfoam.com                      |
|    \\/     M anipulation  |                                                 |
\*---------------------------------------------------------------------------*/
FoamFile
{
    version     2.0;
    format      ascii;
    arch        "LSB;label=32;scalar=64";
    class       volScalarField;
    location    "0.019";
    object      rho;
}
// * * * * * * * * * * * * * * * * * * * * * * * * * * * * * * * * * * * * * //

dimensions      [1 -3 0 0 0 0 0];

internalField   nonuniform List<scalar> 
78650
(
0.042133
0.042133
0.042133
0.042133
0.042133
0.042133
0.042133
0.042133
0.042133
0.042133
0.042133
0.042133
0.042133
0.042133
0.042133
0.042133
0.042133
0.042133
0.042133
0.042133
0.0421335
0.0421445
0.0422351
0.0424955
0.042796
0.042956
0.0429707
0.0429433
0.0428123
0.0426523
0.0425175
0.0424001
0.0422871
0.0421724
0.0420621
0.0419766
0.0419354
0.041923
0.041921
0.0419234
0.0419128
0.0418807
0.0418408
0.0418139
0.0417973
0.0417852
0.0417723
0.0417562
0.0417372
0.0417191
0.041703
0.0416878
0.0416731
0.0416596
0.0416479
0.0416387
0.0416318
0.0416264
0.0416218
0.0416175
0.0416132
0.0416086
0.0416031
0.0415963
0.0415879
0.041578
0.0415665
0.0415528
0.0415365
0.0415163
0.0414915
0.0414615
0.0414256
0.0413835
0.0413345
0.0412776
0.0412118
0.0411358
0.0410486
0.040949
0.0408358
0.0407072
0.040562
0.0403982
0.0402146
0.0400093
0.03978
0.0395243
0.03924
0.0389268
0.0385825
0.0382084
0.0377983
0.0373543
0.0368703
0.0363511
0.0357935
0.0351978
0.0345644
0.0338982
0.0332103
0.0324984
0.0317819
0.0310391
0.030302
0.0295321
0.0287824
0.0280954
0.027447
0.0268575
0.0262486
0.0256587
0.0251517
0.0246589
0.0241765
0.0237077
0.0232972
0.0229391
0.0226142
0.0223237
0.0218044
0.042133
0.042133
0.042133
0.042133
0.042133
0.042133
0.042133
0.042133
0.042133
0.042133
0.042133
0.042133
0.042133
0.042133
0.042133
0.042133
0.042133
0.042133
0.042133
0.042133
0.0421332
0.0421395
0.042204
0.042433
0.0427505
0.0429492
0.0429839
0.0429681
0.0428606
0.0427043
0.0425645
0.0424433
0.0423289
0.042214
0.0421023
0.0420128
0.0419665
0.0419541
0.0419542
0.0419598
0.0419548
0.04193
0.0418925
0.0418648
0.041848
0.0418366
0.0418256
0.0418117
0.0417944
0.0417774
0.0417626
0.041749
0.0417364
0.0417249
0.0417154
0.0417087
0.0417044
0.041702
0.0417008
0.0417
0.0416994
0.0416988
0.0416976
0.0416953
0.0416918
0.041687
0.0416808
0.041673
0.041663
0.0416499
0.0416327
0.0416109
0.0415838
0.0415512
0.0415126
0.0414671
0.0414136
0.0413511
0.0412786
0.0411948
0.0410989
0.0409892
0.0408644
0.0407226
0.0405623
0.0403817
0.0401788
0.0399521
0.0396994
0.0394199
0.0391108
0.0387713
0.0383957
0.0379858
0.0375375
0.0370549
0.0365349
0.0359793
0.035389
0.0347658
0.03411
0.0334225
0.0327239
0.0319933
0.031263
0.0305176
0.0297587
0.0290385
0.0283046
0.0275961
0.0269497
0.026312
0.0257332
0.0251965
0.0246909
0.0242105
0.0237625
0.0233316
0.0229321
0.0225637
0.0219634
0.042133
0.042133
0.042133
0.042133
0.042133
0.042133
0.042133
0.042133
0.042133
0.042133
0.042133
0.042133
0.042133
0.042133
0.042133
0.042133
0.042133
0.042133
0.042133
0.042133
0.0421331
0.0421364
0.0421799
0.042372
0.0426946
0.0429334
0.0429918
0.0429902
0.0429081
0.0427575
0.0426117
0.0424856
0.0423699
0.0422556
0.0421436
0.042051
0.0419997
0.0419864
0.0419887
0.0419976
0.0419973
0.0419793
0.0419447
0.0419163
0.0418993
0.0418886
0.0418793
0.0418676
0.041852
0.0418362
0.0418227
0.0418109
0.0418003
0.041791
0.041784
0.0417798
0.0417783
0.0417789
0.041781
0.0417837
0.0417868
0.0417902
0.0417932
0.0417954
0.0417966
0.0417968
0.041796
0.0417938
0.04179
0.0417837
0.0417738
0.04176
0.0417415
0.041718
0.0416892
0.0416544
0.0416126
0.0415628
0.041504
0.0414351
0.0413551
0.0412626
0.0411565
0.0410348
0.040896
0.0407388
0.0405615
0.0403623
0.0401389
0.0398895
0.0396109
0.0393016
0.0389575
0.0385804
0.0381664
0.0377171
0.0372285
0.0367027
0.0361395
0.0355376
0.0348993
0.0342259
0.0335286
0.0328174
0.0320826
0.0313759
0.0306168
0.0298583
0.029117
0.0283543
0.0276585
0.0269666
0.0263112
0.025718
0.0251513
0.0246222
0.0241301
0.0236502
0.0232004
0.0227898
0.0220826
0.042133
0.042133
0.042133
0.042133
0.042133
0.042133
0.042133
0.042133
0.042133
0.042133
0.042133
0.042133
0.042133
0.042133
0.042133
0.042133
0.042133
0.042133
0.042133
0.042133
0.0421331
0.0421347
0.0421618
0.0423138
0.0426286
0.0429061
0.0429962
0.0430127
0.0429542
0.0428124
0.0426598
0.0425286
0.0424121
0.0422994
0.042188
0.042093
0.0420358
0.0420208
0.0420241
0.0420368
0.042041
0.0420283
0.0419969
0.0419683
0.0419511
0.041941
0.0419331
0.0419236
0.0419099
0.0418954
0.0418833
0.0418734
0.041865
0.041858
0.0418533
0.0418516
0.0418528
0.0418565
0.0418616
0.0418677
0.0418744
0.0418816
0.0418886
0.0418952
0.0419009
0.0419059
0.0419101
0.0419134
0.0419153
0.0419154
0.0419126
0.0419065
0.0418962
0.0418815
0.0418621
0.0418375
0.0418069
0.0417693
0.0417238
0.0416693
0.041605
0.0415296
0.0414419
0.0413404
0.0412236
0.0410899
0.0409377
0.0407652
0.0405698
0.0403496
0.0401016
0.0398249
0.0395168
0.0391782
0.0388051
0.0383972
0.037951
0.0374668
0.0369433
0.0363785
0.0357734
0.0351302
0.0344412
0.0337316
0.0329797
0.0322223
0.0314613
0.0306672
0.029931
0.0291592
0.0284112
0.0277051
0.0269849
0.026325
0.0256996
0.0251382
0.024616
0.0240926
0.0235943
0.0231316
0.0223142
0.042133
0.042133
0.042133
0.042133
0.042133
0.042133
0.042133
0.042133
0.042133
0.042133
0.042133
0.042133
0.042133
0.042133
0.042133
0.042133
0.042133
0.042133
0.042133
0.042133
0.0421331
0.0421338
0.0421493
0.0422617
0.0425541
0.0428659
0.0429972
0.0430337
0.0429955
0.0428662
0.0427081
0.0425726
0.0424562
0.0423455
0.0422352
0.0421379
0.0420747
0.0420571
0.0420608
0.0420767
0.0420855
0.0420771
0.0420497
0.0420213
0.0420037
0.041994
0.0419876
0.0419803
0.0419688
0.0419558
0.0419452
0.0419373
0.0419312
0.0419266
0.0419244
0.0419252
0.0419292
0.0419355
0.0419438
0.0419532
0.0419635
0.0419743
0.0419854
0.0419961
0.0420063
0.0420159
0.042025
0.0420336
0.0420412
0.0420472
0.042051
0.0420522
0.0420499
0.0420437
0.0420334
0.0420184
0.0419984
0.0419722
0.0419393
0.0418983
0.0418485
0.0417889
0.0417183
0.0416352
0.0415383
0.0414261
0.0412969
0.0411492
0.0409808
0.04079
0.0405742
0.0403327
0.0400628
0.039764
0.0394314
0.0390642
0.0386587
0.0382145
0.0377303
0.0372052
0.0366407
0.036036
0.0353937
0.0347134
0.0340004
0.0332244
0.0324608
0.031649
0.0308486
0.0300766
0.0292638
0.0285247
0.0277729
0.0270662
0.026379
0.0257285
0.0251446
0.0245784
0.0240514
0.0235666
0.0226884
0.042133
0.042133
0.042133
0.042133
0.042133
0.042133
0.042133
0.042133
0.042133
0.042133
0.042133
0.042133
0.042133
0.042133
0.042133
0.042133
0.042133
0.042133
0.042133
0.042133
0.042133
0.0421333
0.0421413
0.0422179
0.0424735
0.0428109
0.0429942
0.0430533
0.0430282
0.0429189
0.0427595
0.0426207
0.0425042
0.042395
0.042286
0.0421866
0.0421177
0.0420959
0.0420987
0.0421166
0.0421299
0.0421255
0.0421027
0.0420749
0.0420568
0.0420473
0.0420423
0.0420375
0.0420287
0.0420176
0.0420086
0.0420027
0.0419989
0.0419971
0.0419973
0.0420007
0.042007
0.0420161
0.0420274
0.0420401
0.0420537
0.0420681
0.042083
0.0420978
0.0421122
0.0421262
0.04214
0.0421535
0.0421665
0.0421785
0.0421887
0.0421965
0.0422015
0.0422034
0.0422019
0.0421964
0.0421867
0.0421713
0.0421504
0.0421224
0.0420869
0.0420427
0.0419888
0.041924
0.0418469
0.0417561
0.0416501
0.0415274
0.0413859
0.0412239
0.0410388
0.0408292
0.0405921
0.0403259
0.0400261
0.0396924
0.0393216
0.038913
0.0384649
0.0379764
0.0374483
0.0368773
0.036264
0.0356122
0.0349362
0.0342196
0.0334624
0.0326875
0.0318617
0.0310671
0.0302099
0.029383
0.0285805
0.0278011
0.027076
0.0263555
0.0256728
0.0250199
0.0244281
0.0239074
0.0229915
0.042133
0.042133
0.042133
0.042133
0.042133
0.042133
0.042133
0.042133
0.042133
0.042133
0.042133
0.042133
0.042133
0.042133
0.042133
0.042133
0.042133
0.042133
0.042133
0.042133
0.042133
0.0421331
0.0421368
0.0421843
0.0423924
0.0427395
0.0429807
0.0430679
0.0430527
0.0429696
0.0428153
0.042673
0.0425548
0.0424463
0.042339
0.0422384
0.0421644
0.0421364
0.042137
0.0421551
0.0421739
0.0421734
0.0421559
0.0421289
0.0421099
0.0421006
0.0420973
0.0420955
0.04209
0.0420811
0.042074
0.0420701
0.0420688
0.0420696
0.0420724
0.042078
0.0420869
0.0420988
0.0421129
0.0421287
0.0421456
0.0421635
0.042182
0.0422008
0.0422193
0.0422376
0.0422559
0.0422742
0.0422923
0.0423099
0.0423262
0.0423407
0.0423529
0.0423623
0.0423688
0.042372
0.0423721
0.0423673
0.0423578
0.0423421
0.0423197
0.0422897
0.0422512
0.0422031
0.0421441
0.0420729
0.0419881
0.0418883
0.0417717
0.0416365
0.0414803
0.0413017
0.0410977
0.040867
0.0406058
0.0403137
0.0399868
0.0396235
0.0392219
0.0387791
0.0382927
0.0377597
0.0371825
0.0365626
0.0358968
0.0351933
0.0344224
0.0336644
0.0328533
0.0320383
0.0312102
0.0303639
0.0295466
0.0286902
0.0278967
0.0271283
0.0263879
0.0256806
0.0250032
0.0243826
0.0232574
0.042133
0.042133
0.042133
0.042133
0.042133
0.042133
0.042133
0.042133
0.042133
0.042133
0.042133
0.042133
0.042133
0.042133
0.042133
0.042133
0.042133
0.042133
0.042133
0.042133
0.042133
0.0421331
0.0421346
0.042161
0.0423167
0.0426522
0.0429498
0.0430737
0.0430721
0.0430193
0.0428762
0.0427294
0.042608
0.0425004
0.0423956
0.0422944
0.042215
0.0421779
0.0421745
0.0421915
0.0422167
0.0422211
0.042208
0.0421825
0.042163
0.0421543
0.0421531
0.0421548
0.0421525
0.0421465
0.0421413
0.0421393
0.0421407
0.0421441
0.0421494
0.0421576
0.0421688
0.0421832
0.0422001
0.0422188
0.0422388
0.0422599
0.042282
0.0423045
0.042327
0.0423494
0.0423718
0.0423946
0.0424176
0.0424405
0.0424627
0.0424834
0.0425024
0.0425192
0.0425337
0.0425452
0.0425538
0.0425591
0.0425605
0.0425566
0.0425472
0.0425311
0.0425076
0.0424758
0.0424345
0.0423826
0.0423188
0.0422415
0.0421494
0.0420405
0.0419127
0.0417642
0.0415924
0.041396
0.0411718
0.0409188
0.0406331
0.040313
0.0399563
0.0395591
0.0391194
0.038635
0.038108
0.0375352
0.0369096
0.0362363
0.0355304
0.0347674
0.0339722
0.0331056
0.0322865
0.0313988
0.0305532
0.0296789
0.0288202
0.0279983
0.0271929
0.0264426
0.0257446
0.0251124
0.0239744
0.042133
0.042133
0.042133
0.042133
0.042133
0.042133
0.042133
0.042133
0.042133
0.042133
0.042133
0.042133
0.042133
0.042133
0.042133
0.042133
0.042133
0.042133
0.042133
0.042133
0.042133
0.0421331
0.0421336
0.0421466
0.0422524
0.0425541
0.0428962
0.0430706
0.0430928
0.0430642
0.042937
0.0427879
0.0426641
0.0425575
0.0424546
0.0423524
0.0422669
0.0422193
0.0422106
0.0422254
0.042257
0.0422676
0.0422589
0.0422363
0.042217
0.0422094
0.0422101
0.0422156
0.0422164
0.0422133
0.0422104
0.0422104
0.0422146
0.0422206
0.0422286
0.0422391
0.0422527
0.0422694
0.0422889
0.0423105
0.0423335
0.0423577
0.0423831
0.0424092
0.0424355
0.0424618
0.0424884
0.0425154
0.0425431
0.042571
0.0425987
0.0426255
0.0426509
0.0426747
0.0426965
0.0427162
0.0427336
0.0427481
0.042759
0.042766
0.0427685
0.0427655
0.042756
0.0427394
0.0427143
0.04268
0.0426351
0.0425786
0.0425089
0.0424245
0.0423233
0.0422037
0.0420633
0.0419007
0.0417129
0.0414982
0.0412528
0.0409748
0.0406606
0.0403063
0.0399111
0.0394729
0.0389896
0.0384566
0.0378755
0.0372529
0.0365797
0.0358535
0.0350832
0.0342635
0.0334296
0.0325319
0.0316025
0.0306977
0.0297645
0.0288821
0.0279741
0.0271165
0.0262968
0.0255708
0.0242005
0.042133
0.042133
0.042133
0.042133
0.042133
0.042133
0.042133
0.042133
0.042133
0.042133
0.042133
0.042133
0.042133
0.042133
0.042133
0.042133
0.042133
0.042133
0.042133
0.042133
0.042133
0.042133
0.0421332
0.0421388
0.0422031
0.0424527
0.0428194
0.0430564
0.0431122
0.0430979
0.0429968
0.0428515
0.0427252
0.0426174
0.0425138
0.0424097
0.0423182
0.0422603
0.0422459
0.0422578
0.0422952
0.0423138
0.0423096
0.0422918
0.0422736
0.0422664
0.0422682
0.0422776
0.0422822
0.0422818
0.0422812
0.0422837
0.0422901
0.0422991
0.0423096
0.0423224
0.0423381
0.042357
0.0423788
0.0424031
0.042429
0.0424562
0.0424846
0.042514
0.042544
0.0425741
0.0426045
0.0426355
0.0426675
0.0427001
0.042733
0.0427655
0.0427971
0.0428275
0.0428564
0.0428837
0.0429091
0.0429325
0.0429532
0.0429706
0.042984
0.0429929
0.0429968
0.0429951
0.042986
0.0429692
0.0429426
0.0429063
0.0428583
0.0427976
0.042722
0.04263
0.0425193
0.0423882
0.0422341
0.0420552
0.0418479
0.0416103
0.0413386
0.04103
0.040684
0.0402953
0.0398607
0.0393768
0.0388452
0.0382657
0.0376272
0.0369351
0.0361958
0.0354204
0.0345705
0.0337095
0.0327805
0.0318941
0.0309354
0.0300371
0.029083
0.0281805
0.0272905
0.0264742
0.0249217
0.042133
0.042133
0.042133
0.042133
0.042133
0.042133
0.042133
0.042133
0.042133
0.042133
0.042133
0.042133
0.042133
0.042133
0.042133
0.042133
0.042133
0.042133
0.042133
0.042133
0.042133
0.042133
0.0421331
0.0421352
0.0421696
0.042357
0.0427236
0.043025
0.0431189
0.043124
0.0430566
0.0429202
0.0427882
0.0426751
0.0425695
0.0424649
0.0423696
0.0423028
0.0422821
0.0422902
0.0423307
0.0423597
0.0423612
0.0423493
0.0423324
0.0423252
0.0423274
0.0423402
0.0423497
0.0423525
0.0423544
0.0423588
0.0423676
0.0423792
0.0423922
0.042407
0.0424247
0.0424456
0.0424697
0.0424965
0.0425252
0.0425552
0.0425866
0.0426192
0.0426525
0.0426863
0.0427204
0.0427553
0.0427913
0.0428284
0.0428662
0.0429041
0.0429415
0.0429782
0.0430138
0.0430482
0.0430814
0.043113
0.0431426
0.0431697
0.0431938
0.0432142
0.04323
0.0432408
0.0432461
0.0432456
0.0432362
0.0432187
0.0431904
0.0431514
0.0430995
0.0430333
0.0429508
0.0428504
0.0427295
0.0425865
0.0424181
0.0422223
0.0419953
0.041735
0.0414387
0.0411003
0.0407181
0.0402902
0.0398151
0.0392868
0.0386991
0.0380617
0.0373654
0.0366082
0.0357949
0.0349226
0.0340194
0.033066
0.0320918
0.0310999
0.0301153
0.0291582
0.0282284
0.0273896
0.0258551
0.042133
0.042133
0.042133
0.042133
0.042133
0.042133
0.042133
0.042133
0.042133
0.042133
0.042133
0.042133
0.042133
0.042133
0.042133
0.042133
0.042133
0.042133
0.042133
0.042133
0.042133
0.042133
0.0421331
0.0421337
0.0421498
0.0422759
0.0426128
0.0429697
0.0431151
0.0431515
0.043113
0.0429889
0.0428483
0.0427295
0.0426236
0.0425206
0.0424232
0.042349
0.0423206
0.042324
0.0423638
0.0424055
0.0424151
0.0424081
0.0423931
0.0423858
0.0423886
0.0424042
0.0424187
0.0424253
0.0424296
0.0424359
0.0424465
0.0424603
0.0424755
0.0424923
0.0425119
0.0425347
0.0425609
0.04259
0.0426212
0.0426539
0.042688
0.0427236
0.0427601
0.0427973
0.0428349
0.0428735
0.0429133
0.0429546
0.0429969
0.0430398
0.0430828
0.0431253
0.0431672
0.0432085
0.0432488
0.0432882
0.0433262
0.0433624
0.0433964
0.0434275
0.0434553
0.0434791
0.0434978
0.043511
0.0435181
0.043519
0.0435102
0.0434923
0.0434629
0.0434212
0.0433652
0.0432933
0.0432033
0.0430935
0.042961
0.0428039
0.0426185
0.0424025
0.0421523
0.0418626
0.041533
0.0411593
0.0407375
0.0402611
0.0397285
0.039145
0.0384989
0.0377918
0.0370189
0.0361906
0.0353273
0.0343578
0.0333687
0.0322929
0.0312647
0.0301876
0.0291183
0.0281503
0.0263121
0.042133
0.042133
0.042133
0.042133
0.042133
0.042133
0.042133
0.042133
0.042133
0.042133
0.042133
0.042133
0.042133
0.042133
0.042133
0.042133
0.042133
0.042133
0.042133
0.042133
0.042133
0.042133
0.042133
0.0421332
0.0421398
0.042215
0.0424966
0.0428895
0.0431051
0.0431771
0.0431541
0.0430514
0.0429073
0.0427846
0.042679
0.0425778
0.0424788
0.0423983
0.0423605
0.0423587
0.0423953
0.0424502
0.0424704
0.0424677
0.0424557
0.0424486
0.0424516
0.0424691
0.0424884
0.0424992
0.0425061
0.042514
0.042526
0.0425418
0.042559
0.0425777
0.042599
0.0426236
0.0426517
0.042683
0.0427166
0.0427519
0.0427887
0.042827
0.0428667
0.0429071
0.0429482
0.0429903
0.0430337
0.0430789
0.0431256
0.0431732
0.0432213
0.0432694
0.0433173
0.0433649
0.043412
0.0434586
0.0435045
0.0435492
0.0435923
0.0436334
0.0436718
0.0437071
0.0437387
0.0437659
0.0437874
0.043803
0.0438118
0.0438136
0.0438051
0.0437865
0.0437552
0.0437103
0.0436498
0.043572
0.0434743
0.0433549
0.0432102
0.0430375
0.042833
0.042593
0.0423163
0.0419966
0.0416299
0.0412119
0.0407431
0.0402201
0.039629
0.0389775
0.0382615
0.0374865
0.0366402
0.0357329
0.0347674
0.0337436
0.0326982
0.0316581
0.0305941
0.0295765
0.0276319
0.042133
0.042133
0.042133
0.042133
0.042133
0.042133
0.042133
0.042133
0.042133
0.042133
0.042133
0.042133
0.042133
0.042133
0.042133
0.042133
0.042133
0.042133
0.042133
0.042133
0.042133
0.042133
0.042133
0.0421331
0.0421354
0.042175
0.0423875
0.0427869
0.0430829
0.0431908
0.0431818
0.0431088
0.0429692
0.0428428
0.0427356
0.0426347
0.0425346
0.0424496
0.0424027
0.0423959
0.0424276
0.0424936
0.042527
0.0425288
0.04252
0.0425128
0.0425154
0.0425341
0.0425579
0.0425731
0.0425828
0.0425922
0.0426053
0.0426225
0.0426416
0.042662
0.0426849
0.0427113
0.0427412
0.0427744
0.0428103
0.0428481
0.0428875
0.0429285
0.042971
0.0430147
0.0430591
0.0431045
0.0431514
0.0432002
0.0432509
0.0433029
0.0433558
0.0434091
0.0434625
0.043516
0.0435695
0.0436229
0.043676
0.0437286
0.0437802
0.0438306
0.0438791
0.0439253
0.0439687
0.0440086
0.0440444
0.0440755
0.0441005
0.044119
0.0441301
0.0441333
0.0441255
0.044106
0.0440728
0.0440244
0.0439587
0.0438739
0.0437671
0.0436356
0.043476
0.0432851
0.0430601
0.0427937
0.0424842
0.0421275
0.041721
0.0412562
0.0407244
0.040133
0.0394711
0.0387434
0.0379352
0.0370532
0.0361028
0.0350879
0.0339614
0.0328139
0.0316494
0.0305975
0.0286198
0.042133
0.042133
0.042133
0.042133
0.042133
0.042133
0.042133
0.042133
0.042133
0.042133
0.042133
0.042133
0.042133
0.042133
0.042133
0.042133
0.042133
0.042133
0.042133
0.042133
0.042133
0.042133
0.042133
0.0421331
0.0421338
0.0421521
0.0422966
0.0426697
0.0430362
0.0431925
0.0432032
0.043162
0.0430333
0.0429008
0.04279
0.0426894
0.0425905
0.0425027
0.042448
0.0424363
0.0424611
0.042534
0.0425819
0.0425895
0.042583
0.0425757
0.0425777
0.0425971
0.0426251
0.0426449
0.0426575
0.0426684
0.0426823
0.0427007
0.0427216
0.0427438
0.0427684
0.0427964
0.0428282
0.0428634
0.0429015
0.0429419
0.0429839
0.0430275
0.0430729
0.0431197
0.0431674
0.0432161
0.0432663
0.0433186
0.043373
0.0434292
0.0434866
0.0435448
0.0436034
0.0436625
0.0437219
0.0437816
0.0438414
0.0439013
0.0439608
0.0440196
0.0440773
0.0441335
0.0441877
0.0442393
0.0442877
0.0443323
0.0443725
0.0444075
0.044436
0.0444573
0.0444704
0.0444747
0.0444675
0.0444472
0.0444122
0.0443604
0.0442895
0.0441971
0.0440799
0.0439346
0.0437577
0.0435438
0.0432923
0.0429971
0.0426529
0.0422517
0.0417919
0.0412748
0.0406833
0.0400209
0.0392799
0.0384745
0.0375901
0.0366155
0.0355694
0.0344285
0.0331901
0.0320256
0.0298306
0.042133
0.042133
0.042133
0.042133
0.042133
0.042133
0.042133
0.042133
0.042133
0.042133
0.042133
0.042133
0.042133
0.042133
0.042133
0.042133
0.042133
0.042133
0.042133
0.042133
0.042133
0.042133
0.042133
0.042133
0.0421332
0.0421408
0.0422293
0.0425496
0.0429628
0.0431825
0.043228
0.0432061
0.0430925
0.0429556
0.0428423
0.0427438
0.0426477
0.042558
0.0424959
0.0424776
0.0424941
0.0425687
0.0426315
0.0426468
0.0426427
0.0426362
0.0426378
0.0426572
0.0426889
0.0427132
0.0427288
0.0427413
0.0427559
0.0427755
0.0427982
0.0428223
0.0428488
0.0428786
0.0429122
0.0429495
0.0429898
0.0430327
0.0430773
0.0431236
0.0431718
0.0432216
0.0432725
0.0433244
0.0433778
0.0434334
0.0434912
0.0435512
0.0436127
0.0436754
0.0437389
0.0438031
0.0438679
0.0439334
0.0439995
0.044066
0.0441327
0.0441993
0.0442655
0.0443309
0.044395
0.0444574
0.0445176
0.0445749
0.0446289
0.0446789
0.044724
0.0447636
0.0447961
0.0448205
0.0448359
0.0448416
0.044835
0.0448136
0.044776
0.0447195
0.0446421
0.0445404
0.0444111
0.0442498
0.0440544
0.0438167
0.0435324
0.0431958
0.0428051
0.0423529
0.0418261
0.0412305
0.0405543
0.0398014
0.0389541
0.0380201
0.0369888
0.0358892
0.0346495
0.0335444
0.0315393
0.042133
0.042133
0.042133
0.042133
0.042133
0.042133
0.042133
0.042133
0.042133
0.042133
0.042133
0.042133
0.042133
0.042133
0.042133
0.042133
0.042133
0.042133
0.042133
0.042133
0.042133
0.042133
0.042133
0.042133
0.0421331
0.0421359
0.042185
0.042438
0.0428703
0.0431622
0.0432477
0.0432356
0.0431447
0.0430096
0.0428955
0.0427989
0.0427044
0.0426115
0.0425416
0.0425155
0.0425246
0.0425964
0.0426744
0.0427004
0.0426993
0.0426942
0.0426951
0.0427137
0.0427481
0.0427769
0.0427957
0.0428099
0.0428254
0.0428461
0.0428707
0.0428969
0.0429253
0.0429571
0.0429926
0.0430318
0.0430745
0.0431198
0.0431671
0.0432162
0.0432672
0.04332
0.043374
0.0434291
0.0434856
0.0435442
0.0436054
0.0436689
0.0437343
0.0438012
0.0438692
0.0439381
0.044008
0.0440789
0.0441507
0.0442234
0.0442967
0.0443704
0.0444443
0.044518
0.0445911
0.0446633
0.044734
0.0448028
0.0448692
0.0449327
0.0449925
0.045048
0.0450982
0.0451423
0.0451789
0.0452066
0.0452246
0.0452319
0.0452262
0.0452039
0.0451639
0.0451022
0.0450166
0.0449027
0.0447577
0.0445742
0.0443509
0.0440812
0.0437602
0.0433784
0.0429295
0.0424146
0.0418186
0.0411407
0.0403658
0.0395023
0.0385322
0.0374477
0.036242
0.0349867
0.0328299
0.042133
0.042133
0.042133
0.042133
0.042133
0.042133
0.042133
0.042133
0.042133
0.042133
0.042133
0.042133
0.042133
0.042133
0.042133
0.042133
0.042133
0.042133
0.042133
0.042133
0.042133
0.042133
0.042133
0.042133
0.0421331
0.042134
0.0421591
0.0423442
0.0427673
0.0431303
0.0432544
0.0432561
0.0431931
0.0430655
0.0429494
0.0428511
0.0427551
0.042659
0.0425833
0.0425501
0.0425535
0.0426202
0.0427127
0.0427519
0.0427546
0.0427502
0.0427497
0.0427669
0.0428032
0.0428362
0.0428586
0.0428748
0.0428913
0.042913
0.0429394
0.0429677
0.042998
0.0430316
0.0430691
0.0431104
0.0431553
0.0432032
0.0432533
0.0433052
0.043359
0.0434146
0.0434717
0.0435298
0.0435893
0.0436509
0.0437151
0.0437819
0.0438509
0.0439216
0.0439937
0.0440669
0.0441415
0.0442173
0.0442943
0.0443725
0.0444518
0.044532
0.0446129
0.0446941
0.0447753
0.0448563
0.0449367
0.045016
0.0450937
0.0451694
0.0452427
0.0453128
0.045379
0.0454405
0.0454963
0.0455455
0.0455866
0.0456179
0.0456387
0.0456475
0.0456423
0.0456177
0.0455736
0.0455048
0.0454098
0.0452821
0.0451208
0.0449164
0.0446639
0.0443548
0.0439851
0.0435486
0.0430304
0.0424317
0.04174
0.0409588
0.0400585
0.0390643
0.0379254
0.0367419
0.0347607
0.042133
0.042133
0.042133
0.042133
0.042133
0.042133
0.042133
0.042133
0.042133
0.042133
0.042133
0.042133
0.042133
0.042133
0.042133
0.042133
0.042133
0.042133
0.042133
0.042133
0.042133
0.042133
0.042133
0.042133
0.042133
0.0421334
0.0421455
0.0422728
0.042663
0.0430836
0.0432498
0.0432775
0.0432394
0.0431203
0.042998
0.0428955
0.0427983
0.0427011
0.0426226
0.0425836
0.042583
0.0426437
0.0427491
0.0428021
0.042809
0.042804
0.0428019
0.0428173
0.0428551
0.0428925
0.0429188
0.0429372
0.0429547
0.0429772
0.043005
0.0430352
0.0430672
0.0431025
0.0431419
0.0431852
0.0432324
0.0432829
0.0433357
0.0433904
0.043447
0.0435054
0.0435654
0.0436265
0.0436889
0.0437533
0.0438203
0.0438901
0.0439623
0.0440366
0.0441124
0.0441897
0.0442685
0.0443488
0.0444306
0.0445139
0.0445986
0.0446847
0.0447718
0.0448599
0.0449485
0.0450374
0.0451264
0.0452149
0.0453027
0.0453894
0.0454745
0.0455576
0.045638
0.045715
0.0457879
0.0458557
0.0459174
0.0459721
0.0460181
0.0460534
0.0460772
0.0460877
0.046083
0.046056
0.0460073
0.0459292
0.0458216
0.0456743
0.0454849
0.0452444
0.0449479
0.0445857
0.0441482
0.0436341
0.0430278
0.0423201
0.0414847
0.040537
0.0394054
0.0382093
0.0363301
0.042133
0.042133
0.042133
0.042133
0.042133
0.042133
0.042133
0.042133
0.042133
0.042133
0.042133
0.042133
0.042133
0.042133
0.042133
0.042133
0.042133
0.042133
0.042133
0.042133
0.042133
0.042133
0.042133
0.042133
0.042133
0.0421332
0.0421389
0.042223
0.042566
0.0430254
0.0432402
0.0433022
0.0432782
0.0431664
0.0430389
0.0429335
0.0428364
0.0427402
0.042661
0.0426177
0.042614
0.0426686
0.0427843
0.0428502
0.0428617
0.042856
0.0428525
0.0428664
0.0429058
0.0429475
0.0429776
0.0429984
0.0430167
0.0430398
0.0430688
0.0431004
0.0431339
0.0431707
0.0432117
0.043257
0.0433064
0.0433593
0.0434148
0.0434722
0.0435314
0.0435925
0.0436551
0.043719
0.0437841
0.0438511
0.0439208
0.0439933
0.0440685
0.044146
0.0442253
0.0443063
0.0443888
0.0444732
0.0445593
0.0446472
0.0447368
0.0448281
0.0449209
0.045015
0.0451102
0.0452062
0.0453027
0.0453996
0.0454964
0.0455928
0.0456885
0.0457832
0.0458762
0.0459671
0.0460551
0.0461396
0.0462196
0.0462945
0.0463627
0.0464235
0.0464748
0.0465143
0.046541
0.0465527
0.0465471
0.0465153
0.0464594
0.0463692
0.0462453
0.046076
0.0458579
0.0455794
0.0452328
0.0448116
0.0442996
0.0436861
0.0429571
0.0421001
0.0410891
0.0399353
0.0382447
0.042133
0.042133
0.042133
0.042133
0.042133
0.042133
0.042133
0.042133
0.042133
0.042133
0.042133
0.042133
0.042133
0.042133
0.042133
0.042133
0.042133
0.042133
0.042133
0.042133
0.042133
0.042133
0.042133
0.042133
0.042133
0.0421331
0.0421358
0.0421908
0.042483
0.0429624
0.0432313
0.0433226
0.0433055
0.043205
0.043074
0.0429671
0.0428717
0.0427776
0.0426983
0.0426509
0.0426443
0.0426937
0.0428176
0.0428957
0.0429124
0.0429071
0.0429029
0.042916
0.042957
0.0430028
0.0430366
0.0430595
0.0430787
0.0431021
0.0431318
0.0431646
0.0431991
0.0432371
0.0432795
0.0433265
0.0433778
0.043433
0.0434909
0.0435507
0.0436122
0.0436757
0.0437409
0.0438072
0.0438748
0.0439443
0.0440164
0.0440915
0.0441694
0.0442499
0.0443323
0.0444166
0.0445027
0.0445907
0.0446807
0.0447727
0.0448668
0.0449627
0.0450605
0.04516
0.0452611
0.0453634
0.0454667
0.0455709
0.0456756
0.0457806
0.0458856
0.0459904
0.0460945
0.0461975
0.0462987
0.0463978
0.0464939
0.0465864
0.0466743
0.0467567
0.0468321
0.0468994
0.0469563
0.0470001
0.0470298
0.0470425
0.0470359
0.0469992
0.0469351
0.0468291
0.0466815
0.0464776
0.0462115
0.045873
0.0454482
0.0449298
0.0442952
0.0435121
0.0425799
0.0414474
0.0399222
0.042133
0.042133
0.042133
0.042133
0.042133
0.042133
0.042133
0.042133
0.042133
0.042133
0.042133
0.042133
0.042133
0.042133
0.042133
0.042133
0.042133
0.042133
0.042133
0.042133
0.042133
0.042133
0.042133
0.042133
0.042133
0.0421331
0.0421345
0.0421711
0.0424177
0.0429021
0.0432243
0.0433372
0.0433254
0.043236
0.0431045
0.042998
0.0429048
0.0428122
0.0427318
0.0426805
0.0426713
0.0427183
0.0428498
0.0429392
0.0429619
0.0429584
0.0429545
0.0429675
0.0430103
0.0430598
0.0430967
0.0431212
0.043141
0.0431646
0.043195
0.0432285
0.0432637
0.0433025
0.043346
0.0433944
0.0434473
0.0435043
0.0435643
0.0436262
0.0436899
0.0437555
0.0438229
0.0438915
0.0439614
0.0440331
0.0441075
0.0441849
0.0442653
0.0443483
0.0444336
0.0445209
0.0446101
0.0447014
0.0447949
0.0448907
0.0449886
0.0450888
0.045191
0.0452953
0.0454014
0.0455092
0.0456185
0.0457291
0.0458407
0.0459532
0.0460664
0.0461799
0.0462936
0.0464071
0.04652
0.0466316
0.0467417
0.0468496
0.0469546
0.0470559
0.0471523
0.047243
0.0473262
0.0474005
0.0474635
0.0475117
0.0475441
0.0475569
0.0475464
0.0474993
0.0474193
0.0472897
0.0471083
0.0468603
0.0465328
0.0461154
0.0455765
0.0448929
0.0440637
0.043022
0.0416302
0.042133
0.042133
0.042133
0.042133
0.042133
0.042133
0.042133
0.042133
0.042133
0.042133
0.042133
0.042133
0.042133
0.042133
0.042133
0.042133
0.042133
0.042133
0.042133
0.042133
0.042133
0.042133
0.042133
0.042133
0.042133
0.0421331
0.0421339
0.0421598
0.0423706
0.0428512
0.0432172
0.0433481
0.0433404
0.0432609
0.0431313
0.043026
0.0429344
0.042842
0.0427593
0.0427051
0.0426943
0.0427431
0.0428828
0.0429818
0.0430106
0.0430101
0.0430075
0.0430211
0.043066
0.0431186
0.0431576
0.043183
0.0432031
0.0432269
0.0432577
0.0432919
0.0433277
0.043367
0.0434114
0.0434609
0.0435151
0.0435736
0.0436353
0.0436991
0.0437646
0.043832
0.0439013
0.0439719
0.0440438
0.0441176
0.0441939
0.0442734
0.0443561
0.0444415
0.0445294
0.0446193
0.0447114
0.0448056
0.0449022
0.0450013
0.0451027
0.0452065
0.0453126
0.0454211
0.0455317
0.0456444
0.0457589
0.045875
0.0459927
0.0461117
0.0462319
0.046353
0.046475
0.0465976
0.0467203
0.0468429
0.0469649
0.0470859
0.0472055
0.047323
0.0474376
0.0475484
0.0476541
0.0477539
0.0478454
0.0479273
0.0479965
0.0480494
0.0480845
0.048097
0.0480818
0.0480249
0.0479268
0.0477694
0.0475459
0.0472414
0.0468161
0.0462439
0.0454957
0.0445272
0.0432349
0.042133
0.042133
0.042133
0.042133
0.042133
0.042133
0.042133
0.042133
0.042133
0.042133
0.042133
0.042133
0.042133
0.042133
0.042133
0.042133
0.042133
0.042133
0.042133
0.042133
0.042133
0.042133
0.042133
0.042133
0.042133
0.042133
0.0421336
0.0421537
0.0423401
0.042814
0.0432122
0.0433569
0.0433531
0.0432809
0.0431539
0.0430502
0.0429589
0.0428651
0.0427802
0.0427251
0.0427142
0.0427695
0.0429183
0.0430238
0.0430578
0.0430612
0.0430603
0.0430749
0.0431224
0.0431775
0.0432175
0.043243
0.0432631
0.0432872
0.0433188
0.0433538
0.0433903
0.0434303
0.0434755
0.0435259
0.0435813
0.0436411
0.0437042
0.0437695
0.0438365
0.0439055
0.0439764
0.0440488
0.0441225
0.0441981
0.0442762
0.0443576
0.0444423
0.0445299
0.04462
0.0447124
0.0448069
0.0449038
0.0450031
0.0451051
0.0452096
0.0453166
0.0454262
0.0455383
0.0456529
0.0457697
0.0458887
0.0460097
0.0461325
0.0462571
0.0463833
0.046511
0.0466401
0.0467703
0.0469015
0.0470333
0.0471655
0.0472977
0.0474296
0.0475608
0.0476906
0.0478185
0.0479435
0.0480648
0.0481807
0.0482905
0.0483914
0.0484823
0.0485584
0.0486164
0.0486536
0.048664
0.0486383
0.0485601
0.0484254
0.0482187
0.0479042
0.047458
0.0468147
0.0459544
0.0447668
0.042133
0.042133
0.042133
0.042133
0.042133
0.042133
0.042133
0.042133
0.042133
0.042133
0.042133
0.042133
0.042133
0.042133
0.042133
0.042133
0.042133
0.042133
0.042133
0.042133
0.042133
0.042133
0.042133
0.042133
0.042133
0.042133
0.0421335
0.0421513
0.0423248
0.0427942
0.0432122
0.0433653
0.0433653
0.0432962
0.0431714
0.043069
0.0429772
0.0428818
0.0427962
0.0427423
0.0427328
0.0427991
0.0429576
0.0430657
0.043102
0.043109
0.0431097
0.0431259
0.0431766
0.0432335
0.0432738
0.0432989
0.043319
0.043344
0.0433769
0.0434131
0.0434507
0.0434917
0.0435379
0.0435893
0.0436456
0.0437066
0.0437709
0.0438375
0.0439058
0.0439761
0.0440484
0.0441223
0.0441976
0.0442747
0.0443546
0.0444376
0.0445241
0.0446136
0.0447057
0.0448002
0.044897
0.0449962
0.045098
0.0452025
0.0453097
0.0454196
0.0455322
0.0456475
0.0457654
0.0458859
0.0460088
0.0461339
0.0462612