/*--------------------------------*- C++ -*----------------------------------*\
| =========                 |                                                 |
| \\      /  F ield         | OpenFOAM: The Open Source CFD Toolbox           |
|  \\    /   O peration     | Version:  2412                                  |
|   \\  /    A nd           | Website:  www.openfoam.com                      |
|    \\/     M anipulation  |                                                 |
\*---------------------------------------------------------------------------*/
FoamFile
{
    version     2.0;
    format      ascii;
    arch        "LSB;label=32;scalar=64";
    class       volScalarField;
    location    "0.019";
    object      T;
}
// * * * * * * * * * * * * * * * * * * * * * * * * * * * * * * * * * * * * * //

dimensions      [0 0 0 1 0 0 0];

internalField   nonuniform List<scalar> 
78650
(
223
223
223
223
223
223
223
223
223
223
223
223
223
223
223
223
223
223
223
223
223.001
223.025
223.226
223.803
224.466
224.818
224.85
224.791
224.503
224.151
223.853
223.594
223.344
223.09
222.845
222.655
222.564
222.536
222.532
222.537
222.514
222.442
222.353
222.293
222.257
222.23
222.201
222.165
222.123
222.082
222.047
222.013
221.98
221.95
221.924
221.903
221.888
221.876
221.866
221.856
221.847
221.836
221.824
221.809
221.79
221.768
221.742
221.712
221.675
221.63
221.575
221.508
221.428
221.333
221.223
221.094
220.946
220.775
220.578
220.354
220.098
219.808
219.479
219.108
218.69
218.221
217.695
217.11
216.458
215.737
214.936
214.057
213.087
212.032
210.874
209.626
208.282
206.842
205.308
203.689
201.988
200.169
198.248
196.272
194.275
192.26
190.307
188.343
186.323
184.494
182.755
181.046
179.431
177.882
176.411
175.091
174.071
173.322
172.857
172.665
171.364
223
223
223
223
223
223
223
223
223
223
223
223
223
223
223
223
223
223
223
223
223
223.014
223.158
223.665
224.366
224.803
224.879
224.845
224.609
224.265
223.957
223.69
223.437
223.182
222.934
222.736
222.633
222.605
222.606
222.618
222.607
222.552
222.469
222.407
222.37
222.344
222.32
222.289
222.25
222.213
222.18
222.149
222.121
222.096
222.075
222.06
222.05
222.045
222.042
222.041
222.039
222.038
222.035
222.03
222.022
222.012
221.998
221.98
221.958
221.929
221.891
221.842
221.782
221.709
221.622
221.52
221.399
221.259
221.096
220.908
220.691
220.444
220.163
219.844
219.482
219.072
218.611
218.092
217.511
216.862
216.14
215.343
214.459
213.487
212.416
211.252
209.989
208.631
207.178
205.632
203.998
202.303
200.535
198.649
196.714
194.663
192.567
190.632
188.694
186.753
184.928
183.126
181.435
179.856
178.328
176.859
175.576
174.501
173.763
173.349
171.719
223
223
223
223
223
223
223
223
223
223
223
223
223
223
223
223
223
223
223
223
223
223.008
223.104
223.53
224.243
224.768
224.897
224.893
224.713
224.382
224.061
223.783
223.527
223.274
223.026
222.821
222.707
222.677
222.682
222.702
222.702
222.662
222.585
222.522
222.484
222.46
222.439
222.413
222.379
222.344
222.314
222.287
222.264
222.243
222.228
222.218
222.215
222.217
222.221
222.227
222.234
222.242
222.248
222.253
222.256
222.257
222.255
222.25
222.242
222.228
222.206
222.175
222.134
222.082
222.017
221.939
221.845
221.733
221.602
221.447
221.267
221.06
220.822
220.549
220.237
219.882
219.479
219.025
218.513
217.941
217.302
216.594
215.805
214.936
213.973
212.92
211.767
210.515
209.16
207.694
206.114
204.415
202.634
200.761
198.87
196.977
194.937
192.868
190.889
188.806
186.854
184.891
182.963
181.231
179.635
178.165
176.899
175.821
175.044
174.537
172.789
223
223
223
223
223
223
223
223
223
223
223
223
223
223
223
223
223
223
223
223
223
223.004
223.064
223.401
224.097
224.709
224.906
224.943
224.815
224.503
224.167
223.878
223.621
223.372
223.125
222.914
222.787
222.754
222.761
222.789
222.799
222.771
222.701
222.637
222.599
222.577
222.559
222.538
222.508
222.476
222.449
222.427
222.408
222.393
222.382
222.378
222.381
222.39
222.401
222.415
222.43
222.446
222.461
222.476
222.489
222.5
222.509
222.516
222.521
222.521
222.515
222.502
222.479
222.446
222.403
222.348
222.279
222.195
222.093
221.971
221.827
221.658
221.462
221.236
220.974
220.674
220.331
219.94
219.498
218.999
218.436
217.807
217.101
216.319
215.45
214.495
213.448
212.307
211.065
209.72
208.271
206.714
205.019
203.243
201.356
199.414
197.383
195.257
193.225
191.074
188.916
186.939
184.887
182.929
181.008
179.216
177.71
176.483
175.665
175.171
173.275
223
223
223
223
223
223
223
223
223
223
223
223
223
223
223
223
223
223
223
223
223
223.002
223.036
223.286
223.933
224.62
224.909
224.989
224.905
224.621
224.274
223.975
223.718
223.473
223.229
223.014
222.873
222.834
222.843
222.878
222.898
222.879
222.818
222.755
222.716
222.695
222.681
222.664
222.639
222.61
222.587
222.569
222.555
222.545
222.541
222.542
222.551
222.565
222.584
222.605
222.628
222.652
222.677
222.7
222.723
222.744
222.765
222.784
222.801
222.814
222.823
222.826
222.821
222.807
222.784
222.751
222.706
222.647
222.573
222.482
222.371
222.238
222.08
221.896
221.68
221.429
221.14
220.808
220.428
219.996
219.506
218.956
218.336
217.645
216.873
216.017
215.067
214.017
212.865
211.613
210.263
208.808
207.241
205.563
203.755
201.812
199.878
197.819
195.674
193.593
191.368
189.291
187.199
185.173
183.245
181.371
179.693
178.232
177.108
176.324
173.966
223
223
223
223
223
223
223
223
223
223
223
223
223
223
223
223
223
223
223
223
223
223.001
223.018
223.188
223.755
224.499
224.902
225.032
224.977
224.737
224.387
224.081
223.824
223.583
223.342
223.122
222.969
222.921
222.927
222.967
222.996
222.987
222.936
222.874
222.834
222.813
222.802
222.792
222.772
222.747
222.728
222.714
222.706
222.702
222.703
222.71
222.724
222.745
222.77
222.798
222.828
222.86
222.894
222.926
222.958
222.99
223.02
223.05
223.079
223.106
223.128
223.146
223.157
223.162
223.158
223.146
223.124
223.09
223.043
222.981
222.901
222.803
222.683
222.539
222.369
222.167
221.931
221.656
221.338
220.974
220.557
220.083
219.546
218.942
218.26
217.499
216.647
215.701
214.658
213.515
212.265
210.9
209.422
207.835
206.142
204.309
202.39
200.412
198.254
196.172
193.983
191.729
189.527
187.22
185.082
183.11
181.348
179.859
178.709
177.895
175.537
223
223
223
223
223
223
223
223
223
223
223
223
223
223
223
223
223
223
223
223
223
223
223.008
223.114
223.575
224.342
224.872
225.064
225.031
224.849
224.51
224.197
223.936
223.697
223.459
223.236
223.073
223.01
223.012
223.052
223.094
223.093
223.054
222.994
222.952
222.932
222.924
222.92
222.908
222.889
222.873
222.864
222.861
222.863
222.87
222.882
222.902
222.928
222.96
222.995
223.033
223.072
223.113
223.155
223.196
223.237
223.277
223.318
223.358
223.397
223.433
223.465
223.493
223.514
223.528
223.535
223.535
223.524
223.503
223.467
223.418
223.351
223.266
223.159
223.029
222.872
222.684
222.462
222.201
221.899
221.55
221.15
220.692
220.172
219.582
218.919
218.172
217.338
216.413
215.385
214.253
213.011
211.658
210.183
208.578
206.86
204.995
203.054
200.953
198.793
196.643
194.303
192.092
189.731
187.399
185.188
183.063
181.223
179.764
178.733
175.736
223
223
223
223
223
223
223
223
223
223
223
223
223
223
223
223
223
223
223
223
223
223
223.003
223.062
223.408
224.149
224.805
225.076
225.073
224.958
224.644
224.321
224.053
223.816
223.584
223.361
223.185
223.103
223.095
223.133
223.189
223.199
223.17
223.113
223.07
223.051
223.048
223.052
223.047
223.034
223.022
223.018
223.021
223.029
223.041
223.059
223.084
223.116
223.153
223.195
223.239
223.286
223.335
223.385
223.435
223.484
223.534
223.584
223.635
223.686
223.735
223.781
223.823
223.86
223.892
223.918
223.937
223.948
223.951
223.942
223.921
223.885
223.833
223.763
223.672
223.558
223.418
223.247
223.042
222.8
222.515
222.183
221.8
221.359
220.855
220.282
219.632
218.901
218.083
217.165
216.146
215.018
213.773
212.406
210.918
209.316
207.595
205.704
203.718
201.583
199.447
197.085
194.742
192.474
190.102
187.946
185.783
183.866
182.253
181.022
177.731
223
223
223
223
223
223
223
223
223
223
223
223
223
223
223
223
223
223
223
223
223
223
223.001
223.03
223.265
223.933
224.687
225.07
225.119
225.056
224.777
224.45
224.177
223.942
223.715
223.489
223.3
223.194
223.175
223.208
223.278
223.302
223.283
223.233
223.19
223.173
223.175
223.187
223.189
223.182
223.176
223.176
223.185
223.198
223.216
223.24
223.27
223.307
223.35
223.398
223.449
223.503
223.559
223.616
223.675
223.733
223.792
223.851
223.912
223.974
224.035
224.094
224.151
224.203
224.251
224.295
224.333
224.365
224.388
224.404
224.409
224.402
224.381
224.344
224.289
224.214
224.116
223.992
223.838
223.65
223.426
223.162
222.851
222.49
222.071
221.589
221.036
220.409
219.697
218.892
217.993
216.987
215.867
214.63
213.275
211.796
210.17
208.408
206.539
204.534
202.373
200.097
197.708
195.378
192.767
190.243
187.831
185.715
184.021
182.791
179.576
223
223
223
223
223
223
223
223
223
223
223
223
223
223
223
223
223
223
223
223
223
223
223
223.013
223.156
223.709
224.518
225.039
225.161
225.13
224.908
224.589
224.312
224.074
223.846
223.616
223.413
223.285
223.253
223.28
223.363
223.404
223.395
223.355
223.315
223.299
223.303
223.324
223.335
223.334
223.332
223.338
223.352
223.372
223.396
223.424
223.459
223.501
223.549
223.603
223.66
223.72
223.783
223.848
223.914
223.981
224.048
224.116
224.187
224.259
224.331
224.403
224.472
224.539
224.603
224.663
224.719
224.77
224.815
224.853
224.882
224.902
224.91
224.906
224.886
224.85
224.792
224.713
224.608
224.474
224.307
224.104
223.86
223.57
223.228
222.83
222.369
221.84
221.233
220.542
219.76
218.872
217.877
216.771
215.54
214.173
212.664
211.031
209.257
207.334
205.187
203.023
200.706
198.332
195.798
193.21
190.718
188.353
186.269
184.634
180.577
223
223
223
223
223
223
223
223
223
223
223
223
223
223
223
223
223
223
223
223
223
223
223
223.005
223.081
223.497
224.307
224.97
225.176
225.187
225.039
224.74
224.45
224.201
223.969
223.738
223.527
223.379
223.334
223.352
223.441
223.506
223.509
223.483
223.446
223.43
223.435
223.463
223.484
223.49
223.495
223.504
223.524
223.55
223.578
223.611
223.65
223.697
223.75
223.809
223.873
223.939
224.008
224.08
224.154
224.228
224.303
224.38
224.459
224.541
224.624
224.707
224.79
224.87
224.949
225.024
225.097
225.166
225.231
225.29
225.342
225.387
225.421
225.444
225.456
225.455
225.435
225.397
225.336
225.25
225.136
224.991
224.81
224.59
224.325
224.01
223.638
223.202
222.696
222.112
221.444
220.68
219.821
218.851
217.755
216.531
215.177
213.696
212.047
210.236
208.297
206.191
203.95
201.461
199.023
196.356
193.849
191.447
189.34
187.672
183.612
223
223
223
223
223
223
223
223
223
223
223
223
223
223
223
223
223
223
223
223
223
223
223
223.002
223.037
223.317
224.062
224.848
225.167
225.247
225.163
224.891
224.582
224.321
224.088
223.861
223.646
223.482
223.419
223.426
223.515
223.607
223.628
223.613
223.58
223.564
223.57
223.605
223.637
223.651
223.661
223.675
223.698
223.729
223.763
223.8
223.843
223.894
223.951
224.016
224.085
224.157
224.232
224.31
224.391
224.473
224.555
224.64
224.728
224.818
224.911
225.005
225.099
225.193
225.285
225.375
225.463
225.549
225.632
225.711
225.785
225.853
225.913
225.964
226.005
226.034
226.05
226.053
226.034
225.995
225.931
225.839
225.717
225.56
225.364
225.123
224.831
224.484
224.075
223.598
223.044
222.403
221.67
220.827
219.866
218.787
217.576
216.224
214.71
213.054
211.231
209.226
207.064
204.683
202.272
199.532
196.768
194.107
191.72
189.803
185.18
223
223
223
223
223
223
223
223
223
223
223
223
223
223
223
223
223
223
223
223
223
223
223
223
223.015
223.182
223.806
224.672
225.145
225.303
225.253
225.028
224.712
224.442
224.21
223.987
223.768
223.591
223.507
223.503
223.584
223.706
223.751
223.745
223.718
223.703
223.709
223.748
223.791
223.815
223.83
223.847
223.874
223.909
223.947
223.988
224.035
224.09
224.152
224.221
224.295
224.373
224.454
224.538
224.625
224.714
224.804
224.896
224.992
225.091
225.193
225.297
225.403
225.508
225.613
225.717
225.82
225.921
226.021
226.118
226.212
226.301
226.385
226.461
226.529
226.588
226.636
226.67
226.69
226.694
226.675
226.634
226.566
226.468
226.337
226.169
225.956
225.695
225.378
224.999
224.549
224.021
223.406
222.69
221.872
220.942
219.88
218.678
217.323
215.827
214.15
212.294
210.263
208.091
205.69
203.179
200.398
197.77
195.172
192.993
187.952
223
223
223
223
223
223
223
223
223
223
223
223
223
223
223
223
223
223
223
223
223
223
223
223
223.005
223.093
223.565
224.446
225.097
225.333
225.314
225.154
224.848
224.57
224.335
224.112
223.892
223.704
223.6
223.586
223.656
223.802
223.875
223.88
223.86
223.844
223.85
223.892
223.944
223.978
223.999
224.02
224.049
224.087
224.129
224.174
224.225
224.283
224.349
224.422
224.501
224.584
224.671
224.761
224.854
224.95
225.047
225.147
225.25
225.356
225.467
225.581
225.697
225.813
225.93
226.046
226.163
226.279
226.394
226.509
226.621
226.73
226.835
226.935
227.028
227.115
227.192
227.26
227.315
227.355
227.379
227.385
227.368
227.326
227.254
227.15
227.008
226.823
226.59
226.303
225.956
225.539
225.045
224.461
223.785
222.997
222.084
221.04
219.853
218.516
216.993
215.305
213.423
211.346
209.077
206.6
203.841
201.125
198.488
196.428
191.811
223
223
223
223
223
223
223
223
223
223
223
223
223
223
223
223
223
223
223
223
223
223
223
223
223.002
223.042
223.363
224.188
224.994
225.337
225.361
225.27
224.989
224.698
224.454
224.233
224.015
223.821
223.701
223.675
223.73
223.891
223.997
224.013
223.999
223.983
223.988
224.031
224.092
224.136
224.164
224.188
224.219
224.259
224.305
224.354
224.408
224.47
224.54
224.618
224.702
224.79
224.882
224.978
225.078
225.18
225.285
225.391
225.501
225.615
225.734
225.857
225.982
226.109
226.237
226.365
226.494
226.624
226.754
226.883
227.012
227.139
227.264
227.385
227.502
227.613
227.718
227.814
227.901
227.977
228.038
228.084
228.112
228.121
228.106
228.062
227.987
227.876
227.723
227.523
227.27
226.955
226.57
226.106
225.556
224.901
224.135
223.251
222.23
221.058
219.707
218.201
216.499
214.598
212.461
210.111
207.683
204.81
201.958
199.446
194.098
223
223
223
223
223
223
223
223
223
223
223
223
223
223
223
223
223
223
223
223
223
223
223
223
223
223.017
223.214
223.923
224.833
225.315
225.415
225.367
225.118
224.818
224.57
224.353
224.141
223.944
223.806
223.766
223.803
223.967
224.106
224.14
224.131
224.117
224.12
224.163
224.233
224.287
224.321
224.349
224.381
224.424
224.474
224.527
224.585
224.651
224.725
224.807
224.895
224.989
225.087
225.189
225.294
225.403
225.515
225.628
225.745
225.866
225.992
226.122
226.257
226.393
226.531
226.67
226.811
226.953
227.096
227.24
227.384
227.528
227.671
227.811
227.949
228.083
228.213
228.336
228.452
228.56
228.657
228.742
228.811
228.863
228.896
228.909
228.895
228.849
228.769
228.647
228.479
228.259
227.98
227.632
227.208
226.69
226.078
225.352
224.494
223.492
222.332
221.013
219.485
217.759
215.805
213.645
211.272
208.797
206.048
203.719
198.843
223
223
223
223
223
223
223
223
223
223
223
223
223
223
223
223
223
223
223
223
223
223
223
223
223
223.006
223.115
223.676
224.63
225.27
225.458
225.431
225.233
224.937
224.686
224.474
224.266
224.062
223.907
223.85
223.87
224.029
224.201
224.258
224.256
224.245
224.247
224.288
224.363
224.427
224.468
224.499
224.534
224.579
224.633
224.691
224.753
224.823
224.901
224.987
225.081
225.18
225.284
225.391
225.503
225.618
225.736
225.856
225.98
226.107
226.24
226.379
226.521
226.666
226.814
226.963
227.115
227.268
227.423
227.58
227.738
227.897
228.056
228.214
228.371
228.526
228.677
228.825
228.967
229.103
229.232
229.35
229.457
229.551
229.629
229.688
229.727
229.742
229.73
229.682
229.596
229.465
229.283
229.041
228.73
228.338
227.86
227.274
226.569
225.736
224.755
223.61
222.264
220.732
218.973
216.984
214.734
212.246
209.606
206.893
201.866
223
223
223
223
223
223
223
223
223
223
223
223
223
223
223
223
223
223
223
223
223
223
223
223
223
223.002
223.058
223.469
224.403
225.201
225.472
225.476
225.339
225.059
224.805
224.589
224.378
224.166
223.999
223.926
223.934
224.081
224.285
224.371
224.378
224.368
224.367
224.405
224.485
224.557
224.607
224.642
224.679
224.726
224.784
224.847
224.913
224.987
225.069
225.16
225.258
225.363
225.472
225.586
225.704
225.825
225.949
226.076
226.206
226.34
226.479
226.624
226.774
226.927
227.083
227.242
227.403
227.567
227.733
227.902
228.072
228.245
228.418
228.592
228.766
228.94
229.111
229.281
229.447
229.609
229.765
229.914
230.055
230.186
230.304
230.409
230.496
230.563
230.606
230.625
230.614
230.562
230.468
230.321
230.117
229.844
229.495
229.052
228.511
227.851
227.052
226.099
224.971
223.666
222.131
220.36
218.32
216.098
213.656
211.18
206.584
223
223
223
223
223
223
223
223
223
223
223
223
223
223
223
223
223
223
223
223
223
223
223
223
223
223.001
223.028
223.31
224.173
225.098
225.462
225.523
225.44
225.179
224.911
224.686
224.473
224.259
224.086
224
223.999
224.133
224.365
224.482
224.497
224.486
224.482
224.516
224.599
224.681
224.739
224.779
224.818
224.867
224.928
224.995
225.065
225.142
225.228
225.323
225.427
225.537
225.653
225.772
225.895
226.023
226.154
226.286
226.422
226.562
226.708
226.859
227.015
227.176
227.34
227.507
227.677
227.851
228.027
228.206
228.388
228.573
228.759
228.948
229.137
229.327
229.517
229.705
229.892
230.077
230.258
230.435
230.605
230.768
230.922
231.065
231.196
231.312
231.409
231.483
231.533
231.554
231.544
231.486
231.384
231.22
230.993
230.683
230.287
229.778
229.144
228.369
227.428
226.306
224.967
223.405
221.581
219.543
217.179
214.765
210.638
223
223
223
223
223
223
223
223
223
223
223
223
223
223
223
223
223
223
223
223
223
223
223
223
223
223
223.013
223.2
223.959
224.97
225.441
225.577
225.525
225.28
225.001
224.77
224.557
224.345
224.171
224.075
224.067
224.188
224.443
224.588
224.613
224.601
224.593
224.624
224.71
224.802
224.868
224.914
224.954
225.005
225.068
225.138
225.211
225.291
225.381
225.48
225.588
225.704
225.825
225.95
226.079
226.212
226.349
226.488
226.629
226.774
226.925
227.083
227.245
227.413
227.584
227.759
227.937
228.118
228.304
228.492
228.684
228.88
229.078
229.279
229.482
229.687
229.892
230.098
230.304
230.509
230.712
230.912
231.109
231.301
231.486
231.664
231.833
231.99
232.134
232.261
232.369
232.451
232.507
232.532
232.521
232.454
232.336
232.145
231.881
231.518
231.052
230.459
229.716
228.805
227.694
226.36
224.773
222.921
220.787
218.409
214.772
223
223
223
223
223
223
223
223
223
223
223
223
223
223
223
223
223
223
223
223
223
223
223
223
223
223
223.006
223.128
223.776
224.832
225.422
225.622
225.584
225.365
225.078
224.844
224.634
224.427
224.253
224.149
224.134
224.243
224.516
224.688
224.725
224.713
224.704
224.733
224.823
224.923
224.997
225.048
225.09
225.141
225.206
225.278
225.354
225.437
225.53
225.632
225.744
225.865
225.991
226.121
226.255
226.394
226.535
226.679
226.826
226.976
227.133
227.295
227.463
227.637
227.815
227.997
228.182
228.371
228.564
228.762
228.963
229.168
229.377
229.589
229.804
230.022
230.241
230.462
230.684
230.906
231.129
231.35
231.569
231.786
231.999
232.207
232.409
232.603
232.787
232.959
233.116
233.256
233.375
233.466
233.527
233.553
233.538
233.46
233.326
233.106
232.801
232.38
231.825
231.116
230.221
229.122
227.785
226.169
224.295
222.035
218.81
223
223
223
223
223
223
223
223
223
223
223
223
223
223
223
223
223
223
223
223
223
223
223
223
223
223
223.003
223.085
223.631
224.7
225.407
225.654
225.628
225.433
225.145
224.911
224.707
224.504
224.327
224.214
224.194
224.297
224.587
224.783
224.833
224.825
224.817
224.846
224.94
225.048
225.129
225.183
225.226
225.278
225.345
225.418
225.495
225.58
225.675
225.78
225.896
226.02
226.151
226.286
226.424
226.567
226.713
226.862
227.013
227.169
227.329
227.497
227.67
227.849
228.033
228.221
228.413
228.609
228.809
229.014
229.223
229.437
229.655
229.877
230.103
230.332
230.563
230.797
231.034
231.271
231.51
231.749
231.988
232.227
232.463
232.697
232.927
233.153
233.372
233.583
233.783
233.971
234.144
234.298
234.428
234.528
234.595
234.622
234.601
234.505
234.339
234.068
233.689
233.169
232.474
231.582
230.442
229.033
227.377
225.332
222.442
223
223
223
223
223
223
223
223
223
223
223
223
223
223
223
223
223
223
223
223
223
223
223
223
223
223
223.002
223.059
223.527
224.588
225.391
225.677
225.661
225.487
225.204
224.973
224.772
224.569
224.387
224.268
224.244
224.352
224.659
224.877
224.94
224.939
224.933
224.963
225.062
225.177
225.262
225.318
225.362
225.414
225.482
225.557
225.635
225.721
225.818
225.926
226.044
226.171
226.306
226.444
226.587
226.733
226.883
227.036
227.192
227.351
227.516
227.688
227.866
228.05
228.239
228.432
228.63
228.832
229.039
229.251
229.467
229.688
229.914
230.145
230.38
230.618
230.861
231.106
231.354
231.605
231.858
232.113
232.369
232.626
232.883
233.139
233.393
233.645
233.894
234.138
234.375
234.604
234.823
235.029
235.218
235.386
235.528
235.636
235.707
235.731
235.697
235.577
235.371
235.042
234.574
233.937
233.065
231.929
230.493
228.646
226.031
223
223
223
223
223
223
223
223
223
223
223
223
223
223
223
223
223
223
223
223
223
223
223
223
223
223
223.001
223.046
223.46
224.506
225.38
225.696
225.688
225.531
225.253
225.026
224.826
224.62
224.433
224.312
224.288
224.41
224.737
224.969
225.044
225.051
225.049
225.081
225.185
225.306
225.394
225.45
225.494
225.546
225.615
225.692
225.771
225.859
225.958
226.067
226.188
226.318
226.455
226.597
226.743
226.892
227.046
227.203
227.362
227.525
227.694
227.869
228.052
228.24
228.434
228.632
228.835
229.042
229.255
229.472
229.695
229.923
230.156
230.394
230.637
230.884
231.135
231.39
231.649
231.912
232.177
232.445
232.715
232.987
233.261
233.536
233.811
234.085
234.359
234.631
234.899
235.162
235.42
235.669
235.907
236.132
236.339
236.524
236.679
236.797
236.873
236.896
236.847
236.695
236.424
236.002
235.36
234.476
233.257
231.649
229.279
223
223
223
223
223
223
223
223
223
223
223
223
223
223
223
223
223
223
223
223
223
223
223
223
223
223
223.001
223.041
223.426
224.462
225.38
225.715
225.715
225.564
225.291
225.067
224.866
224.657
224.469
224.35
224.329
224.475
224.824
225.061
225.14
225.156
225.157
225.193
225.304
225.429
225.517
225.572
225.616
225.67
225.742
225.821
225.903
225.993
226.093
226.205
226.328
226.46
226.6
226.745
226.893
227.045
227.202
227.362
227.524
227.691
227.863
228.042
228.228
228.42
228.618
228.82
229.028
229.24
229.457
229.68
229.908
230.142
230.381
230.625
230.875
231.129
231.389
231.652
231.92
232.192
232.468
232.747
233.029
233.314
233.603
233.893
234.185
234.478
234.773
235.067
235.361
235.654
235.943
236.229
236.508
236.779
237.039
237.286
237.512
237.716
237.884
238.009
238.084
238.094
238.001
237.797
237.419
236.841
235.888
234.591
232.441
223
223
223
223
223
223
223
223
223
223
223
223
223
223
223
223
223
223
223
223
223
223
223
223
223
223
223.001
223.04
223.42
224.457
225.392
225.736
225.74
225.587
225.317
225.095
224.892
224.682
224.497
224.386
224.372
224.552
224.92
225.153
225.228
225.247
225.252
225.293
225.413
225.54
225.628
225.682
225.727
225.785
225.861
225.944
226.029
226.121
226.225
226.339
226.464
226.599
226.741
226.888
227.038
227.193
227.352
227.514
227.68
227.849
228.024
228.206
228.395
228.591
228.792
228.999
229.21
229.426
229.648
229.875
230.109
230.347
230.592
230.842
231.097
231.358
231.624
231.895
232.171
232.451
232.735
233.024
233.316
233.613
233.913
234.216
234.523
234.832
235.144
235.457
235.772
236.088
236.404
236.719
237.032
237.341
237.645
237.941
238.225
238.496
238.745
238.97
239.155
239.294
239.368
239.368
239.225
238.932
238.274
237.384
235.509
223
223
223
223
223
223
223
223
223
223
223
223
223
223
223
223
223
223
223
223
223
223
223
223
223
223
223.001
223.042
223.436
224.491
225.422
225.76
225.759
225.597
225.328
225.108
224.905
224.697
224.52
224.423
224.421
224.644
225.027
225.246
225.308
225.324
225.331
225.381
225.511
225.641
225.727
225.78
225.827
225.89
225.972
226.059
226.148
226.244
226.351
226.468
226.596
226.733
226.878
227.027
227.179
227.336
227.497
227.661
227.829
228.001
228.178
228.363
228.555
228.754
228.958
229.168
229.383
229.603
229.829
230.06
230.298
230.541
230.79
231.045
231.306
231.572
231.844
232.121
232.404
232.691
232.983
233.28
233.581
233.887
234.197
234.512
234.83
235.152
235.478
235.808
236.14
236.475
236.812
237.151
237.491
237.831
238.17
238.506
238.837
239.161
239.475
239.775
240.052
240.302
240.495
240.633
240.696
240.672
240.368
239.911
238.585
223
223
223
223
223
223
223
223
223
223
223
223
223
223
223
223
223
223
223
223
223
223
223
223
223
223
223.001
223.049
223.483
224.565
225.469
225.787
225.776
225.596
225.327
225.107
224.903
224.701
224.54
224.462
224.479
224.755
225.144
225.341
225.383
225.391
225.401
225.463
225.605
225.735
225.818
225.87
225.92
225.989
226.077
226.169
226.261
226.361
226.471
226.593
226.724
226.864
227.01
227.161
227.315
227.473
227.636
227.802
227.972
228.146
228.326
228.513
228.708
228.909
229.117
229.33
229.548
229.771
230
230.235
230.477
230.724
230.977
231.237
231.503
231.774
232.051
232.334
232.622
232.916
233.215
233.518
233.827
234.141
234.46
234.784
235.113
235.446
235.784
236.126
236.473
236.824
237.179
237.537
237.899
238.263
238.63
238.998
239.366
239.732
240.095
240.451
240.798
241.131
241.436
241.703
241.915
242.094
242.171
241.994
241.406
223
223
223
223
223
223
223
223
223
223
223
223
223
223
223
223
223
223
223
223
223
223
223
223
223
223
223.002
223.064
223.56
224.672
225.523
225.813
225.789
225.587
225.314
225.094
224.889
224.694
224.554
224.499
224.55
224.884
225.265
225.435
225.458
225.457
225.47
225.547
225.699
225.826
225.903
225.954
226.009
226.084
226.176
226.271
226.368
226.472
226.587
226.712
226.847
226.99
227.139
227.291
227.447
227.607
227.771
227.938
228.11
228.285
228.467
228.657
228.854
229.058
229.268
229.484
229.705
229.931
230.163
230.402
230.647
230.898
231.155
231.419
231.689
231.965
232.247
232.535
232.829
233.128
233.433
233.743
234.059
234.38
234.707
235.039
235.376
235.719
236.067
236.421
236.78
237.143
237.512
237.887
238.266
238.65
239.038
239.43
239.826
240.223
240.623
241.023
241.421
241.814
242.195
242.558
242.896
243.205
243.497
243.62
243.634
223
223
223
223
223
223
223
223
223
223
223
223
223
223
223
223
223
223
223
223
223
223
223
223
223
223
223.003
223.09
223.67
224.806
225.579
225.835
225.797
225.57
225.295
225.071
224.863
224.676
224.561
224.531
224.635
225.027
225.384
225.523
225.531
225.523
225.541
225.638
225.796
225.916
225.986
226.035
226.093
226.174
226.271
226.369
226.469
226.577
226.696
226.826
226.965
227.111
227.262
227.416
227.573
227.734
227.899
228.068
228.241
228.418
228.602
228.794
228.993
229.2
229.412
229.63
229.854
230.083
230.319
230.561
230.809
231.064
231.325
231.592
231.867
232.147
232.433
232.726
233.024
233.329
233.639
233.955
234.276
234.604
234.937
235.276
235.621
235.972
236.329
236.692
237.061
237.436
237.817
238.203
238.596
238.995
239.4
239.81
240.226
240.646
241.071
241.499
241.93
242.361
242.789
243.209
243.613
244.012
244.386
244.663
244.943
223
223
223
223
223
223
223
223
223
223
223
223
223
223
223
223
223
223
223
223
223
223
223
223
223
223
223.006
223.131
223.814
224.959
225.634
225.845
225.796
225.546
225.27
225.044
224.832
224.654
224.561
224.56
224.739
225.176
225.492
225.597
225.597
225.586
225.614
225.732
225.892
226.002
226.064
226.111
226.174
226.261
226.361
226.461
226.564
226.676
226.801
226.935
227.078
227.227
227.38
227.535
227.694
227.856
228.022
228.192
228.366
228.544
228.73
228.924
229.126
229.334
229.549
229.77
229.996
230.228
230.466
230.711
230.963
231.221
231.486
231.757
232.035
232.319
232.61
232.907
233.21
233.519
233.834
234.155
234.482
234.815
235.154
235.5
235.851
236.209
236.573
236.944
237.321
237.704
238.094
238.49
238.894
239.303
239.719
240.141
240.57
241.003
241.443
241.886
242.334
242.783
243.23
243.671
244.097
244.521
244.907
245.227
245.502
223
223
223
223
223
223
223
223
223
223
223
223
223
223
223
223
223
223
223
223
223
223
223
223
223
223
223.012
223.192
223.989
225.117
225.689
225.842
225.781
225.514
225.243
225.014
224.8
224.638
224.561
224.592
224.862
225.322
225.587
225.656
225.651
225.642
225.686
225.826
225.982
226.08
226.135
226.184
226.253
226.345
226.446
226.547
226.653
226.77
226.899
227.038
227.184
227.336
227.491
227.648
227.807
227.971
228.138
228.309
228.484
228.664
228.852
229.047
229.251
229.462
229.679
229.902
230.13
230.365
230.606
230.854
231.108
231.369
231.637
231.912
232.193
232.481
232.776
233.076
233.383
233.697
234.016
234.342
234.674
235.012
235.356
235.707
236.064
236.428
236.798
237.175
237.558
237.948
238.344
238.747
239.157
239.572
239.995
240.422
240.857
241.294
241.737
242.182
242.631
243.074
243.51
243.934
244.342
244.727
245.054
245.293
245.484
223
223
223
223
223
223
223
223
223
223
223
223
223
223
223
223
223
223
223
223
223
223
223
223
223
223.001
223.022
223.28
224.19
225.271
225.743
225.836
225.742
225.469
225.21
224.981
224.77
224.628
224.573
224.644
225.003
225.455
225.668
225.703
225.694
225.693
225.76
225.917
226.065
226.15
226.2
226.252
226.328
226.425
226.527
226.628
226.737
226.859
226.993
227.135
227.285
227.44
227.596
227.754
227.914
228.079
228.247
228.418
228.594
228.776
228.966
229.163
229.369
229.582
229.801
230.026
230.257
230.494
230.737
230.988
231.245
231.51
231.781
232.058
232.343
232.634
232.932
233.236
233.547
233.864
234.187
234.517
234.853
235.195
235.544
235.899
236.26
236.628
237.003
237.384
237.771
238.165
238.565
238.972
239.384
239.802
240.225
240.653
241.084
241.518
241.954
242.386
242.818
243.241
243.655
244.029
244.372
244.673
244.911
245.046
245.047
223
223
223
223
223
223
223
223
223
223
223
223
223
223
223
223
223
223
223
223
223
223
223
223
223
223.001
223.04
223.4
224.406
225.411
225.795
225.831
225.689
225.407
225.162
224.94
224.742
224.622
224.596
224.732
225.165
225.575
225.737
225.746
225.732
225.745
225.84
226.008
226.142
226.214
226.261
226.318
226.401
226.5
226.602
226.704
226.816
226.942
227.08
227.227
227.379
227.536
227.694
227.853
228.014
228.179
228.348
228.521
228.698
228.881
229.072
229.272
229.48
229.694
229.915
230.142
230.375
230.614
230.86
231.114
231.374
231.64
231.914
232.195
232.483
232.777
233.078
233.385
233.699
234.019
234.346
234.679
235.018
235.364
235.716
236.074
236.438