/*--------------------------------*- C++ -*----------------------------------*\
| =========                 |                                                 |
| \\      /  F ield         | OpenFOAM: The Open Source CFD Toolbox           |
|  \\    /   O peration     | Version:  2412                                  |
|   \\  /    A nd           | Website:  www.openfoam.com                      |
|    \\/     M anipulation  |                                                 |
\*---------------------------------------------------------------------------*/
FoamFile
{
    version     2.0;
    format      ascii;
    arch        "LSB;label=32;scalar=64";
    class       volVectorField;
    location    "0.019";
    object      U;
}
// * * * * * * * * * * * * * * * * * * * * * * * * * * * * * * * * * * * * * //

dimensions      [0 1 -1 0 0 0 0];

internalField   nonuniform List<vector> 
78650
(
(210 -8.09251e-13 0)
(210 3.81751e-12 0)
(210 -4.09301e-12 0)
(210 9.61561e-12 0)
(210 8.68851e-12 0)
(210 -7.6175e-12 0)
(210 -4.67582e-12 0)
(210 3.34606e-12 0)
(210 -2.86677e-13 0)
(210 2.82258e-12 0)
(210 3.22866e-12 0)
(210 6.12654e-12 0)
(210 6.60398e-12 0)
(210 9.36526e-12 0)
(210 2.14466e-12 0)
(210 -8.35107e-12 0)
(210 1.10685e-12 0)
(210 7.00714e-10 0)
(210 8.23227e-08 0)
(210 8.20328e-06 0)
(209.997 0.000713175 0)
(209.92 0.0236829 0)
(209.299 0.259348 0)
(207.565 1.04706 0)
(205.532 2.01459 0)
(204.63 2.55861 0)
(204.312 2.8122 0)
(204.559 2.90048 0)
(205.42 2.64141 0)
(206.472 2.29873 0)
(207.358 1.99936 0)
(208.203 1.88859 0)
(208.992 1.78587 0)
(209.791 1.73392 0)
(210.574 1.71714 0)
(211.221 1.8387 0)
(211.578 2.15018 0)
(211.718 2.58418 0)
(211.829 3.04048 0)
(211.908 3.55518 0)
(212.084 4.05011 0)
(212.387 4.47395 0)
(212.748 4.89131 0)
(213.029 5.3913 0)
(213.221 5.96954 0)
(213.4 6.59985 0)
(213.587 7.26251 0)
(213.768 7.9473 0)
(213.965 8.6491 0)
(214.142 9.3846 0)
(214.295 10.1555 0)
(214.429 10.959 0)
(214.545 11.7973 0)
(214.655 12.6722 0)
(214.748 13.589 0)
(214.817 14.5501 0)
(214.867 15.552 0)
(214.904 16.5912 0)
(214.927 17.6667 0)
(214.94 18.7765 0)
(214.944 19.9214 0)
(214.941 21.102 0)
(214.936 22.3182 0)
(214.932 23.5705 0)
(214.933 24.8615 0)
(214.937 26.1948 0)
(214.947 27.5717 0)
(214.965 28.9947 0)
(214.998 30.4645 0)
(215.049 31.9795 0)
(215.126 33.5399 0)
(215.237 35.1474 0)
(215.381 36.8032 0)
(215.572 38.5106 0)
(215.804 40.2713 0)
(216.099 42.0858 0)
(216.458 43.9539 0)
(216.891 45.8756 0)
(217.417 47.851 0)
(218.03 49.8803 0)
(218.765 51.9613 0)
(219.606 54.093 0)
(220.606 56.2696 0)
(221.741 58.4914 0)
(223.061 60.7524 0)
(224.56 63.0475 0)
(226.262 65.3636 0)
(228.195 67.6825 0)
(230.359 69.9972 0)
(232.824 72.2809 0)
(235.527 74.5582 0)
(238.609 76.7639 0)
(241.919 78.9534 0)
(245.669 80.9785 0)
(249.661 82.9548 0)
(254.095 84.7137 0)
(258.836 86.345 0)
(263.991 87.7324 0)
(269.526 88.8975 0)
(275.324 89.7863 0)
(281.464 90.4226 0)
(287.744 90.7438 0)
(294.206 90.7197 0)
(300.64 90.4005 0)
(307.567 89.662 0)
(313.755 88.7577 0)
(319.963 87.5161 0)
(325.824 86.0977 0)
(331.507 84.7307 0)
(338.624 82.7646 0)
(344.697 80.5432 0)
(351.289 78.0681 0)
(356.723 75.7771 0)
(361.047 73.8509 0)
(364.448 72.1071 0)
(366.416 70.6723 0)
(368.307 68.5869 0)
(370.679 67.4478 0)
(375.183 66.2622 0)
(381.838 65.2347 0)
(384.346 68.6638 0)
(210 1.97447e-12 0)
(210 3.09206e-12 0)
(210 -1.73429e-12 0)
(210 3.91453e-12 0)
(210 2.82819e-12 0)
(210 -7.36746e-12 0)
(210 8.44131e-12 0)
(210 2.53094e-12 0)
(210 -9.15939e-12 0)
(210 -3.71184e-12 0)
(210 6.67349e-12 0)
(210 8.99908e-12 0)
(210 6.19677e-12 0)
(210 7.27049e-12 0)
(210 -2.06347e-12 0)
(210 -5.79568e-12 0)
(210 -8.11636e-13 0)
(210 1.35619e-10 0)
(210 1.7635e-08 0)
(210 2.16949e-06 0)
(209.999 0.000266763 0)
(209.954 0.0119743 0)
(209.505 0.167737 0)
(207.953 0.823019 0)
(205.822 1.8123 0)
(204.65 2.45846 0)
(204.195 2.744 0)
(204.372 2.90737 0)
(205.095 2.70041 0)
(206.115 2.35524 0)
(207.027 2.04592 0)
(207.89 1.94538 0)
(208.679 1.85409 0)
(209.472 1.81099 0)
(210.258 1.79258 0)
(210.925 1.88329 0)
(211.303 2.1615 0)
(211.436 2.56531 0)
(211.532 2.99456 0)
(211.583 3.50103 0)
(211.72 4.00201 0)
(211.967 4.43378 0)
(212.305 4.84195 0)
(212.581 5.3284 0)
(212.763 5.89577 0)
(212.93 6.51696 0)
(213.093 7.17493 0)
(213.251 7.85549 0)
(213.428 8.54995 0)
(213.587 9.27407 0)
(213.724 10.0318 0)
(213.834 10.822 0)
(213.929 11.6451 0)
(214.017 12.5035 0)
(214.084 13.4034 0)
(214.126 14.3468 0)
(214.15 15.3303 0)
(214.157 16.3511 0)
(214.147 17.4082 0)
(214.125 18.499 0)
(214.093 19.6241 0)
(214.052 20.7843 0)
(214.006 21.9796 0)
(213.958 23.2101 0)
(213.912 24.4782 0)
(213.866 25.7883 0)
(213.824 27.1411 0)
(213.785 28.5396 0)
(213.756 29.985 0)
(213.738 31.4766 0)
(213.742 33.0132 0)
(213.772 34.5975 0)
(213.829 36.2301 0)
(213.927 37.9146 0)
(214.057 39.6532 0)
(214.242 41.4478 0)
(214.479 43.2984 0)
(214.78 45.2056 0)
(215.162 47.1701 0)
(215.619 49.1926 0)
(216.185 51.273 0)
(216.842 53.4112 0)
(217.643 55.6045 0)
(218.563 57.8512 0)
(219.654 60.1459 0)
(220.909 62.4841 0)
(222.355 64.8586 0)
(224.02 67.2604 0)
(225.907 69.6874 0)
(228.077 72.1215 0)
(230.48 74.5733 0)
(233.238 76.9821 0)
(236.219 79.3753 0)
(239.623 81.6424 0)
(243.259 83.8715 0)
(247.341 85.9154 0)
(251.701 87.8553 0)
(256.448 89.5687 0)
(261.556 91.1009 0)
(267.083 92.3885 0)
(272.937 93.3723 0)
(279.027 94.0526 0)
(285.623 94.4409 0)
(292.003 94.4949 0)
(298.936 94.227 0)
(305.181 93.7914 0)
(311.26 93.2591 0)
(318.804 91.9581 0)
(325.306 90.3652 0)
(332.772 88.3117 0)
(338.772 86.4023 0)
(344.056 84.7865 0)
(349.714 82.8396 0)
(354.786 80.9098 0)
(359.415 78.7472 0)
(362.63 76.8712 0)
(364.857 74.7376 0)
(366.65 73.3426 0)
(370.427 72.1029 0)
(377.596 70.8781 0)
(380.493 74.8088 0)
(210 1.03086e-12 0)
(210 2.75948e-12 0)
(210 -3.58824e-12 0)
(210 2.26625e-12 0)
(210 6.34642e-12 0)
(210 4.24125e-12 0)
(210 1.01935e-11 0)
(210 -1.10378e-11 0)
(210 -5.00725e-12 0)
(210 5.65922e-12 0)
(210 1.0926e-11 0)
(210 8.91972e-12 0)
(210 6.75432e-12 0)
(210 7.74848e-12 0)
(210 -7.56745e-12 0)
(210 -2.44614e-12 0)
(210 1.50422e-12 0)
(210 6.83533e-11 0)
(210 8.66523e-09 0)
(210 8.91184e-07 0)
(209.999 0.000102208 0)
(209.976 0.0057198 0)
(209.672 0.102551 0)
(208.364 0.624107 0)
(206.194 1.59226 0)
(204.72 2.34462 0)
(204.091 2.70198 0)
(204.202 2.87964 0)
(204.767 2.72301 0)
(205.737 2.38911 0)
(206.679 2.06884 0)
(207.566 1.97662 0)
(208.352 1.89377 0)
(209.133 1.85693 0)
(209.918 1.83529 0)
(210.606 1.8948 0)
(211.017 2.14279 0)
(211.154 2.51801 0)
(211.232 2.93257 0)
(211.252 3.43285 0)
(211.36 3.92935 0)
(211.552 4.37134 0)
(211.864 4.77392 0)
(212.136 5.24628 0)
(212.31 5.80259 0)
(212.465 6.4158 0)
(212.604 7.0703 0)
(212.737 7.74839 0)
(212.893 8.438 0)
(213.035 9.15288 0)
(213.152 9.89975 0)
(213.239 10.6783 0)
(213.312 11.488 0)
(213.377 12.332 0)
(213.417 13.2174 0)
(213.433 14.1449 0)
(213.43 15.1108 0)
(213.406 16.1144 0)
(213.362 17.1562 0)
(213.305 18.2304 0)
(213.236 19.338 0)
(213.156 20.4797 0)
(213.069 21.6559 0)
(212.978 22.8671 0)
(212.885 24.1152 0)
(212.789 25.4054 0)
(212.693 26.7367 0)
(212.598 28.1129 0)
(212.509 29.5347 0)
(212.423 31.0049 0)
(212.356 32.5186 0)
(212.308 34.0804 0)
(212.284 35.6897 0)
(212.292 37.3503 0)
(212.327 39.0645 0)
(212.409 40.8347 0)
(212.532 42.6615 0)
(212.711 44.5454 0)
(212.959 46.4879 0)
(213.273 48.489 0)
(213.682 50.5503 0)
(214.17 52.6712 0)
(214.787 54.8506 0)
(215.505 57.0864 0)
(216.379 59.3759 0)
(217.397 61.7177 0)
(218.587 64.1089 0)
(219.968 66.5447 0)
(221.547 69.0207 0)
(223.374 71.5198 0)
(225.412 74.0401 0)
(227.77 76.5376 0)
(230.343 79.031 0)
(233.322 81.4516 0)
(236.533 83.8604 0)
(240.198 86.147 0)
(244.155 88.3771 0)
(248.538 90.4408 0)
(253.267 92.359 0)
(258.384 94.0578 0)
(263.928 95.5331 0)
(269.825 96.6895 0)
(276.076 97.6033 0)
(282.402 98.1149 0)
(288.991 98.3539 0)
(296.355 98.1181 0)
(303.091 97.4453 0)
(310.915 96.5547 0)
(317.596 95.4356 0)
(323.438 94.5399 0)
(330.007 92.9346 0)
(335.448 91.6563 0)
(341.592 89.9422 0)
(347.182 88.111 0)
(352.109 86.0158 0)
(356.11 83.9825 0)
(359.236 81.7315 0)
(361.764 80.1357 0)
(366.087 78.7731 0)
(374.078 77.3207 0)
(377.058 81.7477 0)
(210 4.5167e-12 0)
(210 2.6384e-12 0)
(210 3.86329e-12 0)
(210 7.07494e-12 0)
(210 5.78447e-12 0)
(210 3.68237e-12 0)
(210 -8.54264e-12 0)
(210 -1.21331e-11 0)
(210 -2.44619e-12 0)
(210 1.01506e-11 0)
(210 2.16044e-12 0)
(210 8.69535e-13 0)
(210 -5.84932e-13 0)
(210 -2.54828e-12 0)
(210 -5.52917e-12 0)
(210 1.39784e-12 0)
(210 3.75789e-12 0)
(210 4.16738e-12 0)
(210 1.37243e-09 0)
(210 1.72026e-07 0)
(210 2.86877e-05 0)
(209.988 0.0023621 0)
(209.796 0.0568388 0)
(208.747 0.441306 0)
(206.612 1.34497 0)
(204.859 2.20226 0)
(204.015 2.64802 0)
(204.057 2.80741 0)
(204.448 2.72613 0)
(205.351 2.44324 0)
(206.33 2.12968 0)
(207.246 2.04131 0)
(208.027 1.95652 0)
(208.795 1.92032 0)
(209.573 1.8961 0)
(210.273 1.92948 0)
(210.715 2.14064 0)
(210.856 2.48309 0)
(210.92 2.87363 0)
(210.908 3.36763 0)
(210.988 3.85496 0)
(211.135 4.31698 0)
(211.415 4.7225 0)
(211.677 5.18304 0)
(211.843 5.72586 0)
(211.986 6.32824 0)
(212.101 6.97602 0)
(212.213 7.64809 0)
(212.347 8.32992 0)
(212.472 9.03153 0)
(212.571 9.7634 0)
(212.637 10.5262 0)
(212.689 11.3192 0)
(212.729 12.147 0)
(212.743 13.016 0)
(212.737 13.9222 0)
(212.709 14.8677 0)
(212.651 15.8564 0)
(212.578 16.8777 0)
(212.489 17.9316 0)
(212.386 19.018 0)
(212.269 20.1378 0)
(212.143 21.2918 0)
(212.01 22.4806 0)
(211.873 23.706 0)
(211.733 24.9697 0)
(211.587 26.2761 0)
(211.439 27.6265 0)
(211.294 29.021 0)
(211.143 30.4676 0)
(211.01 31.9522 0)
(210.888 33.486 0)
(210.785 35.0677 0)
(210.708 36.7006 0)
(210.651 38.3872 0)
(210.633 40.1303 0)
(210.646 41.9311 0)
(210.706 43.7903 0)
(210.822 45.7107 0)
(210.994 47.6922 0)
(211.248 49.7378 0)
(211.568 51.8472 0)
(212.001 54.022 0)
(212.52 56.2602 0)
(213.18 58.5624 0)
(213.965 60.9273 0)
(214.908 63.3527 0)
(216.022 65.8335 0)
(217.32 68.3628 0)
(218.848 70.9265 0)
(220.579 73.5211 0)
(222.613 76.12 0)
(224.86 78.741 0)
(227.491 81.3364 0)
(230.347 83.9419 0)
(233.632 86.4624 0)
(237.18 88.9446 0)
(241.145 91.2999 0)
(245.446 93.5414 0)
(250.119 95.5973 0)
(255.165 97.453 0)
(260.622 99.085 0)
(266.376 100.421 0)
(272.72 101.535 0)
(278.902 102.22 0)
(286.14 102.834 0)
(292.918 102.805 0)
(299.66 102.569 0)
(307.136 101.812 0)
(313.236 101.102 0)
(321.138 99.7946 0)
(327.745 98.3473 0)
(334.075 96.8297 0)
(340.832 95.0222 0)
(346.64 93.2025 0)
(352.042 90.8556 0)
(355.408 88.6052 0)
(357.799 86.8116 0)
(361.947 85.4559 0)
(370.539 83.9537 0)
(373.672 89.15 0)
(210 9.51274e-12 0)
(210 6.35264e-12 0)
(210 6.73329e-12 0)
(210 9.30295e-12 0)
(210 -8.43072e-13 0)
(210 -1.17374e-11 0)
(210 -1.1107e-11 0)
(210 -3.10067e-12 0)
(210 5.40605e-12 0)
(210 2.7963e-13 0)
(210 -2.80559e-12 0)
(210 2.32043e-12 0)
(210 1.25914e-12 0)
(210 -3.73736e-12 0)
(210 -3.29787e-12 0)
(210 4.24068e-12 0)
(210 2.68903e-12 0)
(210 -4.90026e-12 0)
(210 3.3503e-10 0)
(210 3.44232e-08 0)
(210 6.78489e-06 0)
(209.995 0.000866518 0)
(209.884 0.0286363 0)
(209.101 0.291712 0)
(207.111 1.09088 0)
(205.091 2.02522 0)
(203.981 2.56195 0)
(203.931 2.72478 0)
(204.145 2.70314 0)
(204.958 2.50014 0)
(205.963 2.19416 0)
(206.905 2.09269 0)
(207.678 1.99153 0)
(208.43 1.95036 0)
(209.201 1.92258 0)
(209.913 1.93516 0)
(210.398 2.10655 0)
(210.555 2.41678 0)
(210.613 2.78349 0)
(210.571 3.26976 0)
(210.618 3.75403 0)
(210.723 4.23256 0)
(210.966 4.6443 0)
(211.217 5.09252 0)
(211.376 5.62159 0)
(211.507 6.21557 0)
(211.596 6.85925 0)
(211.686 7.52825 0)
(211.795 8.20564 0)
(211.902 8.89602 0)
(211.98 9.6141 0)
(212.023 10.3617 0)
(212.054 11.1393 0)
(212.067 11.9532 0)
(212.057 12.8032 0)
(212.03 13.6874 0)
(211.967 14.621 0)
(211.884 15.5887 0)
(211.779 16.5913 0)
(211.656 17.6264 0)
(211.517 18.6932 0)
(211.364 19.7927 0)
(211.198 20.926 0)
(211.023 22.0935 0)
(210.842 23.2964 0)
(210.654 24.5379 0)
(210.458 25.8206 0)
(210.257 27.147 0)
(210.051 28.5197 0)
(209.846 29.9347 0)
(209.647 31.395 0)
(209.451 32.9053 0)
(209.271 34.4597 0)
(209.112 36.0629 0)
(208.967 37.7201 0)
(208.855 39.4333 0)
(208.765 41.2051 0)
(208.714 43.0338 0)
(208.709 44.9245 0)
(208.751 46.8758 0)
(208.862 48.8919 0)
(209.029 50.9722 0)
(209.294 53.12 0)
(209.632 55.3329 0)
(210.095 57.6131 0)
(210.663 59.9588 0)
(211.371 62.3699 0)
(212.228 64.8441 0)
(213.249 67.3788 0)
(214.472 69.9676 0)
(215.88 72.61 0)
(217.559 75.2938 0)
(219.435 78.0311 0)
(221.665 80.7859 0)
(224.109 83.5741 0)
(226.975 86.322 0)
(230.111 89.0595 0)
(233.688 91.7075 0)
(237.625 94.2754 0)
(241.981 96.7038 0)
(246.736 98.9657 0)
(251.886 101.022 0)
(257.492 102.844 0)
(263.476 104.402 0)
(269.785 105.583 0)
(275.929 106.525 0)
(282.924 107.181 0)
(289.197 107.449 0)
(296.988 107.429 0)
(304.331 106.826 0)
(311.449 105.98 0)
(319.345 104.613 0)
(325.663 103.324 0)
(333.375 101.429 0)
(339.265 99.9584 0)
(344.925 97.9168 0)
(348.99 95.6246 0)
(352.125 93.5467 0)
(356.813 91.9874 0)
(365.873 90.5293 0)
(368.919 96.2359 0)
(210 2.83817e-12 0)
(210 -5.58646e-12 0)
(210 6.00373e-13 0)
(210 3.97185e-12 0)
(210 -9.30435e-12 0)
(210 -9.54748e-12 0)
(210 -6.9708e-12 0)
(210 2.22799e-12 0)
(210 2.49355e-12 0)
(210 -7.47178e-12 0)
(210 -2.43918e-12 0)
(210 -2.82573e-12 0)
(210 2.03955e-12 0)
(210 7.68857e-14 0)
(210 -2.89322e-12 0)
(210 2.03324e-12 0)
(210 -6.56316e-12 0)
(210 -1.40746e-11 0)
(210 -6.73259e-11 0)
(210 -4.94105e-09 0)
(210 5.85799e-07 0)
(209.998 0.000257771 0)
(209.94 0.0126229 0)
(209.401 0.174901 0)
(207.642 0.830313 0)
(205.405 1.80166 0)
(203.983 2.42771 0)
(203.821 2.62897 0)
(203.874 2.68106 0)
(204.57 2.56776 0)
(205.584 2.27307 0)
(206.546 2.14947 0)
(207.311 2.0299 0)
(208.053 1.98644 0)
(208.817 1.95891 0)
(209.536 1.95629 0)
(210.056 2.08779 0)
(210.232 2.36667 0)
(210.282 2.71285 0)
(210.218 3.19137 0)
(210.226 3.68216 0)
(210.297 4.17424 0)
(210.502 4.59088 0)
(210.738 5.02664 0)
(210.893 5.54013 0)
(211.009 6.12237 0)
(211.077 6.75444 0)
(211.146 7.41422 0)
(211.227 8.08189 0)
(211.315 8.75696 0)
(211.373 9.45778 0)
(211.396 10.1873 0)
(211.405 10.948 0)
(211.39 11.7447 0)
(211.365 12.5681 0)
(211.304 13.442 0)
(211.22 14.3505 0)
(211.109 15.2974 0)
(210.975 16.2789 0)
(210.82 17.2921 0)
(210.649 18.3362 0)
(210.46 19.4122 0)
(210.257 20.5215 0)
(210.042 21.6646 0)
(209.819 22.8428 0)
(209.588 24.0579 0)
(209.346 25.3132 0)
(209.095 26.6112 0)
(208.837 27.9535 0)
(208.573 29.3411 0)
(208.309 30.7738 0)
(208.051 32.2501 0)
(207.803 33.7716 0)
(207.563 35.3448 0)
(207.333 36.9711 0)
(207.131 38.6481 0)
(206.939 40.3875 0)
(206.783 42.183 0)
(206.658 44.0431 0)
(206.572 45.9645 0)
(206.541 47.9529 0)
(206.557 50.0079 0)
(206.655 52.1346 0)
(206.811 54.3306 0)
(207.078 56.6005 0)
(207.432 58.9422 0)
(207.911 61.358 0)
(208.519 63.8469 0)
(209.276 66.4075 0)
(210.211 69.0353 0)
(211.317 71.7278 0)
(212.668 74.4759 0)
(214.202 77.2808 0)
(216.055 80.1128 0)
(218.101 82.9771 0)
(220.538 85.8271 0)
(223.212 88.6876 0)
(226.304 91.5014 0)
(229.725 94.278 0)
(233.55 96.9849 0)
(237.795 99.6009 0)
(242.458 102.074 0)
(247.552 104.342 0)
(253.106 106.443 0)
(259.16 108.372 0)
(265.502 109.733 0)
(272.598 110.885 0)
(279.812 111.45 0)
(286.934 111.892 0)
(294.832 111.906 0)
(301.401 111.747 0)
(309.492 111.052 0)
(316.373 110.315 0)
(324.287 109.017 0)
(331.033 107.656 0)
(337.17 105.781 0)
(341.879 103.63 0)
(345.459 101.539 0)
(350.229 100.078 0)
(359.796 98.5009 0)
(363.068 104.28 0)
(210 -2.7529e-12 0)
(210 -2.43543e-12 0)
(210 7.22401e-12 0)
(210 1.3956e-12 0)
(210 -3.91669e-12 0)
(210 -6.23382e-12 0)
(210 -3.81564e-12 0)
(210 -1.55741e-12 0)
(210 -9.19275e-12 0)
(210 -3.93566e-12 0)
(210 -5.53487e-12 0)
(210 5.88549e-12 0)
(210 3.87306e-12 0)
(210 -2.7673e-13 0)
(210 7.79287e-13 0)
(210 9.54039e-14 0)
(210 -7.12359e-12 0)
(210 -9.39632e-12 0)
(210 -2.63547e-11 0)
(210 -4.05571e-09 0)
(210 -1.56925e-07 0)
(209.999 5.79947e-05 0)
(209.972 0.00479002 0)
(209.635 0.0942729 0)
(208.189 0.589525 0)
(205.858 1.53887 0)
(204.089 2.25037 0)
(203.733 2.52994 0)
(203.638 2.66472 0)
(204.185 2.62214 0)
(205.175 2.33363 0)
(206.154 2.17649 0)
(206.921 2.04259 0)
(207.658 2.00123 0)
(208.414 1.97238 0)
(209.137 1.95128 0)
(209.697 2.0318 0)
(209.913 2.27776 0)
(209.966 2.60744 0)
(209.895 3.07265 0)
(209.847 3.57586 0)
(209.887 4.07197 0)
(210.042 4.50196 0)
(210.259 4.93544 0)
(210.412 5.43912 0)
(210.511 6.01224 0)
(210.557 6.63055 0)
(210.6 7.28228 0)
(210.651 7.94019 0)
(210.716 8.60052 0)
(210.752 9.28411 0)
(210.755 9.99636 0)
(210.739 10.7415 0)
(210.705 11.5167 0)
(210.648 12.3305 0)
(210.567 13.1794 0)
(210.457 14.0677 0)
(210.318 14.993 0)
(210.154 15.9528 0)
(209.968 16.9443 0)
(209.763 17.9665 0)
(209.539 19.0202 0)
(209.297 20.1068 0)
(209.042 21.2271 0)
(208.776 22.3816 0)
(208.499 23.5723 0)
(208.211 24.8021 0)
(207.909 26.0735 0)
(207.597 27.3883 0)
(207.277 28.7465 0)
(206.954 30.1487 0)
(206.63 31.5957 0)
(206.309 33.0893 0)
(205.995 34.6302 0)
(205.691 36.2192 0)
(205.402 37.8613 0)
(205.11 39.5716 0)
(204.856 41.3264 0)
(204.619 43.1486 0)
(204.416 45.0317 0)
(204.257 46.9822 0)
(204.135 48.9985 0)
(204.083 51.0865 0)
(204.077 53.2436 0)
(204.167 55.4761 0)
(204.326 57.7814 0)
(204.595 60.1642 0)
(204.971 62.6241 0)
(205.477 65.1623 0)
(206.133 67.7774 0)
(206.939 70.4682 0)
(207.957 73.231 0)
(209.139 76.0648 0)
(210.608 78.9554 0)
(212.259 81.9071 0)
(214.278 84.8936 0)
(216.524 87.9253 0)
(219.182 90.9557 0)
(222.155 93.9913 0)
(225.533 96.9932 0)
(229.323 99.9194 0)
(233.509 102.741 0)
(238.13 105.435 0)
(243.167 107.954 0)
(248.631 110.279 0)
(254.704 112.364 0)
(260.942 113.941 0)
(268.019 115.589 0)
(274.567 116.531 0)
(282.476 117.243 0)
(289.667 117.43 0)
(297.561 117.343 0)
(305.234 116.91 0)
(312.334 116.197 0)
(320.115 115.169 0)
(327.354 113.53 0)
(332.865 111.516 0)
(337.208 109.287 0)
(342.319 107.863 0)
(353.07 106.313 0)
(356.32 113.26 0)
(210 -2.04459e-12 0)
(210 4.11199e-12 0)
(210 7.68213e-12 0)
(210 2.61014e-12 0)
(210 -1.51564e-12 0)
(210 -1.36117e-11 0)
(210 -1.09738e-11 0)
(210 -1.08341e-11 0)
(210 -1.21627e-11 0)
(210 9.73253e-13 0)
(210 6.91711e-12 0)
(210 1.8288e-11 0)
(210 7.86819e-12 0)
(210 2.13373e-12 0)
(210 2.12132e-12 0)
(210 -4.4234e-12 0)
(210 -1.08812e-11 0)
(210 -8.88975e-12 0)
(210 -1.69779e-11 0)
(210 -2.05091e-09 0)
(210 -1.52814e-07 0)
(210 5.54375e-06 0)
(209.989 0.00147923 0)
(209.799 0.0442883 0)
(208.705 0.380879 0)
(206.416 1.24149 0)
(204.294 2.04061 0)
(203.658 2.4479 0)
(203.432 2.61978 0)
(203.806 2.62912 0)
(204.745 2.38023 0)
(205.742 2.2105 0)
(206.517 2.06003 0)
(207.251 2.01316 0)
(207.996 1.98306 0)
(208.718 1.95461 0)
(209.306 1.9997 0)
(209.573 2.21856 0)
(209.63 2.54258 0)
(209.56 2.9846 0)
(209.453 3.50212 0)
(209.461 3.99116 0)
(209.574 4.43891 0)
(209.768 4.86855 0)
(209.918 5.35562 0)
(209.998 5.91137 0)
(210.029 6.50255 0)
(210.041 7.14223 0)
(210.062 7.79057 0)
(210.101 8.43473 0)
(210.114 9.10064 0)
(210.101 9.79146 0)
(210.062 10.5177 0)
(210.001 11.2776 0)
(209.923 12.0689 0)
(209.818 12.8974 0)
(209.683 13.7636 0)
(209.519 14.6661 0)
(209.327 15.6027 0)
(209.112 16.5706 0)
(208.875 17.5683 0)
(208.617 18.5965 0)
(208.341 19.6571 0)
(208.047 20.751 0)
(207.74 21.8788 0)
(207.422 23.0417 0)
(207.09 24.2421 0)
(206.743 25.4829 0)
(206.383 26.7658 0)
(206.01 28.0917 0)
(205.63 29.461 0)
(205.245 30.8736 0)
(204.86 32.3308 0)
(204.476 33.8349 0)
(204.095 35.3896 0)
(203.716 36.9984 0)
(203.35 38.6583 0)
(202.997 40.3773 0)
(202.648 42.1642 0)
(202.331 44.0071 0)
(202.044 45.9172 0)
(201.787 47.8956 0)
(201.585 49.9478 0)
(201.416 52.0724 0)
(201.33 54.2758 0)
(201.294 56.5552 0)
(201.356 58.9171 0)
(201.504 61.3615 0)
(201.766 63.8911 0)
(202.156 66.5056 0)
(202.68 69.204 0)
(203.39 71.9851 0)
(204.251 74.846 0)
(205.369 77.7824 0)
(206.653 80.7954 0)
(208.271 83.8706 0)
(210.09 87.0105 0)
(212.294 90.1859 0)
(214.781 93.402 0)
(217.659 96.62 0)
(220.937 99.8032 0)
(224.611 102.944 0)
(228.758 106.022 0)
(233.371 108.974 0)
(238.415 111.736 0)
(243.896 114.265 0)
(249.894 116.668 0)
(256.251 118.69 0)
(263.367 120.32 0)
(270.361 121.466 0)
(278.557 122.579 0)
(285.571 123.018 0)
(294.762 123.101 0)
(302.293 122.659 0)
(311.584 121.773 0)
(319.554 120.471 0)
(326.033 118.571 0)
(331.259 116.351 0)
(336.733 114.723 0)
(347.506 113.295 0)
(350.71 120.358 0)
(210 4.39055e-13 0)
(210 8.31508e-12 0)
(210 -1.3063e-12 0)
(210 -5.71383e-12 0)
(210 -1.35836e-11 0)
(210 -1.55022e-11 0)
(210 -4.6121e-12 0)
(210 1.77928e-12 0)
(210 1.45911e-13 0)
(210 5.90559e-12 0)
(210 1.30068e-11 0)
(210 1.00857e-11 0)
(210 -5.34852e-12 0)
(210 -3.0752e-12 0)
(210 -4.01819e-12 0)
(210 -1.11802e-11 0)
(210 -6.58459e-12 0)
(210 -2.0287e-13 0)
(210 -5.0137e-12 0)
(210 -6.81399e-10 0)
(210 -6.55026e-08 0)
(210 -2.45471e-06 0)
(209.996 0.000338588 0)
(209.902 0.0176858 0)
(209.151 0.22056 0)
(207.064 0.935147 0)
(204.68 1.81025 0)
(203.632 2.35063 0)
(203.254 2.49892 0)
(203.47 2.59299 0)
(204.312 2.43229 0)
(205.307 2.23874 0)
(206.095 2.05397 0)
(206.831 1.98899 0)
(207.566 1.95511 0)
(208.286 1.9269 0)
(208.905 1.95217 0)
(209.236 2.15142 0)
(209.309 2.46681 0)
(209.255 2.87663 0)
(209.085 3.39986 0)
(209.045 3.88618 0)
(209.115 4.3512 0)
(209.275 4.7813 0)
(209.42 5.2502 0)
(209.483 5.78469 0)
(209.5 6.34922 0)
(209.475 6.98187 0)
(209.469 7.61723 0)
(209.479 8.24883 0)
(209.468 8.89875 0)
(209.442 9.56487 0)
(209.374 10.2764 0)
(209.29 11.0165 0)
(209.187 11.7886 0)
(209.059 12.5956 0)
(208.9 13.4393 0)
(208.71 14.3191 0)
(208.49 15.2332 0)
(208.244 16.1786 0)
(207.975 17.1535 0)
(207.683 18.1579 0)
(207.37 19.1937 0)
(207.037 20.2621 0)
(206.689 21.3637 0)
(206.328 22.4993 0)
(205.953 23.6713 0)
(205.561 24.8822 0)
(205.152 26.1343 0)
(204.728 27.4284 0)
(204.292 28.7649 0)
(203.847 30.144 0)
(203.397 31.5671 0)
(202.944 33.0356 0)
(202.489 34.5523 0)
(202.034 36.1199 0)
(201.581 37.7432 0)
(201.131 39.424 0)
(200.693 41.1608 0)
(200.274 42.9586 0)
(199.867 44.8258 0)
(199.484 46.7584 0)
(199.148 48.7586 0)
(198.833 50.8333 0)
(198.591 52.9859 0)
(198.382 55.2157 0)
(198.259 57.5278 0)
(198.201 59.9236 0)
(198.241 62.4073 0)
(198.383 64.9811 0)
(198.64 67.646 0)
(199.05 70.4049 0)
(199.592 73.2566 0)
(200.353 76.2048 0)
(201.257 79.2469 0)
(202.459 82.3783 0)
(203.835 85.5942 0)
(205.57 88.8798 0)
(207.559 92.2301 0)
(209.929 95.614 0)
(212.677 99.0182 0)
(215.809 102.443 0)
(219.416 105.832 0)
(223.457 109.139 0)
(227.97 112.371 0)
(233.033 115.467 0)
(238.555 118.385 0)
(244.704 121.023 0)
(251.39 123.31 0)
(258.203 125.143 0)
(265.965 126.972 0)
(273.285 127.958 0)
(281.557 128.68 0)
(289.437 129.21 0)
(297.998 129.332 0)
(306.032 128.964 0)
(312.775 127.759 0)
(318.504 125.882 0)
(324.057 124.603 0)
(335.548 122.96 0)
(338.249 130.771 0)
(210 1.06075e-14 0)
(210 -3.23173e-13 0)
(210 -5.58684e-12 0)
(210 -7.56801e-12 0)
(210 -1.18888e-11 0)
(210 -7.10503e-12 0)
(210 5.62917e-12 0)
(210 5.99688e-12 0)
(210 -5.36094e-12 0)
(210 6.84359e-12 0)
(210 1.22697e-11 0)
(210 4.70337e-12 0)
(210 -2.5537e-12 0)
(210 7.17459e-13 0)
(210 -1.35126e-12 0)
(210 -1.11041e-11 0)
(210 -2.45362e-12 0)
(210 6.12357e-12 0)
(210 6.51082e-12 0)
(210 -1.96745e-10 0)
(210 -2.15815e-08 0)
(210 -1.48986e-06 0)
(209.999 3.58886e-05 0)
(209.958 0.00571597 0)
(209.497 0.111181 0)
(207.749 0.6482 0)
(205.177 1.52735 0)
(203.688 2.1932 0)
(203.085 2.36077 0)
(203.193 2.57568 0)
(203.885 2.47128 0)
(204.845 2.24736 0)
(205.653 2.02219 0)
(206.402 1.9567 0)
(207.131 1.94396 0)
(207.849 1.93128 0)
(208.492 1.94437 0)
(208.887 2.11883 0)
(208.983 2.41495 0)
(208.948 2.78526 0)
(208.725 3.30283 0)
(208.619 3.79244 0)
(208.652 4.26651 0)
(208.77 4.68785 0)
(208.906 5.13303 0)
(208.958 5.64359 0)
(208.963 6.18664 0)
(208.9 6.80721 0)
(208.865 7.42858 0)
(208.845 8.05042 0)
(208.82 8.67581 0)
(208.766 9.32973 0)
(208.679 10.0174 0)
(208.57 10.7376 0)
(208.444 11.4886 0)
(208.293 12.2732 0)
(208.111 13.0936 0)
(207.897 13.9495 0)
(207.651 14.8392 0)
(207.377 15.76 0)
(207.077 16.7099 0)
(206.753 17.6884 0)
(206.405 18.6974 0)
(206.037 19.7381 0)
(205.651 20.8113 0)
(205.25 21.9172 0)
(204.834 23.0578 0)
(204.401 24.2357 0)
(203.948 25.4533 0)
(203.476 26.7118 0)
(202.989 28.0119 0)
(202.489 29.3536 0)
(201.98 30.7381 0)
(201.462 32.1668 0)
(200.938 33.6424 0)
(200.409 35.1677 0)
(199.876 36.7458 0)
(199.342 38.3794 0)
(198.81 40.0722 0)
(198.284 41.8266 0)
(197.77 43.6432 0)
(197.277 45.5241 0)
(196.805 47.4773 0)
(196.341 49.5101 0)
(195.943 51.6114 0)
(195.558 53.7967 0)
(195.255 56.0656 0)
(194.992 58.4228 0)
(194.814 60.8704 0)
(194.715 63.412 0)
(194.716 66.0494 0)
(194.844 68.7866 0)
(195.087 71.622 0)
(195.519 74.5622 0)
(196.077 77.6012 0)
(196.897 80.7432 0)
(197.866 83.9799 0)
(199.164 87.3085 0)
(200.678 90.7192 0)
(202.551 94.2014 0)
(204.756 97.7538 0)
(207.317 101.362 0)
(210.335 104.973 0)
(213.755 108.578 0)
(217.668 112.178 0)
(222.108 115.7 0)
(227.01 119.119 0)
(232.501 122.286 0)
(238.469 125.328 0)
(245.121 128.167 0)
(252.151 130.415 0)
(260.162 132.392 0)
(267.63 133.674 0)
(276.858 135.02 0)
(284.469 135.704 0)
(294.639 136.03 0)
(302.051 135.474 0)
(309.051 133.769 0)
(315.136 132.755 0)
(327.483 131.658 0)
(329.948 141.105 0)
(210 2.29361e-12 0)
(210 -3.37255e-12 0)
(210 -2.9514e-12 0)
(210 -2.99484e-12 0)
(210 -9.52872e-12 0)
(210 -2.65434e-12 0)
(210 2.76938e-12 0)
(210 1.06265e-12 0)
(210 2.07478e-12 0)
(210 2.28735e-11 0)
(210 1.52557e-11 0)
(210 -3.82693e-13 0)
(210 -5.41939e-12 0)
(210 -3.12521e-13 0)
(210 -2.35649e-12 0)
(210 -1.14368e-12 0)
(210 9.79146e-12 0)
(210 6.4895e-12 0)
(210 7.00143e-12 0)
(210 -4.43842e-11 0)
(210 -5.90928e-09 0)
(210 -5.28417e-07 0)
(210 -1.27168e-05 0)
(209.984 0.00135602 0)
(209.735 0.047522 0)
(208.406 0.403063 0)
(205.833 1.22151 0)
(203.883 1.98423 0)
(202.967 2.27221 0)
(202.98 2.49926 0)
(203.47 2.44835 0)
(204.357 2.2164 0)
(205.2 1.97831 0)
(205.974 1.9365 0)
(206.705 1.94398 0)
(207.415 1.93609 0)
(208.07 1.9355 0)
(208.527 2.07598 0)
(208.657 2.34679 0)
(208.649 2.67861 0)
(208.388 3.18219 0)
(208.189 3.68717 0)
(208.189 4.15007 0)
(208.256 4.56869 0)
(208.379 4.99744 0)
(208.424 5.48807 0)
(208.42 6.00916 0)
(208.326 6.61314 0)
(208.249 7.22389 0)
(208.205 7.82864 0)
(208.157 8.43872 0)
(208.085 9.07103 0)
(207.977 9.73916 0)
(207.844 10.4408 0)
(207.694 11.172 0)
(207.521 11.9343 0)
(207.317 12.7308 0)
(207.079 13.562 0)
(206.808 14.4267 0)
(206.506 15.3225 0)
(206.176 16.2469 0)
(205.82 17.1993 0)
(205.44 18.1809 0)
(205.036 19.1937 0)
(204.612 20.2383 0)
(204.171 21.3151 0)
(203.715 22.4253 0)
(203.239 23.5713 0)
(202.741 24.7558 0)
(202.222 25.9801 0)
(201.684 27.2449 0)
(201.128 28.5503 0)
(200.559 29.8972 0)
(199.978 31.2868 0)
(199.387 32.7215 0)
(198.786 34.204 0)
(198.178 35.7374 0)
(197.562 37.3244 0)
(196.943 38.9679 0)
(196.324 40.6701 0)
(195.709 42.4349 0)
(195.103 44.2653 0)
(194.508 46.1638 0)
(193.936 48.1284 0)
(193.397 50.1692 0)
(192.847 52.3026 0)
(192.385 54.5011 0)
(191.936 56.7933 0)
(191.569 59.1756 0)
(191.252 61.6548 0)
(191.021 64.2324 0)
(190.886 66.9145 0)
(190.847 69.7012 0)
(190.96 72.603 0)
(191.179 75.6146 0)
(191.621 78.7492 0)
(192.187 81.9962 0)
(193.047 85.365 0)
(194.089 88.8442 0)
(195.467 92.437 0)
(197.137 96.1331 0)
(199.15 99.9105 0)
(201.596 103.739 0)
(204.409 107.631 0)
(207.73 111.554 0)
(211.539 115.435 0)
(215.825 119.272 0)
(220.763 122.98 0)
(226.169 126.603 0)
(232.195 129.905 0)
(238.887 132.974 0)
(246.2 135.697 0)
(253.947 138.003 0)
(262.589 140.09 0)
(271.096 141.326 0)
(281.178 142.313 0)
(289.778 142.457 0)
(297.878 141.353 0)
(304.394 140.453 0)
(316.7 139.546 0)
(319.123 148.563 0)
(210 5.2238e-13 0)
(210 -7.53753e-12 0)
(210 -1.03098e-11 0)
(210 -1.43414e-11 0)
(210 -1.31808e-11 0)
(210 1.88912e-12 0)
(210 2.70948e-13 0)
(210 2.44732e-12 0)
(210 1.12351e-11 0)
(210 1.07345e-11 0)
(210 -1.53444e-12 0)
(210 -2.89899e-12 0)
(210 -1.01831e-12 0)
(210 5.94573e-12 0)
(210 7.38962e-12 0)
(210 3.99533e-12 0)
(210 5.16904e-12 0)
(210 5.3491e-13 0)
(210 -2.19707e-12 0)
(210 -1.98098e-11 0)
(210 -1.4345e-09 0)
(210 -1.53385e-07 0)
(210 -9.30277e-06 0)
(209.995 0.000149803 0)
(209.877 0.0164197 0)
(208.973 0.220027 0)
(206.593 0.902418 0)
(204.212 1.73658 0)
(202.908 2.1661 0)
(202.818 2.35198 0)
(203.093 2.35875 0)
(203.864 2.19539 0)
(204.744 1.97343 0)
(205.553 1.94242 0)
(206.283 1.95065 0)
(206.976 1.9354 0)
(207.635 1.92502 0)
(208.145 2.02985 0)
(208.323 2.27439 0)
(208.341 2.57369 0)
(208.066 3.05065 0)
(207.765 3.56397 0)
(207.719 4.00869 0)
(207.737 4.43089 0)
(207.843 4.84694 0)
(207.883 5.31583 0)
(207.869 5.81383 0)
(207.748 6.39768 0)
(207.63 6.99719 0)
(207.556 7.5885 0)
(207.486 8.18322 0)
(207.396 8.79786 0)
(207.269 9.44679 0)
(207.113 10.1298 0)
(206.939 10.8412 0)
(206.743 11.5814 0)
(206.517 12.354 0)
(206.257 13.1604 0)
(205.962 13.9998 0)
(205.634 14.8698 0)
(205.276 15.768 0)
(204.89 16.6929 0)
(204.479 17.6456 0)
(204.043 18.6281 0)
(203.585 19.6415 0)
(203.108 20.686 0)
(202.614 21.7626 0)
(202.1 22.8734 0)
(201.562 24.0211 0)
(201 25.2074 0)
(200.415 26.4331 0)
(199.809 27.6982 0)
(199.186 29.0036 0)
(198.548 30.35 0)
(197.895 31.7398 0)
(197.229 33.1754 0)
(196.551 34.6601 0)
(195.86 36.1964 0)
(195.16 37.7876 0)
(194.453 39.4361 0)
(193.742 41.145 0)
(193.031 42.9173 0)
(192.324 44.757 0)
(191.626 46.6685 0)
(190.936 48.655 0)
(190.27 50.7118 0)
(189.643 52.8541 0)
(188.999 55.0971 0)
(188.445 57.414 0)
(187.913 59.8332 0)
(187.46 62.3533 0)
(187.073 64.9811 0)
(186.77 67.7161 0)
(186.588 70.5689 0)
(186.495 73.5348 0)
(186.59 76.6313 0)
(186.785 79.8457 0)
(187.235 83.1977 0)
(187.829 86.673 0)
(188.726 90.2855 0)
(189.862 94.0196 0)
(191.318 97.8684 0)
(193.158 101.828 0)
(195.33 105.901 0)
(198.001 110.042 0)
(201.104 114.212 0)
(204.722 118.416 0)
(208.955 122.591 0)
(213.664 126.759 0)
(219.12 130.7 0)
(225.07 134.465 0)
(231.715 137.955 0)
(239.073 141.358 0)
(246.646 143.906 0)
(255.681 146.43 0)
(264.295 148.143 0)
(273.654 149.68 0)
(281.659 149.704 0)
(288.088 149.603 0)
(300.765 148.946 0)
(302.329 158.926 0)
(210 -2.0533e-12 0)
(210 -1.10669e-11 0)
(210 -1.08126e-11 0)
(210 -2.05676e-11 0)
(210 -2.25241e-12 0)
(210 9.10718e-12 0)
(210 1.22095e-13 0)