/*--------------------------------*- C++ -*----------------------------------*\
| =========                 |                                                 |
| \\      /  F ield         | OpenFOAM: The Open Source CFD Toolbox           |
|  \\    /   O peration     | Version:  2406                                  |
|   \\  /    A nd           | Website:  www.openfoam.com                      |
|    \\/     M anipulation  |                                                 |
\*---------------------------------------------------------------------------*/
FoamFile
{
    version     2.0;
    format      ascii;
    arch        "LSB;label=32;scalar=64";
    class       volVectorField;
    location    "0.019";
    object      U;
}
// * * * * * * * * * * * * * * * * * * * * * * * * * * * * * * * * * * * * * //

dimensions      [0 1 -1 0 0 0 0];

internalField   nonuniform List<vector> 
78650
(
(210 1.5312e-10 0)
(210 8.61333e-09 0)
(210 1.0226e-06 0)
(210 0.000104893 0)
(209.982 0.00592952 0)
(209.72 0.11054 0)
(208.534 0.676054 0)
(206.612 1.72557 0)
(205.146 2.51552 0)
(204.923 2.77676 0)
(204.872 2.91492 0)
(205.518 2.8027 0)
(206.611 2.39349 0)
(207.66 2.10837 0)
(208.494 1.86908 0)
(209.319 1.73811 0)
(210.132 1.60039 0)
(210.955 1.50272 0)
(211.745 1.47365 0)
(212.375 1.63341 0)
(212.736 1.99076 0)
(212.912 2.46812 0)
(213.065 2.96611 0)
(213.197 3.50526 0)
(213.438 4.00288 0)
(213.833 4.42711 0)
(214.264 4.84915 0)
(214.628 5.33822 0)
(214.945 5.88516 0)
(215.233 6.48406 0)
(215.521 7.12829 0)
(215.798 7.81742 0)
(216.057 8.54674 0)
(216.302 9.30986 0)
(216.528 10.1038 0)
(216.733 10.9262 0)
(216.917 11.7774 0)
(217.087 12.6579 0)
(217.245 13.5678 0)
(217.393 14.5077 0)
(217.529 15.4784 0)
(217.656 16.4825 0)
(217.772 17.523 0)
(217.88 18.6 0)
(217.982 19.7103 0)
(218.084 20.8497 0)
(218.186 22.0176 0)
(218.287 23.2172 0)
(218.385 24.4523 0)
(218.483 25.725 0)
(218.586 27.0345 0)
(218.702 28.3793 0)
(218.833 29.759 0)
(218.983 31.1746 0)
(219.158 32.6271 0)
(219.357 34.1176 0)
(219.58 35.6468 0)
(219.84 37.2147 0)
(220.139 38.8202 0)
(220.476 40.462 0)
(220.87 42.1396 0)
(221.324 43.8515 0)
(221.833 45.5967 0)
(222.42 47.3745 0)
(223.092 49.1822 0)
(223.836 51.0189 0)
(224.69 52.882 0)
(225.642 54.7696 0)
(226.695 56.6813 0)
(227.89 58.6088 0)
(229.2 60.5465 0)
(230.648 62.4866 0)
(232.266 64.4188 0)
(234.024 66.3446 0)
(235.952 68.26 0)
(238.067 70.1532 0)
(240.335 72.0247 0)
(242.813 73.8525 0)
(245.489 75.6271 0)
(248.37 77.3302 0)
(251.457 78.9603 0)
(254.787 80.4658 0)
(258.284 81.9012 0)
(262.029 83.1586 0)
(265.958 84.3013 0)
(270.16 85.2259 0)
(274.567 86.0102 0)
(279.079 86.6004 0)
(283.244 87.1245 0)
(287.846 87.5144 0)
(292.985 87.5799 0)
(298.118 87.4216 0)
(302.855 87.1623 0)
(306.653 87.0644 0)
(311.262 86.6041 0)
(316.848 85.7035 0)
(322.801 84.5884 0)
(327.269 83.603 0)
(330.506 82.8767 0)
(333.341 82.1062 0)
(336.747 81.2874 0)
(341.271 80.092 0)
(346.085 78.5682 0)
(350.053 77.1549 0)
(354.21 75.551 0)
(356.937 74.5231 0)
(360.038 73.0576 0)
(362.335 72.1296 0)
(364.997 70.8289 0)
(366.957 70.2276 0)
(369.255 69.2866 0)
(370.908 68.9421 0)
(372.822 68.125 0)
(374.057 67.6652 0)
(375.183 66.8069 0)
(375.888 66.3456 0)
(376.968 65.6943 0)
(378.508 65.3921 0)
(380.783 65.0574 0)
(383.921 64.7118 0)
(385.14 66.3977 0)
(210 2.73471e-11 0)
(210 2.21109e-09 0)
(210 3.29578e-07 0)
(210 3.85499e-05 0)
(209.99 0.00279543 0)
(209.819 0.0662671 0)
(208.843 0.50117 0)
(206.913 1.4939 0)
(205.226 2.36662 0)
(204.851 2.71602 0)
(204.698 2.91686 0)
(205.196 2.87363 0)
(206.253 2.49313 0)
(207.315 2.1856 0)
(208.156 1.92677 0)
(208.981 1.79844 0)
(209.785 1.67321 0)
(210.601 1.58973 0)
(211.396 1.56384 0)
(212.049 1.69758 0)
(212.422 2.02708 0)
(212.584 2.47969 0)
(212.719 2.94922 0)
(212.815 3.47761 0)
(213.006 3.98934 0)
(213.348 4.42373 0)
(213.757 4.83771 0)
(214.113 5.31715 0)
(214.417 5.85857 0)
(214.689 6.45211 0)
(214.958 7.09043 0)
(215.214 7.77305 0)
(215.452 8.4939 0)
(215.675 9.24701 0)
(215.877 10.0295 0)
(216.055 10.8389 0)
(216.212 11.6752 0)
(216.355 12.5393 0)
(216.485 13.4323 0)
(216.602 14.3556 0)
(216.706 15.3103 0)
(216.799 16.2987 0)
(216.88 17.3234 0)
(216.951 18.3844 0)
(217.016 19.479 0)
(217.077 20.603 0)
(217.137 21.7549 0)
(217.194 22.9375 0)
(217.247 24.1549 0)
(217.296 25.4096 0)
(217.346 26.7013 0)
(217.404 28.0288 0)
(217.474 29.3911 0)
(217.559 30.789 0)
(217.665 32.2237 0)
(217.789 33.6965 0)
(217.934 35.2083 0)
(218.109 36.7599 0)
(218.317 38.3505 0)
(218.556 39.9789 0)
(218.844 41.6458 0)
(219.185 43.3494 0)
(219.573 45.089 0)
(220.031 46.8649 0)
(220.562 48.6751 0)
(221.159 50.5191 0)
(221.857 52.396 0)
(222.639 54.3038 0)
(223.515 56.241 0)
(224.523 58.2005 0)
(225.637 60.1782 0)
(226.882 62.1724 0)
(228.287 64.1794 0)
(229.821 66.1993 0)
(231.522 68.2226 0)
(233.402 70.2333 0)
(235.43 72.2266 0)
(237.663 74.183 0)
(240.082 76.0951 0)
(242.688 77.9502 0)
(245.491 79.7414 0)
(248.51 81.4389 0)
(251.677 83.0797 0)
(255.087 84.5824 0)
(258.626 86.0268 0)
(262.389 87.2933 0)
(266.31 88.4446 0)
(270.435 89.4114 0)
(274.843 90.198 0)
(279.437 90.7779 0)
(284.357 91.2895 0)
(288.649 91.606 0)
(293.156 91.7969 0)
(298.043 91.6947 0)
(303.684 91.3475 0)
(308.528 90.9294 0)
(312.774 90.4405 0)
(316.457 89.9836 0)
(320.55 89.3699 0)
(325.939 88.2661 0)
(331.232 86.8447 0)
(336.229 85.4998 0)
(340.345 84.316 0)
(343.382 83.5736 0)
(346.322 82.6337 0)
(349.008 81.8925 0)
(352.107 80.6332 0)
(354.734 79.7301 0)
(357.761 78.4323 0)
(360.102 77.7177 0)
(362.777 76.6918 0)
(364.954 76.1465 0)
(367.514 75.2527 0)
(369.446 74.595 0)
(371.179 73.675 0)
(372.303 72.9246 0)
(373.315 72.0186 0)
(374.555 71.5226 0)
(376.76 71.0334 0)
(380.23 70.5362 0)
(381.692 72.2793 0)
(210 1.29069e-11 0)
(210 1.06485e-09 0)
(210 1.33039e-07 0)
(210 1.43952e-05 0)
(209.995 0.00123 0)
(209.89 0.0370894 0)
(209.134 0.353581 0)
(207.294 1.25515 0)
(205.407 2.2046 0)
(204.78 2.66157 0)
(204.535 2.89996 0)
(204.891 2.91501 0)
(205.882 2.58047 0)
(206.944 2.24113 0)
(207.796 1.95258 0)
(208.623 1.82617 0)
(209.419 1.71786 0)
(210.227 1.65179 0)
(211.025 1.63034 0)
(211.701 1.73809 0)
(212.095 2.04173 0)
(212.251 2.46764 0)
(212.362 2.92208 0)
(212.428 3.44269 0)
(212.58 3.95931 0)
(212.862 4.40281 0)
(213.244 4.81127 0)
(213.593 5.28294 0)
(213.883 5.82033 0)
(214.14 6.41026 0)
(214.391 7.04484 0)
(214.624 7.72274 0)
(214.841 8.43662 0)
(215.042 9.18112 0)
(215.218 9.95336 0)
(215.369 10.751 0)
(215.499 11.5739 0)
(215.615 12.4232 0)
(215.715 13.3011 0)
(215.801 14.2097 0)
(215.872 15.1504 0)
(215.931 16.1249 0)
(215.977 17.1362 0)
(216.011 18.1837 0)
(216.037 19.2647 0)
(216.057 20.3759 0)
(216.075 21.5142 0)
(216.088 22.6827 0)
(216.095 23.8858 0)
(216.094 25.1261 0)
(216.091 26.4038 0)
(216.091 27.718 0)
(216.1 29.0669 0)
(216.12 30.4509 0)
(216.158 31.8715 0)
(216.209 33.3297 0)
(216.277 34.8269 0)
(216.371 36.3644 0)
(216.49 37.941 0)
(216.635 39.5561 0)
(216.824 41.2104 0)
(217.058 42.9022 0)
(217.33 44.6309 0)
(217.668 46.3976 0)
(218.068 48.2004 0)
(218.526 50.0389 0)
(219.076 51.9121 0)
(219.699 53.8179 0)
(220.408 55.7564 0)
(221.238 57.7241 0)
(222.156 59.7193 0)
(223.196 61.7395 0)
(224.377 63.7775 0)
(225.672 65.8286 0)
(227.127 67.8846 0)
(228.743 69.9378 0)
(230.493 71.991 0)
(232.438 74.0339 0)
(234.555 76.0617 0)
(236.85 78.0644 0)
(239.352 80.0294 0)
(242.068 81.9352 0)
(244.965 83.792 0)
(248.122 85.5431 0)
(251.441 87.2395 0)
(255.017 88.7654 0)
(258.754 90.2094 0)
(262.784 91.4469 0)
(266.995 92.5656 0)
(271.217 93.4436 0)
(275.579 94.2663 0)
(279.993 94.9086 0)
(284.792 95.3687 0)
(289.727 95.6189 0)
(294.492 95.6489 0)
(298.776 95.6066 0)
(303.068 95.4996 0)
(308.221 95.0653 0)
(313.558 94.3548 0)
(318.934 93.5745 0)
(323.29 92.7941 0)
(326.956 92.1491 0)
(330.556 91.2567 0)
(333.901 90.5423 0)
(337.861 89.4883 0)
(341.487 88.587 0)
(345.684 87.3367 0)
(348.974 86.4371 0)
(352.648 85.1954 0)
(355.457 84.4169 0)
(358.683 83.2797 0)
(361.185 82.5692 0)
(363.92 81.5436 0)
(365.883 80.8554 0)
(367.607 79.8956 0)
(368.664 79.2214 0)
(369.767 78.2244 0)
(371.09 77.5947 0)
(373.506 77.0674 0)
(377.625 76.5134 0)
(379.229 78.8055 0)
(210 2.93544e-12 0)
(210 2.70616e-10 0)
(210 3.63803e-08 0)
(210 4.39329e-06 0)
(209.998 0.000470024 0)
(209.938 0.0187476 0)
(209.387 0.231552 0)
(207.703 1.00639 0)
(205.63 2.00593 0)
(204.735 2.59321 0)
(204.379 2.84104 0)
(204.618 2.93409 0)
(205.507 2.66571 0)
(206.555 2.30241 0)
(207.426 1.99627 0)
(208.265 1.88695 0)
(209.059 1.79676 0)
(209.857 1.74125 0)
(210.652 1.71885 0)
(211.343 1.79816 0)
(211.758 2.06719 0)
(211.91 2.45805 0)
(211.997 2.89219 0)
(212.027 3.40751 0)
(212.148 3.91857 0)
(212.375 4.38158 0)
(212.724 4.79493 0)
(213.06 5.25926 0)
(213.335 5.78843 0)
(213.578 6.36972 0)
(213.81 6.99639 0)
(214.022 7.66563 0)
(214.218 8.36871 0)
(214.396 9.10092 0)
(214.546 9.85925 0)
(214.671 10.6415 0)
(214.775 11.4476 0)
(214.864 12.2792 0)
(214.936 13.1394 0)
(214.991 14.0305 0)
(215.031 14.9553 0)
(215.058 15.9134 0)
(215.07 16.9085 0)
(215.069 17.9387 0)
(215.058 19.0027 0)
(215.039 20.0974 0)
(215.018 21.2175 0)
(214.99 22.3675 0)
(214.952 23.5514 0)
(214.905 24.772 0)
(214.853 26.0296 0)
(214.799 27.3235 0)
(214.75 28.6525 0)
(214.709 30.0158 0)
(214.682 31.4156 0)
(214.663 32.8525 0)
(214.658 34.328 0)
(214.673 35.8442 0)
(214.707 37.4001 0)
(214.761 38.9953 0)
(214.853 40.6315 0)
(214.98 42.3067 0)
(215.139 44.0209 0)
(215.357 45.7759 0)
(215.625 47.57 0)
(215.944 49.4032 0)
(216.347 51.2756 0)
(216.809 53.186 0)
(217.352 55.1361 0)
(218.002 57.1233 0)
(218.727 59.1433 0)
(219.569 61.1933 0)
(220.539 63.2683 0)
(221.615 65.3676 0)
(222.847 67.4892 0)
(224.225 69.6289 0)
(225.73 71.7853 0)
(227.425 73.9438 0)
(229.28 76.0942 0)
(231.309 78.2238 0)
(233.541 80.3188 0)
(235.968 82.3637 0)
(238.567 84.3609 0)
(241.399 86.2783 0)
(244.386 88.1452 0)
(247.622 89.8884 0)
(250.99 91.5811 0)
(254.62 93.0793 0)
(258.366 94.5392 0)
(262.41 95.8201 0)
(266.637 96.9087 0)
(271.178 97.9037 0)
(275.804 98.7233 0)
(280.377 99.3754 0)
(284.888 99.8556 0)
(289.715 100.114 0)
(294.904 100.176 0)
(300.178 100.069 0)
(304.951 99.7804 0)
(309.03 99.6097 0)
(313.55 98.9913 0)
(317.461 98.5276 0)
(322.407 97.7359 0)
(327.18 96.8166 0)
(332.14 95.7122 0)
(336.549 94.5993 0)
(340.68 93.4265 0)
(344.04 92.5219 0)
(347.741 91.29 0)
(350.634 90.4184 0)
(354.086 89.1109 0)
(356.758 88.2927 0)
(359.874 87.1334 0)
(362.143 86.4489 0)
(364.405 85.4158 0)
(365.729 84.7553 0)
(367.004 83.7407 0)
(368.406 83.1718 0)
(370.915 82.7074 0)
(375.054 82.3868 0)
(376.67 84.9934 0)
(210 -2.32948e-12 0)
(210 8.58076e-11 0)
(210 1.03788e-08 0)
(210 1.2791e-06 0)
(209.999 0.000158236 0)
(209.968 0.00850724 0)
(209.598 0.139627 0)
(208.145 0.764271 0)
(205.982 1.78017 0)
(204.749 2.47979 0)
(204.227 2.77887 0)
(204.382 2.94446 0)
(205.117 2.71942 0)
(206.132 2.33983 0)
(207.032 2.02387 0)
(207.89 1.93555 0)
(208.679 1.86062 0)
(209.462 1.81061 0)
(210.25 1.78351 0)
(210.954 1.83326 0)
(211.401 2.065 0)
(211.558 2.42327 0)
(211.628 2.83516 0)
(211.617 3.34802 0)
(211.709 3.85167 0)
(211.884 4.33878 0)
(212.194 4.76077 0)
(212.514 5.21898 0)
(212.772 5.74075 0)
(212.999 6.3152 0)
(213.211 6.93639 0)
(213.402 7.59835 0)
(213.577 8.29142 0)
(213.73 9.01185 0)
(213.854 9.75659 0)
(213.952 10.5238 0)
(214.029 11.3139 0)
(214.091 12.129 0)
(214.133 12.9739 0)
(214.158 13.8491 0)
(214.164 14.7585 0)
(214.159 15.7005 0)
(214.136 16.6812 0)
(214.1 17.697 0)
(214.051 18.7464 0)
(213.994 19.8241 0)
(213.931 20.9292 0)
(213.86 22.0635 0)
(213.778 23.2307 0)
(213.684 24.4341 0)
(213.581 25.6745 0)
(213.473 26.9515 0)
(213.365 28.2651 0)
(213.263 29.61 0)
(213.169 30.9914 0)
(213.082 32.4101 0)
(213.005 33.8664 0)
(212.942 35.3639 0)
(212.893 36.9009 0)
(212.859 38.4769 0)
(212.858 40.0946 0)
(212.884 41.7513 0)
(212.937 43.4472 0)
(213.042 45.1849 0)
(213.187 46.9623 0)
(213.378 48.78 0)
(213.644 50.6386 0)
(213.957 52.5362 0)
(214.345 54.475 0)
(214.827 56.4529 0)
(215.372 58.4662 0)
(216.026 60.516 0)
(216.79 62.6 0)
(217.645 64.7177 0)
(218.643 66.8661 0)
(219.767 69.0374 0)
(221.008 71.2271 0)
(222.427 73.4266 0)
(223.99 75.6317 0)
(225.715 77.8383 0)
(227.633 80.0382 0)
(229.729 82.222 0)
(232.006 84.3888 0)
(234.522 86.514 0)
(237.214 88.6032 0)
(240.155 90.611 0)
(243.27 92.5775 0)
(246.679 94.3903 0)
(250.212 96.1508 0)
(254.034 97.6907 0)
(257.995 99.1673 0)
(262.094 100.43 0)
(266.317 101.598 0)
(270.747 102.594 0)
(275.436 103.416 0)
(280.19 104.008 0)
(284.953 104.476 0)
(289.606 104.796 0)
(294.217 104.886 0)
(298.609 104.89 0)
(303.955 104.706 0)
(308.982 104.262 0)
(314.238 103.683 0)
(319.163 102.954 0)
(323.122 102.458 0)
(327.276 101.701 0)
(330.738 101.053 0)
(334.123 100.404 0)
(337.857 99.4083 0)
(341.019 98.6307 0)
(344.745 97.3921 0)
(347.826 96.5209 0)
(351.309 95.3599 0)
(354.091 94.5997 0)
(356.894 93.5409 0)
(358.831 92.7425 0)
(360.615 91.8448 0)
(362.496 91.4364 0)
(365.278 91.0012 0)
(369.363 90.5548 0)
(370.927 92.8002 0)
(210 -9.52257e-12 0)
(210 1.34781e-11 0)
(210 1.87986e-09 0)
(210 2.83077e-07 0)
(210 4.36452e-05 0)
(209.986 0.00335806 0)
(209.758 0.0756377 0)
(208.587 0.539489 0)
(206.396 1.5079 0)
(204.82 2.33662 0)
(204.091 2.72862 0)
(204.168 2.88984 0)
(204.726 2.74759 0)
(205.69 2.39588 0)
(206.629 2.0864 0)
(207.513 2.01223 0)
(208.292 1.93891 0)
(209.056 1.88801 0)
(209.834 1.85714 0)
(210.547 1.88184 0)
(211.028 2.07205 0)
(211.189 2.39659 0)
(211.244 2.78468 0)
(211.195 3.29366 0)
(211.252 3.80152 0)
(211.387 4.30803 0)
(211.654 4.73932 0)
(211.952 5.18833 0)
(212.192 5.69817 0)
(212.403 6.26178 0)
(212.593 6.87314 0)
(212.763 7.52251 0)
(212.917 8.20104 0)
(213.044 8.90598 0)
(213.142 9.63387 0)
(213.214 10.3833 0)
(213.266 11.1553 0)
(213.302 11.9522 0)
(213.313 12.7792 0)
(213.311 13.6323 0)
(213.286 14.5256 0)
(213.247 15.4532 0)
(213.193 16.4152 0)
(213.123 17.4121 0)
(213.039 18.4419 0)
(212.945 19.5009 0)
(212.843 20.5867 0)
(212.732 21.7004 0)
(212.608 22.846 0)
(212.47 24.0272 0)
(212.319 25.2458 0)
(212.16 26.5004 0)
(211.998 27.7886 0)
(211.839 29.1105 0)
(211.683 30.4689 0)
(211.529 31.8638 0)
(211.384 33.2933 0)
(211.247 34.7637 0)
(211.118 36.2751 0)
(211.002 37.8249 0)
(210.91 39.4178 0)
(210.837 41.051 0)
(210.787 42.7238 0)
(210.779 44.4406 0)
(210.802 46.1987 0)
(210.866 47.9999 0)
(210.993 49.8452 0)
(211.156 51.7322 0)
(211.39 53.6654 0)
(211.703 55.6433 0)
(212.067 57.6631 0)
(212.534 59.7269 0)
(213.092 61.8308 0)
(213.734 63.9727 0)
(214.513 66.1505 0)
(215.402 68.3584 0)
(216.405 70.5967 0)
(217.575 72.8633 0)
(218.87 75.1545 0)
(220.321 77.4634 0)
(221.955 79.7773 0)
(223.753 82.0835 0)
(225.729 84.3763 0)
(227.929 86.6358 0)
(230.293 88.8625 0)
(232.881 91.0301 0)
(235.643 93.1551 0)
(238.661 95.1801 0)
(241.814 97.1722 0)
(245.287 98.9855 0)
(248.847 100.789 0)
(252.732 102.409 0)
(256.792 103.97 0)
(261.067 105.269 0)
(265.564 106.513 0)
(270.059 107.537 0)
(274.659 108.419 0)
(279.215 109.068 0)
(284.555 109.611 0)
(289.374 109.747 0)
(294.784 109.871 0)
(299.564 109.876 0)
(304.025 109.866 0)
(308.72 109.524 0)
(312.835 109.138 0)
(317.25 108.617 0)
(321.806 107.971 0)
(326.025 107.295 0)
(330.759 106.314 0)
(334.453 105.525 0)
(338.624 104.434 0)
(342.043 103.65 0)
(345.792 102.595 0)
(348.817 101.871 0)
(351.851 100.807 0)
(353.839 99.943 0)
(355.365 98.7996 0)
(356.746 98.3124 0)
(359.567 97.9082 0)
(364.444 97.6292 0)
(366.112 100.834 0)
(210 -1.67884e-11 0)
(210 1.04961e-12 0)
(210 3.11955e-10 0)
(210 5.08817e-08 0)
(210 9.31039e-06 0)
(209.994 0.00112733 0)
(209.869 0.0362317 0)
(209.001 0.348902 0)
(206.919 1.21882 0)
(205.016 2.1499 0)
(204.007 2.64158 0)
(203.996 2.79999 0)
(204.344 2.73611 0)
(205.232 2.45955 0)
(206.208 2.16015 0)
(207.113 2.07779 0)
(207.879 1.9909 0)
(208.624 1.93706 0)
(209.392 1.90527 0)
(210.113 1.90892 0)
(210.633 2.04855 0)
(210.813 2.33665 0)
(210.863 2.69671 0)
(210.782 3.19933 0)
(210.793 3.71797 0)
(210.889 4.24099 0)
(211.106 4.68731 0)
(211.377 5.13481 0)
(211.6 5.63896 0)
(211.792 6.19509 0)
(211.958 6.79681 0)
(212.107 7.43217 0)
(212.236 8.09569 0)
(212.336 8.78496 0)
(212.407 9.49606 0)
(212.454 10.2288 0)
(212.482 10.9831 0)
(212.489 11.7612 0)
(212.472 12.569 0)
(212.436 13.4108 0)
(212.382 14.2858 0)
(212.311 15.1961 0)
(212.223 16.1414 0)
(212.119 17.1211 0)
(211.998 18.1331 0)
(211.865 19.1742 0)
(211.723 20.242 0)
(211.571 21.3372 0)
(211.405 22.4635 0)
(211.221 23.6248 0)
(211.021 24.823 0)
(210.81 26.0573 0)
(210.592 27.3259 0)
(210.374 28.6281 0)
(210.155 29.9638 0)
(209.939 31.3338 0)
(209.725 32.741 0)
(209.516 34.1869 0)
(209.306 35.6772 0)
(209.11 37.2002 0)
(208.93 38.7664 0)
(208.76 40.3753 0)
(208.614 42.0223 0)
(208.5 43.7147 0)
(208.408 45.448 0)
(208.355 47.2248 0)
(208.353 49.0461 0)
(208.378 50.9089 0)
(208.471 52.8194 0)
(208.627 54.7754 0)
(208.825 56.7745 0)
(209.119 58.82 0)
(209.485 60.9075 0)
(209.928 63.0383 0)
(210.494 65.2142 0)
(211.146 67.4305 0)
(211.902 69.688 0)
(212.809 71.9834 0)
(213.821 74.3086 0)
(214.983 76.6589 0)
(216.314 79.0268 0)
(217.789 81.4063 0)
(219.44 83.7965 0)
(221.301 86.1845 0)
(223.323 88.5685 0)
(225.569 90.9319 0)
(228.009 93.2751 0)
(230.693 95.5573 0)
(233.545 97.8026 0)
(236.707 99.9211 0)
(239.978 102.018 0)
(243.567 103.907 0)
(247.221 105.77 0)
(251.146 107.423 0)
(255.207 108.998 0)
(259.492 110.398 0)
(264.048 111.726 0)
(268.574 112.69 0)
(273.453 113.604 0)
(278.185 114.254 0)
(282.734 114.807 0)
(287.7 115.246 0)
(292.223 115.477 0)
(297.281 115.481 0)
(302.376 115.281 0)
(307.505 114.965 0)
(312.893 114.471 0)
(317.394 113.988 0)
(322.182 113.324 0)
(326.192 112.757 0)
(330.283 112.057 0)
(334.005 111.435 0)
(338.011 110.553 0)
(341.446 109.818 0)
(345.218 108.706 0)
(347.764 107.73 0)
(349.951 106.384 0)
(351.876 105.572 0)
(354.999 104.855 0)
(359.833 104.517 0)
(361.474 107.252 0)
(210 -1.39434e-11 0)
(210 4.63261e-12 0)
(210 -1.33443e-11 0)
(210 3.35622e-09 0)
(210 1.39096e-06 0)
(209.998 0.000305448 0)
(209.937 0.0149349 0)
(209.354 0.202339 0)
(207.502 0.918515 0)
(205.304 1.91053 0)
(203.963 2.51417 0)
(203.853 2.69498 0)
(203.992 2.72162 0)
(204.767 2.54368 0)
(205.768 2.24429 0)
(206.694 2.13989 0)
(207.448 2.03628 0)
(208.177 1.98045 0)
(208.935 1.94943 0)
(209.662 1.93988 0)
(210.214 2.03649 0)
(210.418 2.29556 0)
(210.464 2.63433 0)
(210.362 3.13043 0)
(210.315 3.66488 0)
(210.38 4.18814 0)
(210.548 4.64605 0)
(210.79 5.09139 0)
(210.996 5.58339 0)
(211.167 6.12442 0)
(211.308 6.70915 0)
(211.434 7.32552 0)
(211.536 7.97191 0)
(211.609 8.64377 0)
(211.656 9.33728 0)
(211.679 10.0513 0)
(211.683 10.7818 0)
(211.658 11.5454 0)
(211.614 12.3353 0)
(211.551 13.1563 0)
(211.468 14.0124 0)
(211.365 14.9043 0)
(211.245 15.8306 0)
(211.108 16.7897 0)
(210.953 17.7802 0)
(210.784 18.7997 0)
(210.604 19.8457 0)
(210.413 20.9185 0)
(210.206 22.0212 0)
(209.98 23.158 0)
(209.735 24.3308 0)
(209.475 25.5392 0)
(209.206 26.7813 0)
(208.933 28.0561 0)
(208.657 29.3638 0)
(208.379 30.7058 0)
(208.1 32.084 0)
(207.82 33.5004 0)
(207.543 34.9541 0)
(207.269 36.4478 0)
(207.006 37.9814 0)
(206.741 39.5644 0)
(206.502 41.1779 0)
(206.283 42.8389 0)
(206.079 44.5433 0)
(205.911 46.2926 0)
(205.779 48.0889 0)
(205.668 49.9282 0)
(205.619 51.8188 0)
(205.615 53.757 0)
(205.648 55.7424 0)
(205.768 57.78 0)
(205.941 59.8645 0)
(206.186 61.9991 0)
(206.541 64.1849 0)
(206.964 66.414 0)
(207.489 68.6879 0)
(208.151 71.0048 0)
(208.904 73.3586 0)
(209.802 75.7517 0)
(210.85 78.1787 0)
(212.024 80.6334 0)
(213.366 83.1127 0)
(214.899 85.6028 0)
(216.579 88.0968 0)
(218.472 90.5807 0)
(220.549 93.0498 0)
(222.841 95.4839 0)
(225.314 97.8959 0)
(228.064 100.239 0)
(230.948 102.563 0)
(234.175 104.757 0)
(237.501 106.951 0)
(241.177 108.956 0)
(244.958 110.947 0)
(249.024 112.696 0)
(253.22 114.37 0)
(257.613 115.855 0)
(262.013 117.112 0)
(266.843 118.319 0)
(271.494 119.197 0)
(276.58 120.082 0)
(281.691 120.689 0)
(286.866 121.025 0)
(292.026 121.179 0)
(296.599 121.343 0)
(301.471 121.269 0)
(305.534 121.202 0)
(309.811 120.951 0)
(314.151 120.557 0)
(318.067 120.194 0)
(322.325 119.707 0)
(326.33 119.109 0)
(330.139 118.483 0)
(334.186 117.487 0)
(337.201 116.561 0)
(339.971 115.304 0)
(342.358 114.402 0)
(345.567 113.78 0)
(351.279 113.177 0)
(353.008 116.711 0)
(210 -7.65053e-12 0)
(210 8.80279e-12 0)
(210 -2.43485e-11 0)
(210 -1.52652e-09 0)
(210 5.59106e-08 0)
(209.999 6.02685e-05 0)
(209.974 0.00514568 0)
(209.625 0.103191 0)
(208.112 0.636661 0)
(205.752 1.62027 0)
(204.023 2.31648 0)
(203.74 2.58984 0)
(203.688 2.69694 0)
(204.3 2.60378 0)
(205.295 2.30569 0)
(206.246 2.17519 0)
(206.996 2.06041 0)
(207.714 2.00248 0)
(208.46 1.9653 0)
(209.188 1.93472 0)
(209.774 1.98802 0)
(210.026 2.22006 0)
(210.073 2.54933 0)
(209.966 3.02841 0)
(209.846 3.58333 0)
(209.872 4.10142 0)
(209.99 4.58131 0)
(210.196 5.02939 0)
(210.384 5.50852 0)
(210.53 6.03248 0)
(210.646 6.59844 0)
(210.747 7.19695 0)
(210.82 7.82764 0)
(210.867 8.48293 0)
(210.89 9.1573 0)
(210.894 9.84675 0)
(210.864 10.5668 0)
(210.812 11.3089 0)
(210.741 12.08 0)
(210.649 12.8838 0)
(210.535 13.7227 0)
(210.401 14.5969 0)
(210.248 15.5046 0)
(210.077 16.4439 0)
(209.888 17.4137 0)
(209.681 18.4124 0)
(209.462 19.4379 0)
(209.229 20.4899 0)
(208.981 21.5709 0)
(208.712 22.6848 0)
(208.421 23.8342 0)
(208.111 25.0187 0)
(207.789 26.2367 0)
(207.46 27.4867 0)
(207.125 28.7683 0)
(206.786 30.0828 0)
(206.443 31.4322 0)
(206.096 32.8185 0)
(205.745 34.2437 0)
(205.394 35.7082 0)
(205.045 37.2136 0)
(204.703 38.7561 0)
(204.372 40.3409 0)
(204.052 41.9708 0)
(203.741 43.6446 0)
(203.465 45.3582 0)
(203.21 47.1208 0)
(202.976 48.9255 0)
(202.797 50.7827 0)
(202.647 52.6869 0)
(202.533 54.6387 0)
(202.493 56.6444 0)
(202.489 58.6966 0)
(202.554 60.8017 0)
(202.712 62.96 0)
(202.919 65.165 0)
(203.223 67.424 0)
(203.642 69.7366 0)
(204.133 72.0971 0)
(204.76 74.5095 0)
(205.513 76.9659 0)
(206.375 79.4595 0)
(207.402 81.9903 0)
(208.598 84.5482 0)
(209.932 87.129 0)
(211.474 89.7264 0)
(213.19 92.3346 0)
(215.11 94.9416 0)
(217.223 97.5478 0)
(219.589 100.115 0)
(222.111 102.653 0)
(224.935 105.104 0)
(227.872 107.55 0)
(231.158 109.851 0)
(234.509 112.137 0)
(238.205 114.21 0)
(241.997 116.267 0)
(246.065 118.14 0)
(250.37 119.924 0)
(254.842 121.422 0)
(259.563 122.881 0)
(264.153 124.04 0)
(269.226 125.188 0)
(273.759 125.987 0)
(278.901 126.675 0)
(283.446 127.148 0)
(288.665 127.541 0)
(293.61 127.737 0)
(298.787 127.778 0)
(304.25 127.548 0)
(308.922 127.174 0)
(314.171 126.675 0)
(318.67 126.153 0)
(322.918 125.601 0)
(327.302 124.829 0)
(330.662 123.998 0)
(333.486 122.854 0)
(335.715 121.906 0)
(338.853 121.37 0)
(344.735 121.197 0)
(346.407 125.405 0)
(210 -5.37661e-12 0)
(210 5.69393e-12 0)
(210 -8.18751e-12 0)
(210 -9.37223e-10 0)
(210 -6.86486e-08 0)
(210 5.17993e-06 0)
(209.99 0.00140531 0)
(209.807 0.0450365 0)
(208.688 0.39632 0)
(206.346 1.28962 0)
(204.212 2.0804 0)
(203.631 2.49219 0)
(203.418 2.64663 0)
(203.839 2.61818 0)
(204.802 2.35642 0)
(205.778 2.20974 0)
(206.53 2.07595 0)
(207.24 2.00788 0)
(207.973 1.96958 0)
(208.701 1.93859 0)
(209.314 1.97001 0)
(209.62 2.18097 0)
(209.675 2.50118 0)
(209.574 2.94637 0)
(209.381 3.51094 0)
(209.351 4.0267 0)
(209.427 4.51919 0)
(209.59 4.96334 0)
(209.758 5.42015 0)
(209.88 5.92206 0)
(209.973 6.46742 0)
(210.047 7.04882 0)
(210.091 7.66189 0)
(210.113 8.29766 0)
(210.119 8.94657 0)
(210.09 9.62513 0)
(210.037 10.3231 0)
(209.959 11.0472 0)
(209.859 11.8004 0)
(209.739 12.5859 0)
(209.597 13.4058 0)
(209.432 14.2603 0)
(209.247 15.1472 0)
(209.044 16.0641 0)
(208.821 17.0102 0)
(208.58 17.9845 0)
(208.323 18.9857 0)
(208.052 20.0129 0)
(207.765 21.068 0)
(207.456 22.1546 0)
(207.123 23.2755 0)
(206.769 24.4307 0)
(206.398 25.6186 0)
(206.017 26.8376 0)
(205.628 28.0873 0)
(205.233 29.3688 0)
(204.83 30.6839 0)
(204.419 32.0349 0)
(204.001 33.4232 0)
(203.579 34.8502 0)
(203.154 36.3169 0)
(202.729 37.8244 0)
(202.308 39.3733 0)
(201.894 40.964 0)
(201.491 42.5955 0)
(201.108 44.2724 0)
(200.728 46.0038 0)
(200.376 47.7708 0)
(200.063 49.5915 0)
(199.766 51.4629 0)
(199.508 53.3838 0)
(199.304 55.3627 0)
(199.124 57.3894 0)
(199.012 59.4746 0)
(198.971 61.6161 0)
(198.966 63.8079 0)
(199.056 66.0607 0)
(199.237 68.3694 0)
(199.48 70.7279 0)
(199.854 73.1431 0)
(200.331 75.6059 0)
(200.908 78.1143 0)
(201.642 80.6731 0)
(202.516 83.2733 0)
(203.512 85.9106 0)
(204.702 88.5811 0)
(206.047 91.2758 0)
(207.578 93.9873 0)
(209.297 96.7122 0)
(211.242 99.427 0)
(213.352 102.138 0)
(215.746 104.818 0)
(218.291 107.497 0)
(221.161 110.086 0)
(224.142 112.67 0)
(227.502 115.102 0)
(230.94 117.53 0)
(234.718 119.737 0)
(238.592 121.892 0)
(242.732 123.865 0)
(247.021 125.785 0)
(251.483 127.398 0)
(256.212 128.949 0)
(260.862 130.208 0)
(265.945 131.482 0)
(270.972 132.388 0)
(276.365 133.164 0)
(281.554 133.713 0)
(286.248 134.195 0)
(291.53 134.45 0)
(295.971 134.566 0)
(300.736 134.519 0)
(305.275 134.443 0)
(309.407 134.446 0)
(314.005 134.144 0)
(317.6 133.756 0)
(321.245 132.816 0)
(324.233 132.072 0)
(328.067 131.446 0)
(334.482 131.12 0)
(336.13 135.315 0)
(210 2.58931e-12 0)
(210 6.7905e-12 0)
(210 -4.69112e-12 0)
(210 -3.16017e-10 0)
(210 -3.25105e-08 0)
(210 -1.35154e-06 0)
(209.997 0.000268762 0)
(209.914 0.016263 0)
(209.177 0.217258 0)
(207.045 0.945784 0)
(204.597 1.82047 0)
(203.579 2.38822 0)
(203.199 2.50554 0)
(203.429 2.57667 0)
(204.304 2.40954 0)
(205.289 2.23347 0)
(206.05 2.05982 0)
(206.76 1.97327 0)
(207.483 1.94374 0)
(208.208 1.92879 0)
(208.846 1.95077 0)
(209.212 2.13996 0)
(209.282 2.44146 0)
(209.202 2.84363 0)
(208.939 3.40882 0)
(208.825 3.9322 0)
(208.864 4.43177 0)
(208.977 4.86878 0)
(209.12 5.30702 0)
(209.221 5.79189 0)
(209.293 6.31855 0)
(209.335 6.88233 0)
(209.354 7.4733 0)
(209.356 8.08488 0)
(209.332 8.72044 0)
(209.281 9.3766 0)
(209.203 10.056 0)
(209.099 10.7616 0)
(208.972 11.4966 0)
(208.824 12.2636 0)
(208.653 13.0645 0)
(208.458 13.8991 0)
(208.241 14.7652 0)
(208.005 15.6602 0)
(207.748 16.5831 0)
(207.471 17.534 0)
(207.176 18.512 0)
(206.865 19.5161 0)
(206.537 20.5473 0)
(206.187 21.6084 0)
(205.811 22.7024 0)
(205.411 23.8297 0)
(204.991 24.989 0)
(204.557 26.1785 0)
(204.114 27.3978 0)
(203.661 28.6474 0)
(203.198 29.9294 0)
(202.724 31.2461 0)
(202.24 32.5993 0)
(201.746 33.9904 0)
(201.246 35.4202 0)
(200.741 36.8892 0)
(200.236 38.3987 0)
(199.732 39.9498 0)
(199.234 41.5439 0)
(198.743 43.1828 0)
(198.265 44.8636 0)
(197.804 46.5898 0)
(197.367 48.3665 0)
(196.932 50.1984 0)
(196.546 52.0702 0)
(196.192 54.0018 0)
(195.855 55.9811 0)
(195.583 58.0226 0)
(195.36 60.1197 0)
(195.163 62.2675 0)
(195.055 64.4814 0)
(195.011 66.7524 0)
(195.021 69.0798 0)
(195.151 71.4743 0)
(195.353 73.9249 0)
(195.645 76.4344 0)
(196.079 79.0077 0)
(196.625 81.6322 0)
(197.286 84.306 0)
(198.129 87.0291 0)
(199.104 89.7913 0)
(200.257 92.5902 0)
(201.591 95.4205 0)
(203.125 98.2651 0)
(204.827 101.124 0)
(206.787 103.979 0)
(208.906 106.835 0)
(211.314 109.646 0)
(213.856 112.454 0)
(216.748 115.168 0)
(219.727 117.88 0)
(223.098 120.436 0)
(226.553 123 0)
(230.346 125.377 0)
(234.268 127.715 0)
(238.485 129.821 0)
(242.874 131.778 0)
(247.475 133.668 0)
(252.182 135.384 0)
(257.074 136.831 0)
(261.998 138.013 0)
(266.987 139.043 0)
(271.631 139.902 0)
(276.646 140.691 0)
(281.629 141.209 0)
(286.386 141.544 0)
(291.832 141.763 0)
(296.346 141.973 0)
(301.863 142.119 0)
(306.131 142.009 0)
(310.114 141.367 0)
(313.208 140.558 0)
(316.591 140.09 0)
(323.292 139.84 0)
(324.486 144.971 0)
(210 5.77539e-12 0)
(210 -2.0118e-12 0)
(210 -1.04463e-11 0)
(210 -8.40867e-11 0)
(210 -1.0095e-08 0)
(210 -7.95734e-07 0)
(209.999 1.71628e-05 0)
(209.967 0.00460327 0)
(209.54 0.10169 0)
(207.788 0.63172 0)
(205.131 1.51357 0)
(203.618 2.20504 0)
(202.996 2.34086 0)
(203.091 2.55035 0)
(203.813 2.44519 0)
(204.778 2.22568 0)
(205.562 2.01082 0)
(206.282 1.93616 0)
(206.997 1.94285 0)
(207.717 1.94812 0)
(208.37 1.95727 0)
(208.792 2.11299 0)
(208.885 2.38438 0)
(208.836 2.73719 0)
(208.518 3.28847 0)
(208.293 3.82811 0)
(208.303 4.31024 0)
(208.362 4.74721 0)
(208.476 5.17099 0)
(208.559 5.63774 0)
(208.606 6.14534 0)
(208.621 6.6866 0)
(208.616 7.25798 0)
(208.587 7.85658 0)
(208.54 8.47369 0)
(208.465 9.11369 0)
(208.361 9.77672 0)
(208.23 10.466 0)
(208.076 11.1839 0)
(207.9 11.9326 0)
(207.701 12.7133 0)
(207.477 13.5259 0)
(207.231 14.3681 0)
(206.964 15.2375 0)
(206.677 16.1334 0)
(206.368 17.0564 0)
(206.038 18.0065 0)
(205.69 18.9826 0)
(205.325 19.9849 0)
(204.938 21.0157 0)
(204.524 22.0776 0)
(204.082 23.1716 0)
(203.618 24.2968 0)
(203.136 25.4516 0)
(202.642 26.635 0)
(202.136 27.8477 0)
(201.618 29.0914 0)
(201.087 30.3684 0)
(200.541 31.6807 0)
(199.982 33.0298 0)
(199.412 34.4167 0)
(198.834 35.8423 0)
(198.249 37.3074 0)
(197.661 38.8131 0)
(197.073 40.3608 0)
(196.487 41.952 0)
(195.906 43.5882 0)
(195.335 45.2709 0)
(194.774 47.0018 0)
(194.228 48.7779 0)
(193.708 50.608 0)
(193.198 52.4978 0)
(192.708 54.4336 0)
(192.275 56.4308 0)
(191.865 58.4872 0)
(191.486 60.5949 0)
(191.182 62.7752 0)
(190.919 65.0124 0)
(190.707 67.3109 0)
(190.6 69.6802 0)
(190.539 72.1043 0)
(190.569 74.593 0)
(190.725 77.1493 0)
(190.964 79.7604 0)
(191.313 82.4316 0)
(191.82 85.1653 0)
(192.435 87.9495 0)
(193.214 90.7866 0)
(194.159 93.6706 0)
(195.275 96.5919 0)
(196.554 99.5522 0)
(198.071 102.541 0)
(199.747 105.549 0)
(201.687 108.556 0)
(203.789 111.575 0)
(206.21 114.552 0)
(208.751 117.529 0)
(211.669 120.413 0)
(214.673 123.302 0)
(218.057 126.035 0)
(221.537 128.738 0)
(225.344 131.263 0)
(229.3 133.755 0)
(233.481 136.048 0)
(237.832 138.252 0)
(242.424 140.199 0)
(247.172 141.883 0)
(252.228 143.53 0)
(257.337 144.998 0)
(262.523 146.373 0)
(267.969 147.581 0)
(272.99 148.353 0)
(278.834 149.056 0)
(283.73 149.52 0)
(289.47 150.055 0)
(293.855 150.37 0)
(298.025 150.152 0)
(301.304 149.78 0)
(305.065 149.45 0)
(311.686 149.479 0)
(312.976 154.392 0)
(210 3.07167e-12 0)
(210 -5.37526e-12 0)
(210 6.54504e-13 0)
(210 -2.36158e-11 0)
(210 -2.5464e-09 0)
(210 -2.65579e-07 0)
(210 -1.13026e-05 0)
(209.989 0.000890068 0)
(209.775 0.0394716 0)
(208.486 0.37287 0)
(205.835 1.17935 0)
(203.806 1.96356 0)