/*--------------------------------*- C++ -*----------------------------------*\
| =========                 |                                                 |
| \\      /  F ield         | OpenFOAM: The Open Source CFD Toolbox           |
|  \\    /   O peration     | Version:  2412                                  |
|   \\  /    A nd           | Website:  www.openfoam.com                      |
|    \\/     M anipulation  |                                                 |
\*---------------------------------------------------------------------------*/
FoamFile
{
    version     2.0;
    format      ascii;
    arch        "LSB;label=32;scalar=64";
    class       volScalarField;
    location    "0.081";
    object      rho;
}
// * * * * * * * * * * * * * * * * * * * * * * * * * * * * * * * * * * * * * //

dimensions      [1 -3 0 0 0 0 0];

internalField   nonuniform List<scalar> 
9763
(
0.0421681
0.0429162
0.0421748
0.0428808
0.0421836
0.0428521
0.0421915
0.042842
0.0422001
0.0428335
0.0422074
0.0428294
0.0422148
0.042824
0.0422208
0.0428172
0.042226
0.042808
0.0422293
0.0427967
0.0422318
0.042783
0.0422335
0.0427678
0.0422348
0.042751
0.0422352
0.0427328
0.0422354
0.0427132
0.0422354
0.0426925
0.0422352
0.0426709
0.042235
0.0426483
0.0422345
0.0426252
0.042234
0.0426014
0.0422333
0.0425771
0.0422323
0.0425522
0.042231
0.0425266
0.0422293
0.0425004
0.0422272
0.0424732
0.0422246
0.0424452
0.0422218
0.0424162
0.0422186
0.0423862
0.0422154
0.0423555
0.042212
0.0423243
0.0422085
0.0422929
0.042205
0.0422617
0.0422011
0.0422308
0.0421972
0.0422005
0.0421926
0.0421703
0.0421872
0.0421399
0.0421804
0.0421089
0.0421726
0.0420767
0.0421635
0.0420435
0.0421534
0.0420097
0.0419753
0.0419417
0.0419079
0.0589866
0.0441539
0.0438304
0.0436898
0.043531
0.0433812
0.0432395
0.043135
0.0430389
0.0429537
0.0428746
0.0427973
0.0427189
0.0426369
0.0425513
0.0424631
0.0423744
0.0422864
0.0421998
0.0421145
0.0420306
0.0419479
0.0418663
0.0417859
0.0417065
0.0416278
0.0415501
0.0414738
0.0413993
0.0413271
0.0412576
0.0411914
0.0411292
0.0410712
0.0410175
0.040968
0.0409232
0.0408836
0.0408495
0.0408209
0.0407976
0.0407795
0.040767
0.0407593
0.0407558
0.0407573
0.0407635
0.0407741
0.0407882
0.0408058
0.0408265
0.0408501
0.0408766
0.0409054
0.0409358
0.0409677
0.0410003
0.041036
0.0410699
0.041105
0.0411439
0.0411664
0.0411963
0.041223
0.0412471
0.0412723
0.0412992
0.0413276
0.0413576
0.0413891
0.0414221
0.041457
0.041493
0.0415303
0.0415674
0.0416046
0.0416407
0.0416771
0.0417127
0.0417494
0.0417855
0.0418229
0.0418591
0.0418952
0.0419302
0.041963
0.0419949
0.0420267
0.0420577
0.0420887
0.0421198
0.0421523
0.0421847
0.0422172
0.0422487
0.0422791
0.0423082
0.0423357
0.0423619
0.0423867
0.0424102
0.0424323
0.0424529
0.0424713
0.0424878
0.0425005
0.0425103
0.0425154
0.0425172
0.0425145
0.0425067
0.0424945
0.0424769
0.0424562
0.042433
0.0424083
0.042383
0.0423553
0.0423275
0.0423204
0.0422389
0.0590321
0.044148
0.0438237
0.043685
0.0435273
0.0433787
0.0432374
0.0431332
0.0430372
0.0429522
0.0428732
0.0427961
0.0427179
0.042636
0.0425506
0.0424625
0.0423739
0.0422858
0.0421991
0.0421137
0.0420297
0.0419467
0.0418648
0.041784
0.0417043
0.0416252
0.041547
0.0414702
0.0413952
0.0413224
0.0412521
0.0411851
0.0411219
0.041063
0.0410083
0.0409578
0.0409119
0.0408711
0.0408358
0.0408061
0.0407816
0.0407623
0.0407486
0.0407397
0.0407352
0.0407355
0.0407403
0.0407498
0.0407629
0.0407794
0.040799
0.0408216
0.040847
0.0408747
0.040904
0.0409347
0.0409665
0.0410011
0.041035
0.041069
0.0411081
0.0411308
0.0411607
0.0411874
0.0412107
0.0412348
0.0412603
0.0412877
0.0413167
0.0413473
0.0413792
0.0414127
0.0414469
0.0414822
0.0415175
0.0415532
0.0415884
0.0416242
0.0416595
0.041696
0.0417321
0.0417692
0.0418055
0.0418417
0.0418771
0.0419101
0.0419417
0.0419718
0.0420002
0.042028
0.0420554
0.0420832
0.042111
0.0421389
0.0421664
0.0421932
0.0422192
0.042244
0.0422678
0.0422904
0.0423118
0.0423319
0.0423508
0.0423679
0.0423837
0.0423966
0.0424075
0.0424143
0.0424182
0.0424187
0.0424148
0.0424081
0.0423974
0.0423856
0.0423736
0.0423628
0.0423536
0.042346
0.0423411
0.04234
0.0423392
0.0590405
0.0441437
0.043819
0.043682
0.0435248
0.0433765
0.0432355
0.0431315
0.0430357
0.0429507
0.0428718
0.0427949
0.0427169
0.0426353
0.0425501
0.042462
0.0423734
0.0422853
0.0421986
0.042113
0.0420288
0.0419456
0.0418634
0.0417823
0.0417022
0.0416227
0.0415441
0.0414668
0.0413912
0.0413177
0.0412466
0.0411787
0.0411146
0.0410546
0.0409989
0.0409473
0.0409002
0.0408582
0.0408217
0.0407907
0.0407649
0.0407445
0.0407294
0.0407192
0.0407138
0.0407127
0.0407161
0.0407244
0.0407364
0.0407517
0.0407701
0.0407916
0.0408158
0.0408423
0.0408704
0.0408998
0.0409305
0.0409635
0.0409963
0.0410291
0.0410668
0.0410879
0.0411162
0.0411414
0.041163
0.0411858
0.04121
0.0412363
0.0412641
0.0412936
0.0413243
0.0413561
0.0413884
0.0414212
0.0414538
0.0414864
0.0415184
0.0415507
0.0415828
0.0416161
0.0416494
0.0416838
0.0417174
0.041751
0.0417837
0.041814
0.0418432
0.0418707
0.0418967
0.041922
0.0419467
0.0419715
0.0419958
0.0420202
0.042044
0.0420671
0.0420894
0.0421107
0.0421312
0.0421507
0.0421692
0.0421866
0.0422029
0.0422178
0.0422312
0.0422423
0.0422512
0.0422566
0.0422594
0.0422584
0.0422536
0.0422453
0.0422334
0.0422199
0.0422065
0.0421951
0.0421867
0.0421816
0.0421792
0.0421791
0.0421838
0.0590386
0.044139
0.0438141
0.0436784
0.043522
0.0433744
0.0432337
0.0431298
0.0430342
0.0429493
0.0428706
0.0427938
0.042716
0.0426346
0.0425495
0.0424616
0.042373
0.0422849
0.042198
0.0421124
0.042028
0.0419445
0.0418621
0.0417807
0.0417002
0.0416204
0.0415414
0.0414636
0.0413874
0.0413133
0.0412415
0.0411727
0.0411077
0.0410467
0.0409899
0.0409373
0.0408891
0.0408459
0.0408081
0.0407759
0.0407489
0.0407273
0.0407109
0.0406995
0.0406929
0.0406906
0.0406927
0.0406997
0.0407106
0.0407248
0.0407421
0.0407624
0.0407855
0.0408107
0.0408377
0.040866
0.0408955
0.0409272
0.0409586
0.04099
0.0410265
0.0410461
0.0410727
0.0410962
0.0411161
0.0411375
0.0411604
0.0411854
0.0412115
0.0412391
0.0412673
0.0412965
0.041326
0.0413561
0.041386
0.0414159
0.0414454
0.041475
0.0415047
0.0415354
0.0415661
0.0415977
0.0416285
0.0416589
0.0416879
0.0417144
0.0417395
0.0417623
0.0417835
0.0418039
0.0418235
0.0418432
0.0418626
0.0418819
0.0419008
0.0419193
0.0419373
0.0419547
0.0419716
0.0419878
0.0420034
0.0420184
0.0420324
0.0420455
0.0420575
0.0420678
0.0420762
0.0420818
0.0420851
0.0420849
0.042081
0.0420737
0.0420628
0.0420502
0.0420379
0.0420277
0.042021
0.0420177
0.0420169
0.0420188
0.0420245
0.0590434
0.0441355
0.0438096
0.0436749
0.0435192
0.0433723
0.0432319
0.0431282
0.0430327
0.042948
0.0428693
0.0427927
0.0427151
0.0426339
0.042549
0.0424612
0.0423726
0.0422844
0.0421975
0.0421118
0.0420272
0.0419435
0.0418609
0.0417792
0.0416984
0.0416182
0.0415388
0.0414605
0.0413838
0.041309
0.0412366
0.041167
0.0411011
0.0410392
0.0409814
0.0409277
0.0408784
0.040834
0.040795
0.0407615
0.0407334
0.0407105
0.0406929
0.0406803
0.0406725
0.040669
0.0406699
0.0406755
0.0406853
0.0406984
0.0407145
0.0407337
0.0407556
0.0407797
0.0408055
0.0408326
0.0408609
0.0408912
0.0409211
0.0409511
0.0409862
0.0410045
0.0410296
0.0410512
0.0410692
0.041089
0.0411105
0.0411344
0.0411594
0.0411857
0.0412124
0.0412398
0.041267
0.0412944
0.0413213
0.041348
0.0413742
0.0414006
0.041427
0.0414543
0.041482
0.0415106
0.0415386
0.0415662
0.0415925
0.0416164
0.041639
0.0416591
0.0416775
0.0416949
0.0417113
0.0417275
0.0417431
0.0417586
0.0417734
0.0417878
0.0418017
0.041815
0.0418279
0.0418403
0.0418522
0.0418636
0.0418744
0.0418844
0.0418934
0.0419013
0.0419072
0.0419114
0.0419128
0.0419111
0.0419063
0.0418975
0.0418859
0.0418725
0.0418595
0.0418487
0.0418415
0.0418381
0.0418375
0.0418397
0.0418458
0.0590472
0.044132
0.0438049
0.0436715
0.0435164
0.0433702
0.0432301
0.0431266
0.0430312
0.0429466
0.0428681
0.0427916
0.0427142
0.0426332
0.0425484
0.0424607
0.0423722
0.042284
0.042197
0.0421112
0.0420265
0.0419426
0.0418597
0.0417777
0.0416966
0.0416161
0.0415363
0.0414575
0.0413803
0.0413049
0.0412318
0.0411614
0.0410946
0.0410318
0.040973
0.0409182
0.0408678
0.0408223
0.0407821
0.0407474
0.0407181
0.040694
0.0406752
0.0406613
0.0406523
0.0406478
0.0406475
0.0406517
0.0406604
0.0406723
0.0406874
0.0407054
0.0407261
0.0407491
0.0407738
0.0407998
0.0408269
0.0408557
0.0408842
0.0409129
0.0409469
0.040964
0.0409877
0.0410075
0.0410236
0.0410419
0.0410617
0.0410841
0.0411073
0.0411318
0.0411564
0.0411817
0.0412066
0.0412316
0.0412561
0.0412804
0.0413044
0.0413284
0.0413527
0.0413777
0.0414031
0.041429
0.0414545
0.0414795
0.041503
0.0415243
0.0415441
0.041561
0.0415762
0.0415903
0.0416034
0.0416163
0.0416288
0.0416412
0.0416531
0.0416646
0.0416757
0.0416863
0.0416965
0.0417064
0.0417158
0.0417249
0.0417334
0.0417413
0.0417483
0.0417541
0.0417585
0.0417609
0.0417609
0.0417576
0.0417513
0.041741
0.0417278
0.0417128
0.041698
0.0416855
0.0416765
0.0416717
0.0416697
0.0416705
0.0416684
0.0590523
0.0441284
0.0438
0.0436679
0.0435137
0.0433681
0.0432283
0.0431249
0.0430298
0.0429453
0.0428669
0.0427905
0.0427133
0.0426325
0.0425479
0.0424603
0.0423718
0.0422836
0.0421965
0.0421106
0.0420257
0.0419416
0.0418585
0.0417762
0.0416948
0.0416139
0.0415337
0.0414546
0.0413768
0.0413009
0.041227
0.0411559
0.0410882
0.0410244
0.0409646
0.0409088
0.0408573
0.0408106
0.0407692
0.0407333
0.0407027
0.0406774
0.0406573
0.0406422
0.0406319
0.0406264
0.0406248
0.0406275
0.040635
0.0406458
0.0406597
0.0406765
0.0406961
0.0407179
0.0407414
0.0407663
0.040792
0.0408193
0.0408463
0.0408737
0.0409064
0.0409223
0.0409446
0.0409626
0.0409769
0.0409935
0.0410115
0.0410322
0.0410537
0.0410766
0.0410994
0.041123
0.0411459
0.0411687
0.0411908
0.0412126
0.041234
0.0412554
0.041277
0.0412992
0.0413221
0.0413454
0.0413687
0.0413916
0.0414134
0.0414333
0.0414518
0.0414675
0.0414815
0.0414942
0.0415058
0.041517
0.0415277
0.0415382
0.0415483
0.041558
0.0415673
0.0415762
0.0415847
0.0415929
0.0416007
0.0416083
0.0416154
0.041622
0.0416277
0.0416323
0.0416358
0.0416372
0.0416363
0.0416325
0.0416254
0.0416145
0.0416007
0.0415851
0.0415696
0.0415562
0.0415467
0.0415418
0.0415403
0.0415426
0.041547
0.0590566
0.0441249
0.043795
0.0436643
0.0435108
0.0433659
0.0432265
0.0431233
0.0430283
0.0429439
0.0428656
0.0427894
0.0427123
0.0426317
0.0425474
0.0424599
0.0423714
0.0422832
0.042196
0.04211
0.042025
0.0419407
0.0418573
0.0417748
0.0416931
0.0416118
0.0415312
0.0414516
0.0413733
0.0412968
0.0412222
0.0411503
0.0410817
0.0410169
0.0409562
0.0408993
0.0408467
0.0407988
0.0407561
0.0407189
0.0406871
0.0406605
0.0406391
0.0406228
0.0406112
0.0406045
0.0406017
0.0406032
0.0406092
0.0406189
0.0406316
0.0406472
0.0406656
0.0406862
0.0407085
0.0407321
0.0407564
0.0407823
0.0408078
0.040834
0.0408654
0.0408801
0.0409011
0.0409174
0.0409301
0.040945
0.0409611
0.0409797
0.0409987
0.041019
0.0410392
0.0410602
0.0410808
0.0411018
0.041122
0.041142
0.0411614
0.0411808
0.0412005
0.0412204
0.041241
0.0412617
0.0412827
0.0413029
0.0413223
0.0413399
0.0413562
0.0413698
0.0413819
0.0413927
0.0414024
0.041412
0.0414209
0.04143
0.0414386
0.0414471
0.0414552
0.041463
0.0414705
0.0414778
0.0414848
0.0414917
0.041498
0.041504
0.0415091
0.0415131
0.0415162
0.0415172
0.0415159
0.0415116
0.0415039
0.0414924
0.041478
0.0414616
0.041445
0.0414302
0.0414189
0.0414123
0.0414101
0.041411
0.0414216
0.0590601
0.0441208
0.0437898
0.0436606
0.0435079
0.0433637
0.0432246
0.0431216
0.0430268
0.0429425
0.0428643
0.0427883
0.0427114
0.042631
0.0425468
0.0424595
0.042371
0.0422827
0.0421955
0.0421094
0.0420242
0.0419397
0.0418561
0.0417733
0.0416913
0.0416097
0.0415287
0.0414486
0.0413698
0.0412926
0.0412174
0.0411447
0.0410752
0.0410095
0.0409477
0.0408897
0.0408359
0.0407868
0.0407429
0.0407043
0.0406712
0.0406433
0.0406206
0.0406029
0.0405901
0.040582
0.0405782
0.0405783
0.0405827
0.0405912
0.0406027
0.040617
0.0406341
0.0406535
0.0406745
0.0406966
0.0407194
0.0407438
0.040768
0.0407927
0.0408226
0.0408359
0.0408554
0.0408699
0.0408808
0.0408939
0.0409079
0.0409244
0.0409411
0.040959
0.0409769
0.0409957
0.0410142
0.0410331
0.0410513
0.0410692
0.0410863
0.0411032
0.0411201
0.0411372
0.041155
0.041173
0.0411915
0.0412093
0.0412269
0.0412428
0.0412576
0.0412698
0.0412805
0.0412898
0.041298
0.0413058
0.0413129
0.04132
0.0413267
0.0413332
0.0413392
0.0413449
0.0413504
0.0413557
0.0413606
0.0413655
0.0413698
0.0413737
0.0413767
0.0413789
0.04138
0.0413791
0.041376
0.0413698
0.0413601
0.0413467
0.0413304
0.0413119
0.0412931
0.0412756
0.0412614
0.0412516
0.0412469
0.041248
0.041243
0.0590642
0.0441166
0.0437845
0.0436568
0.043505
0.0433615
0.0432227
0.0431199
0.0430253
0.0429411
0.042863
0.0427872
0.0427104
0.0426303
0.0425463
0.042459
0.0423706
0.0422823
0.042195
0.0421088
0.0420234
0.0419388
0.0418549
0.0417718
0.0416895
0.0416076
0.0415262
0.0414457
0.0413663
0.0412885
0.0412126
0.041139
0.0410686
0.0410019
0.0409391
0.0408801
0.0408251
0.0407747
0.0407294
0.0406896
0.0406551
0.0406258
0.0406018
0.0405827
0.0405686
0.0405591
0.0405542
0.040553
0.0405559
0.040563
0.0405733
0.0405864
0.0406022
0.0406203
0.0406399
0.0406605
0.0406819
0.0407049
0.0407276
0.040751
0.0407792
0.0407909
0.0408089
0.0408215
0.0408306
0.0408418
0.0408536
0.0408677
0.0408817
0.0408969
0.0409119
0.0409279
0.0409438
0.0409606
0.0409771
0.0409933
0.0410088
0.0410239
0.0410387
0.0410534
0.0410685
0.0410835
0.0410991
0.0411139
0.0411288
0.041142
0.0411543
0.0411643
0.0411729
0.0411802
0.0411864
0.0411923
0.0411976
0.041203
0.0412079
0.0412127
0.041217
0.0412211
0.0412249
0.0412285
0.0412319
0.0412352
0.0412381
0.0412406
0.0412422
0.0412431
0.0412429
0.0412408
0.0412367
0.0412293
0.0412187
0.0412043
0.0411871
0.0411677
0.0411479
0.0411293
0.0411141
0.0411032
0.041097
0.0410946
0.0410907
0.0590683
0.0441124
0.0437792
0.043653
0.043502
0.0433592
0.0432208
0.0431182
0.0430237
0.0429396
0.0428617
0.042786
0.0427095
0.0426295
0.0425457
0.0424586
0.0423702
0.0422819
0.0421945
0.0421081
0.0420226
0.0419378
0.0418536
0.0417703
0.0416877
0.0416055
0.0415237
0.0414427
0.0413628
0.0412844
0.0412077
0.0411334
0.041062
0.0409943
0.0409304
0.0408703
0.0408141
0.0407625
0.0407159
0.0406746
0.0406388
0.0406081
0.0405826
0.0405622
0.0405466
0.0405358
0.0405296
0.0405272
0.0405286
0.0405342
0.0405432
0.040555
0.0405695
0.0405862
0.0406043
0.0406235
0.0406434
0.0406649
0.0406862
0.0407078
0.0407341
0.0407443
0.0407607
0.0407715
0.0407788
0.040788
0.0407976
0.0408094
0.0408211
0.0408338
0.0408462
0.0408595
0.040873
0.0408874
0.0409017
0.0409159
0.0409293
0.040942
0.0409543
0.0409663
0.0409785
0.0409907
0.0410036
0.0410159
0.0410288
0.04104
0.0410506
0.041059
0.0410661
0.0410719
0.0410766
0.0410809
0.0410846
0.0410883
0.0410916
0.0410948
0.0410975
0.0411
0.0411022
0.0411043
0.0411063
0.0411082
0.0411098
0.041111
0.0411115
0.0411114
0.0411104
0.0411077
0.0411028
0.0410949
0.0410838
0.0410691
0.0410516
0.0410318
0.0410117
0.0409928
0.040977
0.0409656
0.0409587
0.040955
0.0409526
0.0590728
0.0441079
0.0437737
0.0436491
0.0434989
0.0433569
0.0432189
0.0431164
0.0430222
0.0429382
0.0428604
0.0427848
0.0427085
0.0426287
0.0425451
0.0424581
0.0423698
0.0422815
0.042194
0.0421075
0.0420219
0.0419368
0.0418524
0.0417688
0.0416859
0.0416033
0.0415212
0.0414397
0.0413593
0.0412802
0.0412029
0.0411277
0.0410555
0.0409868
0.0409218
0.0408606
0.0408032
0.0407502
0.0407023
0.0406596
0.0406223
0.0405903
0.0405634
0.0405415
0.0405246
0.0405123
0.0405047
0.0405011
0.0405013
0.0405052
0.0405128
0.0405233
0.0405365
0.0405519
0.0405686
0.0405862
0.0406047
0.0406246
0.0406444
0.0406644
0.0406888
0.0406978
0.0407128
0.0407218
0.0407272
0.0407338
0.0407407
0.0407497
0.0407587
0.0407688
0.0407787
0.0407895
0.0408004
0.0408123
0.0408244
0.0408367
0.0408483
0.0408593
0.0408696
0.0408793
0.0408889
0.0408982
0.0409081
0.0409175
0.0409277
0.0409364
0.0409447
0.0409514
0.0409568
0.040961
0.0409643
0.0409672
0.0409696
0.0409722
0.0409743
0.0409766
0.0409783
0.0409799
0.0409813
0.0409826
0.0409839
0.0409852
0.0409863
0.0409871
0.0409872
0.0409869
0.0409858
0.0409829
0.0409781
0.0409703
0.0409595
0.0409451
0.0409278
0.0409083
0.0408885
0.0408698
0.0408543
0.040843
0.0408362
0.040833
0.0408313
0.0590777
0.0441034
0.0437682
0.0436451
0.0434959
0.0433546
0.0432169
0.0431147
0.0430206
0.0429367
0.0428591
0.0427836
0.0427075
0.0426279
0.0425445
0.0424577
0.0423694
0.042281
0.0421935
0.0421069
0.0420211
0.0419358
0.0418512
0.0417673
0.0416841
0.0416012
0.0415187
0.0414368
0.0413558
0.0412761
0.0411981
0.0411221
0.0410489
0.0409792
0.0409132
0.0408508
0.0407922
0.0407379
0.0406886
0.0406445
0.0406058
0.0405723
0.0405439
0.0405206
0.0405022
0.0404886
0.0404795
0.0404747
0.0404734
0.0404757
0.0404819
0.0404911
0.040503
0.0405169
0.0405322
0.0405484
0.0405655
0.0405839
0.040602
0.0406201
0.0406426
0.0406504
0.0406639
0.0406712
0.0406747
0.0406791
0.0406834
0.0406897
0.0406962
0.040704
0.0407117
0.0407203
0.0407287
0.0407379
0.0407471
0.0407567
0.0407657
0.0407744
0.0407824
0.0407898
0.0407969
0.0408038
0.0408113
0.0408186
0.0408267
0.0408336
0.0408403
0.0408457
0.0408497
0.0408526
0.0408547
0.0408563
0.0408576
0.0408589
0.04086
0.0408612
0.040862
0.0408628
0.0408633
0.0408639
0.0408645
0.0408653
0.040866
0.0408665
0.0408664
0.040866
0.0408649
0.0408621
0.0408574
0.0408499
0.0408393
0.0408253
0.0408084
0.0407892
0.0407697
0.0407513
0.040736
0.040725
0.0407184
0.0407156
0.0407148
0.0590828
0.0440986
0.0437627
0.0436412
0.0434928
0.0433522
0.0432149
0.0431129
0.043019
0.0429353
0.0428577
0.0427824
0.0427065
0.0426272
0.0425439
0.0424572
0.042369
0.0422806
0.0421931
0.0421063
0.0420203
0.0419348
0.04185
0.0417658
0.0416823
0.0415991
0.0415162
0.0414338
0.0413524
0.0412721
0.0411933
0.0411165
0.0410424
0.0409717
0.0409046
0.0408411
0.0407813
0.0407257
0.040675
0.0406295
0.0405893
0.0405543
0.0405244
0.0404996
0.0404798
0.0404647
0.0404542
0.040448
0.0404454
0.0404463
0.0404509
0.0404588
0.0404693
0.0404818
0.0404957
0.0405107
0.0405264
0.0405434
0.0405597
0.040576
0.0405967
0.0406034
0.0406156
0.040621
0.0406228
0.0406249
0.0406269
0.0406304
0.0406341
0.0406391
0.0406441
0.04065
0.0406558
0.0406624
0.0406691
0.0406762
0.0406829
0.0406893
0.0406951
0.0407003
0.0407051
0.0407096
0.0407145
0.0407194
0.0407252
0.04073
0.0407349
0.0407388
0.0407414
0.0407429
0.0407438
0.0407442
0.0407445
0.040745
0.0407453
0.040746
0.0407462
0.0407466
0.0407468
0.0407471
0.0407475
0.0407481
0.0407487
0.0407493
0.0407493
0.0407491
0.0407483
0.0407459
0.0407417
0.0407348
0.0407249
0.0407115
0.0406951
0.0406765
0.0406573
0.0406394
0.0406246
0.0406139
0.0406078
0.0406055
0.0406057
0.0590883
0.0440937
0.043757
0.0436371
0.0434897
0.0433499
0.0432129
0.0431111
0.0430174
0.0429338
0.0428564
0.0427812
0.0427055
0.0426264
0.0425433
0.0424568
0.0423687
0.0422802
0.0421926
0.0421057
0.0420196
0.0419339
0.0418488
0.0417644
0.0416805
0.041597
0.0415137
0.0414309
0.0413489
0.0412681
0.0411886
0.041111
0.041036
0.0409643
0.0408961
0.0408315
0.0407704
0.0407135
0.0406613
0.0406144
0.0405727
0.0405362
0.0405048
0.0404785
0.0404571
0.0404405
0.0404286
0.040421
0.0404172
0.0404167
0.0404196
0.040426
0.0404351
0.0404462
0.0404588
0.0404725
0.040487
0.0405023
0.0405168
0.0405313
0.0405502
0.0405558
0.0405665
0.0405696
0.0405695
0.0405698
0.0405695
0.0405704
0.0405714
0.0405736
0.0405762
0.0405796
0.0405829
0.0405867
0.0405905
0.0405947
0.0405987
0.0406027
0.0406064
0.0406095
0.0406122
0.0406146
0.0406175
0.0406204
0.0406243
0.0406274
0.0406308
0.0406334
0.0406346
0.0406349
0.0406345
0.0406339
0.0406332
0.0406328
0.0406323
0.0406323
0.0406319
0.0406318
0.0406315
0.0406314
0.0406315
0.0406319
0.0406323
0.0406328
0.0406329
0.0406328
0.0406322
0.0406301
0.0406263
0.0406198
0.0406103
0.0405974
0.0405813
0.040563
0.0405441
0.0405265
0.0405119
0.0405016
0.0404957
0.0404936
0.0404946
0.0590935
0.0440886
0.0437513
0.043633
0.0434865
0.0433475
0.0432109
0.0431094
0.0430158
0.0429323
0.042855
0.04278
0.0427045
0.0426256
0.0425427
0.0424563
0.0423683
0.0422798
0.0421921
0.0421051
0.0420188
0.0419329
0.0418476
0.0417629
0.0416787
0.0415949
0.0415112
0.041428
0.0413456
0.0412641
0.0411839
0.0411055
0.0410296
0.0409569
0.0408877
0.0408219
0.0407597
0.0407014
0.0406478
0.0405994
0.0405562
0.0405182
0.0404853
0.0404574
0.0404345
0.0404164
0.040403
0.0403939
0.0403889
0.040387
0.0403883
0.0403932
0.0404009
0.0404106
0.0404219
0.0404343
0.0404475
0.0404612
0.0404739
0.0404867
0.040504
0.0405085
0.0405169
0.0405173
0.0405152
0.0405133
0.0405108
0.0405096
0.0405088
0.0405088
0.0405087
0.0405089
0.0405089
0.0405097
0.0405106
0.0405122
0.0405139
0.0405158
0.0405174
0.0405186
0.0405194
0.0405199
0.0405207
0.0405214
0.0405232
0.0405244
0.0405261
0.0405271
0.0405266
0.0405256
0.0405241
0.0405223
0.0405207
0.0405194
0.0405183
0.0405177
0.0405169
0.0405164
0.0405157
0.0405154
0.0405153
0.0405156
0.0405161
0.0405167
0.040517
0.0405172
0.0405168
0.040515
0.0405115
0.0405055
0.0404965
0.0404841
0.0404684
0.0404504
0.0404316
0.0404142
0.0403998
0.0403898
0.0403843
0.0403824
0.0403839
0.0590993
0.0440834
0.0437455
0.0436289
0.0434834
0.0433451
0.0432089
0.0431076
0.0430142
0.0429308
0.0428537
0.0427788
0.0427035
0.0426248
0.0425421
0.0424559
0.0423679
0.0422795
0.0421917
0.0421046
0.0420181
0.041932
0.0418464
0.0417614
0.041677
0.0415928
0.0415088
0.0414252
0.0413422
0.0412602
0.0411793
0.0411002
0.0410233
0.0409496
0.0408793
0.0408124
0.0407489
0.0406893
0.0406343
0.0405843
0.0405396
0.0405001
0.0404656
0.0404362
0.0404117
0.0403921
0.0403771
0.0403666
0.0403601
0.040357
0.0403569
0.04036
0.0403662
0.0403746
0.0403846
0.0403958
0.0404075
0.0404197
0.0404305
0.0404418
0.0404574
0.0404608
0.0404671
0.0404644
0.0404601
0.0404559
0.0404515
0.0404487
0.0404462
0.0404444
0.0404421
0.0404394
0.0404363
0.0404337
0.0404315
0.0404299
0.0404287
0.0404281
0.0404275
0.0404267
0.0404257
0.0404245
0.0404234
0.0404226
0.0404226
0.0404222
0.0404224
0.0404217
0.0404197
0.0404175
0.0404147
0.0404118
0.040409
0.0404067
0.0404048
0.0404034
0.0404019
0.0404008
0.0403996
0.0403989
0.0403985
0.0403984
0.0403987
0.0403993
0.0403996
0.0403999
0.0403995
0.0403979
0.0403946
0.0403888
0.04038
0.0403678
0.0403523
0.0403343
0.0403154
0.0402977
0.0402833
0.0402733
0.0402679
0.0402661
0.0402679
0.0591058
0.044078
0.0437397
0.0436248
0.0434801
0.0433427
0.0432069
0.0431058
0.0430126
0.0429293
0.0428523
0.0427776
0.0427025
0.042624
0.0425415
0.0424554
0.0423675
0.0422791
0.0421912
0.042104
0.0420174
0.0419311
0.0418452
0.04176
0.0416752
0.0415907
0.0415064
0.0414223
0.0413389
0.0412563
0.0411748
0.0410948
0.0410171
0.0409424
0.040871
0.040803
0.0407383
0.0406774
0.0406209
0.0405694
0.0405231
0.040482
0.040446
0.040415
0.0403889
0.0403678
0.0403513
0.0403393
0.0403313
0.0403269
0.0403254
0.0403269
0.0403316
0.0403385
0.0403472
0.0403571
0.0403674
0.040378
0.0403873
0.0403971
0.0404112
0.0404133
0.0404179
0.0404124
0.0404056
0.0403988
0.0403923
0.0403875
0.0403832
0.0403793
0.0403747
0.0403694
0.0403635
0.0403581
0.0403531
0.0403488
0.040345
0.0403417
0.0403385
0.0403354
0.0403323
0.0403292
0.0403262
0.0403235
0.0403214
0.0403191
0.0403174
0.040315
0.0403116
0.0403081
0.040304
0.0402999
0.0402959
0.0402926
0.0402897
0.0402874
0.0402852
0.0402836
0.0402819
0.0402808
0.04028
0.0402798
0.0402799
0.0402804
0.0402808
0.0402812
0.0402809
0.0402794
0.0402762
0.0402707
0.0402621
0.0402502
0.0402347
0.0402168
0.0401977
0.0401799
0.0401653
0.0401553
0.04015
0.0401484
0.0401504
0.0591125
0.0440724
0.0437337
0.0436205
0.0434769
0.0433402
0.0432049
0.0431039
0.043011
0.0429278
0.042851
0.0427764
0.0427014
0.0426232
0.0425409
0.042455
0.0423671
0.0422787
0.0421908
0.0421035
0.0420167
0.0419302
0.0418441
0.0417586
0.0416735
0.0415887
0.041504
0.0414195
0.0413356
0.0412525
0.0411703
0.0410896
0.041011
0.0409353
0.0408628
0.0407936
0.0407277
0.0406654
0.0406075
0.0405545
0.0405067
0.040464
0.0404263
0.0403937
0.0403661
0.0403433
0.0403253
0.0403117
0.0403023
0.0402964
0.0402937
0.0402937
0.0402965
0.0403021
0.0403095
0.0403181
0.0403269
0.0403358
0.0403437
0.0403522
0.0403646
0.040365
0.0403682
0.0403603
0.0403513
0.0403418
0.0403327
0.0403257
0.0403194
0.0403138
0.0403075
0.0403004
0.0402921
0.0402838
0.0402758
0.0402683
0.0402615
0.0402555
0.0402498
0.0402444
0.0402392
0.0402339
0.0402289
0.0402243
0.0402203
0.0402165
0.0402132
0.0402091
0.0402043
0.0401995
0.0401939
0.0401883
0.040183
0.0401783
0.0401742
0.0401709
0.0401677
0.0401654
0.0401629
0.0401612
0.0401598
0.0401592
0.0401591
0.0401592
0.0401594
0.0401597
0.0401593
0.0401577
0.0401544
0.0401489
0.0401403
0.0401284
0.0401129
0.0400948
0.0400754
0.0400571
0.0400421
0.0400319
0.0400265
0.0400249
0.0400269
0.0591195
0.0440667
0.0437277
0.0436163
0.0434736
0.0433377
0.0432028
0.0431021
0.0430094
0.0429263
0.0428496
0.0427752
0.0427004
0.0426223
0.0425403
0.0424545
0.0423667
0.0422783
0.0421904
0.042103
0.042016
0.0419293
0.041843
0.0417572
0.0416718
0.0415867
0.0415016
0.0414168
0.0413324
0.0412487
0.0411659
0.0410844
0.0410049
0.0409282
0.0408547
0.0407844
0.0407173
0.0406536
0.0405942
0.0405397
0.0404903
0.040446
0.0404067
0.0403724
0.0403432
0.0403188
0.0402993
0.0402842
0.0402732
0.0402658
0.0402618
0.0402604
0.0402617
0.0402658
0.0402717
0.0402789
0.0402862
0.0402936
0.0403001
0.0403072
0.0403179
0.0403165
0.0403184
0.0403086
0.0402978
0.0402863
0.040275
0.0402655
0.0402566
0.0402483
0.0402398
0.0402307
0.0402205
0.0402099
0.0401992
0.0401889
0.0401791
0.0401701
0.0401617
0.0401537
0.0401462
0.0401387
0.0401316
0.0401249
0.0401189
0.0401134
0.0401083
0.0401027
0.0400963
0.0400899
0.0400827
0.0400755
0.0400686
0.0400625
0.040057
0.0400525
0.0400484
0.0400451
0.0400419
0.0400395
0.0400376
0.0400365
0.0400359
0.0400358
0.0400358
0.0400359
0.0400352
0.0400335
0.0400301
0.0400246
0.0400161
0.0400043
0.0399888
0.0399706
0.0399509
0.0399322
0.0399168
0.0399063
0.0399007
0.0398991
0.039901
0.0591268
0.044061
0.0437216
0.043612
0.0434703
0.0433353
0.0432007
0.0431003
0.0430078
0.0429248
0.0428482
0.042774
0.0426994
0.0426215
0.0425397
0.042454
0.0423663
0.0422779
0.0421899
0.0421024
0.0420154
0.0419285
0.0418419
0.0417558
0.0416702
0.0415847
0.0414993
0.0414141
0.0413292
0.041245
0.0411615
0.0410793
0.040999
0.0409213
0.0408467
0.0407752
0.0407069
0.0406419
0.040581
0.0405249
0.0404738
0.0404279
0.040387
0.0403511
0.0403202
0.0402942
0.040273
0.0402564
0.0402439
0.0402351
0.0402295
0.0402269
0.0402267
0.040229
0.0402336
0.0402394
0.0402452
0.0402511
0.0402562
0.0402617
0.0402707
0.0402678
0.0402682
0.0402565
0.0402441
0.0402308
0.0402178
0.0402061
0.0401947
0.0401839
0.0401729
0.0401617
0.0401495
0.0401367
0.0401235
0.0401101
0.0400972
0.040085
0.0400737
0.0400631
0.0400531
0.0400433
0.040034
0.0400254
0.0400175
0.0400105
0.0400036
0.0399966
0.0399886
0.0399806
0.0399716
0.0399627
0.0399541
0.0399463
0.0399394
0.0399334
0.0399281
0.0399238
0.0399196
0.0399164
0.0399136
0.0399117
0.0399105
0.0399098
0.0399094
0.0399091
0.0399079
0.0399058
0.0399022
0.0398965
0.039888
0.0398762
0.0398607
0.0398423
0.0398222
0.039803
0.039787
0.0397761
0.0397704
0.0397687
0.0397704
0.0591346
0.044055
0.0437154
0.0436076
0.043467
0.0433327
0.0431986
0.0430984
0.0430061
0.0429233
0.0428468
0.0427728
0.0426983
0.0426207
0.0425391
0.0424536
0.0423659
0.0422776
0.0421895
0.0421019
0.0420147
0.0419276
0.0418408
0.0417545
0.0416685
0.0415827
0.041497
0.0414114
0.0413261
0.0412413
0.0411572
0.0410743
0.0409931
0.0409144
0.0408387
0.0407661
0.0406965
0.0406302
0.0405679
0.0405102
0.0404575
0.0404099
0.0403673
0.0403298
0.0402972
0.0402696
0.0402468
0.0402286
0.0402145
0.0402042
0.0401972
0.0401932
0.0401917
0.0401924
0.0401954
0.0401997
0.0402042
0.0402087
0.0402126
0.0402167
0.040224
0.0402192
0.0402178
0.0402042
0.0401899
0.0401749
0.0401599
0.040146
0.0401321
0.0401186
0.0401052
0.040092
0.0400783
0.0400639
0.0400486
0.0400327
0.0400167
0.0400014
0.0399869
0.0399734
0.0399607
0.0399483
0.0399366
0.0399258
0.0399159
0.039907
0.0398981
0.0398897
0.0398799
0.0398701
0.0398593
0.0398485
0.0398381
0.0398285
0.0398199
0.0398125
0.0398058
0.0398003
0.0397951
0.0397909
0.0397872
0.0397846
0.0397826
0.0397813
0.0397804
0.0397797
0.0397778
0.0397755
0.0397716
0.0397658
0.0397573
0.0397454
0.03973
0.0397115
0.0396911
0.0396713
0.0396547
0.0396433
0.0396373
0.0396356
0.0396371
0.0591422
0.0440488
0.0437091
0.0436031
0.0434636
0.0433302
0.0431965
0.0430966
0.0430045
0.0429218
0.0428455
0.0427715
0.0426973
0.0426199
0.0425385
0.0424531
0.0423656
0.0422772
0.0421891
0.0421014
0.0420141
0.0419268
0.0418398
0.0417532
0.0416669
0.0415808
0.0414947
0.0414087
0.041323
0.0412376
0.041153
0.0410693
0.0409872
0.0409076
0.0408308
0.0407571
0.0406863
0.0406186
0.0405548
0.0404955
0.0404412
0.0403919
0.0403476
0.0403084
0.0402741
0.0402448
0.0402203
0.0402005
0.040185
0.0401732
0.0401647
0.0401592
0.0401564
0.0401557
0.040157
0.0401598
0.040163
0.0401661
0.0401689
0.0401716
0.0401776
0.040171
0.0401674
0.0401513
0.040135
0.0401181
0.0401015
0.0400858
0.04007
0.040054
0.040038
0.0400223
0.0400064
0.0399903
0.0399732
0.0399551
0.0399367
0.0399186
0.0399012
0.0398846
0.039869
0.0398538
0.0398396
0.0398265
0.0398145
0.0398037
0.0397927
0.0397827
0.0397712
0.0397596
0.0397469
0.0397342
0.0397218
0.0397103
0.0396999
0.0396907
0.0396825
0.0396755
0.039669
0.0396636
0.0396588
0.0396551
0.0396522
0.0396501
0.0396484
0.0396471
0.0396444
0.0396415
0.0396373
0.0396311
0.0396223
0.0396103
0.0395949
0.0395761
0.0395554
0.0395349
0.0395175
0.0395053
0.0394989
0.0394969
0.0394983
0.0591504
0.0440426
0.0437027
0.0435987
0.0434602
0.0433276
0.0431944
0.0430947
0.0430028
0.0429203
0.0428441
0.0427703
0.0426963
0.0426191
0.0425378
0.0424526
0.0423652
0.0422768
0.0421887
0.0421009
0.0420134
0.041926
0.0418387
0.0417519
0.0416654
0.0415789
0.0414925
0.0414061
0.0413199
0.0412341
0.0411488
0.0410643
0.0409814
0.0409008
0.040823
0.0407482
0.0406761
0.0406071
0.0405418
0.0404809
0.0404249
0.040374
0.040328
0.040287
0.0402509
0.0402199
0.0401938
0.0401724
0.0401553
0.040142
0.0401321
0.0401251
0.0401209
0.0401189
0.0401187
0.0401199
0.0401218
0.0401237
0.0401253
0.0401267
0.0401312
0.0401229
0.0401176
0.0400995
0.0400815
0.0400628
0.0400441
0.0400262
0.0400083
0.0399899
0.0399712
0.0399528
0.0399345