/*--------------------------------*- C++ -*----------------------------------*\
| =========                 |                                                 |
| \\      /  F ield         | OpenFOAM: The Open Source CFD Toolbox           |
|  \\    /   O peration     | Version:  2412                                  |
|   \\  /    A nd           | Website:  www.openfoam.com                      |
|    \\/     M anipulation  |                                                 |
\*---------------------------------------------------------------------------*/
FoamFile
{
    version     2.0;
    format      ascii;
    arch        "LSB;label=32;scalar=64";
    class       volVectorField;
    location    "0.028";
    object      U;
}
// * * * * * * * * * * * * * * * * * * * * * * * * * * * * * * * * * * * * * //

dimensions      [0 1 -1 0 0 0 0];

internalField   nonuniform List<vector> 
9816
(
(190.77 -27.6544 0)
(190.791 -28.0493 0)
(190.829 -28.4378 0)
(190.865 -28.8197 0)
(190.922 -29.1941 0)
(190.978 -29.5612 0)
(191.052 -29.9186 0)
(191.123 -30.2668 0)
(191.211 -30.6033 0)
(191.295 -30.9297 0)
(191.392 -31.2437 0)
(191.486 -31.5474 0)
(191.588 -31.8396 0)
(191.689 -32.122 0)
(191.796 -32.3937 0)
(191.904 -32.6556 0)
(192.012 -32.907 0)
(192.116 -33.1473 0)
(192.207 -33.3753 0)
(192.232 -33.5946 0)
(192.361 -33.8084 0)
(192.488 -34.0217 0)
(192.651 -34.2295 0)
(192.841 -34.433 0)
(193.047 -34.6318 0)
(193.261 -34.8222 0)
(193.469 -35.0049 0)
(193.662 -35.1738 0)
(193.817 -35.33 0)
(193.887 -35.4819 0)
(193.806 -35.5786 0)
(193.456 -35.5769 0)
(192.653 -35.5463 0)
(191.288 -35.3435 0)
(189.311 -35.147 0)
(186.8 -34.7043 0)
(183.77 -34.3556 0)
(180.36 -33.6947 0)
(176.571 -33.2728 0)
(172.645 -32.4652 0)
(168.699 -32.0941 0)
(165.226 -31.3049 0)
(199.583 -26.5171 0)
(199.758 -26.7307 0)
(199.94 -26.9309 0)
(200.109 -27.1234 0)
(200.278 -27.3018 0)
(200.435 -27.4727 0)
(200.59 -27.6299 0)
(200.73 -27.7802 0)
(200.87 -27.9175 0)
(200.995 -28.0488 0)
(201.12 -28.1689 0)
(201.234 -28.2836 0)
(201.348 -28.3894 0)
(201.455 -28.49 0)
(201.558 -28.5829 0)
(201.649 -28.671 0)
(201.734 -28.7514 0)
(201.781 -28.832 0)
(201.884 -28.9117 0)
(202.034 -28.9901 0)
(202.225 -29.0713 0)
(202.441 -29.1504 0)
(202.649 -29.2258 0)
(202.818 -29.2903 0)
(202.934 -29.346 0)
(202.997 -29.3992 0)
(202.996 -29.4396 0)
(202.845 -29.4251 0)
(202.371 -29.4043 0)
(201.408 -29.2628 0)
(199.811 -29.0885 0)
(197.558 -28.7839 0)
(194.715 -28.4103 0)
(191.432 -28.0068 0)
(187.94 -27.4671 0)
(184.446 -27.1331 0)
(181.283 -26.5483 0)
(178.597 -26.3993 0)
(176.593 -25.9926 0)
(175.162 -25.9507 0)
(174.312 -25.6451 0)
(173.852 -25.8553 0)
(203.505 -24.198 0)
(203.58 -24.3043 0)
(203.681 -24.3984 0)
(203.765 -24.4908 0)
(203.856 -24.5736 0)
(203.928 -24.6551 0)
(204.01 -24.7285 0)
(204.079 -24.8012 0)
(204.155 -24.868 0)
(204.226 -24.9337 0)
(204.299 -24.9957 0)
(204.371 -25.0554 0)
(204.439 -25.1129 0)
(204.508 -25.1672 0)
(204.571 -25.2207 0)
(204.64 -25.2712 0)
(204.712 -25.3225 0)
(204.799 -25.3714 0)
(204.9 -25.4231 0)
(205.013 -25.4692 0)
(205.12 -25.5172 0)
(205.211 -25.5543 0)
(205.27 -25.5923 0)
(205.299 -25.6259 0)
(205.282 -25.6445 0)
(205.171 -25.6468 0)
(204.889 -25.6278 0)
(204.338 -25.5676 0)
(203.414 -25.4632 0)
(202.027 -25.2916 0)
(200.128 -25.0609 0)
(197.738 -24.7654 0)
(194.954 -24.428 0)
(191.941 -24.0667 0)
(188.91 -23.6851 0)
(186.069 -23.3465 0)
(183.605 -23.1104 0)
(181.667 -22.8606 0)
(180.304 -22.6196 0)
(179.448 -22.637 0)
(179.002 -22.7016 0)
(178.821 -22.6672 0)
(205.856 -22.3996 0)
(205.918 -22.4822 0)
(206.006 -22.5552 0)
(206.086 -22.6327 0)
(206.177 -22.7029 0)
(206.262 -22.7766 0)
(206.354 -22.8451 0)
(206.444 -22.9151 0)
(206.537 -22.9822 0)
(206.631 -23.0484 0)
(206.723 -23.113 0)
(206.813 -23.1749 0)
(206.897 -23.2356 0)
(206.979 -23.2929 0)
(207.058 -23.3492 0)
(207.139 -23.4025 0)
(207.225 -23.4546 0)
(207.315 -23.5041 0)
(207.406 -23.5506 0)
(207.487 -23.5941 0)
(207.552 -23.6319 0)
(207.59 -23.6702 0)
(207.599 -23.7031 0)
(207.567 -23.7217 0)
(207.464 -23.7336 0)
(207.238 -23.7218 0)
(206.822 -23.695 0)
(206.142 -23.6192 0)
(205.12 -23.5212 0)
(203.704 -23.3473 0)
(201.863 -23.1568 0)
(199.633 -22.8748 0)
(197.088 -22.6134 0)
(194.384 -22.271 0)
(191.69 -21.9981 0)
(189.213 -21.6969 0)
(187.097 -21.5188 0)
(185.472 -21.251 0)
(184.318 -21.1957 0)
(183.586 -21.2143 0)
(183.197 -21.1799 0)
(183.038 -21.1148 0)
(207.834 -21.269 0)
(207.931 -21.3581 0)
(208.039 -21.4387 0)
(208.143 -21.5221 0)
(208.252 -21.5997 0)
(208.359 -21.6768 0)
(208.466 -21.7499 0)
(208.572 -21.8199 0)
(208.674 -21.8869 0)
(208.773 -21.9487 0)
(208.864 -22.008 0)
(208.947 -22.0607 0)
(209.017 -22.111 0)
(209.078 -22.1546 0)
(209.126 -22.1965 0)
(209.174 -22.2332 0)
(209.223 -22.2677 0)
(209.273 -22.2987 0)
(209.32 -22.3275 0)
(209.361 -22.3526 0)
(209.388 -22.3779 0)
(209.398 -22.4007 0)
(209.382 -22.4134 0)
(209.325 -22.4244 0)
(209.197 -22.4206 0)
(208.957 -22.4104 0)
(208.553 -22.3709 0)
(207.923 -22.3172 0)
(207.01 -22.2159 0)
(205.763 -22.0946 0)
(204.165 -21.9127 0)
(202.229 -21.718 0)
(200.024 -21.4666 0)
(197.653 -21.2325 0)
(195.268 -20.96 0)
(193.012 -20.7477 0)
(191.033 -20.512 0)
(189.413 -20.4031 0)
(188.202 -20.2724 0)
(187.375 -20.1809 0)
(186.863 -20.1306 0)
(186.582 -20.181 0)
(209.603 -20.4316 0)
(209.709 -20.5076 0)
(209.813 -20.5763 0)
(209.911 -20.6418 0)
(210.004 -20.7013 0)
(210.09 -20.7562 0)
(210.168 -20.8061 0)
(210.238 -20.8507 0)
(210.298 -20.8907 0)
(210.349 -20.9256 0)
(210.389 -20.9564 0)
(210.417 -20.9834 0)
(210.434 -21.0068 0)
(210.442 -21.0261 0)
(210.446 -21.0425 0)
(210.448 -21.0573 0)
(210.453 -21.0714 0)
(210.465 -21.0862 0)
(210.475 -21.0986 0)
(210.491 -21.1122 0)
(210.501 -21.1243 0)
(210.501 -21.134 0)
(210.484 -21.1393 0)
(210.439 -21.1446 0)
(210.349 -21.1399 0)
(210.185 -21.1338 0)
(209.912 -21.1067 0)
(209.481 -21.0753 0)
(208.847 -21.0072 0)
(207.961 -20.9323 0)
(206.798 -20.8073 0)
(205.348 -20.6779 0)
(203.643 -20.4989 0)
(201.737 -20.3258 0)
(199.722 -20.119 0)
(197.695 -19.9335 0)
(195.766 -19.7468 0)
(194.028 -19.587 0)
(192.551 -19.4436 0)
(191.362 -19.3605 0)
(190.466 -19.2804 0)
(189.84 -19.2097 0)
(210.901 -19.5132 0)
(210.968 -19.5561 0)
(211.027 -19.594 0)
(211.078 -19.6274 0)
(211.121 -19.6568 0)
(211.158 -19.6825 0)
(211.188 -19.7053 0)
(211.209 -19.7253 0)
(211.223 -19.7422 0)
(211.23 -19.7562 0)
(211.23 -19.7678 0)
(211.224 -19.7777 0)
(211.213 -19.7859 0)
(211.2 -19.7938 0)
(211.187 -19.8007 0)
(211.178 -19.8086 0)
(211.172 -19.8159 0)
(211.174 -19.8246 0)
(211.183 -19.8352 0)
(211.191 -19.8439 0)
(211.201 -19.8542 0)
(211.206 -19.863 0)
(211.203 -19.8702 0)
(211.186 -19.8765 0)
(211.147 -19.8796 0)
(211.07 -19.8802 0)
(210.936 -19.8731 0)
(210.717 -19.8602 0)
(210.379 -19.8326 0)
(209.886 -19.7933 0)
(209.207 -19.7337 0)
(208.318 -19.6557 0)
(207.212 -19.5589 0)
(205.901 -19.4372 0)
(204.413 -19.3119 0)
(202.799 -19.1574 0)
(201.116 -19.0219 0)
(199.44 -18.8535 0)
(197.828 -18.731 0)
(196.34 -18.5792 0)
(195.002 -18.4976 0)
(193.851 -18.3643 0)
(211.675 -18.4633 0)
(211.706 -18.4861 0)
(211.73 -18.5062 0)
(211.748 -18.5237 0)
(211.764 -18.54 0)
(211.777 -18.5547 0)
(211.789 -18.5692 0)
(211.798 -18.5822 0)
(211.804 -18.5952 0)
(211.807 -18.6069 0)
(211.808 -18.619 0)
(211.808 -18.6303 0)
(211.808 -18.6421 0)
(211.809 -18.6537 0)
(211.82 -18.669 0)
(211.824 -18.6817 0)
(211.838 -18.6977 0)
(211.86 -18.7124 0)
(211.888 -18.7286 0)
(211.919 -18.7445 0)
(211.949 -18.761 0)
(211.976 -18.7765 0)
(211.996 -18.7924 0)
(212.006 -18.8077 0)
(212.004 -18.8213 0)
(211.984 -18.831 0)
(211.938 -18.8393 0)
(211.85 -18.8415 0)
(211.703 -18.8403 0)
(211.477 -18.8288 0)
(211.147 -18.8101 0)
(210.692 -18.7774 0)
(210.093 -18.7327 0)
(209.336 -18.6736 0)
(208.418 -18.5969 0)
(207.343 -18.5122 0)
(206.131 -18.4043 0)
(204.806 -18.3012 0)
(203.404 -18.1692 0)
(201.952 -18.0605 0)
(200.487 -17.9156 0)
(199.035 -17.813 0)
(212.26 -17.4938 0)
(212.289 -17.5185 0)
(212.318 -17.5422 0)
(212.341 -17.5661 0)
(212.368 -17.5893 0)
(212.393 -17.6133 0)
(212.42 -17.6366 0)
(212.447 -17.6608 0)
(212.475 -17.6843 0)
(212.501 -17.7088 0)
(212.529 -17.7326 0)
(212.555 -17.7576 0)
(212.584 -17.7818 0)
(212.613 -17.8075 0)
(212.648 -17.8324 0)
(212.685 -17.8585 0)
(212.728 -17.8848 0)
(212.776 -17.9113 0)
(212.829 -17.9381 0)
(212.884 -17.9646 0)
(212.938 -17.9907 0)
(212.988 -18.0155 0)
(213.03 -18.0391 0)
(213.062 -18.0609 0)
(213.083 -18.0816 0)
(213.092 -18.1019 0)
(213.087 -18.1194 0)
(213.063 -18.1321 0)
(213.013 -18.1434 0)
(212.926 -18.1486 0)
(212.789 -18.1513 0)
(212.587 -18.1444 0)
(212.305 -18.1332 0)
(211.928 -18.1089 0)
(211.442 -18.0786 0)
(210.838 -18.0323 0)
(210.11 -17.9796 0)
(209.258 -17.9096 0)
(208.284 -17.834 0)
(207.19 -17.7402 0)
(205.977 -17.6429 0)
(204.652 -17.5256 0)
(212.96 -16.8008 0)
(213.007 -16.8399 0)
(213.056 -16.8775 0)
(213.102 -16.916 0)
(213.15 -16.9532 0)
(213.197 -16.9911 0)
(213.247 -17.0278 0)
(213.297 -17.0649 0)
(213.348 -17.1007 0)
(213.399 -17.1367 0)
(213.45 -17.1716 0)
(213.501 -17.2061 0)
(213.553 -17.2398 0)
(213.605 -17.2727 0)
(213.659 -17.3049 0)
(213.714 -17.3361 0)
(213.772 -17.3665 0)
(213.832 -17.3957 0)
(213.893 -17.4239 0)
(213.953 -17.4504 0)
(214.011 -17.4753 0)
(214.062 -17.4982 0)
(214.106 -17.5189 0)
(214.14 -17.5375 0)
(214.165 -17.5541 0)
(214.181 -17.5695 0)
(214.188 -17.5837 0)
(214.187 -17.5959 0)
(214.174 -17.6055 0)
(214.147 -17.6133 0)
(214.099 -17.6182 0)
(214.022 -17.6201 0)
(213.905 -17.618 0)
(213.741 -17.6105 0)
(213.517 -17.5986 0)
(213.225 -17.5781 0)
(212.857 -17.5541 0)
(212.404 -17.517 0)
(211.857 -17.4793 0)
(211.207 -17.4215 0)
(210.437 -17.3672 0)
(209.533 -17.2821 0)
(213.767 -16.3558 0)
(213.829 -16.4013 0)
(213.891 -16.4447 0)
(213.952 -16.487 0)
(214.012 -16.5274 0)
(214.071 -16.5664 0)
(214.13 -16.6034 0)
(214.188 -16.6388 0)
(214.244 -16.6721 0)
(214.298 -16.7036 0)
(214.35 -16.733 0)
(214.4 -16.7604 0)
(214.447 -16.7859 0)
(214.492 -16.8094 0)
(214.534 -16.831 0)
(214.575 -16.8508 0)
(214.613 -16.8688 0)
(214.649 -16.885 0)
(214.683 -16.8996 0)
(214.715 -16.9125 0)
(214.743 -16.924 0)
(214.767 -16.9336 0)
(214.786 -16.9422 0)
(214.801 -16.9491 0)
(214.812 -16.9556 0)
(214.819 -16.9614 0)
(214.822 -16.9659 0)
(214.82 -16.9691 0)
(214.814 -16.9718 0)
(214.8 -16.9732 0)
(214.778 -16.9738 0)
(214.744 -16.9727 0)
(214.697 -16.9705 0)
(214.633 -16.9661 0)
(214.548 -16.9602 0)
(214.435 -16.951 0)
(214.29 -16.9397 0)
(214.106 -16.9241 0)
(213.875 -16.9054 0)
(213.587 -16.8815 0)
(213.229 -16.8519 0)
(212.784 -16.8161 0)
(214.5 -15.9511 0)
(214.556 -15.9857 0)
(214.61 -16.0178 0)
(214.661 -16.0473 0)
(214.709 -16.0746 0)
(214.755 -16.0995 0)
(214.797 -16.1222 0)
(214.836 -16.1427 0)
(214.872 -16.1612 0)
(214.904 -16.1777 0)
(214.932 -16.1923 0)
(214.957 -16.2052 0)
(214.979 -16.2165 0)
(214.998 -16.2263 0)
(215.013 -16.2348 0)
(215.026 -16.242 0)
(215.037 -16.2481 0)
(215.045 -16.2532 0)
(215.051 -16.2574 0)
(215.056 -16.2607 0)
(215.058 -16.2631 0)
(215.059 -16.2647 0)
(215.057 -16.2655 0)
(215.055 -16.266 0)
(215.05 -16.2658 0)
(215.044 -16.2655 0)
(215.036 -16.2645 0)
(215.026 -16.2635 0)
(215.014 -16.2615 0)
(214.998 -16.26 0)
(214.978 -16.257 0)
(214.954 -16.2549 0)
(214.925 -16.2509 0)
(214.89 -16.2478 0)
(214.848 -16.2429 0)
(214.799 -16.2389 0)
(214.741 -16.2328 0)
(214.674 -16.2277 0)
(214.596 -16.22 0)
(214.501 -16.2129 0)
(214.383 -16.2019 0)
(214.235 -16.1909 0)
(215.003 -15.4233 0)
(215.038 -15.4444 0)
(215.07 -15.4635 0)
(215.1 -15.4808 0)
(215.128 -15.4963 0)
(215.152 -15.5102 0)
(215.173 -15.5225 0)
(215.191 -15.5334 0)
(215.207 -15.5431 0)
(215.219 -15.5517 0)
(215.228 -15.5592 0)
(215.235 -15.5656 0)
(215.24 -15.5711 0)
(215.242 -15.5757 0)
(215.243 -15.5796 0)
(215.241 -15.5829 0)
(215.237 -15.5856 0)
(215.232 -15.5878 0)
(215.225 -15.5894 0)
(215.217 -15.5908 0)
(215.208 -15.5917 0)
(215.198 -15.5925 0)
(215.188 -15.5928 0)
(215.178 -15.5935 0)
(215.167 -15.5935 0)
(215.157 -15.5938 0)
(215.147 -15.5937 0)
(215.137 -15.5944 0)
(215.126 -15.5943 0)
(215.115 -15.5947 0)
(215.103 -15.5941 0)
(215.09 -15.5946 0)
(215.075 -15.594 0)
(215.058 -15.5944 0)
(215.039 -15.5932 0)
(215.017 -15.5932 0)
(214.992 -15.5916 0)
(214.964 -15.5914 0)
(214.933 -15.5894 0)
(214.899 -15.5889 0)
(214.86 -15.5865 0)
(214.814 -15.5855 0)
(215.339 -14.8247 0)
(215.361 -14.8416 0)
(215.382 -14.8573 0)
(215.401 -14.8719 0)
(215.418 -14.8856 0)
(215.434 -14.8984 0)
(215.448 -14.9104 0)
(215.46 -14.9217 0)
(215.47 -14.9322 0)
(215.479 -14.9422 0)
(215.486 -14.9515 0)
(215.491 -14.9604 0)
(215.495 -14.9688 0)
(215.498 -14.9768 0)
(215.499 -14.9843 0)
(215.499 -14.9915 0)
(215.497 -14.9983 0)
(215.494 -15.0047 0)
(215.49 -15.0107 0)
(215.484 -15.0165 0)
(215.478 -15.022 0)
(215.472 -15.0272 0)
(215.465 -15.032 0)
(215.459 -15.0374 0)
(215.453 -15.0428 0)
(215.448 -15.047 0)
(215.444 -15.0508 0)
(215.44 -15.0564 0)
(215.436 -15.0628 0)
(215.434 -15.0676 0)
(215.431 -15.07 0)
(215.429 -15.0728 0)
(215.425 -15.0783 0)
(215.421 -15.0848 0)
(215.417 -15.0901 0)
(215.412 -15.0935 0)
(215.406 -15.0952 0)
(215.399 -15.0971 0)
(215.39 -15.1002 0)
(215.381 -15.1043 0)
(215.37 -15.109 0)
(215.358 -15.1138 0)
(215.719 -14.3025 0)
(215.741 -14.3252 0)
(215.762 -14.347 0)
(215.782 -14.3682 0)
(215.802 -14.3887 0)
(215.821 -14.4085 0)
(215.839 -14.4278 0)
(215.855 -14.4463 0)
(215.871 -14.4643 0)
(215.885 -14.4817 0)
(215.898 -14.4986 0)
(215.91 -14.515 0)
(215.92 -14.5309 0)
(215.93 -14.5461 0)
(215.938 -14.5608 0)
(215.945 -14.5753 0)
(215.951 -14.5894 0)
(215.956 -14.602 0)
(215.959 -14.614 0)
(215.96 -14.6274 0)
(215.962 -14.6414 0)
(215.964 -14.6515 0)
(215.966 -14.6585 0)
(215.966 -14.6711 0)
(215.966 -14.6874 0)
(215.967 -14.7001 0)
(215.97 -14.7026 0)
(215.974 -14.7054 0)
(215.977 -14.7177 0)
(215.981 -14.7361 0)
(215.986 -14.7518 0)
(215.991 -14.7581 0)
(215.998 -14.7564 0)
(216.006 -14.7562 0)
(216.011 -14.7649 0)
(216.015 -14.7789 0)
(216.02 -14.7974 0)
(216.025 -14.811 0)
(216.031 -14.8183 0)
(216.037 -14.8182 0)
(216.044 -14.8164 0)
(216.053 -14.8159 0)
(216.23 -13.9654 0)
(216.255 -13.9965 0)
(216.28 -14.0263 0)
(216.304 -14.0554 0)
(216.328 -14.0833 0)
(216.351 -14.1105 0)
(216.374 -14.1365 0)
(216.396 -14.1619 0)
(216.417 -14.1862 0)
(216.437 -14.21 0)
(216.457 -14.2326 0)
(216.475 -14.2546 0)
(216.493 -14.2757 0)
(216.509 -14.2965 0)
(216.525 -14.3157 0)
(216.539 -14.3338 0)
(216.553 -14.3525 0)
(216.565 -14.3721 0)
(216.577 -14.3888 0)
(216.587 -14.4012 0)
(216.598 -14.4155 0)
(216.605 -14.4355 0)
(216.612 -14.4557 0)
(216.62 -14.4671 0)
(216.629 -14.4704 0)
(216.636 -14.4796 0)
(216.643 -14.4962 0)
(216.652 -14.5199 0)
(216.662 -14.5386 0)
(216.672 -14.5453 0)
(216.683 -14.5422 0)
(216.696 -14.5415 0)
(216.706 -14.5519 0)
(216.715 -14.5707 0)
(216.724 -14.5958 0)
(216.736 -14.6136 0)
(216.749 -14.6256 0)
(216.762 -14.6275 0)
(216.778 -14.6217 0)
(216.793 -14.6145 0)
(216.809 -14.6154 0)
(216.822 -14.6253 0)
(216.816 -13.7265 0)
(216.842 -13.7596 0)
(216.869 -13.7907 0)
(216.894 -13.8211 0)
(216.92 -13.8496 0)
(216.944 -13.8775 0)
(216.969 -13.9038 0)
(216.992 -13.9295 0)
(217.016 -13.9534 0)
(217.038 -13.9769 0)
(217.061 -13.9991 0)
(217.082 -14.0205 0)
(217.103 -14.0401 0)
(217.122 -14.0599 0)
(217.141 -14.0796 0)
(217.159 -14.0973 0)
(217.177 -14.1116 0)
(217.193 -14.1277 0)
(217.208 -14.1474 0)
(217.222 -14.1649 0)
(217.235 -14.1742 0)
(217.248 -14.1817 0)
(217.258 -14.1967 0)
(217.267 -14.2154 0)
(217.276 -14.2332 0)
(217.286 -14.2408 0)
(217.296 -14.241 0)
(217.307 -14.2456 0)
(217.315 -14.2575 0)
(217.324 -14.2745 0)
(217.333 -14.2914 0)
(217.343 -14.3037 0)
(217.352 -14.3086 0)
(217.364 -14.3071 0)
(217.376 -14.3036 0)
(217.387 -14.3065 0)
(217.397 -14.3155 0)
(217.407 -14.3293 0)
(217.418 -14.3442 0)
(217.428 -14.3563 0)
(217.44 -14.3657 0)
(217.453 -14.3726 0)
(217.384 -13.4352 0)
(217.407 -13.4643 0)
(217.43 -13.4914 0)
(217.451 -13.5178 0)
(217.473 -13.5425 0)
(217.494 -13.5665 0)
(217.515 -13.589 0)
(217.536 -13.6108 0)
(217.556 -13.6313 0)
(217.576 -13.6508 0)
(217.595 -13.669 0)
(217.613 -13.6866 0)
(217.631 -13.704 0)
(217.648 -13.7207 0)
(217.665 -13.7348 0)
(217.681 -13.7474 0)
(217.697 -13.7627 0)
(217.712 -13.78 0)
(217.726 -13.7941 0)
(217.74 -13.8002 0)
(217.753 -13.8056 0)
(217.762 -13.8186 0)
(217.769 -13.8357 0)
(217.777 -13.8517 0)
(217.784 -13.8587 0)
(217.791 -13.8568 0)
(217.799 -13.8551 0)
(217.805 -13.8622 0)
(217.81 -13.8756 0)
(217.814 -13.8961 0)
(217.821 -13.9105 0)
(217.827 -13.9178 0)
(217.834 -13.9152 0)
(217.841 -13.9082 0)
(217.849 -13.9035 0)
(217.856 -13.9042 0)
(217.86 -13.9103 0)
(217.865 -13.9213 0)
(217.87 -13.9373 0)
(217.875 -13.9513 0)
(217.88 -13.9609 0)
(217.887 -13.9675 0)
(217.901 -13.0646 0)
(217.921 -13.0906 0)
(217.94 -13.1152 0)
(217.958 -13.1389 0)
(217.976 -13.1615 0)
(217.994 -13.1834 0)
(218.011 -13.2041 0)
(218.028 -13.2237 0)
(218.045 -13.2429 0)
(218.062 -13.2617 0)
(218.078 -13.2788 0)
(218.094 -13.2939 0)
(218.109 -13.3102 0)
(218.125 -13.3285 0)
(218.14 -13.3449 0)
(218.155 -13.3546 0)
(218.17 -13.3637 0)
(218.182 -13.38 0)
(218.193 -13.3986 0)
(218.203 -13.4138 0)
(218.211 -13.4179 0)
(218.22 -13.4187 0)
(218.227 -13.4263 0)
(218.232 -13.4394 0)
(218.237 -13.4582 0)
(218.242 -13.4725 0)
(218.247 -13.4794 0)
(218.252 -13.4797 0)
(218.258 -13.4779 0)
(218.263 -13.4781 0)
(218.267 -13.4847 0)
(218.27 -13.4943 0)
(218.273 -13.5081 0)
(218.276 -13.5211 0)
(218.28 -13.5308 0)
(218.283 -13.5377 0)
(218.286 -13.5401 0)
(218.29 -13.5406 0)
(218.294 -13.5396 0)
(218.298 -13.5374 0)
(218.302 -13.5361 0)
(218.306 -13.5368 0)
(218.422 -12.6748 0)
(218.443 -12.7024 0)
(218.463 -12.7292 0)
(218.482 -12.755 0)
(218.501 -12.7799 0)
(218.519 -12.804 0)
(218.537 -12.8275 0)
(218.555 -12.8497 0)
(218.572 -12.8707 0)
(218.588 -12.8917 0)
(218.605 -12.9128 0)
(218.62 -12.9321 0)
(218.636 -12.9487 0)
(218.652 -12.9655 0)
(218.666 -12.9847 0)
(218.681 -13.0038 0)
(218.694 -13.0192 0)
(218.707 -13.0302 0)
(218.719 -13.0415 0)
(218.73 -13.0559 0)
(218.739 -13.0723 0)
(218.747 -13.0885 0)
(218.755 -13.1023 0)
(218.762 -13.1107 0)
(218.768 -13.1157 0)
(218.775 -13.1214 0)
(218.78 -13.1306 0)
(218.784 -13.1422 0)
(218.788 -13.155 0)
(218.791 -13.1682 0)
(218.795 -13.1797 0)
(218.798 -13.189 0)
(218.802 -13.1941 0)
(218.805 -13.1966 0)
(218.809 -13.1973 0)
(218.813 -13.197 0)
(218.817 -13.2003 0)
(218.819 -13.2063 0)
(218.821 -13.2138 0)
(218.823 -13.2231 0)
(218.825 -13.2333 0)
(218.826 -13.2431 0)
(219.009 -12.3411 0)
(219.034 -12.3724 0)
(219.058 -12.4029 0)
(219.081 -12.4323 0)
(219.103 -12.4608 0)
(219.124 -12.4882 0)
(219.145 -12.5149 0)
(219.165 -12.5405 0)
(219.184 -12.5649 0)
(219.202 -12.5885 0)
(219.221 -12.6119 0)
(219.238 -12.6343 0)
(219.255 -12.6549 0)
(219.271 -12.6741 0)
(219.287 -12.6938 0)
(219.302 -12.7141 0)
(219.316 -12.7329 0)
(219.33 -12.7487 0)
(219.344 -12.7628 0)
(219.356 -12.7779 0)
(219.367 -12.7946 0)
(219.377 -12.8112 0)
(219.387 -12.8262 0)
(219.396 -12.838 0)
(219.404 -12.8478 0)
(219.412 -12.8576 0)
(219.419 -12.8686 0)
(219.425 -12.8806 0)
(219.43 -12.893 0)
(219.435 -12.9048 0)
(219.44 -12.9153 0)
(219.445 -12.924 0)
(219.449 -12.9313 0)
(219.453 -12.9376 0)
(219.457 -12.9437 0)
(219.46 -12.9498 0)
(219.463 -12.9565 0)
(219.466 -12.9635 0)
(219.468 -12.9709 0)
(219.471 -12.9783 0)
(219.473 -12.9857 0)
(219.475 -12.9929 0)
(219.665 -12.0339 0)
(219.694 -12.0674 0)
(219.722 -12.0997 0)
(219.749 -12.1306 0)
(219.774 -12.1604 0)
(219.798 -12.1889 0)
(219.822 -12.2162 0)
(219.844 -12.2424 0)
(219.865 -12.2674 0)
(219.886 -12.2912 0)
(219.906 -12.3142 0)
(219.925 -12.3363 0)
(219.943 -12.3574 0)
(219.96 -12.3772 0)
(219.977 -12.3964 0)
(219.992 -12.415 0)
(220.007 -12.433 0)
(220.022 -12.4497 0)
(220.035 -12.4654 0)
(220.048 -12.4804 0)
(220.06 -12.4952 0)
(220.072 -12.5095 0)
(220.082 -12.5231 0)
(220.093 -12.5357 0)
(220.102 -12.5475 0)
(220.111 -12.5587 0)
(220.119 -12.5696 0)
(220.127 -12.5801 0)
(220.134 -12.5903 0)
(220.14 -12.6 0)
(220.146 -12.6092 0)
(220.152 -12.6178 0)
(220.157 -12.6259 0)
(220.162 -12.6336 0)
(220.167 -12.641 0)
(220.171 -12.648 0)
(220.175 -12.6548 0)
(220.179 -12.6612 0)
(220.182 -12.6675 0)
(220.185 -12.6735 0)
(220.188 -12.6794 0)
(220.191 -12.6852 0)
(220.331 -11.6125 0)
(220.361 -11.6421 0)
(220.389 -11.6706 0)
(220.416 -11.6977 0)
(220.44 -11.7239 0)
(220.464 -11.749 0)
(220.487 -11.7733 0)
(220.508 -11.7967 0)
(220.528 -11.8194 0)
(220.548 -11.8411 0)
(220.566 -11.8622 0)
(220.583 -11.8823 0)
(220.6 -11.9018 0)
(220.616 -11.9201 0)
(220.631 -11.9378 0)
(220.645 -11.9544 0)
(220.658 -11.9705 0)
(220.671 -11.9856 0)
(220.683 -12 0)
(220.694 -12.0136 0)
(220.705 -12.0266 0)
(220.716 -12.0388 0)
(220.725 -12.0507 0)
(220.734 -12.0618 0)
(220.743 -12.0725 0)
(220.751 -12.0825 0)
(220.759 -12.0921 0)
(220.766 -12.1011 0)
(220.773 -12.1099 0)
(220.78 -12.118 0)
(220.786 -12.126 0)
(220.792 -12.1334 0)
(220.797 -12.1406 0)
(220.802 -12.1474 0)
(220.807 -12.1539 0)
(220.811 -12.16 0)
(220.815 -12.1659 0)
(220.819 -12.1714 0)
(220.823 -12.1768 0)
(220.827 -12.1819 0)
(220.83 -12.1869 0)
(220.833 -12.1918 0)
(220.953 -11.0938 0)
(220.979 -11.1207 0)
(221.004 -11.1467 0)
(221.028 -11.1714 0)
(221.049 -11.1955 0)
(221.07 -11.2183 0)
(221.09 -11.2407 0)
(221.109 -11.2619 0)
(221.126 -11.2826 0)
(221.143 -11.3021 0)
(221.159 -11.321 0)
(221.174 -11.3387 0)
(221.189 -11.3558 0)
(221.203 -11.3718 0)
(221.216 -11.3872 0)
(221.229 -11.4015 0)
(221.241 -11.4153 0)
(221.252 -11.4281 0)
(221.263 -11.4406 0)
(221.273 -11.4521 0)
(221.283 -11.4634 0)
(221.292 -11.4738 0)
(221.301 -11.4839 0)
(221.309 -11.4933 0)
(221.317 -11.5025 0)
(221.325 -11.511 0)
(221.332 -11.5194 0)
(221.338 -11.5271 0)
(221.345 -11.5347 0)
(221.351 -11.5417 0)
(221.357 -11.5486 0)
(221.362 -11.5549 0)
(221.367 -11.5612 0)
(221.372 -11.567 0)
(221.377 -11.5727 0)
(221.381 -11.5779 0)
(221.385 -11.5831 0)
(221.39 -11.5879 0)
(221.393 -11.5926 0)
(221.397 -11.597 0)
(221.401 -11.6014 0)
(221.404 -11.6057 0)
(221.563 -10.544 0)
(221.59 -10.5716 0)
(221.615 -10.5987 0)
(221.639 -10.6243 0)
(221.661 -10.6494 0)
(221.682 -10.6731 0)
(221.702 -10.6962 0)
(221.721 -10.7179 0)
(221.739 -10.7391 0)
(221.757 -10.7588 0)
(221.773 -10.7781 0)
(221.79 -10.7961 0)
(221.805 -10.8138 0)
(221.82 -10.8303 0)
(221.833 -10.8465 0)
(221.847 -10.8616 0)
(221.859 -10.8765 0)
(221.872 -10.8904 0)
(221.883 -10.9041 0)
(221.894 -10.9169 0)
(221.904 -10.9296 0)
(221.914 -10.9414 0)
(221.923 -10.953 0)
(221.932 -10.9639 0)
(221.94 -10.9746 0)
(221.948 -10.9846 0)
(221.956 -10.9944 0)
(221.963 -11.0036 0)
(221.97 -11.0126 0)
(221.976 -11.021 0)
(221.982 -11.0293 0)
(221.988 -11.037 0)
(221.994 -11.0446 0)
(221.999 -11.0517 0)
(222.004 -11.0586 0)
(222.009 -11.0651 0)
(222.013 -11.0714 0)
(222.018 -11.0773 0)
(222.022 -11.0832 0)
(222.026 -11.0886 0)
(222.03 -11.0941 0)
(222.034 -11.0994 0)
(222.237 -9.99749 0)
(222.269 -10.0288 0)
(222.298 -10.0598 0)
(222.326 -10.0894 0)
(222.352 -10.1187 0)
(222.378 -10.1464 0)
(222.401 -10.1737 0)
(222.424 -10.1994 0)
(222.445 -10.2248 0)
(222.466 -10.2486 0)
(222.485 -10.2722 0)
(222.504 -10.2944 0)
(222.521 -10.3164 0)
(222.539 -10.3371 0)
(222.555 -10.3577 0)
(222.571 -10.377 0)
(222.585 -10.3963 0)
(222.599 -10.4143 0)
(222.612 -10.4323 0)
(222.625 -10.449 0)
(222.637 -10.4657 0)
(222.649 -10.4812 0)
(222.66 -10.4967 0)
(222.671 -10.511 0)
(222.68 -10.5253 0)
(222.69 -10.5385 0)
(222.699 -10.5517 0)
(222.707 -10.5638 0)
(222.715 -10.5759 0)
(222.723 -10.5871 0)
(222.73 -10.5982 0)
(222.738 -10.6084 0)
(222.744 -10.6185 0)
(222.751 -10.6279 0)
(222.757 -10.6372 0)
(222.763 -10.6457 0)
(222.768 -10.6542 0)
(222.774 -10.662 0)
(222.778 -10.6697 0)
(222.784 -10.677 0)
(222.788 -10.6843 0)
(222.793 -10.6913 0)
(223.016 -9.4312 0)
(223.057 -9.47082 0)
(223.095 -9.51015 0)
(223.131 -9.548 0)
(223.165 -9.58554 0)
(223.198 -9.62127 0)
(223.228 -9.65673 0)
(223.258 -9.69015 0)
(223.285 -9.72336 0)
(223.312 -9.7545 0)
(223.337 -9.78557 0)
(223.362 -9.81455 0)
(223.384 -9.84353 0)
(223.407 -9.87044 0)
(223.427 -9.89738 0)
(223.448 -9.92231 0)
(223.467 -9.94729 0)
(223.486 -9.97032 0)
(223.503 -9.99342 0)
(223.52 -10.0146 0)
(223.536 -10.0359 0)
(223.552 -10.0554 0)
(223.566 -10.075 0)
(223.58 -10.0929 0)
(223.593 -10.1109 0)
(223.606 -10.1272 0)
(223.618 -10.1437 0)
(223.63 -10.1587 0)
(223.641 -10.1738 0)
(223.652 -10.1875 0)
(223.662 -10.2013 0)
(223.672 -10.2139 0)
(223.68 -10.2265 0)
(223.69 -10.238 0)
(223.698 -10.2495 0)
(223.706 -10.26 0)
(223.713 -10.2705 0)
(223.721 -10.2801 0)
(223.727 -10.2897 0)
(223.735 -10.2986 0)
(223.741 -10.3077 0)
(223.748 -10.3163 0)
(223.894 -8.74156 0)
(223.951 -8.78557 0)
(224.004 -8.82942 0)
(224.056 -8.87187 0)
(224.105 -8.91405 0)
(224.151 -8.95439 0)
(224.195 -8.9946 0)
(224.238 -9.0324 0)
(224.277 -9.07047 0)
(224.316 -9.10573 0)
(224.352 -9.14154 0)
(224.388 -9.17438 0)
(224.421 -9.2079 0)
(224.454 -9.23845 0)
(224.483 -9.26969 0)
(224.514 -9.29804 0)
(224.541 -9.32705 0)
(224.568 -9.35329 0)
(224.593 -9.38015 0)
(224.619 -9.40442 0)
(224.641 -9.42922 0)
(224.664 -9.45163 0)
(224.685 -9.4745 0)
(224.706 -9.49519 0)
(224.725 -9.51625 0)
(224.744 -9.53536 0)
(224.761 -9.55474 0)
(224.779 -9.57237 0)
(224.795 -9.59019 0)
(224.811 -9.60647 0)
(224.825 -9.62283 0)
(224.839 -9.63785 0)
(224.852 -9.65286 0)
(224.866 -9.6667 0)
(224.877 -9.68045 0)
(224.889 -9.69321 0)
(224.9 -9.7058 0)
(224.911 -9.71754 0)
(224.921 -9.72908 0)
(224.931 -9.74003 0)
(224.94 -9.75095 0)
(224.95 -9.76169 0)
(224.798 -7.80038 0)
(224.876 -7.83822 0)
(224.951 -7.87653 0)
(225.023 -7.91435 0)
(225.091 -7.95312 0)
(225.157 -7.9906 0)
(225.22 -8.02845 0)
(225.281 -8.06415 0)
(225.337 -8.10103 0)
(225.393 -8.13491 0)
(225.445 -8.17046 0)
(225.496 -8.20263 0)
(225.543 -8.23659 0)
(225.59 -8.26702 0)
(225.633 -8.29919 0)
(225.676 -8.32786 0)
(225.716 -8.35812 0)
(225.755 -8.38506 0)
(225.791 -8.41339 0)
(225.827 -8.43866 0)
(225.86 -8.46508 0)
(225.892 -8.48873 0)
(225.922 -8.51327 0)
(225.952 -8.53537 0)
(225.98 -8.55808 0)
(226.007 -8.57868 0)
(226.032 -8.59961 0)
(226.057 -8.61879 0)
(226.08 -8.63803 0)
(226.102 -8.65586 0)
(226.123 -8.67351 0)
(226.144 -8.69005 0)
(226.163 -8.70621 0)
(226.181 -8.72153 0)
(226.199 -8.7363 0)
(226.216 -8.75046 0)
(226.232 -8.76397 0)
(226.247 -8.77703 0)
(226.262 -8.7894 0)
(226.276 -8.8016 0)
(226.29 -8.8133 0)
(226.304 -8.82529 0)
(225.604 -6.57769 0)
(225.704 -6.59773 0)
(225.801 -6.61874 0)
(225.894 -6.64112 0)
(225.984 -6.66402 0)
(226.071 -6.68753 0)
(226.154 -6.71244 0)
(226.233 -6.7368 0)
(226.31 -6.76202 0)
(226.384 -6.78613 0)
(226.454 -6.8117 0)
(226.522 -6.83527 0)
(226.587 -6.86061 0)
(226.649 -6.88343 0)
(226.708 -6.90813 0)
(226.765 -6.93007 0)
(226.819 -6.95392 0)
(226.872 -6.97493 0)
(226.921 -6.99773 0)
(226.969 -7.01773 0)
(227.014 -7.03935 0)
(227.058 -7.05831 0)
(227.099 -7.07867 0)
(227.14 -7.09661 0)
(227.177 -7.11567 0)
(227.214 -7.13257 0)
(227.248 -7.15031 0)
(227.281 -7.16619 0)
(227.313 -7.18264 0)
(227.343 -7.19751 0)
(227.372 -7.21269 0)
(227.4 -7.22657 0)
(227.426 -7.24053 0)
(227.451 -7.25345 0)
(227.475 -7.26626 0)
(227.498 -7.27827 0)
(227.52 -7.29 0)
(227.541 -7.30112 0)
(227.561 -7.31188 0)
(227.58 -7.3223 0)
(227.599 -7.33249 0)
(227.618 -7.34276 0)
(226.163 -5.08426 0)
(226.281 -5.07763 0)
(226.396 -5.07321 0)
(226.508 -5.07045 0)
(226.615 -5.06959 0)
(226.719 -5.07009 0)
(226.819 -5.07258 0)
(226.916 -5.07592 0)
(227.009 -5.08081 0)
(227.098 -5.08628 0)
(227.184 -5.09349 0)
(227.267 -5.10079 0)
(227.346 -5.1093 0)
(227.422 -5.11735 0)
(227.495 -5.1266 0)
(227.565 -5.13523 0)
(227.633 -5.14514 0)
(227.697 -5.15416 0)
(227.759 -5.16446 0)
(227.818 -5.17367 0)
(227.874 -5.18409 0)
(227.928 -5.19329 0)
(227.98 -5.20358 0)
(228.03 -5.21258 0)
(228.077 -5.22258 0)
(228.123 -5.23126 0)
(228.166 -5.24082 0)
(228.208 -5.24909 0)
(228.247 -5.25811 0)
(228.285 -5.26593 0)
(228.321 -5.27442 0)
(228.356 -5.28179 0)
(228.389 -5.28973 0)
(228.421 -5.29664 0)
(228.451 -5.30403 0)
(228.48 -5.31048 0)
(228.507 -5.31732 0)
(228.534 -5.32333 0)
(228.559 -5.32967 0)
(228.583 -5.33531 0)
(228.607 -5.34136 0)
(228.631 -5.34694 0)
(226.353 -3.38475 0)
(226.48 -3.34733 0)
(226.603 -3.31348 0)
(226.722 -3.28146 0)
(226.837 -3.25277 0)
(226.949 -3.22566 0)
(227.056 -3.20138 0)
(227.161 -3.17839 0)
(227.261 -3.15803 0)
(227.358 -3.13902 0)
(227.451 -3.12247 0)
(227.541 -3.10703 0)
(227.627 -3.09351 0)
(227.711 -3.08071 0)
(227.791 -3.06943 0)
(227.868 -3.05861 0)
(227.942 -3.04915 0)
(228.012 -3.04011 0)
(228.08 -3.03231 0)
(228.146 -3.02481 0)
(228.208 -3.01841 0)
(228.268 -3.01221 0)
(228.326 -3.00697 0)
(228.381 -3.00175 0)
(228.433 -2.99725 0)
(228.484 -2.99273 0)
(228.532 -2.98892 0)
(228.578 -2.98503 0)
(228.623 -2.98177 0)
(228.665 -2.97839 0)
(228.705 -2.9756 0)
(228.744 -2.97267 0)
(228.781 -2.97028 0)
(228.817 -2.96772 0)
(228.851 -2.96567 0)
(228.883 -2.96344 0)
(228.914 -2.96167 0)
(228.944 -2.95973 0)
(228.972 -2.95819 0)
(228.999 -2.95647 0)
(229.026 -2.95508 0)
(229.053 -2.95348 0)
(226.113 -1.59989 0)
(226.236 -1.53149 0)
(226.355 -1.46735 0)
(226.471 -1.406 0)
(226.583 -1.34869 0)
(226.691 -1.29375 0)
(226.796 -1.2422 0)
(226.897 -1.19261 0)
(226.995 -1.14619 0)
(227.089 -1.10181 0)
(227.18 -1.06052 0)
(227.267 -1.0211 0)
(227.351 -0.9843 0)
(227.432 -0.948989 0)
(227.51 -0.915854 0)
(227.584 -0.883977 0)
(227.656 -0.854017 0)
(227.725 -0.825215 0)
(227.791 -0.798153 0)
(227.855 -0.772163 0)
(227.916 -0.74774 0)
(227.974 -0.724286 0)
(228.03 -0.70222 0)
(228.084 -0.68101 0)
(228.136 -0.66103 0)
(228.185 -0.641811 0)
(228.232 -0.623688 0)
(228.277 -0.606254 0)
(228.321 -0.589823 0)
(228.362 -0.573983 0)
(228.402 -0.559085 0)
(228.44 -0.544705 0)
(228.476 -0.531156 0)
(228.511 -0.518114 0)
(228.544 -0.505829 0)
(228.576 -0.49401 0)
(228.606 -0.482875 0)
(228.635 -0.472164 0)
(228.663 -0.462044 0)
(228.69 -0.452203 0)
(228.716 -0.442688 0)
(228.742 -0.433166 0)
(225.452 0.10891 0)
(225.561 0.204328 0)
(225.667 0.295075 0)
(225.769 0.381864 0)
(225.867 0.464314 0)
(225.962 0.543306 0)
(226.054 0.618594 0)
(226.143 0.690942 0)
(226.228 0.759898 0)
(226.31 0.826045 0)
(226.389 0.888903 0)
(226.465 0.949106 0)
(226.538 1.00628 0)