/*--------------------------------*- C++ -*----------------------------------*\
| =========                 |                                                 |
| \\      /  F ield         | OpenFOAM: The Open Source CFD Toolbox           |
|  \\    /   O peration     | Version:  2406                                  |
|   \\  /    A nd           | Website:  www.openfoam.com                      |
|    \\/     M anipulation  |                                                 |
\*---------------------------------------------------------------------------*/
FoamFile
{
    version     2.0;
    format      ascii;
    arch        "LSB;label=32;scalar=64";
    class       volScalarField;
    location    "0.015";
    object      T;
}
// * * * * * * * * * * * * * * * * * * * * * * * * * * * * * * * * * * * * * //

dimensions      [0 0 0 1 0 0 0];

internalField   nonuniform List<scalar> 
78650
(
223
223
223
223
223
223
223
223
223.001
223.024
223.245
223.916
224.695
225.105
225.145
225.093
224.824
224.501
224.229
223.982
223.743
223.51
223.285
223.075
222.882
222.702
222.526
222.352
222.206
222.135
222.13
222.184
222.267
222.29
222.268
222.211
222.143
222.083
222.029
221.978
221.931
221.89
221.853
221.818
221.786
221.754
221.721
221.685
221.644
221.599
221.55
221.497
221.438
221.371
221.296
221.212
221.12
221.02
220.911
220.791
220.658
220.509
220.342
220.155
219.946
219.715
219.459
219.177
218.867
218.526
218.15
217.738
217.286
216.793
216.259
215.68
215.055
214.383
213.66
212.883
212.054
211.17
210.234
209.247
208.206
207.112
205.969
204.772
203.541
202.28
200.992
199.68
198.357
197.052
195.716
194.402
193.079
191.782
190.53
189.296
188.125
186.982
185.865
184.774
183.7
182.658
181.709
180.826
180.017
179.27
178.581
177.955
177.378
176.821
176.321
175.879
175.525
175.251
175.052
174.932
174.388
223
223
223
223
223
223
223
223
223
223.014
223.17
223.76
224.584
225.094
225.177
225.154
224.939
224.621
224.335
224.079
223.838
223.608
223.387
223.182
222.993
222.818
222.646
222.473
222.321
222.238
222.224
222.274
222.371
222.409
222.397
222.354
222.296
222.241
222.193
222.148
222.108
222.073
222.043
222.016
221.991
221.967
221.943
221.916
221.885
221.851
221.813
221.771
221.725
221.673
221.613
221.545
221.47
221.389
221.299
221.201
221.092
220.969
220.829
220.672
220.495
220.297
220.077
219.834
219.565
219.267
218.939
218.577
218.178
217.74
217.263
216.744
216.182
215.575
214.918
214.21
213.45
212.635
211.766
210.845
209.867
208.841
207.763
206.638
205.466
204.25
202.995
201.733
200.441
199.16
197.839
196.507
195.185
193.848
192.586
191.318
190.098
188.892
187.71
186.585
185.547
184.53
183.545
182.589
181.706
180.863
180.049
179.247
178.489
177.796
177.159
176.597
176.106
175.708
175.435
175.279
174.62
223
223
223
223
223
223
223
223
223
223.007
223.111
223.606
224.448
225.058
225.201
225.215
225.051
224.74
224.44
224.175
223.934
223.708
223.492
223.292
223.108
222.936
222.767
222.595
222.438
222.343
222.321
222.365
222.474
222.531
222.528
222.499
222.45
222.402
222.36
222.322
222.288
222.259
222.236
222.216
222.199
222.183
222.167
222.15
222.128
222.104
222.077
222.047
222.014
221.975
221.93
221.878
221.82
221.756
221.686
221.609
221.522
221.424
221.31
221.181
221.033
220.867
220.68
220.472
220.241
219.984
219.699
219.383
219.033
218.647
218.225
217.762
217.258
216.711
216.117
215.476
214.786
214.041
213.245
212.393
211.486
210.528
209.516
208.454
207.339
206.173
204.961
203.716
202.442
201.138
199.825
198.471
197.166
195.811
194.507
193.219
191.949
190.714
189.509
188.343
187.216
186.105
185.017
183.967
182.981
182.078
181.258
180.47
179.731
179.013
178.349
177.745
177.218
176.78
176.443
176.207
175.345
223
223
223
223
223
223
223
223
223
223.003
223.068
223.459
224.283
224.996
225.221
225.275
225.157
224.862
224.547
224.276
224.037
223.814
223.604
223.408
223.228
223.058
222.89
222.719
222.558
222.451
222.419
222.455
222.573
222.653
222.663
222.646
222.607
222.565
222.53
222.498
222.47
222.448
222.43
222.418
222.408
222.399
222.392
222.383
222.371
222.356
222.339
222.32
222.299
222.274
222.243
222.206
222.165
222.118
222.066
222.009
221.944
221.869
221.781
221.678
221.559
221.424
221.27
221.097
220.904
220.687
220.445
220.175
219.874
219.54
219.172
218.765
218.322
217.838
217.313
216.742
216.123
215.453
214.731
213.955
213.127
212.251
211.321
210.342
209.307
208.226
207.1
205.922
204.714
203.452
202.209
200.895
199.58
198.223
196.844
195.51
194.176
192.897
191.633
190.395
189.193
188.009
186.868
185.783
184.737
183.719
182.73
181.764
180.862
180.035
179.314
178.686
178.148
177.696
177.355
177.102
176.388
223
223
223
223
223
223
223
223
223
223.002
223.038
223.326
224.095
224.901
225.231
225.33
225.252
224.98
224.657
224.381
224.144
223.926
223.721
223.529
223.351
223.182
223.015
222.844
222.68
222.562
222.521
222.548
222.671
222.779
222.805
222.796
222.768
222.735
222.705
222.679
222.657
222.64
222.629
222.623
222.62
222.619
222.619
222.619
222.616
222.61
222.604
222.596
222.586
222.574
222.558
222.536
222.51
222.48
222.446
222.408
222.364
222.311
222.247
222.17
222.079
221.972
221.849
221.709
221.55
221.371
221.168
220.941
220.685
220.4
220.083
219.732
219.346
218.922
218.457
217.949
217.395
216.791
216.139
215.435
214.68
213.872
213.007
212.088
211.109
210.08
208.995
207.864
206.688
205.473
204.235
202.974
201.67
200.376
199.028
197.715
196.38
195.072
193.783
192.468
191.193
189.95
188.756
187.619
186.511
185.442
184.433
183.421
182.43
181.464
180.564
179.754
179.042
178.429
177.935
177.571
176.581
223
223
223
223
223
223
223
223
223
223.001
223.019
223.214
223.888
224.767
225.231
225.381
225.328
225.101
224.776
224.497
224.26
224.046
223.845
223.657
223.48
223.31
223.141
222.971
222.805
222.678
222.628
222.645
222.767
222.904
222.951
222.951
222.933
222.908
222.884
222.864
222.848
222.836
222.831
222.832
222.835
222.841
222.848
222.856
222.862
222.866
222.869
222.871
222.873
222.873
222.87
222.863
222.852
222.839
222.822
222.802
222.777
222.746
222.705
222.653
222.588
222.51
222.417
222.309
222.185
222.042
221.879
221.694
221.483
221.246
220.98
220.682
220.35
219.983
219.579
219.135
218.649
218.119
217.543
216.918
216.242
215.514
214.732
213.897
213.007
212.069
211.071
210.026
208.926
207.775
206.569
205.336
204.043
202.733
201.367
199.988
198.639
197.285
195.978
194.631
193.305
192.009
190.755
189.54
188.339
187.148
186.037
184.977
183.981
183.021
182.116
181.288
180.562
179.922
179.387
178.976
177.751
223
223
223
223
223
223
223
223
223
223
223.009
223.128
223.677
224.59
225.204
225.421
225.391
225.22
224.906
224.62
224.382
224.172
223.976
223.789
223.61
223.437
223.268
223.099
222.933
222.799
222.74
222.748
222.863
223.028
223.104
223.113
223.104
223.085
223.067
223.054
223.043
223.037
223.037
223.043
223.053
223.066
223.081
223.096
223.111
223.124
223.136
223.149
223.162
223.174
223.185
223.192
223.196
223.198
223.198
223.195
223.189
223.179
223.16
223.132
223.092
223.04
222.975
222.897
222.805
222.696
222.57
222.423
222.254
222.06
221.841
221.593
221.315
221.006
220.663
220.284
219.866
219.406
218.902
218.351
217.749
217.097
216.391
215.634
214.824
213.961
213.038
212.068
211.038
209.964
208.844
207.674
206.481
205.233
203.976
202.648
201.332
199.976
198.662
197.319
195.976
194.638
193.325
192.052
190.823
189.587
188.406
187.261
186.169
185.103
184.062
183.084
182.209
181.468
180.88
180.432
179.236
223
223
223
223
223
223
223
223
223
223
223.003
223.069
223.478
224.367
225.132
225.443
225.446
225.339
225.044
224.751
224.513
224.307
224.112
223.923
223.74
223.564
223.396
223.23
223.066
222.929
222.859
222.857
222.96
223.15
223.259
223.282
223.277
223.266
223.254
223.247
223.241
223.239
223.243
223.255
223.272
223.291
223.313
223.337
223.359
223.381
223.403
223.426
223.45
223.474
223.497
223.518
223.537
223.554
223.569
223.584
223.596
223.604
223.607
223.601
223.587
223.561
223.523
223.474
223.412
223.337
223.246
223.137
223.009
222.859
222.686
222.488
222.263
222.008
221.721
221.401
221.043
220.646
220.209
219.727
219.199
218.622
217.996
217.321
216.593
215.811
214.972
214.083
213.132
212.13
211.063
209.946
208.778
207.577
206.342
205.036
203.71
202.342
200.984
199.649
198.282
196.925
195.551
194.213
192.931
191.652
190.402
189.19
188.025
186.91
185.821
184.778
183.822
182.991
182.31
181.766
180.402
223
223
223
223
223
223
223
223
223
223
223.001
223.033
223.309
224.111
225.001
225.443
225.506
225.443
225.183
224.891
224.653
224.446
224.248
224.054
223.868
223.692
223.524
223.363
223.204
223.064
222.984
222.973
223.06
223.267
223.414
223.455
223.455
223.451
223.444
223.442
223.441
223.443
223.453
223.47
223.493
223.519
223.548
223.578
223.609
223.64
223.671
223.704
223.739
223.775
223.811
223.845
223.878
223.91
223.94
223.971
224.001
224.028
224.05
224.065
224.072
224.072
224.059
224.038
224.005
223.96
223.902
223.828
223.737
223.628
223.497
223.344
223.167
222.964
222.732
222.47
222.176
221.847
221.482
221.075
220.626
220.132
219.593
219.005
218.365
217.67
216.921
216.12
215.259
214.345
213.368
212.344
211.268
210.151
208.986
207.772
206.487
205.18
203.83
202.507
201.13
199.748
198.337
196.923
195.577
194.231
192.881
191.55
190.232
188.995
187.8
186.657
185.58
184.604
183.793
183.148
181.502
223
223
223
223
223
223
223
223
223
223
223
223.013
223.179
223.843
224.809
225.417
225.555
225.527
225.327
225.044
224.8
224.584
224.379
224.183
223.997
223.822
223.657
223.5
223.346
223.207
223.118
223.098
223.165
223.379
223.565
223.631
223.638
223.636
223.633
223.635
223.641
223.648
223.662
223.684
223.712
223.745
223.78
223.817
223.857
223.896
223.937
223.979
224.025
224.073
224.121
224.169
224.215
224.261
224.306
224.352
224.398
224.442
224.484
224.52
224.548
224.569
224.582
224.587
224.582
224.567
224.541
224.501
224.447
224.376
224.287
224.179
224.049
223.896
223.718
223.512
223.277
223.009
222.706
222.365
221.986
221.566
221.101
220.589
220.028
219.415
218.752
218.037
217.264
216.439
215.553
214.617
213.62
212.573
211.473
210.327
209.134
207.875
206.584
205.262
203.959
202.613
201.275
199.874
198.523
197.196
195.867
194.537
193.183
191.884
190.649
189.484
188.414
187.403
186.525
185.805
184.172
223
223
223
223
223
223
223
223
223
223
223
223.005
223.091
223.587
224.56
225.342
225.576
225.603
225.471
225.203
224.942
224.715
224.508
224.314
224.129
223.956
223.794
223.641
223.492
223.354
223.258
223.228
223.276
223.482
223.707
223.805
223.822
223.822
223.821
223.828
223.84
223.852
223.871
223.898
223.932
223.97
224.011
224.056
224.103
224.152
224.202
224.255
224.31
224.369
224.43
224.49
224.55
224.609
224.668
224.728
224.79
224.851
224.911
224.966
225.015
225.058
225.094
225.122
225.142
225.155
225.158
225.15
225.13
225.095
225.043
224.975
224.889
224.782
224.653
224.5
224.32
224.111
223.873
223.601
223.295
222.95
222.564
222.133
221.656
221.131
220.556
219.929
219.248
218.516
217.727
216.881
215.968
215.003
213.985
212.923
211.798
210.606
209.351
208.056
206.753
205.413
204.057
202.583
201.11
199.685
198.284
196.893
195.473
194.064
192.719
191.465
190.335
189.266
188.305
187.523
185.534
223
223
223
223
223
223
223
223
223
223
223
223.001
223.041
223.369
224.266
225.202
225.576
225.681
225.603
225.354
225.079
224.845
224.64
224.449
224.265
224.092
223.933
223.785
223.643
223.508
223.404
223.364
223.392
223.578
223.836
223.975
224.006
224.007
224.007
224.017
224.035
224.054
224.078
224.109
224.148
224.192
224.239
224.291
224.346
224.404
224.464
224.526
224.592
224.661
224.733
224.806
224.878
224.95
225.023
225.097
225.173
225.25
225.326
225.399
225.468
225.531
225.588
225.64
225.685
225.723
225.754
225.775
225.787
225.788
225.773
225.745
225.7
225.637
225.555
225.452
225.326
225.175
224.996
224.786
224.545
224.268
223.953
223.599
223.205
222.767
222.285
221.753
221.173
220.542
219.855
219.109
218.299
217.439
216.526
215.564
214.539
213.456
212.312
211.119
209.882
208.622
207.319
205.982
204.58
203.176
201.789
200.394
198.998
197.521
196.052
194.601
193.294
192.067
190.952
189.968
187.655
223
223
223
223
223
223
223
223
223
223
223
223
223.016
223.207
223.954
224.993
225.561
225.746
225.699
225.498
225.219
224.982
224.776
224.584
224.401
224.231
224.075
223.931
223.794
223.662
223.552
223.5
223.511
223.665
223.948
224.133
224.186
224.191
224.192
224.203
224.227
224.252
224.281
224.318
224.362
224.411
224.465
224.524
224.587
224.653
224.722
224.794
224.869
224.949
225.032
225.116
225.201
225.286
225.372
225.459
225.548
225.64
225.732
225.822
225.909
225.991
226.069
226.141
226.209
226.271
226.327
226.377
226.417
226.447
226.466
226.474
226.468
226.445
226.408
226.351
226.275
226.176
226.053
225.904
225.726
225.518
225.277
225.002
224.688
224.334
223.935
223.489
222.994
222.45
221.849
221.194
220.482
219.717
218.893
218.016
217.08
216.088
215.027
213.903
212.719
211.495
210.245
208.955
207.618
206.208
204.786
203.381
202.007
200.591
199.202
197.708
196.37
195.179
194.156
193.293
191.41
223
223
223
223
223
223
223
223
223
223
223
223
223.005
223.102
223.659
224.72
225.506
225.782
225.769
225.635
225.369
225.122
224.91
224.718
224.538
224.373
224.221
224.079
223.945
223.813
223.697
223.631
223.628
223.747
224.044
224.278
224.36
224.373
224.375
224.388
224.416
224.448
224.482
224.523
224.572
224.627
224.688
224.753
224.823
224.898
224.976
225.056
225.141
225.23
225.324
225.419
225.516
225.613
225.711
225.81
225.912
226.017
226.123
226.229
226.332
226.433
226.529
226.621
226.71
226.795
226.875
226.95
227.018
227.079
227.13
227.17
227.198
227.215
227.22
227.206
227.177
227.129
227.057
226.965
226.847
226.702
226.527
226.321
226.08
225.801
225.483
225.122
224.718
224.268
223.769
223.222
222.623
221.968
221.251
220.483
219.659
218.779
217.83
216.815
215.735
214.606
213.436
212.226
210.959
209.616
208.201
206.763
205.333
203.909
202.462
200.918
199.373
197.893
196.559
195.391
192.956
223
223
223
223
223
223
223
223
223
223
223
223
223.002
223.045
223.414
224.402
225.376
225.786
225.837
225.764
225.516
225.256
225.04
224.852
224.679
224.517
224.364
224.221
224.086
223.954
223.835
223.758
223.742
223.829
224.126
224.409
224.527
224.551
224.557
224.572
224.604
224.641
224.681
224.726
224.78
224.841
224.907
224.979
225.056
225.139
225.225
225.314
225.408
225.506
225.609
225.715
225.823
225.932
226.041
226.151
226.265
226.382
226.501
226.622
226.741
226.858
226.972
227.083
227.19
227.296
227.398
227.496
227.59
227.677
227.756
227.827
227.889
227.94
227.979
228.006
228.019
228.019
227.996
227.957
227.895
227.808
227.697
227.557
227.387
227.185
226.948
226.674
226.361
226.005
225.605
225.16
224.663
224.109
223.497
222.833
222.115
221.342
220.504
219.606
218.645
217.626
216.549
215.426
214.251
213.023
211.731
210.383
209.017
207.658
206.29
204.893
203.485
202.054
200.785
199.724
197.53
223
223
223
223
223
223
223
223
223
223
223
223
223
223.017
223.235
224.074
225.175
225.765
225.909
225.862
225.648
225.387
225.171
224.99
224.82
224.655
224.497
224.351
224.216
224.087
223.966
223.881
223.855
223.915
224.199
224.527
224.686
224.727
224.738
224.755
224.79
224.833
224.876
224.926
224.984
225.051
225.124
225.202
225.286
225.375
225.468
225.566
225.667
225.774
225.886
226.001
226.119
226.238
226.358
226.479
226.604
226.732
226.863
226.997
227.13
227.262
227.392
227.52
227.646
227.77
227.892
228.012
228.129
228.24
228.347
228.446
228.538
228.622
228.696
228.76
228.812
228.851
228.875
228.884
228.873
228.842
228.79
228.711
228.608
228.477
228.314
228.118
227.887
227.615
227.302
226.945
226.539
226.083
225.574
225.015
224.4
223.733
223.007
222.224
221.373
220.454
219.465
218.423
217.332
216.196
214.992
213.72
212.38
211.006
209.617
208.203
206.763
205.307
203.815
202.517
199.981
223
223
223
223
223
223
223
223
223
223
223
223
223
223.006
223.121
223.769
224.92
225.718
225.951
225.93
225.771
225.521
225.308
225.125
224.949
224.778
224.617
224.472
224.339
224.213
224.094
224.002
223.966
224.006
224.268
224.634
224.839
224.901
224.918
224.937
224.975
225.022
225.07
225.124
225.187
225.259
225.337
225.422
225.511
225.607
225.707
225.812
225.92
226.034
226.154
226.278
226.405
226.534
226.664
226.795
226.929
227.067
227.209
227.355
227.501
227.647
227.792
227.936
228.078
228.219
228.359
228.499
228.636
228.77
228.9
229.025
229.144
229.257
229.362
229.459
229.547
229.624
229.689
229.74
229.776
229.795
229.798
229.777
229.736
229.669
229.575
229.451
229.296
229.106
228.88
228.614
228.307
227.958
227.562
227.116
226.617
226.068
225.464
224.803
224.077
223.285
222.43
221.52
220.556
219.541
218.461
217.317
216.095
214.818
213.496
212.165
210.819
209.495
208.099
206.834
204.395
223
223
223
223
223
223
223
223
223
223
223
223
223
223.002
223.057
223.516
224.633
225.626
225.959
225.99
225.892
225.661
225.438
225.243
225.061
224.889
224.731
224.589
224.459
224.335
224.216
224.119
224.075
224.098
224.335
224.733
224.986
225.074
225.098
225.119
225.158
225.209
225.262
225.319
225.387
225.464
225.548
225.638
225.734
225.834
225.941
226.051
226.166
226.287
226.413
226.545
226.68
226.817
226.955
227.095
227.238
227.385
227.537
227.693
227.851
228.01
228.169
228.326
228.483
228.64
228.797
228.954
229.11
229.264
229.416
229.564
229.708
229.846
229.98
230.107
230.227
230.338
230.44
230.531
230.61
230.674
230.723
230.755
230.769
230.764
230.732
230.678
230.595
230.483
230.34
230.162
229.948
229.695
229.397
229.052
228.656
228.211
227.711
227.157
226.543
225.872
225.14
224.345
223.488
222.571
221.594
220.557
219.448
218.281
217.049
215.791
214.498
213.21
211.908
210.642
208.403
223
223
223
223
223
223
223
223
223
223
223
223
223
223.001
223.026
223.327
224.339
225.484
225.944
226.064
226.004
225.785
225.547
225.345
225.164
224.995
224.842
224.704
224.573
224.448
224.328
224.228
224.178
224.191
224.404
224.829
225.131
225.245
225.278
225.3
225.34
225.394
225.45
225.512
225.583
225.665
225.755
225.85
225.95
226.056
226.168
226.284
226.404
226.53
226.662
226.8
226.942
227.086
227.232
227.38
227.531
227.687
227.847
228.013
228.182
228.352
228.523
228.693
228.863
229.034
229.206
229.378
229.551
229.723
229.894
230.063
230.229
230.391
230.549
230.702
230.851
230.993
231.128
231.254
231.37
231.475
231.568
231.647
231.71
231.756
231.784
231.793
231.776
231.735
231.667
231.566
231.434
231.266
231.058
230.808
230.514
230.174
229.784
229.346
228.855
228.311
227.703
227.032
226.297
225.5
224.647
223.735
222.759
221.718
220.599
219.432
218.202
216.983
215.702
214.452
212.411
223
223
223
223
223
223
223
223
223
223
223
223
223
223
223.011
223.201
224.067
225.308
225.929
226.129
226.085
225.888
225.642
225.437
225.262
225.1
224.951
224.81
224.675
224.548
224.429
224.329
224.276
224.283
224.479
224.925
225.274
225.414
225.455
225.478
225.517
225.575
225.634
225.698
225.773
225.86
225.955
226.055
226.161
226.271
226.387
226.508
226.634
226.764
226.901
227.044
227.192
227.342
227.495
227.65
227.808
227.971
228.14
228.314
228.492
228.672
228.853
229.035
229.217
229.401
229.585
229.771
229.959
230.147
230.335
230.522
230.707
230.889
231.069
231.246
231.42
231.589
231.753
231.91
232.06
232.201
232.332
232.453
232.561
232.656
232.734
232.796
232.838
232.86
232.863
232.833
232.781
232.695
232.577
232.425
232.234
232.001
231.724
231.402
231.029
230.602
230.117
229.575
228.971
228.307
227.585
226.8
225.957
225.047
224.074
223.046
221.961
220.858
219.687
218.495
216.653
223
223
223
223
223
223
223
223
223
223
223
223
223
223
223.005
223.122
223.837
225.119
225.911
226.176
226.144
225.974
225.727
225.526
225.358
225.199
225.046
224.9
224.763
224.635
224.52
224.423
224.371
224.376
224.56
225.027
225.416
225.578
225.625
225.648
225.688
225.747
225.81
225.876
225.954
226.045
226.145
226.251
226.361
226.476
226.597
226.723
226.853
226.988
227.129
227.276
227.428
227.584
227.743
227.904
228.069
228.238
228.413
228.595
228.781
228.97
229.161
229.353
229.546
229.74
229.936
230.134
230.335
230.537
230.739
230.942
231.144
231.344
231.544
231.741
231.936
232.129
232.317
232.502
232.68
232.853
233.018
233.175
233.322
233.458
233.583
233.693
233.789
233.866
233.926
233.965
233.983
233.977
233.937
233.872
233.77
233.631
233.451
233.228
232.957
232.637
232.265
231.84
231.354
230.81
230.201
229.53
228.798
227.998
227.14
226.213
225.238
224.217
223.159
222.001
220.39
223
223
223
223
223
223
223
223
223
223
223
223
223
223
223.002
223.076
223.66
224.938
225.883
226.209
226.19
226.049
225.809
225.611
225.446
225.284
225.125
224.975
224.837
224.713
224.604
224.512
224.462
224.467
224.646
225.133
225.555
225.734
225.784
225.806
225.845
225.908
225.973
226.043
226.124
226.218
226.323
226.434
226.549
226.669
226.795
226.925
227.06
227.199
227.344
227.495
227.652
227.812
227.976
228.143
228.313
228.488
228.669
228.857
229.051
229.248
229.447
229.647
229.849
230.053
230.259
230.468
230.679
230.893
231.108
231.324
231.541
231.757
231.972
232.187
232.401
232.614
232.824
233.031
233.235
233.434
233.628
233.816
233.997
234.169
234.333
234.486
234.627
234.755
234.868
234.965
235.042
235.099
235.133
235.145
235.126
235.075
234.991
234.868
234.707
234.503
234.253
233.953
233.598
233.188
232.714
232.181
231.584
230.922
230.201
229.413
228.577
227.683
226.747
225.689
224.226
223
223
223
223
223
223
223
223
223
223
223
223
223
223
223.001
223.051
223.534
224.785
225.847
226.232
226.23
226.116
225.883
225.688
225.519
225.351
225.188
225.037
224.903
224.785
224.683
224.596
224.547
224.552
224.734
225.246
225.691
225.876
225.926
225.947
225.988
226.054
226.124
226.196
226.28
226.378
226.488
226.604
226.725
226.849
226.979
227.114
227.253
227.396
227.545
227.7
227.861
228.026
228.194
228.366
228.541
228.721
228.907
229.101
229.3
229.504
229.71
229.919
230.128
230.34
230.555
230.773
230.994
231.218
231.444
231.671
231.9
232.129
232.359
232.588
232.818
233.047
233.276
233.502
233.727
233.949
234.167
234.381
234.59
234.793
234.99
235.179
235.359
235.529
235.688
235.834
235.966
236.082
236.179
236.257
236.312
236.343
236.351
236.32
236.263
236.164
236.022
235.837
235.602
235.315
234.968
234.564
234.09
233.553
232.945
232.269
231.536
230.742
229.911
228.966
227.662
223
223
223
223
223
223
223
223
223
223
223
223
223
223
223.001
223.038
223.452
224.672
225.816
226.248
226.27
226.172
225.947
225.75
225.575
225.402
225.237
225.089
224.961
224.85
224.755
224.671
224.623
224.63
224.826
225.367
225.824
226.008
226.052
226.072
226.115
226.186
226.261
226.337
226.425
226.527
226.641
226.762
226.887
227.016
227.151
227.29
227.434
227.581
227.733
227.891
228.056
228.225
228.398
228.574
228.753
228.937
229.128
229.327
229.532
229.741
229.954
230.168
230.385
230.604
230.826
231.051
231.28
231.513
231.748
231.985
232.224
232.464
232.705
232.947
233.19
233.433
233.677
233.919
234.161
234.402
234.64
234.876
235.108
235.337
235.561
235.78
235.992
236.197
236.394
236.582
236.759
236.925
237.076
237.213
237.332
237.43
237.508
237.559
237.586
237.585
237.535
237.459
237.334
237.164
236.942
236.668
236.329
235.934
235.467
234.937
234.338
233.669
232.946
232.1
230.924
223
223
223
223
223
223
223
223
223
223
223
223
223
223
223.001
223.033
223.411
224.608
225.804
226.266
226.308
226.217
225.996
225.796
225.617
225.441
225.277
225.133
225.01
224.906
224.817
224.735
224.687
224.699
224.925
225.501
225.959
226.134
226.168
226.185
226.231
226.307
226.387
226.467
226.559
226.666
226.784
226.909
227.038
227.171
227.31
227.453
227.6
227.751
227.907
228.069
228.237
228.41
228.586
228.766
228.949
229.138
229.333
229.535
229.745
229.959
230.177
230.397
230.619
230.844
231.072
231.304
231.54
231.78
232.022
232.268
232.515
232.764
233.015
233.267
233.521
233.776
234.031
234.287
234.544
234.799
235.054
235.307
235.559
235.808
236.054
236.297
236.536
236.77
236.998
237.219
237.433
237.639
237.835
238.019
238.191
238.349
238.49
238.614
238.715
238.796
238.848
238.875
238.871
238.819
238.732
238.593
238.396
238.142
237.814
237.426
236.953
236.41
235.789
235.048
233.996
223
223
223
223
223
223
223
223
223
223
223
223
223
223
223.001
223.031
223.402
224.595
225.812
226.291
226.342
226.25
226.03
225.829
225.647
225.47
225.308
225.167
225.048
224.949
224.862
224.784
224.739
224.762
225.041
225.653
226.099
226.258
226.281
226.294
226.341
226.421
226.504
226.588
226.685
226.797
226.919
227.048
227.18
227.317
227.458
227.605
227.755
227.909
228.068
228.233
228.404
228.581
228.761
228.944
229.131
229.323
229.522
229.729
229.942
230.161
230.383
230.608
230.835
231.065
231.298
231.535
231.777
232.023
232.272
232.523
232.778
233.035
233.293
233.554
233.816
234.08
234.346
234.613
234.88
235.148
235.416
235.684
235.95
236.216
236.48
236.742
237.001
237.258
237.511
237.759
238.003
238.241
238.472
238.695
238.91
239.115
239.309
239.49
239.656
239.805
239.935
240.04
240.122
240.172
240.194
240.177
240.11
240.001
239.831
239.608
239.302
238.929
238.436
237.84
236.93
223
223
223
223
223
223
223
223
223
223
223
223
223
223
223.001
223.032
223.413
224.624
225.845
226.321
226.37
226.27
226.049
225.851
225.669
225.491
225.33
225.191
225.075
224.976
224.89
224.818
224.781
224.825
225.181
225.827
226.245
226.381
226.393
226.402
226.45
226.531
226.616
226.703
226.804
226.921
227.047
227.179
227.314
227.453
227.597
227.746
227.899
228.055
228.217
228.385
228.559
228.738
228.922
229.108
229.299
229.494
229.697
229.907
230.124
230.347
230.573
230.802
231.033
231.267
231.505
231.747
231.994
232.244
232.499
232.756
233.017
233.279
233.545
233.812
234.082
234.353
234.627
234.902
235.179
235.457
235.735
236.014
236.293
236.571
236.849
237.126
237.402
237.676
237.948
238.218
238.484
238.747
239.005
239.258
239.506
239.747
239.98
240.204
240.418
240.62
240.81
240.984
241.141
241.278
241.392
241.481
241.537
241.562
241.545
241.479
241.36
241.178
240.873
240.513
239.838
223
223
223
223
223
223
223
223
223
223
223
223
223
223
223.001
223.038
223.455
224.709
225.907
226.356
226.393
226.277
226.054
225.861
225.682
225.506
225.346
225.207
225.089
224.989
224.902
224.839
224.815
224.895
225.351
226.019
226.393
226.5
226.503
226.509
226.559
226.641
226.726
226.813
226.918
227.039
227.168
227.303
227.44
227.58
227.726
227.877
228.032
228.19
228.354
228.525
228.702
228.884
229.071
229.26
229.454
229.652
229.858
230.072
230.293
230.519
230.748
230.981
231.216
231.454
231.696
231.942
232.192
232.448
232.706
232.969
233.234
233.502
233.773
234.046
234.322
234.6
234.88
235.163
235.447
235.732
236.019
236.307
236.595
236.884
237.173
237.462
237.751
238.038
238.325
238.611
238.894
239.176
239.454
239.73
240.002
240.271
240.534
240.791
241.042
241.286
241.521
241.746
241.96
242.161
242.347
242.515
242.661
242.782
242.878
242.944
242.983
242.972
242.893
242.784
242.446
223
223
223
223
223
223
223
223
223
223
223
223
223
223
223.001
223.049
223.534
224.837
225.984
226.392
226.408
226.273
226.046
225.859
225.687
225.515
225.355
225.215
225.094
224.99
224.902
224.848
224.842
224.984
225.55
226.22
226.536
226.609
226.605
226.611
226.664
226.748
226.831
226.918
227.026
227.149
227.281
227.418
227.556
227.698
227.846
227.999
228.155
228.316
228.482
228.655
228.835
229.02
229.208
229.401
229.598
229.799
230.008
230.226
230.45
230.679
230.912
231.147
231.386
231.627
231.872
232.122
232.377
232.636
232.899
233.165
233.435
233.707
233.983
234.261
234.541
234.825
235.111
235.399
235.689
235.981
236.275
236.57
236.866
237.163
237.46
237.758
238.057
238.355
238.653
238.95
239.247
239.542
239.836
240.127
240.417
240.704
240.988
241.268
241.543
241.813
242.078
242.337
242.588
242.831
243.065
243.287
243.497
243.691
243.866
244.02
244.162
244.288
244.391
244.428
244.403
223
223
223
223
223
223
223
223
223
223
223
223
223
223
223.002
223.07
223.649
225.003
226.07
226.427
226.419
226.259
226.028
225.844
225.679
225.514
225.358
225.218
225.095
224.986
224.896
224.849
224.866
225.107
225.778
226.415
226.668
226.705
226.696
226.702
226.76
226.846
226.929
227.017
227.128
227.253
227.386
227.523
227.663
227.807
227.957
228.111
228.269
228.431
228.6
228.775
228.957
229.144
229.335
229.53
229.73
229.935
230.147
230.367
230.595
230.827
231.063
231.301
231.542
231.787
232.036
232.289
232.547
232.809
233.076
233.346
233.62
233.896
234.176
234.458
234.743
235.031
235.322
235.615
235.91
236.207
236.507
236.807
237.109
237.412
237.716
238.021
238.327
238.633
238.939
239.244
239.55
239.854
240.158
240.46
240.761
241.06
241.356
241.65
241.94
242.227
242.509
242.787
243.059
243.325
243.584
243.834
244.072
244.297
244.506
244.701
244.886
245.063
245.227
245.341
245.45
223
223
223
223
223
223
223
223
223
223
223
223
223
223
223.004
223.105
223.805
225.194
226.153
226.457
226.426
226.235
226
225.818
225.658
225.502
225.352
225.215
225.091
224.979
224.892
224.852
224.9
225.275
226.025
226.587
226.782
226.788
226.771
226.78
226.844
226.933
227.016
227.106
227.22
227.347
227.482
227.62
227.761
227.907
228.058
228.215
228.374
228.538
228.709
228.886
229.07
229.26
229.453
229.651
229.852
230.06
230.275
230.499
230.729
230.964
231.202
231.443
231.687
231.934
232.186
232.442
232.704
232.969
233.239
233.512
233.789
234.069
234.352
234.638
234.927
235.218
235.513
235.81
236.109
236.411
236.714
237.019
237.326
237.634
237.943
238.252
238.563
238.874
239.185
239.495
239.806
240.116
240.425
240.732
241.038
241.342
241.644
241.942
242.238
242.531
242.818
243.1
243.374
243.643
243.906
244.159
244.402
244.631
244.846
245.043
245.223
245.396
245.545
245.654
245.737
223
223
223
223
223
223
223
223
223
223
223
223
223
223
223.007
223.159
224.002
225.4
226.228
226.475
226.426
226.206
225.968
225.786
225.627
225.476
225.335
225.203
225.081
224.969
224.889
224.863
224.968
225.496
226.279
226.732
226.868
226.859
226.833
226.846
226.918
227.01
227.093
227.187
227.305
227.434
227.569
227.707
227.85
227.997
228.151
228.309
228.47
228.636
228.808
228.988
229.174
229.365
229.561
229.761
229.965
230.175
230.393
230.62
230.853
231.09
231.331
231.574
231.82
232.07
232.324
232.584
232.848
233.116
233.389
233.665
233.944
234.227
234.513
234.801
235.093
235.388
235.685
235.985
236.287
236.592
236.898
237.206
237.515
237.826
238.137
238.45
238.763
239.076
239.389
239.701
240.013
240.324
240.634
240.941
241.247
241.55
241.85
242.146
242.436
242.723
243.005
243.28
243.55
243.809
244.053
244.283
244.496
244.689
244.862
245.017
245.158
245.288
245.388
245.447
245.454
223
223
223
223
223
223
223
223
223
223