/*--------------------------------*- C++ -*----------------------------------*\
| =========                 |                                                 |
| \\      /  F ield         | OpenFOAM: The Open Source CFD Toolbox           |
|  \\    /   O peration     | Version:  2412                                  |
|   \\  /    A nd           | Website:  www.openfoam.com                      |
|    \\/     M anipulation  |                                                 |
\*---------------------------------------------------------------------------*/
FoamFile
{
    version     2.0;
    format      ascii;
    arch        "LSB;label=32;scalar=64";
    class       volScalarField;
    location    "0.066";
    object      p;
}
// * * * * * * * * * * * * * * * * * * * * * * * * * * * * * * * * * * * * * //

dimensions      [1 -1 -2 0 0 0 0];

internalField   nonuniform List<scalar> 
78650
(
2829.3
2808.93
2807.86
2804.77
2807.54
2815.71
2826.91
2838.91
2850.33
2859.82
2865.92
2868.56
2868.79
2868.06
2866.53
2864.44
2861.58
2857.45
2851.81
2844.98
2837.7
2830.44
2823.44
2816.87
2810.69
2804.77
2799.07
2793.6
2788.39
2783.48
2778.85
2774.49
2770.36
2766.44
2762.73
2759.24
2755.97
2752.92
2750.06
2747.37
2744.83
2742.42
2740.14
2737.97
2735.91
2733.96
2732.11
2730.36
2728.72
2727.18
2725.75
2724.43
2723.2
2722.07
2721.01
2720.03
2719.1
2718.2
2717.33
2716.45
2715.56
2714.62
2713.59
2712.45
2711.16
2709.69
2708
2706.05
2703.79
2701.19
2698.18
2694.7
2690.66
2686.02
2680.7
2674.61
2667.66
2659.74
2650.72
2640.5
2628.93
2615.91
2601.31
2585.03
2566.88
2546.71
2524.37
2499.67
2472.53
2442.77
2410.37
2374.99
2336.7
2295.23
2250.84
2203.6
2153.11
2099.06
2041.55
1982.63
1923.65
1864.36
1803.82
1742.87
1681.43
1619.52
1558.42
1498.21
1441.44
1388.13
1340.42
1297.42
1257.56
1221.53
1188.7
1157.04
1129.13
1103.35
1080.98
1061.9
1024.13
2826.15
2808.21
2806.53
2799.39
2795.89
2800.24
2811.1
2825.62
2840.43
2853.25
2862.26
2866.91
2868.11
2867.95
2866.72
2864.74
2861.98
2858.01
2852.55
2845.86
2838.65
2831.37
2824.32
2817.75
2811.6
2805.75
2800.17
2794.85
2789.77
2784.97
2780.44
2776.2
2772.2
2768.42
2764.86
2761.53
2758.43
2755.55
2752.86
2750.35
2747.99
2745.77
2743.68
2741.7
2739.85
2738.1
2736.46
2734.94
2733.52
2732.21
2731.02
2729.93
2728.96
2728.09
2727.3
2726.6
2725.97
2725.39
2724.84
2724.31
2723.78
2723.23
2722.62
2721.92
2721.11
2720.15
2719
2717.63
2716.01
2714.08
2711.8
2709.11
2705.93
2702.22
2697.9
2692.9
2687.13
2680.49
2672.87
2664.16
2654.24
2642.99
2630.27
2615.97
2599.96
2582.09
2562.24
2540.19
2515.81
2488.88
2459.3
2426.67
2391.04
2352.18
2310.3
2265.4
2217.25
2166.4
2112.66
2055.53
1996.09
1934.82
1874.72
1813.25
1753.27
1691.9
1631.91
1570.6
1512.78
1456
1401.1
1350.74
1304.59
1262.69
1226.04
1192.06
1162.77
1135.97
1110.83
1087.81
1043.53
2823.56
2808.14
2806.92
2799.17
2790.39
2788.53
2794.68
2808.45
2825.88
2842.8
2855.78
2863.43
2866.7
2867.37
2866.62
2864.93
2862.36
2858.54
2853.26
2846.76
2839.63
2832.33
2825.26
2818.66
2812.51
2806.72
2801.27
2796.09
2791.17
2786.48
2782.08
2777.94
2774.07
2770.43
2767.02
2763.85
2760.91
2758.2
2755.7
2753.37
2751.2
2749.17
2747.27
2745.5
2743.84
2742.3
2740.88
2739.57
2738.38
2737.3
2736.35
2735.51
2734.79
2734.18
2733.67
2733.26
2732.92
2732.65
2732.44
2732.25
2732.09
2731.92
2731.73
2731.47
2731.13
2730.67
2730.06
2729.26
2728.25
2726.98
2725.41
2723.49
2721.14
2718.32
2714.96
2710.99
2706.35
2700.91
2694.6
2687.3
2678.9
2669.28
2658.31
2645.89
2631.88
2616.17
2598.56
2578.86
2556.95
2532.63
2505.78
2476.07
2443.45
2407.7
2369.05
2327.49
2282.7
2234.82
2183.37
2128.62
2070.94
2010.16
1948.36
1884.88
1822.57
1759.43
1699.09
1637.19
1577.18
1518.47
1459.92
1404.18
1351.79
1302.38
1257.19
1216.02
1181.27
1150.99
1125.61
1104.62
1060.41
2820.8
2808.23
2807.72
2800.77
2789.82
2782.3
2782.29
2790.41
2806.29
2825.95
2844.12
2856.64
2863.15
2865.67
2865.83
2864.87
2862.54
2858.94
2853.88
2847.61
2840.63
2833.38
2826.31
2819.68
2813.5
2807.73
2802.37
2797.35
2792.58
2788.04
2783.77
2779.76
2776
2772.5
2769.23
2766.22
2763.45
2760.92
2758.6
2756.46
2754.48
2752.65
2750.95
2749.37
2747.92
2746.59
2745.37
2744.28
2743.31
2742.46
2741.74
2741.14
2740.67
2740.32
2740.07
2739.95
2739.91
2739.94
2740.04
2740.19
2740.38
2740.59
2740.8
2740.96
2741.07
2741.1
2741
2740.75
2740.34
2739.71
2738.81
2737.63
2736.07
2734.1
2731.67
2728.7
2725.14
2720.88
2715.85
2709.93
2703.04
2695.05
2685.83
2675.3
2663.3
2649.72
2634.38
2617.12
2597.82
2576.29
2552.37
2525.73
2496.31
2463.82
2428.31
2389.52
2347.34
2302.31
2254.04
2203.08
2148.83
2091
2029.57
1966.17
1899.98
1834.75
1767.51
1704.48
1640.58
1580.48
1522.78
1466.17
1411.85
1359.46
1308.68
1261.32
1218.05
1178.5
1145.47
1117.78
1062.08
2817.69
2808.34
2808.59
2803.29
2791.69
2781.31
2775.89
2777.59
2786.66
2803.92
2825.24
2843.92
2855.46
2861.58
2863.72
2863.76
2862.26
2859.09
2854.39
2848.4
2841.62
2834.43
2827.39
2820.73
2814.5
2808.75
2803.48
2798.59
2793.98
2789.62
2785.5
2781.63
2778.01
2774.63
2771.52
2768.66
2766.05
2763.7
2761.57
2759.63
2757.85
2756.23
2754.73
2753.36
2752.11
2750.99
2749.98
2749.11
2748.36
2747.74
2747.25
2746.89
2746.67
2746.59
2746.6
2746.75
2747
2747.34
2747.76
2748.24
2748.78
2749.36
2749.96
2750.55
2751.1
2751.59
2752
2752.29
2752.44
2752.43
2752.19
2751.72
2750.95
2749.79
2748.24
2746.22
2743.69
2740.55
2736.71
2732.1
2726.61
2720.13
2712.55
2703.75
2693.61
2682.03
2668.85
2653.93
2637.12
2618.21
2597.05
2573.31
2546.92
2517.58
2485.39
2450.11
2411.72
2370.17
2324.86
2276.6
2224.64
2169.65
2111.54
2050.98
1986.6
1921.82
1852.14
1783.39
1714.32
1645.63
1581.85
1520.41
1462.74
1409.39
1358.12
1311.82
1269.23
1228.44
1190.88
1157.73
1093.64
2814.01
2808.21
2809.32
2806.1
2795.52
2783.1
2775.05
2771.46
2773.87
2783.16
2801.02
2822.96
2841.43
2853.18
2859.08
2861.06
2860.82
2858.67
2854.47
2848.85
2842.45
2835.51
2828.59
2821.91
2815.63
2809.86
2804.63
2799.83
2795.38
2791.2
2787.26
2783.56
2780.1
2776.86
2773.88
2771.17
2768.73
2766.55
2764.61
2762.88
2761.31
2759.89
2758.61
2757.45
2756.41
2755.5
2754.71
2754.05
2753.53
2753.13
2752.87
2752.76
2752.77
2752.94
2753.24
2753.64
2754.18
2754.82
2755.55
2756.36
2757.24
2758.18
2759.16
2760.15
2761.13
2762.08
2762.98
2763.8
2764.5
2765.06
2765.47
2765.66
2765.63
2765.27
2764.58
2763.48
2761.94
2759.87
2757.2
2753.86
2749.73
2744.75
2738.78
2731.73
2723.47
2713.9
2702.88
2690.25
2675.86
2659.5
2641.02
2620.21
2596.98
2570.98
2542.08
2509.92
2474.54
2435.9
2393.66
2348.27
2298.79
2246.37
2190.44
2131.07
2069.94
2006.23
1941.48
1872.44
1805.61
1733.3
1663.8
1592.67
1523.73
1460.28
1399.99
1346.03
1298.34
1254.55
1216.73
1185.62
1123.15
2809.52
2807.81
2810.11
2808.68
2800.36
2787.3
2776.58
2770.84
2768.78
2770.97
2780.11
2797.74
2819.04
2836.91
2848.38
2854.68
2857.04
2856.52
2853.72
2848.85
2842.83
2836.25
2829.57
2823.03
2816.79
2811.01
2805.77
2801.04
2796.71
2792.71
2788.98
2785.5
2782.23
2779.15
2776.31
2773.75
2771.47
2769.46
2767.71
2766.19
2764.83
2763.64
2762.58
2761.64
2760.83
2760.13
2759.56
2759.13
2758.82
2758.66
2758.62
2758.75
2759.02
2759.43
2759.98
2760.67
2761.49
2762.42
2763.46
2764.6
2765.82
2767.11
2768.47
2769.86
2771.26
2772.66
2774.03
2775.35
2776.59
2777.74
2778.76
2779.6
2780.25
2780.66
2780.79
2780.57
2779.98
2778.95
2777.37
2775.21
2772.36
2768.76
2764.29
2758.85
2752.32
2744.6
2735.57
2725.08
2712.99
2699.14
2683.39
2665.53
2645.37
2622.53
2596.91
2568.25
2536.56
2501.55
2462.88
2420.77
2374.53
2325.11
2271.41
2214.48
2154.02
2089.09
2023.98
1955
1888.82
1819.74
1751
1682.62
1612.62
1546.49
1479.62
1416.42
1357.15
1301.58
1252.17
1210.79
1129.91
2804.46
2807.47
2811.04
2810.57
2804.91
2793.04
2780.61
2772.15
2768.25
2767.48
2769.42
2778
2794.2
2813.51
2830.71
2842.88
2849.35
2851.64
2851.05
2847.82
2842.6
2836.44
2830.08
2823.85
2817.87
2812.24
2807.1
2802.4
2798.11
2794.21
2790.66
2787.4
2784.36
2781.47
2778.81
2776.4
2774.27
2772.43
2770.87
2769.55
2768.41
2767.45
2766.61
2765.91
2765.32
2764.86
2764.51
2764.29
2764.23
2764.28
2764.49
2764.84
2765.34
2766
2766.82
2767.77
2768.87
2770.09
2771.44
2772.89
2774.43
2776.08
2777.8
2779.57
2781.38
2783.21
2785.04
2786.85
2788.61
2790.31
2791.91
2793.4
2794.74
2795.87
2796.76
2797.37
2797.67
2797.65
2797.14
2796.15
2794.54
2792.28
2789.27
2785.42
2780.61
2774.74
2767.69
2759.35
2749.56
2738.15
2724.99
2709.85
2692.59
2672.84
2650.5
2625.25
2597.07
2565.66
2530.87
2492.75
2450.83
2405.65
2355.9
2302.65
2245.03
2183.76
2117.98
2048.94
1974.79
1902.63
1826.84
1755.92
1685.02
1616.04
1549.37
1484.93
1424.52
1368.51
1317.85
1273.19
1186.68
2800.2
2806.58
2811.13
2811.74
2808.56
2798.78
2786.23
2775.72
2769.47
2767.23
2767.39
2769.61
2777.15
2790.68
2807.22
2823.1
2835.45
2842.61
2844.95
2844.13
2840.81
2835.85
2830.08
2823.98
2818.22
2812.93
2808.11
2803.63
2799.48
2795.69
2792.3
2789.24
2786.41
2783.75
2781.29
2779.08
2777.12
2775.44
2774.06
2772.94
2772.03
2771.3
2770.7
2770.24
2769.89
2769.65
2769.55
2769.56
2769.72
2770.02
2770.45
2771.03
2771.78
2772.69
2773.75
2774.97
2776.34
2777.86
2779.5
2781.26
2783.14
2785.12
2787.2
2789.35
2791.56
2793.81
2796.09
2798.37
2800.64
2802.87
2805.04
2807.14
2809.12
2810.95
2812.6
2814.03
2815.17
2816.02
2816.51
2816.62
2816.19
2815.21
2813.56
2811.17
2807.93
2803.76
2798.55
2792.18
2784.52
2775.41
2764.73
2752.28
2737.9
2721.28
2702.31
2680.69
2656.31
2628.81
2598.06
2563.93
2525.93
2484.31
2438.22
2388.83
2334.81
2277.22
2215.78
2150.97
2081.06
2008.87
1931.65
1852.39
1775.23
1693.93
1618.89
1543.07
1473.63
1410.54
1355.46
1309.92
1216.32
2796.91
2804.66
2810.58
2812.67
2811.01
2803.59
2792.02
2781.07
2772.9
2768.56
2767.53
2768.4
2771.41
2777.64
2787.53
2800.84
2814.95
2826.6
2833.52
2836
2835.68
2833.19
2828.8
2823.43
2818.07
2813.08
2808.58
2804.43
2800.58
2797.11
2793.98
2791.1
2788.44
2785.97
2783.72
2781.72
2779.97
2778.47
2777.28
2776.35
2775.66
2775.16
2774.81
2774.58
2774.49
2774.49
2774.63
2774.88
2775.26
2775.79
2776.46
2777.28
2778.27
2779.42
2780.73
2782.21
2783.85
2785.64
2787.58
2789.64
2791.83
2794.14
2796.57
2799.09
2801.68
2804.34
2807.05
2809.78
2812.53
2815.28
2818
2820.67
2823.27
2825.77
2828.13
2830.32
2832.3
2834.05
2835.49
2836.58
2837.27
2837.51
2837.2
2836.25
2834.58
2832.07
2828.66
2824.22
2818.65
2811.8
2803.52
2793.63
2782
2768.36
2752.6
2734.34
2713.44
2689.54
2662.55
2632.2
2598.1
2560.26
2517.95
2471.97
2421.18
2366.73
2307.44
2244.35
2178.23
2106.76
2035.05
1958.4
1884.53
1804.2
1726.83
1646.75
1568.28
1496.17
1427.08
1367.9
1251.62
2794.31
2802.09
2809.66
2813.06
2812.45
2807.59
2797.5
2786.94
2778.03
2771.82
2769.09
2769
2770.76
2774.43
2778.97
2785.32
2794.77
2805.96
2816.1
2822.95
2826.13
2826.44
2824.48
2821.33
2817.21
2812.83
2808.54
2804.47
2800.85
2797.81
2795.2
2792.74
2790.39
2788.15
2786.12
2784.31
2782.74
2781.45
2780.46
2779.74
2779.27
2779
2778.91
2778.92
2779.09
2779.35
2779.73
2780.22
2780.84
2781.6
2782.51
2783.58
2784.8
2786.19
2787.76
2789.49
2791.4
2793.46
2795.68
2798.05
2800.54
2803.18
2805.94
2808.82
2811.79
2814.84
2817.96
2821.14
2824.36
2827.6
2830.84
2834.07
2837.27
2840.41
2843.45
2846.37
2849.13
2851.7
2854.05
2856.13
2857.86
2859.18
2860.04
2860.41
2860.2
2859.25
2857.53
2854.85
2851.22
2846.45
2840.44
2833.03
2824.07
2813.35
2800.69
2785.74
2768.36
2748.21
2725.19
2698.92
2669.11
2635.67
2598.03
2556.55
2510.23
2460.01
2404.42
2344.17
2278.6
2208.96
2135.4
2056.39
1973.75
1892.19
1810.15
1732.06
1652.75
1579.42
1509.47
1448.33
1330.31
2792.43
2799.28
2808.11
2813.1
2813.41
2810.86
2802.47
2792.45
2783.6
2776.57
2772.23
2770.89
2771.55
2774.18
2777.75
2780.84
2783.92
2789.48
2796.64
2804.19
2810.57
2814.8
2816.62
2816.2
2814.09
2811.01
2807.37
2803.76
2800.68
2797.95
2795.68
2793.75
2791.96
2790.2
2788.48
2786.86
2785.46
2784.37
2783.59
2783.07
2782.84
2782.81
2782.96
2783.25
2783.65
2784.17
2784.8
2785.54
2786.4
2787.41
2788.55
2789.85
2791.31
2792.95
2794.76
2796.75
2798.91
2801.24
2803.74
2806.39
2809.19
2812.13
2815.21
2818.43
2821.76
2825.2
2828.71
2832.31
2835.97
2839.68
2843.43
2847.19
2850.95
2854.69
2858.38
2861.99
2865.49
2868.86
2872.06
2875.05
2877.78
2880.2
2882.24
2883.83
2884.91
2885.44
2885.4
2884.47
2882.75
2879.98
2876.15
2871.06
2864.61
2856.57
2846.81
2835.01
2821.04
2804.57
2785.47
2763.37
2738.05
2709.3
2676.62
2640.11
2598.91
2553.58
2502.78
2447.61
2387.15
2322.18
2252.16
2177.44
2095.07
2011.19
1921.6
1832.49
1737.35
1651.34
1569.92
1499.99
1359.43
2791.22
2796.54
2805.79
2812.63
2814.33
2813.24
2806.8
2797.49
2788.99
2781.89
2776.56
2773.96
2773.64
2775.04
2778.01
2780.54
2782.16
2783.15
2784.75
2787.6
2792.39
2798.01
2802.89
2805.77
2806.64
2805.94
2804.37
2802.27
2799.95
2797.6
2795.58
2793.93
2792.64
2791.6
2790.49
2789.26
2788.1
2787.19
2786.6
2786.31
2786.28
2786.55
2786.94
2787.47
2788.14
2788.92
2789.81
2790.8
2791.92
2793.17
2794.56
2796.1
2797.8
2799.67
2801.72
2803.96
2806.38
2808.97
2811.74
2814.68
2817.77
2821.01
2824.41
2827.96
2831.64
2835.44
2839.34
2843.34
2847.43
2851.59
2855.82
2860.09
2864.39
2868.7
2873
2877.26
2881.45
2885.57
2889.57
2893.42
2897.08
2900.49
2903.6
2906.37
2908.74
2910.58
2911.88
2912.57
2912.64
2911.75
2909.99
2907.08
2903.02
2897.58
2890.65
2881.93
2871.3
2858.42
2843.13
2825.04
2803.96
2779.56
2751.39
2719.31
2682.62
2641.61
2595.21
2544.32
2487.85
2426.65
2359.51
2287.35
2211.16
2129.62
2044.63
1957.46
1866.7
1778.89
1691.28
1610.97
1453.96
2790.54
2794.2
2802.97
2811.61
2814.89
2814.76
2810.56
2802.31
2794.1
2787.07
2781.27
2777.59
2776.47
2776.92
2779.14
2781.33
2782.51
2782.64
2781.62
2779.9
2779.6
2781.71
2786.01
2790.91
2795.14
2797.82
2798.84
2798.58
2797.45
2795.99
2794.65
2793.53
2792.68
2792.11
2791.7
2791.19
2790.55
2789.94
2789.52
2789.41
2789.62
2790.13
2790.8
2791.61
2792.54
2793.58
2794.73
2795.98
2797.35
2798.85
2800.48
2802.26
2804.2
2806.31
2808.6
2811.08
2813.74
2816.59
2819.63
2822.83
2826.2
2829.74
2833.44
2837.3
2841.32
2845.46
2849.73
2854.11
2858.6
2863.19
2867.86
2872.61
2877.42
2882.27
2887.14
2892.01
2896.87
2901.68
2906.43
2911.08
2915.61
2919.97
2924.1
2927.96
2931.5
2934.67
2937.4
2939.56
2941.14
2942.06
2942.28
2941.48
2939.69
2936.67
2932.34
2926.46
2918.92
2909.37
2897.67
2883.43
2866.47
2846.41
2822.88
2795.65
2764.11
2728.37
2687.52
2641.97
2590.26
2533.26
2470.03
2401.56
2326.46
2244.75
2158
2063.53
1969.89
1871.53
1780.82
1703.34
1552.06
2790.21
2792.43
2799.96
2809.89
2814.85
2815.91
2813.71
2806.83
2798.8
2791.83
2785.87
2781.46
2779.58
2779.53
2780.98
2782.95
2783.76
2783.45
2781.57
2778.54
2775.07
2772.7
2772.79
2775.3
2779.73
2784.63
2788.56
2791
2792.01
2792.29
2792.31
2792.34
2792.22
2792.07
2792.04
2792.22
2792.39
2792.35
2792.27
2792.38
2792.8
2793.54
2794.49
2795.59
2796.79
2798.1
2799.52
2801.03
2802.66
2804.4
2806.28
2808.31
2810.48
2812.83
2815.36
2818.08
2820.99
2824.09
2827.38
2830.85
2834.5
2838.31
2842.31
2846.48
2850.81
2855.28
2859.9
2864.65
2869.53
2874.52
2879.62
2884.83
2890.11
2895.47
2900.88
2906.33
2911.8
2917.26
2922.71
2928.12
2933.45
2938.67
2943.74
2948.61
2953.24
2957.58
2961.56
2965.13
2968.23
2970.73
2972.59
2973.72
2974.07
2973.36
2971.54
2968.39
2963.78
2957.42
2949.17
2938.68
2925.8
2910.11
2891.34
2869.19
2843.12
2813.08
2778.2
2738.54
2692.83
2641.89
2584.71
2521.9
2451.84
2374.96
2291.83
2203.73
2112.97
2007.77
1901.76
1805.83
1624.96
2790.07
2791.26
2797.11
2807.49
2814.39
2817.06
2816.02
2810.73
2803.08
2796.29
2790.41
2785.55
2782.89
2782.39
2783.26
2785.11
2785.88
2785.21
2782.62
2778.96
2774.49
2770.36
2766.88
2765.47
2766.61
2770.17
2775.21
2780.21
2784.26
2786.92
2788.39
2789.6
2790.57
2791.24
2791.76
2792.43
2793.25
2794.06
2794.66
2795.17
2795.83
2796.78
2798
2799.4
2800.89
2802.48
2804.16
2805.94
2807.82
2809.82
2811.95
2814.21
2816.63
2819.21
2821.97
2824.92
2828.07
2831.41
2834.95
2838.68
2842.59
2846.67
2850.94
2855.4
2860.03
2864.82
2869.77
2874.86
2880.1
2885.47
2890.97
2896.6
2902.33
2908.16
2914.07
2920.06
2926.09
2932.17
2938.27
2944.37
2950.45
2956.48
2962.41
2968.22
2973.86
2979.3
2984.47
2989.33
2993.81
2997.85
3001.39
3004.29
3006.47
3007.84
3008.35
3007.75
3005.86
3002.5
2997.48
2990.54
2981.5
2969.97
2955.7
2938.29
2917.26
2892.35
2862.75
2828.45
2788.44
2743.14
2691.18
2632.94
2567.52
2495.82
2416.55
2329.79
2235.7
2141.03
2033.09
1942.9
1774.74
2790.02
2790.59
2794.69
2804.63
2813.65
2817.72
2817.44
2814
2807.11
2800.59
2794.88
2789.79
2786.38
2785.37
2785.81
2787.47
2788.34
2787.67
2784.73
2780.18
2775.06
2770.15
2765.67
2762.01
2759.79
2759.95
2762.54
2767.31
2772.82
2777.77
2781.55
2784.35
2786.76
2789.06
2790.83
2792.14
2793.4
2794.82
2796.29
2797.51
2798.61
2799.82
2801.29
2802.97
2804.77
2806.65
2808.61
2810.65
2812.79
2815.05
2817.42
2819.93
2822.58
2825.39
2828.39
2831.57
2834.95
2838.54
2842.32
2846.29
2850.45
2854.8
2859.34
2864.07
2868.99
2874.09
2879.35
2884.77
2890.35
2896.08
2901.96
2907.98
2914.14
2920.41
2926.8
2933.28
2939.84
2946.48
2953.18
2959.92
2966.69
2973.46
2980.2
2986.86
2993.42
2999.85
3006.1
3012.12
3017.86
3023.27
3028.27
3032.81
3036.79
3040.09
3042.61
3044.25
3044.93
3044.43
3042.46
3038.88
3033.4
3025.75
3015.68
3002.8
2986.68
2967
2943.09
2914.85
2881.33
2842.54
2797.09
2745.41
2686.5
2620.6
2545.99
2463.1
2371.43
2273.25
2163.46
2056.76
1870.3
2790.01
2790.26
2792.89
2801.67
2812.32
2817.95
2818.45
2816.64
2810.84
2804.62
2799.15
2794.02
2790.05
2788.5
2788.6
2789.87
2790.82
2790.28
2787.36
2782.28
2776.37
2770.82
2765.78
2761.21
2757.71
2755.44
2755
2756.91
2761.14
2766.76
2772.46
2777.59
2781.85
2785.56
2788.6
2790.95
2792.89
2794.85
2796.99
2799.09
2800.93
2802.59
2804.35
2806.31
2808.43
2810.62
2812.87
2815.18
2817.59
2820.09
2822.71
2825.46
2828.35
2831.4
2834.62
2838.03
2841.64
2845.45
2849.46
2853.67
2858.08
2862.68
2867.47
2872.46
2877.65
2883.03
2888.59
2894.31
2900.21
2906.27
2912.5
2918.89
2925.43
2932.12
2938.93
2945.87
2952.92
2960.08
2967.33
2974.66
2982.06
2989.5
2996.96
3004.41
3011.81
3019.15
3026.39
3033.48
3040.38
3047.04
3053.41
3059.44
3065.03
3070.11
3074.59
3078.34
3081.22
3083.13
3083.98
3083.56
3081.42
3077.5
3071.43
3062.96
3051.71
3037.31
3019.2
2997.12
2970.09
2937.95
2899.44
2854.86
2802.96
2743.63
2675.35
2598.95
2513.55
2421.16
2320.48
2217.27
2040.36
2790
2790.1
2791.68
2798.95
2810.4
2817.73
2819.46
2818.65
2814.07
2808.23
2803.07
2798.17
2793.94
2791.82
2791.57
2792.31
2793.17
2792.68
2789.87
2784.62
2778.3
2772.1
2766.43
2761.49
2757.19
2753.96
2751.98
2751.54
2752.95
2756.73
2762.26
2768.52
2774.56
2779.87
2784.38
2788.32
2791.64
2794.4
2797.03
2799.81
2802.53
2804.91
2807.1
2809.38
2811.81
2814.33
2816.88
2819.47
2822.14
2824.9
2827.77
2830.76
2833.89
2837.16
2840.6
2844.23
2848.07
2852.1
2856.34
2860.79
2865.43
2870.26
2875.3
2880.54
2885.99
2891.64
2897.47
2903.48
2909.68
2916.06
2922.61
2929.34
2936.25
2943.32
2950.54
2957.9
2965.4
2973.04
2980.79
2988.66
2996.63
3004.69
3012.82
3020.98
3029.15
3037.31
3045.43
3053.47
3061.41
3069.19
3076.79
3084.14
3091.18
3097.84
3104.05
3109.7
3114.72
3118.95
3122.21
3124.41
3125.42
3125.04
3122.71
3118.41
3111.6
3102.05
3089.2
3072.67
3051.56
3025.67
2993.85
2956.06
2910.74
2857.97
2796.71
2726.84
2645.79
2556.23
2452.47
2346.3
2175.7
2790
2790.04
2790.95
2796.66
2808.21
2817.28
2820.32
2820.07
2816.74
2811.46
2806.68
2802.17
2797.92
2795.31
2794.6
2794.79
2795.29
2794.62
2791.79
2786.54
2780.21
2773.75
2767.61
2762.13
2757.5
2753.63
2750.74
2749.33
2749.26
2750.51
2753.94
2759.45
2766.16
2772.98
2779.22
2784.66
2789.29
2793.14
2796.51
2799.85
2803.32
2806.61
2809.47
2812.16
2814.94
2817.8
2820.67
2823.56
2826.5
2829.51
2832.62
2835.85
2839.21
2842.72
2846.38
2850.23
2854.28
2858.53
2862.99
2867.65
2872.52
2877.58
2882.85
2888.33
2894.02
2899.92
2906.01
2912.29
2918.77
2925.43
2932.29
2939.33
2946.57
2953.99
2961.57
2969.32
2977.23
2985.29
2993.51
3001.86
3010.35
3018.96
3027.68
3036.48
3045.33
3054.23
3063.14
3072.05
3080.92
3089.72
3098.4
3106.95
3115.29
3123.38
3131.15
3138.51
3145.39
3151.68
3157.27
3162.01
3165.67
3168.17
3169.33
3168.96
3166.26
3161.34
3153.49
3142.52
3127.58
3108.49
3084.05
3054.05
3016.88
2972.62
2919.82
2857.42
2784.05
2700.55
2603.54
2499.53
2342.02
2790
2790.02
2790.53
2794.89
2806.03
2816.67
2820.83
2821.13
2818.94
2814.35
2809.99
2805.92
2801.84
2798.83
2797.55
2797.2
2797.07
2795.95
2793
2787.81
2781.6
2775.2
2768.97
2763.17
2758.1
2753.89
2750.51
2748.35
2747.54
2747.79
2749.28
2752.69
2758.34
2765.4
2772.74
2779.53
2785.5
2790.74
2795.32
2799.42
2803.5
2807.56
2811.3
2814.58
2817.75
2820.96
2824.18
2827.38
2830.6
2833.88
2837.24
2840.7
2844.29
2848.02
2851.9
2855.96
2860.21
2864.68
2869.35
2874.23
2879.31
2884.59
2890.07
2895.77
2901.7
2907.83
2914.16
2920.7
2927.43
2934.36
2941.49
2948.83
2956.37
2964.11
2972.03
2980.14
2988.41
2996.87
3005.5
3014.3
3023.26
3032.37
3041.62
3051
3060.47
3070.03
3079.65
3089.33
3099.03
3108.72
3118.38
3127.97
3137.46
3146.81
3155.95
3164.82
3173.36
3181.47
3189.07
3196.03
3202.24
3207.52
3211.6
3214.38
3215.66
3215.19
3212.12
3206.54
3197.45
3184.75
3167.16
3144.44
3114.93
3078.65
3033.75
2979.55
2914.69
2837.14
2747.16
2642.55
2497.54
2790
2790.01
2790.31
2793.61
2804.09
2815.93
2821.13
2822.15
2820.79
2816.93
2812.99
2809.36
2805.53
2802.29
2800.39
2799.41
2798.52
2796.77
2793.58
2788.43
2782.31
2776.1
2770.07
2764.29
2758.98
2754.39
2750.71
2748.09
2746.8
2746.55
2747.11
2749.1
2752.9
2758.8
2766.11
2773.76
2781.03
2787.6
2793.39
2798.48
2803.2
2807.99
2812.54
2816.57
2820.24
2823.86
2827.45
2830.98
2834.49
2838.04
2841.64
2845.34
2849.15
2853.1
2857.19
2861.46
2865.92
2870.59
2875.46
2880.55
2885.84
2891.32
2897.01
2902.93
2909.06
2915.42
2921.98
2928.75
2935.72
2942.9
2950.29
2957.89
2965.71
2973.74
2981.97
2990.39
2999
3007.81
3016.82
3026.01
3035.39
3044.94
3054.67
3064.55
3074.57
3084.71
3094.96
3105.31
3115.73
3126.21
3136.72
3147.24
3157.74
3168.19
3178.53
3188.73
3198.72
3208.44
3217.82
3226.73
3235.12
3242.82
3249.7
3255.57
3260.1
3263.19
3264.56
3263.9
3260.06
3253.21
3242.07
3226.54
3204.93
3177.06
3140.6
3095.26
3038.57
2968.39
2885.92
2785.26
2650.95
2790
2790
2790.19
2792.76
2802.5
2815.14
2821.45
2823.11
2822.31
2819.15
2815.67
2812.46
2808.93
2805.55
2803.07
2801.33
2799.61
2797.22
2793.62
2788.41
2782.34
2776.32
2770.61
2765.08
2759.83
2755.1
2751.14
2748.24
2746.57
2746.09
2746.22
2747.34
2750.03
2754.46
2760.62
2768.09
2776.01
2783.63
2790.58
2796.83
2802.5
2807.89
2813.22
2818.1
2822.39
2826.46
2830.43
2834.31
2838.13
2841.95
2845.81
2849.74
2853.77
2857.93
2862.23
2866.71
2871.37
2876.23
2881.3
2886.59
2892.07
2897.75
2903.64
2909.75
2916.09
2922.65
2929.42
2936.4
2943.59
2951
2958.62
2966.47
2974.54
2982.83
2991.34
3000.05
3008.96
3018.09
3027.42
3036.97
3046.72
3056.68
3066.83
3077.16
3087.66
3098.32
3109.12
3120.06
3131.12
3142.29
3153.55
3164.88
3176.25
3187.66
3199.05
3210.39
3221.64
3232.75
3243.66
3254.28
3264.56
3274.36
3283.61
3292.11
3299.73
3306.2
3311.18
3314.54
3315.94
3314.88
3310.27
3302.11
3288.67
3269.94
3243.55
3209.26
3163.02
3102.76
3027.47
2931.91
2804.55
2790
2790
2790.14
2792.24
2801.36
2814.44
2821.89
2823.96
2823.53
2821.05
2818.07
2815.29
2812.03
2808.52
2805.43
2802.85
2800.25
2797.22
2793.24
2787.82
2781.81
2776
2770.57
2765.33
2760.4
2755.82
2751.79
2748.63
2746.7
2746
2745.99
2746.69
2748.64
2752.14
2757.19
2763.64
2771.29
2779.44
2787.36
2794.71
2801.41
2807.58
2813.61
2819.23
2824.21
2828.79
2833.18
2837.41
2841.56
2845.66
2849.77
2853.93
2858.19
2862.56
2867.06
2871.73
2876.58
2881.64
2886.9
2892.37
2898.04
2903.91
2909.98
2916.28
2922.82
2929.57
2936.54
2943.72
2951.11
2958.73
2966.57
2974.64
2982.94
2991.47
3000.23
3009.2
3018.38
3027.79
3037.43
3047.29
3057.38
3067.68
3078.21
3088.94
3099.86
3110.97
3122.25
3133.71
3145.33
3157.09
3169
3181.02
3193.16
3205.38
3217.67
3230
3242.33
3254.63
3266.85
3278.94
3290.83
3302.45
3313.72
3324.5
3334.69
3344.08
3352.53
3359.7
3365.24
3368.9
3370.28
3368.65
3362.55
3351.85
3334.36
3309.74
3273.41
3223.89
3156.73
3068.92
2949.56
2790
2790
2790.11
2791.97
2800.68
2814.05
2822.38
2824.75
2824.57
2822.75
2820.28
2817.87
2814.81
2811.06
2807.31
2803.8
2800.39
2796.7
2792.19
2786.65
2780.78
2775.2
2770.07
2765.15
2760.58
2756.34
2752.49
2749.28
2747.09
2746.17
2746.09
2746.6
2748.2
2751.09
2755.32
2760.86
2767.73
2775.67
2784.03
2792.2
2799.87
2806.96
2813.62
2820.01
2825.72
2830.86
2835.69
2840.3
2844.77
2849.15
2853.52
2857.92
2862.39
2866.96
2871.66
2876.52
2881.56
2886.8
2892.25
2897.9
2903.75
2909.79
2916.04
2922.52
2929.23
2936.16
2943.31
2950.67
2958.26
2966.06
2974.09
2982.37
2990.88
2999.63
3008.61
3017.81
3027.24
3036.9
3046.8
3056.95
3067.33
3077.95
3088.8
3099.88
3111.17
3122.68
3134.38
3146.29
3158.38
3170.67
3183.13
3195.76
3208.54
3221.47
3234.53
3247.7
3260.95
3274.27
3287.6
3300.93
3314.19
3327.34
3340.32
3353.05
3365.42
3377.29
3388.56
3398.96
3408.34
3416.22
3422.27
3426.11
3427.23
3424.29
3416.38
3402.79
3379.64
3344.66
3288.24
3210.84
3096.61
2790
2790
2790.11
2791.91
2800.5
2814.03
2822.9
2825.51
2825.58
2824.34
2822.32
2820.2
2817.16
2813
2808.47
2804.09
2799.97
2795.39
2790.47
2785
2779.36
2774.06
2769.21
2764.62
2760.45
2756.59
2753.08
2750.03
2747.76
2746.61
2746.4
2746.78
2748.19
2750.84
2754.54
2759.35
2765.47
2772.86
2781.14
2789.75
2798.19
2806.15
2813.57
2820.58
2826.99
2832.74
2838.02
2843.01
2847.8
2852.47
2857.09
2861.72
2866.4
2871.17
2876.06
2881.11
2886.33
2891.75
2897.38
2903.21
2909.22
2915.43
2921.85
2928.49
2935.37
2942.47
2949.79
2957.33
2965.09
2973.07
2981.28
2989.74
2998.45
3007.39
3016.58
3026
3035.64
3045.53
3055.67
3066.07
3076.72
3087.61
3098.76
3110.15
3121.77
3133.62
3145.7
3157.99
3170.51
3183.25
3196.19
3209.34
3222.69
3236.23
3249.94
3263.83
3277.86
3292.04
3306.32
3320.69
3335.1
3349.54
3363.96
3378.3
3392.49
3406.44
3420.05
3433.17
3445.67
3457.25
3467.76
3476.55
3483.43
3487.58
3488.61
3484.47
3473.39
3452.12
3409.77
3350.46
3244.57
2790
2790
2790.11
2791.95
2800.69
2814.39
2823.52
2826.3
2826.63
2825.87
2824.23
2822.22
2818.93
2814.12
2808.8
2803.78
2798.39
2793.3
2788.29
2783.02
2777.62
2772.65
2768.06
2763.87
2760.1
2756.64
2753.51
2750.76
2748.61
2747.34
2746.98
2747.23
2748.47
2750.95
2754.4
2758.74
2764.26
2771.07
2779.01
2787.7
2796.61
2805.27
2813.4
2821.04
2828.11
2834.44
2840.19
2845.55
2850.66
2855.61
2860.49
2865.34
2870.23
2875.19
2880.27
2885.49
2890.89
2896.48
2902.28
2908.27
2914.45
2920.82
2927.39
2934.19
2941.23
2948.49
2955.97
2963.66
2971.58
2979.73
2988.11
2996.74
3005.62
3014.76
3024.13
3033.74
3043.59
3053.69
3064.05
3074.67
3085.56
3096.71
3108.12
3119.79
3131.7
3143.87
3156.27
3168.91
3181.8
3194.94
3208.3
3221.91
3235.74
3249.81
3264.09
3278.59
3293.3
3308.2
3323.28
3338.53
3353.92
3369.43
3385.04
3400.73
3416.42
3432.09
3447.64
3463
3478.06
3492.66
3506.65
3519.65
3531.48
3541.11
3548.53
3552.52
3553.09
3544.59
3521.13
3484.69
3402.99
2790
2790
2790.13
2792.17
2801.35
2815.17
2824.28
2827.19
2827.74
2827.35
2825.96
2823.77
2819.91
2814.37
2808.36
2802.03
2796.05
2790.77
2785.8
2780.73
2775.63
2770.99
2766.76
2762.99
2759.62
2756.56
2753.82
2751.41
2749.49
2748.25
2747.8
2747.96
2749.03
2751.36
2754.6
2758.69
2763.82
2770.14
2777.68
2786.23
2795.35
2804.52
2813.31
2821.51
2829.17
2836.05
2842.25
2847.98
2853.4
2858.63
2863.74
2868.82
2873.91
2879.06
2884.31
2889.71
2895.27
2901.04
2907
2913.15
2919.48
2926
2932.72
2939.68
2946.87
2954.27
2961.9
2969.74
2977.81
2986.11
2994.64
3003.44
3012.48
3021.79
3031.33
3041.12
3051.15
3061.44
3072
3082.84
3093.95
3105.33
3116.97
3128.89
3141.08
3153.52
3166.21
3179.17
3192.39
3205.88
3219.62
3233.62
3247.89
3262.41
3277.19
3292.23
3307.51
3323.04
3338.81
3354.81
3371.02
3387.45
3404.06
3420.86
3437.8
3454.87
3472.01
3489.2
3506.33
3523.34
3540.07
3556.39
3572.12
3586.87
3600.42
3611.41
3620.35
3623.98
3619.39
3601.11
3557.54
2790
2790
2790.17
2792.59
2802.41
2816.27
2825.2
2828.24
2828.93
2828.69
2827.35
2824.65
2820.01
2813.73
2806.44
2799.29
2793.11
2787.9
2783.1
2778.25
2773.47
2769.21
2765.38
2762.04
2759.06
2756.38
2754.02
2751.97
2750.32
2749.23
2748.77
2748.89
2749.86
2752.03
2755.08
2758.97
2763.86
2769.88
2777.07
2785.4
2794.56
2804.04
2813.33
2822.08
2830.23
2837.59
2844.22
2850.3
2856.02
2861.51
2866.85
2872.14
2877.42
2882.75
2888.17
2893.74
2899.47
2905.39
2911.51
2917.81
2924.28
2930.94
2937.81
2944.91
2952.24
2959.79
2967.56
2975.54
2983.75
2992.19
3000.88
3009.83
3019.04
3028.5
3038.21
3048.16
3058.37
3068.84
3079.59
3090.63
3101.94
3113.54
3125.42
3137.57
3150
3162.7
3175.67
3188.91
3202.44
3216.25
3230.33
3244.7
3259.36
3274.3
3289.52
3305.04
3320.83
3336.91
3353.28
3369.93
3386.84
3404.03
3421.48
3439.21
3457.18
3475.4
3493.82
3512.45
3531.22
3550.12
3569.04
3587.96
3606.66
3625.05
3642.81
3659.59
3674.92
3687.27
3696.11
3695.1
3687.41
2790
2790.01
2790.25
2793.23
2803.86
2817.7
2826.35
2829.4
2830.08
2829.78
2828.17
2824.76
2819.19
2811.48
2803.29
2795.91
2789.86
2784.83
2780.23
2775.64
2771.23
2767.39
2764
2761.06
2758.46
2756.16
2754.14
2752.44
2751.08
2750.2
2749.81
2749.94
2750.91
2752.93
2755.77
2759.49
2764.22
2770.03
2777
2785.14
2794.27
2803.93
2813.56
2822.79
2831.37
2839.15
2846.16
2852.57
2858.57
2864.3
2869.86
2875.34
2880.81
2886.31
2891.89
2897.62
2903.5
2909.58
2915.85
2922.29
2928.9
2935.69
2942.69
2949.93
2957.4
2965.07
2972.97
2981.08
2989.42
2998
3006.83
3015.92
3025.28
3034.89
3044.75
3054.86
3065.22
3075.87
3086.8
3098.02
3109.53
3121.33
3133.41
3145.79
3158.44
3171.38
3184.6
3198.11
3211.91
3226.01
3240.41
3255.11
3270.11
3285.42
3301.04
3316.98
3333.22
3349.79
3366.67
3383.87
3401.39
3419.23
3437.39
3455.88
3474.68
3493.82
3513.25
3533.01
3553.03
3573.35
3593.86
3614.59
3635.39
3656.24
3676.89
3697.25
3716.7
3735.28
3750.79
3760.74
3771.9
2790
2790.01
2790.39
2794.14
2805.69
2819.44
2827.72
2830.57
2831.06
2830.47
2828.34
2824.02
2816.75
2807.94
2799.42
2792.17
2786.38
2781.63
2777.27
2773.03
2769.02
2765.58
2762.62
2760.08
2757.85
2755.9
2754.22
2752.85
2751.77
2751.1
2750.84
2751.05
2752.1
2754
2756.67
2760.23
2764.82
2770.5
2777.33
2785.34
2794.42
2804.18
2814.09
2823.65
2832.59
2840.73
2848.08
2854.78
2861.03
2866.98
2872.74
2878.41
2884.04
2889.7
2895.44
2901.31
2907.35
2913.57
2919.98
2926.56
2933.29
2940.21
2947.35
2954.72
2962.31
2970.11
2978.13
2986.37
2994.84
3003.55
3012.51
3021.74
3031.24
3040.99