/*--------------------------------*- C++ -*----------------------------------*\
| =========                 |                                                 |
| \\      /  F ield         | OpenFOAM: The Open Source CFD Toolbox           |
|  \\    /   O peration     | Version:  2412                                  |
|   \\  /    A nd           | Website:  www.openfoam.com                      |
|    \\/     M anipulation  |                                                 |
\*---------------------------------------------------------------------------*/
FoamFile
{
    version     2.0;
    format      ascii;
    arch        "LSB;label=32;scalar=64";
    class       volVectorField;
    location    "0.066";
    object      U;
}
// * * * * * * * * * * * * * * * * * * * * * * * * * * * * * * * * * * * * * //

dimensions      [0 1 -1 0 0 0 0];

internalField   nonuniform List<vector> 
78650
(
(207.352 1.58764 0)
(208.516 0.382173 0)
(208.698 0.390418 0)
(208.903 0.00874384 0)
(208.764 -0.614044 0)
(208.211 -1.1866 0)
(207.438 -1.63667 0)
(206.63 -1.88576 0)
(205.888 -1.98652 0)
(205.314 -2.00679 0)
(204.999 -1.97914 0)
(204.934 -1.93603 0)
(205.02 -1.85954 0)
(205.197 -1.7664 0)
(205.431 -1.67541 0)
(205.673 -1.57892 0)
(205.959 -1.5013 0)
(206.332 -1.46384 0)
(206.801 -1.47794 0)
(207.343 -1.52841 0)
(207.916 -1.58603 0)
(208.48 -1.63136 0)
(209.021 -1.66036 0)
(209.538 -1.66004 0)
(210.034 -1.623 0)
(210.508 -1.55123 0)
(210.961 -1.43999 0)
(211.405 -1.29426 0)
(211.844 -1.1199 0)
(212.265 -0.912068 0)
(212.655 -0.666028 0)
(213.019 -0.383244 0)
(213.367 -0.0670987 0)
(213.705 0.281263 0)
(214.029 0.665074 0)
(214.334 1.08805 0)
(214.621 1.55048 0)
(214.893 2.0514 0)
(215.152 2.58885 0)
(215.397 3.16191 0)
(215.625 3.76997 0)
(215.84 4.41163 0)
(216.04 5.08572 0)
(216.226 5.79174 0)
(216.396 6.52951 0)
(216.551 7.29856 0)
(216.691 8.09828 0)
(216.816 8.9287 0)
(216.926 9.78988 0)
(217.017 10.682 0)
(217.093 11.6053 0)
(217.15 12.5598 0)
(217.192 13.546 0)
(217.218 14.5638 0)
(217.228 15.6135 0)
(217.225 16.6959 0)
(217.207 17.8107 0)
(217.178 18.9584 0)
(217.139 20.1396 0)
(217.091 21.3551 0)
(217.036 22.6056 0)
(216.976 23.8917 0)
(216.914 25.2137 0)
(216.853 26.5724 0)
(216.797 27.969 0)
(216.747 29.4046 0)
(216.706 30.8797 0)
(216.678 32.3961 0)
(216.671 33.9556 0)
(216.685 35.559 0)
(216.721 37.2069 0)
(216.797 38.9016 0)
(216.91 40.6428 0)
(217.067 42.4321 0)
(217.284 44.2718 0)
(217.552 46.1614 0)
(217.902 48.1023 0)
(218.328 50.0934 0)
(218.848 52.1348 0)
(219.477 54.2254 0)
(220.216 56.3636 0)
(221.101 58.5477 0)
(222.115 60.778 0)
(223.308 63.0495 0)
(224.655 65.358 0)
(226.213 67.6908 0)
(227.98 70.0389 0)
(229.979 72.3931 0)
(232.246 74.7388 0)
(234.763 77.0792 0)
(237.618 79.3769 0)
(240.739 81.6457 0)
(244.268 83.8 0)
(248.083 85.8825 0)
(252.302 87.8134 0)
(256.9 89.5903 0)
(261.951 91.1752 0)
(267.431 92.5082 0)
(273.101 93.5378 0)
(279.089 94.3484 0)
(285.665 94.8454 0)
(292.695 94.9065 0)
(299.406 94.6305 0)
(306.512 94.0327 0)
(313.213 93.3155 0)
(320.076 92.199 0)
(326.551 91.0088 0)
(332.802 89.4279 0)
(338.941 87.549 0)
(344.808 85.4441 0)
(350.305 83.4521 0)
(356.675 80.8326 0)
(361.55 78.839 0)
(367.104 76.3979 0)
(370.893 74.19 0)
(373.056 72.3472 0)
(374.951 70.2101 0)
(377.287 69.0715 0)
(381.855 68.1251 0)
(389.188 67.002 0)
(391.936 70.8424 0)
(207.523 1.48043 0)
(208.564 0.447443 0)
(208.77 0.506431 0)
(209.348 0.234691 0)
(209.626 -0.191139 0)
(209.387 -0.74219 0)
(208.617 -1.22565 0)
(207.644 -1.60194 0)
(206.672 -1.85011 0)
(205.831 -1.94108 0)
(205.265 -1.91744 0)
(205.003 -1.8348 0)
(205.022 -1.78253 0)
(205.184 -1.68962 0)
(205.394 -1.59734 0)
(205.624 -1.49688 0)
(205.902 -1.41307 0)
(206.256 -1.36445 0)
(206.709 -1.37202 0)
(207.241 -1.42006 0)
(207.808 -1.47354 0)
(208.371 -1.52127 0)
(208.915 -1.55383 0)
(209.433 -1.55604 0)
(209.921 -1.52239 0)
(210.377 -1.45157 0)
(210.815 -1.34377 0)
(211.25 -1.20608 0)
(211.678 -1.03828 0)
(212.083 -0.833117 0)
(212.456 -0.589445 0)
(212.806 -0.311661 0)
(213.142 -0.00291587 0)
(213.465 0.337682 0)
(213.77 0.714376 0)
(214.055 1.12979 0)
(214.324 1.58347 0)
(214.577 2.07467 0)
(214.817 2.60201 0)
(215.042 3.16498 0)
(215.25 3.7626 0)
(215.445 4.39333 0)
(215.624 5.05602 0)
(215.789 5.75021 0)
(215.937 6.47559 0)
(216.07 7.23159 0)
(216.189 8.01766 0)
(216.291 8.83388 0)
(216.377 9.6803 0)
(216.445 10.557 0)
(216.496 11.4641 0)
(216.528 12.4018 0)
(216.544 13.3706 0)
(216.543 14.3704 0)
(216.526 15.4014 0)
(216.494 16.4647 0)
(216.446 17.5596 0)
(216.386 18.6869 0)
(216.314 19.8472 0)
(216.231 21.0412 0)
(216.139 22.2696 0)
(216.039 23.5333 0)
(215.936 24.8324 0)
(215.83 26.1678 0)
(215.725 27.5407 0)
(215.623 28.9524 0)
(215.527 30.4031 0)
(215.439 31.8947 0)
(215.368 33.4295 0)
(215.311 35.0079 0)
(215.272 36.6309 0)
(215.266 38.3016 0)
(215.29 40.0191 0)
(215.35 41.7856 0)
(215.461 43.6037 0)
(215.616 45.4734 0)
(215.84 47.3974 0)
(216.13 49.3745 0)
(216.502 51.4059 0)
(216.969 53.4919 0)
(217.533 55.632 0)
(218.227 57.8259 0)
(219.037 60.0722 0)
(220.011 62.3677 0)
(221.127 64.71 0)
(222.439 67.095 0)
(223.944 69.519 0)
(225.665 71.9744 0)
(227.638 74.4472 0)
(229.852 76.9321 0)
(232.389 79.393 0)
(235.184 81.8312 0)
(238.369 84.1763 0)
(241.817 86.4683 0)
(245.675 88.6367 0)
(249.845 90.6799 0)
(254.298 92.578 0)
(259.113 94.2562 0)
(264.357 95.7245 0)
(270.088 96.9487 0)
(276.169 97.901 0)
(282.333 98.546 0)
(289.094 98.89 0)
(295.916 98.8525 0)
(303.201 98.4497 0)
(310.294 97.7017 0)
(317.633 96.6048 0)
(324.293 95.4865 0)
(331.357 93.9031 0)
(337.513 92.3637 0)
(343.581 90.4857 0)
(349.602 88.2449 0)
(354.946 86.3097 0)
(361.168 83.9192 0)
(365.971 81.6672 0)
(369.551 79.1544 0)
(372.016 76.4689 0)
(373.931 74.6627 0)
(377.999 73.5355 0)
(386.036 72.4729 0)
(389.106 77.2489 0)
(207.668 1.32607 0)
(208.581 0.469314 0)
(208.747 0.563021 0)
(209.35 0.355484 0)
(210.057 0.056022 0)
(210.246 -0.327767 0)
(209.849 -0.769162 0)
(208.909 -1.15282 0)
(207.707 -1.46024 0)
(206.534 -1.63902 0)
(205.667 -1.71959 0)
(205.234 -1.70677 0)
(205.141 -1.67287 0)
(205.247 -1.61189 0)
(205.365 -1.50364 0)
(205.57 -1.41088 0)
(205.83 -1.32086 0)
(206.168 -1.26719 0)
(206.607 -1.27265 0)
(207.127 -1.31945 0)
(207.683 -1.37154 0)
(208.242 -1.42153 0)
(208.787 -1.45829 0)
(209.304 -1.46159 0)
(209.783 -1.43102 0)
(210.228 -1.3645 0)
(210.657 -1.26506 0)
(211.083 -1.13672 0)
(211.496 -0.97415 0)
(211.881 -0.772077 0)
(212.238 -0.533318 0)
(212.578 -0.2628 0)
(212.904 0.0379791 0)
(213.214 0.371413 0)
(213.501 0.741436 0)
(213.768 1.14928 0)
(214.019 1.59436 0)
(214.254 2.07645 0)
(214.476 2.59467 0)
(214.681 3.1486 0)
(214.869 3.73687 0)
(215.044 4.35782 0)
(215.203 5.01038 0)
(215.347 5.69403 0)
(215.474 6.40835 0)
(215.586 7.15268 0)
(215.683 7.92651 0)
(215.762 8.72995 0)
(215.825 9.56305 0)
(215.868 10.4258 0)
(215.895 11.3184 0)
(215.902 12.241 0)
(215.891 13.1942 0)
(215.863 14.1781 0)
(215.817 15.1923 0)
(215.755 16.2389 0)
(215.677 17.3166 0)
(215.584 18.4261 0)
(215.477 19.5683 0)
(215.359 20.7434 0)
(215.229 21.9527 0)
(215.089 23.1967 0)
(214.943 24.4759 0)
(214.792 25.7907 0)
(214.639 27.1422 0)
(214.484 28.5326 0)
(214.333 29.9613 0)
(214.187 31.4301 0)
(214.052 32.9418 0)
(213.927 34.4974 0)
(213.816 36.0961 0)
(213.731 37.743 0)
(213.67 39.4364 0)
(213.639 41.1783 0)
(213.65 42.9722 0)
(213.698 44.8175 0)
(213.807 46.7179 0)
(213.971 48.672 0)
(214.206 50.6815 0)
(214.525 52.7472 0)
(214.927 54.8685 0)
(215.446 57.0461 0)
(216.066 59.2786 0)
(216.835 61.5662 0)
(217.726 63.9081 0)
(218.794 66.3021 0)
(220.028 68.7423 0)
(221.457 71.2207 0)
(223.11 73.7278 0)
(224.983 76.2605 0)
(227.146 78.7954 0)
(229.548 81.3334 0)
(232.318 83.8267 0)
(235.339 86.3035 0)
(238.772 88.7041 0)
(242.519 91.0554 0)
(246.685 93.3206 0)
(251.312 95.3793 0)
(256.242 97.2707 0)
(261.567 98.8553 0)
(267.293 100.243 0)
(273.217 101.311 0)
(279.803 102.138 0)
(286.058 102.583 0)
(293.394 102.724 0)
(300.033 102.484 0)
(307.983 101.708 0)
(314.618 100.86 0)
(322.38 99.5023 0)
(329.013 98.1662 0)
(335.613 96.5699 0)
(341.779 94.9387 0)
(347.707 93.2396 0)
(353.598 91.2489 0)
(358.58 89.2239 0)
(362.775 86.8722 0)
(366.081 84.2394 0)
(368.986 82.5195 0)
(374.064 80.8048 0)
(382.645 79.3037 0)
(386.173 83.4836 0)
(207.828 1.14025 0)
(208.585 0.480098 0)
(208.677 0.595098 0)
(209.25 0.492248 0)
(210.066 0.186711 0)
(210.688 -0.0331025 0)
(210.755 -0.35416 0)
(210.236 -0.65308 0)
(209.154 -0.985367 0)
(207.808 -1.29405 0)
(206.583 -1.50307 0)
(205.79 -1.59711 0)
(205.391 -1.54159 0)
(205.288 -1.47771 0)
(205.364 -1.39597 0)
(205.545 -1.30276 0)
(205.78 -1.21181 0)
(206.102 -1.15814 0)
(206.528 -1.16463 0)
(207.029 -1.20887 0)
(207.567 -1.26084 0)
(208.118 -1.31305 0)
(208.663 -1.35222 0)
(209.175 -1.35575 0)
(209.647 -1.32706 0)
(210.088 -1.26671 0)
(210.513 -1.17592 0)
(210.928 -1.05338 0)
(211.319 -0.892072 0)
(211.681 -0.692404 0)
(212.024 -0.459757 0)
(212.354 -0.19714 0)
(212.668 0.0962833 0)
(212.96 0.423395 0)
(213.228 0.786592 0)
(213.476 1.18578 0)
(213.709 1.62091 0)
(213.926 2.09242 0)
(214.127 2.59995 0)
(214.31 3.14304 0)
(214.478 3.7199 0)
(214.632 4.32902 0)
(214.77 4.96939 0)
(214.892 5.64043 0)
(214.998 6.34159 0)
(215.089 7.0722 0)
(215.164 7.83177 0)
(215.221 8.62042 0)
(215.261 9.43818 0)
(215.281 10.2849 0)
(215.284 11.1608 0)
(215.266 12.0661 0)
(215.231 13.0009 0)
(215.177 13.9669 0)
(215.105 14.9617 0)
(215.014 15.9884 0)
(214.907 17.0454 0)
(214.784 18.1335 0)
(214.646 19.2543 0)
(214.494 20.4073 0)
(214.329 21.5937 0)
(214.153 22.8142 0)
(213.967 24.0693 0)
(213.774 25.3594 0)
(213.577 26.6856 0)
(213.373 28.0512 0)
(213.171 29.4535 0)
(212.97 30.895 0)
(212.776 32.3783 0)
(212.585 33.9067 0)
(212.407 35.4767 0)
(212.247 37.0952 0)
(212.103 38.7609 0)
(211.985 40.4744 0)
(211.901 42.2403 0)
(211.845 44.0582 0)
(211.841 45.9328 0)
(211.88 47.8628 0)
(211.98 49.8508 0)
(212.151 51.8983 0)
(212.393 54.0055 0)
(212.736 56.1748 0)
(213.167 58.4052 0)
(213.731 60.6988 0)
(214.401 63.0537 0)
(215.233 65.4694 0)
(216.214 67.9409 0)
(217.378 70.4645 0)
(218.748 73.0359 0)
(220.324 75.6526 0)
(222.168 78.2977 0)
(224.237 80.9675 0)
(226.654 83.6228 0)
(229.316 86.2793 0)
(232.391 88.8742 0)
(235.747 91.4187 0)
(239.479 93.8647 0)
(243.586 96.1778 0)
(248.012 98.4436 0)
(252.963 100.478 0)
(258.284 102.326 0)
(264.095 103.85 0)
(270.253 105.124 0)
(276.599 106.089 0)
(283.295 106.769 0)
(290.063 107.101 0)
(297.3 107.061 0)
(304.831 106.515 0)
(312.338 105.602 0)
(320.14 104.22 0)
(327.646 102.502 0)
(334.54 100.8 0)
(341.39 98.9988 0)
(347.627 97.3149 0)
(353.325 95.4968 0)
(358.064 93.5148 0)
(361.218 91.2301 0)
(363.587 89.5376 0)
(368.24 88.0571 0)
(377.497 86.4008 0)
(380.972 91.5144 0)
(208.024 0.944196 0)
(208.589 0.477828 0)
(208.603 0.6048 0)
(209.054 0.585227 0)
(209.951 0.360417 0)
(210.73 0.0931087 0)
(211.179 -0.0408831 0)
(211.181 -0.246474 0)
(210.575 -0.42984 0)
(209.388 -0.712446 0)
(207.899 -0.991876 0)
(206.599 -1.18257 0)
(205.786 -1.24557 0)
(205.507 -1.26417 0)
(205.492 -1.24751 0)
(205.569 -1.17568 0)
(205.736 -1.1 0)
(206.041 -1.05091 0)
(206.444 -1.06269 0)
(206.914 -1.10438 0)
(207.435 -1.153 0)
(207.98 -1.20868 0)
(208.517 -1.24769 0)
(209.021 -1.25487 0)
(209.49 -1.23256 0)
(209.935 -1.18314 0)
(210.357 -1.10182 0)
(210.753 -0.983619 0)
(211.119 -0.825458 0)
(211.462 -0.63299 0)
(211.794 -0.410105 0)
(212.114 -0.156367 0)
(212.414 0.130252 0)
(212.688 0.451342 0)
(212.939 0.80727 0)
(213.172 1.19739 0)
(213.388 1.62269 0)
(213.587 2.08412 0)
(213.767 2.58161 0)
(213.929 3.11446 0)
(214.076 3.68057 0)
(214.21 4.27868 0)
(214.326 4.90776 0)
(214.426 5.56711 0)
(214.511 6.25609 0)
(214.58 6.974 0)
(214.634 7.72039 0)
(214.668 8.49533 0)
(214.684 9.29884 0)
(214.681 10.1305 0)
(214.659 10.9907 0)
(214.617 11.8805 0)
(214.556 12.7983 0)
(214.474 13.7469 0)
(214.375 14.7222 0)
(214.256 15.7312 0)
(214.118 16.7699 0)
(213.963 17.8395 0)
(213.792 18.94 0)
(213.605 20.0724 0)
(213.404 21.2376 0)
(213.19 22.4365 0)
(212.963 23.6695 0)
(212.727 24.9373 0)
(212.483 26.2411 0)
(212.233 27.5811 0)
(211.978 28.959 0)
(211.723 30.3758 0)
(211.47 31.8327 0)
(211.214 33.3375 0)
(210.97 34.8787 0)
(210.737 36.4676 0)
(210.513 38.1057 0)
(210.313 39.79 0)
(210.137 41.527 0)
(209.984 43.315 0)
(209.874 45.1598 0)
(209.798 47.0598 0)
(209.775 49.0176 0)
(209.811 51.0354 0)
(209.908 53.1133 0)
(210.091 55.2548 0)
(210.35 57.4583 0)
(210.726 59.7272 0)
(211.193 62.0591 0)
(211.805 64.4575 0)
(212.545 66.9197 0)
(213.446 69.4453 0)
(214.526 72.0321 0)
(215.786 74.6768 0)
(217.283 77.3671 0)
(218.985 80.0974 0)
(221.009 82.8431 0)
(223.261 85.6139 0)
(225.905 88.3707 0)
(228.811 91.1394 0)
(232.142 93.8747 0)
(235.865 96.5464 0)
(239.943 99.1641 0)
(244.524 101.545 0)
(249.378 103.858 0)
(254.764 105.861 0)
(260.573 107.622 0)
(266.916 109.082 0)
(273.236 110.213 0)
(280.364 111.012 0)
(286.7 111.595 0)
(294.389 111.689 0)
(301.223 111.51 0)
(308.74 110.909 0)
(316.446 109.919 0)
(323.987 108.502 0)
(331.757 106.629 0)
(339.516 104.327 0)
(346.136 102.06 0)
(352.393 99.2837 0)
(356.317 96.7313 0)
(359.257 94.6412 0)
(364.063 93.5235 0)
(373.93 92.4154 0)
(377.05 99.1229 0)
(208.269 0.753367 0)
(208.603 0.474363 0)
(208.539 0.599843 0)
(208.834 0.635404 0)
(209.648 0.468641 0)
(210.616 0.258968 0)
(211.227 0.0630084 0)
(211.56 0.0647692 0)
(211.503 -0.0247168 0)
(210.883 -0.135712 0)
(209.64 -0.366943 0)
(208.119 -0.641906 0)
(206.888 -0.860878 0)
(206.183 -1.01858 0)
(205.825 -1.03069 0)
(205.717 -1.00149 0)
(205.793 -0.952854 0)
(206.042 -0.919973 0)
(206.405 -0.915837 0)
(206.826 -0.971131 0)
(207.32 -1.02476 0)
(207.846 -1.09338 0)
(208.364 -1.13582 0)
(208.86 -1.14979 0)
(209.337 -1.13417 0)
(209.789 -1.09219 0)
(210.205 -1.01405 0)
(210.579 -0.894537 0)
(210.923 -0.740296 0)
(211.253 -0.557341 0)
(211.572 -0.344153 0)
(211.876 -0.0972612 0)
(212.154 0.184542 0)
(212.41 0.499836 0)
(212.645 0.847389 0)
(212.863 1.22729 0)
(213.06 1.64176 0)
(213.238 2.09191 0)
(213.397 2.57787 0)
(213.537 3.09856 0)
(213.662 3.6519 0)
(213.773 4.23704 0)
(213.866 4.85276 0)
(213.944 5.49826 0)
(214.006 6.17283 0)
(214.054 6.87582 0)
(214.085 7.60683 0)
(214.097 8.3658 0)
(214.09 9.1528 0)
(214.064 9.96754 0)
(214.019 10.8099 0)
(213.952 11.6814 0)
(213.869 12.5772 0)
(213.76 13.5066 0)
(213.633 14.4647 0)
(213.487 15.4514 0)
(213.322 16.4679 0)
(213.138 17.5145 0)
(212.936 18.5918 0)
(212.718 19.7004 0)
(212.483 20.841 0)
(212.233 22.0147 0)
(211.969 23.2218 0)
(211.693 24.4629 0)
(211.407 25.739 0)
(211.112 27.0513 0)
(210.81 28.4008 0)
(210.503 29.7887 0)
(210.192 31.2176 0)
(209.883 32.6859 0)
(209.575 34.1979 0)
(209.274 35.7542 0)
(208.972 37.3634 0)
(208.694 39.0125 0)
(208.43 40.7155 0)
(208.183 42.4699 0)
(207.971 44.2818 0)
(207.783 46.1505 0)
(207.639 48.0775 0)
(207.54 50.0665 0)
(207.492 52.1175 0)
(207.516 54.2357 0)
(207.602 56.4197 0)
(207.791 58.6747 0)
(208.054 60.9982 0)
(208.449 63.3963 0)
(208.952 65.8658 0)
(209.6 68.4076 0)
(210.406 71.0183 0)
(211.38 73.6932 0)
(212.569 76.426 0)
(213.949 79.2171 0)
(215.619 82.0552 0)
(217.5 84.9423 0)
(219.75 87.838 0)
(222.236 90.7462 0)
(225.12 93.6206 0)
(228.313 96.4664 0)
(231.868 99.2841 0)
(235.921 101.958 0)
(240.242 104.612 0)
(245.174 106.996 0)
(250.467 109.312 0)
(256.305 111.293 0)
(262.708 113.084 0)
(269.516 114.454 0)
(276.665 115.369 0)
(283.96 115.999 0)
(291.705 116.348 0)
(298.544 116.505 0)
(306.517 116.106 0)
(313.376 115.522 0)
(320.914 114.431 0)
(328.478 113.006 0)
(335.285 111.594 0)
(342.406 109.462 0)
(347.507 106.87 0)
(351.526 104.253 0)
(357.019 102.169 0)
(367.552 100.283 0)
(371.196 106.061 0)
(208.584 0.592789 0)
(208.622 0.463721 0)
(208.477 0.56374 0)
(208.632 0.632834 0)
(209.285 0.535524 0)
(210.272 0.354838 0)
(211.11 0.207664 0)
(211.59 0.158036 0)
(211.817 0.240853 0)
(211.744 0.264636 0)
(211.125 0.220798 0)
(209.895 0.0533472 0)
(208.415 -0.191842 0)
(207.171 -0.443179 0)
(206.378 -0.597685 0)
(206.088 -0.693698 0)
(206.048 -0.749684 0)
(206.103 -0.735935 0)
(206.326 -0.765813 0)
(206.735 -0.821585 0)
(207.228 -0.889118 0)
(207.729 -0.962124 0)
(208.215 -1.01742 0)
(208.701 -1.04715 0)
(209.179 -1.04521 0)
(209.628 -1.01023 0)
(210.028 -0.931937 0)
(210.383 -0.814363 0)
(210.719 -0.671674 0)
(211.041 -0.503349 0)
(211.342 -0.302112 0)
(211.62 -0.0635103 0)
(211.875 0.211497 0)
(212.113 0.518759 0)
(212.336 0.857003 0)
(212.54 1.22732 0)
(212.721 1.63194 0)
(212.88 2.07146 0)
(213.016 2.54625 0)
(213.135 3.05499 0)
(213.239 3.59598 0)
(213.327 4.16875 0)
(213.397 4.77176 0)
(213.452 5.4041 0)
(213.492 6.06502 0)
(213.518 6.75398 0)
(213.525 7.47057 0)
(213.514 8.21435 0)
(213.484 8.9861 0)
(213.433 9.78485 0)
(213.365 10.6087 0)
(213.275 11.4613 0)
(213.162 12.3438 0)
(213.029 13.2532 0)
(212.876 14.1907 0)
(212.702 15.1573 0)
(212.507 16.1533 0)
(212.292 17.1792 0)
(212.058 18.2351 0)
(211.806 19.3214 0)
(211.536 20.4392 0)
(211.25 21.5892 0)
(210.947 22.7721 0)
(210.63 23.9885 0)
(210.301 25.2392 0)
(209.96 26.5251 0)
(209.609 27.8474 0)
(209.25 29.2072 0)
(208.886 30.6061 0)
(208.516 32.0464 0)
(208.144 33.529 0)
(207.774 35.0563 0)
(207.409 36.6263 0)
(207.053 38.2442 0)
(206.702 39.9157 0)
(206.367 41.6355 0)
(206.059 43.4087 0)
(205.764 45.2415 0)
(205.51 47.1307 0)
(205.289 49.0826 0)
(205.111 51.0954 0)
(204.991 53.1752 0)
(204.923 55.3205 0)
(204.942 57.5375 0)
(205.023 59.8234 0)
(205.219 62.1863 0)
(205.504 64.6226 0)
(205.917 67.1362 0)
(206.464 69.7261 0)
(207.158 72.3928 0)
(208.036 75.1373 0)
(209.08 77.9584 0)
(210.38 80.8459 0)
(211.867 83.7922 0)
(213.693 86.7765 0)
(215.734 89.8107 0)
(218.176 92.8667 0)
(220.913 95.9384 0)
(224.046 98.9865 0)
(227.622 101.952 0)
(231.494 104.914 0)
(235.97 107.64 0)
(240.65 110.346 0)
(245.964 112.772 0)
(251.682 115.068 0)
(257.802 116.934 0)
(264.852 118.791 0)
(271.596 119.89 0)
(279.815 121.018 0)
(287.216 121.271 0)
(295.858 121.224 0)
(303.77 120.743 0)
(311.523 120.146 0)
(319.64 119.186 0)
(326.496 118.392 0)
(333.836 116.766 0)
(339.003 114.774 0)
(343.024 112.298 0)
(348.269 110.637 0)
(359.891 108.644 0)
(363.663 115.677 0)
(208.95 0.48498 0)
(208.639 0.410202 0)
(208.422 0.50222 0)
(208.488 0.618723 0)
(208.941 0.577994 0)
(209.828 0.417239 0)
(210.772 0.277208 0)
(211.468 0.281755 0)
(211.82 0.335075 0)
(211.954 0.464634 0)
(211.862 0.565801 0)
(211.279 0.610766 0)
(210.16 0.514312 0)
(208.832 0.27249 0)
(207.708 -0.0205379 0)
(206.902 -0.243113 0)
(206.405 -0.367176 0)
(206.323 -0.471012 0)
(206.465 -0.519019 0)
(206.79 -0.625676 0)
(207.2 -0.723284 0)
(207.64 -0.8074 0)
(208.102 -0.884701 0)
(208.572 -0.937866 0)
(209.028 -0.956792 0)
(209.448 -0.931037 0)
(209.827 -0.84954 0)
(210.182 -0.734864 0)
(210.525 -0.599861 0)
(210.841 -0.436449 0)
(211.118 -0.237734 0)
(211.366 -0.00266388 0)
(211.595 0.264882 0)
(211.816 0.560932 0)
(212.024 0.887536 0)
(212.211 1.24736 0)
(212.372 1.64136 0)
(212.511 2.06922 0)
(212.626 2.53145 0)
(212.723 3.02646 0)
(212.803 3.55338 0)
(212.866 4.11196 0)
(212.912 4.70024 0)
(212.944 5.31736 0)
(212.961 5.96252 0)
(212.964 6.635 0)
(212.947 7.33552 0)
(212.913 8.06179 0)
(212.859 8.81498 0)
(212.787 9.59294 0)
(212.693 10.4006 0)
(212.579 11.2342 0)
(212.443 12.0941 0)
(212.286 12.982 0)
(212.106 13.8979 0)
(211.905 14.8421 0)
(211.683 15.8148 0)
(211.44 16.8164 0)
(211.176 17.8473 0)
(210.894 18.908 0)
(210.592 19.9992 0)
(210.271 21.122 0)
(209.934 22.277 0)
(209.579 23.4646 0)
(209.21 24.6857 0)
(208.827 25.9412 0)
(208.432 27.2324 0)
(208.026 28.5604 0)
(207.61 29.9266 0)
(207.187 31.3324 0)
(206.758 32.7794 0)
(206.326 34.2697 0)
(205.892 35.8057 0)
(205.459 37.3889 0)
(205.034 39.0194 0)
(204.618 40.6996 0)
(204.218 42.433 0)
(203.816 44.2325 0)
(203.456 46.0787 0)
(203.112 47.9915 0)
(202.807 49.9661 0)
(202.544 52.0103 0)
(202.322 54.122 0)
(202.172 56.3083 0)
(202.069 58.5661 0)
(202.067 60.9055 0)
(202.136 63.3226 0)
(202.317 65.8238 0)
(202.613 68.4087 0)
(203.037 71.0776 0)
(203.624 73.8315 0)
(204.36 76.6679 0)
(205.322 79.5834 0)
(206.451 82.5711 0)
(207.89 85.6201 0)
(209.524 88.7307 0)
(211.534 91.8824 0)
(213.796 95.0765 0)
(216.453 98.2894 0)
(219.493 101.503 0)
(222.871 104.745 0)
(226.841 107.869 0)
(231.061 111.016 0)
(235.958 113.852 0)
(241.112 116.649 0)
(246.913 119.153 0)
(253.077 121.38 0)
(259.8 123.288 0)
(266.742 124.843 0)
(274.443 126.118 0)
(281.93 126.856 0)
(290.835 127.289 0)
(298.808 127.06 0)
(308.194 126.365 0)
(316.6 125.11 0)
(325.634 123.098 0)
(332.116 120.838 0)
(337.281 118.071 0)
(342.963 116.596 0)
(354.755 115.502 0)
(358.213 123.848 0)
(209.253 0.349352 0)
(208.722 0.337778 0)
(208.397 0.492669 0)
(208.401 0.588894 0)
(208.664 0.593011 0)
(209.383 0.476418 0)
(210.325 0.340166 0)
(211.16 0.352822 0)
(211.704 0.429204 0)
(211.914 0.545551 0)
(211.963 0.693743 0)
(211.856 0.863487 0)
(211.343 1.00325 0)
(210.413 0.966227 0)
(209.261 0.75067 0)
(208.182 0.450357 0)
(207.398 0.169011 0)
(207.001 -0.0704841 0)
(206.948 -0.260045 0)
(206.967 -0.385611 0)
(207.182 -0.545524 0)
(207.577 -0.653124 0)
(208.052 -0.721026 0)
(208.511 -0.786083 0)
(208.919 -0.81637 0)
(209.292 -0.806668 0)
(209.646 -0.748382 0)
(209.995 -0.662731 0)
(210.328 -0.547423 0)
(210.622 -0.392265 0)
(210.873 -0.197357 0)
(211.098 0.0314529 0)
(211.31 0.288021 0)
(211.515 0.570614 0)
(211.705 0.884863 0)
(211.871 1.23389 0)
(212.014 1.6168 0)
(212.134 2.03296 0)
(212.23 2.48299 0)
(212.308 2.96479 0)
(212.364 3.47831 0)
(212.403 4.02322 0)
(212.424 4.59723 0)
(212.433 5.19946 0)
(212.426 5.83013 0)
(212.405 6.48695 0)
(212.362 7.17186 0)
(212.307 7.87844 0)
(212.229 8.61588 0)
(212.131 9.37873 0)
(212.014 10.1667 0)
(211.876 10.9807 0)
(211.715 11.8214 0)
(211.532 12.6893 0)
(211.326 13.5844 0)
(211.097 14.5069 0)
(210.847 15.4573 0)
(210.574 16.4361 0)
(210.279 17.4436 0)
(209.964 18.4802 0)
(209.629 19.5466 0)
(209.274 20.6438 0)
(208.899 21.7724 0)
(208.506 22.933 0)
(208.096 24.1263 0)
(207.67 25.3531 0)
(207.229 26.6146 0)
(206.774 27.9119 0)
(206.308 29.2463 0)
(205.83 30.6196 0)
(205.343 32.0333 0)
(204.849 33.489 0)
(204.35 34.9884 0)
(203.848 36.5331 0)
(203.347 38.1258 0)
(202.848 39.7688 0)
(202.355 41.4654 0)
(201.875 43.2122 0)
(201.412 45.0173 0)
(200.952 46.8907 0)
(200.53 48.8171 0)
(200.138 50.8117 0)
(199.78 52.8744 0)
(199.479 55.0111 0)
(199.214 57.2195 0)
(199.036 59.5095 0)
(198.911 61.8767 0)
(198.884 64.3305 0)
(198.948 66.8705 0)
(199.122 69.4999 0)
(199.431 72.2225 0)
(199.865 75.0377 0)
(200.493 77.9477 0)
(201.265 80.9465 0)
(202.312 84.0363 0)
(203.53 87.2156 0)
(205.096 90.476 0)
(206.882 93.8122 0)
(209.057 97.205 0)
(211.565 100.643 0)
(214.435 104.117 0)
(217.825 107.536 0)
(221.482 110.994 0)
(225.868 114.267 0)
(230.501 117.559 0)
(235.851 120.523 0)
(241.642 123.443 0)
(248.051 125.968 0)
(254.739 128.066 0)
(262.324 129.992 0)
(269.55 131.447 0)
(277.535 132.609 0)
(285.662 133.38 0)
(293.406 133.671 0)
(302.565 133.575 0)
(310.711 132.827 0)
(318.157 131.399 0)
(324.295 129.265 0)
(330.515 127.609 0)
(342.904 126.004 0)
(346.222 133.988 0)
(209.493 0.217909 0)
(208.875 0.280124 0)
(208.417 0.466551 0)
(208.358 0.549449 0)
(208.457 0.597183 0)
(208.995 0.544719 0)
(209.862 0.407543 0)
(210.731 0.394466 0)
(211.405 0.46953 0)
(211.782 0.603116 0)
(211.895 0.761337 0)
(211.889 0.937206 0)
(211.731 1.16089 0)
(211.313 1.35129 0)
(210.61 1.37453 0)
(209.711 1.19949 0)
(208.76 0.903312 0)
(207.966 0.577085 0)
(207.502 0.275348 0)
(207.38 0.00367044 0)
(207.5 -0.210792 0)
(207.756 -0.41528 0)
(208.064 -0.536028 0)
(208.396 -0.638015 0)
(208.772 -0.680167 0)
(209.156 -0.683374 0)
(209.516 -0.646074 0)
(209.85 -0.583886 0)
(210.143 -0.483715 0)
(210.395 -0.336861 0)
(210.622 -0.145653 0)
(210.834 0.0780391 0)
(211.036 0.32768 0)
(211.223 0.602825 0)
(211.386 0.908763 0)
(211.527 1.24692 0)
(211.649 1.61632 0)
(211.749 2.01839 0)
(211.826 2.4542 0)
(211.882 2.92142 0)
(211.913 3.42023 0)
(211.926 3.94957 0)
(211.924 4.50792 0)
(211.909 5.09343 0)
(211.875 5.70758 0)
(211.831 6.34446 0)
(211.764 7.01075 0)
(211.682 7.70286 0)
(211.58 8.4195 0)
(211.46 9.16138 0)
(211.319 9.9287 0)
(211.157 10.7215 0)
(210.972 11.5402 0)
(210.765 12.3852 0)
(210.534 13.2567 0)
(210.28 14.155 0)
(210.002 15.0805 0)
(209.702 16.0336 0)
(209.379 17.0146 0)
(209.035 18.0238 0)
(208.669 19.062 0)
(208.282 20.13 0)
(207.874 21.2286 0)
(207.446 22.3584 0)
(206.999 23.5199 0)
(206.535 24.7139 0)
(206.053 25.9417 0)
(205.554 27.2043 0)
(205.041 28.5031 0)
(204.514 29.8395 0)
(203.975 31.2151 0)
(203.424 32.6316 0)
(202.864 34.0909 0)
(202.297 35.5947 0)
(201.725 37.1449 0)
(201.15 38.7437 0)
(200.577 40.394 0)
(200.005 42.0992 0)
(199.438 43.862 0)
(198.885 45.6805 0)
(198.351 47.561 0)
(197.828 49.5115 0)
(197.332 51.529 0)
(196.88 53.6166 0)
(196.452 55.7801 0)
(196.099 58.0272 0)
(195.78 60.3546 0)
(195.547 62.7709 0)
(195.384 65.2768 0)
(195.315 67.876 0)
(195.359 70.5729 0)
(195.513 73.3662 0)
(195.832 76.2621 0)
(196.276 79.2559 0)
(196.959 82.3561 0)
(197.784 85.5521 0)
(198.923 88.8441 0)
(200.245 92.2234 0)
(201.932 95.6858 0)
(203.893 99.2213 0)
(206.22 102.817 0)
(208.996 106.429 0)
(212.076 110.091 0)
(215.821 113.669 0)
(219.793 117.324 0)
(224.579 120.761 0)
(229.651 124.192 0)
(235.47 127.346 0)
(241.933 130.424 0)
(248.938 132.915 0)
(256.868 135.227 0)
(264.697 136.75 0)
(273.866 138.055 0)
(281.737 138.748 0)
(291.821 139.272 0)
(299.607 139.541 0)
(307.508 138.805 0)
(314.053 137.229 0)
(320.131 136.279 0)
(333.432 135.069 0)
(336.226 144.819 0)
(209.682 0.12127 0)
(209.071 0.219028 0)
(208.493 0.4176 0)
(208.325 0.522306 0)
(208.311 0.602479 0)
(208.676 0.594198 0)
(209.434 0.46657 0)
(210.27 0.425396 0)
(210.99 0.482197 0)
(211.497 0.61379 0)
(211.733 0.794537 0)
(211.806 0.980412 0)
(211.73 1.19357 0)
(211.514 1.43975 0)
(211.196 1.63145 0)
(210.751 1.72606 0)
(210.11 1.60677 0)
(209.359 1.33611 0)
(208.716 0.971345 0)
(208.317 0.577642 0)
(208.093 0.232185 0)
(208.018 -0.0493652 0)
(208.119 -0.290785 0)
(208.387 -0.419908 0)
(208.743 -0.492876 0)
(209.118 -0.526234 0)
(209.465 -0.506849 0)
(209.755 -0.454784 0)
(209.992 -0.367608 0)
(210.2 -0.250789 0)
(210.397 -0.0966259 0)
(210.585 0.0958452 0)
(210.762 0.327418 0)
(210.921 0.594477 0)
(211.058 0.894593 0)
(211.181 1.22303 0)
(211.287 1.57904 0)
(211.367 1.96676 0)
(211.424 2.38781 0)
(211.458 2.84031 0)
(211.465 3.32474 0)
(211.456 3.83913 0)
(211.429 4.38217 0)
(211.391 4.94935 0)
(211.332 5.54697 0)
(211.259 6.17036 0)
(211.169 6.81828 0)
(211.062 7.49099 0)
(210.938 8.1889 0)
(210.793 8.91178 0)
(210.628 9.65942 0)
(210.441 10.4318 0)
(210.231 11.2294 0)
(209.998 12.0525 0)
(209.742 12.9016 0)
(209.461 13.7769 0)
(209.156 14.6785 0)
(208.828 15.6071 0)
(208.476 16.5628 0)
(208.101 17.5462 0)
(207.703 18.5576 0)
(207.283 19.5981 0)
(206.841 20.6683 0)
(206.376 21.7689 0)
(205.891 22.9003 0)
(205.386 24.0633 0)
(204.862 25.2591 0)
(204.319 26.4886 0)
(203.759 27.7531 0)
(203.182 29.0541 0)
(202.59 30.3931 0)
(201.983 31.7717 0)
(201.363 33.1917 0)
(200.731 34.6547 0)
(200.091 36.1629 0)
(199.444 37.7181 0)
(198.791 39.3231 0)
(198.136 40.9801 0)
(197.481 42.6921 0)
(196.83 44.4623 0)
(196.186 46.2938 0)
(195.555 48.1864 0)
(194.947 50.1436 0)
(194.36 52.1739 0)
(193.784 54.282 0)
(193.277 56.4618 0)
(192.783 58.726 0)
(192.373 61.0776 0)
(192.005 63.5208 0)
(191.718 66.0581 0)
(191.517 68.6964 0)
(191.406 71.4369 0)
(191.428 74.29 0)
(191.551 77.2513 0)
(191.875 80.3331 0)
(192.316 83.5207 0)
(193.039 86.8269 0)
(193.914 90.2395 0)
(195.132 93.766 0)
(196.582 97.3906 0)
(198.397 101.105 0)
(200.594 104.888 0)
(203.119 108.75 0)
(206.232 112.612 0)
(209.586 116.55 0)
(213.712 120.367 0)
(218.065 124.248 0)
(223.241 127.837 0)
(228.754 131.348 0)
(235.024 134.642 0)
(241.899 137.776 0)
(249.287 140.312 0)
(257.718 142.682 0)
(266.18 144.411 0)
(275.703 145.976 0)
(285.792 146.526 0)
(295.235 145.968 0)
(303.518 144.414 0)
(310.482 143.098 0)
(323.843 142.215 0)
(326.642 151.881 0)
(209.819 0.0601506 0)
(209.286 0.155175 0)
(208.618 0.352317 0)
(208.304 0.503964 0)
(208.21 0.576171 0)
(208.415 0.608094 0)
(209.052 0.518105 0)
(209.836 0.466887 0)
(210.54 0.493247 0)
(211.102 0.604864 0)
(211.471 0.770937 0)
(211.611 0.988108 0)
(211.636 1.19933 0)
(211.476 1.43303 0)
(211.233 1.68003 0)
(211.049 1.87915 0)
(210.818 1.98387 0)
(210.454 1.94608 0)
(209.975 1.71667 0)
(209.472 1.32866 0)
(209.044 0.891712 0)
(208.784 0.484911 0)
(208.733 0.134218 0)
(208.791 -0.104272 0)
(208.959 -0.27934 0)
(209.155 -0.351188 0)
(209.378 -0.377214 0)
(209.61 -0.352701 0)
(209.834 -0.270066 0)
(210.057 -0.154143 0)
(210.245 -0.0145952 0)
(210.389 0.153059 0)
(210.506 0.36224 0)
(210.618 0.614954 0)
(210.729 0.904223 0)
(210.836 1.22133 0)
(210.925 1.56558 0)
(210.983 1.94033 0)
(211.018 2.34655 0)
(211.025 2.784 0)
(211.008 3.25143 0)
(210.977 3.7465 0)
(210.926 4.27195 0)
(210.858 4.82539 0)
(210.774 5.40402 0)
(210.675 6.00766 0)
(210.561 6.63616 0)
(210.429 7.28919 0)
(210.28 7.96656 0)
(210.111 8.66817 0)
(209.921 9.39386 0)
(209.71 10.1436 0)
(209.477 10.9177 0)
(209.22 11.7167 0)
(208.939 12.5409 0)
(208.634 13.3905 0)
(208.304 14.2657 0)
(207.949 15.167 0)
(207.57 16.0948 0)
(207.167 17.0493 0)
(206.741 18.031 0)
(206.291 19.0406 0)
(205.818 20.0791 0)
(205.321 21.1469 0)
(204.802 22.2446 0)
(204.261 23.3729 0)
(203.7 24.5328 0)
(203.117 25.7252 0)
(202.515 26.9516 0)
(201.893 28.2132 0)
(201.253 29.5114 0)
(200.596 30.848 0)
(199.922 32.2246 0)
(199.232 33.6428 0)
(198.529 35.1047 0)
(197.814 36.6122 0)
(197.09 38.1678 0)
(196.356 39.7741 0)
(195.617 41.4339 0)
(194.873 43.1498 0)
(194.131 44.9249 0)
(193.392 46.7626 0)
(192.662 48.6672 0)
(191.942 50.6402 0)
(191.246 52.6821 0)
(190.583 54.8027 0)
(189.905 57.0191 0)
(189.32 59.3056 0)
(188.746 61.6906 0)
(188.251 64.1707 0)
(187.812 66.7548 0)
(187.453 69.4419 0)
(187.199 72.2426 0)
(187.029 75.1526 0)
(187.027 78.1884 0)
(187.12 81.3357 0)
(187.456 84.6181 0)
(187.912 88.0191 0)
(188.678 91.5595 0)
(189.626 95.2223 0)
(190.919 99.0174 0)
(192.524 102.933 0)
(194.462 106.97 0)
(196.909 111.089 0)
(199.638 115.317 0)
(203.1 119.525 0)
(206.811 123.813 0)
(211.409 127.935 0)
(216.345 132.103 0)
(222.077 135.974 0)
(228.29 139.77 0)
(235.359 143.158 0)