/*--------------------------------*- C++ -*----------------------------------*\
| =========                 |                                                 |
| \\      /  F ield         | OpenFOAM: The Open Source CFD Toolbox           |
|  \\    /   O peration     | Version:  2412                                  |
|   \\  /    A nd           | Website:  www.openfoam.com                      |
|    \\/     M anipulation  |                                                 |
\*---------------------------------------------------------------------------*/
FoamFile
{
    version     2.0;
    format      ascii;
    arch        "LSB;label=32;scalar=64";
    class       volScalarField;
    location    "0.105";
    object      T;
}
// * * * * * * * * * * * * * * * * * * * * * * * * * * * * * * * * * * * * * //

dimensions      [0 0 0 1 0 0 0];

internalField   nonuniform List<scalar> 
9763
(
228.056
229.569
227.986
229.637
227.911
229.59
227.83
229.511
227.752
229.391
227.675
229.262
227.605
229.131
227.54
229.008
227.482
228.891
227.428
228.783
227.38
228.679
227.335
228.58
227.292
228.484
227.25
228.391
227.209
228.298
227.168
228.206
227.125
228.114
227.082
228.02
227.036
227.923
226.987
227.823
226.934
227.719
226.878
227.611
226.818
227.499
226.755
227.382
226.69
227.261
226.622
227.137
226.553
227.008
226.484
226.876
226.413
226.74
226.34
226.602
226.264
226.463
226.18
226.325
226.085
226.188
225.977
226.051
225.863
225.908
225.751
225.755
225.645
225.592
225.544
225.422
225.442
225.252
225.336
225.081
224.911
224.739
224.567
248.146
220.711
222.719
223.975
224.197
224.125
223.946
223.797
223.645
223.509
223.374
223.248
223.12
222.999
222.878
222.757
222.635
222.513
222.389
222.266
222.143
222.018
221.893
221.766
221.637
221.507
221.376
221.244
221.112
220.981
220.851
220.724
220.6
220.48
220.367
220.261
220.164
220.076
219.999
219.931
219.875
219.829
219.796
219.774
219.765
219.765
219.776
219.799
219.83
219.87
219.918
219.973
220.034
220.103
220.181
220.265
220.356
220.459
220.57
220.695
220.848
221
221.173
221.356
221.538
221.724
221.906
222.087
222.27
222.452
222.638
222.824
223.012
223.201
223.391
223.582
223.773
223.963
224.15
224.334
224.514
224.692
224.865
225.04
225.213
225.385
225.555
225.718
225.876
226.031
226.182
226.33
226.472
226.609
226.74
226.865
226.984
227.096
227.202
227.301
227.393
227.48
227.56
227.636
227.709
227.78
227.855
227.932
228.015
228.102
228.192
228.294
228.399
228.501
228.587
228.649
228.682
228.689
228.67
228.673
228.499
248.024
220.726
222.706
223.961
224.187
224.119
223.942
223.794
223.643
223.507
223.373
223.247
223.12
222.999
222.878
222.756
222.634
222.51
222.386
222.262
222.137
222.012
221.885
221.757
221.627
221.496
221.364
221.231
221.097
220.965
220.834
220.705
220.578
220.457
220.341
220.232
220.132
220.042
219.961
219.891
219.831
219.782
219.746
219.721
219.708
219.706
219.714
219.733
219.762
219.799
219.844
219.897
219.956
220.022
220.096
220.178
220.267
220.368
220.478
220.6
220.751
220.9
221.07
221.249
221.428
221.611
221.791
221.971
222.152
222.333
222.518
222.703
222.89
223.078
223.264
223.451
223.636
223.82
224.001
224.181
224.355
224.529
224.697
224.867
225.034
225.204
225.378
225.548
225.715
225.876
226.028
226.171
226.304
226.431
226.551
226.665
226.774
226.876
226.973
227.063
227.147
227.225
227.297
227.365
227.431
227.495
227.566
227.64
227.724
227.816
227.914
228.026
228.148
228.275
228.396
228.503
228.587
228.647
228.683
228.705
228.712
247.976
220.72
222.697
223.953
224.181
224.114
223.938
223.791
223.64
223.505
223.372
223.246
223.119
222.998
222.877
222.755
222.632
222.508
222.383
222.258
222.132
222.005
221.878
221.749
221.618
221.486
221.352
221.218
221.083
220.949
220.816
220.685
220.557
220.433
220.314
220.203
220.1
220.006
219.923
219.849
219.786
219.734
219.693
219.666
219.65
219.644
219.649
219.665
219.691
219.725
219.767
219.817
219.873
219.936
220.007
220.086
220.172
220.27
220.377
220.495
220.642
220.787
220.952
221.126
221.301
221.48
221.657
221.835
222.012
222.189
222.369
222.548
222.73
222.912
223.093
223.274
223.453
223.631
223.807
223.981
224.15
224.317
224.479
224.641
224.802
224.964
225.13
225.293
225.452
225.606
225.752
225.888
226.015
226.135
226.247
226.354
226.456
226.551
226.642
226.726
226.805
226.878
226.945
227.007
227.068
227.127
227.191
227.258
227.337
227.422
227.514
227.625
227.746
227.875
227.998
228.107
228.194
228.258
228.303
228.337
228.362
247.977
220.712
222.688
223.945
224.175
224.109
223.934
223.788
223.638
223.504
223.371
223.245
223.119
222.998
222.877
222.755
222.631
222.506
222.38
222.254
222.127
221.999
221.871
221.74
221.609
221.476
221.341
221.205
221.069
220.934
220.799
220.666
220.536
220.41
220.289
220.175
220.069
219.972
219.886
219.809
219.742
219.687
219.643
219.612
219.593
219.584
219.586
219.598
219.621
219.653
219.692
219.739
219.792
219.853
219.92
219.996
220.08
220.175
220.279
220.394
220.537
220.676
220.836
221.005
221.175
221.35
221.523
221.697
221.871
222.043
222.217
222.389
222.562
222.736
222.909
223.083
223.257
223.432
223.604
223.774
223.939
224.102
224.259
224.415
224.568
224.722
224.879
225.029
225.177
225.318
225.451
225.577
225.692
225.801
225.903
226
226.093
226.181
226.264
226.343
226.416
226.484
226.547
226.607
226.664
226.722
226.783
226.849
226.926
227.011
227.106
227.219
227.345
227.478
227.608
227.721
227.813
227.881
227.93
227.966
227.991
247.956
220.704
222.679
223.938
224.169
224.104
223.931
223.785
223.636
223.502
223.369
223.244
223.118
222.998
222.876
222.754
222.63
222.504
222.377
222.25
222.122
221.993
221.864
221.733
221.6
221.466
221.33
221.193
221.056
220.919
220.783
220.649
220.516
220.388
220.264
220.148
220.039
219.94
219.85
219.77
219.7
219.641
219.594
219.56
219.537
219.526
219.524
219.533
219.553
219.582
219.618
219.662
219.713
219.77
219.835
219.908
219.989
220.081
220.182
220.293
220.432
220.566
220.722
220.886
221.052
221.223
221.392
221.563
221.732
221.899
222.067
222.233
222.399
222.566
222.733
222.901
223.071
223.241
223.409
223.576
223.736
223.893
224.042
224.19
224.335
224.481
224.63
224.774
224.915
225.051
225.178
225.296
225.404
225.505
225.598
225.686
225.771
225.85
225.925
225.996
226.061
226.122
226.178
226.23
226.281
226.333
226.387
226.448
226.517
226.595
226.687
226.797
226.923
227.056
227.186
227.302
227.396
227.465
227.513
227.546
227.569
247.951
220.695
222.671
223.931
224.163
224.099
223.927
223.782
223.634
223.501
223.368
223.244
223.118
222.997
222.876
222.753
222.628
222.502
222.374
222.246
222.117
221.988
221.857
221.725
221.592
221.456
221.32
221.182
221.043
220.905
220.767
220.631
220.497
220.366
220.24
220.121
220.01
219.907
219.814
219.731
219.658
219.596
219.546
219.508
219.482
219.468
219.463
219.469
219.486
219.512
219.546
219.587
219.634
219.689
219.751
219.822
219.9
219.989
220.087
220.194
220.328
220.458
220.609
220.77
220.933
221.101
221.266
221.432
221.597
221.76
221.924
222.084
222.246
222.408
222.57
222.733
222.897
223.062
223.226
223.387
223.543
223.694
223.838
223.98
224.117
224.256
224.398
224.534
224.668
224.796
224.915
225.026
225.127
225.221
225.308
225.39
225.468
225.542
225.612
225.677
225.738
225.794
225.845
225.893
225.939
225.986
226.035
226.091
226.154
226.225
226.314
226.42
226.543
226.673
226.802
226.917
227.01
227.079
227.125
227.149
227.148
247.934
220.685
222.662
223.924
224.157
224.094
223.923
223.78
223.632
223.499
223.367
223.243
223.117
222.997
222.875
222.752
222.627
222.5
222.371
222.242
222.112
221.982
221.851
221.718
221.583
221.447
221.309
221.17
221.03
220.891
220.751
220.614
220.478
220.345
220.216
220.095
219.98
219.875
219.779
219.693
219.616
219.551
219.497
219.456
219.426
219.409
219.402
219.404
219.417
219.44
219.471
219.509
219.554
219.606
219.666
219.733
219.808
219.894
219.988
220.092
220.222
220.346
220.493
220.651
220.812
220.977
221.139
221.3
221.46
221.619
221.78
221.939
222.099
222.26
222.419
222.578
222.737
222.895
223.051
223.204
223.352
223.495
223.632
223.767
223.898
224.032
224.17
224.303
224.434
224.559
224.675
224.783
224.88
224.97
225.053
225.131
225.206
225.276
225.343
225.405
225.463
225.516
225.565
225.611
225.654
225.698
225.745
225.798
225.857
225.926
226.013
226.117
226.238
226.368
226.497
226.613
226.706
226.772
226.817
226.852
226.872
247.923
220.675
222.652
223.916
224.15
224.089
223.919
223.777
223.629
223.497
223.366
223.242
223.117
222.997
222.875
222.752
222.626
222.498
222.369
222.238
222.108
221.976
221.844
221.71
221.574
221.437
221.299
221.159
221.018
220.876
220.736
220.596
220.458
220.323
220.192
220.068
219.951
219.842
219.743
219.653
219.574
219.505
219.448
219.403
219.37
219.349
219.339
219.338
219.347
219.367
219.396
219.431
219.473
219.522
219.578
219.643
219.715
219.797
219.888
219.988
220.113
220.233
220.375
220.53
220.688
220.85
221.008
221.166
221.321
221.475
221.632
221.789
221.949
222.109
222.267
222.424
222.577
222.727
222.874
223.018
223.157
223.292
223.421
223.549
223.675
223.803
223.934
224.062
224.188
224.309
224.421
224.525
224.619
224.706
224.785
224.861
224.933
225.002
225.067
225.129
225.186
225.239
225.286
225.331
225.374
225.416
225.462
225.512
225.568
225.636
225.722
225.825
225.943
226.071
226.199
226.316
226.409
226.473
226.513
226.542
226.575
247.91
220.666
222.642
223.908
224.144
224.084
223.915
223.774
223.627
223.496
223.364
223.241
223.116
222.996
222.874
222.751
222.625
222.496
222.366
222.235
222.103
221.971
221.837
221.702
221.566
221.428
221.288
221.147
221.004
220.862
220.719
220.578
220.438
220.301
220.168
220.04
219.92
219.809
219.706
219.613
219.53
219.458
219.397
219.348
219.312
219.287
219.274
219.27
219.275
219.292
219.317
219.349
219.388
219.434
219.488
219.549
219.617
219.696
219.783
219.879
220.001
220.116
220.254
220.404
220.558
220.717
220.871
221.025
221.175
221.324
221.477
221.631
221.789
221.948
222.105
222.259
222.407
222.551
222.69
222.824
222.953
223.079
223.2
223.32
223.439
223.562
223.689
223.813
223.936
224.053
224.162
224.261
224.351
224.434
224.509
224.582
224.65
224.715
224.776
224.834
224.888
224.937
224.981
225.022
225.059
225.098
225.138
225.182
225.232
225.296
225.376
225.473
225.585
225.708
225.832
225.946
226.039
226.103
226.14
226.157
226.149
247.898
220.657
222.633
223.9
224.137
224.079
223.911
223.771
223.625
223.494
223.363
223.24
223.116
222.996
222.874
222.75
222.623
222.494
222.363
222.231
222.098
221.965
221.83
221.695
221.557
221.418
221.277
221.135
220.991
220.847
220.703
220.56
220.418
220.279
220.143
220.013
219.89
219.775
219.669
219.573
219.486
219.41
219.346
219.293
219.253
219.225
219.208
219.201
219.203
219.216
219.238
219.266
219.302
219.345
219.396
219.453
219.518
219.594
219.677
219.768
219.886
219.998
220.132
220.277
220.426
220.58
220.73
220.88
221.025
221.169
221.315
221.461
221.612
221.766
221.919
222.069
222.215
222.356
222.489
222.618
222.741
222.859
222.972
223.086
223.198
223.314
223.434
223.552
223.67
223.782
223.886
223.981
224.067
224.146
224.217
224.286
224.351
224.413
224.472
224.528
224.579
224.625
224.667
224.705
224.74
224.776
224.812
224.85
224.898
224.959
225.035
225.129
225.239
225.359
225.481
225.594
225.687
225.752
225.788
225.803
225.799
247.886
220.648
222.622
223.892
224.13
224.074
223.908
223.768
223.623
223.492
223.362
223.24
223.115
222.996
222.874
222.749
222.622
222.492
222.36
222.227
222.093
221.959
221.824
221.687
221.548
221.408
221.267
221.123
220.978
220.833
220.687
220.542
220.398
220.256
220.118
219.985
219.859
219.741
219.632
219.532
219.442
219.362
219.293
219.237
219.193
219.16
219.14
219.13
219.128
219.137
219.156
219.181
219.214
219.254
219.301
219.355
219.416
219.488
219.566
219.654
219.769
219.878
220.009
220.15
220.294
220.442
220.587
220.731
220.871
221.009
221.148
221.285
221.427
221.57
221.715
221.86
222.003
222.141
222.273
222.399
222.518
222.632
222.74
222.847
222.953
223.063
223.179
223.292
223.405
223.513
223.614
223.705
223.787
223.862
223.93
223.996
224.058
224.117
224.174
224.228
224.277
224.321
224.361
224.397
224.43
224.462
224.496
224.532
224.578
224.636
224.71
224.802
224.911
225.03
225.153
225.266
225.361
225.427
225.465
225.479
225.479
247.876
220.638
222.612
223.884
224.123
224.068
223.903
223.764
223.62
223.49
223.361
223.239
223.115
222.995
222.873
222.749
222.621
222.49
222.357
222.223
222.089
221.953
221.817
221.679
221.54
221.399
221.256
221.111
220.965
220.818
220.671
220.524
220.378
220.234
220.093
219.957
219.828
219.707
219.594
219.491
219.397
219.313
219.241
219.18
219.132
219.096
219.071
219.058
219.053
219.057
219.072
219.095
219.125
219.161
219.204
219.255
219.313
219.381
219.455
219.539
219.65
219.756
219.885
220.023
220.163
220.307
220.446
220.585
220.719
220.851
220.981
221.109
221.24
221.372
221.505
221.641
221.777
221.912
222.044
222.171
222.289
222.401
222.506
222.608
222.709
222.812
222.921
223.029
223.137
223.24
223.337
223.425
223.504
223.575
223.641
223.706
223.766
223.825
223.881
223.934
223.983
224.026
224.066
224.101
224.134
224.165
224.198
224.234
224.279
224.336
224.409
224.5
224.609
224.729
224.853
224.969
225.066
225.136
225.177
225.195
225.197
247.866
220.627
222.602
223.875
224.116
224.063
223.899
223.761
223.618
223.489
223.359
223.238
223.114
222.995
222.873
222.748
222.62
222.488
222.355
222.22
222.084
221.947
221.81
221.671
221.531
221.389
221.245
221.099
220.952
220.803
220.655
220.506
220.358
220.212
220.068
219.93
219.797
219.672
219.556
219.449
219.352
219.264
219.187
219.122
219.07
219.03
219.002
218.984
218.976
218.977
218.988
219.007
219.034
219.066
219.106
219.153
219.207
219.273
219.342
219.421
219.529
219.632
219.758
219.893
220.031
220.171
220.306
220.439
220.567
220.692
220.816
220.936
221.058
221.18
221.303
221.429
221.557
221.686
221.815
221.94
222.058
222.168
222.27
222.369
222.465
222.564
222.667
222.771
222.874
222.974
223.067
223.152
223.228
223.297
223.36
223.423
223.481
223.539
223.594
223.647
223.695
223.739
223.778
223.812
223.844
223.875
223.908
223.944
223.988
224.044
224.117
224.208
224.317
224.438
224.564
224.681
224.781
224.854
224.898
224.919
224.925
247.857
220.617
222.591
223.867
224.109
224.058
223.895
223.758
223.615
223.487
223.358
223.237
223.114
222.994
222.872
222.747
222.618
222.486
222.352
222.216
222.079
221.942
221.803
221.664
221.522
221.38
221.235
221.088
220.939
220.789
220.638
220.488
220.338
220.189
220.043
219.902
219.766
219.638
219.518
219.408
219.306
219.215
219.134
219.065
219.008
218.964
218.932
218.91
218.899
218.896
218.902
218.918
218.942
218.971
219.007
219.051
219.102
219.163
219.229
219.303
219.406
219.505
219.628
219.76
219.895
220.032
220.164
220.292
220.415
220.534
220.652
220.768
220.884
221.001
221.117
221.233
221.352
221.473
221.594
221.714
221.828
221.935
222.033
222.128
222.22
222.314
222.412
222.511
222.61
222.706
222.796
222.878
222.951
223.018
223.079
223.141
223.198
223.255
223.31
223.363
223.412
223.456
223.495
223.53
223.562
223.593
223.627
223.663
223.707
223.763
223.836
223.927
224.037
224.16
224.288
224.408
224.51
224.586
224.635
224.659
224.668
247.849
220.606
222.581
223.858
224.102
224.052
223.891
223.755
223.613
223.485
223.357
223.236
223.113
222.994
222.872
222.747
222.617
222.484
222.349
222.212
222.074
221.936
221.797
221.656
221.514
221.37
221.224
221.076
220.926
220.775
220.622
220.47
220.318
220.167
220.019
219.874
219.735
219.604
219.48
219.366
219.261
219.165
219.08
219.007
218.946
218.897
218.861
218.835
218.82
218.814
218.816
218.828
218.848
218.874
218.907
218.947
218.994
219.052
219.114
219.185
219.283
219.378
219.495
219.622
219.753
219.886
220.014
220.139
220.258
220.373
220.488
220.601
220.715
220.83
220.943
221.055
221.165
221.276
221.387
221.497
221.602
221.702
221.796
221.886
221.974
222.065
222.159
222.254
222.349
222.443
222.53
222.609
222.68
222.744
222.803
222.863
222.919
222.975
223.029
223.082
223.131
223.175
223.214
223.248
223.28
223.312
223.345
223.381
223.425
223.481
223.553
223.645
223.755
223.88
224.01
224.132
224.237
224.315
224.366
224.395
224.407
247.841
220.595
222.57
223.85
224.095
224.047
223.887
223.752
223.611
223.483
223.355
223.235
223.113
222.994
222.871
222.746
222.616
222.483
222.346
222.208
222.07
221.93
221.79
221.649
221.505
221.361
221.214
221.064
220.913
220.76
220.607
220.452
220.298
220.145
219.994
219.847
219.705
219.57
219.442
219.324
219.215
219.115
219.026
218.948
218.883
218.831
218.79
218.76
218.741
218.732
218.73
218.738
218.754
218.777
218.806
218.843
218.887
218.942
219
219.066
219.159
219.25
219.362
219.483
219.606
219.733
219.857
219.979
220.095
220.207
220.318
220.427
220.538
220.652
220.763
220.873
220.981
221.085
221.188
221.287
221.382
221.473
221.559
221.643
221.726
221.812
221.902
221.994
222.087
222.178
222.262
222.338
222.406
222.468
222.526
222.583
222.638
222.693
222.747
222.8
222.849
222.893
222.932
222.967
222.999
223.03
223.064
223.1
223.144
223.2
223.272
223.364
223.476
223.602
223.734
223.86
223.967
224.047
224.101
224.132
224.147
247.837
220.583
222.56
223.841
224.088
224.041
223.883
223.749
223.608
223.482
223.354
223.235
223.112
222.993
222.871
222.745
222.615
222.481
222.344
222.205
222.065
221.925
221.784
221.641
221.497
221.351
221.203
221.053
220.9
220.746
220.591
220.435
220.279
220.123
219.97
219.819
219.674
219.535
219.405
219.282
219.169
219.066
218.972
218.89
218.82
218.763
218.718
218.684
218.661
218.648
218.643
218.646
218.659
218.678
218.704
218.737
218.779
218.829
218.884
218.946
219.035
219.121
219.228
219.342
219.458
219.577
219.694
219.811
219.925
220.034
220.142
220.246
220.353
220.462
220.57
220.679
220.784
220.885
220.982
221.075
221.162
221.245
221.324
221.401
221.48
221.561
221.647
221.736
221.827
221.915
221.996
222.069
222.134
222.194
222.249
222.304
222.357
222.411
222.464
222.516
222.564
222.608
222.647
222.682
222.713
222.744
222.777
222.813
222.856
222.912
222.984
223.076
223.188
223.316
223.45
223.578
223.688
223.771
223.826
223.858
223.874
247.829
220.572
222.549
223.832
224.081
224.036
223.878
223.745
223.606
223.48
223.353
223.234
223.112
222.993
222.871
222.744
222.614
222.479
222.341
222.201
222.061
221.919
221.777
221.634
221.489
221.342
221.193
221.041
220.888
220.732
220.575
220.417
220.259
220.101
219.945
219.792
219.644
219.501
219.367
219.241
219.124
219.016
218.918
218.831
218.757
218.696
218.646
218.608
218.581
218.564
218.556
218.555
218.563
218.579
218.602
218.632
218.67
218.717
218.768
218.826
218.91
218.991
219.093
219.203
219.313
219.426
219.535
219.646
219.754
219.859
219.962
220.059
220.158
220.259
220.36
220.464
220.566
220.666
220.762
220.853
220.937
221.015
221.088
221.159
221.232
221.309
221.392
221.478
221.566
221.651
221.729
221.798
221.86
221.916
221.969
222.021
222.072
222.125
222.176
222.228
222.276
222.319
222.357
222.392
222.423
222.455
222.487
222.522
222.565
222.621
222.693
222.785
222.897
223.027
223.163
223.294
223.406
223.491
223.548
223.581
223.598
247.83
220.559
222.538
223.823
224.074
224.03
223.874
223.742
223.603
223.478
223.351
223.233
223.111
222.992
222.87
222.744
222.613
222.477
222.338
222.198
222.056
221.914
221.771
221.626
221.48
221.333
221.183
221.03
220.875
220.718
220.56
220.4
220.24
220.08
219.921
219.765
219.613
219.468
219.329
219.199
219.078
218.966
218.864
218.773
218.694
218.628
218.574
218.531
218.5
218.479
218.467
218.463
218.467
218.479
218.498
218.525
218.56
218.603
218.65
218.704
218.784
218.861
218.958
219.064
219.172
219.28
219.384
219.487
219.587
219.685
219.781
219.871
219.962
220.052
220.142
220.235
220.329
220.426
220.521
220.614
220.7
220.778
220.85
220.917
220.986
221.059
221.137
221.219
221.303
221.385
221.46
221.527
221.585
221.639
221.689
221.738
221.786
221.837
221.887
221.937
221.984
222.026
222.064
222.097
222.127
222.158
222.189
222.223
222.266
222.321
222.392
222.484
222.595
222.725
222.863
222.996
223.11
223.197
223.254
223.288
223.305
247.821
220.547
222.527
223.814
224.066
224.025
223.87
223.739
223.601
223.476
223.35
223.232
223.111
222.992
222.87
222.743
222.611
222.475
222.336
222.194
222.052
221.908
221.764
221.619
221.472
221.324
221.173
221.019
220.863
220.704
220.544
220.383
220.221
220.058
219.897
219.738
219.583
219.434
219.292
219.158
219.032
218.916
218.809
218.714
218.63
218.559
218.501
218.454
218.419
218.393
218.378
218.371
218.37
218.378
218.394
218.417
218.449
218.489
218.533
218.582
218.658
218.73
218.821
218.923
219.03
219.138
219.238
219.334
219.425
219.514
219.603
219.687
219.772
219.853
219.932
220.012
220.094
220.181
220.272
220.364
220.453
220.533
220.605
220.671
220.738
220.806
220.88
220.958
221.038
221.116
221.187
221.25
221.306
221.356
221.403
221.449
221.495
221.544
221.593
221.641
221.687
221.728
221.765
221.797
221.826
221.855
221.886
221.92
221.962
222.017
222.087
222.177
222.288
222.417
222.556
222.691
222.807
222.895
222.952
222.985
223.002
247.823
220.535
222.515
223.805
224.059
224.019
223.866
223.736
223.598
223.474
223.349
223.231
223.11
222.992
222.869
222.742
222.61
222.473
222.333
222.191
222.047
221.903
221.758
221.612
221.464
221.314
221.162
221.008
220.85
220.691
220.529
220.366
220.202
220.037
219.873
219.712
219.553
219.4
219.254
219.116
218.987
218.866
218.755
218.655
218.566
218.491
218.428
218.376
218.336
218.307
218.288
218.277
218.273
218.276
218.289
218.309
218.338
218.374
218.414
218.46
218.532
218.597
218.682
218.778
218.882
218.987
219.084
219.176
219.26
219.342
219.426
219.507
219.59
219.669
219.742
219.811
219.879
219.953
220.033
220.119
220.203
220.282
220.354
220.42
220.486
220.552
220.622
220.697
220.773
220.847
220.914
220.974
221.025
221.072
221.116
221.158
221.202
221.248
221.294
221.341
221.384
221.424
221.459
221.489
221.517
221.545
221.574
221.608
221.649
221.703
221.772
221.86
221.969
222.097
222.236
222.372
222.489
222.578
222.635
222.667
222.683
247.818
220.522
222.504
223.796
224.051
224.013
223.861
223.732
223.596
223.473
223.347
223.23
223.109
222.991
222.869
222.742
222.609
222.472
222.331
222.187
222.043
221.898
221.752
221.605
221.456
221.306
221.153
220.997
220.838
220.677
220.514
220.349
220.183
220.016
219.85
219.685
219.524
219.367
219.217
219.075
218.941
218.816
218.701
218.595
218.502
218.422
218.354
218.298
218.254
218.22
218.197
218.183
218.175
218.175
218.183
218.2
218.225
218.259
218.295
218.339
218.404
218.463
218.542
218.63
218.728
218.828
218.923
219.012
219.094
219.172
219.252
219.331
219.413
219.491
219.563
219.626
219.686
219.747
219.814
219.886
219.961
220.034
220.102
220.166
220.23
220.293
220.36
220.431
220.503
220.572
220.636
220.691
220.739
220.782
220.823
220.862
220.903
220.947
220.991
221.035
221.076
221.114
221.147
221.176
221.202
221.228
221.256
221.289
221.33
221.382
221.449
221.535
221.642
221.769
221.907
222.044
222.162
222.251
222.307
222.339
222.353
247.82
220.51
222.493
223.787
224.044
224.008
223.857
223.729
223.593
223.471
223.346
223.229
223.109
222.991
222.868
222.741
222.608
222.47
222.328
222.184
222.039
221.893
221.746
221.598
221.448
221.297
221.143
220.986
220.826
220.664
220.499
220.332
220.164
219.995
219.826
219.659
219.494
219.334
219.18
219.033
218.895
218.766
218.646
218.536
218.438
218.353
218.28
218.22
218.171
218.133
218.105
218.087
218.076
218.072
218.076
218.09
218.111
218.142
218.175
218.215
218.275
218.329
218.404
218.484
218.572
218.662
218.751
218.838
218.92
219
219.08
219.158
219.238
219.315
219.388
219.451
219.507
219.56
219.613
219.67
219.73
219.792
219.853
219.912
219.974
220.033
220.098
220.165
220.233
220.298
220.356
220.407
220.45
220.49
220.526
220.562
220.599
220.64
220.681
220.722
220.761
220.796
220.826
220.853
220.877
220.902
220.929
220.96
221
221.051
221.116
221.201
221.305
221.43
221.567
221.704
221.824
221.912
221.968
221.998
222.011
247.822
220.497
222.481
223.777
224.036
224.002
223.852
223.726
223.591
223.469
223.344
223.228
223.108
222.99
222.868
222.74
222.607
222.468
222.326
222.181
222.034
221.887
221.74
221.591
221.44
221.288
221.133
220.975
220.814
220.65
220.484
220.315
220.145
219.974
219.803
219.632
219.464
219.3
219.142
218.992
218.85
218.716
218.591
218.476
218.374
218.283
218.206
218.141
218.087
218.045
218.013
217.991
217.976
217.969
217.97
217.979
217.997
218.025
218.054
218.091
218.146
218.196
218.269
218.345
218.424
218.504
218.584
218.666
218.747
218.829
218.908
218.982
219.057
219.131
219.203
219.269
219.327
219.378
219.423
219.468
219.512
219.559
219.608
219.658
219.715
219.77
219.831
219.896
219.96
220.02
220.074
220.12
220.159
220.193
220.225
220.257
220.291
220.327
220.365
220.403
220.439
220.471
220.499
220.523
220.545
220.568
220.593
220.623
220.662
220.711
220.775
220.857
220.959
221.081
221.218
221.356
221.477
221.567
221.621
221.648
221.66
247.823
220.485
222.469
223.768
224.028
223.996
223.848
223.722
223.588
223.467
223.343
223.227
223.108
222.99
222.868
222.74
222.606
222.467
222.323
222.177
222.03
221.882
221.734
221.584
221.433
221.279
221.123
220.964
220.802
220.637
220.469
220.299
220.127
219.953
219.779
219.606
219.435
219.267
219.105
218.95
218.804
218.665
218.536
218.417
218.309
218.213
218.131
218.061
218.003
217.956
217.92
217.894
217.876
217.865
217.862
217.868
217.882
217.906
217.932
217.966
218.017
218.063
218.136
218.21
218.286
218.361
218.433
218.508
218.584
218.661
218.734
218.801
218.866
218.932
219
219.067
219.129
219.182
219.227
219.266
219.301
219.335
219.372
219.412
219.461
219.508
219.565
219.625
219.685
219.741
219.79
219.831
219.865
219.894
219.921
219.948
219.977
220.01
220.044
220.079
220.111
220.139
220.164
220.186
220.205
220.226
220.249
220.277
220.314
220.362
220.423
220.503
220.602
220.722
220.857
220.995
221.12
221.213
221.268
221.292
221.298
247.826
220.472
222.457
223.758
224.02
223.99
223.843
223.719
223.586
223.465
223.342
223.226
223.107
222.99
222.867
222.739
222.605
222.465
222.321
222.174
222.026
221.877
221.728
221.577
221.425
221.27
221.114
220.954
220.79
220.624
220.454
220.282
220.108
219.933
219.756
219.58
219.406
219.234
219.068
218.909
218.758
218.615
218.481
218.357
218.244
218.143
218.056
217.981
217.918
217.867
217.827
217.796
217.774
217.759
217.753
217.756
217.766
217.787
217.81
217.84
217.886
217.929
218.002
218.078
218.158
218.233
218.302
218.37
218.435
218.5
218.562
218.618
218.672
218.728
218.788
218.85
218.911
218.967
219.015
219.055
219.088
219.116
219.143
219.173
219.212
219.25
219.3
219.355
219.41
219.461
219.505
219.54
219.569
219.592
219.614
219.635
219.659
219.687
219.716
219.747
219.775
219.8
219.821
219.84
219.857
219.875
219.895
219.921
219.956
220.002
220.061
220.139
220.235
220.353
220.486
220.625
220.753
220.85
220.909
220.934
220.933
247.829
220.459
222.445
223.748
224.012
223.984
223.839
223.716
223.583
223.463
223.34
223.225
223.107
222.989
222.867
222.739
222.604
222.463
222.318
222.171
222.022
221.872
221.722
221.57
221.417
221.262
221.104
220.943
220.779
220.611
220.44
220.266
220.09
219.912
219.733
219.554
219.376
219.202
219.031
218.868
218.712
218.564
218.426
218.296
218.178
218.073
217.98
217.9
217.832
217.776
217.732
217.698
217.672
217.653
217.643
217.643
217.65
217.667
217.688
217.713
217.755
217.795
217.867
217.945
218.029
218.111
218.181
218.245
218.299
218.348
218.395
218.438
218.482
218.53
218.58
218.633
218.686
218.739
218.789
218.833
218.868
218.896
218.918
218.94
218.969
218.996
219.037
219.085
219.135
219.182
219.22
219.25
219.273
219.291
219.306
219.322
219.34
219.361
219.386
219.411
219.435
219.456
219.473
219.488
219.502
219.517
219.533
219.556
219.588
219.63
219.687
219.761
219.854
219.968
220.1
220.239
220.368
220.468
220.531
220.56
220.552
247.833
220.446
222.433
223.738
224.004
223.978
223.834
223.712
223.58
223.461
223.339
223.225
223.106
222.989
222.866
222.738
222.603
222.461
222.316
222.167
222.018
221.867
221.716
221.564
221.41
221.253
221.095
220.932
220.767
220.598
220.425
220.25
220.072
219.892
219.71
219.528
219.347
219.169
218.995
218.827
218.666
218.514
218.37
218.236
218.113
218.002
217.904
217.819
217.746
217.686
217.637
217.599
217.569
217.546
217.533
217.529
217.533
217.547
217.566
217.586
217.624
217.661
217.729
217.804
217.89
217.975
218.049
218.112
218.158
218.196
218.231
218.266
218.305
218.346
218.387
218.427
218.468
218.511
218.557
218.603
218.643
218.673
218.694
218.71
218.73
218.748
218.779
218.818
218.861
218.902
218.935
218.959
218.975
218.987
218.996
219.005
219.017
219.032
219.051
219.072
219.091
219.108
219.12
219.131
219.141
219.152
219.164
219.184
219.211
219.251
219.303
219.373
219.462
219.573
219.702
219.841
219.971
220.076
220.142
220.174
220.161
247.838
220.433
222.421
223.728
223.996
223.972
223.829
223.709
223.578
223.459
223.337
223.224
223.105
222.988
222.866
222.737
222.602
222.46
222.313
222.164
222.013
221.862
221.71
221.557
221.402
221.245
221.085
220.922
220.755
220.585
220.411
220.234
220.054
219.871
219.687
219.503
219.318
219.136
218.958
218.785
218.62
218.463
218.314
218.175
218.047
217.931
217.828
217.737
217.66
217.594
217.541
217.498
217.465
217.439
217.421
217.413
217.415
217.425
217.442
217.459
217.494
217.528
217.591
217.66
217.74
217.822
217.896
217.959
218.005
218.041
218.074
218.106
218.144
218.182
218.215
218.245
218.271
218.3
218.335
218.375
218.414
218.445
218.466
218.48
218.494
218.503
218.525
218.556
218.592
218.626
218.653
218.671
218.682
218.687
218.688
218.69
218.695
218.704
218.716
218.731
218.744
218.756
218.764
218.77
218.774
218.781
218.788
218.803
218.826
218.861
218.909
218.973
219.058
219.165
219.29
219.427
219.559
219.666
219.736
219.772
219.753
247.843
220.419
222.408
223.718
223.988
223.966
223.825
223.705
223.575
223.458
223.336
223.223
223.105
222.988
222.866
222.737
222.6
222.458
222.311
222.161
222.009
221.857
221.704
221.55
221.394
221.236
221.076
220.912
220.744
220.572
220.396
220.217
220.035
219.851
219.664
219.477
219.289
219.104
218.921
218.744
218.574
218.412
218.259
218.114
217.981
217.859
217.751
217.655
217.572
217.502
217.444
217.397
217.36
217.33
217.309
217.297
217.296
217.303
217.317
217.332
217.365
217.397
217.456
217.517
217.584
217.655
217.722
217.785
217.837
217.881
217.921
217.957
217.995
218.031
218.059
218.082
218.099
218.114
218.134
218.16
218.189
218.215
218.233
218.244
218.255
218.258
218.274
218.298
218.326
218.353
218.373
218.385
218.389
218.387