/*--------------------------------*- C++ -*----------------------------------*\
| =========                 |                                                 |
| \\      /  F ield         | OpenFOAM: The Open Source CFD Toolbox           |
|  \\    /   O peration     | Version:  2412                                  |
|   \\  /    A nd           | Website:  www.openfoam.com                      |
|    \\/     M anipulation  |                                                 |
\*---------------------------------------------------------------------------*/
FoamFile
{
    version     2.0;
    format      ascii;
    arch        "LSB;label=32;scalar=64";
    class       volVectorField;
    location    "0.105";
    object      U;
}
// * * * * * * * * * * * * * * * * * * * * * * * * * * * * * * * * * * * * * //

dimensions      [0 1 -1 0 0 0 0];

internalField   nonuniform List<vector> 
9763
(
(180.428 -30.4814 0)
(169.838 -34.5522 0)
(180.682 -30.5063 0)
(169.338 -34.4562 0)
(181.001 -30.6024 0)
(169.256 -34.6016 0)
(181.364 -30.6669 0)
(169.374 -34.7101 0)
(181.733 -30.7637 0)
(169.724 -34.7931 0)
(182.107 -30.8512 0)
(170.275 -34.9682 0)
(182.474 -30.9352 0)
(170.96 -35.1033 0)
(182.82 -31.029 0)
(171.651 -35.3034 0)
(183.148 -31.1019 0)
(172.326 -35.4568 0)
(183.446 -31.1976 0)
(172.959 -35.6446 0)
(183.73 -31.2644 0)
(173.579 -35.8015 0)
(183.993 -31.3561 0)
(174.181 -35.9789 0)
(184.256 -31.4235 0)
(174.781 -36.1411 0)
(184.511 -31.5188 0)
(175.373 -36.3095 0)
(184.784 -31.5897 0)
(175.962 -36.473 0)
(185.065 -31.6907 0)
(176.547 -36.6362 0)
(185.376 -31.771 0)
(177.134 -36.8021 0)
(185.707 -31.8821 0)
(177.732 -36.9656 0)
(186.075 -31.9759 0)
(178.345 -37.1369 0)
(186.47 -32.0988 0)
(178.987 -37.3086 0)
(186.901 -32.2065 0)
(179.663 -37.4897 0)
(187.352 -32.3393 0)
(180.379 -37.6752 0)
(187.821 -32.4563 0)
(181.14 -37.869 0)
(188.285 -32.5903 0)
(181.947 -38.0703 0)
(188.733 -32.7061 0)
(182.8 -38.277 0)
(189.14 -32.8278 0)
(183.695 -38.494 0)
(189.499 -32.9304 0)
(184.632 -38.7124 0)
(189.802 -33.0308 0)
(185.599 -38.9424 0)
(190.058 -33.1163 0)
(186.582 -39.1655 0)
(190.278 -33.199 0)
(187.552 -39.3921 0)
(190.488 -33.2756 0)
(188.481 -39.599 0)
(190.711 -33.3534 0)
(189.335 -39.7929 0)
(190.974 -33.4344 0)
(190.098 -39.9559 0)
(191.302 -33.5203 0)
(190.768 -40.0904 0)
(191.698 -33.6207 0)
(191.365 -40.1912 0)
(192.166 -33.7329 0)
(191.915 -40.2678 0)
(192.706 -33.8608 0)
(192.455 -40.3264 0)
(193.308 -33.9983 0)
(193.03 -40.3872 0)
(193.958 -34.1479 0)
(193.68 -40.4436 0)
(194.638 -34.3001 0)
(194.426 -40.5141 0)
(195.265 -40.5769 0)
(196.173 -40.6438 0)
(197.12 -40.6908 0)
(183.079 105.763 0)
(161.22 21.6219 0)
(170.152 5.7138 0)
(179.647 2.53356 0)
(186.772 -1.32099 0)
(193.635 -2.66922 0)
(198.569 -4.95879 0)
(202.191 -6.16836 0)
(204.199 -7.64589 0)
(205.369 -8.81031 0)
(205.9 -9.91506 0)
(206.675 -10.8216 0)
(207.277 -11.7224 0)
(207.972 -12.4957 0)
(208.628 -13.2228 0)
(209.299 -13.8746 0)
(209.96 -14.4756 0)
(210.618 -15.0239 0)
(211.269 -15.5287 0)
(211.917 -15.9936 0)
(212.561 -16.4275 0)
(213.205 -16.8381 0)
(213.85 -17.2368 0)
(214.495 -17.6334 0)
(215.138 -18.0364 0)
(215.778 -18.4526 0)
(216.412 -18.8884 0)
(217.038 -19.3489 0)
(217.65 -19.8365 0)
(218.246 -20.3531 0)
(218.823 -20.9002 0)
(219.376 -21.4798 0)
(219.902 -22.0917 0)
(220.397 -22.7338 0)
(220.854 -23.4024 0)
(221.27 -24.0945 0)
(221.64 -24.8069 0)
(221.961 -25.5373 0)
(222.231 -26.2834 0)
(222.448 -27.0426 0)
(222.611 -27.8104 0)
(222.716 -28.5819 0)
(222.764 -29.3522 0)
(222.756 -30.1165 0)
(222.695 -30.8713 0)
(222.583 -31.6277 0)
(222.424 -32.3641 0)
(222.217 -33.0823 0)
(221.969 -33.786 0)
(221.684 -34.4728 0)
(221.366 -35.1411 0)
(221.01 -35.7895 0)
(220.594 -36.4131 0)
(220.126 -37.0086 0)
(219.684 -37.599 0)
(219.301 -38.1904 0)
(218.866 -38.7533 0)
(218.349 -39.3081 0)
(217.638 -39.7874 0)
(216.854 -40.1712 0)
(216.276 -40.7621 0)
(215.336 -41.0302 0)
(214.433 -41.4439 0)
(213.423 -41.7277 0)
(212.438 -42.0735 0)
(211.457 -42.3941 0)
(210.492 -42.7166 0)
(209.543 -43.033 0)
(208.589 -43.327 0)
(207.633 -43.5923 0)
(206.686 -43.8787 0)
(205.71 -44.1117 0)
(204.744 -44.3645 0)
(203.767 -44.5888 0)
(202.786 -44.7952 0)
(201.813 -45.0117 0)
(200.824 -45.2074 0)
(199.821 -45.4196 0)
(198.79 -45.5975 0)
(197.762 -45.8049 0)
(196.738 -45.9609 0)
(195.775 -46.1737 0)
(194.854 -46.3277 0)
(194.022 -46.5802 0)
(193.163 -46.7373 0)
(192.309 -46.969 0)
(191.338 -47.0967 0)
(190.279 -47.203 0)
(189.185 -47.2649 0)
(188.129 -47.3763 0)
(187.163 -47.4871 0)
(186.288 -47.6389 0)
(185.469 -47.7637 0)
(184.718 -47.9541 0)
(183.973 -48.1044 0)
(183.252 -48.3079 0)
(182.501 -48.4693 0)
(181.749 -48.6465 0)
(181.002 -48.807 0)
(180.289 -48.9879 0)
(179.609 -49.1696 0)
(178.968 -49.3693 0)
(178.356 -49.5831 0)
(177.755 -49.7894 0)
(177.168 -50.0348 0)
(176.541 -50.2164 0)
(175.925 -50.467 0)
(175.258 -50.6256 0)
(174.605 -50.861 0)
(173.916 -51.0072 0)
(173.251 -51.227 0)
(172.617 -51.4208 0)
(172.04 -51.672 0)
(171.511 -51.944 0)
(171.032 -52.2584 0)
(170.62 -52.6191 0)
(170.324 -53.0498 0)
(170.206 -53.5512 0)
(170.136 -54.0172 0)
(170.171 -54.5488 0)
(169.997 -54.7049 0)
(183.198 106.231 0)
(161.295 22.0472 0)
(170.174 5.68268 0)
(179.669 2.54335 0)
(186.786 -1.32171 0)
(193.644 -2.65988 0)
(198.577 -4.95022 0)
(202.201 -6.16023 0)
(204.211 -7.63417 0)
(205.382 -8.79706 0)
(205.913 -9.90078 0)
(206.686 -10.805 0)
(207.287 -11.7043 0)
(207.981 -12.4761 0)
(208.637 -13.2016 0)
(209.309 -13.8519 0)
(209.972 -14.4513 0)
(210.633 -14.9982 0)
(211.288 -15.5017 0)
(211.938 -15.9654 0)
(212.586 -16.3978 0)
(213.234 -16.8068 0)
(213.883 -17.2038 0)
(214.532 -17.5982 0)
(215.18 -17.9989 0)
(215.825 -18.4125 0)
(216.465 -18.8457 0)
(217.096 -19.3034 0)
(217.715 -19.7885 0)
(218.318 -20.3025 0)
(218.903 -20.847 0)
(219.464 -21.424 0)
(220 -22.0336 0)
(220.505 -22.6739 0)
(220.974 -23.3416 0)
(221.402 -24.0337 0)
(221.785 -24.7469 0)
(222.12 -25.4786 0)
(222.404 -26.2266 0)
(222.635 -26.9884 0)
(222.812 -27.7599 0)
(222.932 -28.5362 0)
(222.995 -29.3123 0)
(223.001 -30.0836 0)
(222.954 -30.8475 0)
(222.857 -31.6048 0)
(222.712 -32.3549 0)
(222.518 -33.0822 0)
(222.283 -33.7949 0)
(222.011 -34.4918 0)
(221.705 -35.1703 0)
(221.362 -35.8292 0)
(220.96 -36.4651 0)
(220.503 -37.0737 0)
(220.069 -37.6753 0)
(219.694 -38.2758 0)
(219.277 -38.8517 0)
(218.784 -39.4174 0)
(218.09 -39.9063 0)
(217.32 -40.3076 0)
(216.756 -40.9078 0)
(215.831 -41.195 0)
(214.95 -41.6384 0)
(213.947 -41.9463 0)
(212.972 -42.3189 0)
(212 -42.6628 0)
(211.047 -43.0089 0)
(210.111 -43.3531 0)
(209.168 -43.6723 0)
(208.228 -43.9718 0)
(207.298 -44.2983 0)
(206.334 -44.5651 0)
(205.385 -44.8674 0)
(204.413 -45.1268 0)
(203.44 -45.3814 0)
(202.476 -45.6419 0)
(201.502 -45.8875 0)
(200.519 -46.1483 0)
(199.512 -46.3809 0)
(198.508 -46.6414 0)
(197.503 -46.8521 0)
(196.562 -47.1211 0)
(195.663 -47.33 0)
(194.872 -47.6445 0)
(194.054 -47.8592 0)
(193.27 -48.177 0)
(192.344 -48.381 0)
(191.331 -48.5744 0)
(190.286 -48.7381 0)
(189.268 -48.9416 0)
(188.303 -49.1415 0)
(187.418 -49.3914 0)
(186.589 -49.6202 0)
(185.847 -49.9191 0)
(185.113 -50.1719 0)
(184.425 -50.4843 0)
(183.695 -50.7387 0)
(182.968 -51.0131 0)
(182.245 -51.2605 0)
(181.566 -51.5383 0)
(180.917 -51.7993 0)
(180.331 -52.0973 0)
(179.769 -52.3769 0)
(179.254 -52.6857 0)
(178.734 -52.9823 0)
(178.19 -53.2484 0)
(177.649 -53.5422 0)
(177.052 -53.7452 0)
(176.48 -54.017 0)
(175.861 -54.1762 0)
(175.272 -54.392 0)
(174.72 -54.5582 0)
(174.248 -54.7652 0)
(173.845 -54.9583 0)
(173.516 -55.168 0)
(173.25 -55.3725 0)
(173.049 -55.5758 0)
(172.912 -55.7668 0)
(172.819 -55.9368 0)
(172.813 -56.1333 0)
(172.903 -56.297 0)
(183.363 106.403 0)
(161.339 22.1128 0)
(170.21 5.67154 0)
(179.693 2.5417 0)
(186.806 -1.3082 0)
(193.663 -2.64795 0)
(198.594 -4.94043 0)
(202.217 -6.1526 0)
(204.227 -7.62354 0)
(205.397 -8.7849 0)
(205.925 -9.88725 0)
(206.698 -10.7903 0)
(207.298 -11.6886 0)
(207.992 -12.4594 0)
(208.649 -13.1836 0)
(209.322 -13.8329 0)
(209.987 -14.4312 0)
(210.651 -14.9771 0)
(211.309 -15.4796 0)
(211.963 -15.9423 0)
(212.615 -16.3736 0)
(213.267 -16.7814 0)
(213.92 -17.1769 0)
(214.573 -17.5697 0)
(215.226 -17.9687 0)
(215.876 -18.3805 0)
(216.521 -18.8119 0)
(217.158 -19.2678 0)
(217.784 -19.7512 0)
(218.395 -20.2639 0)
(218.988 -20.8075 0)
(219.56 -21.384 0)
(220.106 -21.9935 0)
(220.623 -22.6346 0)
(221.104 -23.3038 0)
(221.546 -23.9983 0)
(221.942 -24.7148 0)
(222.291 -25.4509 0)
(222.589 -26.204 0)
(222.835 -26.9717 0)
(223.027 -27.7501 0)
(223.161 -28.5346 0)
(223.238 -29.3198 0)
(223.258 -30.1009 0)
(223.223 -30.8749 0)
(223.139 -31.6404 0)
(223.006 -32.4029 0)
(222.824 -33.1422 0)
(222.599 -33.8657 0)
(222.337 -34.5739 0)
(222.042 -35.2642 0)
(221.709 -35.9351 0)
(221.317 -36.5829 0)
(220.87 -37.2037 0)
(220.445 -37.8171 0)
(220.078 -38.4309 0)
(219.673 -39.0202 0)
(219.197 -39.6014 0)
(218.512 -40.1058 0)
(217.752 -40.5261 0)
(217.197 -41.142 0)
(216.276 -41.448 0)
(215.413 -41.9145 0)
(214.419 -42.2354 0)
(213.459 -42.6225 0)
(212.503 -42.9774 0)
(211.568 -43.337 0)
(210.652 -43.6975 0)
(209.727 -44.031 0)
(208.808 -44.3581 0)
(207.899 -44.7092 0)
(206.955 -45.0064 0)
(206.028 -45.3437 0)
(205.071 -45.628 0)
(204.12 -45.9132 0)
(203.179 -46.1915 0)
(202.237 -46.4547 0)
(201.292 -46.7281 0)
(200.325 -46.9751 0)
(199.362 -47.2456 0)
(198.395 -47.4756 0)
(197.489 -47.7673 0)
(196.62 -48.0104 0)
(195.863 -48.361 0)
(195.075 -48.6164 0)
(194.335 -48.9784 0)
(193.435 -49.2136 0)
(192.447 -49.4323 0)
(191.439 -49.6181 0)
(190.474 -49.8276 0)
(189.574 -50.0351 0)
(188.759 -50.2916 0)
(188.008 -50.5373 0)
(187.346 -50.847 0)
(186.691 -51.1126 0)
(186.083 -51.4273 0)
(185.43 -51.6817 0)
(184.778 -51.9524 0)
(184.128 -52.1983 0)
(183.52 -52.4728 0)
(182.938 -52.7276 0)
(182.418 -53.0205 0)
(181.915 -53.2815 0)
(181.473 -53.5883 0)
(180.999 -53.8462 0)
(180.524 -54.1123 0)
(180.012 -54.358 0)
(179.457 -54.5504 0)
(178.898 -54.7828 0)
(178.29 -54.9045 0)
(177.695 -55.0901 0)
(177.128 -55.2208 0)
(176.623 -55.3916 0)
(176.172 -55.5442 0)
(175.775 -55.7127 0)
(175.413 -55.8709 0)
(175.078 -56.0272 0)
(174.768 -56.1751 0)
(174.512 -56.3282 0)
(174.384 -56.5522 0)
(174.405 -56.798 0)
(183.467 106.542 0)
(161.349 22.064 0)
(170.242 5.65592 0)
(179.716 2.54203 0)
(186.821 -1.29532 0)
(193.674 -2.63332 0)
(198.604 -4.92825 0)
(202.228 -6.14209 0)
(204.239 -7.61137 0)
(205.409 -8.77273 0)
(205.937 -9.87419 0)
(206.708 -10.7754 0)
(207.307 -11.6726 0)
(208 -12.4421 0)
(208.657 -13.1652 0)
(209.332 -13.8133 0)
(209.998 -14.4104 0)
(210.665 -14.9551 0)
(211.325 -15.4564 0)
(211.983 -15.9179 0)
(212.638 -16.3479 0)
(213.293 -16.7543 0)
(213.95 -17.1482 0)
(214.607 -17.5392 0)
(215.264 -17.9363 0)
(215.918 -18.3461 0)
(216.568 -18.7753 0)
(217.211 -19.229 0)
(217.843 -19.7102 0)
(218.461 -20.2208 0)
(219.062 -20.7622 0)
(219.642 -21.3365 0)
(220.197 -21.9442 0)
(220.724 -22.5839 0)
(221.217 -23.2524 0)
(221.67 -23.9468 0)
(222.08 -24.6639 0)
(222.442 -25.4011 0)
(222.754 -26.1559 0)
(223.015 -26.926 0)
(223.221 -27.7077 0)
(223.371 -28.4965 0)
(223.464 -29.2868 0)
(223.499 -30.0742 0)
(223.479 -30.8553 0)
(223.409 -31.6263 0)
(223.29 -32.3959 0)
(223.123 -33.1463 0)
(222.912 -33.8782 0)
(222.664 -34.5957 0)
(222.382 -35.2958 0)
(222.062 -35.9768 0)
(221.684 -36.6354 0)
(221.25 -37.2678 0)
(220.836 -37.8918 0)
(220.482 -38.5157 0)
(220.093 -39.1156 0)
(219.636 -39.7075 0)
(218.969 -40.2226 0)
(218.224 -40.6595 0)
(217.681 -41.2852 0)
(216.772 -41.6057 0)
(215.929 -42.0947 0)
(214.947 -42.4332 0)
(214 -42.8419 0)
(213.058 -43.2161 0)
(212.139 -43.5979 0)
(211.24 -43.9794 0)
(210.332 -44.3307 0)
(209.44 -44.6829 0)
(208.558 -45.0537 0)
(207.642 -45.3782 0)
(206.744 -45.7471 0)
(205.804 -46.0627 0)
(204.868 -46.3877 0)
(203.936 -46.6967 0)
(203.007 -46.9924 0)
(202.082 -47.2911 0)
(201.141 -47.5593 0)
(200.207 -47.8449 0)
(199.276 -48.092 0)
(198.409 -48.3988 0)
(197.58 -48.6582 0)
(196.873 -49.0249 0)
(196.136 -49.2961 0)
(195.464 -49.6762 0)
(194.618 -49.9261 0)
(193.678 -50.1601 0)
(192.714 -50.372 0)
(191.787 -50.6091 0)
(190.923 -50.8538 0)
(190.145 -51.1441 0)
(189.43 -51.4283 0)
(188.805 -51.77 0)
(188.183 -52.0674 0)
(187.608 -52.4039 0)
(186.991 -52.6829 0)
(186.378 -52.9684 0)
(185.772 -53.2334 0)
(185.204 -53.5145 0)
(184.664 -53.7785 0)
(184.181 -54.0682 0)
(183.715 -54.3257 0)
(183.315 -54.626 0)
(182.875 -54.8622 0)
(182.45 -55.1277 0)
(181.965 -55.3324 0)
(181.451 -55.5299 0)
(180.899 -55.7014 0)
(180.315 -55.8235 0)
(179.734 -55.9542 0)
(179.184 -56.0728 0)
(178.686 -56.2003 0)
(178.244 -56.3293 0)
(177.859 -56.4672 0)
(177.517 -56.6046 0)
(177.215 -56.7513 0)
(176.947 -56.8952 0)
(176.737 -57.0647 0)
(176.604 -57.2636 0)
(176.593 -57.5127 0)
(183.551 106.698 0)
(161.368 22.0333 0)
(170.274 5.63976 0)
(179.739 2.5423 0)
(186.84 -1.2876 0)
(193.691 -2.62323 0)
(198.619 -4.91993 0)
(202.242 -6.13515 0)
(204.254 -7.60168 0)
(205.423 -8.76154 0)
(205.949 -9.86179 0)
(206.719 -10.7619 0)
(207.318 -11.6582 0)
(208.011 -12.4267 0)
(208.668 -13.1486 0)
(209.343 -13.7957 0)
(210.012 -14.3917 0)
(210.681 -14.9355 0)
(211.344 -15.4359 0)
(212.005 -15.8964 0)
(212.664 -16.3253 0)
(213.323 -16.7305 0)
(213.983 -17.123 0)
(214.644 -17.5126 0)
(215.305 -17.9081 0)
(215.964 -18.3162 0)
(216.619 -18.7436 0)
(217.268 -19.1955 0)
(217.906 -19.6751 0)
(218.531 -20.1843 0)
(219.14 -20.7246 0)
(219.729 -21.2983 0)
(220.294 -21.9057 0)
(220.832 -22.5457 0)
(221.336 -23.2154 0)
(221.802 -23.9117 0)
(222.225 -24.6315 0)
(222.6 -25.3723 0)
(222.927 -26.1315 0)
(223.201 -26.9066 0)
(223.421 -27.6943 0)
(223.585 -28.4901 0)
(223.691 -29.2884 0)
(223.74 -30.0843 0)
(223.733 -30.874 0)
(223.674 -31.6556 0)
(223.568 -32.4308 0)
(223.414 -33.1948 0)
(223.213 -33.9368 0)
(222.975 -34.6642 0)
(222.704 -35.3749 0)
(222.394 -36.0667 0)
(222.027 -36.7362 0)
(221.603 -37.3795 0)
(221.197 -38.0146 0)
(220.852 -38.6505 0)
(220.475 -39.264 0)
(220.034 -39.8695 0)
(219.381 -40.3981 0)
(218.646 -40.8502 0)
(218.109 -41.4874 0)
(217.205 -41.8214 0)
(216.379 -42.3287 0)
(215.409 -42.6779 0)
(214.481 -43.0997 0)
(213.556 -43.4854 0)
(212.656 -43.8835 0)
(211.773 -44.2816 0)
(210.88 -44.6522 0)
(210.008 -45.0294 0)
(209.148 -45.4196 0)
(208.26 -45.7649 0)
(207.395 -46.1483 0)
(206.487 -46.4747 0)
(205.583 -46.8132 0)
(204.678 -47.1323 0)
(203.776 -47.4488 0)
(202.874 -47.7667 0)
(201.956 -48.0567 0)
(201.048 -48.363 0)
(200.147 -48.6348 0)
(199.312 -48.9636 0)
(198.513 -49.2474 0)
(197.841 -49.6393 0)
(197.134 -49.9351 0)
(196.504 -50.3411 0)
(195.693 -50.6103 0)
(194.792 -50.8551 0)
(193.875 -51.0774 0)
(193.002 -51.3171 0)
(192.199 -51.5649 0)
(191.483 -51.8518 0)
(190.834 -52.1335 0)
(190.272 -52.4698 0)
(189.708 -52.7598 0)
(189.189 -53.0892 0)
(188.626 -53.3642 0)
(188.067 -53.6443 0)
(187.516 -53.9102 0)
(186.996 -54.1855 0)
(186.504 -54.4519 0)
(186.058 -54.7331 0)
(185.633 -54.9935 0)
(185.262 -55.2855 0)
(184.858 -55.522 0)
(184.472 -55.793 0)
(184.016 -55.9913 0)
(183.534 -56.2084 0)
(182.99 -56.3587 0)
(182.423 -56.5062 0)
(181.852 -56.631 0)
(181.311 -56.7684 0)
(180.814 -56.8957 0)
(180.372 -57.0369 0)
(179.984 -57.1782 0)
(179.647 -57.3274 0)
(179.352 -57.4782 0)
(179.094 -57.6284 0)
(178.889 -57.7932 0)
(178.765 -57.9838 0)
(178.739 -58.2193 0)
(183.642 106.86 0)
(161.387 22.0076 0)
(170.306 5.6229 0)
(179.762 2.54242 0)
(186.856 -1.27641 0)
(193.703 -2.61038 0)
(198.629 -4.90914 0)
(202.253 -6.12575 0)
(204.266 -7.59021 0)
(205.435 -8.74996 0)
(205.96 -9.84941 0)
(206.729 -10.7478 0)
(207.326 -11.643 0)
(208.018 -12.4104 0)
(208.676 -13.131 0)
(209.352 -13.777 0)
(210.023 -14.3718 0)
(210.693 -14.9145 0)
(211.359 -15.4138 0)
(212.023 -15.8731 0)
(212.685 -16.3009 0)
(213.348 -16.7047 0)
(214.011 -17.0957 0)
(214.676 -17.4836 0)
(215.341 -17.8772 0)
(216.004 -18.2833 0)
(216.664 -18.7086 0)
(217.317 -19.1585 0)
(217.962 -19.6359 0)
(218.593 -20.143 0)
(219.209 -20.6812 0)
(219.806 -21.2528 0)
(220.38 -21.8584 0)
(220.927 -22.497 0)
(221.443 -23.1658 0)
(221.92 -23.8619 0)
(222.355 -24.5823 0)
(222.744 -25.3242 0)
(223.084 -26.085 0)
(223.372 -26.8625 0)
(223.607 -27.6533 0)
(223.786 -28.4531 0)
(223.907 -29.2565 0)
(223.971 -30.0584 0)
(223.979 -30.8547 0)
(223.933 -31.6435 0)
(223.842 -32.4228 0)
(223.702 -33.1976 0)
(223.515 -33.9487 0)
(223.29 -34.6842 0)
(223.031 -35.4038 0)
(222.734 -36.1051 0)
(222.381 -36.7845 0)
(221.97 -37.4381 0)
(221.574 -38.0829 0)
(221.24 -38.728 0)
(220.879 -39.3511 0)
(220.455 -39.9647 0)
(219.819 -40.5026 0)
(219.099 -40.9678 0)
(218.572 -41.6143 0)
(217.677 -41.9619 0)
(216.87 -42.4887 0)
(215.912 -42.8526 0)
(215.001 -43.291 0)
(214.094 -43.6894 0)
(213.215 -44.1005 0)
(212.349 -44.5075 0)
(211.475 -44.8892 0)
(210.625 -45.2827 0)
(209.785 -45.6891 0)
(208.917 -46.0569 0)
(208.073 -46.4622 0)
(207.185 -46.8114 0)
(206.303 -47.1714 0)
(205.419 -47.5067 0)
(204.543 -47.8438 0)
(203.663 -48.176 0)
(202.768 -48.4848 0)
(201.882 -48.8113 0)
(201.002 -49.1079 0)
(200.188 -49.4557 0)
(199.413 -49.7577 0)
(198.772 -50.1634 0)
(198.095 -50.4696 0)
(197.507 -50.8876 0)
(196.732 -51.1667 0)
(195.865 -51.4204 0)
(194.983 -51.6601 0)
(194.144 -51.9168 0)
(193.374 -52.1876 0)
(192.691 -52.4934 0)
(192.074 -52.7958 0)
(191.545 -53.1489 0)
(191.008 -53.4498 0)
(190.523 -53.7941 0)
(189.99 -54.0765 0)
(189.467 -54.3674 0)
(188.952 -54.6384 0)
(188.47 -54.9176 0)
(188.014 -55.1856 0)
(187.599 -55.461 0)
(187.21 -55.7219 0)
(186.867 -55.9992 0)
(186.507 -56.2382 0)
(186.159 -56.497 0)
(185.747 -56.693 0)
(185.302 -56.9041 0)
(184.793 -57.0323 0)
(184.262 -57.1899 0)
(183.727 -57.3062 0)
(183.217 -57.4421 0)
(182.744 -57.5669 0)
(182.324 -57.7045 0)
(181.958 -57.8457 0)
(181.643 -57.9966 0)
(181.369 -58.1489 0)
(181.131 -58.3093 0)
(180.929 -58.4616 0)
(180.836 -58.6743 0)
(180.882 -58.871 0)
(183.723 107.01 0)
(161.406 21.9827 0)
(170.34 5.60731 0)
(179.785 2.54222 0)
(186.875 -1.26794 0)
(193.72 -2.60003 0)
(198.644 -4.90071 0)
(202.267 -6.11878 0)
(204.28 -7.58061 0)
(205.448 -8.73895 0)
(205.971 -9.83723 0)
(206.74 -10.7345 0)
(207.337 -11.6288 0)
(208.028 -12.3952 0)
(208.686 -13.1147 0)
(209.364 -13.7595 0)
(210.036 -14.3533 0)
(210.709 -14.8951 0)
(211.378 -15.3933 0)
(212.045 -15.8517 0)
(212.711 -16.2785 0)
(213.377 -16.6811 0)
(214.044 -17.0707 0)
(214.713 -17.4571 0)
(215.382 -17.8492 0)
(216.049 -18.2536 0)
(216.714 -18.6771 0)
(217.373 -19.1251 0)
(218.023 -19.6009 0)
(218.662 -20.1065 0)
(219.286 -20.6435 0)
(219.891 -21.2142 0)
(220.475 -21.8193 0)
(221.033 -22.458 0)
(221.56 -23.1275 0)
(222.05 -23.8253 0)
(222.498 -24.548 0)
(222.9 -25.2931 0)
(223.254 -26.0578 0)
(223.557 -26.8399 0)
(223.806 -27.6362 0)
(223.999 -28.4425 0)
(224.134 -29.2533 0)
(224.212 -30.0632 0)
(224.233 -30.8682 0)
(224.2 -31.666 0)
(224.121 -32.4529 0)
(223.993 -33.2374 0)
(223.818 -34.0001 0)
(223.604 -34.7453 0)
(223.356 -35.475 0)
(223.07 -36.1867 0)
(222.728 -36.8766 0)
(222.328 -37.5405 0)
(221.941 -38.1952 0)
(221.616 -38.8506 0)
(221.268 -39.4858 0)
(220.858 -40.1104 0)
(220.237 -40.6605 0)
(219.529 -41.1396 0)
(219.01 -41.7967 0)
(218.124 -42.1565 0)
(217.335 -42.6988 0)
(216.391 -43.074 0)
(215.498 -43.5281 0)
(214.608 -43.941 0)
(213.746 -44.3663 0)
(212.896 -44.7813 0)
(212.041 -45.1694 0)
(211.214 -45.5661 0)
(210.399 -45.9735 0)
(209.558 -46.3448 0)
(208.744 -46.759 0)
(207.88 -47.1245 0)
(207.021 -47.5054 0)
(206.158 -47.8637 0)
(205.307 -48.2257 0)
(204.451 -48.5708 0)
(203.586 -48.892 0)
(202.731 -49.2269 0)
(201.881 -49.5348 0)
(201.091 -49.8924 0)
(200.335 -50.2117 0)
(199.71 -50.636 0)
(199.044 -50.9614 0)
(198.477 -51.3989 0)
(197.718 -51.6917 0)
(196.873 -51.9509 0)
(196.02 -52.195 0)
(195.214 -52.4474 0)
(194.483 -52.7137 0)
(193.836 -53.0071 0)
(193.258 -53.2987 0)
(192.762 -53.6372 0)
(192.254 -53.9212 0)
(191.801 -54.2574 0)
(191.289 -54.5238 0)
(190.793 -54.8098 0)
(190.297 -55.0684 0)
(189.837 -55.3443 0)
(189.395 -55.6021 0)
(188.995 -55.8727 0)
(188.617 -56.1283 0)
(188.281 -56.3983 0)
(187.938 -56.6431 0)
(187.598 -56.892 0)
(187.205 -57.0989 0)
(186.768 -57.2953 0)
(186.275 -57.4375 0)
(185.759 -57.5893 0)
(185.239 -57.7174 0)
(184.738 -57.8519 0)
(184.273 -57.9854 0)
(183.857 -58.1261 0)
(183.496 -58.2769 0)
(183.187 -58.4339 0)
(182.923 -58.6022 0)
(182.688 -58.7707 0)
(182.479 -58.945 0)
(182.312 -59.1331 0)
(182.315 -59.3801 0)
(183.81 107.147 0)
(161.426 21.957 0)
(170.373 5.59163 0)
(179.809 2.5419 0)
(186.892 -1.25736 0)
(193.733 -2.58758 0)
(198.655 -4.89026 0)
(202.278 -6.10969 0)
(204.292 -7.56915 0)
(205.461 -8.72726 0)
(205.983 -9.82477 0)
(206.75 -10.7203 0)
(207.345 -11.6135 0)
(208.036 -12.3787 0)
(208.694 -13.0969 0)
(209.373 -13.7406 0)
(210.047 -14.3332 0)
(210.722 -14.8738 0)
(211.394 -15.3709 0)
(212.064 -15.8281 0)
(212.732 -16.2536 0)
(213.402 -16.6548 0)
(214.072 -17.043 0)
(214.745 -17.4277 0)
(215.417 -17.8178 0)
(216.089 -18.2203 0)
(216.758 -18.6416 0)
(217.423 -19.0874 0)
(218.079 -19.5609 0)
(218.724 -20.0642 0)
(219.355 -20.599 0)
(219.969 -21.1676 0)
(220.562 -21.7707 0)
(221.129 -22.4078 0)
(221.667 -23.0763 0)
(222.169 -23.7738 0)
(222.63 -24.4969 0)
(223.046 -25.243 0)
(223.414 -26.0094 0)
(223.731 -26.7937 0)
(223.996 -27.593 0)
(224.204 -28.4034 0)
(224.355 -29.2192 0)
(224.449 -30.0351 0)
(224.486 -30.8468 0)
(224.468 -31.6514 0)
(224.402 -32.4461 0)
(224.289 -33.2356 0)
(224.13 -34.0104 0)
(223.929 -34.7639 0)
(223.694 -35.5022 0)
(223.422 -36.2233 0)
(223.094 -36.9227 0)
(222.707 -37.5961 0)
(222.331 -38.2598 0)
(222.018 -38.9238 0)
(221.684 -39.5685 0)
(221.291 -40.2015 0)
(220.688 -40.7625 0)
(219.995 -41.2561 0)
(219.488 -41.9241 0)
(218.615 -42.2977 0)
(217.85 -42.8542 0)
(216.923 -43.2393 0)
(216.051 -43.7075 0)
(215.179 -44.1348 0)
(214.335 -44.5774 0)
(213.498 -45.0082 0)
(212.655 -45.4123 0)
(211.844 -45.8202 0)
(211.049 -46.2339 0)
(210.233 -46.6072 0)
(209.451 -47.0264 0)
(208.619 -47.4014 0)
(207.789 -47.7992 0)
(206.953 -48.1846 0)
(206.123 -48.5805 0)
(205.283 -48.9542 0)
(204.436 -49.3064 0)
(203.601 -49.6613 0)
(202.774 -49.9809 0)
(202.009 -50.3375 0)
(201.281 -50.6554 0)
(200.686 -51.0772 0)
(200.046 -51.4022 0)
(199.51 -51.8461 0)
(198.774 -52.1485 0)
(197.948 -52.419 0)
(197.115 -52.6816 0)
(196.328 -52.9493 0)
(195.617 -53.2343 0)
(194.988 -53.5375 0)
(194.431 -53.8423 0)
(193.952 -54.1835 0)
(193.464 -54.4699 0)
(193.034 -54.8096 0)
(192.539 -55.069 0)
(192.064 -55.355 0)
(191.584 -55.6021 0)
(191.144 -55.8753 0)
(190.712 -56.1167 0)
(190.328 -56.3812 0)
(189.958 -56.6181 0)
(189.638 -56.8813 0)
(189.306 -57.1134 0)
(188.977 -57.3484 0)
(188.601 -57.5516 0)
(188.174 -57.7294 0)
(187.699 -57.8686 0)
(187.2 -58.0088 0)
(186.696 -58.1289 0)
(186.211 -58.2549 0)
(185.76 -58.3795 0)
(185.357 -58.515 0)
(185.008 -58.6591 0)
(184.714 -58.8139 0)
(184.47 -58.979 0)
(184.264 -59.1511 0)
(184.079 -59.3327 0)
(183.899 -59.5171 0)
(183.784 -59.7848 0)
(183.89 107.284 0)
(161.449 21.93 0)
(170.408 5.57603 0)
(179.833 2.54138 0)
(186.911 -1.24869 0)
(193.75 -2.57696 0)
(198.67 -4.88164 0)
(202.293 -6.1026 0)
(204.307 -7.55935 0)
(205.475 -8.71603 0)
(205.995 -9.8124 0)
(206.761 -10.7067 0)
(207.356 -11.599 0)
(208.047 -12.3632 0)
(208.705 -13.0802 0)
(209.384 -13.7228 0)
(210.06 -14.3142 0)
(210.738 -14.8538 0)
(211.413 -15.3499 0)
(212.086 -15.8061 0)
(212.758 -16.2305 0)
(213.431 -16.6305 0)
(214.105 -17.0173 0)
(214.782 -17.4004 0)
(215.459 -17.7889 0)
(216.135 -18.1896 0)
(216.809 -18.609 0)
(217.479 -19.0528 0)
(218.141 -19.5245 0)
(218.794 -20.0262 0)
(219.433 -20.5596 0)
(220.056 -21.1271 0)
(220.658 -21.7294 0)
(221.237 -22.3663 0)
(221.787 -23.0354 0)
(222.302 -23.7341 0)
(222.776 -24.4594 0)
(223.207 -25.2084 0)
(223.589 -25.9784 0)
(223.921 -26.7671 0)
(224.2 -27.5717 0)
(224.424 -28.3882 0)
(224.59 -29.2113 0)
(224.699 -30.0352 0)
(224.751 -30.8554 0)
(224.748 -31.6688 0)
(224.693 -32.4742 0)
(224.594 -33.2686 0)
(224.449 -34.057 0)
(224.26 -34.8213 0)
(224.036 -35.5692 0)
(223.776 -36.3006 0)
(223.461 -37.0103 0)
(223.085 -37.694 0)
(222.719 -38.3678 0)
(222.415 -39.0424 0)
(222.094 -39.6994 0)
(221.717 -40.3448 0)
(221.129 -40.9206 0)
(220.449 -41.4317 0)
(219.954 -42.1134 0)
(219.092 -42.5022 0)
(218.351 -43.0724 0)
(217.441 -43.4649 0)
(216.593 -43.9423 0)
(215.742 -44.3772 0)
(214.918 -44.831 0)
(214.097 -45.2758 0)
(213.269 -45.6974 0)
(212.471 -46.1241 0)
(211.691 -46.5563 0)
(210.895 -46.9454 0)
(210.144 -47.3814 0)
(209.343 -47.7658 0)
(208.552 -48.1686 0)
(207.753 -48.5591 0)
(206.961 -48.96 0)
(206.152 -49.3394 0)
(205.337 -49.7093 0)
(204.527 -50.0785 0)
(203.72 -50.4147 0)
(202.972 -50.7819 0)
(202.264 -51.1143 0)
(201.689 -51.5446 0)
(201.07 -51.8755 0)
(200.563 -52.3243 0)
(199.853 -52.6272 0)
(199.055 -52.8947 0)
(198.254 -53.1564 0)
(197.497 -53.4187 0)
(196.819 -53.7011 0)
(196.219 -53.9947 0)
(195.696 -54.2976 0)
(195.243 -54.6269 0)
(194.785 -54.909 0)
(194.387 -55.2432 0)
(193.917 -55.4916 0)
(193.472 -55.7742 0)
(193.016 -56.0097 0)
(192.605 -56.2812 0)
(192.192 -56.5089 0)
(191.833 -56.7719 0)
(191.478 -56.993 0)
(191.19 -57.2594 0)
(190.875 -57.4758 0)
(190.578 -57.7124 0)
(190.229 -57.9161 0)
(189.824 -58.0759 0)
(189.381 -58.2291 0)
(188.914 -58.3545 0)
(188.443 -58.4778 0)
(187.99 -58.5924 0)
(187.572 -58.7152 0)
(187.202 -58.8417 0)
(186.887 -58.9813 0)
(186.624 -59.1274 0)
(186.415 -59.2843 0)
(186.253 -59.4479 0)
(186.127 -59.6135 0)
(186.1 -59.8425 0)
(185.934 -59.97 0)
(183.972 107.419 0)
(161.472 21.9015 0)
(170.443 5.55992 0)
(179.857 2.54075 0)
(186.929 -1.2382 0)
(193.764 -2.56452 0)
(198.682 -4.87125 0)
(202.305 -6.09362 0)
(204.32 -7.54776 0)
(205.488 -8.70412 0)
(206.006 -9.79972 0)
(206.771 -10.6923 0)
(207.365 -11.5834 0)
(208.055 -12.3463 0)
(208.713 -13.0621 0)
(209.394 -13.7034 0)
(210.071 -14.2936 0)
(210.751 -14.8319 0)
(211.428 -15.3268 0)
(212.105 -15.7819 0)
(212.78 -16.205 0)
(213.456 -16.6036 0)
(214.134 -16.9887 0)
(214.814 -17.3702 0)
(215.495 -17.7567 0)
(216.176 -18.1552 0)
(216.854 -18.5724 0)
(217.529 -19.0139 0)
(218.198 -19.4831 0)
(218.857 -19.9825 0)
(219.504 -20.5135 0)
(220.135 -21.0786 0)
(220.747 -21.6788 0)
(221.336 -22.3139 0)
(221.897 -22.9818 0)
(222.424 -23.68 0)
(222.912 -24.4055 0)
(223.357 -25.1555 0)
(223.754 -25.927 0)
(224.102 -26.7178 0)
(224.397 -27.5254 0)
(224.637 -28.346 0)
(224.82 -29.1741 0)
(224.945 -30.004 0)
(225.014 -30.831 0)
(225.027 -31.6518 0)
(224.988 -32.4643 0)
(224.904 -33.2661 0)
(224.774 -34.0628 0)
(224.6 -34.8382 0)
(224.39 -35.5946 0)
(224.144 -36.3349 0)
(223.844 -37.0541 0)
(223.483 -37.7474 0)
(223.129 -38.4307 0)
(222.836 -39.1148 0)
(222.53 -39.7816 0)
(222.172 -40.4364 0)
(221.602 -41.0234 0)
(220.942 -41.5485 0)
(220.463 -42.2397 0)
(219.618 -42.6422 0)
(218.902 -43.2267 0)
(218.01 -43.6303 0)
(217.182 -44.1205 0)
(216.35 -44.5663 0)
(215.548 -45.034 0)
(214.747 -45.4945 0)
(213.937 -45.9329 0)
(213.157 -46.3805 0)
(212.396 -46.8368 0)
(211.619 -47.2538 0)
(210.892 -47.7234 0)
(210.113 -48.135 0)
(209.346 -48.5608 0)
(208.575 -48.9675 0)
(207.811 -49.3752 0)
(207.033 -49.7572 0)
(206.254 -50.1329 0)
(205.474 -50.4993 0)
(204.697 -50.8357 0)
(203.975 -51.2009 0)
(203.296 -51.54 0)
(202.747 -51.9739 0)
(202.151 -52.3114 0)
(201.672 -52.7692 0)
(200.986 -53.0813 0)
(200.211 -53.3582 0)
(199.435 -53.632 0)
(198.703 -53.9031 0)
(198.05 -54.196 0)
(197.474 -54.4932 0)
(196.979 -54.8066 0)
(196.547 -55.1336 0)
(196.12 -55.4246 0)
(195.746 -55.7575 0)
(195.3 -56.0034 0)
(194.884 -56.284 0)
(194.453 -56.5133 0)
(194.069 -56.7804 0)
(193.677 -56.9974 0)
(193.339 -57.253 0)
(193.001 -57.4579 0)
(192.739 -57.719 0)
(192.439 -57.9087 0)
(192.184 -58.1534 0)
(191.848 -58.3215 0)
(191.469 -58.4887 0)
(191.045 -58.6139 0)
(190.6 -58.7332 0)
(190.15 -58.8327 0)
(189.719 -58.9337 0)
(189.324 -59.036 0)
(188.977 -59.1444 0)
(188.684 -59.2657 0)
(188.441 -59.39 0)
(188.247 -59.5288 0)
(188.095 -59.6648 0)
(188.001 -59.8265 0)
(187.998 -60.0157 0)
(187.906 -60.1429 0)
(184.051 107.556 0)
(161.496 21.8722 0)
(170.479 5.54355 0)
(179.882 2.53993 0)
(186.949 -1.22942 0)
(193.781 -2.55375 0)
(198.698 -4.86257 0)
(202.319 -6.08649 0)
(204.335 -7.53782 0)
(205.502 -8.69273 0)
(206.018 -9.78721 0)
(206.783 -10.6786 0)
(207.376 -11.5687 0)
(208.065 -12.3306 0)
(208.724 -13.045 0)
(209.405 -13.6852 0)
(210.085 -14.2742 0)
(210.767 -14.8115 0)
(211.447 -15.3053 0)
(212.127 -15.7593 0)
(212.806 -16.1813 0)
(213.486 -16.5786 0)
(214.168 -16.9623 0)
(214.852 -17.3422 0)
(215.537 -17.727 0)
(216.222 -18.1237 0)
(216.906 -18.5389 0)
(217.586 -18.9783 0)
(218.261 -19.4456 0)
(218.928 -19.9431 0)
(219.582 -20.4726 0)
(220.223 -21.0364 0)
(220.845 -21.6356 0)
(221.445 -22.2701 0)
(222.018 -22.9382 0)
(222.559 -23.6374 0)
(223.061 -24.3647 0)
(223.52 -25.1174 0)
(223.933 -25.8924 0)
(224.296 -26.6874 0)
(224.607 -27.4999 0)
(224.863 -28.3265 0)
(225.063 -29.1616 0)
(225.204 -29.9994 0)
(225.288 -30.8349 0)
(225.317 -31.6647 0)
(225.293 -32.4867 0)
(225.221 -33.2981 0)
(225.105 -34.1017 0)
(224.947 -34.8911 0)
(224.749 -35.6577 0)
(224.516 -36.4078 0)
(224.229 -37.1373 0)
(223.881 -37.8413 0)
(223.536 -38.5348 0)
(223.254 -39.2294 0)
(222.961 -39.9068 0)
(222.621 -40.5725 0)
(222.068 -41.1704 0)
(221.426 -41.7077 0)
(220.962 -42.4053 0)
(220.135 -42.8174 0)
(219.446 -43.4153 0)
(218.572 -43.8288 0)
(217.766 -44.3313 0)
(216.953 -44.788 0)
(216.174 -45.2707 0)
(215.395 -45.7474 0)
(214.603 -46.2 0)
(213.845 -46.6674 0)
(213.103 -47.1436 0)
(212.347 -47.5844 0)
(211.648 -48.0789 0)
(210.892 -48.5084 0)
(210.151 -48.9513 0)
(209.404 -49.3698 0)
(208.665 -49.7843 0)
(207.917 -50.1737 0)
(207.172 -50.5571 0)
(206.423 -50.9217 0)
(205.678 -51.2591 0)
(204.988 -51.623 0)
(204.342 -51.9673 0)
(203.82 -52.4005 0)
(203.25 -52.739 0)
(202.8 -53.1986 0)
(202.139 -53.5107 0)
(201.388 -53.7875 0)
(200.638 -54.0613 0)
(199.932 -54.3304 0)
(199.304 -54.6213 0)
(198.752 -54.9121 0)
(198.287 -55.2245 0)
(197.877 -55.5401 0)
(197.483 -55.8331 0)
(197.128 -56.1552 0)
(196.703 -56.3933 0)
(196.31 -56.666 0)
(195.902 -56.8875 0)
(195.538 -57.1457 0)
(195.163 -57.3548 0)
(194.838 -57.5989 0)
(194.512 -57.7957 0)
(194.257 -58.0426 0)
(193.972 -58.2223 0)
(193.74 -58.4598 0)
(193.42 -58.6177 0)
(193.053 -58.7747 0)
(192.638 -58.8883 0)