/*--------------------------------*- C++ -*----------------------------------*\
| =========                 |                                                 |
| \\      /  F ield         | OpenFOAM: The Open Source CFD Toolbox           |
|  \\    /   O peration     | Version:  2412                                  |
|   \\  /    A nd           | Website:  www.openfoam.com                      |
|    \\/     M anipulation  |                                                 |
\*---------------------------------------------------------------------------*/
FoamFile
{
    version     2.0;
    format      ascii;
    arch        "LSB;label=32;scalar=64";
    class       volScalarField;
    location    "0.11";
    object      p;
}
// * * * * * * * * * * * * * * * * * * * * * * * * * * * * * * * * * * * * * //

dimensions      [1 -1 -2 0 0 0 0];

internalField   nonuniform List<scalar> 
9771
(
1118.01
2575.44
2687.86
2665
2659.79
2666.31
2677.1
2688.07
2699.28
2709.34
1119.14
2572.14
2688.32
2664.67
2659.56
2666.15
2676.96
2687.92
2699.12
2709.15
1119.93
2569.11
2688.68
2664.26
2659.34
2665.99
2676.82
2687.77
2698.95
2708.97
1120.51
2565.9
2688.97
2663.82
2659.13
2665.84
2676.68
2687.62
2698.79
2708.79
1119.96
2562.35
2689.2
2663.38
2658.91
2665.68
2676.53
2687.47
2698.63
2708.61
1117.83
2558.61
2689.34
2662.96
2658.69
2665.52
2676.39
2687.32
2698.46
2708.42
1115.5
2554.74
2689.37
2662.59
2658.48
2665.36
2676.24
2687.17
2698.29
2708.23
2716.81
2724.1
2730.54
2736.62
2742.78
2749.15
2755.72
2762.35
2768.95
2775.42
2781.73
2787.81
2793.67
2799.32
2804.76
2810.03
2815.14
2820.09
2824.9
2829.58
2834.15
2838.62
1111.93
2551.16
2689.31
2662.28
2658.27
2665.21
2676.09
2687.01
2698.12
2708.04
2716.61
2723.89
2730.34
2736.44
2742.61
2749
2755.59
2762.24
2768.85
2775.33
2781.63
2787.72
2793.58
2799.22
2804.66
2809.92
2815.01
2819.96
2824.75
2829.42
2833.97
2838.42
2842.79
2847.07
2851.26
2855.38
2859.41
2863.39
1106.28
2547.46
2688.98
2662.01
2658.07
2665.05
2675.94
2686.86
2697.95
2707.85
2716.4
2723.68
2730.13
2736.25
2742.45
2748.86
2755.47
2762.13
2768.74
2775.23
2781.54
2787.63
2793.48
2799.12
2804.55
2809.8
2814.89
2819.81
2824.6
2829.25
2833.78
2838.22
2842.57
2846.84
2851.01
2855.1
2859.12
2863.07
2866.97
1098.47
2544.3
2688.47
2661.84
2657.87
2664.89
2675.79
2686.7
2697.78
2707.66
2716.2
2723.46
2729.93
2736.06
2742.28
2748.71
2755.34
2762.01
2768.64
2775.14
2781.45
2787.53
2793.39
2799.01
2804.44
2809.68
2814.76
2819.67
2824.44
2829.08
2833.6
2838.02
2842.35
2846.6
2850.75
2854.82
2858.82
2862.75
2866.63
1090.08
2542.23
2688.03
2661.78
2657.69
2664.74
2675.64
2686.55
2697.61
2707.47
2715.99
2723.25
2729.72
2735.87
2742.11
2748.56
2755.21
2761.9
2768.53
2775.04
2781.35
2787.44
2793.29
2798.91
2804.33
2809.56
2814.63
2819.53
2824.29
2828.91
2833.41
2837.82
2842.14
2846.36
2850.5
2854.55
2858.52
2862.43
2866.28
1129.13
2543.29
2690.49
2654.08
2653.98
2661.54
2672.58
2683.55
2694.56
2704.25
2712.66
2719.96
2726.64
2733.11
2739.71
2746.5
2753.43
2760.34
2767.14
2773.75
2780.13
2786.24
2792.09
2797.68
2803.05
2808.2
2813.17
2817.96
2822.59
2827.08
2831.44
2835.7
2839.85
2843.89
2847.82
2851.67
2855.43
2859.11
2862.73
2866.29
2869.78
2873.21
2876.6
2879.94
2883.25
2886.54
2889.81
2893.06
2896.29
2899.51
2902.71
2905.89
2909.06
2912.21
2915.34
2918.45
2921.53
2924.57
2927.57
2930.53
2933.43
2936.26
2939.02
2941.69
2944.27
2946.74
2949.09
2951.33
2953.44
2955.41
2957.24
2958.93
2960.47
2961.86
2963.11
2964.2
2965.16
2965.97
2966.63
1450.55
2695.53
2680.86
2641.01
2647.61
2655.92
2667.04
2678.07
2688.89
2698.23
2706.43
2713.8
2720.87
2727.96
2735.24
2742.67
2750.13
2757.45
2764.56
2771.37
2777.86
2784.02
2789.85
2795.38
2800.63
2805.64
2810.42
2814.99
2819.38
2823.6
2827.69
2831.64
2835.46
2839.13
2842.68
2846.11
2849.44
2852.67
2855.83
2858.89
2861.86
2864.74
2867.54
2870.26
2872.9
2875.46
2877.92
2880.3
2882.58
2884.76
2886.83
2888.79
2890.63
2892.36
2893.96
2895.43
2896.78
2898
2899.09
2900.05
2900.89
2901.61
2902.19
2902.65
2902.99
2903.19
2903.29
2903.27
2903.13
2902.89
2902.55
2902.12
2901.59
2900.99
2900.31
2899.57
2898.77
2897.93
2897.04
1636.44
2628.99
2641.17
2636.99
2645.3
2652.92
2663.28
2673.85
2684.1
2692.91
2700.8
2708.14
2715.45
2722.98
2730.79
2738.71
2746.59
2754.26
2761.64
2768.64
2775.25
2781.46
2787.29
2792.78
2797.94
2802.82
2807.44
2811.81
2815.97
2819.94
2823.75
2827.38
2830.85
2834.14
2837.28
2840.27
2843.14
2845.88
2848.49
2850.99
2853.37
2855.65
2857.82
2859.89
2861.84
2863.67
2865.38
2866.97
2868.42
2869.74
2870.93
2871.98
2872.9
2873.68
2874.33
2874.84
2875.23
2875.5
2875.65
2875.69
2875.63
2875.47
2875.22
2874.9
2874.51
2874.04
2873.53
2872.96
2872.35
2871.7
2871.03
2870.32
2869.59
2868.85
2868.09
2867.32
2866.55
2865.77
2864.98
1801.25
2537.71
2609.49
2626.78
2639.93
2650.09
2660.66
2670.76
2680.46
2688.75
2696.28
2703.47
2710.87
2718.63
2726.71
2734.92
2743.05
2750.96
2758.52
2765.66
2772.35
2778.6
2784.43
2789.87
2794.96
2799.73
2804.2
2808.39
2812.33
2816.06
2819.58
2822.9
2826.01
2828.92
2831.67
2834.26
2836.7
2838.99
2841.13
2843.14
2845.01
2846.74
2848.35
2849.82
2851.17
2852.39
2853.47
2854.43
2855.26
2855.96
2856.53
2856.98
2857.31
2857.54
2857.67
2857.71
2857.66
2857.53
2857.33
2857.06
2856.72
2856.34
2855.9
2855.41
2854.89
2854.33
2853.74
2853.13
2852.49
2851.84
2851.17
2850.49
2849.8
2849.11
2848.42
2847.72
2847.04
2846.36
2845.7
1965.07
2488.08
2588.26
2615.16
2635.18
2648.03
2659.19
2669.07
2678.04
2685.65
2692.76
2699.71
2707.04
2714.86
2723.04
2731.35
2739.6
2747.61
2755.26
2762.46
2769.19
2775.45
2781.25
2786.65
2791.67
2796.34
2800.68
2804.72
2808.48
2812
2815.26
2818.27
2821.05
2823.62
2826.01
2828.25
2830.32
2832.22
2833.96
2835.53
2836.97
2838.28
2839.45
2840.5
2841.43
2842.23
2842.91
2843.47
2843.92
2844.26
2844.48
2844.61
2844.65
2844.6
2844.48
2844.28
2844.03
2843.72
2843.36
2842.95
2842.51
2842.03
2841.53
2841
2840.45
2839.9
2839.32
2838.77
2838.2
2837.63
2837.07
2836.53
2835.99
2835.47
2834.96
2834.48
2834
2833.55
2833.1
2106.73
2456.66
2561.8
2600.68
2629.56
2645.76
2658.17
2668.16
2676.75
2683.89
2690.52
2697.12
2704.25
2711.93
2720
2728.22
2736.41
2744.37
2751.99
2759.17
2765.86
2772.07
2777.83
2783.16
2788.11
2792.69
2796.92
2800.82
2804.43
2807.76
2810.8
2813.57
2816.09
2818.38
2820.46
2822.36
2824.09
2825.68
2827.15
2828.48
2829.66
2830.69
2831.56
2832.31
2832.93
2833.45
2833.85
2834.16
2834.37
2834.5
2834.54
2834.51
2834.42
2834.26
2834.06
2833.82
2833.53
2833.21
2832.85
2832.46
2832.07
2831.64
2831.22
2830.79
2830.34
2829.9
2829.46
2829.02
2828.59
2828.16
2827.73
2827.3
2826.87
2826.45
2826.03
2825.62
2825.21
2824.82
2824.41
2231.01
2451.44
2533.25
2591.86
2626.45
2644.93
2658.3
2668.32
2676.47
2683.15
2689.42
2695.65
2702.42
2709.77
2717.58
2725.58
2733.57
2741.38
2748.85
2755.9
2762.48
2768.58
2774.24
2779.48
2784.34
2788.82
2792.95
2796.74
2800.22
2803.39
2806.26
2808.84
2811.17
2813.27
2815.15
2816.84
2818.34
2819.67
2820.84
2821.88
2822.81
2823.64
2824.36
2824.98
2825.49
2825.9
2826.21
2826.42
2826.54
2826.6
2826.59
2826.52
2826.39
2826.23
2826.01
2825.77
2825.5
2825.19
2824.87
2824.53
2824.17
2823.81
2823.45
2823.08
2822.7
2822.33
2821.95
2821.58
2821.22
2820.87
2820.53
2820.19
2819.86
2819.57
2819.27
2819.02
2818.75
2818.51
2818.27
2331.93
2463.82
2520.21
2584.79
2624.87
2646.97
2660.96
2670.33
2677.46
2683.39
2689.26
2695.17
2701.61
2708.53
2715.91
2723.54
2731.21
2738.74
2745.97
2752.79
2759.17
2765.11
2770.61
2775.73
2780.46
2784.84
2788.86
2792.55
2795.91
2798.96
2801.69
2804.13
2806.33
2808.29
2810.05
2811.6
2812.98
2814.2
2815.28
2816.21
2817
2817.67
2818.23
2818.7
2819.09
2819.39
2819.62
2819.77
2819.87
2819.91
2819.9
2819.84
2819.74
2819.61
2819.44
2819.25
2819.04
2818.81
2818.58
2818.34
2818.09
2817.84
2817.6
2817.35
2817.11
2816.86
2816.63
2816.39
2816.15
2815.94
2815.71
2815.5
2815.29
2815.08
2814.87
2814.65
2814.44
2814.23
2814.02
2411.73
2487.73
2521.94
2588.72
2627.68
2650.86
2664.72
2673.7
2680.16
2685.14
2690.1
2695.43
2701.48
2708.01
2714.92
2722.09
2729.36
2736.53
2743.43
2749.96
2756.07
2761.76
2767.07
2772
2776.59
2780.84
2784.74
2788.33
2791.59
2794.54
2797.17
2799.52
2801.61
2803.49
2805.18
2806.68
2808
2809.14
2810.14
2811.01
2811.77
2812.44
2813.01
2813.48
2813.88
2814.19
2814.43
2814.61
2814.74
2814.81
2814.85
2814.85
2814.81
2814.75
2814.66
2814.55
2814.43
2814.3
2814.15
2814
2813.83
2813.65
2813.47
2813.28
2813.11
2812.91
2812.72
2812.52
2812.31
2812.14
2811.94
2811.75
2811.57
2811.38
2811.2
2811.03
2810.86
2810.7
2810.56
2474.23
2513.82
2534.27
2599.21
2632.21
2655.55
2669.3
2677.97
2683.93
2688.24
2692.4
2696.82
2702.09
2708.09
2714.56
2721.25
2728.06
2734.8
2741.31
2747.48
2753.27
2758.68
2763.73
2768.46
2772.87
2776.95
2780.72
2784.19
2787.34
2790.2
2792.76
2795.05
2797.1
2798.93
2800.55
2802
2803.31
2804.5
2805.54
2806.44
2807.19
2807.83
2808.38
2808.85
2809.26
2809.61
2809.9
2810.14
2810.33
2810.47
2810.58
2810.64
2810.67
2810.67
2810.65
2810.61
2810.55
2810.48
2810.39
2810.29
2810.17
2810.04
2809.94
2809.81
2809.69
2809.56
2809.43
2809.31
2809.19
2809.08
2808.97
2808.86
2808.76
2808.68
2808.6
2808.52
2808.45
2808.38
2808.32
2523.68
2539.35
2550.16
2613.69
2639.06
2661.62
2674.85
2683.24
2688.86
2692.61
2696.03
2699.49
2703.75
2708.81
2714.65
2720.88
2727.21
2733.5
2739.61
2745.4
2750.84
2755.94
2760.72
2765.2
2769.4
2773.3
2776.92
2780.25
2783.29
2786.04
2788.53
2790.77
2792.79
2794.62
2796.26
2797.73
2799.03
2800.19
2801.22
2802.17
2803.02
2803.78
2804.44
2805
2805.47
2805.87
2806.21
2806.5
2806.74
2806.95
2807.11
2807.24
2807.35
2807.43
2807.49
2807.53
2807.55
2807.56
2807.55
2807.53
2807.49
2807.45
2807.43
2807.39
2807.34
2807.3
2807.26
2807.22
2807.17
2807.12
2807.06
2807.01
2806.94
2806.88
2806.81
2806.73
2806.66
2806.59
2806.52
2562.39
2562.19
2567.94
2630.3
2646.98
2668.28
2680.77
2688.99
2694.45
2697.87
2700.77
2703.46
2706.75
2710.7
2715.47
2720.95
2726.77
2732.58
2738.27
2743.68
2748.79
2753.58
2758.09
2762.33
2766.3
2770
2773.43
2776.61
2779.52
2782.16
2784.56
2786.75
2788.74
2790.56
2792.23
2793.75
2795.12
2796.36
2797.47
2798.45
2799.33
2800.12
2800.83
2801.47
2802.05
2802.56
2803.01
2803.4
2803.73
2804.03
2804.27
2804.48
2804.67
2804.83
2804.96
2805.08
2805.17
2805.24
2805.3
2805.34
2805.37
2805.39
2805.42
2805.43
2805.43
2805.42
2805.41
2805.39
2805.37
2805.34
2805.32
2805.29
2805.26
2805.23
2805.21
2805.18
2805.16
2805.15
2805.11
2593.4
2582.69
2586.68
2647.58
2656.98
2676.16
2687.11
2694.96
2700.41
2703.76
2706.34
2708.4
2710.8
2713.65
2717.25
2721.64
2726.68
2731.97
2737.2
2742.26
2747.06
2751.58
2755.84
2759.85
2763.6
2767.1
2770.35
2773.35
2776.12
2778.65
2780.96
2783.08
2785.03
2786.84
2788.52
2790.07
2791.49
2792.8
2794.01
2795.11
2796.11
2797
2797.79
2798.51
2799.15
2799.74
2800.26
2800.73
2801.16
2801.54
2801.88
2802.18
2802.45
2802.68
2802.88
2803.07
2803.23
2803.37
2803.49
2803.6
2803.7
2803.78
2803.86
2803.92
2803.98
2804.02
2804.06
2804.08
2804.11
2804.13
2804.14
2804.16
2804.16
2804.17
2804.16
2804.17
2804.16
2804.15
2804.14
2618.64
2601.23
2605.66
2663.14
2668.48
2685.32
2693.74
2700.99
2706.38
2709.78
2712.21
2713.92
2715.75
2717.73
2720.2
2723.34
2727.24
2731.73
2736.43
2741.09
2745.6
2749.89
2753.94
2757.75
2761.31
2764.63
2767.7
2770.54
2773.16
2775.57
2777.79
2779.84
2781.75
2783.54
2785.2
2786.77
2788.23
2789.59
2790.86
2792.03
2793.12
2794.12
2795.03
2795.86
2796.62
2797.3
2797.91
2798.46
2798.97
2799.43
2799.84
2800.21
2800.56
2800.86
2801.13
2801.38
2801.6
2801.8
2801.98
2802.14
2802.28
2802.41
2802.53
2802.63
2802.72
2802.79
2802.86
2802.91
2802.96
2803.01
2803.05
2803.08
2803.1
2803.15
2803.17
2803.19
2803.21
2803.22
2803.24
2640.44
2619.76
2623.32
2673.82
2681.33
2694.35
2700.33
2707.05
2712.42
2715.93
2718.3
2719.75
2721.13
2722.41
2723.97
2726
2728.7
2732.11
2736.07
2740.22
2744.39
2748.44
2752.31
2755.96
2759.37
2762.53
2765.45
2768.15
2770.64
2772.94
2775.07
2777.06
2778.92
2780.68
2782.34
2783.9
2785.37
2786.76
2788.06
2789.27
2790.41
2791.46
2792.44
2793.34
2794.18
2794.96
2795.66
2796.31
2796.9
2797.44
2797.93
2798.37
2798.78
2799.14
2799.47
2799.77
2800.04
2800.29
2800.52
2800.73
2800.92
2801.09
2801.24
2801.37
2801.49
2801.61
2801.71
2801.8
2801.89
2801.97
2802.03
2802.12
2802.18
2802.24
2802.29
2802.35
2802.4
2802.45
2802.49
2659.82
2638.43
2643.54
2679.03
2694.11
2701.32
2706.35
2713.04
2718.49
2722.13
2724.43
2725.67
2726.75
2727.55
2728.42
2729.52
2731.12
2733.37
2736.34
2739.82
2743.53
2747.27
2750.93
2754.43
2757.72
2760.77
2763.58
2766.17
2768.57
2770.79
2772.85
2774.78
2776.59
2778.3
2779.93
2781.48
2782.94
2784.33
2785.64
2786.87
2788.02
2789.1
2790.11
2791.05
2791.93
2792.74
2793.5
2794.2
2794.84
2795.44
2795.99
2796.5
2796.96
2797.38
2797.77
2798.12
2798.44
2798.74
2799.02
2799.27
2799.5
2799.71
2799.9
2800.07
2800.22
2800.39
2800.53
2800.65
2800.76
2800.88
2800.98
2801.08
2801.17
2801.25
2801.32
2801.39
2801.45
2801.49
2801.54
2677.5
2657.17
2664.77
2684.3
2703.27
2705.82
2711.86
2718.99
2724.6
2728.45
2730.77
2731.82
2732.54
2732.84
2733.14
2733.52
2734.23
2735.46
2737.37
2739.99
2743.11
2746.45
2749.84
2753.16
2756.33
2759.29
2762.03
2764.56
2766.9
2769.07
2771.08
2772.96
2774.72
2776.39
2777.98
2779.49
2780.92
2782.29
2783.58
2784.8
2785.95
2787.02
2788.04
2788.99
2789.88
2790.72
2791.49
2792.21
2792.89
2793.51
2794.09
2794.63
2795.13
2795.58
2796.01
2796.41
2796.77
2797.11
2797.43
2797.71
2797.98
2798.22
2798.45
2798.66
2798.86
2799.05
2799.22
2799.38
2799.52
2799.66
2799.79
2799.91
2800.02
2800.12
2800.21
2800.3
2800.38
2800.45
2800.53
2693.56
2674.57
2684.06
2689.72
2710.89
2710.77
2717.99
2724.98
2730.68
2734.8
2737.17
2738.05
2738.45
2738.36
2738.12
2737.91
2737.92
2738.28
2739.21
2740.86
2743.24
2746.08
2749.12
2752.21
2755.24
2758.11
2760.8
2763.3
2765.61
2767.76
2769.75
2771.59
2773.32
2774.94
2776.48
2777.93
2779.32
2780.63
2781.88
2783.07
2784.19
2785.24
2786.24
2787.18
2788.06
2788.89
2789.67
2790.39
2791.07
2791.71
2792.3
2792.85
2793.37
2793.85
2794.3
2794.72
2795.12
2795.48
2795.82
2796.14
2796.44
2796.72
2796.98
2797.22
2797.45
2797.66
2797.86
2798.04
2798.21
2798.37
2798.52
2798.66
2798.78
2798.9
2799.02
2799.12
2799.22
2799.31
2799.4
2707.96
2690.69
2700.8
2696.72
2716.65
2716.16
2724.15
2730.88
2736.76
2741.18
2743.68
2744.45
2744.63
2744.1
2743.28
2742.45
2741.87
2741.62
2741.78
2742.49
2743.96
2746.16
2748.8
2751.61
2754.46
2757.24
2759.89
2762.37
2764.68
2766.83
2768.81
2770.65
2772.35
2773.93
2775.42
2776.81
2778.13
2779.38
2780.56
2781.68
2782.75
2783.76
2784.71
2785.61
2786.46
2787.26
2788.01
2788.72
2789.39
2790.02
2790.61
2791.16
2791.69
2792.18
2792.65
2793.08
2793.49
2793.87
2794.23
2794.57
2794.88
2795.18
2795.46
2795.73
2795.97
2796.19
2796.4
2796.6
2796.78
2796.95
2797.11
2797.26
2797.4
2797.53
2797.65
2797.76
2797.87
2797.97
2798.07
2720.57
2704.22
2714.43
2704.64
2722.93
2721.95
2730.27
2736.73
2742.79
2747.49
2750.13
2750.89
2750.89
2750.01
2748.73
2747.28
2746.07
2745.23
2744.84
2744.88
2745.48
2746.84
2748.91
2751.4
2754.05
2756.7
2759.27
2761.73
2764.05
2766.2
2768.2
2770.03
2771.72
2773.28
2774.72
2776.06
2777.31
2778.48
2779.59
2780.64
2781.63
2782.58
2783.47
2784.32
2785.12
2785.88
2786.59
2787.27
2787.91
2788.52
2789.09
2789.63
2790.15
2790.63
2791.09
2791.52
2791.93
2792.32
2792.68
2793.02
2793.33
2793.64
2793.92
2794.18
2794.43
2794.66
2794.88
2795.08
2795.27
2795.44
2795.61
2795.76
2795.91
2796.05
2796.18
2796.3
2796.41
2796.51
2796.61
2731.52
2715.53
2725.38
2713.58
2730.55
2728.49
2736.57
2742.54
2748.67
2753.62
2756.45
2757.29
2757.22
2756.16
2754.49
2752.43
2750.55
2749.07
2748.1
2747.67
2747.69
2748.26
2749.57
2751.56
2753.94
2756.46
2758.94
2761.34
2763.63
2765.79
2767.79
2769.63
2771.31
2772.85
2774.27
2775.57
2776.77
2777.88
2778.92
2779.9
2780.82
2781.7
2782.53
2783.31
2784.06
2784.76
2785.43
2786.07
2786.68
2787.25
2787.8
2788.31
2788.8
2789.27
2789.71
2790.12
2790.52
2790.89
2791.24
2791.57
2791.88
2792.17
2792.44
2792.7
2792.94
2793.17
2793.38
2793.58
2793.76
2793.94
2794.1
2794.25
2794.4
2794.54
2794.67
2794.79
2794.9
2795.01
2795.11
2741.17
2725.4
2734.56
2722.44
2738.51
2735.48
2743.09
2748.38
2754.35
2759.49
2762.52
2763.47
2763.36
2762.25
2760.42
2757.97
2755.45
2753.29
2751.69
2750.71
2750.33
2750.41
2751.01
2752.31
2754.2
2756.46
2758.82
2761.16
2763.4
2765.51
2767.5
2769.33
2771.01
2772.54
2773.94
2775.21
2776.38
2777.46
2778.46
2779.39
2780.26
2781.08
2781.85
2782.58
2783.27
2783.93
2784.56
2785.15
2785.72
2786.25
2786.76
2787.24
2787.7
2788.13
2788.53
2788.92
2789.28
2789.63
2789.95
2790.25
2790.54
2790.81
2791.06
2791.29
2791.51
2791.72
2791.92
2792.1
2792.27
2792.44
2792.59
2792.74
2792.88
2793.01
2793.14
2793.27
2793.38
2793.5
2793.61
2749.7
2734.36
2742.71
2730.69
2745.98
2742.27
2749.45
2754.19
2759.89
2765.1
2768.29
2769.37
2769.31
2768.28
2766.46
2763.78
2760.77
2757.94
2755.66
2754.08
2753.21
2752.95
2753.11
2753.75
2755.02
2756.8
2758.89
2761.08
2763.25
2765.32
2767.26
2769.06
2770.73
2772.26
2773.65
2774.92
2776.08
2777.14
2778.12
2779.03
2779.87
2780.66
2781.4
2782.09
2782.75
2783.37
2783.96
2784.52
2785.04
2785.54
2786.01
2786.45
2786.87
2787.26
2787.62
2787.97
2788.29
2788.6
2788.89
2789.16
2789.41
2789.65
2789.88
2790.1
2790.31
2790.5
2790.69
2790.87
2791.03
2791.19
2791.34
2791.48
2791.6
2791.72
2791.82
2791.91
2791.99
2792.07
2792.14
2757.19
2742.38
2750.03
2738.48
2753.12
2748.93
2755.69
2759.99
2765.33
2770.45
2773.76
2774.97
2775.01
2774.06
2772.34
2769.65
2766.41
2763.07
2760.14
2757.92
2756.47
2755.8
2755.68
2755.9
2756.57
2757.77
2759.38
2761.26
2763.23
2765.18
2767.05
2768.81
2770.44
2771.96
2773.35
2774.62
2775.79
2776.86
2777.85
2778.76
2779.59
2780.37
2781.09
2781.76
2782.4
2782.99
2783.54
2784.07
2784.56
2785.02
2785.45
2785.86
2786.23
2786.59
2786.93
2787.24
2787.54
2787.82
2788.08
2788.32
2788.54
2788.75
2788.95
2789.13
2789.29
2789.45
2789.59
2789.72
2789.83
2789.94
2790.05
2790.14
2790.24
2790.33
2790.41
2790.5
2790.58
2790.65
2790.72
2763.78
2749.58
2756.72
2745.9
2759.96
2755.51
2761.83
2765.79
2770.71
2775.6
2778.96
2780.3
2780.46
2779.62
2778.09
2775.5
2772.22
2768.58
2765.12
2762.26
2760.21
2758.97
2758.51
2758.48
2758.71
2759.34
2760.41
2761.83
2763.46
2765.19
2766.91
2768.58
2770.16
2771.64
2773.03
2774.31
2775.49
2776.58
2777.58
2778.5
2779.35
2780.13
2780.85
2781.52
2782.13
2782.7
2783.24
2783.73
2784.2
2784.63
2785.02
2785.4
2785.74
2786.06
2786.36
2786.63
2786.87
2787.1
2787.3
2787.49
2787.67
2787.83
2787.98
2788.12
2788.25
2788.38
2788.49
2788.6
2788.7
2788.79
2788.88
2788.96
2789.04
2789.11
2789.18
2789.24
2789.29
2789.35
2789.4
2769.65
2756.06
2762.95
2752.97
2766.52
2761.98
2767.85
2771.53
2776.06
2780.58
2783.92
2785.39
2785.68
2784.95
2783.59
2781.17
2778.01
2774.29
2770.53
2767.16
2764.5
2762.67
2761.67
2761.32
2761.3
2761.5
2762.02
2762.89
2764.08
2765.46
2766.95
2768.46
2769.94
2771.36
2772.72
2773.99
2775.18
2776.29
2777.31
2778.26
2779.12
2779.92
2780.65
2781.32
2781.93
2782.49
2783.01
2783.49
2783.91
2784.3
2784.66
2784.99
2785.29
2785.56
2785.81
2786.03
2786.23
2786.42
2786.59
2786.75
2786.89
2787.02
2787.14
2787.25
2787.35
2787.44
2787.53
2787.6
2787.68
2787.74
2787.8
2787.85
2787.91
2787.95
2787.99
2788.03
2788.07
2788.1
2788.13
2774.97
2762
2768.78
2759.68
2772.77
2768.32
2773.75
2777.18
2781.35
2785.43
2788.67
2790.25
2790.66
2790.04
2788.88
2786.68
2783.75
2780.14
2776.27
2772.55
2769.35
2766.87
2765.22
2764.35
2764.02
2763.95
2764.06
2764.42
2765.1
2766.08
2767.25
2768.54
2769.87
2771.2
2772.49
2773.73
2774.92
2776.03
2777.07
2778.04
2778.94
2779.75
2780.49
2781.17
2781.78
2782.33
2782.82
2783.26
2783.65
2784
2784.32
2784.61
2784.86
2785.09
2785.29
2785.47
2785.64
2785.78
2785.91
2786.03
2786.13
2786.22
2786.31
2786.38
2786.45
2786.5
2786.56
2786.6
2786.64
2786.68
2786.71
2786.74
2786.76
2786.78
2786.8
2786.81
2786.83
2786.84
2786.85
2779.84
2767.53
2774.31
2766.06
2778.72
2774.49
2779.49
2782.7
2786.54
2790.14
2793.22
2794.89
2795.4
2794.91
2793.94
2791.99
2789.35
2785.99
2782.2
2778.29
2774.68
2771.62
2769.28
2767.74
2766.91
2766.54
2766.4
2766.42
2766.65
2767.16
2767.94
2768.93
2770.05
2771.24
2772.44
2773.61
2774.75
2775.84
2776.88
2777.85
2778.75
2779.58
2780.34
2781.02
2781.62
2782.16
2782.63
2783.05
2783.42
2783.74
2784.02
2784.26
2784.47
2784.65
2784.81
2784.94
2785.06
2785.17
2785.25
2785.32
2785.38
2785.42
2785.46
2785.49
2785.52
2785.53
2785.55
2785.55
2785.56
2785.56
2785.56
2785.55
2785.55
2785.54
2785.54
2785.53
2785.52
2785.51
2785.5
2784.37
2772.75
2779.57
2772.09
2784.36
2780.48
2785.03
2788.05
2791.59
2794.68
2797.56
2799.29
2799.91
2799.55
2798.81
2797.13
2794.82
2791.76
2788.2
2784.31
2780.4
2776.84
2773.84
2771.56
2770.05
2769.21
2768.77
2768.58
2768.54
2768.67
2769.04
2769.67
2770.52
2771.49
2772.55
2773.64
2774.72
2775.76
2776.75
2777.69
2778.57
2779.38
2780.13
2780.8
2781.4
2781.93
2782.39
2782.8
2783.15
2783.45
2783.7
2783.91
2784.08
2784.23
2784.34
2784.44
2784.51
2784.56
2784.6
2784.62
2784.64
2784.64
2784.64
2784.64
2784.62
2784.61
2784.59
2784.57
2784.54
2784.52
2784.49
2784.46
2784.43
2784.39
2784.36
2784.33
2784.3
2784.26
2784.23
2788.6
2777.68
2784.55
2777.79
2789.7
2786.33
2790.41
2793.23
2796.45
2799.05
2801.68
2803.47
2804.19
2803.98
2803.47
2802.08
2800.13
2797.41
2794.11
2790.36
2786.38
2782.43
2778.81
2775.87
2773.65
2772.17
2771.3
2770.83
2770.6
2770.52
2770.59
2770.85
2771.35
2772.05
2772.9
2773.83
2774.79
2775.76
2776.69
2777.57
2778.39
2779.16
2779.86
2780.5
2781.07
2781.58
2782.02
2782.41
2782.74
2783.01
2783.24
2783.43
2783.58
2783.69
2783.78
2783.84
2783.87
2783.89
2783.9
2783.89
2783.87
2783.85
2783.81
2783.77
2783.73
2783.68
2783.63
2783.58
2783.52
2783.47
2783.41
2783.36
2783.3
2783.25
2783.2
2783.15
2783.1
2783.05
2783.01
2792.49
2782.23
2789.24
2783.11
2794.5
2792.23
2795.82
2798.3
2801.15
2803.23
2805.58
2807.41
2808.24
2808.19
2807.93
2806.85
2805.27
2802.89
2799.89
2796.32
2792.38
2788.28
2784.34
2780.69
2777.77
2775.57
2774.12
2773.23
2772.73
2772.47
2772.38
2772.41
2772.59
2772.97
2773.54
2774.24
2775.03
2775.85
2776.67
2777.47
2778.22
2778.92
2779.56
2780.14
2780.67
2781.13
2781.53
2781.88
2782.17
2782.42
2782.61
2782.77
2782.89
2782.98
2783.04
2783.07
2783.09
2783.09
2783.07
2783.04
2783
2782.95
2782.89
2782.83
2782.76
2782.69
2782.62
2782.55
2782.48
2782.4
2782.33
2782.26
2782.19
2782.12
2782.06
2782
2781.94
2781.88
2781.82
2795.97
2786.32
2793.54
2788.12
2798.15
2798.82
2801.57
2803.39
2805.71
2807.29
2809.3
2811.13
2812.07
2812.22
2812.19
2811.42
2810.2
2808.16
2805.47
2802.12
2798.29
2794.19
2790.03
2786.06
2782.44
2779.55
2777.41
2776
2775.11
2774.6
2774.32
2774.2
2774.2
2774.3
2774.56
2774.97
2775.51
2776.12
2776.76
2777.41
2778.05
2778.65
2779.2
2779.71
2780.16
2780.56
2780.9
2781.2
2781.44
2781.64
2781.8
2781.92
2782.01
2782.07
2782.1
2782.11
2782.1
2782.08
2782.04
2782
2781.94
2781.87
2781.8
2781.73
2781.65
2781.57
2781.5
2781.42
2781.33
2781.26
2781.18
2781.1
2781.02
2780.95
2780.87
2780.8
2780.74
2780.67
2780.61
2799.04
2789.93
2797.52
2793.53
2801.83
2805.22
2807.06
2808.43
2810.2
2811.29
2812.9
2814.64
2815.72
2816.11
2816.27
2815.78
2814.9
2813.19
2810.79
2807.68
2804.03
2800.01
2795.8
2791.65
2787.7
2784.19
2781.36
2779.26
2777.86
2776.97
2776.43
2776.13
2775.98
2775.93
2775.94
2776.06
2776.3
2776.64
2777.05
2777.5
2777.96
2778.41
2778.83
2779.22
2779.56
2779.87
2780.13
2780.34
2780.52
2780.66
2780.77
2780.85
2780.9
2780.93
2780.94
2780.93
2780.9
2780.87
2780.82
2780.76
2780.7
2780.63
2780.56
2780.48
2780.4
2780.32
2780.23
2780.15
2780.07
2779.99
2779.91
2779.83
2779.75
2779.67
2779.59
2779.52
2779.45
2779.38
2779.31
2801.86
2793.34
2801.54
2799.65
2805.99
2811.01
2811.66
2813.09
2814.55
2815.26
2816.44
2818.01
2819.21
2819.87
2820.2
2819.93
2819.36
2817.94
2815.83
2812.98
2809.54
2805.66
2801.52
2797.3
2793.19
2789.35
2785.91
2783.14
2781.11
2779.73
2778.83
2778.27
2777.93
2777.72
2777.57
2777.47
2777.44
2777.47
2777.59
2777.78
2778.01
2778.26
2778.5
2778.73
2778.94
2779.12
2779.26
2779.38
2779.48
2779.55
2779.59
2779.62
2779.63
2779.62
2779.6
2779.57
2779.52
2779.47
2779.41
2779.35
2779.28
2779.2
2779.13
2779.05
2778.97
2778.88
2778.8
2778.72
2778.64
2778.56
2778.48
2778.4
2778.33
2778.25
2778.18
2778.11
2778.04
2777.97
2777.91
2804.65
2796.96
2805.69
2805.57
2810.09
2816.35
2815.81
2817.41
2818.7
2819.18
2819.93
2821.3
2822.6
2823.49
2823.98
2823.88
2823.56
2822.4
2820.56
2817.98
2814.78
2811.1
2807.1
2802.94
2798.78
2794.77
2791.02
2787.72
2785.03
2783.02
2781.61
2780.66
2780.04
2779.61
2779.3
2779.03
2778.79
2778.58
2778.43
2778.33
2778.28
2778.27
2778.28
2778.31
2778.34
2778.36
2778.37
2778.37
2778.37
2778.35
2778.33
2778.29
2778.25
2778.19
2778.14
2778.07
2778.01
2777.94
2777.86
2777.79
2777.71
2777.63
2777.55
2777.46
2777.38
2777.3
2777.22
2777.14
2777.06
2776.99
2776.91
2776.84
2776.76
2776.69
2776.62
2776.55
2776.49
2776.42
2776.36
2807.46
2800.74
2809.62
2810.81
2813.86
2820.95
2819.95
2821.75
2822.73
2823.03
2823.41
2824.57
2825.92
2826.98
2827.6
2827.67
2827.52
2826.58
2825
2822.68
2819.75
2816.32
2812.52
2808.48
2804.35
2800.28
2796.38
2792.76
2789.51
2786.86
2784.85
2783.41
2782.38
2781.65
2781.11
2780.65
2780.24
2779.83
2779.44
2779.07
2778.74
2778.45
2778.2
2777.99
2777.81
2777.65
2777.51
2777.38
2777.27
2777.16
2777.05
2776.94
2776.84
2776.73
2776.63
2776.53
2776.43
2776.34
2776.24
2776.15
2776.05
2775.96
2775.87
2775.79
2775.7
2775.62
2775.53
2775.45
2775.37
2775.3
2775.22
2775.15
2775.07
2775
2774.93
2774.86
2774.8
2774.73
2774.67
2810.22
2804.45
2813.2
2815.46
2817.53
2824.94
2824.2
2826.12
2826.68
2826.83
2826.89
2827.85
2829.19
2830.35
2831.1
2831.3
2831.24
2830.49
2829.16
2827.1
2824.46
2821.3
2817.74
2813.89
2809.88
2805.83
2801.85
2798.05
2794.52
2791.37
2788.72
2786.64
2785.07
2783.9
2783.01
2782.3
2781.68
2781.09
2780.51
2779.92
2779.34
2778.79
2778.28
2777.82
2777.41
2777.06
2776.75
2776.48
2776.24
2776.02
2775.82
2775.64
2775.47
2775.31
2775.16
2775.02
2774.88
2774.75
2774.63
2774.52
2774.4
2774.3
2774.19
2774.09
2774
2773.9
2773.81
2773.72
2773.64
2773.55
2773.47
2773.39
2773.31
2773.24
2773.17
2773.1
2773.04
2772.98
2772.92
2812.91
2808.04
2816.47
2819.59
2821.23
2828.91
2828.33
2830.29
2830.53
2830.58
2830.42
2831.18
2832.43
2833.63
2834.48
2834.77
2834.75
2834.15
2833.05
2831.26
2828.92
2826.05
2822.77
2819.15
2815.3
2811.33
2807.36
2803.47
2799.75
2796.28
2793.1
2790.36
2788.18
2786.46
2785.11
2784.03
2783.12
2782.29
2781.5
2780.72
2779.95
2779.19
2778.46
2777.79
2777.17
2776.62
2776.13
2775.7
2775.32
2774.98
2774.68
2774.41
2774.17
2773.95
2773.75
2773.56
2773.39
2773.22
2773.07
2772.92
2772.78
2772.65
2772.52
2772.4
2772.28
2772.17
2772.06
2771.96
2771.86
2771.77
2771.68
2771.59
2771.51
2771.43
2771.35
2771.28
2771.2
2771.13
2771.07
2815.54
2811.53
2819.57
2823.33
2824.89
2832.79
2832.28
2834.26
2834.3
2834.29
2834.04
2834.58
2835.67
2836.84
2837.74
2838.09
2838.08
2837.58
2836.7
2835.18
2833.14
2830.57
2827.58
2824.23
2820.6
2816.78
2812.87
2808.95
2805.11
2801.42
2797.94
2794.73
2791.86
2789.5
2787.56
2785.97
2784.65
2783.49
2782.45
2781.45
2780.5
2779.58
2778.69
2777.85
2777.07
2776.34
2775.69
2775.1
2774.57
2774.1
2773.69
2773.32
2772.99
2772.69
2772.42
2772.17
2771.94
2771.73
2771.53
2771.34
2771.17
2771
2770.84
2770.7
2770.56
2770.42
2770.3
2770.18
2770.06
2769.94
2769.83
2769.73
2769.63
2769.53
2769.43
2769.34
2769.25
2769.16
2769.08
2818.14
2814.92
2822.57
2826.77
2828.4
2836.48
2836
2838.01
2838.01
2837.98
2837.71
2838.07
2838.93
2839.99
2840.88
2841.26
2841.25
2840.84
2840.13
2838.87
2837.13
2834.87
2832.18
2829.11
2825.73
2822.1
2818.3
2814.42
2810.53
2806.68
2802.95
2799.4
2796.09
2793.03
2790.38
2788.21
2786.37
2784.79
2783.4
2782.15
2781.01
2779.93
2778.92
2777.95
2777.05
2776.19
2775.41
2774.68
2774.02
2773.42
2772.88
2772.39
2771.95
2771.55
2771.19
2770.86
2770.56
2770.28
2770.02
2769.79
2769.56
2769.36
2769.16
2768.97
2768.8
2768.63
2768.47
2768.31
2768.16
2768.02
2767.88
2767.75
2767.63
2767.51
2767.4
2767.3
2767.2
2767.1
2767.02
2820.71
2818.21
2825.51
2829.99
2831.73
2839.94
2839.53
2841.59
2841.64
2841.64
2841.4
2841.61
2842.2
2843.08
2843.92
2844.31
2844.3
2843.95
2843.39
2842.36
2840.9
2838.95
2836.56
2833.77
2830.66
2827.26
2823.62
2819.83
2815.93
2811.99
2808.07
2804.25
2800.58
2797.1
2793.88
2790.95
2788.44
2786.35
2784.55
2782.97
2781.58
2780.32
2779.17
2778.1
2777.09
2776.14
2775.25
2774.41
2773.63
2772.9
2772.23
2771.62
2771.06
2770.54
2770.08
2769.65
2769.26
2768.9
2768.57
2768.26
2767.97
2767.71
2767.45
2767.22
2766.99
2766.78
2766.58
2766.39
2766.22
2766.05
2765.89
2765.74
2765.6
2765.46
2765.33
2765.21
2765.09
2764.98
2764.87
2823.27
2821.4
2828.4
2833.03
2834.88
2843.21
2842.9
2845.02
2845.17
2845.24
2845.02
2845.15
2845.48
2846.14
2846.88
2847.26
2847.25
2846.97
2846.51
2845.67
2844.47
2842.81
2840.72
2838.22
2835.37
2832.2
2828.75
2825.07
2821.21
2817.22
2813.19
2809.15
2805.18
2801.33
2797.66
2794.24
2791.1
2788.3
2785.95
2784
2782.3
2780.81
2779.48
2778.28
2777.16
2776.12
2775.14
2774.21
2773.33
2772.5
2771.72
2771
2770.32
2769.7
2769.11
2768.58
2768.08
2767.62
2767.19
2766.8
2766.44
2766.1
2765.79
2765.49
2765.22
2764.96
2764.72
2764.49
2764.27
2764.07
2763.87
2763.68
2763.5
2763.33
2763.17
2763.02
2762.88
2762.74
2762.61
2825.74
2824.51
2831.31
2835.98
2837.95
2846.34
2846.08
2848.26
2848.57
2848.74
2848.56
2848.62
2848.74
2849.17
2849.76
2850.1
2850.12
2849.9
2849.53
2848.85
2847.87
2846.48
2844.67
2842.44
2839.85
2836.92
2833.66
2830.12
2826.32
2822.33
2818.21
2814.01
2809.8
2805.66
2801.64
2797.8
2794.21
2790.94
2788
2785.45
2783.33
2781.54
2779.97
2778.58
2777.31
2776.15
2775.07
2774.05
2773.08
2772.16
2771.3
2770.47
2769.7
2768.97
2768.28
2767.64
2767.04
2766.48
2765.95
2765.47
2765.02
2764.6
2764.2
2763.83
2763.49
2763.16
2762.85
2762.56
2762.29
2762.04
2761.8
2761.58
2761.37
2761.18
2760.99
2760.82
2760.66
2760.51
2760.37
2828.14
2827.55
2834.22
2838.89
2840.97
2849.36
2849.06
2851.28
2851.82
2852.12
2852.01
2852.01
2851.96
2852.18
2852.59
2852.87
2852.92
2852.77
2852.48
2851.94
2851.13
2849.97
2848.42
2846.47
2844.11
2841.39
2838.33
2834.91
2831.2
2827.22
2823.05
2818.73
2814.35
2809.97
2805.67
2801.53
2797.6
2793.95
2790.61
2787.6
2784.92
2782.64
2780.71
2779.05
2777.58
2776.25
2775.03