/*--------------------------------*- C++ -*----------------------------------*\
| =========                 |                                                 |
| \\      /  F ield         | OpenFOAM: The Open Source CFD Toolbox           |
|  \\    /   O peration     | Version:  2412                                  |
|   \\  /    A nd           | Website:  www.openfoam.com                      |
|    \\/     M anipulation  |                                                 |
\*---------------------------------------------------------------------------*/
FoamFile
{
    version     2.0;
    format      ascii;
    arch        "LSB;label=32;scalar=64";
    class       volScalarField;
    location    "0.085";
    object      T;
}
// * * * * * * * * * * * * * * * * * * * * * * * * * * * * * * * * * * * * * //

dimensions      [0 0 0 1 0 0 0];

internalField   nonuniform List<scalar> 
9831
(
165.359
210.725
165.121
210.685
218.307
218.25
218.305
218.414
218.686
219.09
219.562
220.04
220.488
220.895
221.258
221.576
221.851
222.09
222.302
222.496
222.674
222.839
222.993
223.137
223.274
223.405
223.528
223.646
223.76
223.869
223.977
224.083
224.189
224.295
224.4
224.506
224.61
224.713
224.813
224.911
225.007
225.1
225.192
225.281
225.367
225.449
225.529
225.604
225.675
225.743
225.806
225.864
164.889
210.647
218.285
218.222
218.28
218.397
218.679
219.09
219.564
220.043
220.491
220.897
221.259
221.577
221.851
222.09
222.303
222.496
222.675
222.84
222.993
223.138
223.275
223.406
223.53
223.648
223.761
223.871
223.978
224.085
224.19
224.296
224.403
224.508
224.612
224.715
224.815
224.912
225.008
225.102
225.193
225.282
225.368
225.45
225.529
225.605
225.676
225.743
225.806
225.865
225.918
225.967
164.697
210.609
218.262
218.194
218.256
218.381
218.673
219.089
219.567
220.046
220.493
220.899
221.261
221.578
221.852
222.09
222.302
222.496
222.675
222.84
222.994
223.139
223.276
223.407
223.531
223.649
223.762
223.872
223.98
224.086
224.192
224.298
224.405
224.51
224.614
224.717
224.816
224.914
225.01
225.103
225.194
225.283
225.369
225.451
225.53
225.605
225.676
225.744
225.807
225.865
225.919
225.967
226.01
226.047
164.5
210.574
218.239
218.165
218.232
218.365
218.667
219.089
219.569
220.049
220.496
220.901
221.262
221.579
221.852
222.09
222.302
222.496
222.675
222.84
222.994
223.139
223.277
223.408
223.532
223.65
223.763
223.873
223.981
224.088
224.194
224.3
224.407
224.512
224.616
224.718
224.818
224.916
225.011
225.104
225.196
225.284
225.37
225.452
225.531
225.606
225.677
225.744
225.807
225.866
225.919
225.968
226.011
226.048
226.079
226.104
226.123
226.135
226.14
226.138
226.13
226.114
226.093
226.065
226.03
225.99
225.944
225.893
225.836
225.775
225.709
225.639
225.565
225.489
225.409
225.327
225.242
225.156
225.068
224.98
224.89
224.8
224.71
224.621
224.531
224.442
224.354
224.267
224.181
224.097
224.014
223.932
223.853
223.775
223.698
223.624
223.552
223.482
223.413
223.347
223.283
223.221
223.16
223.102
223.046
222.991
222.938
222.887
222.838
222.791
222.746
222.703
222.663
222.625
222.589
222.555
222.522
222.496
222.468
164.294
210.542
218.215
218.136
218.208
218.35
218.661
219.088
219.571
220.051
220.498
220.902
221.263
221.579
221.852
222.09
222.302
222.496
222.675
222.84
222.995
223.14
223.278
223.409
223.533
223.651
223.765
223.875
223.983
224.089
224.196
224.302
224.409
224.514
224.618
224.72
224.82
224.917
225.013
225.106
225.197
225.285
225.371
225.453
225.531
225.606
225.678
225.745
225.808
225.866
225.92
225.969
226.012
226.049
226.08
226.106
226.124
226.137
226.143
226.141
226.134
226.119
226.098
226.072
226.038
226
225.955
225.905
225.85
225.791
225.727
225.659
225.588
225.513
225.436
225.356
225.274
225.191
225.106
225.02
224.934
224.847
224.76
224.673
224.586
224.501
224.416
224.332
224.249
224.167
224.087
224.009
223.932
223.857
223.783
223.712
223.642
223.574
223.509
223.445
223.383
223.324
223.266
223.21
223.155
223.103
223.052
223.003
222.956
222.911
222.868
222.827
222.789
222.752
222.718
222.685
222.653
222.628
222.602
222.595
222.541
164.127
210.511
218.191
218.107
218.184
218.335
218.656
219.088
219.573
220.054
220.5
220.904
221.264
221.58
221.852
222.09
222.302
222.496
222.675
222.841
222.995
223.141
223.279
223.41
223.534
223.652
223.766
223.876
223.984
224.091
224.198
224.304
224.411
224.516
224.62
224.722
224.822
224.919
225.014
225.107
225.198
225.286
225.372
225.454
225.532
225.607
225.678
225.745
225.808
225.867
225.921
225.969
226.013
226.05
226.082
226.107
226.127
226.14
226.146
226.146
226.139
226.125
226.105
226.08
226.048
226.01
225.967
225.919
225.866
225.809
225.747
225.682
225.613
225.541
225.466
225.389
225.31
225.229
225.147
225.064
224.981
224.897
224.813
224.729
224.646
224.563
224.481
224.4
224.32
224.242
224.165
224.089
224.015
223.943
223.872
223.804
223.737
223.672
223.609
223.548
223.488
223.431
223.375
223.322
223.27
223.219
223.171
223.124
223.078
223.035
222.994
222.955
222.918
222.884
222.851
222.819
222.786
222.761
222.739
222.74
222.69
163.96
210.481
218.167
218.078
218.161
218.32
218.65
219.088
219.575
220.056
220.503
220.906
221.266
221.581
221.853
222.09
222.302
222.496
222.675
222.841
222.996
223.142
223.28
223.411
223.535
223.653
223.767
223.877
223.985
224.093
224.199
224.306
224.413
224.518
224.622
224.724
224.823
224.92
225.016
225.109
225.199
225.287
225.373
225.454
225.533
225.608
225.679
225.746
225.809
225.868
225.922
225.971
226.014
226.052
226.084
226.11
226.129
226.143
226.15
226.15
226.144
226.132
226.113
226.089
226.058
226.022
225.981
225.935
225.884
225.829
225.769
225.706
225.639
225.57
225.498
225.424
225.347
225.27
225.191
225.111
225.031
224.95
224.869
224.789
224.708
224.629
224.55
224.472
224.396
224.32
224.246
224.174
224.103
224.033
223.966
223.9
223.836
223.773
223.713
223.654
223.598
223.543
223.49
223.438
223.388
223.34
223.293
223.248
223.205
223.164
223.125
223.088
223.053
223.02
222.987
222.957
222.924
222.901
222.882
222.887
222.841
163.792
210.455
218.142
218.049
218.138
218.306
218.645
219.088
219.577
220.059
220.505
220.907
221.267
221.581
221.853
222.09
222.302
222.496
222.675
222.841
222.996
223.142
223.281
223.412
223.536
223.654
223.768
223.878
223.987
224.094
224.201
224.308
224.415
224.52
224.624
224.726
224.825
224.922
225.017
225.11
225.201
225.289
225.373
225.455
225.533
225.608
225.679
225.747
225.81
225.869
225.923
225.972
226.016
226.054
226.086
226.112
226.133
226.147
226.154
226.156
226.15
226.139
226.122
226.099
226.07
226.036
225.997
225.952
225.903
225.85
225.793
225.732
225.669
225.602
225.533
225.461
225.388
225.314
225.238
225.161
225.084
225.006
224.929
224.852
224.775
224.698
224.623
224.548
224.475
224.403
224.332
224.262
224.194
224.128
224.063
224
223.939
223.879
223.821
223.765
223.711
223.659
223.608
223.559
223.511
223.465
223.42
223.377
223.336
223.296
223.259
223.224
223.191
223.159
223.127
223.097
223.067
223.046
223.03
223.036
222.991
163.643
210.432
218.117
218.019
218.115
218.292
218.64
219.088
219.579
220.061
220.507
220.909
221.268
221.581
221.853
222.089
222.301
222.495
222.675
222.842
222.997
223.143
223.282
223.413
223.537
223.655
223.769
223.88
223.988
224.096
224.203
224.31
224.417
224.522
224.626
224.727
224.827
224.924
225.019
225.111
225.202
225.29
225.374
225.456
225.534
225.609
225.68
225.748
225.811
225.87
225.924
225.973
226.017
226.056
226.088
226.115
226.136
226.151
226.159
226.162
226.157
226.147
226.131
226.11
226.083
226.05
226.013
225.971
225.924
225.873
225.819
225.761
225.7
225.636
225.57
225.501
225.431
225.36
225.287
225.214
225.14
225.066
224.992
224.918
224.844
224.771
224.699
224.628
224.558
224.489
224.421
224.354
224.29
224.226
224.164
224.104
224.046
223.989
223.934
223.88
223.828
223.778
223.73
223.683
223.638
223.594
223.551
223.51
223.471
223.433
223.398
223.364
223.332
223.301
223.271
223.242
223.214
223.196
223.182
223.189
223.145
163.505
210.411
218.091
217.989
218.092
218.279
218.636
219.088
219.581
220.064
220.509
220.911
221.269
221.582
221.852
222.089
222.301
222.495
222.675
222.842
222.997
223.144
223.282
223.414
223.538
223.656
223.77
223.881
223.99
224.097
224.205
224.312
224.418
224.524
224.627
224.729
224.828
224.925
225.02
225.113
225.203
225.291
225.375
225.457
225.535
225.61
225.681
225.748
225.812
225.871
225.925
225.975
226.019
226.058
226.091
226.118
226.14
226.155
226.165
226.168
226.165
226.156
226.142
226.122
226.097
226.066
226.031
225.991
225.947
225.899
225.847
225.791
225.733
225.672
225.609
225.544
225.477
225.409
225.34
225.27
225.199
225.129
225.058
224.987
224.917
224.848
224.779
224.711
224.644
224.578
224.514
224.451
224.389
224.328
224.269
224.212
224.156
224.102
224.05
223.999
223.95
223.902
223.856
223.811
223.768
223.726
223.685
223.646
223.609
223.573
223.54
223.508
223.477
223.447
223.418
223.391
223.365
223.349
223.337
223.344
223.301
163.374
210.392
218.065
217.958
218.07
218.266
218.631
219.088
219.583
220.066
220.511
220.912
221.27
221.582
221.852
222.089
222.301
222.495
222.675
222.842
222.998
223.145
223.283
223.415
223.539
223.657
223.771
223.882
223.991
224.099
224.206
224.314
224.42
224.526
224.629
224.731
224.83
224.927
225.022
225.114
225.204
225.292
225.376
225.457
225.536
225.61
225.682
225.749
225.813
225.872
225.927
225.977
226.021
226.06
226.094
226.122
226.144
226.16
226.171
226.175
226.174
226.166
226.153
226.135
226.112
226.083
226.05
226.013
225.971
225.925
225.876
225.824
225.768
225.711
225.651
225.589
225.525
225.461
225.395
225.328
225.261
225.194
225.127
225.06
224.993
224.927
224.862
224.797
224.734
224.671
224.61
224.55
224.491
224.434
224.378
224.324
224.271
224.219
224.17
224.121
224.075
224.029
223.986
223.943
223.902
223.862
223.824
223.787
223.751
223.717
223.685
223.655
223.626
223.597
223.568
223.544
223.52
223.507
223.495
223.503
223.46
163.251
210.376
218.039
217.928
218.048
218.254
218.627
219.088
219.584
220.068
220.513
220.913
221.27
221.582
221.852
222.088
222.301
222.495
222.675
222.843
222.999
223.145
223.284
223.415
223.54
223.658
223.772
223.883
223.992
224.1
224.208
224.315
224.422
224.527
224.631
224.732
224.831
224.928
225.023
225.115
225.205
225.293
225.377
225.458
225.536
225.611
225.683
225.75
225.814
225.874
225.928
225.979
226.023
226.063
226.097
226.126
226.149
226.166
226.177
226.183
226.183
226.177
226.166
226.149
226.128
226.102
226.071
226.036
225.997
225.954
225.908
225.858
225.806
225.752
225.695
225.636
225.576
225.515
225.453
225.39
225.327
225.263
225.199
225.136
225.073
225.01
224.948
224.887
224.827
224.768
224.71
224.653
224.598
224.543
224.49
224.439
224.389
224.34
224.293
224.247
224.203
224.16
224.119
224.078
224.039
224.002
223.965
223.93
223.896
223.865
223.834
223.806
223.777
223.75
223.723
223.7
223.679
223.667
223.657
223.664
223.622
163.138
210.363
218.012
217.897
218.026
218.241
218.623
219.088
219.586
220.07
220.515
220.915
221.271
221.583
221.852
222.088
222.3
222.495
222.676
222.843
222.999
223.146
223.285
223.416
223.541
223.659
223.773
223.884
223.994
224.102
224.21
224.317
224.424
224.529
224.633
224.734
224.833
224.93
225.024
225.117
225.206
225.294
225.378
225.459
225.537
225.612
225.683
225.751
225.815
225.875
225.93
225.98
226.026
226.066
226.101
226.13
226.154
226.172
226.184
226.192
226.193
226.188
226.179
226.164
226.145
226.121
226.093
226.06
226.024
225.984
225.94
225.894
225.845
225.794
225.741
225.686
225.629
225.572
225.513
225.454
225.394
225.334
225.274
225.215
225.155
225.096
225.038
224.98
224.924
224.868
224.813
224.76
224.707
224.656
224.606
224.558
224.51
224.464
224.42
224.377
224.335
224.295
224.255
224.217
224.18
224.145
224.11
224.077
224.045
224.015
223.987
223.959
223.932
223.906
223.88
223.861
223.841
223.831
223.821
223.828
223.787
163.037
210.352
217.984
217.866
218.005
218.23
218.619
219.088
219.588
220.072
220.516
220.916
221.272
221.583
221.852
222.088
222.3
222.495
222.676
222.843
222.999
223.146
223.286
223.417
223.542
223.66
223.775
223.886
223.995
224.103
224.211
224.319
224.426
224.531
224.634
224.736
224.835
224.931
225.026
225.118
225.208
225.294
225.378
225.46
225.538
225.613
225.684
225.752
225.816
225.876
225.932
225.983
226.028
226.069
226.105
226.135
226.159
226.178
226.192
226.201
226.204
226.2
226.193
226.181
226.164
226.142
226.116
226.086
226.053
226.016
225.975
225.932
225.887
225.839
225.789
225.738
225.685
225.631
225.576
225.521
225.465
225.409
225.353
225.297
225.241
225.186
225.131
225.077
225.023
224.971
224.92
224.869
224.82
224.772
224.725
224.68
224.635
224.592
224.55
224.509
224.47
224.432
224.395
224.359
224.325
224.291
224.259
224.227
224.198
224.169
224.142
224.116
224.091
224.065
224.042
224.024
224.006
223.998
223.989
223.996
223.954
162.946
210.345
217.956
217.835
217.984
218.218
218.615
219.088
219.589
220.074
220.518
220.917
221.273
221.583
221.852
222.088
222.3
222.495
222.676
222.844
223
223.147
223.286
223.418
223.543
223.661
223.776
223.887
223.996
224.105
224.213
224.321
224.428
224.533
224.636
224.737
224.836
224.933
225.027
225.119
225.209
225.295
225.379
225.46
225.538
225.613
225.685
225.753
225.818
225.878
225.934
225.985
226.031
226.072
226.108
226.139
226.165
226.185
226.2
226.21
226.215
226.213
226.208
226.198
226.183
226.164
226.14
226.113
226.083
226.049
226.012
225.972
225.93
225.886
225.84
225.792
225.743
225.693
225.642
225.59
225.538
225.486
225.433
225.381
225.329
225.277
225.226
225.176
225.126
225.077
225.029
224.982
224.936
224.891
224.847
224.805
224.763
224.723
224.684
224.646
224.609
224.573
224.538
224.505
224.472
224.441
224.41
224.381
224.353
224.327
224.301
224.276
224.252
224.228
224.206
224.191
224.175
224.168
224.16
224.166
224.125
162.869
210.342
217.928
217.804
217.963
218.207
218.611
219.088
219.591
220.076
220.52
220.919
221.273
221.583
221.851
222.087
222.3
222.495
222.676
222.844
223
223.148
223.287
223.419
223.543
223.662
223.777
223.888
223.998
224.107
224.215
224.323
224.429
224.535
224.638
224.739
224.838
224.934
225.028
225.12
225.21
225.296
225.38
225.461
225.539
225.614
225.686
225.754
225.819
225.88
225.936
225.987
226.034
226.076
226.113
226.144
226.171
226.192
226.209
226.22
226.227
226.227
226.224
226.216
226.203
226.187
226.166
226.142
226.114
226.084
226.05
226.014
225.975
225.935
225.892
225.848
225.803
225.757
225.71
225.662
225.614
225.565
225.517
225.468
225.42
225.372
225.325
225.278
225.232
225.187
225.142
225.098
225.055
225.014
224.973
224.933
224.894
224.857
224.82
224.785
224.75
224.717
224.685
224.653
224.623
224.593
224.565
224.538
224.512
224.487
224.463
224.439
224.417
224.395
224.375
224.361
224.347
224.341
224.333
224.339
224.299
162.789
210.341
217.899
217.773
217.942
218.196
218.608
219.088
219.592
220.078
220.521
220.92
221.274
221.583
221.851
222.087
222.3
222.495
222.676
222.844
223.001
223.148
223.288
223.419
223.544
223.663
223.778
223.889
223.999
224.108
224.216
224.324
224.431
224.536
224.639
224.74
224.839
224.936
225.03
225.121
225.21
225.297
225.381
225.462
225.54
225.615
225.687
225.756
225.82
225.881
225.938
225.99
226.037
226.08
226.117
226.15
226.178
226.2
226.218
226.231
226.239
226.242
226.24
226.234
226.224
226.211
226.193
226.172
226.147
226.12
226.09
226.057
226.022
225.985
225.947
225.907
225.865
225.823
225.78
225.736
225.692
225.647
225.603
225.558
225.514
225.47
225.426
225.383
225.34
225.298
225.257
225.217
225.177
225.139
225.101
225.064
225.028
224.993
224.96
224.927
224.895
224.864
224.834
224.805
224.777
224.749
224.723
224.698
224.673
224.65
224.628
224.606
224.584
224.564
224.546
224.534
224.522
224.517
224.509
224.514
224.476
162.725
210.344
217.87
217.741
217.922
218.186
218.604
219.087
219.594
220.079
220.523
220.921
221.274
221.583
221.851
222.087
222.299
222.495
222.676
222.844
223.001
223.149
223.288
223.42
223.545
223.664
223.779
223.89
224
224.11
224.218
224.326
224.433
224.538
224.641
224.742
224.841
224.937
225.031
225.122
225.211
225.298
225.381
225.462
225.54
225.616
225.688
225.757
225.822
225.883
225.94
225.992
226.04
226.083
226.122
226.156
226.184
226.208
226.227
226.242
226.252
226.257
226.258
226.254
226.247
226.236
226.221
226.203
226.182
226.158
226.131
226.102
226.071
226.038
226.003
225.967
225.93
225.892
225.852
225.813
225.773
225.732
225.692
225.651
225.61
225.57
225.53
225.491
225.452
225.413
225.376
225.339
225.302
225.267
225.232
225.198
225.165
225.133
225.102
225.072
225.043
225.014
224.986
224.959
224.933
224.908
224.884
224.86
224.838
224.816
224.795
224.775
224.755
224.737
224.72
224.71
224.699
224.696
224.689
224.693
224.657
162.694
210.351
217.841
217.71
217.901
218.176
218.601
219.087
219.595
220.081
220.524
220.922
221.275
221.583
221.851
222.087
222.299
222.495
222.676
222.845
223.002
223.149
223.289
223.421
223.546
223.665
223.78
223.892
224.002
224.111
224.22
224.328
224.435
224.54
224.643
224.744
224.842
224.938
225.032
225.123
225.212
225.298
225.382
225.463
225.541
225.617
225.689
225.758
225.823
225.885
225.942
225.995
226.044
226.088
226.127
226.161
226.191
226.217
226.237
226.254
226.266
226.273
226.276
226.275
226.27
226.262
226.25
226.235
226.217
226.197
226.174
226.148
226.121
226.092
226.061
226.029
225.996
225.962
225.927
225.891
225.855
225.819
225.782
225.746
225.709
225.673
225.637
225.601
225.566
225.531
225.496
225.463
225.43
225.398
225.366
225.335
225.305
225.276
225.248
225.22
225.193
225.167
225.142
225.117
225.093
225.07
225.047
225.026
225.005
224.986
224.966
224.947
224.929
224.912
224.897
224.888
224.879
224.879
224.872
224.876
224.841
162.626
210.361
217.811
217.678
217.881
218.166
218.598
219.087
219.596
220.083
220.526
220.923
221.276
221.583
221.851
222.086
222.299
222.495
222.676
222.845
223.002
223.15
223.29
223.422
223.547
223.666
223.781
223.893
224.003
224.113
224.221
224.329
224.436
224.541
224.644
224.745
224.844
224.94
225.033
225.124
225.213
225.299
225.382
225.463
225.542
225.617
225.69
225.759
225.825
225.887
225.944
225.998
226.047
226.092
226.132
226.168
226.199
226.226
226.248
226.266
226.28
226.289
226.295
226.296
226.294
226.289
226.28
226.269
226.254
226.237
226.218
226.197
226.173
226.148
226.122
226.094
226.065
226.035
226.004
225.972
225.94
225.908
225.876
225.843
225.811
225.778
225.746
225.714
225.682
225.651
225.62
225.59
225.56
225.531
225.503
225.475
225.448
225.421
225.396
225.371
225.346
225.323
225.3
225.277
225.255
225.234
225.214
225.194
225.176
225.157
225.14
225.122
225.105
225.091
225.077
225.07
225.063
225.064
225.058
225.061
225.029
162.578
210.374
217.78
217.646
217.862
218.157
218.595
219.087
219.597
220.084
220.527
220.924
221.276
221.584
221.851
222.086
222.299
222.495
222.677
222.845
223.002
223.15
223.29
223.422
223.548
223.667
223.782
223.894
224.004
224.114
224.223
224.331
224.438
224.543
224.646
224.747
224.845
224.941
225.034
225.125
225.214
225.3
225.383
225.464
225.543
225.618
225.691
225.761
225.826
225.889
225.947
226.001
226.051
226.096
226.137
226.174
226.207
226.235
226.259
226.279
226.295
226.306
226.314
226.319
226.319
226.317
226.312
226.303
226.292
226.279
226.264
226.246
226.227
226.205
226.183
226.159
226.134
226.109
226.082
226.055
226.027
225.999
225.971
225.942
225.914
225.885
225.857
225.829
225.801
225.773
225.746
225.719
225.693
225.667
225.642
225.617
225.593
225.569
225.546
225.524
225.502
225.481
225.46
225.44
225.421
225.402
225.383
225.366
225.349
225.332
225.316
225.3
225.285
225.272
225.26
225.255
225.249
225.251
225.246
225.248
225.218
162.599
210.393
217.748
217.614
217.842
218.149
218.592
219.087
219.598
220.086
220.528
220.925
221.276
221.584
221.85
222.086
222.299
222.495
222.677
222.845
223.003
223.151
223.291
223.423
223.548
223.668
223.783
223.895
224.006
224.116
224.225
224.333
224.44
224.544
224.647
224.748
224.846
224.942
225.036
225.126
225.214
225.3
225.384
225.465
225.543
225.619
225.692
225.762
225.828
225.891
225.949
226.004
226.054
226.101
226.143
226.181
226.215
226.245
226.27
226.292
226.31
226.324
226.335
226.342
226.346
226.346
226.344
226.339
226.332
226.322
226.311
226.297
226.282
226.265
226.247
226.227
226.207
226.185
226.163
226.14
226.117
226.093
226.069
226.044
226.02
225.995
225.971
225.947
225.922
225.898
225.875
225.851
225.828
225.806
225.784
225.762
225.741
225.72
225.7
225.68
225.661
225.642
225.624
225.606
225.588
225.571
225.555
225.539
225.524
225.509
225.495
225.48
225.466
225.456
225.446
225.442
225.438
225.44
225.436
225.438
225.41
162.573
210.418
217.714
217.583
217.823
218.141
218.589
219.086
219.6
220.087
220.53
220.926
221.277
221.584
221.85
222.086
222.299
222.495
222.677
222.846
223.003
223.151
223.291
223.424
223.549
223.669
223.784
223.896
224.007
224.117
224.226
224.334
224.441
224.546
224.649
224.75
224.848
224.944
225.037
225.127
225.215
225.301
225.384
225.465
225.544
225.62
225.693
225.763
225.83
225.893
225.952
226.007
226.058
226.105
226.149
226.188
226.223
226.254
226.282
226.306
226.326
226.342
226.355
226.365
226.372
226.376
226.377
226.376
226.372
226.366
226.359
226.349
226.338
226.325
226.311
226.296
226.28
226.263
226.245
226.226
226.207
226.188
226.168
226.148
226.127
226.107
226.086
226.066
226.046
226.025
226.005
225.985
225.966
225.947
225.928
225.909
225.891
225.873
225.855
225.838
225.822
225.806
225.79
225.774
225.759
225.744
225.73
225.716
225.703
225.69
225.677
225.663
225.651
225.643
225.635
225.633
225.631
225.633
225.629
225.631
225.605
162.552
210.446
217.68
217.551
217.804
218.133
218.586
219.086
219.601
220.088
220.531
220.927
221.277
221.584
221.85
222.086
222.299
222.495
222.677
222.846
223.003
223.152
223.292
223.425
223.55
223.669
223.785
223.897
224.008
224.118
224.228
224.336
224.443
224.548
224.65
224.751
224.849
224.945
225.038
225.128
225.216
225.301
225.385
225.466
225.545
225.621
225.694
225.764
225.831
225.895
225.954
226.01
226.062
226.11
226.155
226.195
226.232
226.265
226.294
226.32
226.342
226.361
226.377
226.39
226.4
226.407
226.412
226.414
226.414
226.412
226.408
226.403
226.396
226.387
226.378
226.367
226.355
226.343
226.329
226.315
226.3
226.285
226.27
226.254
226.237
226.221
226.205
226.188
226.171
226.155
226.138
226.122
226.106
226.09
226.074
226.058
226.043
226.028
226.013
225.999
225.985
225.971
225.958
225.944
225.931
225.919
225.906
225.895
225.883
225.871
225.86
225.848
225.838
225.832
225.826
225.826
225.825
225.828
225.823
225.825
225.802
162.592
210.479
217.645
217.52
217.786
218.126
218.584
219.086
219.602
220.09
220.532
220.927
221.278
221.584
221.85
222.085
222.299
222.495
222.677
222.846
223.004
223.152
223.293
223.425
223.551
223.67
223.786
223.898
224.01
224.12
224.229
224.338
224.444
224.549
224.652
224.752
224.85
224.946
225.038
225.129
225.216
225.302
225.385
225.466
225.545
225.622
225.695
225.766
225.833
225.897
225.957
226.013
226.066
226.115
226.161
226.203
226.241
226.275
226.307
226.335
226.359
226.381
226.399
226.415
226.428
226.438
226.446
226.452
226.456
226.458
226.459
226.457
226.454
226.45
226.445
226.439
226.431
226.423
226.414
226.405
226.394
226.383
226.372
226.361
226.349
226.336
226.324
226.311
226.299
226.286
226.273
226.26
226.248
226.235
226.222
226.21
226.198
226.186
226.174
226.162
226.151
226.139
226.128
226.117
226.107
226.096
226.086
226.076
226.066
226.057
226.047
226.037
226.028
226.025
226.021
226.022
226.022
226.025
226.021
226.022
226.002
162.624
210.515
217.61
217.489
217.767
218.12
218.581
219.086
219.603
220.091
220.533
220.928
221.278
221.584
221.85
222.085
222.298
222.495
222.677
222.846
223.004
223.153
223.293
223.426
223.551
223.671
223.787
223.899
224.011
224.121
224.231
224.339
224.446
224.551
224.653
224.754
224.852
224.947
225.039
225.129
225.217
225.302
225.386
225.467
225.546
225.623
225.696
225.767
225.835
225.899
225.96
226.017
226.07
226.121
226.167
226.21
226.25
226.286
226.32
226.35
226.377
226.401
226.422
226.441
226.457
226.471
226.482
226.492
226.5
226.506
226.51
226.513
226.515
226.515
226.515
226.513
226.51
226.506
226.502
226.497
226.491
226.484
226.477
226.47
226.462
226.454
226.446
226.437
226.429
226.419
226.41
226.401
226.392
226.382
226.373
226.364
226.355
226.345
226.336
226.327
226.318
226.31
226.301
226.292
226.283
226.275
226.267
226.259
226.251
226.243
226.234
226.226
226.22
226.219
226.217
226.219
226.22
226.223
226.219
226.221
226.203
162.64
210.555
217.574
217.459
217.749
218.114
218.579
219.085
219.604
220.092
220.534
220.929
221.279
221.584
221.85
222.085
222.298
222.495
222.677
222.846
223.004
223.153
223.294
223.427
223.552
223.672
223.788
223.901
224.012
224.123
224.232
224.341
224.448
224.552
224.655
224.755
224.853
224.948
225.04
225.13
225.217
225.303
225.386
225.467
225.547
225.623
225.697
225.768
225.836
225.901
225.962
226.02
226.075
226.126
226.174
226.218
226.26
226.298
226.333
226.365
226.395
226.421
226.445
226.467
226.486
226.504
226.519
226.532
226.544
226.554
226.563
226.57
226.576
226.581
226.584
226.587
226.589
226.59
226.59
226.589
226.588
226.586
226.583
226.58
226.577
226.573
226.569
226.564
226.559
226.554
226.549
226.543
226.537
226.531
226.525
226.519
226.513
226.507
226.501
226.495
226.488
226.482
226.476
226.469
226.463
226.457
226.451
226.445
226.439
226.432
226.425
226.419
226.416
226.418
226.416
226.419
226.421
226.424
226.421
226.423
226.408
162.681
210.596
217.539
217.429
217.731
218.108
218.577
219.085
219.605
220.093
220.535
220.93
221.279
221.584
221.85
222.085
222.298
222.495
222.677
222.847
223.005
223.154
223.294
223.427
223.553
223.673
223.788
223.902
224.013
224.124
224.234
224.342
224.449
224.554
224.656
224.756
224.854
224.949
225.041
225.131
225.218
225.303
225.386
225.468
225.547
225.624
225.698
225.77
225.838
225.903
225.965
226.024
226.079
226.131
226.18
226.226
226.269
226.309
226.346
226.381
226.413
226.442
226.469
226.494
226.517
226.537
226.556
226.574
226.589
226.604
226.616
226.628
226.638
226.648
226.656
226.663
226.67
226.675
226.68
226.684
226.687
226.69
226.692
226.693
226.694
226.694
226.694
226.694
226.693
226.691
226.69
226.688
226.685
226.683
226.68
226.677
226.674
226.671
226.667
226.664
226.66
226.656
226.652
226.648
226.644
226.64
226.636
226.632
226.627
226.622
226.617
226.615
226.613
226.615
226.614
226.619
226.621
226.625
226.623
226.626
226.613
162.748
210.64
217.503
217.4
217.714
218.102
218.574
219.085
219.606
220.094
220.536
220.93
221.279
221.584
221.85
222.085
222.298
222.495
222.677
222.847
223.005
223.154
223.295
223.428
223.554
223.674
223.789
223.903
224.015
224.126
224.236
224.344
224.451
224.555
224.657
224.757
224.855
224.95
225.042
225.131
225.218
225.303
225.387
225.468
225.548
225.625
225.699
225.771
225.84
225.905
225.968
226.027
226.084
226.137
226.187
226.235
226.279
226.321
226.36
226.397
226.431
226.463
226.493
226.521
226.547
226.571
226.594
226.615
226.635
226.653
226.67
226.686
226.701
226.715
226.728
226.74
226.751
226.761
226.77
226.779
226.787
226.794
226.8
226.806
226.811
226.816
226.82
226.824
226.827
226.829
226.831
226.833
226.834
226.835
226.836
226.836
226.836
226.836
226.835
226.835
226.834
226.833
226.831
226.83
226.828
226.826
226.824
226.822
226.819
226.816
226.814
226.814
226.815
226.817
226.817
226.822
226.826
226.83
226.83
226.834
226.823
162.803
210.684
217.467
217.371
217.697
218.096
218.572
219.085
219.607
220.096
220.537
220.931
221.28
221.584
221.849
222.085
222.298
222.495
222.677
222.847
223.005
223.155
223.295
223.428
223.554
223.674
223.79
223.904
224.016
224.127
224.237
224.345
224.452
224.556
224.659
224.759
224.856
224.951
225.042
225.132
225.219
225.304
225.387
225.469
225.548
225.626
225.7
225.772
225.841
225.907
225.971
226.031
226.088
226.143
226.194
226.243
226.289
226.333
226.374
226.414
226.45
226.485
226.518
226.549
226.578
226.606
226.633
226.658
226.682
226.704
226.726
226.746
226.765
226.784
226.801
226.818
226.834
226.849
226.863
226.876
226.888
226.9
226.911
226.921
226.931
226.94
226.948
226.956
226.963
226.969
226.975
226.98
226.985
226.99
226.994
226.997
227
227.003
227.005
227.007
227.009
227.01
227.011
227.012
227.013
227.013
227.013
227.012
227.012
227.011
227.012
227.014
227.015
227.018
227.019
227.025
227.029
227.034
227.037
227.041
227.033
162.865
210.729
217.43
217.344
217.681
218.091
218.57
219.085
219.607
220.097
220.538
220.932
221.28
221.584
221.849
222.084
222.298
222.495
222.677
222.847
223.006
223.155
223.296
223.429
223.555
223.675
223.791
223.905
224.017
224.128
224.238
224.347
224.453
224.558
224.66
224.76
224.857
224.952
225.043
225.132
225.219
225.304
225.387
225.469
225.549
225.626
225.701
225.774
225.843
225.91
225.973
226.035
226.093
226.148
226.201
226.252
226.3
226.345
226.389
226.43
226.469
226.507
226.543
226.577
226.61
226.641
226.671
226.7
226.728
226.755
226.781
226.806
226.83
226.853
226.875
226.896
226.916
226.936
226.955
226.973
226.99
227.006
227.022
227.037
227.051
227.064
227.077
227.088
227.099
227.11
227.12
227.129
227.137
227.145
227.152
227.159
227.165
227.171
227.177
227.182
227.186
227.19
227.194
227.197
227.2
227.203
227.205
227.206
227.208
227.209
227.211
227.216
227.219
227.225
227.227
227.232
227.236
227.242
227.248
227.254
227.249
162.972
210.774
217.394
217.317
217.666
218.085
218.568
219.085
219.608
220.098
220.539
220.932
221.28
221.584
221.849
222.084
222.298
222.495
222.677
222.847
223.006
223.155
223.296
223.43
223.556
223.676
223.792
223.906
224.018
224.13
224.24
224.348
224.455
224.559
224.661
224.761
224.858
224.952
225.044
225.133
225.219
225.304
225.388
225.47
225.549
225.627
225.702
225.775
225.845
225.912
225.976
226.038
226.097
226.154
226.208
226.26
226.31
226.357
226.403
226.447
226.489
226.529
226.568
226.606
226.642
226.677
226.711
226.744
226.776
226.807
226.837
226.867
226.895
226.923
226.95
226.976
227.001
227.025
227.049
227.072
227.094
227.115
227.135
227.154
227.173
227.19
227.207
227.223
227.238
227.253
227.266
227.279
227.291
227.302
227.313
227.323
227.333
227.342
227.35
227.358
227.365
227.371
227.377
227.383
227.388
227.393
227.397
227.401
227.404
227.407
227.411
227.417
227.422
227.429
227.433
227.44
227.445
227.451
227.458
227.464
227.462
163.049
210.819
217.357
217.29
217.651
218.079
218.565
219.085
219.609
220.099
220.54
220.933
221.281
221.584
221.849
222.084
222.298
222.495
222.678
222.847
223.006
223.156
223.297
223.43
223.556
223.677
223.793
223.907
224.02