/*--------------------------------*- C++ -*----------------------------------*\
| =========                 |                                                 |
| \\      /  F ield         | OpenFOAM: The Open Source CFD Toolbox           |
|  \\    /   O peration     | Version:  2412                                  |
|   \\  /    A nd           | Website:  www.openfoam.com                      |
|    \\/     M anipulation  |                                                 |
\*---------------------------------------------------------------------------*/
FoamFile
{
    version     2.0;
    format      ascii;
    arch        "LSB;label=32;scalar=64";
    class       volScalarField;
    location    "0.007";
    object      rho;
}
// * * * * * * * * * * * * * * * * * * * * * * * * * * * * * * * * * * * * * //

dimensions      [1 -3 0 0 0 0 0];

internalField   nonuniform List<scalar> 
9831
(
0.0411013
0.0413924
0.0410345
0.0413522
0.0416981
0.0419618
0.0420924
0.0421289
0.0421329
0.042133
0.042133
0.042133
0.042133
0.042133
0.042133
0.042133
0.042133
0.042133
0.042133
0.042133
0.042133
0.042133
0.042133
0.042133
0.042133
0.042133
0.042133
0.042133
0.042133
0.042133
0.042133
0.042133
0.0421332
0.0421394
0.0422411
0.0426979
0.0433807
0.0437904
0.0438832
0.0438214
0.0435963
0.0433511
0.0431536
0.0429876
0.0428335
0.0426852
0.042554
0.0424639
0.0424276
0.0424689
0.0427384
0.0433217
0.0409685
0.0413132
0.0416767
0.0419514
0.0420889
0.0421283
0.0421329
0.042133
0.042133
0.042133
0.042133
0.042133
0.042133
0.042133
0.042133
0.042133
0.042133
0.042133
0.042133
0.042133
0.042133
0.042133
0.042133
0.042133
0.042133
0.042133
0.042133
0.042133
0.042133
0.042133
0.0421332
0.0421405
0.0422522
0.0427269
0.0434042
0.0437942
0.0438751
0.0438085
0.0435734
0.0433293
0.0431332
0.0429653
0.0428079
0.0426583
0.0425335
0.0424586
0.042437
0.0425263
0.0429034
0.0435243
0.0440099
0.0442078
0.0409032
0.0412752
0.0416558
0.041941
0.0420853
0.0421277
0.0421329
0.042133
0.042133
0.042133
0.042133
0.042133
0.042133
0.042133
0.042133
0.042133
0.042133
0.042133
0.042133
0.042133
0.042133
0.042133
0.042133
0.042133
0.042133
0.042133
0.042133
0.042133
0.042133
0.042133
0.0421332
0.0421417
0.0422641
0.0427561
0.0434265
0.043797
0.0438668
0.0437946
0.0435509
0.0433076
0.0431123
0.0429423
0.0427815
0.0426322
0.042517
0.0424576
0.0424565
0.0426092
0.0430862
0.0437024
0.0440954
0.0442206
0.0442296
0.0441938
0.0408388
0.0412382
0.0416355
0.0419308
0.0420816
0.0421271
0.0421329
0.042133
0.042133
0.042133
0.042133
0.042133
0.042133
0.042133
0.042133
0.042133
0.042133
0.042133
0.042133
0.042133
0.042133
0.042133
0.042133
0.042133
0.042133
0.042133
0.042133
0.042133
0.042133
0.042133
0.0421332
0.0421431
0.0422766
0.0427852
0.0434477
0.043799
0.0438584
0.0437799
0.0435287
0.043286
0.043091
0.0429183
0.0427546
0.042608
0.0425057
0.0424598
0.0424876
0.0427221
0.043275
0.0438498
0.0441492
0.0442227
0.0442111
0.0441632
0.0440751
0.0439854
0.0439134
0.0438567
0.0438086
0.0437645
0.0437216
0.0436791
0.0436378
0.0435997
0.0435643
0.0435301
0.0434946
0.0434574
0.0434187
0.0433781
0.0433356
0.0432918
0.0432465
0.0431997
0.0431511
0.0431017
0.0430519
0.0430021
0.0429522
0.0429024
0.0428526
0.0428029
0.0427531
0.0427037
0.0426545
0.0426055
0.042557
0.0425097
0.0424632
0.0424159
0.0423674
0.0423193
0.0422748
0.0422347
0.0421965
0.0421592
0.0421222
0.0420853
0.0420487
0.0420124
0.0419768
0.0419424
0.0419095
0.0418782
0.0418484
0.0418199
0.0417927
0.0417666
0.0417415
0.0417174
0.0416942
0.0416718
0.0416502
0.0416293
0.0416092
0.0415904
0.0415717
0.0415552
0.0415371
0.0407751
0.0412022
0.0416156
0.0419207
0.0420779
0.0421264
0.0421328
0.042133
0.042133
0.042133
0.042133
0.042133
0.042133
0.042133
0.042133
0.042133
0.042133
0.042133
0.042133
0.042133
0.042133
0.042133
0.042133
0.042133
0.042133
0.042133
0.042133
0.042133
0.042133
0.042133
0.0421333
0.0421446
0.0422899
0.0428143
0.0434678
0.0438001
0.0438499
0.0437644
0.0435069
0.0432643
0.0430691
0.0428933
0.0427277
0.0425869
0.0424992
0.0424659
0.0425326
0.0428615
0.0434582
0.0439624
0.0441756
0.0442186
0.0441923
0.044127
0.0440353
0.043951
0.0438848
0.043832
0.0437864
0.0437449
0.0437054
0.0436666
0.0436291
0.0435941
0.0435615
0.0435285
0.0434946
0.0434607
0.043427
0.0433916
0.0433523
0.0433091
0.0432634
0.0432164
0.0431681
0.0431189
0.0430692
0.0430195
0.0429703
0.0429217
0.0428736
0.0428259
0.0427785
0.0427314
0.0426848
0.0426384
0.0425924
0.0425477
0.0425044
0.0424609
0.0424155
0.0423681
0.0423225
0.0422804
0.0422409
0.0422035
0.0421675
0.0421325
0.0420983
0.0420644
0.0420312
0.0419988
0.0419678
0.0419384
0.0419106
0.0418843
0.0418595
0.0418358
0.0418133
0.0417917
0.0417709
0.0417508
0.0417313
0.0417123
0.0416939
0.0416769
0.0416594
0.0416439
0.0416266
0.0416136
0.0415829
0.0407124
0.0411671
0.0415962
0.0419107
0.0420742
0.0421257
0.0421328
0.042133
0.042133
0.042133
0.042133
0.042133
0.042133
0.042133
0.042133
0.042133
0.042133
0.042133
0.042133
0.042133
0.042133
0.042133
0.042133
0.042133
0.042133
0.042133
0.042133
0.042133
0.042133
0.042133
0.0421333
0.0421464
0.0423039
0.0428432
0.0434867
0.0438005
0.0438413
0.0437482
0.0434852
0.0432426
0.0430464
0.0428675
0.0427014
0.0425692
0.0424972
0.0424795
0.0425963
0.0430189
0.0436247
0.0440436
0.0441907
0.044205
0.0441704
0.0440901
0.0439968
0.0439188
0.043858
0.0438083
0.0437652
0.0437267
0.0436911
0.0436568
0.0436234
0.0435919
0.0435616
0.0435312
0.0435005
0.0434701
0.0434395
0.0434067
0.0433691
0.0433262
0.0432798
0.0432322
0.0431845
0.0431368
0.0430888
0.0430406
0.0429925
0.0429451
0.0428983
0.0428522
0.0428065
0.0427613
0.0427166
0.0426723
0.0426282
0.0425855
0.042545
0.0425058
0.0424652
0.0424215
0.0423778
0.0423356
0.0422958
0.0422582
0.0422227
0.0421891
0.0421568
0.0421255
0.042095
0.0420651
0.0420362
0.0420086
0.0419824
0.0419576
0.041934
0.0419117
0.0418903
0.0418699
0.0418502
0.0418311
0.0418125
0.0417942
0.0417765
0.0417609
0.0417436
0.0417291
0.0417114
0.041697
0.0416656
0.0406504
0.0411329
0.0415773
0.0419009
0.0420704
0.042125
0.0421328
0.042133
0.042133
0.042133
0.042133
0.042133
0.042133
0.042133
0.042133
0.042133
0.042133
0.042133
0.042133
0.042133
0.042133
0.042133
0.042133
0.042133
0.042133
0.042133
0.042133
0.042133
0.042133
0.042133
0.0421334
0.0421484
0.0423186
0.042872
0.0435044
0.0438003
0.0438325
0.0437313
0.0434636
0.0432206
0.0430228
0.042841
0.0426762
0.0425548
0.0424985
0.0425025
0.042682
0.0431843
0.043768
0.0441046
0.0441971
0.0441882
0.0441422
0.0440529
0.0439611
0.0438887
0.0438326
0.0437858
0.0437453
0.0437103
0.0436792
0.0436493
0.04362
0.0435915
0.0435645
0.0435393
0.0435122
0.0434826
0.0434515
0.043419
0.0433829
0.0433421
0.0432971
0.04325
0.0432029
0.0431566
0.0431106
0.0430648
0.0430188
0.0429732
0.042928
0.0428836
0.0428396
0.0427962
0.0427534
0.0427111
0.0426689
0.0426275
0.0425887
0.042553
0.0425174
0.0424794
0.0424401
0.0424007
0.0423628
0.0423263
0.0422915
0.0422588
0.0422278
0.0421982
0.0421695
0.0421415
0.0421142
0.0420878
0.0420625
0.0420382
0.0420149
0.0419926
0.0419713
0.0419508
0.041931
0.0419118
0.0418931
0.0418749
0.0418572
0.0418421
0.0418249
0.0418103
0.0417926
0.0417781
0.0417474
0.0405893
0.0410996
0.0415589
0.0418912
0.0420667
0.0421243
0.0421327
0.042133
0.042133
0.042133
0.042133
0.042133
0.042133
0.042133
0.042133
0.042133
0.042133
0.042133
0.042133
0.042133
0.042133
0.042133
0.042133
0.042133
0.042133
0.042133
0.042133
0.042133
0.042133
0.042133
0.0421335
0.0421506
0.0423339
0.0429005
0.043521
0.0437995
0.0438235
0.0437139
0.043442
0.0431983
0.0429983
0.0428142
0.0426533
0.0425459
0.0425016
0.0425355
0.0427921
0.04335
0.0438845
0.0441397
0.0441965
0.0441726
0.0441086
0.0440149
0.0439278
0.0438605
0.0438082
0.0437644
0.0437272
0.0436962
0.0436695
0.0436444
0.0436187
0.0435941
0.0435719
0.0435494
0.0435234
0.0434937
0.043462
0.0434295
0.0433953
0.0433576
0.0433157
0.0432707
0.0432247
0.0431793
0.043135
0.0430914
0.0430481
0.0430051
0.0429625
0.0429205
0.0428788
0.0428375
0.0427969
0.0427568
0.0427166
0.0426761
0.0426377
0.0426033
0.0425709
0.042538
0.0425035
0.042468
0.0424331
0.0423987
0.0423654
0.0423337
0.0423037
0.0422751
0.0422476
0.0422209
0.0421949
0.0421695
0.0421449
0.042121
0.0420979
0.0420758
0.0420544
0.0420339
0.0420141
0.0419948
0.0419762
0.0419583
0.041941
0.0419263
0.0419099
0.0418956
0.0418787
0.0418656
0.0418365
0.040529
0.0410672
0.0415409
0.0418816
0.0420629
0.0421235
0.0421327
0.042133
0.042133
0.042133
0.042133
0.042133
0.042133
0.042133
0.042133
0.042133
0.042133
0.042133
0.042133
0.042133
0.042133
0.042133
0.042133
0.042133
0.042133
0.042133
0.042133
0.042133
0.042133
0.042133
0.0421336
0.042153
0.04235
0.0429287
0.0435366
0.0437981
0.0438142
0.0436959
0.0434203
0.0431754
0.0429729
0.0427876
0.0426333
0.0425419
0.042508
0.0425803
0.0429218
0.0435069
0.0439712
0.0441552
0.0441869
0.0441539
0.0440735
0.0439772
0.0438956
0.0438335
0.0437849
0.0437447
0.0437114
0.0436846
0.0436627
0.043642
0.0436204
0.0435996
0.0435796
0.0435586
0.0435338
0.0435049
0.0434736
0.0434415
0.0434085
0.0433734
0.0433349
0.0432931
0.0432492
0.0432051
0.0431621
0.0431205
0.0430796
0.0430395
0.0429998
0.0429605
0.0429214
0.0428825
0.0428441
0.0428064
0.0427683
0.042729
0.0426902
0.0426549
0.042623
0.0425929
0.0425621
0.0425304
0.0424987
0.042467
0.0424358
0.0424055
0.0423765
0.0423489
0.0423224
0.0422968
0.042272
0.0422478
0.0422244
0.0422016
0.0421796
0.0421584
0.042138
0.0421183
0.0420994
0.042081
0.0420635
0.0420467
0.0420306
0.042017
0.0420017
0.041988
0.0419724
0.041961
0.0419333
0.0404696
0.0410356
0.0415234
0.0418722
0.0420591
0.0421227
0.0421326
0.042133
0.042133
0.042133
0.042133
0.042133
0.042133
0.042133
0.042133
0.042133
0.042133
0.042133
0.042133
0.042133
0.042133
0.042133
0.042133
0.042133
0.042133
0.042133
0.042133
0.042133
0.042133
0.042133
0.0421337
0.0421557
0.0423666
0.0429565
0.0435511
0.0437961
0.0438046
0.0436775
0.0433985
0.043152
0.0429468
0.0427616
0.0426166
0.0425409
0.0425209
0.0426406
0.0430641
0.0436488
0.0440369
0.0441632
0.0441682
0.0441283
0.0440368
0.0439404
0.0438643
0.0438075
0.0437633
0.0437273
0.0436985
0.0436766
0.0436592
0.0436422
0.0436246
0.0436062
0.0435872
0.0435668
0.0435434
0.0435165
0.043487
0.0434563
0.0434244
0.043391
0.0433553
0.0433167
0.0432759
0.0432342
0.043193
0.043153
0.043114
0.043076
0.0430386
0.0430016
0.0429647
0.0429278
0.0428912
0.0428555
0.0428199
0.0427827
0.042744
0.0427068
0.0426733
0.0426433
0.0426141
0.0425851
0.0425562
0.0425274
0.0424987
0.0424703
0.0424428
0.0424163
0.0423909
0.0423666
0.0423431
0.0423205
0.0422986
0.0422776
0.0422573
0.0422378
0.0422191
0.042201
0.0421835
0.0421665
0.0421503
0.0421348
0.04212
0.0421074
0.0420927
0.0420794
0.0420644
0.0420539
0.0420268
0.040411
0.0410048
0.0415063
0.0418629
0.0420553
0.0421219
0.0421326
0.042133
0.042133
0.042133
0.042133
0.042133
0.042133
0.042133
0.042133
0.042133
0.042133
0.042133
0.042133
0.042133
0.042133
0.042133
0.042133
0.042133
0.042133
0.042133
0.042133
0.042133
0.042133
0.042133
0.0421338
0.0421587
0.042384
0.0429839
0.0435646
0.0437937
0.0437948
0.0436585
0.0433764
0.0431278
0.0429201
0.0427368
0.0426026
0.0425431
0.0425421
0.0427184
0.0432105
0.0437713
0.0440855
0.0441661
0.0441503
0.0440943
0.0439976
0.0439046
0.0438344
0.0437831
0.0437439
0.043713
0.0436893
0.043672
0.0436583
0.0436452
0.0436306
0.0436138
0.0435954
0.0435758
0.0435541
0.0435295
0.0435025
0.0434738
0.0434435
0.0434113
0.0433774
0.0433416
0.0433039
0.0432651
0.0432263
0.043188
0.0431504
0.0431137
0.0430774
0.0430419
0.0430064
0.0429709
0.0429355
0.0429014
0.0428682
0.0428341
0.0427976
0.0427599
0.0427248
0.0426932
0.0426635
0.0426352
0.0426079
0.0425813
0.0425549
0.0425287
0.042503
0.0424781
0.0424541
0.042431
0.0424089
0.0423877
0.0423674
0.0423479
0.0423293
0.0423113
0.042294
0.0422771
0.0422608
0.0422449
0.0422296
0.0422149
0.0422006
0.0421886
0.0421736
0.0421602
0.0421454
0.0421349
0.0421073
0.0403533
0.0409747
0.0414896
0.0418538
0.0420515
0.0421211
0.0421325
0.042133
0.042133
0.042133
0.042133
0.042133
0.042133
0.042133
0.042133
0.042133
0.042133
0.042133
0.042133
0.042133
0.042133
0.042133
0.042133
0.042133
0.042133
0.042133
0.042133
0.042133
0.042133
0.042133
0.0421339
0.042162
0.0424019
0.0430108
0.0435771
0.0437909
0.0437847
0.043639
0.0433539
0.0431031
0.0428933
0.0427138
0.0425932
0.042547
0.0425721
0.0428157
0.0433556
0.0438697
0.0441105
0.0441624
0.0441331
0.0440572
0.0439571
0.0438701
0.0438064
0.0437612
0.0437278
0.0437024
0.0436838
0.0436704
0.0436601
0.0436505
0.0436385
0.0436229
0.043605
0.0435863
0.0435663
0.0435441
0.0435196
0.0434933
0.043465
0.0434343
0.0434016
0.0433676
0.0433324
0.0432964
0.0432599
0.0432236
0.0431873
0.0431515
0.0431158
0.0430809
0.0430462
0.0430116
0.0429767
0.0429434
0.0429121
0.0428816
0.042849
0.0428137
0.042779
0.0427466
0.0427162
0.0426875
0.0426603
0.0426346
0.0426096
0.042585
0.0425609
0.0425374
0.0425146
0.0424926
0.0424714
0.0424511
0.0424316
0.0424129
0.042395
0.0423777
0.042361
0.0423447
0.0423287
0.0423132
0.0422983
0.0422839
0.0422697
0.0422577
0.0422423
0.0422289
0.0422141
0.0422037
0.0421763
0.0402964
0.0409455
0.0414734
0.0418448
0.0420477
0.0421202
0.0421324
0.042133
0.042133
0.042133
0.042133
0.042133
0.042133
0.042133
0.042133
0.042133
0.042133
0.042133
0.042133
0.042133
0.042133
0.042133
0.042133
0.042133
0.042133
0.042133
0.042133
0.042133
0.042133
0.0421331
0.0421341
0.0421656
0.0424204
0.0430372
0.0435884
0.0437879
0.0437745
0.0436186
0.0433308
0.0430776
0.0428664
0.0426937
0.0425892
0.0425529
0.0426113
0.042929
0.0434931
0.0439445
0.0441226
0.0441493
0.0441124
0.0440204
0.0439183
0.0438379
0.0437815
0.0437427
0.0437153
0.0436956
0.0436818
0.0436718
0.0436651
0.0436588
0.0436492
0.0436348
0.0436172
0.043599
0.0435803
0.0435601
0.0435377
0.0435134
0.0434869
0.043458
0.0434266
0.0433938
0.04336
0.0433257
0.0432911
0.0432564
0.0432216
0.0431868
0.0431519
0.0431175
0.0430836
0.0430499
0.0430156
0.0429823
0.0429517
0.0429239
0.0428955
0.0428644
0.0428325
0.0428014
0.0427716
0.0427429
0.0427156
0.0426899
0.0426653
0.0426415
0.0426183
0.0425957
0.0425736
0.0425522
0.0425314
0.0425114
0.0424921
0.0424736
0.0424558
0.0424386
0.042422
0.0424058
0.04239
0.0423747
0.0423601
0.0423462
0.0423322
0.0423203
0.0423053
0.0422921
0.0422781
0.0422688
0.0422427
0.0402403
0.0409169
0.0414576
0.041836
0.042044
0.0421194
0.0421324
0.042133
0.042133
0.042133
0.042133
0.042133
0.042133
0.042133
0.042133
0.042133
0.042133
0.042133
0.042133
0.042133
0.042133
0.042133
0.042133
0.042133
0.042133
0.042133
0.042133
0.042133
0.042133
0.0421331
0.0421343
0.0421695
0.0424395
0.043063
0.0435986
0.0437845
0.0437643
0.0435976
0.0433072
0.0430515
0.0428402
0.0426765
0.0425885
0.0425626
0.0426625
0.0430536
0.0436195
0.0440047
0.044128
0.0441292
0.0440839
0.0439831
0.0438826
0.0438094
0.0437604
0.0437283
0.0437068
0.0436926
0.0436827
0.0436768
0.043674
0.0436704
0.0436626
0.0436492
0.0436317
0.0436134
0.0435954
0.0435765
0.0435556
0.0435324
0.0435072
0.0434797
0.04345
0.0434183
0.0433856
0.0433522
0.0433184
0.0432847
0.043251
0.0432173
0.0431834
0.0431499
0.0431171
0.0430848
0.0430518
0.0430184
0.0429875
0.0429606
0.0429351
0.0429084
0.0428802
0.0428517
0.0428239
0.0427963
0.0427697
0.0427441
0.0427196
0.0426962
0.0426736
0.0426515
0.04263
0.0426091
0.0425889
0.0425692
0.0425503
0.0425321
0.0425145
0.0424976
0.0424813
0.0424656
0.0424504
0.0424358
0.0424219
0.0424088
0.0423956
0.0423844
0.0423701
0.0423578
0.0423448
0.0423369
0.0423122
0.0401849
0.0408891
0.0414422
0.0418274
0.0420402
0.0421185
0.0421323
0.042133
0.042133
0.042133
0.042133
0.042133
0.042133
0.042133
0.042133
0.042133
0.042133
0.042133
0.042133
0.042133
0.042133
0.042133
0.042133
0.042133
0.042133
0.042133
0.042133
0.042133
0.042133
0.0421331
0.0421345
0.0421738
0.042459
0.0430883
0.0436078
0.0437808
0.0437538
0.0435759
0.0432827
0.0430249
0.0428149
0.0426621
0.0425906
0.0425785
0.0427268
0.0431822
0.0437293
0.0440459
0.0441293
0.0441101
0.0440471
0.0439436
0.0438499
0.0437854
0.0437442
0.0437187
0.0437029
0.0436926
0.0436873
0.0436865
0.0436868
0.0436849
0.0436782
0.0436654
0.043648
0.043629
0.0436102
0.0435915
0.0435712
0.0435488
0.0435241
0.0434975
0.0434692
0.0434391
0.0434076
0.0433749
0.0433416
0.0433083
0.0432752
0.0432423
0.0432094
0.043177
0.0431456
0.0431153
0.0430844
0.043052
0.0430205
0.0429929
0.042968
0.0429442
0.0429195
0.0428942
0.042869
0.0428436
0.0428186
0.042794
0.0427703
0.0427475
0.0427256
0.0427043
0.0426837
0.0426638
0.0426444
0.0426258
0.0426078
0.0425905
0.0425738
0.0425578
0.0425424
0.0425275
0.0425132
0.0424995
0.0424865
0.0424744
0.042462
0.0424514
0.0424379
0.0424263
0.0424142
0.0424076
0.0423835
0.0401304
0.0408619
0.0414273
0.0418189
0.0420365
0.0421176
0.0421322
0.042133
0.042133
0.042133
0.042133
0.042133
0.042133
0.042133
0.042133
0.042133
0.042133
0.042133
0.042133
0.042133
0.042133
0.042133
0.042133
0.042133
0.042133
0.042133
0.042133
0.042133
0.042133
0.0421331
0.0421347
0.0421784
0.0424791
0.0431128
0.043616
0.0437768
0.0437433
0.0435536
0.0432576
0.0429981
0.042791
0.0426506
0.0425947
0.0426019
0.0428058
0.0433105
0.0438193
0.0440677
0.0441237
0.0440914
0.0440081
0.0439039
0.0438203
0.0437659
0.0437331
0.0437141
0.0437023
0.0436969
0.0436975
0.0437007
0.0437028
0.0437009
0.0436938
0.043681
0.0436636
0.0436437
0.0436234
0.0436036
0.0435833
0.0435612
0.0435369
0.0435107
0.0434835
0.043455
0.0434251
0.0433937
0.0433613
0.0433283
0.0432956
0.0432635
0.0432317
0.0432004
0.0431703
0.0431421
0.0431142
0.0430843
0.0430534
0.0430245
0.0429989
0.0429759
0.0429531
0.0429305
0.0429079
0.0428854
0.0428628
0.0428403
0.0428183
0.0427969
0.0427763
0.0427564
0.0427372
0.0427186
0.0427008
0.0426836
0.042667
0.0426511
0.0426359
0.0426212
0.042607
0.0425933
0.0425801
0.0425674
0.0425553
0.0425444
0.0425326
0.0425224
0.0425095
0.0424986
0.0424872
0.0424815
0.0424579
0.0400765
0.0408354
0.0414127
0.0418106
0.0420328
0.0421167
0.0421322
0.042133
0.042133
0.042133
0.042133
0.042133
0.042133
0.042133
0.042133
0.042133
0.042133
0.042133
0.042133
0.042133
0.042133
0.042133
0.042133
0.042133
0.042133
0.042133
0.042133
0.042133
0.042133
0.0421331
0.042135
0.0421835
0.0424996
0.0431366
0.0436234
0.0437723
0.0437324
0.0435306
0.0432316
0.0429711
0.0427693
0.0426438
0.0426003
0.0426325
0.0428989
0.0434334
0.0438916
0.0440809
0.0441088
0.0440695
0.0439709
0.0438677
0.043795
0.0437509
0.0437266
0.043713
0.0437065
0.0437069
0.0437123
0.0437178
0.0437192
0.0437159
0.0437072
0.043694
0.0436767
0.0436561
0.0436338
0.0436119
0.0435909
0.0435693
0.0435456
0.04352
0.0434935
0.0434664
0.0434383
0.0434088
0.043378
0.0433463
0.0433146
0.0432837
0.0432534
0.0432234
0.0431946
0.0431683
0.0431435
0.0431177
0.0430895
0.0430609
0.0430348
0.0430114
0.0429891
0.0429679
0.0429473
0.0429274
0.0429076
0.0428878
0.0428683
0.0428492
0.0428306
0.0428126
0.0427952
0.0427785
0.0427625
0.042747
0.0427321
0.0427178
0.0427041
0.0426909
0.0426781
0.0426657
0.0426538
0.0426423
0.0426313
0.0426215
0.0426104
0.0426006
0.0425884
0.0425781
0.0425675
0.0425631
0.0425403
0.0400235
0.0408096
0.0413985
0.0418024
0.0420291
0.0421158
0.0421321
0.042133
0.042133
0.042133
0.042133
0.042133
0.042133
0.042133
0.042133
0.042133
0.042133
0.042133
0.042133
0.042133
0.042133
0.042133
0.042133
0.042133
0.042133
0.042133
0.042133
0.042133
0.042133
0.0421331
0.0421353
0.0421889
0.0425206
0.0431598
0.04363
0.0437673
0.0437213
0.0435069
0.0432051
0.0429447
0.0427504
0.0426412
0.0426076
0.0426715
0.0430039
0.0435488
0.0439498
0.0440864
0.0440885
0.0440412
0.0439356
0.0438373
0.0437752
0.0437407
0.0437242
0.0437167
0.0437158
0.0437213
0.0437296
0.0437341
0.0437327
0.0437265
0.0437158
0.043702
0.0436849
0.0436642
0.0436407
0.0436167
0.0435944
0.0435731
0.0435507
0.0435265
0.0435012
0.0434753
0.043449
0.0434217
0.0433933
0.043364
0.0433346
0.0433059
0.0432779
0.0432502
0.0432231
0.0431983
0.0431763
0.0431551
0.0431315
0.0431059
0.0430812
0.0430583
0.0430366
0.0430162
0.0429969
0.0429789
0.0429614
0.0429444
0.0429276
0.0429112
0.0428951
0.0428795
0.0428644
0.0428498
0.0428358
0.0428223
0.0428094
0.0427969
0.0427849
0.0427733
0.0427621
0.0427513
0.0427409
0.042731
0.0427213
0.042713
0.042703
0.0426941
0.0426829
0.0426732
0.042664
0.0426608
0.0426404
0.0399711
0.0407844
0.0413847
0.0417944
0.0420255
0.0421149
0.042132
0.042133
0.042133
0.042133
0.042133
0.042133
0.042133
0.042133
0.042133
0.042133
0.042133
0.042133
0.042133
0.042133
0.042133
0.042133
0.042133
0.042133
0.042133
0.042133
0.042133
0.042133
0.042133
0.0421331
0.0421357
0.0421947
0.0425419
0.0431822
0.0436357
0.0437619
0.0437099
0.0434826
0.0431778
0.0429188
0.0427343
0.0426413
0.0426179
0.0427205
0.0431147
0.0436511
0.0439892
0.0440867
0.0440694
0.0440057
0.0439005
0.0438123
0.0437609
0.0437353
0.0437259
0.043724
0.0437282
0.0437372
0.0437447
0.0437463
0.0437419
0.043732
0.0437195
0.0437052
0.0436886
0.0436684
0.0436444
0.043619
0.0435953
0.043574
0.0435531
0.0435312
0.0435078
0.0434837
0.0434594
0.0434347
0.0434096
0.0433838
0.043358
0.0433328
0.0433086
0.0432845
0.0432601
0.0432371
0.0432172
0.0432
0.0431817
0.0431611
0.04314
0.0431198
0.0431003
0.0430816
0.043064
0.0430477
0.0430323
0.0430178
0.0430037
0.0429901
0.0429767
0.0429638
0.0429512
0.0429391
0.0429274
0.0429161
0.0429053
0.0428949
0.0428849
0.0428752
0.0428658
0.0428568
0.0428482
0.0428399
0.0428318
0.0428251
0.0428163
0.0428083
0.0427986
0.0427904
0.0427825
0.0427804
0.042763
0.0399195
0.0407598
0.0413713
0.0417866
0.0420219
0.0421139
0.0421319
0.042133
0.042133
0.042133
0.042133
0.042133
0.042133
0.042133
0.042133
0.042133
0.042133
0.042133
0.042133
0.042133
0.042133
0.042133
0.042133
0.042133
0.042133
0.042133
0.042133
0.042133
0.042133
0.0421331
0.0421361
0.042201
0.0425635
0.0432038
0.0436408
0.0437559
0.043698
0.0434576
0.0431502
0.042894
0.0427205
0.0426442
0.0426327
0.0427804
0.0432278
0.0437388
0.0440139
0.0440817
0.044051
0.0439681
0.0438661
0.0437909
0.0437502
0.0437334
0.0437298
0.043732
0.0437405
0.0437501
0.0437548
0.0437531
0.0437456
0.0437328
0.0437192
0.0437049
0.0436889
0.0436696
0.043646
0.04362
0.0435953
0.0435738
0.0435544
0.0435351
0.043515
0.0434939
0.0434728
0.0434518
0.0434309
0.04341
0.0433892
0.0433689
0.0433496
0.0433306
0.0433105
0.04329
0.0432722
0.0432578
0.0432443
0.0432294
0.0432135
0.0431975
0.0431819
0.0431664
0.0431516
0.0431377
0.0431248
0.0431127
0.0431012
0.0430903
0.0430797
0.0430695
0.0430596
0.04305
0.0430407
0.0430318
0.0430232
0.043015
0.0430071
0.0429994
0.042992
0.0429848
0.042978
0.0429714
0.0429651
0.04296
0.0429523
0.0429452
0.0429371
0.0429306
0.0429242
0.042923
0.0429082
0.0398685
0.0407358
0.0413582
0.0417789
0.0420183
0.042113
0.0421318
0.042133
0.042133
0.042133
0.042133
0.042133
0.042133
0.042133
0.042133
0.042133
0.042133
0.042133
0.042133
0.042133
0.042133
0.042133
0.042133
0.042133
0.042133
0.042133
0.042133
0.042133
0.042133
0.0421331
0.0421366
0.0422077
0.0425854
0.0432248
0.0436451
0.0437493
0.0436858
0.0434318
0.0431221
0.0428703
0.0427096
0.0426495
0.0426536
0.0428512
0.0433379
0.0438118
0.0440304
0.0440687
0.0440302
0.0439328
0.0438349
0.0437727
0.0437417
0.0437328
0.043733
0.0437391
0.0437495
0.0437574
0.0437598
0.0437558
0.0437462
0.0437321
0.0437176
0.043703
0.0436874
0.0436689
0.0436461
0.0436205
0.0435957
0.0435745
0.0435568
0.0435411
0.0435256
0.0435097
0.0434937
0.0434781
0.0434629
0.0434481
0.0434333
0.0434187
0.0434051
0.043392
0.0433776
0.0433612
0.0433456
0.0433334
0.0433233
0.0433135
0.0433028
0.0432918
0.043281
0.04327
0.0432591
0.0432484
0.0432384
0.0432289
0.04322
0.0432117
0.0432037
0.043196
0.0431885
0.0431813
0.0431743
0.0431675
0.043161
0.0431548
0.0431487
0.0431428
0.043137
0.0431315
0.0431262
0.0431211
0.043116
0.0431121
0.0431053
0.0430991
0.0430922
0.0430868
0.0430814
0.0430808
0.043068
0.0398183
0.0407125
0.0413456
0.0417714
0.0420147
0.042112
0.0421317
0.042133
0.042133
0.042133
0.042133
0.042133
0.042133
0.042133
0.042133
0.042133
0.042133
0.042133
0.042133
0.042133
0.042133
0.042133
0.042133
0.042133
0.042133
0.042133
0.042133
0.042133
0.042133
0.0421331
0.0421372
0.0422149
0.0426075
0.0432449
0.0436488
0.0437421
0.0436732
0.0434055
0.0430941
0.0428486
0.0427023
0.0426553
0.0426807
0.0429336
0.0434438
0.043871
0.0440365
0.0440493
0.0440046
0.0439005
0.0438086
0.0437578
0.0437348
0.043731
0.0437339
0.0437433
0.0437538
0.0437602
0.0437611
0.0437561
0.043745
0.0437298
0.0437143
0.0436993
0.043684
0.0436666
0.0436457
0.0436215
0.0435981
0.0435791
0.043565
0.0435546
0.0435459
0.0435375
0.0435288
0.0435203
0.0435122
0.0435042
0.043496
0.0434872
0.0434789
0.0434714
0.0434632
0.0434522
0.04344
0.0434295
0.0434216
0.0434153
0.0434088
0.0434022
0.0433958
0.0433893
0.0433825
0.0433755
0.0433685
0.0433617
0.0433552
0.043349
0.0433431
0.0433375
0.043332
0.0433267
0.0433215
0.0433164
0.0433115
0.0433066
0.0433019
0.0432972
0.0432926
0.0432882
0.0432841
0.04328
0.0432758
0.0432725
0.0432663
0.043261
0.0432548
0.0432502
0.0432456
0.0432454
0.0432342
0.0397687
0.0406899
0.0413333
0.041764
0.0420112
0.0421111
0.0421316
0.042133
0.042133
0.042133
0.042133
0.042133
0.042133
0.042133
0.042133
0.042133
0.042133
0.042133
0.042133
0.042133
0.042133
0.042133
0.042133
0.042133
0.042133
0.042133
0.042133
0.042133
0.042133
0.0421331
0.0421378
0.0422225
0.0426299
0.0432644
0.0436519
0.0437343
0.0436598
0.0433787
0.0430661
0.0428291
0.0426991
0.0426624
0.0427145
0.0430242
0.043541
0.0439148
0.0440365
0.044029
0.0439724
0.0438691
0.0437867
0.0437446
0.0437287
0.0437274
0.0437334
0.0437445
0.0437545
0.0437604
0.0437602
0.0437535
0.0437393
0.0437224
0.043707
0.043693
0.0436789
0.0436639
0.0436457
0.0436247
0.0436058
0.0435926
0.0435855
0.0435829
0.0435828
0.0435831
0.0435829
0.0435823
0.0435813
0.04358
0.0435779
0.0435744
0.0435703
0.0435672
0.0435644
0.0435594
0.0435516
0.0435433
0.0435372
0.0435329
0.0435289
0.0435252
0.0435218
0.0435186
0.0435153
0.0435114
0.0435073
0.0435029
0.0434985
0.0434941
0.0434898
0.0434856
0.0434815
0.0434774
0.0434734
0.0434694
0.0434655
0.0434616
0.0434577
0.0434538
0.04345
0.0434463
0.0434428
0.0434396
0.0434355
0.0434322
0.0434265
0.0434218
0.043416
0.0434121
0.0434079
0.0434078
0.0433981
0.03972
0.0406678
0.0413214
0.0417568
0.0420077
0.0421101
0.0421315
0.042133
0.042133
0.042133
0.042133
0.042133
0.042133
0.042133
0.042133
0.042133
0.042133
0.042133
0.042133
0.042133
0.042133
0.042133
0.042133
0.042133
0.042133
0.042133
0.042133
0.042133
0.042133
0.0421331
0.0421385
0.0422306
0.0426524
0.043283
0.0436542
0.0437263
0.0436453
0.0433516
0.0430389
0.0428123
0.0426985
0.0426714
0.0427564
0.0431204
0.043628
0.043945
0.0440334
0.0440099
0.0439364
0.0438379
0.0437674
0.0437321
0.0437217
0.0437224
0.043731
0.0437436
0.0437523
0.0437559
0.0437529
0.0437436
0.0437281
0.0437117
0.043698
0.0436867
0.0436755
0.0436629
0.0436488
0.0436359
0.0436266
0.0436234
0.0436259
0.0436322
0.0436408
0.0436496
0.0436574
0.0436638
0.043669
0.0436733
0.0436762
0.0436769
0.0436759
0.0436754
0.0436762
0.0436763
0.0436736
0.0436685
0.0436642
0.0436612
0.0436587
0.0436563
0.0436542
0.0436526
0.0436511
0.0436493
0.0436471
0.0436445
0.0436416
0.0436385
0.0436352
0.0436319
0.0436285
0.0436251
0.0436216
0.0436183
0.0436148
0.0436114
0.043608
0.0436046
0.0436013
0.0435981
0.043595
0.0435923
0.0435882
0.043585
0.0435797
0.0435755
0.0435701
0.0435667
0.0435629
0.043563
0.0435544
0.0396719
0.0406464
0.0413098
0.0417497
0.0420042
0.0421092
0.0421314
0.042133
0.042133
0.042133
0.042133
0.042133
0.042133
0.042133
0.042133
0.042133
0.042133
0.042133
0.042133
0.042133
0.042133
0.042133
0.042133
0.042133
0.042133
0.042133
0.042133
0.042133
0.042133
0.0421331
0.0421393
0.0422391
0.042675
0.0433009
0.0436558
0.0437182
0.0436295
0.0433241
0.0430123
0.0427978
0.0427003
0.0426837
0.0428066
0.043217
0.0437026
0.0439655
0.0440247
0.0439896
0.0439011
0.0438076
0.0437491
0.0437201
0.0437136
0.0437166
0.0437272
0.0437386
0.0437444
0.0437441
0.0437388
0.0437281
0.0437139
0.0437002
0.0436901
0.0436827
0.0436747
0.0436666
0.0436631
0.0436636
0.0436672
0.043675
0.0436869
0.0437018
0.0437178
0.0437332
0.0437468
0.0437582
0.0437677
0.0437758
0.0437823
0.0437863
0.0437877
0.0437884
0.0437908
0.0437944
0.0437961
0.0437949
0.043793
0.0437916
0.0437904
0.0437888
0.0437872
0.0437858
0.0437847
0.0437836
0.0437823
0.0437807
0.0437786
0.0437763
0.0437737
0.0437708
0.0437679
0.0437649
0.0437618
0.0437588
0.0437557
0.0437527
0.0437496
0.0437467
0.0437438
0.043741
0.0437383
0.0437359
0.0437321
0.0437292
0.0437244
0.0437205
0.0437155
0.0437124
0.0437091
0.0437094
0.0437016
0.0396246
0.0406256
0.0412986
0.0417428
0.0420008
0.0421082
0.0421313
0.042133
0.042133
0.042133
0.042133
0.042133
0.042133
0.042133
0.042133
0.042133
0.042133
0.042133
0.042133
0.042133
0.042133
0.042133
0.042133
0.042133
0.042133
0.042133
0.042133
0.042133
0.042133
0.0421332
0.0421402
0.0422482
0.0426976
0.043318
0.0436567
0.0437099
0.0436126
0.0432966
0.042987
0.0427854
0.042704
0.0427004
0.0428653
0.0433125
0.043765
0.0439751
0.0440088
0.0439666
0.0438685
0.0437799
0.0437309
0.0437091
0.0437057
0.0437113
0.0437225
0.0437295
0.0437324
0.0437294
0.0437228
0.0437138
0.0437023
0.0436922
0.0436861
0.0436826
0.0436801
0.0436846
0.0436965
0.043712
0.0437285
0.0437465
0.043766
0.0437867
0.0438072
0.0438264
0.0438433
0.0438575
0.0438691
0.0438791
0.0438877
0.0438945
0.0438983
0.0439
0.0439025
0.0439073
0.0439121
0.0439148
0.0439157
0.0439161
0.0439163
0.0439158
0.0439147
0.0439133
0.043912
0.0439108
0.0439095
0.0439081
0.0439065
0.0439045
0.0439023
0.0438999
0.0438973
0.0438946
0.0438919
0.0438891
0.0438864
0.0438837
0.043881
0.0438784
0.043876
0.0438736
0.0438712
0.0438692
0.0438657
0.0438631
0.0438588
0.0438555
0.0438509
0.0438481
0.0438453
0.0438458
0.0438387
0.039578
0.0406054
0.0412878
0.041736
0.0419974
0.0421072
0.0421312
0.042133
0.042133
0.042133
0.042133
0.042133
0.042133
0.042133
0.042133
0.042133
0.042133
0.042133
0.042133
0.042133
0.042133
0.042133
0.042133
0.042133
0.042133
0.042133
0.042133
0.042133
0.042133
0.0421332
0.0421412
0.0422577
0.0427203
0.0433343
0.0436569
0.0437013
0.0435945
0.0432689
0.0429628
0.0427758
0.0427099
0.0427217
0.0429321
0.0434026
0.043815
0.0439774
0.0439879
0.0439397
0.0438381
0.043756
0.0437141
0.0436997
0.0436994
0.0437072
0.0437175