/*--------------------------------*- C++ -*----------------------------------*\
| =========                 |                                                 |
| \\      /  F ield         | OpenFOAM: The Open Source CFD Toolbox           |
|  \\    /   O peration     | Version:  2406                                  |
|   \\  /    A nd           | Website:  www.openfoam.com                      |
|    \\/     M anipulation  |                                                 |
\*---------------------------------------------------------------------------*/
FoamFile
{
    version     2.0;
    format      ascii;
    arch        "LSB;label=32;scalar=64";
    class       volScalarField;
    location    "0.059";
    object      p;
}
// * * * * * * * * * * * * * * * * * * * * * * * * * * * * * * * * * * * * * //

dimensions      [1 -1 -2 0 0 0 0];

internalField   nonuniform List<scalar> 
78650
(
3793.11
2863.51
2787.12
2782.59
2776.7
2772.93
2769.28
2765.82
2762.23
2758.94
2756.14
2754.02
2752.51
2751.23
2749.79
2748.15
2746.57
2745.11
2743.65
2741.94
2739.78
2737.02
2733.73
2730.13
2726.47
2722.92
2719.56
2716.44
2713.56
2710.93
2708.52
2706.32
2704.29
2702.41
2700.67
2699.04
2697.54
2696.14
2694.83
2693.61
2692.44
2691.31
2690.21
2689.11
2687.99
2686.84
2685.62
2684.31
2682.89
2681.32
2679.57
2677.61
2675.39
2672.87
2670.03
2666.84
2663.22
2659.13
2654.5
2649.28
2643.41
2636.84
2629.51
2621.36
2612.33
2602.32
2591.26
2579.04
2565.58
2550.84
2534.77
2517.26
2498.27
2477.69
2455.46
2431.55
2405.82
2378.19
2348.74
2317.54
2284.63
2250.17
2214.06
2176.62
2137.66
2096.91
2054.47
2011.09
1967.11
1922.99
1879.13
1834.05
1788.79
1745
1700.96
1658.27
1618.42
1578.78
1541.07
1502.7
1466.38
1431.8
1399.63
1369.77
1342.56
1317.76
1294.94
1273.53
1253.39
1234.27
1216.44
1199.82
1184.7
1170.86
1158.2
1146.69
1135.71
1125.41
1115.91
1108.24
1091.94
3775.76
2859.17
2788.72
2783.93
2778.34
2774.8
2771.47
2768.22
2764.57
2760.83
2757.32
2754.55
2752.67
2751.35
2750.11
2748.74
2747.29
2745.91
2744.55
2743.08
2741.36
2739.18
2736.52
2733.48
2730.27
2727.1
2724.07
2721.24
2718.63
2716.25
2714.09
2712.12
2710.32
2708.67
2707.16
2705.77
2704.5
2703.35
2702.3
2701.34
2700.44
2699.61
2698.81
2698.04
2697.27
2696.47
2695.64
2694.74
2693.75
2692.65
2691.4
2689.97
2688.31
2686.41
2684.22
2681.71
2678.85
2675.55
2671.79
2667.49
2662.61
2657.09
2650.88
2643.93
2636.18
2627.54
2617.92
2607.24
2595.44
2582.46
2568.23
2552.59
2535.5
2516.86
2496.63
2474.83
2451.33
2426.06
2399.07
2370.28
2339.6
2307.05
2272.61
2236.66
2199.07
2160.14
2119.8
2077.94
2035.32
1991.88
1947.74
1903.1
1858.31
1813.58
1770.51
1727.72
1685.83
1645.1
1605.43
1567.82
1530.86
1495.81
1463.6
1432.7
1403.49
1374.72
1347.35
1321.25
1297.23
1275.05
1254.32
1234.8
1216.17
1198.83
1182.63
1167.69
1154.28
1141.72
1130.18
1119.85
1101.18
3764.64
2851.05
2790.28
2785.51
2780.21
2776.81
2773.69
2770.64
2767.05
2763.05
2758.92
2755.36
2752.9
2751.36
2750.24
2749.17
2748
2746.8
2745.55
2744.25
2742.88
2741.23
2739.2
2736.78
2734.11
2731.36
2728.69
2726.16
2723.83
2721.7
2719.78
2718.04
2716.47
2715.05
2713.77
2712.62
2711.59
2710.69
2709.9
2709.2
2708.58
2708.04
2707.55
2707.1
2706.67
2706.24
2705.79
2705.3
2704.75
2704.1
2703.34
2702.44
2701.34
2700.03
2698.48
2696.65
2694.51
2692
2689.06
2685.65
2681.71
2677.21
2672.07
2666.25
2659.71
2652.35
2644.1
2634.88
2624.61
2613.22
2600.63
2586.75
2571.56
2554.95
2536.87
2517.24
2495.92
2472.85
2448.07
2421.47
2392.99
2362.67
2330.61
2297.09
2262.06
2225.67
2187.51
2147.87
2106.83
2064.2
2020.26
1975.23
1930.69
1886.21
1841.77
1798.06
1753.4
1710.58
1667.39
1626.05
1586.49
1547.26
1510.45
1476.01
1444.63
1415.54
1388.66
1362.68
1338.14
1314.18
1291.57
1270.09
1249.96
1230.93
1212.7
1195.31
1178.98
1164.08
1151.35
1139.93
1118.25
3751.03
2843.85
2790.97
2786.87
2782.11
2778.97
2776.02
2773.11
2769.62
2765.54
2760.94
2756.56
2753.29
2751.33
2750.18
2749.34
2748.55
2747.71
2746.66
2745.53
2744.43
2743.23
2741.8
2740.05
2737.99
2735.74
2733.47
2731.27
2729.21
2727.33
2725.64
2724.13
2722.78
2721.59
2720.53
2719.61
2718.82
2718.16
2717.61
2717.18
2716.83
2716.57
2716.38
2716.24
2716.14
2716.05
2715.97
2715.87
2715.73
2715.53
2715.24
2714.84
2714.29
2713.55
2712.61
2711.44
2709.99
2708.23
2706.1
2703.55
2700.53
2697
2692.91
2688.21
2682.85
2676.77
2669.88
2662.12
2653.38
2643.62
2632.78
2620.77
2607.51
2592.88
2576.79
2559.19
2540.01
2519.25
2496.89
2472.75
2446.72
2418.81
2389.07
2357.64
2324.43
2289.54
2252.73
2214.63
2174.86
2133.89
2091.78
2048.66
2004.69
1959.74
1913.62
1869.59
1824.24
1779.59
1737.28
1693.69
1652.12
1610.97
1571.3
1532.09
1493.64
1457.95
1425.05
1395.44
1368.55
1342.94
1319.08
1296.55
1275.89
1256.61
1238.63
1221.44
1204.89
1188.95
1174.71
1162.33
1139.32
3738.73
2838.45
2791.93
2788.61
2784.55
2781.56
2778.59
2775.66
2772.23
2768.19
2763.34
2758.25
2754.01
2751.36
2750
2749.27
2748.87
2748.6
2747.95
2747.05
2746.17
2745.33
2744.42
2743.31
2741.9
2740.23
2738.41
2736.57
2734.8
2733.17
2731.71
2730.42
2729.29
2728.32
2727.49
2726.81
2726.26
2725.83
2725.54
2725.36
2725.29
2725.31
2725.41
2725.58
2725.8
2726.06
2726.35
2726.63
2726.91
2727.15
2727.32
2727.41
2727.39
2727.22
2726.88
2726.35
2725.58
2724.54
2723.2
2721.48
2719.35
2716.77
2713.69
2710.06
2705.83
2700.95
2695.35
2688.95
2681.66
2673.45
2664.22
2653.88
2642.39
2629.63
2615.55
2600.12
2583.22
2564.8
2544.75
2522.89
2499.18
2473.7
2446.47
2417.52
2386.81
2354.36
2320.08
2284.34
2246.65
2207.62
2166.97
2124.72
2081.03
2036.69
1991.46
1945.55
1901.87
1856.21
1812.54
1767.67
1724.99
1682.78
1641.82
1602.82
1564.03
1527.63
1492.08
1458.14
1426.36
1395.66
1367.14
1340.15
1314.94
1291.22
1268.96
1248.69
1230.03
1212.94
1197.11
1183.13
1154.68
3725.64
2837.44
2793.04
2790.45
2787.12
2784.34
2781.23
2778.15
2774.7
2770.77
2765.92
2760.38
2755.21
2751.62
2749.87
2749.16
2749
2749.37
2749.35
2748.84
2748.22
2747.66
2747.16
2746.6
2745.83
2744.78
2743.48
2742.04
2740.59
2739.22
2737.99
2736.93
2736.02
2735.27
2734.67
2734.21
2733.89
2733.7
2733.66
2733.73
2733.92
2734.22
2734.6
2735.07
2735.61
2736.2
2736.84
2737.5
2738.17
2738.83
2739.45
2740.02
2740.51
2740.88
2741.12
2741.2
2741.09
2740.75
2740.16
2739.25
2737.98
2736.32
2734.21
2731.63
2728.52
2724.82
2720.49
2715.45
2709.61
2702.93
2695.33
2686.73
2677.09
2666.28
2654.24
2640.89
2626.09
2609.83
2592.03
2572.57
2551.47
2528.68
2504.08
2477.61
2449.21
2418.93
2386.81
2353.07
2317.42
2280.47
2241.62
2201.56
2160.05
2116.82
2073.12
2027.66
1982.6
1935.87
1889.95
1844.26
1798.37
1754.26
1709.57
1667.41
1625.77
1586.46
1548.98
1513
1479.69
1447.48
1417.8
1389.06
1361.93
1335.33
1309.76
1285.84
1264.15
1244.12
1226.48
1210.95
1179.39
3711.56
2839.06
2794.93
2792.62
2789.76
2787.09
2783.81
2780.51
2776.99
2773.18
2768.51
2762.87
2757.01
2752.41
2749.99
2749.13
2749.07
2750
2750.82
2750.9
2750.67
2750.38
2750.18
2750.02
2749.79
2749.34
2748.6
2747.63
2746.55
2745.47
2744.49
2743.65
2742.97
2742.44
2742.06
2741.83
2741.75
2741.79
2742
2742.32
2742.76
2743.33
2744
2744.76
2745.62
2746.54
2747.53
2748.56
2749.63
2750.7
2751.77
2752.81
2753.8
2754.71
2755.51
2756.19
2756.72
2757.06
2757.19
2757.07
2756.64
2755.87
2754.7
2753.12
2751.07
2748.49
2745.36
2741.59
2737.11
2731.87
2725.8
2718.82
2710.88
2701.86
2691.7
2680.35
2667.7
2653.72
2638.31
2621.35
2602.79
2582.51
2560.37
2536.38
2510.58
2483.02
2453.72
2422.7
2389.78
2355.23
2318.49
2280.23
2239.99
2198.51
2155.73
2111.92
2066.56
2020.89
1974.15
1929.06
1882.56
1837.95
1791.85
1747.49
1703.67
1660.07
1618.36
1576.94
1538.83
1502.73
1469.65
1438.25
1408.94
1380.61
1353.81
1328.37
1304.6
1282.07
1261.61
1242.95
1203.71
3694.77
2841.56
2798.44
2795.81
2792.91
2790.01
2786.39
2782.81
2779.16
2775.41
2770.98
2765.51
2759.37
2753.96
2750.67
2749.42
2749.29
2750.51
2752.27
2753.22
2753.54
2753.57
2753.59
2753.71
2753.85
2753.88
2753.7
2753.25
2752.6
2751.87
2751.17
2750.58
2750.12
2749.82
2749.66
2749.65
2749.8
2750.08
2750.5
2751.06
2751.76
2752.59
2753.54
2754.59
2755.75
2757
2758.32
2759.71
2761.15
2762.63
2764.12
2765.62
2767.08
2768.51
2769.86
2771.12
2772.26
2773.26
2774.08
2774.69
2775.06
2775.15
2774.9
2774.31
2773.31
2771.81
2769.86
2767.35
2764.21
2760.41
2755.86
2750.51
2744.28
2737.08
2728.87
2719.55
2709.02
2697.21
2684.02
2669.37
2653.24
2635.5
2616.01
2594.79
2571.83
2547.09
2520.51
2492.03
2461.54
2429.19
2394.69
2358.64
2320.66
2281.56
2240.64
2198.26
2154.62
2109.75
2064
2017.65
1971.15
1924.46
1878.31
1831.77
1787.72
1742.49
1699.52
1656.3
1614.95
1575.28
1537.51
1501.47
1467.46
1435.38
1405.76
1378.5
1352.96
1329.01
1307.85
1290.14
1257.2
3673.83
2844.37
2803.86
2800.54
2796.99
2793.49
2789.31
2785.32
2781.44
2777.64
2773.34
2768.13
2762.08
2756.25
2752.2
2750.43
2750.08
2751.22
2753.72
2755.68
2756.79
2757.26
2757.51
2757.79
2758.16
2758.54
2758.78
2758.84
2758.67
2758.35
2757.98
2757.66
2757.45
2757.37
2757.43
2757.65
2758.01
2758.51
2759.17
2759.97
2760.93
2762.01
2763.23
2764.58
2766.03
2767.6
2769.26
2771
2772.81
2774.69
2776.6
2778.54
2780.48
2782.41
2784.29
2786.11
2787.85
2789.49
2791.01
2792.35
2793.48
2794.37
2794.99
2795.3
2795.32
2794.88
2794.06
2792.73
2790.85
2788.38
2785.24
2781.4
2776.77
2771.27
2764.85
2757.42
2748.89
2739.21
2728.31
2716.09
2702.5
2687.36
2670.55
2652.08
2631.9
2609.95
2586.17
2560.45
2532.75
2503.19
2471.64
2438.45
2403.29
2366.59
2327.67
2287.26
2245.04
2201.46
2157.04
2110.63
2064.61
2016.64
1970.48
1922.35
1875.85
1828.42
1782.82
1737.69
1693.65
1650.71
1609.17
1569.35
1530.97
1494.08
1459.38
1426.84
1395.89
1365.6
1336.85
1312.41
1264.36
3648.33
2846.6
2809.67
2805.84
2801.54
2797.49
2792.67
2788.13
2783.88
2779.83
2775.54
2770.63
2764.96
2759.19
2754.73
2752.47
2751.83
2752.58
2755.33
2758.18
2760.24
2761.35
2761.91
2762.33
2762.8
2763.37
2763.95
2764.42
2764.7
2764.82
2764.83
2764.82
2764.88
2765.04
2765.33
2765.76
2766.34
2767.07
2767.95
2768.99
2770.18
2771.52
2773
2774.62
2776.37
2778.24
2780.22
2782.3
2784.47
2786.72
2789.04
2791.4
2793.8
2796.2
2798.59
2800.96
2803.28
2805.53
2807.68
2809.72
2811.59
2813.28
2814.75
2815.94
2816.86
2817.47
2817.72
2817.57
2816.93
2815.8
2814.05
2811.71
2808.67
2804.86
2800.23
2794.69
2788.17
2780.61
2771.9
2761.93
2750.67
2737.97
2723.77
2708.06
2690.71
2671.64
2650.77
2627.98
2603.28
2576.75
2548.3
2518.04
2485.65
2451.39
2414.85
2376.78
2336.63
2295.07
2251.87
2207.57
2162.06
2115.98
2069.61
2021.75
1973.71
1925.51
1877.99
1832.08
1785.76
1740.45
1696.64
1654.81
1614.87
1576.71
1540.62
1506.28
1474.68
1444.18
1414.89
1387.56
1332.58
3619.53
2848.39
2813.57
2809.94
2805.68
2801.45
2796.09
2790.98
2786.34
2782
2777.69
2773.12
2768.04
2762.72
2758.23
2755.62
2754.74
2755.02
2757.41
2760.76
2763.72
2765.65
2766.7
2767.32
2767.87
2768.5
2769.25
2770.01
2770.69
2771.22
2771.63
2771.98
2772.35
2772.77
2773.3
2773.96
2774.75
2775.7
2776.8
2778.07
2779.5
2781.09
2782.83
2784.72
2786.75
2788.92
2791.22
2793.64
2796.16
2798.78
2801.49
2804.27
2807.11
2809.98
2812.87
2815.77
2818.64
2821.48
2824.27
2826.97
2829.56
2832
2834.26
2836.32
2838.16
2839.73
2840.98
2841.88
2842.39
2842.51
2842.07
2841.14
2839.59
2837.33
2834.37
2830.6
2825.95
2820.38
2813.76
2806.05
2797.19
2787.05
2775.56
2762.6
2748.02
2731.77
2713.83
2694.09
2672.57
2649.27
2624.03
2596.8
2567.34
2535.87
2502.2
2466.82
2429.25
2390.15
2349.1
2306.64
2262.58
2217.14
2170.46
2123.3
2074.07
2025.76
1976.46
1928.27
1878.65
1830.36
1782.16
1735.87
1690.64
1647.72
1606.12
1566.2
1529.61
1496.97
1468.6
1444.27
1395.59
3588.31
2849.46
2814.92
2812.14
2808.3
2804.5
2799.23
2793.82
2788.8
2784.2
2780.05
2775.98
2771.6
2766.96
2762.73
2759.9
2758.8
2758.78
2760.38
2763.65
2767.17
2769.93
2771.66
2772.67
2773.36
2774.02
2774.79
2775.69
2776.63
2777.51
2778.3
2779.02
2779.71
2780.44
2781.24
2782.14
2783.16
2784.33
2785.66
2787.15
2788.81
2790.64
2792.63
2794.78
2797.09
2799.55
2802.15
2804.88
2807.74
2810.72
2813.8
2816.98
2820.24
2823.56
2826.92
2830.31
2833.71
2837.11
2840.49
2843.83
2847.09
2850.25
2853.28
2856.16
2858.86
2861.34
2863.59
2865.56
2867.18
2868.43
2869.27
2869.67
2869.64
2868.91
2867.61
2865.57
2862.76
2859.13
2854.57
2849.03
2842.42
2834.63
2825.6
2815.21
2803.34
2790
2775.13
2758.6
2740.35
2720.25
2698.12
2673.94
2647.62
2619.38
2589.09
2557
2522.74
2486.74
2448.48
2408.43
2366.31
2322.77
2277.9
2231.73
2184.9
2136.86
2088.11
2039.5
1989.34
1940.58
1890.78
1842.33
1793.91
1747.6
1701.71
1656.49
1612.72
1570.39
1531.23
1496.8
1431.42
3555.22
2847.83
2814.29
2812.13
2808.92
2805.9
2801.46
2796.41
2791.43
2787
2783.28
2779.71
2775.99
2772.01
2768.13
2765.23
2763.91
2763.71
2764.59
2767.25
2770.79
2774.12
2776.58
2778.15
2779.13
2779.87
2780.64
2781.55
2782.61
2783.74
2784.85
2785.91
2786.95
2788
2789.09
2790.25
2791.51
2792.91
2794.45
2796.17
2798.06
2800.12
2802.36
2804.77
2807.35
2810.09
2812.98
2816.03
2819.22
2822.55
2825.99
2829.56
2833.22
2836.97
2840.79
2844.67
2848.58
2852.52
2856.47
2860.41
2864.32
2868.17
2871.93
2875.58
2879.1
2882.46
2885.62
2888.56
2891.24
2893.62
2895.65
2897.27
2898.47
2899.2
2899.44
2899.02
2897.96
2896.18
2893.52
2890.05
2885.62
2880.16
2873.63
2865.88
2856.79
2846.32
2834.39
2820.85
2805.65
2788.64
2769.75
2748.99
2726.31
2701.78
2675.23
2646.7
2615.81
2582.8
2547.3
2509.9
2470.46
2429.5
2386.67
2342.28
2296.41
2249.41
2201.4
2151.62
2102.68
2053.04
2003.98
1953.59
1904.48
1855.38
1809.18
1763.54
1721.81
1680.14
1641.56
1607.38
1541.86
3522.28
2844.43
2811.49
2810.2
2807.79
2805.52
2802.16
2798.24
2794.19
2790.6
2787.38
2784.53
2781.46
2777.98
2774.41
2771.47
2769.88
2769.51
2769.95
2771.79
2774.88
2778.35
2781.34
2783.54
2784.99
2785.96
2786.75
2787.61
2788.64
2789.85
2791.17
2792.52
2793.88
2795.26
2796.67
2798.13
2799.67
2801.32
2803.11
2805.06
2807.18
2809.47
2811.95
2814.61
2817.45
2820.46
2823.64
2826.98
2830.49
2834.14
2837.93
2841.86
2845.91
2850.06
2854.31
2858.64
2863.04
2867.49
2871.97
2876.48
2881
2885.49
2889.93
2894.31
2898.6
2902.78
2906.82
2910.7
2914.37
2917.8
2920.95
2923.8
2926.3
2928.39
2930.02
2931.15
2931.71
2931.77
2930.96
2929.5
2927.16
2923.89
2919.67
2914.33
2907.81
2900.05
2890.96
2880.44
2868.41
2854.72
2839.32
2822.19
2803.2
2782.26
2759.2
2733.98
2706.35
2676.55
2644.45
2610.53
2574.5
2536.56
2496.33
2454.3
2410.41
2364.98
2317.86
2269.33
2219.44
2168.79
2118.64
2065.07
2013.74
1960.49
1909.57
1857.3
1807.67
1760.08
1716.05
1677.11
1602.1
3491.49
2840.52
2807.71
2806.69
2804.75
2803.49
2801.38
2798.87
2796.53
2794.37
2792.24
2790.37
2788.01
2784.99
2781.7
2778.69
2776.73
2776.08
2776.2
2777.24
2779.57
2782.7
2785.86
2788.57
2790.6
2791.97
2792.94
2793.81
2794.79
2795.99
2797.39
2798.94
2800.58
2802.27
2803.99
2805.76
2807.59
2809.51
2811.54
2813.73
2816.08
2818.61
2821.33
2824.24
2827.33
2830.6
2834.06
2837.7
2841.51
2845.48
2849.6
2853.88
2858.3
2862.85
2867.51
2872.28
2877.14
2882.07
2887.07
2892.12
2897.21
2902.31
2907.4
2912.46
2917.48
2922.43
2927.29
2932.03
2936.63
2941.05
2945.24
2949.19
2952.86
2956.21
2959.2
2961.77
2963.82
2965.38
2966.37
2966.75
2966.42
2965.25
2963.27
2960.29
2956.33
2951.23
2944.91
2937.3
2928.31
2917.8
2905.74
2892.02
2876.48
2858.99
2839.47
2817.89
2794.17
2768.49
2740.67
2710.9
2678.77
2644.45
2607.72
2569.01
2528.14
2485.5
2441.01
2395
2347.3
2298.34
2248.42
2198.46
2147.14
2095.07
2042.69
1989.92
1936.58
1885.17
1834.34
1787.58
1702.11
3464.15
2838.28
2805.3
2803.9
2801.64
2800.64
2799.66
2798.5
2797.56
2796.7
2796.31
2795.68
2794.6
2792.57
2789.82
2786.88
2784.57
2783.38
2783.14
2783.54
2785.07
2787.56
2790.43
2793.28
2795.74
2797.58
2798.89
2799.9
2800.88
2802.02
2803.42
2805.06
2806.9
2808.86
2810.9
2812.99
2815.14
2817.36
2819.67
2822.12
2824.72
2827.5
2830.46
2833.61
2836.95
2840.48
2844.2
2848.11
2852.21
2856.48
2860.92
2865.53
2870.3
2875.21
2880.26
2885.43
2890.71
2896.1
2901.57
2907.12
2912.74
2918.41
2924.1
2929.8
2935.49
2941.15
2946.77
2952.33
2957.79
2963.12
2968.3
2973.29
2978.06
2982.6
2986.85
2990.76
2994.29
2997.39
3000
3002.06
3003.52
3004.32
3004.5
3003.72
3002.15
2999.54
2995.79
2990.97
2984.91
2977.53
2968.74
2958.39
2946.34
2932.5
2916.81
2899.25
2879.77
2858.34
2834.63
2808.69
2780.19
2749.42
2716.21
2680.82
2643.07
2603.39
2561.78
2518.34
2472.62
2425.17
2376.41
2326.83
2276.44
2224.72
2172.11
2120.2
2067.47
2016.33
1965.46
1919.96
1834.38
3439.72
2838.3
2805.1
2803.01
2800.47
2799.31
2798.51
2797.92
2797.56
2797.45
2797.45
2797.84
2798.01
2797.62
2796.3
2794.41
2792.49
2790.91
2790.16
2790.11
2790.88
2792.68
2795.04
2797.71
2800.36
2802.65
2804.43
2805.76
2806.87
2808.02
2809.38
2811.05
2812.99
2815.15
2817.45
2819.84
2822.29
2824.82
2827.42
2830.15
2833.01
2836.03
2839.24
2842.63
2846.22
2850
2853.99
2858.17
2862.54
2867.1
2871.85
2876.77
2881.87
2887.13
2892.55
2898.1
2903.79
2909.61
2915.53
2921.55
2927.67
2933.87
2940.12
2946.42
2952.74
2959.06
2965.39
2971.69
2977.95
2984.13
2990.2
2996.14
3001.93
3007.54
3012.94
3018.08
3022.91
3027.4
3031.51
3035.17
3038.35
3040.94
3042.94
3044.27
3044.88
3044.75
3043.46
3041.35
3038.07
3033.63
3027.9
3020.75
3012.1
3001.89
2990.02
2976.38
2960.89
2943.36
2923.51
2901.41
2876.9
2850.26
2821.28
2790.14
2756.61
2720.9
2682.92
2642.76
2600.26
2555.74
2509.19
2461.33
2411.88
2360.88
2307.94
2253.83
2199.85
2148.23
2091.11
2040.75
1951.85
3416.63
2840.25
2806.43
2803.7
2801.14
2799.54
2798.09
2797.01
2796.5
2796.52
2797.13
2797.97
2798.69
2798.85
2798.78
2798.66
2798.25
2797.47
2796.86
2796.66
2796.93
2798.02
2799.72
2801.93
2804.47
2807.02
2809.25
2811.03
2812.44
2813.72
2815.09
2816.75
2818.75
2821.04
2823.55
2826.22
2828.98
2831.82
2834.74
2837.75
2840.9
2844.19
2847.65
2851.29
2855.13
2859.16
2863.39
2867.83
2872.47
2877.3
2882.34
2887.56
2892.97
2898.55
2904.3
2910.22
2916.28
2922.49
2928.82
2935.28
2941.86
2948.54
2955.3
2962.14
2969.03
2975.97
2982.93
2989.92
2996.9
3003.85
3010.75
3017.57
3024.29
3030.89
3037.35
3043.62
3049.66
3055.44
3060.92
3066.06
3070.8
3075.09
3078.89
3082.13
3084.72
3086.62
3087.75
3088.11
3087.46
3085.81
3083.06
3079
3073.73
3067.03
3058.81
3048.91
3037.21
3023.54
3007.8
2990.05
2970.13
2948.18
2923.92
2897.44
2868.4
2836.91
2802.88
2766.64
2728.26
2687.63
2644.41
2599.21
2552.04
2503.57
2452.93
2400.98
2346.79
2293.91
2236.59
2182.58
2092.03
3392.03
2841.72
2810.73
2806.98
2803.68
2801.01
2798.46
2796.21
2794.59
2794.36
2794.93
2796.08
2797.44
2798.46
2799.22
2799.82
2800.45
2801.32
2801.96
2802.28
2802.56
2803.22
2804.41
2806.12
2808.32
2810.87
2813.44
2815.69
2817.53
2819.07
2820.56
2822.23
2824.24
2826.62
2829.3
2832.19
2835.22
2838.36
2841.59
2844.91
2848.34
2851.91
2855.63
2859.53
2863.61
2867.89
2872.37
2877.06
2881.95
2887.05
2892.35
2897.85
2903.55
2909.44
2915.52
2921.76
2928.18
2934.75
2941.47
2948.33
2955.33
2962.46
2969.7
2977.03
2984.46
2991.95
2999.5
3007.11
3014.76
3022.42
3030.07
3037.68
3045.24
3052.73
3060.14
3067.43
3074.56
3081.49
3088.21
3094.66
3100.82
3106.62
3112.03
3117
3121.47
3125.38
3128.61
3131.13
3132.88
3133.79
3133.93
3132.74
3130.64
3127.17
3122.3
3115.95
3107.97
3098.3
3086.88
3073.66
3058.39
3041.04
3021.32
2999.28
2974.64
2947.62
2918
2886.04
2851.74
2814.99
2775.78
2734.29
2690.67
2645.58
2598.43
2550
2499.23
2447.9
2394.37
2342.09
2257.37
3364.71
2845.12
2816.16
2812.37
2808.03
2803.91
2799.73
2796.2
2793.13
2791.4
2791.28
2792.31
2794.17
2796.17
2797.81
2799.23
2800.71
2802.69
2804.93
2806.58
2807.48
2808.14
2809.01
2810.28
2812.05
2814.36
2817.02
2819.64
2821.94
2823.86
2825.58
2827.35
2829.41
2831.84
2834.65
2837.73
2841.01
2844.44
2847.96
2851.59
2855.32
2859.17
2863.16
2867.32
2871.65
2876.17
2880.9
2885.83
2890.97
2896.32
2901.87
2907.64
2913.61
2919.79
2926.15
2932.71
2939.44
2946.35
2953.42
2960.65
2968.03
2975.56
2983.23
2991.02
2998.91
3006.91
3014.99
3023.16
3031.39
3039.68
3048
3056.33
3064.64
3072.94
3081.2
3089.4
3097.5
3105.48
3113.31
3120.95
3128.38
3135.55
3142.41
3148.94
3155.08
3160.77
3165.96
3170.56
3174.53
3177.75
3180.24
3181.84
3182.56
3182.27
3180.6
3177.82
3173.57
3167.88
3160.63
3151.62
3140.61
3127.54
3112.17
3094.59
3074.58
3052.31
3027.39
3000.01
2969.98
2937.48
2902.56
2865
2825.01
2782.64
2738.01
2691.51
2642.16
2591.87
2537.46
2483.36
2403.18
3334.79
2847.5
2818.98
2816.72
2812.63
2807.85
2802.21
2797.07
2792.82
2789.59
2787.91
2787.79
2789.18
2791.64
2794.35
2797.18
2799.86
2802.68
2805.96
2809.08
2811.25
2812.5
2813.41
2814.4
2815.75
2817.69
2820.23
2823.07
2825.77
2828.12
2830.16
2832.12
2834.26
2836.76
2839.66
2842.91
2846.41
2850.08
2853.89
2857.81
2861.83
2865.96
2870.23
2874.65
2879.23
2884
2888.96
2894.12
2899.5
2905.09
2910.89
2916.9
2923.13
2929.56
2936.2
2943.04
2950.07
2957.28
2964.68
2972.24
2979.97
2987.87
2995.92
3004.12
3012.44
3020.89
3029.45
3038.12
3046.89
3055.74
3064.66
3073.62
3082.61
3091.62
3100.64
3109.64
3118.61
3127.51
3136.32
3145.01
3153.56
3161.93
3170.08
3177.98
3185.6
3192.88
3199.77
3206.2
3212.13
3217.51
3222.26
3226.31
3229.53
3231.92
3233.34
3233.82
3233
3230.9
3227.37
3222.13
3215.21
3206.45
3195.73
3183.01
3168.08
3150.96
3131.27
3109.2
3084.37
3057.05
3027.1
2994.47
2959.33
2921.36
2881.25
2838.57
2793.75
2746.65
2696.73
2642.44
2569.6
3304.58
2845.71
2818.49
2819.39
2817.29
2812.82
2806.11
2799.26
2793.69
2789.4
2786.42
2784.91
2785
2786.54
2789.47
2793.28
2797.27
2801.32
2805.64
2810.15
2813.89
2816.17
2817.48
2818.45
2819.52
2821.05
2823.29
2826.11
2829.09
2831.84
2834.25
2836.46
2838.75
2841.35
2844.35
2847.74
2851.42
2855.33
2859.39
2863.58
2867.89
2872.3
2876.84
2881.52
2886.35
2891.35
2896.55
2901.94
2907.54
2913.36
2919.39
2925.64
2932.1
2938.78
2945.67
2952.77
2960.07
2967.56
2975.24
2983.11
2991.16
2999.38
3007.78
3016.34
3025.04
3033.89
3042.88
3051.99
3061.22
3070.57
3080.01
3089.53
3099.11
3108.74
3118.42
3128.13
3137.85
3147.55
3157.22
3166.83
3176.36
3185.77
3195.05
3204.16
3213.07
3221.74
3230.13
3238.19
3245.85
3253.08
3259.84
3266.05
3271.66
3276.57
3280.67
3283.91
3286.17
3287.37
3287.57
3286.06
3283.44
3279.17
3273.15
3265.37
3255.49
3243.5
3229.06
3212.31
3192.74
3170.62
3145.58
3117.86
3087.35
3053.95
3018.02
2978.93
2937.45
2892.96
2845.93
2793.6
2724.64
3277.85
2839.28
2815.47
2819.52
2819.36
2817.35
2811.51
2803.67
2796.54
2790.92
2786.7
2784.08
2782.93
2783.3
2784.93
2788.65
2793.57
2798.97
2804.71
2810.36
2815.42
2819.01
2821.07
2822.27
2823.22
2824.43
2826.31
2828.96
2832.07
2835.15
2837.92
2840.43
2842.91
2845.63
2848.73
2852.25
2856.1
2860.21
2864.51
2868.95
2873.52
2878.2
2883
2887.93
2893.01
2898.25
2903.67
2909.28
2915.1
2921.13
2927.38
2933.85
2940.53
2947.44
2954.56
2961.89
2969.43
2977.18
2985.12
2993.26
3001.59
3010.11
3018.81
3027.68
3036.73
3045.93
3055.29
3064.79
3074.43
3084.21
3094.12
3104.13
3114.22
3124.4
3134.65
3144.97
3155.34
3165.74
3176.15
3186.54
3196.92
3207.24
3217.49
3227.63
3237.65
3247.52
3257.19
3266.64
3275.8
3284.65
3293.13
3301.22
3308.84
3315.93
3322.42
3328.22
3333.27
3337.4
3340.64
3342.77
3343.84
3343.77
3341.75
3338.41
3333.03
3325.72
3316.23
3304.5
3290.13
3273.3
3253.48
3231.03
3205.48
3177.17
3145.96
3111.47
3074.27
3033.56
2990.25
2941.29
2877.31
3257.17
2829.72
2809.2
2817.57
2819.22
2819.56
2816.73
2809.71
2801.56
2794.41
2788.76
2784.7
2782.59
2782
2782.32
2784.8
2789.7
2796
2803.03
2809.96
2816.24
2821.09
2824.08
2825.75
2826.79
2827.81
2829.35
2831.74
2834.83
2838.12
2841.21
2844.03
2846.74
2849.61
2852.83
2856.48
2860.48
2864.77
2869.28
2873.96
2878.77
2883.7
2888.75
2893.93
2899.24
2904.7
2910.34
2916.17
2922.2
2928.43
2934.89
2941.56
2948.45
2955.56
2962.89
2970.44
2978.2
2986.18
2994.35
3002.73
3011.31
3020.09
3029.06
3038.22
3047.56
3057.07
3066.75
3076.6
3086.6
3096.75
3107.05
3117.48
3128.02
3138.66
3149.4
3160.24
3171.17
3182.16
3193.2
3204.27
3215.35
3226.44
3237.51
3248.53
3259.49
3270.36
3281.13
3291.75
3302.18
3312.4
3322.36
3332.05
3341.4
3350.36
3358.88
3366.9
3374.35
3381.16
3387.24
3392.47
3396.7
3399.93
3401.93
3402.75
3402.01
3399.53
3395.44
3389.31
3380.97
3370.38
3357.02
3341.06
3321.79
3299.7
3274.06
3244.96
3212.13
3174.91
3134.46
3087.74
3026.75
3244.27
2819.24
2801.19
2813.11
2818.08
2819.97
2819.67
2815.47
2807.78
2799.69
2792.37
2786.65
2783.19
2781.79
2781.62
2782.78
2786.73
2793.16
2801.15
2809.33
2816.6
2822.47
2826.45
2828.75
2830.06
2831.07
2832.39
2834.5
2837.46
2840.87
2844.22
2847.32
2850.27
2853.31
2856.67
2860.44
2864.6
2869.06
2873.75
2878.64
2883.67
2888.83
2894.12
2899.52
2905.05
2910.73
2916.58
2922.61
2928.83
2935.27
2941.91
2948.77
2955.85
2963.15
2970.68
2978.42
2986.38
2994.56
3002.95
3011.54
3020.34
3029.35
3038.56
3047.97
3057.57
3067.35
3077.31
3087.45
3097.76
3108.23
3118.87
3129.66
3140.58
3151.62
3162.79
3174.07
3185.47
3196.96
3208.53
3220.16
3231.85
3243.58
3255.33
3267.09
3278.83
3290.55
3302.22
3313.82
3325.31
3336.67
3347.86
3358.87
3369.66
3380.19
3390.41
3400.27
3409.72
3418.71
3427.16
3434.99
3442.12
3448.47
3453.92
3458.37
3461.73
3463.79
3464.6
3463.62
3460.74
3455.82
3448.4
3438.51
3425.48
3409.71
3390.2
3367.53
3340.26
3308.26
3271.73
3228.32
3171.1
3236.17
2809.42
2791.81
2806.08
2815.55
2819.52
2820.85
2819.48
2813.88
2805.69
2797.18
2789.78
2784.48
2782.08
2781.63
2782.28
2785.3
2791.14
2799.41
2808.5
2816.73
2823.42
2828.24
2831.22
2832.92
2834.07
2835.3
2837.19
2840
2843.44
2847
2850.36
2853.54
2856.78
2860.29
2864.19
2868.49
2873.11
2877.98
2883.05
2888.28
2893.65
2899.15
2904.76
2910.5
2916.39
2922.43
2928.65
2935.06
2941.67
2948.49
2955.53
2962.78
2970.26
2977.96
2985.89
2994.03
3002.39
3010.96
3019.75
3028.75
3037.96
3047.38
3057.01
3066.83
3076.85
3087.06
3097.45
3108.02
3118.78
3129.71
3140.8
3152.05
3163.43
3174.95
3186.61
3198.4
3210.32
3222.33
3234.44
3246.63
3258.89
3271.22
3283.59
3295.98
3308.4
3320.82
3333.22
3345.58
3357.87
3370.07
3382.16
3394.13
3405.94
3417.55
3428.92
3440.03
3450.82
3461.24
3471.23
3480.74
3489.71
3498.06
3505.67
3512.43
3518.16
3522.82
3526.19
3528.22
3528.81
3527.27
3523.94
3518.11
3509.79
3498.16
3483.65
3464.08
3439.77
3408.24
3369.76
3316.48
3231.01
2802.05
2782.71
2797.72
2811.51
2818.44
2821.54
2821.7
2818.55
2811.05
2802.01
2793.41
2786.68
2783.05
2782.01
2782.43
2785.05
2790.56
2798.66
2808.03
2816.83
2824.08
2829.53
2833.11
2835.28
2836.68
2837.98
2839.77
2842.46
2845.91
2849.62
2853.2
2856.61
2860.04
2863.7
2867.75
2872.18
2876.94
2881.97
2887.21
2892.62
2898.18
2903.86
2909.67
2915.6
2921.67
2927.9
2934.3
2940.88
2947.67
2954.65
2961.85
2969.27
2976.92
2984.78
2992.87
3001.18
3009.71
3018.45
3027.41
3036.59
3045.98
3055.59
3065.41
3075.43
3085.66
3096.08
3106.7
3117.51
3128.51
3139.69
3151.05
3162.57
3174.25
3186.08
3198.06
3210.19
3222.46
3234.85
3247.35
3259.96
3272.68
3285.47
3298.35
3311.28
3324.27
3337.3
3350.36
3363.42
3376.48
3389.5
3402.47
3415.38
3428.22
3440.94
3453.52
3465.94
3478.17
3490.16
3501.88
3513.28
3524.3
3534.89
3544.98
3554.51
3563.39
3571.55
3578.87
3585.17
3590.41
3594.28
3596.66
3597.43
3595.85
3591.89
3585.5
3575.12
3560.82
3538.21
3510.82
3468.3
3226.55
2796.2
2774.74
2789.12
2806.11
2817.01
2821.75
2822.69
2821.17
2815.17
2806.15
2796.98
2789.42
2784.71
2783.07
2783.34
2785.41
2790.73
2798.76
2808.13
2817.07
2824.63
2830.48
2834.56
2837.18
2838.91
2840.38
2842.2
2844.84
2848.3
2852.13
2855.9
2859.52
2863.13
2866.96
2871.14
2875.71
2880.6
2885.77
2891.16
2896.73
2902.46
2908.31
2914.3
2920.4
2926.64
2933.04
2939.6
2946.35
2953.29
2960.43
2967.78
2975.35
2983.14
2991.16
2999.4
3007.86
3016.53
3025.43
3034.55
3043.89
3053.45
3063.22
3073.22
3083.42
3093.83
3104.45
3115.27
3126.28
3137.49
3148.9
3160.49
3172.26
3184.19
3196.29
3208.55
3220.97
3233.55
3246.26
3259.11
3272.08
3285.17
3298.37
3311.67
3325.06
3338.53
3352.06
3365.66
3379.31
3392.98
3406.67
3420.35
3434.03
3447.68
3461.29
3474.84
3488.3
3501.65
3514.87
3527.94
3540.8
3553.43
3565.8
3577.86
3589.57
3600.85
3611.67
3621.91
3631.5
3640.32
3648.27
3655.12
3660.9
3665.18
3667.95
3669
3667.58
3663.03
3652.51
3639.07
3613.84
3222.58
2793.27
2767.35
2780.27
2799.45
2814.77
2821.26
2823.37
2822.7
2818.11
2809.35
2800.16
2792.35
2787.01
2784.93
2784.96
2786.64
2791.63
2799.5
2808.65
2817.48
2825.1
2831.19
2835.64
2838.68
2840.77
2842.49
2844.44
2847.11
2850.6
2854.54
2858.48
2862.28
2866.07
2870.05
2874.38
2879.07
2884.1
2889.39
2894.92
2900.63
2906.5
2912.51
2918.65
2924.91
2931.31
2937.86
2944.58
2951.47
2958.56
2965.85
2973.35
2981.06
2988.99
2997.15
3005.53
3014.13
3022.95
3031.99
3041.25
3050.74
3060.45
3070.38
3080.53
3090.9
3101.48
3112.27
3123.26
3134.46
3145.87
3157.47
3169.27
3181.26
3193.42
3205.75
3218.26
3230.93
3243.78
3256.78
3269.92
3283.2
3296.61
3310.16
3323.82
3337.58
3351.45
3365.41
3379.46
3393.58
3407.76
3421.99
3436.25
3450.54
3464.85
3479.16
3493.46
3507.72
3521.95
3536.1
3550.18
3564.14
3577.98
3591.65
3605.14
3618.4
3631.41
3644.1
3656.42
3668.36
3679.82
3690.76
3701.04
3710.59
3719.24
3726.86
3733.25
3738.4
3741.57
3742.57
3739.53
3733.5
3217.7
2791.58
2761.59
2771.63
2791.82
2811.6
2820.42
2823.88
2823.74
2819.97
2811.7
2802.82
2795.23
2789.82
2787.53
2787.34
2788.73
2793.12
2800.66
2809.46
2818.01
2825.55
2831.76
2836.48
2839.87
2842.31
2844.33
2846.47
2849.25
2852.81
2856.86
2860.95
2864.93
2868.88
2873.02
2877.48
2882.3
2887.44
2892.86
2898.5
2904.33
2910.34
2916.48
2922.75
2929.15
2935.69
2942.38
2949.23
2956.27
2963.49
2970.91
2978.54
2986.38
2994.45
3002.73
3011.24
3019.97
3028.92
3038.09
3047.49
3057.11
3066.96
3077.04
3087.33
3097.85
3108.59
3119.54
3130.7
3142.07
3153.65
3165.44
3177.43
3189.61
3201.97
3214.51
3227.24
3240.15
3253.23
3266.48
3279.88
3293.43
3307.13
3320.97
3334.94
3349.03
3363.24
3377.55
3391.97
3406.48
3421.07
3435.73
3450.44
3465.2
3480.02
3494.86
3509.73
3524.59
3539.45
3554.29
3569.09
3583.82
3598.49
3613.04
3627.49
3641.77
3655.91
3669.82
3683.48
3696.85
3709.88
3722.52
3734.67
3746.3
3757.28
3767.45
3776.72
3784.98
3791.84
3797.52
3800.27
3803.86
3211.05
2786.71
2756.72
2763.98
2784.54
2807.93
2820.17
2824.22
2824.28
2820.92
2813.31
2805.01
2798
2792.98
2790.7
2790.33
2791.39
2795.04
2802.03
2810.37
2818.56
2825.95
2832.2
2837.12
2840.81
2843.59
2845.91
2848.31
2851.25
2854.93
2859.09
2863.32
2867.45
2871.56
2875.84
2880.43
2885.37
2890.62
2896.14
2901.9
2907.84
2913.96
2920.22
2926.61
2933.14
2939.81
2946.62
2953.6
2960.76
2968.11
2975.66
2983.41
2991.37
2999.55
3007.96
3016.58
3025.43
3034.5
3043.79
3053.31
3063.06
3073.03