/*--------------------------------*- C++ -*----------------------------------*\
| =========                 |                                                 |
| \\      /  F ield         | OpenFOAM: The Open Source CFD Toolbox           |
|  \\    /   O peration     | Version:  2412                                  |
|   \\  /    A nd           | Website:  www.openfoam.com                      |
|    \\/     M anipulation  |                                                 |
\*---------------------------------------------------------------------------*/
FoamFile
{
    version     2.0;
    format      ascii;
    arch        "LSB;label=32;scalar=64";
    class       volScalarField;
    location    "0.059";
    object      T;
}
// * * * * * * * * * * * * * * * * * * * * * * * * * * * * * * * * * * * * * //

dimensions      [0 0 0 1 0 0 0];

internalField   nonuniform List<scalar> 
78650
(
223.165
223.337
223.454
223.478
223.403
223.138
222.792
222.519
222.341
222.239
222.216
222.273
222.451
222.722
222.995
223.216
223.378
223.494
223.579
223.639
223.673
223.68
223.66
223.606
223.518
223.405
223.28
223.143
223
222.857
222.718
222.584
222.458
222.338
222.226
222.118
222.012
221.909
221.812
221.719
221.631
221.546
221.466
221.389
221.316
221.247
221.183
221.122
221.065
221.011
220.961
220.915
220.872
220.833
220.797
220.763
220.731
220.7
220.67
220.641
220.61
220.578
220.544
220.508
220.468
220.423
220.374
220.317
220.254
220.182
220.099
220.003
219.893
219.766
219.622
219.459
219.273
219.063
218.826
218.557
218.252
217.91
217.524
217.094
216.613
216.079
215.486
214.827
214.091
213.276
212.377
211.408
210.344
209.191
207.909
206.531
205.052
203.433
201.667
199.802
197.878
195.947
193.978
191.981
189.894
187.761
185.649
183.493
181.373
179.352
177.354
175.516
173.768
172.073
170.495
169.043
167.94
167.132
166.614
166.406
164.863
223.126
223.303
223.448
223.498
223.449
223.228
222.879
222.568
222.358
222.234
222.183
222.19
222.266
222.442
222.666
222.88
223.062
223.206
223.324
223.417
223.484
223.516
223.518
223.492
223.427
223.33
223.221
223.099
222.969
222.835
222.703
222.576
222.454
222.337
222.229
222.127
222.029
221.933
221.842
221.755
221.674
221.596
221.522
221.452
221.385
221.324
221.266
221.212
221.162
221.115
221.072
221.033
220.997
220.965
220.937
220.911
220.887
220.865
220.844
220.824
220.803
220.782
220.759
220.734
220.707
220.676
220.641
220.6
220.553
220.498
220.434
220.359
220.272
220.169
220.051
219.916
219.761
219.585
219.384
219.154
218.894
218.598
218.264
217.889
217.468
216.996
216.468
215.88
215.221
214.491
213.684
212.804
211.827
210.767
209.597
208.355
207.004
205.549
203.97
202.23
200.343
198.406
196.356
194.294
192.209
190.066
187.971
185.838
183.677
181.64
179.595
177.629
175.737
173.895
172.229
170.708
169.441
168.42
167.72
167.312
165.561
223.091
223.264
223.435
223.509
223.481
223.318
222.992
222.662
222.41
222.251
222.179
222.168
222.197
222.294
222.442
222.602
222.76
222.906
223.038
223.156
223.251
223.315
223.341
223.338
223.301
223.227
223.136
223.032
222.917
222.796
222.675
222.556
222.441
222.331
222.226
222.129
222.038
221.95
221.866
221.786
221.711
221.641
221.574
221.511
221.452
221.397
221.347
221.3
221.257
221.217
221.182
221.15
221.122
221.097
221.076
221.059
221.043
221.03
221.019
221.008
220.997
220.987
220.975
220.962
220.947
220.929
220.908
220.882
220.85
220.813
220.768
220.713
220.647
220.567
220.474
220.366
220.24
220.095
219.927
219.735
219.514
219.262
218.974
218.649
218.281
217.868
217.403
216.884
216.301
215.656
214.94
214.151
213.268
212.297
211.222
210.069
208.801
207.444
205.984
204.419
202.731
200.924
198.989
196.921
194.841
192.632
190.377
188.156
185.871
183.679
181.543
179.388
177.348
175.389
173.566
171.908
170.517
169.377
168.626
168.228
166.454
223.062
223.22
223.413
223.512
223.504
223.396
223.11
222.783
222.505
222.305
222.195
222.166
222.182
222.239
222.334
222.435
222.536
222.644
222.76
222.88
222.991
223.081
223.134
223.153
223.141
223.095
223.024
222.938
222.841
222.737
222.629
222.521
222.417
222.315
222.218
222.125
222.039
221.96
221.884
221.812
221.744
221.681
221.622
221.567
221.515
221.468
221.425
221.385
221.35
221.318
221.29
221.265
221.245
221.228
221.215
221.205
221.198
221.194
221.191
221.19
221.189
221.189
221.188
221.186
221.183
221.178
221.17
221.159
221.143
221.121
221.094
221.058
221.013
220.956
220.886
220.804
220.705
220.59
220.456
220.299
220.117
219.907
219.666
219.39
219.077
218.721
218.32
217.868
217.359
216.792
216.153
215.437
214.632
213.749
212.776
211.723
210.553
209.291
207.908
206.425
204.844
203.121
201.343
199.417
197.458
195.396
193.183
190.97
188.686
186.363
184.127
181.815
179.569
177.412
175.328
173.404
171.729
170.368
169.441
168.88
166.683
223.039
223.175
223.379
223.509
223.521
223.46
223.219
222.906
222.626
222.4
222.247
222.183
222.183
222.221
222.296
222.37
222.427
222.483
222.55
222.634
222.732
222.829
222.901
222.94
222.948
222.928
222.882
222.818
222.74
222.654
222.562
222.469
222.376
222.285
222.198
222.114
222.035
221.961
221.894
221.831
221.771
221.716
221.665
221.618
221.575
221.536
221.501
221.469
221.442
221.418
221.397
221.38
221.368
221.359
221.354
221.353
221.354
221.359
221.365
221.373
221.382
221.392
221.402
221.412
221.42
221.428
221.433
221.435
221.434
221.429
221.418
221.401
221.375
221.34
221.293
221.235
221.163
221.076
220.972
220.848
220.703
220.532
220.333
220.102
219.838
219.535
219.191
218.802
218.361
217.864
217.303
216.674
215.97
215.196
214.335
213.387
212.325
211.173
209.905
208.534
207.029
205.392
203.617
201.734
199.755
197.763
195.637
193.454
191.27
188.963
186.7
184.428
182.159
179.999
177.816
175.758
173.925
172.364
171.215
170.422
167.874
223.022
223.13
223.334
223.498
223.537
223.506
223.315
223.025
222.754
222.521
222.335
222.226
222.198
222.219
222.283
222.356
222.407
222.443
222.472
222.507
222.559
222.622
222.684
222.725
222.74
222.735
222.712
222.67
222.615
222.549
222.475
222.397
222.319
222.241
222.166
222.092
222.023
221.957
221.897
221.843
221.793
221.746
221.704
221.666
221.631
221.6
221.573
221.55
221.531
221.515
221.503
221.494
221.49
221.489
221.493
221.5
221.51
221.523
221.538
221.556
221.574
221.594
221.615
221.636
221.656
221.675
221.694
221.709
221.723
221.732
221.738
221.738
221.732
221.717
221.692
221.657
221.61
221.55
221.476
221.384
221.273
221.141
220.983
220.798
220.581
220.332
220.044
219.716
219.341
218.916
218.431
217.883
217.267
216.585
215.819
214.97
214.022
212.991
211.852
210.616
209.249
207.76
206.139
204.388
202.477
200.437
198.299
196.026
193.776
191.384
188.962
186.612
184.194
181.885
179.59
177.428
175.544
173.951
172.778
171.987
169.516
223.012
223.09
223.281
223.476
223.546
223.539
223.403
223.141
222.874
222.643
222.445
222.299
222.236
222.236
222.281
222.355
222.41
222.441
222.462
222.484
222.508
222.532
222.555
222.567
222.562
222.548
222.527
222.498
222.461
222.414
222.36
222.302
222.241
222.179
222.117
222.057
221.999
221.944
221.893
221.847
221.807
221.77
221.737
221.708
221.682
221.66
221.642
221.628
221.618
221.611
221.608
221.607
221.612
221.619
221.631
221.647
221.665
221.687
221.712
221.739
221.768
221.798
221.829
221.86
221.892
221.923
221.954
221.983
222.01
222.035
222.056
222.073
222.085
222.089
222.086
222.073
222.051
222.016
221.969
221.907
221.828
221.731
221.611
221.467
221.295
221.093
220.857
220.585
220.271
219.911
219.499
219.033
218.506
217.914
217.241
216.487
215.641
214.711
213.672
212.531
211.267
209.903
208.42
206.815
205.104
203.225
201.279
199.147
196.915
194.595
192.137
189.73
187.157
184.595
182.035
179.557
177.329
175.389
173.893
172.858
169.619
223.005
223.057
223.223
223.44
223.547
223.566
223.483
223.251
222.985
222.756
222.559
222.397
222.299
222.275
222.297
222.363
222.423
222.455
222.473
222.488
222.504
222.517
222.524
222.513
222.484
222.442
222.397
222.354
222.312
222.271
222.23
222.187
222.142
222.095
222.049
222.003
221.96
221.918
221.879
221.842
221.811
221.785
221.762
221.743
221.727
221.715
221.707
221.703
221.702
221.704
221.71
221.719
221.731
221.748
221.768
221.792
221.82
221.851
221.885
221.921
221.96
222
222.041
222.083
222.126
222.169
222.212
222.254
222.295
222.333
222.37
222.403
222.432
222.455
222.471
222.479
222.48
222.47
222.45
222.417
222.369
222.305
222.222
222.118
221.989
221.834
221.649
221.431
221.176
220.881
220.54
220.148
219.698
219.183
218.595
217.936
217.195
216.372
215.445
214.42
213.278
212.031
210.65
209.142
207.491
205.709
203.794
201.773
199.591
197.43
195.095
192.71
190.251
187.714
185.224
182.744
180.425
178.353
176.628
175.34
171.763
223.002
223.032
223.164
223.39
223.539
223.592
223.546
223.352
223.09
222.864
222.673
222.506
222.383
222.334
222.337
222.384
222.449
222.487
222.503
222.512
222.519
222.524
222.524
222.507
222.47
222.417
222.356
222.291
222.229
222.173
222.123
222.079
222.039
222.001
221.966
221.933
221.902
221.875
221.849
221.827
221.806
221.792
221.781
221.773
221.768
221.766
221.768
221.773
221.782
221.794
221.809
221.827
221.849
221.875
221.904
221.937
221.974
222.014
222.057
222.103
222.151
222.201
222.253
222.306
222.36
222.414
222.469
222.523
222.577
222.63
222.681
222.73
222.775
222.816
222.851
222.88
222.901
222.915
222.919
222.913
222.895
222.862
222.812
222.744
222.655
222.542
222.404
222.236
222.036
221.799
221.522
221.2
220.826
220.397
219.903
219.347
218.714
218.003
217.196
216.299
215.299
214.194
212.955
211.588
210.078
208.435
206.646
204.707
202.559
200.269
197.902
195.335
192.839
190.167
187.556
184.949
182.478
180.287
178.492
177.233
173.757
223.001
223.016
223.111
223.328
223.523
223.607
223.586
223.446
223.2
222.973
222.786
222.621
222.482
222.407
222.394
222.421
222.484
222.534
222.553
222.558
222.558
222.553
222.542
222.519
222.478
222.42
222.352
222.28
222.208
222.141
222.079
222.025
221.979
221.939
221.905
221.876
221.853
221.834
221.82
221.808
221.8
221.798
221.799
221.801
221.806
221.814
221.825
221.841
221.859
221.881
221.906
221.933
221.964
221.999
222.037
222.079
222.125
222.175
222.227
222.282
222.34
222.4
222.462
222.525
222.589
222.655
222.722
222.788
222.855
222.921
222.986
223.049
223.111
223.168
223.222
223.27
223.312
223.348
223.375
223.394
223.402
223.4
223.384
223.352
223.3
223.229
223.135
223.015
222.867
222.687
222.472
222.216
221.913
221.562
221.153
220.686
220.148
219.536
218.838
218.057
217.176
216.189
215.074
213.841
212.478
211.002
209.381
207.601
205.695
203.571
201.414
198.973
196.483
193.784
190.989
188.161
185.359
182.816
180.578
178.9
174.493
223
223.007
223.067
223.257
223.488
223.61
223.612
223.53
223.311
223.084
222.898
222.737
222.591
222.492
222.462
222.473
222.525
222.584
222.613
222.619
222.617
222.606
222.586
222.553
222.503
222.437
222.363
222.286
222.21
222.137
222.07
222.011
221.961
221.918
221.881
221.852
221.829
221.814
221.805
221.801
221.8
221.806
221.816
221.827
221.841
221.859
221.88
221.905
221.933
221.964
221.999
222.036
222.076
222.12
222.168
222.219
222.274
222.333
222.394
222.459
222.526
222.596
222.668
222.742
222.817
222.894
222.971
223.05
223.129
223.208
223.286
223.364
223.44
223.514
223.585
223.651
223.713
223.769
223.819
223.862
223.895
223.919
223.932
223.933
223.917
223.884
223.83
223.754
223.654
223.526
223.367
223.174
222.94
222.663
222.335
221.953
221.506
220.991
220.398
219.725
218.956
218.085
217.096
215.996
214.772
213.419
211.9
210.228
208.401
206.433
204.287
202.012
199.559
197.063
194.378
191.702
188.935
186.411
184.169
182.38
177.888
223
223.003
223.036
223.186
223.432
223.602
223.635
223.598
223.417
223.193
223.01
222.856
222.709
222.59
222.535
222.532
222.566
222.63
222.674
222.687
222.687
222.675
222.65
222.609
222.55
222.477
222.394
222.31
222.227
222.148
222.076
222.014
221.961
221.916
221.878
221.848
221.826
221.811
221.804
221.802
221.805
221.817
221.834
221.853
221.877
221.903
221.933
221.967
222.004
222.045
222.089
222.136
222.185
222.238
222.295
222.356
222.42
222.487
222.558
222.632
222.709
222.788
222.87
222.954
223.039
223.127
223.215
223.305
223.396
223.487
223.578
223.67
223.76
223.85
223.937
224.021
224.101
224.176
224.247
224.312
224.37
224.421
224.461
224.49
224.508
224.512
224.497
224.465
224.41
224.331
224.225
224.089
223.918
223.709
223.454
223.151
222.791
222.372
221.884
221.324
220.676
219.937
219.099
218.158
217.093
215.888
214.529
213.036
211.381
209.547
207.53
205.347
202.873
200.253
197.39
194.531
191.58
188.85
186.464
184.616
179.844
223
223.001
223.017
223.122
223.361
223.579
223.652
223.642
223.513
223.304
223.122
222.972
222.829
222.696
222.614
222.594
222.611
222.67
222.729
222.754
222.758
222.75
222.726
222.681
222.617
222.537
222.448
222.357
222.266
222.18
222.101
222.031
221.973
221.925
221.886
221.855
221.831
221.817
221.811
221.81
221.816
221.833
221.856
221.883
221.914
221.948
221.987
222.029
222.075
222.124
222.177
222.232
222.291
222.353
222.419
222.488
222.562
222.638
222.718
222.801
222.888
222.977
223.068
223.162
223.257
223.355
223.454
223.555
223.657
223.761
223.864
223.969
224.073
224.177
224.279
224.379
224.477
224.571
224.661
224.747
224.828
224.902
224.968
225.026
225.073
225.107
225.128
225.134
225.121
225.088
225.032
224.949
224.837
224.692
224.507
224.281
224.005
223.677
223.287
222.831
222.295
221.68
220.972
220.163
219.227
218.164
216.969
215.645
214.152
212.502
210.678
208.673
206.5
204.081
201.503
198.76
195.817
192.848
190.038
187.703
182.192
223
223
223.007
223.073
223.281
223.537
223.655
223.672
223.598
223.413
223.23
223.081
222.944
222.807
222.702
222.662
222.664
222.707
222.776
222.818
222.829
222.826
222.805
222.762
222.695
222.611
222.518
222.422
222.327
222.235
222.149
222.073
222.008
221.955
221.912
221.879
221.853
221.838
221.832
221.832
221.84
221.86
221.887
221.919
221.956
221.997
222.042
222.091
222.145
222.202
222.263
222.327
222.394
222.465
222.539
222.617
222.699
222.785
222.874
222.966
223.061
223.159
223.26
223.363
223.469
223.576
223.686
223.797
223.91
224.025
224.14
224.257
224.374
224.491
224.608
224.724
224.837
224.949
225.058
225.163
225.265
225.361
225.452
225.535
225.611
225.677
225.73
225.771
225.796
225.806
225.796
225.763
225.706
225.618
225.498
225.341
225.141
224.896
224.595
224.236
223.805
223.302
222.711
222.022
221.217
220.302
219.265
218.09
216.741
215.238
213.551
211.68
209.596
207.301
204.83
202.017
199.206
196.349
193.708
191.545
186.497
223
223
223.003
223.039
223.204
223.476
223.643
223.701
223.664
223.511
223.327
223.181
223.055
222.921
222.802
222.739
222.727
222.75
222.819
222.878
222.9
222.9
222.885
222.844
222.778
222.693
222.598
222.5
222.402
222.306
222.216
222.134
222.064
222.005
221.959
221.922
221.895
221.877
221.87
221.869
221.877
221.898
221.927
221.962
222.004
222.05
222.101
222.156
222.216
222.28
222.349
222.42
222.495
222.574
222.656
222.743
222.833
222.927
223.024
223.125
223.229
223.336
223.446
223.559
223.674
223.791
223.91
224.032
224.156
224.281
224.408
224.536
224.665
224.795
224.926
225.056
225.185
225.313
225.438
225.562
225.683
225.8
225.913
226.02
226.121
226.214
226.298
226.372
226.432
226.478
226.508
226.521
226.515
226.482
226.422
226.329
226.201
226.032
225.815
225.547
225.217
224.824
224.35
223.792
223.137
222.384
221.511
220.503
219.342
218.031
216.531
214.859
212.987
210.899
208.555
205.943
203.115
200.042
196.965
194.314
188.504
223
223
223.001
223.018
223.136
223.401
223.624
223.72
223.706
223.596
223.421
223.278
223.161
223.037
222.911
222.826
222.799
222.807
222.863
222.935
222.971
222.976
222.964
222.926
222.862
222.778
222.683
222.583
222.484
222.387
222.295
222.21
222.135
222.072
222.022
221.983
221.953
221.933
221.924
221.923
221.929
221.949
221.979
222.016
222.06
222.11
222.165
222.225
222.29
222.36
222.435
222.513
222.595
222.681
222.771
222.865
222.963
223.065
223.17
223.279
223.392
223.507
223.626
223.747
223.871
223.998
224.126
224.258
224.391
224.527
224.664
224.803
224.944
225.086
225.229
225.373
225.516
225.658
225.8
225.94
226.079
226.215
226.348
226.478
226.602
226.721
226.833
226.936
227.03
227.112
227.181
227.234
227.269
227.286
227.283
227.249
227.187
227.087
226.948
226.765
226.529
226.237
225.874
225.44
224.92
224.305
223.572
222.714
221.719
220.578
219.26
217.776
216.088
214.194
212.06
209.682
207.073
204.459
201.52
199.048
193.557
223
223
223
223.008
223.083
223.32
223.591
223.727
223.732
223.668
223.511
223.37
223.26
223.147
223.022
222.922
222.879
222.877
222.914
222.991
223.041
223.053
223.042
223.005
222.943
222.861
222.767
222.667
222.567
222.47
222.378
222.292
222.215
222.149
222.096
222.054
222.023
222.001
221.991
221.988
221.994
222.013
222.041
222.078
222.124
222.176
222.235
222.298
222.368
222.443
222.522
222.607
222.695
222.787
222.884
222.984
223.089
223.199
223.312
223.428
223.549
223.672
223.799
223.929
224.062
224.197
224.335
224.475
224.618
224.763
224.911
225.06
225.212
225.365
225.52
225.676
225.832
225.988
226.144
226.3
226.455
226.609
226.761
226.91
227.056
227.198
227.335
227.465
227.588
227.701
227.804
227.895
227.973
228.032
228.074
228.095
228.095
228.059
227.993
227.887
227.736
227.536
227.276
226.952
226.55
226.059
225.463
224.757
223.927
222.958
221.826
220.525
219.01
217.287
215.326
213.133
210.663
207.997
205.01
202.355
197.006
223
223
223
223.003
223.048
223.243
223.54
223.722
223.755
223.726
223.594
223.454
223.349
223.249
223.133
223.026
222.968
222.956
222.977
223.047
223.11
223.128
223.117
223.079
223.017
222.937
222.845
222.747
222.648
222.552
222.461
222.375
222.297
222.23
222.176
222.132
222.1
222.077
222.066
222.062
222.067
222.086
222.113
222.15
222.196
222.25
222.31
222.377
222.45
222.528
222.612
222.701
222.795
222.892
222.995
223.101
223.213
223.329
223.449
223.573
223.7
223.832
223.966
224.104
224.244
224.388
224.534
224.683
224.835
224.989
225.146
225.305
225.466
225.63
225.795
225.963
226.131
226.3
226.47
226.64
226.81
226.979
227.148
227.316
227.481
227.644
227.804
227.958
228.108
228.25
228.384
228.509
228.623
228.724
228.81
228.878
228.925
228.95
228.951
228.915
228.844
228.727
228.561
228.341
228.052
227.689
227.237
226.691
226.031
225.242
224.303
223.198
221.899
220.412
218.693
216.732
214.488
212
209.342
206.64
201.476
223
223
223
223.001
223.026
223.177
223.477
223.707
223.778
223.766
223.662
223.531
223.432
223.345
223.239
223.132
223.062
223.039
223.048
223.105
223.172
223.196
223.185
223.146
223.082
223.004
222.914
222.818
222.721
222.628
222.539
222.455
222.378
222.311
222.256
222.212
222.18
222.157
222.145
222.142
222.147
222.165
222.192
222.229
222.275
222.33
222.391
222.46
222.535
222.617
222.704
222.797
222.895
222.997
223.104
223.217
223.334
223.456
223.582
223.712
223.847
223.985
224.127
224.272
224.42
224.571
224.725
224.882
225.042
225.205
225.37
225.538
225.709
225.882
226.058
226.236
226.415
226.596
226.778
226.96
227.144
227.328
227.513
227.697
227.88
228.061
228.241
228.417
228.59
228.758
228.92
229.075
229.222
229.358
229.483
229.595
229.691
229.766
229.819
229.847
229.85
229.811
229.734
229.607
229.424
229.177
228.855
228.445
227.93
227.296
226.522
225.596
224.492
223.201
221.678
219.922
217.878
215.631
213.101
210.564
206.026
223
223
223
223
223.013
223.125
223.412
223.685
223.791
223.792
223.72
223.602
223.511
223.433
223.339
223.234
223.155
223.123
223.124
223.164
223.229
223.257
223.246
223.204
223.138
223.059
222.971
222.877
222.783
222.693
222.608
222.527
222.453
222.388
222.334
222.291
222.259
222.237
222.226
222.223
222.23
222.248
222.275
222.312
222.359
222.414
222.477
222.547
222.624
222.708
222.798
222.894
222.995
223.102
223.214
223.331
223.453
223.58
223.712
223.848
223.989
224.133
224.281
224.433
224.588
224.746
224.908
225.072
225.239
225.41
225.583
225.76
225.939
226.121
226.306
226.493
226.683
226.874
227.067
227.261
227.457
227.654
227.853
228.051
228.25
228.448
228.646
228.842
229.036
229.227
229.413
229.595
229.771
229.94
230.099
230.249
230.386
230.509
230.614
230.697
230.757
230.789
230.792
230.75
230.663
230.52
230.311
230.027
229.652
229.175
228.577
227.844
226.947
225.865
224.56
223.017
221.199
219.146
216.743
214.243
210.073
223
223
223
223
223.007
223.087
223.352
223.659
223.795
223.814
223.769
223.667
223.582
223.513
223.428
223.328
223.246
223.206
223.2
223.226
223.282
223.312
223.3
223.253
223.182
223.103
223.016
222.924
222.833
222.747
222.666
222.59
222.519
222.457
222.406
222.365
222.334
222.315
222.304
222.303
222.312
222.332
222.36
222.398
222.445
222.501
222.565
222.636
222.715
222.801
222.893
222.992
223.097
223.207
223.322
223.443
223.569
223.701
223.838
223.98
224.126
224.276
224.43
224.588
224.75
224.914
225.082
225.253
225.428
225.605
225.786
225.97
226.157
226.347
226.54
226.736
226.935
227.136
227.339
227.544
227.751
227.96
228.17
228.382
228.595
228.808
229.022
229.235
229.448
229.659
229.867
230.072
230.274
230.47
230.66
230.843
231.017
231.18
231.329
231.463
231.579
231.67
231.736
231.77
231.774
231.725
231.626
231.462
231.225
230.901
230.474
229.922
229.218
228.343
227.266
225.967
224.42
222.598
220.494
218.112
214.438
223
223
223
223
223.004
223.061
223.3
223.631
223.795
223.837
223.81
223.725
223.646
223.584
223.507
223.414
223.333
223.289
223.278
223.292
223.334
223.361
223.346
223.292
223.217
223.135
223.049
222.959
222.871
222.789
222.713
222.641
222.576
222.518
222.47
222.432
222.405
222.388
222.379
222.38
222.393
222.415
222.444
222.484
222.532
222.589
222.654
222.727
222.807
222.895
222.989
223.091
223.198
223.311
223.43
223.554
223.685
223.82
223.962
224.108
224.259
224.414
224.574
224.738
224.905
225.075
225.249
225.427
225.607
225.792
225.979
226.17
226.364
226.561
226.762
226.966
227.173
227.382
227.594
227.809
228.025
228.245
228.466
228.69
228.915
229.141
229.369
229.597
229.826
230.054
230.282
230.508
230.731
230.952
231.169
231.381
231.586
231.784
231.973
232.15
232.313
232.459
232.585
232.684
232.757
232.794
232.797
232.739
232.625
232.43
232.148
231.753
231.227
230.549
229.681
228.598
227.255
225.612
223.704
221.4
218.13
223
223
223
223
223.002
223.045
223.26
223.602
223.796
223.858
223.844
223.774
223.702
223.647
223.579
223.494
223.418
223.372
223.355
223.359
223.383
223.401
223.381
223.321
223.241
223.157
223.071
222.983
222.899
222.821
222.749
222.683
222.622
222.569
222.526
222.493
222.469
222.454
222.449
222.453
222.469
222.494
222.527
222.568
222.619
222.677
222.744
222.818
222.9
222.989
223.086
223.189
223.299
223.415
223.536
223.664
223.798
223.937
224.083
224.233
224.388
224.548
224.713
224.881
225.054
225.23
225.409
225.592
225.779
225.969
226.162
226.359
226.56
226.764
226.971
227.182
227.396
227.613
227.833
228.056
228.282
228.51
228.741
228.975
229.211
229.449
229.689
229.931
230.174
230.417
230.661
230.905
231.148
231.39
231.629
231.866
232.099
232.327
232.549
232.763
232.967
233.159
233.336
233.495
233.633
233.741
233.819
233.858
233.857
233.781
233.644
233.41
233.074
232.604
231.965
231.131
230.04
228.667
227.009
224.909
221.937
223
223
223
223
223.002
223.036
223.232
223.579
223.803
223.877
223.871
223.814
223.752
223.704
223.645
223.569
223.5
223.452
223.428
223.421
223.425
223.432
223.406
223.34
223.256
223.17
223.084
222.998
222.917
222.844
222.777
222.716
222.66
222.613
222.574
222.545
222.526
222.515
222.513
222.521
222.541
222.569
222.605
222.65
222.703
222.764
222.832
222.908
222.992
223.083
223.182
223.287
223.399
223.518
223.642
223.772
223.909
224.052
224.201
224.355
224.514
224.679
224.847
225.02
225.197
225.378
225.563
225.751
225.943
226.138
226.337
226.54
226.746
226.956
227.169
227.386
227.607
227.831
228.058
228.288
228.521
228.758
228.998
229.241
229.486
229.734
229.985
230.238
230.493
230.75
231.008
231.267
231.527
231.786
232.045
232.303
232.56
232.813
233.063
233.309
233.548
233.779
233.999
234.208
234.401
234.574
234.726
234.843
234.928
234.968
234.963
234.871
234.704
234.418
233.998
233.404
232.564
231.44
229.97
228.052
225.314
223
223
223
223
223.001
223.031
223.215
223.565
223.812
223.893
223.892
223.849
223.797
223.758
223.707
223.64
223.576
223.527
223.493
223.472
223.46
223.451
223.417
223.347
223.26
223.172
223.088
223.006
222.93
222.861
222.798
222.742
222.692
222.649
222.616
222.592
222.577
222.57
222.571
222.585
222.608
222.64
222.68
222.728
222.784
222.848
222.919
222.997
223.082
223.176
223.276
223.384
223.498
223.619
223.746
223.879
224.019
224.165
224.317
224.474
224.637
224.805
224.978
225.155
225.336
225.521
225.71
225.902
226.099
226.299
226.503
226.711
226.922
227.137
227.356
227.579
227.805
228.035
228.269
228.505
228.745
228.989
229.236
229.487
229.741
229.998
230.258
230.521
230.786
231.055
231.325
231.597
231.871
232.146
232.421
232.697
232.974
233.249
233.523
233.795
234.063
234.327
234.584
234.834
235.073
235.3
235.51
235.701
235.866
235.993
236.085
236.123
236.103
235.974
235.75
235.378
234.811
234.003
232.798
231.147
228.629
223
223
223
223
223.001
223.03
223.212
223.562
223.823
223.908
223.912
223.88
223.839
223.808
223.766
223.705
223.644
223.592
223.547
223.51
223.482
223.458
223.417
223.344
223.254
223.167
223.085
223.008
222.937
222.872
222.815
222.763
222.718
222.68
222.652
222.633
222.622
222.62
222.625
222.643
222.67
222.706
222.751
222.803
222.863
222.929
223.003
223.083
223.171
223.266
223.369
223.479
223.596
223.719
223.848
223.984
224.126
224.275
224.43
224.591
224.757
224.928
225.104
225.285
225.47
225.659
225.852
226.049
226.249
226.454
226.662
226.874
227.09
227.31
227.534
227.762
227.993
228.229
228.468
228.71
228.956
229.206
229.46
229.718
229.979
230.244
230.512
230.783
231.058
231.336
231.617
231.9
232.186
232.474
232.764
233.056
233.348
233.642
233.936
234.23
234.523
234.814
235.102
235.386
235.664
235.935
236.194
236.442
236.672
236.881
237.062
237.203
237.302
237.34
237.307
237.157
236.873
236.379
235.48
234.206
231.875
223
223
223
223
223.001
223.031
223.216
223.572
223.838
223.924
223.932
223.909
223.878
223.856
223.821
223.765
223.704
223.644
223.585
223.531
223.49
223.454
223.405
223.325
223.235
223.152
223.076
223.004
222.938
222.88
222.828
222.781
222.74
222.708
222.684
222.67
222.664
222.665
222.676
222.697
222.728
222.769
222.818
222.874
222.937
223.007
223.084
223.167
223.257
223.355
223.46
223.572
223.691
223.816
223.948
224.086
224.231
224.383
224.541
224.704
224.873
225.048
225.227
225.411
225.6
225.792
225.989
226.189
226.394
226.602
226.815
227.031
227.251
227.475
227.703
227.935
228.172
228.412
228.656
228.904
229.155
229.411
229.67
229.934
230.202
230.473
230.749
231.028
231.311
231.597
231.887
232.18
232.476
232.776
233.078
233.382
233.689
233.998
234.309
234.622
234.935
235.249
235.562
235.875
236.184
236.491
236.792
237.087
237.371
237.644
237.898
238.132
238.334
238.489
238.588
238.613
238.552
238.326
237.8
237.054
235.259
223
223
223
223
223.002
223.035
223.233
223.593
223.857
223.94
223.951
223.938
223.917
223.903
223.873
223.816
223.75
223.679
223.605
223.538
223.485
223.435
223.374
223.294
223.208
223.13
223.06
222.994
222.935
222.882
222.837
222.795
222.76
222.732
222.714
222.704
222.702
222.708
222.724
222.748
222.783
222.828
222.881
222.942
223.009
223.082
223.162
223.248
223.341
223.441
223.548
223.663
223.784
223.911
224.046
224.186
224.334
224.488
224.649
224.815
224.987
225.165
225.347
225.534
225.726
225.921
226.121
226.325
226.533
226.745
226.961
227.181
227.405
227.633
227.865
228.101
228.342
228.587
228.835
229.087
229.344
229.605
229.87
230.139
230.412
230.69
230.972
231.257
231.547
231.841
232.139
232.441
232.746
233.055
233.368
233.684
234.003
234.326
234.651
234.979
235.31
235.643
235.977
236.313
236.649
236.984
237.319
237.652
237.98
238.303
238.615
238.917
239.199
239.46
239.679
239.852
239.981
240.023
239.855
239.51
238.527
223
223
223
223
223.002
223.043
223.26
223.623
223.878
223.957
223.97
223.967
223.957
223.948
223.918
223.856
223.779
223.695
223.609
223.531
223.459
223.397
223.333
223.256
223.175
223.103
223.039
222.979
222.926
222.881
222.842
222.806
222.776
222.753
222.74
222.735
222.737
222.748
222.768
222.796
222.836
222.885
222.942
223.006
223.077
223.154
223.237
223.326
223.421
223.524
223.634
223.751
223.874
224.004
224.141
224.284
224.435
224.591
224.755
224.924
225.098
225.278
225.464
225.654
225.848
226.047
226.25
226.457
226.668
226.883
227.102
227.326
227.553
227.785
228.02
228.261
228.505
228.754
229.006
229.263
229.524
229.789
230.059
230.334
230.612
230.896
231.183
231.475
231.772
232.073
232.378
232.687
233.001
233.318
233.64
233.966
234.296
234.63
234.968
235.31
235.655
236.004
236.356
236.711
237.068
237.428
237.79
238.152
238.515
238.877
239.235
239.59
239.937
240.274
240.588
240.884
241.139
241.364
241.505
241.47
241.256
223
223
223
223
223.003
223.057
223.297
223.661
223.9
223.977
223.994
223.996
223.995
223.988
223.952
223.878
223.789
223.695
223.595
223.495
223.414
223.35
223.285
223.211
223.136
223.07
223.012
222.959
222.914
222.876
222.843
222.814
222.789
222.772
222.764
222.764
222.771
222.786
222.809
222.842
222.885
222.938
223
223.068
223.142
223.222
223.308
223.4
223.499
223.604
223.717
223.836
223.962
224.094
224.233
224.379
224.532
224.692
224.857
225.029
225.206
225.389
225.577
225.769
225.966
226.168
226.374
226.583
226.797
227.016
227.238
227.465
227.695
227.93
228.169
228.413
228.661
228.913
229.17
229.43
229.695
229.965
230.239
230.519
230.802
231.09
231.383
231.681
231.983
232.29
232.602
232.918
233.239
233.565
233.895
234.229
234.569
234.913
235.261
235.614
235.972
236.334
236.701
237.072
237.447
237.826
238.209
238.595
238.984
239.375
239.768
240.161
240.553
240.941
241.32
241.69
242.039
242.383
242.681
242.882
243.08
223
223
223
223
223.006
223.076
223.343
223.703
223.924
224
224.02
224.027
224.03
224.019
223.97
223.883
223.784
223.671
223.551
223.44
223.359
223.296
223.233
223.162
223.093
223.032
222.981
222.936
222.898
222.867
222.84
222.818
222.8
222.789
222.786
222.79
222.802
222.822
222.849
222.886
222.933
222.99
223.055
223.127
223.205
223.288
223.377
223.472
223.573
223.681
223.796
223.918
224.046
224.181
224.323
224.471
224.627
224.789
224.957
225.131
225.31
225.496
225.686
225.881
226.081
226.285
226.493
226.706
226.922
227.143
227.369
227.598
227.832
228.07
228.312
228.559
228.81
229.066
229.326
229.59
229.859
230.133
230.412
230.695
230.983
231.276
231.574
231.877
232.185
232.498
232.815
233.138
233.465