/*--------------------------------*- C++ -*----------------------------------*\
| =========                 |                                                 |
| \\      /  F ield         | OpenFOAM: The Open Source CFD Toolbox           |
|  \\    /   O peration     | Version:  2406                                  |
|   \\  /    A nd           | Website:  www.openfoam.com                      |
|    \\/     M anipulation  |                                                 |
\*---------------------------------------------------------------------------*/
FoamFile
{
    version     2.0;
    format      ascii;
    arch        "LSB;label=32;scalar=64";
    class       volScalarField;
    location    "0.059";
    object      T;
}
// * * * * * * * * * * * * * * * * * * * * * * * * * * * * * * * * * * * * * //

dimensions      [0 0 0 1 0 0 0];

internalField   nonuniform List<scalar> 
78650
(
243.386
224.157
222.47
222.475
222.399
222.346
222.293
222.245
222.193
222.145
222.103
222.071
222.046
222.019
221.985
221.942
221.899
221.86
221.823
221.781
221.728
221.662
221.584
221.499
221.414
221.331
221.253
221.181
221.115
221.055
220.999
220.949
220.902
220.859
220.818
220.781
220.746
220.714
220.683
220.655
220.627
220.601
220.575
220.549
220.522
220.495
220.466
220.435
220.4
220.363
220.321
220.273
220.219
220.159
220.09
220.012
219.924
219.825
219.712
219.584
219.44
219.279
219.099
218.899
218.676
218.428
218.153
217.849
217.512
217.143
216.738
216.294
215.811
215.284
214.711
214.091
213.42
212.692
211.91
211.074
210.184
209.242
208.244
207.197
206.094
204.925
203.691
202.411
201.092
199.748
198.391
196.973
195.524
194.098
192.635
191.192
189.823
188.438
187.096
185.706
184.368
183.073
181.848
180.693
179.623
178.636
177.717
176.844
176.012
175.211
174.451
173.731
173.066
172.462
171.925
171.469
171.081
170.779
170.582
170.528
169.936
243.019
224.053
222.519
222.512
222.439
222.39
222.345
222.303
222.25
222.191
222.132
222.084
222.05
222.022
221.992
221.956
221.916
221.879
221.844
221.808
221.766
221.714
221.651
221.579
221.505
221.431
221.361
221.297
221.237
221.183
221.133
221.089
221.047
221.01
220.975
220.943
220.914
220.888
220.864
220.842
220.821
220.802
220.783
220.765
220.747
220.728
220.708
220.687
220.664
220.637
220.607
220.573
220.533
220.487
220.434
220.374
220.305
220.225
220.133
220.029
219.91
219.776
219.624
219.454
219.264
219.051
218.814
218.55
218.257
217.935
217.579
217.187
216.756
216.284
215.769
215.211
214.605
213.948
213.242
212.483
211.666
210.792
209.857
208.87
207.826
206.732
205.584
204.375
203.127
201.836
200.503
199.134
197.736
196.316
194.926
193.522
192.124
190.74
189.368
188.044
186.722
185.448
184.258
183.1
181.989
180.879
179.808
178.774
177.809
176.904
176.045
175.221
174.421
173.67
172.974
172.354
171.845
171.439
171.154
170.977
170.289
242.802
223.887
222.572
222.554
222.483
222.438
222.4
222.363
222.311
222.245
222.171
222.104
222.055
222.022
221.995
221.965
221.932
221.9
221.868
221.836
221.802
221.762
221.715
221.658
221.597
221.533
221.472
221.415
221.362
221.314
221.27
221.231
221.196
221.164
221.135
221.109
221.085
221.065
221.047
221.031
221.017
221.005
220.994
220.984
220.974
220.964
220.954
220.942
220.929
220.914
220.896
220.875
220.849
220.817
220.78
220.736
220.684
220.624
220.553
220.47
220.375
220.266
220.141
220
219.84
219.66
219.458
219.232
218.979
218.698
218.387
218.042
217.662
217.246
216.791
216.294
215.751
215.16
214.52
213.829
213.082
212.281
211.425
210.522
209.568
208.566
207.502
206.384
205.211
203.975
202.682
201.335
199.982
198.61
197.215
195.821
194.37
192.953
191.5
190.084
188.706
187.315
185.987
184.724
183.555
182.456
181.426
180.418
179.453
178.497
177.578
176.69
175.843
175.036
174.268
173.563
172.948
172.457
172.119
171.879
171.054
242.574
223.75
222.602
222.59
222.529
222.492
222.459
222.425
222.376
222.307
222.221
222.133
222.065
222.022
221.993
221.969
221.945
221.921
221.894
221.866
221.839
221.81
221.777
221.737
221.69
221.638
221.587
221.537
221.491
221.449
221.411
221.378
221.347
221.321
221.297
221.277
221.259
221.245
221.233
221.223
221.216
221.211
221.207
221.204
221.202
221.201
221.199
221.197
221.194
221.19
221.183
221.174
221.161
221.143
221.121
221.093
221.058
221.016
220.965
220.903
220.831
220.746
220.647
220.533
220.403
220.256
220.088
219.899
219.686
219.447
219.181
218.885
218.557
218.194
217.793
217.353
216.87
216.345
215.775
215.157
214.485
213.759
212.979
212.147
211.259
210.317
209.312
208.259
207.146
205.985
204.775
203.518
202.218
200.867
199.458
198.089
196.656
195.221
193.837
192.387
190.979
189.561
188.168
186.768
185.37
184.049
182.812
181.682
180.641
179.635
178.683
177.768
176.913
176.107
175.36
174.669
174.047
173.509
173.109
172.84
171.975
242.381
223.646
222.635
222.634
222.589
222.557
222.525
222.492
222.442
222.373
222.28
222.174
222.082
222.022
221.988
221.967
221.951
221.942
221.925
221.902
221.88
221.86
221.839
221.815
221.783
221.746
221.706
221.665
221.625
221.589
221.557
221.529
221.504
221.483
221.465
221.45
221.438
221.429
221.423
221.42
221.42
221.421
221.424
221.429
221.434
221.441
221.448
221.456
221.463
221.469
221.473
221.476
221.476
221.472
221.464
221.452
221.433
221.409
221.376
221.335
221.284
221.222
221.148
221.061
220.96
220.842
220.706
220.552
220.375
220.176
219.951
219.698
219.417
219.103
218.756
218.374
217.954
217.493
216.989
216.437
215.834
215.181
214.478
213.725
212.919
212.059
211.141
210.175
209.144
208.063
206.923
205.723
204.463
203.166
201.821
200.434
199.093
197.668
196.282
194.833
193.43
192.018
190.624
189.274
187.908
186.604
185.311
184.055
182.862
181.69
180.583
179.515
178.498
177.529
176.618
175.807
175.104
174.525
174.061
173.729
172.639
242.174
223.667
222.669
222.681
222.653
222.63
222.595
222.557
222.506
222.438
222.344
222.226
222.111
222.027
221.985
221.963
221.953
221.961
221.958
221.945
221.929
221.916
221.905
221.894
221.878
221.855
221.827
221.796
221.764
221.734
221.708
221.685
221.665
221.65
221.637
221.628
221.621
221.618
221.618
221.621
221.627
221.634
221.644
221.656
221.669
221.684
221.7
221.716
221.733
221.749
221.764
221.778
221.79
221.799
221.805
221.807
221.805
221.797
221.783
221.761
221.731
221.692
221.641
221.58
221.505
221.417
221.313
221.192
221.051
220.89
220.707
220.498
220.264
220.001
219.707
219.38
219.016
218.614
218.173
217.687
217.158
216.583
215.958
215.281
214.549
213.761
212.918
212.024
211.069
210.069
209.005
207.893
206.727
205.495
204.232
202.898
201.555
200.139
198.723
197.29
195.826
194.393
192.916
191.497
190.071
188.701
187.373
186.077
184.858
183.66
182.537
181.43
180.364
179.304
178.279
177.336
176.52
175.832
175.304
174.911
173.704
241.941
223.727
222.715
222.737
222.722
222.703
222.664
222.62
222.566
222.5
222.408
222.286
222.154
222.046
221.987
221.962
221.954
221.976
221.993
221.993
221.987
221.981
221.977
221.976
221.972
221.965
221.95
221.93
221.907
221.884
221.863
221.846
221.832
221.822
221.814
221.81
221.81
221.812
221.818
221.827
221.838
221.852
221.869
221.888
221.909
221.932
221.956
221.981
222.006
222.032
222.058
222.083
222.107
222.129
222.148
222.165
222.178
222.186
222.189
222.187
222.177
222.158
222.131
222.093
222.044
221.983
221.909
221.819
221.712
221.586
221.441
221.273
221.082
220.865
220.619
220.344
220.036
219.695
219.317
218.899
218.44
217.936
217.382
216.777
216.123
215.419
214.665
213.859
212.996
212.081
211.097
210.061
208.959
207.807
206.604
205.354
204.039
202.696
201.298
199.928
198.491
197.088
195.614
194.168
192.716
191.244
189.81
188.36
187.002
185.695
184.476
183.298
182.176
181.076
180.027
179.043
178.161
177.385
176.754
176.245
174.741
241.661
223.818
222.8
222.82
222.806
222.781
222.734
222.682
222.623
222.557
222.469
222.35
222.21
222.082
222.002
221.968
221.959
221.987
222.028
222.049
222.056
222.057
222.059
222.064
222.07
222.074
222.072
222.065
222.052
222.037
222.023
222.012
222.003
221.998
221.996
221.997
222.002
222.01
222.021
222.036
222.053
222.074
222.097
222.123
222.151
222.181
222.213
222.246
222.281
222.316
222.352
222.388
222.423
222.457
222.49
222.52
222.547
222.571
222.591
222.605
222.614
222.617
222.611
222.597
222.573
222.538
222.492
222.432
222.358
222.268
222.16
222.032
221.884
221.711
221.515
221.291
221.037
220.752
220.433
220.076
219.683
219.248
218.767
218.241
217.668
217.047
216.375
215.65
214.866
214.027
213.124
212.171
211.155
210.096
208.975
207.799
206.571
205.29
203.964
202.599
201.207
199.786
198.358
196.892
195.48
194.005
192.578
191.118
189.695
188.307
186.961
185.651
184.39
183.179
182.048
181.015
180.078
179.257
178.61
178.149
176.946
241.302
223.911
222.934
222.942
222.914
222.873
222.811
222.748
222.683
222.614
222.528
222.414
222.274
222.136
222.037
221.991
221.978
222.004
222.062
222.107
222.134
222.146
222.153
222.162
222.173
222.185
222.194
222.199
222.197
222.192
222.186
222.181
222.178
222.179
222.182
222.188
222.198
222.212
222.228
222.248
222.272
222.298
222.328
222.36
222.396
222.433
222.473
222.515
222.558
222.603
222.649
222.695
222.741
222.787
222.832
222.875
222.916
222.955
222.991
223.023
223.05
223.071
223.086
223.093
223.094
223.084
223.064
223.033
222.989
222.931
222.857
222.766
222.656
222.526
222.374
222.197
221.994
221.762
221.501
221.208
220.88
220.514
220.105
219.654
219.159
218.617
218.026
217.383
216.685
215.934
215.126
214.267
213.349
212.381
211.342
210.25
209.095
207.887
206.638
205.313
203.98
202.566
201.184
199.718
198.277
196.781
195.316
193.841
192.375
190.92
189.486
188.084
186.704
185.353
184.064
182.857
181.735
180.686
179.755
179.041
177.24
240.852
223.992
223.087
223.079
223.032
222.977
222.898
222.821
222.746
222.67
222.582
222.473
222.342
222.204
222.096
222.038
222.02
222.036
222.1
222.167
222.216
222.244
222.259
222.271
222.285
222.301
222.318
222.332
222.342
222.347
222.35
222.352
222.356
222.362
222.37
222.382
222.397
222.416
222.438
222.463
222.492
222.525
222.56
222.599
222.641
222.686
222.733
222.783
222.834
222.888
222.943
222.999
223.056
223.113
223.169
223.225
223.28
223.333
223.384
223.432
223.476
223.516
223.551
223.579
223.601
223.615
223.621
223.618
223.603
223.576
223.535
223.481
223.409
223.32
223.211
223.08
222.926
222.748
222.541
222.304
222.036
221.733
221.392
221.014
220.595
220.131
219.621
219.061
218.451
217.79
217.076
216.311
215.484
214.602
213.651
212.649
211.581
210.461
209.282
208.056
206.778
205.465
204.124
202.717
201.28
199.814
198.343
196.896
195.411
193.932
192.475
191.057
189.676
188.33
187.038
185.806
184.695
183.671
182.752
181.957
179.959
240.334
224.059
223.201
223.189
223.14
223.079
222.987
222.896
222.81
222.725
222.635
222.532
222.414
222.287
222.177
222.112
222.088
222.094
222.149
222.228
222.299
222.346
222.373
222.39
222.406
222.424
222.445
222.466
222.485
222.5
222.512
222.523
222.534
222.546
222.56
222.577
222.597
222.621
222.648
222.679
222.713
222.752
222.793
222.839
222.887
222.939
222.993
223.051
223.111
223.173
223.237
223.302
223.369
223.437
223.505
223.573
223.641
223.708
223.773
223.836
223.897
223.954
224.007
224.056
224.099
224.135
224.165
224.186
224.198
224.201
224.191
224.169
224.133
224.08
224.011
223.923
223.815
223.684
223.529
223.348
223.139
222.9
222.628
222.32
221.973
221.584
221.152
220.676
220.153
219.584
218.963
218.289
217.554
216.761
215.906
214.999
214.026
213.001
211.913
210.773
209.574
208.32
207.014
205.673
204.252
202.833
201.361
199.897
198.363
196.841
195.293
193.777
192.265
190.8
189.356
187.96
186.694
185.612
184.744
184.071
182.364
239.763
224.11
223.254
223.254
223.213
223.159
223.07
222.971
222.875
222.781
222.691
222.599
222.497
222.386
222.283
222.213
222.184
222.182
222.22
222.297
222.382
222.449
222.492
222.519
222.538
222.556
222.578
222.602
222.627
222.65
222.672
222.691
222.71
222.729
222.749
222.772
222.797
222.826
222.858
222.894
222.934
222.978
223.025
223.077
223.131
223.19
223.251
223.316
223.384
223.454
223.526
223.601
223.678
223.756
223.835
223.914
223.994
224.073
224.152
224.23
224.306
224.38
224.451
224.518
224.58
224.638
224.69
224.736
224.774
224.803
224.823
224.832
224.831
224.814
224.784
224.737
224.672
224.588
224.482
224.353
224.199
224.018
223.806
223.563
223.284
222.969
222.617
222.224
221.789
221.306
220.773
220.186
219.543
218.847
218.096
217.293
216.428
215.509
214.524
213.48
212.369
211.205
209.99
208.722
207.418
206.058
204.657
203.236
201.745
200.269
198.733
197.211
195.659
194.144
192.617
191.097
189.632
188.247
187.023
186.006
183.723
239.148
224.087
223.27
223.271
223.236
223.2
223.132
223.041
222.942
222.849
222.768
222.686
222.599
222.503
222.408
222.337
222.304
222.298
222.319
222.383
222.468
222.549
222.609
222.649
222.676
222.696
222.717
222.742
222.77
222.799
222.828
222.855
222.882
222.909
222.936
222.964
222.995
223.029
223.067
223.108
223.153
223.202
223.255
223.312
223.373
223.438
223.506
223.578
223.653
223.731
223.812
223.896
223.982
224.069
224.159
224.249
224.34
224.432
224.524
224.616
224.707
224.796
224.883
224.968
225.049
225.127
225.2
225.268
225.33
225.384
225.431
225.469
225.496
225.513
225.519
225.509
225.485
225.444
225.383
225.303
225.201
225.075
224.924
224.744
224.533
224.29
224.011
223.695
223.338
222.936
222.489
221.994
221.451
220.86
220.216
219.519
218.758
217.937
217.047
216.099
215.089
214.028
212.905
211.726
210.491
209.207
207.877
206.475
205.075
203.631
202.179
200.66
199.151
197.612
196.139
194.667
193.324
192.014
190.858
189.896
187.722
238.528
224.024
223.23
223.244
223.225
223.207
223.159
223.092
223.011
222.936
222.864
222.798
222.725
222.641
222.554
222.483
222.444
222.435
222.446
222.49
222.565
222.649
222.723
222.778
222.816
222.841
222.863
222.886
222.914
222.945
222.979
223.013
223.047
223.081
223.116
223.152
223.189
223.229
223.272
223.318
223.368
223.423
223.482
223.544
223.611
223.682
223.757
223.835
223.917
224.003
224.092
224.183
224.278
224.375
224.474
224.574
224.676
224.78
224.884
224.988
225.092
225.196
225.299
225.4
225.498
225.595
225.688
225.777
225.861
225.939
226.012
226.077
226.134
226.182
226.219
226.245
226.258
226.259
226.241
226.207
226.154
226.079
225.983
225.861
225.711
225.533
225.324
225.081
224.802
224.485
224.126
223.725
223.279
222.784
222.237
221.634
220.969
220.246
219.462
218.625
217.728
216.774
215.751
214.67
213.527
212.328
211.068
209.752
208.377
206.959
205.532
203.978
202.461
200.856
199.293
197.667
196.117
194.653
193.345
192.239
189.796
237.94
223.944
223.163
223.183
223.176
223.179
223.154
223.113
223.069
223.025
222.977
222.933
222.876
222.803
222.723
222.651
222.604
222.589
222.593
222.619
222.676
222.753
222.83
222.898
222.949
222.985
223.011
223.034
223.06
223.091
223.127
223.166
223.206
223.248
223.29
223.332
223.376
223.422
223.471
223.523
223.578
223.638
223.702
223.771
223.843
223.92
224.001
224.086
224.175
224.268
224.364
224.464
224.566
224.672
224.78
224.891
225.003
225.117
225.232
225.349
225.466
225.583
225.7
225.817
225.932
226.045
226.156
226.264
226.369
226.47
226.565
226.655
226.738
226.815
226.882
226.941
226.987
227.022
227.045
227.053
227.046
227.02
226.975
226.907
226.818
226.702
226.558
226.385
226.18
225.939
225.663
225.347
224.988
224.583
224.128
223.623
223.065
222.456
221.793
221.077
220.299
219.46
218.553
217.588
216.558
215.471
214.322
213.119
211.855
210.538
209.174
207.786
206.335
204.838
203.305
201.743
200.154
198.637
197.172
195.865
193.191
237.409
223.897
223.119
223.142
223.129
223.133
223.126
223.11
223.095
223.078
223.069
223.053
223.026
222.977
222.911
222.841
222.787
222.759
222.755
222.767
222.806
222.867
222.938
223.009
223.071
223.118
223.152
223.179
223.205
223.235
223.27
223.311
223.356
223.404
223.453
223.504
223.555
223.608
223.663
223.721
223.782
223.847
223.917
223.991
224.069
224.151
224.238
224.329
224.425
224.524
224.627
224.734
224.845
224.958
225.075
225.195
225.316
225.44
225.566
225.694
225.823
225.953
226.083
226.213
226.343
226.472
226.6
226.726
226.85
226.971
227.088
227.201
227.309
227.411
227.507
227.595
227.674
227.744
227.803
227.849
227.881
227.899
227.903
227.886
227.851
227.792
227.708
227.599
227.463
227.297
227.098
226.863
226.59
226.274
225.916
225.513
225.063
224.566
224.014
223.405
222.732
221.999
221.203
220.346
219.423
218.443
217.404
216.306
215.136
213.906
212.624
211.3
209.932
208.504
207.028
205.555
204.052
202.607
201.2
199.989
197.44
236.927
223.902
223.151
223.155
223.128
223.116
223.108
223.1
223.095
223.093
223.092
223.1
223.101
223.09
223.059
223.014
222.97
222.933
222.917
222.921
222.942
222.987
223.046
223.113
223.18
223.238
223.284
223.318
223.348
223.378
223.412
223.454
223.501
223.553
223.609
223.666
223.724
223.784
223.845
223.909
223.977
224.048
224.123
224.202
224.286
224.374
224.467
224.564
224.665
224.771
224.881
224.995
225.113
225.234
225.359
225.487
225.617
225.751
225.887
226.025
226.164
226.306
226.448
226.592
226.735
226.879
227.022
227.164
227.306
227.445
227.582
227.715
227.845
227.971
228.092
228.207
228.315
228.415
228.507
228.588
228.659
228.717
228.761
228.791
228.804
228.801
228.773
228.726
228.653
228.554
228.426
228.266
228.073
227.844
227.577
227.269
226.919
226.52
226.067
225.56
224.995
224.376
223.699
222.965
222.169
221.313
220.394
219.412
218.362
217.248
216.07
214.84
213.55
212.198
210.775
209.305
207.833
206.432
204.896
203.578
201.03
236.474
223.958
223.233
223.207
223.164
223.133
223.103
223.079
223.068
223.066
223.079
223.097
223.112
223.115
223.112
223.109
223.101
223.084
223.072
223.073
223.081
223.111
223.156
223.213
223.277
223.341
223.398
223.443
223.48
223.513
223.548
223.589
223.638
223.693
223.753
223.816
223.882
223.949
224.018
224.088
224.162
224.239
224.32
224.405
224.494
224.587
224.686
224.788
224.896
225.008
225.124
225.244
225.369
225.497
225.629
225.765
225.904
226.046
226.191
226.338
226.488
226.64
226.793
226.948
227.104
227.261
227.418
227.575
227.732
227.888
228.043
228.196
228.346
228.493
228.637
228.776
228.91
229.038
229.16
229.273
229.378
229.473
229.556
229.628
229.685
229.727
229.751
229.759
229.745
229.708
229.648
229.558
229.442
229.294
229.112
228.892
228.632
228.327
227.975
227.576
227.126
226.628
226.074
225.466
224.795
224.062
223.263
222.404
221.486
220.505
219.449
218.331
217.147
215.913
214.608
213.257
211.844
210.472
208.997
207.628
205.148
236.001
224.031
223.38
223.307
223.235
223.174
223.114
223.06
223.02
223.011
223.022
223.047
223.077
223.1
223.117
223.132
223.148
223.17
223.188
223.2
223.211
223.232
223.265
223.31
223.367
223.432
223.496
223.553
223.6
223.639
223.677
223.719
223.768
223.825
223.889
223.957
224.029
224.103
224.179
224.256
224.337
224.42
224.506
224.597
224.692
224.791
224.894
225.003
225.116
225.233
225.355
225.482
225.613
225.748
225.887
226.03
226.176
226.326
226.479
226.635
226.794
226.956
227.119
227.285
227.452
227.621
227.791
227.961
228.133
228.304
228.474
228.644
228.812
228.978
229.142
229.303
229.461
229.614
229.762
229.903
230.038
230.165
230.284
230.392
230.49
230.575
230.646
230.7
230.738
230.758
230.761
230.735
230.689
230.614
230.507
230.368
230.193
229.981
229.73
229.438
229.1
228.715
228.275
227.781
227.225
226.612
225.936
225.2
224.404
223.544
222.617
221.626
220.57
219.464
218.295
217.084
215.815
214.541
213.229
211.963
209.758
235.48
224.154
223.531
223.445
223.343
223.245
223.144
223.058
222.984
222.94
222.933
222.955
222.996
223.041
223.078
223.112
223.149
223.199
223.254
223.297
223.323
223.345
223.371
223.406
223.453
223.513
223.58
223.646
223.704
223.752
223.796
223.84
223.89
223.948
224.015
224.088
224.166
224.246
224.328
224.413
224.5
224.589
224.682
224.778
224.879
224.983
225.092
225.206
225.324
225.447
225.575
225.707
225.844
225.985
226.13
226.28
226.433
226.59
226.751
226.915
227.082
227.252
227.425
227.6
227.778
227.957
228.138
228.32
228.504
228.689
228.873
229.058
229.242
229.425
229.607
229.788
229.966
230.141
230.312
230.479
230.641
230.797
230.946
231.088
231.221
231.344
231.456
231.555
231.641
231.71
231.764
231.798
231.813
231.807
231.771
231.711
231.619
231.496
231.339
231.143
230.904
230.619
230.283
229.897
229.456
228.963
228.407
227.793
227.116
226.377
225.577
224.707
223.771
222.768
221.7
220.581
219.394
218.195
216.91
215.64
213.638
234.906
224.264
223.612
223.556
223.458
223.342
223.205
223.081
222.977
222.898
222.854
222.845
222.875
222.93
222.992
223.058
223.123
223.192
223.274
223.351
223.408
223.444
223.471
223.501
223.539
223.59
223.655
223.726
223.794
223.853
223.903
223.952
224.004
224.064
224.133
224.21
224.292
224.379
224.468
224.559
224.652
224.748
224.847
224.949
225.055
225.165
225.279
225.398
225.521
225.649
225.782
225.92
226.062
226.209
226.36
226.516
226.675
226.839
227.006
227.177
227.352
227.53
227.711
227.895
228.081
228.27
228.461
228.654
228.849
229.045
229.242
229.44
229.638
229.836
230.034
230.232
230.428
230.622
230.814
231.002
231.188
231.369
231.545
231.715
231.879
232.036
232.184
232.321
232.448
232.563
232.664
232.751
232.819
232.87
232.9
232.91
232.892
232.847
232.772
232.66
232.512
232.324
232.094
231.82
231.497
231.126
230.697
230.214
229.668
229.064
228.397
227.665
226.868
225.998
225.071
224.08
223.044
221.968
220.841
219.615
217.877
234.317
224.263
223.608
223.627
223.575
223.465
223.303
223.138
223.002
222.896
222.819
222.777
222.772
222.805
222.872
222.961
223.057
223.155
223.261
223.373
223.466
223.526
223.564
223.593
223.625
223.667
223.726
223.797
223.871
223.94
223.999
224.054
224.11
224.172
224.244
224.324
224.41
224.502
224.596
224.694
224.794
224.896
225.001
225.109
225.22
225.335
225.454
225.578
225.707
225.84
225.978
226.12
226.268
226.42
226.576
226.737
226.903
227.072
227.245
227.423
227.604
227.789
227.977
228.168
228.363
228.56
228.76
228.962
229.166
229.373
229.581
229.791
230.001
230.212
230.424
230.635
230.847
231.058
231.267
231.475
231.68
231.883
232.082
232.278
232.468
232.654
232.832
233.004
233.167
233.32
233.463
233.594
233.712
233.816
233.902
233.97
234.018
234.043
234.047
234.015
233.959
233.869
233.742
233.577
233.367
233.112
232.804
232.446
232.025
231.548
231.005
230.399
229.727
228.984
228.179
227.301
226.375
225.396
224.377
223.242
221.662
233.789
224.146
223.548
223.64
223.63
223.578
223.439
223.251
223.076
222.935
222.827
222.756
222.721
222.725
222.76
222.847
222.965
223.095
223.234
223.373
223.497
223.588
223.644
223.68
223.709
223.744
223.795
223.863
223.94
224.017
224.085
224.147
224.207
224.272
224.346
224.429
224.52
224.616
224.716
224.819
224.925
225.033
225.144
225.258
225.374
225.495
225.619
225.747
225.88
226.018
226.161
226.308
226.46
226.617
226.778
226.944
227.115
227.29
227.469
227.651
227.838
228.029
228.224
228.422
228.623
228.828
229.035
229.245
229.458
229.674
229.891
230.111
230.332
230.554
230.777
231.002
231.226
231.451
231.676
231.9
232.123
232.344
232.563
232.779
232.993
233.202
233.407
233.607
233.8
233.987
234.165
234.335
234.494
234.642
234.778
234.899
235.004
235.09
235.157
235.201
235.223
235.221
235.179
235.109
234.996
234.843
234.645
234.398
234.096
233.74
233.32
232.841
232.293
231.68
231
230.248
229.445
228.582
227.681
226.66
225.249
233.377
223.943
223.411
223.604
223.637
223.645
223.574
223.401
223.201
223.021
222.876
222.77
222.711
222.69
222.696
222.753
222.87
223.021
223.191
223.36
223.513
223.633
223.711
223.758
223.79
223.821
223.864
223.926
224.004
224.085
224.161
224.23
224.296
224.365
224.442
224.528
224.623
224.723
224.828
224.936
225.048
225.161
225.278
225.397
225.518
225.644
225.773
225.906
226.044
226.186
226.333
226.484
226.641
226.802
226.968
227.138
227.313
227.493
227.677
227.864
228.057
228.253
228.453
228.657
228.864
229.075
229.289
229.506
229.726
229.949
230.175
230.403
230.633
230.865
231.098
231.333
231.569
231.806
232.043
232.28
232.517
232.754
232.99
233.224
233.456
233.686
233.913
234.136
234.355
234.569
234.777
234.979
235.174
235.36
235.536
235.702
235.856
235.996
236.121
236.229
236.316
236.382
236.422
236.439
236.423
236.372
236.287
236.16
235.988
235.768
235.491
235.158
234.754
234.288
233.745
233.128
232.442
231.681
230.871
229.933
228.636
233.116
223.697
223.233
223.512
223.625
223.67
223.653
223.544
223.351
223.147
222.96
222.814
222.724
222.685
222.675
222.702
222.797
222.952
223.143
223.341
223.517
223.662
223.763
223.825
223.864
223.895
223.933
223.989
224.064
224.148
224.231
224.307
224.378
224.452
224.532
224.621
224.719
224.823
224.932
225.045
225.162
225.281
225.402
225.526
225.653
225.783
225.916
226.054
226.196
226.342
226.493
226.649
226.809
226.974
227.144
227.319
227.498
227.682
227.87
228.062
228.259
228.46
228.665
228.874
229.086
229.303
229.522
229.745
229.972
230.201
230.434
230.669
230.907
231.146
231.388
231.631
231.877
232.124
232.372
232.62
232.869
233.119
233.368
233.617
233.864
234.111
234.356
234.599
234.839
235.076
235.308
235.537
235.76
235.977
236.187
236.39
236.584
236.768
236.94
237.1
237.245
237.374
237.484
237.574
237.642
237.683
237.699
237.679
237.62
237.519
237.367
237.165
236.897
236.572
236.168
235.7
235.147
234.516
233.813
232.976
231.801
232.945
223.457
223.024
223.359
223.582
223.67
223.689
223.646
223.496
223.286
223.071
222.886
222.754
222.691
222.674
222.689
222.761
222.901
223.099
223.318
223.517
223.682
223.802
223.88
223.928
223.962
223.999
224.049
224.121
224.207
224.295
224.377
224.454
224.532
224.616
224.708
224.809
224.917
225.03
225.148
225.269
225.392
225.518
225.647
225.779
225.913
226.051
226.193
226.338
226.489
226.643
226.803
226.967
227.136
227.309
227.487
227.67
227.858
228.05
228.246
228.447
228.652
228.861
229.074
229.291
229.512
229.737
229.965
230.197
230.432
230.67
230.911
231.155
231.402
231.65
231.902
232.155
232.41
232.667
232.925
233.184
233.443
233.704
233.965
234.225
234.486
234.745
235.004
235.261
235.516
235.768
236.018
236.264
236.507
236.744
236.977
237.203
237.423
237.634
237.836
238.028
238.209
238.377
238.529
238.665
238.779
238.872
238.939
238.978
238.989
238.958
238.89
238.772
238.603
238.368
238.076
237.692
237.232
236.652
235.942
234.885
232.838
223.276
222.817
223.172
223.497
223.657
223.717
223.696
223.603
223.41
223.184
222.972
222.807
222.715
222.683
222.692
222.753
222.884
223.079
223.304
223.517
223.694
223.829
223.921
223.98
224.021
224.059
224.108
224.177
224.263
224.355
224.442
224.525
224.608
224.695
224.791
224.895
225.006
225.123
225.244
225.369
225.497
225.627
225.76
225.896
226.035
226.176
226.322
226.472
226.625
226.784
226.946
227.114
227.286
227.463
227.645
227.831
228.022
228.218
228.417
228.622
228.83
229.043
229.26
229.481
229.707
229.936
230.168
230.404
230.644
230.887
231.134
231.383
231.635
231.89
232.147
232.407
232.669
232.933
233.199
233.466
233.735
234.005
234.275
234.546
234.818
235.089
235.36
235.631
235.901
236.169
236.436
236.7
236.963
237.222
237.478
237.73
237.977
238.219
238.455
238.683
238.904
239.115
239.317
239.506
239.682
239.843
239.987
240.111
240.214
240.289
240.335
240.349
240.317
240.238
240.113
239.918
239.666
239.277
238.806
237.995
232.749
223.137
222.634
222.974
223.375
223.629
223.724
223.713
223.666
223.508
223.282
223.058
222.873
222.756
222.71
222.712
222.759
222.886
223.079
223.305
223.521
223.704
223.849
223.952
224.022
224.07
224.112
224.162
224.23
224.317
224.412
224.504
224.592
224.679
224.77
224.869
224.977
225.091
225.211
225.336
225.464
225.596
225.73
225.867
226.007
226.149
226.294
226.443
226.596
226.754
226.915
227.081
227.252
227.427
227.607
227.792
227.981
228.175
228.374
228.577
228.784
228.996
229.212
229.433
229.658
229.886
230.119
230.356
230.596
230.84
231.088
231.339
231.593
231.85
232.11
232.372
232.638
232.906
233.176
233.448
233.722
233.998
234.276
234.554
234.834
235.115
235.396
235.678
235.96
236.241
236.522
236.802
237.082
237.36
237.636
237.91
238.182
238.451
238.716
238.978
239.234
239.486
239.731
239.97
240.201
240.423
240.636
240.836
241.023
241.195
241.349
241.483
241.595
241.677
241.73
241.751
241.734
241.678
241.526
241.329
240.872
232.668
223.07
222.462
222.769
223.222
223.576
223.708
223.731
223.701
223.576
223.36
223.137
222.945
222.811
222.755
222.749
222.787
222.906
223.095
223.315
223.528
223.713
223.863
223.975
224.054
224.111
224.159
224.212
224.282
224.369
224.466
224.563
224.656
224.747
224.842
224.944
225.055
225.172
225.295
225.423
225.554
225.689
225.827
225.967
226.11
226.256
226.405
226.557
226.713
226.874
227.038
227.207
227.381
227.559
227.742
227.93
228.122
228.319
228.52
228.726
228.936
229.151
229.371
229.594
229.822
230.054
230.29
230.53
230.774
231.022
231.274
231.529
231.787
232.048
232.313
232.58
232.85
233.123
233.399
233.677
233.957
234.239
234.523
234.808
235.095
235.383
235.673
235.963
236.254
236.545
236.836
237.127
237.418
237.708
237.998
238.286
238.573
238.858
239.141
239.422
239.699
239.973
240.243
240.509
240.77
241.024
241.272
241.512
241.743
241.965
242.177
242.376
242.561
242.727
242.87
242.991
243.105
243.206
243.264
243.248
243.165
232.566
223.031
222.332
222.57
223.045
223.499
223.684
223.745
223.724
223.622
223.421
223.204
223.015
222.878
222.817
222.805
222.837
222.941
223.121
223.332
223.537
223.721
223.874
223.992
224.08
224.145
224.2
224.258
224.33
224.419
224.519
224.619
224.716
224.811
224.91
225.016
225.129
225.249
225.375
225.505
225.64
225.778
225.918
226.062
226.207
226.356
226.508
226.663
226.823
226.986
227.153
227.325
227.501
227.682
227.868
228.058
228.253
228.452
228.656
228.865
229.078
229.296
229.518
229.744
229.975
230.21
230.449
230.693
230.94
231.191
231.446
231.705
231.967
232.232
232.5
232.772
233.047
233.324
233.604
233.887
234.172
234.46
234.749
235.04
235.333
235.628
235.924
236.221
236.519
236.818
237.117
237.416
237.716
238.016
238.315
238.614
238.912
239.209
239.504
239.798
240.09
240.379
240.665
240.949
241.228
241.504
241.774
242.039
242.298
242.549
242.793
243.028
243.252
243.462
243.654
243.831
243.997
244.152
244.301
244.399
244.49
232.426
222.913
222.228
222.399
222.876
223.407
223.674
223.755
223.738
223.649
223.464
223.259
223.081
222.952
222.892
222.876
222.9
222.986
223.152
223.351
223.548
223.729
223.883
224.005
224.099
224.173
224.235
224.299
224.375
224.467
224.57
224.674
224.774
224.873
224.975
225.084
225.2
225.323
225.451
225.584
225.721
225.861
226.004
226.15
226.299
226.45
226.605
226.763
226.925
227.091
227.261
227.435
227.614
227.797