/*--------------------------------*- C++ -*----------------------------------*\
| =========                 |                                                 |
| \\      /  F ield         | OpenFOAM: The Open Source CFD Toolbox           |
|  \\    /   O peration     | Version:  2406                                  |
|   \\  /    A nd           | Website:  www.openfoam.com                      |
|    \\/     M anipulation  |                                                 |
\*---------------------------------------------------------------------------*/
FoamFile
{
    version     2.0;
    format      ascii;
    arch        "LSB;label=32;scalar=64";
    class       volScalarField;
    location    "0.022";
    object      p;
}
// * * * * * * * * * * * * * * * * * * * * * * * * * * * * * * * * * * * * * //

dimensions      [1 -1 -2 0 0 0 0];

internalField   nonuniform List<scalar> 
78650
(
2790
2790.15
2792.57
2805.47
2829.81
2849.1
2853.84
2854.17
2845.76
2829.79
2813.95
2799.9
2787.06
2775.52
2766.72
2761.85
2760
2758.91
2757.17
2753.76
2748.82
2743.7
2739.39
2735.65
2732.19
2729.02
2726.17
2723.63
2721.35
2719.32
2717.48
2715.82
2714.32
2712.97
2711.76
2710.61
2709.46
2708.25
2706.96
2705.68
2704.48
2703.4
2702.39
2701.37
2700.3
2699.17
2697.97
2696.66
2695.19
2693.51
2691.6
2689.45
2687.03
2684.33
2681.3
2677.9
2674.06
2669.74
2664.86
2659.35
2653.16
2646.24
2638.51
2629.9
2620.31
2609.65
2597.88
2584.92
2570.74
2555.23
2538.25
2519.76
2499.7
2477.99
2454.63
2429.49
2402.58
2373.86
2343.26
2310.8
2276.69
2240.91
2203.54
2164.64
2124.23
2082.02
2038.24
1992.71
1946.3
1900.49
1855.06
1810.66
1766.14
1721.65
1678.43
1635.26
1593.85
1553.37
1514.16
1477.35
1442.65
1409.4
1378.07
1347.01
1317.12
1289.58
1266.74
1246.38
1227.45
1208.8
1190.98
1174.01
1158.43
1144.06
1130.61
1117.83
1105.35
1093.73
1083.61
1075.07
1057.53
2790
2790.07
2791.6
2801.81
2825.3
2847.24
2854.42
2856.16
2850.03
2834.78
2818.31
2803.97
2791.18
2779.62
2770.63
2765.43
2763.52
2762.59
2761.19
2758.23
2753.56
2748.45
2744.12
2740.51
2737.23
2734.27
2731.62
2729.28
2727.2
2725.36
2723.71
2722.22
2720.89
2719.71
2718.66
2717.7
2716.74
2715.74
2714.68
2713.65
2712.72
2711.94
2711.24
2710.57
2709.86
2709.11
2708.3
2707.42
2706.42
2705.24
2703.86
2702.27
2700.44
2698.37
2696.02
2693.33
2690.26
2686.77
2682.77
2678.21
2673.04
2667.19
2660.61
2653.23
2644.95
2635.71
2625.44
2614.08
2601.53
2587.71
2572.5
2555.92
2537.9
2518.33
2497.19
2474.34
2449.73
2423.29
2394.96
2364.78
2332.93
2299.29
2263.94
2226.93
2188.21
2148.06
2106.34
2063.71
2020.01
1975.63
1930.01
1884.09
1838.25
1792.01
1747.53
1703.03
1659.43
1617.61
1576.41
1537.39
1500.29
1463.93
1429.71
1396.45
1365.43
1336.21
1308.94
1284.17
1261.98
1241.03
1221.17
1202.09
1184.06
1167.6
1152.96
1139.71
1127.53
1116.06
1105.28
1095.21
1077.37
2790
2790.03
2790.94
2798.58
2820.33
2844.57
2854.78
2857.98
2853.78
2839.63
2822.77
2808.22
2795.49
2783.93
2774.73
2769.17
2767.12
2766.27
2765.15
2762.64
2758.32
2753.27
2748.95
2745.47
2742.4
2739.65
2737.22
2735.08
2733.2
2731.54
2730.06
2728.75
2727.58
2726.56
2725.68
2724.9
2724.13
2723.34
2722.52
2721.74
2721.09
2720.6
2720.24
2719.9
2719.56
2719.19
2718.78
2718.33
2717.78
2717.1
2716.25
2715.21
2713.97
2712.52
2710.82
2708.84
2706.52
2703.82
2700.69
2697.04
2692.83
2688.02
2682.53
2676.32
2669.28
2661.36
2652.49
2642.57
2631.56
2619.38
2605.96
2591.26
2575.17
2557.57
2538.42
2517.57
2495.01
2470.69
2444.58
2416.72
2387.19
2355.81
2322.63
2287.71
2251.12
2213.09
2173.47
2132.13
2089.33
2045.12
2000.12
1954.04
1908.8
1862.52
1816.95
1772.24
1726.98
1683.67
1640.05
1597.8
1557.88
1518.72
1481.78
1446.07
1411.6
1379.1
1348.17
1319.17
1292.16
1266.82
1243.55
1221.69
1201.15
1182.08
1164.61
1149.12
1135.56
1123.07
1111.23
1101.04
1078.47
2790
2790.02
2790.51
2795.85
2814.97
2840.96
2854.86
2859.64
2856.8
2844.52
2827.63
2812.85
2800.12
2788.54
2779.11
2773.11
2770.77
2769.92
2769.02
2767
2763.15
2758.25
2753.97
2750.62
2747.76
2745.24
2743.02
2741.07
2739.37
2737.88
2736.57
2735.41
2734.4
2733.54
2732.82
2732.2
2731.63
2731.04
2730.46
2729.94
2729.55
2729.36
2729.32
2729.33
2729.33
2729.32
2729.3
2729.26
2729.16
2728.95
2728.61
2728.12
2727.44
2726.58
2725.52
2724.21
2722.61
2720.69
2718.37
2715.61
2712.36
2708.55
2704.13
2699.07
2693.26
2686.65
2679.17
2670.74
2661.32
2650.82
2639.16
2626.28
2612.04
2596.37
2579.24
2560.57
2540.34
2518.47
2494.89
2469.56
2442.42
2413.32
2382.37
2349.58
2314.96
2278.66
2240.59
2201.2
2160.41
2118.27
2075.41
2030.99
1986.26
1940.57
1894.17
1848.72
1802.83
1757.86
1713.87
1669.93
1628.44
1587.34
1547.9
1510
1473.37
1438.81
1405.63
1374.13
1344.97
1317.11
1291.76
1267.83
1245.79
1224.85
1204.91
1186.12
1168.67
1152.3
1137.78
1124.59
1097.24
2790
2790.01
2790.25
2793.69
2809.53
2836.26
2854.33
2860.95
2859.17
2849.4
2832.88
2817.82
2805.02
2793.44
2783.75
2777.25
2774.5
2773.56
2772.83
2771.31
2768.06
2763.45
2759.22
2756
2753.36
2751.06
2749.05
2747.3
2745.77
2744.44
2743.28
2742.28
2741.42
2740.7
2740.14
2739.7
2739.31
2738.95
2738.6
2738.34
2738.24
2738.33
2738.62
2738.97
2739.33
2739.69
2740.05
2740.41
2740.75
2741.02
2741.17
2741.2
2741.09
2740.81
2740.38
2739.75
2738.84
2737.67
2736.16
2734.26
2731.92
2729.08
2725.69
2721.72
2717.09
2711.72
2705.56
2698.53
2690.58
2681.63
2671.6
2660.42
2648.01
2634.32
2619.32
2602.89
2584.96
2565.4
2544.11
2521.03
2496.13
2469.3
2440.67
2410.22
2378.02
2344.12
2308.35
2270.93
2231.62
2190.86
2148.43
2104.67
2059.31
2013.87
1967.42
1921.11
1875.02
1828.16
1782.67
1736.65
1692.75
1650.02
1608.41
1568.74
1529.68
1492.56
1456.78
1422.37
1390.44
1359.7
1331.67
1305.14
1280.93
1258.43
1237.55
1217.93
1199.18
1181.82
1166.83
1154.04
1131.91
2790
2790
2790.11
2792.13
2804.32
2830.39
2852.69
2861.81
2861.1
2854.24
2838.59
2823.2
2810.28
2798.72
2788.7
2781.56
2778.24
2777.16
2776.58
2775.58
2773.06
2768.89
2764.77
2761.69
2759.25
2757.16
2755.34
2753.75
2752.38
2751.19
2750.18
2749.32
2748.6
2748.03
2747.63
2747.35
2747.15
2747.02
2746.93
2746.93
2747.11
2747.5
2748.08
2748.77
2749.48
2750.2
2750.93
2751.69
2752.45
2753.17
2753.81
2754.35
2754.78
2755.07
2755.23
2755.24
2755.01
2754.58
2753.85
2752.76
2751.31
2749.42
2747.03
2744.14
2740.65
2736.51
2731.66
2726.02
2719.55
2712.17
2703.81
2694.41
2683.88
2672.17
2659.19
2644.8
2628.94
2611.51
2592.44
2571.71
2549.28
2525.09
2499.2
2471.51
2441.95
2410.47
2377.04
2341.87
2304.85
2266.43
2226.21
2184.5
2141.54
2097.08
2051.45
2004.68
1958.36
1910.81
1864.17
1816.6
1769.94
1724.2
1678.31
1634.8
1591.93
1551.1
1512.38
1474.5
1439.15
1404.99
1373.48
1343.39
1315.08
1288.42
1263.69
1240.81
1219.01
1198.23
1179.17
1162.86
1130.57
2790
2790
2790.04
2791.1
2799.72
2823.6
2849.48
2862.09
2862.85
2858.8
2844.52
2828.94
2815.91
2804.27
2793.81
2785.95
2781.97
2780.73
2780.32
2779.85
2778.12
2774.58
2770.66
2767.7
2765.43
2763.52
2761.86
2760.42
2759.19
2758.15
2757.27
2756.54
2755.97
2755.54
2755.29
2755.2
2755.21
2755.3
2755.47
2755.76
2756.22
2756.9
2757.79
2758.81
2759.88
2760.96
2762.06
2763.2
2764.38
2765.55
2766.68
2767.72
2768.68
2769.54
2770.28
2770.89
2771.35
2771.6
2771.64
2771.35
2770.77
2769.8
2768.37
2766.5
2764.1
2761.12
2757.51
2753.18
2748.1
2742.18
2735.38
2727.63
2718.83
2708.93
2697.86
2685.48
2671.8
2656.71
2640.15
2622.07
2602.36
2580.91
2557.72
2532.62
2505.61
2476.71
2445.89
2413.21
2378.56
2342.25
2304.01
2264.43
2223.14
2180.42
2136.66
2091.48
2045.88
1999.18
1952.56
1906.05
1858.76
1812.81
1766.53
1721.9
1678.35
1635.31
1594.79
1554.25
1515.76
1478.37
1443.48
1410.45
1379.15
1349.19
1321.02
1295.14
1271.61
1249.64
1229.34
1210.76
1172.69
2790
2790
2790.01
2790.51
2796
2816.33
2844.48
2861.66
2864.65
2862.52
2850.63
2835.27
2821.95
2809.99
2798.98
2790.46
2785.76
2784.37
2784.17
2784.22
2783.26
2780.48
2776.88
2774.02
2771.88
2770.11
2768.58
2767.27
2766.16
2765.24
2764.49
2763.89
2763.46
2763.19
2763.1
2763.19
2763.42
2763.74
2764.17
2764.75
2765.51
2766.49
2767.68
2769.02
2770.43
2771.86
2773.31
2774.83
2776.41
2778.02
2779.6
2781.14
2782.6
2784
2785.32
2786.54
2787.63
2788.55
2789.28
2789.79
2790.02
2789.94
2789.47
2788.61
2787.26
2785.43
2783.02
2779.99
2776.3
2771.85
2766.61
2760.51
2753.46
2745.41
2736.28
2725.98
2714.47
2701.64
2687.38
2671.63
2654.25
2635.17
2614.37
2591.72
2567.21
2540.84
2512.57
2482.39
2450.28
2416.39
2380.48
2342.93
2303.26
2262.17
2219.41
2175.37
2129.8
2082.94
2035.27
1987.93
1938.77
1890.89
1843.64
1796.93
1751.64
1706.16
1663.42
1620.83
1579.69
1539.64
1501.35
1465.28
1431.1
1398.35
1367.03
1337.69
1311.03
1286.79
1265.8
1247.59
1212.59
2790
2790
2790
2790.2
2793.32
2809.15
2837.92
2860
2865.85
2865.45
2856.87
2842.08
2828.12
2815.6
2804.13
2795.1
2789.72
2788.19
2788.19
2788.7
2788.4
2786.49
2783.31
2780.55
2778.52
2776.87
2775.44
2774.24
2773.24
2772.43
2771.8
2771.35
2771.06
2770.96
2771.06
2771.35
2771.79
2772.36
2773.07
2773.95
2775.01
2776.29
2777.78
2779.44
2781.18
2782.96
2784.77
2786.65
2788.63
2790.66
2792.7
2794.72
2796.69
2798.61
2800.48
2802.29
2804
2805.59
2807.03
2808.29
2809.29
2810.03
2810.46
2810.57
2810.25
2809.51
2808.27
2806.44
2804.03
2800.95
2797.16
2792.6
2787.19
2780.88
2773.59
2765.22
2755.76
2745.07
2733.06
2719.68
2704.8
2688.37
2670.36
2650.62
2629.15
2605.92
2580.86
2553.88
2524.93
2494.02
2461.09
2426.35
2389.49
2351.09
2310.73
2268.96
2225.61
2180.83
2135
2088.11
2039.05
1989.69
1941.52
1892.37
1844.23
1794.38
1746.89
1700.71
1655.97
1612.66
1570.01
1529.58
1491.07
1455.09
1420.95
1388.06
1356.84
1327.37
1301.08
1278.26
1231.72
2790
2790
2790
2790.07
2791.62
2802.72
2829.91
2856.55
2866.27
2868.22
2862.77
2848.98
2834.21
2821.19
2809.53
2800.1
2794.03
2792.22
2792.33
2793.37
2793.65
2792.52
2789.82
2787.21
2785.29
2783.73
2782.38
2781.25
2780.33
2779.64
2779.15
2778.85
2778.74
2778.83
2779.13
2779.61
2780.28
2781.11
2782.1
2783.28
2784.65
2786.23
2788.01
2789.97
2792.03
2794.14
2796.29
2798.53
2800.88
2803.32
2805.8
2808.27
2810.73
2813.15
2815.56
2817.92
2820.23
2822.45
2824.56
2826.52
2828.3
2829.87
2831.16
2832.15
2832.81
2833.11
2833.02
2832.4
2831.29
2829.56
2827.21
2824.17
2820.39
2815.8
2810.32
2803.89
2796.44
2787.86
2778.09
2767.04
2754.62
2740.77
2725.44
2708.48
2689.85
2669.47
2647.22
2623.01
2596.82
2568.64
2538.45
2506.32
2472
2435.91
2397.77
2358.18
2316.74
2273.9
2229.54
2183.55
2136.98
2089.2
2042.31
1993.96
1946.53
1897.28
1849.02
1801.98
1756.02
1711.64
1667.18
1623.88
1581.31
1541.03
1503.35
1467.37
1433.79
1401.82
1373.01
1347.91
1301.17
2790
2790
2790
2790.02
2790.69
2797.59
2821.04
2851.12
2865.97
2870.81
2867.72
2855.51
2840.27
2826.98
2815.26
2805.39
2798.65
2796.4
2796.53
2798.07
2799
2798.46
2796.34
2793.9
2792.03
2790.55
2789.27
2788.21
2787.4
2786.85
2786.52
2786.4
2786.48
2786.78
2787.27
2787.99
2788.9
2790
2791.28
2792.76
2794.43
2796.3
2798.37
2800.62
2803
2805.44
2807.93
2810.51
2813.22
2816.05
2818.95
2821.88
2824.81
2827.73
2830.65
2833.56
2836.44
2839.27
2842.03
2844.68
2847.2
2849.53
2851.66
2853.55
2855.15
2856.41
2857.32
2857.83
2857.94
2857.49
2856.5
2854.9
2852.6
2849.62
2845.84
2841.22
2835.69
2829.15
2821.54
2812.8
2802.81
2791.52
2778.81
2764.54
2748.66
2731.06
2711.65
2690.39
2667.23
2642.13
2615.07
2586.05
2554.9
2521.83
2486.6
2449.57
2410.39
2369.49
2326.36
2281.68
2235.66
2188.71
2140.28
2089.8
2039.09
1988.82
1937.42
1887.79
1838.83
1792.44
1746.29
1700.98
1655.32
1611.64
1569.83
1530
1493.2
1457.52
1424.01
1394.71
1334.62
2790
2790
2790
2790.01
2790.25
2794.01
2812.21
2843.59
2864.96
2872.62
2871.09
2861.86
2846.82
2833.18
2821.25
2810.92
2803.61
2800.77
2800.84
2802.75
2804.42
2804.37
2802.78
2800.47
2798.6
2797.2
2796.05
2795.13
2794.48
2794.09
2793.94
2794
2794.3
2794.79
2795.5
2796.44
2797.6
2798.97
2800.54
2802.31
2804.29
2806.44
2808.78
2811.3
2813.96
2816.72
2819.54
2822.45
2825.5
2828.7
2832.01
2835.37
2838.75
2842.14
2845.55
2848.97
2852.39
2855.8
2859.17
2862.47
2865.68
2868.77
2871.69
2874.41
2876.9
2879.13
2881.08
2882.66
2883.86
2884.65
2884.98
2884.81
2884.01
2882.63
2880.5
2877.66
2873.99
2869.42
2863.92
2857.36
2849.66
2840.76
2830.53
2818.88
2805.79
2791.14
2774.86
2756.91
2737.2
2715.6
2692.09
2666.63
2639.1
2609.52
2577.65
2543.84
2507.9
2470.14
2430.15
2388.7
2345.58
2300.79
2254.1
2205.96
2157.06
2108.88
2058.36
2007.39
1955.03
1904.03
1854.54
1804.77
1755.58
1706.75
1660.56
1615.96
1575.08
1535.88
1499.07
1465.52
1395.3
2790
2790
2790
2790
2790.08
2791.85
2804.44
2834.37
2861.95
2873.33
2873.49
2867.85
2853.7
2839.52
2827.25
2816.62
2808.88
2805.31
2805.15
2807.15
2809.63
2810.06
2808.89
2806.75
2804.92
2803.69
2802.75
2802.04
2801.58
2801.36
2801.37
2801.66
2802.14
2802.86
2803.8
2804.97
2806.38
2808.02
2809.86
2811.93
2814.19
2816.61
2819.2
2821.98
2824.92
2827.98
2831.12
2834.36
2837.74
2841.3
2844.99
2848.77
2852.59
2856.44
2860.32
2864.24
2868.18
2872.14
2876.1
2880.02
2883.9
2887.69
2891.36
2894.89
2898.23
2901.36
2904.25
2906.86
2909.16
2911.09
2912.6
2913.66
2914.25
2914.37
2913.79
2912.63
2910.73
2908.01
2904.5
2900.03
2894.57
2888.03
2880.33
2871.38
2861.12
2849.41
2836.16
2821.3
2804.69
2786.2
2765.82
2743.49
2719.1
2692.61
2663.87
2633.13
2600.21
2565.3
2528.16
2489.26
2448.12
2405.08
2360.03
2313.65
2266.54
2218.51
2169.94
2118.22
2066.28
2014.04
1964.23
1914.97
1866.5
1816.87
1768.31
1719.94
1674.99
1632.7
1594.19
1559.79
1497.57
2790
2790
2790
2790
2790.02
2790.74
2798.43
2824.34
2856.29
2872.98
2875.79
2873
2860.38
2845.81
2833.34
2822.66
2814.44
2809.93
2809.28
2811.11
2814.41
2815.45
2814.68
2812.84
2811.15
2810.15
2809.45
2808.96
2808.68
2808.62
2808.84
2809.31
2810.01
2810.96
2812.13
2813.54
2815.19
2817.07
2819.19
2821.52
2824.04
2826.72
2829.55
2832.56
2835.77
2839.11
2842.56
2846.11
2849.81
2853.7
2857.76
2861.93
2866.16
2870.44
2874.77
2879.15
2883.58
2888.06
2892.56
2897.07
2901.57
2906.03
2910.41
2914.69
2918.83
2922.81
2926.61
2930.19
2933.51
2936.54
2939.24
2941.57
2943.46
2944.91
2945.86
2946.28
2946.14
2945.21
2943.62
2941.14
2937.82
2933.52
2928.19
2921.75
2914.1
2905.1
2894.68
2882.78
2869.24
2853.99
2836.99
2818.12
2797.32
2774.56
2749.67
2722.7
2693.5
2662.3
2628.86
2593.24
2555.1
2515.1
2473.1
2429.29
2383.39
2336.15
2287.5
2237.19
2184.7
2130.55
2077.09
2024.81
1973.66
1920.87
1868.73
1814.34
1763.29
1714.02
1668.07
1627.12
1546.87
2790
2790
2790
2790
2790.01
2790.26
2794.39
2814.6
2848.43
2871.49
2877.84
2876.52
2866.61
2852.29
2839.67
2828.89
2819.88
2814.34
2813.07
2814.61
2818.73
2820.62
2820.27
2818.88
2817.41
2816.6
2816.11
2815.83
2815.73
2815.87
2816.29
2816.97
2817.9
2819.07
2820.47
2822.09
2823.96
2826.09
2828.45
2831.03
2833.79
2836.72
2839.78
2843.02
2846.46
2850.09
2853.83
2857.69
2861.7
2865.91
2870.31
2874.86
2879.49
2884.18
2888.94
2893.76
2898.66
2903.63
2908.66
2913.72
2918.8
2923.89
2928.94
2933.93
2938.82
2943.61
2948.25
2952.73
2957.01
2961.06
2964.83
2968.3
2971.44
2974.19
2976.52
2978.37
2979.7
2980.48
2980.69
2980.13
2978.86
2976.73
2973.62
2969.6
2964.47
2958.14
2950.58
2941.66
2931.29
2919.39
2905.86
2890.58
2873.53
2854.6
2833.62
2810.52
2785.25
2757.96
2728.36
2696.4
2662.01
2625.88
2587.69
2547.2
2504.02
2459.2
2413.22
2366.26
2317.53
2266.71
2214.48
2162.42
2110.86
2059.7
2008.67
1955.64
1904.1
1850.97
1802.49
1759.06
1679.9
2790
2790
2790
2790
2790
2790.08
2792.03
2806.2
2839.04
2868.42
2878.54
2879
2872.53
2859.06
2846
2834.7
2824.88
2818.59
2816.72
2817.94
2822.71
2825.72
2825.86
2824.93
2823.67
2822.96
2822.66
2822.6
2822.76
2823.1
2823.74
2824.64
2825.78
2827.16
2828.76
2830.58
2832.65
2835
2837.58
2840.38
2843.37
2846.51
2849.8
2853.25
2856.92
2860.81
2864.84
2869
2873.3
2877.81
2882.53
2887.42
2892.42
2897.5
2902.66
2907.9
2913.23
2918.65
2924.16
2929.74
2935.37
2941.03
2946.7
2952.35
2957.95
2963.48
2968.91
2974.23
2979.41
2984.41
2989.21
2993.76
2998.04
3002.02
3005.66
3008.92
3011.76
3014.09
3015.9
3017.12
3017.71
3017.72
3016.68
3014.96
3012.22
3008.46
3003.61
2997.54
2990.18
2981.43
2971.17
2959.24
2945.61
2930.17
2912.76
2893.31
2871.75
2848.07
2822.09
2793.88
2763.4
2730.92
2695.97
2658.46
2618.24
2576.14
2532.51
2487.69
2440.85
2391.68
2339.97
2286.45
2232.52
2178.86
2125.31
2071.59
2015.57
1960.15
1906.51
1857.41
1766.27
2790
2790
2790
2790
2790
2790.02
2790.84
2799.79
2829.04
2863.31
2878.01
2881.54
2877.98
2865.58
2851.7
2839.88
2829.65
2822.9
2820.44
2821.29
2826.37
2830.65
2831.43
2830.83
2829.8
2829.2
2829.09
2829.34
2829.74
2830.29
2831.14
2832.25
2833.58
2835.15
2836.92
2838.92
2841.17
2843.7
2846.48
2849.48
2852.67
2856.02
2859.51
2863.18
2867.08
2871.21
2875.53
2879.98
2884.57
2889.37
2894.39
2899.6
2904.96
2910.41
2915.95
2921.58
2927.32
2933.17
2939.13
2945.19
2951.33
2957.54
2963.78
2970.05
2976.31
2982.53
2988.71
2994.8
3000.81
3006.69
3012.41
3017.96
3023.3
3028.4
3033.22
3037.75
3041.92
3045.72
3049.08
3051.96
3054.26
3055.98
3057.05
3057.45
3057.02
3055.68
3053.41
3049.98
3045.45
3039.65
3032.5
3023.86
3013.68
3001.84
2988.26
2972.85
2955.44
2935.98
2914.41
2890.82
2864.93
2836.67
2805.81
2772.71
2737.26
2699.58
2659.58
2617.76
2573.87
2528.01
2479.56
2429.08
2377.01
2324.24
2271.35
2217.62
2163.94
2108.69
2052.86
2001.34
1906.81
2790
2790
2790
2790
2790
2790.01
2790.32
2795.47
2819.42
2856.4
2877.02
2884.02
2881.86
2871.12
2856.93
2844.85
2834.49
2827.34
2824.2
2824.58
2829.64
2835.23
2836.85
2836.55
2835.85
2835.4
2835.47
2836.03
2836.66
2837.43
2838.47
2839.77
2841.26
2842.99
2844.92
2847.06
2849.46
2852.15
2855.1
2858.28
2861.64
2865.18
2868.88
2872.76
2876.88
2881.26
2885.84
2890.57
2895.45
2900.52
2905.82
2911.33
2917.01
2922.81
2928.7
2934.69
2940.81
2947.06
2953.44
2959.93
2966.54
2973.24
2980.02
2986.84
2993.7
3000.56
3007.41
3014.22
3020.98
3027.67
3034.25
3040.72
3047.03
3053.16
3059.09
3064.79
3070.22
3075.35
3080.13
3084.52
3088.48
3091.94
3094.84
3097.12
3098.73
3099.62
3099.8
3098.88
3097.08
3094.15
3090
3084.62
3077.84
3069.58
3059.77
3048.26
3034.85
3019.47
3002.07
2982.64
2960.82
2936.58
2909.92
2881.21
2850.11
2816.35
2779.73
2740.82
2699.91
2657.24
2612.27
2565.22
2515.72
2464.71
2412.37
2359.36
2305.4
2251.8
2194.14
2142.28
2051.4
2790
2790
2790
2790
2790
2790
2790.12
2792.88
2811.14
2848.39
2875.6
2885.47
2884.43
2876
2861.96
2849.74
2839.32
2831.64
2827.73
2827.61
2832.57
2839.46
2842.13
2842.23
2841.86
2841.53
2841.76
2842.57
2843.4
2844.34
2845.55
2847
2848.65
2850.51
2852.58
2854.86
2857.4
2860.23
2863.33
2866.66
2870.2
2873.92
2877.82
2881.92
2886.25
2890.87
2895.71
2900.72
2905.87
2911.2
2916.77
2922.56
2928.54
2934.66
2940.89
2947.22
2953.69
2960.31
2967.08
2973.99
2981.03
2988.19
2995.45
3002.8
3010.21
3017.65
3025.12
3032.59
3040.04
3047.47
3054.83
3062.13
3069.32
3076.39
3083.31
3090.07
3096.63
3102.96
3109.02
3114.78
3120.19
3125.21
3129.8
3133.89
3137.44
3140.33
3142.57
3144.04
3144.72
3144.58
3143.18
3140.86
3137.2
3132.21
3125.82
3117.86
3108.2
3096.75
3083.4
3068.04
3050.52
3030.83
3008.88
2984.76
2958.06
2928.75
2896.66
2862.2
2825.55
2786.87
2745.96
2702.81
2656.89
2608.87
2558.35
2506.7
2453.41
2399.4
2344.18
2288.86
2199.37
2790
2790
2790
2790
2790
2790
2790.04
2791.47
2804.71
2840.17
2873.12
2886.17
2886.24
2880.31
2866.87
2854.43
2843.79
2835.45
2830.93
2830.44
2835.38
2843.5
2847.35
2847.92
2847.77
2847.5
2847.79
2848.79
2849.76
2850.84
2852.2
2853.82
2855.62
2857.64
2859.85
2862.28
2864.95
2867.92
2871.16
2874.64
2878.33
2882.24
2886.34
2890.65
2895.2
2900.05
2905.14
2910.41
2915.82
2921.41
2927.22
2933.27
2939.53
2945.95
2952.48
2959.13
2965.93
2972.89
2980.01
2987.29
2994.72
3002.3
3010
3017.82
3025.72
3033.69
3041.72
3049.78
3057.85
3065.94
3074.01
3082.04
3090.03
3097.94
3105.76
3113.47
3121.05
3128.46
3135.69
3142.69
3149.43
3155.87
3161.96
3167.67
3172.94
3177.72
3181.96
3185.57
3188.45
3190.59
3191.87
3192.33
3191.65
3189.82
3186.8
3182.35
3176.53
3169.1
3159.98
3149
3136.12
3121.26
3104.13
3084.67
3062.68
3038.34
3011.41
2981.95
2949.81
2915.17
2878.14
2838.65
2796.72
2752.56
2705.84
2657.6
2606.8
2555.9
2501.31
2447.98
2364.86
2790
2790
2790
2790
2790
2790
2790.02
2790.76
2800.12
2832.57
2869.61
2886.23
2887.97
2884.06
2871.4
2858.55
2847.53
2838.69
2833.94
2833.27
2838.25
2847.52
2852.47
2853.48
2853.41
2853.13
2853.39
2854.52
2855.62
2856.87
2858.41
2860.2
2862.18
2864.36
2866.73
2869.31
2872.13
2875.23
2878.61
2882.23
2886.08
2890.16
2894.46
2898.97
2903.73
2908.79
2914.12
2919.63
2925.28
2931.1
2937.15
2943.44
2949.96
2956.64
2963.46
2970.41
2977.51
2984.77
2992.22
2999.84
3007.63
3015.58
3023.69
3031.93
3040.28
3048.73
3057.26
3065.85
3074.49
3083.17
3091.87
3100.57
3109.26
3117.93
3126.55
3135.11
3143.58
3151.96
3160.21
3168.31
3176.22
3183.91
3191.35
3198.49
3205.3
3211.73
3217.73
3223.25
3228.21
3232.55
3236.18
3239.04
3241.05
3242.14
3242.36
3241.14
3238.89
3235.14
3229.81
3222.88
3214.17
3203.55
3190.78
3175.82
3158.53
3139.04
3116.95
3092.23
3064.58
3034.28
3001.37
2965.84
2927.93
2887.3
2844.19
2798.54
2750.36
2700.63
2647.85
2592.47
2516.48
2790
2790
2790
2790
2790
2790
2790.01
2790.41
2797.06
2826.13
2865.79
2885.97
2889.68
2887.17
2875.21
2861.88
2850.56
2841.52
2836.87
2836.17
2841.24
2851.53
2857.4
2858.73
2858.61
2858.28
2858.54
2859.81
2861.09
2862.52
2864.26
2866.25
2868.41
2870.77
2873.32
2876.06
2879.02
2882.24
2885.75
2889.5
2893.49
2897.74
2902.22
2906.92
2911.87
2917.12
2922.65
2928.38
2934.25
2940.29
2946.55
2953.06
2959.81
2966.74
2973.82
2981.04
2988.41
2995.96
3003.7
3011.63
3019.75
3028.04
3036.5
3045.12
3053.87
3062.74
3071.72
3080.78
3089.92
3099.12
3108.37
3117.66
3126.98
3136.3
3145.62
3154.92
3164.19
3173.42
3182.57
3191.63
3200.57
3209.36
3217.98
3226.39
3234.55
3242.44
3250.01
3257.2
3263.97
3270.25
3276
3281.13
3285.59
3289.23
3292.05
3293.89
3294.77
3294.6
3292.79
3289.89
3285.3
3279.06
3271.03
3261.09
3249.05
3234.81
3218.09
3198.89
3176.87
3152.29
3124.86
3094.76
3062.03
3026.42
2988.37
2947.18
2903.52
2856.88
2807.5
2752.94
2680.8
2790
2790
2790
2790
2790
2790
2790
2790.24
2795.15
2821.15
2862.29
2885.72
2891.32
2889.52
2878.15
2864.5
2853.05
2844.07
2839.68
2839.04
2844.32
2855.55
2862.03
2863.51
2863.34
2862.99
2863.37
2864.81
2866.32
2867.95
2869.91
2872.11
2874.46
2876.99
2879.7
2882.58
2885.67
2889.01
2892.63
2896.5
2900.62
2905.01
2909.65
2914.52
2919.62
2925.03
2930.74
2936.66
2942.73
2948.96
2955.41
2962.13
2969.09
2976.25
2983.57
2991.03
2998.65
3006.46
3014.47
3022.68
3031.08
3039.68
3048.46
3057.41
3066.52
3075.77
3085.14
3094.62
3104.19
3113.85
3123.59
3133.4
3143.26
3153.16
3163.09
3173.04
3183
3192.96
3202.89
3212.79
3222.62
3232.36
3242
3251.5
3260.84
3269.99
3278.9
3287.55
3295.89
3303.87
3311.43
3318.53
3325.09
3331.07
3336.38
3340.94
3344.61
3347.42
3349.16
3349.88
3349.29
3347.14
3343.57
3338.15
3330.86
3321.45
3309.79
3295.77
3279.09
3259.8
3237.38
3212.16
3183.78
3152.47
3118.23
3080.62
3040.3
2996.55
2950.24
2898.35
2830.25
2790
2790
2790
2790
2790
2790
2790
2790.17
2794.04
2817.69
2859.54
2885.71
2892.82
2891.17
2880.33
2866.51
2855.05
2846.33
2842.25
2841.77
2847.48
2859.55
2866.35
2867.86
2867.68
2867.4
2868.01
2869.67
2871.43
2873.29
2875.45
2877.84
2880.37
2883.05
2885.9
2888.9
2892.1
2895.55
2899.27
2903.25
2907.49
2912
2916.77
2921.77
2927.01
2932.56
2938.42
2944.5
2950.75
2957.15
2963.78
2970.67
2977.82
2985.19
2992.72
3000.41
3008.26
3016.3
3024.55
3033.01
3041.67
3050.54
3059.6
3068.85
3078.28
3087.85
3097.56
3107.41
3117.36
3127.43
3137.59
3147.84
3158.17
3168.56
3179.02
3189.53
3200.08
3210.66
3221.26
3231.87
3242.46
3253.02
3263.53
3273.96
3284.3
3294.52
3304.58
3314.48
3324.16
3333.58
3342.71
3351.49
3359.89
3367.84
3375.3
3382.19
3388.43
3393.96
3398.63
3402.37
3405.09
3406.67
3407.13
3405.88
3403.21
3398.74
3392.3
3383.81
3372.95
3359.64
3343.42
3324.48
3302.23
3277.06
3248.44
3216.31
3180.63
3140.64
3097.49
3047.97
2983.35
2790
2790
2790
2790
2790
2790
2790
2790.14
2793.56
2815.78
2858
2885.99
2894.03
2892.42
2881.86
2867.97
2856.6
2848.25
2844.49
2844.29
2850.78
2863.6
2870.5
2871.91
2871.7
2871.58
2872.49
2874.43
2876.44
2878.5
2880.86
2883.42
2886.09
2888.9
2891.86
2894.97
2898.26
2901.81
2905.63
2909.71
2914.06
2918.67
2923.55
2928.66
2934.01
2939.68
2945.66
2951.89
2958.29
2964.85
2971.63
2978.69
2986.02
2993.57
3001.3
3009.19
3017.24
3025.5
3033.96
3042.64
3051.53
3060.64
3069.96
3079.47
3089.17
3099.03
3109.05
3119.21
3129.49
3139.9
3150.43
3161.06
3171.79
3182.62
3193.53
3204.51
3215.56
3226.68
3237.85
3249.06
3260.3
3271.55
3282.79
3294.01
3305.19
3316.31
3327.34
3338.28
3349.08
3359.72
3370.16
3380.37
3390.3
3399.92
3409.18
3418.02
3426.39
3434.22
3441.46
3448
3453.79
3458.66
3462.6
3465.42
3467.07
3467.53
3466.09
3463.16
3458.11
3450.85
3441.12
3428.73
3413.1
3394.46
3371.93
3345.84
3314.98
3279.11
3238.88
3191.53
3129.34
2790
2790
2790
2790
2790
2790
2790
2790.13
2793.44
2815.39
2857.78
2886.55
2895.05
2893.38
2882.77
2868.88
2857.63
2849.73
2846.35
2846.62
2854.38
2867.81
2874.6
2875.77
2875.51
2875.56
2876.78
2879.02
2881.25
2883.5
2886.02
2888.72
2891.52
2894.44
2897.5
2900.71
2904.11
2907.76
2911.69
2915.87
2920.32
2925.03
2930
2935.2
2940.65
2946.42
2952.52
2958.88
2965.41
2972.11
2979.04
2986.25
2993.73
3001.45
3009.35
3017.42
3025.66
3034.1
3042.76
3051.64
3060.74
3070.06
3079.6
3089.35
3099.28
3109.4
3119.68
3130.11
3140.68
3151.39
3162.23
3173.19
3184.27
3195.46
3206.75
3218.14
3229.62
3241.19
3252.84
3264.56
3276.34
3288.17
3300.02
3311.9
3323.78
3335.65
3347.5
3359.3
3371.03
3382.68
3394.2
3405.58
3416.78
3427.78
3438.53
3449.01
3459.15
3468.92
3478.27
3487.13
3495.44
3503.13
3510.08
3516.22
3521.36
3525.5
3528.33
3529.88
3530.09
3527.99
3524.37
3518.33
3509.7
3498.45
3483.76
3465.99
3442.97
3414.85
3379.65
3336.63
3277.82
2790
2790
2790
2790
2790
2790
2790
2790.14
2793.55
2815.93
2858.8
2887.6
2895.99
2894.11
2883.1
2869.22
2858.1
2850.77
2847.82
2848.83
2858.46
2872.26
2878.69
2879.53
2879.16
2879.35
2880.86
2883.36
2885.75
2888.16
2890.8
2893.63
2896.54
2899.58
2902.75
2906.07
2909.59
2913.36
2917.4
2921.68
2926.22
2931.02
2936.07
2941.36
2946.9
2952.78
2959
2965.47
2972.13
2978.96
2986.02
2993.36
3000.99
3008.86
3016.92
3025.15
3033.56
3042.17
3051
3060.06
3069.34
3078.86
3088.6
3098.55
3108.71
3119.05
3129.56
3140.23
3151.05
3162.02
3173.13
3184.38
3195.76
3207.26
3218.88
3230.62
3242.46
3254.42
3266.47
3278.63
3290.87
3303.18
3315.55
3327.98
3340.45
3352.95
3365.46
3377.98
3390.48
3402.95
3415.37
3427.71
3439.95
3452.06
3464.03
3475.83
3487.41
3498.75
3509.8
3520.52
3530.85
3540.75
3550.16
3559
3567.2
3574.67
3581.34
3586.98
3591.68
3595
3597.01
3597.51
3595.67
3591.86
3585.26
3575.97
3562.36
3544.39
3517.67
3485.15
3436.42
2790
2790
2790
2790
2790
2790
2790
2790.17
2794.01
2818.01
2861.36
2889.06
2896.77
2894.61
2882.98
2869.08
2858.09
2851.41
2849.02
2851.13
2863
2876.84
2882.71
2883.21
2882.74
2883.02
2884.76
2887.43
2889.91
2892.43
2895.19
2898.13
2901.16
2904.32
2907.62
2911.08
2914.73
2918.63
2922.78
2927.16
2931.78
2936.67
2941.8
2947.17
2952.81
2958.8
2965.12
2971.71
2978.48
2985.42
2992.6
3000.07
3007.83
3015.83
3024.03
3032.4
3040.96
3049.72
3058.71
3067.93
3077.39
3087.08
3097
3107.14
3117.49
3128.03
3138.74
3149.63
3160.68
3171.88
3183.23
3194.72
3206.36
3218.14
3230.04
3242.08
3254.25
3266.53
3278.94
3291.47
3304.1
3316.83
3329.64
3342.54
3355.5
3368.53
3381.6
3394.71
3407.85
3421.01
3434.16
3447.28
3460.37
3473.4
3486.35
3499.21
3511.94
3524.53
3536.93
3549.14
3561.1
3572.79
3584.17
3595.18
3605.77
3615.89
3625.44
3634.36
3642.52
3649.82
3656.04
3661.23
3664.98
3667.27
3667.98
3666.32
3662.38
3654.89
3640.66
3623.25
3592.65
2790
2790
2790
2790
2790
2790
2790
2790.23
2795
2821.46
2864.96
2890.72
2897.27
2894.75
2882.32
2868.47
2857.75
2851.78
2850.09
2853.84
2867.95
2881.28
2886.44
2886.72
2886.21
2886.6
2888.56
2891.31
2893.81
2896.41
2899.26
2902.3
2905.44
2908.72
2912.15
2915.75
2919.54
2923.57
2927.82
2932.3
2937.02
2941.99
2947.22
2952.68
2958.42
2964.51
2970.95
2977.64
2984.51
2991.55
2998.84
3006.43
3014.3
3022.42
3030.74
3039.25
3047.94
3056.84
3065.98
3075.34
3084.95
3094.8
3104.89
3115.2
3125.72
3136.44
3147.34
3158.42
3169.67
3181.07
3192.63
3204.35
3216.22
3228.24
3240.4
3252.71
3265.15
3277.73
3290.45
3303.3
3316.27
3329.36
3342.55
3355.85
3369.23
3382.7
3396.25
3409.86
3423.53
3437.25
3451
3464.77
3478.54
3492.31
3506.05
3519.75
3533.4
3546.97
3560.44
3573.8
3587.01
3600.05
3612.9
3625.52
3637.86
3649.89
3661.56
3672.83
3683.64
3693.94
3703.62
3712.63
3720.79
3727.93
3734.03
3738.66
3742.06
3743.28
3741.41
3736.2
3726.11
2790
2790
2790
2790
2790
2790
2790.01
2790.35
2796.61
2826.23
2869.35
2892.53
2897.55
2894.24
2881.15
2867.5
2857.25
2852.05
2851.21
2857.34
2873.3
2885.45
2889.7
2889.93
2889.49
2890.07
2892.3
2895.08
2897.57
2900.23
2903.16
2906.28
2909.51
2912.91
2916.46
2920.19
2924.1
2928.23
2932.59
2937.16
2941.97
2947.04
2952.35
2957.9
2963.74
2969.94
2976.48
2983.26
2990.21
2997.34
3004.73
3012.41
3020.39
3028.62
3037.05
3045.67
3054.48
3063.51
3072.78
3082.28
3092.03
3102.03
3112.27
3122.74
3133.42
3144.31
3155.38
3166.63
3178.05
3189.64
3201.4
3213.31
3225.39
3237.63
3250.02
3262.56
3275.25
3288.09
3301.08
3314.22
3327.49
3340.9
3354.42
3368.07
3381.82
3395.67
3409.62
3423.66
3437.78
3451.97
3466.21
3480.51
3494.83
3509.18
3523.54
3537.91
3552.25
3566.57
3580.84
3595.05
3609.17
3623.2
3637.09
3650.85
3664.43
3677.82
3690.96
3703.85
3716.4
3728.57
3740.31
3751.55
3762.21
3772.22
3781.43
3789.82
3797.14
3803.19
3807.87
3809.73
3811.94
2790
2790
2790
2790
2790
2790
2790.01
2790.59
2799.03
2832.24
2874.13
2894.3
2897.7
2893.05
2879.3
2866.22
2856.82
2852.44
2852.55
2861.84
2878.87
2889.32
2892.44
2892.69
2892.45
2893.35
2895.92
2898.71
2901.21
2903.92
2906.93
2910.1
2913.42
2916.91
2920.57
2924.4
2928.42
2932.66
2937.13
2941.81
2946.72
2951.88
2957.27
2962.91
2968.84
2975.14
2981.77
2988.61
2995.63
3002.83
3010.3
3018.07
3026.14
3034.46
3042.99
3051.71
3060.62
3069.76
3079.15
3088.78
3098.66
3108.79
3119.17
3129.78
3140.61
3151.65
3162.87
3174.28
3185.86
3197.62
3209.55
3221.64
3233.91
3246.34
3258.93
3271.68
3284.59
3297.66
3310.89
3324.27
3337.8
3351.47
3365.28
3379.22
3393.27
3407.45
3421.73
3436.12
3450.6
3465.17
3479.81
3494.52
3509.28
3524.08
3538.91
3553.76
3568.62
3583.47
3598.29
3613.07
3627.79
3642.44
3656.99
3671.44
3685.73
3699.85
3713.75
3727.44
3740.83
3753.92
3766.64
3778.89
3790.55
3801.56
3811.85