/*--------------------------------*- C++ -*----------------------------------*\
| =========                 |                                                 |
| \\      /  F ield         | OpenFOAM: The Open Source CFD Toolbox           |
|  \\    /   O peration     | Version:  2412                                  |
|   \\  /    A nd           | Website:  www.openfoam.com                      |
|    \\/     M anipulation  |                                                 |
\*---------------------------------------------------------------------------*/
FoamFile
{
    version     2.0;
    format      ascii;
    arch        "LSB;label=32;scalar=64";
    class       volScalarField;
    location    "0.022";
    object      T;
}
// * * * * * * * * * * * * * * * * * * * * * * * * * * * * * * * * * * * * * //

dimensions      [0 0 0 1 0 0 0];

internalField   nonuniform List<scalar> 
78650
(
223
223
223
223
223
223
223
223
223
223
223
223
223
223
223
223
223
223.001
223.015
223.154
223.613
224.212
224.532
224.64
224.578
224.307
223.913
223.558
223.254
222.984
222.771
222.639
222.587
222.562
222.529
222.466
222.374
222.28
222.204
222.139
222.071
222.001
221.934
221.876
221.829
221.791
221.762
221.739
221.719
221.7
221.683
221.668
221.654
221.643
221.634
221.625
221.618
221.611
221.606
221.601
221.595
221.588
221.577
221.562
221.544
221.522
221.494
221.459
221.417
221.366
221.304
221.23
221.143
221.042
220.923
220.786
220.628
220.446
220.238
220.001
219.73
219.423
219.075
218.682
218.241
217.746
217.196
216.584
215.91
215.16
214.332
213.406
212.397
211.284
210.099
208.808
207.412
205.918
204.308
202.631
200.859
198.984
197.011
194.994
192.938
190.813
188.667
186.584
184.683
182.888
181.049
179.362
177.712
176.084
174.632
173.328
172.241
171.391
170.9
170.706
169.35
223
223
223
223
223
223
223
223
223
223
223
223
223
223
223
223
223
223
223.008
223.104
223.498
224.116
224.521
224.666
224.623
224.403
224.019
223.659
223.352
223.08
222.86
222.718
222.66
222.635
222.607
222.553
222.467
222.374
222.299
222.237
222.174
222.109
222.046
221.992
221.948
221.914
221.889
221.87
221.854
221.84
221.827
221.815
221.807
221.8
221.796
221.793
221.791
221.791
221.792
221.794
221.796
221.797
221.796
221.792
221.784
221.774
221.758
221.737
221.71
221.675
221.631
221.576
221.51
221.431
221.336
221.226
221.096
220.946
220.773
220.573
220.344
220.082
219.783
219.443
219.059
218.626
218.142
217.6
216.995
216.316
215.561
214.717
213.796
212.778
211.682
210.474
209.178
207.771
206.253
204.638
202.935
201.179
199.327
197.425
195.417
193.35
191.286
189.186
187.062
185.136
183.19
181.28
179.483
177.757
176.159
174.715
173.524
172.548
171.824
171.368
169.643
223
223
223
223
223
223
223
223
223
223
223
223
223
223
223
223
223
223
223.004
223.067
223.387
224
224.49
224.683
224.658
224.493
224.131
223.765
223.454
223.179
222.953
222.8
222.733
222.707
222.683
222.637
222.56
222.469
222.394
222.336
222.279
222.219
222.161
222.111
222.07
222.04
222.019
222.004
221.992
221.982
221.973
221.966
221.961
221.96
221.96
221.963
221.967
221.972
221.98
221.989
222
222.009
222.017
222.023
222.026
222.027
222.024
222.016
222.004
221.984
221.957
221.921
221.874
221.816
221.745
221.66
221.557
221.437
221.295
221.131
220.939
220.718
220.464
220.172
219.84
219.463
219.039
218.56
218.025
217.423
216.753
216.006
215.186
214.278
213.292
212.198
211.011
209.705
208.292
206.764
205.106
203.345
201.49
199.603
197.634
195.607
193.523
191.483
189.301
187.18
185.159
183.148
181.267
179.458
177.711
176.09
174.727
173.624
172.877
172.437
170.569
223
223
223
223
223
223
223
223
223
223
223
223
223
223
223
223
223
223
223.002
223.04
223.285
223.866
224.432
224.689
224.688
224.581
224.248
223.879
223.562
223.285
223.051
222.884
222.806
222.777
222.755
222.719
222.653
222.566
222.493
222.439
222.388
222.334
222.28
222.234
222.196
222.17
222.152
222.14
222.133
222.126
222.121
222.118
222.118
222.121
222.126
222.133
222.143
222.154
222.168
222.184
222.202
222.22
222.237
222.252
222.266
222.277
222.286
222.291
222.292
222.288
222.277
222.258
222.23
222.193
222.144
222.082
222.006
221.914
221.804
221.672
221.518
221.337
221.127
220.883
220.603
220.282
219.917
219.504
219.038
218.511
217.924
217.265
216.535
215.718
214.819
213.816
212.728
211.532
210.242
208.842
207.326
205.69
203.949
202.086
200.148
198.14
196.056
193.951
191.826
189.569
187.454
185.28
183.171
181.17
179.204
177.409
175.897
174.637
173.753
173.229
171.345
223
223
223
223
223
223
223
223
223
223
223
223
223
223
223
223
223
223
223.001
223.022
223.197
223.72
224.344
224.684
224.721
224.659
224.365
223.998
223.678
223.397
223.153
222.971
222.878
222.845
222.826
222.8
222.747
222.668
222.596
222.546
222.501
222.453
222.405
222.362
222.328
222.304
222.289
222.281
222.277
222.274
222.272
222.273
222.277
222.284
222.294
222.307
222.322
222.339
222.359
222.382
222.407
222.433
222.459
222.484
222.507
222.529
222.55
222.567
222.581
222.591
222.595
222.594
222.584
222.566
222.538
222.499
222.448
222.382
222.3
222.201
222.08
221.936
221.766
221.566
221.333
221.063
220.753
220.399
219.998
219.543
219.032
218.454
217.807
217.075
216.264
215.357
214.368
213.275
212.087
210.787
209.376
207.859
206.229
204.473
202.611
200.638
198.638
196.478
194.395
192.179
190.003
187.843
185.623
183.529
181.39
179.413
177.66
176.133
174.946
174.124
171.627
223
223
223
223
223
223
223
223
223
223
223
223
223
223
223
223
223
223
223
223.011
223.126
223.568
224.225
224.661
224.753
224.72
224.485
224.131
223.803
223.513
223.257
223.059
222.95
222.913
222.898
222.881
222.844
222.774
222.706
222.659
222.62
222.578
222.535
222.495
222.464
222.443
222.43
222.425
222.424
222.425
222.427
222.432
222.44
222.451
222.466
222.483
222.503
222.526
222.552
222.582
222.614
222.648
222.682
222.716
222.748
222.781
222.812
222.842
222.869
222.892
222.911
222.924
222.932
222.933
222.926
222.909
222.881
222.84
222.786
222.716
222.629
222.521
222.39
222.232
222.046
221.826
221.571
221.276
220.938
220.551
220.112
219.61
219.043
218.399
217.681
216.878
215.997
215.017
213.941
212.749
211.445
210.028
208.488
206.828
205.045
203.148
201.115
198.995
196.809
194.617
192.307
190.109
187.813
185.625
183.485
181.47
179.684
178.124
176.931
176.079
173.504
223
223
223
223
223
223
223
223
223
223
223
223
223
223
223
223
223
223
223
223.005
223.073
223.421
224.078
224.611
224.767
224.771
224.606
224.272
223.931
223.629
223.36
223.15
223.025
222.983
222.972
222.964
222.941
222.885
222.822
222.778
222.744
222.709
222.67
222.634
222.605
222.586
222.575
222.572
222.574
222.579
222.585
222.593
222.605
222.621
222.64
222.662
222.688
222.716
222.748
222.784
222.823
222.864
222.907
222.949
222.992
223.034
223.076
223.117
223.156
223.193
223.226
223.255
223.279
223.297
223.308
223.312
223.306
223.29
223.262
223.22
223.163
223.088
222.993
222.874
222.73
222.556
222.351
222.11
221.83
221.506
221.135
220.709
220.225
219.674
219.057
218.362
217.591
216.722
215.758
214.684
213.504
212.213
210.795
209.26
207.606
205.853
203.897
201.853
199.705
197.509
195.143
192.795
190.375
187.895
185.515
183.179
181.073
179.239
177.894
177.028
174.276
223
223
223
223
223
223
223
223
223
223
223
223
223
223
223
223
223
223
223
223.002
223.038
223.289
223.904
224.527
224.768
224.824
224.719
224.415
224.059
223.744
223.468
223.248
223.107
223.059
223.05
223.049
223.041
223.001
222.945
222.904
222.875
222.845
222.811
222.777
222.75
222.732
222.722
222.721
222.727
222.735
222.744
222.757
222.773
222.793
222.816
222.843
222.874
222.908
222.946
222.988
223.033
223.082
223.133
223.184
223.235
223.287
223.339
223.391
223.442
223.491
223.538
223.581
223.621
223.656
223.685
223.708
223.723
223.729
223.726
223.712
223.684
223.64
223.58
223.499
223.396
223.267
223.111
222.922
222.699
222.436
222.131
221.777
221.371
220.903
220.373
219.767
219.085
218.308
217.443
216.477
215.407
214.223
212.916
211.502
209.958
208.283
206.501
204.552
202.522
200.401
198.161
195.847
193.546
191.112
188.676
186.263
183.921
181.849
180.1
178.796
175.355
223
223
223
223
223
223
223
223
223
223
223
223
223
223
223
223
223
223
223
223.001
223.018
223.18
223.714
224.403
224.758
224.873
224.811
224.549
224.187
223.864
223.584
223.354
223.197
223.139
223.131
223.138
223.142
223.118
223.071
223.033
223.008
222.984
222.954
222.922
222.896
222.88
222.871
222.871
222.88
222.892
222.906
222.922
222.942
222.967
222.995
223.027
223.063
223.102
223.146
223.194
223.246
223.302
223.36
223.42
223.48
223.541
223.602
223.665
223.727
223.788
223.848
223.905
223.96
224.01
224.057
224.099
224.134
224.161
224.18
224.19
224.19
224.176
224.148
224.101
224.036
223.947
223.835
223.694
223.523
223.317
223.074
222.787
222.454
222.066
221.62
221.104
220.517
219.846
219.098
218.256
217.316
216.264
215.093
213.812
212.385
210.825
209.119
207.29
205.28
203.092
200.846
198.484
196.125
193.629
191.124
188.713
186.329
184.275
182.589
181.292
177.878
223
223
223
223
223
223
223
223
223
223
223
223
223
223
223
223
223
223
223
223
223.007
223.101
223.525
224.238
224.73
224.907
224.874
224.677
224.325
223.995
223.709
223.467
223.296
223.224
223.215
223.231
223.246
223.236
223.198
223.164
223.143
223.123
223.098
223.068
223.043
223.027
223.02
223.021
223.033
223.049
223.067
223.088
223.113
223.142
223.174
223.211
223.252
223.298
223.347
223.4
223.459
223.521
223.587
223.655
223.723
223.793
223.864
223.936
224.009
224.082
224.154
224.224
224.293
224.359
224.421
224.48
224.534
224.582
224.623
224.656
224.68
224.694
224.697
224.684
224.655
224.606
224.536
224.441
224.32
224.169
223.984
223.76
223.495
223.181
222.815
222.386
221.896
221.333
220.699
219.974
219.156
218.233
217.198
216.048
214.756
213.351
211.808
210.12
208.282
206.257
204.157
201.842
199.389
196.779
194.053
191.431
188.708
186.251
184.178
182.636
178.528
223
223
223
223
223
223
223
223
223
223
223
223
223
223
223
223
223
223
223
223
223.003
223.05
223.354
224.038
224.66
224.919
224.919
224.798
224.472
224.132
223.837
223.586
223.402
223.315
223.303
223.324
223.352
223.35
223.323
223.291
223.272
223.257
223.237
223.211
223.187
223.173
223.167
223.171
223.185
223.205
223.229
223.255
223.285
223.318
223.355
223.397
223.443
223.494
223.549
223.608
223.672
223.741
223.814
223.89
223.966
224.045
224.125
224.206
224.289
224.373
224.456
224.539
224.621
224.701
224.779
224.854
224.926
224.993
225.054
225.109
225.157
225.197
225.225
225.243
225.247
225.234
225.203
225.151
225.075
224.973
224.843
224.678
224.478
224.235
223.947
223.604
223.206
222.739
222.204
221.582
220.874
220.067
219.153
218.123
216.966
215.694
214.267
212.696
210.972
209.115
207.107
204.952
202.589
200.222
197.662
195.156
192.464
189.971
187.641
185.741
181.147
223
223
223
223
223
223
223
223
223
223
223
223
223
223
223
223
223
223
223
223
223.001
223.022
223.216
223.818
224.534
224.909
224.964
224.903
224.618
224.272
223.97
223.714
223.519
223.412
223.392
223.413
223.453
223.461
223.442
223.412
223.395
223.386
223.374
223.352
223.331
223.317
223.314
223.319
223.337
223.361
223.39
223.422
223.456
223.494
223.536
223.583
223.634
223.69
223.75
223.815
223.885
223.961
224.04
224.123
224.207
224.294
224.382
224.472
224.565
224.659
224.753
224.848
224.942
225.036
225.128
225.218
225.306
225.391
225.472
225.547
225.617
225.681
225.737
225.782
225.816
225.837
225.843
225.832
225.8
225.746
225.666
225.557
225.416
225.238
225.02
224.754
224.438
224.061
223.621
223.103
222.51
221.827
221.045
220.156
219.148
218.024
216.746
215.333
213.755
212.018
210.097
207.989
205.673
203.228
200.63
197.804
195.054
192.491
190.245
188.511
184.218
223
223
223
223
223
223
223
223
223
223
223
223
223
223
223
223
223
223
223
223
223
223.008
223.118
223.599
224.36
224.871
225.006
224.977
224.753
224.417
224.11
223.85
223.638
223.508
223.475
223.492
223.545
223.565
223.553
223.527
223.513
223.51
223.506
223.491
223.473
223.461
223.459
223.468
223.488
223.517
223.551
223.589
223.628
223.671
223.717
223.768
223.824
223.886
223.952
224.022
224.098
224.179
224.265
224.354
224.446
224.54
224.637
224.735
224.837
224.94
225.045
225.151
225.257
225.363
225.469
225.573
225.677
225.778
225.876
225.971
226.061
226.147
226.226
226.298
226.361
226.412
226.45
226.473
226.482
226.471
226.438
226.381
226.296
226.179
226.028
225.836
225.6
225.309
224.964
224.55
224.07
223.507
222.857
222.109
221.251
220.276
219.16
217.919
216.517
214.954
213.209
211.294
209.224
206.906
204.528
201.699
198.887
195.932
193.157
190.875
185.667
223
223
223
223
223
223
223
223
223
223
223
223
223
223
223
223
223
223
223
223
223
223.003
223.057
223.403
224.148
224.798
225.018
225.03
224.883
224.57
224.254
223.983
223.752
223.6
223.552
223.564
223.628
223.665
223.66
223.642
223.631
223.633
223.637
223.629
223.614
223.605
223.604
223.618
223.64
223.673
223.713
223.756
223.8
223.847
223.898
223.954
224.015
224.081
224.152
224.228
224.309
224.395
224.487
224.583
224.682
224.783
224.886
224.993
225.103
225.215
225.33
225.446
225.563
225.68
225.798
225.916
226.034
226.15
226.265
226.378
226.487
226.593
226.694
226.79
226.879
226.959
227.029
227.087
227.13
227.158
227.17
227.162
227.128
227.068
226.977
226.851
226.687
226.477
226.219
225.901
225.524
225.071
224.538
223.911
223.181
222.338
221.367
220.272
219.014
217.597
215.999
214.236
212.287
210.154
207.784
205.25
202.492
199.931
197.308
195.1
190
223
223
223
223
223
223
223
223
223
223
223
223
223
223
223
223
223
223
223
223
223
223.001
223.025
223.247
223.917
224.678
225.004
225.084
225.003
224.721
224.389
224.104
223.86
223.695
223.63
223.635
223.703
223.762
223.768
223.758
223.748
223.754
223.766
223.765
223.755
223.749
223.752
223.769
223.795
223.832
223.876
223.923
223.972
224.023
224.079
224.139
224.204
224.275
224.351
224.432
224.517
224.609
224.706
224.808
224.913
225.021
225.132
225.246
225.363
225.484
225.607
225.733
225.86
225.989
226.118
226.248
226.379
226.51
226.64
226.768
226.895
227.02
227.142
227.259
227.372
227.478
227.576
227.664
227.741
227.805
227.854
227.887
227.901
227.895
227.861
227.798
227.701
227.566
227.389
227.16
226.877
226.526
226.105
225.6
225.004
224.306
223.495
222.562
221.473
220.238
218.835
217.264
215.469
213.461
211.228
208.765
206.038
203.252
200.254
197.791
192.521
223
223
223
223
223
223
223
223
223
223
223
223
223
223
223
223
223
223
223
223
223
223
223.009
223.138
223.687
224.511
224.976
225.136
225.088
224.853
224.516
224.223
223.972
223.794
223.71
223.706
223.773
223.857
223.878
223.873
223.864
223.873
223.895
223.902
223.898
223.895
223.903
223.922
223.951
223.991
224.039
224.09
224.143
224.199
224.258
224.322
224.392
224.467
224.547
224.633
224.723
224.819
224.921
225.028
225.14
225.254
225.371
225.492
225.616
225.745
225.876
226.01
226.147
226.285
226.425
226.567
226.71
226.853
226.997
227.141
227.284
227.425
227.565
227.703
227.838
227.968
228.091
228.208
228.315
228.413
228.499
228.571
228.627
228.665
228.682
228.679
228.643
228.576
228.472
228.324
228.13
227.877
227.566
227.181
226.716
226.161
225.502
224.725
223.811
222.766
221.553
220.164
218.561
216.771
214.76
212.532
210.104
207.436
204.564
201.978
196.493
223
223
223
223
223
223
223
223
223
223
223
223
223
223
223
223
223
223
223
223
223
223
223.003
223.071
223.483
224.31
224.933
225.163
225.144
224.969
224.642
224.343
224.087
223.895
223.789
223.774
223.838
223.947
223.988
223.988
223.982
223.993
224.025
224.041
224.042
224.043
224.053
224.074
224.106
224.149
224.2
224.256
224.313
224.372
224.435
224.503
224.577
224.656
224.741
224.831
224.925
225.025
225.132
225.244
225.361
225.481
225.604
225.731
225.862
225.997
226.136
226.279
226.424
226.571
226.721
226.873
227.027
227.183
227.339
227.496
227.654
227.811
227.968
228.124
228.278
228.429
228.576
228.717
228.852
228.979
229.098
229.205
229.3
229.381
229.443
229.486
229.507
229.507
229.469
229.398
229.285
229.123
228.911
228.633
228.287
227.856
227.328
226.694
225.938
225.053
223.997
222.773
221.358
219.758
217.92
215.842
213.517
210.968
208.267
205.817
200.98
223
223
223
223
223
223
223
223
223
223
223
223
223
223
223
223
223
223
223
223
223
223
223.001
223.033
223.32
224.096
224.854
225.17
225.183
225.073
224.767
224.461
224.196
223.987
223.867
223.841
223.901
224.033
224.099
224.106
224.101
224.114
224.152
224.178
224.185
224.188
224.2
224.224
224.258
224.303
224.358
224.417
224.479
224.542
224.61
224.682
224.759
224.843
224.931
225.025
225.124
225.228
225.338
225.454
225.576
225.701
225.83
225.963
226.1
226.241
226.387
226.537
226.69
226.846
227.004
227.166
227.329
227.496
227.664
227.833
228.004
228.175
228.347
228.519
228.691
228.861
229.029
229.193
229.353
229.507
229.654
229.793
229.923
230.042
230.147
230.237
230.306
230.355
230.38
230.381
230.341
230.264
230.14
229.961
229.723
229.41
229.016
228.53
227.935
227.217
226.348
225.333
224.141
222.756
221.129
219.266
217.127
214.74
212.166
209.436
204.528
223
223
223
223
223
223
223
223
223
223
223
223
223
223
223
223
223
223
223
223
223
223
223
223.015
223.202
223.888
224.739
225.158
225.225
225.164
224.885
224.566
224.293
224.072
223.944
223.91
223.966
224.117
224.208
224.222
224.218
224.231
224.273
224.308
224.32
224.327
224.341
224.367
224.403
224.451
224.509
224.573
224.64
224.708
224.779
224.855
224.937
225.024
225.116
225.214
225.316
225.424
225.538
225.658
225.784
225.914
226.048
226.186
226.329
226.476
226.628
226.784
226.944
227.108
227.275
227.445
227.618
227.793
227.972
228.153
228.335
228.519
228.705
228.891
229.079
229.266
229.452
229.637
229.818
229.996
230.169
230.337
230.497
230.649
230.791
230.921
231.037
231.136
231.214
231.269
231.297
231.299
231.256
231.17
231.032
230.833
230.566
230.218
229.771
229.216
228.529
227.706
226.705
225.514
224.101
222.465
220.572
218.489
216.097
213.679
209.375
223
223
223
223
223
223
223
223
223
223
223
223
223
223
223
223
223
223
223
223
223
223
223
223.007
223.125
223.703
224.604
225.133
225.269
225.231
224.984
224.658
224.38
224.154
224.023
223.983
224.032
224.197
224.31
224.331
224.326
224.339
224.385
224.428
224.446
224.456
224.472
224.5
224.54
224.59
224.653
224.722
224.794
224.867
224.943
225.023
225.108
225.199
225.295
225.396
225.502
225.613
225.731
225.855
225.985
226.12
226.259
226.401
226.549
226.701
226.859
227.021
227.188
227.358
227.532
227.71
227.891
228.076
228.263
228.454
228.647
228.842
229.04
229.239
229.441
229.643
229.846
230.048
230.249
230.448
230.644
230.836
231.024
231.206
231.38
231.546
231.701
231.844
231.971
232.081
232.166
232.228
232.259
232.261
232.214
232.119
231.962
231.734
231.422
231.015
230.49
229.834
229.011
228.019
226.826
225.404
223.72
221.769
219.497
217.037
213.149
223
223
223
223
223
223
223
223
223
223
223
223
223
223
223
223
223
223
223
223
223
223
223
223.003
223.077
223.552
224.467
225.104
225.303
225.278
225.064
224.738
224.46
224.235
224.099
224.053
224.095
224.268
224.401
224.43
224.426
224.44
224.489
224.54
224.564
224.577
224.595
224.626
224.668
224.722
224.789
224.863
224.94
225.018
225.098
225.182
225.271
225.366
225.465
225.57
225.68
225.795
225.916
226.044
226.178
226.317
226.46
226.608
226.76
226.917
227.08
227.248
227.42
227.596
227.777
227.962
228.15
228.342
228.538
228.737
228.94
229.145
229.354
229.565
229.778
229.994
230.211
230.429
230.647
230.864
231.08
231.294
231.506
231.714
231.917
232.114
232.303
232.484
232.653
232.808
232.948
233.069
233.163
233.23
233.265
233.266
233.208
233.097
232.914
232.652
232.289
231.813
231.193
230.422
229.453
228.264
226.831
225.123
223.164
220.831
217.45
223
223
223
223
223
223
223
223
223
223
223
223
223
223
223
223
223
223
223
223
223
223
223
223.002
223.049
223.437
224.34
225.074
225.325
225.311
225.131
224.811
224.535
224.312
224.168
224.115
224.15
224.332
224.482
224.522
224.521
224.537
224.591
224.649
224.677
224.693
224.713
224.746
224.791
224.848
224.918
224.996
225.078
225.16
225.244
225.332
225.425
225.523
225.627
225.736
225.85
225.969
226.093
226.225
226.363
226.506
226.654
226.805
226.961
227.123
227.291
227.463
227.641
227.823
228.009
228.2
228.395
228.594
228.797
229.004
229.215
229.429
229.647
229.868
230.092
230.32
230.549
230.781
231.013
231.247
231.48
231.713
231.945
232.175
232.403
232.627
232.847
233.06
233.265
233.461
233.646
233.816
233.968
234.1
234.203
234.277
234.314
234.314
234.245
234.117
233.899
233.587
233.148
232.573
231.81
230.85
229.64
228.143
226.386
224.223
221.163
223
223
223
223
223
223
223
223
223
223
223
223
223
223
223
223
223
223
223
223
223
223
223
223.001
223.033
223.356
224.236
225.046
225.339
225.338
225.188
224.876
224.602
224.378
224.224
224.168
224.2
224.394
224.561
224.612
224.617
224.637
224.695
224.758
224.79
224.807
224.828
224.863
224.909
224.968
225.041
225.123
225.208
225.293
225.381
225.473
225.57
225.672
225.78
225.893
226.011
226.134
226.262
226.397
226.539
226.686
226.838
226.993
227.153
227.319
227.491
227.668
227.85
228.037
228.229
228.425
228.626
228.831
229.04
229.254
229.472
229.694
229.92
230.15
230.384
230.621
230.862
231.105
231.35
231.598
231.846
232.095
232.345
232.594
232.843
233.09
233.335
233.576
233.813
234.044
234.266
234.479
234.68
234.865
235.032
235.177
235.289
235.369
235.407
235.399
235.309
235.148
234.875
234.485
233.928
233.198
232.218
230.967
229.436
227.493
224.749
223
223
223
223
223
223
223
223
223
223
223
223
223
223
223
223
223
223
223
223
223
223
223
223.001
223.025
223.304
224.161
225.024
225.347
225.364
225.233
224.931
224.656
224.428
224.27
224.214
224.249
224.459
224.641
224.703
224.713
224.737
224.8
224.868
224.902
224.919
224.94
224.976
225.024
225.084
225.159
225.243
225.331
225.419
225.51
225.605
225.706
225.812
225.924
226.041
226.164
226.291
226.423
226.562
226.707
226.858
227.013
227.173
227.337
227.506
227.682
227.863
228.049
228.24
228.437
228.638
228.844
229.054
229.269
229.489
229.714
229.942
230.176
230.413
230.655
230.901
231.151
231.404
231.661
231.919
232.181
232.444
232.708
232.974
233.241
233.508
233.774
234.039
234.302
234.562
234.817
235.066
235.307
235.538
235.757
235.96
236.142
236.3
236.422
236.508
236.546
236.527
236.417
236.218
235.882
235.407
234.695
233.725
232.403
230.652
228.131
223
223
223
223
223
223
223
223
223
223
223
223
223
223
223
223
223
223
223
223
223
223
223
223.001
223.022
223.279
224.12
225.017
225.358
225.389
225.268
224.97
224.693
224.464
224.307
224.254
224.3
224.53
224.722
224.791
224.807
224.835
224.904
224.975
225.01
225.027
225.048
225.085
225.134
225.196
225.272
225.358
225.448
225.539
225.632
225.731
225.835
225.945
226.061
226.182
226.308
226.439
226.576
226.718
226.867
227.022
227.18
227.343
227.511
227.684
227.863
228.048
228.238
228.433
228.633
228.839
229.049
229.265
229.485
229.71
229.939
230.174
230.414
230.658
230.907
231.16
231.418
231.68
231.946
232.215
232.487
232.762
233.039
233.319
233.601
233.884
234.168
234.453
234.738
235.022
235.304
235.584
235.859
236.128
236.39
236.642
236.881
237.102
237.303
237.476
237.611
237.702
237.739
237.701
237.547
237.278
236.811
236.129
235.062
233.61
231.299
223
223
223
223
223
223
223
223
223
223
223
223
223
223
223
223
223
223
223
223
223
223
223
223
223.021
223.275
224.114
225.024
225.375
225.412
225.289
224.992
224.715
224.488
224.339
224.293
224.358
224.608
224.803
224.875
224.895
224.928
225.002
225.074
225.109
225.127
225.15
225.188
225.239
225.303
225.382
225.47
225.562
225.655
225.75
225.851
225.958
226.072
226.191
226.316
226.446
226.581
226.721
226.867
227.02
227.178
227.34
227.505
227.676
227.853
228.035
228.223
228.417
228.615
228.819
229.029
229.244
229.463
229.688
229.917
230.152
230.392
230.637
230.887
231.142
231.402
231.667
231.936
232.21
232.488
232.769
233.054
233.342
233.634
233.928
234.225
234.525
234.826
235.129
235.434
235.738
236.043
236.346
236.647
236.944
237.236
237.522
237.796
238.058
238.301
238.522
238.71
238.854
238.946
238.974
238.906
238.708
238.332
237.579
236.54
234.477
223
223
223
223
223
223
223
223
223
223
223
223
223
223
223
223
223
223
223
223
223
223
223
223.001
223.023
223.286
224.143
225.05
225.399
225.431
225.296
224.995
224.722
224.505
224.368
224.333
224.425
224.696
224.885
224.952
224.974
225.012
225.092
225.164
225.199
225.218
225.244
225.286
225.341
225.408
225.49
225.581
225.674
225.768
225.865
225.968
226.078
226.194
226.316
226.444
226.578
226.716
226.859
227.009
227.165
227.326
227.491
227.66
227.833
228.013
228.198
228.39
228.587
228.789
228.996
229.209
229.428
229.651
229.879
230.113
230.352
230.597
230.846
231.101
231.362
231.628
231.899
232.175
232.456
232.741
233.03
233.324
233.621
233.923
234.228
234.537
234.849
235.165
235.483
235.804
236.127
236.452
236.779
237.105
237.432
237.757
238.079
238.397
238.708
239.009
239.298
239.568
239.816
240.025
240.186
240.281
240.305
240.173
239.775
239.197
237.689
223
223
223
223
223
223
223
223
223
223
223
223
223
223
223
223
223
223
223
223
223
223
223
223.001
223.027
223.32
224.208
225.096
225.427
225.445
225.291
224.982
224.714
224.513
224.395
224.376
224.505
224.792
224.968
225.024
225.047
225.09
225.176
225.246
225.28
225.301
225.332
225.379
225.439
225.512
225.598
225.691
225.786
225.881
225.979
226.083
226.194
226.312
226.437
226.568
226.704
226.845
226.991
227.144
227.303
227.467
227.634
227.806
227.983
228.165
228.354
228.548
228.748
228.953
229.164
229.38
229.602
229.829
230.061
230.299
230.542
230.791
231.045
231.305
231.57
231.841
232.118
232.399
232.686
232.978
233.274
233.576
233.881
234.191
234.506
234.825
235.148
235.476
235.807
236.142
236.481
236.823
237.168
237.516
237.866
238.217
238.57
238.922
239.272
239.619
239.961
240.294
240.615
240.915
241.187
241.41
241.594
241.69
241.671
241.439
240.703
223
223
223
223
223
223
223
223
223
223
223
223
223
223
223
223
223
223
223
223
223
223
223
223.001
223.036
223.378
224.303
225.154
225.457
225.455
225.275
224.957
224.692
224.513
224.418
224.421
224.597
224.895
225.052
225.096
225.117
225.166
225.256
225.323
225.356
225.38
225.417
225.47
225.536
225.614
225.705
225.802
225.897
225.992
226.091
226.195
226.308
226.428
226.554
226.687
226.825
226.968
227.117
227.272
227.434
227.601
227.771
227.946
228.125
228.31
228.502
228.699
228.902
229.11
229.324
229.543
229.768
229.999
230.234
230.475
230.722
230.975
231.233
231.497
231.767
232.043
232.325
232.612
232.904
233.202
233.505
233.813
234.126
234.443
234.766
235.094
235.427
235.765
236.107
236.454
236.806
237.162
237.523
237.888
238.257
238.63
239.006
239.385
239.765
240.148
240.529
240.909
241.285
241.654
242.01
242.343
242.65
242.911
243.145
243.216
243.136
223
223
223
223
223
223
223
223
223
223
223
223
223
223
223
223
223
223
223
223
223
223
223
223.002
223.051
223.461
224.425
225.217
225.485
225.463
225.249
224.923
224.662
224.507
224.437
224.468
224.702
224.999
225.136
225.167
225.188
225.245
225.336
225.399
225.431
225.458
225.501
225.56
225.632
225.716
225.812
225.91
226.006
226.101
226.2
226.305
226.418
226.539
226.667
226.801
226.941
227.086
227.237
227.395
227.559
227.728
227.901
228.078
228.26
228.448
228.642
228.842
229.048
229.259
229.476
229.698
229.927
230.16
230.399
230.643
230.893
231.15
231.412
231.68
231.954
232.234
232.521
232.813
233.11
233.413
233.722
234.036
234.355
234.68
235.01
235.345
235.686
236.033
236.385
236.742
237.105
237.473
237.847
238.226
238.61
239
239.394
239.793
240.197
240.605
241.015
241.428
241.842
242.256
242.663
243.062
243.444
243.82
244.164
244.413
244.664
223
223
223
223
223
223
223
223
223
223
223
223
223
223
223
223
223
223
223
223
223
223
223
223.003
223.077
223.574
224.565
225.28
225.505
225.466
225.214
224.883
224.629
224.497
224.453
224.525
224.811
225.096
225.213
225.235
225.259
225.326
225.416
225.474
225.505
225.535
225.584
225.648
225.726
225.816
225.915
226.015
226.112
226.207
226.306
226.412
226.525
226.647
226.775
226.911
227.052
227.198
227.351
227.512
227.678
227.849
228.024
228.203
228.388
228.578
228.775
228.978
229.186
229.4
229.62
229.845
230.077
230.313
230.555
230.802
231.056
231.316
231.582
231.854
232.132
232.416
232.707
233.003
233.306
233.614
233.928
234.247
234.572
234.903
235.24
235.582
235.93
236.284
236.644
237.01
237.382
237.76
238.144
238.533
238.929
239.331
239.739
240.153
240.572
240.996
241.424
241.857
242.292
242.729
243.162
243.591
244.004
244.412
244.78
245.09
245.364
223
223
223
223
223
223
223
223
223
223
223
223
223
223
223
223
223
223
223
223
223
223
223
223.006
223.117
223.715
224.716
225.338
225.512
225.458
225.171
224.841
224.602
224.489
224.471
224.597
224.923
225.181
225.277
225.296
225.327
225.405
225.493
225.545
225.575
225.609
225.663
225.733
225.816
225.911
226.014
226.114
226.211
226.306
226.406
226.513
226.627
226.749
226.879
227.015
227.157
227.305
227.46
227.622
227.79
227.963
228.14
228.321
228.508
228.702
228.901
229.106
229.317
229.534
229.756
229.984
230.218
230.457
230.702
230.953
231.21
231.473
231.742
232.017
232.299
232.587
232.882
233.183
233.489
233.802
234.12
234.445
234.775
235.111
235.454
235.802
236.156
236.517
236.883
237.256
237.635
238.02
238.412
238.81
239.214
239.624
240.04
240.461
240.888
241.32
241.754
242.193
242.632
243.072
243.501
243.921
244.323
244.714
245.046
245.292
245.49
223
223
223
223
223
223
223
223
223
223
223
223
223
223
223
223
223
223
223
223
223
223
223
223.011
223.177
223.882
224.866
225.393
225.51
225.429
225.119
224.799
224.584
224.49
224.496
224.689
225.036
225.256
225.329
225.349
225.391
225.478
225.562
225.608
225.638
225.677
225.737
225.812
225.9
226
226.105
226.206
226.303
226.4
226.5
226.608
226.724
226.847
226.977
227.113
227.256
227.406
227.562
227.726
227.896
228.07
228.249
228.433
228.622
228.817
229.019
229.227
229.44
229.66
229.885
230.116
230.352
230.594
230.841
231.095
231.355
231.621
231.893
232.172
232.457
232.749
233.047
233.352
233.662
233.979
234.302
234.63
234.965
235.306
235.653
236.006
236.365
236.731
237.102
237.48
237.865
238.255
238.651
239.054
239.462
239.876
240.295
240.718
241.145
241.575
242.006
242.438
242.863
243.283
243.689
244.079
244.425
244.741
244.991
245.147
245.206
223
223
223
223
223
223
223
223
223
223
223
223
223
223
223
223
223
223
223
223
223
223
223.001
223.022
223.262
224.068
225.007
225.439
225.506
225.38
225.052
224.755
224.576
224.501
224.536
224.8
225.145
225.325
225.375
225.397
225.452
225.545
225.623
225.663
225.694
225.738
225.804
225.884
225.978
226.082
226.188