/*--------------------------------*- C++ -*----------------------------------*\
| =========                 |                                                 |
| \\      /  F ield         | OpenFOAM: The Open Source CFD Toolbox           |
|  \\    /   O peration     | Version:  2412                                  |
|   \\  /    A nd           | Website:  www.openfoam.com                      |
|    \\/     M anipulation  |                                                 |
\*---------------------------------------------------------------------------*/
FoamFile
{
    version     2.0;
    format      ascii;
    arch        "LSB;label=32;scalar=64";
    class       volVectorField;
    location    "0.022";
    object      U;
}
// * * * * * * * * * * * * * * * * * * * * * * * * * * * * * * * * * * * * * //

dimensions      [0 1 -1 0 0 0 0];

internalField   nonuniform List<vector> 
78650
(
(210 1.05026e-12 0)
(210 6.49825e-12 0)
(210 -9.92934e-14 0)
(210 9.44977e-12 0)
(210 1.37496e-11 0)
(210 -1.60033e-12 0)
(210 -5.35822e-12 0)
(210 5.71128e-12 0)
(210 8.76866e-12 0)
(210 1.59157e-12 0)
(210 -3.82697e-12 0)
(210 7.23378e-12 0)
(210 7.70563e-12 0)
(210 7.37494e-12 0)
(210 2.6791e-10 0)
(210 3.31904e-08 0)
(210 3.42354e-06 0)
(209.998 0.000333773 0)
(209.953 0.0131246 0)
(209.521 0.169257 0)
(208.125 0.775641 0)
(206.362 1.65162 0)
(205.246 2.23108 0)
(205.135 2.38662 0)
(205.235 2.42101 0)
(206.038 2.24721 0)
(207.18 1.85943 0)
(208.288 1.6217 0)
(209.198 1.40073 0)
(210.069 1.30635 0)
(210.797 1.26064 0)
(211.288 1.39731 0)
(211.527 1.67287 0)
(211.717 2.02033 0)
(211.932 2.40058 0)
(212.216 2.77949 0)
(212.585 3.15136 0)
(212.954 3.56241 0)
(213.271 4.0425 0)
(213.572 4.5688 0)
(213.874 5.11106 0)
(214.168 5.66484 0)
(214.45 6.23863 0)
(214.696 6.84836 0)
(214.921 7.49569 0)
(215.108 8.18768 0)
(215.27 8.92167 0)
(215.43 9.68488 0)
(215.553 10.4792 0)
(215.655 11.2967 0)
(215.747 12.1352 0)
(215.823 13.0025 0)
(215.882 13.9033 0)
(215.925 14.8394 0)
(215.954 15.8118 0)
(215.972 16.8212 0)
(215.978 17.8686 0)
(215.972 18.9552 0)
(215.956 20.082 0)
(215.931 21.2492 0)
(215.901 22.4548 0)
(215.867 23.6975 0)
(215.834 24.9756 0)
(215.802 26.2907 0)
(215.772 27.645 0)
(215.746 29.0398 0)
(215.728 30.4742 0)
(215.725 31.9508 0)
(215.74 33.4697 0)
(215.774 35.032 0)
(215.841 36.6402 0)
(215.936 38.2945 0)
(216.072 39.9963 0)
(216.255 41.7468 0)
(216.487 43.547 0)
(216.786 45.3988 0)
(217.146 47.3029 0)
(217.594 49.2604 0)
(218.12 51.2707 0)
(218.759 53.3327 0)
(219.505 55.4448 0)
(220.381 57.6046 0)
(221.404 59.808 0)
(222.583 62.0504 0)
(223.953 64.3256 0)
(225.504 66.6355 0)
(227.294 68.9683 0)
(229.271 71.3268 0)
(231.551 73.6625 0)
(234.016 75.9942 0)
(236.884 78.2368 0)
(239.924 80.4847 0)
(243.482 82.5549 0)
(247.18 84.6591 0)
(251.449 86.4639 0)
(255.905 88.2789 0)
(260.889 89.8 0)
(266.244 91.1816 0)
(272.023 92.225 0)
(278.2 93.0096 0)
(284.485 93.4253 0)
(291.261 93.5186 0)
(297.813 93.2962 0)
(305.103 92.6618 0)
(311.957 91.6322 0)
(318.806 90.3629 0)
(326.094 88.7646 0)
(333.12 86.9461 0)
(339.412 85.4084 0)
(345.425 83.5142 0)
(350.228 81.8821 0)
(355.139 79.9906 0)
(360.022 78.1486 0)
(364.987 76.0564 0)
(369.739 73.2905 0)
(372.409 70.8544 0)
(374.386 68.5376 0)
(376.51 67.6101 0)
(380.725 66.9872 0)
(387.515 66.1165 0)
(389.978 70.0683 0)
(210 4.35547e-12 0)
(210 8.49683e-12 0)
(210 8.96349e-13 0)
(210 1.08457e-11 0)
(210 7.21528e-12 0)
(210 4.23554e-12 0)
(210 3.17915e-12 0)
(210 7.20322e-12 0)
(210 -7.5928e-13 0)
(210 -6.39924e-12 0)
(210 -3.59946e-12 0)
(210 8.0927e-12 0)
(210 4.14235e-12 0)
(210 1.0704e-11 0)
(210 5.22611e-11 0)
(210 7.90012e-09 0)
(210 9.71895e-07 0)
(209.999 0.00012262 0)
(209.974 0.00646473 0)
(209.672 0.106323 0)
(208.461 0.596909 0)
(206.62 1.46583 0)
(205.285 2.11062 0)
(205.066 2.32227 0)
(205.049 2.42865 0)
(205.722 2.33231 0)
(206.844 1.96096 0)
(207.963 1.70248 0)
(208.876 1.46761 0)
(209.757 1.36521 0)
(210.497 1.2984 0)
(211.012 1.40619 0)
(211.257 1.66356 0)
(211.438 2.00511 0)
(211.63 2.3892 0)
(211.878 2.77833 0)
(212.218 3.15678 0)
(212.577 3.56035 0)
(212.887 4.02937 0)
(213.173 4.54712 0)
(213.452 5.08248 0)
(213.726 5.6264 0)
(213.991 6.18739 0)
(214.22 6.7823 0)
(214.429 7.41394 0)
(214.594 8.09151 0)
(214.743 8.80967 0)
(214.881 9.55932 0)
(214.979 10.3413 0)
(215.062 11.1448 0)
(215.135 11.9694 0)
(215.189 12.823 0)
(215.225 13.7094 0)
(215.243 14.6312 0)
(215.248 15.5882 0)
(215.239 16.5819 0)
(215.217 17.6129 0)
(215.182 18.6816 0)
(215.135 19.7898 0)
(215.077 20.9382 0)
(215.011 22.1242 0)
(214.939 23.3476 0)
(214.865 24.6049 0)
(214.79 25.898 0)
(214.714 27.2293 0)
(214.637 28.6012 0)
(214.566 30.0121 0)
(214.505 31.465 0)
(214.455 32.9606 0)
(214.42 34.4989 0)
(214.412 36.0834 0)
(214.425 37.7144 0)
(214.472 39.3931 0)
(214.559 41.1218 0)
(214.687 42.901 0)
(214.872 44.7335 0)
(215.108 46.6203 0)
(215.422 48.5636 0)
(215.802 50.5634 0)
(216.281 52.6202 0)
(216.854 54.7327 0)
(217.543 56.9004 0)
(218.362 59.1214 0)
(219.323 61.3933 0)
(220.457 63.7109 0)
(221.759 66.073 0)
(223.281 68.4682 0)
(224.981 70.8961 0)
(226.968 73.3254 0)
(229.139 75.7744 0)
(231.696 78.182 0)
(234.432 80.6053 0)
(237.651 82.9051 0)
(241.005 85.229 0)
(244.913 87.3204 0)
(248.922 89.4463 0)
(253.451 91.2692 0)
(258.192 93.0348 0)
(263.371 94.5208 0)
(268.922 95.8001 0)
(274.788 96.7863 0)
(281.048 97.472 0)
(287.409 97.7778 0)
(294.265 97.8154 0)
(301.323 97.425 0)
(308.502 96.6244 0)
(315.803 95.6323 0)
(323.079 94.0985 0)
(329.044 92.8146 0)
(335.54 91.0811 0)
(341.472 89.2476 0)
(346.856 87.5016 0)
(352.777 85.4719 0)
(358.071 83.6203 0)
(363.177 81.4188 0)
(366.769 79.2438 0)
(369.46 76.4498 0)
(371.543 74.4202 0)
(375.719 73.1288 0)
(383.563 72.0524 0)
(386.842 76.3196 0)
(210 4.04511e-12 0)
(210 6.48626e-12 0)
(210 -2.40919e-12 0)
(210 6.09303e-12 0)
(210 5.21446e-12 0)
(210 3.57177e-12 0)
(210 1.12215e-13 0)
(210 -8.17002e-12 0)
(210 -2.35785e-13 0)
(210 -2.62071e-12 0)
(210 1.86485e-12 0)
(210 8.49125e-12 0)
(210 3.64054e-12 0)
(210 8.94717e-12 0)
(210 2.29078e-11 0)
(210 3.74746e-09 0)
(210 3.89499e-07 0)
(210 4.52512e-05 0)
(209.986 0.00297865 0)
(209.789 0.0628666 0)
(208.798 0.440593 0)
(206.956 1.26615 0)
(205.386 1.97585 0)
(204.997 2.26299 0)
(204.889 2.43261 0)
(205.413 2.39339 0)
(206.481 2.03858 0)
(207.607 1.7554 0)
(208.531 1.50439 0)
(209.422 1.39077 0)
(210.18 1.30152 0)
(210.729 1.378 0)
(210.993 1.62122 0)
(211.17 1.96242 0)
(211.338 2.35363 0)
(211.549 2.75526 0)
(211.851 3.14375 0)
(212.196 3.5415 0)
(212.5 3.99989 0)
(212.77 4.50901 0)
(213.026 5.03733 0)
(213.281 5.57159 0)
(213.527 6.12038 0)
(213.74 6.70121 0)
(213.932 7.31843 0)
(214.077 7.98287 0)
(214.212 8.68632 0)
(214.327 9.42426 0)
(214.401 10.1949 0)
(214.466 10.9858 0)
(214.519 11.7985 0)
(214.551 12.6402 0)
(214.563 13.514 0)
(214.557 14.4231 0)
(214.537 15.3654 0)
(214.5 16.3458 0)
(214.45 17.3622 0)
(214.386 18.4154 0)
(214.307 19.5075 0)
(214.216 20.6387 0)
(214.113 21.8082 0)
(214.003 23.0128 0)
(213.887 24.2522 0)
(213.768 25.527 0)
(213.646 26.8387 0)
(213.519 28.1914 0)
(213.394 29.5815 0)
(213.275 31.012 0)
(213.161 32.4861 0)
(213.06 34.0019 0)
(212.978 35.5638 0)
(212.912 37.1725 0)
(212.876 38.8277 0)
(212.871 40.5331 0)
(212.901 42.2886 0)
(212.979 44.0976 0)
(213.101 45.9608 0)
(213.29 47.8814 0)
(213.534 49.859 0)
(213.867 51.8956 0)
(214.279 53.9895 0)
(214.796 56.141 0)
(215.426 58.3492 0)
(216.181 60.6126 0)
(217.089 62.928 0)
(218.146 65.2933 0)
(219.401 67.7013 0)
(220.82 70.1533 0)
(222.498 72.6338 0)
(224.345 75.1569 0)
(226.541 77.6805 0)
(228.906 80.2383 0)
(231.722 82.732 0)
(234.69 85.26 0)
(238.214 87.638 0)
(241.882 90.0651 0)
(246.153 92.2211 0)
(250.618 94.3559 0)
(255.575 96.1994 0)
(260.886 97.89 0)
(266.602 99.2625 0)
(272.616 100.371 0)
(279.023 101.145 0)
(285.183 101.697 0)
(292.193 101.918 0)
(298.832 101.698 0)
(305.417 101.26 0)
(312.635 100.389 0)
(319.503 99.125 0)
(326.391 97.7409 0)
(334.365 95.7864 0)
(340.912 93.7686 0)
(347.964 91.3281 0)
(353.772 89.1245 0)
(358.129 87.3832 0)
(361.504 85.5557 0)
(363.956 83.4912 0)
(366.459 81.7443 0)
(371.116 80.0975 0)
(379.645 78.7232 0)
(382.864 83.3573 0)
(210 9.70351e-12 0)
(210 8.26282e-12 0)
(210 5.36066e-12 0)
(210 3.35849e-12 0)
(210 5.74501e-12 0)
(210 -2.4688e-12 0)
(210 -8.89582e-12 0)
(210 -9.6969e-12 0)
(210 9.01488e-13 0)
(210 5.62416e-12 0)
(210 7.17162e-12 0)
(210 8.04085e-12 0)
(210 5.21202e-12 0)
(210 1.34374e-13 0)
(210 -3.94144e-12 0)
(210 6.30163e-10 0)
(210 7.46348e-08 0)
(210 1.19018e-05 0)
(209.993 0.00118102 0)
(209.873 0.0335877 0)
(209.105 0.302852 0)
(207.335 1.04741 0)
(205.557 1.82378 0)
(204.954 2.20569 0)
(204.748 2.40264 0)
(205.116 2.42097 0)
(206.112 2.1201 0)
(207.242 1.82753 0)
(208.179 1.55635 0)
(209.082 1.43521 0)
(209.856 1.3356 0)
(210.433 1.38976 0)
(210.72 1.61947 0)
(210.896 1.95666 0)
(211.046 2.34593 0)
(211.22 2.74914 0)
(211.48 3.14234 0)
(211.805 3.53141 0)
(212.102 3.97475 0)
(212.356 4.47102 0)
(212.588 4.98965 0)
(212.822 5.51308 0)
(213.047 6.04947 0)
(213.244 6.61559 0)
(213.419 7.21832 0)
(213.545 7.86864 0)
(213.668 8.55635 0)
(213.757 9.28256 0)
(213.81 10.0396 0)
(213.86 10.8168 0)
(213.892 11.6173 0)
(213.902 12.4456 0)
(213.892 13.3036 0)
(213.864 14.1977 0)
(213.818 15.1269 0)
(213.757 16.0905 0)
(213.681 17.0894 0)
(213.589 18.1245 0)
(213.481 19.1972 0)
(213.358 20.3082 0)
(213.221 21.4565 0)
(213.075 22.6403 0)
(212.922 23.8578 0)
(212.762 25.1097 0)
(212.596 26.3982 0)
(212.424 27.724 0)
(212.249 29.089 0)
(212.077 30.4936 0)
(211.903 31.9433 0)
(211.739 33.4317 0)
(211.588 34.9643 0)
(211.447 36.5456 0)
(211.332 38.1726 0)
(211.238 39.8512 0)
(211.174 41.5794 0)
(211.148 43.362 0)
(211.158 45.1994 0)
(211.225 47.0958 0)
(211.335 49.0514 0)
(211.523 51.0695 0)
(211.776 53.1487 0)
(212.119 55.2907 0)
(212.562 57.496 0)
(213.114 59.7642 0)
(213.8 62.0941 0)
(214.621 64.4836 0)
(215.623 66.9288 0)
(216.777 69.4309 0)
(218.169 71.9811 0)
(219.719 74.5859 0)
(221.588 77.2099 0)
(223.615 79.8683 0)
(226.056 82.4885 0)
(228.643 85.1372 0)
(231.745 87.6838 0)
(234.967 90.2664 0)
(238.776 92.6532 0)
(242.743 95.0571 0)
(247.264 97.2097 0)
(252.078 99.283 0)
(257.365 101.104 0)
(263.129 102.735 0)
(269.335 104.055 0)
(275.823 104.939 0)
(282.672 105.578 0)
(289.761 105.853 0)
(296.689 105.709 0)
(303.528 105.504 0)
(311.595 104.558 0)
(318.192 103.604 0)
(326.184 102.125 0)
(332.886 100.685 0)
(339.364 99.042 0)
(346.117 97.0168 0)
(352.011 94.841 0)
(357.193 92.2524 0)
(360.377 89.9837 0)
(363.015 88.4326 0)
(367.842 86.7681 0)
(376.54 85.1834 0)
(379.993 89.6802 0)
(210 1.55178e-11 0)
(210 2.61365e-12 0)
(210 7.31118e-12 0)
(210 1.08646e-11 0)
(210 1.01253e-11 0)
(210 -6.6389e-12 0)
(210 -1.208e-11 0)
(210 2.31457e-15 0)
(210 -7.66783e-13 0)
(210 -9.53582e-13 0)
(210 1.04745e-12 0)
(210 8.18418e-12 0)
(210 2.78826e-12 0)
(210 -2.59179e-12 0)
(210 -9.8585e-13 0)
(210 1.40421e-10 0)
(210 1.35257e-08 0)
(210 2.46045e-06 0)
(209.997 0.000410622 0)
(209.93 0.016217 0)
(209.377 0.193326 0)
(207.771 0.828068 0)
(205.832 1.64902 0)
(204.93 2.1374 0)
(204.611 2.33989 0)
(204.851 2.42652 0)
(205.739 2.199 0)
(206.848 1.88491 0)
(207.8 1.58074 0)
(208.718 1.4465 0)
(209.511 1.34041 0)
(210.125 1.37598 0)
(210.448 1.59599 0)
(210.626 1.9319 0)
(210.757 2.31917 0)
(210.894 2.72235 0)
(211.104 3.12155 0)
(211.401 3.50462 0)
(211.69 3.93274 0)
(211.929 4.41506 0)
(212.137 4.92288 0)
(212.35 5.43506 0)
(212.554 5.95906 0)
(212.736 6.51032 0)
(212.891 7.09901 0)
(213.003 7.73486 0)
(213.112 8.40776 0)
(213.173 9.12286 0)
(213.21 9.86566 0)
(213.242 10.6312 0)
(213.252 11.4209 0)
(213.242 12.2345 0)
(213.207 13.0833 0)
(213.155 13.9642 0)
(213.086 14.8783 0)
(212.999 15.8265 0)
(212.895 16.8093 0)
(212.774 17.8274 0)
(212.636 18.8819 0)
(212.481 19.974 0)
(212.31 21.103 0)
(212.127 22.2668 0)
(211.934 23.464 0)
(211.733 24.6948 0)
(211.523 25.9609 0)
(211.303 27.2646 0)
(211.077 28.6068 0)
(210.848 29.9892 0)
(210.619 31.4108 0)
(210.394 32.8738 0)
(210.176 34.3806 0)
(209.959 35.9383 0)
(209.768 37.535 0)
(209.588 39.1856 0)
(209.435 40.8847 0)
(209.311 42.6387 0)
(209.217 44.4468 0)
(209.17 46.3135 0)
(209.158 48.2391 0)
(209.212 50.2276 0)
(209.319 52.2777 0)
(209.507 54.3916 0)
(209.778 56.5701 0)
(210.145 58.8135 0)
(210.628 61.1221 0)
(211.228 63.4948 0)
(211.985 65.9308 0)
(212.878 68.4308 0)
(213.98 70.9913 0)
(215.22 73.6134 0)
(216.743 76.2752 0)
(218.409 78.9837 0)
(220.458 81.6968 0)
(222.65 84.4569 0)
(225.33 87.1778 0)
(228.144 89.9446 0)
(231.533 92.5852 0)
(235.066 95.2565 0)
(239.187 97.7382 0)
(243.557 100.182 0)
(248.39 102.416 0)
(253.603 104.482 0)
(259.245 106.298 0)
(265.46 107.882 0)
(271.801 108.97 0)
(278.984 109.912 0)
(286.295 110.23 0)
(293.308 110.235 0)
(301.383 109.981 0)
(308.63 109.26 0)
(315.686 108.407 0)
(322.969 107.085 0)
(329.306 105.869 0)
(336.56 104.219 0)
(343.281 102.416 0)
(349.237 100.037 0)
(353.423 97.2459 0)
(356.215 95.0774 0)
(360.762 93.8712 0)
(370.419 92.3161 0)
(373.793 97.9784 0)
(210 1.00421e-12 0)
(210 -7.77244e-12 0)
(210 3.16684e-12 0)
(210 1.54528e-12 0)
(210 -4.74056e-12 0)
(210 -1.67707e-11 0)
(210 -1.46045e-11 0)
(210 2.23663e-12 0)
(210 -1.03351e-12 0)
(210 -4.40685e-12 0)
(210 -3.33191e-13 0)
(210 -8.57353e-13 0)
(210 -9.5374e-13 0)
(210 -2.22336e-12 0)
(210 2.90124e-13 0)
(210 -3.76013e-11 0)
(210 -2.6464e-09 0)
(210 1.38678e-07 0)
(209.999 0.000113299 0)
(209.965 0.00680903 0)
(209.598 0.111544 0)
(208.222 0.611683 0)
(206.177 1.43621 0)
(204.964 2.03079 0)
(204.48 2.25688 0)
(204.634 2.43045 0)
(205.365 2.26155 0)
(206.428 1.93707 0)
(207.401 1.61264 0)
(208.343 1.4878 0)
(209.16 1.38799 0)
(209.807 1.40404 0)
(210.17 1.6052 0)
(210.35 1.92867 0)
(210.463 2.30412 0)
(210.564 2.69914 0)
(210.72 3.09929 0)
(210.98 3.47698 0)
(211.259 3.88734 0)
(211.482 4.35261 0)
(211.668 4.84756 0)
(211.859 5.34865 0)
(212.04 5.86169 0)
(212.207 6.39952 0)
(212.342 6.97598 0)
(212.442 7.59776 0)
(212.533 8.25828 0)
(212.569 8.9614 0)
(212.594 9.6887 0)
(212.605 10.4424 0)
(212.595 11.2176 0)
(212.562 12.0208 0)
(212.508 12.8533 0)
(212.434 13.7177 0)
(212.342 14.6147 0)
(212.23 15.545 0)
(212.1 16.5089 0)
(211.953 17.5069 0)
(211.787 18.5402 0)
(211.602 19.61 0)
(211.399 20.716 0)
(211.181 21.8565 0)
(210.952 23.0299 0)
(210.712 24.2359 0)
(210.461 25.4762 0)
(210.199 26.7525 0)
(209.926 28.0664 0)
(209.647 29.4192 0)
(209.364 30.8123 0)
(209.079 32.2468 0)
(208.795 33.725 0)
(208.519 35.2446 0)
(208.253 36.8109 0)
(207.989 38.4336 0)
(207.75 40.098 0)
(207.532 41.8184 0)
(207.336 43.5937 0)
(207.178 45.4285 0)
(207.045 47.3235 0)
(206.969 49.2829 0)
(206.932 51.306 0)
(206.963 53.3959 0)
(207.063 55.5546 0)
(207.245 57.783 0)
(207.525 60.0831 0)
(207.907 62.4546 0)
(208.426 64.8984 0)
(209.068 67.414 0)
(209.896 70.0001 0)
(210.852 72.6546 0)
(212.066 75.3669 0)
(213.414 78.1408 0)
(215.116 80.952 0)
(216.954 83.8229 0)
(219.243 86.6894 0)
(221.66 89.6075 0)
(224.62 92.4558 0)
(227.71 95.3502 0)
(231.389 98.1117 0)
(235.294 100.864 0)
(239.712 103.445 0)
(244.512 105.882 0)
(249.716 108.137 0)
(255.339 110.159 0)
(261.479 111.89 0)
(267.935 113.287 0)
(274.852 114.44 0)
(281.97 115.103 0)
(289.221 115.566 0)
(297.168 115.471 0)
(304.048 115.083 0)
(313.08 114.175 0)
(320.689 113.062 0)
(329.124 111.377 0)
(335.974 109.968 0)
(342.676 107.766 0)
(347.029 105.603 0)
(351.116 102.285 0)
(355.833 100.414 0)
(366.154 98.989 0)
(369.361 106.108 0)
(210 7.42705e-13 0)
(210 2.83699e-12 0)
(210 6.3641e-12 0)
(210 -3.01722e-13 0)
(210 -8.40231e-12 0)
(210 -2.30895e-11 0)
(210 -2.03457e-11 0)
(210 8.5854e-13 0)
(210 -6.22603e-12 0)
(210 2.14597e-12 0)
(210 -1.3946e-12 0)
(210 5.50307e-12 0)
(210 2.9869e-12 0)
(210 -7.81656e-12 0)
(210 1.97197e-12 0)
(210 -2.96699e-11 0)
(210 -2.00287e-09 0)
(210 -1.09406e-07 0)
(210 2.19997e-05 0)
(209.985 0.00243576 0)
(209.764 0.0573765 0)
(208.671 0.418839 0)
(206.629 1.20013 0)
(205.092 1.89007 0)
(204.383 2.20097 0)
(204.45 2.38741 0)
(204.989 2.28026 0)
(205.98 1.96724 0)
(206.983 1.63793 0)
(207.956 1.527 0)
(208.793 1.43102 0)
(209.47 1.4225 0)
(209.881 1.5984 0)
(210.068 1.90294 0)
(210.164 2.26384 0)
(210.231 2.65195 0)
(210.334 3.05385 0)
(210.546 3.42932 0)
(210.81 3.8211 0)
(211.019 4.26842 0)
(211.184 4.75039 0)
(211.352 5.2412 0)
(211.512 5.74327 0)
(211.665 6.26671 0)
(211.78 6.82931 0)
(211.873 7.43546 0)
(211.943 8.08384 0)
(211.961 8.76965 0)
(211.972 9.4871 0)
(211.96 10.2299 0)
(211.928 10.9936 0)
(211.875 11.7835 0)
(211.799 12.6035 0)
(211.701 13.4545 0)
(211.584 14.3365 0)
(211.447 15.2498 0)
(211.291 16.1955 0)
(211.115 17.1743 0)
(210.92 18.1873 0)
(210.705 19.2357 0)
(210.469 20.3197 0)
(210.215 21.4379 0)
(209.948 22.5885 0)
(209.668 23.7711 0)
(209.375 24.9868 0)
(209.068 26.2377 0)
(208.748 27.5256 0)
(208.418 28.8518 0)
(208.079 30.2167 0)
(207.737 31.6218 0)
(207.392 33.0688 0)
(207.047 34.5609 0)
(206.705 36.0995 0)
(206.373 37.6824 0)
(206.053 39.3148 0)
(205.74 41.0043 0)
(205.449 42.7447 0)
(205.187 44.5411 0)
(204.942 46.3987 0)
(204.746 48.32 0)
(204.578 50.3058 0)
(204.469 52.3571 0)
(204.415 54.4776 0)
(204.431 56.6675 0)
(204.529 58.9303 0)
(204.714 61.2666 0)
(205.014 63.6791 0)
(205.42 66.1673 0)
(205.986 68.7333 0)
(206.664 71.376 0)
(207.567 74.0961 0)
(208.585 76.8942 0)
(209.915 79.7596 0)
(211.364 82.6975 0)
(213.224 85.6697 0)
(215.203 88.7087 0)
(217.697 91.7403 0)
(220.321 94.8377 0)
(223.539 97.8619 0)
(226.968 100.907 0)
(230.958 103.83 0)
(235.329 106.66 0)
(240.125 109.348 0)
(245.416 111.845 0)
(251.136 114.126 0)
(257.325 116.021 0)
(264.17 117.728 0)
(271.044 118.92 0)
(278.214 119.874 0)
(286.103 120.462 0)
(293.608 120.559 0)
(301.708 120.324 0)
(309.237 119.941 0)
(316.882 118.908 0)
(324.145 117.781 0)
(331.549 115.911 0)
(337.06 113.868 0)
(341.615 111.868 0)
(348.035 109.924 0)
(359.187 108.175 0)
(363.043 114.274 0)
(210 3.15999e-12 0)
(210 3.49353e-12 0)
(210 1.81412e-12 0)
(210 -7.81739e-12 0)
(210 -1.30896e-11 0)
(210 -2.7046e-11 0)
(210 -1.33371e-11 0)
(210 -3.34475e-12 0)
(210 -8.07327e-12 0)
(210 6.49021e-12 0)
(210 6.57859e-12 0)
(210 1.02659e-11 0)
(210 2.68493e-13 0)
(210 6.43766e-13 0)
(210 7.43097e-12 0)
(210 -1.99309e-11 0)
(210 -9.47804e-10 0)
(210 -8.06656e-08 0)
(210 4.81446e-07 0)
(209.994 0.000695857 0)
(209.876 0.025556 0)
(209.08 0.259329 0)
(207.153 0.942521 0)
(205.305 1.71252 0)
(204.325 2.13901 0)
(204.3 2.29726 0)
(204.629 2.25059 0)
(205.522 2.0108 0)
(206.561 1.70101 0)
(207.567 1.59635 0)
(208.416 1.49164 0)
(209.114 1.45644 0)
(209.574 1.60067 0)
(209.773 1.88108 0)
(209.854 2.22178 0)
(209.889 2.59603 0)
(209.947 2.99041 0)
(210.103 3.36303 0)
(210.344 3.741 0)
(210.536 4.17448 0)
(210.681 4.6463 0)
(210.825 5.13072 0)
(210.962 5.62624 0)
(211.098 6.14007 0)
(211.195 6.69209 0)
(211.28 7.28504 0)
(211.326 7.92194 0)
(211.333 8.58863 0)
(211.327 9.29565 0)
(211.294 10.025 0)
(211.242 10.7742 0)
(211.169 11.5484 0)
(211.073 12.3513 0)
(210.954 13.1843 0)
(210.815 14.0473 0)
(210.655 14.9405 0)
(210.473 15.8648 0)
(210.271 16.821 0)
(210.049 17.8102 0)
(209.805 18.8337 0)
(209.538 19.8922 0)
(209.252 20.9846 0)
(208.949 22.109 0)
(208.632 23.2646 0)
(208.3 24.4521 0)
(207.953 25.6735 0)
(207.589 26.9307 0)
(207.212 28.2252 0)
(206.824 29.5579 0)
(206.427 30.9301 0)
(206.024 32.3434 0)
(205.618 33.7995 0)
(205.211 35.3003 0)
(204.805 36.849 0)
(204.402 38.4472 0)
(204.01 40.0951 0)
(203.631 41.7952 0)
(203.267 43.554 0)
(202.911 45.3761 0)
(202.598 47.2545 0)
(202.298 49.203 0)
(202.052 51.2167 0)
(201.843 53.3037 0)
(201.694 55.462 0)
(201.61 57.6967 0)
(201.598 60.0088 0)
(201.682 62.4027 0)
(201.856 64.8776 0)
(202.169 67.4377 0)
(202.581 70.0807 0)
(203.193 72.8124 0)
(203.904 75.627 0)
(204.895 78.5213 0)
(205.989 81.4887 0)
(207.457 84.5129 0)
(209.032 87.6091 0)
(211.081 90.7355 0)
(213.241 93.9315 0)
(215.962 97.103 0)
(218.845 100.318 0)
(222.293 103.466 0)
(226.075 106.596 0)
(230.325 109.659 0)
(235.094 112.555 0)
(240.235 115.362 0)
(245.956 117.932 0)
(252.14 120.211 0)
(259.026 122.259 0)
(266.312 123.72 0)
(273.942 124.92 0)
(282.177 125.617 0)
(289.468 125.897 0)
(298.734 125.751 0)
(306.73 125.285 0)
(315.974 124.257 0)
(324.251 122.786 0)
(330.95 120.529 0)
(335.502 118.209 0)
(340.021 117.488 0)
(351.082 116.004 0)
(354.073 123.75 0)
(210 -5.61959e-13 0)
(210 5.11861e-12 0)
(210 -2.8453e-12 0)
(210 -1.33031e-11 0)
(210 -1.7816e-11 0)
(210 -2.57527e-11 0)
(210 5.8058e-14 0)
(210 8.08319e-12 0)
(210 3.36662e-12 0)
(210 6.05585e-12 0)
(210 6.2517e-12 0)
(210 3.12525e-12 0)
(210 -2.50268e-12 0)
(210 3.80404e-12 0)
(210 -6.04975e-12 0)
(210 -2.44985e-11 0)
(210 -2.9498e-10 0)
(210 -3.22982e-08 0)
(210 -1.70235e-06 0)
(209.998 0.000138261 0)
(209.942 0.0095771 0)
(209.42 0.142871 0)
(207.736 0.689336 0)
(205.648 1.49946 0)
(204.333 2.01063 0)
(204.192 2.18233 0)
(204.305 2.21315 0)
(205.064 2.07089 0)
(206.123 1.77421 0)
(207.156 1.6511 0)
(208.009 1.52242 0)
(208.729 1.46766 0)
(209.244 1.58126 0)
(209.468 1.83947 0)
(209.542 2.15552 0)
(209.541 2.51986 0)
(209.566 2.89778 0)
(209.663 3.27253 0)
(209.874 3.63768 0)
(210.052 4.05329 0)
(210.179 4.51015 0)
(210.3 4.98501 0)
(210.415 5.47257 0)
(210.535 5.97665 0)
(210.618 6.51807 0)
(210.693 7.09935 0)
(210.715 7.72479 0)
(210.715 8.37506 0)
(210.69 9.07212 0)
(210.635 9.7897 0)
(210.56 10.5277 0)
(210.464 11.2889 0)
(210.346 12.0766 0)
(210.205 12.8926 0)
(210.042 13.7375 0)
(209.856 14.6117 0)
(209.648 15.516 0)
(209.418 16.4513 0)
(209.166 17.4182 0)
(208.892 18.418 0)
(208.594 19.4517 0)
(208.274 20.5187 0)
(207.934 21.6173 0)
(207.579 22.7465 0)
(207.207 23.9066 0)
(206.818 25.0996 0)
(206.41 26.3275 0)
(205.985 27.592 0)
(205.546 28.8937 0)
(205.096 30.2339 0)
(204.635 31.6141 0)
(204.168 33.0363 0)
(203.694 34.5024 0)
(203.217 36.0142 0)
(202.741 37.5734 0)
(202.267 39.1833 0)
(201.798 40.8463 0)
(201.339 42.5645 0)
(200.895 44.3366 0)
(200.475 46.1696 0)
(200.047 48.0808 0)
(199.68 50.0413 0)
(199.33 52.0791 0)
(199.036 54.1874 0)
(198.788 56.3729 0)
(198.603 58.6352 0)
(198.493 60.9801 0)
(198.459 63.4076 0)
(198.539 65.9242 0)
(198.702 68.5279 0)
(199.033 71.2294 0)
(199.446 74.0205 0)
(200.102 76.9095 0)
(200.842 79.8852 0)
(201.919 82.9526 0)
(203.09 86.1116 0)
(204.697 89.3455 0)
(206.405 92.668 0)
(208.648 96.0216 0)
(211.033 99.448 0)
(213.99 102.857 0)
(217.224 106.286 0)
(220.949 109.676 0)
(225.178 112.965 0)
(229.766 116.195 0)
(234.941 119.193 0)
(240.561 122.067 0)
(246.768 124.615 0)
(253.562 126.885 0)
(260.28 128.689 0)
(268.284 130.425 0)
(275.72 131.378 0)
(284.672 132.091 0)
(292.752 132.5 0)
(302.03 132.468 0)
(310.105 131.939 0)
(317.116 130.666 0)
(324.05 127.789 0)
(329.875 125.813 0)
(342.446 124.208 0)
(345.305 133.249 0)
(210 3.88044e-12 0)
(210 1.06991e-11 0)
(210 -9.71447e-12 0)
(210 -1.61433e-11 0)
(210 -1.2178e-11 0)
(210 -6.11155e-12 0)
(210 1.16539e-11 0)
(210 4.10395e-12 0)
(210 -1.06122e-11 0)
(210 2.93909e-12 0)
(210 7.76257e-12 0)
(210 6.59552e-12 0)
(210 -5.64459e-13 0)
(210 -3.00867e-12 0)
(210 -1.31715e-11 0)
(210 -1.40313e-11 0)
(210 -8.53661e-11 0)
(210 -1.02856e-08 0)
(210 -7.79283e-07 0)
(209.999 5.53366e-06 0)
(209.976 0.00284795 0)
(209.671 0.0680573 0)
(208.323 0.459029 0)
(206.116 1.24251 0)
(204.43 1.82652 0)
(204.099 2.07234 0)
(204.037 2.18242 0)
(204.625 2.12245 0)
(205.664 1.83771 0)
(206.721 1.69154 0)
(207.582 1.54719 0)
(208.325 1.48481 0)
(208.891 1.56522 0)
(209.152 1.79516 0)
(209.219 2.08564 0)
(209.184 2.43173 0)
(209.17 2.79788 0)
(209.221 3.18086 0)
(209.394 3.54168 0)
(209.552 3.94462 0)
(209.662 4.39118 0)
(209.755 4.86139 0)
(209.847 5.34455 0)
(209.949 5.84086 0)
(210.022 6.37007 0)
(210.085 6.93783 0)
(210.086 7.54725 0)
(210.082 8.17973 0)
(210.037 8.86185 0)
(209.962 9.56334 0)
(209.865 10.2863 0)
(209.747 11.0314 0)
(209.608 11.8014 0)
(209.445 12.5979 0)
(209.26 13.4212 0)
(209.05 14.2722 0)
(208.817 15.1522 0)
(208.561 16.0624 0)
(208.282 17.0037 0)
(207.979 17.9769 0)
(207.652 18.983 0)
(207.3 20.0218 0)
(206.927 21.0918 0)
(206.536 22.1915 0)
(206.127 23.3212 0)
(205.7 24.4823 0)
(205.252 25.677 0)
(204.784 26.9071 0)
(204.299 28.1736 0)
(203.799 29.4776 0)
(203.286 30.8204 0)
(202.762 32.204 0)
(202.228 33.6303 0)
(201.687 35.1013 0)
(201.14 36.6189 0)
(200.59 38.1855 0)
(200.04 39.8031 0)
(199.494 41.4753 0)
(198.952 43.2054 0)
(198.417 44.9974 0)
(197.899 46.8465 0)
(197.405 48.7639 0)
(196.909 50.7612 0)
(196.47 52.82 0)
(196.058 54.959 0)
(195.7 57.1775 0)
(195.398 59.482 0)
(195.158 61.8724 0)
(195.01 64.3551 0)
(194.931 66.9281 0)
(194.996 69.6033 0)
(195.13 72.3709 0)
(195.476 75.2469 0)
(195.891 78.2154 0)
(196.606 81.2944 0)
(197.394 84.4694 0)
(198.572 87.744 0)
(199.829 91.1138 0)
(201.574 94.5596 0)
(203.426 98.1002 0)
(205.837 101.685 0)
(208.479 105.339 0)
(211.654 108.998 0)
(215.286 112.643 0)
(219.347 116.294 0)
(224.081 119.77 0)
(229.184 123.173 0)
(234.938 126.328 0)
(241.189 129.334 0)
(248.167 131.913 0)
(255.616 134.104 0)
(263.807 135.833 0)
(271.358 137.061 0)
(280.454 138.141 0)
(288.858 138.729 0)
(297.463 138.745 0)
(305.616 138.044 0)
(312.686 136.781 0)
(320.021 135.409 0)
(333.126 134.056 0)
(336.586 142.514 0)
(210 7.37412e-12 0)
(210 -8.05605e-12 0)
(210 -1.82181e-11 0)
(210 -5.80354e-12 0)
(210 -8.40456e-12 0)
(210 3.21839e-12 0)
(210 4.1615e-12 0)
(210 1.95513e-12 0)
(210 3.97028e-12 0)
(210 2.38556e-11 0)
(210 1.89442e-11 0)
(210 9.61586e-12 0)
(210 -4.09856e-12 0)
(210 -3.12279e-12 0)
(210 -5.18479e-12 0)
(210 1.40748e-12 0)
(210 -1.18138e-11 0)
(210 -2.74937e-09 0)
(210 -2.61838e-07 0)
(210 -9.79832e-06 0)
(209.992 0.000582136 0)
(209.835 0.0271602 0)
(208.859 0.27304 0)
(206.712 0.960359 0)
(204.68 1.61771 0)
(204.04 1.98701 0)
(203.822 2.11716 0)
(204.205 2.11675 0)
(205.187 1.87204 0)
(206.265 1.71546 0)
(207.138 1.56209 0)
(207.905 1.49045 0)
(208.52 1.52849 0)
(208.833 1.7236 0)
(208.9 1.98628 0)
(208.846 2.30692 0)
(208.782 2.67005 0)
(208.8 3.05465 0)
(208.931 3.41665 0)
(209.073 3.81203 0)
(209.167 4.25028 0)
(209.23 4.71524 0)
(209.297 5.19424 0)
(209.377 5.68315 0)
(209.444 6.19995 0)
(209.486 6.75425 0)
(209.473 7.34578 0)
(209.459 7.96628 0)
(209.393 8.63171 0)
(209.298 9.31784 0)
(209.177 10.0262 0)
(209.036 10.7552 0)
(208.874 11.5074 0)
(208.688 12.2844 0)
(208.479 13.0868 0)
(208.245 13.9154 0)
(207.986 14.7716 0)
(207.702 15.6569 0)
(207.395 16.5722 0)
(207.064 17.5182 0)
(206.707 18.4962 0)
(206.324 19.5064 0)
(205.917 20.5476 0)
(205.489 21.6183 0)
(205.042 22.7182 0)
(204.575 23.8486 0)
(204.086 25.0114 0)
(203.574 26.2086 0)
(203.043 27.4412 0)
(202.493 28.7103 0)
(201.927 30.017 0)
(201.347 31.3632 0)
(200.753 32.7507 0)
(200.148 34.1815 0)
(199.533 35.6574 0)
(198.911 37.1808 0)
(198.283 38.7537 0)
(197.653 40.379 0)
(197.021 42.0595 0)
(196.392 43.7984 0)
(195.769 45.6001 0)
(195.153 47.4675 0)
(194.555 49.3973 0)
(193.987 51.3988 0)
(193.422 53.4839 0)
(192.911 55.6386 0)
(192.439 57.8772 0)
(192.017 60.2031 0)
(191.666 62.6224 0)
(191.37 65.134 0)
(191.189 67.7508 0)
(191.061 70.4643 0)
(191.111 73.2972 0)
(191.208 76.2312 0)
(191.563 79.2943 0)
(191.97 82.4598 0)
(192.724 85.7511 0)
(193.538 89.1457 0)
(194.805 92.6541 0)
(196.155 96.2662 0)
(198.04 99.9619 0)
(200.101 103.745 0)
(202.695 107.577 0)
(205.659 111.448 0)
(209.057 115.347 0)
(213.072 119.179 0)
(217.444 123.042 0)
(222.577 126.706 0)
(228.132 130.32 0)
(234.366 133.62 0)
(241.188 136.648 0)
(248.829 139.47 0)
(256.879 141.532 0)
(265.895 143.418 0)
(275.456 144.843 0)
(285.6 145.391 0)
(294.503 145.059 0)
(302.149 143.601 0)
(307.785 143.23 0)
(320.287 142.327 0)
(322.158 152.477 0)
(210 -1.0574e-12 0)
(210 -1.53391e-11 0)
(210 -6.96653e-12 0)
(210 -1.43026e-11 0)
(210 -1.31835e-11 0)
(210 -1.19719e-12 0)
(210 -2.15231e-12 0)
(210 3.56526e-12 0)
(210 1.36114e-11 0)
(210 1.49552e-11 0)
(210 5.65625e-12 0)
(210 -2.28771e-12 0)
(210 -3.28043e-12 0)
(210 -1.00787e-13 0)
(210 9.96806e-13 0)
(210 2.56009e-12 0)
(210 -6.10518e-12 0)
(210 -6.65662e-10 0)
(210 -7.27808e-08 0)
(210 -5.07354e-06 0)
(209.997 2.43741e-05 0)
(209.928 0.00856684 0)
(209.297 0.14082 0)
(207.389 0.684499 0)
(205.071 1.38208 0)
(204.013 1.88494 0)
(203.648 1.98233 0)
(203.846 2.06026 0)
(204.717 1.91601 0)
(205.797 1.74916 0)
(206.683 1.56966 0)
(207.472 1.47431 0)
(208.129 1.47989 0)
(208.503 1.64728 0)
(208.572 1.89188 0)
(208.513 2.18859 0)
(208.389 2.56026 0)
(208.381 2.942 0)
(208.468 3.31858 0)
(208.596 3.71042 0)
(208.672 4.13884 0)
(208.708 4.59208 0)
(208.746 5.06236 0)
(208.801 5.54013 0)
(208.858 6.04201 0)
(208.878 6.58118 0)
(208.858 7.15226 0)
(208.826 7.76236 0)
(208.742 8.40891 0)
(208.626 9.07796 0)
(208.482 9.76872 0)
(208.319 10.4789 0)
(208.134 11.2104 0)
(207.927 11.9649 0)
(207.695 12.7433 0)
(207.437 13.5468 0)
(207.154 14.3769 0)
(206.845 15.2351 0)
(206.511 16.1223 0)
(206.153 17.0393 0)
(205.769 17.987 0)
(205.356 18.966 0)
(204.917 19.9756 0)
(204.456 21.0144 0)
(203.974 22.0815 0)
(203.471 23.178 0)
(202.944 24.3056 0)
(202.394 25.4663 0)
(201.82 26.6613 0)
(201.226 27.8918 0)
(200.612 29.1586 0)
(199.982 30.4635 0)
(199.334 31.8082 0)
(198.671 33.1948 0)
(197.994 34.625 0)
(197.305 36.1011 0)
(196.605 37.6254 0)
(195.896 39.2005 0)
(195.181 40.8292 0)
(194.461 42.5147 0)
(193.738 44.2602 0)
(193.017 46.0695 0)
(192.302 47.9464 0)
(191.595 49.8946 0)
(190.906 51.9122 0)
(190.249 54.0077 0)
(189.601 56.1923 0)
(188.996 58.4607 0)
(188.445 60.8186 0)
(187.936 63.273 0)
(187.52 65.8339 0)
(187.145 68.494 0)
(186.917 71.2759 0)
(186.721 74.1589 0)
(186.75 77.1773 0)
(186.81 80.2971 0)
(187.18 83.5603 0)
(187.589 86.9334 0)
(188.403 90.4542 0)
(189.269 94.0945 0)
(190.629 97.8685 0)
(192.11 101.761 0)
(194.118 105.756 0)
(196.423 109.846 0)
(199.197 114.016 0)
(202.527 118.207 0)
(206.238 122.449 0)
(210.716 126.561 0)
(215.554 130.686 0)
(221.173 134.594 0)
(227.309 138.366 0)
(234.144 141.694 0)
(241.897 144.956 0)
(249.786 147.439 0)
(258.32 149.831 0)
(268.254 151.92 0)
(276.423 153.068 0)
(285.414 152.813 0)
(292.765 152.443 0)
(306.623 152.116 0)
(308.568 163.036 0)
(210 -7.05695e-12 0)
(210 -9.49219e-12 0)
(210 -1.29032e-11 0)
(210 -2.29475e-11 0)
(210 1.55676e-13 0)
(210 2.0944e-12 0)
(210 -5.05702e-12 0)
(210 1.62382e-12 0)
(210 4.01304e-12 0)