/*--------------------------------*- C++ -*----------------------------------*\
| =========                 |                                                 |
| \\      /  F ield         | OpenFOAM: The Open Source CFD Toolbox           |
|  \\    /   O peration     | Version:  2406                                  |
|   \\  /    A nd           | Website:  www.openfoam.com                      |
|    \\/     M anipulation  |                                                 |
\*---------------------------------------------------------------------------*/
FoamFile
{
    version     2.0;
    format      ascii;
    arch        "LSB;label=32;scalar=64";
    class       volVectorField;
    location    "0.022";
    object      U;
}
// * * * * * * * * * * * * * * * * * * * * * * * * * * * * * * * * * * * * * //

dimensions      [0 1 -1 0 0 0 0];

internalField   nonuniform List<vector> 
78650
(
(210 0.000112412 0)
(209.989 0.00342797 0)
(209.813 0.0711107 0)
(208.901 0.494782 0)
(207.206 1.3689 0)
(205.996 2.09454 0)
(205.452 2.47638 0)
(205.547 2.5852 0)
(206.178 2.37169 0)
(207.265 1.91853 0)
(208.347 1.51512 0)
(209.391 1.3393 0)
(210.306 1.15845 0)
(211.177 1.06898 0)
(211.9 1.07606 0)
(212.37 1.26683 0)
(212.622 1.57897 0)
(212.839 1.94828 0)
(213.108 2.34164 0)
(213.487 2.71556 0)
(213.966 3.06836 0)
(214.439 3.45808 0)
(214.851 3.91997 0)
(215.23 4.43928 0)
(215.601 4.99195 0)
(215.954 5.56979 0)
(216.274 6.17076 0)
(216.566 6.79425 0)
(216.837 7.44389 0)
(217.088 8.12424 0)
(217.325 8.83707 0)
(217.551 9.58474 0)
(217.758 10.3711 0)
(217.943 11.1963 0)
(218.112 12.057 0)
(218.262 12.95 0)
(218.396 13.8704 0)
(218.521 14.8138 0)
(218.637 15.7828 0)
(218.742 16.784 0)
(218.833 17.8229 0)
(218.913 18.9018 0)
(218.983 20.0183 0)
(219.049 21.1681 0)
(219.112 22.349 0)
(219.171 23.5606 0)
(219.23 24.8033 0)
(219.29 26.0766 0)
(219.355 27.3796 0)
(219.43 28.712 0)
(219.516 30.0744 0)
(219.618 31.4682 0)
(219.733 32.8952 0)
(219.866 34.3562 0)
(220.023 35.8523 0)
(220.206 37.3833 0)
(220.414 38.9494 0)
(220.664 40.5514 0)
(220.956 42.1875 0)
(221.291 43.8577 0)
(221.686 45.5628 0)
(222.139 47.3013 0)
(222.656 49.073 0)
(223.259 50.876 0)
(223.932 52.7079 0)
(224.704 54.5666 0)
(225.582 56.4489 0)
(226.553 58.3554 0)
(227.658 60.2835 0)
(228.88 62.2282 0)
(230.224 64.1837 0)
(231.737 66.1368 0)
(233.384 68.0855 0)
(235.199 70.0229 0)
(237.207 71.9338 0)
(239.364 73.8223 0)
(241.736 75.671 0)
(244.295 77.4753 0)
(247.055 79.2138 0)
(250.012 80.8896 0)
(253.206 82.4718 0)
(256.587 83.985 0)
(260.2 85.3817 0)
(264.01 86.6619 0)
(268.074 87.7918 0)
(272.424 88.7205 0)
(277.032 89.4847 0)
(281.571 90.0472 0)
(286.069 90.5045 0)
(290.602 90.8293 0)
(295.289 90.9749 0)
(300.364 90.8926 0)
(305.578 90.5111 0)
(310.949 89.898 0)
(316.228 89.0117 0)
(321.014 88.1154 0)
(326.121 86.9438 0)
(330.647 85.8252 0)
(335.315 84.5397 0)
(339.729 83.3146 0)
(344.071 82.0899 0)
(347.966 81.1078 0)
(351.812 79.8513 0)
(354.737 78.8518 0)
(357.506 77.4161 0)
(359.693 76.5411 0)
(362.454 75.3304 0)
(364.943 74.8027 0)
(368.339 73.7331 0)
(370.852 73.0288 0)
(373.768 71.8637 0)
(375.843 71.1982 0)
(378.158 70.0946 0)
(379.585 69.4839 0)
(380.851 68.5127 0)
(381.626 67.906 0)
(382.673 67.124 0)
(384.223 66.7599 0)
(386.73 66.3082 0)
(390.26 65.8812 0)
(391.608 67.7735 0)
(210 2.95043e-05 0)
(209.995 0.00155519 0)
(209.882 0.0416419 0)
(209.149 0.358814 0)
(207.498 1.1684 0)
(206.083 1.97798 0)
(205.373 2.42817 0)
(205.412 2.53877 0)
(205.871 2.4133 0)
(206.898 2.02625 0)
(208.014 1.63135 0)
(209.072 1.4481 0)
(209.979 1.2571 0)
(210.851 1.15536 0)
(211.584 1.13352 0)
(212.072 1.29364 0)
(212.316 1.58662 0)
(212.513 1.94961 0)
(212.748 2.35075 0)
(213.085 2.74157 0)
(213.532 3.10592 0)
(213.996 3.48983 0)
(214.4 3.94124 0)
(214.763 4.45121 0)
(215.115 4.99394 0)
(215.447 5.56028 0)
(215.746 6.14833 0)
(216.018 6.75844 0)
(216.267 7.39555 0)
(216.496 8.06397 0)
(216.713 8.76531 0)
(216.917 9.50238 0)
(217.099 10.2784 0)
(217.262 11.0927 0)
(217.408 11.9426 0)
(217.534 12.8248 0)
(217.644 13.7335 0)
(217.744 14.6648 0)
(217.831 15.6216 0)
(217.907 16.6095 0)
(217.967 17.6341 0)
(218.014 18.6978 0)
(218.051 19.7985 0)
(218.08 20.9314 0)
(218.104 22.0947 0)
(218.124 23.2878 0)
(218.14 24.5111 0)
(218.154 25.765 0)
(218.171 27.0488 0)
(218.194 28.3621 0)
(218.226 29.7056 0)
(218.269 31.0805 0)
(218.323 32.4885 0)
(218.389 33.9307 0)
(218.476 35.4089 0)
(218.583 36.9225 0)
(218.71 38.472 0)
(218.873 40.0589 0)
(219.071 41.6813 0)
(219.305 43.3394 0)
(219.593 45.0346 0)
(219.931 46.7655 0)
(220.325 48.5328 0)
(220.795 50.3355 0)
(221.326 52.171 0)
(221.947 54.0391 0)
(222.665 55.9388 0)
(223.464 57.8694 0)
(224.387 59.8266 0)
(225.416 61.8039 0)
(226.561 63.7986 0)
(227.87 65.8059 0)
(229.303 67.8269 0)
(230.897 69.8561 0)
(232.673 71.8817 0)
(234.589 73.9034 0)
(236.717 75.8999 0)
(239.03 77.8605 0)
(241.538 79.7678 0)
(244.246 81.6223 0)
(247.181 83.3995 0)
(250.286 85.1159 0)
(253.616 86.7253 0)
(257.13 88.2215 0)
(260.813 89.6037 0)
(264.672 90.8422 0)
(268.671 91.9245 0)
(272.925 92.8906 0)
(277.387 93.6634 0)
(282.214 94.2435 0)
(287.044 94.575 0)
(292.097 94.762 0)
(296.916 94.7499 0)
(301.559 94.657 0)
(306.549 94.2789 0)
(311.018 93.8848 0)
(316.108 93.2142 0)
(320.739 92.5064 0)
(325.461 91.6508 0)
(330.051 90.7453 0)
(334.516 89.6539 0)
(338.376 88.7207 0)
(342.475 87.3617 0)
(345.868 86.3571 0)
(350.092 84.8044 0)
(353.699 83.5992 0)
(357.994 82.0195 0)
(361.099 80.9605 0)
(364.486 79.5581 0)
(366.837 78.7422 0)
(369.647 77.46 0)
(371.82 76.67 0)
(374.44 75.4295 0)
(376.22 74.671 0)
(377.884 73.5571 0)
(378.764 72.9786 0)
(379.772 72.0843 0)
(381.053 71.6925 0)
(383.451 71.2921 0)
(387.165 71.0431 0)
(388.806 73.0713 0)
(210 1.23328e-05 0)
(209.997 0.000685485 0)
(209.93 0.0226561 0)
(209.377 0.246477 0)
(207.842 0.966507 0)
(206.234 1.83799 0)
(205.318 2.35531 0)
(205.299 2.48362 0)
(205.58 2.43463 0)
(206.521 2.13298 0)
(207.655 1.73959 0)
(208.725 1.53614 0)
(209.623 1.32911 0)
(210.499 1.21434 0)
(211.246 1.16406 0)
(211.761 1.29203 0)
(212.006 1.56827 0)
(212.186 1.92955 0)
(212.39 2.3416 0)
(212.682 2.75295 0)
(213.091 3.13239 0)
(213.543 3.51146 0)
(213.939 3.95126 0)
(214.287 4.45054 0)
(214.619 4.98263 0)
(214.931 5.53747 0)
(215.209 6.11316 0)
(215.46 6.71108 0)
(215.687 7.33708 0)
(215.896 7.99508 0)
(216.092 8.68669 0)
(216.273 9.41499 0)
(216.432 10.1824 0)
(216.573 10.988 0)
(216.696 11.8292 0)
(216.797 12.7025 0)
(216.883 13.6012 0)
(216.956 14.5222 0)
(217.015 15.4682 0)
(217.06 16.4447 0)
(217.09 17.4571 0)
(217.104 18.5078 0)
(217.105 19.5956 0)
(217.097 20.7149 0)
(217.081 21.8639 0)
(217.059 23.0414 0)
(217.032 24.2488 0)
(217 25.4868 0)
(216.968 26.7549 0)
(216.939 28.0528 0)
(216.916 29.3809 0)
(216.9 30.7409 0)
(216.892 32.1337 0)
(216.894 33.5608 0)
(216.911 35.0243 0)
(216.943 36.5235 0)
(216.991 38.0587 0)
(217.071 39.632 0)
(217.179 41.2414 0)
(217.316 42.8871 0)
(217.503 44.5708 0)
(217.732 46.2908 0)
(218.011 48.0482 0)
(218.357 49.8427 0)
(218.755 51.6719 0)
(219.235 53.5365 0)
(219.8 55.4344 0)
(220.438 57.364 0)
(221.19 59.3233 0)
(222.034 61.3093 0)
(222.988 63.3229 0)
(224.087 65.361 0)
(225.291 67.4205 0)
(226.644 69.4934 0)
(228.157 71.5679 0)
(229.799 73.6419 0)
(231.643 75.7006 0)
(233.658 77.7393 0)
(235.858 79.7517 0)
(238.255 81.7396 0)
(240.867 83.6836 0)
(243.65 85.5881 0)
(246.68 87.4107 0)
(249.904 89.1593 0)
(253.333 90.8227 0)
(256.996 92.3613 0)
(260.88 93.7853 0)
(264.996 95.0168 0)
(269.292 96.0829 0)
(273.675 96.9733 0)
(278.096 97.7149 0)
(282.56 98.3136 0)
(287.31 98.7538 0)
(291.864 99.0082 0)
(296.904 99.0929 0)
(301.732 98.9827 0)
(306.614 98.7183 0)
(311.644 98.2453 0)
(316.253 97.6793 0)
(320.964 96.9799 0)
(325.562 96.1084 0)
(329.657 95.3638 0)
(334.324 94.2238 0)
(338.358 93.2586 0)
(342.993 91.9146 0)
(346.813 90.8327 0)
(350.632 89.5019 0)
(353.736 88.5299 0)
(356.922 87.2354 0)
(359.541 86.4139 0)
(362.614 85.1728 0)
(365.08 84.4546 0)
(368.004 83.2861 0)
(370.096 82.5179 0)
(372.086 81.3343 0)
(373.31 80.596 0)
(374.708 79.6367 0)
(376.4 79.1982 0)
(379.112 78.6697 0)
(383.107 78.13 0)
(384.7 80.19 0)
(210 3.87165e-06 0)
(209.999 0.000257367 0)
(209.962 0.0111312 0)
(209.571 0.156824 0)
(208.205 0.759719 0)
(206.435 1.66294 0)
(205.291 2.26011 0)
(205.198 2.42331 0)
(205.317 2.45526 0)
(206.145 2.24649 0)
(207.284 1.85527 0)
(208.367 1.62966 0)
(209.261 1.40931 0)
(210.14 1.28595 0)
(210.902 1.21422 0)
(211.44 1.31366 0)
(211.689 1.57428 0)
(211.856 1.93303 0)
(212.034 2.34892 0)
(212.281 2.7737 0)
(212.644 3.16526 0)
(213.076 3.53822 0)
(213.464 3.96265 0)
(213.796 4.44753 0)
(214.109 4.96662 0)
(214.399 5.5086 0)
(214.657 6.07096 0)
(214.887 6.65611 0)
(215.092 7.2704 0)
(215.281 7.91713 0)
(215.457 8.59808 0)
(215.615 9.31625 0)
(215.751 10.0731 0)
(215.871 10.8675 0)
(215.971 11.6975 0)
(216.05 12.5585 0)
(216.113 13.444 0)
(216.16 14.3521 0)
(216.191 15.2846 0)
(216.208 16.2465 0)
(216.207 17.2442 0)
(216.19 18.2778 0)
(216.157 19.3477 0)
(216.113 20.4487 0)
(216.06 21.5786 0)
(216.001 22.7359 0)
(215.933 23.9222 0)
(215.858 25.1387 0)
(215.781 26.3852 0)
(215.702 27.6613 0)
(215.627 28.9675 0)
(215.556 30.3062 0)
(215.489 31.6772 0)
(215.43 33.0824 0)
(215.381 34.5243 0)
(215.342 36.0025 0)
(215.315 37.5164 0)
(215.313 39.0694 0)
(215.333 40.6592 0)
(215.377 42.2863 0)
(215.464 43.9531 0)
(215.584 45.6575 0)
(215.749 47.4015 0)
(215.971 49.1857 0)
(216.235 51.0079 0)
(216.575 52.8695 0)
(216.986 54.7687 0)
(217.462 56.7048 0)
(218.044 58.6786 0)
(218.703 60.6874 0)
(219.464 62.7313 0)
(220.356 64.8052 0)
(221.343 66.9032 0)
(222.475 69.0204 0)
(223.758 71.1508 0)
(225.163 73.296 0)
(226.765 75.4479 0)
(228.523 77.6031 0)
(230.455 79.7531 0)
(232.58 81.8902 0)
(234.904 83.9918 0)
(237.395 86.0557 0)
(240.124 88.0462 0)
(243.027 89.9741 0)
(246.146 91.8189 0)
(249.481 93.5553 0)
(252.975 95.2047 0)
(256.69 96.7162 0)
(260.602 98.1353 0)
(264.783 99.395 0)
(269.271 100.559 0)
(273.811 101.411 0)
(278.728 102.177 0)
(283.492 102.617 0)
(288.46 102.969 0)
(293.572 103.109 0)
(298.319 103.126 0)
(303.523 102.927 0)
(308.354 102.567 0)
(313.294 102.058 0)
(318.341 101.337 0)
(322.815 100.651 0)
(327.758 99.7108 0)
(332.043 98.889 0)
(336.451 97.8885 0)
(340.471 96.9328 0)
(344.369 95.8612 0)
(347.941 94.8714 0)
(351.593 93.6283 0)
(354.605 92.7357 0)
(358.04 91.4763 0)
(360.696 90.7912 0)
(363.848 89.6977 0)
(366.133 89.0648 0)
(368.443 87.9256 0)
(369.809 87.1443 0)
(371.059 86.0011 0)
(372.399 85.6304 0)
(375.073 85.2225 0)
(379.514 84.8018 0)
(381.154 87.6343 0)
(210 1.24045e-06 0)
(210 8.65219e-05 0)
(209.981 0.00489615 0)
(209.726 0.0915516 0)
(208.584 0.563675 0)
(206.736 1.45391 0)
(205.329 2.12342 0)
(205.108 2.3588 0)
(205.085 2.46825 0)
(205.762 2.34186 0)
(206.88 1.95686 0)
(207.975 1.70327 0)
(208.87 1.46795 0)
(209.753 1.33353 0)
(210.53 1.23741 0)
(211.099 1.30463 0)
(211.365 1.55182 0)
(211.522 1.91381 0)
(211.677 2.33721 0)
(211.876 2.77768 0)
(212.186 3.18355 0)
(212.589 3.55309 0)
(212.969 3.96102 0)
(213.287 4.42977 0)
(213.581 4.93462 0)
(213.849 5.46296 0)
(214.086 6.01174 0)
(214.295 6.58462 0)
(214.479 7.18801 0)
(214.648 7.82461 0)
(214.803 8.49647 0)
(214.938 9.20608 0)
(215.052 9.95394 0)
(215.149 10.7391 0)
(215.226 11.5598 0)
(215.282 12.4101 0)
(215.32 13.2839 0)
(215.34 14.1808 0)
(215.341 15.1017 0)
(215.328 16.0509 0)
(215.297 17.034 0)
(215.25 18.0492 0)
(215.181 19.105 0)
(215.098 20.1913 0)
(215.008 21.3039 0)
(214.908 22.4428 0)
(214.799 23.61 0)
(214.68 24.807 0)
(214.555 26.0346 0)
(214.427 27.2923 0)
(214.299 28.5801 0)
(214.17 29.9021 0)
(214.045 31.2544 0)
(213.924 32.6404 0)
(213.808 34.0628 0)
(213.697 35.5232 0)
(213.598 37.018 0)
(213.517 38.5526 0)
(213.452 40.1247 0)
(213.407 41.7334 0)
(213.398 43.3827 0)
(213.416 45.0696 0)
(213.473 46.7964 0)
(213.579 48.5642 0)
(213.72 50.3705 0)
(213.929 52.2181 0)
(214.198 54.1044 0)
(214.526 56.0295 0)
(214.948 57.9948 0)
(215.433 59.9962 0)
(216.013 62.0346 0)
(216.709 64.1068 0)
(217.487 66.2101 0)
(218.403 68.3457 0)
(219.447 70.5111 0)
(220.599 72.7056 0)
(221.931 74.9205 0)
(223.398 77.148 0)
(225.027 79.378 0)
(226.841 81.6006 0)
(228.84 83.8009 0)
(231.01 85.9811 0)
(233.424 88.12 0)
(236.012 90.2287 0)
(238.826 92.2865 0)
(241.856 94.2853 0)
(245.1 96.221 0)
(248.599 98.0269 0)
(252.249 99.7546 0)
(256.116 101.296 0)
(260.111 102.712 0)
(264.342 103.948 0)
(268.706 105.023 0)
(273.339 105.979 0)
(277.945 106.706 0)
(282.822 107.308 0)
(287.644 107.691 0)
(292.518 107.94 0)
(297.749 107.946 0)
(302.532 107.834 0)
(307.798 107.499 0)
(312.487 107.097 0)
(317.571 106.45 0)
(322.297 105.695 0)
(326.922 104.851 0)
(331.512 103.886 0)
(335.892 102.856 0)
(340.094 101.782 0)
(344.324 100.536 0)
(347.871 99.5769 0)
(351.902 98.2885 0)
(354.974 97.5148 0)
(358.701 96.3104 0)
(361.277 95.6141 0)
(363.976 94.381 0)
(365.613 93.4927 0)
(367.214 92.1727 0)
(368.85 91.4619 0)
(371.733 90.8793 0)
(376.182 90.5879 0)
(377.863 92.9104 0)
(210 2.84096e-07 0)
(210 2.35283e-05 0)
(209.992 0.00186969 0)
(209.841 0.0478892 0)
(208.95 0.386881 0)
(207.113 1.21231 0)
(205.435 1.96019 0)
(205.023 2.29064 0)
(204.879 2.46314 0)
(205.381 2.40967 0)
(206.454 2.05617 0)
(207.563 1.78329 0)
(208.464 1.52891 0)
(209.353 1.38888 0)
(210.146 1.28589 0)
(210.744 1.33133 0)
(211.033 1.5652 0)
(211.183 1.92342 0)
(211.319 2.3408 0)
(211.471 2.78482 0)
(211.721 3.19825 0)
(212.083 3.56468 0)
(212.452 3.95384 0)
(212.757 4.40408 0)
(213.031 4.8941 0)
(213.277 5.40963 0)
(213.495 5.94633 0)
(213.682 6.50844 0)
(213.845 7.10158 0)
(213.995 7.72794 0)
(214.129 8.38984 0)
(214.24 9.08891 0)
(214.333 9.82518 0)
(214.409 10.5983 0)
(214.463 11.4059 0)
(214.498 12.2419 0)
(214.512 13.1008 0)
(214.504 13.9829 0)
(214.478 14.8888 0)
(214.438 15.8188 0)
(214.378 16.7836 0)
(214.296 17.7852 0)
(214.196 18.8197 0)
(214.079 19.884 0)
(213.952 20.9746 0)
(213.815 22.0907 0)
(213.667 23.2342 0)
(213.507 24.4071 0)
(213.338 25.6104 0)
(213.163 26.844 0)
(212.984 28.1086 0)
(212.805 29.4038 0)
(212.624 30.7315 0)
(212.444 32.0933 0)
(212.267 33.4896 0)
(212.087 34.9283 0)
(211.919 36.3959 0)
(211.762 37.9036 0)
(211.613 39.4516 0)
(211.484 41.0353 0)
(211.382 42.6614 0)
(211.299 44.3261 0)
(211.251 46.0315 0)
(211.241 47.7796 0)
(211.259 49.5681 0)
(211.338 51.4013 0)
(211.463 53.2762 0)
(211.64 55.1936 0)
(211.901 57.1556 0)
(212.212 59.1583 0)
(212.614 61.2051 0)
(213.116 63.2939 0)
(213.688 65.4221 0)
(214.391 67.5914 0)
(215.202 69.7954 0)
(216.115 72.0299 0)
(217.197 74.2882 0)
(218.4 76.5638 0)
(219.76 78.8521 0)
(221.298 81.1486 0)
(223.004 83.4463 0)
(224.878 85.7483 0)
(226.98 88.0367 0)
(229.239 90.3135 0)
(231.723 92.5504 0)
(234.402 94.7355 0)
(237.279 96.8548 0)
(240.38 98.8888 0)
(243.66 100.874 0)
(247.224 102.717 0)
(250.943 104.508 0)
(254.925 106.117 0)
(259.099 107.618 0)
(263.47 108.942 0)
(267.992 110.082 0)
(272.634 111.066 0)
(277.531 111.916 0)
(282.207 112.533 0)
(287.4 112.957 0)
(291.983 113.242 0)
(297.16 113.321 0)
(301.94 113.284 0)
(306.827 113.078 0)
(311.756 112.679 0)
(316.169 112.255 0)
(320.832 111.645 0)
(325.24 110.978 0)
(329.497 110.237 0)
(333.858 109.249 0)
(337.563 108.469 0)
(341.645 107.344 0)
(344.936 106.635 0)
(348.812 105.478 0)
(351.769 104.733 0)
(354.898 103.496 0)
(356.961 102.56 0)
(358.941 101.199 0)
(360.832 100.26 0)
(363.918 99.3949 0)
(369.363 98.6224 0)
(371.342 101.584 0)
(210 6.29921e-08 0)
(210 5.0472e-06 0)
(209.997 0.000603893 0)
(209.917 0.0220458 0)
(209.28 0.242376 0)
(207.57 0.953833 0)
(205.684 1.77451 0)
(204.968 2.22723 0)
(204.697 2.40492 0)
(205.019 2.43807 0)
(206.011 2.15271 0)
(207.12 1.8514 0)
(208.029 1.56249 0)
(208.926 1.41281 0)
(209.737 1.31252 0)
(210.371 1.34176 0)
(210.695 1.56481 0)
(210.84 1.9191 0)
(210.959 2.32691 0)
(211.063 2.77129 0)
(211.25 3.18924 0)
(211.559 3.55464 0)
(211.911 3.92474 0)
(212.204 4.35554 0)
(212.46 4.83101 0)
(212.687 5.33424 0)
(212.886 5.85914 0)
(213.052 6.41038 0)
(213.196 6.99319 0)
(213.327 7.61009 0)
(213.437 8.26344 0)
(213.525 8.95377 0)
(213.596 9.68078 0)
(213.649 10.4441 0)
(213.681 11.2405 0)
(213.692 12.0638 0)
(213.681 12.9082 0)
(213.644 13.7762 0)
(213.59 14.6661 0)
(213.518 15.5841 0)
(213.427 16.533 0)
(213.315 17.5148 0)
(213.181 18.5298 0)
(213.029 19.5744 0)
(212.864 20.6446 0)
(212.687 21.7395 0)
(212.498 22.8609 0)
(212.295 24.0115 0)
(212.081 25.1926 0)
(211.857 26.4046 0)
(211.628 27.6472 0)
(211.394 28.9212 0)
(211.156 30.2276 0)
(210.916 31.5678 0)
(210.674 32.9438 0)
(210.433 34.3536 0)
(210.194 35.8005 0)
(209.964 37.2845 0)
(209.732 38.813 0)
(209.521 40.371 0)
(209.328 41.9712 0)
(209.149 43.6125 0)
(209.002 45.2935 0)
(208.883 47.0179 0)
(208.788 48.7824 0)
(208.745 50.5925 0)
(208.738 52.444 0)
(208.779 54.3387 0)
(208.891 56.2791 0)
(209.043 58.261 0)
(209.28 60.2898 0)
(209.598 62.3629 0)
(209.977 64.4778 0)
(210.475 66.6375 0)
(211.061 68.8356 0)
(211.742 71.0718 0)
(212.578 73.3465 0)
(213.513 75.6557 0)
(214.597 77.9992 0)
(215.842 80.3727 0)
(217.233 82.7686 0)
(218.789 85.1846 0)
(220.558 87.6028 0)
(222.474 90.0191 0)
(224.617 92.4143 0)
(226.954 94.7875 0)
(229.514 97.1233 0)
(232.3 99.4054 0)
(235.299 101.629 0)
(238.553 103.738 0)
(241.948 105.801 0)
(245.635 107.69 0)
(249.455 109.512 0)
(253.543 111.142 0)
(257.853 112.688 0)
(262.319 113.981 0)
(267.057 115.211 0)
(271.72 116.113 0)
(276.766 116.964 0)
(281.684 117.52 0)
(286.821 117.941 0)
(292.049 118.132 0)
(296.888 118.206 0)
(302.087 118.097 0)
(306.906 117.852 0)
(311.733 117.539 0)
(316.786 117.029 0)
(321.119 116.594 0)
(326.026 115.754 0)
(330.031 115.106 0)
(334.514 114.099 0)
(338.192 113.449 0)
(342.528 112.407 0)
(346.006 111.655 0)
(349.78 110.429 0)
(352.277 109.503 0)
(354.442 108.229 0)
(356.298 107.58 0)
(359.445 107.038 0)
(364.986 106.653 0)
(366.728 110.492 0)
(210 7.60607e-09 0)
(210 7.1071e-07 0)
(209.999 0.000155936 0)
(209.961 0.0086872 0)
(209.55 0.135344 0)
(208.075 0.699473 0)
(206.013 1.54229 0)
(204.945 2.12337 0)
(204.519 2.31827 0)
(204.709 2.44676 0)
(205.563 2.23876 0)
(206.647 1.90867 0)
(207.575 1.59569 0)
(208.49 1.46318 0)
(209.323 1.37877 0)
(209.986 1.38717 0)
(210.35 1.58843 0)
(210.489 1.92724 0)
(210.593 2.3123 0)
(210.65 2.7456 0)
(210.777 3.16244 0)
(211.022 3.52873 0)
(211.349 3.88176 0)
(211.63 4.29528 0)
(211.869 4.76032 0)
(212.078 5.2556 0)
(212.257 5.7725 0)
(212.402 6.31533 0)
(212.527 6.8888 0)
(212.638 7.49594 0)
(212.726 8.1386 0)
(212.792 8.81676 0)
(212.84 9.5308 0)
(212.871 10.2805 0)
(212.883 11.0594 0)
(212.873 11.8644 0)
(212.832 12.6954 0)
(212.771 13.5446 0)
(212.69 14.4165 0)
(212.589 15.3145 0)
(212.468 16.2429 0)
(212.325 17.2035 0)
(212.159 18.1959 0)
(211.973 19.2168 0)
(211.772 20.2628 0)
(211.559 21.3323 0)
(211.332 22.4272 0)
(211.09 23.5505 0)
(210.834 24.7044 0)
(210.565 25.8892 0)
(210.288 27.1048 0)
(210.004 28.3513 0)
(209.714 29.6296 0)
(209.418 30.9411 0)
(209.118 32.2873 0)
(208.814 33.6695 0)
(208.509 35.0877 0)
(208.205 36.544 0)
(207.906 38.0356 0)
(207.615 39.566 0)
(207.336 41.136 0)
(207.06 42.7522 0)
(206.816 44.4011 0)
(206.589 46.0967 0)
(206.383 47.833 0)
(206.22 49.6179 0)
(206.081 51.4461 0)
(205.985 53.3199 0)
(205.946 55.2424 0)
(205.938 57.2088 0)
(206.008 59.2271 0)
(206.142 61.2932 0)
(206.331 63.406 0)
(206.629 65.5702 0)
(206.996 67.7785 0)
(207.455 70.0338 0)
(208.052 72.3375 0)
(208.73 74.6815 0)
(209.551 77.066 0)
(210.515 79.4829 0)
(211.606 81.9244 0)
(212.856 84.3901 0)
(214.297 86.8682 0)
(215.872 89.3536 0)
(217.667 91.8344 0)
(219.638 94.3089 0)
(221.816 96.7647 0)
(224.198 99.1966 0)
(226.795 101.596 0)
(229.623 103.943 0)
(232.63 106.262 0)
(235.946 108.459 0)
(239.377 110.625 0)
(243.12 112.6 0)
(246.976 114.532 0)
(251.101 116.282 0)
(255.414 117.894 0)
(259.913 119.299 0)
(264.532 120.579 0)
(269.492 121.752 0)
(274.213 122.572 0)
(279.477 123.291 0)
(284.335 123.796 0)
(289.652 124.226 0)
(295.04 124.392 0)
(300.029 124.394 0)
(305.572 124.164 0)
(310.072 123.915 0)
(315.442 123.308 0)
(319.842 122.748 0)
(324.709 121.879 0)
(328.842 121.256 0)
(333.426 120.425 0)
(337.26 119.812 0)
(341.334 118.771 0)
(344.211 117.845 0)
(346.644 116.538 0)
(348.651 115.841 0)
(351.925 115.304 0)
(357.373 115.039 0)
(359.209 118.4 0)
(210 2.73812e-10 0)
(210 3.60162e-08 0)
(210 2.85049e-05 0)
(209.984 0.00283482 0)
(209.749 0.0660444 0)
(208.582 0.467295 0)
(206.481 1.28182 0)
(205.034 1.9682 0)
(204.379 2.22788 0)
(204.456 2.42306 0)
(205.111 2.27801 0)
(206.144 1.93998 0)
(207.105 1.62202 0)
(208.043 1.51647 0)
(208.89 1.44142 0)
(209.577 1.42025 0)
(209.987 1.59345 0)
(210.126 1.91129 0)
(210.219 2.26746 0)
(210.231 2.69593 0)
(210.307 3.11482 0)
(210.481 3.47957 0)
(210.775 3.81781 0)
(211.043 4.21302 0)
(211.267 4.66316 0)
(211.459 5.14614 0)
(211.62 5.65309 0)
(211.746 6.18781 0)
(211.854 6.75432 0)
(211.943 7.35497 0)
(212.006 7.98993 0)
(212.049 8.65874 0)
(212.074 9.36214 0)
(212.083 10.097 0)
(212.073 10.8596 0)
(212.032 11.6527 0)
(211.968 12.4648 0)
(211.88 13.2969 0)
(211.77 14.1513 0)
(211.639 15.0318 0)
(211.487 15.941 0)
(211.312 16.8804 0)
(211.114 17.8498 0)
(210.893 18.847 0)
(210.656 19.8689 0)
(210.404 20.9142 0)
(210.138 21.9844 0)
(209.854 23.0825 0)
(209.554 24.2111 0)
(209.239 25.3708 0)
(208.912 26.5614 0)
(208.576 27.7829 0)
(208.232 29.036 0)
(207.88 30.3219 0)
(207.52 31.6417 0)
(207.154 32.9962 0)
(206.783 34.3865 0)
(206.41 35.8131 0)
(206.037 37.2779 0)
(205.666 38.7808 0)
(205.301 40.3229 0)
(204.947 41.9012 0)
(204.609 43.5211 0)
(204.275 45.1897 0)
(203.966 46.893 0)
(203.69 48.6432 0)
(203.427 50.439 0)
(203.209 52.2796 0)
(203.031 54.1697 0)
(202.88 56.103 0)
(202.799 58.0898 0)
(202.764 60.124 0)
(202.78 62.2074 0)
(202.89 64.3454 0)
(203.05 66.5298 0)
(203.297 68.7672 0)
(203.661 71.0583 0)
(204.089 73.3941 0)
(204.65 75.7797 0)
(205.332 78.2086 0)
(206.124 80.6771 0)
(207.072 83.1887 0)
(208.191 85.7344 0)
(209.436 88.3094 0)
(210.893 90.9101 0)
(212.513 93.5343 0)
(214.334 96.1695 0)
(216.355 98.8061 0)
(218.593 101.425 0)
(221.039 104.01 0)
(223.685 106.564 0)
(226.608 109.035 0)
(229.673 111.477 0)
(233.079 113.771 0)
(236.592 116.039 0)
(240.416 118.11 0)
(244.392 120.13 0)
(248.619 121.958 0)
(253.014 123.638 0)
(257.638 125.167 0)
(262.261 126.402 0)
(267.162 127.56 0)
(272.01 128.632 0)
(276.883 129.544 0)
(282.089 130.214 0)
(286.691 130.641 0)
(291.899 130.842 0)
(296.456 131.052 0)
(301.6 131.008 0)
(306.184 130.914 0)
(310.96 130.505 0)
(315.434 130.08 0)
(319.941 129.546 0)
(324.225 129.113 0)
(328.649 128.39 0)
(332.118 127.574 0)
(335.202 126.273 0)
(337.727 125.29 0)
(341.398 124.528 0)
(347.96 124.065 0)
(349.82 128.183 0)
(210 -2.81397e-10 0)
(210 -3.03659e-08 0)
(210 1.74585e-06 0)
(209.995 0.00072166 0)
(209.876 0.0273388 0)
(209.046 0.279126 0)
(207.047 0.993477 0)
(205.227 1.77104 0)
(204.272 2.16599 0)
(204.258 2.32893 0)
(204.679 2.26338 0)
(205.625 1.98371 0)
(206.63 1.68581 0)
(207.594 1.59383 0)
(208.446 1.51091 0)
(209.148 1.45783 0)
(209.605 1.59648 0)
(209.758 1.88318 0)
(209.84 2.21316 0)
(209.798 2.63654 0)
(209.837 3.0387 0)
(209.942 3.41722 0)
(210.193 3.75362 0)
(210.444 4.13599 0)
(210.65 4.57513 0)
(210.823 5.05043 0)
(210.965 5.55052 0)
(211.075 6.07685 0)
(211.166 6.63345 0)
(211.233 7.22252 0)
(211.273 7.84389 0)
(211.293 8.49801 0)
(211.297 9.18333 0)
(211.285 9.89861 0)
(211.246 10.6473 0)
(211.183 11.4186 0)
(211.094 12.2112 0)
(210.98 13.0232 0)
(210.842 13.8571 0)
(210.682 14.7163 0)
(210.5 15.6031 0)
(210.295 16.5184 0)
(210.066 17.4619 0)
(209.813 18.4322 0)
(209.541 19.4269 0)
(209.254 20.4443 0)
(208.951 21.4858 0)
(208.63 22.5544 0)
(208.289 23.6531 0)
(207.931 24.7829 0)
(207.559 25.9436 0)
(207.175 27.1349 0)
(206.782 28.3571 0)
(206.378 29.6112 0)
(205.964 30.8985 0)
(205.54 32.22 0)
(205.108 33.5765 0)
(204.67 34.9689 0)
(204.228 36.3978 0)
(203.785 37.8644 0)
(203.341 39.3696 0)
(202.903 40.9148 0)
(202.47 42.5011 0)
(202.047 44.1267 0)
(201.64 45.7947 0)
(201.251 47.5083 0)
(200.863 49.2749 0)
(200.523 51.0782 0)
(200.204 52.9352 0)
(199.911 54.837 0)
(199.678 56.7965 0)
(199.473 58.8047 0)
(199.317 60.866 0)
(199.239 62.985 0)
(199.195 65.1525 0)
(199.237 67.3792 0)
(199.374 69.663 0)
(199.563 71.9954 0)
(199.881 74.3856 0)
(200.296 76.8249 0)
(200.81 79.3125 0)
(201.473 81.854 0)
(202.276 84.4405 0)
(203.191 87.0679 0)
(204.301 89.735 0)
(205.549 92.4336 0)
(206.982 95.1541 0)
(208.601 97.8887 0)
(210.428 100.623 0)
(212.448 103.355 0)
(214.692 106.078 0)
(217.187 108.765 0)
(219.859 111.429 0)
(222.849 114.004 0)
(225.972 116.571 0)
(229.443 118.998 0)
(233.031 121.403 0)
(236.937 123.624 0)
(241.01 125.759 0)
(245.34 127.662 0)
(249.966 129.51 0)
(254.662 131.036 0)
(259.706 132.621 0)
(264.504 133.705 0)
(269.944 134.784 0)
(274.832 135.402 0)
(280.46 136.018 0)
(285.583 136.428 0)
(290.941 136.793 0)
(296.047 137.008 0)
(301.114 137.002 0)
(306.32 136.721 0)
(311.186 136.406 0)
(316.318 136.025 0)
(321.12 135.585 0)
(325.1 135.039 0)
(328.666 134.054 0)
(331.447 133.251 0)
(335.144 132.687 0)
(341.609 132.584 0)
(343.383 136.953 0)
(210 -1.00307e-10 0)
(210 -1.47343e-08 0)
(210 -8.12528e-07 0)
(209.998 0.000121808 0)
(209.947 0.00927466 0)
(209.424 0.145442 0)
(207.684 0.708695 0)
(205.566 1.53418 0)
(204.25 2.03198 0)
(204.122 2.19617 0)
(204.294 2.22016 0)
(205.1 2.04585 0)
(206.135 1.75541 0)
(207.124 1.64682 0)
(207.976 1.54514 0)
(208.694 1.47583 0)
(209.206 1.57978 0)
(209.388 1.83531 0)
(209.464 2.1367 0)
(209.375 2.54289 0)
(209.368 2.93143 0)
(209.419 3.31713 0)
(209.619 3.65286 0)
(209.85 4.02352 0)
(210.04 4.45482 0)
(210.192 4.9272 0)
(210.314 5.42411 0)
(210.407 5.94432 0)
(210.479 6.49238 0)
(210.521 7.07023 0)
(210.537 7.67859 0)
(210.536 8.31626 0)
(210.519 8.98282 0)
(210.476 9.68493 0)
(210.413 10.4126 0)
(210.326 11.1646 0)
(210.211 11.937 0)
(210.07 12.7289 0)
(209.904 13.5423 0)
(209.714 14.3804 0)
(209.502 15.245 0)
(209.266 16.1363 0)
(209.005 17.0541 0)
(208.72 17.9976 0)
(208.412 18.9652 0)
(208.088 19.9556 0)
(207.746 20.9697 0)
(207.386 22.0104 0)
(207.005 23.0807 0)
(206.603 24.182 0)
(206.184 25.3144 0)
(205.752 26.4772 0)
(205.307 27.6704 0)
(204.85 28.8948 0)
(204.381 30.1516 0)
(203.899 31.4417 0)
(203.407 32.7661 0)
(202.904 34.1254 0)
(202.394 35.5207 0)
(201.877 36.9528 0)
(201.358 38.4225 0)
(200.837 39.9306 0)
(200.318 41.4782 0)
(199.804 43.0672 0)
(199.299 44.6986 0)
(198.802 46.3739 0)
(198.32 48.0893 0)
(197.864 49.8531 0)
(197.41 51.6729 0)
(196.992 53.529 0)
(196.618 55.4417 0)
(196.259 57.4044 0)
(195.952 59.4212 0)
(195.701 61.4968 0)
(195.473 63.6208 0)
(195.328 65.8091 0)
(195.25 68.0549 0)
(195.215 70.3537 0)
(195.298 72.7192 0)
(195.45 75.14 0)
(195.69 77.6204 0)
(196.065 80.1654 0)
(196.549 82.7632 0)
(197.137 85.4106 0)
(197.906 88.1088 0)
(198.793 90.846 0)
(199.861 93.6199 0)
(201.105 96.4257 0)
(202.54 99.2532 0)
(204.151 102.1 0)
(205.982 104.959 0)
(208.026 107.814 0)
(210.256 110.666 0)
(212.767 113.48 0)
(215.425 116.282 0)
(218.412 118.995 0)
(221.509 121.699 0)
(224.969 124.247 0)
(228.536 126.752 0)
(232.422 129.063 0)
(236.447 131.33 0)
(240.743 133.478 0)
(245.241 135.467 0)
(249.831 137.11 0)
(254.72 138.711 0)
(259.625 140.142 0)
(264.763 141.426 0)
(270.067 142.559 0)
(275.072 143.436 0)
(280.417 144.253 0)
(285.443 144.821 0)
(290.969 145.074 0)
(295.725 145.181 0)
(301.402 145.107 0)
(305.943 145.008 0)
(310.315 144.674 0)
(314.04 143.974 0)
(316.942 143.173 0)
(320.52 142.565 0)
(327.451 142.167 0)
(328.839 147.064 0)
(210 -3.17273e-11 0)
(210 -4.6131e-09 0)
(210 -4.20637e-07 0)
(210 1.83592e-06 0)
(209.981 0.00241478 0)
(209.693 0.0643458 0)
(208.327 0.455026 0)
(206.057 1.25155 0)
(204.329 1.8229 0)
(204.01 2.07843 0)
(203.964 2.18294 0)
(204.591 2.09074 0)
(205.622 1.80512 0)
(206.638 1.6786 0)
(207.492 1.56718 0)
(208.227 1.49339 0)
(208.789 1.5572 0)
(209.016 1.77851 0)
(209.084 2.05294 0)
(208.961 2.4365 0)
(208.887 2.82708 0)
(208.897 3.21666 0)
(209.043 3.56182 0)
(209.252 3.93389 0)
(209.427 4.36121 0)
(209.557 4.82714 0)
(209.66 5.31295 0)
(209.734 5.81878 0)
(209.783 6.35128 0)
(209.8 6.91342 0)
(209.796 7.50341 0)
(209.775 8.12061 0)
(209.727 8.77297 0)
(209.66 9.45322 0)
(209.573 10.1603 0)
(209.462 10.8903 0)
(209.322 11.6404 0)
(209.155 12.4098 0)
(208.962 13.2005 0)
(208.744 14.0152 0)
(208.502 14.8552 0)
(208.237 15.72 0)
(207.948 16.6095 0)
(207.632 17.5234 0)
(207.292 18.4611 0)
(206.933 19.4214 0)
(206.556 20.4051 0)
(206.16 21.4145 0)
(205.742 22.4529 0)
(205.3 23.522 0)
(204.839 24.6218 0)
(204.362 25.7516 0)
(203.871 26.9112 0)
(203.366 28.1009 0)
(202.847 29.322 0)
(202.313 30.5753 0)
(201.764 31.8619 0)
(201.203 33.1824 0)
(200.63 34.5378 0)
(200.047 35.929 0)
(199.457 37.3571 0)
(198.86 38.823 0)
(198.261 40.3275 0)
(197.661 41.8719 0)
(197.063 43.4579 0)
(196.468 45.0872 0)
(195.882 46.7617 0)
(195.305 48.483 0)
(194.742 50.2483 0)
(194.2 52.0627 0)
(193.682 53.9314 0)
(193.166 55.8561 0)
(192.71 57.8283 0)
(192.281 59.8627 0)
(191.875 61.9467 0)
(191.544 64.1006 0)
(191.255 66.3112 0)
(191.007 68.5786 0)
(190.864 70.9176 0)
(190.764 73.3111 0)
(190.75 75.7695 0)
(190.856 78.2947 0)
(191.042 80.8742 0)
(191.332 83.5131 0)
(191.781 86.2163 0)
(192.326 88.9718 0)
(193.039 91.7872 0)
(193.905 94.6587 0)
(194.937 97.5781 0)
(196.133 100.542 0)
(197.542 103.543 0)
(199.135 106.571 0)
(200.928 109.62 0)
(202.981 112.663 0)
(205.211 115.7 0)
(207.749 118.693 0)
(210.432 121.683 0)
(213.474 124.571 0)
(216.642 127.444 0)
(220.184 130.172 0)
(223.845 132.879 0)
(227.805 135.379 0)
(231.97 137.787 0)
(236.414 139.988 0)
(240.934 141.984 0)
(245.697 144.05 0)
(250.375 145.684 0)
(255.695 147.311 0)
(260.597 148.569 0)
(265.684 149.766 0)
(270.61 150.855 0)
(275.588 151.675 0)
(280.534 152.312 0)
(285.865 152.726 0)
(290.999 153.019 0)
(296.004 153.105 0)
(300.595 152.818 0)
(304.172 152.418 0)
(308.292 152.172 0)
(315.752 152.297 0)
(316.999 158.162 0)
(210 -8.89536e-13 0)
(210 -1.15019e-09 0)
(210 -1.33031e-07 0)
(210 -7.37843e-06 0)
(209.994 0.00039608 0)
(209.857 0.0232968 0)
(208.901 0.257079 0)
(206.693 0.943524 0)
(204.577 1.58683 0)
(203.923 1.98398 0)
(203.706 2.09236 0)
(204.11 2.06921 0)
(205.098 1.82483 0)
(206.141 1.69599 0)
(207.001 1.57847 0)