/*--------------------------------*- C++ -*----------------------------------*\
| =========                 |                                                 |
| \\      /  F ield         | OpenFOAM: The Open Source CFD Toolbox           |
|  \\    /   O peration     | Version:  2412                                  |
|   \\  /    A nd           | Website:  www.openfoam.com                      |
|    \\/     M anipulation  |                                                 |
\*---------------------------------------------------------------------------*/
FoamFile
{
    version     2.0;
    format      ascii;
    arch        "LSB;label=32;scalar=64";
    class       volScalarField;
    location    "0.043";
    object      rho;
}
// * * * * * * * * * * * * * * * * * * * * * * * * * * * * * * * * * * * * * //

dimensions      [1 -3 0 0 0 0 0];

internalField   nonuniform List<scalar> 
9859
(
0.042039
0.0420287
0.0420227
0.0420153
0.0420101
0.042005
0.0420016
0.0419971
0.0419919
0.041987
0.0419835
0.0419831
0.0419846
0.0419869
0.0419898
0.0419939
0.0420001
0.0420086
0.042019
0.0420302
0.0420413
0.042052
0.0420627
0.0420738
0.0420857
0.042098
0.0421098
0.0421205
0.0421302
0.0421394
0.0421487
0.0421585
0.0421683
0.0421775
0.0421857
0.042193
0.0422002
0.0422077
0.0422153
0.0422225
0.0422287
0.0422341
0.0422392
0.0422443
0.0422493
0.0422535
0.0422566
0.0422585
0.0422599
0.0422609
0.0422617
0.0422617
0.0422606
0.0422588
0.0422569
0.042255
0.042253
0.0422502
0.0422464
0.0422411
0.0422339
0.0422248
0.0422133
0.0421992
0.0421823
0.0421631
0.0421433
0.0421252
0.0421071
0.0420374
0.0420268
0.0420205
0.0420128
0.0420073
0.0420019
0.0419983
0.0419937
0.0419883
0.0419832
0.0419795
0.0419788
0.04198
0.0419821
0.0419849
0.0419889
0.0419949
0.0420034
0.0420136
0.0420248
0.0420359
0.0420466
0.0420573
0.0420685
0.0420805
0.0420929
0.0421048
0.0421157
0.0421255
0.0421349
0.0421444
0.0421543
0.0421644
0.0421737
0.0421821
0.0421896
0.042197
0.0422047
0.0422125
0.0422198
0.0422262
0.0422318
0.0422371
0.0422424
0.0422475
0.042252
0.0422552
0.0422573
0.0422587
0.04226
0.0422608
0.0422609
0.0422601
0.0422584
0.0422565
0.0422547
0.0422528
0.0422502
0.0422464
0.0422411
0.042234
0.0422249
0.0422134
0.0421993
0.0421822
0.0421624
0.0421415
0.0421228
0.0421041
0.0421013
0.0421061
0.0420912
0.0420977
0.0421152
0.0421316
0.0421826
0.0421853
0.0421883
0.0421932
0.0421992
0.0422072
0.042217
0.0422293
0.0422409
0.0422498
0.0422553
0.0422542
0.04224
0.0422116
0.0421741
0.042131
0.0420874
0.0420466
0.0420104
0.0419793
0.0419519
0.0419267
0.0419
0.0418696
0.0418334
0.0417928
0.0417459
0.0416935
0.0416376
0.041576
0.0415145
0.0414565
0.0414064
0.0413811
0.041384
0.0414131
0.0414457
0.0420357
0.0420248
0.0420183
0.0420102
0.0420043
0.0419987
0.0419949
0.0419901
0.0419847
0.0419793
0.0419753
0.0419743
0.0419753
0.0419772
0.0419798
0.0419837
0.0419896
0.0419979
0.0420081
0.0420192
0.0420303
0.042041
0.0420518
0.042063
0.0420751
0.0420875
0.0420996
0.0421106
0.0421206
0.0421301
0.0421398
0.04215
0.0421602
0.0421698
0.0421783
0.042186
0.0421936
0.0422015
0.0422095
0.042217
0.0422237
0.0422295
0.0422349
0.0422404
0.0422457
0.0422503
0.0422537
0.0422559
0.0422576
0.0422589
0.0422599
0.0422602
0.0422594
0.0422579
0.0422561
0.0422545
0.0422526
0.0422501
0.0422464
0.0422412
0.0422342
0.0422251
0.0422136
0.0421995
0.0421822
0.0421617
0.0421395
0.0421199
0.0421007
0.0420967
0.0421006
0.0420851
0.042095
0.0421155
0.0421336
0.0421484
0.0421591
0.042166
0.0421708
0.0421755
0.04218
0.0421851
0.04219
0.0421944
0.0421979
0.0422028
0.0422081
0.0422152
0.0422233
0.0422333
0.042245
0.0422558
0.0422645
0.0422694
0.0422677
0.042254
0.0422268
0.042191
0.0421494
0.0421071
0.0420672
0.0420315
0.0420007
0.0419735
0.0419484
0.0419221
0.0418922
0.0418566
0.0418163
0.0417698
0.0417177
0.0416618
0.0416001
0.041538
0.0414783
0.0414267
0.0413988
0.0413972
0.0414196
0.0414416
0.042034
0.0420228
0.042016
0.0420076
0.0420013
0.0419954
0.0419914
0.0419865
0.0419809
0.0419753
0.0419711
0.0419697
0.0419704
0.0419721
0.0419745
0.0419783
0.0419841
0.0419923
0.0420024
0.0420134
0.0420245
0.0420352
0.042046
0.0420573
0.0420694
0.042082
0.0420942
0.0421053
0.0421155
0.0421252
0.0421351
0.0421454
0.0421558
0.0421656
0.0421743
0.0421823
0.0421901
0.0421981
0.0422064
0.0422141
0.042221
0.042227
0.0422326
0.0422383
0.0422438
0.0422486
0.0422521
0.0422545
0.0422563
0.0422578
0.042259
0.0422594
0.0422588
0.0422574
0.0422557
0.0422542
0.0422525
0.0422501
0.0422465
0.0422413
0.0422343
0.0422253
0.0422138
0.0421998
0.0421823
0.042161
0.0421378
0.0421183
0.0420998
0.0420929
0.0420939
0.0420797
0.0420937
0.0421172
0.0421362
0.0421516
0.0421635
0.0421716
0.0421776
0.0421832
0.0421889
0.042195
0.0422011
0.0422067
0.0422113
0.0422166
0.0422229
0.0422302
0.0422387
0.0422484
0.0422593
0.0422694
0.0422777
0.0422821
0.0422802
0.0422673
0.0422415
0.0422075
0.0421676
0.0421267
0.0420878
0.0420528
0.0420223
0.0419953
0.0419704
0.0419444
0.041915
0.0418799
0.0418401
0.041794
0.0417423
0.0416865
0.0416247
0.0415618
0.0415004
0.0414471
0.0414163
0.0414101
0.0414254
0.041435
0.0420323
0.0420208
0.0420137
0.0420049
0.0419982
0.041992
0.0419878
0.0419827
0.0419769
0.0419712
0.0419666
0.041965
0.0419653
0.0419669
0.0419691
0.0419727
0.0419784
0.0419865
0.0419965
0.0420074
0.0420185
0.0420292
0.0420399
0.0420513
0.0420635
0.0420762
0.0420885
0.0420998
0.0421101
0.04212
0.0421301
0.0421407
0.0421513
0.0421612
0.0421702
0.0421784
0.0421864
0.0421947
0.0422031
0.0422111
0.0422182
0.0422244
0.0422302
0.0422361
0.0422419
0.0422468
0.0422505
0.0422531
0.042255
0.0422567
0.042258
0.0422586
0.0422581
0.0422568
0.0422553
0.0422539
0.0422523
0.04225
0.0422465
0.0422415
0.0422345
0.0422255
0.0422141
0.0422
0.0421824
0.0421603
0.0421355
0.0421148
0.042096
0.0420891
0.0420866
0.0420755
0.0420937
0.0421192
0.0421399
0.0421559
0.042169
0.0421782
0.0421852
0.0421916
0.042198
0.0422053
0.0422124
0.0422186
0.042224
0.04223
0.0422366
0.0422443
0.0422528
0.0422621
0.0422723
0.0422818
0.0422898
0.0422938
0.0422919
0.0422799
0.0422558
0.0422237
0.0421856
0.0421463
0.0421086
0.0420743
0.0420442
0.0420175
0.0419927
0.0419671
0.041938
0.0419036
0.0418642
0.0418186
0.0417673
0.0417117
0.0416498
0.0415861
0.0415231
0.0414677
0.0414336
0.0414232
0.041431
0.041426
0.041184
0.0420306
0.0420187
0.0420114
0.0420021
0.0419951
0.0419885
0.041984
0.0419788
0.0419728
0.0419669
0.0419621
0.04196
0.0419601
0.0419614
0.0419635
0.041967
0.0419725
0.0419804
0.0419903
0.0420012
0.0420122
0.0420229
0.0420337
0.0420451
0.0420574
0.0420702
0.0420826
0.042094
0.0421046
0.0421146
0.0421249
0.0421357
0.0421465
0.0421567
0.0421659
0.0421742
0.0421825
0.042191
0.0421997
0.0422079
0.0422152
0.0422217
0.0422277
0.0422338
0.0422398
0.0422449
0.0422488
0.0422515
0.0422536
0.0422555
0.042257
0.0422577
0.0422574
0.0422563
0.0422549
0.0422536
0.0422522
0.04225
0.0422466
0.0422416
0.0422347
0.0422257
0.0422143
0.0422003
0.0421826
0.0421604
0.0421347
0.0421128
0.0420939
0.0420854
0.0420794
0.0420731
0.0420949
0.0421222
0.0421446
0.0421613
0.0421755
0.0421857
0.0421934
0.0422
0.0422073
0.0422154
0.0422231
0.0422301
0.042236
0.0422423
0.0422493
0.0422571
0.0422655
0.0422745
0.0422838
0.0422929
0.0423005
0.0423043
0.0423029
0.0422922
0.0422698
0.0422398
0.0422037
0.042166
0.0421295
0.0420959
0.0420663
0.04204
0.0420153
0.0419901
0.0419614
0.0419276
0.0418888
0.0418437
0.041793
0.0417377
0.0416757
0.0416112
0.0415467
0.0414889
0.0414512
0.0414363
0.0414366
0.0414152
0.0411591
0.0420289
0.0420167
0.042009
0.0419994
0.0419919
0.0419849
0.0419802
0.0419747
0.0419687
0.0419625
0.0419573
0.041955
0.0419547
0.0419558
0.0419577
0.041961
0.0419664
0.0419742
0.041984
0.0419948
0.0420057
0.0420164
0.0420272
0.0420387
0.042051
0.0420639
0.0420764
0.042088
0.0420987
0.042109
0.0421195
0.0421304
0.0421415
0.0421519
0.0421613
0.04217
0.0421784
0.0421872
0.0421962
0.0422046
0.0422122
0.0422188
0.0422252
0.0422315
0.0422377
0.042243
0.042247
0.0422499
0.0422522
0.0422543
0.0422559
0.0422568
0.0422566
0.0422557
0.0422545
0.0422534
0.042252
0.04225
0.0422467
0.0422418
0.0422349
0.042226
0.0422146
0.0422006
0.0421827
0.0421595
0.0421324
0.042109
0.0420918
0.042081
0.0420734
0.0420719
0.0420968
0.0421265
0.0421506
0.0421677
0.0421827
0.0421936
0.0422018
0.0422081
0.0422167
0.0422249
0.0422333
0.0422407
0.042247
0.0422536
0.0422609
0.0422686
0.0422768
0.0422854
0.0422943
0.0423031
0.0423104
0.0423142
0.0423134
0.0423042
0.0422837
0.0422559
0.0422217
0.0421858
0.0421506
0.0421179
0.0420888
0.0420628
0.0420384
0.0420134
0.0419853
0.041952
0.0419138
0.0418695
0.0418195
0.0417645
0.0417025
0.0416372
0.0415713
0.0415107
0.0414695
0.0414496
0.0414419
0.0414032
0.0411331
0.0420272
0.0420146
0.0420067
0.0419966
0.0419886
0.0419813
0.0419762
0.0419706
0.0419643
0.0419579
0.0419525
0.0419497
0.0419491
0.04195
0.0419517
0.0419549
0.0419601
0.0419678
0.0419774
0.0419881
0.041999
0.0420097
0.0420205
0.042032
0.0420444
0.0420573
0.04207
0.0420818
0.0420926
0.0421031
0.0421138
0.042125
0.0421363
0.042147
0.0421566
0.0421655
0.0421742
0.0421832
0.0421924
0.0422012
0.042209
0.0422159
0.0422225
0.042229
0.0422354
0.042241
0.0422452
0.0422483
0.0422507
0.042253
0.0422548
0.0422558
0.0422559
0.0422551
0.0422541
0.0422531
0.0422519
0.04225
0.0422468
0.0422419
0.0422351
0.0422262
0.0422148
0.0422008
0.0421828
0.0421592
0.0421311
0.042106
0.0420902
0.0420763
0.042069
0.0420727
0.0420998
0.0421317
0.0421574
0.0421748
0.0421903
0.0422016
0.0422102
0.0422158
0.0422258
0.0422339
0.0422426
0.0422504
0.042257
0.0422638
0.0422712
0.0422789
0.0422869
0.0422953
0.0423037
0.0423122
0.0423193
0.0423234
0.0423234
0.0423158
0.0422973
0.0422718
0.0422399
0.0422058
0.042172
0.0421402
0.0421117
0.042086
0.0420618
0.0420373
0.0420097
0.0419771
0.0419396
0.041896
0.0418467
0.0417922
0.0417304
0.0416644
0.0415972
0.0415336
0.0414885
0.0414632
0.0414465
0.0413903
0.0411063
0.0420255
0.0420125
0.0420043
0.0419937
0.0419854
0.0419775
0.0419722
0.0419663
0.0419599
0.0419532
0.0419475
0.0419443
0.0419434
0.041944
0.0419455
0.0419485
0.0419536
0.0419611
0.0419706
0.0419813
0.0419921
0.0420027
0.0420135
0.042025
0.0420375
0.0420505
0.0420633
0.0420752
0.0420863
0.0420969
0.0421079
0.0421193
0.0421308
0.0421418
0.0421517
0.0421608
0.0421698
0.0421791
0.0421886
0.0421976
0.0422056
0.0422128
0.0422197
0.0422265
0.0422331
0.0422389
0.0422433
0.0422465
0.0422492
0.0422516
0.0422537
0.0422549
0.0422551
0.0422545
0.0422536
0.0422528
0.0422518
0.04225
0.0422469
0.0422422
0.0422354
0.0422266
0.0422153
0.042201
0.0421827
0.0421582
0.0421282
0.0421009
0.0420897
0.042071
0.0420659
0.0420745
0.0421043
0.0421378
0.0421648
0.0421822
0.042198
0.0422093
0.0422181
0.0422235
0.0422341
0.0422423
0.0422511
0.0422592
0.042266
0.0422731
0.0422806
0.0422882
0.042296
0.0423041
0.0423125
0.0423208
0.0423279
0.0423322
0.042333
0.0423272
0.0423109
0.0422878
0.0422581
0.0422259
0.0421936
0.0421628
0.042135
0.0421098
0.0420859
0.0420617
0.0420346
0.0420029
0.041966
0.0419234
0.0418749
0.0418209
0.0417593
0.0416928
0.0416243
0.0415579
0.0415083
0.0414771
0.0414503
0.0413768
0.0410798
0.0420238
0.0420104
0.0420019
0.0419909
0.041982
0.0419737
0.041968
0.041962
0.0419553
0.0419484
0.0419423
0.0419388
0.0419374
0.0419378
0.0419392
0.041942
0.0419469
0.0419543
0.0419637
0.0419742
0.0419849
0.0419955
0.0420063
0.0420178
0.0420304
0.0420435
0.0420564
0.0420685
0.0420797
0.0420905
0.0421017
0.0421134
0.0421252
0.0421363
0.0421465
0.0421559
0.0421652
0.0421748
0.0421845
0.0421938
0.0422022
0.0422097
0.0422168
0.0422238
0.0422307
0.0422366
0.0422413
0.0422447
0.0422475
0.0422502
0.0422524
0.0422539
0.0422542
0.0422538
0.0422532
0.0422525
0.0422516
0.04225
0.0422471
0.0422424
0.0422357
0.042227
0.0422157
0.0422013
0.0421826
0.0421574
0.0421257
0.0420957
0.0420897
0.0420652
0.0420642
0.042077
0.0421096
0.0421442
0.0421722
0.0421896
0.0422054
0.0422167
0.0422253
0.0422311
0.0422418
0.04225
0.042259
0.0422671
0.0422742
0.0422814
0.042289
0.0422967
0.0423045
0.0423125
0.0423207
0.0423288
0.042336
0.0423408
0.0423423
0.0423383
0.0423243
0.0423036
0.0422763
0.0422463
0.0422156
0.0421859
0.0421587
0.042134
0.0421105
0.0420868
0.0420603
0.0420293
0.0419932
0.0419516
0.041904
0.0418506
0.0417893
0.0417225
0.0416528
0.0415834
0.0415289
0.0414909
0.0414537
0.0413629
0.0410541
0.0420222
0.0420083
0.0419995
0.0419881
0.0419787
0.0419699
0.0419638
0.0419575
0.0419507
0.0419435
0.041937
0.041933
0.0419313
0.0419314
0.0419326
0.0419353
0.04194
0.0419472
0.0419565
0.0419669
0.0419775
0.0419881
0.0419989
0.0420104
0.042023
0.0420362
0.0420492
0.0420614
0.0420728
0.0420839
0.0420953
0.0421072
0.0421192
0.0421307
0.0421411
0.0421508
0.0421604
0.0421703
0.0421803
0.0421899
0.0421986
0.0422063
0.0422137
0.0422211
0.0422282
0.0422343
0.0422392
0.0422428
0.0422458
0.0422487
0.0422512
0.0422528
0.0422534
0.0422532
0.0422527
0.0422522
0.0422515
0.04225
0.0422472
0.0422427
0.0422361
0.0422275
0.0422163
0.0422017
0.042182
0.042155
0.0421217
0.0420901
0.0420893
0.042059
0.0420636
0.0420812
0.0421156
0.0421506
0.0421794
0.0421966
0.0422124
0.0422236
0.0422321
0.0422382
0.0422491
0.0422572
0.0422661
0.0422745
0.0422818
0.0422892
0.042297
0.0423046
0.0423124
0.0423205
0.0423288
0.042337
0.0423444
0.0423494
0.0423514
0.0423491
0.0423375
0.0423194
0.0422946
0.0422667
0.0422379
0.0422094
0.0421831
0.0421589
0.0421359
0.0421126
0.0420867
0.0420565
0.0420213
0.0419806
0.0419339
0.0418812
0.0418204
0.0417533
0.0416826
0.0416101
0.0415502
0.0415047
0.0414564
0.0413493
0.0410295
0.0420205
0.0420063
0.0419971
0.0419852
0.0419753
0.041966
0.0419595
0.041953
0.0419459
0.0419384
0.0419315
0.0419271
0.0419251
0.0419249
0.0419259
0.0419284
0.041933
0.04194
0.0419491
0.0419594
0.04197
0.0419805
0.0419912
0.0420028
0.0420154
0.0420286
0.0420417
0.0420541
0.0420657
0.042077
0.0420886
0.0421007
0.042113
0.0421248
0.0421355
0.0421455
0.0421554
0.0421656
0.0421759
0.0421858
0.0421948
0.0422029
0.0422106
0.0422182
0.0422255
0.042232
0.042237
0.0422408
0.0422441
0.0422471
0.0422498
0.0422517
0.0422525
0.0422525
0.0422522
0.042252
0.0422514
0.0422501
0.0422474
0.042243
0.0422366
0.0422282
0.042217
0.0422019
0.042181
0.0421523
0.0421177
0.0420848
0.0420874
0.0420538
0.0420644
0.0420859
0.0421214
0.0421565
0.0421861
0.0422033
0.0422191
0.04223
0.0422383
0.042245
0.0422559
0.042264
0.0422729
0.0422814
0.0422889
0.0422964
0.0423045
0.0423124
0.0423203
0.0423285
0.0423369
0.0423451
0.0423526
0.0423582
0.0423606
0.0423596
0.0423504
0.042335
0.0423128
0.0422874
0.0422605
0.0422334
0.042208
0.0421846
0.042162
0.0421392
0.0421139
0.0420845
0.0420501
0.0420105
0.0419648
0.0419127
0.0418525
0.0417852
0.0417135
0.0416375
0.0415722
0.0415185
0.0414583
0.0413371
0.0410061
0.0420189
0.0420042
0.0419947
0.0419823
0.0419719
0.041962
0.0419551
0.0419483
0.0419409
0.0419331
0.0419259
0.0419211
0.0419186
0.0419182
0.041919
0.0419213
0.0419257
0.0419325
0.0419415
0.0419517
0.0419622
0.0419726
0.0419833
0.0419949
0.0420075
0.0420208
0.042034
0.0420465
0.0420583
0.0420698
0.0420816
0.042094
0.0421066
0.0421186
0.0421297
0.04214
0.0421502
0.0421607
0.0421714
0.0421816
0.0421909
0.0421993
0.0422073
0.0422152
0.0422228
0.0422295
0.0422347
0.0422387
0.0422422
0.0422455
0.0422485
0.0422505
0.0422515
0.0422518
0.0422517
0.0422517
0.0422513
0.0422502
0.0422477
0.0422435
0.0422372
0.042229
0.0422178
0.0422023
0.0421801
0.0421493
0.0421137
0.0420818
0.0420827
0.0420492
0.042066
0.0420907
0.042127
0.0421619
0.042192
0.0422095
0.0422253
0.042236
0.0422442
0.0422516
0.0422623
0.0422704
0.0422794
0.0422881
0.0422959
0.0423038
0.042312
0.0423201
0.0423282
0.0423363
0.0423444
0.0423526
0.0423603
0.0423665
0.0423699
0.0423698
0.0423631
0.0423504
0.0423309
0.042308
0.0422833
0.0422578
0.0422336
0.042211
0.042189
0.0421667
0.042142
0.0421134
0.0420798
0.0420412
0.0419966
0.0419451
0.0418855
0.0418179
0.0417454
0.0416656
0.0415949
0.0415323
0.0414595
0.0413264
0.040984
0.0420174
0.0420022
0.0419923
0.0419794
0.0419684
0.041958
0.0419506
0.0419435
0.0419359
0.0419278
0.0419202
0.0419149
0.041912
0.0419113
0.0419119
0.041914
0.0419182
0.0419249
0.0419337
0.0419438
0.0419542
0.0419645
0.0419752
0.0419867
0.0419994
0.0420127
0.042026
0.0420387
0.0420506
0.0420623
0.0420744
0.0420871
0.0421
0.0421123
0.0421236
0.0421343
0.0421448
0.0421557
0.0421667
0.0421772
0.0421868
0.0421956
0.0422039
0.0422121
0.04222
0.0422269
0.0422323
0.0422366
0.0422403
0.0422438
0.042247
0.0422494
0.0422506
0.0422511
0.0422513
0.0422514
0.0422513
0.0422503
0.042248
0.0422439
0.0422379
0.0422299
0.0422186
0.042202
0.0421781
0.0421453
0.0421094
0.0420812
0.0420759
0.042046
0.0420674
0.0420954
0.0421322
0.0421667
0.0421971
0.0422154
0.0422312
0.0422416
0.0422499
0.042258
0.0422686
0.0422769
0.0422859
0.0422948
0.0423029
0.042311
0.0423195
0.0423275
0.0423353
0.0423433
0.0423517
0.0423596
0.0423675
0.0423744
0.0423789
0.0423799
0.0423756
0.0423655
0.0423488
0.0423285
0.0423064
0.0422826
0.0422598
0.0422382
0.0422168
0.0421952
0.0421711
0.0421433
0.0421104
0.0420728
0.0420292
0.0419786
0.0419195
0.0418514
0.0417781
0.041694
0.041618
0.0415463
0.0414615
0.0413168
0.0409625
0.0420159
0.0420002
0.04199
0.0419766
0.041965
0.041954
0.0419461
0.0419386
0.0419307
0.0419223
0.0419143
0.0419085
0.0419052
0.0419042
0.0419046
0.0419065
0.0419106
0.0419171
0.0419258
0.0419357
0.041946
0.0419563
0.0419669
0.0419784
0.041991
0.0420044
0.0420178
0.0420306
0.0420427
0.0420546
0.0420669
0.0420799
0.042093
0.0421056
0.0421173
0.0421283
0.0421392
0.0421504
0.0421618
0.0421727
0.0421826
0.0421918
0.0422004
0.0422089
0.0422171
0.0422242
0.0422299
0.0422344
0.0422383
0.0422421
0.0422455
0.0422481
0.0422496
0.0422503
0.0422508
0.0422512
0.0422513
0.0422505
0.0422484
0.0422446
0.0422388
0.042231
0.0422194
0.0422014
0.0421759
0.0421408
0.042105
0.0420831
0.0420662
0.0420445
0.042069
0.0420997
0.042137
0.0421711
0.0422016
0.0422209
0.0422368
0.0422469
0.0422553
0.0422645
0.0422748
0.0422833
0.0422922
0.0423011
0.0423093
0.0423174
0.0423259
0.0423342
0.0423425
0.0423502
0.0423579
0.0423661
0.0423743
0.0423819
0.0423876
0.04239
0.0423877
0.0423802
0.0423665
0.0423489
0.0423294
0.0423076
0.0422866
0.0422661
0.0422456
0.0422246
0.0422012
0.0421742
0.0421421
0.0421054
0.0420628
0.0420129
0.0419543
0.0418857
0.0418117
0.0417232
0.0416416
0.0415608
0.0414648
0.0413076
0.0409408
0.0420145
0.0419983
0.0419877
0.0419737
0.0419616
0.0419499
0.0419414
0.0419336
0.0419254
0.0419166
0.0419082
0.0419019
0.0418982
0.0418969
0.0418971
0.0418989
0.0419028
0.0419091
0.0419176
0.0419274
0.0419376
0.0419478
0.0419583
0.0419698
0.0419825
0.0419959
0.0420093
0.0420222
0.0420345
0.0420466
0.0420592
0.0420724
0.0420859
0.0420988
0.0421108
0.0421221
0.0421334
0.042145
0.0421567
0.042168
0.0421783
0.0421878
0.0421968
0.0422056
0.042214
0.0422214
0.0422274
0.0422321
0.0422362
0.0422403
0.042244
0.0422469
0.0422486
0.0422496
0.0422503
0.0422509
0.0422513
0.0422508
0.0422489
0.0422453
0.0422399
0.0422322
0.0422201
0.0422011
0.0421734
0.0421364
0.0421
0.0420864
0.0420551
0.0420441
0.0420705
0.0421036
0.0421414
0.0421753
0.0422055
0.0422262
0.0422424
0.042252
0.0422609
0.0422708
0.0422807
0.0422892
0.042298
0.0423071
0.0423154
0.042324
0.0423326
0.0423405
0.0423485
0.0423565
0.0423646
0.0423729
0.0423811
0.0423893
0.0423961
0.0423999
0.0423997
0.0423945
0.0423838
0.042369
0.0423523
0.0423328
0.0423136
0.0422946
0.0422752
0.0422551
0.0422325
0.0422062
0.0421749
0.042139
0.0420975
0.0420485
0.04199
0.0419209
0.0418464
0.041753
0.0416659
0.0415764
0.0414694
0.0412983
0.0409186
0.0420131
0.0419963
0.0419853
0.0419709
0.0419581
0.0419458
0.0419366
0.0419284
0.0419199
0.0419108
0.0419019
0.0418952
0.0418911
0.0418895
0.0418894
0.0418911
0.0418948
0.0419009
0.0419093
0.0419189
0.041929
0.0419392
0.0419496
0.0419611
0.0419737
0.0419871
0.0420006
0.0420136
0.0420261
0.0420384
0.0420512
0.0420647
0.0420785
0.0420917
0.042104
0.0421157
0.0421273
0.0421393
0.0421515
0.0421631
0.0421738
0.0421836
0.042193
0.0422022
0.0422109
0.0422185
0.0422247
0.0422297
0.0422341
0.0422384
0.0422424
0.0422456
0.0422476
0.0422488
0.0422498
0.0422507
0.0422513
0.0422511
0.0422495
0.0422461
0.0422411
0.0422335
0.0422208
0.0422007
0.0421707
0.042132
0.0420946
0.0420886
0.0420447
0.0420443
0.0420723
0.0421078
0.042146
0.0421796
0.0422091
0.0422317
0.0422478
0.0422578
0.0422666
0.0422766
0.0422863
0.0422948
0.0423032
0.0423123
0.0423209
0.0423294
0.0423381
0.0423467
0.0423549
0.0423631
0.0423713
0.0423796
0.0423882
0.0423968
0.0424045
0.0424098
0.0424117
0.0424084
0.0424006
0.0423887
0.0423749
0.0423578
0.0423408
0.0423235
0.0423055
0.0422865
0.0422649
0.0422396
0.0422091
0.0421738
0.0421333
0.042085
0.0420267
0.0419573
0.041882
0.0417841
0.0416913
0.0415936
0.0414753
0.0412887
0.0408955
0.0420117
0.0419944
0.041983
0.041968
0.0419546
0.0419416
0.0419318
0.0419232
0.0419143
0.0419049
0.0418955
0.0418883
0.0418837
0.0418818
0.0418816
0.041883
0.0418866
0.0418926
0.0419008
0.0419103
0.0419203
0.0419303
0.0419408
0.0419521
0.0419647
0.0419782
0.0419917
0.0420048
0.0420174
0.0420299
0.042043
0.0420568
0.0420708
0.0420844
0.0420971
0.0421091
0.0421211
0.0421335
0.042146
0.0421581
0.0421692
0.0421794
0.0421891
0.0421986
0.0422076
0.0422155
0.042222
0.0422272
0.0422319
0.0422365
0.0422408
0.0422443
0.0422466
0.0422481
0.0422494
0.0422506
0.0422515
0.0422515
0.0422501
0.0422471
0.0422424
0.0422348
0.0422212
0.0422
0.042168
0.0421278
0.0420896
0.0420895
0.0420357
0.0420447
0.0420742
0.0421119
0.0421507
0.0421843
0.0422124
0.0422371
0.0422529
0.0422625
0.0422722
0.0422822
0.0422916
0.0423001
0.042309
0.0423179
0.0423266
0.0423352
0.0423442
0.0423531
0.0423617
0.0423702
0.0423785
0.0423871
0.0423959
0.0424048
0.0424131
0.0424197
0.0424234
0.0424221
0.042417
0.0424079
0.042397
0.0423826
0.0423678
0.0423525
0.0423363
0.0423187
0.0422984
0.0422741
0.0422446
0.04221
0.0421704
0.0421227
0.0420646
0.0419953
0.0419186
0.0418168
0.0417183
0.0416125
0.0414822
0.0412792
0.0408728
0.0420103
0.0419924
0.0419806
0.0419651
0.0419511
0.0419373
0.0419268
0.0419177
0.0419085
0.0418987
0.041889
0.0418812
0.0418761
0.0418739
0.0418735
0.0418748
0.0418782
0.0418841
0.0418921
0.0419015
0.0419114
0.0419214
0.0419317
0.041943
0.0419555
0.041969
0.0419826
0.0419958
0.0420085
0.0420213
0.0420346
0.0420486
0.042063
0.0420769
0.0420899
0.0421023
0.0421147
0.0421275
0.0421404
0.0421529
0.0421644
0.042175
0.0421851
0.0421949
0.0422042
0.0422124
0.0422192
0.0422247
0.0422296
0.0422345
0.0422392
0.0422429
0.0422455
0.0422473
0.0422489
0.0422505
0.0422517
0.0422521
0.042251
0.0422482
0.0422439
0.0422361
0.042222
0.0421993
0.0421655
0.0421241
0.0420863
0.042088
0.0420279
0.042045
0.0420762
0.0421157
0.0421552
0.0421892
0.0422157
0.0422424
0.0422578
0.0422675
0.0422776
0.0422875
0.0422971
0.0423059
0.0423145
0.0423237
0.0423327
0.0423416
0.0423508
0.04236
0.042369
0.0423778
0.0423865
0.0423951
0.0424041
0.0424131
0.0424219
0.0424297
0.042435
0.0424359
0.0424327
0.0424266
0.0424184
0.0424068
0.0423946
0.0423814
0.042367
0.0423513
0.0423326
0.0423098
0.0422816
0.0422477
0.0422087
0.0421615
0.0421037
0.042035
0.0419564
0.0418517
0.041747
0.041633
0.0414899
0.0412701
0.0408512
0.0420089
0.0419904
0.0419782
0.0419621
0.0419474
0.0419329
0.0419217
0.0419121
0.0419026
0.0418924
0.0418822
0.0418739
0.0418684
0.0418658
0.0418652
0.0418664
0.0418697
0.0418754
0.0418832
0.0418925
0.0419023
0.0419122
0.0419225
0.0419337
0.0419462
0.0419597
0.0419733
0.0419866
0.0419995
0.0420124
0.0420259
0.0420402
0.0420549
0.0420691
0.0420825
0.0420953
0.0421081
0.0421213
0.0421347
0.0421476
0.0421595
0.0421705
0.0421809
0.0421911
0.0422007
0.0422093
0.0422163
0.042222
0.0422273
0.0422325
0.0422375
0.0422416
0.0422445
0.0422466
0.0422485
0.0422504
0.0422521
0.0422527
0.0422519
0.0422495
0.0422454
0.0422374
0.0422226
0.0421982
0.0421633
0.0421211
0.0420851
0.0420823
0.0420223
0.0420453
0.042078
0.0421195
0.0421596
0.0421944
0.0422193
0.0422477
0.0422625
0.0422725
0.0422832
0.0422931
0.0423027
0.0423117
0.0423207
0.0423299
0.0423392
0.0423485
0.042358
0.0423675
0.0423769
0.042386
0.0423949
0.0424038
0.0424129
0.0424221
0.0424311
0.0424397
0.0424466
0.0424493
0.0424484
0.0424447
0.042439
0.0424305
0.0424207
0.0424098
0.0423977
0.0423839
0.0423671
0.042346
0.0423193
0.0422865
0.0422482
0.0422018
0.0421446
0.0420763
0.0419958
0.0418887
0.0417778
0.0416551
0.0414983
0.0412619
0.0408315
0.0420075
0.0419883
0.0419757
0.0419591
0.0419437
0.0419284
0.0419164
0.0419063
0.0418964
0.0418859
0.0418752
0.0418664
0.0418604
0.0418575
0.0418567
0.0418578
0.0418609
0.0418665
0.0418742
0.0418834
0.0418931
0.041903
0.0419132
0.0419243
0.0419368
0.0419502
0.0419638
0.0419772
0.0419902
0.0420033
0.0420171
0.0420317
0.0420466
0.0420612
0.042075
0.0420881
0.0421013
0.0421149
0.0421288
0.0421421
0.0421544
0.0421658
0.0421766
0.0421872
0.0421972
0.042206
0.0422133
0.0422194
0.0422249
0.0422305
0.0422358
0.0422402
0.0422435
0.0422459
0.0422482
0.0422505
0.0422525
0.0422535
0.042253
0.042251
0.0422472
0.042239
0.0422233
0.042197
0.0421613
0.0421188
0.0420857
0.0420728
0.0420181
0.0420454
0.0420801
0.0421233
0.0421642
0.0422
0.0422232
0.0422532
0.0422679
0.0422777
0.042289
0.0422989
0.0423088
0.0423181
0.0423274
0.0423368
0.0423464
0.042356
0.0423658
0.0423757
0.0423853
0.0423948
0.042404
0.0424131
0.0424222
0.0424316
0.0424409
0.0424501
0.0424581
0.0424625
0.042464
0.0424621
0.042459
0.0424532
0.042446
0.0424374
0.0424275
0.0424159
0.0424015
0.0423825
0.0423576
0.042326
0.0422886
0.042243
0.0421867
0.0421191
0.0420369
0.041928
0.0418103
0.0416784
0.0415077
0.0412552
0.0408143
0.0420061
0.0419862
0.0419731
0.0419559
0.0419399
0.0419238
0.041911
0.0419004
0.0418901
0.0418791
0.041868
0.0418587
0.0418522
0.0418489
0.041848
0.041849
0.041852
0.0418574
0.041865
0.0418741
0.0418838
0.0418936
0.0419037
0.0419148
0.0419272
0.0419406
0.0419542
0.0419677
0.0419808
0.0419941
0.0420081
0.0420229
0.0420382
0.0420531
0.0420673
0.0420808
0.0420944
0.0421084
0.0421227
0.0421365
0.0421493
0.042161
0.0421722
0.0421832
0.0421935
0.0422026
0.0422102
0.0422166
0.0422225
0.0422285
0.0422341
0.0422389
0.0422425
0.0422453
0.042248
0.0422507
0.0422531
0.0422545
0.0422543
0.0422527
0.0422491
0.0422408
0.0422238
0.0421956
0.0421595
0.0421171
0.0420877
0.0420618
0.042015
0.0420456
0.0420826
0.0421277
0.0421693
0.0422063
0.0422276
0.0422593
0.0422729
0.0422835
0.0422952
0.0423052
0.0423153
0.042325
0.0423346
0.0423442
0.0423541
0.042364
0.0423742
0.0423843
0.0423943
0.0424041
0.0424136
0.0424229
0.0424322
0.0424416
0.0424512
0.0424609
0.0424696
0.0424756
0.0424792
0.0424794
0.0424782
0.0424751
0.0424703
0.0424642
0.0424566
0.042447
0.0424348
0.0424179
0.0423953
0.0423654
0.0423295
0.0422855
0.0422304
0.0421633
0.0420792
0.0419688
0.0418447
0.041703
0.0415189
0.0412503
0.0407981
0.0420046
0.041984
0.0419704
0.0419527
0.041936
0.0419191
0.0419055
0.0418942
0.0418835
0.0418722
0.0418606
0.0418508
0.0418438
0.0418401
0.041839
0.0418399
0.0418428
0.0418481
0.0418556
0.0418647
0.0418743
0.041884
0.0418941
0.0419051
0.0419175
0.0419308
0.0419445
0.041958
0.0419713
0.0419847
0.0419989
0.042014
0.0420296
0.0420449
0.0420594
0.0420734
0.0420874
0.0421018
0.0421165
0.0421307
0.042144
0.0421562
0.0421678
0.042179
0.0421897
0.0421992
0.0422071
0.0422138
0.0422201
0.0422264
0.0422325
0.0422376
0.0422416
0.0422448
0.0422479
0.0422511
0.0422539
0.0422557
0.0422559
0.0422546
0.0422513
0.0422429
0.0422245
0.0421946
0.0421577
0.0421155
0.0420896
0.0420503
0.0420129
0.0420459
0.0420859
0.0421328
0.0421752
0.0422136
0.0422327
0.042266
0.0422785
0.0422898
0.0423018
0.0423119
0.0423223
0.0423324
0.0423422
0.0423522
0.0423624
0.0423726
0.042383
0.0423935
0.0424038
0.042414
0.0424237
0.0424332
0.0424427
0.0424522
0.042462
0.0424721
0.0424814
0.0424885
0.042494
0.0424967
0.0424972
0.0424961
0.0424937
0.0424897
0.0424842
0.042477
0.0424671
0.0424523
0.0424318
0.042404
0.0423697
0.0423274
0.0422742
0.042208
0.0421226
0.0420111
0.0418803
0.0417281
0.0415315
0.0412477
0.0407836
0.0420031
0.0419818
0.0419677
0.0419494
0.041932
0.0419142
0.0418998
0.0418878
0.0418767
0.041865
0.041853
0.0418426
0.0418351
0.0418311
0.0418298
0.0418306
0.0418335
0.0418386
0.0418461
0.0418551
0.0418647
0.0418744
0.0418844
0.0418954
0.0419077
0.041921
0.0419347
0.0419482
0.0419616
0.0419752
0.0419897
0.0420051
0.0420209
0.0420366
0.0420515
0.0420658
0.0420803
0.0420951
0.0421102
0.0421249
0.0421386
0.0421512
0.0421632
0.0421749
0.0421859
0.0421957
0.0422039
0.042211
0.0422177
0.0422244
0.0422308
0.0422364
0.0422407
0.0422444
0.0422479
0.0422516
0.042255
0.0422572
0.0422577
0.0422568
0.0422539
0.0422453
0.0422256
0.0421939
0.042156
0.0421137
0.0420898
0.04204
0.0420123
0.0420468
0.04209
0.0421391
0.0421822
0.0422214
0.0422389
0.0422731
0.0422848
0.0422966
0.0423089
0.0423194
0.0423298
0.0423402
0.0423504
0.0423606
0.0423711
0.0423817
0.0423924
0.0424031
0.0424138
0.0424243
0.0424343
0.0424441
0.0424537
0.0424635
0.0424736
0.0424839
0.0424935
0.0425018
0.0425084
0.0425134
0.0425161
0.0425166
0.0425161
0.0425144
0.0425108
0.0425053
0.0424974
0.0424848
0.0424663
0.042441
0.0424088
0.0423688
0.0423177
0.0422524
0.0421652
0.0420533
0.0419173
0.0417535
0.0415454
0.0412468
0.0407715
0.0420016
0.0419796
0.041965
0.041946
0.0419278
0.0419092
0.0418939
0.0418813
0.0418697
0.0418576
0.0418452
0.0418343
0.0418262
0.0418218
0.0418203
0.0418211
0.0418239
0.0418289
0.0418363
0.0418453
0.0418549
0.0418646
0.0418746
0.0418855
0.0418978
0.041911
0.0419248
0.0419384
0.0419519
0.0419657
0.0419803
0.041996
0.0420122
0.0420281
0.0420434
0.0420582
0.0420731
0.0420883
0.0421039
0.042119
0.0421331
0.0421462
0.0421586
0.0421706
0.042182
0.0421921
0.0422008
0.0422082
0.0422153
0.0422224
0.0422293
0.0422352
0.04224
0.0422441
0.0422481
0.0422523
0.0422562
0.0422589
0.0422598
0.0422593
0.0422569
0.0422481
0.0422274
0.0421944
0.0421549
0.0421103
0.0420874
0.0420322
0.0420129
0.0420485
0.0420952
0.0421466
0.0421904
0.0422297
0.0422469
0.0422799
0.0422917
0.0423039
0.042316
0.0423267
0.0423376
0.0423484
0.0423589
0.0423695
0.0423803
0.0423912
0.0424022
0.0424133
0.0424243
0.0424351
0.0424455
0.0424556
0.0424654
0.0424754
0.0424857
0.0424963
0.0425063
0.042515
0.0425229
0.0425292
0.0425344
0.042537
0.0425381
0.0425376
0.042536