/*--------------------------------*- C++ -*----------------------------------*\
| =========                 |                                                 |
| \\      /  F ield         | OpenFOAM: The Open Source CFD Toolbox           |
|  \\    /   O peration     | Version:  2412                                  |
|   \\  /    A nd           | Website:  www.openfoam.com                      |
|    \\/     M anipulation  |                                                 |
\*---------------------------------------------------------------------------*/
FoamFile
{
    version     2.0;
    format      ascii;
    arch        "LSB;label=32;scalar=64";
    class       volScalarField;
    location    "0.084";
    object      p;
}
// * * * * * * * * * * * * * * * * * * * * * * * * * * * * * * * * * * * * * //

dimensions      [1 -1 -2 0 0 0 0];

internalField   nonuniform List<scalar> 
9831
(
1250.56
2432.8
1247.02
2432
2617.06
2603.42
2598.18
2599.96
2608.48
2622.9
2641.01
2660.33
2678.96
2696.16
2711.87
2725.99
2738.35
2749.02
2758.31
2766.62
2774.22
2781.23
2787.72
2793.78
2799.53
2805.03
2810.33
2815.42
2820.31
2825.02
2829.62
2834.14
2838.6
2843.03
2847.44
2851.86
2856.29
2860.69
2865.05
2869.36
2873.6
2877.75
2881.79
2885.7
2889.49
2893.14
2896.65
2900.01
2903.2
2906.22
2909.05
2911.68
1243.61
2431.27
2616.33
2602.41
2597.21
2599.24
2608.13
2622.82
2641.09
2660.48
2679.11
2696.28
2711.96
2726.06
2738.4
2749.05
2758.34
2766.66
2774.26
2781.28
2787.77
2793.83
2799.58
2805.09
2810.39
2815.48
2820.37
2825.08
2829.68
2834.2
2838.66
2843.09
2847.51
2851.94
2856.36
2860.77
2865.13
2869.44
2873.67
2877.82
2881.85
2885.76
2889.53
2893.18
2896.68
2900.03
2903.22
2906.24
2909.06
2911.68
2914.09
2916.26
1240.52
2430.62
2615.58
2601.39
2596.24
2598.54
2607.79
2622.74
2641.17
2660.61
2679.24
2696.39
2712.06
2726.13
2738.45
2749.09
2758.38
2766.7
2774.31
2781.32
2787.82
2793.88
2799.63
2805.15
2810.45
2815.54
2820.43
2825.14
2829.74
2834.26
2838.72
2843.16
2847.58
2852.01
2856.44
2860.84
2865.21
2869.51
2873.74
2877.88
2881.91
2885.81
2889.58
2893.22
2896.72
2900.06
2903.25
2906.25
2909.07
2911.69
2914.09
2916.26
2918.19
2919.87
1237.5
2430.06
2614.82
2600.36
2595.29
2597.86
2607.47
2622.66
2641.24
2660.73
2679.35
2696.5
2712.14
2726.2
2738.5
2749.12
2758.41
2766.74
2774.35
2781.37
2787.86
2793.93
2799.68
2805.2
2810.51
2815.6
2820.48
2825.2
2829.8
2834.32
2838.79
2843.22
2847.65
2852.09
2856.52
2860.92
2865.28
2869.58
2873.81
2877.94
2881.97
2885.86
2889.63
2893.26
2896.75
2900.09
2903.27
2906.27
2909.09
2911.7
2914.1
2916.27
2918.21
2919.89
2921.32
2922.49
2923.38
2924
2924.31
2924.33
2924.04
2923.46
2922.6
2921.46
2920.04
2918.37
2916.43
2914.26
2911.86
2909.25
2906.44
2903.45
2900.3
2897.01
2893.59
2890.07
2886.44
2882.75
2878.99
2875.19
2871.35
2867.51
2863.65
2859.81
2855.97
2852.18
2848.41
2844.7
2841.03
2837.43
2833.89
2830.42
2827.03
2823.71
2820.47
2817.32
2814.24
2811.26
2808.36
2805.55
2802.83
2800.19
2797.65
2795.18
2792.8
2790.51
2788.3
2786.16
2784.11
2782.14
2780.24
2778.42
2776.66
2774.98
2773.37
2771.81
2770.32
2769.07
2767.65
1234.52
2429.56
2614.04
2599.31
2594.34
2597.19
2607.16
2622.59
2641.3
2660.84
2679.46
2696.59
2712.23
2726.26
2738.54
2749.16
2758.45
2766.77
2774.39
2781.41
2787.9
2793.97
2799.73
2805.26
2810.56
2815.65
2820.54
2825.26
2829.86
2834.38
2838.85
2843.28
2847.72
2852.16
2856.59
2861
2865.36
2869.66
2873.88
2878.01
2882.02
2885.91
2889.68
2893.3
2896.79
2900.12
2903.29
2906.29
2909.1
2911.72
2914.12
2916.29
2918.23
2919.93
2921.37
2922.56
2923.46
2924.1
2924.44
2924.49
2924.22
2923.68
2922.87
2921.78
2920.42
2918.8
2916.93
2914.83
2912.5
2909.97
2907.25
2904.35
2901.3
2898.11
2894.79
2891.38
2887.86
2884.29
2880.65
2876.97
2873.25
2869.53
2865.8
2862.08
2858.38
2854.71
2851.07
2847.49
2843.95
2840.47
2837.05
2833.71
2830.43
2827.23
2824.11
2821.07
2818.11
2815.24
2812.45
2809.75
2807.13
2804.59
2802.14
2799.77
2797.48
2795.28
2793.15
2791.11
2789.14
2787.24
2785.42
2783.67
2781.99
2780.37
2778.83
2777.34
2775.91
2774.74
2773.36
2772.56
2769.97
1232.03
2429.11
2613.24
2598.26
2593.42
2596.55
2606.85
2622.52
2641.36
2660.94
2679.56
2696.69
2712.31
2726.33
2738.59
2749.19
2758.48
2766.81
2774.43
2781.44
2787.94
2794.02
2799.78
2805.31
2810.62
2815.71
2820.6
2825.32
2829.92
2834.44
2838.91
2843.35
2847.79
2852.23
2856.67
2861.08
2865.43
2869.73
2873.95
2878.07
2882.08
2885.96
2889.72
2893.34
2896.82
2900.15
2903.32
2906.32
2909.13
2911.74
2914.14
2916.32
2918.27
2919.98
2921.44
2922.64
2923.57
2924.22
2924.6
2924.68
2924.45
2923.96
2923.19
2922.15
2920.85
2919.3
2917.5
2915.47
2913.23
2910.78
2908.15
2905.36
2902.41
2899.32
2896.12
2892.81
2889.42
2885.96
2882.45
2878.9
2875.31
2871.72
2868.12
2864.53
2860.96
2857.42
2853.91
2850.46
2847.04
2843.69
2840.4
2837.18
2834.03
2830.95
2827.95
2825.02
2822.18
2819.41
2816.73
2814.13
2811.62
2809.18
2806.83
2804.55
2802.36
2800.24
2798.2
2796.24
2794.35
2792.53
2790.78
2789.1
2787.49
2785.94
2784.47
2783.06
2781.68
2780.6
2779.25
2778.52
2775.99
1229.54
2428.7
2612.42
2597.2
2592.5
2595.91
2606.56
2622.45
2641.42
2661.04
2679.67
2696.78
2712.39
2726.39
2738.63
2749.23
2758.51
2766.84
2774.46
2781.48
2787.98
2794.06
2799.83
2805.36
2810.67
2815.77
2820.65
2825.37
2829.97
2834.49
2838.97
2843.41
2847.86
2852.31
2856.75
2861.15
2865.51
2869.8
2874.01
2878.13
2882.13
2886.01
2889.77
2893.38
2896.86
2900.19
2903.35
2906.34
2909.15
2911.77
2914.17
2916.36
2918.32
2920.04
2921.52
2922.74
2923.69
2924.37
2924.78
2924.89
2924.71
2924.27
2923.55
2922.57
2921.33
2919.85
2918.13
2916.18
2914.02
2911.67
2909.14
2906.44
2903.6
2900.63
2897.54
2894.36
2891.09
2887.76
2884.37
2880.95
2877.5
2874.04
2870.57
2867.12
2863.68
2860.28
2856.91
2853.58
2850.31
2847.09
2843.92
2840.83
2837.8
2834.85
2831.96
2829.16
2826.43
2823.78
2821.21
2818.71
2816.3
2813.96
2811.71
2809.53
2807.43
2805.4
2803.45
2801.57
2799.76
2798.02
2796.34
2794.74
2793.2
2791.72
2790.31
2788.99
2787.66
2786.61
2785.32
2784.66
2782.21
1227.12
2428.37
2611.59
2596.12
2591.6
2595.29
2606.27
2622.39
2641.48
2661.15
2679.77
2696.88
2712.47
2726.45
2738.68
2749.26
2758.54
2766.87
2774.49
2781.51
2788.01
2794.1
2799.88
2805.41
2810.73
2815.82
2820.71
2825.43
2830.03
2834.55
2839.03
2843.48
2847.92
2852.38
2856.82
2861.23
2865.58
2869.87
2874.08
2878.19
2882.19
2886.06
2889.81
2893.43
2896.9
2900.22
2903.38
2906.37
2909.18
2911.8
2914.21
2916.41
2918.38
2920.12
2921.61
2922.86
2923.84
2924.55
2924.99
2925.15
2925.01
2924.62
2923.96
2923.04
2921.88
2920.46
2918.82
2916.96
2914.9
2912.65
2910.22
2907.63
2904.9
2902.05
2899.09
2896.03
2892.89
2889.69
2886.44
2883.15
2879.84
2876.52
2873.19
2869.88
2866.58
2863.31
2860.08
2856.89
2853.74
2850.66
2847.63
2844.66
2841.76
2838.92
2836.16
2833.47
2830.86
2828.32
2825.86
2823.47
2821.16
2818.93
2816.77
2814.68
2812.67
2810.73
2808.86
2807.06
2805.33
2803.67
2802.07
2800.53
2799.06
2797.64
2796.29
2795.06
2793.77
2792.74
2791.52
2790.93
2788.52
1225.31
2428.16
2610.73
2595.04
2590.71
2594.69
2605.99
2622.33
2641.54
2661.26
2679.88
2696.97
2712.54
2726.5
2738.72
2749.3
2758.57
2766.9
2774.52
2781.54
2788.04
2794.14
2799.92
2805.46
2810.78
2815.88
2820.76
2825.48
2830.08
2834.61
2839.08
2843.54
2847.99
2852.45
2856.9
2861.3
2865.65
2869.93
2874.14
2878.24
2882.24
2886.11
2889.86
2893.47
2896.94
2900.26
2903.42
2906.41
2909.22
2911.84
2914.26
2916.47
2918.45
2920.21
2921.73
2922.99
2924
2924.74
2925.23
2925.43
2925.35
2925
2924.4
2923.56
2922.46
2921.13
2919.57
2917.81
2915.84
2913.69
2911.37
2908.9
2906.29
2903.56
2900.72
2897.8
2894.79
2891.73
2888.61
2885.47
2882.3
2879.12
2875.94
2872.77
2869.61
2866.49
2863.39
2860.34
2857.33
2854.38
2851.49
2848.65
2845.88
2843.17
2840.53
2837.96
2835.47
2833.04
2830.69
2828.41
2826.21
2824.07
2822.01
2820.02
2818.1
2816.25
2814.46
2812.75
2811.09
2809.51
2807.98
2806.51
2805.1
2803.76
2802.46
2801.3
2800.06
2799.07
2797.92
2797.39
2795.05
1223.22
2428.04
2609.85
2593.94
2589.83
2594.09
2605.72
2622.27
2641.6
2661.37
2679.99
2697.06
2712.62
2726.56
2738.76
2749.33
2758.6
2766.93
2774.54
2781.56
2788.07
2794.17
2799.97
2805.51
2810.83
2815.93
2820.82
2825.54
2830.14
2834.66
2839.14
2843.6
2848.06
2852.52
2856.97
2861.38
2865.72
2870
2874.2
2878.3
2882.29
2886.16
2889.9
2893.51
2896.98
2900.29
2903.45
2906.44
2909.26
2911.88
2914.31
2916.53
2918.54
2920.31
2921.85
2923.15
2924.19
2924.96
2925.48
2925.74
2925.72
2925.43
2924.9
2924.12
2923.11
2921.86
2920.39
2918.72
2916.86
2914.82
2912.62
2910.27
2907.78
2905.18
2902.48
2899.69
2896.82
2893.9
2890.93
2887.93
2884.9
2881.87
2878.84
2875.81
2872.8
2869.82
2866.87
2863.96
2861.1
2858.28
2855.52
2852.81
2850.17
2847.59
2845.07
2842.63
2840.25
2837.93
2835.69
2833.52
2831.42
2829.38
2827.42
2825.52
2823.69
2821.93
2820.23
2818.59
2817.01
2815.5
2814.05
2812.65
2811.31
2810.02
2808.78
2807.69
2806.5
2805.55
2804.47
2804.01
2801.72
1221.26
2427.98
2608.96
2592.84
2588.96
2593.51
2605.46
2622.22
2641.67
2661.48
2680.1
2697.15
2712.69
2726.61
2738.8
2749.36
2758.62
2766.95
2774.56
2781.59
2788.1
2794.21
2800.01
2805.56
2810.88
2815.98
2820.87
2825.59
2830.19
2834.72
2839.2
2843.66
2848.13
2852.6
2857.05
2861.45
2865.79
2870.07
2874.26
2878.35
2882.34
2886.21
2889.94
2893.55
2897.02
2900.33
2903.49
2906.48
2909.3
2911.93
2914.37
2916.61
2918.63
2920.43
2921.99
2923.32
2924.39
2925.21
2925.77
2926.09
2926.13
2925.88
2925.42
2924.73
2923.79
2922.64
2921.27
2919.7
2917.95
2916.02
2913.94
2911.71
2909.36
2906.89
2904.32
2901.68
2898.95
2896.18
2893.36
2890.5
2887.63
2884.75
2881.86
2878.99
2876.13
2873.29
2870.49
2867.72
2865
2862.32
2859.7
2857.13
2854.62
2852.16
2849.77
2847.45
2845.19
2842.99
2840.86
2838.8
2836.8
2834.86
2833
2831.19
2829.45
2827.77
2826.16
2824.6
2823.11
2821.67
2820.28
2818.95
2817.68
2816.45
2815.27
2814.25
2813.11
2812.21
2811.19
2810.79
2808.56
1219.96
2427.97
2608.03
2591.72
2588.1
2592.95
2605.21
2622.17
2641.74
2661.59
2680.2
2697.24
2712.76
2726.67
2738.84
2749.38
2758.64
2766.97
2774.58
2781.61
2788.13
2794.25
2800.05
2805.61
2810.94
2816.03
2820.92
2825.64
2830.25
2834.77
2839.26
2843.73
2848.2
2852.67
2857.12
2861.53
2865.86
2870.13
2874.31
2878.41
2882.39
2886.25
2889.99
2893.59
2897.06
2900.37
2903.53
2906.52
2909.35
2911.99
2914.44
2916.69
2918.73
2920.55
2922.15
2923.5
2924.61
2925.47
2926.08
2926.46
2926.56
2926.38
2926
2925.38
2924.54
2923.48
2922.21
2920.75
2919.11
2917.3
2915.35
2913.25
2911.03
2908.71
2906.28
2903.78
2901.21
2898.58
2895.91
2893.21
2890.49
2887.77
2885.03
2882.31
2879.6
2876.92
2874.26
2871.65
2869.06
2866.53
2864.04
2861.61
2859.23
2856.9
2854.64
2852.43
2850.29
2848.21
2846.19
2844.23
2842.33
2840.5
2838.73
2837.02
2835.37
2833.78
2832.24
2830.77
2829.35
2827.98
2826.66
2825.4
2824.19
2823.03
2821.91
2820.95
2819.86
2819
2818.04
2817.7
2815.52
1218.51
2428.04
2607.09
2590.59
2587.25
2592.4
2604.97
2622.13
2641.81
2661.69
2680.3
2697.32
2712.83
2726.72
2738.88
2749.41
2758.66
2766.98
2774.6
2781.63
2788.16
2794.28
2800.1
2805.66
2810.99
2816.08
2820.97
2825.69
2830.3
2834.83
2839.32
2843.79
2848.27
2852.74
2857.2
2861.6
2865.93
2870.19
2874.37
2878.46
2882.44
2886.3
2890.03
2893.64
2897.1
2900.41
2903.57
2906.57
2909.4
2912.05
2914.51
2916.78
2918.85
2920.69
2922.31
2923.7
2924.86
2925.76
2926.42
2926.86
2927.02
2926.91
2926.61
2926.07
2925.32
2924.36
2923.2
2921.85
2920.33
2918.65
2916.82
2914.86
2912.78
2910.6
2908.32
2905.97
2903.55
2901.08
2898.57
2896.03
2893.46
2890.89
2888.32
2885.75
2883.2
2880.67
2878.17
2875.7
2873.26
2870.87
2868.52
2866.23
2863.98
2861.79
2859.65
2857.57
2855.54
2853.58
2851.67
2849.82
2848.03
2846.3
2844.62
2843.01
2841.45
2839.94
2838.49
2837.09
2835.75
2834.45
2833.21
2832.01
2830.87
2829.76
2828.7
2827.81
2826.76
2825.95
2825.06
2824.77
2822.66
1217.36
2428.22
2606.13
2589.46
2586.42
2591.87
2604.74
2622.09
2641.88
2661.8
2680.4
2697.41
2712.9
2726.77
2738.91
2749.43
2758.68
2767
2774.62
2781.66
2788.19
2794.32
2800.14
2805.7
2811.03
2816.13
2821.02
2825.75
2830.35
2834.88
2839.37
2843.85
2848.34
2852.82
2857.27
2861.67
2866
2870.25
2874.42
2878.51
2882.48
2886.34
2890.08
2893.68
2897.14
2900.45
2903.61
2906.62
2909.45
2912.11
2914.59
2916.88
2918.97
2920.84
2922.5
2923.92
2925.12
2926.07
2926.78
2927.28
2927.52
2927.49
2927.26
2926.82
2926.16
2925.31
2924.25
2923.03
2921.63
2920.08
2918.39
2916.57
2914.63
2912.6
2910.48
2908.28
2906.02
2903.71
2901.36
2898.98
2896.57
2894.16
2891.75
2889.34
2886.95
2884.57
2882.22
2879.9
2877.61
2875.37
2873.16
2871
2868.89
2866.82
2864.81
2862.85
2860.95
2859.1
2857.3
2855.56
2853.87
2852.24
2850.66
2849.14
2847.67
2846.25
2844.88
2843.56
2842.29
2841.07
2839.9
2838.77
2837.69
2836.64
2835.64
2834.81
2833.82
2833.05
2832.21
2831.99
2829.92
1216.16
2428.49
2605.14
2588.31
2585.6
2591.35
2604.52
2622.05
2641.95
2661.9
2680.5
2697.49
2712.97
2726.82
2738.94
2749.45
2758.69
2767.01
2774.64
2781.68
2788.22
2794.36
2800.18
2805.75
2811.08
2816.18
2821.07
2825.8
2830.4
2834.93
2839.43
2843.92
2848.41
2852.89
2857.34
2861.74
2866.06
2870.31
2874.48
2878.56
2882.53
2886.39
2890.12
2893.72
2897.18
2900.5
2903.66
2906.67
2909.51
2912.18
2914.68
2916.99
2919.1
2921
2922.69
2924.16
2925.39
2926.39
2927.16
2927.72
2928.04
2928.1
2927.94
2927.59
2927.04
2926.29
2925.35
2924.25
2922.98
2921.56
2920.01
2918.34
2916.55
2914.67
2912.7
2910.67
2908.57
2906.42
2904.23
2902.02
2899.78
2897.53
2895.28
2893.04
2890.8
2888.59
2886.39
2884.22
2882.09
2879.99
2877.93
2875.91
2873.93
2872
2870.12
2868.28
2866.5
2864.76
2863.08
2861.45
2859.87
2858.34
2856.86
2855.43
2854.04
2852.71
2851.43
2850.19
2848.99
2847.85
2846.74
2845.68
2844.66
2843.68
2842.73
2841.96
2841.02
2840.31
2839.52
2839.34
2837.33
1215.41
2428.82
2604.13
2587.16
2584.79
2590.85
2604.31
2622.02
2642.02
2662
2680.59
2697.57
2713.03
2726.87
2738.98
2749.47
2758.7
2767.02
2774.65
2781.7
2788.25
2794.39
2800.22
2805.8
2811.13
2816.23
2821.12
2825.85
2830.45
2834.99
2839.49
2843.98
2848.47
2852.96
2857.42
2861.81
2866.12
2870.37
2874.53
2878.61
2882.58
2886.44
2890.17
2893.77
2897.23
2900.54
2903.71
2906.72
2909.57
2912.26
2914.77
2917.1
2919.24
2921.17
2922.9
2924.4
2925.69
2926.74
2927.57
2928.19
2928.59
2928.74
2928.67
2928.42
2927.97
2927.33
2926.52
2925.54
2924.4
2923.13
2921.72
2920.2
2918.57
2916.84
2915.04
2913.17
2911.23
2909.25
2907.23
2905.19
2903.12
2901.04
2898.95
2896.88
2894.8
2892.75
2890.71
2888.69
2886.71
2884.76
2882.84
2880.96
2879.12
2877.32
2875.57
2873.86
2872.19
2870.57
2869
2867.48
2866
2864.57
2863.19
2861.85
2860.56
2859.31
2858.11
2856.95
2855.83
2854.76
2853.73
2852.73
2851.78
2850.86
2849.97
2849.27
2848.37
2847.72
2846.97
2846.81
2844.9
1214.86
2429.32
2603.09
2586
2584
2590.36
2604.11
2621.99
2642.09
2662.1
2680.68
2697.65
2713.1
2726.92
2739
2749.48
2758.71
2767.03
2774.67
2781.72
2788.28
2794.43
2800.26
2805.84
2811.18
2816.28
2821.17
2825.89
2830.5
2835.04
2839.55
2844.04
2848.54
2853.03
2857.49
2861.87
2866.18
2870.42
2874.58
2878.65
2882.63
2886.48
2890.21
2893.81
2897.27
2900.59
2903.75
2906.77
2909.63
2912.34
2914.87
2917.22
2919.39
2921.35
2923.11
2924.67
2926
2927.11
2928
2928.69
2929.16
2929.41
2929.44
2929.27
2928.93
2928.42
2927.72
2926.87
2925.88
2924.74
2923.49
2922.12
2920.64
2919.08
2917.44
2915.74
2913.97
2912.17
2910.32
2908.44
2906.54
2904.64
2902.72
2900.81
2898.9
2897.01
2895.13
2893.27
2891.44
2889.64
2887.87
2886.13
2884.43
2882.77
2881.14
2879.56
2878.02
2876.52
2875.06
2873.65
2872.28
2870.95
2869.67
2868.42
2867.22
2866.06
2864.94
2863.87
2862.82
2861.82
2860.86
2859.93
2859.05
2858.19
2857.36
2856.71
2855.86
2855.26
2854.55
2854.41
2852.6
1213.89
2429.85
2602.03
2584.84
2583.22
2589.89
2603.91
2621.97
2642.15
2662.2
2680.78
2697.73
2713.16
2726.96
2739.03
2749.5
2758.72
2767.04
2774.68
2781.74
2788.31
2794.46
2800.3
2805.89
2811.22
2816.33
2821.22
2825.94
2830.55
2835.09
2839.6
2844.11
2848.61
2853.1
2857.56
2861.94
2866.24
2870.48
2874.63
2878.7
2882.67
2886.53
2890.26
2893.86
2897.31
2900.63
2903.8
2906.83
2909.7
2912.42
2914.97
2917.35
2919.54
2921.54
2923.35
2924.94
2926.33
2927.49
2928.45
2929.22
2929.77
2930.11
2930.24
2930.18
2929.95
2929.55
2928.99
2928.28
2927.42
2926.44
2925.33
2924.12
2922.81
2921.42
2919.95
2918.42
2916.83
2915.19
2913.52
2911.82
2910.1
2908.36
2906.62
2904.88
2903.14
2901.41
2899.69
2897.99
2896.31
2894.66
2893.04
2891.44
2889.88
2888.35
2886.86
2885.4
2883.98
2882.6
2881.26
2879.95
2878.69
2877.46
2876.28
2875.13
2874.02
2872.94
2871.91
2870.91
2869.94
2869.02
2868.12
2867.26
2866.44
2865.66
2864.88
2864.29
2863.49
2862.94
2862.28
2862.17
2860.46
1213.99
2430.48
2600.95
2583.66
2582.45
2589.43
2603.72
2621.94
2642.22
2662.29
2680.86
2697.8
2713.22
2727
2739.05
2749.51
2758.72
2767.05
2774.7
2781.76
2788.34
2794.5
2800.35
2805.93
2811.27
2816.37
2821.27
2825.99
2830.6
2835.15
2839.66
2844.17
2848.68
2853.17
2857.62
2862
2866.3
2870.53
2874.68
2878.75
2882.72
2886.58
2890.3
2893.9
2897.36
2900.68
2903.85
2906.88
2909.77
2912.5
2915.08
2917.48
2919.71
2921.74
2923.59
2925.23
2926.67
2927.9
2928.92
2929.76
2930.39
2930.82
2931.07
2931.12
2930.99
2930.72
2930.29
2929.72
2929.01
2928.18
2927.23
2926.18
2925.04
2923.81
2922.52
2921.16
2919.75
2918.29
2916.8
2915.27
2913.73
2912.17
2910.6
2909.03
2907.46
2905.9
2904.34
2902.81
2901.29
2899.79
2898.32
2896.87
2895.45
2894.06
2892.7
2891.37
2890.07
2888.81
2887.58
2886.39
2885.23
2884.11
2883.02
2881.97
2880.95
2879.97
2879.01
2878.1
2877.21
2876.36
2875.53
2874.74
2873.99
2873.28
2872.56
2872.02
2871.27
2870.77
2870.15
2870.06
2868.46
1213.88
2431.24
2599.84
2582.49
2581.69
2588.99
2603.54
2621.92
2642.29
2662.38
2680.95
2697.88
2713.28
2727.04
2739.07
2749.52
2758.73
2767.06
2774.71
2781.79
2788.36
2794.53
2800.39
2805.97
2811.31
2816.42
2821.31
2826.04
2830.65
2835.2
2839.72
2844.23
2848.75
2853.24
2857.69
2862.06
2866.36
2870.58
2874.73
2878.8
2882.77
2886.62
2890.35
2893.94
2897.4
2900.72
2903.9
2906.94
2909.84
2912.59
2915.19
2917.62
2919.88
2921.95
2923.84
2925.53
2927.02
2928.32
2929.41
2930.33
2931.05
2931.58
2931.93
2932.1
2932.1
2931.95
2931.66
2931.23
2930.67
2929.99
2929.21
2928.32
2927.35
2926.31
2925.19
2924.01
2922.78
2921.5
2920.19
2918.85
2917.48
2916.1
2914.71
2913.31
2911.92
2910.52
2909.13
2907.76
2906.4
2905.05
2903.73
2902.42
2901.14
2899.89
2898.66
2897.46
2896.29
2895.15
2894.03
2892.95
2891.9
2890.88
2889.89
2888.93
2888.01
2887.11
2886.24
2885.4
2884.6
2883.82
2883.07
2882.35
2881.66
2881.03
2880.37
2879.87
2879.18
2878.74
2878.16
2878.1
2876.62
1213.45
2432.11
2598.7
2581.31
2580.94
2588.56
2603.37
2621.9
2642.35
2662.47
2681.04
2697.95
2713.33
2727.08
2739.09
2749.52
2758.73
2767.07
2774.73
2781.81
2788.39
2794.57
2800.42
2806.01
2811.36
2816.46
2821.36
2826.08
2830.7
2835.25
2839.78
2844.3
2848.82
2853.31
2857.76
2862.12
2866.41
2870.63
2874.78
2878.84
2882.81
2886.67
2890.39
2893.98
2897.44
2900.76
2903.95
2907
2909.92
2912.69
2915.31
2917.77
2920.05
2922.17
2924.1
2925.84
2927.39
2928.75
2929.92
2930.92
2931.73
2932.35
2932.81
2933.1
2933.23
2933.21
2933.05
2932.77
2932.36
2931.84
2931.22
2930.51
2929.71
2928.84
2927.9
2926.91
2925.86
2924.77
2923.64
2922.48
2921.3
2920.1
2918.89
2917.67
2916.45
2915.23
2914.01
2912.8
2911.6
2910.41
2909.24
2908.08
2906.94
2905.83
2904.74
2903.67
2902.62
2901.6
2900.61
2899.64
2898.7
2897.79
2896.9
2896.04
2895.2
2894.4
2893.61
2892.86
2892.13
2891.43
2890.75
2890.09
2889.47
2888.92
2888.31
2887.85
2887.22
2886.83
2886.3
2886.25
2884.87
1214.19
2433.11
2597.54
2580.12
2580.2
2588.15
2603.2
2621.87
2642.42
2662.56
2681.12
2698.02
2713.39
2727.12
2739.11
2749.53
2758.74
2767.08
2774.74
2781.83
2788.42
2794.6
2800.46
2806.06
2811.4
2816.51
2821.4
2826.13
2830.75
2835.3
2839.84
2844.36
2848.88
2853.38
2857.82
2862.18
2866.47
2870.68
2874.83
2878.89
2882.86
2886.71
2890.43
2894.03
2897.48
2900.81
2904
2907.06
2909.99
2912.78
2915.43
2917.92
2920.24
2922.39
2924.37
2926.16
2927.78
2929.2
2930.45
2931.53
2932.44
2933.16
2933.73
2934.14
2934.41
2934.53
2934.5
2934.37
2934.13
2933.77
2933.32
2932.78
2932.16
2931.47
2930.72
2929.91
2929.05
2928.14
2927.2
2926.23
2925.24
2924.23
2923.2
2922.16
2921.11
2920.06
2919.01
2917.96
2916.92
2915.89
2914.87
2913.87
2912.87
2911.9
2910.94
2910
2909.08
2908.18
2907.3
2906.45
2905.61
2904.8
2904.01
2903.25
2902.51
2901.79
2901.09
2900.42
2899.76
2899.14
2898.53
2897.94
2897.38
2896.92
2896.35
2895.94
2895.38
2895.05
2894.56
2894.53
2893.26
1214.44
2434.26
2596.33
2578.94
2579.47
2587.74
2603.03
2621.85
2642.48
2662.65
2681.2
2698.09
2713.44
2727.15
2739.13
2749.54
2758.75
2767.09
2774.76
2781.86
2788.45
2794.64
2800.5
2806.1
2811.44
2816.55
2821.45
2826.18
2830.8
2835.36
2839.89
2844.42
2848.95
2853.44
2857.88
2862.24
2866.52
2870.73
2874.88
2878.94
2882.9
2886.75
2890.48
2894.07
2897.52
2900.85
2904.05
2907.12
2910.07
2912.88
2915.55
2918.07
2920.43
2922.62
2924.64
2926.5
2928.17
2929.67
2930.99
2932.16
2933.16
2933.99
2934.67
2935.2
2935.59
2935.86
2935.99
2936
2935.91
2935.72
2935.45
2935.09
2934.65
2934.14
2933.57
2932.95
2932.28
2931.57
2930.82
2930.04
2929.23
2928.4
2927.56
2926.7
2925.83
2924.96
2924.08
2923.2
2922.33
2921.46
2920.59
2919.74
2918.89
2918.06
2917.24
2916.43
2915.64
2914.87
2914.11
2913.37
2912.65
2911.95
2911.26
2910.6
2909.95
2909.32
2908.71
2908.12
2907.55
2907
2906.47
2905.96
2905.46
2905.08
2904.56
2904.19
2903.7
2903.42
2902.97
2902.97
2901.81
1214.65
2435.53
2595.06
2577.75
2578.74
2587.35
2602.87
2621.83
2642.54
2662.74
2681.28
2698.16
2713.49
2727.18
2739.14
2749.54
2758.75
2767.1
2774.78
2781.88
2788.48
2794.67
2800.54
2806.14
2811.48
2816.59
2821.49
2826.22
2830.84
2835.41
2839.95
2844.49
2849.01
2853.51
2857.94
2862.3
2866.58
2870.78
2874.92
2878.98
2882.95
2886.8
2890.52
2894.1
2897.56
2900.89
2904.1
2907.19
2910.15
2912.98
2915.68
2918.23
2920.62
2922.86
2924.93
2926.84
2928.58
2930.14
2931.55
2932.81
2933.91
2934.84
2935.64
2936.3
2936.83
2937.23
2937.52
2937.7
2937.77
2937.76
2937.65
2937.47
2937.22
2936.9
2936.52
2936.09
2935.61
2935.09
2934.54
2933.95
2933.33
2932.7
2932.04
2931.36
2930.67
2929.98
2929.27
2928.56
2927.85
2927.14
2926.44
2925.73
2925.03
2924.34
2923.66
2922.98
2922.32
2921.67
2921.03
2920.4
2919.79
2919.19
2918.61
2918.04
2917.49
2916.95
2916.42
2915.92
2915.43
2914.95
2914.49
2914.05
2913.62
2913.31
2912.84
2912.52
2912.1
2911.88
2911.48
2911.48
2910.45
1215.99
2436.97
2593.73
2576.58
2578.03
2586.98
2602.71
2621.81
2642.6
2662.82
2681.36
2698.23
2713.54
2727.21
2739.15
2749.55
2758.76
2767.11
2774.8
2781.9
2788.51
2794.7
2800.58
2806.18
2811.52
2816.63
2821.53
2826.27
2830.89
2835.46
2840.01
2844.55
2849.08
2853.57
2858.01
2862.36
2866.63
2870.83
2874.97
2879.03
2882.99
2886.84
2890.55
2894.14
2897.6
2900.93
2904.15
2907.25
2910.23
2913.09
2915.81
2918.39
2920.82
2923.1
2925.23
2927.19
2928.99
2930.63
2932.12
2933.48
2934.67
2935.72
2936.63
2937.42
2938.08
2938.63
2939.07
2939.41
2939.65
2939.81
2939.88
2939.88
2939.81
2939.68
2939.5
2939.26
2938.98
2938.65
2938.29
2937.9
2937.48
2937.03
2936.56
2936.07
2935.57
2935.05
2934.52
2933.99
2933.44
2932.9
2932.35
2931.8
2931.25
2930.71
2930.16
2929.63
2929.1
2928.57
2928.06
2927.55
2927.05
2926.56
2926.08
2925.62
2925.16
2924.72
2924.28
2923.86
2923.45
2923.06
2922.68
2922.3
2921.94
2921.71
2921.3
2921.02
2920.68
2920.51
2920.15
2920.17
2919.26
1216.76
2438.53
2592.36
2575.4
2577.32
2586.61
2602.56
2621.79
2642.66
2662.9
2681.44
2698.29
2713.59
2727.24
2739.17
2749.55
2758.76
2767.12
2774.82
2781.93
2788.54
2794.74
2800.61
2806.21
2811.56
2816.67
2821.57
2826.31
2830.94
2835.51
2840.07
2844.61
2849.14
2853.64
2858.07
2862.41
2866.68
2870.88
2875.02
2879.07
2883.03
2886.87
2890.59
2894.17
2897.63
2900.98
2904.2
2907.31
2910.31
2913.19
2915.94
2918.56
2921.03
2923.35
2925.53
2927.55
2929.42
2931.14
2932.71
2934.16
2935.46
2936.62
2937.66
2938.58
2939.38
2940.08
2940.68
2941.18
2941.59
2941.92
2942.18
2942.37
2942.49
2942.55
2942.56
2942.52
2942.44
2942.31
2942.15
2941.95
2941.73
2941.48
2941.2
2940.9
2940.58
2940.24
2939.89
2939.53
2939.15
2938.77
2938.38
2937.98
2937.59
2937.18
2936.78
2936.38
2935.98
2935.58
2935.18
2934.79
2934.4
2934.02
2933.65
2933.28
2932.92
2932.56
2932.21
2931.88
2931.55
2931.23
2930.92
2930.62
2930.32
2930.15
2929.79
2929.58
2929.29
2929.16
2928.86
2928.9
2928.1
1217.58
2440.18
2590.97
2574.23
2576.62
2586.27
2602.41
2621.78
2642.72
2662.98
2681.51
2698.35
2713.64
2727.27
2739.18
2749.56
2758.77
2767.13
2774.83
2781.95
2788.57
2794.77
2800.65
2806.25
2811.6
2816.71
2821.62
2826.35
2830.99
2835.56
2840.12
2844.67
2849.21
2853.7
2858.12
2862.47
2866.73
2870.93
2875.06
2879.12
2883.07
2886.91
2890.62
2894.21
2897.67
2901.01
2904.25
2907.38
2910.4
2913.3
2916.08
2918.73
2921.24
2923.61
2925.83
2927.92
2929.86
2931.65
2933.31
2934.86
2936.26
2937.53
2938.69
2939.75
2940.69
2941.54
2942.29
2942.96
2943.54
2944.05
2944.49
2944.86
2945.18
2945.44
2945.65
2945.81
2945.92
2945.99
2946.03
2946.04
2946.01
2945.95
2945.86
2945.75
2945.62
2945.47
2945.3
2945.11
2944.91
2944.69
2944.47
2944.23
2943.98
2943.73
2943.47
2943.21
2942.95
2942.68
2942.41
2942.14
2941.87
2941.6
2941.33
2941.07
2940.8
2940.55
2940.29
2940.04
2939.8
2939.56
2939.33
2939.1
2938.88
2938.77
2938.48
2938.33
2938.09
2938
2937.76
2937.84
2937.14
1219.44
2441.92
2589.56
2573.07
2575.93
2585.93
2602.26
2621.76
2642.77
2663.05
2681.59
2698.42
2713.68
2727.29
2739.19
2749.56
2758.78
2767.15
2774.85
2781.97
2788.59
2794.8
2800.68
2806.29
2811.64
2816.75
2821.66
2826.4
2831.03
2835.62
2840.18
2844.73
2849.27
2853.76
2858.18
2862.52
2866.78
2870.98
2875.11
2879.16
2883.11
2886.94
2890.65
2894.24
2897.7
2901.05
2904.3
2907.44
2910.48
2913.41
2916.22
2918.9
2921.45
2923.87
2926.15
2928.29
2930.3
2932.18
2933.93
2935.57
2937.08
2938.47
2939.76
2940.95
2942.04
2943.04
2943.95
2944.79
2945.55
2946.24
2946.87
2947.44
2947.94
2948.4
2948.81
2949.17
2949.49
2949.77
2950.01
2950.22
2950.39
2950.53
2950.64
2950.72
2950.78
2950.81
2950.82
2950.81
2950.78
2950.73
2950.67
2950.59
2950.5
2950.39
2950.27
2950.15
2950.01
2949.87
2949.73
2949.57
2949.42
2949.26
2949.09
2948.93
2948.76
2948.59
2948.43
2948.26
2948.09
2947.93
2947.77
2947.63
2947.46
2947.41
2947.18
2947.09
2946.9
2946.84
2946.67
2946.78
2946.19
1221.04
2443.75
2588.13
2571.92
2575.24
2585.62
2602.12
2621.74
2642.83
2663.13
2681.66
2698.47
2713.73
2727.32
2739.2
2749.57
2758.79
2767.16
2774.87
2781.99
2788.62
2794.83
2800.71
2806.32
2811.68
2816.79
2821.7
2826.44
2831.08
2835.67
2840.24
2844.79
2849.33
2853.82
2858.24
2862.57
2866.83
2871.02
2875.15
2879.2
2883.14
2886.98
2890.68
2894.26
2897.73
2901.09
2904.35
2907.51
2910.57
2913.52
2916.36
2919.07
2921.66
2924.13
2926.46
2928.67
2930.75
2932.71
2934.55
2936.29
2937.91
2939.41
2940.83
2942.16
2943.39
2944.55
2945.62
2946.63
2947.57
2948.44
2949.25
2950.01
2950.72
2951.37
2951.98
2952.55
2953.07
2953.55
2954
2954.41
2954.78
2955.12
2955.43
2955.7
2955.95
2956.17
2956.37
2956.54
2956.68
2956.81
2956.91
2956.99
2957.06
2957.1
2957.14
2957.15
2957.16
2957.15
2957.13
2957.1
2957.07
2957.02
2956.97
2956.91
2956.85
2956.78
2956.7
2956.63
2956.55
2956.47
2956.39
2956.34
2956.25
2956.25
2956.09
2956.07
2955.93
2955.9
2955.82
2955.96
2955.49
1222.35
2445.59
2586.69
2570.79
2574.57
2585.31
2601.97
2621.72
2642.88
2663.2
2681.73
2698.53
2713.77
2727.34
2739.21
2749.58
2758.79
2767.17
2774.88
2782.02
2788.64
2794.86
2800.75
2806.36
2811.72
2816.83
2821.74
2826.48
2831.13
2835.72
2840.29
2844.85
2849.39
2853.88
2858.3
2862.63
2866.88
2871.07
2875.19
2879.23
2883.18
2887
2890.71
2894.29
2897.76
2901.12
2904.39
2907.57
2910.65
2913.63
2916.5
2919.25
2921.88
2924.39
2926.79
2929.06
2931.21
2933.25
2935.18
2937.02
2938.75
2940.38
2941.93
2943.4
2944.78
2946.1
2947.34
2948.52
2949.63
2950.69
2951.7
2952.65
2953.56
2954.42
2955.23
2956
2956.74
2957.43
2958.08
2958.69
2959.27
2959.81
2960.32
2960.79
2961.24
2961.65
2962.02
2962.37
2962.7
2962.99
2963.26
2963.5
2963.72
2963.92
2964.1
2964.26
2964.4
2964.52
2964.63
2964.72
2964.8
2964.86
2964.92
2964.96
2964.99
2965.02
2965.03
2965.04
2965.04
2965.04
2965.04
2965.07
2965.03
2965.09
2964.99
2965.03
2964.93
2964.94
2964.93
2965.1
2964.74
1224.46
2447.43
2585.23
2569.69
2573.92
2585.01
2601.83
2621.7
2642.93
2663.27
2681.8
2698.59
2713.81
2727.36
2739.23
2749.58
2758.8
2767.18
2774.9
2782.04
2788.67
2794.89
2800.78
2806.4
2811.75
2816.87
2821.78
2826.53
2831.17
2835.77
2840.35
2844.91
2849.45
2853.94
2858.35
2862.68
2866.93
2871.11
2875.23
2879.27
2883.21
2887.03
2890.73
2894.31
2897.78
2901.16
2904.44
2907.63
2910.74
2913.74
2916.64
2919.43
2922.1
2924.66
2927.11
2929.45
2931.68
2933.8
2935.82
2937.77
2939.61
2941.36
2943.04
2944.64
2946.18
2947.64
2949.05
2950.4
2951.7
2952.94
2954.14
2955.29
2956.39
2957.45
2958.47
2959.45
2960.39
2961.29
2962.15
2962.97
2963.76
2964.5
2965.21
2965.88
2966.52
2967.12
2967.69
2968.22
2968.72
2969.19
2969.63
2970.04
2970.42
2970.78
2971.11
2971.41
2971.69
2971.95
2972.19
2972.41
2972.61
2972.79
2972.96
2973.11
2973.25
2973.38
2973.49
2973.6
2973.69
2973.78
2973.85
2973.97
2974.01
2974.14
2974.11
2974.2
2974.17
2974.22
2974.29
2974.47
2974.26
1226.91
2449.3
2583.76
2568.61
2573.29
2584.71
2601.7
2621.68
2642.98
2663.34
2681.87
2698.65
2713.85
2727.39
2739.24
2749.59
2758.81
2767.19
2774.92
2782.06
2788.69
2794.91
2800.81
2806.43
2811.79
2816.91
2821.82
2826.57
2831.22
2835.82
2840.4
2844.97
2849.51
2854
2858.41
2862.73
2866.97
2871.15
2875.27
2879.3
2883.24
2887.05
2890.75
2894.33
2897.81
2901.19
2904.49
2907.7
2910.82
2913.85
2916.78
2919.61
2922.32
2924.93
2927.44
2929.84
2932.15
2934.35
2936.47
2938.52
2940.47
2942.35
2944.16
2945.91
2947.6
2949.23
2950.8
2952.33
2953.81
2955.24
2956.63
2957.98
2959.29
2960.56
2961.79
2962.98
2964.13
2965.24
2966.31
2967.34
2968.33
2969.29
2970.2
2971.07
2971.91
2972.7
2973.46
2974.17
2974.86
2975.5
2976.11
2976.68
2977.22
2977.73
2978.21
2978.66
2979.08
2979.47
2979.84
2980.18
2980.5
2980.8
2981.08
2981.33
2981.57
2981.79
2982
2982.19
2982.36
2982.53
2982.68
2982.88
2982.98
2983.16
2983.2
2983.34
2983.37
2983.46
2983.58
2983.76
2983.67
1228.6
2451.12
2582.27
2567.56
2572.69
2584.42
2601.56
2621.66
2643.03
2663.41
2681.93
2698.7
2713.89
2727.41
2739.25
2749.6
2758.82
2767.2
2774.93
2782.08
2788.71
2794.94
2800.84
2806.46
2811.82
2816.94
2821.86
2826.61