/*--------------------------------*- C++ -*----------------------------------*\
| =========                 |                                                 |
| \\      /  F ield         | OpenFOAM: The Open Source CFD Toolbox           |
|  \\    /   O peration     | Version:  2412                                  |
|   \\  /    A nd           | Website:  www.openfoam.com                      |
|    \\/     M anipulation  |                                                 |
\*---------------------------------------------------------------------------*/
FoamFile
{
    version     2.0;
    format      ascii;
    arch        "LSB;label=32;scalar=64";
    class       volScalarField;
    location    "0.042";
    object      p;
}
// * * * * * * * * * * * * * * * * * * * * * * * * * * * * * * * * * * * * * //

dimensions      [1 -1 -2 0 0 0 0];

internalField   nonuniform List<scalar> 
9859
(
2784.12
2783.37
2783.14
2782.73
2782.23
2781.6
2780.82
2779.9
2778.86
2777.92
2777.27
2777.01
2777.03
2777.22
2777.45
2777.62
2777.7
2777.76
2777.9
2778.2
2778.72
2779.42
2780.19
2780.96
2781.7
2782.45
2783.29
2784.24
2785.26
2786.28
2787.23
2788.11
2788.96
2789.86
2790.82
2791.81
2792.73
2793.57
2794.34
2795.12
2795.93
2796.77
2797.54
2798.21
2798.79
2799.33
2799.87
2800.39
2800.85
2801.19
2801.45
2801.68
2801.91
2802.11
2802.24
2802.25
2802.2
2802.1
2801.97
2801.79
2801.5
2801.06
2800.46
2799.69
2798.71
2797.52
2796.15
2794.58
2792.81
2784.07
2783.31
2783.07
2782.64
2782.13
2781.47
2780.67
2779.72
2778.65
2777.68
2776.99
2776.7
2776.7
2776.87
2777.09
2777.24
2777.31
2777.35
2777.48
2777.77
2778.28
2778.97
2779.73
2780.5
2781.23
2781.98
2782.82
2783.76
2784.79
2785.81
2786.76
2787.65
2788.51
2789.42
2790.39
2791.39
2792.33
2793.17
2793.96
2794.75
2795.59
2796.44
2797.23
2797.91
2798.5
2799.06
2799.62
2800.16
2800.63
2800.99
2801.27
2801.52
2801.77
2801.99
2802.13
2802.16
2802.12
2802.04
2801.93
2801.76
2801.48
2801.06
2800.46
2799.7
2798.72
2797.53
2796.15
2794.58
2792.78
2791.21
2790.85
2791.1
2792.05
2792.84
2794.83
2801.63
2802.15
2802.64
2803.17
2803.65
2804.18
2804.66
2805.14
2805.57
2806
2806.45
2806.85
2807.29
2807.52
2807.58
2807.73
2807.69
2807.43
2806.91
2806.11
2804.99
2803.56
2801.86
2799.81
2797.22
2793.94
2790.06
2785.56
2780.67
2776.28
2772.48
2770.3
2770.44
2772.7
2778.14
2785.13
2790.81
2784.03
2783.26
2783
2782.56
2782.03
2781.35
2780.51
2779.53
2778.43
2777.43
2776.71
2776.39
2776.36
2776.51
2776.71
2776.84
2776.9
2776.93
2777.04
2777.32
2777.82
2778.5
2779.26
2780.01
2780.74
2781.49
2782.32
2783.27
2784.29
2785.32
2786.28
2787.17
2788.04
2788.96
2789.94
2790.95
2791.9
2792.77
2793.57
2794.38
2795.23
2796.09
2796.9
2797.6
2798.21
2798.78
2799.36
2799.92
2800.41
2800.79
2801.09
2801.36
2801.63
2801.86
2802.02
2802.07
2802.04
2801.97
2801.88
2801.73
2801.47
2801.06
2800.47
2799.71
2798.74
2797.54
2796.15
2794.56
2792.76
2791.08
2790.77
2791.31
2791.94
2792.9
2794.97
2796.68
2798.22
2799.09
2799.76
2800.22
2800.62
2800.93
2801.48
2801.93
2802.49
2803
2803.5
2804.03
2804.54
2805.06
2805.53
2805.97
2806.45
2806.89
2807.32
2807.75
2808
2808.08
2808.26
2808.23
2807.99
2807.5
2806.73
2805.64
2804.25
2802.59
2800.58
2798.03
2794.8
2790.95
2786.44
2781.52
2777.04
2773.14
2770.71
2770.55
2772.52
2777.52
2783.9
2788.52
2783.98
2783.2
2782.93
2782.47
2781.92
2781.21
2780.35
2779.34
2778.21
2777.17
2776.41
2776.06
2776
2776.13
2776.31
2776.43
2776.47
2776.49
2776.59
2776.86
2777.35
2778.01
2778.76
2779.51
2780.23
2780.98
2781.81
2782.75
2783.78
2784.81
2785.77
2786.67
2787.55
2788.48
2789.48
2790.5
2791.46
2792.34
2793.16
2793.98
2794.85
2795.73
2796.55
2797.27
2797.9
2798.49
2799.09
2799.67
2800.18
2800.58
2800.9
2801.19
2801.48
2801.73
2801.9
2801.97
2801.96
2801.91
2801.84
2801.7
2801.45
2801.06
2800.48
2799.73
2798.76
2797.56
2796.14
2794.52
2792.73
2791.02
2790.74
2791.39
2791.78
2792.96
2795.1
2796.88
2798.39
2799.33
2800.01
2800.49
2800.9
2801.24
2801.78
2802.25
2802.82
2803.31
2803.86
2804.41
2804.94
2805.46
2805.95
2806.41
2806.88
2807.36
2807.79
2808.23
2808.51
2808.62
2808.81
2808.8
2808.58
2808.11
2807.37
2806.32
2804.97
2803.35
2801.38
2798.89
2795.7
2791.88
2787.37
2782.42
2777.85
2773.85
2771.16
2770.67
2772.33
2776.86
2782.62
2786.09
2783.93
2783.13
2782.86
2782.38
2781.81
2781.08
2780.18
2779.13
2777.97
2776.9
2776.11
2775.72
2775.63
2775.73
2775.89
2776
2776.02
2776.03
2776.12
2776.38
2776.85
2777.51
2778.25
2778.99
2779.71
2780.45
2781.28
2782.22
2783.25
2784.27
2785.24
2786.15
2787.04
2787.98
2788.99
2790.02
2791
2791.9
2792.73
2793.57
2794.46
2795.35
2796.2
2796.93
2797.57
2798.19
2798.8
2799.41
2799.94
2800.36
2800.7
2801.01
2801.32
2801.6
2801.79
2801.87
2801.88
2801.85
2801.79
2801.67
2801.44
2801.06
2800.49
2799.75
2798.79
2797.58
2796.13
2794.47
2792.67
2790.81
2790.65
2791.55
2791.62
2793.06
2795.27
2797.05
2798.59
2799.57
2800.28
2800.77
2801.2
2801.55
2802.09
2802.6
2803.2
2803.71
2804.25
2804.8
2805.35
2805.89
2806.38
2806.85
2807.37
2807.85
2808.3
2808.75
2809.05
2809.17
2809.39
2809.39
2809.19
2808.76
2808.05
2807.04
2805.72
2804.14
2802.22
2799.78
2796.64
2792.86
2788.34
2783.36
2778.69
2774.6
2771.64
2770.79
2772.14
2776.16
2781.25
2783.51
2764.97
2783.88
2783.07
2782.78
2782.29
2781.7
2780.94
2780
2778.92
2777.72
2776.62
2775.79
2775.36
2775.24
2775.32
2775.46
2775.55
2775.56
2775.56
2775.63
2775.88
2776.34
2776.98
2777.72
2778.45
2779.16
2779.9
2780.72
2781.67
2782.69
2783.72
2784.7
2785.61
2786.51
2787.46
2788.48
2789.53
2790.53
2791.43
2792.28
2793.14
2794.04
2794.96
2795.82
2796.57
2797.24
2797.87
2798.51
2799.14
2799.69
2800.13
2800.49
2800.83
2801.16
2801.46
2801.67
2801.77
2801.8
2801.79
2801.75
2801.65
2801.44
2801.07
2800.51
2799.78
2798.82
2797.61
2796.14
2794.46
2792.75
2790.86
2790.65
2791.55
2791.52
2793.16
2795.47
2797.25
2798.78
2799.83
2800.56
2801.07
2801.52
2801.86
2802.45
2802.98
2803.56
2804.08
2804.64
2805.21
2805.78
2806.34
2806.85
2807.34
2807.85
2808.35
2808.82
2809.28
2809.62
2809.76
2809.99
2810.02
2809.84
2809.44
2808.76
2807.78
2806.52
2804.97
2803.1
2800.71
2797.62
2793.87
2789.36
2784.36
2779.58
2775.4
2772.16
2770.92
2771.95
2775.43
2779.8
2780.82
2760.8
2783.84
2783.01
2782.71
2782.2
2781.58
2780.79
2779.82
2778.71
2777.47
2776.33
2775.45
2774.99
2774.84
2774.89
2775.01
2775.08
2775.08
2775.06
2775.12
2775.35
2775.81
2776.44
2777.16
2777.89
2778.6
2779.33
2780.15
2781.09
2782.12
2783.15
2784.13
2785.05
2785.96
2786.92
2787.96
2789.02
2790.03
2790.95
2791.82
2792.7
2793.62
2794.55
2795.43
2796.21
2796.89
2797.55
2798.21
2798.86
2799.43
2799.9
2800.29
2800.64
2801
2801.31
2801.55
2801.67
2801.72
2801.73
2801.71
2801.63
2801.43
2801.08
2800.54
2799.81
2798.86
2797.65
2796.12
2794.33
2792.59
2790.61
2790.76
2791.42
2791.44
2793.3
2795.64
2797.48
2799
2800.09
2800.85
2801.38
2801.84
2802.18
2802.81
2803.35
2803.96
2804.5
2805.06
2805.65
2806.25
2806.8
2807.33
2807.84
2808.38
2808.89
2809.37
2809.85
2810.21
2810.36
2810.63
2810.67
2810.52
2810.14
2809.5
2808.57
2807.34
2805.84
2804.01
2801.68
2798.65
2794.93
2790.42
2785.4
2780.53
2776.24
2772.72
2771.06
2771.76
2774.65
2778.25
2778.04
2756.61
2783.79
2782.95
2782.63
2782.1
2781.46
2780.64
2779.64
2778.48
2777.21
2776.02
2775.11
2774.6
2774.42
2774.44
2774.53
2774.59
2774.58
2774.54
2774.59
2774.81
2775.25
2775.88
2776.59
2777.31
2778.01
2778.74
2779.56
2780.5
2781.53
2782.56
2783.54
2784.47
2785.39
2786.36
2787.41
2788.49
2789.51
2790.45
2791.34
2792.23
2793.17
2794.13
2795.03
2795.82
2796.53
2797.21
2797.89
2798.57
2799.17
2799.66
2800.07
2800.45
2800.83
2801.17
2801.42
2801.57
2801.64
2801.67
2801.67
2801.61
2801.43
2801.1
2800.56
2799.84
2798.9
2797.69
2796.14
2794.28
2792.56
2790.6
2790.9
2791.26
2791.44
2793.49
2795.85
2797.72
2799.22
2800.37
2801.16
2801.71
2802.15
2802.57
2803.19
2803.74
2804.37
2804.92
2805.49
2806.11
2806.72
2807.3
2807.85
2808.37
2808.91
2809.44
2809.94
2810.45
2810.84
2811.01
2811.29
2811.36
2811.24
2810.89
2810.28
2809.39
2808.21
2806.75
2804.96
2802.69
2799.71
2796.03
2791.54
2786.5
2781.53
2777.14
2773.33
2771.22
2771.57
2773.84
2776.62
2775.19
2752.34
2783.74
2782.88
2782.55
2782
2781.33
2780.48
2779.44
2778.25
2776.93
2775.71
2774.75
2774.2
2773.99
2773.98
2774.04
2774.08
2774.05
2774.01
2774.04
2774.25
2774.68
2775.29
2776
2776.71
2777.41
2778.13
2778.95
2779.89
2780.91
2781.95
2782.94
2783.87
2784.79
2785.78
2786.84
2787.93
2788.98
2789.93
2790.84
2791.75
2792.71
2793.69
2794.61
2795.42
2796.15
2796.86
2797.57
2798.27
2798.9
2799.41
2799.85
2800.26
2800.66
2801.02
2801.3
2801.46
2801.55
2801.61
2801.63
2801.6
2801.44
2801.12
2800.59
2799.89
2798.95
2797.7
2796.06
2794.1
2792.32
2790.57
2790.96
2791.02
2791.47
2793.63
2796.08
2797.99
2799.46
2800.66
2801.48
2802.06
2802.43
2802.99
2803.58
2804.16
2804.8
2805.37
2805.96
2806.61
2807.23
2807.82
2808.37
2808.92
2809.49
2810.03
2810.55
2811.08
2811.49
2811.67
2811.99
2812.08
2811.98
2811.67
2811.1
2810.25
2809.11
2807.7
2805.96
2803.74
2800.83
2797.19
2792.71
2787.65
2782.59
2778.08
2773.99
2771.4
2771.37
2773
2774.89
2772.25
2748
2783.69
2782.82
2782.47
2781.9
2781.2
2780.32
2779.24
2778.01
2776.65
2775.38
2774.38
2773.79
2773.54
2773.49
2773.53
2773.56
2773.51
2773.45
2773.47
2773.67
2774.08
2774.69
2775.38
2776.09
2776.78
2777.5
2778.32
2779.25
2780.28
2781.32
2782.31
2783.24
2784.18
2785.18
2786.25
2787.36
2788.42
2789.4
2790.32
2791.25
2792.23
2793.23
2794.17
2795.01
2795.77
2796.5
2797.24
2797.96
2798.62
2799.16
2799.62
2800.06
2800.48
2800.87
2801.17
2801.36
2801.47
2801.55
2801.6
2801.58
2801.45
2801.14
2800.63
2799.93
2798.99
2797.73
2796.06
2794.02
2792.17
2790.68
2790.88
2790.82
2791.57
2793.82
2796.3
2798.28
2799.71
2800.96
2801.81
2802.42
2802.77
2803.41
2803.99
2804.59
2805.25
2805.84
2806.44
2807.11
2807.76
2808.36
2808.95
2809.5
2810.07
2810.64
2811.17
2811.73
2812.18
2812.38
2812.71
2812.84
2812.77
2812.49
2811.96
2811.15
2810.06
2808.69
2806.99
2804.83
2801.99
2798.4
2793.93
2788.87
2783.7
2779.08
2774.69
2771.61
2771.18
2772.12
2773.09
2769.23
2743.53
2783.64
2782.75
2782.39
2781.8
2781.06
2780.15
2779.04
2777.76
2776.36
2775.04
2773.99
2773.35
2773.06
2772.99
2773
2773.01
2772.94
2772.87
2772.88
2773.06
2773.47
2774.06
2774.75
2775.45
2776.14
2776.85
2777.66
2778.6
2779.63
2780.66
2781.66
2782.6
2783.55
2784.56
2785.65
2786.77
2787.84
2788.84
2789.78
2790.73
2791.73
2792.75
2793.72
2794.58
2795.37
2796.12
2796.89
2797.65
2798.33
2798.9
2799.39
2799.85
2800.31
2800.72
2801.04
2801.26
2801.4
2801.5
2801.57
2801.58
2801.46
2801.17
2800.67
2799.98
2799.04
2797.74
2796
2793.82
2791.9
2790.99
2790.59
2790.67
2791.7
2794.02
2796.55
2798.58
2799.98
2801.28
2802.16
2802.77
2803.13
2803.84
2804.43
2805.05
2805.72
2806.33
2806.97
2807.66
2808.32
2808.94
2809.53
2810.11
2810.7
2811.29
2811.84
2812.41
2812.9
2813.11
2813.48
2813.63
2813.59
2813.35
2812.86
2812.09
2811.05
2809.72
2808.08
2805.98
2803.2
2799.66
2795.22
2790.14
2784.89
2780.12
2775.44
2771.86
2770.99
2771.21
2771.19
2766.08
2739.01
2783.6
2782.69
2782.3
2781.69
2780.93
2779.98
2778.82
2777.5
2776.06
2774.69
2773.59
2772.9
2772.57
2772.46
2772.45
2772.43
2772.36
2772.27
2772.27
2772.44
2772.83
2773.41
2774.09
2774.79
2775.47
2776.18
2776.99
2777.93
2778.95
2779.99
2780.99
2781.94
2782.89
2783.91
2785.02
2786.16
2787.25
2788.26
2789.22
2790.2
2791.22
2792.26
2793.25
2794.14
2794.95
2795.74
2796.54
2797.33
2798.04
2798.64
2799.16
2799.65
2800.13
2800.57
2800.92
2801.16
2801.32
2801.45
2801.55
2801.58
2801.49
2801.21
2800.73
2800.04
2799.09
2797.76
2795.96
2793.7
2791.63
2791.42
2790.13
2790.57
2791.84
2794.24
2796.8
2798.91
2800.28
2801.61
2802.52
2803.13
2803.53
2804.3
2804.89
2805.54
2806.22
2806.85
2807.5
2808.21
2808.9
2809.54
2810.16
2810.76
2811.37
2811.98
2812.55
2813.14
2813.64
2813.88
2814.27
2814.46
2814.46
2814.26
2813.8
2813.07
2812.08
2810.8
2809.2
2807.16
2804.46
2800.97
2796.56
2791.48
2786.14
2781.22
2776.25
2772.16
2770.8
2770.26
2769.22
2762.81
2734.46
2783.55
2782.62
2782.22
2781.59
2780.79
2779.8
2778.6
2777.24
2775.74
2774.33
2773.18
2772.44
2772.06
2771.92
2771.88
2771.84
2771.75
2771.64
2771.63
2771.79
2772.17
2772.74
2773.41
2774.11
2774.78
2775.49
2776.3
2777.23
2778.25
2779.3
2780.3
2781.25
2782.22
2783.25
2784.37
2785.52
2786.63
2787.66
2788.64
2789.64
2790.69
2791.76
2792.77
2793.69
2794.53
2795.35
2796.18
2797
2797.74
2798.37
2798.92
2799.44
2799.95
2800.42
2800.79
2801.06
2801.25
2801.4
2801.53
2801.59
2801.52
2801.25
2800.78
2800.1
2799.15
2797.81
2795.94
2793.61
2791.39
2791.84
2789.56
2790.53
2792.04
2794.49
2797.05
2799.25
2800.59
2801.96
2802.89
2803.5
2803.96
2804.78
2805.37
2806.04
2806.73
2807.4
2808.07
2808.81
2809.52
2810.19
2810.83
2811.44
2812.06
2812.69
2813.29
2813.9
2814.43
2814.7
2815.11
2815.33
2815.36
2815.21
2814.79
2814.1
2813.16
2811.93
2810.39
2808.4
2805.77
2802.35
2797.97
2792.89
2787.47
2782.36
2777.11
2772.51
2770.61
2769.28
2767.18
2759.45
2729.86
2783.51
2782.56
2782.14
2781.48
2780.64
2779.61
2778.37
2776.96
2775.42
2773.96
2772.75
2771.96
2771.53
2771.36
2771.28
2771.22
2771.11
2771
2770.97
2771.11
2771.48
2772.04
2772.71
2773.4
2774.07
2774.78
2775.59
2776.52
2777.54
2778.58
2779.59
2780.55
2781.52
2782.57
2783.7
2784.87
2786
2787.05
2788.05
2789.07
2790.14
2791.23
2792.27
2793.22
2794.09
2794.94
2795.81
2796.66
2797.44
2798.1
2798.68
2799.23
2799.77
2800.27
2800.67
2800.96
2801.18
2801.37
2801.52
2801.61
2801.55
2801.3
2800.85
2800.17
2799.19
2797.82
2795.9
2793.53
2791.16
2792.16
2789.05
2790.55
2792.23
2794.74
2797.31
2799.59
2800.92
2802.32
2803.26
2803.93
2804.42
2805.27
2805.89
2806.58
2807.29
2807.98
2808.68
2809.44
2810.17
2810.85
2811.5
2812.15
2812.79
2813.45
2814.07
2814.7
2815.24
2815.54
2815.98
2816.25
2816.32
2816.2
2815.82
2815.18
2814.29
2813.1
2811.62
2809.69
2807.13
2803.78
2799.44
2794.37
2788.87
2783.58
2778.03
2772.92
2770.44
2768.26
2765.09
2756.01
2725.29
2783.47
2782.5
2782.06
2781.37
2780.49
2779.42
2778.14
2776.68
2775.09
2773.57
2772.31
2771.46
2770.98
2770.77
2770.66
2770.58
2770.45
2770.32
2770.29
2770.42
2770.77
2771.33
2771.99
2772.67
2773.35
2774.05
2774.85
2775.78
2776.8
2777.85
2778.86
2779.83
2780.81
2781.87
2783.01
2784.2
2785.35
2786.42
2787.44
2788.48
2789.58
2790.7
2791.77
2792.74
2793.65
2794.53
2795.44
2796.32
2797.14
2797.83
2798.44
2799.02
2799.59
2800.12
2800.55
2800.87
2801.12
2801.34
2801.52
2801.63
2801.6
2801.36
2800.92
2800.24
2799.23
2797.84
2795.88
2793.47
2791.08
2792.21
2788.62
2790.63
2792.45
2795.01
2797.57
2799.95
2801.28
2802.72
2803.64
2804.33
2804.93
2805.79
2806.44
2807.14
2807.87
2808.58
2809.3
2810.08
2810.84
2811.57
2812.24
2812.9
2813.56
2814.24
2814.89
2815.54
2816.09
2816.45
2816.9
2817.21
2817.31
2817.24
2816.91
2816.31
2815.47
2814.34
2812.91
2811.04
2808.54
2805.27
2800.98
2795.92
2790.36
2784.85
2779
2773.41
2770.26
2767.2
2762.96
2752.5
2720.64
2783.43
2782.44
2781.98
2781.26
2780.34
2779.23
2777.9
2776.39
2774.75
2773.18
2771.86
2770.95
2770.42
2770.16
2770.02
2769.91
2769.77
2769.63
2769.58
2769.7
2770.04
2770.59
2771.25
2771.92
2772.59
2773.3
2774.1
2775.03
2776.05
2777.1
2778.11
2779.09
2780.08
2781.15
2782.31
2783.51
2784.68
2785.77
2786.81
2787.88
2789
2790.15
2791.25
2792.26
2793.19
2794.11
2795.06
2795.98
2796.83
2797.56
2798.2
2798.81
2799.41
2799.97
2800.43
2800.79
2801.07
2801.32
2801.53
2801.67
2801.66
2801.44
2801.01
2800.33
2799.3
2797.85
2795.86
2793.45
2791.18
2791.88
2788.35
2790.72
2792.7
2795.31
2797.85
2800.3
2801.66
2803.14
2804.04
2804.77
2805.47
2806.33
2807.01
2807.72
2808.51
2809.23
2809.98
2810.78
2811.54
2812.29
2812.99
2813.68
2814.39
2815.08
2815.75
2816.42
2816.99
2817.4
2817.86
2818.21
2818.36
2818.34
2818.05
2817.49
2816.7
2815.63
2814.24
2812.44
2810.01
2806.82
2802.59
2797.55
2791.93
2786.22
2780.03
2773.97
2770.11
2766.13
2760.75
2748.91
2716.07
2783.4
2782.39
2781.91
2781.16
2780.19
2779.03
2777.65
2776.09
2774.4
2772.77
2771.39
2770.41
2769.83
2769.53
2769.36
2769.22
2769.06
2768.9
2768.84
2768.95
2769.28
2769.82
2770.48
2771.15
2771.82
2772.52
2773.32
2774.25
2775.28
2776.32
2777.34
2778.33
2779.33
2780.41
2781.59
2782.81
2783.99
2785.1
2786.17
2787.26
2788.41
2789.58
2790.72
2791.76
2792.73
2793.69
2794.67
2795.64
2796.52
2797.28
2797.96
2798.6
2799.23
2799.83
2800.32
2800.71
2801.02
2801.3
2801.56
2801.72
2801.73
2801.53
2801.11
2800.44
2799.37
2797.87
2795.83
2793.41
2791.54
2791.22
2788.25
2790.83
2792.98
2795.64
2798.16
2800.65
2802.07
2803.6
2804.46
2805.26
2806.03
2806.89
2807.61
2808.33
2809.12
2809.88
2810.66
2811.49
2812.3
2813.07
2813.79
2814.51
2815.22
2815.95
2816.65
2817.35
2817.94
2818.38
2818.88
2819.27
2819.46
2819.48
2819.25
2818.73
2818
2816.98
2815.65
2813.9
2811.54
2808.43
2804.27
2799.25
2793.58
2787.65
2781.12
2774.61
2769.98
2765.05
2758.47
2745.2
2711.43
2783.37
2782.34
2781.83
2781.05
2780.04
2778.83
2777.4
2775.79
2774.04
2772.35
2770.91
2769.87
2769.23
2768.88
2768.68
2768.51
2768.33
2768.16
2768.09
2768.18
2768.5
2769.03
2769.68
2770.36
2771.03
2771.73
2772.53
2773.46
2774.48
2775.54
2776.56
2777.55
2778.56
2779.66
2780.85
2782.09
2783.29
2784.42
2785.51
2786.63
2787.8
2789.01
2790.18
2791.26
2792.27
2793.27
2794.29
2795.29
2796.21
2797.01
2797.72
2798.39
2799.06
2799.69
2800.22
2800.64
2800.99
2801.31
2801.59
2801.78
2801.82
2801.63
2801.23
2800.55
2799.45
2797.9
2795.79
2793.33
2792.17
2790.38
2788.31
2790.96
2793.3
2796.02
2798.51
2800.98
2802.52
2804.09
2804.99
2805.77
2806.61
2807.47
2808.23
2808.99
2809.82
2810.6
2811.4
2812.25
2813.09
2813.88
2814.64
2815.38
2816.11
2816.87
2817.6
2818.32
2818.94
2819.43
2819.95
2820.37
2820.61
2820.67
2820.5
2820.03
2819.35
2818.38
2817.11
2815.43
2813.14
2810.1
2806.02
2801.02
2795.31
2789.17
2782.32
2775.31
2769.89
2763.97
2756.17
2741.46
2706.84
2783.35
2782.29
2781.77
2780.95
2779.88
2778.62
2777.14
2775.48
2773.67
2771.92
2770.41
2769.31
2768.61
2768.21
2767.97
2767.77
2767.57
2767.39
2767.3
2767.39
2767.7
2768.22
2768.87
2769.55
2770.22
2770.92
2771.72
2772.65
2773.67
2774.73
2775.76
2776.76
2777.78
2778.89
2780.1
2781.35
2782.58
2783.73
2784.85
2785.99
2787.2
2788.43
2789.63
2790.75
2791.8
2792.84
2793.9
2794.95
2795.91
2796.74
2797.48
2798.2
2798.9
2799.56
2800.13
2800.59
2800.97
2801.32
2801.64
2801.85
2801.92
2801.75
2801.38
2800.7
2799.58
2797.96
2795.76
2793.18
2792.79
2789.52
2788.47
2791.11
2793.65
2796.44
2798.91
2801.28
2803
2804.59
2805.47
2806.33
2807.23
2808.09
2808.9
2809.67
2810.49
2811.33
2812.17
2813.05
2813.91
2814.74
2815.53
2816.29
2817.05
2817.84
2818.61
2819.35
2819.99
2820.53
2821.07
2821.54
2821.82
2821.91
2821.8
2821.38
2820.77
2819.86
2818.64
2817.01
2814.79
2811.84
2807.84
2802.88
2797.11
2790.76
2783.58
2776.11
2769.82
2762.91
2753.85
2737.65
2702.16
2783.33
2782.25
2781.7
2780.85
2779.73
2778.41
2776.88
2775.17
2773.3
2771.48
2769.9
2768.73
2767.97
2767.52
2767.24
2767.01
2766.79
2766.6
2766.5
2766.58
2766.87
2767.38
2768.03
2768.71
2769.38
2770.09
2770.89
2771.82
2772.85
2773.91
2774.94
2775.95
2776.98
2778.11
2779.33
2780.61
2781.85
2783.03
2784.17
2785.34
2786.58
2787.85
2789.09
2790.25
2791.34
2792.42
2793.52
2794.61
2795.61
2796.48
2797.26
2798
2798.75
2799.45
2800.05
2800.55
2800.97
2801.35
2801.7
2801.95
2802.03
2801.89
2801.54
2800.86
2799.71
2798.03
2795.75
2793.01
2793.21
2788.76
2788.74
2791.3
2794.03
2796.9
2799.37
2801.57
2803.52
2805.13
2805.98
2806.94
2807.86
2808.74
2809.58
2810.39
2811.24
2812.11
2812.98
2813.89
2814.79
2815.64
2816.46
2817.25
2818.04
2818.85
2819.65
2820.43
2821.1
2821.68
2822.26
2822.77
2823.07
2823.21
2823.15
2822.8
2822.24
2821.39
2820.24
2818.68
2816.53
2813.65
2809.73
2804.8
2799.01
2792.46
2784.94
2776.95
2769.81
2761.87
2751.49
2733.86
2697.5
2783.32
2782.22
2781.64
2780.75
2779.58
2778.2
2776.61
2774.85
2772.92
2771.03
2769.37
2768.13
2767.31
2766.81
2766.49
2766.24
2765.99
2765.78
2765.67
2765.74
2766.02
2766.52
2767.17
2767.85
2768.53
2769.24
2770.05
2770.98
2772.01
2773.07
2774.11
2775.13
2776.18
2777.32
2778.56
2779.85
2781.12
2782.32
2783.49
2784.69
2785.96
2787.27
2788.54
2789.74
2790.88
2792.01
2793.15
2794.28
2795.31
2796.22
2797.04
2797.82
2798.6
2799.34
2799.99
2800.52
2800.98
2801.4
2801.78
2802.06
2802.17
2802.06
2801.74
2801.05
2799.88
2798.13
2795.75
2792.93
2793.43
2788.19
2789.06
2791.54
2794.46
2797.41
2799.91
2801.87
2804.08
2805.7
2806.56
2807.58
2808.52
2809.43
2810.31
2811.15
2812.02
2812.93
2813.84
2814.78
2815.71
2816.59
2817.44
2818.26
2819.07
2819.92
2820.75
2821.55
2822.27
2822.9
2823.51
2824.04
2824.4
2824.57
2824.57
2824.28
2823.8
2823
2821.9
2820.4
2818.34
2815.53
2811.71
2806.81
2800.97
2794.24
2786.39
2777.87
2769.85
2760.89
2749.15
2730.06
2692.72
2783.33
2782.19
2781.59
2780.65
2779.43
2777.99
2776.35
2774.53
2772.53
2770.57
2768.84
2767.52
2766.64
2766.08
2765.72
2765.44
2765.17
2764.94
2764.83
2764.88
2765.15
2765.64
2766.29
2766.97
2767.66
2768.37
2769.18
2770.12
2771.15
2772.22
2773.27
2774.3
2775.36
2776.52
2777.78
2779.09
2780.38
2781.61
2782.81
2784.04
2785.34
2786.69
2788
2789.25
2790.43
2791.6
2792.79
2793.96
2795.03
2795.98
2796.83
2797.65
2798.47
2799.26
2799.94
2800.51
2801.01
2801.47
2801.89
2802.19
2802.32
2802.26
2801.96
2801.27
2800.05
2798.24
2795.79
2792.99
2793.31
2787.89
2789.35
2791.85
2794.92
2797.95
2800.53
2802.22
2804.7
2806.33
2807.16
2808.25
2809.22
2810.16
2811.07
2811.95
2812.86
2813.79
2814.74
2815.71
2816.67
2817.59
2818.47
2819.33
2820.17
2821.05
2821.92
2822.75
2823.49
2824.17
2824.83
2825.39
2825.8
2826.01
2826.05
2825.83
2825.39
2824.68
2823.66
2822.22
2820.24
2817.48
2813.73
2808.88
2803.02
2796.14
2787.94
2778.83
2769.96
2759.98
2746.84
2726.31
2688.04
2783.34
2782.17
2781.54
2780.56
2779.28
2777.79
2776.09
2774.21
2772.15
2770.11
2768.29
2766.9
2765.95
2765.34
2764.94
2764.62
2764.33
2764.09
2763.96
2764
2764.26
2764.74
2765.39
2766.08
2766.77
2767.49
2768.31
2769.25
2770.29
2771.37
2772.43
2773.47
2774.54
2775.71
2776.99
2778.33
2779.65
2780.9
2782.13
2783.39
2784.73
2786.12
2787.47
2788.76
2789.99
2791.21
2792.44
2793.65
2794.76
2795.75
2796.64
2797.5
2798.36
2799.19
2799.91
2800.53
2801.07
2801.56
2802.01
2802.35
2802.51
2802.48
2802.21
2801.51
2800.24
2798.39
2795.87
2793.19
2792.85
2787.8
2789.65
2792.23
2795.43
2798.52
2801.21
2802.63
2805.39
2806.91
2807.81
2808.96
2809.94
2810.91
2811.88
2812.8
2813.74
2814.71
2815.69
2816.69
2817.69
2818.65
2819.56
2820.45
2821.33
2822.23
2823.13
2824
2824.79
2825.51
2826.21
2826.8
2827.25
2827.53
2827.6
2827.44
2827.1
2826.43
2825.45
2824.08
2822.2
2819.52
2815.86
2811.06
2805.14
2798.11
2789.58
2779.94
2770.14
2759.15
2744.55
2722.56
2683.35
2783.36
2782.16
2781.49
2780.48
2779.13
2777.58
2775.83
2773.89
2771.76
2769.64
2767.73
2766.26
2765.24
2764.58
2764.13
2763.78
2763.47
2763.21
2763.07
2763.1
2763.35
2763.83
2764.47
2765.16
2765.86
2766.59
2767.42
2768.36
2769.41
2770.5
2771.57
2772.63
2773.72
2774.91
2776.21
2777.57
2778.91
2780.2
2781.45
2782.75
2784.13
2785.56
2786.96
2788.29
2789.57
2790.84
2792.11
2793.36
2794.51
2795.54
2796.46
2797.37
2798.27
2799.14
2799.91
2800.57
2801.15
2801.68
2802.16
2802.52
2802.72
2802.74
2802.5
2801.78
2800.43
2798.53
2796.02
2793.51
2792.31
2787.88
2789.97
2792.68
2795.99
2799.13
2801.97
2803.13
2806.14
2807.55
2808.52
2809.7
2810.72
2811.74
2812.72
2813.69
2814.67
2815.67
2816.69
2817.73
2818.76
2819.76
2820.71
2821.63
2822.54
2823.47
2824.42
2825.32
2826.15
2826.92
2827.65
2828.28
2828.78
2829.11
2829.24
2829.13
2828.83
2828.27
2827.37
2826.07
2824.25
2821.62
2818.01
2813.26
2807.37
2800.23
2791.28
2781.11
2770.4
2758.36
2742.33
2718.9
2678.74
2783.39
2782.16
2781.46
2780.4
2778.99
2777.38
2775.57
2773.58
2771.38
2769.17
2767.17
2765.6
2764.52
2763.8
2763.32
2762.93
2762.6
2762.33
2762.17
2762.19
2762.43
2762.89
2763.53
2764.24
2764.95
2765.69
2766.52
2767.47
2768.53
2769.63
2770.72
2771.79
2772.9
2774.11
2775.43
2776.82
2778.19
2779.5
2780.79
2782.12
2783.54
2785.01
2786.46
2787.84
2789.17
2790.49
2791.81
2793.1
2794.29
2795.35
2796.31
2797.26
2798.21
2799.12
2799.94
2800.63
2801.25
2801.82
2802.33
2802.72
2802.96
2803.04
2802.83
2802.09
2800.69
2798.74
2796.13
2793.88
2791.84
2788.09
2790.36
2793.21
2796.61
2799.76
2802.85
2803.75
2806.88
2808.22
2809.27
2810.47
2811.51
2812.58
2813.62
2814.63
2815.64
2816.68
2817.74
2818.82
2819.89
2820.93
2821.92
2822.87
2823.82
2824.79
2825.77
2826.71
2827.59
2828.4
2829.17
2829.83
2830.39
2830.76
2830.96
2830.91
2830.67
2830.15
2829.31
2828.11
2826.39
2823.84
2820.29
2815.58
2809.68
2802.35
2793.13
2782.52
2770.81
2757.61
2740.17
2715.31
2674.2
2783.44
2782.17
2781.43
2780.32
2778.86
2777.19
2775.32
2773.27
2771
2768.71
2766.6
2764.94
2763.78
2763.01
2762.48
2762.07
2761.72
2761.43
2761.26
2761.27
2761.49
2761.95
2762.59
2763.3
2764.02
2764.77
2765.61
2766.58
2767.65
2768.76
2769.86
2770.95
2772.08
2773.31
2774.66
2776.07
2777.48
2778.83
2780.15
2781.52
2782.98
2784.49
2785.99
2787.42
2788.8
2790.16
2791.52
2792.85
2794.09
2795.19
2796.19
2797.18
2798.17
2799.13
2799.99
2800.73
2801.38
2801.99
2802.53
2802.96
2803.25
2803.38
2803.22
2802.47
2801
2798.89
2796.33
2794.2
2791.55
2788.48
2790.83
2793.84
2797.31
2800.47
2803.75
2804.61
2807.58
2808.96
2810.07
2811.29
2812.42
2813.5
2814.57
2815.62
2816.68
2817.75
2818.85
2819.98
2821.09
2822.17
2823.19
2824.18
2825.16
2826.17
2827.19
2828.18
2829.1
2829.96
2830.77
2831.47
2832.07
2832.5
2832.75
2832.77
2832.6
2832.15
2831.37
2830.25
2828.58
2826.07
2822.56
2817.92
2812.05
2804.59
2795.14
2783.96
2771.38
2756.89
2738.13
2711.83
2669.76
2783.52
2782.2
2781.42
2780.26
2778.74
2777.01
2775.08
2772.97
2770.64
2768.25
2766.04
2764.27
2763.02
2762.2
2761.64
2761.2
2760.82
2760.52
2760.34
2760.34
2760.56
2761
2761.64
2762.36
2763.09
2763.86
2764.71
2765.68
2766.76
2767.89
2769.01
2770.12
2771.27
2772.52
2773.9
2775.34
2776.78
2778.17
2779.53
2780.94
2782.44
2784
2785.54
2787.03
2788.45
2789.86
2791.27
2792.65
2793.92
2795.06
2796.11
2797.13
2798.17
2799.18
2800.08
2800.86
2801.55
2802.18
2802.75
2803.22
2803.57
2803.77
2803.66
2802.93
2801.39
2799.08
2796.4
2794.52
2791.48
2789.07
2791.4
2794.55
2798.09
2801.32
2804.64
2805.6
2808.32
2809.74
2810.9
2812.21
2813.28
2814.43
2815.57
2816.67
2817.77
2818.88
2820.03
2821.19
2822.35
2823.48
2824.53
2825.56
2826.58
2827.63
2828.69
2829.72
2830.68
2831.58
2832.44
2833.19
2833.83
2834.31
2834.61
2834.7
2834.58
2834.23
2833.55
2832.5
2830.88
2828.41
2824.95
2820.37
2814.49
2806.89
2797.22
2785.68
2772.13
2756.29
2736.15
2708.46
2665.45
2783.61
2782.24
2781.43
2780.22
2778.63
2776.84
2774.85
2772.7
2770.29
2767.81
2765.49
2763.61
2762.26
2761.38
2760.77
2760.31
2759.92
2759.6
2759.41
2759.41
2759.61
2760.05
2760.69
2761.42
2762.17
2762.94
2763.8
2764.79
2765.88
2767.02
2768.16
2769.3
2770.48
2771.75
2773.15
2774.63
2776.11
2777.54
2778.95
2780.4
2781.94
2783.54
2785.13
2786.66
2788.14
2789.6
2791.06
2792.47
2793.78
2794.96
2796.04
2797.12
2798.21
2799.25
2800.2
2801.02
2801.74
2802.41
2803.01
2803.53
2803.95
2804.21
2804.15
2803.45
2801.88
2799.4
2796.33
2794.76
2791.66
2789.83
2792.09
2795.35
2798.99
2802.36
2805.61
2806.54
2809.13
2810.66
2811.81
2813.07
2814.27
2815.45
2816.63
2817.77
2818.92
2820.08
2821.27
2822.48
2823.69
2824.85
2825.95
2827.02
2828.08
2829.17
2830.27
2831.34
2832.35
2833.3
2834.19
2834.99
2835.67
2836.22
2836.58
2836.72
2836.66
2836.39
2835.78
2834.82
2833.25
2830.84
2827.46
2822.93
2817.06
2809.35
2799.42
2787.38
2773.06
2755.78
2734.4
2705.25
2660.99
2783.74
2782.32
2781.45
2780.2
2778.54
2776.69
2774.65
2772.44
2769.97
2767.4
2764.96
2762.95
2761.5
2760.54
2759.9
2759.42
2759.01
2758.69
2758.49
2758.47
2758.67
2759.1
2759.74
2760.48
2761.24
2762.04
2762.91
2763.91
2765.02
2766.17
2767.34
2768.5
2769.7
2771.01
2772.44
2773.95
2775.47
2776.94
2778.4
2779.89
2781.48
2783.12
2784.77
2786.35
2787.88
2789.38
2790.88
2792.34
2793.69
2794.9
2796.03
2797.15
2798.27
2799.37
2800.36
2801.22
2801.97
2802.67
2803.3
2803.88
2804.38
2804.7
2804.68
2804.01
2802.47
2799.93
2796.15
2794.99
2792.02
2790.77
2792.95
2796.25
2799.98
2803.61
2806.65
2807.54
2809.98
2811.45
2812.73
2814.06
2815.3
2816.54
2817.76
2818.94
2820.13
2821.34
2822.58
2823.84
2825.09
2826.3
2827.44
2828.56
2829.66
2830.79
2831.94
2833.05
2834.1
2835.1
2836.03
2836.88
2837.61
2838.2
2838.61
2838.81
2838.81
2838.59
2838.12
2837.21
2835.67
2833.32
2830.02
2825.55
2819.68
2811.88
2801.78
2789.36
2774.11
2755.56
2732.81
2702.23
2656.66
2783.9
2782.42
2781.51
2780.21
2778.5
2776.57
2774.47
2772.2
2769.67
2767.03
2764.47
2762.32
2760.74
2759.7
2759.01
2758.51
2758.1
2757.77
2757.57
2757.55
2757.74
2758.16
2758.8
2759.55
2760.33
2761.14
2762.03
2763.04
2764.16
2765.34
2766.53
2767.71
2768.95
2770.29
2771.76
2773.31
2774.86
2776.38
2777.88
2779.44
2781.07
2782.77
2784.45
2786.08
2787.66
2789.21
2790.76
2792.25
2793.64
2794.9
2796.07
2797.22
2798.39
2799.53
2800.56
2801.45
2802.24
2802.96
2803.64
2804.29
2804.86
2805.24
2805.25
2804.58
2803.01
2800.32
2796.39
2795.32
2792.63
2791.91
2794
2797.33
2801.15
2805.03
2807.48
2808.65
2810.9
2812.41
2813.75
2815.11
2816.41
2817.69
2818.96
2820.18
2821.42
2822.68
2823.96
2825.28
2826.58
2827.84
2829.02
2830.18
2831.32
2832.5
2833.7
2834.86
2835.96
2837
2837.97
2838.86
2839.63
2840.28
2840.75
2841.01
2841.07
2840.91
2840.5
2839.66
2838.16
2835.89
2832.66
2828.26
2822.38
2814.49
2804.21
2791.41
2775.29
2755.52
2731.49
2699.56
2653.23
2784.11
2782.57
2781.61
2780.24
2778.48
2776.51
2774.35
2772.01
2769.42
2766.69
2764.03
2761.74
2760.01
2758.85
2758.11
2757.6
2757.19
2756.86
2756.65
2756.63
2756.81
2757.24
2757.87
2758.63
2759.43
2760.27
2761.18
2762.2
2763.34
2764.54
2765.75
2766.97
2768.23
2769.61
2771.12
2772.72
2774.32
2775.88
2777.43
2779.03
2780.71
2782.45
2784.19
2785.88
2787.5
2789.09
2790.67
2792.22
2793.65
2794.94
2796.14
2797.34
2798.55
2799.72
2800.79
2801.72
2802.54
2803.3
2804.02
2804.74
2805.38
2805.82
2805.85
2805.15
2803.47
2800.62
2797.14
2795.85
2793.45
2793.18
2795.28
2798.62
2802.43
2806.37
2808.39
2809.85
2811.9
2813.45
2814.85
2816.23
2817.58
2818.92
2820.23
2821.5
2822.79
2824.1
2825.44
2826.8
2828.15
2829.46
2830.69
2831.89
2833.08
2834.31
2835.54
2836.75
2837.9
2838.98
2840
2840.94
2841.75
2842.46
2842.98
2843.3
2843.42
2843.32
2842.99
2842.17
2840.74
2838.53
2835.38
2831.02
2825.14
2817.18
2806.77
2793.63
2776.74
2755.8
2730.54
2696.77
2649.13
2784.38