/*--------------------------------*- C++ -*----------------------------------*\
| =========                 |                                                 |
| \\      /  F ield         | OpenFOAM: The Open Source CFD Toolbox           |
|  \\    /   O peration     | Version:  2412                                  |
|   \\  /    A nd           | Website:  www.openfoam.com                      |
|    \\/     M anipulation  |                                                 |
\*---------------------------------------------------------------------------*/
FoamFile
{
    version     2.0;
    format      ascii;
    arch        "LSB;label=32;scalar=64";
    class       volScalarField;
    location    "0.02";
    object      rho;
}
// * * * * * * * * * * * * * * * * * * * * * * * * * * * * * * * * * * * * * //

dimensions      [1 -3 0 0 0 0 0];

internalField   nonuniform List<scalar> 
78650
(
0.042133
0.042133
0.042133
0.042133
0.042133
0.042133
0.042133
0.042133
0.042133
0.042133
0.042133
0.042133
0.042133
0.042133
0.042133
0.042133
0.042133
0.042133
0.042133
0.0421335
0.0421439
0.04223
0.0424782
0.0427662
0.042901
0.0429434
0.04291
0.0427798
0.0426086
0.04246
0.0423334
0.0422136
0.0420991
0.042008
0.0419548
0.0419392
0.0419361
0.0419331
0.0419184
0.0418821
0.0418378
0.0418041
0.0417805
0.0417599
0.0417381
0.0417146
0.041692
0.0416723
0.0416557
0.0416413
0.0416293
0.0416199
0.0416128
0.0416078
0.0416039
0.0416003
0.0415969
0.0415932
0.0415895
0.041586
0.0415822
0.0415777
0.0415718
0.0415643
0.041555
0.0415439
0.0415311
0.0415158
0.0414975
0.0414752
0.0414484
0.0414163
0.0413785
0.0413347
0.041284
0.0412257
0.0411582
0.0410805
0.0409915
0.04089
0.0407745
0.0406435
0.0404955
0.0403286
0.0401413
0.0399319
0.0396991
0.0394409
0.039155
0.0388397
0.0384944
0.0381159
0.0377002
0.037242
0.0367505
0.0362233
0.0356663
0.0350763
0.0344573
0.0338054
0.0331072
0.0323808
0.0316419
0.0309118
0.0301711
0.0294571
0.0287148
0.0279933
0.0273033
0.0266038
0.0259575
0.0253749
0.0248434
0.0243727
0.0239508
0.0235441
0.0231608
0.0227698
0.0224065
0.0220792
0.0215498
0.042133
0.042133
0.042133
0.042133
0.042133
0.042133
0.042133
0.042133
0.042133
0.042133
0.042133
0.042133
0.042133
0.042133
0.042133
0.042133
0.042133
0.042133
0.042133
0.0421332
0.0421391
0.0422005
0.0424188
0.042723
0.0428986
0.042958
0.0429344
0.0428247
0.0426547
0.0425034
0.0423766
0.0422581
0.042144
0.0420501
0.0419909
0.0419723
0.0419687
0.0419671
0.0419571
0.0419257
0.0418829
0.0418486
0.0418255
0.0418069
0.041788
0.0417672
0.0417468
0.041729
0.0417143
0.0417017
0.0416915
0.0416838
0.0416787
0.041676
0.0416744
0.0416736
0.0416729
0.0416721
0.0416714
0.041671
0.0416706
0.0416698
0.041668
0.0416649
0.0416604
0.0416543
0.0416467
0.0416374
0.0416254
0.0416102
0.0415911
0.0415673
0.0415384
0.0415042
0.041464
0.041417
0.0413621
0.041298
0.0412238
0.0411383
0.0410404
0.0409284
0.0408009
0.0406563
0.0404931
0.0403096
0.0401038
0.0398734
0.0396163
0.0393312
0.0390162
0.0386674
0.0382827
0.037861
0.0374088
0.0369197
0.0363975
0.0358322
0.0352267
0.0345909
0.0339146
0.0332217
0.0324984
0.0317823
0.0310241
0.0302939
0.0295605
0.0288128
0.028127
0.0274222
0.0267314
0.0260919
0.0254759
0.0249103
0.0244041
0.0239397
0.0235317
0.0231268
0.0227192
0.02233
0.0216939
0.042133
0.042133
0.042133
0.042133
0.042133
0.042133
0.042133
0.042133
0.042133
0.042133
0.042133
0.042133
0.042133
0.042133
0.042133
0.042133
0.042133
0.042133
0.042133
0.0421331
0.0421363
0.0421775
0.0423604
0.0426695
0.0428886
0.042969
0.0429531
0.042867
0.0427032
0.0425493
0.0424212
0.0423037
0.0421903
0.0420937
0.0420284
0.0420057
0.0420012
0.0420002
0.0419943
0.0419683
0.0419282
0.0418938
0.0418714
0.041855
0.0418389
0.041821
0.0418029
0.041787
0.0417742
0.0417636
0.0417551
0.041749
0.0417459
0.0417453
0.0417462
0.0417479
0.0417499
0.041752
0.0417543
0.041757
0.04176
0.041763
0.0417652
0.0417663
0.0417665
0.0417653
0.0417631
0.0417595
0.0417539
0.0417454
0.0417337
0.0417179
0.0416976
0.0416726
0.0416423
0.0416062
0.0415631
0.0415119
0.0414515
0.041381
0.0412993
0.0412048
0.0410962
0.0409719
0.0408306
0.0406704
0.0404894
0.0402859
0.040058
0.0398042
0.0395223
0.0392094
0.0388643
0.0384868
0.0380794
0.037634
0.0371512
0.0366189
0.036048
0.0354372
0.0347908
0.0341146
0.0333934
0.0326662
0.0319099
0.0311286
0.0304023
0.0296362
0.0288906
0.0281877
0.027475
0.0268031
0.026146
0.0255168
0.0249231
0.0243596
0.0238578
0.0233921
0.0229751
0.0225908
0.0218946
0.042133
0.042133
0.042133
0.042133
0.042133
0.042133
0.042133
0.042133
0.042133
0.042133
0.042133
0.042133
0.042133
0.042133
0.042133
0.042133
0.042133
0.042133
0.042133
0.0421331
0.0421346
0.0421603
0.0423048
0.0426059
0.0428669
0.0429748
0.0429685
0.042909
0.042756
0.0425989
0.0424687
0.0423519
0.0422392
0.0421393
0.042067
0.0420386
0.0420325
0.0420318
0.0420302
0.0420107
0.0419746
0.0419409
0.0419191
0.0419048
0.0418915
0.0418766
0.0418608
0.0418467
0.0418357
0.0418268
0.0418199
0.0418154
0.041814
0.0418154
0.0418187
0.0418228
0.0418274
0.0418323
0.0418375
0.0418431
0.0418494
0.0418559
0.041862
0.0418672
0.0418717
0.0418754
0.0418783
0.04188
0.0418804
0.0418784
0.0418739
0.041866
0.0418538
0.0418376
0.0418168
0.041791
0.0417593
0.0417205
0.0416736
0.0416177
0.0415518
0.0414746
0.0413848
0.0412808
0.0411614
0.0410248
0.0408695
0.0406933
0.0404948
0.0402716
0.0400214
0.0397418
0.0394324
0.0390922
0.0387192
0.0383044
0.0378505
0.0373539
0.0368284
0.0362658
0.0356647
0.0350256
0.0343439
0.0336083
0.0328782
0.0320906
0.0313006
0.0305241
0.0297039
0.0289502
0.0282006
0.027481
0.026816
0.0261814
0.0255619
0.0249704
0.0244005
0.0238283
0.0233145
0.0228635
0.0221126
0.042133
0.042133
0.042133
0.042133
0.042133
0.042133
0.042133
0.042133
0.042133
0.042133
0.042133
0.042133
0.042133
0.042133
0.042133
0.042133
0.042133
0.042133
0.042133
0.0421331
0.0421337
0.0421485
0.0422553
0.0425341
0.0428303
0.0429752
0.0429841
0.0429481
0.0428096
0.0426509
0.0425186
0.0424023
0.0422897
0.0421859
0.0421068
0.0420716
0.0420635
0.0420636
0.042066
0.0420529
0.0420219
0.0419899
0.0419692
0.0419569
0.0419464
0.0419345
0.0419209
0.0419085
0.0418992
0.0418919
0.0418866
0.0418836
0.0418837
0.0418873
0.0418925
0.0418991
0.0419063
0.0419139
0.0419219
0.0419305
0.0419398
0.0419498
0.0419596
0.041969
0.0419779
0.0419862
0.041994
0.0420011
0.0420071
0.0420115
0.0420136
0.0420132
0.042009
0.0420015
0.0419897
0.0419738
0.0419527
0.0419255
0.0418913
0.0418491
0.041798
0.0417368
0.0416642
0.0415789
0.0414796
0.0413647
0.0412328
0.041082
0.0409105
0.0407162
0.0404969
0.0402508
0.0399769
0.0396724
0.0393332
0.0389534
0.0385371
0.0380817
0.0375954
0.0370679
0.0365026
0.0358931
0.0352451
0.0345551
0.0338331
0.0330853
0.0322827
0.0315169
0.0306895
0.0298694
0.0290664
0.0282588
0.0274903
0.0267807
0.0261111
0.0255156
0.0249563
0.0244067
0.0238456
0.0233028
0.0223629
0.042133
0.042133
0.042133
0.042133
0.042133
0.042133
0.042133
0.042133
0.042133
0.042133
0.042133
0.042133
0.042133
0.042133
0.042133
0.042133
0.042133
0.042133
0.042133
0.042133
0.0421333
0.0421409
0.0422137
0.0424571
0.0427776
0.0429688
0.0430013
0.0429802
0.0428638
0.0427082
0.0425734
0.0424553
0.0423413
0.0422334
0.0421475
0.0421048
0.0420948
0.0420966
0.0421029
0.0420954
0.0420708
0.0420415
0.0420219
0.0420115
0.0420035
0.0419947
0.0419834
0.0419726
0.0419648
0.041959
0.041955
0.0419535
0.041955
0.0419602
0.0419676
0.0419765
0.0419862
0.0419964
0.0420072
0.0420186
0.042031
0.0420442
0.0420578
0.0420711
0.0420842
0.0420969
0.0421095
0.0421218
0.0421334
0.0421439
0.0421524
0.0421586
0.0421621
0.0421629
0.0421599
0.0421535
0.0421427
0.0421267
0.0421047
0.0420756
0.0420389
0.0419933
0.0419378
0.041871
0.0417917
0.0416984
0.0415899
0.0414641
0.0413196
0.041154
0.0409654
0.040752
0.0405117
0.0402412
0.0399372
0.0395974
0.0392255
0.0388179
0.0383759
0.0378864
0.0373536
0.0367727
0.0361505
0.0354911
0.0347738
0.0340478
0.0332732
0.0324792
0.0316765
0.0308552
0.0300525
0.0292323
0.0284158
0.0276187
0.0268289
0.0260769
0.0253916
0.024759
0.0242197
0.0237542
0.0228586
0.042133
0.042133
0.042133
0.042133
0.042133
0.042133
0.042133
0.042133
0.042133
0.042133
0.042133
0.042133
0.042133
0.042133
0.042133
0.042133
0.042133
0.042133
0.042133
0.042133
0.0421331
0.0421367
0.0421818
0.04238
0.0427101
0.0429509
0.0430122
0.0430062
0.0429192
0.0427704
0.0426308
0.0425082
0.0423919
0.042281
0.0421898
0.0421394
0.0421271
0.0421305
0.0421414
0.0421391
0.0421217
0.0420955
0.0420766
0.0420681
0.0420628
0.0420571
0.0420483
0.0420389
0.0420323
0.0420278
0.0420252
0.0420249
0.042028
0.0420347
0.0420441
0.0420552
0.0420675
0.0420804
0.0420938
0.042108
0.0421233
0.0421398
0.0421569
0.0421742
0.0421914
0.0422085
0.0422258
0.042243
0.0422599
0.0422761
0.0422911
0.0423042
0.0423149
0.0423231
0.0423286
0.042331
0.0423301
0.0423247
0.0423144
0.0422976
0.0422742
0.0422431
0.0422032
0.0421534
0.0420924
0.0420189
0.0419317
0.0418291
0.0417096
0.0415712
0.0414122
0.0412304
0.0410236
0.0407887
0.0405241
0.0402284
0.0399021
0.039538
0.0391338
0.0386798
0.0381849
0.037645
0.0370641
0.0364404
0.0357773
0.0350614
0.0343095
0.0334886
0.032683
0.0318253
0.0309966
0.0301537
0.0293319
0.0285409
0.0277658
0.0270027
0.0262247
0.0254399
0.0246887
0.0240478
0.0229231
0.042133
0.042133
0.042133
0.042133
0.042133
0.042133
0.042133
0.042133
0.042133
0.042133
0.042133
0.042133
0.042133
0.042133
0.042133
0.042133
0.042133
0.042133
0.042133
0.042133
0.0421331
0.0421345
0.0421596
0.042308
0.0426275
0.042917
0.0430155
0.0430314
0.0429736
0.0428353
0.0426883
0.0425601
0.0424425
0.0423308
0.0422355
0.0421772
0.0421617
0.0421658
0.0421819
0.0421854
0.0421741
0.0421513
0.0421335
0.0421269
0.0421242
0.0421214
0.042115
0.0421067
0.0421009
0.0420977
0.0420965
0.0420975
0.0421021
0.0421103
0.0421216
0.0421349
0.0421495
0.042165
0.0421811
0.0421981
0.0422163
0.0422358
0.0422564
0.0422775
0.0422987
0.04232
0.0423417
0.0423637
0.0423858
0.0424076
0.0424285
0.042448
0.0424658
0.0424816
0.0424951
0.0425059
0.0425139
0.0425184
0.0425192
0.0425146
0.0425043
0.0424872
0.0424626
0.0424293
0.0423863
0.0423324
0.0422663
0.0421865
0.0420916
0.0419797
0.0418491
0.0416976
0.0415228
0.0413222
0.0410942
0.0408368
0.0405478
0.0402198
0.0398524
0.0394416
0.0389953
0.0385074
0.0379786
0.0374021
0.0367754
0.0361012
0.0353803
0.0346085
0.0338106
0.0329524
0.0320688
0.0311933
0.0302712
0.0293943
0.0285432
0.027755
0.0270027
0.0263068
0.0255861
0.0248812
0.0235857
0.042133
0.042133
0.042133
0.042133
0.042133
0.042133
0.042133
0.042133
0.042133
0.042133
0.042133
0.042133
0.042133
0.042133
0.042133
0.042133
0.042133
0.042133
0.042133
0.042133
0.042133
0.0421336
0.0421459
0.0422466
0.0425344
0.0428641
0.0430124
0.0430563
0.0430223
0.0428979
0.0427445
0.042612
0.0424946
0.0423836
0.0422846
0.0422184
0.0421984
0.0422019
0.0422228
0.0422333
0.0422273
0.0422092
0.0421925
0.0421871
0.0421864
0.0421863
0.0421823
0.0421754
0.0421705
0.0421685
0.0421687
0.0421715
0.0421771
0.0421869
0.0421999
0.0422154
0.0422324
0.0422504
0.0422693
0.042289
0.04231
0.0423326
0.0423565
0.0423813
0.0424064
0.0424319
0.0424579
0.0424845
0.0425116
0.0425387
0.0425655
0.0425912
0.0426157
0.0426385
0.0426596
0.0426787
0.0426956
0.0427095
0.0427199
0.0427264
0.0427283
0.0427244
0.042714
0.0426962
0.0426696
0.0426334
0.0425865
0.0425276
0.0424554
0.0423681
0.0422643
0.0421418
0.0419984
0.0418319
0.0416406
0.0414219
0.0411726
0.040887
0.040566
0.0402066
0.0398119
0.0393727
0.0388885
0.0383529
0.0377648
0.037128
0.0364434
0.0357173
0.0349298
0.0341208
0.0332368
0.0323701
0.0314413
0.0304897
0.0295733
0.0286118
0.0276993
0.0268588
0.0261184
0.0254847
0.024248
0.042133
0.042133
0.042133
0.042133
0.042133
0.042133
0.042133
0.042133
0.042133
0.042133
0.042133
0.042133
0.042133
0.042133
0.042133
0.042133
0.042133
0.042133
0.042133
0.042133
0.042133
0.0421332
0.0421385
0.0421995
0.0424373
0.0427901
0.0430038
0.0430768
0.0430565
0.0429574
0.0428037
0.0426678
0.0425503
0.0424396
0.0423369
0.0422637
0.0422378
0.0422397
0.0422637
0.0422826
0.0422822
0.0422695
0.0422533
0.0422478
0.0422482
0.0422506
0.0422492
0.0422444
0.0422405
0.0422397
0.0422414
0.0422455
0.0422526
0.0422638
0.0422786
0.042296
0.0423154
0.042336
0.0423576
0.0423801
0.0424039
0.0424293
0.0424565
0.0424848
0.0425138
0.0425433
0.0425734
0.0426044
0.0426362
0.0426684
0.0427006
0.0427324
0.0427632
0.0427928
0.0428211
0.0428479
0.042873
0.042896
0.0429164
0.0429333
0.0429462
0.0429545
0.0429578
0.042955
0.0429447
0.0429263
0.0428981
0.0428594
0.0428091
0.0427457
0.0426676
0.0425728
0.0424593
0.0423252
0.0421681
0.0419851
0.0417731
0.0415291
0.0412542
0.0409442
0.0405984
0.0402056
0.039766
0.0392745
0.0387341
0.0381461
0.0375025
0.0368069
0.0360627
0.0352665
0.0344275
0.0335245
0.0326513
0.031702
0.0307765
0.0298413
0.0288472
0.0278858
0.0269057
0.0260477
0.0244748
0.042133
0.042133
0.042133
0.042133
0.042133
0.042133
0.042133
0.042133
0.042133
0.042133
0.042133
0.042133
0.042133
0.042133
0.042133
0.042133
0.042133
0.042133
0.042133
0.042133
0.042133
0.0421331
0.0421351
0.0421677
0.0423458
0.0426969
0.0429789
0.0430869
0.0430803
0.0430136
0.0428677
0.0427274
0.0426076
0.0424966
0.0423917
0.0423132
0.0422795
0.0422789
0.0423033
0.0423319
0.0423379
0.0423294
0.0423136
0.042307
0.0423082
0.0423136
0.042315
0.0423127
0.04231
0.0423102
0.0423138
0.0423194
0.0423281
0.0423408
0.0423573
0.0423768
0.0423985
0.0424217
0.042446
0.0424713
0.0424979
0.0425262
0.0425565
0.0425883
0.042621
0.0426543
0.0426885
0.0427238
0.04276
0.0427971
0.0428346
0.042872
0.0429089
0.042945
0.0429801
0.0430143
0.0430472
0.0430787
0.0431081
0.0431349
0.0431587
0.0431786
0.0431938
0.0432039
0.0432083
0.0432063
0.0431955
0.043176
0.0431455
0.0431039
0.0430495
0.0429808
0.0428959
0.0427927
0.0426689
0.0425217
0.0423491
0.0421488
0.0419194
0.0416544
0.0413512
0.0410016
0.0406095
0.0401706
0.0396853
0.0391501
0.038558
0.0379109
0.0372013
0.0364359
0.0356217
0.0347385
0.0338118
0.0328575
0.0318514
0.0309388
0.0299453
0.0290411
0.0281186
0.0272347
0.0255486
0.042133
0.042133
0.042133
0.042133
0.042133
0.042133
0.042133
0.042133
0.042133
0.042133
0.042133
0.042133
0.042133
0.042133
0.042133
0.042133
0.042133
0.042133
0.042133
0.042133
0.042133
0.0421331
0.0421337
0.042149
0.0422686
0.0425899
0.0429282
0.0430865
0.0431014
0.0430659
0.0429335
0.0427881
0.0426653
0.0425555
0.0424507
0.0423675
0.0423242
0.042319
0.0423412
0.0423791
0.0423921
0.0423867
0.0423718
0.0423643
0.0423663
0.0423753
0.0423802
0.0423797
0.0423785
0.0423799
0.0423853
0.042393
0.0424034
0.0424176
0.0424358
0.0424574
0.0424814
0.0425072
0.0425342
0.0425623
0.0425916
0.0426226
0.0426558
0.0426908
0.0427271
0.0427642
0.0428022
0.0428415
0.042882
0.0429237
0.0429661
0.0430089
0.0430515
0.0430937
0.0431353
0.0431763
0.0432167
0.043256
0.043294
0.0433302
0.0433639
0.0433947
0.043422
0.0434452
0.0434631
0.0434753
0.0434812
0.0434805
0.0434696
0.0434496
0.0434175
0.0433734
0.0433149
0.0432404
0.0431476
0.0430342
0.042898
0.0427366
0.0425473
0.0423245
0.0420669
0.0417693
0.0414351
0.0410569
0.040633
0.040156
0.0396205
0.0390294
0.0383747
0.0376627
0.0368876
0.0360572
0.0351415
0.0342048
0.0331756
0.0320874
0.0310192
0.0299128
0.0289106
0.0280403
0.0263783
0.042133
0.042133
0.042133
0.042133
0.042133
0.042133
0.042133
0.042133
0.042133
0.042133
0.042133
0.042133
0.042133
0.042133
0.042133
0.042133
0.042133
0.042133
0.042133
0.042133
0.042133
0.042133
0.0421332
0.0421394
0.0422108
0.0424788
0.0428519
0.0430741
0.0431248
0.0431059
0.0429954
0.0428497
0.0427251
0.0426169
0.0425125
0.0424229
0.0423686
0.0423571
0.0423752
0.0424209
0.0424425
0.0424402
0.042428
0.0424201
0.0424226
0.0424347
0.0424437
0.0424452
0.0424457
0.0424487
0.0424558
0.0424658
0.0424782
0.0424941
0.0425141
0.0425377
0.0425639
0.0425922
0.0426219
0.0426528
0.0426848
0.0427185
0.0427545
0.0427926
0.0428323
0.042873
0.0429147
0.0429578
0.0430025
0.0430485
0.0430956
0.0431434
0.0431914
0.0432394
0.0432872
0.0433347
0.0433819
0.0434287
0.0434747
0.0435194
0.0435625
0.0436033
0.0436415
0.0436763
0.0437073
0.0437337
0.0437541
0.0437682
0.0437753
0.0437755
0.0437645
0.0437436
0.0437098
0.0436625
0.0435995
0.0435188
0.0434182
0.0432948
0.0431459
0.042967
0.0427575
0.0425128
0.0422333
0.0419095
0.0415395
0.041116
0.0406363
0.040101
0.0395022
0.0388463
0.0381229
0.0373382
0.0364942
0.0355665
0.03463
0.033578
0.0325467
0.0313966
0.0302062
0.029108
0.0270775
0.042133
0.042133
0.042133
0.042133
0.042133
0.042133
0.042133
0.042133
0.042133
0.042133
0.042133
0.042133
0.042133
0.042133
0.042133
0.042133
0.042133
0.042133
0.042133
0.042133
0.042133
0.042133
0.0421331
0.0421353
0.0421728
0.0423751
0.0427545
0.0430474
0.0431366
0.0431329
0.0430546
0.0429157
0.0427883
0.0426783
0.042572
0.0424754
0.0424113
0.0423931
0.0424063
0.042457
0.0424899
0.0424921
0.0424838
0.0424757
0.0424778
0.0424919
0.0425055
0.0425101
0.0425124
0.042517
0.0425261
0.0425383
0.0425527
0.0425703
0.042592
0.0426175
0.042646
0.0426767
0.042709
0.0427425
0.0427772
0.0428135
0.0428521
0.0428931
0.0429359
0.04298
0.0430252
0.043072
0.0431204
0.0431704
0.0432219
0.0432744
0.0433275
0.0433809
0.0434343
0.0434879
0.0435416
0.0435952
0.0436486
0.0437014
0.0437532
0.0438034
0.0438517
0.0438976
0.0439406
0.0439798
0.0440148
0.0440448
0.0440682
0.0440849
0.044094
0.0440954
0.0440849
0.0440633
0.0440275
0.0439764
0.0439078
0.0438191
0.0437079
0.0435711
0.0434076
0.0432119
0.042982
0.0427087
0.0423919
0.0420244
0.0416055
0.0411319
0.0405951
0.0399965
0.0393233
0.0385813
0.0377653
0.0368814
0.0359214
0.0349143
0.033804
0.0327521
0.031619
0.0306006
0.028634
0.042133
0.042133
0.042133
0.042133
0.042133
0.042133
0.042133
0.042133
0.042133
0.042133
0.042133
0.042133
0.042133
0.042133
0.042133
0.042133
0.042133
0.042133
0.042133
0.042133
0.042133
0.042133
0.0421331
0.0421337
0.0421511
0.0422884
0.0426437
0.0429993
0.0431346
0.0431576
0.0431109
0.0429838
0.0428493
0.0427341
0.0426264
0.0425257
0.0424544
0.0424292
0.0424373
0.0424889
0.0425348
0.0425439
0.0425388
0.042531
0.0425323
0.0425478
0.0425662
0.0425746
0.0425791
0.0425853
0.042596
0.0426102
0.0426266
0.0426458
0.0426691
0.0426965
0.0427272
0.0427604
0.0427952
0.0428313
0.0428686
0.0429074
0.0429484
0.0429921
0.0430378
0.0430851
0.0431338
0.0431839
0.0432359
0.0432897
0.0433453
0.0434022
0.04346
0.0435184
0.0435773
0.0436365
0.0436962
0.0437563
0.0438166
0.0438767
0.0439365
0.0439953
0.044053
0.0441089
0.0441627
0.0442138
0.0442616
0.0443053
0.0443443
0.0443777
0.0444043
0.0444236
0.0444347
0.0444373
0.0444273
0.0444048
0.0443668
0.0443117
0.0442373
0.0441408
0.0440201
0.0438696
0.0436871
0.0434655
0.0432059
0.0429011
0.0425499
0.042145
0.0416787
0.0411499
0.0405473
0.0398772
0.039126
0.0382982
0.0373815
0.0363798
0.0352916
0.0341417
0.032839
0.0316586
0.029508
0.042133
0.042133
0.042133
0.042133
0.042133
0.042133
0.042133
0.042133
0.042133
0.042133
0.042133
0.042133
0.042133
0.042133
0.042133
0.042133
0.042133
0.042133
0.042133
0.042133
0.042133
0.042133
0.042133
0.0421332
0.0421404
0.0422242
0.042529
0.0429283
0.0431239
0.0431851
0.0431575
0.0430445
0.0429044
0.0427861
0.0426789
0.0425769
0.0425001
0.0424666
0.0424691
0.0425173
0.0425769
0.0425955
0.0425933
0.0425868
0.0425873
0.0426037
0.0426266
0.0426392
0.042646
0.0426537
0.0426657
0.0426816
0.0426997
0.0427205
0.0427454
0.0427746
0.0428074
0.0428429
0.0428802
0.0429188
0.0429586
0.0429998
0.0430432
0.0430892
0.0431377
0.043188
0.0432397
0.0432931
0.0433483
0.0434057
0.043465
0.0435259
0.0435881
0.0436512
0.043715
0.0437794
0.0438447
0.0439106
0.0439772
0.0440442
0.0441112
0.044178
0.0442442
0.0443094
0.0443733
0.0444353
0.0444949
0.0445516
0.0446047
0.0446533
0.0446968
0.0447345
0.0447649
0.0447874
0.0448008
0.0448046
0.0447949
0.0447708
0.0447298
0.0446696
0.0445881
0.0444805
0.0443453
0.044177
0.0439757
0.0437328
0.043446
0.0431058
0.0427071
0.0422471
0.0417166
0.0411182
0.0404364
0.0396788
0.0388297
0.037903
0.0368851
0.0358027
0.0345613
0.0333651
0.0311434
0.042133
0.042133
0.042133
0.042133
0.042133
0.042133
0.042133
0.042133
0.042133
0.042133
0.042133
0.042133
0.042133
0.042133
0.042133
0.042133
0.042133
0.042133
0.042133
0.042133
0.042133
0.042133
0.042133
0.0421331
0.0421357
0.0421821
0.0424221
0.0428383
0.0431082
0.0432035
0.0431887
0.0430985
0.0429576
0.0428374
0.0427313
0.042629
0.0425465
0.0425035
0.0425001
0.0425435
0.0426162
0.042647
0.0426482
0.0426435
0.0426431
0.0426597
0.0426868
0.0427038
0.0427131
0.042722
0.0427349
0.0427521
0.0427717
0.0427939
0.0428203
0.0428513
0.0428862
0.042924
0.0429637
0.0430048
0.0430471
0.0430906
0.0431362
0.0431845
0.0432355
0.0432885
0.0433432
0.0433995
0.0434578
0.0435184
0.0435811
0.0436458
0.043712
0.0437794
0.0438477
0.043917
0.0439874
0.0440587
0.0441311
0.0442043
0.0442781
0.0443521
0.0444261
0.0444997
0.0445727
0.0446445
0.0447148
0.0447831
0.0448487
0.0449111
0.0449695
0.0450233
0.0450718
0.045114
0.0451484
0.0451742
0.04519
0.0451951
0.0451859
0.0451602
0.0451159
0.0450493
0.0449595
0.044841
0.0446924
0.0445042
0.0442748
0.0439945
0.0436613
0.0432694
0.0428094
0.0422797
0.0416675
0.0409768
0.0401874
0.0393078
0.0383209
0.0372294
0.0360427
0.0348636
0.0328224
0.042133
0.042133
0.042133
0.042133
0.042133
0.042133
0.042133
0.042133
0.042133
0.042133
0.042133
0.042133
0.042133
0.042133
0.042133
0.042133
0.042133
0.042133
0.042133
0.042133
0.042133
0.042133
0.042133
0.0421331
0.042134
0.0421576
0.0423326
0.0427378
0.043081
0.043212
0.043209
0.0431462
0.0430113
0.0428891
0.0427819
0.042678
0.04259
0.0425393
0.0425309
0.0425697
0.0426534
0.0426987
0.0427046
0.042701
0.0426997
0.042716
0.0427467
0.0427682
0.04278
0.04279
0.0428034
0.0428215
0.0428425
0.0428661
0.0428939
0.0429267
0.0429637
0.0430038
0.0430459
0.0430893
0.0431339
0.0431797
0.0432274
0.0432778
0.0433309
0.0433864
0.0434437
0.0435027
0.0435638
0.0436273
0.0436932
0.0437612
0.0438311
0.0439023
0.0439749
0.0440485
0.0441235
0.0441998
0.0442774
0.0443563
0.0444361
0.0445167
0.0445977
0.044679
0.0447601
0.0448409
0.0449209
0.0449997
0.0450768
0.0451517
0.0452238
0.0452924
0.045357
0.0454167
0.0454707
0.0455179
0.0455567
0.0455858
0.0456039
0.0456102
0.0456007
0.0455725
0.0455243
0.0454506
0.0453501
0.0452143
0.0450432
0.0448276
0.0445664
0.0442504
0.0438715
0.0434251
0.0428985
0.042293
0.0415915
0.0407938
0.0398661
0.0388235
0.0376551
0.0363795
0.0343011
0.042133
0.042133
0.042133
0.042133
0.042133
0.042133
0.042133
0.042133
0.042133
0.042133
0.042133
0.042133
0.042133
0.042133
0.042133
0.042133
0.042133
0.042133
0.042133
0.042133
0.042133
0.042133
0.042133
0.042133
0.0421334
0.0421447
0.0422649
0.0426367
0.0430364
0.0432112
0.0432278
0.0431894
0.0430639
0.042937
0.0428265
0.0427217
0.04263
0.042575
0.042563
0.0425975
0.04269
0.04275
0.0427611
0.0427577
0.0427556
0.0427711
0.042805
0.042831
0.0428454
0.0428562
0.0428699
0.0428888
0.0429111
0.0429362
0.0429656
0.0430002
0.0430392
0.0430815
0.0431259
0.0431717
0.0432185
0.0432665
0.0433161
0.0433684
0.0434236
0.0434813
0.0435409
0.0436024
0.0436661
0.0437323
0.043801
0.0438721
0.0439453
0.0440202
0.0440965
0.0441742
0.0442534
0.0443342
0.0444167
0.0445006
0.044586
0.0446725
0.0447599
0.044848
0.0449366
0.0450253
0.0451139
0.0452021
0.0452894
0.0453754
0.0454596
0.0455414
0.0456203
0.0456957
0.0457668
0.0458328
0.0458926
0.0459452
0.0459885
0.0460212
0.0460419
0.0460493
0.0460396
0.0460079
0.0459534
0.045869
0.0457557
0.0456034
0.045411
0.0451666
0.0448646
0.0444975
0.0440543
0.043533
0.042918
0.0422034
0.0413684
0.0404371
0.039337
0.0381786
0.0362949
0.042133
0.042133
0.042133
0.042133
0.042133
0.042133
0.042133
0.042133
0.042133
0.042133
0.042133
0.042133
0.042133
0.042133
0.042133
0.042133
0.042133
0.042133
0.042133
0.042133
0.042133
0.042133
0.042133
0.042133
0.0421332
0.0421385
0.0422178
0.0425437
0.0429798
0.0432036
0.0432484
0.0432261
0.0431103
0.042978
0.0428651
0.042761
0.0426681
0.0426116
0.0425967
0.042627
0.0427256
0.0427988
0.042815
0.0428112
0.0428085
0.0428234
0.0428603
0.0428907
0.0429078
0.0429196
0.0429338
0.0429536
0.0429774
0.0430041
0.0430352
0.0430716
0.0431126
0.0431571
0.0432037
0.0432517
0.0433007
0.0433507
0.0434023
0.0434563
0.0435133
0.0435731
0.043635
0.0436988
0.0437648
0.0438334
0.0439047
0.0439786
0.0440548
0.0441329
0.0442126
0.044294
0.044377
0.0444618
0.0445485
0.044637
0.0447273
0.044819
0.0449121
0.0450063
0.0451015
0.0451973
0.0452936
0.0453901
0.0454865
0.0455824
0.0456773
0.0457709
0.0458626
0.045952
0.0460385
0.0461212
0.0461995
0.0462723
0.0463384
0.0463967
0.0464449
0.0464813
0.0465044
0.0465125
0.0465014
0.0464653
0.0464045
0.0463084
0.046177
0.0459973
0.0457667
0.0454742
0.0451105
0.0446714
0.0441426
0.0435127
0.0427622
0.041877
0.0408243
0.039644
0.0379242
0.042133
0.042133
0.042133
0.042133
0.042133
0.042133
0.042133
0.042133
0.042133
0.042133
0.042133
0.042133
0.042133
0.042133
0.042133
0.042133
0.042133
0.042133
0.042133
0.042133
0.042133
0.042133
0.042133
0.042133
0.0421331
0.0421357
0.0421874
0.0424647
0.0429195
0.0431928
0.0432681
0.0432525
0.0431486
0.0430128
0.0428996
0.0427978
0.0427056
0.0426476
0.0426299
0.0426559
0.0427584
0.0428429
0.0428642
0.0428605
0.042858
0.042873
0.0429126
0.0429473
0.0429673
0.0429803
0.0429953
0.0430161
0.0430414
0.0430698
0.0431024
0.0431404
0.0431833
0.0432298
0.0432786
0.0433287
0.0433798
0.0434318
0.0434852
0.043541
0.0435997
0.0436613
0.0437253
0.0437912
0.0438594
0.0439302
0.0440038
0.0440803
0.0441592
0.0442402
0.044323
0.0444076
0.044494
0.0445825
0.044673
0.0447657
0.0448603
0.0449568
0.0450549
0.0451545
0.0452556
0.0453578
0.0454609
0.0455647
0.0456691
0.0457736
0.0458781
0.0459819
0.0460848
0.0461864
0.0462863
0.0463838
0.0464783
0.046569
0.0466549
0.046735
0.0468078
0.0468722
0.0469254
0.0469657
0.0469913
0.0469999
0.0469866
0.0469431
0.0468699
0.0467551
0.046599
0.0463877
0.0461136
0.0457682
0.0453351
0.0448055
0.0441592
0.0433677
0.0424319
0.0412909
0.0397496
0.042133
0.042133
0.042133
0.042133
0.042133
0.042133
0.042133
0.042133
0.042133
0.042133
0.042133
0.042133
0.042133
0.042133
0.042133
0.042133
0.042133
0.042133
0.042133
0.042133
0.042133
0.042133
0.042133
0.042133
0.0421331
0.0421344
0.0421689
0.0424027
0.0428625
0.0431827
0.0432829
0.0432715
0.0431791
0.0430431
0.0429314
0.0428322
0.0427412
0.0426799
0.0426598
0.042682
0.042788
0.0428825
0.0429095
0.0429071
0.0429054
0.0429211
0.0429632
0.043002
0.0430247
0.0430391
0.0430549
0.0430767
0.0431034
0.0431329
0.0431667
0.0432061
0.0432507
0.0432992
0.04335
0.0434022
0.0434554
0.0435094
0.0435646
0.0436221
0.0436825
0.043746
0.0438118
0.0438798
0.04395
0.0440228
0.0440987
0.0441774
0.0442587
0.0443423
0.0444279
0.0445155
0.044605
0.0446966
0.0447906
0.0448869
0.0449854
0.045086
0.0451886
0.045293
0.0453991
0.0455068
0.0456159
0.0457262
0.0458375
0.0459496
0.0460622
0.046175
0.0462877
0.0463999
0.0465115
0.0466218
0.0467304
0.0468366
0.0469398
0.047039
0.0471332
0.0472212
0.0473013
0.0473724
0.047431
0.0474751
0.0475027
0.0475108
0.0474932
0.0474417
0.0473561
0.047221
0.0470322
0.0467777
0.0464424
0.0460173
0.0454695
0.0447711
0.04392
0.0428532
0.0414276
0.042133
0.042133
0.042133
0.042133
0.042133
0.042133
0.042133
0.042133
0.042133
0.042133
0.042133
0.042133
0.042133
0.042133
0.042133
0.042133
0.042133
0.042133
0.042133
0.042133
0.042133
0.042133
0.042133
0.042133
0.0421331
0.0421339
0.0421581
0.0423578
0.0428145
0.0431744
0.0432936
0.0432855
0.0432037
0.0430701
0.0429605
0.0428628
0.042772
0.0427068
0.0426848
0.0427052
0.0428165
0.0429202
0.0429531
0.0429527
0.0429521
0.0429691
0.0430137
0.043056
0.0430808
0.0430963
0.0431128
0.0431353
0.0431628
0.0431932
0.0432277
0.0432682
0.0433144
0.0433647
0.0434175
0.0434718
0.043527
0.043583
0.0436401
0.0436993
0.0437615
0.0438267
0.0438944
0.0439643
0.0440364
0.0441112
0.044189
0.0442698
0.0443533
0.0444393
0.0445273
0.0446175
0.0447097
0.0448042
0.0449012
0.0450007
0.0451026
0.0452069
0.0453133
0.0454219
0.0455326
0.0456451
0.0457594
0.0458752
0.0459925
0.0461112
0.046231
0.0463515
0.0464726
0.046594
0.0467156
0.046837
0.0469576
0.0470772
0.0471951
0.0473107
0.0474232
0.0475316
0.0476348
0.0477314
0.0478195
0.0478977
0.047962
0.0480105
0.0480402
0.0480473
0.0480231
0.0479576
0.0478462
0.0476756
0.0474328
0.047107
0.0466584
0.0460659
0.0453064
0.0443304
0.0430284
0.042133
0.042133
0.042133
0.042133
0.042133
0.042133
0.042133
0.042133
0.042133
0.042133
0.042133
0.042133
0.042133
0.042133
0.042133
0.042133
0.042133
0.042133
0.042133
0.042133
0.042133
0.042133
0.042133
0.042133
0.042133
0.0421336
0.0421524
0.0423287
0.0427794
0.0431691
0.0433013
0.0432969
0.0432237
0.0430932
0.0429857
0.0428879
0.0427958
0.0427282
0.0427056
0.0427277
0.0428468
0.0429581
0.042996
0.0429981
0.0429986
0.0430171
0.0430641
0.043109
0.0431352
0.0431511
0.0431679
0.043191
0.0432191
0.0432499
0.043285
0.0433266
0.0433742
0.0434263
0.0434812
0.0435376
0.0435948
0.0436527
0.0437117
0.0437727
0.0438366
0.0439035
0.0439731
0.0440448
0.0441187
0.0441953
0.044275
0.0443577
0.0444432
0.0445313
0.0446216
0.044714
0.0448087
0.0449057
0.0450054
0.0451077
0.0452126
0.0453201
0.04543
0.0455422
0.0456567
0.0457734
0.0458922
0.0460129
0.0461354
0.0462597
0.0463856
0.0465127
0.046641
0.0467703
0.0469004
0.0470311
0.0471621
0.047293
0.0474234
0.0475529
0.0476809
0.0478067
0.0479294
0.0480478
0.0481608
0.0482671
0.0483641
0.0484506
0.0485209
0.0485731
0.0486034
0.0486075
0.0485704
0.0484875
0.0483453
0.0481363
0.0478163
0.0473591
0.0466976
0.0458105
0.0445966
0.042133
0.042133
0.042133
0.042133
0.042133
0.042133
0.042133
0.042133
0.042133
0.042133
0.042133
0.042133
0.042133
0.042133
0.042133
0.042133
0.042133
0.042133
0.042133
0.042133
0.042133
0.042133
0.042133
0.042133
0.042133
0.0421335
0.0421501
0.042314
0.0427606
0.0431688
0.0433087
0.0433081
0.0432392
0.0431114
0.043005
0.0429059
0.0428129
0.0427455
0.0427241
0.0427519
0.0428808
0.0429968
0.0430376
0.0430421
0.0430438
0.043064
0.0431136
0.0431598
0.0431862
0.0432022
0.0432193
0.043243
0.0432716
0.043303
0.0433389
0.0433815
0.0434307
0.0434846
0.0435414
0.0435997
0.0436588
0.0437186
0.0437795
0.0438422
0.0439078
0.0439765
0.0440478
0.0441212
0.0441969
0.0442752
0.0443566
0.0444411
0.0445284
0.0446184
0.0447107
0.0448052
0.044902
0.0450013
0.0451033
0.0452082
0.0453158
0.045426
0.0455389
0.0456543
0.0457722
0.0458925
0.0460152
0.0461401