/*--------------------------------*- C++ -*----------------------------------*\
| =========                 |                                                 |
| \\      /  F ield         | OpenFOAM: The Open Source CFD Toolbox           |
|  \\    /   O peration     | Version:  2406                                  |
|   \\  /    A nd           | Website:  www.openfoam.com                      |
|    \\/     M anipulation  |                                                 |
\*---------------------------------------------------------------------------*/
FoamFile
{
    version     2.0;
    format      ascii;
    arch        "LSB;label=32;scalar=64";
    class       volScalarField;
    location    "0.02";
    object      T;
}
// * * * * * * * * * * * * * * * * * * * * * * * * * * * * * * * * * * * * * //

dimensions      [0 0 0 1 0 0 0];

internalField   nonuniform List<scalar> 
78650
(
223
223
223
223.006
223.088
223.469
224.102
224.554
224.647
224.64
224.424
224.06
223.718
223.415
223.132
222.854
222.593
222.395
222.291
222.263
222.257
222.245
222.197
222.097
221.978
221.876
221.792
221.718
221.65
221.59
221.536
221.487
221.443
221.404
221.37
221.34
221.311
221.282
221.251
221.218
221.186
221.155
221.127
221.1
221.07
221.037
221.003
220.966
220.928
220.887
220.841
220.789
220.73
220.664
220.591
220.51
220.419
220.317
220.202
220.072
219.925
219.76
219.574
219.367
219.137
218.882
218.6
218.289
217.945
217.568
217.156
216.707
216.217
215.68
215.094
214.459
213.773
213.035
212.245
211.398
210.495
209.534
208.512
207.433
206.296
205.099
203.853
202.556
201.23
199.854
198.469
197.056
195.633
194.196
192.75
191.301
189.909
188.521
187.185
185.856
184.524
183.271
182.097
181.001
180.008
179.034
178.12
177.238
176.423
175.635
174.882
174.165
173.487
172.856
172.265
171.733
171.283
170.916
170.674
170.528
169.918
223
223
223
223.003
223.056
223.366
223.992
224.516
224.664
224.691
224.529
224.178
223.819
223.509
223.228
222.955
222.696
222.494
222.38
222.349
222.344
222.337
222.302
222.213
222.097
221.995
221.914
221.844
221.782
221.727
221.678
221.635
221.596
221.562
221.533
221.507
221.483
221.458
221.433
221.406
221.38
221.356
221.335
221.316
221.295
221.271
221.246
221.219
221.192
221.162
221.129
221.091
221.047
220.997
220.94
220.875
220.803
220.721
220.628
220.521
220.399
220.261
220.104
219.928
219.731
219.511
219.267
218.995
218.696
218.366
218.003
217.604
217.165
216.682
216.157
215.588
214.972
214.307
213.592
212.821
211.996
211.115
210.174
209.179
208.125
207.02
205.865
204.653
203.39
202.07
200.72
199.347
197.955
196.549
195.148
193.723
192.335
190.932
189.535
188.174
186.807
185.478
184.207
182.935
181.71
180.531
179.458
178.495
177.61
176.751
175.908
175.111
174.389
173.739
173.169
172.654
172.2
171.837
171.559
171.363
170.673
223
223
223
223.001
223.034
223.272
223.867
224.458
224.676
224.738
224.624
224.293
223.921
223.605
223.328
223.061
222.803
222.597
222.472
222.436
222.431
222.428
222.404
222.327
222.218
222.117
222.038
221.974
221.917
221.868
221.825
221.786
221.752
221.723
221.698
221.677
221.657
221.637
221.617
221.596
221.576
221.559
221.546
221.534
221.522
221.507
221.491
221.475
221.458
221.44
221.42
221.395
221.365
221.33
221.289
221.241
221.187
221.124
221.051
220.967
220.869
220.756
220.626
220.479
220.313
220.126
219.917
219.683
219.423
219.135
218.816
218.463
218.076
217.651
217.188
216.682
216.13
215.528
214.877
214.172
213.415
212.602
211.732
210.807
209.823
208.787
207.694
206.549
205.343
204.075
202.749
201.392
200.007
198.588
197.166
195.719
194.281
192.898
191.49
190.124
188.742
187.417
186.173
184.911
183.698
182.483
181.334
180.232
179.176
178.132
177.12
176.147
175.241
174.419
173.668
173.024
172.485
172.067
171.767
171.611
170.809
223
223
223
223.001
223.019
223.191
223.728
224.377
224.682
224.782
224.706
224.408
224.031
223.71
223.435
223.173
222.918
222.706
222.568
222.525
222.518
222.517
222.504
222.442
222.342
222.244
222.168
222.108
222.057
222.013
221.975
221.941
221.911
221.887
221.866
221.849
221.833
221.818
221.803
221.788
221.775
221.764
221.757
221.753
221.749
221.744
221.737
221.731
221.724
221.717
221.709
221.697
221.681
221.66
221.634
221.602
221.565
221.521
221.468
221.404
221.329
221.241
221.138
221.019
220.883
220.728
220.553
220.357
220.136
219.89
219.616
219.312
218.977
218.607
218.198
217.748
217.253
216.712
216.125
215.491
214.808
214.074
213.285
212.443
211.544
210.592
209.582
208.526
207.415
206.247
205.023
203.732
202.403
201.027
199.626
198.2
196.74
195.295
193.815
192.331
190.9
189.438
188.051
186.683
185.4
184.211
183.091
182.008
180.966
179.966
179.035
178.136
177.261
176.362
175.493
174.67
173.928
173.303
172.844
172.51
171.512
223
223
223
223
223.01
223.124
223.583
224.268
224.676
224.819
224.769
224.523
224.149
223.822
223.547
223.29
223.038
222.82
222.669
222.614
222.604
222.604
222.603
222.558
222.47
222.377
222.305
222.249
222.203
222.164
222.13
222.1
222.076
222.055
222.038
222.025
222.014
222.003
221.993
221.984
221.977
221.973
221.974
221.977
221.981
221.985
221.987
221.99
221.994
221.998
222.002
222.003
222
221.993
221.982
221.966
221.945
221.918
221.884
221.841
221.788
221.723
221.645
221.553
221.445
221.321
221.179
221.016
220.832
220.625
220.393
220.133
219.844
219.523
219.167
218.773
218.34
217.868
217.355
216.796
216.191
215.535
214.824
214.058
213.233
212.351
211.411
210.421
209.369
208.268
207.108
205.89
204.628
203.328
202
200.636
199.259
197.855
196.459
195.012
193.606
192.128
190.654
189.177
187.728
186.357
184.988
183.647
182.354
181.156
180.075
179.126
178.242
177.396
176.624
175.911
175.285
174.761
174.352
174.042
173.124
223
223
223
223
223.004
223.074
223.439
224.127
224.648
224.847
224.82
224.639
224.279
223.943
223.667
223.414
223.166
222.94
222.773
222.704
222.691
222.695
222.704
222.675
222.602
222.517
222.448
222.397
222.355
222.32
222.29
222.265
222.244
222.227
222.214
222.204
222.197
222.192
222.187
222.184
222.183
222.185
222.193
222.203
222.216
222.228
222.24
222.252
222.266
222.28
222.295
222.308
222.318
222.325
222.328
222.327
222.322
222.312
222.296
222.273
222.241
222.198
222.144
222.078
221.998
221.903
221.793
221.664
221.516
221.348
221.157
220.941
220.699
220.427
220.124
219.788
219.416
219.006
218.554
218.057
217.513
216.919
216.274
215.577
214.826
214.021
213.161
212.247
211.272
210.247
209.157
208.011
206.806
205.542
204.231
202.865
201.475
200.062
198.655
197.252
195.856
194.447
193.03
191.661
190.293
188.969
187.628
186.293
185.011
183.712
182.454
181.193
179.971
178.797
177.69
176.735
175.947
175.32
174.846
174.542
173.325
223
223
223
223
223.002
223.04
223.307
223.958
224.583
224.859
224.864
224.751
224.416
224.073
223.794
223.545
223.297
223.062
222.879
222.794
222.777
222.788
222.808
222.792
222.737
222.661
222.596
222.55
222.512
222.481
222.455
222.433
222.416
222.402
222.393
222.388
222.385
222.384
222.384
222.387
222.393
222.403
222.416
222.434
222.455
222.476
222.496
222.518
222.541
222.567
222.593
222.618
222.641
222.66
222.677
222.69
222.701
222.707
222.709
222.704
222.692
222.672
222.641
222.599
222.545
222.478
222.396
222.299
222.185
222.052
221.899
221.724
221.524
221.299
221.046
220.762
220.444
220.091
219.7
219.268
218.795
218.278
217.717
217.11
216.452
215.742
214.975
214.152
213.271
212.338
211.343
210.297
209.187
208.021
206.8
205.519
204.182
202.791
201.353
199.905
198.43
196.951
195.448
193.983
192.491
191.025
189.622
188.266
187.016
185.795
184.629
183.483
182.384
181.297
180.241
179.212
178.271
177.419
176.736
176.176
174.651
223
223
223
223
223.001
223.019
223.197
223.77
224.472
224.857
224.909
224.847
224.556
224.215
223.932
223.681
223.43
223.185
222.989
222.888
222.866
222.883
222.916
222.913
222.875
222.81
222.75
222.707
222.674
222.647
222.623
222.604
222.59
222.58
222.575
222.573
222.574
222.578
222.585
222.594
222.606
222.622
222.643
222.668
222.696
222.726
222.755
222.786
222.819
222.854
222.891
222.927
222.962
222.995
223.024
223.052
223.077
223.099
223.117
223.13
223.137
223.137
223.128
223.11
223.082
223.041
222.988
222.922
222.841
222.743
222.627
222.492
222.335
222.155
221.95
221.717
221.453
221.158
220.828
220.462
220.058
219.613
219.124
218.59
218.004
217.365
216.672
215.925
215.123
214.271
213.359
212.394
211.361
210.277
209.137
207.953
206.72
205.429
204.1
202.735
201.354
199.927
198.474
196.998
195.477
193.934
192.438
190.925
189.453
187.984
186.528
185.137
183.814
182.626
181.57
180.621
179.784
179.036
178.43
178.008
176.819
223
223
223
223
223
223.008
223.113
223.577
224.32
224.829
224.948
224.923
224.701
224.368
224.075
223.814
223.558
223.31
223.103
222.986
222.959
222.978
223.028
223.039
223.016
222.963
222.907
222.869
222.84
222.815
222.794
222.778
222.766
222.76
222.759
222.761
222.767
222.776
222.788
222.803
222.823
222.846
222.874
222.906
222.941
222.979
223.017
223.057
223.099
223.144
223.191
223.239
223.286
223.331
223.373
223.414
223.453
223.49
223.524
223.555
223.58
223.599
223.611
223.615
223.611
223.596
223.57
223.532
223.481
223.415
223.334
223.235
223.118
222.979
222.819
222.633
222.421
222.181
221.909
221.604
221.264
220.884
220.465
220.001
219.491
218.932
218.324
217.665
216.953
216.187
215.361
214.477
213.523
212.518
211.452
210.337
209.159
207.923
206.637
205.298
203.931
202.538
201.139
199.715
198.302
196.867
195.474
194.026
192.589
191.16
189.728
188.324
186.889
185.435
184.043
182.734
181.546
180.468
179.522
178.801
177.013
223
223
223
223
223
223.003
223.058
223.398
224.125
224.76
224.965
224.991
224.844
224.528
224.216
223.943
223.688
223.44
223.226
223.091
223.056
223.075
223.14
223.169
223.159
223.119
223.069
223.033
223.006
222.984
222.965
222.952
222.944
222.942
222.944
222.951
222.961
222.975
222.993
223.015
223.041
223.072
223.106
223.145
223.188
223.233
223.28
223.329
223.379
223.434
223.491
223.549
223.607
223.664
223.719
223.772
223.825
223.876
223.925
223.971
224.014
224.052
224.084
224.109
224.126
224.136
224.137
224.126
224.105
224.071
224.023
223.961
223.881
223.784
223.667
223.527
223.365
223.176
222.958
222.711
222.432
222.117
221.766
221.375
220.942
220.466
219.945
219.376
218.756
218.083
217.351
216.563
215.714
214.814
213.852
212.837
211.754
210.611
209.404
208.137
206.815
205.455
204.039
202.578
201.107
199.58
198.063
196.54
195.012
193.543
192.098
190.738
189.429
188.118
186.871
185.634
184.523
183.519
182.615
181.819
179.874
223
223
223
223
223
223.001
223.026
223.247
223.901
224.641
224.961
225.055
224.972
224.683
224.353
224.072
223.821
223.577
223.355
223.203
223.157
223.173
223.25
223.3
223.303
223.277
223.231
223.196
223.17
223.151
223.136
223.126
223.122
223.123
223.131
223.142
223.157
223.176
223.2
223.229
223.262
223.3
223.341
223.386
223.436
223.489
223.545
223.601
223.661
223.724
223.791
223.86
223.929
223.997
224.064
224.129
224.194
224.259
224.322
224.384
224.443
224.499
224.55
224.595
224.634
224.666
224.69
224.705
224.711
224.707
224.69
224.66
224.616
224.556
224.478
224.382
224.264
224.124
223.96
223.769
223.549
223.298
223.013
222.693
222.335
221.937
221.496
221.008
220.47
219.88
219.235
218.54
217.79
216.986
216.12
215.198
214.211
213.169
212.061
210.901
209.693
208.44
207.15
205.806
204.434
202.992
201.507
200.029
198.496
196.973
195.371
193.781
192.242
190.68
189.161
187.683
186.354
185.246
184.379
183.726
181.964
223
223
223
223
223
223
223.01
223.137
223.667
224.469
224.946
225.11
225.062
224.831
224.498
224.211
223.96
223.717
223.489
223.325
223.265
223.275
223.356
223.432
223.449
223.433
223.39
223.354
223.331
223.316
223.306
223.3
223.299
223.305
223.316
223.332
223.353
223.378
223.408
223.444
223.484
223.528
223.576
223.627
223.683
223.744
223.807
223.872
223.94
224.012
224.088
224.166
224.245
224.324
224.402
224.479
224.556
224.633
224.71
224.787
224.861
224.933
225.002
225.066
225.125
225.179
225.226
225.266
225.297
225.32
225.333
225.336
225.326
225.302
225.264
225.208
225.135
225.041
224.926
224.787
224.622
224.429
224.207
223.952
223.663
223.337
222.97
222.56
222.105
221.603
221.053
220.455
219.802
219.093
218.319
217.487
216.592
215.642
214.626
213.554
212.421
211.235
209.991
208.694
207.345
205.95
204.502
203.063
201.604
200.139
198.622
197.076
195.6
194.086
192.61
191.1
189.617
188.212
186.963
185.926
183.592
223
223
223
223
223
223
223.003
223.066
223.451
224.248
224.893
225.136
225.125
224.972
224.653
224.354
224.098
223.858
223.628
223.454
223.376
223.378
223.454
223.556
223.59
223.58
223.543
223.509
223.489
223.478
223.472
223.471
223.475
223.485
223.501
223.523
223.549
223.58
223.617
223.659
223.705
223.756
223.81
223.867
223.93
223.997
224.068
224.142
224.218
224.298
224.382
224.469
224.558
224.647
224.736
224.825
224.913
225.002
225.092
225.182
225.271
225.359
225.444
225.526
225.604
225.678
225.746
225.809
225.865
225.913
225.953
225.984
226.004
226.013
226.012
225.993
225.96
225.909
225.84
225.75
225.637
225.501
225.339
225.147
224.925
224.67
224.377
224.047
223.676
223.264
222.808
222.303
221.746
221.132
220.459
219.733
218.952
218.119
217.221
216.262
215.234
214.147
212.996
211.79
210.528
209.211
207.85
206.428
204.983
203.483
202.002
200.42
198.868
197.339
195.865
194.395
193.003
191.66
190.477
189.517
187.316
223
223
223
223
223
223
223.001
223.028
223.276
223.996
224.775
225.137
225.182
225.101
224.807
224.495
224.234
224
223.774
223.589
223.489
223.476
223.541
223.667
223.723
223.721
223.692
223.661
223.644
223.638
223.637
223.641
223.649
223.664
223.686
223.713
223.745
223.782
223.824
223.872
223.925
223.982
224.042
224.105
224.173
224.247
224.326
224.407
224.491
224.578
224.67
224.766
224.864
224.963
225.062
225.16
225.259
225.36
225.461
225.564
225.666
225.769
225.87
225.968
226.064
226.157
226.245
226.329
226.408
226.48
226.546
226.605
226.655
226.695
226.724
226.742
226.748
226.738
226.713
226.669
226.605
226.521
226.414
226.281
226.12
225.931
225.709
225.454
225.163
224.833
224.461
224.042
223.573
223.053
222.482
221.863
221.191
220.463
219.669
218.812
217.886
216.903
215.859
214.758
213.595
212.38
211.112
209.785
208.396
206.961
205.511
203.99
202.414
200.821
199.201
197.647
196.115
194.657
193.277
192.106
189.495
223
223
223
223
223
223
223
223.01
223.151
223.74
224.598
225.112
225.239
225.196
224.95
224.636
224.374
224.145
223.921
223.719
223.595
223.567
223.62
223.764
223.851
223.86
223.839
223.812
223.798
223.795
223.8
223.81
223.823
223.843
223.87
223.902
223.939
223.982
224.03
224.084
224.142
224.205
224.27
224.339
224.413
224.493
224.579
224.668
224.759
224.854
224.953
225.057
225.163
225.271
225.379
225.488
225.597
225.708
225.82
225.935
226.05
226.166
226.281
226.396
226.508
226.618
226.725
226.829
226.928
227.023
227.113
227.196
227.272
227.341
227.401
227.451
227.49
227.517
227.53
227.531
227.512
227.477
227.421
227.343
227.242
227.115
226.96
226.775
226.557
226.302
226.01
225.676
225.297
224.877
224.411
223.896
223.324
222.697
222.008
221.261
220.449
219.582
218.653
217.667
216.616
215.511
214.341
213.108
211.807
210.456
209.072
207.666
206.191
204.682
203.091
201.554
199.992
198.508
197.093
195.796
192.985
223
223
223
223
223
223
223
223.003
223.074
223.508
224.375
225.056
225.268
225.26
225.087
224.785
224.518
224.285
224.054
223.839
223.698
223.656
223.696
223.852
223.974
223.998
223.984
223.962
223.95
223.951
223.963
223.978
223.996
224.021
224.052
224.089
224.132
224.18
224.233
224.292
224.355
224.423
224.494
224.568
224.648
224.734
224.826
224.922
225.021
225.122
225.228
225.339
225.452
225.568
225.685
225.803
225.922
226.042
226.165
226.29
226.417
226.546
226.674
226.803
226.931
227.057
227.181
227.302
227.421
227.537
227.648
227.755
227.856
227.951
228.04
228.12
228.192
228.253
228.303
228.34
228.364
228.373
228.366
228.339
228.293
228.223
228.129
228.008
227.859
227.678
227.465
227.215
226.929
226.604
226.233
225.813
225.339
224.814
224.235
223.604
222.912
222.165
221.356
220.488
219.552
218.549
217.476
216.347
215.157
213.907
212.597
211.238
209.841
208.369
206.851
205.261
203.758
202.295
200.966
199.802
197.39
223
223
223
223
223
223
223
223.001
223.032
223.321
224.128
224.953
225.266
225.318
225.215
224.936
224.651
224.407
224.175
223.954
223.803
223.748
223.774
223.932
224.09
224.133
224.125
224.11
224.101
224.105
224.124
224.144
224.167
224.197
224.233
224.275
224.322
224.374
224.432
224.495
224.563
224.635
224.711
224.791
224.876
224.968
225.066
225.169
225.274
225.382
225.494
225.611
225.732
225.856
225.981
226.107
226.234
226.364
226.496
226.631
226.769
226.909
227.05
227.192
227.334
227.475
227.615
227.753
227.89
228.024
228.155
228.283
228.407
228.526
228.639
228.747
228.847
228.94
229.023
229.096
229.157
229.206
229.241
229.26
229.265
229.248
229.212
229.152
229.066
228.955
228.814
228.642
228.437
228.193
227.907
227.575
227.198
226.775
226.305
225.787
225.213
224.58
223.884
223.129
222.307
221.421
220.471
219.469
218.404
217.272
216.059
214.795
213.482
212.124
210.699
209.194
207.665
206.093
204.595
203.204
200.513
223
223
223
223
223
223
223
223
223.013
223.189
223.88
224.803
225.246
225.382
225.323
225.067
224.768
224.518
224.29
224.071
223.91
223.84
223.853
224.003
224.194
224.264
224.265
224.257
224.25
224.258
224.282
224.309
224.337
224.372
224.413
224.459
224.509
224.565
224.626
224.692
224.764
224.841
224.922
225.007
225.097
225.194
225.298
225.407
225.519
225.633
225.75
225.873
226
226.131
226.263
226.397
226.532
226.67
226.811
226.956
227.103
227.254
227.406
227.56
227.714
227.869
228.023
228.176
228.329
228.48
228.629
228.776
228.921
229.061
229.198
229.33
229.457
229.578
229.691
229.796
229.892
229.978
230.053
230.114
230.161
230.193
230.208
230.207
230.178
230.132
230.057
229.956
229.824
229.659
229.458
229.221
228.945
228.628
228.266
227.857
227.393
226.872
226.29
225.653
224.957
224.203
223.386
222.507
221.562
220.553
219.473
218.335
217.136
215.901
214.611
213.273
211.891
210.486
209.075
207.858
205.511
223
223
223
223
223
223
223
223
223.005
223.104
223.657
224.62
225.221
225.43
225.393
225.18
224.877
224.626
224.403
224.185
224.013
223.926
223.927
224.067
224.289
224.391
224.406
224.403
224.398
224.409
224.439
224.471
224.504
224.543
224.587
224.636
224.689
224.748
224.812
224.882
224.958
225.039
225.125
225.215
225.311
225.413
225.522
225.636
225.753
225.872
225.995
226.123
226.256
226.392
226.532
226.673
226.816
226.961
227.11
227.263
227.42
227.58
227.743
227.907
228.073
228.24
228.407
228.575
228.742
228.908
229.074
229.238
229.4
229.561
229.718
229.872
230.023
230.168
230.308
230.442
230.569
230.687
230.797
230.896
230.984
231.06
231.12
231.165
231.192
231.202
231.19
231.153
231.092
231.001
230.882
230.73
230.544
230.317
230.047
229.731
229.365
228.95
228.48
227.959
227.381
226.747
226.048
225.284
224.455
223.564
222.608
221.582
220.483
219.33
218.109
216.846
215.518
214.16
212.776
211.392
209.09
223
223
223
223
223
223
223
223
223.002
223.056
223.474
224.424
225.18
225.456
225.441
225.279
224.983
224.732
224.51
224.289
224.105
224.004
223.995
224.13
224.381
224.516
224.546
224.548
224.543
224.556
224.59
224.626
224.663
224.705
224.752
224.804
224.861
224.922
224.989
225.063
225.143
225.229
225.32
225.415
225.515
225.622
225.735
225.855
225.977
226.101
226.228
226.36
226.498
226.64
226.786
226.934
227.084
227.237
227.393
227.554
227.718
227.887
228.059
228.233
228.41
228.587
228.766
228.946
229.126
229.306
229.486
229.665
229.844
230.021
230.197
230.371
230.542
230.71
230.874
231.033
231.187
231.335
231.476
231.608
231.732
231.846
231.949
232.038
232.114
232.173
232.214
232.237
232.242
232.218
232.173
232.097
231.988
231.846
231.665
231.445
231.185
230.883
230.533
230.134
229.679
229.171
228.6
227.97
227.277
226.522
225.707
224.822
223.869
222.851
221.765
220.64
219.454
218.269
216.997
215.743
213.688
223
223
223
223
223
223
223
223
223.001
223.03
223.338
224.236
225.115
225.468
225.482
225.367
225.084
224.828
224.601
224.376
224.184
224.077
224.064
224.196
224.472
224.639
224.684
224.687
224.681
224.694
224.73
224.77
224.811
224.856
224.907
224.962
225.023
225.088
225.159
225.237
225.321
225.411
225.506
225.606
225.711
225.821
225.938
226.061
226.188
226.316
226.448
226.584
226.727
226.874
227.026
227.18
227.336
227.496
227.659
227.826
227.999
228.175
228.355
228.538
228.724
228.912
229.101
229.291
229.482
229.675
229.868
230.061
230.254
230.446
230.638
230.829
231.019
231.206
231.391
231.572
231.75
231.923
232.091
232.253
232.409
232.556
232.695
232.823
232.941
233.045
233.136
233.21
233.268
233.305
233.323
233.32
233.283
233.224
233.131
233.006
232.846
232.647
232.403
232.111
231.768
231.371
230.918
230.409
229.837
229.203
228.505
227.741
226.912
226.012
225.051
224.031
222.958
221.854
220.687
219.459
217.645
223
223
223
223
223
223
223
223
223
223.017
223.244
224.072
225.037
225.469
225.522
225.443
225.173
224.908
224.674
224.448
224.253
224.148
224.134
224.267
224.566
224.759
224.814
224.817
224.808
224.819
224.858
224.902
224.947
224.997
225.053
225.113
225.178
225.247
225.322
225.404
225.492
225.586
225.685
225.788
225.896
226.01
226.13
226.256
226.386
226.519
226.654
226.795
226.942
227.094
227.251
227.411
227.573
227.739
227.908
228.082
228.261
228.444
228.632
228.823
229.016
229.213
229.411
229.611
229.812
230.015
230.219
230.424
230.629
230.835
231.041
231.247
231.452
231.656
231.859
232.06
232.258
232.453
232.645
232.832
233.015
233.191
233.361
233.524
233.677
233.822
233.955
234.075
234.182
234.274
234.348
234.403
234.437
234.451
234.437
234.394
234.319
234.207
234.057
233.865
233.627
233.343
233.007
232.619
232.17
231.663
231.089
230.453
229.751
228.978
228.143
227.235
226.284
225.287
224.254
223.109
221.516
223
223
223
223
223
223
223
223
223
223.01
223.183
223.943
224.963
225.469
225.561
225.505
225.246
224.971
224.733
224.507
224.315
224.217
224.204
224.341
224.661
224.872
224.934
224.934
224.924
224.935
224.976
225.025
225.075
225.131
225.192
225.258
225.328
225.402
225.481
225.565
225.656
225.753
225.855
225.961
226.071
226.187
226.31
226.439
226.572
226.708
226.847
226.992
227.143
227.3
227.462
227.627
227.795
227.966
228.141
228.321
228.505
228.695
228.889
229.087
229.288
229.491
229.698
229.906
230.116
230.328
230.542
230.757
230.973
231.19
231.408
231.627
231.845
232.064
232.282
232.499
232.715
232.929
233.141
233.35
233.555
233.757
233.954
234.145
234.33
234.507
234.676
234.836
234.986
235.123
235.247
235.357
235.449
235.522
235.574
235.603
235.609
235.581
235.527
235.437
235.31
235.143
234.93
234.67
234.354
233.985
233.551
233.057
232.492
231.859
231.157
230.378
229.543
228.644
227.704
226.641
225.166
223
223
223
223
223
223
223
223
223
223.007
223.146
223.851
224.903
225.472
225.599
225.553
225.3
225.018
224.779
224.556
224.37
224.28
224.271
224.418
224.759
224.978
225.042
225.041
225.031
225.044
225.089
225.143
225.199
225.261
225.327
225.398
225.473
225.551
225.633
225.72
225.814
225.912
226.016
226.123
226.235
226.353
226.478
226.61
226.746
226.886
227.029
227.177
227.332
227.493
227.66
227.83
228.003
228.179
228.358
228.543
228.733
228.928
229.128
229.332
229.539
229.749
229.962
230.178
230.395
230.615
230.837
231.061
231.286
231.513
231.742
231.971
232.201
232.432
232.663
232.894
233.125
233.354
233.583
233.809
234.034
234.257
234.476
234.691
234.902
235.108
235.308
235.5
235.685
235.862
236.028
236.183
236.325
236.453
236.564
236.657
236.731
236.782
236.809
236.814
236.778
236.714
236.606
236.455
236.256
236.006
235.696
235.326
234.885
234.38
233.799
233.147
232.429
231.642
230.811
229.853
228.529
223
223
223
223
223
223
223
223
223
223.006
223.13
223.799
224.872
225.481
225.632
225.586
225.337
225.052
224.815
224.595
224.418
224.334
224.332
224.5
224.861
225.08
225.141
225.14
225.132
225.149
225.198
225.258
225.318
225.385
225.457
225.532
225.611
225.692
225.777
225.867
225.962
226.062
226.166
226.275
226.389
226.508
226.635
226.77
226.909
227.052
227.198
227.35
227.509
227.674
227.845
228.019
228.196
228.377
228.561
228.751
228.945
229.145
229.35
229.559
229.771
229.987
230.206
230.428
230.652
230.879
231.108
231.339
231.572
231.807
232.044
232.282
232.522
232.763
233.005
233.248
233.49
233.733
233.976
234.217
234.458
234.698
234.936
235.171
235.403
235.632
235.857
236.077
236.291
236.5
236.701
236.893
237.076
237.249
237.41
237.558
237.69
237.806
237.9
237.975
238.023
238.046
238.042
237.992
237.915
237.79
237.617
237.395
237.11
236.764
236.34
235.848
235.266
234.6
233.862
232.984
231.756
223
223
223
223
223
223
223
223
223
223.006
223.126
223.789
224.869
225.496
225.659
225.611
225.36
225.076
224.839
224.621
224.455
224.379
224.389
224.591
224.968
225.182
225.235
225.232
225.227
225.25
225.305
225.369
225.433
225.504
225.58
225.659
225.741
225.825
225.912
226.004
226.1
226.201
226.306
226.417
226.532
226.653
226.783
226.92
227.063
227.209
227.358
227.513
227.676
227.845
228.019
228.197
228.378
228.562
228.751
228.944
229.143
229.347
229.556
229.769
229.987
230.208
230.431
230.658
230.888
231.12
231.355
231.593
231.832
232.074
232.318
232.564
232.812
233.062
233.313
233.565
233.818
234.072
234.326
234.58
234.834
235.087
235.34
235.592
235.842
236.089
236.334
236.576
236.815
237.049
237.278
237.501
237.718
237.927
238.128
238.319
238.5
238.668
238.822
238.96
239.081
239.181
239.262
239.314
239.342
239.34
239.286
239.199
239.055
238.856
238.59
238.262
237.843
237.346
236.731
235.979
234.87
223
223
223
223
223
223
223
223
223
223.006
223.13
223.805
224.895
225.523
225.682
225.628
225.371
225.088
224.852
224.635
224.479
224.414
224.442
224.695
225.084
225.285
225.326
225.32
225.319
225.346
225.408
225.475
225.542
225.616
225.694
225.775
225.86
225.946
226.036
226.129
226.227
226.329
226.436
226.548
226.665
226.789
226.921
227.062
227.207
227.356
227.509
227.667
227.833
228.005
228.183
228.364
228.549
228.736
228.928
229.125
229.327
229.535
229.748
229.966
230.187
230.412
230.64
230.872
231.106
231.343
231.583
231.826
232.072
232.319
232.57
232.822
233.077
233.333
233.592
233.852
234.113
234.376
234.64
234.904
235.169
235.434
235.699
235.964
236.228
236.49
236.752
237.012
237.269
237.524
237.775
238.023
238.266
238.504
238.737
238.963
239.181
239.391
239.592
239.781
239.959
240.123
240.27
240.398
240.504
240.587
240.641
240.668
240.663
240.602
240.507
240.355
240.134
239.852
239.427
238.914
238.05
223
223
223
223
223
223
223
223
223
223.007
223.146
223.863
224.956
225.558
225.699
225.638
225.372
225.091
224.854
224.636
224.494
224.441
224.498
224.813
225.205
225.388
225.414
225.405
225.406
225.439
225.507
225.575
225.645
225.72
225.8
225.883
225.969
226.058
226.149
226.245
226.345
226.449
226.558
226.672
226.792
226.918
227.053
227.196
227.344
227.496
227.651
227.812
227.981
228.156
228.337
228.521
228.708
228.899
229.094
229.294
229.5
229.711
229.927
230.148
230.373
230.602
230.834
231.07
231.308
231.55
231.794
232.042
232.292
232.545
232.8
233.058
233.319
233.581
233.846
234.113
234.382
234.652
234.923
235.196
235.47
235.744
236.02
236.295
236.571
236.846
237.121
237.395
237.667
237.938
238.208
238.474
238.739
238.999
239.256
239.509
239.757
239.999
240.235
240.463
240.683
240.894
241.093
241.281
241.456
241.615
241.756
241.874
241.972
242.035
242.071
242.075
242.027
241.945
241.755
241.531
241.031
223
223
223
223
223
223
223
223
223
223.01
223.179
223.958
225.041
225.596
225.71
225.635
225.363
225.086
224.846
224.63
224.503
224.465
224.564
224.943
225.325
225.484
225.498
225.487
225.49
225.53
225.602
225.671
225.741
225.817
225.898
225.983
226.071
226.161
226.255
226.353
226.455
226.562
226.673
226.79
226.912
227.041
227.179
227.324
227.474
227.628
227.786
227.95
228.122
228.3
228.483
228.67
228.859
229.053
229.25
229.453
229.662
229.876
230.095
230.319
230.548
230.78
231.015
231.254
231.496
231.742
231.99
232.242
232.496
232.753
233.014
233.276
233.542
233.81
234.08
234.353
234.628
234.904
235.183
235.462
235.744
236.026
236.31
236.594
236.879
237.164
237.449
237.735
238.019
238.304
238.587
238.868
239.149
239.427
239.702
239.975
240.245
240.511
240.773
241.03
241.281
241.527
241.765
241.995
242.217
242.428
242.628
242.815
242.986
243.139
243.268
243.38
243.474
243.547
243.577
243.556
243.441
223
223
223
223
223
223
223
223
223
223.015
223.231
224.086
225.141
225.636
225.718
225.619
225.339
225.069
224.83
224.621
224.509
224.49
224.652
225.086
225.436
225.568
225.576
225.563
225.57
225.618
225.694
225.763
225.834
225.91
225.993
226.079
226.168
226.26
226.356
226.456
226.561
226.67
226.784
226.902
227.027
227.159
227.299
227.446
227.598
227.754
227.914
228.08
228.254
228.434
228.62
228.809
229.001
229.196
229.396
229.602
229.813
230.03
230.253
230.479
230.71
230.945
231.184
231.426
231.672
231.92
232.172
232.428
232.686
232.947
233.211
233.478
233.748
234.021
234.296
234.574
234.854
235.136
235.42
235.706
235.994
236.283
236.574
236.865
237.158
237.451
237.745
238.039
238.334
238.628
238.921
239.214
239.506
239.797
240.086
240.374
240.659
240.941
241.221
241.497
241.769
242.037
242.3
242.557
242.807
243.05
243.285
243.512
243.726
243.929
244.114
244.286
244.442
244.585
244.718
244.801
244.878
223
223
223
223
223
223
223
223
223.001
223.024
223.308
224.243
225.249
225.674
225.722
225.591
225.302
225.039
224.806
224.612
224.517
224.522
224.768
225.238
225.539
225.638
225.642
225.63
225.644
225.703
225.781
225.851
225.922
226
226.083
226.17
226.261
226.355
226.453
226.556
226.663
226.775
226.89
227.011
227.138
227.272
227.414
227.562
227.716
227.873
228.035
228.203
228.379
228.562
228.749
228.939
229.133
229.331
229.533
229.741
229.955
230.174
230.399
230.629
230.862
231.1
231.341
231.586
231.835
232.086
232.341
232.6
232.861
233.126
233.394
233.665
233.939
234.215
234.495
234.777
235.061
235.348
235.637
235.928
236.221
236.515
236.812
237.109
237.408
237.708
238.008
238.309
238.611
238.912
239.213
239.514
239.815
240.114
240.412
240.708
241.003
241.295
241.585
241.871
242.154
242.433
242.707
242.977
243.241
243.498
243.747
243.987
244.215
244.432
244.634
244.823
244.996
245.159
245.299
245.401
245.487
223
223
223
223
223
223
223
223
223.001
223.04
223.413
224.422
225.354
225.708
225.721
225.551
225.254
224.997
224.774
224.606
224.532
224.57
224.913
225.39
225.632
225.695
225.697
225.688
225.711
225.781
225.862
225.933
226.006
226.085
226.17
226.258
226.35
226.446
226.546
226.651
226.761