/*--------------------------------*- C++ -*----------------------------------*\
| =========                 |                                                 |
| \\      /  F ield         | OpenFOAM: The Open Source CFD Toolbox           |
|  \\    /   O peration     | Version:  2412                                  |
|   \\  /    A nd           | Website:  www.openfoam.com                      |
|    \\/     M anipulation  |                                                 |
\*---------------------------------------------------------------------------*/
FoamFile
{
    version     2.0;
    format      ascii;
    arch        "LSB;label=32;scalar=64";
    class       volScalarField;
    location    "0.119";
    object      T;
}
// * * * * * * * * * * * * * * * * * * * * * * * * * * * * * * * * * * * * * //

dimensions      [0 0 0 1 0 0 0];

internalField   nonuniform List<scalar> 
78650
(
246.696
225.373
224.067
224.093
223.972
223.884
223.793
223.72
223.639
223.541
223.427
223.305
223.187
223.082
222.992
222.917
222.857
222.812
222.778
222.751
222.724
222.693
222.652
222.6
222.538
222.468
222.393
222.316
222.238
222.163
222.09
222.022
221.957
221.897
221.841
221.788
221.739
221.692
221.648
221.606
221.567
221.53
221.497
221.465
221.437
221.411
221.387
221.366
221.346
221.329
221.313
221.299
221.287
221.277
221.268
221.261
221.254
221.249
221.244
221.239
221.234
221.227
221.22
221.21
221.196
221.179
221.158
221.131
221.097
221.056
221.006
220.946
220.874
220.788
220.687
220.567
220.427
220.264
220.078
219.863
219.618
219.338
219.02
218.659
218.251
217.793
217.279
216.706
216.069
215.364
214.583
213.724
212.776
211.746
210.61
209.391
208.062
206.63
205.08
203.427
201.678
199.858
197.974
196.077
194.171
192.252
190.327
188.339
186.474
184.669
182.771
181.024
179.506
178.202
176.986
175.788
174.732
173.881
173.3
172.935
171.423
245.947
225.297
224.157
224.164
224.032
223.932
223.836
223.76
223.68
223.585
223.472
223.35
223.23
223.121
223.027
222.948
222.886
222.839
222.804
222.776
222.751
222.723
222.687
222.64
222.582
222.516
222.444
222.37
222.294
222.221
222.149
222.081
222.018
221.959
221.905
221.854
221.807
221.763
221.722
221.683
221.647
221.613
221.583
221.555
221.531
221.509
221.489
221.472
221.458
221.445
221.434
221.426
221.419
221.415
221.412
221.411
221.411
221.412
221.414
221.417
221.42
221.423
221.424
221.424
221.422
221.416
221.407
221.394
221.374
221.349
221.316
221.274
221.222
221.158
221.08
220.986
220.874
220.742
220.589
220.411
220.205
219.969
219.698
219.389
219.036
218.638
218.187
217.684
217.12
216.495
215.798
215.026
214.167
213.223
212.174
211.043
209.8
208.472
207.04
205.503
203.867
202.164
200.384
198.534
196.608
194.619
192.682
190.661
188.642
186.796
184.938
183.106
181.266
179.496
178.01
176.785
175.803
175.031
174.438
174.012
172.353
245.241
225.119
224.249
224.229
224.089
223.98
223.878
223.798
223.718
223.626
223.516
223.394
223.271
223.158
223.061
222.98
222.915
222.866
222.829
222.802
222.778
222.753
222.721
222.679
222.626
222.565
222.496
222.424
222.351
222.279
222.21
222.143
222.081
222.023
221.97
221.921
221.877
221.835
221.797
221.761
221.728
221.698
221.671
221.647
221.626
221.608
221.593
221.581
221.571
221.563
221.557
221.554
221.553
221.554
221.557
221.563
221.569
221.577
221.587
221.597
221.609
221.62
221.631
221.64
221.648
221.654
221.657
221.657
221.652
221.641
221.625
221.6
221.567
221.524
221.468
221.399
221.313
221.21
221.088
220.943
220.774
220.578
220.35
220.088
219.786
219.442
219.052
218.612
218.116
217.561
216.939
216.248
215.477
214.627
213.683
212.66
211.53
210.314
208.982
207.547
206.015
204.364
202.609
200.771
198.89
196.888
194.869
192.899
190.876
188.938
187.009
185.119
183.334
181.497
179.628
177.896
176.469
175.406
174.805
174.648
173.194
244.63
225.001
224.309
224.284
224.143
224.029
223.919
223.832
223.751
223.663
223.557
223.437
223.312
223.196
223.095
223.012
222.945
222.894
222.856
222.828
222.805
222.782
222.754
222.718
222.67
222.614
222.549
222.48
222.41
222.34
222.272
222.207
222.146
222.089
222.038
221.991
221.949
221.91
221.874
221.841
221.812
221.785
221.761
221.741
221.724
221.71
221.699
221.691
221.685
221.682
221.682
221.684
221.688
221.695
221.704
221.715
221.728
221.743
221.759
221.777
221.796
221.816
221.836
221.855
221.873
221.889
221.904
221.916
221.924
221.928
221.927
221.919
221.904
221.881
221.846
221.8
221.74
221.665
221.572
221.46
221.327
221.169
220.984
220.768
220.517
220.228
219.896
219.518
219.089
218.605
218.061
217.453
216.771
216.012
215.163
214.228
213.186
212.058
210.815
209.487
208.048
206.5
204.854
203.087
201.271
199.332
197.32
195.351
193.301
191.175
189.163
187.107
185.19
183.422
181.665
179.931
178.266
176.745
175.642
175.018
173.099
243.957
224.876
224.339
224.324
224.193
224.073
223.956
223.863
223.782
223.697
223.596
223.479
223.354
223.234
223.129
223.043
222.974
222.922
222.883
222.855
222.832
222.812
222.788
222.756
222.714
222.663
222.603
222.538
222.47
222.403
222.337
222.273
222.214
222.159
222.109
222.063
222.023
221.987
221.954
221.924
221.898
221.874
221.854
221.837
221.824
221.814
221.807
221.803
221.803
221.804
221.809
221.816
221.825
221.838
221.853
221.87
221.889
221.911
221.934
221.959
221.986
222.014
222.042
222.07
222.098
222.125
222.151
222.175
222.196
222.214
222.227
222.235
222.238
222.233
222.22
222.196
222.16
222.11
222.045
221.964
221.863
221.741
221.594
221.42
221.215
220.975
220.697
220.378
220.012
219.596
219.125
218.594
217.995
217.324
216.573
215.743
214.814
213.801
212.678
211.463
210.126
208.686
207.141
205.476
203.686
201.819
199.857
197.807
195.768
193.565
191.473
189.336
187.166
185.124
183.162
181.463
180.006
178.796
177.668
176.777
174.359
243.222
224.82
224.367
224.363
224.239
224.113
223.988
223.889
223.806
223.724
223.631
223.52
223.396
223.273
223.164
223.074
223.004
222.95
222.911
222.882
222.86
222.841
222.821
222.794
222.758
222.712
222.658
222.597
222.532
222.467
222.404
222.343
222.285
222.231
222.182
222.139
222.101
222.067
222.037
222.01
221.987
221.967
221.95
221.937
221.927
221.921
221.918
221.919
221.923
221.929
221.938
221.95
221.965
221.983
222.004
222.027
222.052
222.08
222.11
222.143
222.177
222.212
222.249
222.286
222.324
222.361
222.397
222.433
222.466
222.497
222.525
222.548
222.567
222.579
222.585
222.582
222.569
222.545
222.507
222.454
222.385
222.297
222.188
222.055
221.895
221.705
221.48
221.218
220.914
220.564
220.162
219.707
219.19
218.608
217.951
217.213
216.381
215.463
214.441
213.325
212.087
210.752
209.299
207.732
206.038
204.235
202.353
200.322
198.297
196.148
193.967
191.848
189.594
187.422
185.168
183.022
181.146
179.647
178.69
178.178
175.903
242.398
224.82
224.385
224.385
224.27
224.144
224.016
223.91
223.826
223.749
223.663
223.559
223.438
223.313
223.199
223.105
223.032
222.978
222.938
222.91
222.888
222.871
222.853
222.831
222.801
222.761
222.713
222.656
222.596
222.534
222.473
222.414
222.358
222.306
222.259
222.218
222.181
222.15
222.122
222.099
222.079
222.062
222.049
222.039
222.033
222.031
222.032
222.037
222.046
222.057
222.071
222.088
222.108
222.131
222.157
222.186
222.218
222.252
222.289
222.328
222.369
222.413
222.458
222.504
222.55
222.597
222.644
222.69
222.736
222.779
222.82
222.859
222.893
222.923
222.946
222.963
222.971
222.971
222.958
222.933
222.893
222.837
222.762
222.667
222.548
222.402
222.225
222.015
221.767
221.479
221.145
220.762
220.323
219.824
219.254
218.61
217.883
217.076
216.169
215.168
214.053
212.843
211.508
210.062
208.496
206.799
205.029
203.088
201.026
198.959
196.721
194.556
192.311
190.095
187.969
185.809
183.747
181.746
180.091
178.998
176.202
241.495
224.831
224.407
224.409
224.304
224.178
224.042
223.926
223.838
223.764
223.688
223.594
223.479
223.355
223.237
223.138
223.061
223.006
222.966
222.937
222.916
222.901
222.886
222.868
222.843
222.81
222.767
222.716
222.66
222.602
222.544
222.487
222.434
222.384
222.339
222.299
222.265
222.235
222.211
222.19
222.173
222.16
222.15
222.144
222.142
222.144
222.149
222.158
222.171
222.187
222.206
222.228
222.253
222.281
222.313
222.348
222.385
222.426
222.469
222.515
222.563
222.614
222.667
222.721
222.777
222.833
222.89
222.946
223.003
223.059
223.113
223.165
223.214
223.26
223.301
223.337
223.365
223.385
223.396
223.398
223.386
223.361
223.32
223.26
223.181
223.078
222.949
222.79
222.598
222.37
222.1
221.785
221.419
220.998
220.515
219.965
219.339
218.635
217.835
216.944
215.946
214.85
213.628
212.297
210.838
209.259
207.532
205.692
203.682
201.661
199.45
197.146
194.897
192.493
190.178
187.88
185.765
184.059
182.477
181.204
177.826
240.497
224.839
224.422
224.425
224.33
224.205
224.064
223.94
223.847
223.775
223.707
223.624
223.519
223.397
223.276
223.171
223.091
223.033
222.992
222.964
222.944
222.93
222.917
222.903
222.884
222.857
222.821
222.776
222.725
222.67
222.616
222.562
222.511
222.464
222.421
222.383
222.351
222.324
222.301
222.283
222.27
222.26
222.254
222.252
222.253
222.259
222.268
222.282
222.299
222.319
222.343
222.37
222.4
222.434
222.471
222.511
222.555
222.601
222.651
222.703
222.758
222.816
222.877
222.939
223.003
223.068
223.135
223.202
223.269
223.337
223.403
223.468
223.532
223.593
223.65
223.703
223.751
223.793
223.826
223.85
223.865
223.868
223.857
223.832
223.788
223.724
223.638
223.525
223.384
223.21
223
222.75
222.456
222.113
221.713
221.254
220.723
220.117
219.423
218.647
217.771
216.795
215.699
214.497
213.163
211.703
210.102
208.37
206.547
204.527
202.426
200.124
197.876
195.404
192.912
190.448
188.011
185.871
184.248
183.114
179.796
239.428
224.828
224.434
224.44
224.357
224.236
224.092
223.959
223.857
223.781
223.717
223.646
223.555
223.44
223.318
223.208
223.121
223.06
223.019
222.991
222.971
222.958
222.948
222.937
222.923
222.902
222.872
222.834
222.789
222.739
222.688
222.638
222.59
222.545
222.505
222.469
222.439
222.414
222.394
222.379
222.368
222.362
222.359
222.361
222.366
222.376
222.389
222.407
222.428
222.453
222.481
222.513
222.548
222.587
222.629
222.675
222.724
222.777
222.832
222.891
222.953
223.018
223.086
223.156
223.228
223.302
223.378
223.454
223.532
223.61
223.689
223.766
223.843
223.918
223.991
224.061
224.127
224.188
224.242
224.29
224.329
224.358
224.376
224.382
224.374
224.348
224.303
224.235
224.142
224.022
223.869
223.681
223.453
223.18
222.857
222.48
222.039
221.531
220.946
220.283
219.525
218.672
217.706
216.633
215.423
214.087
212.618
211.028
209.29
207.399
205.384
203.237
200.981
198.63
196.139
193.716
191.186
188.849
186.692
185.048
181.292
238.286
224.788
224.442
224.449
224.373
224.263
224.12
223.978
223.865
223.782
223.719
223.659
223.582
223.48
223.36
223.246
223.154
223.088
223.045
223.017
222.999
222.987
222.978
222.97
222.96
222.944
222.922
222.891
222.852
222.807
222.76
222.714
222.669
222.627
222.59
222.557
222.529
222.506
222.489
222.476
222.468
222.465
222.466
222.471
222.48
222.494
222.511
222.533
222.558
222.588
222.621
222.657
222.697
222.741
222.788
222.84
222.894
222.953
223.014
223.079
223.148
223.219
223.294
223.372
223.452
223.534
223.619
223.705
223.792
223.881
223.97
224.06
224.15
224.238
224.326
224.412
224.494
224.573
224.648
224.716
224.778
224.833
224.877
224.911
224.933
224.941
224.934
224.907
224.859
224.786
224.686
224.555
224.389
224.185
223.937
223.642
223.29
222.878
222.393
221.834
221.185
220.448
219.607
218.66
217.587
216.397
215.07
213.609
211.987
210.209
208.272
206.196
203.877
201.526
198.961
196.46
193.811
191.475
189.368
187.636
183.292
237.115
224.76
224.425
224.435
224.376
224.272
224.134
223.989
223.866
223.777
223.714
223.66
223.598
223.511
223.4
223.284
223.187
223.118
223.073
223.044
223.026
223.015
223.008
223.003
222.995
222.985
222.968
222.944
222.912
222.873
222.831
222.789
222.748
222.71
222.675
222.645
222.62
222.6
222.585
222.575
222.57
222.569
222.574
222.582
222.595
222.612
222.634
222.659
222.689
222.723
222.76
222.801
222.846
222.895
222.947
223.004
223.064
223.128
223.195
223.266
223.341
223.419
223.5
223.585
223.673
223.763
223.856
223.95
224.047
224.146
224.246
224.347
224.448
224.55
224.651
224.751
224.85
224.946
225.038
225.127
225.211
225.288
225.358
225.419
225.471
225.511
225.537
225.549
225.544
225.517
225.468
225.39
225.282
225.141
224.961
224.739
224.467
224.14
223.751
223.296
222.762
222.15
221.442
220.635
219.713
218.677
217.503
216.188
214.71
213.096
211.322
209.375
207.28
205.03
202.628
199.975
197.361
194.585
192.181
190.315
186.093
235.925
224.696
224.384
224.395
224.352
224.265
224.135
223.99
223.862
223.765
223.701
223.652
223.6
223.53
223.433
223.32
223.22
223.147
223.1
223.071
223.054
223.044
223.038
223.035
223.03
223.023
223.012
222.994
222.969
222.937
222.9
222.863
222.825
222.791
222.759
222.732
222.71
222.693
222.681
222.674
222.671
222.674
222.681
222.693
222.709
222.73
222.756
222.786
222.82
222.858
222.9
222.945
222.995
223.048
223.105
223.167
223.232
223.301
223.374
223.451
223.532
223.616
223.704
223.795
223.89
223.988
224.089
224.192
224.298
224.406
224.516
224.627
224.74
224.853
224.967
225.081
225.195
225.306
225.416
225.523
225.627
225.725
225.818
225.905
225.983
226.052
226.111
226.156
226.187
226.201
226.198
226.17
226.118
226.035
225.919
225.767
225.574
225.333
225.037
224.682
224.254
223.753
223.162
222.479
221.688
220.784
219.743
218.565
217.234
215.768
214.13
212.314
210.305
208.103
205.819
203.253
200.703
197.981
195.377
193.155
188.16
234.727
224.652
224.337
224.341
224.305
224.235
224.124
223.987
223.856
223.752
223.683
223.636
223.594
223.537
223.455
223.352
223.251
223.175
223.126
223.098
223.082
223.073
223.069
223.067
223.065
223.06
223.053
223.041
223.023
222.997
222.967
222.934
222.901
222.87
222.843
222.819
222.8
222.786
222.776
222.772
222.772
222.778
222.788
222.803
222.823
222.848
222.877
222.911
222.949
222.992
223.038
223.088
223.142
223.2
223.262
223.328
223.398
223.473
223.551
223.633
223.719
223.81
223.904
224.002
224.103
224.208
224.317
224.428
224.542
224.658
224.778
224.899
225.022
225.147
225.273
225.399
225.526
225.653
225.778
225.902
226.024
226.143
226.257
226.367
226.47
226.566
226.654
226.733
226.799
226.851
226.887
226.905
226.905
226.876
226.822
226.733
226.609
226.443
226.23
225.964
225.635
225.241
224.767
224.211
223.557
222.796
221.91
220.901
219.755
218.462
216.979
215.322
213.474
211.436
209.183
206.782
204.119
201.549
198.882
196.697
191.717
233.544
224.574
224.282
224.266
224.232
224.183
224.098
223.981
223.855
223.744
223.668
223.62
223.582
223.536
223.468
223.376
223.278
223.2
223.149
223.122
223.108
223.102
223.101
223.101
223.1
223.097
223.093
223.086
223.073
223.054
223.03
223.002
222.975
222.948
222.924
222.903
222.888
222.877
222.871
222.869
222.873
222.881
222.895
222.913
222.936
222.964
222.997
223.035
223.077
223.124
223.174
223.229
223.287
223.35
223.416
223.487
223.562
223.641
223.725
223.812
223.904
224
224.1
224.204
224.312
224.424
224.539
224.658
224.779
224.904
225.032
225.163
225.296
225.431
225.568
225.706
225.846
225.986
226.126
226.266
226.404
226.541
226.675
226.805
226.932
227.053
227.167
227.274
227.372
227.459
227.533
227.591
227.632
227.654
227.657
227.628
227.57
227.476
227.342
227.162
226.929
226.639
226.278
225.844
225.319
224.699
223.969
223.126
222.144
221.01
219.703
218.241
216.579
214.72
212.629
210.337
207.865
205.28
202.379
199.97
194.943
232.375
224.504
224.227
224.18
224.143
224.106
224.047
223.955
223.841
223.732
223.651
223.598
223.562
223.524
223.469
223.389
223.298
223.22
223.17
223.144
223.133
223.131
223.133
223.135
223.135
223.134
223.133
223.129
223.121
223.108
223.089
223.068
223.045
223.023
223.002
222.986
222.974
222.966
222.963
222.965
222.972
222.983
223
223.021
223.047
223.079
223.116
223.157
223.203
223.254
223.309
223.367
223.43
223.497
223.567
223.643
223.722
223.806
223.895
223.987
224.084
224.185
224.291
224.4
224.515
224.633
224.754
224.88
225.009
225.142
225.278
225.417
225.559
225.703
225.851
226
226.151
226.303
226.457
226.611
226.765
226.918
227.07
227.22
227.367
227.51
227.649
227.783
227.91
228.028
228.137
228.234
228.317
228.383
228.43
228.456
228.46
228.431
228.369
228.268
228.12
227.923
227.664
227.341
226.937
226.448
225.861
225.163
224.329
223.356
222.23
220.943
219.45
217.766
215.854
213.746
211.384
208.904
206.196
203.719
198.609
231.25
224.437
224.167
224.087
224.039
224.006
223.967
223.905
223.817
223.72
223.638
223.58
223.54
223.507
223.462
223.394
223.312
223.238
223.189
223.165
223.156
223.157
223.164
223.17
223.172
223.172
223.172
223.17
223.166
223.158
223.145
223.129
223.112
223.094
223.078
223.065
223.056
223.052
223.053
223.059
223.068
223.083
223.102
223.127
223.156
223.191
223.231
223.276
223.326
223.381
223.44
223.503
223.569
223.64
223.715
223.795
223.879
223.967
224.06
224.158
224.259
224.365
224.476
224.591
224.711
224.835
224.963
225.095
225.231
225.371
225.514
225.661
225.812
225.965
226.122
226.281
226.443
226.607
226.772
226.939
227.107
227.276
227.444
227.611
227.777
227.941
228.102
228.259
228.412
228.558
228.697
228.828
228.947
229.054
229.147
229.22
229.274
229.304
229.311
229.281
229.214
229.103
228.94
228.722
228.434
228.074
227.623
227.07
226.401
225.608
224.669
223.568
222.276
220.797
219.08
217.14
214.948
212.546
210.005
207.508
202.824
230.165
224.377
224.111
224.006
223.939
223.901
223.874
223.836
223.774
223.694
223.616
223.557
223.517
223.486
223.45
223.394
223.321
223.251
223.204
223.182
223.177
223.181
223.195
223.205
223.209
223.21
223.211
223.211
223.21
223.206
223.198
223.188
223.175
223.162
223.15
223.141
223.136
223.135
223.14
223.149
223.162
223.18
223.203
223.23
223.263
223.301
223.344
223.393
223.447
223.505
223.568
223.634
223.705
223.78
223.859
223.943
224.031
224.124
224.221
224.323
224.429
224.54
224.656
224.776
224.901
225.031
225.164
225.302
225.445
225.591
225.741
225.896
226.054
226.215
226.38
226.549
226.72
226.894
227.071
227.25
227.43
227.612
227.795
227.978
228.161
228.343
228.523
228.702
228.878
229.05
229.217
229.377
229.53
229.673
229.805
229.923
230.026
230.107
230.168
230.202
230.21
230.179
230.105
229.983
229.802
229.558
229.233
228.821
228.308
227.68
226.914
225.995
224.902
223.628
222.131
220.406
218.398
216.177
213.719
211.169
206.624
229.116
224.28
224.065
223.949
223.855
223.797
223.764
223.738
223.704
223.653
223.591
223.536
223.497
223.467
223.436
223.389
223.324
223.258
223.215
223.195
223.194
223.203
223.223
223.237
223.244
223.247
223.249
223.25
223.251
223.251
223.248
223.242
223.235
223.226
223.219
223.214
223.212
223.215
223.223
223.236
223.253
223.274
223.3
223.331
223.367
223.408
223.454
223.506
223.564
223.625
223.692
223.763
223.837
223.916
223.999
224.087
224.179
224.276
224.377
224.483
224.594
224.709
224.829
224.954
225.084
225.219
225.358
225.502
225.65
225.802
225.959
226.12
226.285
226.454
226.627
226.803
226.984
227.167
227.354
227.543
227.735
227.929
228.125
228.322
228.52
228.718
228.916
229.114
229.31
229.505
229.696
229.883
230.065
230.24
230.407
230.563
230.708
230.838
230.951
231.042
231.109
231.148
231.158
231.123
231.04
230.901
230.694
230.415
230.047
229.575
228.979
228.247
227.352
226.279
224.994
223.492
221.739
219.781
217.508
215.17
211.163
228.116
224.117
224.014
223.898
223.785
223.707
223.661
223.636
223.616
223.587
223.546
223.503
223.469
223.444
223.419
223.381
223.324
223.263
223.223
223.205
223.207
223.222
223.247
223.267
223.277
223.283
223.286
223.289
223.292
223.294
223.295
223.293
223.291
223.287
223.284
223.283
223.285
223.291
223.303
223.319
223.34
223.364
223.394
223.428
223.467
223.511
223.561
223.617
223.677
223.742
223.813
223.887
223.965
224.048
224.135
224.226
224.322
224.423
224.528
224.638
224.753
224.872
224.997
225.126
225.26
225.4
225.544
225.693
225.846
226.004
226.166
226.333
226.505
226.681
226.861
227.045
227.233
227.425
227.62
227.819
228.021
228.226
228.433
228.643
228.854
229.067
229.28
229.495
229.709
229.923
230.136
230.347
230.554
230.757
230.955
231.146
231.328
231.499
231.657
231.8
231.925
232.025
232.099
232.141
232.151
232.111
232.017
231.859
231.622
231.295
230.86
230.301
229.592
228.717
227.644
226.35
224.803
222.985
220.885
218.516
214.958
227.227
223.892
223.926
223.859
223.742
223.638
223.566
223.529
223.512
223.5
223.481
223.456
223.432
223.414
223.396
223.367
223.319
223.264
223.226
223.212
223.215
223.236
223.268
223.292
223.307
223.315
223.32
223.324
223.329
223.334
223.338
223.341
223.343
223.344
223.346
223.348
223.354
223.364
223.379
223.399
223.423
223.451
223.484
223.522
223.564
223.612
223.665
223.723
223.787
223.856
223.929
224.007
224.089
224.175
224.266
224.361
224.46
224.564
224.673
224.787
224.906
225.029
225.158
225.291
225.43
225.573
225.722
225.875
226.033
226.196
226.364
226.537
226.714
226.896
227.082
227.273
227.468
227.667
227.871
228.078
228.289
228.503
228.721
228.942
229.165
229.391
229.618
229.847
230.077
230.309
230.54
230.771
231.001
231.228
231.453
231.673
231.887
232.094
232.292
232.479
232.652
232.808
232.945
233.055
233.136
233.181
233.19
233.139
233.026
232.835
232.556
232.17
231.653
230.985
230.133
229.08
227.793
226.237
224.434
222.228
219.084
226.509
223.656
223.785
223.791
223.697
223.581
223.488
223.433
223.409
223.402
223.4
223.392
223.384
223.376
223.366
223.347
223.31
223.262
223.228
223.216
223.221
223.248
223.285
223.314
223.332
223.343
223.351
223.357
223.364
223.372
223.379
223.386
223.392
223.398
223.403
223.41
223.42
223.433
223.452
223.475
223.503
223.535
223.571
223.612
223.658
223.709
223.765
223.827
223.894
223.966
224.042
224.124
224.209
224.299
224.392
224.491
224.594
224.701
224.814
224.931
225.053
225.18
225.312
225.449
225.592
225.739
225.892
226.05
226.213
226.38
226.553
226.73
226.912
227.1
227.292
227.489
227.69
227.896
228.107
228.321
228.54
228.763
228.99
229.22
229.454
229.69
229.929
230.171
230.415
230.661
230.909
231.157
231.406
231.655
231.902
232.147
232.389
232.627
232.859
233.084
233.299
233.503
233.692
233.863
234.013
234.132
234.22
234.267
234.274
234.21
234.078
233.847
233.512
233.04
232.401
231.572
230.496
229.147
227.538
225.536
222.711
225.934
223.399
223.603
223.686
223.643
223.533
223.426
223.355
223.32
223.31
223.313
223.317
223.323
223.327
223.327
223.32
223.296
223.258
223.229
223.22
223.228
223.258
223.299
223.332
223.354
223.368
223.377
223.386
223.395
223.406
223.417
223.428
223.438
223.448
223.458
223.468
223.482
223.499
223.521
223.548
223.579
223.615
223.654
223.699
223.748
223.802
223.862
223.926
223.997
224.072
224.152
224.236
224.325
224.417
224.514
224.616
224.722
224.833
224.949
225.069
225.195
225.325
225.461
225.601
225.747
225.898
226.055
226.216
226.383
226.555
226.732
226.914
227.101
227.293
227.49
227.692
227.899
228.111
228.328
228.549
228.775
229.005
229.239
229.478
229.721
229.967
230.216
230.469
230.725
230.984
231.245
231.509
231.774
232.04
232.307
232.574
232.84
233.104
233.365
233.621
233.872
234.116
234.35
234.572
234.778
234.965
235.129
235.258
235.353
235.4
235.401
235.307
235.135
234.836
234.399
233.792
232.958
231.875
230.502
228.729
226.211
225.464
223.143
223.386
223.555
223.564
223.49
223.378
223.293
223.244
223.227
223.227
223.236
223.253
223.27
223.282
223.288
223.279
223.256
223.233
223.228
223.237
223.268
223.312
223.347
223.371
223.388
223.401
223.412
223.424
223.438
223.452
223.466
223.48
223.494
223.508
223.523
223.54
223.561
223.587
223.617
223.652
223.691
223.735
223.782
223.835
223.892
223.955
224.023
224.096
224.174
224.257
224.345
224.436
224.532
224.632
224.737
224.846
224.96
225.078
225.202
225.331
225.464
225.603
225.747
225.896
226.051
226.211
226.376
226.546
226.721
226.902
227.088
227.279
227.476
227.678
227.884
228.096
228.313
228.535
228.763
228.994
229.231
229.472
229.718
229.968
230.223
230.481
230.743
231.009
231.279
231.552
231.829
232.108
232.389
232.672
232.957
233.243
233.528
233.813
234.097
234.378
234.655
234.927
235.191
235.445
235.687
235.913
236.117
236.295
236.434
236.535
236.581
236.569
236.447
236.227
235.854
235.283
234.474
233.321
231.778
229.48
225.073
222.892
223.146
223.405
223.472
223.433
223.331
223.239
223.182
223.155
223.148
223.155
223.177
223.206
223.234
223.254
223.26
223.252
223.24
223.239
223.251
223.282
223.323
223.36
223.386
223.405
223.42
223.434
223.449
223.466
223.484
223.502
223.52
223.538
223.556
223.575
223.596
223.621
223.65
223.684
223.722
223.765
223.811
223.863
223.918
223.979
224.045
224.116
224.192
224.273
224.359
224.449
224.544
224.642
224.745
224.853
224.965
225.081
225.203
225.33
225.461
225.598
225.739
225.886
226.038
226.196
226.359
226.527
226.701
226.88
227.064
227.254
227.448
227.649
227.855
228.066
228.282
228.504
228.73
228.962
229.2
229.442
229.689
229.941
230.198
230.459
230.725
230.996
231.27
231.549
231.832
232.119
232.41
232.704
233.001
233.301
233.603
233.907
234.212
234.518
234.823
235.128
235.431
235.73
236.024
236.311
236.588
236.852
237.099
237.323
237.519
237.67
237.778
237.819
237.777
237.598
237.273
236.739
235.846
234.633
232.581
224.74
222.663
222.891
223.231
223.358
223.349
223.281
223.195
223.134
223.096
223.079
223.078
223.098
223.136
223.181
223.22
223.241
223.247
223.248
223.253
223.268
223.297
223.336
223.371
223.398
223.419
223.437
223.454
223.472
223.493
223.514
223.535
223.557
223.579
223.601
223.623
223.648
223.677
223.71
223.747
223.789
223.835
223.885
223.94
223.999
224.062
224.131
224.205
224.285
224.369
224.458
224.551
224.648
224.749
224.855
224.964
225.079
225.199
225.323
225.452
225.587
225.726
225.87
226.02
226.175
226.335
226.501
226.672
226.849
227.031
227.218
227.411
227.609
227.813
228.023
228.237
228.458
228.683
228.914
229.151
229.393
229.64
229.892
230.149
230.412
230.68
230.952
231.229
231.511
231.798
232.09
232.386
232.686
232.991
233.299
233.611
233.927
234.246
234.568
234.892
235.218
235.545
235.873
236.201
236.527
236.851
237.17
237.483
237.785
238.075
238.346
238.593
238.805
238.965
239.067
239.09
239.016
238.768
238.182
237.368
235.605
224.443
222.461
222.636
223.024
223.219
223.259
223.228
223.158
223.099
223.053
223.022
223.009
223.021
223.063
223.123
223.184
223.224
223.243
223.257
223.269
223.286
223.313
223.348
223.382
223.409
223.432
223.451
223.471
223.493
223.517
223.542
223.567
223.592
223.617
223.643
223.669
223.698
223.73
223.767
223.808
223.853
223.902
223.956
224.014
224.076
224.143
224.215
224.292
224.374
224.461
224.552
224.648
224.748
224.851
224.959
225.072
225.189
225.311
225.438
225.57
225.707
225.849
225.995
226.148
226.305
226.468
226.637
226.811
226.99
227.175
227.365
227.561
227.763
227.97
228.182
228.4
228.624
228.853
229.088
229.329
229.575
229.826
230.083
230.345
230.613
230.886
231.164
231.447
231.736
232.029
232.328
232.632
232.941
233.254
233.572
233.895
234.222
234.554
234.889
235.228
235.571
235.917
236.265
236.616
236.968
237.321
237.673
238.024
238.371
238.712
239.043
239.363
239.663
239.938
240.163
240.329
240.442
240.468
240.212
239.817
238.601
224.158
222.283
222.399
222.798
223.073
223.169
223.168
223.127
223.073
223.022
222.976
222.949
222.95
222.987
223.061
223.145
223.207
223.241
223.265
223.285
223.304
223.328
223.36
223.392
223.419
223.443
223.465
223.488
223.513
223.54
223.567
223.596
223.624
223.653
223.682
223.712
223.745
223.781
223.822
223.866
223.915
223.967
224.024
224.085
224.15
224.22
224.295
224.375
224.46
224.55
224.644
224.742
224.844
224.95
225.061
225.176
225.295
225.42
225.549
225.683
225.822
225.967
226.116
226.27
226.43
226.596
226.767
226.944
227.126
227.313
227.506
227.705
227.909
228.119
228.334
228.556
228.783
229.015
229.253
229.497
229.747
230.002
230.263
230.53
230.802
231.08
231.363
231.652
231.946
232.245
232.55
232.861
233.177
233.498
233.824
234.156
234.493
234.835
235.182
235.533
235.889
236.25
236.615
236.984
237.357
237.733
238.112
238.493
238.875
239.256
239.635
240.01
240.376
240.73
241.057
241.353
241.597
241.809
241.915
241.803
241.312
223.868
222.135
222.196
222.571
222.917
223.073
223.11
223.096
223.052
222.998
222.938
222.894
222.884
222.914
222.998
223.105
223.188
223.239
223.272
223.298
223.319
223.341
223.37
223.4
223.428
223.453
223.477
223.503
223.531
223.56
223.591
223.623
223.654
223.687
223.719
223.753
223.79
223.83
223.874
223.922
223.974
224.029
224.089
224.153
224.222
224.295
224.373
224.456
224.543
224.635
224.732
224.832
224.937
225.045
225.158
225.275
225.397
225.523
225.655
225.792
225.933
226.079
226.231
226.388
226.55
226.718
226.892
227.071
227.255
227.445
227.64
227.842
228.049
228.261
228.48
228.704
228.934
229.17
229.411
229.658
229.912
230.171
230.435
230.706
230.982
231.264
231.552
231.846
232.145
232.45
232.76
233.077
233.399
233.727
234.061
234.4
234.745
235.096
235.453
235.815
236.182
236.555
236.934
237.318
237.707
238.101
238.5
238.904
239.312
239.723
240.136
240.549
240.963
241.373
241.773
242.16
242.519
242.859
243.169
243.335
243.411
223.553
222.005
222.029
222.357
222.755
222.973
223.051
223.058
223.031
222.974
222.901
222.845
222.827
222.849
222.939
223.066
223.169
223.236
223.277
223.306
223.329
223.352
223.378
223.407
223.435
223.461
223.488
223.516
223.547
223.579
223.613
223.648
223.683
223.718
223.754
223.792
223.832
223.876
223.924
223.975
224.03
224.089
224.152
224.219
224.29
224.366
224.447
224.533
224.623
224.718
224.816
224.919
225.025
225.136
225.251
225.37
225.494
225.623
225.757
225.895
226.039
226.187
226.341
226.5
226.665
226.835
227.011
227.192
227.378
227.571
227.769
227.972
228.182
228.397
228.618
228.845
229.078
229.316
229.561
229.811
230.068
230.33
230.598
230.872
231.153
231.439
231.731
232.029
232.332
232.642
232.958
233.28
233.608
233.942
234.282
234.628
234.98
235.339
235.703
236.074
236.451
236.834
237.223
237.619
238.021
238.429
238.843
239.263
239.689
240.12
240.556
240.996
241.44
241.884
242.327
242.762
243.181
243.598
243.985
244.287
244.591
223.207
221.882
221.885
222.165
222.593
222.869
222.987
223.019
223.003
222.946
222.864
222.799
222.777
222.797
222.89
223.032
223.152
223.23
223.278
223.31
223.335
223.359
223.385
223.413
223.442
223.469
223.497
223.528
223.561
223.597
223.634
223.671
223.709
223.748
223.788
223.829
223.873
223.92
223.971
224.026
224.084
224.146
224.212
224.282
224.356
224.435
224.518
224.607
224.699
224.796
224.897
225.002
225.11
225.223
225.339
225.461
225.587
225.718
225.854