/*--------------------------------*- C++ -*----------------------------------*\
| =========                 |                                                 |
| \\      /  F ield         | OpenFOAM: The Open Source CFD Toolbox           |
|  \\    /   O peration     | Version:  2412                                  |
|   \\  /    A nd           | Website:  www.openfoam.com                      |
|    \\/     M anipulation  |                                                 |
\*---------------------------------------------------------------------------*/
FoamFile
{
    version     2.0;
    format      ascii;
    arch        "LSB;label=32;scalar=64";
    class       volVectorField;
    location    "0.119";
    object      U;
}
// * * * * * * * * * * * * * * * * * * * * * * * * * * * * * * * * * * * * * //

dimensions      [0 1 -1 0 0 0 0];

internalField   nonuniform List<vector> 
78650
(
(142.296 45.7672 0)
(184.081 -8.62387 0)
(194.395 -10.3355 0)
(197.667 -8.65224 0)
(200.449 -8.75278 0)
(202.455 -8.24059 0)
(204.134 -7.94651 0)
(205.508 -7.61617 0)
(206.7 -7.33051 0)
(207.736 -7.09666 0)
(208.605 -6.94283 0)
(209.289 -6.85328 0)
(209.811 -6.80603 0)
(210.214 -6.77224 0)
(210.542 -6.73477 0)
(210.816 -6.67562 0)
(211.049 -6.58864 0)
(211.247 -6.47094 0)
(211.421 -6.32765 0)
(211.587 -6.16492 0)
(211.761 -5.98942 0)
(211.955 -5.80525 0)
(212.179 -5.61505 0)
(212.437 -5.41895 0)
(212.726 -5.21445 0)
(213.039 -4.99859 0)
(213.367 -4.76829 0)
(213.703 -4.52047 0)
(214.037 -4.25237 0)
(214.363 -3.96215 0)
(214.677 -3.6489 0)
(214.977 -3.31187 0)
(215.261 -2.95027 0)
(215.527 -2.56352 0)
(215.776 -2.15092 0)
(216.01 -1.71255 0)
(216.232 -1.2481 0)
(216.44 -0.757057 0)
(216.638 -0.239644 0)
(216.825 0.304764 0)
(216.995 0.877229 0)
(217.156 1.47734 0)
(217.305 2.1053 0)
(217.439 2.76218 0)
(217.554 3.44835 0)
(217.656 4.16354 0)
(217.746 4.90769 0)
(217.825 5.68112 0)
(217.891 6.48376 0)
(217.943 7.31561 0)
(217.981 8.17703 0)
(218.005 9.06877 0)
(218.014 9.99078 0)
(218.011 10.9437 0)
(217.995 11.9281 0)
(217.966 12.9441 0)
(217.927 13.9915 0)
(217.876 15.0719 0)
(217.815 16.1858 0)
(217.746 17.3339 0)
(217.669 18.5167 0)
(217.587 19.7346 0)
(217.504 20.9879 0)
(217.419 22.2793 0)
(217.337 23.6071 0)
(217.259 24.9742 0)
(217.19 26.3821 0)
(217.13 27.8318 0)
(217.086 29.3226 0)
(217.064 30.8584 0)
(217.062 32.4392 0)
(217.091 34.0663 0)
(217.156 35.7414 0)
(217.26 37.4638 0)
(217.421 39.2357 0)
(217.633 41.0569 0)
(217.92 42.9295 0)
(218.277 44.8536 0)
(218.719 46.8299 0)
(219.26 48.8581 0)
(219.907 50.9364 0)
(220.681 53.0622 0)
(221.589 55.2332 0)
(222.662 57.4453 0)
(223.893 59.6968 0)
(225.33 61.9773 0)
(226.943 64.2844 0)
(228.812 66.5961 0)
(230.88 68.9172 0)
(233.256 71.2143 0)
(235.857 73.5022 0)
(238.829 75.7146 0)
(242.033 77.9108 0)
(245.705 79.9347 0)
(249.571 81.966 0)
(253.993 83.6903 0)
(258.653 85.3651 0)
(263.841 86.7152 0)
(269.404 87.8955 0)
(275.25 88.6799 0)
(281.337 89.2712 0)
(287.311 89.6334 0)
(293.458 89.6894 0)
(299.637 89.4256 0)
(306.051 88.8474 0)
(313.077 87.7942 0)
(320.773 86.0261 0)
(327.38 84.3289 0)
(334.219 82.4421 0)
(339.376 80.6726 0)
(343.524 79.4972 0)
(348.657 77.8576 0)
(353.818 76.2098 0)
(359.458 73.9295 0)
(363.414 71.5569 0)
(365.999 69.6515 0)
(367.739 68.1003 0)
(369.593 67.2757 0)
(373.414 66.6986 0)
(380.019 65.6049 0)
(382.372 69.4193 0)
(144.371 45.7688 0)
(184.115 -7.42199 0)
(194.486 -9.87424 0)
(197.778 -8.37967 0)
(200.498 -8.55175 0)
(202.5 -8.11859 0)
(204.162 -7.85828 0)
(205.503 -7.54075 0)
(206.651 -7.25518 0)
(207.647 -7.02887 0)
(208.484 -6.88161 0)
(209.148 -6.79615 0)
(209.669 -6.75667 0)
(210.081 -6.72906 0)
(210.419 -6.69569 0)
(210.701 -6.63796 0)
(210.94 -6.55168 0)
(211.143 -6.43538 0)
(211.321 -6.29426 0)
(211.487 -6.13392 0)
(211.654 -5.96 0)
(211.835 -5.77575 0)
(212.041 -5.58419 0)
(212.278 -5.3863 0)
(212.548 -5.18053 0)
(212.844 -4.96423 0)
(213.159 -4.73438 0)
(213.482 -4.48785 0)
(213.805 -4.22176 0)
(214.122 -3.93411 0)
(214.427 -3.62399 0)
(214.719 -3.29061 0)
(214.994 -2.93332 0)
(215.251 -2.55136 0)
(215.49 -2.14404 0)
(215.714 -1.71136 0)
(215.922 -1.25293 0)
(216.117 -0.768407 0)
(216.301 -0.258042 0)
(216.472 0.278956 0)
(216.627 0.843324 0)
(216.773 1.43461 0)
(216.906 2.05332 0)
(217.021 2.70042 0)
(217.118 3.37606 0)
(217.201 4.08003 0)
(217.273 4.81246 0)
(217.331 5.57363 0)
(217.376 6.36347 0)
(217.406 7.18198 0)
(217.421 8.02922 0)
(217.422 8.90637 0)
(217.408 9.81314 0)
(217.379 10.75 0)
(217.337 11.7177 0)
(217.28 12.7166 0)
(217.213 13.7452 0)
(217.133 14.8074 0)
(217.041 15.902 0)
(216.938 17.03 0)
(216.826 18.1921 0)
(216.707 19.3886 0)
(216.584 20.6198 0)
(216.455 21.8898 0)
(216.328 23.1941 0)
(216.202 24.5372 0)
(216.08 25.9202 0)
(215.963 27.346 0)
(215.858 28.8118 0)
(215.769 30.3227 0)
(215.696 31.879 0)
(215.647 33.4812 0)
(215.627 35.1323 0)
(215.638 36.8315 0)
(215.698 38.5817 0)
(215.799 40.3827 0)
(215.966 42.2373 0)
(216.191 44.1458 0)
(216.492 46.11 0)
(216.878 48.1305 0)
(217.357 50.2071 0)
(217.948 52.3386 0)
(218.658 54.5238 0)
(219.515 56.7598 0)
(220.517 59.0445 0)
(221.71 61.3703 0)
(223.069 63.7366 0)
(224.67 66.1312 0)
(226.458 68.5597 0)
(228.538 70.9944 0)
(230.837 73.4396 0)
(233.489 75.8409 0)
(236.379 78.2281 0)
(239.706 80.4839 0)
(243.219 82.726 0)
(247.253 84.7121 0)
(251.415 86.7169 0)
(256.07 88.3899 0)
(260.945 89.9677 0)
(266.281 91.2751 0)
(271.935 92.3489 0)
(277.882 93.1542 0)
(284.237 93.651 0)
(291.057 93.6764 0)
(298.145 93.2313 0)
(304.933 92.633 0)
(312.062 91.6293 0)
(317.914 90.7202 0)
(323.831 89.6548 0)
(329.817 88.1758 0)
(335.396 86.6302 0)
(341.569 84.6086 0)
(346.673 82.9677 0)
(352.082 81.1885 0)
(357.041 79.4207 0)
(361.128 77.074 0)
(363.672 74.601 0)
(365.813 72.4456 0)
(369.666 71.1956 0)
(376.96 70.3902 0)
(379.809 75.0574 0)
(145.431 44.6007 0)
(184.99 -6.33252 0)
(194.91 -9.58405 0)
(198.044 -8.24065 0)
(200.646 -8.41777 0)
(202.596 -8.02447 0)
(204.21 -7.76328 0)
(205.509 -7.4524 0)
(206.622 -7.17564 0)
(207.579 -6.95603 0)
(208.37 -6.81323 0)
(209.007 -6.73508 0)
(209.526 -6.7051 0)
(209.946 -6.68512 0)
(210.291 -6.65737 0)
(210.579 -6.60269 0)
(210.823 -6.51891 0)
(211.031 -6.4055 0)
(211.214 -6.26727 0)
(211.381 -6.10948 0)
(211.544 -5.93698 0)
(211.713 -5.75278 0)
(211.901 -5.56034 0)
(212.117 -5.36141 0)
(212.367 -5.15527 0)
(212.645 -4.93951 0)
(212.945 -4.71114 0)
(213.255 -4.46697 0)
(213.567 -4.20393 0)
(213.873 -3.91977 0)
(214.169 -3.61348 0)
(214.452 -3.28426 0)
(214.719 -2.93152 0)
(214.968 -2.55439 0)
(215.198 -2.15219 0)
(215.411 -1.72489 0)
(215.607 -1.27206 0)
(215.789 -0.793579 0)
(215.959 -0.289698 0)
(216.114 0.2405 0)
(216.255 0.79747 0)
(216.385 1.38074 0)
(216.501 1.99103 0)
(216.598 2.62923 0)
(216.677 3.29535 0)
(216.742 3.98919 0)
(216.795 4.71098 0)
(216.833 5.46085 0)
(216.857 6.2388 0)
(216.864 7.04524 0)
(216.857 7.87957 0)
(216.833 8.74325 0)
(216.795 9.63547 0)
(216.742 10.5573 0)
(216.673 11.5101 0)
(216.589 12.4929 0)
(216.492 13.5068 0)
(216.381 14.5515 0)
(216.258 15.6285 0)
(216.121 16.7385 0)
(215.974 17.8821 0)
(215.817 19.0599 0)
(215.652 20.273 0)
(215.483 21.5206 0)
(215.309 22.8054 0)
(215.133 24.1278 0)
(214.96 25.489 0)
(214.785 26.895 0)
(214.621 28.3369 0)
(214.467 29.8234 0)
(214.323 31.3566 0)
(214.2 32.9345 0)
(214.098 34.5619 0)
(214.021 36.2369 0)
(213.986 37.9631 0)
(213.983 39.7399 0)
(214.039 41.5707 0)
(214.143 43.4557 0)
(214.313 45.3969 0)
(214.557 47.3958 0)
(214.882 49.4524 0)
(215.305 51.5666 0)
(215.832 53.7372 0)
(216.489 55.963 0)
(217.275 58.2421 0)
(218.232 60.5713 0)
(219.335 62.9509 0)
(220.655 65.3731 0)
(222.14 67.8381 0)
(223.891 70.3241 0)
(225.839 72.8319 0)
(228.106 75.3281 0)
(230.597 77.8309 0)
(233.487 80.2705 0)
(236.588 82.7201 0)
(240.217 85.019 0)
(244.023 87.3528 0)
(248.439 89.386 0)
(253.065 91.397 0)
(258.192 93.0612 0)
(263.698 94.5702 0)
(269.591 95.7054 0)
(275.776 96.5754 0)
(282.129 97.1829 0)
(288.539 97.4563 0)
(294.696 97.4695 0)
(301.548 97.093 0)
(308.058 96.3679 0)
(314.321 95.6055 0)
(321.945 94.2883 0)
(328.327 92.7758 0)
(335.374 90.8286 0)
(341.321 88.9612 0)
(346.435 87.2904 0)
(350.902 85.7962 0)
(354.873 83.8816 0)
(357.765 81.8885 0)
(360.61 80.3488 0)
(365.4 78.6104 0)
(372.999 77.1363 0)
(376.186 80.5396 0)
(147.055 42.7363 0)
(186.36 -5.89479 0)
(195.283 -9.13704 0)
(198.248 -7.92676 0)
(200.744 -8.15182 0)
(202.648 -7.82521 0)
(204.231 -7.60401 0)
(205.516 -7.33041 0)
(206.605 -7.07974 0)
(207.512 -6.87113 0)
(208.256 -6.73927 0)
(208.871 -6.66842 0)
(209.386 -6.64599 0)
(209.812 -6.63133 0)
(210.164 -6.60672 0)
(210.458 -6.55409 0)
(210.707 -6.47289 0)
(210.922 -6.3631 0)
(211.11 -6.2288 0)
(211.279 -6.07477 0)
(211.436 -5.90473 0)
(211.593 -5.7216 0)
(211.763 -5.5291 0)
(211.958 -5.32958 0)
(212.187 -5.12303 0)
(212.446 -4.90741 0)
(212.728 -4.67994 0)
(213.024 -4.43754 0)
(213.323 -4.1771 0)
(213.617 -3.89614 0)
(213.903 -3.59355 0)
(214.176 -3.2685 0)
(214.435 -2.92051 0)
(214.674 -2.54859 0)
(214.895 -2.15214 0)
(215.097 -1.73098 0)
(215.281 -1.28467 0)
(215.449 -0.813283 0)
(215.605 -0.316968 0)
(215.744 0.205246 0)
(215.87 0.753453 0)
(215.985 1.32732 0)
(216.084 1.92783 0)
(216.163 2.5557 0)
(216.224 3.21073 0)
(216.272 3.89285 0)
(216.306 4.60238 0)
(216.325 5.33941 0)
(216.328 6.10409 0)
(216.313 6.89675 0)
(216.284 7.71568 0)
(216.238 8.56371 0)
(216.176 9.44084 0)
(216.098 10.347 0)
(216.004 11.2823 0)
(215.895 12.2473 0)
(215.77 13.2421 0)
(215.631 14.2678 0)
(215.478 15.3249 0)
(215.31 16.4142 0)
(215.13 17.5364 0)
(214.938 18.6921 0)
(214.736 19.8818 0)
(214.526 21.1067 0)
(214.309 22.3673 0)
(214.089 23.665 0)
(213.865 25.0021 0)
(213.642 26.3773 0)
(213.421 27.7939 0)
(213.207 29.2531 0)
(212.995 30.7608 0)
(212.802 32.3084 0)
(212.622 33.9066 0)
(212.462 35.5529 0)
(212.335 37.2511 0)
(212.232 39.0012 0)
(212.179 40.8057 0)
(212.164 42.6658 0)
(212.205 44.5836 0)
(212.308 46.562 0)
(212.48 48.6013 0)
(212.736 50.7033 0)
(213.08 52.8678 0)
(213.539 55.0954 0)
(214.111 57.3854 0)
(214.834 59.7365 0)
(215.69 62.1468 0)
(216.746 64.6107 0)
(217.956 67.1264 0)
(219.415 69.6828 0)
(221.056 72.2831 0)
(222.995 74.9041 0)
(225.152 77.5494 0)
(227.684 80.1607 0)
(230.436 82.774 0)
(233.665 85.2728 0)
(237.058 87.7774 0)
(241.014 90.0413 0)
(245.087 92.3342 0)
(249.75 94.3286 0)
(254.653 96.2806 0)
(260.018 97.9181 0)
(265.776 99.3419 0)
(271.794 100.462 0)
(278.509 101.388 0)
(285.081 101.702 0)
(291.831 101.827 0)
(299.463 101.542 0)
(306.451 100.746 0)
(313.857 99.7451 0)
(320.895 98.4372 0)
(326.959 97.3026 0)
(333.816 95.7597 0)
(340.481 93.834 0)
(346.166 91.8034 0)
(350.712 89.8508 0)
(353.629 87.7981 0)
(355.694 86.3402 0)
(359.629 85.2541 0)
(367.642 83.6583 0)
(370.469 88.1749 0)
(148.222 40.3837 0)
(187.463 -5.32382 0)
(195.835 -8.77152 0)
(198.604 -7.68921 0)
(200.946 -7.92294 0)
(202.771 -7.64746 0)
(204.316 -7.45775 0)
(205.579 -7.21881 0)
(206.622 -6.98598 0)
(207.466 -6.78339 0)
(208.156 -6.66156 0)
(208.739 -6.59968 0)
(209.242 -6.58354 0)
(209.669 -6.57358 0)
(210.026 -6.55335 0)
(210.326 -6.50585 0)
(210.583 -6.43014 0)
(210.804 -6.32586 0)
(210.997 -6.19633 0)
(211.167 -6.0463 0)
(211.321 -5.87875 0)
(211.466 -5.697 0)
(211.62 -5.50495 0)
(211.796 -5.30546 0)
(212.002 -5.0991 0)
(212.241 -4.88422 0)
(212.505 -4.65831 0)
(212.784 -4.41848 0)
(213.069 -4.16154 0)
(213.351 -3.88474 0)
(213.625 -3.58675 0)
(213.889 -3.26665 0)
(214.137 -2.92402 0)
(214.368 -2.55778 0)
(214.58 -2.1674 0)
(214.771 -1.75251 0)
(214.943 -1.31273 0)
(215.099 -0.848339 0)
(215.241 -0.359374 0)
(215.364 0.155083 0)
(215.475 0.694792 0)
(215.575 1.25963 0)
(215.655 1.85078 0)
(215.715 2.46872 0)
(215.76 3.11309 0)
(215.791 3.78401 0)
(215.806 4.48226 0)
(215.804 5.20701 0)
(215.785 5.95796 0)
(215.749 6.73649 0)
(215.696 7.54318 0)
(215.628 8.37689 0)
(215.542 9.23826 0)
(215.44 10.1279 0)
(215.32 11.0466 0)
(215.184 11.9945 0)
(215.031 12.972 0)
(214.863 13.9795 0)
(214.679 15.0176 0)
(214.479 16.0873 0)
(214.264 17.1893 0)
(214.036 18.3243 0)
(213.796 19.4929 0)
(213.545 20.6957 0)
(213.286 21.9336 0)
(213.02 23.208 0)
(212.748 24.5201 0)
(212.471 25.8721 0)
(212.193 27.2645 0)
(211.917 28.6992 0)
(211.646 30.1751 0)
(211.384 31.6965 0)
(211.127 33.269 0)
(210.887 34.8867 0)
(210.671 36.5536 0)
(210.473 38.2742 0)
(210.319 40.0485 0)
(210.193 41.8798 0)
(210.117 43.7671 0)
(210.09 45.7155 0)
(210.123 47.7248 0)
(210.227 49.7977 0)
(210.407 51.9343 0)
(210.685 54.1364 0)
(211.061 56.4029 0)
(211.569 58.7345 0)
(212.193 61.1297 0)
(212.995 63.5888 0)
(213.929 66.1112 0)
(215.085 68.6917 0)
(216.401 71.3282 0)
(217.986 74.0034 0)
(219.772 76.7169 0)
(221.897 79.4378 0)
(224.236 82.1913 0)
(227.015 84.9043 0)
(229.992 87.6462 0)
(233.54 90.2582 0)
(237.267 92.9167 0)
(241.623 95.2949 0)
(246.158 97.6607 0)
(251.268 99.7083 0)
(256.72 101.626 0)
(262.586 103.137 0)
(268.878 104.422 0)
(275.551 105.287 0)
(282.275 105.808 0)
(289.351 106.149 0)
(296.66 105.914 0)
(302.973 105.608 0)
(310.727 104.715 0)
(317.054 103.802 0)
(324.138 102.575 0)
(331.112 101.216 0)
(337.376 99.7668 0)
(344.019 97.401 0)
(348.188 94.7894 0)
(351.393 91.6978 0)
(355.325 90.8554 0)
(364.34 89.9628 0)
(367.328 96.2723 0)
(150 37.7074 0)
(188.788 -5.33995 0)
(196.451 -8.44671 0)
(198.949 -7.41438 0)
(201.122 -7.62609 0)
(202.883 -7.40799 0)
(204.396 -7.25867 0)
(205.634 -7.05837 0)
(206.634 -6.8569 0)
(207.429 -6.68368 0)
(208.071 -6.58363 0)
(208.612 -6.5292 0)
(209.093 -6.51385 0)
(209.518 -6.50419 0)
(209.885 -6.48573 0)
(210.199 -6.44323 0)
(210.465 -6.37341 0)
(210.693 -6.27511 0)
(210.889 -6.151 0)
(211.059 -6.00566 0)
(211.206 -5.84149 0)
(211.341 -5.66227 0)
(211.479 -5.47189 0)
(211.635 -5.27346 0)
(211.82 -5.06787 0)
(212.035 -4.85392 0)
(212.278 -4.62945 0)
(212.539 -4.39198 0)
(212.808 -4.13836 0)
(213.076 -3.86565 0)
(213.338 -3.57226 0)
(213.589 -3.25719 0)
(213.828 -2.9201 0)
(214.048 -2.55984 0)
(214.25 -2.17597 0)
(214.43 -1.7679 0)
(214.591 -1.33541 0)
(214.734 -0.878852 0)
(214.861 -0.398105 0)
(214.968 0.107527 0)
(215.065 0.637523 0)
(215.148 1.19217 0)
(215.21 1.77271 0)
(215.252 2.3793 0)
(215.28 3.0116 0)
(215.293 3.67019 0)
(215.289 4.35497 0)
(215.269 5.06328 0)
(215.227 5.8025 0)
(215.17 6.5668 0)
(215.096 7.35685 0)
(215.006 8.17367 0)
(214.897 9.01798 0)
(214.771 9.89019 0)
(214.627 10.7906 0)
(214.465 11.7195 0)
(214.285 12.6771 0)
(214.089 13.664 0)
(213.876 14.6808 0)
(213.647 15.7283 0)
(213.401 16.8075 0)
(213.139 17.9188 0)
(212.864 19.0629 0)
(212.576 20.2404 0)
(212.276 21.4525 0)
(211.967 22.7001 0)
(211.65 23.9848 0)
(211.325 25.3075 0)
(210.996 26.6697 0)
(210.665 28.0732 0)
(210.332 29.5202 0)
(210.002 31.0122 0)
(209.679 32.5491 0)
(209.366 34.133 0)
(209.067 35.7676 0)
(208.775 37.4586 0)
(208.523 39.1962 0)
(208.286 40.9955 0)
(208.097 42.8501 0)
(207.942 44.7689 0)
(207.838 46.7494 0)
(207.791 48.7964 0)
(207.806 50.9105 0)
(207.904 53.095 0)
(208.083 55.3497 0)
(208.378 57.6772 0)
(208.772 60.0764 0)
(209.324 62.5496 0)
(209.994 65.0932 0)
(210.867 67.7052 0)
(211.887 70.382 0)
(213.155 73.1171 0)
(214.606 75.9125 0)
(216.364 78.7485 0)
(218.326 81.6289 0)
(220.693 84.4914 0)
(223.258 87.3712 0)
(226.335 90.1673 0)
(229.572 92.9993 0)
(233.426 95.646 0)
(237.445 98.311 0)
(242.076 100.683 0)
(246.944 103.034 0)
(252.362 105.089 0)
(258.193 106.908 0)
(264.515 108.505 0)
(271.143 109.739 0)
(277.732 110.599 0)
(285.334 111.151 0)
(292.078 111.223 0)
(300.046 111.027 0)
(307.527 110.372 0)
(314.407 109.487 0)
(321.713 108.206 0)
(327.845 107.171 0)
(334.775 105.404 0)
(339.403 103.898 0)
(343.834 101.821 0)
(349.569 99.4066 0)
(359.236 97.4109 0)
(362.697 102.662 0)
(151.758 34.7863 0)
(189.986 -5.42318 0)
(197.038 -8.02362 0)
(199.333 -7.08358 0)
(201.361 -7.30087 0)
(203.062 -7.15552 0)
(204.538 -7.05415 0)
(205.748 -6.9016 0)
(206.711 -6.74381 0)
(207.448 -6.59923 0)
(208.016 -6.51161 0)
(208.486 -6.45787 0)
(208.928 -6.43971 0)
(209.349 -6.42975 0)
(209.731 -6.41538 0)
(210.062 -6.38111 0)
(210.342 -6.31971 0)
(210.576 -6.22866 0)
(210.774 -6.11058 0)
(210.941 -5.97021 0)
(211.082 -5.81006 0)
(211.208 -5.63416 0)
(211.333 -5.44626 0)
(211.471 -5.24966 0)
(211.634 -5.04542 0)
(211.826 -4.83289 0)
(212.046 -4.61033 0)
(212.287 -4.37573 0)
(212.539 -4.12609 0)
(212.792 -3.85825 0)
(213.041 -3.57029 0)
(213.28 -3.26111 0)
(213.506 -2.93029 0)
(213.716 -2.5767 0)
(213.908 -2.19993 0)
(214.077 -1.79916 0)
(214.227 -1.37433 0)
(214.358 -0.925841 0)
(214.469 -0.453442 0)
(214.562 0.0432388 0)
(214.644 0.563498 0)
(214.709 1.10804 0)
(214.752 1.67802 0)
(214.777 2.27335 0)
(214.788 2.89405 0)
(214.784 3.53955 0)
(214.763 4.20884 0)
(214.718 4.90848 0)
(214.657 5.63184 0)
(214.578 6.38085 0)
(214.482 7.15578 0)
(214.368 7.95698 0)
(214.236 8.7848 0)
(214.086 9.63963 0)
(213.916 10.522 0)
(213.728 11.4321 0)
(213.522 12.3706 0)
(213.297 13.3377 0)
(213.054 14.3339 0)
(212.794 15.3602 0)
(212.515 16.4174 0)
(212.219 17.506 0)
(211.908 18.6268 0)
(211.581 19.7804 0)
(211.241 20.9677 0)
(210.889 22.1897 0)
(210.526 23.4478 0)
(210.152 24.7435 0)
(209.771 26.0781 0)
(209.383 27.453 0)
(208.991 28.8694 0)
(208.599 30.3291 0)
(208.206 31.8348 0)
(207.817 33.3884 0)
(207.437 34.9914 0)
(207.07 36.6412 0)
(206.726 38.3433 0)
(206.38 40.1144 0)
(206.086 41.9267 0)
(205.811 43.8072 0)
(205.584 45.7484 0)
(205.4 47.7571 0)
(205.269 49.8321 0)
(205.206 51.978 0)
(205.21 54.1945 0)
(205.312 56.4859 0)
(205.497 58.8506 0)
(205.82 61.2936 0)
(206.241 63.8118 0)
(206.842 66.4104 0)
(207.565 69.0862 0)
(208.505 71.8395 0)
(209.605 74.6663 0)
(210.978 77.5527 0)
(212.541 80.496 0)
(214.472 83.4669 0)
(216.602 86.4946 0)
(219.21 89.5173 0)
(222.004 92.5875 0)
(225.388 95.5491 0)
(228.958 98.5569 0)
(233.197 101.364 0)
(237.651 104.168 0)
(242.69 106.654 0)
(248.084 109.011 0)
(253.973 111.046 0)
(260.428 112.981 0)
(267.002 114.22 0)
(274.304 115.286 0)
(281.837 115.902 0)
(288.925 116.205 0)
(297.269 116.038 0)
(304.257 115.59 0)
(312.893 114.761 0)
(320.522 113.585 0)
(327.596 111.946 0)
(332.907 109.995 0)
(336.341 108.463 0)
(340.959 107.313 0)
(350.896 105.614 0)
(353.848 111.953 0)
(153.973 31.7382 0)
(191.238 -5.48781 0)
(197.746 -7.74903 0)
(199.816 -6.86965 0)
(201.676 -7.02851 0)
(203.275 -6.90832 0)
(204.697 -6.83031 0)
(205.881 -6.71735 0)
(206.806 -6.60556 0)
(207.474 -6.49823 0)
(207.955 -6.43075 0)
(208.35 -6.38123 0)
(208.752 -6.35718 0)
(209.171 -6.34582 0)
(209.574 -6.33437 0)
(209.93 -6.30698 0)
(210.228 -6.2533 0)
(210.469 -6.1688 0)
(210.666 -6.05628 0)
(210.827 -5.92066 0)
(210.96 -5.76529 0)
(211.077 -5.59385 0)
(211.189 -5.40989 0)
(211.311 -5.21646 0)
(211.453 -5.01477 0)
(211.62 -4.80452 0)
(211.814 -4.58442 0)
(212.032 -4.35299 0)
(212.264 -4.10751 0)
(212.501 -3.84474 0)
(212.735 -3.56246 0)
(212.96 -3.25944 0)
(213.174 -2.93517 0)
(213.371 -2.58862 0)
(213.551 -2.21932 0)
(213.71 -1.82633 0)
(213.847 -1.40978 0)
(213.965 -0.969933 0)
(214.062 -0.506545 0)
(214.141 -0.0197133 0)
(214.208 0.489961 0)
(214.254 1.02364 0)
(214.277 1.58206 0)
(214.286 2.16494 0)
(214.281 2.77142 0)
(214.26 3.40171 0)
(214.215 4.06089 0)
(214.152 4.7433 0)
(214.071 5.45114 0)
(213.972 6.18417 0)
(213.854 6.9423 0)
(213.718 7.72578 0)
(213.564 8.53509 0)
(213.39 9.37078 0)
(213.196 10.2333 0)
(212.983 11.123 0)
(212.751 12.0402 0)
(212.499 12.9853 0)
(212.229 13.9587 0)
(211.94 14.9612 0)
(211.631 15.9938 0)
(211.303 17.057 0)
(210.958 18.1516 0)
(210.597 19.278 0)
(210.219 20.4373 0)
(209.827 21.6304 0)
(209.422 22.8586 0)
(209.004 24.1232 0)
(208.574 25.4257 0)
(208.136 26.7673 0)
(207.689 28.1499 0)
(207.237 29.575 0)
(206.781 31.0445 0)
(206.324 32.56 0)
(205.869 34.1241 0)
(205.42 35.7393 0)
(204.979 37.4085 0)
(204.556 39.1267 0)
(204.156 40.9031 0)
(203.758 42.751 0)
(203.409 44.6496 0)
(203.088 46.6193 0)
(202.812 48.6572 0)
(202.587 50.7695 0)
(202.417 52.9558 0)
(202.326 55.2207 0)
(202.304 57.5634 0)
(202.399 59.9911 0)
(202.576 62.5002 0)
(202.912 65.0986 0)
(203.351 67.779 0)
(203.991 70.5452 0)
(204.773 73.3918 0)
(205.8 76.3162 0)
(207 79.3165 0)
(208.525 82.3793 0)
(210.234 85.5133 0)
(212.376 88.6713 0)
(214.7 91.8773 0)
(217.572 95.0396 0)
(220.626 98.2514 0)
(224.313 101.341 0)
(228.22 104.465 0)
(232.804 107.361 0)
(237.67 110.242 0)
(243.125 112.809 0)
(248.987 115.175 0)
(255.526 117.218 0)
(262.078 118.795 0)
(269.678 120.395 0)
(276.733 121.154 0)
(284.878 121.703 0)
(292.918 121.781 0)
(300.373 121.73 0)
(309.178 121.309 0)
(316.666 120.334 0)
(323.253 118.661 0)
(329.128 115.647 0)
(333.746 114.276 0)
(344.341 112.769 0)
(346.89 120.78 0)
(156.388 28.5663 0)
(192.495 -5.54684 0)
(198.4 -7.34549 0)
(200.283 -6.57011 0)
(201.991 -6.70236 0)
(203.518 -6.63692 0)
(204.911 -6.60986 0)
(206.071 -6.54921 0)
(206.939 -6.47719 0)
(207.519 -6.39889 0)
(207.895 -6.34403 0)
(208.213 -6.29868 0)
(208.572 -6.27212 0)
(208.986 -6.26112 0)
(209.409 -6.25394 0)
(209.789 -6.23444 0)
(210.104 -6.18976 0)
(210.352 -6.11254 0)
(210.546 -6.0061 0)
(210.702 -5.8759 0)
(210.829 -5.7263 0)
(210.939 -5.56013 0)
(211.042 -5.38086 0)
(211.15 -5.19131 0)
(211.271 -4.99291 0)
(211.413 -4.78564 0)
(211.581 -4.56858 0)
(211.774 -4.34079 0)
(211.985 -4.0999 0)
(212.205 -3.84272 0)
(212.423 -3.56673 0)
(212.633 -3.27053 0)
(212.833 -2.95346 0)
(213.018 -2.61464 0)
(213.186 -2.25346 0)
(213.332 -1.8689 0)
(213.458 -1.46123 0)
(213.563 -1.0305 0)
(213.646 -0.576571 0)
(213.712 -0.100016 0)
(213.763 0.398913 0)
(213.789 0.921576 0)
(213.795 1.46813 0)
(213.789 2.03698 0)
(213.768 2.62925 0)
(213.723 3.24915 0)
(213.66 3.89205 0)
(213.578 4.55986 0)
(213.477 5.25233 0)
(213.356 5.96931 0)
(213.217 6.71075 0)
(213.058 7.47689 0)
(212.88 8.26821 0)
(212.683 9.08517 0)
(212.465 9.92823 0)
(212.226 10.7978 0)
(211.967 11.6941 0)
(211.689 12.6176 0)
(211.39 13.5688 0)
(211.07 14.5483 0)
(210.731 15.5569 0)
(210.371 16.5955 0)
(209.992 17.6647 0)
(209.594 18.7651 0)
(209.178 19.8974 0)
(208.746 21.0626 0)
(208.298 22.262 0)
(207.834 23.4968 0)
(207.357 24.7685 0)
(206.866 26.0783 0)
(206.365 27.428 0)
(205.854 28.8188 0)
(205.336 30.2529 0)
(204.811 31.7322 0)
(204.285 33.2586 0)
(203.758 34.8338 0)
(203.236 36.4599 0)
(202.721 38.141 0)
(202.216 39.8797 0)
(201.729 41.6719 0)
(201.269 43.5263 0)
(200.817 45.4544 0)
(200.41 47.4419 0)
(200.041 49.5022 0)
(199.717 51.6374 0)
(199.457 53.8517 0)
(199.25 56.1449 0)
(199.141 58.5242 0)
(199.098 60.9859 0)
(199.19 63.5413 0)
(199.364 66.1841 0)
(199.713 68.9258 0)
(200.177 71.7613 0)
(200.852 74.6954 0)
(201.674 77.7231 0)
(202.783 80.8397 0)
(204.065 84.0391 0)
(205.743 87.2958 0)
(207.598 90.6255 0)
(209.959 93.9869 0)
(212.506 97.4255 0)
(215.654 100.811 0)
(219.013 104.235 0)
(223.035 107.521 0)
(227.323 110.821 0)
(232.289 113.838 0)
(237.612 116.75 0)
(243.488 119.364 0)
(249.956 121.881 0)
(256.784 123.869 0)
(264.385 125.522 0)
(271.554 126.69 0)
(279.963 127.703 0)
(287.215 128.1 0)
(296.006 128.085 0)
(303.872 127.594 0)
(311.074 126.54 0)
(317.625 125.032 0)
(324.14 123.605 0)
(335.734 122.164 0)
(338.958 129.725 0)
(159.138 25.3689 0)
(193.791 -5.56254 0)
(199.13 -7.04757 0)
(200.836 -6.37413 0)
(202.4 -6.45962 0)
(203.816 -6.40609 0)
(205.123 -6.3836 0)
(206.214 -6.33621 0)
(207.008 -6.29205 0)
(207.509 -6.2628 0)
(207.818 -6.24682 0)
(208.083 -6.21662 0)
(208.406 -6.18928 0)
(208.808 -6.17498 0)
(209.244 -6.16796 0)
(209.649 -6.15287 0)
(209.984 -6.11525 0)
(210.24 -6.04428 0)
(210.433 -5.94298 0)
(210.582 -5.81775 0)
(210.705 -5.67396 0)
(210.807 -5.51353 0)
(210.9 -5.33979 0)
(210.993 -5.1552 0)
(211.094 -4.96148 0)
(211.212 -4.75861 0)
(211.353 -4.54583 0)
(211.519 -4.32255 0)
(211.706 -4.08691 0)
(211.905 -3.83586 0)
(212.106 -3.5667 0)
(212.301 -3.27786 0)
(212.485 -2.96847 0)
(212.656 -2.63787 0)
(212.81 -2.28524 0)
(212.943 -1.90967 0)
(213.057 -1.51141 0)
(213.148 -1.09025 0)
(213.217 -0.646405 0)
(213.271 -0.180781 0)
(213.304 0.30702 0)
(213.309 0.81842 0)
(213.302 1.35068 0)
(213.282 1.90483 0)
(213.238 2.48608 0)
(213.175 3.08971 0)
(213.093 3.71742 0)
(212.991 4.36915 0)
(212.869 5.04491 0)
(212.728 5.74455 0)
(212.567 6.46801 0)
(212.387 7.21543 0)
(212.187 7.9872 0)
(211.967 8.78377 0)
(211.726 9.60565 0)
(211.463 10.4532 0)
(211.179 11.3269 0)
(210.875 12.2269 0)
(210.549 13.1537 0)
(210.202 14.1079 0)
(209.834 15.0903 0)
(209.444 16.1018 0)
(209.033 17.1429 0)
(208.602 18.2143 0)
(208.152 19.3166 0)
(207.683 20.4509 0)
(207.196 21.6181 0)
(206.691 22.8197 0)
(206.17 24.0569 0)
(205.633 25.3311 0)
(205.082 26.6438 0)
(204.517 27.9966 0)
(203.942 29.3913 0)
(203.356 30.8298 0)
(202.763 32.3143 0)
(202.164 33.8466 0)
(201.563 35.4292 0)
(200.963 37.064 0)
(200.368 38.7541 0)
(199.78 40.5033 0)
(199.203 42.3148 0)
(198.644 44.1867 0)
(198.113 46.1259 0)
(197.596 48.1423 0)
(197.115 50.232 0)
(196.684 52.3979 0)
(196.292 54.6473 0)
(195.983 56.9859 0)
(195.721 59.4114 0)
(195.576 61.9349 0)
(195.493 64.5496 0)
(195.563 67.2696 0)
(195.729 70.0856 0)
(196.082 73.0066 0)
(196.564 76.0263 0)
(197.298 79.1505 0)
(198.183 82.3715 0)
(199.412 85.6866 0)
(200.797 89.1004 0)
(202.634 92.5904 0)
(204.641 96.1637 0)
(207.214 99.7511 0)
(210.007 103.412 0)
(213.452 107.019 0)
(217.183 110.648 0)
(221.619 114.092 0)
(226.396 117.554 0)
(231.859 120.785 0)
(237.74 123.847 0)
(244.29 126.539 0)
(251.479 129.001 0)
(258.922 130.821 0)
(267.361 132.524 0)
(275.714 133.282 0)
(284.715 133.862 0)
(294.426 133.98 0)
(302.471 133.24 0)
(308.948 131.873 0)
(314.235 131.456 0)
(325.462 130.485 0)
(327.761 139.171 0)
(162.155 22.1949 0)
(195.146 -5.39533 0)
(199.811 -6.61454 0)
(201.353 -6.04873 0)
(202.768 -6.11075 0)
(204.067 -6.09792 0)
(205.281 -6.10708 0)
(206.313 -6.10442 0)
(207.054 -6.10803 0)
(207.503 -6.12045 0)
(207.778 -6.12978 0)
(208.005 -6.12274 0)
(208.278 -6.10184 0)
(208.646 -6.0867 0)
(209.077 -6.07941 0)
(209.497 -6.07007 0)
(209.847 -6.0417 0)
(210.112 -5.98006 0)
(210.305 -5.88641 0)
(210.452 -5.76783 0)
(210.572 -5.63009 0)
(210.669 -5.47528 0)
(210.754 -5.30671 0)
(210.834 -5.12703 0)
(210.919 -4.93836 0)
(211.014 -4.74061 0)
(211.128 -4.53284 0)
(211.267 -4.31468 0)
(211.429 -4.08472 0)
(211.606 -3.84018 0)
(211.788 -3.57826 0)
(211.966 -3.29719 0)
(212.135 -2.99594 0)
(212.29 -2.67403 0)
(212.429 -2.33045 0)
(212.55 -1.96451 0)
(212.65 -1.57626 0)
(212.726 -1.16529 0)
(212.783 -0.732215 0)
(212.824 -0.277912 0)
(212.836 0.198836 0)
(212.827 0.697195 0)
(212.81 1.21321 0)
(212.766 1.75776 0)
(212.705 2.3231 0)
(212.623 2.91182 0)
(212.522 3.52375 0)
(212.4 4.15912 0)
(212.258 4.81794 0)
(212.096 5.50013 0)
(211.915 6.20556 0)
(211.713 6.93429 0)
(211.491 7.68665 0)
(211.248 8.46307 0)
(210.983 9.26403 0)
(210.696 10.0899 0)
(210.387 10.9412 0)
(210.056 11.818 0)
(209.703 12.7209 0)
(209.328 13.6503 0)
(208.931 14.6071 0)
(208.511 15.592 0)
(208.068 16.6058 0)
(207.603 17.6489 0)
(207.117 18.7221 0)
(206.611 19.8262 0)
(206.084 20.9623 0)
(205.538 22.1316 0)
(204.972 23.3354 0)
(204.388 24.5749 0)
(203.787 25.8519 0)
(203.169 27.1675 0)
(202.537 28.5237 0)
(201.891 29.9221 0)
(201.233 31.3649 0)
(200.565 32.8541 0)
(199.89 34.3918 0)
(199.21 35.9801 0)
(198.529 37.6222 0)
(197.847 39.3203 0)
(197.172 41.0778 0)
(196.506 42.8983 0)
(195.851 44.7857 0)
(195.215 46.7395 0)
(194.609 48.7646 0)
(194.024 50.871 0)
(193.466 53.0611 0)
(192.979 55.3304 0)
(192.522 57.6911 0)
(192.166 60.1499 0)
(191.849 62.7032 0)
(191.665 65.366 0)
(191.55 68.1298 0)
(191.593 71.0111 0)
(191.737 74.0046 0)
(192.093 77.1229 0)
(192.573 80.3541 0)
(193.353 83.7065 0)
(194.277 87.1684 0)
(195.615 90.734 0)
(197.114 94.394 0)
(199.136 98.1236 0)
(201.356 101.946 0)
(204.175 105.782 0)
(207.264 109.676 0)
(211.029 113.513 0)
(215.118 117.411 0)
(219.936 121.119 0)
(225.14 124.758 0)
(231.038 128.08 0)
(237.457 131.211 0)
(244.624 134.076 0)
(251.972 136.337 0)
(260.471 138.53 0)
(268.158 139.971 0)
(278.05 141.504 0)
(285.752 141.889 0)
(294.242 140.614 0)
(300.713 139.694 0)
(313.241 138.829 0)
(315.163 148.608 0)
(165.297 19.0625 0)
(196.45 -5.46151 0)
(200.576 -6.23437 0)
(201.98 -5.76349 0)
(203.235 -5.7908 0)
(204.395 -5.7884 0)
(205.483 -5.82079 0)
(206.42 -5.85535 0)
(207.106 -5.91299 0)
(207.516 -5.97921 0)
(207.759 -6.02143 0)
(207.963 -6.0206 0)
(208.192 -6.01115 0)
(208.512 -5.99237 0)
(208.92 -5.98325 0)
(209.344 -5.97833 0)
(209.71 -5.95786 0)
(209.988 -5.90583 0)
(210.186 -5.81995 0)
(210.332 -5.70797 0)
(210.446 -5.57577 0)
(210.536 -5.42658 0)
(210.611 -5.26317 0)
(210.679 -5.08889 0)
(210.748 -4.90605 0)
(210.823 -4.71461 0)
(210.912 -4.51309 0)
(211.023 -4.30114 0)
(211.158 -4.07776 0)
(211.31 -3.84049 0)
(211.471 -3.58659 0)
(211.631 -3.31406 0)
(211.782 -3.0217 0)
(211.922 -2.70911 0)
(212.045 -2.37517 0)
(212.151 -2.01948 0)
(212.235 -1.64166 0)
(212.297 -1.24145 0)
(212.342 -0.819816 0)
(212.365 -0.376878 0)
(212.359 0.0880882 0)
(212.343 0.568739 0)
(212.303 1.07736 0)
(212.244 1.60544 0)
(212.164 2.15593 0)
(212.064 2.72879 0)
(211.943 3.32428 0)
(211.802 3.94254 0)
(211.64 4.58363 0)
(211.457 5.24747 0)
(211.255 5.93392 0)
(211.032 6.64295 0)
(210.788 7.37482 0)
(210.523 8.12989 0)
(210.236 8.90865 0)
(209.926 9.71149 0)
(209.593 10.5388 0)
(209.238 11.3909 0)
(208.859 12.2681 0)
(208.458 13.171 0)
(208.034 14.1002 0)
(207.586 15.0565 0)
(207.114 16.0405 0)
(206.618 17.053 0)
(206.1 18.0945 0)
(205.56 19.1658 0)
(204.997 20.2679 0)
(204.413 21.4019 0)
(203.808 22.5691 0)
(203.182 23.7707 0)
(202.536 25.0082 0)
(201.871 26.283 0)
(201.188 27.5969 0)
(200.487 28.9515 0)
(199.771 30.3489 0)
(199.039 31.791 0)
(198.296 33.2801 0)
(197.542 34.8183 0)
(196.78 36.4086 0)
(196.012 38.0533 0)
(195.242 39.7561 0)
(194.472 41.5195 0)
(193.707 43.3478 0)
(192.95 45.2447 0)
(192.205 47.2152 0)
(191.475 49.2602 0)
(190.776 51.3826 0)
(190.11 53.5928 0)
(189.45 55.9024 0)
(188.888 58.2957 0)
(188.341 60.791 0)
(187.916 63.3981 0)
(187.532 66.1101 0)
(187.287 68.942 0)
(187.119 71.8867 0)
(187.134 74.9597 0)
(187.252 78.149 0)
(187.628 81.4744 0)
(188.126 84.9204 0)
(188.982 88.5044 0)
(189.968 92.2147 0)
(191.418 96.0592 0)
(193.04 100.03 0)
(195.223 104.089 0)
(197.669 108.256 0)
(200.757 112.456 0)
(204.194 116.73 0)
(208.387 120.883 0)
(212.965 125.047 0)
(218.347 128.993 0)
(224.18 132.864 0)
(230.696 136.366 0)
(237.951 139.643 0)