/*--------------------------------*- C++ -*----------------------------------*\
| =========                 |                                                 |
| \\      /  F ield         | OpenFOAM: The Open Source CFD Toolbox           |
|  \\    /   O peration     | Version:  2406                                  |
|   \\  /    A nd           | Website:  www.openfoam.com                      |
|    \\/     M anipulation  |                                                 |
\*---------------------------------------------------------------------------*/
FoamFile
{
    version     2.0;
    format      ascii;
    arch        "LSB;label=32;scalar=64";
    class       volScalarField;
    location    "0.006";
    object      rho;
}
// * * * * * * * * * * * * * * * * * * * * * * * * * * * * * * * * * * * * * //

dimensions      [1 -3 0 0 0 0 0];

internalField   nonuniform List<scalar> 
78650
(
0.042133
0.042133
0.042133
0.042133
0.042133
0.042133
0.042133
0.042133
0.042133
0.042133
0.042133
0.042133
0.042133
0.042133
0.042133
0.042133
0.042133
0.042133
0.042133
0.042133
0.042133
0.042133
0.042133
0.042133
0.042133
0.0421332
0.0421402
0.0422442
0.0427111
0.0434403
0.0439032
0.0440534
0.0440349
0.0439836
0.0438869
0.0438007
0.0437305
0.0436712
0.0436108
0.0435505
0.0434913
0.0434337
0.0433779
0.0433252
0.0432763
0.0432307
0.0431872
0.0431454
0.0431048
0.0430647
0.0430244
0.0429834
0.0429414
0.0428981
0.0428532
0.0428068
0.0427592
0.0427104
0.0426598
0.0426063
0.0425499
0.0424903
0.0424259
0.0423544
0.0422748
0.042188
0.0420955
0.0419969
0.0418902
0.0417728
0.0416427
0.0414994
0.0413426
0.0411723
0.0409883
0.0407897
0.0405758
0.040346
0.0400999
0.0398365
0.0395556
0.039257
0.0389408
0.0386082
0.0382595
0.0378975
0.0375214
0.0371339
0.0367347
0.0363259
0.0359101
0.0354929
0.0350716
0.0346555
0.034242
0.0338347
0.0334404
0.0330487
0.032681
0.0323188
0.031981
0.0316514
0.0313353
0.031039
0.0307618
0.0305032
0.0302592
0.030025
0.0297995
0.0295924
0.0293969
0.0292132
0.029043
0.0288782
0.028727
0.028583
0.0284437
0.0283093
0.0281821
0.0280693
0.0278814
0.042133
0.042133
0.042133
0.042133
0.042133
0.042133
0.042133
0.042133
0.042133
0.042133
0.042133
0.042133
0.042133
0.042133
0.042133
0.042133
0.042133
0.042133
0.042133
0.042133
0.042133
0.042133
0.042133
0.042133
0.042133
0.0421331
0.0421366
0.0422025
0.0425797
0.0433068
0.0438643
0.044067
0.0440684
0.0440298
0.0439409
0.0438569
0.0437865
0.0437282
0.0436683
0.0436079
0.0435496
0.0434939
0.0434405
0.0433906
0.0433448
0.0433021
0.0432615
0.0432225
0.0431846
0.0431472
0.0431099
0.0430721
0.0430338
0.0429947
0.0429545
0.0429134
0.0428716
0.0428292
0.0427854
0.0427393
0.0426906
0.0426393
0.0425842
0.042523
0.0424542
0.0423786
0.0422977
0.0422117
0.0421189
0.0420168
0.0419031
0.041777
0.041638
0.0414864
0.0413218
0.0411433
0.0409504
0.0407422
0.040518
0.0402765
0.0400177
0.0397414
0.0394469
0.0391347
0.0388049
0.03846
0.0380997
0.0377271
0.0373404
0.0369432
0.0365368
0.0361231
0.0357062
0.0352851
0.0348663
0.0344506
0.0340436
0.0336383
0.0332498
0.0328664
0.0324964
0.0321432
0.0317902
0.0314602
0.0311441
0.0308489
0.0305726
0.0303103
0.030057
0.0298255
0.0296044
0.0293972
0.0292055
0.0290218
0.0288516
0.0286821
0.0285264
0.0283734
0.0282296
0.0280955
0.0278759
0.042133
0.042133
0.042133
0.042133
0.042133
0.042133
0.042133
0.042133
0.042133
0.042133
0.042133
0.042133
0.042133
0.042133
0.042133
0.042133
0.042133
0.042133
0.042133
0.042133
0.042133
0.042133
0.042133
0.042133
0.042133
0.0421331
0.0421347
0.0421738
0.0424623
0.0431579
0.0438003
0.0440742
0.0441009
0.0440724
0.0439942
0.0439144
0.0438433
0.0437851
0.0437252
0.0436651
0.0436081
0.0435545
0.0435038
0.0434569
0.0434141
0.0433744
0.0433366
0.0433002
0.0432648
0.0432302
0.0431958
0.0431613
0.0431266
0.0430916
0.0430563
0.0430205
0.0429845
0.0429483
0.0429112
0.0428724
0.0428312
0.0427878
0.0427414
0.04269
0.0426316
0.0425668
0.042497
0.0424229
0.0423432
0.0422554
0.0421569
0.0420469
0.0419248
0.0417907
0.0416446
0.0414856
0.0413131
0.0411262
0.040924
0.0407053
0.04047
0.0402174
0.0399468
0.039658
0.0393512
0.0390279
0.0386885
0.0383353
0.0379662
0.037584
0.0371882
0.0367827
0.0363685
0.0359474
0.0355233
0.0350991
0.0346769
0.0342598
0.0338467
0.0334485
0.0330545
0.0326863
0.0323178
0.0319636
0.0316283
0.0313021
0.0309971
0.0307136
0.03044
0.03018
0.0299366
0.0297052
0.029495
0.0292893
0.0290942
0.0289021
0.0287182
0.0285416
0.0283767
0.0282274
0.027974
0.042133
0.042133
0.042133
0.042133
0.042133
0.042133
0.042133
0.042133
0.042133
0.042133
0.042133
0.042133
0.042133
0.042133
0.042133
0.042133
0.042133
0.042133
0.042133
0.042133
0.042133
0.042133
0.042133
0.042133
0.042133
0.042133
0.0421337
0.0421549
0.0423598
0.0429912
0.0437084
0.0440724
0.044129
0.0441137
0.0440521
0.0439751
0.0439018
0.0438426
0.043783
0.0437236
0.0436684
0.0436172
0.0435693
0.0435253
0.0434854
0.0434483
0.0434129
0.0433788
0.0433458
0.0433137
0.043282
0.0432506
0.0432195
0.0431887
0.0431581
0.0431276
0.0430972
0.043067
0.0430366
0.0430047
0.0429708
0.0429351
0.0428972
0.0428553
0.0428074
0.0427533
0.0426944
0.0426321
0.0425653
0.0424919
0.0424091
0.0423156
0.0422109
0.042095
0.0419679
0.0418289
0.0416774
0.0415125
0.0413328
0.0411375
0.0409262
0.0406977
0.0404511
0.0401862
0.0399028
0.0396017
0.0392834
0.0389496
0.0385984
0.0382321
0.0378495
0.0374555
0.0370504
0.0366376
0.0362181
0.0357929
0.0353655
0.0349392
0.0345127
0.0340985
0.0336871
0.0332827
0.0328988
0.0325142
0.0321513
0.0317871
0.0314453
0.0311292
0.0308309
0.030548
0.0302814
0.0300251
0.0297878
0.0295639
0.0293618
0.0291563
0.028965
0.0287777
0.0285967
0.0284266
0.0281383
0.042133
0.042133
0.042133
0.042133
0.042133
0.042133
0.042133
0.042133
0.042133
0.042133
0.042133
0.042133
0.042133
0.042133
0.042133
0.042133
0.042133
0.042133
0.042133
0.042133
0.042133
0.042133
0.042133
0.042133
0.042133
0.042133
0.0421333
0.0421437
0.0422778
0.0428179
0.0435879
0.0440518
0.0441511
0.0441574
0.0441127
0.044036
0.0439602
0.0438998
0.0438409
0.0437828
0.0437298
0.0436814
0.0436363
0.0435952
0.043558
0.0435235
0.0434904
0.0434584
0.0434276
0.043398
0.0433692
0.043341
0.0433135
0.0432869
0.043261
0.0432357
0.043211
0.0431867
0.0431627
0.0431377
0.0431109
0.0430825
0.0430526
0.0430197
0.0429818
0.0429379
0.0428896
0.0428382
0.0427835
0.0427234
0.0426552
0.0425772
0.0424887
0.0423899
0.0422806
0.0421605
0.0420291
0.0418852
0.0417278
0.0415557
0.0413684
0.0411646
0.0409433
0.0407044
0.0404473
0.040172
0.0398792
0.0395696
0.0392419
0.0388972
0.0385344
0.0381586
0.0377688
0.0373682
0.0369557
0.0365347
0.0361089
0.0356782
0.0352484
0.0348126
0.0343898
0.0339666
0.0335689
0.033161
0.0327657
0.0323776
0.0319996
0.0316509
0.0313141
0.0309925
0.0306947
0.0304007
0.0301259
0.0298642
0.0296203
0.0293853
0.0291625
0.0289508
0.0287503
0.0285685
0.0282472
0.042133
0.042133
0.042133
0.042133
0.042133
0.042133
0.042133
0.042133
0.042133
0.042133
0.042133
0.042133
0.042133
0.042133
0.042133
0.042133
0.042133
0.042133
0.042133
0.042133
0.042133
0.042133
0.042133
0.042133
0.042133
0.042133
0.0421331
0.0421376
0.042217
0.0426456
0.0434277
0.044006
0.044173
0.0442043
0.0441687
0.0440963
0.0440193
0.0439579
0.0439006
0.0438446
0.0437942
0.0437485
0.0437062
0.0436678
0.043633
0.0436006
0.0435694
0.0435392
0.0435105
0.0434831
0.0434571
0.0434322
0.0434085
0.043386
0.0433649
0.0433448
0.0433255
0.043307
0.043289
0.0432706
0.0432508
0.0432295
0.0432072
0.0431829
0.0431547
0.0431211
0.0430833
0.0430428
0.0429998
0.0429529
0.0428993
0.0428371
0.0427652
0.0426838
0.0425927
0.0424919
0.0423809
0.0422586
0.0421237
0.0419753
0.0418124
0.0416337
0.0414383
0.0412257
0.0409949
0.0407455
0.0404779
0.0401926
0.0398886
0.0395664
0.0392261
0.0388709
0.0384993
0.0381148
0.0377155
0.0373058
0.0368869
0.036461
0.0360294
0.0355949
0.0351629
0.0347334
0.0343081
0.0338915
0.0334758
0.0330825
0.0326896
0.0323112
0.0319492
0.0315972
0.0312735
0.0309542
0.0306546
0.0303649
0.0300906
0.0298196
0.0295552
0.0292953
0.0290503
0.0288297
0.0284506
0.042133
0.042133
0.042133
0.042133
0.042133
0.042133
0.042133
0.042133
0.042133
0.042133
0.042133
0.042133
0.042133
0.042133
0.042133
0.042133
0.042133
0.042133
0.042133
0.042133
0.042133
0.042133
0.042133
0.042133
0.042133
0.042133
0.0421331
0.0421348
0.0421767
0.0424882
0.0432378
0.0439269
0.0441832
0.044245
0.0442235
0.0441567
0.0440798
0.0440175
0.0439618
0.0439081
0.0438605
0.0438177
0.0437782
0.0437423
0.0437097
0.043679
0.0436494
0.0436208
0.043594
0.0435691
0.043546
0.0435246
0.0435047
0.0434865
0.04347
0.043455
0.0434411
0.0434282
0.0434161
0.0434041
0.043391
0.0433767
0.0433616
0.0433454
0.0433263
0.0433026
0.0432748
0.0432444
0.0432125
0.0431777
0.0431377
0.04309
0.0430337
0.0429684
0.0428943
0.0428116
0.0427197
0.0426177
0.0425045
0.0423788
0.0422398
0.042086
0.0419168
0.0417312
0.0415281
0.0413069
0.0410679
0.040811
0.0405356
0.0402421
0.0399298
0.0395998
0.0392508
0.0388862
0.0385036
0.0381078
0.0376981
0.0372792
0.0368517
0.0364169
0.0359753
0.0355335
0.035091
0.0346587
0.0342275
0.0338081
0.0333965
0.0329831
0.032596
0.0322121
0.0318517
0.0315136
0.0311893
0.0308804
0.0305982
0.0303102
0.030048
0.0297883
0.0295336
0.0292983
0.0288759
0.042133
0.042133
0.042133
0.042133
0.042133
0.042133
0.042133
0.042133
0.042133
0.042133
0.042133
0.042133
0.042133
0.042133
0.042133
0.042133
0.042133
0.042133
0.042133
0.042133
0.042133
0.042133
0.042133
0.042133
0.042133
0.042133
0.042133
0.0421336
0.0421531
0.0423569
0.0430219
0.0438055
0.044183
0.0442834
0.0442736
0.0442162
0.0441422
0.0440788
0.0440253
0.0439748
0.0439305
0.0438906
0.0438534
0.0438191
0.0437878
0.0437582
0.0437298
0.0437029
0.0436781
0.0436557
0.0436359
0.043618
0.043602
0.0435881
0.0435762
0.0435661
0.0435574
0.0435499
0.0435433
0.0435373
0.0435307
0.043523
0.0435149
0.0435063
0.0434959
0.0434819
0.0434641
0.0434438
0.0434225
0.0433996
0.0433729
0.0433399
0.0432991
0.0432501
0.0431933
0.0431287
0.043056
0.0429746
0.0428831
0.0427805
0.0426656
0.042537
0.0423939
0.0422353
0.0420599
0.0418668
0.0416561
0.0414273
0.0411801
0.0409146
0.0406295
0.0403246
0.0400002
0.0396589
0.0392991
0.0389249
0.0385348
0.0381332
0.0377185
0.0372929
0.0368586
0.0364175
0.0359754
0.0355276
0.0350865
0.0346434
0.0342205
0.0337784
0.0333553
0.0329309
0.0325247
0.0321447
0.0317762
0.0314234
0.0310886
0.0307608
0.030466
0.0301862
0.0299223
0.0296806
0.0292331
0.042133
0.042133
0.042133
0.042133
0.042133
0.042133
0.042133
0.042133
0.042133
0.042133
0.042133
0.042133
0.042133
0.042133
0.042133
0.042133
0.042133
0.042133
0.042133
0.042133
0.042133
0.042133
0.042133
0.042133
0.042133
0.042133
0.042133
0.0421332
0.042141
0.0422594
0.0427988
0.0436376
0.0441559
0.0443131
0.0443214
0.0442759
0.0442063
0.0441423
0.0440918
0.044045
0.0440035
0.0439654
0.0439294
0.0438962
0.0438658
0.0438373
0.0438102
0.043785
0.0437624
0.0437429
0.0437263
0.0437122
0.0437002
0.0436905
0.0436831
0.0436778
0.0436741
0.0436717
0.0436706
0.0436703
0.04367
0.0436688
0.0436672
0.0436658
0.0436635
0.0436587
0.0436506
0.0436399
0.0436285
0.0436164
0.0436019
0.0435824
0.0435562
0.0435224
0.0434815
0.0434337
0.0433789
0.0433166
0.0432455
0.0431646
0.0430727
0.0429684
0.042851
0.0427191
0.0425717
0.042408
0.0422273
0.0420291
0.0418134
0.0415795
0.041326
0.041052
0.0407588
0.0404477
0.0401175
0.0397701
0.0394033
0.0390212
0.0386225
0.0382109
0.0377856
0.0373505
0.0369082
0.0364634
0.0360164
0.0355681
0.0351215
0.0346791
0.0342391
0.0338106
0.0333783
0.0329677
0.0325671
0.0321824
0.0318092
0.0314282
0.0310692
0.0307233
0.0303994
0.0301005
0.0295671
0.042133
0.042133
0.042133
0.042133
0.042133
0.042133
0.042133
0.042133
0.042133
0.042133
0.042133
0.042133
0.042133
0.042133
0.042133
0.042133
0.042133
0.042133
0.042133
0.042133
0.042133
0.042133
0.042133
0.042133
0.042133
0.042133
0.042133
0.0421331
0.0421358
0.0421958
0.0425893
0.0434224
0.0440872
0.0443343
0.0443639
0.0443324
0.0442715
0.0442096
0.0441624
0.044118
0.0440775
0.0440401
0.0440051
0.0439727
0.0439433
0.043916
0.0438905
0.0438674
0.0438474
0.043831
0.0438178
0.0438074
0.0437993
0.0437935
0.0437905
0.0437898
0.0437908
0.0437933
0.0437972
0.0438023
0.0438078
0.0438127
0.0438176
0.0438229
0.0438283
0.043832
0.0438332
0.0438324
0.0438305
0.0438289
0.043826
0.0438198
0.0438081
0.0437894
0.0437644
0.0437333
0.0436961
0.0436528
0.0436019
0.0435427
0.0434737
0.0433936
0.0433016
0.0431962
0.0430764
0.0429414
0.0427902
0.0426219
0.0424364
0.0422331
0.0420104
0.041768
0.0415067
0.0412267
0.0409264
0.0406067
0.0402656
0.0399073
0.0395306
0.0391395
0.0387315
0.0383109
0.0378785
0.037438
0.0369896
0.0365344
0.0360781
0.0356272
0.0351787
0.0347332
0.0342839
0.0338446
0.0334259
0.0330257
0.0326558
0.032273
0.0319212
0.0315665
0.0312366
0.0309384
0.0304157
0.042133
0.042133
0.042133
0.042133
0.042133
0.042133
0.042133
0.042133
0.042133
0.042133
0.042133
0.042133
0.042133
0.042133
0.042133
0.042133
0.042133
0.042133
0.042133
0.042133
0.042133
0.042133
0.042133
0.042133
0.042133
0.042133
0.042133
0.0421331
0.0421339
0.0421601
0.0424146
0.0431703
0.0439696
0.0443376
0.0443984
0.0443869
0.0443393
0.0442805
0.0442332
0.0441894
0.0441501
0.0441141
0.0440803
0.0440489
0.0440204
0.0439943
0.0439707
0.04395
0.0439329
0.0439197
0.0439099
0.0439032
0.0438988
0.0438968
0.0438975
0.0439014
0.0439069
0.0439139
0.0439225
0.0439328
0.0439438
0.0439547
0.0439656
0.0439773
0.04399
0.044002
0.0440117
0.0440198
0.0440275
0.0440357
0.0440436
0.0440489
0.0440503
0.0440461
0.044036
0.0440205
0.0439995
0.0439735
0.0439413
0.0439022
0.0438546
0.0437974
0.0437296
0.0436498
0.0435571
0.0434508
0.0433294
0.0431922
0.0430388
0.0428686
0.0426804
0.0424737
0.042248
0.0420021
0.0417351
0.0414475
0.0411381
0.0408097
0.0404618
0.0400971
0.0397126
0.0393116
0.0388933
0.0384627
0.0380209
0.0375697
0.03711
0.0366444
0.0361795
0.0357054
0.0352393
0.0347619
0.0343015
0.0338473
0.033408
0.0329822
0.0325539
0.0321518
0.0317606
0.0314032
0.0307705
0.042133
0.042133
0.042133
0.042133
0.042133
0.042133
0.042133
0.042133
0.042133
0.042133
0.042133
0.042133
0.042133
0.042133
0.042133
0.042133
0.042133
0.042133
0.042133
0.042133
0.042133
0.042133
0.042133
0.042133
0.042133
0.042133
0.042133
0.042133
0.0421333
0.042143
0.0422869
0.0429057
0.0437938
0.0443134
0.0444282
0.0444494
0.0444078
0.044348
0.0443002
0.0442595
0.0442229
0.044188
0.0441546
0.0441236
0.0440961
0.044072
0.0440509
0.0440334
0.0440196
0.0440095
0.044003
0.0439997
0.0439987
0.0440001
0.0440046
0.0440119
0.0440215
0.0440328
0.0440459
0.0440608
0.044077
0.0440935
0.0441101
0.0441278
0.0441473
0.0441671
0.0441854
0.0442021
0.0442186
0.0442363
0.0442547
0.0442718
0.0442853
0.0442943
0.0442985
0.0442988
0.0442938
0.0442849
0.0442711
0.0442515
0.0442248
0.04419
0.0441458
0.0440908
0.0440245
0.0439457
0.0438531
0.0437457
0.0436231
0.0434846
0.0433293
0.0431564
0.0429641
0.0427514
0.0425186
0.0422661
0.0419929
0.0417005
0.0413877
0.0410561
0.0407037
0.0403328
0.0399418
0.0395355
0.0391138
0.0386802
0.0382333
0.037777
0.0373143
0.0368511
0.0363833
0.0359138
0.0354423
0.0349742
0.0345145
0.0341019
0.0336124
0.0331686
0.0327438
0.0323473
0.03164
0.042133
0.042133
0.042133
0.042133
0.042133
0.042133
0.042133
0.042133
0.042133
0.042133
0.042133
0.042133
0.042133
0.042133
0.042133
0.042133
0.042133
0.042133
0.042133
0.042133
0.042133
0.042133
0.042133
0.042133
0.042133
0.042133
0.042133
0.042133
0.0421331
0.0421362
0.0422065
0.0426576
0.0435618
0.0442452
0.0444525
0.0445032
0.0444696
0.044411
0.0443664
0.0443303
0.0442956
0.0442609
0.0442274
0.044197
0.0441714
0.0441501
0.0441323
0.0441181
0.0441073
0.0440998
0.044096
0.0440953
0.0440975
0.044102
0.0441095
0.0441204
0.0441338
0.0441492
0.0441664
0.0441857
0.0442068
0.0442287
0.0442507
0.0442741
0.0442998
0.0443271
0.0443535
0.0443784
0.0444032
0.0444295
0.0444574
0.0444853
0.0445106
0.0445322
0.0445495
0.0445631
0.0445733
0.0445798
0.0445827
0.0445811
0.0445735
0.0445598
0.0445379
0.0445062
0.0444651
0.0444127
0.0443483
0.0442708
0.0441795
0.0440738
0.0439527
0.043815
0.043659
0.043484
0.0432905
0.043078
0.0428448
0.0425908
0.0423143
0.0420165
0.0416964
0.0413554
0.0409914
0.0406083
0.0402062
0.0397895
0.0393558
0.0389087
0.0384486
0.0379825
0.0375126
0.0370376
0.036558
0.0360775
0.0356004
0.0351261
0.0346725
0.0342144
0.0337697
0.0333662
0.0326404
0.042133
0.042133
0.042133
0.042133
0.042133
0.042133
0.042133
0.042133
0.042133
0.042133
0.042133
0.042133
0.042133
0.042133
0.042133
0.042133
0.042133
0.042133
0.042133
0.042133
0.042133
0.042133
0.042133
0.042133
0.042133
0.042133
0.042133
0.042133
0.0421331
0.0421339
0.0421635
0.0424536
0.043288
0.0441245
0.0444639
0.0445443
0.0445257
0.0444771
0.0444375
0.044402
0.0443661
0.0443304
0.0442976
0.0442699
0.0442479
0.0442302
0.0442154
0.0442037
0.0441948
0.0441892
0.0441875
0.0441897
0.0441945
0.0442019
0.0442125
0.0442265
0.0442433
0.0442623
0.0442832
0.0443064
0.0443321
0.044359
0.0443864
0.0444151
0.0444466
0.0444808
0.0445151
0.044548
0.0445806
0.0446149
0.0446517
0.0446895
0.044726
0.0447595
0.0447895
0.0448165
0.0448407
0.0448623
0.044881
0.0448962
0.044907
0.0449125
0.0449128
0.0449033
0.0448866
0.0448596
0.0448217
0.0447725
0.0447106
0.0446353
0.044546
0.0444414
0.0443203
0.0441819
0.044026
0.043851
0.0436555
0.0434389
0.0431999
0.0429397
0.0426576
0.0423547
0.0420292
0.0416828
0.041315
0.0409287
0.0405232
0.0401012
0.0396599
0.0392056
0.038739
0.0382652
0.0377809
0.0372856
0.0367844
0.0362838
0.0357859
0.0352974
0.0347862
0.0343227
0.0335225
0.042133
0.042133
0.042133
0.042133
0.042133
0.042133
0.042133
0.042133
0.042133
0.042133
0.042133
0.042133
0.042133
0.042133
0.042133
0.042133
0.042133
0.042133
0.042133
0.042133
0.042133
0.042133
0.042133
0.042133
0.042133
0.042133
0.042133
0.042133
0.042133
0.0421333
0.042144
0.0423077
0.0430015
0.0439485
0.0444489
0.0445752
0.0445805
0.0445464
0.0445068
0.0444679
0.0444309
0.0443967
0.0443674
0.044344
0.0443258
0.0443106
0.0442973
0.0442868
0.044279
0.0442752
0.0442759
0.0442807
0.0442883
0.0442988
0.0443123
0.0443292
0.044349
0.0443712
0.0443955
0.0444224
0.0444521
0.0444838
0.0445164
0.0445503
0.0445873
0.0446278
0.0446695
0.0447101
0.0447502
0.0447919
0.0448367
0.0448835
0.0449302
0.0449747
0.0450164
0.0450555
0.0450924
0.0451276
0.0451608
0.0451917
0.0452194
0.0452427
0.0452609
0.045273
0.0452782
0.0452759
0.0452631
0.0452414
0.0452081
0.0451631
0.0451057
0.0450347
0.0449494
0.0448486
0.0447309
0.0445947
0.0444392
0.0442638
0.0440672
0.0438501
0.0436116
0.0433521
0.0430698
0.042765
0.0424361
0.0420855
0.0417139
0.0413231
0.0409103
0.0404796
0.0400301
0.0395718
0.0391007
0.0386206
0.0381252
0.0376218
0.0371118
0.0366164
0.0360853
0.0355948
0.0347533
0.042133
0.042133
0.042133
0.042133
0.042133
0.042133
0.042133
0.042133
0.042133
0.042133
0.042133
0.042133
0.042133
0.042133
0.042133
0.042133
0.042133
0.042133
0.042133
0.042133
0.042133
0.042133
0.042133
0.042133
0.042133
0.042133
0.042133
0.042133
0.042133
0.0421331
0.0421365
0.0422177
0.0427354
0.043721
0.0443964
0.0445973
0.0446355
0.0446118
0.0445701
0.0445278
0.0444933
0.0444642
0.0444399
0.04442
0.0444032
0.044388
0.0443747
0.0443651
0.0443592
0.0443576
0.0443616
0.044369
0.0443794
0.0443923
0.0444081
0.0444272
0.0444495
0.0444746
0.0445021
0.0445325
0.0445662
0.0446025
0.0446402
0.0446791
0.0447212
0.0447675
0.0448161
0.0448641
0.0449113
0.0449599
0.0450118
0.0450668
0.0451228
0.0451776
0.0452303
0.0452808
0.0453297
0.0453774
0.045424
0.0454693
0.0455126
0.045553
0.0455896
0.0456212
0.0456465
0.0456653
0.0456766
0.0456803
0.045674
0.0456571
0.0456296
0.0455894
0.045537
0.0454702
0.045388
0.045289
0.0451729
0.0450389
0.0448856
0.0447127
0.0445187
0.0443031
0.0440642
0.0438023
0.0435154
0.0432051
0.0428717
0.0425167
0.0421399
0.0417427
0.041324
0.0408902
0.0404389
0.0399779
0.0394991
0.0390095
0.0385034
0.0379915
0.0374683
0.036967
0.0361353
0.042133
0.042133
0.042133
0.042133
0.042133
0.042133
0.042133
0.042133
0.042133
0.042133
0.042133
0.042133
0.042133
0.042133
0.042133
0.042133
0.042133
0.042133
0.042133
0.042133
0.042133
0.042133
0.042133
0.042133
0.042133
0.042133
0.042133
0.042133
0.042133
0.0421331
0.042134
0.0421699
0.0425176
0.043457
0.0442981
0.0446107
0.0446843
0.0446665
0.0446265
0.0445854
0.044557
0.0445336
0.0445121
0.0444922
0.0444743
0.0444582
0.0444458
0.0444382
0.0444353
0.0444374
0.0444439
0.0444536
0.0444661
0.0444809
0.0444984
0.0445194
0.0445439
0.0445718
0.0446026
0.0446366
0.0446741
0.0447149
0.0447575
0.0448015
0.0448484
0.0449
0.0449547
0.0450095
0.0450635
0.0451184
0.0451768
0.0452389
0.0453032
0.0453675
0.0454301
0.0454911
0.0455507
0.0456097
0.0456683
0.0457265
0.0457837
0.0458392
0.045892
0.0459411
0.0459856
0.0460249
0.0460577
0.0460836
0.0461018
0.0461117
0.0461136
0.0461031
0.0460834
0.0460507
0.0460039
0.0459433
0.0458672
0.0457746
0.0456638
0.0455339
0.0453828
0.0452104
0.0450155
0.0447983
0.0445566
0.0442917
0.0440022
0.0436889
0.0433527
0.0429928
0.0426093
0.0422039
0.0417772
0.0413357
0.0408716
0.0403936
0.0398872
0.0393735
0.0388278
0.0382898
0.037462
0.042133
0.042133
0.042133
0.042133
0.042133
0.042133
0.042133
0.042133
0.042133
0.042133
0.042133
0.042133
0.042133
0.042133
0.042133
0.042133
0.042133
0.042133
0.042133
0.042133
0.042133
0.042133
0.042133
0.042133
0.042133
0.042133
0.042133
0.042133
0.042133
0.042133
0.0421333
0.0421477
0.0423602
0.0431831
0.0441582
0.0446131
0.0447218
0.0447096
0.0446811
0.0446455
0.0446223
0.0446014
0.044579
0.0445569
0.0445379
0.0445231
0.0445136
0.0445097
0.0445103
0.0445149
0.0445232
0.0445341
0.0445475
0.0445633
0.0445821
0.0446048
0.0446319
0.0446628
0.0446972
0.044735
0.0447765
0.0448215
0.0448688
0.0449175
0.0449689
0.0450249
0.045085
0.045146
0.0452062
0.0452669
0.0453309
0.0453994
0.0454711
0.0455438
0.0456156
0.045686
0.0457555
0.0458248
0.0458943
0.0459641
0.046034
0.0461031
0.0461707
0.0462358
0.0462976
0.0463552
0.0464079
0.0464552
0.0464962
0.0465298
0.0465558
0.0465732
0.0465818
0.0465819
0.0465666
0.0465417
0.0465018
0.0464468
0.0463758
0.0462871
0.0461795
0.0460527
0.0459057
0.0457379
0.0455474
0.0453347
0.045097
0.0448358
0.0445503
0.0442405
0.0439072
0.0435487
0.0431681
0.0427656
0.0423415
0.0418995
0.0414296
0.040948
0.0404211
0.0398881
0.0390992
0.042133
0.042133
0.042133
0.042133
0.042133
0.042133
0.042133
0.042133
0.042133
0.042133
0.042133
0.042133
0.042133
0.042133
0.042133
0.042133
0.042133
0.042133
0.042133
0.042133
0.042133
0.042133
0.042133
0.042133
0.042133
0.042133
0.042133
0.042133
0.042133
0.042133
0.0421331
0.0421386
0.0422592
0.0429284
0.0439847
0.0445973
0.0447458
0.0447491
0.0447377
0.0447068
0.0446851
0.0446629
0.0446377
0.044614
0.0445967
0.0445854
0.04458
0.0445794
0.0445826
0.0445884
0.044597
0.0446078
0.0446215
0.0446383
0.0446588
0.0446839
0.044714
0.0447486
0.0447868
0.0448284
0.0448737
0.0449226
0.044974
0.0450269
0.0450822
0.0451421
0.0452066
0.045273
0.0453387
0.0454047
0.0454739
0.0455479
0.0456261
0.0457063
0.0457862
0.0458652
0.0459435
0.0460219
0.046101
0.0461811
0.0462621
0.0463433
0.0464239
0.0465032
0.0465802
0.0466541
0.0467244
0.0467906
0.0468519
0.0469078
0.0469575
0.0470004
0.0470352
0.0470623
0.0470798
0.0470876
0.0470844
0.0470659
0.0470353
0.0469884
0.0469253
0.0468449
0.0467455
0.0466259
0.0464847
0.0463213
0.0461329
0.0459206
0.0456822
0.0454189
0.0451305
0.0448167
0.0444799
0.0441176
0.0437341
0.0433238
0.042888
0.0424243
0.041928
0.0413852
0.0406664
0.042133
0.042133
0.042133
0.042133
0.042133
0.042133
0.042133
0.042133
0.042133
0.042133
0.042133
0.042133
0.042133
0.042133
0.042133
0.042133
0.042133
0.042133
0.042133
0.042133
0.042133
0.042133
0.042133
0.042133
0.042133
0.042133
0.042133
0.042133
0.042133
0.042133
0.0421331
0.0421351
0.0422006
0.0427148
0.0437911
0.0445584
0.0447593
0.0447912
0.0447935
0.0447654
0.044741
0.0447159
0.0446892
0.0446671
0.0446538
0.044647
0.0446449
0.0446464
0.0446503
0.044656
0.0446637
0.0446743
0.0446886
0.0447071
0.0447303
0.0447587
0.0447925
0.0448308
0.0448728
0.0449179
0.0449664
0.0450185
0.0450733
0.0451296
0.0451882
0.0452512
0.0453193
0.0453902
0.0454608
0.0455316
0.0456054
0.0456843
0.0457682
0.0458549
0.0459421
0.0460288
0.0461149
0.0462014
0.046289
0.0463782
0.0464689
0.0465606
0.0466528
0.0467445
0.0468349
0.0469234
0.0470093
0.0470921
0.0471714
0.0472465
0.047317
0.0473821
0.0474413
0.047494
0.047539
0.0475752
0.0476022
0.0476185
0.0476244
0.0476159
0.0475931
0.0475548
0.0474981
0.0474231
0.047328
0.0472119
0.0470728
0.0469114
0.0467248
0.0465143
0.0462778
0.0460164
0.0457296
0.0454172
0.0450818
0.0447177
0.0443293
0.0439087
0.0434583
0.0429508
0.0422899
0.042133
0.042133
0.042133
0.042133
0.042133
0.042133
0.042133
0.042133
0.042133
0.042133
0.042133
0.042133
0.042133
0.042133
0.042133
0.042133
0.042133
0.042133
0.042133
0.042133
0.042133
0.042133
0.042133
0.042133
0.042133
0.042133
0.042133
0.042133
0.042133
0.042133
0.0421331
0.0421339
0.0421692
0.0425515
0.0435959
0.0444982
0.0447669
0.0448349
0.0448446
0.0448168
0.0447889
0.0447621
0.0447363
0.0447183
0.04471
0.0447066
0.0447064
0.0447081
0.0447111
0.0447157
0.0447227
0.0447337
0.0447499
0.0447714
0.0447982
0.0448303
0.0448678
0.0449096
0.0449548
0.0450028
0.0450537
0.045108
0.0451653
0.0452244
0.0452855
0.0453509
0.045422
0.0454966
0.0455716
0.0456469
0.0457248
0.0458081
0.0458969
0.0459894
0.046083
0.0461764
0.0462695
0.0463631
0.0464581
0.0465551
0.0466542
0.0467551
0.0468571
0.0469594
0.0470614
0.0471623
0.0472617
0.0473589
0.0474538
0.0475457
0.0476344
0.0477191
0.0477994
0.0478748
0.0479446
0.0480079
0.0480639
0.0481111
0.0481489
0.0481758
0.0481911
0.048195
0.0481807
0.0481527
0.0481066
0.0480411
0.0479563
0.0478501
0.0477203
0.0475672
0.0473879
0.0471838
0.0469522
0.0466954
0.0464117
0.0460973
0.0457536
0.045372
0.0449586
0.0444879
0.0438795
0.042133
0.042133
0.042133
0.042133
0.042133
0.042133
0.042133
0.042133
0.042133
0.042133
0.042133
0.042133
0.042133
0.042133
0.042133
0.042133
0.042133
0.042133
0.042133
0.042133
0.042133
0.042133
0.042133
0.042133
0.042133
0.042133
0.042133
0.042133
0.042133
0.042133
0.042133
0.0421334
0.0421531
0.0424363
0.0434181
0.044427
0.0447749
0.0448767
0.0448877
0.0448601
0.0448301
0.0448032
0.0447806
0.0447681
0.044764
0.0447624
0.0447621
0.0447628
0.044764
0.0447676
0.0447748
0.0447877
0.0448071
0.0448325
0.0448632
0.0448991
0.0449398
0.0449844
0.0450319
0.0450818
0.0451343
0.0451901
0.045249
0.0453101
0.0453734
0.0454409
0.0455144
0.0455922
0.0456713
0.0457506
0.0458325
0.0459197
0.0460129
0.0461104
0.0462095
0.0463087
0.0464079
0.0465078
0.0466092
0.046713
0.0468192
0.0469278
0.0470381
0.0471495
0.0472612
0.0473727
0.0474834
0.0475929
0.0477009
0.0478072
0.0479112
0.0480126
0.0481109
0.0482057
0.0482964
0.0483826
0.0484632
0.0485376
0.0486046
0.0486632
0.0487119
0.0487505
0.0487767
0.0487903
0.0487916
0.0487705
0.0487359
0.0486788
0.0486
0.0484989
0.0483719
0.0482205
0.0480414
0.0478382
0.0476068
0.047348
0.0470576
0.0467285
0.0463655
0.0459447
0.0454015
0.042133
0.042133
0.042133
0.042133
0.042133
0.042133
0.042133
0.042133
0.042133
0.042133
0.042133
0.042133
0.042133
0.042133
0.042133
0.042133
0.042133
0.042133
0.042133
0.042133
0.042133
0.042133
0.042133
0.042133
0.042133
0.042133
0.042133
0.042133
0.042133
0.042133
0.042133
0.0421333
0.0421453
0.0423607
0.0432723
0.0443576
0.0447852
0.0449133
0.0449238
0.0448971
0.0448665
0.044841
0.0448227
0.0448153
0.0448137
0.0448124
0.044811
0.0448099
0.0448095
0.0448131
0.0448219
0.0448379
0.0448611
0.0448905
0.0449248
0.0449637
0.0450068
0.0450532
0.045102
0.0451529
0.0452062
0.0452628
0.045323
0.0453858
0.045451
0.0455204
0.0455961
0.045677
0.0457598
0.045843
0.0459286
0.0460194
0.0461164
0.0462181
0.046322
0.0464263
0.0465307
0.046636
0.0467429
0.0468523
0.0469645
0.0470795
0.0471967
0.0473155
0.0474353
0.0475555
0.0476756
0.0477953
0.0479142
0.0480322
0.048149
0.0482642
0.0483776
0.0484887
0.0485972
0.0487026
0.0488044
0.0489018
0.0489939
0.04908
0.0491591
0.0492298
0.0492915
0.0493412
0.0493802
0.0494045
0.0494154
0.0494088
0.0493816
0.0493366
0.0492673
0.0491755
0.0490573
0.0489141
0.0487408
0.0485408
0.0483033
0.0480261
0.0477087
0.0473349
0.0468495
0.042133
0.042133
0.042133
0.042133
0.042133
0.042133
0.042133
0.042133
0.042133
0.042133
0.042133
0.042133
0.042133
0.042133
0.042133
0.042133
0.042133
0.042133
0.042133
0.042133
0.042133
0.042133
0.042133
0.042133
0.042133
0.042133
0.042133
0.042133
0.042133
0.042133
0.042133
0.0421332
0.0421418
0.042315
0.0431665
0.0443007
0.0447967
0.0449442
0.0449552
0.0449297
0.0448996
0.0448765
0.0448625
0.0448586
0.0448578
0.0448557
0.0448526
0.0448499
0.0448492
0.0448537
0.044865
0.0448846
0.0449117
0.0449444
0.0449815
0.0450223
0.0450667
0.045114
0.0451633
0.0452145
0.0452683
0.0453256
0.0453869
0.0454514
0.0455185
0.04559
0.045668
0.0457518
0.045838
0.0459249
0.0460139
0.046108
0.0462083
0.0463136
0.0464216
0.0465303
0.0466392
0.046749
0.0468605
0.0469746
0.0470917
0.0472118
0.0473346
0.0474594
0.0475857
0.0477129
0.0478406
0.0479684
0.0480961
0.0482235
0.0483505
0.0484768
0.0486023
0.0487265
0.0488492
0.0489702
0.049089
0.049205
0.0493176
0.0494261
0.0495298
0.0496277
0.049719
0.0498025
0.0498771
0.0499411
0.0499932
0.0500321
0.0500557
0.0500638
0.050049
0.050014
0.0499543
0.0498685
0.0497551
0.0496146
0.0494345
0.0492165
0.0489489
0.04863
0.0482109
0.042133
0.042133
0.042133
0.042133
0.042133
0.042133
0.042133
0.042133
0.042133
0.042133
0.042133
0.042133
0.042133
0.042133
0.042133
0.042133
0.042133
0.042133
0.042133
0.042133
0.042133
0.042133
0.042133
0.042133
0.042133
0.042133
0.042133
0.042133
0.042133
0.042133
0.042133
0.0421331
0.0421401
0.0422934
0.0431053
0.0442711
0.0448102
0.0449703
0.0449823
0.0449586
0.0449301
0.0449096
0.0448989
0.0448968
0.0448959
0.0448927
0.0448882
0.0448845
0.0448845
0.0448907
0.0449049
0.0449277
0.0449578
0.0449929
0.0450316
0.0450735
0.0451184
0.0451658
0.0452152
0.0452666
0.0453209
0.0453791
0.0454417
0.045508
0.0455773
0.045651
0.0457313
0.0458179
0.0459074
0.0459976
0.0460897
0.0461866
0.0462898
0.0463983
0.0465096
0.046622
0.0467346
0.0468481
0.0469634
0.0470813
0.0472023
0.0473265
0.0474536
0.0475832
0.0477145
0.0478472
0.0479808
0.048115
0.0482495
0.0483842
0.0485192
0.0486541
0.0487889
0.0489233
0.0490572
0.0491903
0.0493224
0.0494531
0.049582