/*--------------------------------*- C++ -*----------------------------------*\
| =========                 |                                                 |
| \\      /  F ield         | OpenFOAM: The Open Source CFD Toolbox           |
|  \\    /   O peration     | Version:  2406                                  |
|   \\  /    A nd           | Website:  www.openfoam.com                      |
|    \\/     M anipulation  |                                                 |
\*---------------------------------------------------------------------------*/
FoamFile
{
    version     2.0;
    format      ascii;
    arch        "LSB;label=32;scalar=64";
    class       volVectorField;
    location    "0.006";
    object      U;
}
// * * * * * * * * * * * * * * * * * * * * * * * * * * * * * * * * * * * * * //

dimensions      [0 1 -1 0 0 0 0];

internalField   nonuniform List<vector> 
78650
(
(210 -5.38482e-12 0)
(210 -5.72256e-12 0)
(210 -3.14397e-12 0)
(210 -2.45476e-12 0)
(210 -5.78976e-13 0)
(210 2.53923e-12 0)
(210 5.93576e-12 0)
(210 3.40769e-12 0)
(210 -4.97381e-12 0)
(210 -4.72657e-12 0)
(210 -3.61076e-12 0)
(210 -2.72076e-13 0)
(210 2.6184e-12 0)
(210 5.26727e-12 0)
(210 3.40672e-12 0)
(210 -1.74918e-12 0)
(210 2.03505e-12 0)
(210 -7.25451e-13 0)
(210 -5.81928e-12 0)
(210 -1.31479e-12 0)
(210 -6.83916e-13 0)
(210 2.44288e-12 0)
(210 3.09981e-10 0)
(210 4.32995e-08 0)
(210 5.05123e-06 0)
(209.999 0.000432204 0)
(209.952 0.0205097 0)
(209.265 0.350995 0)
(206.275 2.00034 0)
(201.773 4.73809 0)
(198.666 6.54327 0)
(198.096 7.17151 0)
(197.817 7.48982 0)
(198.134 7.59822 0)
(198.695 7.53432 0)
(199.217 7.54712 0)
(199.625 7.64018 0)
(200.002 7.79198 0)
(200.386 7.97731 0)
(200.745 8.22663 0)
(201.122 8.5342 0)
(201.487 8.88715 0)
(201.823 9.27754 0)
(202.157 9.70667 0)
(202.495 10.1683 0)
(202.817 10.6543 0)
(203.111 11.1676 0)
(203.397 11.7226 0)
(203.692 12.3305 0)
(203.999 12.9905 0)
(204.304 13.6951 0)
(204.601 14.4382 0)
(204.892 15.2219 0)
(205.189 16.0527 0)
(205.504 16.9358 0)
(205.842 17.8732 0)
(206.204 18.8631 0)
(206.586 19.8996 0)
(206.986 20.9735 0)
(207.404 22.08 0)
(207.842 23.223 0)
(208.306 24.4092 0)
(208.81 25.6395 0)
(209.372 26.909 0)
(210.003 28.2187 0)
(210.703 29.58 0)
(211.467 31.0039 0)
(212.298 32.4911 0)
(213.211 34.0284 0)
(214.215 35.5996 0)
(215.321 37.192 0)
(216.531 38.8018 0)
(217.858 40.4247 0)
(219.3 42.0617 0)
(220.863 43.7086 0)
(222.554 45.36 0)
(224.385 47.0077 0)
(226.361 48.644 0)
(228.492 50.255 0)
(230.764 51.8413 0)
(233.212 53.3748 0)
(235.811 54.8535 0)
(238.568 56.2657 0)
(241.49 57.5949 0)
(244.553 58.8497 0)
(247.767 59.9899 0)
(251.088 61.0562 0)
(254.549 61.9735 0)
(258.109 62.7966 0)
(261.77 63.4508 0)
(265.493 63.9949 0)
(269.287 64.4102 0)
(273.066 64.6934 0)
(276.858 64.8598 0)
(280.602 64.9114 0)
(284.229 64.8652 0)
(287.872 64.7241 0)
(291.26 64.4913 0)
(294.758 64.1875 0)
(297.781 63.8537 0)
(301.128 63.4717 0)
(303.86 63.0506 0)
(306.875 62.5364 0)
(309.461 62.0275 0)
(311.997 61.4883 0)
(314.259 61.0447 0)
(316.558 60.5499 0)
(318.577 60.086 0)
(320.496 59.639 0)
(322.359 59.1716 0)
(323.952 58.7834 0)
(325.456 58.4264 0)
(326.957 58.0232 0)
(328.207 57.7874 0)
(329.704 57.3603 0)
(330.591 57.0974 0)
(331.392 56.8118 0)
(332.404 56.6181 0)
(333.72 56.4215 0)
(335.409 56.2058 0)
(336.021 57.3228 0)
(210 -5.6132e-12 0)
(210 -5.18636e-12 0)
(210 -2.85614e-12 0)
(210 -4.82408e-12 0)
(210 -2.71724e-12 0)
(210 5.67144e-12 0)
(210 7.75373e-12 0)
(210 2.91328e-12 0)
(210 -4.30881e-12 0)
(210 -7.68715e-12 0)
(210 -9.20702e-13 0)
(210 -1.0497e-12 0)
(210 2.63906e-12 0)
(210 6.02398e-12 0)
(210 2.90196e-12 0)
(210 1.14813e-12 0)
(210 9.17717e-13 0)
(210 7.44243e-13 0)
(210 -1.53719e-12 0)
(210 -1.40198e-12 0)
(210 2.93922e-13 0)
(210 3.41361e-12 0)
(210 5.72343e-11 0)
(210 8.2562e-09 0)
(210 1.03221e-06 0)
(210 0.000113721 0)
(209.975 0.00832119 0)
(209.523 0.197995 0)
(207.035 1.45245 0)
(202.436 4.09153 0)
(198.834 6.19073 0)
(197.943 7.02535 0)
(197.501 7.3717 0)
(197.767 7.55702 0)
(198.279 7.5247 0)
(198.776 7.51521 0)
(199.177 7.59444 0)
(199.543 7.74993 0)
(199.909 7.94711 0)
(200.253 8.20288 0)
(200.613 8.51251 0)
(200.958 8.86102 0)
(201.268 9.24129 0)
(201.575 9.65875 0)
(201.886 10.1097 0)
(202.179 10.5855 0)
(202.443 11.0887 0)
(202.696 11.6342 0)
(202.957 12.2347 0)
(203.229 12.8898 0)
(203.498 13.5903 0)
(203.758 14.3274 0)
(204.007 15.1019 0)
(204.256 15.9212 0)
(204.517 16.7921 0)
(204.796 17.7177 0)
(205.096 18.6972 0)
(205.414 19.7255 0)
(205.745 20.7937 0)
(206.089 21.8953 0)
(206.448 23.032 0)
(206.826 24.2116 0)
(207.234 25.438 0)
(207.69 26.7084 0)
(208.209 28.0216 0)
(208.79 29.3866 0)
(209.429 30.8155 0)
(210.126 32.3134 0)
(210.896 33.8713 0)
(211.748 35.4744 0)
(212.691 37.11 0)
(213.734 38.7716 0)
(214.888 40.4552 0)
(216.148 42.1623 0)
(217.524 43.8888 0)
(219.02 45.6312 0)
(220.652 47.3832 0)
(222.426 49.136 0)
(224.347 50.8785 0)
(226.41 52.6073 0)
(228.651 54.2994 0)
(231.042 55.9547 0)
(233.597 57.5571 0)
(236.319 59.0902 0)
(239.192 60.5524 0)
(242.219 61.9175 0)
(245.359 63.2164 0)
(248.651 64.3778 0)
(252.027 65.46 0)
(255.525 66.3747 0)
(259.095 67.1991 0)
(262.723 67.8538 0)
(266.409 68.4155 0)
(270.107 68.8101 0)
(273.832 69.1125 0)
(277.46 69.2688 0)
(281.188 69.3683 0)
(284.609 69.3043 0)
(288.282 69.206 0)
(291.429 68.98 0)
(294.887 68.7553 0)
(298.001 68.4371 0)
(301.062 68.056 0)
(304.152 67.6455 0)
(306.886 67.2236 0)
(309.517 66.8422 0)
(312.147 66.4208 0)
(314.462 65.9683 0)
(316.647 65.5518 0)
(318.933 65.0565 0)
(320.705 64.6828 0)
(322.542 64.2371 0)
(324.188 63.8165 0)
(325.785 63.4332 0)
(327.841 62.9741 0)
(329.039 62.5954 0)
(329.727 62.1288 0)
(330.24 61.8201 0)
(331.259 61.5485 0)
(333.112 61.2333 0)
(333.81 62.5138 0)
(210 -2.97764e-12 0)
(210 2.81066e-12 0)
(210 -3.67497e-12 0)
(210 -9.1485e-13 0)
(210 2.731e-12 0)
(210 7.6925e-12 0)
(210 3.93333e-12 0)
(210 -7.02682e-13 0)
(210 -6.8647e-12 0)
(210 -5.37773e-12 0)
(210 -4.30811e-13 0)
(210 2.23096e-12 0)
(210 3.53351e-12 0)
(210 3.26359e-12 0)
(210 4.17979e-13 0)
(210 -1.71095e-12 0)
(210 4.24411e-13 0)
(210 2.13093e-12 0)
(210 -2.01031e-12 0)
(210 -1.37388e-12 0)
(210 1.79867e-12 0)
(210 3.27228e-12 0)
(210 1.83735e-11 0)
(210 2.65372e-09 0)
(210 3.55326e-07 0)
(210 4.13299e-05 0)
(209.988 0.00355349 0)
(209.721 0.108282 0)
(207.813 1.01696 0)
(203.402 3.44904 0)
(199.301 5.80304 0)
(197.818 6.87431 0)
(197.17 7.26876 0)
(197.406 7.53344 0)
(197.862 7.49607 0)
(198.326 7.44554 0)
(198.728 7.50719 0)
(199.089 7.66551 0)
(199.435 7.87241 0)
(199.761 8.1329 0)
(200.105 8.4432 0)
(200.427 8.78675 0)
(200.712 9.15765 0)
(200.993 9.56479 0)
(201.277 10.006 0)
(201.544 10.4729 0)
(201.778 10.9675 0)
(202 11.5052 0)
(202.227 12.0996 0)
(202.463 12.7512 0)
(202.696 13.4496 0)
(202.919 14.184 0)
(203.126 14.9535 0)
(203.327 15.7651 0)
(203.533 16.6266 0)
(203.754 17.5421 0)
(203.993 18.512 0)
(204.247 19.5321 0)
(204.51 20.594 0)
(204.782 21.69 0)
(205.064 22.8202 0)
(205.359 23.9916 0)
(205.675 25.2099 0)
(206.031 26.4734 0)
(206.441 27.7805 0)
(206.908 29.1388 0)
(207.427 30.5615 0)
(207.995 32.056 0)
(208.625 33.6159 0)
(209.325 35.2273 0)
(210.106 36.8772 0)
(210.98 38.5578 0)
(211.954 40.2657 0)
(213.023 42.0026 0)
(214.197 43.7654 0)
(215.478 45.5537 0)
(216.883 47.3621 0)
(218.419 49.1819 0)
(220.086 51.0058 0)
(221.892 52.8292 0)
(223.868 54.6349 0)
(225.986 56.4219 0)
(228.267 58.173 0)
(230.718 59.8752 0)
(233.33 61.5206 0)
(236.105 63.0961 0)
(239.023 64.6153 0)
(242.117 66.0287 0)
(245.325 67.3788 0)
(248.707 68.5727 0)
(252.184 69.6891 0)
(255.795 70.6367 0)
(259.484 71.4934 0)
(263.244 72.1765 0)
(267.052 72.7609 0)
(270.87 73.1854 0)
(274.706 73.5338 0)
(278.42 73.6889 0)
(282.214 73.8048 0)
(285.806 73.7552 0)
(289.236 73.6651 0)
(292.841 73.5228 0)
(295.857 73.2628 0)
(299.231 72.9634 0)
(302.193 72.6003 0)
(304.997 72.1988 0)
(307.781 71.8112 0)
(310.326 71.382 0)
(312.578 71.0052 0)
(315.069 70.554 0)
(317.191 70.1633 0)
(319.247 69.7873 0)
(321.35 69.3667 0)
(323.081 69.0204 0)
(324.963 68.5342 0)
(326.276 68.1803 0)
(327.473 67.7292 0)
(328.61 67.4514 0)
(330.1 67.1697 0)
(332.317 66.8673 0)
(333.123 68.3651 0)
(210 -1.20755e-12 0)
(210 4.53842e-12 0)
(210 -1.45426e-12 0)
(210 -3.00307e-12 0)
(210 -1.71525e-12 0)
(210 4.17505e-12 0)
(210 2.83918e-12 0)
(210 2.7782e-12 0)
(210 -1.25378e-12 0)
(210 3.03766e-12 0)
(210 2.39732e-12 0)
(210 4.33911e-12 0)
(210 2.51142e-12 0)
(210 1.13657e-12 0)
(210 -1.99664e-12 0)
(210 -1.29952e-12 0)
(210 2.64869e-12 0)
(210 -3.70884e-13 0)
(210 -8.09466e-13 0)
(210 9.40604e-13 0)
(210 1.6764e-12 0)
(210 3.31559e-12 0)
(210 2.19068e-12 0)
(210 5.16385e-10 0)
(210 7.61233e-08 0)
(210 1.05729e-05 0)
(209.995 0.00124092 0)
(209.848 0.052256 0)
(208.462 0.653499 0)
(204.357 2.76112 0)
(199.685 5.29912 0)
(197.699 6.6741 0)
(196.882 7.11971 0)
(197.07 7.45685 0)
(197.431 7.42576 0)
(197.854 7.37298 0)
(198.256 7.43868 0)
(198.616 7.60755 0)
(198.941 7.82365 0)
(199.252 8.08557 0)
(199.579 8.3917 0)
(199.878 8.72509 0)
(200.138 9.08212 0)
(200.392 9.47638 0)
(200.651 9.90768 0)
(200.891 10.3666 0)
(201.098 10.8535 0)
(201.288 11.3834 0)
(201.483 11.9708 0)
(201.685 12.6166 0)
(201.884 13.3091 0)
(202.071 14.0354 0)
(202.238 14.7933 0)
(202.392 15.59 0)
(202.546 16.4351 0)
(202.71 17.3343 0)
(202.89 18.2889 0)
(203.081 19.2956 0)
(203.278 20.3462 0)
(203.479 21.4324 0)
(203.687 22.552 0)
(203.902 23.7112 0)
(204.13 24.9176 0)
(204.388 26.1723 0)
(204.691 27.4733 0)
(205.045 28.8258 0)
(205.444 30.2428 0)
(205.885 31.7341 0)
(206.377 33.2974 0)
(206.928 34.9215 0)
(207.549 36.5934 0)
(208.258 38.3037 0)
(209.057 40.0495 0)
(209.945 41.8313 0)
(210.929 43.6469 0)
(212.009 45.4979 0)
(213.209 47.3789 0)
(214.531 49.2819 0)
(215.973 51.2014 0)
(217.554 53.1316 0)
(219.299 55.0586 0)
(221.181 56.9794 0)
(223.228 58.8771 0)
(225.445 60.7411 0)
(227.828 62.561 0)
(230.375 64.3285 0)
(233.078 66.0427 0)
(235.951 67.6726 0)
(238.946 69.2375 0)
(242.117 70.6636 0)
(245.381 72.016 0)
(248.797 73.1985 0)
(252.278 74.3129 0)
(255.871 75.2597 0)
(259.533 76.1208 0)
(263.238 76.7993 0)
(266.976 77.3747 0)
(270.754 77.8214 0)
(274.415 78.1123 0)
(278.239 78.3797 0)
(281.708 78.4192 0)
(285.417 78.4776 0)
(288.941 78.4104 0)
(292.218 78.2625 0)
(295.875 78.0731 0)
(298.916 77.735 0)
(302.137 77.3987 0)
(305.033 77.0701 0)
(307.765 76.74 0)
(310.431 76.3949 0)
(312.868 75.9941 0)
(315.142 75.613 0)
(317.531 75.2206 0)
(319.6 74.9231 0)
(321.925 74.4859 0)
(323.339 74.0942 0)
(324.486 73.516 0)
(325.461 73.122 0)
(326.913 72.7734 0)
(329.339 72.4457 0)
(330.187 74.1752 0)
(210 -9.4151e-13 0)
(210 -9.12142e-13 0)
(210 -4.16838e-12 0)
(210 -3.19477e-12 0)
(210 4.49187e-13 0)
(210 4.10237e-12 0)
(210 2.68423e-12 0)
(210 1.68591e-12 0)
(210 9.69354e-13 0)
(210 3.21761e-12 0)
(210 5.05831e-13 0)
(210 -8.52011e-13 0)
(210 -6.42201e-13 0)
(210 -1.73115e-12 0)
(210 -4.46451e-12 0)
(210 -9.62e-13 0)
(210 -1.28456e-12 0)
(210 -2.80337e-13 0)
(210 7.98944e-13 0)
(210 5.98623e-14 0)
(210 -9.1452e-13 0)
(210 8.59837e-13 0)
(210 -1.40105e-12 0)
(210 1.84959e-10 0)
(210 2.46718e-08 0)
(210 3.2352e-06 0)
(209.998 0.000405959 0)
(209.926 0.0229814 0)
(209.01 0.388685 0)
(205.452 2.09868 0)
(200.529 4.72737 0)
(197.795 6.36774 0)
(196.626 6.97391 0)
(196.748 7.32094 0)
(196.986 7.31475 0)
(197.372 7.28486 0)
(197.784 7.34988 0)
(198.143 7.52189 0)
(198.445 7.7396 0)
(198.738 7.99771 0)
(199.048 8.29647 0)
(199.324 8.61864 0)
(199.558 8.9616 0)
(199.788 9.34246 0)
(200.023 9.7626 0)
(200.237 10.2123 0)
(200.416 10.6907 0)
(200.577 11.213 0)
(200.738 11.7945 0)
(200.904 12.4363 0)
(201.067 13.1258 0)
(201.217 13.8477 0)
(201.342 14.598 0)
(201.448 15.3834 0)
(201.549 16.2146 0)
(201.657 17.0987 0)
(201.777 18.0381 0)
(201.906 19.0307 0)
(202.038 20.0691 0)
(202.17 21.1446 0)
(202.306 22.2532 0)
(202.444 23.3994 0)
(202.589 24.5915 0)
(202.752 25.8326 0)
(202.952 27.1211 0)
(203.197 28.4599 0)
(203.482 29.8615 0)
(203.803 31.337 0)
(204.163 32.8874 0)
(204.569 34.5041 0)
(205.037 36.1735 0)
(205.584 37.8856 0)
(206.209 39.6371 0)
(206.916 41.4277 0)
(207.706 43.2572 0)
(208.58 45.1287 0)
(209.563 47.0378 0)
(210.652 48.9786 0)
(211.846 50.9473 0)
(213.173 52.9385 0)
(214.649 54.9418 0)
(216.25 56.953 0)
(218.011 58.9591 0)
(219.937 60.9524 0)
(222.025 62.9222 0)
(224.277 64.8621 0)
(226.7 66.7648 0)
(229.296 68.6143 0)
(232.042 70.4106 0)
(234.983 72.1043 0)
(238.055 73.7343 0)
(241.323 75.2285 0)
(244.689 76.6742 0)
(248.225 77.9482 0)
(251.84 79.141 0)
(255.568 80.1529 0)
(259.359 81.0735 0)
(263.18 81.8198 0)
(267.066 82.4579 0)
(270.894 82.9115 0)
(274.782 83.2914 0)
(278.356 83.4863 0)
(282.239 83.7366 0)
(285.473 83.7253 0)
(289.172 83.6652 0)
(292.357 83.4795 0)
(295.508 83.266 0)
(298.797 83.0262 0)
(301.595 82.7503 0)
(304.322 82.5029 0)
(307.148 82.1331 0)
(309.419 81.8237 0)
(312.12 81.3917 0)
(314.295 81.125 0)
(316.791 80.7057 0)
(318.597 80.3842 0)
(320.384 79.8959 0)
(321.874 79.5599 0)
(323.554 79.2675 0)
(326.158 78.8978 0)
(326.996 80.7258 0)
(210 -3.46376e-12 0)
(210 -4.19315e-12 0)
(210 -6.94671e-12 0)
(210 -1.83157e-12 0)
(210 1.4722e-12 0)
(210 6.71344e-12 0)
(210 2.37062e-12 0)
(210 1.77423e-12 0)
(210 -4.28583e-13 0)
(210 -6.8873e-15 0)
(210 5.63649e-13 0)
(210 8.7929e-13 0)
(210 1.65455e-12 0)
(210 5.37691e-13 0)
(210 -3.67052e-12 0)
(210 -4.05804e-12 0)
(210 -5.94222e-12 0)
(210 -8.95664e-13 0)
(210 -1.22852e-13 0)
(210 -2.86675e-12 0)
(210 -1.57531e-12 0)
(210 -7.77865e-13 0)
(210 -5.25291e-12 0)
(210 2.29359e-11 0)
(210 3.58819e-09 0)
(210 6.30383e-07 0)
(209.999 0.000103536 0)
(209.967 0.00863871 0)
(209.417 0.205401 0)
(206.543 1.47484 0)
(201.412 4.01559 0)
(197.879 6.01855 0)
(196.344 6.8121 0)
(196.412 7.1625 0)
(196.534 7.21021 0)
(196.882 7.19941 0)
(197.303 7.26566 0)
(197.656 7.43875 0)
(197.93 7.65292 0)
(198.204 7.90384 0)
(198.497 8.19367 0)
(198.748 8.50489 0)
(198.955 8.83594 0)
(199.158 9.20737 0)
(199.368 9.62141 0)
(199.558 10.0666 0)
(199.709 10.5395 0)
(199.841 11.0548 0)
(199.97 11.6282 0)
(200.102 12.2619 0)
(200.23 12.9426 0)
(200.345 13.6538 0)
(200.43 14.3895 0)
(200.491 15.1567 0)
(200.541 15.9673 0)
(200.595 16.8302 0)
(200.658 17.749 0)
(200.727 18.7221 0)
(200.796 19.7431 0)
(200.862 20.8035 0)
(200.928 21.8972 0)
(200.992 23.0268 0)
(201.057 24.201 0)
(201.13 25.4253 0)
(201.23 26.6991 0)
(201.367 28.0238 0)
(201.538 29.4103 0)
(201.74 30.8701 0)
(201.969 32.4084 0)
(202.232 34.0193 0)
(202.55 35.6901 0)
(202.936 37.4106 0)
(203.39 39.1769 0)
(203.92 40.9873 0)
(204.522 42.8429 0)
(205.199 44.7477 0)
(205.977 46.698 0)
(206.845 48.6896 0)
(207.81 50.7186 0)
(208.903 52.7802 0)
(210.131 54.866 0)
(211.477 56.9709 0)
(212.98 59.0855 0)
(214.642 61.2023 0)
(216.461 63.3096 0)
(218.442 65.4 0)
(220.599 67.4637 0)
(222.921 69.491 0)
(225.401 71.4725 0)
(228.066 73.3798 0)
(230.878 75.2278 0)
(233.875 76.9706 0)
(236.978 78.6602 0)
(240.27 80.1936 0)
(243.639 81.6618 0)
(247.162 82.9493 0)
(250.755 84.1615 0)
(254.451 85.1982 0)
(258.21 86.138 0)
(262 86.8791 0)
(265.885 87.6113 0)
(269.636 88.071 0)
(273.536 88.5562 0)
(277.259 88.8078 0)
(280.972 88.9885 0)
(284.828 89.1448 0)
(288.239 89.0889 0)
(291.958 89.0539 0)
(295.235 88.8691 0)
(298.254 88.6971 0)
(301.498 88.4622 0)
(304.03 88.2526 0)
(307.066 87.8965 0)
(309.386 87.6918 0)
(312.256 87.3401 0)
(314.203 87.0062 0)
(315.695 86.4514 0)
(316.826 85.9758 0)
(318.407 85.6279 0)
(321.352 85.2017 0)
(322.217 87.378 0)
(210 -8.05465e-12 0)
(210 -1.02418e-11 0)
(210 -9.37266e-12 0)
(210 -8.85699e-12 0)
(210 4.59064e-13 0)
(210 5.68739e-12 0)
(210 5.18656e-12 0)
(210 1.25316e-12 0)
(210 1.10518e-12 0)
(210 2.15476e-12 0)
(210 -3.39898e-12 0)
(210 2.32265e-12 0)
(210 1.641e-12 0)
(210 1.04183e-12 0)
(210 -4.72121e-12 0)
(210 -7.44712e-12 0)
(210 -6.82506e-12 0)
(210 2.78316e-13 0)
(210 -3.4962e-12 0)
(210 -4.31853e-12 0)
(210 -1.67528e-12 0)
(210 -2.90666e-12 0)
(210 -6.04899e-12 0)
(210 7.30563e-12 0)
(210 8.33816e-10 0)
(210 1.33333e-07 0)
(210 2.20576e-05 0)
(209.987 0.00278696 0)
(209.693 0.0961067 0)
(207.572 0.95025 0)
(202.625 3.26701 0)
(198.354 5.54874 0)
(196.25 6.53604 0)
(196.161 6.96152 0)
(196.093 7.06484 0)
(196.378 7.10701 0)
(196.807 7.17422 0)
(197.152 7.33973 0)
(197.398 7.54655 0)
(197.656 7.78884 0)
(197.933 8.06347 0)
(198.161 8.35475 0)
(198.343 8.66619 0)
(198.523 9.02335 0)
(198.712 9.42909 0)
(198.878 9.86938 0)
(199.003 10.3377 0)
(199.105 10.8475 0)
(199.201 11.4146 0)
(199.296 12.0416 0)
(199.389 12.7152 0)
(199.466 13.4172 0)
(199.509 14.1402 0)
(199.524 14.8905 0)
(199.525 15.6813 0)
(199.525 16.5233 0)
(199.532 17.4209 0)
(199.542 18.3737 0)
(199.549 19.3763 0)
(199.55 20.4206 0)
(199.547 21.499 0)
(199.54 22.6118 0)
(199.527 23.7669 0)
(199.515 24.9714 0)
(199.519 26.2261 0)
(199.55 27.5314 0)
(199.613 28.8958 0)
(199.702 30.3302 0)
(199.807 31.8429 0)
(199.938 33.4308 0)
(200.113 35.0828 0)
(200.344 36.7887 0)
(200.636 38.543 0)
(200.996 40.343 0)
(201.413 42.1914 0)
(201.899 44.0926 0)
(202.472 46.0447 0)
(203.116 48.0454 0)
(203.848 50.0912 0)
(204.695 52.1791 0)
(205.657 54.3028 0)
(206.726 56.458 0)
(207.944 58.6385 0)
(209.305 60.8375 0)
(210.811 63.0455 0)
(212.476 65.2569 0)
(214.317 67.4626 0)
(216.317 69.6569 0)
(218.487 71.8305 0)
(220.847 73.9667 0)
(223.378 76.0611 0)
(226.104 78.0845 0)
(228.98 80.0538 0)
(232.069 81.8997 0)
(235.262 83.6909 0)
(238.667 85.3134 0)
(242.153 86.8754 0)
(245.793 88.2577 0)
(249.503 89.5706 0)
(253.315 90.6878 0)
(257.169 91.6786 0)
(261.063 92.5208 0)
(264.882 93.183 0)
(268.831 93.8354 0)
(272.466 94.2063 0)
(276.355 94.6374 0)
(279.942 94.8139 0)
(283.435 94.8963 0)
(287.212 94.9371 0)
(290.322 94.8213 0)
(293.85 94.7632 0)
(296.9 94.6247 0)
(300.238 94.4543 0)
(302.993 94.2606 0)
(306.275 94.0382 0)
(308.532 93.8511 0)
(310.939 93.4223 0)
(312.774 93.0599 0)
(314.85 92.6851 0)
(318.172 92.3372 0)
(319.152 94.8194 0)
(210 -9.79032e-12 0)
(210 -1.46479e-11 0)
(210 -1.1647e-11 0)
(210 -9.18205e-12 0)
(210 2.08942e-12 0)
(210 3.19857e-12 0)
(210 4.40218e-12 0)
(210 1.72101e-12 0)
(210 3.67377e-12 0)
(210 -3.11722e-12 0)
(210 -4.30851e-12 0)
(210 4.82214e-12 0)
(210 -9.81137e-13 0)
(210 2.22893e-13 0)
(210 -4.1277e-12 0)
(210 -3.75552e-12 0)
(210 -7.48191e-13 0)
(210 4.0873e-12 0)
(210 6.07207e-13 0)
(210 -1.48106e-13 0)
(210 -2.19033e-13 0)
(210 -6.66982e-13 0)
(210 -1.17144e-12 0)
(210 -2.45043e-12 0)
(210 2.42335e-11 0)
(210 1.2486e-08 0)
(210 3.65954e-06 0)
(209.996 0.000721475 0)
(209.858 0.038441 0)
(208.446 0.545963 0)
(203.986 2.47206 0)
(198.946 4.94359 0)
(196.119 6.24302 0)
(195.843 6.76735 0)
(195.625 6.92084 0)
(195.866 7.00046 0)
(196.303 7.06725 0)
(196.634 7.219 0)
(196.851 7.41343 0)
(197.089 7.6456 0)
(197.346 7.90936 0)
(197.546 8.18911 0)
(197.7 8.49184 0)
(197.856 8.84594 0)
(198.023 9.25217 0)
(198.167 9.69196 0)
(198.268 10.1554 0)
(198.343 10.6554 0)
(198.406 11.2093 0)
(198.467 11.8215 0)
(198.528 12.4797 0)
(198.569 13.1653 0)
(198.573 13.8691 0)
(198.546 14.5969 0)
(198.5 15.3629 0)
(198.451 16.1792 0)
(198.403 17.0512 0)
(198.356 17.9795 0)
(198.304 18.9597 0)
(198.242 19.9841 0)
(198.173 21.0443 0)
(198.096 22.1376 0)
(198.01 23.2709 0)
(197.916 24.4521 0)
(197.828 25.6844 0)
(197.756 26.9678 0)
(197.712 28.3088 0)
(197.688 29.7174 0)
(197.673 31.2036 0)
(197.674 32.7677 0)
(197.709 34.4015 0)
(197.786 36.0952 0)
(197.917 37.842 0)
(198.107 39.638 0)
(198.343 41.4869 0)
(198.644 43.3929 0)
(199.016 45.3559 0)
(199.444 47.3744 0)
(199.954 49.4451 0)
(200.566 51.5665 0)
(201.277 53.7329 0)
(202.086 55.9408 0)
(203.037 58.1859 0)
(204.117 60.4607 0)
(205.331 62.758 0)
(206.701 65.0727 0)
(208.241 67.3948 0)
(209.93 69.7196 0)
(211.788 72.0394 0)
(213.828 74.3412 0)
(216.038 76.6102 0)
(218.429 78.8269 0)
(220.987 80.9924 0)
(223.742 83.0739 0)
(226.618 85.1088 0)
(229.719 87.0134 0)
(232.906 88.8727 0)
(236.294 90.5706 0)
(239.757 92.2028 0)
(243.373 93.6474 0)
(247.073 94.9984 0)
(250.861 96.1765 0)
(254.726 97.2607 0)
(258.611 98.1603 0)
(262.574 98.9994 0)
(266.372 99.5899 0)
(270.458 100.269 0)
(273.977 100.521 0)
(278.076 100.866 0)
(281.536 100.955 0)
(285.183 101.074 0)
(288.588 101.125 0)
(291.791 101.081 0)
(294.828 101.009 0)
(298.288 100.843 0)
(300.837 100.737 0)
(303.691 100.456 0)
(305.615 100.248 0)
(307.566 100.013 0)
(310.771 99.6588 0)
(311.602 102.122 0)
(210 -1.30692e-11 0)
(210 -5.33659e-12 0)
(210 -5.38478e-12 0)
(210 1.88363e-12 0)
(210 3.7163e-12 0)
(210 4.61929e-12 0)
(210 7.42626e-12 0)
(210 3.50369e-12 0)
(210 -3.66394e-12 0)
(210 -8.90147e-12 0)
(210 -2.99002e-12 0)
(210 3.93473e-13 0)
(210 -3.3622e-13 0)
(210 -1.61537e-12 0)
(210 -6.11936e-12 0)
(210 -3.5044e-12 0)
(210 3.00995e-12 0)
(210 5.17099e-12 0)
(210 6.4513e-13 0)
(210 -3.99063e-13 0)
(210 2.64876e-12 0)
(210 -8.43555e-13 0)
(210 1.40841e-12 0)
(210 3.02245e-12 0)
(210 -1.70844e-12 0)
(210 -2.08605e-10 0)
(210 3.75774e-07 0)
(209.999 0.000139756 0)
(209.942 0.01286 0)
(209.112 0.275317 0)
(205.438 1.72212 0)
(199.943 4.21754 0)
(196.334 5.8186 0)
(195.634 6.53562 0)
(195.215 6.66239 0)
(195.367 6.84683 0)
(195.794 6.93622 0)
(196.1 7.06786 0)
(196.29 7.23832 0)
(196.512 7.45107 0)
(196.754 7.70204 0)
(196.931 7.97073 0)
(197.063 8.26486 0)
(197.199 8.61466 0)
(197.346 9.02036 0)
(197.467 9.46009 0)
(197.542 9.92033 0)
(197.587 10.4126 0)
(197.616 10.9544 0)
(197.642 11.5524 0)
(197.669 12.1953 0)
(197.672 12.8644 0)
(197.637 13.5493 0)
(197.569 14.2549 0)
(197.478 14.9967 0)
(197.38 15.7872 0)
(197.28 16.633 0)
(197.175 17.5362 0)
(197.063 18.4934 0)
(196.94 19.4964 0)
(196.805 20.5378 0)
(196.66 21.611 0)
(196.502 22.7218 0)
(196.33 23.8786 0)
(196.153 25.086 0)
(195.984 26.3429 0)
(195.838 27.6547 0)
(195.705 29.0312 0)
(195.579 30.4811 0)
(195.461 32.0088 0)
(195.365 33.6084 0)
(195.297 35.2712 0)
(195.278 36.9895 0)
(195.307 38.7581 0)
(195.373 40.5808 0)
(195.5 42.4618 0)
(195.678 44.4024 0)
(195.9 46.4029 0)
(196.196 48.4611 0)
(196.574 50.5765 0)
(197.032 52.7442 0)
(197.579 54.963 0)
(198.254 57.2302 0)
(199.036 59.539 0)
(199.938 61.8865 0)
(200.99 64.2694 0)
(202.195 66.6785 0)
(203.539 69.1111 0)
(205.052 71.5632 0)
(206.741 74.0229 0)
(208.6 76.4739 0)
(210.645 78.9041 0)
(212.885 81.3092 0)
(215.319 83.6765 0)
(217.917 86.0132 0)
(220.752 88.2587 0)
(223.711 90.4574 0)
(226.906 92.5164 0)
(230.198 94.5228 0)
(233.698 96.3535 0)
(237.282 98.1054 0)
(241.017 99.6599 0)
(244.805 101.125 0)
(248.673 102.402 0)
(252.585 103.617 0)
(256.504 104.577 0)
(260.461 105.483 0)
(264.26 106.131 0)
(268.132 106.75 0)
(271.994 107.224 0)
(275.61 107.496 0)
(279.408 107.773 0)
(282.758 107.927 0)
(286.152 108.067 0)
(289.584 108.091 0)
(292.52 108.039 0)
(295.703 107.78 0)
(297.847 107.517 0)
(299.989 107.359 0)
(303.726 107.142 0)
(304.536 110.208 0)
(210 -8.6981e-12 0)
(210 9.54622e-13 0)
(210 5.19921e-13 0)
(210 3.31559e-12 0)
(210 7.25835e-12 0)
(210 7.91672e-12 0)
(210 2.09555e-13 0)
(210 -8.58177e-12 0)
(210 -8.21143e-12 0)
(210 -6.05886e-12 0)
(210 -2.56706e-13 0)
(210 -9.82528e-13 0)
(210 7.64282e-13 0)
(210 -2.11155e-12 0)
(210 -4.90885e-12 0)
(210 2.38425e-12 0)
(210 7.28535e-12 0)
(210 -4.81231e-14 0)
(210 -6.44119e-13 0)
(210 2.66812e-12 0)
(210 5.7361e-12 0)
(210 1.16521e-12 0)
(210 1.14251e-12 0)
(210 -1.36139e-12 0)
(210 -9.26984e-12 0)
(210 -1.07522e-09 0)
(210 -5.92026e-08 0)
(210 1.38493e-05 0)
(209.98 0.00341634 0)
(209.553 0.118372 0)
(206.825 1.0737 0)
(201.285 3.40113 0)
(196.668 5.3031 0)
(195.376 6.27542 0)
(194.743 6.44268 0)
(194.853 6.72727 0)
(195.263 6.8009 0)
(195.54 6.88414 0)
(195.706 7.02952 0)
(195.915 7.24018 0)
(196.143 7.49324 0)
(196.298 7.7567 0)
(196.409 8.04524 0)
(196.526 8.39217 0)
(196.654 8.7954 0)
(196.753 9.22903 0)
(196.804 9.67779 0)
(196.821 10.1537 0)
(196.817 10.6762 0)
(196.811 11.2544 0)
(196.804 11.878 0)
(196.769 12.5284 0)
(196.697 13.193 0)
(196.589 13.8762 0)
(196.456 14.5925 0)
(196.312 15.3544 0)
(196.159 16.1723 0)
(195.997 17.0491 0)
(195.828 17.9809 0)
(195.645 18.9614 0)
(195.448 19.9804 0)
(195.237 21.0316 0)
(195.01 22.1174 0)
(194.763 23.2463 0)
(194.503 24.4236 0)
(194.247 25.6493 0)
(194 26.93 0)
(193.76 28.2721 0)
(193.527 29.6832 0)
(193.294 31.1725 0)
(193.069 32.7363 0)
(192.862 34.3654 0)
(192.693 36.0541 0)
(192.558 37.7965 0)
(192.462 39.5962 0)
(192.416 41.457 0)
(192.401 43.3798 0)
(192.425 45.3672 0)
(192.512 47.418 0)
(192.663 49.5311 0)
(192.877 51.7024 0)
(193.173 53.9329 0)
(193.585 56.2202 0)
(194.082 58.5568 0)
(194.691 60.9435 0)
(195.442 63.3772 0)
(196.328 65.8483 0)
(197.341 68.3548 0)
(198.52 70.8939 0)
(199.861 73.4542 0)
(201.358 76.0235 0)
(203.038 78.5954 0)
(204.907 81.1634 0)
(206.949 83.7185 0)
(209.171 86.2497 0)
(211.609 88.7189 0)
(214.186 91.1445 0)
(217.001 93.4698 0)
(219.925 95.7545 0)
(223.087 97.9014 0)
(226.343 99.9945 0)
(229.821 101.915 0)
(233.39 103.779 0)
(237.119 105.464 0)
(240.926 107.061 0)
(244.838 108.473 0)
(248.805 109.741 0)
(252.861 110.982 0)
(256.852 111.942 0)
(261.003 112.898 0)
(264.943 113.463 0)
(269.058 114.071 0)
(272.971 114.501 0)
(276.815 114.868 0)
(280.919 115.314 0)
(284.165 115.335 0)
(287.807 115.268 0)
(290.395 115.031 0)
(292.982 114.82 0)
(296.911 114.77 0)
(297.796 117.88 0)
(210 -2.99446e-12 0)
(210 2.91438e-12 0)
(210 -1.94054e-12 0)
(210 2.99837e-12 0)
(210 2.88434e-12 0)
(210 -1.32396e-12 0)
(210 -7.00761e-12 0)
(210 -1.04926e-11 0)
(210 -2.2966e-12 0)
(210 -2.44795e-12 0)
(210 1.33944e-12 0)
(210 -1.17487e-13 0)
(210 -1.9563e-12 0)
(210 -3.43189e-12 0)
(210 -2.66594e-12 0)
(210 6.6308e-12 0)
(210 2.27241e-12 0)
(210 -1.52717e-12 0)
(210 5.81903e-13 0)
(210 5.25363e-12 0)
(210 8.87419e-12 0)
(210 4.91755e-12 0)
(210 5.38757e-12 0)
(210 1.05473e-12 0)
(210 2.03406e-12 0)
(210 -3.66508e-10 0)
(210 -4.00516e-08 0)
(210 -8.80443e-07 0)
(209.994 0.000651132 0)
(209.805 0.0421456 0)
(208.015 0.589386 0)
(202.873 2.5287 0)
(197.434 4.70607 0)
(195.326 5.93621 0)
(194.377 6.16266 0)
(194.405 6.51005 0)
(194.76 6.57102 0)
(194.993 6.61915 0)
(195.133 6.7743 0)
(195.336 6.99983 0)
(195.55 7.25156 0)
(195.681 7.50047 0)
(195.77 7.77834 0)
(195.865 8.1235 0)
(195.971 8.52985 0)
(196.044 8.96291 0)
(196.069 9.40251 0)
(196.055 9.86055 0)
(196.019 10.3604 0)
(195.983 10.9148 0)
(195.941 11.5165 0)
(195.869 12.1469 0)
(195.762 12.791 0)
(195.617 13.451 0)
(195.451 14.1365 0)
(195.256 14.874 0)
(195.049 15.6636 0)
(194.834 16.5104 0)
(194.61 17.4135 0)
(194.37 18.3674 0)
(194.112 19.3626 0)
(193.838 20.3903 0)
(193.544 21.45 0)
(193.226 22.5493 0)
(192.887 23.6957 0)
(192.542 24.8908 0)
(192.202 26.1358 0)
(191.866 27.4362 0)
(191.529 28.8042 0)
(191.186 30.2471 0)
(190.842 31.7636 0)
(190.513 33.3449 0)
(190.203 34.9927 0)
(189.914 36.691 0)
(189.67 38.4449 0)
(189.458 40.2631 0)
(189.267 42.1411 0)
(189.11 44.0873 0)
(189 46.1004 0)
(188.935 48.1781 0)
(188.917 50.3179 0)
(188.973 52.5241 0)
(189.126 54.7932 0)
(189.338 57.1183 0)
(189.655 59.5063 0)
(190.099 61.9543 0)
(190.65 64.4538 0)
(191.319 67.0051 0)
(192.146 69.6076 0)
(193.113 72.2532 0)
(194.227 74.9364 0)
(195.523 77.6519 0)
(196.998 80.3878 0)
(198.644 83.1324 0)
(200.489 85.8719 0)
(202.543 88.5852 0)
(204.764 91.2763 0)
(207.231 93.9125 0)
(209.845 96.5241 0)
(212.712 99.041 0)
(215.697 101.511 0)
(218.932 103.827 0)
(222.26 106.073 0)
(225.784 108.144 0)
(229.381 110.14 0)
(233.124 111.949 0)
(236.937 113.652 0)
(240.816 115.14 0)
(244.743 116.581 0)
(248.618 117.702 0)
(252.662 118.824 0)
(256.415 119.579 0)
(260.495 120.452 0)
(264.25 121.028 0)
(268.252 121.727 0)
(272.232 122.279 0)
(275.831 122.487 0)
(278.8 122.549 0)
(281.335 122.611 0)
(285.435 122.518 0)
(285.983 126.026 0)
(210 6.83693e-13 0)
(210 -1.8322e-12 0)
(210 6.58735e-13 0)
(210 2.70401e-12 0)
(210 -3.12441e-12 0)
(210 1.60105e-12 0)
(210 -1.82029e-12 0)
(210 -2.38547e-12 0)
(210 1.30301e-12 0)
(210 -8.62216e-13 0)
(210 2.72812e-12 0)
(210 -2.41752e-12 0)
(210 -4.07417e-12 0)
(210 -3.9607e-12 0)
(210 -2.18103e-13 0)
(210 4.0062e-12 0)
(210 -4.80834e-12 0)
(210 -2.10892e-12 0)
(210 7.67885e-13 0)
(210 1.06911e-11 0)
(210 9.21541e-12 0)
(210 3.68577e-12 0)
(210 3.14831e-12 0)
(210 -1.51121e-12 0)
(210 3.71324e-12 0)
(210 -1.0241e-10 0)
(210 -1.35518e-08 0)
(210 -1.07361e-06 0)
(209.998 5.35333e-05 0)
(209.927 0.0118447 0)
(208.901 0.276 0)
(204.618 1.7116 0)
(198.547 3.96648 0)
(195.344 5.49537 0)
(193.982 5.89277 0)
(193.977 6.2009 0)
(194.214 6.34743 0)
(194.395 6.39308 0)
(194.536 6.55289 0)
(194.743 6.76782 0)
(194.939 7.008 0)
(195.045 7.2442 0)
(195.112 7.51694 0)
(195.19 7.86029 0)
(195.277 8.26145 0)
(195.329 8.68197 0)
(195.328 9.10217 0)
(195.282 9.53623 0)
(195.216 10.0112 0)
(195.149 10.5419 0)
(195.068 11.1234 0)
(194.96 11.7348 0)
(194.822 12.3583 0)
(194.647 12.9949 0)
(194.434 13.6623 0)
(194.195 14.3705 0)
(193.939 15.1305 0)
(193.675 15.9465 0)
(193.398 16.8186 0)
(193.105 17.7425 0)
(192.79 18.7093 0)
(192.456 19.7088 0)
(192.101 20.7378 0)
(191.719 21.8027 0)
(191.308 22.9123 0)
(190.88 24.0695 0)
(190.452 25.2745 0)
(190.024 26.5319 0)
(189.59 27.8517 0)
(189.141 29.2435 0)
(188.683 30.7097 0)
(188.227 32.2447 0)
(187.785 33.8402 0)
(187.362 35.4907 0)
(186.972 37.2005 0)
(186.582 38.9843 0)
(186.223 40.8151 0)
(185.89 42.7184 0)
(185.586 44.6927 0)
(185.312 46.7344 0)
(185.07 48.8419 0)
(184.897 51.0235 0)
(184.797 53.2711 0)
(184.737 55.578 0)
(184.78 57.9578 0)
(184.93 60.4034 0)
(185.162 62.9076 0)
(185.508 65.4735 0)
(185.999 68.1009 0)
(186.605 70.7829 0)
(187.348 73.5185 0)
(188.262 76.3005 0)
(189.329 79.1148 0)
(190.561 81.9542 0)
(191.991 84.8126 0)
(193.603 87.6803 0)
(195.388 90.5554 0)
(197.406 93.4174 0)
(199.582 96.2715 0)
(202.001 99.0734 0)
(204.561 101.847 0)
(207.389 104.521 0)
(210.345 107.15 0)
(213.562 109.643 0)
(216.883 112.087 0)
(220.427 114.361 0)
(224.066 116.559 0)
(227.885 118.546 0)
(231.767 120.449 0)
(235.76 122.167 0)
(239.794 123.787 0)
(243.912 125.146 0)
(248.121 126.44 0)
(252.216 127.408 0)
(256.477 128.537 0)
(260.819 129.469 0)
(264.328 129.929 0)
(267.431 130.171 0)
(270.114 130.393 0)
(274.466 130.592 0)
(274.928 134.568 0)
(210 -4.63849e-13 0)
(210 3.30321e-12 0)
(210 8.4361e-12 0)
(210 5.6056e-12 0)
(210 6.19131e-12 0)
(210 7.92478e-12 0)