/*--------------------------------*- C++ -*----------------------------------*\
| =========                 |                                                 |
| \\      /  F ield         | OpenFOAM: The Open Source CFD Toolbox           |
|  \\    /   O peration     | Version:  2412                                  |
|   \\  /    A nd           | Website:  www.openfoam.com                      |
|    \\/     M anipulation  |                                                 |
\*---------------------------------------------------------------------------*/
FoamFile
{
    version     2.0;
    format      ascii;
    arch        "LSB;label=32;scalar=64";
    class       volVectorField;
    location    "0.042";
    object      U;
}
// * * * * * * * * * * * * * * * * * * * * * * * * * * * * * * * * * * * * * //

dimensions      [0 1 -1 0 0 0 0];

internalField   nonuniform List<vector> 
9922
(
(169.128 84.1133 0)
(170.084 6.21036 0)
(185.045 -0.310617 0)
(195.55 -1.9851 0)
(198.777 -4.8756 0)
(198.838 -6.45839 0)
(199.112 -7.51113 0)
(199.617 -8.41825 0)
(200.286 -9.16161 0)
(200.877 -9.82256 0)
(201.621 -10.245 0)
(202.41 -10.5835 0)
(203.246 -10.8535 0)
(204.122 -11.0804 0)
(205.025 -11.2834 0)
(205.958 -11.4587 0)
(206.921 -11.6178 0)
(207.915 -11.7645 0)
(208.94 -11.9002 0)
(209.999 -12.0303 0)
(211.1 -12.1424 0)
(212.26 -12.2341 0)
(213.496 -12.2928 0)
(214.826 -12.3138 0)
(216.267 -12.2889 0)
(217.831 -12.217 0)
(219.531 -12.0985 0)
(221.375 -11.9391 0)
(223.368 -11.7506 0)
(225.5 -11.5494 0)
(227.751 -11.3587 0)
(230.087 -11.203 0)
(232.472 -11.1091 0)
(234.881 -11.0983 0)
(237.309 -11.1839 0)
(239.767 -11.3688 0)
(242.283 -11.6479 0)
(244.895 -12.0116 0)
(247.64 -12.4478 0)
(250.56 -12.9465 0)
(253.694 -13.496 0)
(257.085 -14.0823 0)
(260.773 -14.6864 0)
(264.799 -15.2831 0)
(269.196 -15.8384 0)
(273.965 -16.315 0)
(279.041 -16.6862 0)
(284.308 -16.949 0)
(289.654 -17.1199 0)
(294.971 -17.233 0)
(300.168 -17.3762 0)
(305.205 -17.6404 0)
(310.059 -18.0449 0)
(314.719 -18.6015 0)
(319.212 -19.3516 0)
(323.568 -20.2925 0)
(327.846 -21.4242 0)
(332.08 -22.7447 0)
(336.269 -24.263 0)
(340.315 -25.8818 0)
(344.169 -27.4929 0)
(347.852 -29.1889 0)
(351.44 -31.0066 0)
(354.94 -32.8789 0)
(358.262 -34.7414 0)
(361.33 -36.5085 0)
(364.127 -38.1021 0)
(366.655 -39.4959 0)
(368.925 -40.7028 0)
(370.958 -41.7534 0)
(372.788 -42.6704 0)
(374.459 -43.4602 0)
(376.002 -44.1743 0)
(377.419 -44.7233 0)
(378.752 -45.3113 0)
(379.982 -45.6834 0)
(381.181 -46.2209 0)
(382.282 -46.4664 0)
(383.332 -46.9075 0)
(384.308 -47.0703 0)
(385.237 -47.4599 0)
(386.111 -47.5858 0)
(386.941 -47.9249 0)
(387.731 -48.006 0)
(388.482 -48.2828 0)
(389.209 -48.335 0)
(389.901 -48.5785 0)
(390.578 -48.6328 0)
(391.224 -48.8546 0)
(391.858 -48.8993 0)
(392.457 -49.0945 0)
(393.041 -49.1378 0)
(393.589 -49.3152 0)
(394.121 -49.3527 0)
(394.619 -49.511 0)
(395.103 -49.5406 0)
(395.559 -49.6787 0)
(396.004 -49.7034 0)
(396.419 -49.831 0)
(396.821 -49.8599 0)
(397.197 -49.9767 0)
(397.565 -50.0039 0)
(397.918 -50.1092 0)
(398.276 -50.1475 0)
(398.634 -50.2449 0)
(398.996 -50.2923 0)
(399.339 -50.3677 0)
(399.644 -50.4183 0)
(399.882 -50.4691 0)
(400.033 -50.5194 0)
(400.076 -50.5288 0)
(399.994 -50.578 0)
(399.828 -50.5319 0)
(399.642 -50.612 0)
(399.569 -50.5809 0)
(399.708 -50.6534 0)
(400.135 -50.7327 0)
(400.827 -50.8382 0)
(401.639 -50.9853 0)
(402.442 -51.1409 0)
(402.884 -50.8658 0)
(168.952 84.06 0)
(170.194 6.04596 0)
(185.19 -0.384759 0)
(195.694 -2.03896 0)
(198.883 -4.89275 0)
(198.915 -6.45759 0)
(199.169 -7.50328 0)
(199.661 -8.40502 0)
(200.322 -9.14351 0)
(200.91 -9.80259 0)
(201.652 -10.2226 0)
(202.44 -10.5576 0)
(203.277 -10.8255 0)
(204.153 -11.0505 0)
(205.055 -11.2519 0)
(205.988 -11.4253 0)
(206.951 -11.5821 0)
(207.945 -11.7263 0)
(208.972 -11.8591 0)
(210.032 -11.986 0)
(211.136 -12.0944 0)
(212.3 -12.1818 0)
(213.541 -12.2351 0)
(214.878 -12.2496 0)
(216.327 -12.2171 0)
(217.902 -12.1367 0)
(219.613 -12.0085 0)
(221.468 -11.8381 0)
(223.47 -11.6375 0)
(225.61 -11.4237 0)
(227.866 -11.2208 0)
(230.203 -11.0541 0)
(232.588 -10.9503 0)
(234.997 -10.9299 0)
(237.424 -11.0049 0)
(239.884 -11.1771 0)
(242.405 -11.4404 0)
(245.024 -11.7844 0)
(247.781 -12.1965 0)
(250.714 -12.6659 0)
(253.864 -13.18 0)
(257.271 -13.724 0)
(260.972 -14.2779 0)
(265.008 -14.8156 0)
(269.405 -15.3041 0)
(274.142 -15.7109 0)
(279.141 -16.0153 0)
(284.302 -16.2173 0)
(289.542 -16.3386 0)
(294.75 -16.4149 0)
(299.852 -16.5256 0)
(304.833 -16.7565 0)
(309.632 -17.1509 0)
(314.247 -17.7108 0)
(318.706 -18.4532 0)
(323.034 -19.3644 0)
(327.237 -20.4325 0)
(331.346 -21.6734 0)
(335.412 -23.0902 0)
(339.487 -24.691 0)
(343.484 -26.4582 0)
(347.289 -28.2296 0)
(350.894 -29.95 0)
(354.31 -31.7018 0)
(357.567 -33.4867 0)
(360.666 -35.2417 0)
(363.567 -36.9168 0)
(366.226 -38.466 0)
(368.624 -39.8485 0)
(370.771 -41.0425 0)
(372.693 -42.0323 0)
(374.421 -42.8583 0)
(376.008 -43.5978 0)
(377.466 -44.1884 0)
(378.818 -44.778 0)
(380.033 -45.1259 0)
(381.174 -45.6038 0)
(382.221 -45.7973 0)
(383.23 -46.2245 0)
(384.185 -46.3947 0)
(385.111 -46.8005 0)
(385.988 -46.9377 0)
(386.837 -47.2859 0)
(387.656 -47.3598 0)
(388.445 -47.6338 0)
(389.202 -47.6901 0)
(389.911 -47.9473 0)
(390.601 -48.0025 0)
(391.257 -48.2256 0)
(391.896 -48.2681 0)
(392.494 -48.4667 0)
(393.076 -48.5055 0)
(393.624 -48.6808 0)
(394.159 -48.7114 0)
(394.66 -48.8668 0)
(395.151 -48.8892 0)
(395.612 -49.0238 0)
(396.065 -49.044 0)
(396.489 -49.1699 0)
(396.905 -49.1942 0)
(397.294 -49.3103 0)
(397.673 -49.3375 0)
(398.033 -49.4466 0)
(398.397 -49.4845 0)
(398.762 -49.5828 0)
(399.132 -49.6266 0)
(399.483 -49.7015 0)
(399.799 -49.7482 0)
(400.05 -49.8003 0)
(400.215 -49.8512 0)
(400.275 -49.8647 0)
(400.209 -49.9152 0)
(400.061 -49.8705 0)
(399.887 -49.9514 0)
(399.822 -49.9128 0)
(399.964 -49.9807 0)
(400.398 -50.0441 0)
(401.1 -50.1459 0)
(401.917 -50.2878 0)
(402.709 -50.4317 0)
(403.142 -50.1653 0)
(168.773 84.0005 0)
(170.305 5.87981 0)
(185.336 -0.460541 0)
(195.84 -2.09531 0)
(198.99 -4.91129 0)
(198.991 -6.45874 0)
(199.229 -7.49758 0)
(199.707 -8.394 0)
(200.36 -9.12693 0)
(200.945 -9.78372 0)
(201.685 -10.2009 0)
(202.473 -10.5322 0)
(203.309 -10.7977 0)
(204.185 -11.0209 0)
(205.087 -11.2206 0)
(206.02 -11.3919 0)
(206.983 -11.5463 0)
(207.977 -11.688 0)
(209.004 -11.8177 0)
(210.066 -11.9413 0)
(211.173 -12.0459 0)
(212.341 -12.1288 0)
(213.587 -12.1766 0)
(214.931 -12.1842 0)
(216.387 -12.1437 0)
(217.971 -12.0542 0)
(219.691 -11.9159 0)
(221.556 -11.7343 0)
(223.568 -11.5216 0)
(225.716 -11.2954 0)
(227.977 -11.0809 0)
(230.319 -10.9039 0)
(232.706 -10.7911 0)
(235.117 -10.7619 0)
(237.547 -10.8271 0)
(240.011 -10.9871 0)
(242.539 -11.2351 0)
(245.168 -11.5599 0)
(247.937 -11.9482 0)
(250.885 -12.3885 0)
(254.052 -12.8674 0)
(257.474 -13.3694 0)
(261.191 -13.8733 0)
(265.239 -14.3527 0)
(269.628 -14.7767 0)
(274.321 -15.1171 0)
(279.25 -15.3577 0)
(284.334 -15.5003 0)
(289.49 -15.5736 0)
(294.604 -15.6131 0)
(299.609 -15.6923 0)
(304.471 -15.9111 0)
(309.131 -16.2918 0)
(313.614 -16.8047 0)
(318.008 -17.505 0)
(322.338 -18.4092 0)
(326.597 -19.5058 0)
(330.746 -20.7341 0)
(334.773 -22.0622 0)
(338.695 -23.5392 0)
(342.6 -25.1961 0)
(346.495 -27.0174 0)
(350.247 -28.9263 0)
(353.784 -30.7685 0)
(357.102 -32.5045 0)
(360.196 -34.1785 0)
(363.061 -35.8042 0)
(365.706 -37.3454 0)
(368.136 -38.7537 0)
(370.351 -40.0011 0)
(372.361 -41.0753 0)
(374.193 -42.0122 0)
(375.823 -42.7876 0)
(377.276 -43.3933 0)
(378.616 -44.0061 0)
(379.857 -44.4079 0)
(381.053 -44.9244 0)
(382.147 -45.1508 0)
(383.215 -45.6079 0)
(384.215 -45.7952 0)
(385.167 -46.2052 0)
(386.06 -46.3351 0)
(386.914 -46.6794 0)
(387.724 -46.7541 0)
(388.484 -47.0395 0)
(389.209 -47.0989 0)
(389.894 -47.3557 0)
(390.566 -47.402 0)
(391.213 -47.621 0)
(391.847 -47.6584 0)
(392.443 -47.8549 0)
(393.024 -47.8827 0)
(393.568 -48.0507 0)
(394.1 -48.072 0)
(394.597 -48.2215 0)
(395.085 -48.2353 0)
(395.542 -48.3659 0)
(395.993 -48.3799 0)
(396.415 -48.4989 0)
(396.83 -48.5133 0)
(397.217 -48.6235 0)
(397.593 -48.6471 0)
(397.951 -48.756 0)
(398.312 -48.7897 0)
(398.673 -48.8858 0)
(399.04 -48.9245 0)
(399.389 -48.9991 0)
(399.703 -49.0422 0)
(399.953 -49.0947 0)
(400.117 -49.1419 0)
(400.176 -49.1532 0)
(400.108 -49.1984 0)
(399.955 -49.1447 0)
(399.774 -49.2244 0)
(399.702 -49.1743 0)
(399.837 -49.2386 0)
(400.266 -49.2836 0)
(400.956 -49.3754 0)
(401.766 -49.4968 0)
(402.565 -49.6394 0)
(402.997 -49.3655 0)
(168.59 83.9388 0)
(170.417 5.71196 0)
(185.485 -0.537967 0)
(195.99 -2.15446 0)
(199.096 -4.93083 0)
(199.067 -6.45872 0)
(199.288 -7.48978 0)
(199.754 -8.38133 0)
(200.398 -9.10842 0)
(200.978 -9.76296 0)
(201.718 -10.1775 0)
(202.505 -10.5053 0)
(203.341 -10.7686 0)
(204.216 -10.99 0)
(205.119 -11.188 0)
(206.051 -11.3573 0)
(207.014 -11.5094 0)
(208.008 -11.6486 0)
(209.036 -11.7752 0)
(210.099 -11.8955 0)
(211.21 -11.9963 0)
(212.382 -12.0746 0)
(213.634 -12.1169 0)
(214.984 -12.1178 0)
(216.449 -12.0694 0)
(218.043 -11.9711 0)
(219.774 -11.8229 0)
(221.65 -11.6302 0)
(223.672 -11.4054 0)
(225.826 -11.1667 0)
(228.091 -10.9402 0)
(230.433 -10.7523 0)
(232.818 -10.6296 0)
(235.227 -10.5907 0)
(237.655 -10.6451 0)
(240.119 -10.7919 0)
(242.65 -11.0235 0)
(245.284 -11.328 0)
(248.061 -11.6914 0)
(251.019 -12.1014 0)
(254.195 -12.5442 0)
(257.626 -13.0033 0)
(261.351 -13.457 0)
(265.396 -13.8787 0)
(269.76 -14.2405 0)
(274.406 -14.5183 0)
(279.272 -14.696 0)
(284.29 -14.7863 0)
(289.349 -14.8125 0)
(294.352 -14.8173 0)
(299.232 -14.8683 0)
(303.955 -15.0597 0)
(308.522 -15.4116 0)
(312.957 -15.8947 0)
(317.287 -16.5546 0)
(321.537 -17.403 0)
(325.745 -18.438 0)
(329.943 -19.6738 0)
(334.075 -21.0879 0)
(338.075 -22.5703 0)
(341.929 -24.1041 0)
(345.674 -25.7844 0)
(349.384 -27.6043 0)
(353.021 -29.5118 0)
(356.479 -31.4365 0)
(359.7 -33.2738 0)
(362.673 -34.9605 0)
(365.395 -36.4913 0)
(367.866 -37.8767 0)
(370.094 -39.1174 0)
(372.104 -40.2119 0)
(373.926 -41.1496 0)
(375.593 -41.9653 0)
(377.127 -42.6453 0)
(378.585 -43.3375 0)
(379.914 -43.8147 0)
(381.162 -44.386 0)
(382.279 -44.6398 0)
(383.337 -45.0838 0)
(384.307 -45.2278 0)
(385.247 -45.6208 0)
(386.145 -45.7444 0)
(387.01 -46.0939 0)
(387.828 -46.178 0)
(388.596 -46.4796 0)
(389.332 -46.5434 0)
(390.037 -46.7975 0)
(390.727 -46.8353 0)
(391.381 -47.053 0)
(392.02 -47.0867 0)
(392.624 -47.2783 0)
(393.217 -47.2953 0)
(393.77 -47.456 0)
(394.311 -47.4698 0)
(394.813 -47.6154 0)
(395.304 -47.6271 0)
(395.761 -47.7579 0)
(396.214 -47.7679 0)
(396.64 -47.8829 0)
(397.061 -47.8939 0)
(397.451 -48.0036 0)
(397.832 -48.0249 0)
(398.194 -48.1305 0)
(398.56 -48.1572 0)
(398.924 -48.2506 0)
(399.293 -48.2865 0)
(399.644 -48.3646 0)
(399.96 -48.4075 0)
(400.212 -48.4615 0)
(400.381 -48.5036 0)
(400.445 -48.5117 0)
(400.38 -48.5484 0)
(400.227 -48.4874 0)
(400.042 -48.5545 0)
(399.965 -48.4909 0)
(400.087 -48.5474 0)
(400.499 -48.5734 0)
(401.17 -48.657 0)
(401.973 -48.7586 0)
(402.773 -48.8916 0)
(403.204 -48.611 0)
(168.405 83.8679 0)
(170.529 5.54249 0)
(185.636 -0.617004 0)
(196.142 -2.21631 0)
(199.204 -4.95215 0)
(199.143 -6.46059 0)
(199.349 -7.48388 0)
(199.802 -8.37079 0)
(200.438 -9.09146 0)
(201.014 -9.74332 0)
(201.752 -10.1549 0)
(202.539 -10.4789 0)
(203.374 -10.7398 0)
(204.25 -10.9592 0)
(205.152 -11.1555 0)
(206.084 -11.3226 0)
(207.047 -11.4724 0)
(208.041 -11.6089 0)
(209.069 -11.7324 0)
(210.134 -11.8493 0)
(211.247 -11.9461 0)
(212.424 -12.0197 0)
(213.681 -12.0562 0)
(215.037 -12.05 0)
(216.51 -11.9933 0)
(218.112 -11.8857 0)
(219.854 -11.7272 0)
(221.74 -11.5232 0)
(223.771 -11.2862 0)
(225.932 -11.0354 0)
(228.202 -10.7975 0)
(230.546 -10.5994 0)
(232.933 -10.4677 0)
(235.342 -10.4199 0)
(237.771 -10.4641 0)
(240.238 -10.5982 0)
(242.774 -10.8139 0)
(245.415 -11.0984 0)
(248.201 -11.4371 0)
(251.169 -11.8172 0)
(254.356 -12.2241 0)
(257.799 -12.6407 0)
(261.532 -13.0446 0)
(265.574 -13.41 0)
(269.919 -13.7113 0)
(274.526 -13.9267 0)
(279.327 -14.0483 0)
(284.238 -14.0848 0)
(289.18 -14.0653 0)
(294.071 -14.0379 0)
(298.835 -14.0627 0)
(303.483 -14.2178 0)
(308.032 -14.5432 0)
(312.441 -15.0198 0)
(316.733 -15.6596 0)
(320.929 -16.4676 0)
(325.042 -17.4435 0)
(329.096 -18.5939 0)
(333.164 -19.9229 0)
(337.246 -21.4474 0)
(341.234 -23.1147 0)
(345.059 -24.7843 0)
(348.725 -26.4741 0)
(352.251 -28.2553 0)
(355.67 -30.1003 0)
(358.961 -31.9546 0)
(362.06 -33.7699 0)
(364.915 -35.4843 0)
(367.507 -37.039 0)
(369.842 -38.3924 0)
(371.942 -39.5405 0)
(373.822 -40.492 0)
(375.544 -41.373 0)
(377.131 -42.0923 0)
(378.558 -42.716 0)
(379.829 -43.1269 0)
(381.029 -43.6741 0)
(382.133 -43.9332 0)
(383.197 -44.402 0)
(384.176 -44.5698 0)
(385.131 -44.9835 0)
(386.034 -45.1151 0)
(386.898 -45.476 0)
(387.713 -45.5671 0)
(388.483 -45.8766 0)
(389.224 -45.9342 0)
(389.936 -46.1802 0)
(390.632 -46.2126 0)
(391.289 -46.4367 0)
(391.931 -46.4719 0)
(392.541 -46.6622 0)
(393.138 -46.6742 0)
(393.692 -46.833 0)
(394.232 -46.8407 0)
(394.732 -46.9829 0)
(395.219 -46.9931 0)
(395.674 -47.1262 0)
(396.123 -47.1319 0)
(396.547 -47.2404 0)
(396.965 -47.2427 0)
(397.352 -47.3459 0)
(397.731 -47.357 0)
(398.091 -47.4519 0)
(398.457 -47.4644 0)
(398.819 -47.5485 0)
(399.188 -47.5765 0)
(399.539 -47.6542 0)
(399.855 -47.6938 0)
(400.11 -47.746 0)
(400.283 -47.778 0)
(400.353 -47.7806 0)
(400.295 -47.8058 0)
(400.149 -47.7374 0)
(399.97 -47.792 0)
(399.901 -47.7203 0)
(400.039 -47.7742 0)
(400.484 -47.7992 0)
(401.193 -47.8873 0)
(402.013 -47.9898 0)
(402.813 -48.1204 0)
(403.249 -47.8447 0)
(168.215 83.7986 0)
(170.642 5.37143 0)
(185.789 -0.697573 0)
(196.297 -2.28114 0)
(199.313 -4.97472 0)
(199.219 -6.46152 0)
(199.409 -7.47582 0)
(199.85 -8.35855 0)
(200.477 -9.07247 0)
(201.05 -9.72172 0)
(201.786 -10.1306 0)
(202.572 -10.4509 0)
(203.407 -10.7095 0)
(204.282 -10.9271 0)
(205.184 -11.1217 0)
(206.116 -11.2868 0)
(207.079 -11.4342 0)
(208.073 -11.5681 0)
(209.101 -11.6885 0)
(210.168 -11.8019 0)
(211.285 -11.8947 0)
(212.466 -11.9636 0)
(213.728 -11.9944 0)
(215.092 -11.9811 0)
(216.573 -11.9163 0)
(218.185 -11.7996 0)
(219.938 -11.631 0)
(221.836 -11.4158 0)
(223.875 -11.1668 0)
(226.043 -10.9036 0)
(228.315 -10.6539 0)
(230.658 -10.4451 0)
(233.041 -10.3036 0)
(235.446 -10.2458 0)
(237.872 -10.279 0)
(240.338 -10.3995 0)
(242.875 -10.5984 0)
(245.519 -10.862 0)
(248.309 -11.1752 0)
(251.282 -11.5245 0)
(254.475 -11.8947 0)
(257.922 -12.2683 0)
(261.653 -12.6227 0)
(265.683 -12.9328 0)
(269.997 -13.175 0)
(274.542 -13.3321 0)
(279.258 -13.4007 0)
(284.074 -13.3883 0)
(288.93 -13.331 0)
(293.739 -13.2735 0)
(298.431 -13.2703 0)
(303.012 -13.3948 0)
(307.471 -13.7023 0)
(311.802 -14.1545 0)
(316.054 -14.7704 0)
(320.256 -15.5722 0)
(324.396 -16.5409 0)
(328.46 -17.6435 0)
(332.429 -18.8729 0)
(336.35 -20.2754 0)
(340.306 -21.8632 0)
(344.248 -23.629 0)
(348.049 -25.4759 0)
(351.668 -27.2728 0)
(355.101 -29.0247 0)
(358.342 -30.7787 0)
(361.395 -32.5307 0)
(364.26 -34.2277 0)
(366.919 -35.8185 0)
(369.349 -37.2577 0)
(371.546 -38.5148 0)
(373.539 -39.6128 0)
(375.319 -40.5448 0)
(376.854 -41.227 0)
(378.288 -41.9139 0)
(379.639 -42.3921 0)
(380.942 -42.9957 0)
(382.125 -43.2961 0)
(383.27 -43.8198 0)
(384.307 -44.019 0)
(385.29 -44.4567 0)
(386.202 -44.5825 0)
(387.072 -44.9415 0)
(387.897 -45.0138 0)
(388.681 -45.3054 0)
(389.437 -45.3434 0)
(390.155 -45.5941 0)
(390.855 -45.6353 0)
(391.516 -45.8652 0)
(392.165 -45.8949 0)
(392.779 -46.0842 0)
(393.379 -46.095 0)
(393.932 -46.2549 0)
(394.47 -46.2578 0)
(394.966 -46.3987 0)
(395.45 -46.4044 0)
(395.903 -46.5335 0)
(396.353 -46.5333 0)
(396.774 -46.6398 0)
(397.189 -46.6371 0)
(397.573 -46.7339 0)
(397.952 -46.7338 0)
(398.311 -46.8196 0)
(398.678 -46.8215 0)
(399.039 -46.8988 0)
(399.406 -46.9187 0)
(399.751 -46.9931 0)
(400.064 -47.025 0)
(400.312 -47.0729 0)
(400.478 -47.0954 0)
(400.535 -47.0948 0)
(400.458 -47.1119 0)
(400.283 -47.0397 0)
(400.069 -47.0878 0)
(399.965 -47.0098 0)
(400.07 -47.0559 0)
(400.48 -47.073 0)
(401.164 -47.1564 0)
(401.977 -47.2491 0)
(402.774 -47.3713 0)
(403.199 -47.0919 0)
(168.026 83.7142 0)
(170.755 5.1989 0)
(185.944 -0.779576 0)
(196.455 -2.34878 0)
(199.423 -4.99922 0)
(199.295 -6.46446 0)
(199.471 -7.46965 0)
(199.899 -8.34847 0)
(200.518 -9.05503 0)
(201.087 -9.70127 0)
(201.822 -10.107 0)
(202.608 -10.4234 0)
(203.442 -10.6795 0)
(204.317 -10.8952 0)
(205.218 -11.0879 0)
(206.15 -11.2509 0)
(207.112 -11.3959 0)
(208.106 -11.5271 0)
(209.135 -11.6442 0)
(210.203 -11.7539 0)
(211.323 -11.8425 0)
(212.508 -11.9066 0)
(213.776 -11.9314 0)
(215.146 -11.9108 0)
(216.634 -11.8373 0)
(218.256 -11.711 0)
(220.019 -11.5318 0)
(221.927 -11.3052 0)
(223.975 -11.0442 0)
(226.15 -10.7691 0)
(228.425 -10.5082 0)
(230.769 -10.2895 0)
(233.152 -10.1389 0)
(235.555 -10.0721 0)
(237.981 -10.0947 0)
(240.448 -10.2022 0)
(242.988 -10.3846 0)
(245.637 -10.6277 0)
(248.433 -10.9155 0)
(251.413 -11.2343 0)
(254.613 -11.5682 0)
(258.066 -11.8991 0)
(261.797 -12.2043 0)
(265.816 -12.4603 0)
(270.094 -12.647 0)
(274.573 -12.7499 0)
(279.208 -12.7637 0)
(283.965 -12.7031 0)
(288.759 -12.6067 0)
(293.486 -12.5199 0)
(298.084 -12.4949 0)
(302.545 -12.6037 0)
(306.873 -12.8804 0)
(311.09 -13.2834 0)
(315.264 -13.8447 0)
(319.41 -14.5896 0)
(323.546 -15.523 0)
(327.664 -16.65 0)
(331.726 -17.9312 0)
(335.681 -19.2822 0)
(339.528 -20.7352 0)
(343.326 -22.3645 0)
(347.129 -24.1494 0)
(350.866 -26.051 0)
(354.433 -27.9872 0)
(357.79 -29.8499 0)
(360.928 -31.6016 0)
(363.838 -33.2524 0)
(366.513 -34.8055 0)
(368.952 -36.2411 0)
(371.164 -37.5329 0)
(373.168 -38.6575 0)
(374.979 -39.5995 0)
(376.687 -40.4368 0)
(378.299 -41.2825 0)
(379.693 -41.8219 0)
(380.993 -42.4322 0)
(382.147 -42.6995 0)
(383.236 -43.1918 0)
(384.225 -43.3571 0)
(385.185 -43.7981 0)
(386.089 -43.9201 0)
(386.971 -44.2887 0)
(387.814 -44.3532 0)
(388.619 -44.6463 0)
(389.392 -44.6873 0)
(390.117 -44.9556 0)
(390.82 -45.003 0)
(391.492 -45.2377 0)
(392.15 -45.2643 0)
(392.769 -45.4558 0)
(393.372 -45.4641 0)
(393.932 -45.6234 0)
(394.475 -45.6212 0)
(394.975 -45.7618 0)
(395.466 -45.7632 0)
(395.926 -45.8913 0)
(396.384 -45.8908 0)
(396.81 -46.0026 0)
(397.23 -45.9993 0)
(397.62 -46.0934 0)
(398.007 -46.0859 0)
(398.374 -46.1664 0)
(398.75 -46.1612 0)
(399.117 -46.2346 0)
(399.492 -46.2476 0)
(399.846 -46.3188 0)
(400.167 -46.3423 0)
(400.423 -46.3855 0)
(400.596 -46.3985 0)
(400.66 -46.3959 0)
(400.594 -46.4082 0)
(400.433 -46.344 0)
(400.233 -46.3935 0)
(400.141 -46.3214 0)
(400.261 -46.3673 0)
(400.696 -46.3857 0)
(401.399 -46.4729 0)
(402.223 -46.5578 0)
(403.019 -46.6706 0)
(403.443 -46.3974 0)
(167.829 83.6382 0)
(170.869 5.02499 0)
(186.101 -0.862761 0)
(196.615 -2.4194 0)
(199.534 -5.02534 0)
(199.372 -6.46676 0)
(199.533 -7.46147 0)
(199.948 -8.33686 0)
(200.558 -9.03544 0)
(201.124 -9.67875 0)
(201.857 -10.0817 0)
(202.642 -10.3942 0)
(203.476 -10.6479 0)
(204.35 -10.8618 0)
(205.252 -11.0528 0)
(206.183 -11.2137 0)
(207.145 -11.3563 0)
(208.139 -11.4849 0)
(209.169 -11.5988 0)
(210.238 -11.7048 0)
(211.361 -11.7892 0)
(212.551 -11.8484 0)
(213.825 -11.8672 0)
(215.202 -11.8394 0)
(216.699 -11.7574 0)
(218.331 -11.6216 0)
(220.105 -11.432 0)
(222.024 -11.1942 0)
(224.081 -10.9212 0)
(226.261 -10.634 0)
(228.538 -10.3616 0)
(230.878 -10.1323 0)
(233.256 -9.97206 0)
(235.654 -9.89524 0)
(238.075 -9.90651 0)
(240.54 -10.0001 0)
(243.078 -10.1652 0)
(245.728 -10.387 0)
(248.526 -10.6489 0)
(251.508 -10.9365 0)
(254.709 -11.2336 0)
(258.162 -11.5218 0)
(261.886 -11.7786 0)
(265.877 -11.9821 0)
(270.094 -12.1151 0)
(274.514 -12.1663 0)
(279.104 -12.1282 0)
(283.8 -12.0222 0)
(288.493 -11.8862 0)
(293.107 -11.7696 0)
(297.592 -11.7194 0)
(301.948 -11.798 0)
(306.255 -12.0411 0)
(310.486 -12.4241 0)
(314.629 -12.9569 0)
(318.706 -13.6588 0)
(322.732 -14.5317 0)
(326.748 -15.5769 0)
(330.796 -16.8016 0)
(334.849 -18.2212 0)
(338.815 -19.7613 0)
(342.65 -21.3255 0)
(346.361 -22.9684 0)
(349.981 -24.7403 0)
(353.538 -26.6043 0)
(356.988 -28.5178 0)
(360.259 -30.4299 0)
(363.298 -32.2664 0)
(366.089 -33.9603 0)
(368.632 -35.472 0)
(370.934 -36.7941 0)
(372.999 -37.9175 0)
(374.872 -38.9054 0)
(376.598 -39.7551 0)
(378.095 -40.4813 0)
(379.456 -41.0028 0)
(380.758 -41.6466 0)
(381.937 -41.9681 0)
(383.081 -42.5152 0)
(384.119 -42.7062 0)
(385.148 -43.1725 0)
(386.107 -43.2936 0)
(387.021 -43.6736 0)
(387.874 -43.7425 0)
(388.669 -44.0575 0)
(389.425 -44.106 0)
(390.137 -44.3801 0)
(390.832 -44.4151 0)
(391.503 -44.6425 0)
(392.167 -44.6604 0)
(392.793 -44.8546 0)
(393.4 -44.8589 0)
(393.961 -45.0165 0)
(394.505 -45.0086 0)
(395.005 -45.1471 0)
(395.496 -45.1404 0)
(395.957 -45.2645 0)
(396.413 -45.2617 0)
(396.837 -45.3766 0)
(397.256 -45.3708 0)
(397.645 -45.4621 0)
(398.033 -45.4476 0)
(398.398 -45.5237 0)
(398.774 -45.5125 0)
(399.141 -45.5827 0)
(399.517 -45.5868 0)
(399.871 -45.6501 0)
(400.196 -45.6606 0)
(400.451 -45.6977 0)
(400.621 -45.7021 0)
(400.676 -45.7001 0)
(400.597 -45.7088 0)
(400.415 -45.6462 0)
(400.194 -45.6999 0)
(400.086 -45.6308 0)
(400.197 -45.6751 0)
(400.628 -45.6864 0)
(401.327 -45.773 0)
(402.16 -45.8498 0)
(402.973 -45.9553 0)
(403.402 -45.6698 0)
(167.637 83.5381 0)
(170.986 4.84987 0)
(186.259 -0.947063 0)
(196.776 -2.49284 0)
(199.646 -5.05331 0)
(199.451 -6.47107 0)
(199.598 -7.45536 0)
(199.999 -8.32771 0)
(200.599 -9.01726 0)
(201.163 -9.65732 0)
(201.894 -10.0571 0)
(202.679 -10.3656 0)
(203.512 -10.6167 0)
(204.386 -10.8285 0)
(205.287 -11.0177 0)
(206.218 -11.1764 0)
(207.179 -11.3166 0)
(208.173 -11.4423 0)
(209.203 -11.5529 0)
(210.274 -11.6551 0)
(211.4 -11.735 0)
(212.594 -11.7891 0)
(213.873 -11.8018 0)
(215.257 -11.7663 0)
(216.761 -11.6753 0)
(218.402 -11.5295 0)
(220.186 -11.3291 0)
(222.115 -11.0798 0)
(224.182 -10.795 0)
(226.368 -10.4962 0)
(228.647 -10.2129 0)
(230.987 -9.97396 0)
(233.362 -9.80473 0)
(235.758 -9.7186 0)
(238.177 -9.71905 0)
(240.641 -9.79912 0)
(243.181 -9.94736 0)
(245.833 -10.148 0)
(248.635 -10.3842 0)
(251.621 -10.6409 0)
(254.826 -10.9014 0)
(258.277 -11.1469 0)
(261.988 -11.3558 0)
(265.947 -11.5092 0)
(270.126 -11.5907 0)
(274.503 -11.5875 0)
(279.031 -11.5017 0)
(283.621 -11.3525 0)
(288.199 -11.1801 0)
(292.713 -11.0388 0)
(297.106 -10.9656 0)
(301.403 -11.0068 0)
(305.669 -11.2216 0)
(309.854 -11.5967 0)
(313.967 -12.1129 0)
(318.041 -12.7959 0)
(322.073 -13.6364 0)
(326.044 -14.6141 0)
(329.961 -15.7422 0)
(333.882 -17.0476 0)
(337.858 -18.5409 0)
(341.815 -20.2175 0)
(345.648 -21.9719 0)
(349.33 -23.7073 0)
(352.858 -25.453 0)
(356.23 -27.252 0)
(359.457 -29.0868 0)
(362.53 -30.9031 0)
(365.414 -32.652 0)
(368.072 -34.2759 0)
(370.486 -35.7284 0)
(372.675 -37.0068 0)
(374.632 -38.1167 0)
(376.268 -38.8898 0)
(377.869 -39.6917 0)
(379.345 -40.2903 0)
(380.752 -41 0)
(381.999 -41.387 0)
(383.19 -41.985 0)
(384.245 -42.1731 0)
(385.263 -42.6203 0)
(386.205 -42.706 0)
(387.109 -43.0858 0)
(387.955 -43.156 0)
(388.747 -43.4895 0)
(389.503 -43.5379 0)
(390.235 -43.8098 0)
(390.958 -43.8276 0)
(391.644 -44.0509 0)
(392.319 -44.0658 0)
(392.952 -44.2646 0)
(393.571 -44.2678 0)
(394.144 -44.4286 0)
(394.701 -44.4202 0)
(395.21 -44.559 0)
(395.71 -44.5458 0)
(396.175 -44.6669 0)
(396.635 -44.6606 0)
(397.062 -44.776 0)
(397.484 -44.7671 0)
(397.876 -44.8577 0)
(398.269 -44.8384 0)
(398.639 -44.913 0)
(399.022 -44.8998 0)
(399.395 -44.9697 0)
(399.78 -44.9646 0)
(400.144 -45.0183 0)
(400.481 -45.0156 0)
(400.747 -45.0475 0)
(400.93 -45.0424 0)
(400.997 -45.0362 0)
(400.928 -45.0318 0)
(400.753 -44.963 0)
(400.538 -45.0056 0)
(400.432 -44.9312 0)
(400.545 -44.9702 0)
(400.977 -44.9784 0)
(401.68 -45.0665 0)
(402.519 -45.151 0)
(403.344 -45.2596 0)
(403.781 -44.967 0)
(167.43 83.4549 0)
(171.103 4.6739 0)
(186.417 -1.03205 0)
(196.939 -2.56925 0)
(199.758 -5.08314 0)
(199.531 -6.47493 0)
(199.665 -7.44716 0)
(200.05 -8.31717 0)
(200.639 -8.99697 0)
(201.2 -9.63371 0)
(201.931 -10.0306 0)
(202.715 -10.3352 0)
(203.547 -10.5838 0)
(204.421 -10.7937 0)
(205.321 -10.9811 0)
(206.252 -11.1378 0)
(207.213 -11.2755 0)
(208.207 -11.3986 0)
(209.237 -11.5058 0)
(210.31 -11.6041 0)
(211.439 -11.6796 0)
(212.638 -11.7286 0)
(213.923 -11.7351 0)
(215.314 -11.6921 0)
(216.827 -11.5923 0)
(218.478 -11.4367 0)
(220.274 -11.2255 0)
(222.214 -10.9648 0)
(224.289 -10.6682 0)
(226.479 -10.3577 0)
(228.758 -10.0633 0)
(231.094 -9.81408 0)
(233.462 -9.63513 0)
(235.85 -9.53889 0)
(238.263 -9.52771 0)
(240.723 -9.59354 0)
(243.261 -9.72418 0)
(245.912 -9.90317 0)
(248.712 -10.1131 0)
(251.698 -10.3384 0)
(254.9 -10.5621 0)
(258.344 -10.7657 0)
(262.038 -10.9295 0)
(265.951 -11.0326 0)
(270.086 -11.0632 0)
(274.408 -11.01 0)
(278.848 -10.8787 0)
(283.347 -10.6911 0)
(287.86 -10.4891 0)
(292.31 -10.3207 0)
(296.646 -10.2235 0)
(300.88 -10.2403 0)
(305.033 -10.4279 0)
(309.105 -10.7533 0)
(313.144 -11.2149 0)
(317.183 -11.8504 0)
(321.225 -12.672 0)
(325.259 -13.676 0)
(329.244 -14.8122 0)
(333.149 -16.0338 0)
(336.986 -17.3956 0)
(340.821 -18.9436 0)
(344.682 -20.6617 0)
(348.487 -22.5189 0)
(352.141 -24.4249 0)
(355.615 -26.2799 0)
(358.898 -28.0684 0)
(361.982 -29.8096 0)
(364.855 -31.5026 0)
(367.514 -33.1136 0)
(369.953 -34.5992 0)
(372.172 -35.9218 0)
(374.207 -37.0642 0)
(376.16 -38.1373 0)
(377.822 -39.0178 0)
(379.301 -39.6386 0)
(380.671 -40.2974 0)
(381.878 -40.6606 0)
(383.029 -41.2458 0)
(384.078 -41.4472 0)
(385.107 -41.9221 0)
(386.054 -42.0349 0)
(386.973 -42.4435 0)
(387.826 -42.528 0)
(388.636 -42.8783 0)
(389.409 -42.9198 0)
(390.156 -43.1825 0)
(390.889 -43.1899 0)
(391.582 -43.4221 0)
(392.263 -43.4425 0)
(392.907 -43.648 0)
(393.535 -43.6525 0)
(394.117 -43.8195 0)
(394.677 -43.8134 0)
(395.188 -43.9547 0)
(395.687 -43.9364 0)
(396.148 -44.0549 0)
(396.604 -44.0427 0)
(397.027 -44.1573 0)
(397.445 -44.1462 0)
(397.833 -44.2377 0)
(398.222 -44.2135 0)
(398.587 -44.2881 0)
(398.964 -44.2749 0)
(399.333 -44.3461 0)
(399.717 -44.3322 0)
(400.081 -44.3758 0)
(400.421 -44.3617 0)
(400.688 -44.3935 0)
(400.874 -44.3848 0)
(400.944 -44.3797 0)
(400.878 -44.3668 0)
(400.703 -44.3003 0)
(400.483 -44.3235 0)
(400.376 -44.2471 0)
(400.494 -44.273 0)
(400.939 -44.2741 0)
(401.652 -44.3549 0)
(402.492 -44.4391 0)
(403.314 -44.5475 0)
(403.747 -44.257 0)
(167.235 83.3364 0)
(171.222 4.49738 0)
(186.576 -1.11783 0)
(197.102 -2.64864 0)
(199.872 -5.11492 0)
(199.613 -6.48092 0)
(199.732 -7.44096 0)
(200.101 -8.30887 0)
(200.682 -8.97828 0)
(201.241 -9.6112 0)
(201.97 -10.0049 0)
(202.753 -10.3053 0)
(203.585 -10.5513 0)
(204.458 -10.7591 0)
(205.358 -10.9446 0)
(206.287 -11.099 0)
(207.248 -11.2343 0)
(208.242 -11.3545 0)
(209.272 -11.4582 0)
(210.347 -11.5524 0)
(211.478 -11.6233 0)
(212.682 -11.6668 0)
(213.973 -11.667 0)
(215.37 -11.616 0)
(216.891 -11.507 0)
(218.551 -11.3409 0)
(220.356 -11.1186 0)
(222.307 -10.8464 0)
(224.39 -10.5381 0)
(226.586 -10.2163 0)
(228.866 -9.91148 0)
(231.2 -9.65292 0)
(233.564 -9.46507 0)
(235.948 -9.35934 0)
(238.358 -9.33697 0)
(240.815 -9.38887 0)
(243.352 -9.50216 0)
(246.004 -9.65967 0)
(248.806 -9.84353 0)
(251.793 -10.0377 0)
(254.994 -10.2249 0)
(258.425 -10.3864 0)
(262.085 -10.5033 0)
(265.978 -10.5606 0)
(270.073 -10.542 0)
(274.324 -10.4422 0)
(278.691 -10.2659 0)
(283.141 -10.0373 0)
(287.595 -9.80443 0)
(291.955 -9.61178 0)
(296.194 -9.49496 0)
(300.311 -9.48519 0)
(304.374 -9.63171 0)
(308.42 -9.92183 0)
(312.422 -10.3468 0)
(316.387 -10.9352 0)
(320.335 -11.6941 0)
(324.297 -12.6209 0)
(328.303 -13.7285 0)
(332.31 -15.0225 0)
(336.243 -16.4218 0)
(340.074 -17.8756 0)
(343.816 -19.4504 0)
(347.51 -21.1772 0)
(351.173 -23.0225 0)
(354.752 -24.9533 0)
(358.168 -26.9146 0)
(361.374 -28.8246 0)
(364.357 -30.6175 0)
(367.112 -32.2682 0)
(369.634 -33.7655 0)
(371.914 -35.0937 0)
(373.953 -36.2288 0)
(375.756 -37.2083 0)
(377.446 -38.0954 0)
(378.977 -38.7744 0)
(380.408 -39.4885 0)
(381.7 -39.9234 0)
(382.965 -40.5598 0)
(384.101 -40.8113 0)
(385.215 -41.3466 0)
(386.21 -41.4902 0)
(387.144 -41.903 0)
(388.009 -41.9637 0)
(388.841 -42.2981 0)
(389.636 -42.3215 0)
(390.386 -42.5964 0)
(391.116 -42.624 0)
(391.809 -42.8755 0)
(392.493 -42.8954 0)
(393.144 -43.0968 0)
(393.781 -43.0944 0)
(394.37 -43.2605 0)
(394.939 -43.248 0)
(395.458 -43.3862 0)
(395.965 -43.3614 0)
(396.43 -43.475 0)
(396.891 -43.4515 0)
(397.317 -43.5586 0)
(397.738 -43.5407 0)
(398.126 -43.6299 0)
(398.513 -43.6012 0)
(398.875 -43.6747 0)
(399.25 -43.6552 0)
(399.62 -43.7181 0)
(400.01 -43.6922 0)
(400.377 -43.7298 0)
(400.722 -43.7112 0)
(400.992 -43.7423 0)
(401.183 -43.7264 0)
(401.254 -43.7192 0)
(401.184 -43.6953 0)
(400.992 -43.6291 0)
(400.744 -43.6373 0)
(400.598 -43.559 0)
(400.685 -43.5734 0)
(401.114 -43.5694 0)
(401.829 -43.6425 0)
(402.678 -43.7134 0)
(403.511 -43.8207 0)
(403.949 -43.5281 0)
(167.019 83.2445 0)
(171.342 4.31995 0)
(186.736 -1.20373 0)
(197.267 -2.73116 0)
(199.986 -5.14865 0)
(199.697 -6.48649 0)
(199.799 -7.43333 0)
(200.151 -8.29839 0)
(200.725 -8.9577 0)
(201.28 -9.58651 0)
(202.008 -9.97717 0)
(202.791 -10.2736 0)
(203.621 -10.517 0)
(204.494 -10.7229 0)
(205.393 -10.9065 0)
(206.322 -11.0589 0)
(207.282 -11.1917 0)
(208.276 -11.3091 0)
(209.307 -11.4093 0)
(210.383 -11.4995 0)
(211.518 -11.5656 0)
(212.726 -11.6039 0)
(214.023 -11.5976 0)
(215.428 -11.5388 0)
(216.958 -11.4206 0)
(218.629 -11.2443 0)
(220.445 -11.0109 0)
(222.406 -10.7272 0)
(224.498 -10.4073 0)
(226.698 -10.0741 0)
(228.977 -9.75865 0)
(231.305 -9.49022 0)
(233.66 -9.29277 0)
(236.034 -9.1768 0)
(238.436 -9.14249 0)
(240.887 -9.17977 0)
(243.42 -9.27511 0)
(246.069 -9.41064 0)
(248.868 -9.56803 0)
(251.849 -9.73068 0)
(255.04 -9.88141 0)
(258.456 -10.0028 0)
(262.092 -10.0761 0)
(265.94 -10.0861 0)
(269.974 -10.0213 0)
(274.167 -9.87657 0)
(278.494 -9.65535 0)
(282.886 -9.38969 0)
(287.228 -9.1245 0)
(291.473 -8.90338 0)
(295.623 -8.76238 0)
(299.692 -8.72552 0)
(303.762 -8.84199 0)
(307.794 -9.12333 0)
(311.765 -9.52993 0)
(315.711 -10.0864 0)
(319.632 -10.7978 0)
(323.519 -11.6561 0)
(327.386 -12.6723 0)
(331.292 -13.8613 0)
(335.262 -15.2407 0)
(339.213 -16.8034 0)
(343.062 -18.4469 0)
(346.788 -20.1045 0)
(350.39 -21.8174 0)
(353.873 -23.6226 0)
(357.253 -25.4963 0)
(360.511 -27.3909 0)
(363.603 -29.26 0)