/*--------------------------------*- C++ -*----------------------------------*\
| =========                 |                                                 |
| \\      /  F ield         | OpenFOAM: The Open Source CFD Toolbox           |
|  \\    /   O peration     | Version:  2412                                  |
|   \\  /    A nd           | Website:  www.openfoam.com                      |
|    \\/     M anipulation  |                                                 |
\*---------------------------------------------------------------------------*/
FoamFile
{
    version     2.0;
    format      ascii;
    arch        "LSB;label=32;scalar=64";
    class       volScalarField;
    location    "0.118";
    object      T;
}
// * * * * * * * * * * * * * * * * * * * * * * * * * * * * * * * * * * * * * //

dimensions      [0 0 0 1 0 0 0];

internalField   nonuniform List<scalar> 
9816
(
227.074
227.084
227.09
227.094
227.096
227.095
227.091
227.086
227.079
227.069
227.059
227.047
227.034
227.019
227.004
226.987
226.969
226.948
226.928
226.903
226.878
226.849
226.816
226.78
226.742
226.704
226.671
226.645
226.631
226.627
226.64
226.69
226.794
226.965
227.2
227.491
227.815
228.172
228.541
228.933
229.31
229.66
225.516
225.494
225.472
225.448
225.424
225.4
225.376
225.351
225.327
225.303
225.28
225.258
225.236
225.213
225.19
225.163
225.135
225.102
225.064
225.024
224.984
224.946
224.917
224.899
224.892
224.905
224.951
225.061
225.247
225.51
225.834
226.199
226.581
226.957
227.314
227.638
227.925
228.156
228.327
228.427
228.468
228.444
224.788
224.769
224.75
224.731
224.713
224.694
224.677
224.661
224.645
224.63
224.616
224.6
224.585
224.565
224.544
224.519
224.491
224.463
224.436
224.416
224.406
224.404
224.411
224.442
224.512
224.638
224.828
225.082
225.391
225.748
226.137
226.538
226.918
227.24
227.499
227.695
227.788
227.806
227.828
227.838
227.831
227.797
224.345
224.33
224.316
224.302
224.289
224.276
224.265
224.254
224.244
224.234
224.225
224.213
224.199
224.182
224.162
224.142
224.123
224.109
224.1
224.098
224.104
224.124
224.174
224.265
224.416
224.628
224.906
225.242
225.626
226.03
226.421
226.775
227.06
227.231
227.337
227.419
227.451
227.449
227.422
227.401
227.373
227.336
224.075
224.064
224.054
224.044
224.034
224.025
224.016
224.008
224
223.991
223.981
223.968
223.954
223.938
223.922
223.909
223.901
223.898
223.901
223.913
223.943
224.002
224.105
224.26
224.477
224.759
225.103
225.487
225.885
226.262
226.587
226.815
226.968
227.076
227.12
227.119
227.109
227.109
227.105
227.093
227.069
227.028
223.863
223.853
223.843
223.834
223.826
223.818
223.81
223.803
223.795
223.786
223.775
223.763
223.75
223.738
223.73
223.726
223.725
223.728
223.741
223.77
223.827
223.923
224.071
224.281
224.557
224.893
225.269
225.657
226.025
226.335
226.558
226.719
226.821
226.852
226.85
226.858
226.866
226.871
226.869
226.854
226.821
226.773
223.692
223.686
223.68
223.674
223.669
223.665
223.66
223.654
223.648
223.639
223.63
223.619
223.61
223.602
223.597
223.596
223.598
223.606
223.626
223.666
223.738
223.853
224.025
224.259
224.556
224.905
225.282
225.658
226.002
226.268
226.449
226.578
226.643
226.65
226.648
226.66
226.673
226.682
226.682
226.667
226.636
226.594
223.571
223.566
223.561
223.556
223.551
223.547
223.542
223.536
223.529
223.52
223.51
223.5
223.492
223.486
223.483
223.482
223.485
223.494
223.517
223.561
223.639
223.761
223.939
224.178
224.477
224.82
225.184
225.538
225.855
226.106
226.275
226.39
226.459
226.48
226.475
226.481
226.491
226.501
226.504
226.496
226.476
226.446
223.447
223.443
223.439
223.435
223.432
223.428
223.424
223.42
223.413
223.406
223.398
223.39
223.383
223.379
223.378
223.379
223.383
223.395
223.42
223.467
223.546
223.667
223.841
224.072
224.356
224.681
225.025
225.362
225.666
225.918
226.095
226.211
226.289
226.326
226.328
226.325
226.334
226.345
226.352
226.352
226.343
226.322
223.345
223.343
223.34
223.338
223.335
223.333
223.329
223.325
223.319
223.312
223.305
223.298
223.294
223.291
223.291
223.292
223.298
223.312
223.341
223.392
223.474
223.597
223.769
223.992
224.263
224.57
224.895
225.214
225.505
225.747
225.927
226.053
226.136
226.17
226.174
226.182
226.197
226.208
226.211
226.209
226.198
226.183
223.251
223.249
223.246
223.244
223.242
223.239
223.235
223.231
223.225
223.219
223.213
223.208
223.205
223.204
223.204
223.207
223.216
223.235
223.269
223.329
223.42
223.552
223.73
223.955
224.222
224.519
224.828
225.127
225.398
225.622
225.797
225.914
225.977
226.014
226.042
226.055
226.057
226.052
226.05
226.051
226.052
226.049
223.154
223.151
223.149
223.147
223.145
223.142
223.138
223.134
223.129
223.124
223.12
223.117
223.116
223.116
223.118
223.123
223.136
223.16
223.204
223.272
223.375
223.517
223.705
223.935
224.203
224.493
224.791
225.074
225.327
225.534
225.687
225.785
225.854
225.892
225.9
225.899
225.906
225.915
225.924
225.928
225.926
225.917
223.067
223.065
223.064
223.062
223.06
223.058
223.054
223.05
223.046
223.042
223.039
223.038
223.037
223.038
223.041
223.049
223.065
223.094
223.143
223.219
223.329
223.478
223.67
223.902
224.166
224.45
224.735
225.004
225.242
225.436
225.575
225.668
225.732
225.763
225.767
225.768
225.777
225.788
225.797
225.799
225.796
225.786
222.986
222.985
222.983
222.981
222.979
222.976
222.973
222.969
222.965
222.962
222.96
222.959
222.959
222.96
222.964
222.974
222.991
223.023
223.074
223.153
223.263
223.413
223.601
223.827
224.082
224.353
224.627
224.885
225.113
225.301
225.446
225.543
225.601
225.638
225.659
225.664
225.662
225.664
225.668
225.672
225.675
225.673
222.906
222.905
222.903
222.902
222.899
222.897
222.894
222.89
222.887
222.884
222.883
222.882
222.882
222.884
222.888
222.897
222.915
222.947
222.996
223.07
223.175
223.315
223.491
223.702
223.94
224.198
224.458
224.71
224.936
225.129
225.282
225.393
225.465
225.514
225.539
225.543
225.544
225.549
225.556
225.56
225.561
225.557
222.837
222.836
222.834
222.833
222.83
222.828
222.825
222.821
222.818
222.815
222.814
222.813
222.813
222.815
222.819
222.827
222.844
222.872
222.918
222.985
223.08
223.207
223.367
223.56
223.781
224.022
224.271
224.516
224.744
224.945
225.109
225.235
225.327
225.387
225.416
225.427
225.438
225.448
225.452
225.452
225.447
225.445
222.772
222.771
222.769
222.768
222.765
222.763
222.76
222.756
222.753
222.75
222.749
222.748
222.748
222.75
222.754
222.762
222.778
222.804
222.846
222.909
222.996
223.113
223.26
223.44
223.646
223.874
224.114
224.353
224.581
224.785
224.959
225.095
225.196
225.267
225.307
225.323
225.333
225.343
225.35
225.351
225.349
225.345
222.711
222.709
222.708
222.706
222.703
222.701
222.698
222.695
222.692
222.69
222.689
222.688
222.689
222.69
222.694
222.703
222.719
222.747
222.789
222.851
222.938
223.052
223.196
223.371
223.571
223.792
224.025
224.258
224.48
224.682
224.854
224.99
225.094
225.166
225.207
225.226
225.241
225.251
225.255
225.253
225.25
225.251
222.655
222.653
222.652
222.65
222.647
222.645
222.642
222.64
222.637
222.636
222.635
222.635
222.635
222.638
222.643
222.653
222.672
222.702
222.749
222.816
222.908
223.028
223.178
223.356
223.559
223.778
224.007
224.233
224.446
224.637
224.799
224.929
225.025
225.087
225.127
225.153
225.163
225.163
225.163
225.167
225.172
225.177
222.6
222.598
222.596
222.594
222.592
222.59
222.587
222.585
222.583
222.582
222.582
222.582
222.583
222.586
222.593
222.606
222.629
222.663
222.716
222.79
222.89
223.017
223.174
223.357
223.563
223.782
224.008
224.227
224.432
224.612
224.763
224.881
224.966
225.024
225.061
225.078
225.082
225.085
225.091
225.097
225.1
225.101
222.547
222.546
222.544
222.542
222.54
222.537
222.535
222.533
222.532
222.532
222.532
222.532
222.534
222.538
222.547
222.562
222.588
222.627
222.685
222.765
222.871
223.005
223.166
223.353
223.56
223.778
224
224.213
224.41
224.581
224.723
224.831
224.909
224.962
224.992
225.003
225.01
225.018
225.024
225.026
225.025
225.023
222.496
222.494
222.492
222.49
222.488
222.486
222.485
222.483
222.483
222.482
222.482
222.483
222.486
222.491
222.501
222.519
222.547
222.59
222.651
222.735
222.844
222.981
223.144
223.332
223.537
223.752
223.969
224.176
224.365
224.529
224.664
224.768
224.843
224.891
224.92
224.938
224.948
224.948
224.947
224.95
224.953
224.957
222.445
222.444
222.442
222.44
222.439
222.437
222.436
222.435
222.435
222.434
222.435
222.436
222.439
222.445
222.457
222.475
222.504
222.548
222.61
222.695
222.804
222.939
223.101
223.284
223.485
223.695
223.906
224.107
224.292
224.453
224.587
224.691
224.768
224.819
224.847
224.863
224.875
224.881
224.88
224.879
224.881
224.883
222.396
222.395
222.393
222.392
222.39
222.388
222.387
222.386
222.386
222.386
222.386
222.388
222.391
222.397
222.409
222.428
222.457
222.501
222.562
222.645
222.751
222.882
223.038
223.215
223.41
223.613
223.819
224.016
224.2
224.36
224.495
224.601
224.681
224.736
224.767
224.782
224.794
224.803
224.806
224.805
224.805
224.806
222.346
222.344
222.343
222.341
222.34
222.338
222.337
222.336
222.336
222.336
222.337
222.338
222.342
222.349
222.361
222.38
222.41
222.453
222.514
222.594
222.698
222.826
222.977
223.149
223.337
223.536
223.736
223.93
224.111
224.27
224.405
224.512
224.592
224.649
224.682
224.698
224.711
224.719
224.722
224.722
224.721
224.724
222.295
222.293
222.291
222.29
222.288
222.287
222.286
222.285
222.285
222.285
222.286
222.288
222.292
222.299
222.312
222.332
222.364
222.409
222.471
222.554
222.659
222.787
222.938
223.109
223.295
223.49
223.686
223.874
224.049
224.203
224.332
224.433
224.51
224.563
224.594
224.609
224.622
224.63
224.632
224.632
224.631
224.634
222.244
222.243
222.241
222.239
222.237
222.236
222.235
222.234
222.234
222.234
222.235
222.237
222.242
222.251
222.265
222.288
222.323
222.372
222.44
222.528
222.639
222.773
222.929
223.104
223.291
223.483
223.673
223.854
224.019
224.161
224.279
224.371
224.437
224.483
224.513
224.525
224.529
224.534
224.541
224.545
224.547
224.547
222.194
222.192
222.19
222.188
222.186
222.184
222.183
222.183
222.183
222.183
222.184
222.187
222.193
222.203
222.22
222.247
222.286
222.341
222.415
222.51
222.629
222.769
222.931
223.108
223.296
223.487
223.673
223.846
224.001
224.132
224.237
224.317
224.374
224.41
224.428
224.44
224.449
224.453
224.454
224.453
224.455
224.457
222.149
222.146
222.143
222.141
222.139
222.137
222.135
222.134
222.134
222.134
222.135
222.139
222.145
222.157
222.176
222.206
222.249
222.309
222.388
222.489
222.613
222.759
222.924
223.104
223.292
223.48
223.661
223.827
223.973
224.094
224.189
224.26
224.307
224.334
224.352
224.363
224.367
224.365
224.366
224.369
224.373
224.378
222.107
222.104
222.1
222.097
222.095
222.092
222.091
222.09
222.09
222.09
222.091
222.094
222.102
222.115
222.136
222.167
222.213
222.276
222.359
222.464
222.591
222.739
222.905
223.085
223.27
223.455
223.631
223.791
223.93
224.045
224.135
224.201
224.245
224.273
224.291
224.297
224.297
224.298
224.302
224.307
224.31
224.312
222.074
222.07
222.066
222.062
222.059
222.056
222.054
222.053
222.053
222.053
222.054
222.057
222.064
222.077
222.098
222.129
222.175
222.237
222.319
222.422
222.547
222.692
222.855
223.03
223.211
223.392
223.565
223.723
223.861
223.976
224.068
224.137
224.184
224.213
224.232
224.243
224.246
224.245
224.246
224.25
224.253
224.256
222.049
222.044
222.04
222.036
222.032
222.029
222.026
222.024
222.023
222.023
222.024
222.026
222.032
222.044
222.063
222.092
222.134
222.191
222.267
222.362
222.478
222.613
222.766
222.931
223.105
223.282
223.454
223.616
223.761
223.886
223.988
224.067
224.125
224.162
224.183
224.195
224.204
224.207
224.207
224.206
224.208
224.21
222.029
222.024
222.02
222.015
222.011
222.007
222.004
222.001
222
222
222
222.002
222.006
222.015
222.03
222.054
222.09
222.139
222.204
222.288
222.39
222.512
222.652
222.807
222.974
223.146
223.319
223.485
223.639
223.776
223.893
223.988
224.061
224.112
224.144
224.163
224.176
224.181
224.18
224.179
224.182
224.185
222.013
222.008
222.003
221.998
221.993
221.989
221.986
221.983
221.981
221.98
221.98
221.981
221.983
221.989
222
222.019
222.046
222.086
222.139
222.209
222.297
222.403
222.528
222.67
222.825
222.991
223.162
223.332
223.495
223.646
223.781
223.895
223.987
224.058
224.109
224.14
224.158
224.171
224.178
224.178
224.177
224.179
222.001
221.995
221.99
221.985
221.98
221.975
221.971
221.967
221.965
221.963
221.963
221.963
221.964
221.967
221.975
221.987
222.007
222.037
222.079
222.135
222.208
222.297
222.405
222.53
222.672
222.827
222.992
223.161
223.33
223.491
223.642
223.776
223.891
223.985
224.058
224.11
224.146
224.171
224.181
224.182
224.184
224.189
221.994
221.988
221.982
221.976
221.971
221.966
221.961
221.957
221.954
221.951
221.95
221.95
221.95
221.951
221.955
221.963
221.977
221.998
222.03
222.073
222.13
222.203
222.293
222.401
222.525
222.665
222.818
222.979
223.145
223.311
223.47
223.62
223.755
223.873
223.971
224.051
224.112
224.154
224.181
224.2
224.209
224.209
221.994
221.988
221.981
221.975
221.969
221.963
221.958
221.953
221.949
221.946
221.943
221.942
221.942
221.942
221.944
221.948
221.957
221.971
221.993
222.025
222.069
222.126
222.198
222.286
222.391
222.511
222.645
222.792
222.947
223.107
223.267
223.424
223.573
223.709
223.831
223.936
224.022
224.091
224.144
224.186
224.215
224.232
222.006
221.998
221.991
221.984
221.977
221.97
221.964
221.958
221.953
221.949
221.946
221.944
221.942
221.942
221.942
221.944
221.948
221.957
221.972
221.994
222.025
222.067
222.122
222.19
222.272
222.369
222.481
222.605
222.741
222.886
223.037
223.19
223.341
223.488
223.627
223.754
223.867
223.965
224.047
224.115
224.169
224.211
222.033
222.024
222.015
222.007
221.999
221.992
221.984
221.978
221.971
221.966
221.961
221.958
221.955
221.954
221.953
221.954
221.956
221.96
221.968
221.98
222
222.028
222.067
222.116
222.177
222.25
222.337
222.436
222.547
222.67
222.803
222.943
223.088
223.235
223.38
223.521
223.655
223.779
223.891
223.99
224.076
224.15
222.075
222.065
222.056
222.046
222.037
222.029
222.021
222.013
222.005
221.999
221.993
221.988
221.984
221.981
221.979
221.978
221.978
221.979
221.983
221.991
222.004
222.022
222.047
222.08
222.122
222.175
222.24
222.318
222.408
222.511
222.626
222.751
222.885
223.026
223.171
223.318
223.463
223.603
223.736
223.86
223.974
224.077
222.129
222.119
222.109
222.099
222.089
222.08
222.072
222.063
222.055
222.048
222.041
222.035
222.03
222.026
222.023
222.022
222.021
222.021
222.022
222.026
222.033
222.046
222.066
222.093
222.131
222.178
222.236
222.306
222.388
222.482
222.588
222.705
222.832
222.967
223.109
223.254
223.401
223.546
223.686
223.82
223.946
224.063
222.191
222.18
222.169
222.159
222.149
222.139
222.13
222.121
222.113
222.105
222.097
222.091
222.085
222.08
222.077
222.074
222.073
222.073
222.073
222.075
222.081
222.091
222.108
222.133
222.167
222.212
222.267
222.335
222.415
222.508
222.612
222.728
222.854
222.988
223.13
223.275
223.421
223.566
223.708
223.844
223.974
224.096
222.257
222.245
222.234
222.223
222.213
222.203
222.193
222.184
222.175
222.167
222.159
222.152
222.146
222.141
222.138
222.136
222.135
222.135
222.136
222.14
222.147
222.159
222.178
222.205
222.242
222.289
222.347
222.418
222.5
222.595
222.702
222.82
222.947
223.083
223.224
223.369
223.516
223.661
223.802
223.939
224.07
224.193
222.324
222.312
222.301
222.29
222.28
222.269
222.259
222.25
222.241
222.232
222.225
222.218
222.213
222.21
222.207
222.207
222.207
222.208
222.211
222.219
222.231
222.251
222.278
222.315
222.362
222.42
222.491
222.573
222.668
222.774
222.891
223.018
223.152
223.292
223.436
223.583
223.729
223.872
224.01
224.142
224.266
224.382
222.392
222.381
222.369
222.358
222.348
222.337
222.327
222.318
222.309
222.301
222.295
222.29
222.286
222.285
222.284
222.284
222.287
222.292
222.302
222.318
222.341
222.375
222.418
222.473
222.541
222.62
222.712
222.816
222.93
223.054
223.186
223.327
223.472
223.622
223.771
223.919
224.063
224.2
224.329
224.448
224.556
224.654
222.461
222.449
222.437
222.426
222.416
222.405
222.396
222.387
222.379
222.373
222.368
222.366
222.365
222.365
222.366
222.37
222.379
222.393
222.415
222.447
222.49
222.546
222.615
222.697
222.793
222.901
223.021
223.153
223.294
223.444
223.599
223.757
223.915
224.071
224.222
224.365
224.498
224.619
224.727
224.821
224.902
224.97
222.527
222.516
222.504
222.493
222.483
222.473
222.464
222.457
222.451
222.448
222.446
222.446
222.447
222.45
222.457
222.47
222.491
222.522
222.565
222.622
222.693
222.78
222.882
222.998
223.129
223.273
223.428
223.593
223.762
223.934
224.105
224.271
224.429
224.577
224.712
224.834
224.941
225.033
225.109
225.17
225.216
225.252
222.591
222.58
222.568
222.558
222.548
222.54
222.533
222.529
222.527
222.526
222.526
222.529
222.535
222.547
222.566
222.595
222.638
222.695
222.768
222.859
222.966
223.091
223.232
223.389
223.56
223.74
223.926
224.113
224.297
224.474
224.64
224.793
224.929
225.049
225.151
225.236
225.306
225.36
225.398
225.425
225.447
225.457
222.652
222.641
222.63
222.621
222.613
222.608
222.605
222.603
222.604
222.605
222.61
222.62
222.637
222.665
222.705
222.761
222.834
222.927
223.038
223.17
223.32
223.489
223.673
223.868
224.07
224.273
224.471
224.66
224.835
224.992
225.13
225.247
225.345
225.423
225.484
225.529
225.563
225.588
225.602
225.606
225.61
225.614
222.71
222.7
222.691
222.684
222.68
222.677
222.677
222.678
222.681
222.689
222.704
222.728
222.764
222.816
222.887
222.979
223.092
223.227
223.384
223.563
223.759
223.967
224.184
224.402
224.614
224.816
225
225.165
225.307
225.425
225.52
225.595
225.65
225.691
225.72
225.739
225.749
225.754
225.758
225.761
225.763
225.762
222.765
222.757
222.751
222.747
222.746
222.746
222.748
222.754
222.765
222.784
222.814
222.86
222.924
223.01
223.12
223.254
223.414
223.598
223.803
224.024
224.255
224.488
224.716
224.932
225.13
225.305
225.455
225.578
225.676
225.75
225.804
225.842
225.87
225.886
225.893
225.897
225.9
225.903
225.904
225.905
225.904
225.901
222.818
222.812
222.809
222.809
222.809
222.812
222.819
222.833
222.856
222.891
222.945
223.019
223.119
223.245
223.4
223.583
223.792
224.021
224.264
224.513
224.76
224.995
225.211
225.402
225.566
225.7
225.806
225.886
225.944
225.984
226.008
226.023
226.034
226.04
226.042
226.041
226.04
226.039
226.039
226.038
226.038
226.036
222.868
222.866
222.866
222.867
222.87
222.878
222.892
222.917
222.956
223.014
223.095
223.204
223.344
223.515
223.717
223.946
224.196
224.458
224.723
224.98
225.221
225.437
225.624
225.779
225.902
225.996
226.062
226.108
226.141
226.158
226.165
226.17
226.173
226.176
226.177
226.178
226.176
226.174
226.17
226.166
226.163
226.158
222.916
222.916
222.917
222.92
222.928
222.942
222.967
223.006
223.064
223.148
223.261
223.406
223.587
223.8
224.044
224.309
224.586
224.865
225.134
225.382
225.603
225.791
225.944
226.063
226.152
226.211
226.25
226.279
226.296
226.301
226.302
226.303
226.304
226.305
226.306
226.306
226.305
226.301
226.295
226.289
226.281
226.273
222.96
222.961
222.963
222.97
222.983
223.005
223.042
223.097
223.177
223.288
223.432
223.613
223.83
224.079
224.352
224.64
224.931
225.212
225.473
225.705
225.902
226.062
226.185
226.275
226.339
226.383
226.406
226.417
226.424
226.429
226.433
226.435
226.435
226.433
226.43
226.426
226.422
226.417
226.412
226.405
226.396
226.385
222.999
223.001
223.006
223.017
223.037
223.069
223.118
223.192
223.295
223.432
223.606
223.818
224.064
224.338
224.631
224.931
225.224
225.499
225.747
225.96
226.135
226.272
226.375
226.449
226.496
226.521
226.54
226.552
226.557
226.559
226.558
226.556
226.554
226.552
226.55
226.548
226.543
226.537
226.528
226.517
226.503
226.487
223.033
223.038
223.047
223.063
223.09
223.134
223.199
223.292
223.418
223.581
223.782
224.02
224.29
224.582
224.886
225.189
225.479
225.744
225.977
226.173
226.33
226.451
226.537
226.596
226.636
226.662
226.673
226.677
226.68
226.681
226.682
226.682
226.682
226.679
226.673
226.666
226.658
226.648
226.635
226.621
226.605
226.586
223.065
223.073
223.086
223.11
223.148
223.207
223.291
223.406
223.557
223.746
223.973
224.234
224.522
224.827
225.136
225.438
225.72
225.973
226.19
226.369
226.509
226.615
226.691
226.741
226.769
226.788
226.801
226.807
226.808
226.808
226.806
226.803
226.8
226.797
226.791
226.784
226.774
226.761
226.745
226.727
226.706
226.682
223.095
223.107
223.129
223.164
223.218
223.295
223.402
223.542
223.722
223.939
224.194
224.477
224.782
225.096
225.407
225.702
225.972
226.209
226.407
226.568
226.691
226.779
226.841
226.884
226.909
226.92
226.926
226.928
226.93
226.931
226.931
226.929
226.923
226.916
226.906
226.894
226.88
226.863
226.844
226.822
226.799
226.773
223.127
223.147
223.181
223.232
223.306
223.408
223.544
223.718
223.931
224.182
224.466
224.772
225.092
225.411
225.718
226.002
226.254
226.469
226.644
226.78
226.883
226.955
226.999
227.028
227.047
227.058
227.061
227.062
227.06
227.057
227.054
227.05
227.043
227.034
227.022
227.006
226.987
226.964
226.939
226.913
226.884
226.854
223.166
223.2
223.251
223.324
223.426
223.563
223.738
223.953
224.208
224.497
224.811
225.139
225.47
225.788
226.085
226.349
226.574
226.76
226.906
227.015
227.089
227.139
227.174
227.193
227.2
227.202
227.202
227.201
227.2
227.198
227.193
227.185
227.172
227.156
227.135
227.112
227.086
227.058
227.028
226.998
226.968
226.937
223.218
223.27
223.347
223.453
223.595
223.778
224.002
224.268
224.57
224.898
225.242
225.588
225.921
226.23
226.505
226.739
226.931
227.079
227.188
227.266
227.319
227.348
227.362
227.369
227.372
227.374
227.374
227.371
227.365
227.356
227.343
227.326
227.305
227.281
227.253
227.224
227.193
227.16
227.127
227.094
227.06
227.026
223.296
223.377
223.492
223.644
223.839
224.08
224.364
224.686
225.037
225.402
225.768
226.12
226.444
226.729
226.97
227.164
227.314
227.421
227.493
227.54
227.568
227.582
227.586
227.587
227.585
227.582
227.578
227.569
227.557
227.54
227.517
227.49
227.459
227.424
227.388
227.35
227.312
227.273
227.236
227.2
227.164
227.129
223.412
223.537
223.704
223.917
224.18
224.489
224.839
225.218
225.612
226.004
226.378
226.719
227.017
227.265
227.46
227.609
227.711
227.777
227.819
227.842
227.852
227.854
227.853
227.849
227.844
227.835
227.822
227.804
227.78
227.75
227.716
227.676
227.634
227.589
227.544
227.499
227.454
227.412
227.371
227.332
227.295
227.26
223.585
223.768
224.002
224.291
224.63
225.013
225.426
225.854
226.276
226.677
227.038
227.35
227.606
227.803
227.947
228.046
228.11
228.144
228.159
228.165
228.166
228.165
228.161
228.154
228.141
228.123
228.097
228.064
228.026
227.981
227.933
227.883
227.83
227.778
227.726
227.676
227.627
227.582
227.539
227.499
227.461
227.425
223.824
224.08
224.394
224.765
225.182
225.632
226.096
226.552
226.982
227.366
227.693
227.958
228.157
228.301
228.398
228.454
228.482
228.495
228.5
228.502
228.5
228.496
228.486
228.469
228.446
228.414
228.376
228.33
228.279
228.223
228.165
228.105
228.045
227.986
227.928
227.873
227.822
227.773
227.729
227.687
227.649
227.613
224.13
224.466
224.864
225.313
225.798
226.296
226.787
227.245
227.654
228
228.276
228.479
228.625
228.724
228.777
228.799
228.809
228.814
228.817
228.818
228.815
228.804
228.786
228.759
228.724
228.681
228.63
228.574
228.513
228.449
228.384
228.319
228.254
228.192
228.132
228.075
228.022
227.973
227.928
227.886
227.848
227.812
224.491
224.906
225.377
225.889
226.418
226.938
227.426
227.86
228.226
228.519
228.738
228.881
228.974
229.037
229.07
229.078
229.079
229.076
229.072
229.069
229.063
229.05
229.028
228.994
228.95
228.896
228.835
228.768
228.698
228.627
228.557
228.489
228.425
228.364
228.307
228.255
228.206
228.161
228.12
228.082
228.046
228.012
224.892
225.374
225.901
226.449
226.994
227.507
227.966
228.357
228.665
228.893
229.058
229.164
229.215
229.238
229.252
229.262
229.268
229.269
229.263
229.25
229.231
229.204
229.168
229.124
229.073
229.015
228.953
228.887
228.818
228.749
228.68
228.614
228.55
228.49
228.433
228.382
228.334
228.291
228.252
228.216
228.183
228.152
225.325
225.855
226.413
226.971
227.503
227.984
228.393
228.721
228.973
229.149
229.25
229.305
229.344
229.366
229.373
229.372
229.366
229.356
229.345
229.329
229.306
229.275
229.235
229.185
229.127
229.062
228.993
228.922
228.851
228.782
228.715
228.652
228.594
228.54
228.49
228.445
228.404
228.366
228.332
228.3
228.271
228.242
225.78
226.337
226.901
227.442
227.937
228.363
228.71
228.978
229.162
229.274
229.347
229.392
229.409
229.411
229.409
229.407
229.404
229.398
229.387
229.368
229.339
229.3
229.251
229.193
229.13
229.063
228.994
228.924
228.856
228.789
228.726
228.667
228.612
228.561
228.514
228.471
228.432
228.395
228.362
228.331
228.301
228.273
226.253
226.812
227.355
227.855
228.29
228.649
228.928
229.127
229.252
229.333
229.385
229.408
229.415
229.411
229.41
229.408
229.404
229.396
229.38
229.355
229.32
229.274
229.219
229.158
229.091
229.023
228.954
228.886
228.82
228.757
228.697
228.641
228.588
228.539
228.493
228.451
228.412
228.376
228.343
228.312
228.283
228.255
226.737
227.273
227.769
228.204
228.564
228.847
229.054
229.195
229.283
229.339
229.372
229.386
229.388
229.386
229.383
229.379
229.37
229.354
229.329
229.293
229.249
229.195
229.134
229.069
229.001
228.932
228.864
228.797
228.734
228.673
228.617
228.564
228.514
228.468
228.426
228.386
228.35
228.317
228.286
228.257
228.23
228.204
227.219
227.703
228.128
228.48
228.758
228.963
229.108
229.204
229.265
229.3
229.316
229.321
229.321
229.318
229.312
229.3
229.28
229.251
229.213
229.165
229.109
229.047
228.981
228.912
228.843
228.774
228.708
228.645
228.585
228.528
228.476
228.428
228.383
228.342
228.304
228.269
228.237
228.207
228.18
228.155
228.13
228.107
227.669
228.073
228.407
228.668
228.862
229.001
229.095
229.156
229.188
229.203
229.207
229.207
229.203
229.195
229.178
229.153
229.118
229.073
229.019
228.958
228.891
228.822
228.751
228.681
228.613
228.547
228.485
228.427
228.373
228.323
228.277
228.234
228.196
228.16
228.128
228.098
228.07
228.045
228.021
227.999
227.978
227.957
228.039
228.344
228.576
228.75
228.874
228.96
229.013
229.037
229.047
229.049
229.046
229.038
229.023
229
228.965
228.921
228.867
228.806
228.738
228.668
228.595
228.523
228.452
228.385
228.321
228.262
228.206
228.156
228.109
228.067
228.028
227.992
227.96
227.93
227.903
227.878
227.854
227.832
227.812
227.793
227.774
227.756
228.278
228.477
228.622
228.726
228.797
228.832
228.85
228.854
228.852
228.843
228.827
228.801
228.764
228.718
228.661
228.597
228.528
228.455
228.38
228.306
228.234
228.165
228.101
228.04
227.985
227.934
227.888
227.846
227.808
227.773
227.741
227.712
227.685
227.661
227.638
227.616
227.596
227.578
227.56
227.543
227.526
227.51
228.363
228.475
228.558
228.602
228.626
228.63
228.628
228.618
228.598
228.567
228.525
228.473
228.411
228.343
228.27
228.194
228.118
228.042
227.969
227.9
227.835
227.776
227.721
227.671
227.626
227.585
227.548
227.514
227.483
227.455
227.429
227.405
227.383
227.362
227.342
227.323
227.306
227.289
227.273
227.257
227.242
227.227
228.313
228.361
228.387
228.392
228.388
228.374
228.347
228.308
228.257
228.197
228.129
228.055
227.978
227.899
227.82
227.744
227.671
227.603
227.539
227.481
227.428
227.38
227.336
227.297
227.261
227.229
227.199
227.172
227.147
227.123
227.101
227.08
227.061
227.042
227.024
227.007
226.991
226.975
226.96
226.946
226.931
226.917
228.15
228.153
228.145
228.125
228.087
228.036
227.975
227.904
227.828
227.747
227.664
227.582
227.502
227.425
227.353
227.286
227.224
227.169
227.118
227.072
227.031
226.994
226.96
226.929
226.9
226.874
226.849
226.826
226.804
226.783
226.763
226.744
226.725
226.708
226.691
226.674
226.659
226.643
226.629
226.615
226.601
226.587
227.912
227.879
227.83
227.765
227.69
227.607
227.52
227.431
227.343
227.257
227.176
227.099
227.029
226.965
226.906
226.853
226.805
226.762
226.723
226.687
226.654
226.624
226.596
226.569
226.544
226.521
226.498
226.476
226.455
226.435
226.416
226.397
226.379
226.362
226.345
226.329
226.314
226.299
226.285
226.272
226.258
226.245
227.586
227.505
227.415
227.319
227.22
227.123
227.029
226.941
226.858
226.783
226.714
226.652
226.596
226.546
226.5
226.459
226.421
226.387
226.355
226.324
226.296
226.269
226.243
226.218
226.194
226.171
226.149
226.127
226.107
226.087
226.067
226.049
226.031
226.014
225.997
225.981
225.966
225.952
225.938
225.925
225.912
225.899
227.166
227.055
226.944
226.837
226.738
226.646
226.562
226.488
226.421
226.361
226.307
226.259
226.215
226.175
226.138
226.104
226.071
226.04
226.011
225.982
225.955
225.928
225.902
225.877
225.853
225.83
225.807
225.785
225.764
225.744
225.725
225.706
225.689
225.672
225.656
225.64
225.626
225.612
225.598
225.585
225.573
225.56
226.704
226.588
226.481
226.386
226.301
226.226
226.16
226.102
226.049
226.002
225.959
225.919
225.882
225.847
225.813
225.78
225.749
225.718
225.688
225.66
225.631
225.604
225.578
225.552
225.528
225.504
225.481
225.459
225.438
225.419
225.399
225.381
225.364
225.347
225.331
225.316
225.302
225.288
225.275
225.263
225.25
225.238
226.271
226.17
226.082
226.006
225.939
225.881
225.829
225.782
225.738
225.697
225.659
225.622
225.586
225.551
225.517
225.484
225.452
225.42
225.389
225.36
225.331
225.303
225.276
225.251
225.226
225.202
225.18
225.159
225.138
225.118
225.1
225.082
225.065
225.049
225.034
225.019
225.005
224.992
224.979
224.967
224.955
224.943
225.913
225.833
225.764
225.704
225.65
225.602
225.557
225.514
225.473
225.434
225.395
225.357
225.32
225.284
225.249
225.214
225.181
225.148
225.117
225.087
225.058
225.031
225.004
224.979
224.955
224.932
224.91
224.889
224.87
224.851
224.833
224.816
224.799
224.784
224.769
224.755
224.741
224.728
224.716
224.704
224.693
224.681
225.636
225.572
225.515
225.463
225.415
225.369
225.325
225.283
225.241
225.199
225.159
225.119
225.081
225.043
225.007
224.972
224.938
224.906
224.875
224.846
224.818
224.791
224.765
224.741
224.718
224.696
224.675
224.655
224.636
224.618
224.601
224.585
224.569
224.554
224.54
224.526
224.514
224.501
224.49
224.479
224.468
224.457
225.424
225.367
225.314
225.264
225.216
225.169
225.123
225.078
225.033
224.99
224.947
224.907
224.867
224.829
224.793
224.759
224.726
224.695
224.665
224.637
224.61
224.584
224.56
224.537
224.515
224.494
224.474
224.456
224.438
224.421
224.404
224.389
224.374
224.36
224.347
224.335
224.323
224.311