/*--------------------------------*- C++ -*----------------------------------*\
| =========                 |                                                 |
| \\      /  F ield         | OpenFOAM: The Open Source CFD Toolbox           |
|  \\    /   O peration     | Version:  2412                                  |
|   \\  /    A nd           | Website:  www.openfoam.com                      |
|    \\/     M anipulation  |                                                 |
\*---------------------------------------------------------------------------*/
FoamFile
{
    version     2.0;
    format      ascii;
    arch        "LSB;label=32;scalar=64";
    class       volScalarField;
    location    "0.091";
    object      rho;
}
// * * * * * * * * * * * * * * * * * * * * * * * * * * * * * * * * * * * * * //

dimensions      [1 -3 0 0 0 0 0];

internalField   nonuniform List<scalar> 
78650
(
0.0480815
0.0437705
0.0434713
0.0433503
0.0432312
0.0431095
0.0429846
0.0428685
0.0427688
0.0426881
0.0426247
0.0425735
0.0425294
0.0424876
0.0424434
0.0423944
0.0423414
0.0422852
0.04223
0.042181
0.0421423
0.0421145
0.0420951
0.0420803
0.0420664
0.0420509
0.0420321
0.042009
0.0419815
0.0419496
0.0419137
0.0418748
0.0418344
0.0417939
0.0417545
0.0417167
0.0416808
0.0416469
0.041615
0.0415851
0.0415573
0.0415316
0.0415077
0.0414857
0.0414656
0.0414474
0.0414312
0.0414168
0.0414042
0.0413935
0.0413842
0.0413763
0.0413695
0.0413639
0.0413591
0.0413553
0.041352
0.0413494
0.0413472
0.041345
0.0413428
0.0413401
0.0413368
0.0413326
0.0413269
0.0413196
0.0413103
0.0412985
0.0412839
0.0412662
0.0412446
0.0412184
0.041187
0.0411495
0.0411053
0.0410535
0.040993
0.0409229
0.0408419
0.0407489
0.0406423
0.0405209
0.040383
0.0402273
0.0400516
0.0398545
0.0396338
0.0393884
0.0391165
0.0388166
0.0384861
0.0381238
0.0377268
0.037298
0.036829
0.0363291
0.0357892
0.0352153
0.0346062
0.0339597
0.0332858
0.0325804
0.0318632
0.0311389
0.0304505
0.0297235
0.0290077
0.0283181
0.0276206
0.0269735
0.0263797
0.0258392
0.0253397
0.0248584
0.0244117
0.023988
0.023599
0.0232242
0.0228791
0.0225735
0.0220159
0.0476828
0.0436894
0.0434592
0.0433503
0.0432347
0.0431125
0.0429857
0.0428666
0.0427629
0.0426782
0.0426121
0.0425605
0.0425183
0.0424799
0.0424394
0.042393
0.0423417
0.0422876
0.0422342
0.0421854
0.0421457
0.0421164
0.0420961
0.0420813
0.0420683
0.0420544
0.0420379
0.0420178
0.0419937
0.0419653
0.0419327
0.0418965
0.0418582
0.0418195
0.0417816
0.0417453
0.0417108
0.0416783
0.0416478
0.0416193
0.0415928
0.0415685
0.0415461
0.0415257
0.0415073
0.0414908
0.0414764
0.0414639
0.0414534
0.0414447
0.0414377
0.0414321
0.0414277
0.0414246
0.0414225
0.0414214
0.0414211
0.0414215
0.0414224
0.0414237
0.0414251
0.0414264
0.0414271
0.0414273
0.0414264
0.0414242
0.0414204
0.0414146
0.0414061
0.0413952
0.0413811
0.0413629
0.0413403
0.0413123
0.0412784
0.0412377
0.0411895
0.0411326
0.0410661
0.0409888
0.0408994
0.0407967
0.0406789
0.0405448
0.0403926
0.040221
0.0400277
0.039811
0.0395685
0.0392984
0.0389983
0.0386671
0.0383018
0.0379032
0.0374659
0.0369987
0.03649
0.0359503
0.035373
0.0347619
0.0341302
0.0334531
0.0327635
0.0320232
0.0313023
0.0305886
0.0298531
0.0291552
0.0284375
0.0277425
0.0271025
0.0264798
0.0259085
0.0253711
0.024873
0.0244129
0.0239846
0.0235535
0.0231503
0.0227894
0.022202
0.047287
0.0436362
0.0434381
0.0433463
0.0432382
0.043117
0.0429883
0.0428659
0.042758
0.0426683
0.0425983
0.0425447
0.0425031
0.042467
0.0424301
0.0423879
0.0423398
0.0422878
0.0422361
0.0421882
0.0421481
0.0421177
0.0420964
0.0420814
0.0420692
0.0420569
0.0420426
0.0420253
0.0420045
0.0419798
0.0419508
0.0419177
0.0418819
0.0418451
0.0418089
0.0417742
0.0417412
0.0417102
0.0416811
0.0416541
0.041629
0.0416061
0.0415853
0.0415665
0.0415497
0.041535
0.0415224
0.0415118
0.0415033
0.0414967
0.0414919
0.0414886
0.0414867
0.0414862
0.0414867
0.0414883
0.041491
0.0414944
0.0414986
0.0415033
0.0415083
0.0415134
0.0415183
0.0415228
0.0415267
0.0415295
0.0415309
0.0415309
0.0415287
0.0415245
0.0415176
0.0415071
0.0414929
0.041474
0.0414499
0.0414199
0.0413832
0.0413389
0.0412859
0.0412233
0.0411497
0.0410641
0.0409648
0.0408508
0.0407201
0.0405714
0.0404025
0.0402116
0.0399969
0.0397571
0.0394902
0.0391947
0.0388678
0.038509
0.0381141
0.0376866
0.0372172
0.0367178
0.0361746
0.0355945
0.0349772
0.0343245
0.0336455
0.0329242
0.0321819
0.0314587
0.0306908
0.0299425
0.0292221
0.0284846
0.0278068
0.0271442
0.0265122
0.0259329
0.0253852
0.0248793
0.0243997
0.0239261
0.0234676
0.023038
0.0223106
0.0469011
0.0435625
0.0434134
0.0433407
0.0432427
0.0431225
0.0429917
0.0428662
0.0427544
0.0426597
0.0425849
0.0425276
0.0424843
0.0424493
0.0424155
0.0423778
0.0423345
0.042286
0.0422362
0.0421897
0.0421496
0.0421184
0.0420962
0.0420809
0.0420692
0.0420583
0.0420462
0.0420317
0.0420143
0.0419933
0.0419683
0.0419389
0.0419059
0.0418714
0.041837
0.0418039
0.0417726
0.0417432
0.0417157
0.04169
0.0416664
0.0416449
0.0416255
0.0416083
0.0415932
0.0415802
0.0415693
0.0415606
0.041554
0.0415495
0.0415468
0.0415458
0.0415463
0.0415482
0.0415513
0.0415557
0.0415611
0.0415675
0.0415748
0.0415829
0.0415914
0.0416002
0.0416091
0.0416178
0.0416261
0.0416337
0.0416403
0.0416456
0.0416495
0.0416514
0.0416513
0.0416483
0.0416423
0.0416321
0.0416175
0.0415977
0.0415719
0.0415396
0.0414998
0.0414514
0.0413934
0.0413246
0.0412437
0.0411496
0.0410403
0.0409148
0.0407709
0.0406072
0.0404217
0.0402127
0.0399778
0.0397148
0.0394207
0.039094
0.0387317
0.0383368
0.0379018
0.0374338
0.0369193
0.0363755
0.0357938
0.0351769
0.034521
0.0338391
0.0331157
0.0323801
0.0316218
0.0308291
0.0301033
0.0293439
0.0285979
0.0278783
0.0271664
0.026524
0.025911
0.025351
0.0248428
0.024362
0.0239235
0.0235092
0.0227783
0.0464815
0.0434912
0.0433875
0.0433328
0.043246
0.043129
0.0429972
0.0428681
0.0427527
0.0426532
0.0425733
0.0425114
0.0424647
0.0424286
0.0423964
0.0423625
0.0423243
0.0422808
0.0422344
0.0421895
0.04215
0.0421183
0.0420954
0.0420798
0.0420685
0.0420589
0.0420488
0.042037
0.0420228
0.0420057
0.0419849
0.0419596
0.04193
0.041898
0.0418657
0.0418344
0.0418048
0.0417771
0.0417512
0.0417271
0.041705
0.041685
0.0416671
0.0416514
0.0416379
0.0416266
0.0416175
0.0416107
0.041606
0.0416035
0.0416029
0.0416043
0.0416072
0.0416114
0.0416171
0.0416241
0.0416324
0.0416418
0.0416521
0.0416634
0.0416754
0.0416878
0.0417006
0.0417134
0.0417261
0.0417384
0.04175
0.0417608
0.0417703
0.0417783
0.0417846
0.0417888
0.0417903
0.0417886
0.0417831
0.0417732
0.0417578
0.0417369
0.0417092
0.0416742
0.0416306
0.0415775
0.0415135
0.0414376
0.0413481
0.0412439
0.041123
0.0409841
0.0408249
0.0406436
0.0404383
0.040207
0.0399475
0.0396582
0.0393361
0.038981
0.0385873
0.03816
0.0376888
0.0371847
0.0366311
0.0360408
0.0354127
0.0347464
0.0340514
0.0333043
0.0325732
0.0317916
0.0310115
0.0302394
0.0294586
0.0287251
0.0279628
0.0272456
0.0265538
0.0258886
0.0252642
0.0246627
0.0241339
0.0236744
0.0228518
0.0460408
0.0434272
0.0433613
0.0433216
0.0432493
0.0431383
0.0430052
0.0428718
0.0427524
0.0426484
0.0425635
0.0424966
0.0424459
0.0424078
0.0423758
0.0423443
0.0423104
0.0422718
0.0422298
0.0421877
0.0421497
0.0421183
0.0420948
0.0420786
0.0420675
0.0420589
0.0420506
0.0420413
0.0420303
0.042017
0.0420006
0.0419797
0.0419541
0.0419253
0.0418953
0.041866
0.0418382
0.0418122
0.0417881
0.0417657
0.0417452
0.0417267
0.0417103
0.0416961
0.0416842
0.0416745
0.0416671
0.0416621
0.0416593
0.0416588
0.0416604
0.0416639
0.041669
0.0416758
0.041684
0.0416936
0.0417046
0.0417168
0.0417302
0.0417447
0.04176
0.041776
0.0417925
0.0418093
0.0418262
0.041843
0.0418595
0.0418753
0.0418903
0.0419042
0.0419169
0.0419279
0.0419365
0.0419426
0.0419455
0.0419451
0.04194
0.0419301
0.0419142
0.0418919
0.0418623
0.0418244
0.041777
0.0417191
0.0416492
0.0415662
0.0414682
0.0413539
0.0412212
0.0410683
0.0408936
0.0406952
0.0404706
0.0402175
0.0399325
0.039615
0.0392604
0.0388708
0.0384382
0.0379711
0.0374567
0.0369083
0.036314
0.0356809
0.0350145
0.0342922
0.0335395
0.0327604
0.0319379
0.0311537
0.0303395
0.0295761
0.0288206
0.028068
0.0273448
0.0266646
0.0260276
0.0254093
0.0247958
0.0242231
0.0232153
0.0455733
0.0433519
0.0433332
0.0433102
0.0432533
0.0431505
0.0430164
0.0428784
0.0427539
0.0426462
0.0425573
0.0424855
0.0424304
0.0423894
0.0423562
0.0423256
0.0422945
0.04226
0.0422225
0.042185
0.0421497
0.042119
0.0420949
0.0420779
0.0420667
0.0420587
0.0420519
0.0420448
0.0420367
0.042027
0.0420151
0.041999
0.0419779
0.0419526
0.0419255
0.0418983
0.0418724
0.0418483
0.041826
0.0418054
0.0417866
0.0417697
0.0417549
0.0417423
0.0417319
0.0417239
0.0417182
0.0417149
0.041714
0.0417155
0.0417192
0.0417248
0.0417323
0.0417414
0.0417521
0.0417643
0.041778
0.0417931
0.0418095
0.041827
0.0418456
0.0418651
0.0418853
0.041906
0.041927
0.0419482
0.0419693
0.0419902
0.0420105
0.0420301
0.0420487
0.0420662
0.042082
0.0420958
0.0421068
0.0421146
0.0421191
0.0421197
0.0421151
0.0421051
0.0420884
0.0420645
0.0420324
0.041991
0.041939
0.0418753
0.0417983
0.0417067
0.0415986
0.0414725
0.0413265
0.0411586
0.0409665
0.0407478
0.0404995
0.04022
0.039906
0.0395589
0.0391722
0.0387492
0.0382781
0.037771
0.0372139
0.0366169
0.0359726
0.0352923
0.0345653
0.0338265
0.033024
0.0322088
0.0313899
0.0305314
0.029723
0.0288976
0.0281099
0.0273421
0.0266275
0.025962
0.0253528
0.0248032
0.0238051
0.0451018
0.0432666
0.0432943
0.0432911
0.0432547
0.0431659
0.0430333
0.0428907
0.0427597
0.0426481
0.0425559
0.0424809
0.0424222
0.0423774
0.042342
0.0423113
0.042282
0.0422515
0.0422188
0.0421849
0.0421516
0.0421218
0.0420971
0.0420789
0.0420668
0.042059
0.0420532
0.0420481
0.0420425
0.0420361
0.0420284
0.0420172
0.0420011
0.04198
0.0419561
0.0419314
0.0419076
0.0418854
0.0418651
0.0418464
0.0418294
0.0418142
0.041801
0.04179
0.0417812
0.0417747
0.0417707
0.0417691
0.04177
0.0417735
0.0417791
0.0417869
0.0417966
0.0418081
0.0418212
0.041836
0.0418523
0.0418702
0.0418894
0.04191
0.0419318
0.0419546
0.0419783
0.0420028
0.0420278
0.0420532
0.0420788
0.0421044
0.0421298
0.0421548
0.0421793
0.042203
0.0422254
0.0422463
0.0422652
0.0422817
0.0422951
0.042305
0.042311
0.0423127
0.0423087
0.0422987
0.0422814
0.0422561
0.0422216
0.0421769
0.0421205
0.0420513
0.0419675
0.0418674
0.041749
0.0416107
0.0414501
0.0412653
0.0410534
0.0408127
0.0405398
0.0402339
0.039889
0.0395068
0.0390795
0.038615
0.0380998
0.0375439
0.0369355
0.0362871
0.0356032
0.0348624
0.0340881
0.0332449
0.0324489
0.0315602
0.0307143
0.02984
0.0290002
0.0281689
0.0273582
0.0265771
0.0258271
0.0251638
0.0239269
0.0446478
0.0431492
0.043247
0.0432687
0.0432517
0.0431824
0.0430595
0.0429144
0.0427766
0.042658
0.042561
0.042483
0.0424215
0.0423746
0.0423376
0.0423066
0.0422784
0.0422501
0.0422197
0.0421877
0.0421563
0.0421273
0.0421022
0.0420823
0.0420686
0.0420603
0.0420552
0.0420515
0.042048
0.0420445
0.0420406
0.0420342
0.0420232
0.042007
0.0419869
0.0419651
0.0419435
0.0419234
0.0419049
0.0418882
0.0418731
0.0418598
0.0418483
0.041839
0.0418318
0.0418268
0.0418245
0.0418245
0.0418274
0.0418325
0.0418401
0.04185
0.0418619
0.0418758
0.0418913
0.0419086
0.0419275
0.0419481
0.0419702
0.0419937
0.0420186
0.0420447
0.0420719
0.0421
0.0421289
0.0421584
0.0421884
0.0422186
0.0422489
0.0422792
0.0423092
0.0423387
0.0423676
0.0423954
0.0424217
0.0424461
0.0424681
0.0424875
0.0425034
0.0425153
0.0425229
0.0425256
0.0425222
0.0425119
0.0424937
0.0424662
0.0424287
0.0423798
0.0423181
0.0422421
0.0421499
0.04204
0.0419105
0.0417594
0.0415839
0.0413814
0.0411487
0.0408843
0.0405834
0.0402469
0.0398682
0.0394505
0.0389808
0.0384684
0.037905
0.0372999
0.0366388
0.0359264
0.0351803
0.0343887
0.0335647
0.0326982
0.0318244
0.0309704
0.0300827
0.0292178
0.0283518
0.0275454
0.0267576
0.026032
0.0246637
0.0442225
0.0430105
0.0431747
0.043235
0.0432402
0.0431986
0.0430938
0.0429515
0.04281
0.0426859
0.0425831
0.0424991
0.0424321
0.0423812
0.0423415
0.0423092
0.0422812
0.0422536
0.0422247
0.0421948
0.0421651
0.0421371
0.0421115
0.0420899
0.0420739
0.0420641
0.0420587
0.0420559
0.042054
0.0420527
0.0420521
0.0420501
0.0420443
0.0420334
0.0420176
0.0419991
0.0419801
0.0419621
0.0419457
0.041931
0.0419179
0.0419064
0.0418968
0.0418891
0.0418836
0.0418803
0.0418793
0.0418812
0.0418856
0.0418926
0.0419021
0.0419139
0.041928
0.0419441
0.041962
0.0419817
0.0420032
0.0420264
0.0420512
0.0420776
0.0421055
0.0421348
0.0421653
0.0421969
0.0422295
0.0422629
0.042297
0.0423317
0.0423667
0.0424019
0.0424372
0.0424723
0.0425073
0.0425415
0.0425748
0.0426068
0.042637
0.0426651
0.0426905
0.0427129
0.0427316
0.0427458
0.0427552
0.0427592
0.0427569
0.0427465
0.0427277
0.0426985
0.0426584
0.0426056
0.0425388
0.0424561
0.0423557
0.0422356
0.0420932
0.041926
0.0417313
0.0415071
0.0412493
0.0409581
0.040627
0.0402566
0.0398383
0.0393796
0.0388692
0.0383103
0.0376888
0.0370204
0.0363059
0.0355473
0.0347077
0.0338463
0.0329235
0.0320274
0.0310919
0.0301997
0.0292678
0.0283828
0.0275309
0.0267776
0.0254135
0.0438323
0.0428385
0.0430558
0.0431826
0.0432229
0.0432039
0.0431229
0.0429942
0.0428554
0.0427286
0.0426226
0.0425343
0.0424622
0.0424056
0.0423605
0.0423241
0.0422943
0.0422666
0.0422385
0.0422097
0.0421811
0.0421532
0.0421266
0.0421027
0.0420839
0.0420715
0.0420649
0.0420623
0.0420613
0.0420615
0.0420636
0.042065
0.0420641
0.0420586
0.0420478
0.0420332
0.042017
0.0420013
0.041987
0.0419743
0.0419632
0.0419537
0.0419459
0.04194
0.0419362
0.0419346
0.0419352
0.0419387
0.0419446
0.0419533
0.0419646
0.0419785
0.0419946
0.0420129
0.0420331
0.0420552
0.0420792
0.0421049
0.0421324
0.0421616
0.0421924
0.0422248
0.0422585
0.0422936
0.0423297
0.0423669
0.0424051
0.042444
0.0424835
0.0425235
0.0425638
0.0426043
0.042645
0.0426854
0.0427254
0.0427645
0.0428024
0.0428387
0.042873
0.0429049
0.0429339
0.0429596
0.0429811
0.0429977
0.0430088
0.0430138
0.0430123
0.0430015
0.0429816
0.0429499
0.0429064
0.0428489
0.0427761
0.0426861
0.0425767
0.0424455
0.0422895
0.0421066
0.041893
0.0416478
0.0413646
0.0410437
0.0406784
0.0402714
0.0398087
0.0392951
0.038725
0.0381119
0.0374397
0.0367094
0.0359269
0.0350822
0.0341909
0.0332526
0.0322819
0.0313197
0.0303054
0.0293471
0.0283804
0.0274984
0.0258347
0.0434998
0.042636
0.0428713
0.043082
0.0431863
0.0431928
0.0431421
0.0430322
0.0429015
0.0427768
0.042671
0.0425813
0.0425067
0.0424446
0.0423931
0.0423513
0.0423177
0.0422883
0.0422607
0.0422336
0.0422059
0.0421777
0.0421495
0.0421231
0.0421009
0.042085
0.0420758
0.0420721
0.0420713
0.0420721
0.0420758
0.0420804
0.042083
0.0420823
0.0420769
0.0420669
0.0420541
0.042041
0.0420288
0.0420182
0.042009
0.0420015
0.0419956
0.0419916
0.0419896
0.0419895
0.041992
0.0419968
0.0420043
0.0420146
0.0420277
0.0420434
0.0420615
0.0420819
0.0421043
0.0421287
0.042155
0.0421833
0.0422133
0.0422452
0.0422788
0.0423141
0.042351
0.0423892
0.0424288
0.0424696
0.0425115
0.0425544
0.0425982
0.0426427
0.0426878
0.0427334
0.0427795
0.0428257
0.0428719
0.0429176
0.0429627
0.0430068
0.0430495
0.0430905
0.0431292
0.0431653
0.0431983
0.0432275
0.0432524
0.0432717
0.0432849
0.0432916
0.0432916
0.0432805
0.0432599
0.0432261
0.0431794
0.0431174
0.0430384
0.0429399
0.0428193
0.0426744
0.0425019
0.0423
0.0420633
0.0417916
0.0414782
0.0411228
0.0407148
0.0402599
0.0397505
0.0391911
0.0385657
0.0378837
0.0371383
0.0363343
0.0354776
0.0345507
0.0336157
0.032634
0.0316467
0.0306439
0.0296606
0.0287415
0.0270295
0.043257
0.0424308
0.0426289
0.0428992
0.0430975
0.0431586
0.0431424
0.0430558
0.0429382
0.0428211
0.042719
0.0426317
0.0425587
0.0424958
0.0424418
0.0423958
0.0423572
0.0423241
0.0422948
0.0422673
0.0422396
0.0422105
0.0421804
0.0421512
0.0421254
0.0421054
0.0420925
0.0420864
0.0420849
0.0420855
0.0420895
0.0420964
0.0421026
0.0421053
0.0421046
0.0420996
0.0420909
0.0420807
0.0420709
0.0420623
0.0420552
0.0420496
0.0420456
0.0420434
0.0420431
0.042045
0.0420489
0.0420553
0.0420643
0.0420762
0.0420909
0.0421083
0.0421283
0.0421508
0.0421753
0.0422019
0.0422306
0.0422612
0.0422937
0.0423282
0.0423645
0.0424027
0.0424425
0.0424839
0.0425267
0.042571
0.0426165
0.0426633
0.0427111
0.0427599
0.0428096
0.04286
0.0429112
0.0429629
0.0430149
0.0430669
0.0431188
0.0431701
0.0432206
0.04327
0.0433177
0.0433636
0.0434071
0.0434476
0.0434847
0.0435176
0.0435458
0.0435677
0.0435831
0.0435911
0.0435918
0.0435805
0.0435586
0.0435227
0.0434726
0.0434057
0.0433198
0.0432125
0.0430805
0.0429215
0.0427308
0.0425076
0.0422449
0.0419419
0.0415911
0.0411962
0.0407459
0.0402388
0.0396639
0.0390355
0.0383403
0.0375759
0.0367364
0.0358321
0.0348863
0.0338549
0.0328179
0.0316549
0.0305684
0.0295738
0.0276849
0.0431245
0.042276
0.0423939
0.0426456
0.0429272
0.0430801
0.0431058
0.0430621
0.042958
0.0428479
0.0427514
0.042671
0.0426043
0.0425465
0.0424953
0.0424492
0.0424079
0.0423721
0.0423407
0.0423118
0.0422827
0.0422516
0.0422192
0.0421872
0.0421579
0.0421337
0.0421163
0.0421067
0.0421033
0.0421032
0.0421061
0.0421138
0.0421229
0.0421292
0.0421317
0.0421311
0.042127
0.0421203
0.0421131
0.0421067
0.0421015
0.0420978
0.0420957
0.0420952
0.0420968
0.0421003
0.0421059
0.0421138
0.0421244
0.0421378
0.0421541
0.0421731
0.0421949
0.0422192
0.0422458
0.0422746
0.0423054
0.0423383
0.0423732
0.0424102
0.0424491
0.0424899
0.0425325
0.0425768
0.0426228
0.0426703
0.0427193
0.0427696
0.0428213
0.0428741
0.042928
0.042983
0.0430389
0.0430956
0.0431531
0.043211
0.0432691
0.0433272
0.043385
0.0434421
0.0434983
0.0435532
0.0436065
0.0436577
0.0437063
0.0437518
0.0437934
0.0438305
0.0438625
0.0438877
0.0439058
0.0439158
0.0439175
0.0439064
0.0438835
0.0438454
0.0437909
0.0437174
0.0436224
0.0435037
0.0433574
0.0431818
0.0429706
0.0427233
0.0424336
0.0421007
0.0417119
0.041267
0.0407608
0.0401998
0.0395691
0.0388724
0.0380997
0.0372555
0.0363423
0.0353729
0.0343433
0.0332603
0.0320911
0.0309942
0.028924
0.0430641
0.042216
0.0422604
0.0424019
0.0426717
0.0429149
0.0430214
0.0430211
0.0429569
0.0428585
0.0427663
0.0426887
0.0426285
0.0425787
0.0425365
0.0424977
0.0424613
0.042427
0.0423952
0.0423649
0.0423337
0.0423001
0.042265
0.0422301
0.0421974
0.0421693
0.0421476
0.0421337
0.0421272
0.0421257
0.0421271
0.0421338
0.0421445
0.042154
0.0421597
0.0421622
0.0421621
0.0421593
0.0421551
0.0421511
0.0421479
0.0421461
0.0421457
0.042147
0.0421503
0.0421555
0.0421627
0.0421722
0.0421843
0.0421991
0.0422169
0.0422376
0.042261
0.0422871
0.0423156
0.0423464
0.0423793
0.0424144
0.0424516
0.0424909
0.0425322
0.0425756
0.0426209
0.0426681
0.042717
0.0427676
0.0428198
0.0428735
0.0429288
0.0429854
0.0430434
0.0431026
0.043163
0.0432245
0.043287
0.0433504
0.0434144
0.0434787
0.0435432
0.0436076
0.0436715
0.0437347
0.043797
0.0438579
0.043917
0.0439738
0.0440278
0.0440783
0.0441246
0.0441661
0.0442019
0.0442303
0.044251
0.0442629
0.0442657
0.044255
0.044231
0.0441903
0.0441313
0.0440516
0.0439478
0.0438176
0.0436553
0.04346
0.0432244
0.042946
0.0426147
0.0422326
0.0417926
0.0412934
0.0407215
0.0400827
0.0393635
0.0385673
0.0376773
0.0367098
0.0356685
0.0346283
0.0333909
0.0323273
0.0303865
0.0430515
0.0422268
0.0422151
0.042247
0.0424098
0.0426604
0.0428544
0.0429243
0.0429122
0.0428473
0.0427658
0.0426939
0.0426362
0.0425883
0.0425492
0.0425192
0.0424948
0.0424715
0.0424464
0.0424198
0.0423891
0.0423545
0.0423172
0.0422793
0.0422431
0.0422114
0.0421859
0.0421678
0.0421572
0.0421533
0.0421531
0.0421575
0.0421683
0.0421798
0.0421883
0.0421938
0.0421967
0.0421973
0.0421965
0.042195
0.0421941
0.042194
0.0421955
0.0421984
0.0422032
0.0422101
0.0422189
0.0422299
0.0422435
0.0422599
0.0422791
0.0423013
0.0423263
0.0423541
0.0423844
0.042417
0.0424519
0.0424891
0.0425284
0.0425699
0.0426136
0.0426594
0.0427072
0.042757
0.0428087
0.0428622
0.0429174
0.0429744
0.043033
0.0430932
0.0431549
0.043218
0.0432825
0.0433484
0.0434157
0.043484
0.0435533
0.0436234
0.0436941
0.0437651
0.0438361
0.043907
0.0439775
0.0440473
0.0441161
0.0441834
0.0442488
0.0443117
0.0443715
0.0444277
0.0444793
0.0445257
0.0445658
0.0445981
0.0446219
0.0446361
0.0446401
0.0446294
0.0446034
0.044559
0.0444938
0.0444054
0.0442892
0.0441435
0.0439612
0.0437407
0.0434747
0.0431632
0.0427949
0.0423663
0.041869
0.0413052
0.0406565
0.0399288
0.0391098
0.0382168
0.0372152
0.0361615
0.0349239
0.0337135
0.0315564
0.0430446
0.0422496
0.0422081
0.0421923
0.0422435
0.0424021
0.0426106
0.0427538
0.0428071
0.0427955
0.0427403
0.0426799
0.0426276
0.0425851
0.0425506
0.0425229
0.042501
0.0424863
0.0424758
0.0424597
0.0424369
0.0424071
0.0423709
0.0423315
0.0422927
0.0422579
0.042229
0.0422072
0.0421926
0.0421853
0.0421834
0.0421852
0.0421947
0.0422074
0.042218
0.0422259
0.0422316
0.0422352
0.0422373
0.0422386
0.04224
0.0422419
0.0422449
0.0422494
0.0422558
0.0422641
0.0422745
0.0422871
0.0423021
0.0423198
0.0423405
0.0423641
0.0423907
0.0424201
0.0424521
0.0424865
0.0425233
0.0425623
0.0426037
0.0426473
0.0426931
0.0427412
0.0427914
0.0428437
0.042898
0.0429542
0.0430123
0.0430722
0.0431339
0.0431974
0.0432626
0.0433294
0.0433978
0.0434678
0.0435394
0.0436123
0.0436866
0.043762
0.0438383
0.0439154
0.043993
0.0440709
0.0441489
0.0442268
0.0443043
0.044381
0.0444567
0.0445307
0.0446026
0.0446719
0.0447379
0.0447999
0.0448569
0.0449083
0.0449532
0.0449896
0.0450169
0.0450335
0.0450387
0.0450281
0.0449998
0.0449515
0.0448794
0.0447818
0.0446523
0.0444898
0.0442869
0.0440406
0.0437388
0.0433789
0.042953
0.0424605
0.0418882
0.0412392
0.0404943
0.0396617
0.0387207
0.0376834
0.036545
0.0353906
0.0334117
0.0430275
0.0422845
0.0422255
0.0421835
0.0421842
0.0422325
0.0423612
0.0425213
0.042638
0.0426849
0.0426789
0.042645
0.0426027
0.0425681
0.0425388
0.042516
0.0424987
0.0424881
0.0424812
0.0424747
0.0424642
0.0424452
0.0424165
0.0423811
0.0423429
0.0423067
0.0422756
0.0422509
0.042233
0.0422221
0.0422181
0.0422178
0.0422247
0.0422375
0.0422494
0.0422591
0.042267
0.042273
0.0422777
0.0422816
0.0422853
0.0422892
0.0422939
0.0422998
0.0423076
0.0423173
0.0423291
0.0423431
0.0423595
0.0423787
0.0424007
0.0424258
0.0424538
0.0424847
0.0425183
0.0425544
0.0425929
0.0426337
0.042677
0.0427226
0.0427705
0.0428207
0.0428731
0.0429277
0.0429844
0.0430431
0.0431039
0.0431666
0.0432312
0.0432977
0.0433661
0.0434363
0.0435082
0.043582
0.0436574
0.0437346
0.0438134
0.0438935
0.043975
0.0440576
0.0441411
0.0442253
0.0443101
0.0443954
0.0444808
0.0445661
0.0446509
0.044735
0.0448179
0.0448991
0.0449781
0.0450544
0.0451271
0.0451955
0.0452587
0.0453159
0.045366
0.0454068
0.0454375
0.0454563
0.0454625
0.0454513
0.0454202
0.0453666
0.0452852
0.0451748
0.0450271
0.0448395
0.0446018
0.0443125
0.043962
0.0435471
0.0430559
0.0424873
0.0418227
0.041062
0.0401718
0.0391786
0.0380353
0.0368156
0.0348393
0.0429989
0.0423238
0.042263
0.0421965
0.0421703
0.0421613
0.0421885
0.0422876
0.0424196
0.0425225
0.0425709
0.0425747
0.0425554
0.0425323
0.0425115
0.0424964
0.0424864
0.0424822
0.0424792
0.0424755
0.0424692
0.0424589
0.0424413
0.0424168
0.042386
0.0423529
0.0423218
0.0422956
0.0422754
0.0422615
0.042255
0.042253
0.0422572
0.0422695
0.0422819
0.0422927
0.0423024
0.0423105
0.0423175
0.0423238
0.0423298
0.0423356
0.042342
0.0423494
0.0423585
0.0423695
0.0423827
0.042398
0.0424157
0.0424362
0.0424596
0.0424861
0.0425155
0.0425479
0.042583
0.0426207
0.0426608
0.0427034
0.0427484
0.0427958
0.0428456
0.0428978
0.0429523
0.0430091
0.043068
0.0431291
0.0431923
0.0432575
0.0433248
0.0433941
0.0434654
0.0435387
0.043614
0.0436911
0.0437703
0.0438513
0.0439341
0.0440186
0.0441048
0.0441924
0.0442812
0.0443712
0.0444622
0.044554
0.0446465
0.0447394
0.0448326
0.0449257
0.0450183
0.04511
0.0452006
0.0452894
0.0453758
0.0454593
0.045539
0.0456144
0.0456843
0.0457476
0.0458033
0.0458488
0.0458832
0.0459044
0.0459115
0.045899
0.0458633
0.0458023
0.045709
0.0455825
0.045414
0.0452007
0.0449307
0.0445994
0.0441944
0.0437114
0.0431352
0.0424612
0.0416725
0.0407819
0.0397237
0.0385902
0.0367939
0.042961
0.042357
0.0423061
0.0422271
0.0421738
0.0421322
0.0421018
0.0421178
0.0422026
0.0423223
0.0424236
0.042472
0.0424829
0.0424794
0.0424685
0.0424617
0.0424598
0.0424634
0.0424682
0.0424711
0.0424674
0.0424588
0.0424457
0.0424305
0.0424111
0.0423876
0.042362
0.0423376
0.0423172
0.0423016
0.042293
0.0422895
0.0422916
0.042303
0.0423156
0.0423273
0.0423382
0.042348
0.042357
0.0423655
0.0423736
0.0423814
0.0423894
0.0423983
0.0424086
0.0424209
0.0424352
0.0424518
0.0424708
0.0424925
0.0425172
0.042545
0.0425758
0.0426095
0.0426461
0.0426853
0.042727
0.0427711
0.0428177
0.0428669
0.0429184
0.0429725
0.0430289
0.0430876
0.0431487
0.0432119
0.0432773
0.0433449
0.0434147
0.0434865
0.0435605
0.0436367
0.0437149
0.0437951
0.0438775
0.043962
0.0440485
0.044137
0.0442273
0.0443193
0.044413
0.0445081
0.0446045
0.0447022
0.044801
0.0449007
0.0450012
0.0451022
0.0452035
0.0453046
0.0454054
0.0455053
0.045604
0.0457009
0.0457953
0.0458868
0.0459744
0.0460573
0.0461344
0.0462043
0.0462658
0.0463163
0.0463544
0.0463779
0.0463856
0.0463711
0.0463299
0.0462598
0.0461528
0.0460052
0.0458046
0.0455466
0.0452192
0.0448192
0.0443323
0.0437481
0.0430468
0.0422066
0.0412118
0.0400638
0.0384376
0.0429192
0.0423797
0.0423437
0.0422641
0.0421915
0.042126
0.0420579
0.0420204
0.0420377
0.0421238
0.0422462
0.0423434
0.0423917
0.0424105
0.0424146
0.0424165
0.0424217
0.0424332
0.042446
0.0424552
0.0424558
0.0424509
0.0424431
0.0424317
0.0424194
0.0424061
0.0423903
0.0423723
0.0423547
0.0423393
0.0423295
0.0423251
0.042326
0.0423365
0.0423492
0.0423614
0.0423733
0.0423844
0.0423951
0.0424056
0.0424158
0.0424256
0.0424354
0.0424456
0.0424572
0.0424707
0.0424862
0.0425039
0.042524
0.042547
0.0425729
0.042602
0.0426341
0.0426692
0.0427072
0.0427478
0.0427909
0.0428366
0.0428847
0.0429354
0.0429887
0.0430444
0.0431026
0.0431632
0.0432261
0.0432914
0.0433589
0.0434286
0.0435006
0.0435748
0.0436513
0.04373
0.0438109
0.043894
0.0439793
0.044067
0.0441568
0.0442487
0.0443428
0.0444388
0.0445368
0.0446365
0.0447378
0.0448407
0.0449451
0.0450508
0.0451578
0.0452659
0.0453747
0.0454841
0.0455938
0.0457035
0.0458128
0.0459213
0.0460285
0.046134
0.0462371
0.0463371
0.0464331
0.0465241
0.0466089
0.0466859
0.046754
0.0468097
0.0468516
0.046877
0.0468841
0.0468651
0.0468152
0.0467302
0.0466006
0.0464221
0.0461821
0.0458748
0.0454831
0.0449982
0.0443971
0.0436534
0.0427711
0.0416823
0.0402173
0.042883
0.0423943
0.0423727
0.0422989
0.0422142
0.0421273
0.0420372
0.041962
0.0419322
0.0419639
0.0420667
0.0421925
0.0422838
0.0423331
0.0423557
0.0423653
0.0423756
0.0423917
0.0424112
0.0424284
0.0424368
0.0424373
0.0424337
0.0424269
0.0424193
0.0424126
0.0424058
0.0423965
0.0423847
0.042372
0.0423626
0.0423582
0.0423588
0.042369
0.0423819
0.0423951
0.042408
0.0424204
0.0424327
0.0424451
0.0424573
0.042469
0.0424805
0.0424922
0.042505
0.0425195
0.0425361
0.0425549
0.0425762
0.0426002
0.0426274
0.0426577
0.0426911
0.0427275
0.0427668
0.0428088
0.0428533
0.0429003
0.0429499
0.0430021
0.0430568
0.0431141
0.043174
0.0432363
0.043301
0.043368
0.0434374
0.0435091
0.0435831
0.0436594
0.0437381
0.0438191
0.0439024
0.0439881
0.0440761
0.0441665
0.0442593
0.0443544
0.0444517
0.0445513
0.044653
0.0447567
0.0448623
0.0449698
0.045079
0.04519
0.0453027
0.0454168
0.0455322
0.0456487
0.0457662
0.0458843
0.0460029
0.0461215
0.0462398
0.0463574
0.0464738
0.0465887
0.0467011
0.0468103
0.0469153
0.0470151
0.0471083
0.047193
0.047268
0.0473289
0.0473747
0.0474017
0.0474082
0.0473836
0.047324
0.0472212
0.0470659
0.0468496
0.046556
0.0461765
0.0456764
0.0450304
0.0442309
0.0432193
0.0418712
0.0428588
0.0424047
0.0423941
0.0423265
0.042234
0.042131
0.0420238
0.0419261
0.0418646
0.0418542
0.04191
0.0420337
0.0421612
0.0422474
0.0422936
0.0423142
0.0423284
0.0423466
0.042369
0.0423911
0.0424065
0.0424137
0.0424156
0.042415
0.0424143
0.042413
0.0424117
0.0424102
0.0424056
0.0423979
0.0423904
0.0423867
0.0423883
0.0423987
0.0424124
0.0424267
0.0424408
0.0424545
0.0424684
0.0424826
0.0424968
0.0425105
0.0425237
0.0425368
0.0425509
0.0425665
0.0425842
0.042604
0.0426263
0.0426515
0.0426798
0.0427113
0.042746
0.0427836
0.0428242
0.0428674
0.0429133
0.0429616
0.0430125
0.0430661
0.0431223
0.043181
0.0432424
0.0433062
0.0433725
0.0434412
0.0435123
0.0435858
0.0436616
0.0437399
0.0438205
0.0439036
0.0439891
0.044077
0.0441674
0.0442603
0.0443557
0.0444536
0.0445538
0.0446565
0.0447615
0.0448688
0.0449781
0.0450896
0.0452032
0.0453188
0.0454363
0.0455557
0.0456769
0.0457996
0.0459237
0.0460491
0.0461756
0.0463028
0.0464306
0.0465586
0.0466865
0.0468139
0.0469403
0.047065
0.0471874
0.0473066
0.0474214
0.0475309
0.0476333
0.0477266
0.0478091
0.0478755
0.047925
0.0479526
0.0479566
0.0479193
0.0478399
0.0477025
0.0475
0.0472188
0.0468239
0.046292
0.0455898
0.044675
0.0434499
0.0428497
0.0424147
0.0424097
0.0423451
0.0422458
0.0421312
0.0420124
0.0419012
0.0418178
0.0417797
0.0417951
0.0418862
0.042029
0.042153
0.0422297
0.042265
0.0422833
0.0423017
0.0423241
0.0423483
0.0423685
0.0423827
0.0423922
0.0423989
0.042405
0.0424089
0.0424125
0.0424156
0.0424174
0.0424158
0.042412
0.0424102
0.042414
0.0424252
0.0424403
0.0424561
0.0424717
0.042487
0.0425026
0.0425186
0.0425349
0.0425505
0.0425655
0.0425801
0.0425954
0.0426122
0.0426309
0.0426517
0.042675
0.0427013
0.0427307
0.0427634
0.0427993
0.0428382
0.0428799
0.0429244
0.0429715
0.043021
0.0430732
0.043128
0.0431855
0.0432457
0.0433084
0.0433736
0.0434414
0.0435116
0.0435843
0.0436594
0.0437369
0.0438169
0.0438993
0.0439843
0.0440717
0.0441617
0.0442542
0.0443493
0.044447
0.0445473
0.0446502
0.0447556
0.0448635
0.0449738
0.0450865
0.0452015
0.0453187
0.0454383
0.0455601
0.045684
0.04581
0.045938
0.0460678
0.0461994
0.0463326
0.0464672
0.0466029
0.0467397
0.0468772
0.0470152
0.0471534
0.0472912
0.0474281
0.0475636
0.0476968
0.047827
0.0479528
0.0480728
0.0481853
0.0482876
0.0483784
0.0484505
0.0485039
0.0485313
0.0485322
0.0484781
0.0483796
0.0482088
0.0479402
0.0475392
0.0469376
0.0461247
0.0449864
0.0428493
0.0424236
0.0424202
0.0423541
0.0422472
0.0421234
0.0419974
0.041881
0.0417848
0.0417273
0.0417155
0.0417658
0.0418987
0.0420514
0.0421611
0.0422157
0.042241
0.0422602
0.0422813
0.0423049
0.0423274
0.042347
0.0423636
0.0423775
0.0423906
0.0424006
0.0424094
0.0424163
0.0424223
0.0424262
0.042427
0.0424285
0.042435
0.042448
0.0424649
0.0424826
0.0425
0.042517
0.0425344
0.0425525