/*--------------------------------*- C++ -*----------------------------------*\
| =========                 |                                                 |
| \\      /  F ield         | OpenFOAM: The Open Source CFD Toolbox           |
|  \\    /   O peration     | Version:  2412                                  |
|   \\  /    A nd           | Website:  www.openfoam.com                      |
|    \\/     M anipulation  |                                                 |
\*---------------------------------------------------------------------------*/
FoamFile
{
    version     2.0;
    format      ascii;
    arch        "LSB;label=32;scalar=64";
    class       volScalarField;
    location    "0.091";
    object      T;
}
// * * * * * * * * * * * * * * * * * * * * * * * * * * * * * * * * * * * * * //

dimensions      [0 0 0 1 0 0 0];

internalField   nonuniform List<scalar> 
78650
(
235.118
226.235
225.857
225.649
225.404
225.144
224.875
224.624
224.406
224.23
224.09
223.977
223.88
223.787
223.689
223.581
223.463
223.339
223.216
223.108
223.022
222.96
222.917
222.884
222.853
222.818
222.777
222.725
222.664
222.593
222.513
222.427
222.337
222.246
222.158
222.074
221.994
221.918
221.847
221.78
221.718
221.66
221.607
221.557
221.512
221.472
221.435
221.403
221.375
221.351
221.33
221.312
221.297
221.284
221.274
221.265
221.258
221.252
221.247
221.242
221.237
221.231
221.223
221.214
221.201
221.185
221.164
221.137
221.104
221.065
221.016
220.957
220.887
220.802
220.703
220.586
220.45
220.291
220.108
219.898
219.656
219.381
219.068
218.713
218.311
217.86
217.353
216.788
216.158
215.461
214.69
213.84
212.902
211.884
210.762
209.557
208.245
206.838
205.33
203.713
202.007
200.2
198.339
196.435
194.601
192.639
190.68
188.769
186.809
184.964
183.248
181.657
180.152
178.672
177.295
176.044
175.024
174.237
173.742
173.53
172.128
234.345
226.091
225.839
225.65
225.412
225.151
224.878
224.62
224.394
224.208
224.062
223.948
223.855
223.77
223.68
223.578
223.464
223.344
223.226
223.117
223.029
222.964
222.919
222.886
222.857
222.826
222.79
222.745
222.691
222.628
222.555
222.475
222.39
222.303
222.219
222.138
222.061
221.988
221.92
221.856
221.797
221.743
221.693
221.647
221.606
221.569
221.537
221.509
221.485
221.466
221.45
221.437
221.427
221.42
221.416
221.413
221.412
221.413
221.416
221.418
221.422
221.424
221.426
221.426
221.424
221.419
221.411
221.398
221.379
221.354
221.323
221.282
221.231
221.168
221.092
221.001
220.892
220.764
220.614
220.44
220.238
220.006
219.739
219.435
219.089
218.698
218.257
217.76
217.203
216.579
215.884
215.113
214.258
213.319
212.283
211.168
209.946
208.637
207.225
205.715
204.139
202.43
200.668
198.753
196.863
194.969
192.988
191.084
189.099
187.149
185.329
183.528
181.841
180.218
178.694
177.317
176.144
175.156
174.482
174.119
172.673
233.591
226.016
225.801
225.641
225.419
225.161
224.884
224.619
224.383
224.186
224.032
223.914
223.821
223.742
223.66
223.566
223.46
223.344
223.23
223.124
223.034
222.967
222.92
222.886
222.859
222.832
222.8
222.762
222.715
222.66
222.596
222.522
222.442
222.36
222.28
222.202
222.129
222.06
221.995
221.934
221.878
221.827
221.78
221.738
221.701
221.668
221.64
221.616
221.597
221.582
221.571
221.564
221.56
221.558
221.559
221.563
221.569
221.577
221.586
221.597
221.608
221.619
221.63
221.64
221.649
221.655
221.658
221.658
221.653
221.644
221.628
221.605
221.573
221.531
221.477
221.41
221.327
221.228
221.109
220.968
220.802
220.609
220.386
220.128
219.832
219.495
219.111
218.676
218.186
217.636
217.022
216.339
215.58
214.743
213.816
212.806
211.69
210.493
209.182
207.768
206.249
204.626
202.919
201.082
199.168
197.278
195.244
193.231
191.27
189.234
187.335
185.45
183.613
181.89
180.239
178.741
177.431
176.325
175.48
174.895
173.016
232.867
225.909
225.754
225.628
225.429
225.174
224.892
224.619
224.375
224.167
224.003
223.876
223.78
223.702
223.628
223.544
223.448
223.34
223.23
223.127
223.038
222.968
222.919
222.885
222.859
222.835
222.808
222.776
222.737
222.69
222.635
222.569
222.496
222.419
222.342
222.269
222.199
222.133
222.072
222.014
221.962
221.914
221.87
221.832
221.798
221.769
221.745
221.725
221.71
221.7
221.694
221.692
221.693
221.697
221.704
221.714
221.726
221.74
221.757
221.775
221.794
221.813
221.833
221.853
221.871
221.888
221.903
221.915
221.924
221.928
221.928
221.921
221.907
221.885
221.852
221.808
221.75
221.678
221.588
221.48
221.35
221.195
221.014
220.802
220.556
220.272
219.947
219.576
219.155
218.679
218.142
217.538
216.861
216.105
215.262
214.338
213.315
212.205
210.977
209.667
208.255
206.741
205.115
203.406
201.57
199.679
197.704
195.611
193.667
191.608
189.553
187.539
185.505
183.624
181.801
180.15
178.75
177.615
176.831
176.315
174.467
232.067
225.806
225.703
225.611
225.437
225.189
224.904
224.624
224.371
224.153
223.977
223.84
223.737
223.657
223.585
223.51
223.425
223.329
223.226
223.126
223.039
222.968
222.917
222.883
222.858
222.836
222.814
222.787
222.756
222.718
222.672
222.615
222.549
222.478
222.406
222.337
222.271
222.209
222.151
222.097
222.048
222.003
221.963
221.928
221.898
221.873
221.852
221.837
221.827
221.821
221.82
221.823
221.829
221.839
221.851
221.867
221.885
221.906
221.93
221.955
221.981
222.009
222.038
222.066
222.095
222.122
222.148
222.172
222.193
222.211
222.225
222.234
222.238
222.234
222.222
222.2
222.165
222.118
222.057
221.978
221.881
221.762
221.619
221.449
221.248
221.014
220.742
220.429
220.069
219.659
219.192
218.665
218.072
217.408
216.665
215.842
214.925
213.922
212.81
211.611
210.284
208.855
207.321
205.676
203.94
202.051
200.18
198.152
196.099
194.038
191.922
189.9
187.759
185.697
183.675
181.732
179.994
178.502
177.46
176.808
174.669
231.213
225.715
225.649
225.586
225.445
225.21
224.922
224.632
224.371
224.142
223.955
223.807
223.695
223.611
223.54
223.47
223.394
223.309
223.216
223.122
223.038
222.968
222.916
222.88
222.855
222.836
222.818
222.797
222.773
222.743
222.707
222.66
222.603
222.539
222.472
222.407
222.345
222.287
222.233
222.183
222.138
222.096
222.06
222.028
222.001
221.98
221.963
221.952
221.946
221.944
221.948
221.956
221.967
221.982
222.001
222.022
222.047
222.074
222.104
222.136
222.17
222.206
222.243
222.28
222.318
222.355
222.392
222.427
222.461
222.492
222.52
222.544
222.564
222.577
222.583
222.583
222.571
222.549
222.514
222.464
222.398
222.313
222.208
222.078
221.922
221.737
221.517
221.261
220.962
220.618
220.224
219.775
219.265
218.688
218.037
217.307
216.489
215.585
214.575
213.476
212.259
210.949
209.517
207.977
206.339
204.543
202.648
200.66
198.531
196.472
194.304
192.237
190.158
188.039
185.965
184.007
182.252
180.721
179.431
178.45
175.792
230.287
225.59
225.591
225.565
225.455
225.237
224.947
224.646
224.374
224.138
223.942
223.783
223.661
223.57
223.496
223.428
223.359
223.283
223.2
223.116
223.038
222.97
222.916
222.878
222.853
222.836
222.821
222.805
222.787
222.765
222.739
222.703
222.656
222.6
222.539
222.479
222.421
222.367
222.318
222.272
222.23
222.192
222.159
222.131
222.108
222.09
222.077
222.07
222.068
222.071
222.079
222.092
222.109
222.129
222.153
222.18
222.211
222.244
222.281
222.32
222.361
222.405
222.45
222.496
222.543
222.59
222.637
222.683
222.728
222.772
222.813
222.852
222.887
222.918
222.942
222.959
222.969
222.971
222.96
222.938
222.901
222.848
222.776
222.684
222.569
222.427
222.255
222.05
221.809
221.526
221.199
220.821
220.388
219.894
219.33
218.694
217.976
217.178
216.284
215.301
214.199
213.003
211.679
210.247
208.688
207.023
205.223
203.373
201.336
199.238
197.1
194.822
192.637
190.36
188.139
185.96
183.994
182.33
181.058
180.159
177.577
229.334
225.43
225.514
225.533
225.458
225.27
224.984
224.674
224.387
224.142
223.938
223.772
223.642
223.543
223.465
223.396
223.332
223.264
223.191
223.116
223.042
222.976
222.921
222.881
222.854
222.836
222.824
222.812
222.8
222.786
222.768
222.744
222.708
222.661
222.608
222.553
222.5
222.45
222.405
222.363
222.325
222.291
222.262
222.237
222.218
222.203
222.194
222.191
222.193
222.201
222.213
222.23
222.252
222.278
222.307
222.34
222.376
222.416
222.459
222.505
222.553
222.604
222.657
222.711
222.767
222.823
222.88
222.937
222.993
223.049
223.103
223.156
223.205
223.252
223.293
223.33
223.36
223.381
223.395
223.398
223.39
223.367
223.329
223.273
223.196
223.097
222.972
222.818
222.632
222.409
222.144
221.835
221.476
221.061
220.583
220.04
219.421
218.725
217.936
217.057
216.068
214.987
213.778
212.463
211.012
209.45
207.785
205.962
204.032
201.901
199.86
197.544
195.297
192.931
190.609
188.291
186.076
184.09
182.417
181.194
177.913
228.4
225.193
225.424
225.487
225.454
225.307
225.042
224.726
224.424
224.164
223.95
223.777
223.641
223.537
223.455
223.386
223.324
223.261
223.193
223.122
223.052
222.988
222.932
222.888
222.858
222.839
222.828
222.82
222.812
222.804
222.795
222.781
222.757
222.721
222.676
222.628
222.58
222.535
222.494
222.456
222.423
222.393
222.368
222.347
222.331
222.32
222.314
222.314
222.321
222.332
222.349
222.371
222.398
222.429
222.463
222.502
222.544
222.59
222.639
222.691
222.746
222.804
222.865
222.927
222.991
223.057
223.123
223.19
223.258
223.324
223.391
223.456
223.52
223.582
223.64
223.694
223.742
223.785
223.82
223.847
223.863
223.869
223.862
223.839
223.798
223.738
223.655
223.546
223.41
223.241
223.037
222.792
222.504
222.167
221.775
221.321
220.798
220.201
219.519
218.753
217.887
216.926
215.838
214.642
213.318
211.882
210.298
208.574
206.746
204.783
202.711
200.501
198.232
195.974
193.578
191.215
188.88
186.841
185.076
183.701
180.123
227.514
224.904
225.274
225.414
225.432
225.343
225.117
224.808
224.498
224.225
223.998
223.813
223.664
223.551
223.463
223.392
223.33
223.268
223.204
223.138
223.072
223.01
222.953
222.905
222.869
222.848
222.836
222.83
222.825
222.822
222.821
222.817
222.804
222.779
222.744
222.703
222.661
222.621
222.584
222.552
222.522
222.497
222.475
222.458
222.446
222.439
222.437
222.441
222.45
222.466
222.487
222.514
222.545
222.581
222.621
222.664
222.712
222.764
222.819
222.877
222.939
223.004
223.072
223.142
223.214
223.289
223.364
223.441
223.518
223.596
223.674
223.752
223.829
223.905
223.978
224.048
224.115
224.177
224.233
224.282
224.323
224.355
224.375
224.384
224.379
224.356
224.314
224.25
224.161
224.045
223.897
223.715
223.492
223.226
222.91
222.538
222.103
221.602
221.023
220.367
219.617
218.775
217.817
216.761
215.578
214.271
212.805
211.213
209.494
207.648
205.579
203.425
201.079
198.757
196.286
193.892
191.411
189.173
187.245
185.8
182.296
226.691
224.537
225.019
225.302
225.394
225.356
225.182
224.902
224.597
224.319
224.085
223.89
223.731
223.605
223.505
223.425
223.359
223.297
223.235
223.171
223.107
223.046
222.987
222.934
222.892
222.864
222.85
222.844
222.842
222.842
222.847
222.85
222.848
222.835
222.811
222.779
222.743
222.708
222.676
222.648
222.623
222.602
222.585
222.572
222.563
222.56
222.561
222.569
222.582
222.601
222.626
222.657
222.693
222.734
222.779
222.828
222.881
222.938
222.999
223.064
223.132
223.204
223.279
223.356
223.437
223.519
223.603
223.689
223.776
223.865
223.954
224.043
224.133
224.222
224.31
224.396
224.479
224.559
224.634
224.704
224.768
224.824
224.872
224.908
224.932
224.943
224.94
224.916
224.872
224.802
224.707
224.58
224.42
224.222
223.98
223.69
223.345
222.939
222.464
221.916
221.281
220.559
219.733
218.807
217.748
216.564
215.24
213.803
212.213
210.467
208.574
206.502
204.283
201.904
199.397
196.87
194.212
191.8
189.575
187.793
183.492
225.982
224.097
224.617
225.082
225.314
225.334
225.224
224.985
224.699
224.425
224.191
223.994
223.829
223.691
223.577
223.485
223.41
223.345
223.284
223.224
223.163
223.1
223.037
222.979
222.929
222.894
222.874
222.865
222.864
222.865
222.874
222.884
222.89
222.888
222.876
222.854
222.825
222.796
222.769
222.746
222.725
222.708
222.695
222.686
222.682
222.682
222.687
222.698
222.715
222.738
222.767
222.801
222.842
222.887
222.937
222.991
223.049
223.112
223.179
223.249
223.324
223.402
223.484
223.568
223.656
223.746
223.838
223.933
224.03
224.128
224.227
224.328
224.429
224.531
224.632
224.733
224.832
224.928
225.022
225.111
225.196
225.275
225.347
225.411
225.466
225.508
225.537
225.551
225.551
225.527
225.481
225.408
225.305
225.169
224.996
224.78
224.514
224.195
223.814
223.367
222.842
222.236
221.535
220.736
219.814
218.779
217.613
216.322
214.867
213.264
211.494
209.561
207.474
205.178
202.823
200.314
197.782
195.289
193.04
191.17
186.838
225.459
223.646
224.084
224.682
225.121
225.259
225.225
225.037
224.779
224.522
224.297
224.105
223.943
223.804
223.685
223.583
223.498
223.424
223.359
223.299
223.237
223.173
223.106
223.041
222.984
222.939
222.911
222.897
222.894
222.895
222.904
222.919
222.933
222.939
222.938
222.926
222.907
222.885
222.863
222.844
222.828
222.815
222.806
222.802
222.801
222.805
222.814
222.828
222.848
222.874
222.907
222.946
222.99
223.04
223.094
223.153
223.217
223.285
223.357
223.433
223.514
223.598
223.686
223.777
223.872
223.97
224.07
224.173
224.279
224.386
224.495
224.606
224.718
224.832
224.946
225.06
225.174
225.286
225.396
225.504
225.609
225.709
225.804
225.892
225.973
226.044
226.106
226.153
226.187
226.204
226.205
226.181
226.133
226.055
225.945
225.799
225.612
225.377
225.087
224.738
224.319
223.826
223.244
222.57
221.787
220.9
219.883
218.73
217.413
215.96
214.339
212.535
210.529
208.334
206.001
203.421
200.809
197.929
195.42
193.345
188.58
225.172
223.303
223.565
224.125
224.749
225.087
225.146
225.05
224.822
224.581
224.368
224.191
224.044
223.916
223.803
223.701
223.61
223.531
223.461
223.397
223.333
223.264
223.192
223.121
223.056
223.002
222.964
222.942
222.935
222.934
222.941
222.958
222.978
222.992
222.998
222.996
222.987
222.972
222.956
222.942
222.931
222.923
222.918
222.917
222.92
222.928
222.94
222.958
222.981
223.011
223.047
223.09
223.138
223.192
223.251
223.314
223.383
223.456
223.533
223.615
223.701
223.791
223.885
223.983
224.084
224.189
224.296
224.407
224.521
224.637
224.755
224.876
224.999
225.123
225.249
225.376
225.503
225.629
225.756
225.88
226.003
226.122
226.238
226.349
226.455
226.554
226.644
226.724
226.794
226.848
226.887
226.909
226.913
226.888
226.839
226.756
226.637
226.478
226.271
226.012
225.693
225.308
224.845
224.301
223.661
222.922
222.056
221.058
219.915
218.639
217.193
215.579
213.768
211.762
209.563
207.199
204.678
202.063
199.376
197.069
191.953
225.04
223.17
223.271
223.588
224.188
224.725
224.96
224.96
224.82
224.604
224.401
224.23
224.097
223.987
223.894
223.808
223.728
223.652
223.582
223.514
223.445
223.371
223.293
223.216
223.143
223.081
223.033
223.002
222.988
222.984
222.987
223.003
223.026
223.047
223.06
223.065
223.065
223.059
223.05
223.041
223.034
223.03
223.029
223.032
223.039
223.05
223.066
223.088
223.114
223.147
223.187
223.232
223.284
223.342
223.405
223.473
223.546
223.624
223.706
223.793
223.884
223.98
224.08
224.184
224.291
224.403
224.518
224.636
224.757
224.882
225.009
225.138
225.271
225.405
225.542
225.68
225.82
225.96
226.1
226.24
226.379
226.517
226.652
226.784
226.912
227.035
227.152
227.261
227.361
227.451
227.528
227.589
227.634
227.659
227.665
227.642
227.59
227.502
227.374
227.202
226.977
226.694
226.341
225.915
225.4
224.789
224.06
223.214
222.234
221.115
219.825
218.37
216.715
214.86
212.76
210.451
207.962
205.502
202.668
200.445
195.765
225.011
223.191
223.173
223.246
223.61
224.165
224.594
224.748
224.721
224.579
224.4
224.241
224.114
224.008
223.922
223.856
223.802
223.75
223.695
223.636
223.568
223.491
223.409
223.325
223.245
223.175
223.118
223.078
223.054
223.046
223.045
223.055
223.079
223.105
223.123
223.136
223.142
223.143
223.141
223.138
223.136
223.136
223.139
223.146
223.156
223.172
223.191
223.216
223.246
223.282
223.324
223.374
223.429
223.491
223.558
223.63
223.707
223.789
223.876
223.967
224.064
224.165
224.27
224.38
224.493
224.611
224.732
224.857
224.986
225.118
225.253
225.391
225.532
225.676
225.823
225.972
226.123
226.275
226.429
226.583
226.737
226.891
227.043
227.194
227.343
227.488
227.629
227.765
227.894
228.015
228.126
228.225
228.312
228.381
228.432
228.462
228.47
228.447
228.391
228.296
228.155
227.965
227.714
227.399
227.004
226.525
225.946
225.265
224.455
223.509
222.404
221.141
219.675
218.011
216.117
214.031
211.688
209.249
206.468
203.892
198.758
224.996
223.242
223.158
223.126
223.242
223.595
224.057
224.373
224.49
224.465
224.343
224.21
224.095
224.001
223.925
223.864
223.815
223.783
223.76
223.724
223.674
223.608
223.528
223.441
223.355
223.278
223.214
223.165
223.133
223.117
223.112
223.117
223.138
223.166
223.189
223.207
223.219
223.227
223.232
223.235
223.238
223.242
223.249
223.259
223.273
223.291
223.314
223.342
223.375
223.415
223.46
223.513
223.572
223.636
223.707
223.783
223.864
223.951
224.042
224.138
224.239
224.345
224.455
224.57
224.69
224.813
224.94
225.072
225.207
225.346
225.488
225.634
225.784
225.936
226.092
226.251
226.412
226.576
226.742
226.909
227.077
227.245
227.414
227.582
227.749
227.915
228.077
228.236
228.391
228.54
228.681
228.814
228.936
229.046
229.141
229.219
229.277
229.313
229.324
229.301
229.24
229.136
228.982
228.773
228.495
228.145
227.707
227.175
226.519
225.735
224.802
223.715
222.443
220.984
219.294
217.387
215.232
212.883
210.388
207.968
203.387
224.959
223.321
223.197
223.107
223.111
223.219
223.505
223.86
224.118
224.221
224.208
224.133
224.04
223.964
223.899
223.849
223.81
223.787
223.772
223.757
223.734
223.692
223.629
223.55
223.466
223.386
223.317
223.262
223.223
223.198
223.189
223.189
223.204
223.232
223.259
223.28
223.298
223.311
223.322
223.33
223.338
223.347
223.357
223.37
223.388
223.409
223.435
223.466
223.503
223.545
223.594
223.649
223.711
223.779
223.853
223.933
224.018
224.108
224.203
224.304
224.409
224.52
224.635
224.755
224.879
225.008
225.141
225.278
225.42
225.565
225.714
225.868
226.024
226.185
226.349
226.517
226.688
226.862
227.038
227.217
227.397
227.579
227.762
227.946
228.129
228.313
228.495
228.675
228.853
229.026
229.195
229.358
229.513
229.659
229.793
229.915
230.021
230.108
230.173
230.213
230.226
230.202
230.135
230.021
229.848
229.612
229.296
228.895
228.384
227.761
227.003
226.1
225.025
223.769
222.287
220.579
218.583
216.379
213.905
211.342
206.843
224.897
223.409
223.281
223.137
223.081
223.062
223.122
223.343
223.635
223.863
223.97
223.978
223.935
223.885
223.838
223.805
223.783
223.774
223.767
223.759
223.745
223.722
223.683
223.629
223.561
223.488
223.419
223.361
223.316
223.286
223.271
223.267
223.276
223.303
223.331
223.355
223.376
223.394
223.41
223.424
223.437
223.45
223.464
223.48
223.5
223.525
223.554
223.588
223.627
223.672
223.724
223.782
223.847
223.919
223.996
224.079
224.168
224.262
224.361
224.465
224.575
224.689
224.809
224.933
225.063
225.196
225.335
225.477
225.624
225.776
225.931
226.091
226.255
226.422
226.594
226.77
226.95
227.133
227.319
227.508
227.7
227.894
228.089
228.287
228.485
228.685
228.884
229.083
229.281
229.477
229.67
229.859
230.043
230.22
230.389
230.549
230.697
230.831
230.948
231.045
231.117
231.162
231.176
231.15
231.074
230.944
230.747
230.478
230.12
229.665
229.088
228.377
227.504
226.453
225.188
223.701
221.967
220.037
217.799
215.47
211.492
224.815
223.484
223.377
223.205
223.089
222.997
222.93
222.966
223.155
223.42
223.644
223.751
223.775
223.768
223.744
223.728
223.724
223.732
223.743
223.749
223.741
223.722
223.693
223.659
223.617
223.565
223.508
223.454
223.409
223.374
223.355
223.348
223.352
223.378
223.405
223.431
223.455
223.477
223.497
223.516
223.534
223.551
223.569
223.588
223.611
223.638
223.67
223.707
223.748
223.797
223.851
223.912
223.98
224.055
224.135
224.222
224.314
224.411
224.513
224.621
224.735
224.853
224.977
225.106
225.239
225.378
225.521
225.668
225.821
225.977
226.138
226.304
226.474
226.648
226.827
227.01
227.197
227.388
227.583
227.782
227.984
228.188
228.395
228.605
228.817
229.03
229.245
229.461
229.676
229.892
230.106
230.318
230.527
230.732
230.932
231.125
231.31
231.485
231.647
231.794
231.923
232.029
232.109
232.158
232.174
232.143
232.056
231.909
231.683
231.371
230.947
230.4
229.703
228.845
227.792
226.523
225.008
223.223
221.159
218.818
215.295
224.724
223.536
223.461
223.288
223.128
222.983
222.832
222.749
222.788
222.98
223.252
223.467
223.574
223.615
223.624
223.628
223.64
223.665
223.694
223.714
223.715
223.705
223.687
223.662
223.635
223.606
223.571
223.531
223.492
223.458
223.436
223.426
223.428
223.452
223.48
223.507
223.533
223.558
223.581
223.605
223.627
223.649
223.67
223.693
223.719
223.748
223.783
223.822
223.866
223.917
223.974
224.038
224.109
224.186
224.27
224.359
224.454
224.555
224.66
224.772
224.889
225.011
225.138
225.271
225.409
225.551
225.699
225.851
226.008
226.17
226.336
226.507
226.683
226.863
227.048
227.237
227.431
227.63
227.833
228.039
228.25
228.464
228.681
228.902
229.125
229.351
229.579
229.809
230.041
230.273
230.506
230.738
230.969
231.199
231.425
231.647
231.864
232.074
232.275
232.466
232.643
232.804
232.946
233.062
233.15
233.202
233.217
233.177
233.072
232.894
232.622
232.247
231.742
231.092
230.257
229.219
227.942
226.396
224.611
222.433
219.334
224.646
223.57
223.526
223.365
223.178
222.986
222.786
222.62
222.554
222.624
222.853
223.132
223.335
223.444
223.494
223.515
223.538
223.574
223.617
223.655
223.673
223.675
223.667
223.651
223.635
223.62
223.605
223.584
223.558
223.53
223.509
223.5
223.501
223.524
223.552
223.581
223.61
223.637
223.664
223.692
223.719
223.745
223.77
223.796
223.824
223.856
223.893
223.934
223.981
224.034
224.094
224.161
224.235
224.315
224.401
224.494
224.591
224.695
224.804
224.918
225.038
225.164
225.295
225.431
225.572
225.719
225.87
226.026
226.188
226.354
226.525
226.7
226.881
227.067
227.257
227.452
227.653
227.858
228.067
228.281
228.5
228.722
228.948
229.178
229.411
229.648
229.888
230.13
230.375
230.622
230.871
231.121
231.371
231.621
231.87
232.117
232.361
232.601
232.836
233.064
233.283
233.491
233.685
233.861
234.016
234.143
234.237
234.293
234.306
234.254
234.13
233.916
233.593
233.14
232.522
231.719
230.672
229.355
227.774
225.793
223.001
224.594
223.594
223.574
223.426
223.222
222.994
222.757
222.54
222.403
222.38
222.505
222.78
223.063
223.254
223.357
223.402
223.434
223.474
223.523
223.572
223.606
223.622
223.627
223.625
223.624
223.621
223.618
223.615
223.604
223.587
223.571
223.563
223.566
223.589
223.62
223.651
223.682
223.713
223.743
223.775
223.806
223.836
223.865
223.894
223.925
223.96
223.999
224.043
224.092
224.147
224.21
224.279
224.355
224.438
224.527
224.623
224.723
224.829
224.941
225.058
225.181
225.31
225.444
225.584
225.729
225.878
226.033
226.193
226.358
226.528
226.703
226.884
227.069
227.259
227.454
227.655
227.86
228.071
228.287
228.507
228.732
228.962
229.196
229.434
229.676
229.922
230.172
230.425
230.682
230.942
231.204
231.468
231.735
232.002
232.27
232.539
232.806
233.072
233.336
233.596
233.85
234.097
234.335
234.562
234.773
234.966
235.136
235.272
235.374
235.43
235.437
235.36
235.196
234.912
234.489
233.9
233.084
232.021
230.669
228.921
226.436
224.574
223.617
223.608
223.467
223.248
222.994
222.731
222.484
222.299
222.214
222.249
222.452
222.769
223.045
223.215
223.293
223.334
223.374
223.424
223.478
223.522
223.554
223.575
223.59
223.603
223.612
223.62
223.627
223.63
223.627
223.619
223.615
223.623
223.648
223.681
223.716
223.751
223.784
223.819
223.854
223.89
223.925
223.958
223.99
224.024
224.061
224.102
224.148
224.199
224.257
224.322
224.394
224.473
224.558
224.65
224.748
224.851
224.96
225.074
225.194
225.32
225.452
225.589
225.731
225.879
226.032
226.19
226.354
226.522
226.696
226.874
227.058
227.248
227.442
227.642
227.847
228.057
228.273
228.494
228.72
228.951
229.187
229.427
229.672
229.922
230.176
230.435
230.697
230.964
231.234
231.508
231.785
232.065
232.347
232.632
232.918
233.205
233.492
233.78
234.066
234.349
234.63
234.905
235.173
235.432
235.679
235.91
236.119
236.305
236.452
236.561
236.616
236.618
236.507
236.302
235.945
235.396
234.613
233.488
231.975
229.714
224.573
223.637
223.632
223.487
223.251
222.977
222.698
222.44
222.225
222.097
222.071
222.183
222.479
222.819
223.063
223.184
223.24
223.283
223.329
223.381
223.431
223.475
223.511
223.542
223.571
223.593
223.613
223.628
223.641
223.65
223.652
223.655
223.669
223.698
223.735
223.775
223.813
223.851
223.889
223.929
223.969
224.008
224.045
224.081
224.117
224.157
224.201
224.249
224.302
224.362
224.43
224.504
224.586
224.674
224.768
224.868
224.974
225.085
225.202
225.325
225.453
225.587
225.727
225.872
226.023
226.179
226.34
226.506
226.678
226.854
227.037
227.224
227.417
227.615
227.818
228.027
228.242
228.462
228.688
228.919
229.155
229.396
229.642
229.894
230.15
230.411
230.677
230.947
231.222
231.502
231.785
232.073
232.364
232.659
232.957
233.257
233.561
233.866
234.173
234.481
234.789
235.097
235.402
235.705
236.003
236.295
236.576
236.845
237.098
237.329
237.533
237.692
237.81
237.86
237.837
237.67
237.368
236.854
235.986
234.801
232.784
224.592
223.65
223.644
223.486
223.23
222.937
222.651
222.394
222.172
222.015
221.949
221.993
222.219
222.581
222.894
223.07
223.152
223.2
223.242
223.289
223.34
223.391
223.442
223.489
223.533
223.569
223.599
223.623
223.643
223.659
223.672
223.685
223.707
223.741
223.784
223.828
223.87
223.912
223.955
223.999
224.044
224.088
224.128
224.167
224.207
224.249
224.295
224.345
224.401
224.464
224.533
224.61
224.694
224.785
224.882
224.984
225.093
225.206
225.325
225.45
225.581
225.718
225.86
226.008
226.161
226.319
226.483
226.652
226.827
227.006
227.191
227.382
227.578
227.779
227.986
228.199
228.417
228.641
228.871
229.106
229.347
229.593
229.844
230.101
230.362
230.629
230.902
231.179
231.461
231.748
232.04
232.336
232.637
232.943
233.252
233.565
233.881
234.202
234.525
234.851
235.179
235.508
235.839
236.17
236.499
236.827
237.15
237.467
237.774
238.069
238.346
238.599
238.82
238.986
239.099
239.132
239.079
238.846
238.288
237.504
235.788
224.629
223.661
223.646
223.466
223.182
222.874
222.59
222.344
222.127
221.956
221.865
221.864
222.005
222.344
222.71
222.947
223.064
223.125
223.168
223.212
223.261
223.315
223.373
223.433
223.489
223.537
223.576
223.61
223.637
223.66
223.682
223.706
223.736
223.778
223.826
223.875
223.922
223.969
224.016
224.065
224.115
224.162
224.207
224.249
224.292
224.337
224.385
224.438
224.496
224.561
224.633
224.713
224.799
224.892
224.991
225.096
225.207
225.322
225.444
225.571
225.704
225.843
225.988
226.138
226.293
226.454
226.62
226.792
226.969
227.151
227.339
227.532
227.731
227.936
228.146
228.362
228.583
228.811
229.044
229.283
229.528
229.778
230.034
230.295
230.562
230.834
231.112
231.395
231.683
231.977
232.276
232.58
232.889
233.203
233.522
233.845
234.173
234.505
234.842
235.183
235.527
235.874
236.225
236.578
236.933
237.289
237.645
238
238.35
238.697
239.034
239.36
239.669
239.951
240.187
240.363
240.494
240.533
240.296
239.919
238.746
224.695
223.667
223.635
223.419
223.108
222.792
222.516
222.286
222.084
221.911
221.802
221.772
221.844
222.124
222.514
222.811
222.97
223.05
223.099
223.144
223.195
223.253
223.315
223.381
223.444
223.501
223.549
223.591
223.627
223.657
223.687
223.72
223.76
223.809
223.863
223.917
223.97
224.021
224.073
224.126
224.18
224.232
224.28
224.326
224.372
224.42
224.471
224.526
224.587
224.654
224.729
224.811
224.9
224.995
225.097
225.204
225.316
225.434
225.558
225.688
225.823
225.964
226.11
226.263
226.42
226.583
226.752
226.926
227.105
227.29
227.48
227.676
227.877
228.085
228.298
228.516
228.741
228.972
229.208
229.451
229.699
229.953
230.213
230.479
230.75
231.027
231.309
231.597
231.891
232.191
232.496
232.806
233.123
233.444
233.771
234.103
234.44
234.783
235.131
235.483
235.841
236.203
236.57
236.941
237.316
237.695
238.077
238.461
238.846
239.231
239.614
239.994
240.364
240.724
241.057
241.362
241.619
241.84
241.959
241.87
241.412
224.781
223.662
223.603
223.343
223.012
222.695
222.433
222.221
222.038
221.87
221.752
221.699
221.723
221.929
222.314
222.663
222.871
222.978
223.038
223.087
223.141
223.2
223.266
223.334
223.401
223.464
223.52
223.569
223.612
223.649
223.687
223.73
223.78
223.836
223.897
223.956
224.013
224.068
224.125
224.184
224.242
224.298
224.35
224.399
224.448
224.498
224.552
224.609
224.673
224.743
224.82
224.905
224.996
225.094
225.198
225.307
225.422
225.542
225.668
225.799
225.936
226.079
226.228
226.382
226.542
226.707
226.878
227.054
227.235
227.422
227.615
227.813
228.017
228.227
228.443
228.664
228.892
229.126
229.365
229.611
229.863
230.12
230.384
230.653
230.928
231.21
231.497
231.789
232.088
232.393
232.704
233.02
233.343
233.671
234.005
234.344
234.69
235.041
235.398
235.761
236.13
236.504
236.884
237.27
237.661
238.057
238.459
238.865
239.275
239.689
240.106
240.524
240.941
241.356
241.762
242.155
242.522
242.872
243.188
243.365
243.458
224.882
223.644
223.545
223.243
222.901
222.593
222.348
222.155
221.989
221.831
221.705
221.634
221.632
221.764
222.121
222.51
222.771
222.91
222.986
223.042
223.099
223.159
223.225
223.295
223.364
223.43
223.491
223.547
223.597
223.642
223.687
223.738
223.797
223.861
223.927
223.991
224.052
224.112
224.174
224.237
224.3
224.359
224.414
224.467
224.519
224.572
224.628
224.689
224.755
224.827
224.908
224.995
225.089
225.189
225.295
225.406
225.523
225.645
225.772
225.906
226.045
226.19
226.341
226.497
226.658
226.825
226.998
227.176
227.359
227.549
227.743
227.944
228.15
228.363
228.581
228.805
229.035
229.272
229.514
229.763
230.018
230.279
230.546
230.819
231.098
231.383
231.674
231.971
232.274
232.584
232.899
233.221
233.549
233.883
234.223
234.569
234.922
235.281
235.646
236.017
236.395
236.779
237.169
237.566
237.969
238.379
238.795
239.217
239.645
240.079
240.517
240.96
241.407
241.854
242.3
242.738
243.162
243.585
243.975
244.287
244.596
224.984
223.601
223.459
223.123
222.783
222.492
222.267
222.091
221.94
221.793
221.66
221.574
221.553
221.632
221.945
222.362
222.673
222.847
222.941
223.007
223.067
223.128
223.194
223.262
223.332
223.4
223.466
223.527
223.582
223.634
223.686
223.746
223.813
223.883
223.954
224.023
224.088
224.153
224.219
224.287
224.354
224.416
224.475
224.53
224.585
224.641
224.7
224.763
224.832
224.908
224.991
225.081
225.177
225.279
225.387
225.5
225.619
225.743