/*--------------------------------*- C++ -*----------------------------------*\
| =========                 |                                                 |
| \\      /  F ield         | OpenFOAM: The Open Source CFD Toolbox           |
|  \\    /   O peration     | Version:  2412                                  |
|   \\  /    A nd           | Website:  www.openfoam.com                      |
|    \\/     M anipulation  |                                                 |
\*---------------------------------------------------------------------------*/
FoamFile
{
    version     2.0;
    format      ascii;
    arch        "LSB;label=32;scalar=64";
    class       volScalarField;
    location    "0.018";
    object      rho;
}
// * * * * * * * * * * * * * * * * * * * * * * * * * * * * * * * * * * * * * //

dimensions      [1 -3 0 0 0 0 0];

internalField   nonuniform List<scalar> 
78650
(
0.042133
0.042133
0.042133
0.042133
0.042133
0.042133
0.042133
0.042133
0.042133
0.042133
0.042133
0.042133
0.042133
0.042133
0.042133
0.042133
0.042133
0.042133
0.042133
0.042133
0.042133
0.0421334
0.0421435
0.0422316
0.0424973
0.0428175
0.0429761
0.0430265
0.0429975
0.0428781
0.042712
0.0425683
0.0424497
0.0423415
0.0422355
0.0421308
0.0420346
0.0419634
0.0419356
0.0419326
0.041939
0.0419457
0.0419357
0.0419032
0.0418614
0.0418276
0.0418056
0.0417924
0.0417833
0.0417749
0.0417636
0.0417491
0.0417361
0.0417257
0.0417165
0.0417077
0.0416989
0.0416905
0.041683
0.0416761
0.0416697
0.0416639
0.0416583
0.0416523
0.0416448
0.0416351
0.0416229
0.0416082
0.0415908
0.0415702
0.0415453
0.0415153
0.0414796
0.0414375
0.0413885
0.041332
0.0412668
0.0411919
0.0411061
0.041008
0.0408968
0.0407708
0.0406286
0.0404684
0.0402885
0.0400874
0.0398626
0.0396121
0.0393328
0.0390252
0.0386847
0.0383129
0.0379044
0.0374679
0.0369915
0.0364848
0.0359361
0.0353518
0.0347352
0.0340727
0.0334007
0.0326927
0.031982
0.0312383
0.030521
0.0297869
0.0290892
0.02837
0.0276977
0.0270965
0.0264872
0.0258991
0.0253464
0.0248406
0.024401
0.0240059
0.0236608
0.0233129
0.0229709
0.0226554
0.0221035
0.042133
0.042133
0.042133
0.042133
0.042133
0.042133
0.042133
0.042133
0.042133
0.042133
0.042133
0.042133
0.042133
0.042133
0.042133
0.042133
0.042133
0.042133
0.042133
0.042133
0.042133
0.0421332
0.0421389
0.0422009
0.0424323
0.042768
0.0429718
0.0430412
0.0430203
0.0429218
0.0427585
0.0426122
0.0424926
0.0423853
0.0422814
0.0421782
0.0420805
0.0420037
0.0419695
0.041964
0.041971
0.0419807
0.041975
0.0419491
0.0419107
0.0418776
0.041856
0.041844
0.0418372
0.0418319
0.0418242
0.0418122
0.041801
0.0417923
0.0417852
0.0417789
0.0417726
0.0417669
0.0417621
0.0417581
0.0417549
0.0417524
0.0417506
0.0417487
0.0417458
0.0417413
0.0417346
0.0417257
0.0417146
0.0417008
0.0416834
0.0416617
0.0416348
0.0416023
0.0415637
0.0415183
0.0414654
0.0414039
0.0413327
0.0412504
0.0411563
0.0410488
0.0409267
0.0407885
0.0406321
0.040456
0.0402576
0.0400351
0.0397861
0.0395101
0.0392028
0.0388658
0.038495
0.0380952
0.0376562
0.0371866
0.0366739
0.0361283
0.0355442
0.034916
0.0342475
0.0335485
0.0328332
0.0320901
0.0313633
0.0306202
0.0298814
0.0291823
0.0284557
0.0277926
0.0271628
0.0265501
0.0259576
0.0254034
0.0248885
0.0244065
0.0239618
0.0235348
0.0231518
0.0228082
0.0222302
0.042133
0.042133
0.042133
0.042133
0.042133
0.042133
0.042133
0.042133
0.042133
0.042133
0.042133
0.042133
0.042133
0.042133
0.042133
0.042133
0.042133
0.042133
0.042133
0.042133
0.042133
0.0421331
0.0421361
0.0421773
0.0423693
0.0427073
0.0429576
0.0430515
0.043038
0.042963
0.0428075
0.0426584
0.0425369
0.04243
0.042328
0.0422262
0.0421269
0.042045
0.0420038
0.0419953
0.0420025
0.0420159
0.0420143
0.041995
0.0419605
0.0419283
0.0419075
0.0418969
0.0418923
0.0418899
0.0418856
0.0418765
0.041867
0.04186
0.041855
0.0418511
0.0418473
0.0418442
0.041842
0.0418411
0.041841
0.0418419
0.0418438
0.0418459
0.0418476
0.0418481
0.0418468
0.0418437
0.0418388
0.0418315
0.0418214
0.0418076
0.0417893
0.041766
0.0417372
0.0417026
0.0416612
0.0416123
0.0415547
0.0414872
0.041409
0.0413187
0.0412151
0.0410968
0.0409618
0.0408086
0.040635
0.0404397
0.0402201
0.0399753
0.0397014
0.0393992
0.0390642
0.038698
0.0382925
0.0378549
0.0373747
0.0368639
0.0363138
0.0357314
0.0351149
0.0344573
0.033766
0.0330383
0.0322827
0.0315496
0.0307701
0.0300369
0.0292883
0.0285497
0.0278679
0.0272078
0.02659
0.0260222
0.0254733
0.0249512
0.0244541
0.0239599
0.0234905
0.023058
0.0223396
0.042133
0.042133
0.042133
0.042133
0.042133
0.042133
0.042133
0.042133
0.042133
0.042133
0.042133
0.042133
0.042133
0.042133
0.042133
0.042133
0.042133
0.042133
0.042133
0.042133
0.042133
0.0421331
0.0421345
0.0421599
0.0423099
0.0426361
0.0429304
0.0430559
0.0430531
0.043004
0.04286
0.042708
0.0425841
0.0424774
0.0423766
0.0422755
0.0421743
0.0420872
0.0420383
0.0420263
0.0420332
0.0420513
0.0420548
0.0420411
0.0420112
0.0419806
0.0419607
0.0419513
0.0419486
0.0419489
0.0419477
0.041942
0.0419343
0.0419286
0.0419255
0.0419238
0.0419225
0.0419219
0.0419224
0.0419242
0.0419271
0.0419313
0.0419366
0.0419427
0.0419487
0.0419538
0.0419577
0.0419601
0.0419611
0.0419602
0.041957
0.0419508
0.0419408
0.0419263
0.041907
0.0418825
0.0418523
0.0418155
0.0417711
0.0417181
0.0416554
0.041582
0.0414968
0.0413983
0.0412849
0.0411551
0.0410068
0.0408386
0.0406479
0.040433
0.0401903
0.0399198
0.0396169
0.0392824
0.0389108
0.0385081
0.0380666
0.0375936
0.0370766
0.0365248
0.0359346
0.0353068
0.034639
0.0339453
0.0332052
0.032465
0.0317009
0.0309064
0.0301731
0.0293851
0.0286353
0.0279057
0.0272017
0.026559
0.0259405
0.0253729
0.0248634
0.0243828
0.0239449
0.0235283
0.0227963
0.042133
0.042133
0.042133
0.042133
0.042133
0.042133
0.042133
0.042133
0.042133
0.042133
0.042133
0.042133
0.042133
0.042133
0.042133
0.042133
0.042133
0.042133
0.042133
0.042133
0.042133
0.0421331
0.0421337
0.042148
0.0422577
0.0425569
0.042887
0.0430547
0.0430706
0.0430411
0.0429123
0.0427601
0.0426341
0.0425268
0.0424259
0.0423246
0.0422217
0.0421302
0.0420737
0.042058
0.0420642
0.0420871
0.0420967
0.0420879
0.0420633
0.0420352
0.0420163
0.0420079
0.0420064
0.0420098
0.0420112
0.0420085
0.0420029
0.0419987
0.0419975
0.041998
0.0419991
0.0420009
0.042004
0.0420084
0.0420143
0.0420216
0.0420303
0.0420402
0.0420505
0.0420603
0.0420692
0.0420769
0.0420835
0.0420888
0.0420922
0.0420932
0.0420911
0.0420852
0.0420752
0.0420603
0.0420406
0.0420151
0.0419832
0.0419436
0.0418955
0.0418378
0.0417695
0.0416893
0.0415956
0.0414871
0.0413619
0.0412184
0.0410542
0.0408679
0.0406563
0.0404192
0.0401522
0.0398557
0.0395251
0.0391633
0.0387623
0.0383268
0.0378474
0.0373323
0.0367713
0.0361719
0.0355341
0.034853
0.0341385
0.0333553
0.0326004
0.0317999
0.0310295
0.0302542
0.0294705
0.0287334
0.0279928
0.0272891
0.0265816
0.0259076
0.0252774
0.0246716
0.0241419
0.0236787
0.0228345
0.042133
0.042133
0.042133
0.042133
0.042133
0.042133
0.042133
0.042133
0.042133
0.042133
0.042133
0.042133
0.042133
0.042133
0.042133
0.042133
0.042133
0.042133
0.042133
0.042133
0.042133
0.042133
0.0421333
0.0421406
0.0422144
0.0424729
0.0428267
0.0430455
0.043088
0.043071
0.0429662
0.0428181
0.0426887
0.0425783
0.0424755
0.0423734
0.0422699
0.0421752
0.0421115
0.0420916
0.0420964
0.0421233
0.0421401
0.0421362
0.0421181
0.0420928
0.0420742
0.0420665
0.0420661
0.0420722
0.0420764
0.0420758
0.0420727
0.0420702
0.0420704
0.0420733
0.0420767
0.0420809
0.0420864
0.0420936
0.0421023
0.0421127
0.0421247
0.0421381
0.0421525
0.0421668
0.0421804
0.0421933
0.0422054
0.0422166
0.0422264
0.0422342
0.0422394
0.0422416
0.0422405
0.0422351
0.0422256
0.0422109
0.0421909
0.0421644
0.0421304
0.042088
0.0420363
0.0419742
0.0419001
0.0418128
0.0417106
0.0415919
0.0414545
0.041297
0.0411163
0.0409115
0.0406783
0.0404173
0.0401243
0.0398009
0.0394403
0.0390456
0.0386087
0.0381352
0.0376168
0.0370615
0.0364636
0.035824
0.0351511
0.0344163
0.0336514
0.0328598
0.0320168
0.0312224
0.0303714
0.0295686
0.0287912
0.0280603
0.0273722
0.0267273
0.0260949
0.025458
0.0248196
0.0242311
0.0231974
0.042133
0.042133
0.042133
0.042133
0.042133
0.042133
0.042133
0.042133
0.042133
0.042133
0.042133
0.042133
0.042133
0.042133
0.042133
0.042133
0.042133
0.042133
0.042133
0.042133
0.042133
0.042133
0.0421331
0.0421365
0.0421815
0.0423896
0.0427506
0.0430231
0.0430966
0.0430965
0.0430213
0.0428805
0.0427453
0.0426292
0.0425238
0.0424217
0.0423189
0.0422222
0.0421523
0.0421274
0.0421301
0.0421591
0.0421852
0.0421871
0.0421753
0.0421527
0.0421343
0.0421271
0.0421275
0.042136
0.0421435
0.0421448
0.0421438
0.0421428
0.0421447
0.0421497
0.0421555
0.0421622
0.0421703
0.0421801
0.0421917
0.042205
0.0422201
0.0422371
0.0422553
0.042274
0.0422923
0.0423101
0.0423275
0.0423443
0.0423603
0.0423749
0.0423874
0.0423972
0.042404
0.0424076
0.0424079
0.0424036
0.042395
0.0423806
0.0423598
0.0423316
0.0422952
0.0422495
0.0421934
0.0421256
0.0420444
0.0419484
0.0418356
0.0417047
0.041553
0.0413794
0.0411805
0.040956
0.0407011
0.0404153
0.0400925
0.0397352
0.0393368
0.0389006
0.0384195
0.0378995
0.0373333
0.036726
0.0360756
0.0353887
0.0346411
0.0338853
0.0330812
0.0322813
0.0314507
0.0305828
0.0297234
0.028836
0.0280255
0.0272623
0.0265581
0.0258986
0.0252934
0.0247617
0.0237727
0.042133
0.042133
0.042133
0.042133
0.042133
0.042133
0.042133
0.042133
0.042133
0.042133
0.042133
0.042133
0.042133
0.042133
0.042133
0.042133
0.042133
0.042133
0.042133
0.042133
0.042133
0.042133
0.0421331
0.0421344
0.0421591
0.0423128
0.0426586
0.0429828
0.0430987
0.0431228
0.0430741
0.0429445
0.0428014
0.0426793
0.0425725
0.0424718
0.0423708
0.0422731
0.0421978
0.0421665
0.0421662
0.0421954
0.0422318
0.0422409
0.0422338
0.0422144
0.0421964
0.0421898
0.0421907
0.0422005
0.0422114
0.0422149
0.0422153
0.0422159
0.0422197
0.0422268
0.0422353
0.0422445
0.042255
0.0422675
0.0422818
0.042298
0.0423162
0.0423364
0.0423583
0.0423811
0.042404
0.0424266
0.042449
0.0424713
0.0424931
0.0425141
0.0425334
0.0425507
0.0425656
0.0425776
0.0425865
0.0425923
0.0425943
0.0425917
0.0425838
0.0425696
0.042548
0.0425185
0.0424799
0.0424312
0.0423707
0.0422972
0.0422088
0.0421041
0.0419808
0.0418375
0.0416705
0.0414788
0.0412581
0.0410083
0.0407253
0.0404106
0.0400573
0.0396671
0.0392335
0.0387596
0.0382388
0.0376752
0.0370594
0.0363954
0.0356873
0.0349178
0.0341178
0.0332655
0.0324571
0.0315866
0.0307845
0.0299416
0.0291052
0.0282573
0.0274063
0.0266015
0.0258236
0.0251351
0.0238888
0.042133
0.042133
0.042133
0.042133
0.042133
0.042133
0.042133
0.042133
0.042133
0.042133
0.042133
0.042133
0.042133
0.042133
0.042133
0.042133
0.042133
0.042133
0.042133
0.042133
0.042133
0.042133
0.042133
0.0421335
0.0421454
0.0422482
0.0425561
0.0429218
0.0430951
0.0431484
0.043119
0.0430052
0.0428571
0.0427304
0.0426233
0.0425242
0.042425
0.0423267
0.0422471
0.0422082
0.0422043
0.0422318
0.042278
0.042296
0.0422929
0.0422775
0.0422603
0.0422537
0.0422545
0.042265
0.042279
0.0422855
0.0422878
0.04229
0.0422954
0.0423048
0.042316
0.0423278
0.0423409
0.0423558
0.0423729
0.0423919
0.042413
0.0424364
0.0424619
0.0424887
0.042516
0.0425433
0.0425706
0.042598
0.0426254
0.0426525
0.0426785
0.0427029
0.0427252
0.0427454
0.0427632
0.0427781
0.0427898
0.0427979
0.0428016
0.0428006
0.0427929
0.0427787
0.0427559
0.0427246
0.042683
0.04263
0.0425639
0.0424834
0.0423863
0.0422713
0.0421354
0.0419777
0.0417943
0.0415851
0.0413455
0.0410753
0.0407681
0.040425
0.0400401
0.0396143
0.0391404
0.0386222
0.0380549
0.0374417
0.0367712
0.036045
0.0352881
0.0344725
0.0336193
0.0327028
0.0317598
0.0308553
0.0299696
0.0291479
0.0283251
0.027569
0.0268246
0.0261107
0.0247782
0.042133
0.042133
0.042133
0.042133
0.042133
0.042133
0.042133
0.042133
0.042133
0.042133
0.042133
0.042133
0.042133
0.042133
0.042133
0.042133
0.042133
0.042133
0.042133
0.042133
0.042133
0.042133
0.042133
0.0421332
0.0421382
0.0421996
0.0424506
0.042838
0.0430837
0.0431682
0.0431509
0.0430628
0.0429162
0.0427861
0.0426777
0.0425789
0.0424811
0.0423833
0.0423005
0.0422536
0.0422456
0.0422693
0.0423233
0.0423516
0.0423526
0.0423413
0.0423246
0.0423175
0.0423179
0.0423287
0.0423455
0.0423557
0.0423607
0.0423647
0.0423718
0.0423833
0.0423971
0.0424116
0.0424271
0.0424445
0.0424641
0.042486
0.04251
0.0425365
0.0425654
0.042596
0.0426275
0.0426593
0.0426912
0.0427235
0.0427562
0.0427889
0.0428212
0.0428523
0.0428819
0.0429098
0.0429357
0.0429595
0.0429809
0.0429994
0.0430141
0.0430245
0.0430301
0.0430308
0.0430239
0.0430098
0.0429866
0.0429535
0.0429091
0.042852
0.0427803
0.0426928
0.0425867
0.0424608
0.0423115
0.0421379
0.0419356
0.041704
0.0414375
0.0411371
0.0407965
0.040415
0.0399873
0.0395148
0.0389917
0.0384201
0.0377916
0.0371144
0.0363891
0.0356285
0.0347983
0.0339386
0.0330269
0.0320757
0.0310841
0.0301161
0.0291259
0.0281959
0.0273373
0.0265852
0.0251459
0.042133
0.042133
0.042133
0.042133
0.042133
0.042133
0.042133
0.042133
0.042133
0.042133
0.042133
0.042133
0.042133
0.042133
0.042133
0.042133
0.042133
0.042133
0.042133
0.042133
0.042133
0.042133
0.042133
0.0421331
0.0421349
0.0421673
0.0423527
0.0427339
0.0430523
0.0431764
0.0431737
0.0431178
0.0429804
0.0428453
0.0427332
0.0426342
0.0425385
0.0424426
0.0423576
0.0423023
0.0422892
0.042307
0.0423647
0.0424049
0.0424111
0.0424034
0.0423876
0.04238
0.0423801
0.0423912
0.0424107
0.0424251
0.0424335
0.0424397
0.0424484
0.0424619
0.0424782
0.0424954
0.0425134
0.0425334
0.0425557
0.0425803
0.0426073
0.0426368
0.0426689
0.0427032
0.0427387
0.0427748
0.0428112
0.0428482
0.0428858
0.042924
0.0429622
0.0429998
0.0430362
0.0430714
0.0431051
0.0431371
0.0431674
0.0431954
0.0432207
0.0432427
0.0432603
0.0432731
0.0432807
0.0432825
0.0432762
0.0432617
0.0432371
0.0432014
0.0431532
0.0430912
0.0430131
0.0429176
0.0428013
0.0426632
0.042499
0.0423084
0.0420862
0.0418325
0.0415406
0.0412095
0.0408344
0.0404142
0.0399427
0.0394207
0.0388432
0.0382157
0.037524
0.0367728
0.0359737
0.0351134
0.0342149
0.0333025
0.0323481
0.031451
0.0304731
0.0295268
0.0285296
0.0275944
0.0258664
0.042133
0.042133
0.042133
0.042133
0.042133
0.042133
0.042133
0.042133
0.042133
0.042133
0.042133
0.042133
0.042133
0.042133
0.042133
0.042133
0.042133
0.042133
0.042133
0.042133
0.042133
0.042133
0.042133
0.0421331
0.0421336
0.0421485
0.0422713
0.0426161
0.0429922
0.0431737
0.043197
0.043168
0.0430445
0.0429051
0.0427897
0.0426916
0.0425987
0.0425049
0.0424171
0.0423532
0.0423328
0.0423435
0.0424004
0.0424539
0.0424676
0.0424632
0.0424491
0.0424414
0.0424414
0.0424529
0.0424749
0.0424935
0.042506
0.0425147
0.042525
0.0425402
0.0425589
0.0425788
0.0425995
0.042622
0.042647
0.0426744
0.0427043
0.0427367
0.0427719
0.0428095
0.0428488
0.042889
0.0429296
0.042971
0.0430134
0.0430566
0.0431003
0.0431439
0.0431868
0.0432288
0.0432698
0.0433097
0.0433482
0.0433853
0.0434204
0.0434529
0.0434823
0.043508
0.043529
0.0435447
0.0435544
0.0435577
0.0435526
0.0435379
0.0435123
0.0434743
0.0434224
0.0433552
0.0432698
0.043165
0.0430369
0.0428852
0.042705
0.0424957
0.0422509
0.0419703
0.0416485
0.0412833
0.0408702
0.0404087
0.0398917
0.0393182
0.0386761
0.0379759
0.0372116
0.0363878
0.0355013
0.0345611
0.0335571
0.0324894
0.0314522
0.0304236
0.029462
0.0286235
0.0270115
0.042133
0.042133
0.042133
0.042133
0.042133
0.042133
0.042133
0.042133
0.042133
0.042133
0.042133
0.042133
0.042133
0.042133
0.042133
0.042133
0.042133
0.042133
0.042133
0.042133
0.042133
0.042133
0.042133
0.042133
0.0421332
0.0421391
0.0422112
0.0424952
0.0429056
0.0431584
0.0432207
0.0432047
0.0431048
0.0429669
0.0428495
0.0427519
0.0426597
0.042566
0.0424748
0.0424033
0.0423743
0.0423784
0.0424299
0.0424973
0.042522
0.0425208
0.0425096
0.0425018
0.0425017
0.0425136
0.0425379
0.0425607
0.0425777
0.0425893
0.0426014
0.0426181
0.0426391
0.0426617
0.0426852
0.0427103
0.0427379
0.0427682
0.0428009
0.0428361
0.0428742
0.042915
0.0429579
0.0430019
0.0430467
0.0430923
0.043139
0.043187
0.0432359
0.0432851
0.0433341
0.0433827
0.0434305
0.0434777
0.043524
0.0435694
0.0436135
0.0436559
0.0436959
0.0437329
0.0437665
0.0437959
0.0438203
0.0438386
0.0438503
0.0438547
0.0438502
0.0438348
0.0438078
0.043767
0.043711
0.0436381
0.043545
0.0434307
0.0432906
0.0431241
0.0429251
0.0426933
0.0424227
0.0421109
0.0417534
0.0413477
0.0408865
0.0403665
0.03978
0.0391404
0.0384404
0.0376802
0.0368497
0.0359433
0.0350332
0.033987
0.0329481
0.0317921
0.0306266
0.0295519
0.027568
0.042133
0.042133
0.042133
0.042133
0.042133
0.042133
0.042133
0.042133
0.042133
0.042133
0.042133
0.042133
0.042133
0.042133
0.042133
0.042133
0.042133
0.042133
0.042133
0.042133
0.042133
0.042133
0.042133
0.042133
0.0421331
0.0421351
0.0421724
0.0423838
0.042797
0.0431265
0.0432297
0.0432311
0.0431631
0.0430333
0.0429122
0.0428107
0.0427164
0.0426223
0.0425296
0.0424532
0.0424147
0.0424127
0.0424562
0.042536
0.0425751
0.0425783
0.0425698
0.0425619
0.0425615
0.0425738
0.0426004
0.0426274
0.0426491
0.0426641
0.0426778
0.0426958
0.0427187
0.0427439
0.0427701
0.0427979
0.0428281
0.042861
0.0428964
0.0429344
0.0429752
0.043019
0.0430651
0.0431128
0.0431614
0.043211
0.0432619
0.0433143
0.0433679
0.0434224
0.043477
0.0435316
0.0435859
0.0436398
0.0436934
0.0437466
0.0437991
0.0438505
0.0439004
0.0439482
0.0439935
0.0440355
0.0440737
0.0441074
0.0441354
0.0441568
0.0441708
0.0441767
0.0441734
0.0441576
0.0441291
0.0440852
0.044024
0.043944
0.0438415
0.0437157
0.0435611
0.0433772
0.0431574
0.0428996
0.0425985
0.0422498
0.0418472
0.0413885
0.0408686
0.0402897
0.0396369
0.0389166
0.0381215
0.0372556
0.0363147
0.0353363
0.0342538
0.0332144
0.03207
0.0310609
0.0291377
0.042133
0.042133
0.042133
0.042133
0.042133
0.042133
0.042133
0.042133
0.042133
0.042133
0.042133
0.042133
0.042133
0.042133
0.042133
0.042133
0.042133
0.042133
0.042133
0.042133
0.042133
0.042133
0.042133
0.042133
0.042133
0.0421337
0.0421506
0.042292
0.0426746
0.0430704
0.0432249
0.0432584
0.0432194
0.0431003
0.0429711
0.0428639
0.0427684
0.0426755
0.0425835
0.0425037
0.0424563
0.0424481
0.0424821
0.0425705
0.0426263
0.0426356
0.0426295
0.0426219
0.0426212
0.0426342
0.0426631
0.0426941
0.0427205
0.0427388
0.0427541
0.042773
0.0427975
0.0428252
0.042854
0.0428844
0.0429171
0.0429525
0.0429906
0.0430312
0.0430747
0.0431212
0.0431704
0.0432215
0.0432738
0.0433272
0.043382
0.0434385
0.0434967
0.043556
0.0436159
0.0436761
0.0437364
0.0437966
0.0438569
0.0439172
0.0439774
0.0440372
0.0440961
0.0441537
0.0442096
0.0442631
0.0443137
0.0443608
0.0444036
0.0444414
0.0444731
0.0444973
0.0445136
0.044521
0.0445188
0.0445025
0.0444723
0.0444248
0.0443583
0.0442713
0.0441594
0.0440212
0.0438503
0.043645
0.0433996
0.0431101
0.0427724
0.0423837
0.0419368
0.0414268
0.0408408
0.0401865
0.0394519
0.038644
0.0377461
0.0367691
0.035724
0.0345876
0.0333022
0.0321257
0.0299879
0.042133
0.042133
0.042133
0.042133
0.042133
0.042133
0.042133
0.042133
0.042133
0.042133
0.042133
0.042133
0.042133
0.042133
0.042133
0.042133
0.042133
0.042133
0.042133
0.042133
0.042133
0.042133
0.042133
0.042133
0.042133
0.0421332
0.04214
0.042225
0.0425493
0.0429891
0.0432135
0.0432866
0.0432622
0.0431593
0.0430255
0.0429146
0.0428195
0.0427285
0.0426377
0.0425546
0.0424989
0.0424844
0.0425089
0.0426013
0.042675
0.0426931
0.0426893
0.0426828
0.0426823
0.0426957
0.0427263
0.0427608
0.0427916
0.0428133
0.0428301
0.0428497
0.0428755
0.0429053
0.0429367
0.0429695
0.0430045
0.0430423
0.0430828
0.0431259
0.0431719
0.043221
0.0432731
0.0433274
0.0433832
0.0434402
0.0434987
0.0435591
0.0436213
0.0436851
0.0437498
0.0438152
0.0438809
0.043947
0.0440134
0.0440803
0.0441475
0.0442149
0.0442821
0.0443487
0.0444143
0.0444784
0.0445405
0.0446002
0.0446567
0.0447093
0.0447572
0.0447996
0.0448354
0.044863
0.044882
0.0448912
0.0448902
0.0448726
0.0448399
0.0447882
0.0447154
0.0446196
0.0444952
0.0443408
0.0441504
0.0439208
0.043648
0.0433261
0.0429464
0.0425023
0.0419864
0.0414046
0.0407437
0.0400092
0.0391814
0.0382772
0.0372736
0.0362164
0.0350111
0.0338496
0.0317046
0.042133
0.042133
0.042133
0.042133
0.042133
0.042133
0.042133
0.042133
0.042133
0.042133
0.042133
0.042133
0.042133
0.042133
0.042133
0.042133
0.042133
0.042133
0.042133
0.042133
0.042133
0.042133
0.042133
0.042133
0.042133
0.0421331
0.0421356
0.0421819
0.042434
0.0428883
0.0431956
0.0433036
0.0432912
0.0432113
0.0430786
0.0429659
0.0428709
0.0427805
0.0426896
0.0426036
0.0425416
0.0425211
0.0425377
0.0426295
0.0427209
0.0427507
0.0427499
0.0427451
0.0427443
0.0427575
0.0427889
0.0428263
0.0428613
0.0428867
0.0429053
0.0429255
0.0429523
0.0429841
0.0430178
0.0430528
0.0430899
0.0431299
0.0431727
0.0432183
0.0432667
0.0433183
0.0433731
0.0434304
0.0434896
0.04355
0.043612
0.043676
0.043742
0.0438099
0.0438791
0.0439492
0.0440199
0.0440914
0.0441635
0.0442364
0.04431
0.0443843
0.044459
0.0445337
0.0446081
0.0446818
0.0447542
0.0448251
0.0448938
0.0449598
0.0450222
0.0450803
0.0451334
0.0451805
0.0452208
0.0452521
0.0452739
0.0452849
0.0452848
0.0452661
0.045231
0.0451746
0.0450944
0.0449881
0.0448498
0.0446766
0.0444625
0.0442004
0.0438836
0.043507
0.0430652
0.0425571
0.0419687
0.0413002
0.0405315
0.0396734
0.0387064
0.0376384
0.0364767
0.0352849
0.0332573
0.042133
0.042133
0.042133
0.042133
0.042133
0.042133
0.042133
0.042133
0.042133
0.042133
0.042133
0.042133
0.042133
0.042133
0.042133
0.042133
0.042133
0.042133
0.042133
0.042133
0.042133
0.042133
0.042133
0.042133
0.042133
0.0421331
0.0421339
0.0421571
0.0423387
0.042777
0.0431623
0.0433103
0.0433113
0.0432583
0.043133
0.0430175
0.0429196
0.0428278
0.042737
0.0426498
0.0425844
0.0425588
0.0425696
0.0426572
0.0427646
0.0428085
0.042812
0.0428079
0.0428062
0.0428185
0.04285
0.0428898
0.042929
0.0429587
0.0429795
0.0430006
0.0430281
0.0430615
0.0430972
0.0431342
0.0431732
0.0432151
0.0432601
0.043308
0.0433588
0.0434128
0.0434701
0.0435304
0.0435926
0.0436563
0.0437215
0.0437888
0.0438582
0.0439298
0.044003
0.0440774
0.0441527
0.044229
0.0443062
0.0443845
0.044464
0.0445445
0.0446259
0.044708
0.0447903
0.0448726
0.0449545
0.0450355
0.0451153
0.0451934
0.045269
0.0453416
0.0454104
0.0454748
0.0455337
0.0455863
0.0456315
0.0456665
0.0456912
0.0457037
0.0457042
0.0456842
0.045646
0.0455836
0.045494
0.0453736
0.0452166
0.0450173
0.0447716
0.0444738
0.0441161
0.0436905
0.0431845
0.0426002
0.0419223
0.0411494
0.0402467
0.0392357
0.0380881
0.0368557
0.034839
0.042133
0.042133
0.042133
0.042133
0.042133
0.042133
0.042133
0.042133
0.042133
0.042133
0.042133
0.042133
0.042133
0.042133
0.042133
0.042133
0.042133
0.042133
0.042133
0.042133
0.042133
0.042133
0.042133
0.042133
0.042133
0.042133
0.0421333
0.0421444
0.0422675
0.0426663
0.0431097
0.0433069
0.0433324
0.0433014
0.0431854
0.043064
0.042962
0.04287
0.0427807
0.0426946
0.042628
0.0425978
0.0426043
0.042685
0.0428058
0.0428645
0.0428727
0.0428683
0.0428655
0.0428766
0.0429079
0.0429503
0.0429938
0.0430281
0.0430516
0.0430736
0.0431018
0.0431365
0.0431741
0.0432128
0.0432537
0.0432975
0.0433445
0.0433946
0.0434477
0.0435041
0.0435639
0.0436268
0.0436919
0.0437586
0.0438269
0.0438972
0.0439698
0.0440448
0.0441216
0.0441999
0.0442794
0.0443601
0.044442
0.0445253
0.04461
0.0446961
0.0447836
0.0448722
0.0449617
0.0450517
0.045142
0.0452321
0.0453217
0.0454104
0.0454978
0.0455832
0.045666
0.0457456
0.0458212
0.0458923
0.0459575
0.0460158
0.046066
0.0461049
0.0461329
0.0461475
0.0461486
0.0461268
0.0460837
0.0460125
0.0459108
0.0457733
0.045596
0.04537
0.0450868
0.044737
0.0443124
0.0438109
0.0432183
0.0425286
0.0417214
0.0408117
0.0397316
0.0385885
0.0367623
0.042133
0.042133
0.042133
0.042133
0.042133
0.042133
0.042133
0.042133
0.042133
0.042133
0.042133
0.042133
0.042133
0.042133
0.042133
0.042133
0.042133
0.042133
0.042133
0.042133
0.042133
0.042133
0.042133
0.042133
0.042133
0.042133
0.0421331
0.0421383
0.0422186
0.0425651
0.0430453
0.0432974
0.0433558
0.0433359
0.0432304
0.0431037
0.0429993
0.0429089
0.0428224
0.0427386
0.0426713
0.0426363
0.0426388
0.0427117
0.0428434
0.0429162
0.0429296
0.0429251
0.0429212
0.042931
0.0429625
0.0430075
0.0430552
0.0430941
0.0431207
0.0431439
0.0431727
0.0432088
0.043248
0.0432886
0.0433312
0.0433769
0.043426
0.0434783
0.0435337
0.0435923
0.0436544
0.0437198
0.0437876
0.0438572
0.0439282
0.0440013
0.0440768
0.0441548
0.0442349
0.0443167
0.0443999
0.0444846
0.0445706
0.0446583
0.0447477
0.0448388
0.0449317
0.0450261
0.0451219
0.0452188
0.0453164
0.0454146
0.0455129
0.0456112
0.0457089
0.0458057
0.0459009
0.0459941
0.0460847
0.0461721
0.0462553
0.0463336
0.0464054
0.0464697
0.0465253
0.0465687
0.0466001
0.0466163
0.0466175
0.0465923
0.0465436
0.046462
0.0463455
0.0461833
0.0459698
0.0456957
0.0453537
0.0449376
0.0444334
0.0438293
0.0431053
0.0422426
0.0412202
0.0400539
0.0383937
0.042133
0.042133
0.042133
0.042133
0.042133
0.042133
0.042133
0.042133
0.042133
0.042133
0.042133
0.042133
0.042133
0.042133
0.042133
0.042133
0.042133
0.042133
0.042133
0.042133
0.042133
0.042133
0.042133
0.042133
0.042133
0.042133
0.0421331
0.0421355
0.0421873
0.0424798
0.0429776
0.0432857
0.0433754
0.0433611
0.0432672
0.043138
0.0430338
0.0429462
0.0428626
0.0427807
0.0427109
0.0426707
0.0426695
0.0427367
0.0428776
0.0429635
0.0429826
0.042979
0.0429744
0.0429829
0.0430148
0.0430622
0.0431137
0.0431568
0.0431862
0.0432106
0.0432402
0.0432776
0.0433186
0.0433611
0.0434056
0.0434532
0.0435043
0.0435587
0.0436163
0.043677
0.0437413
0.0438089
0.0438793
0.0439514
0.044025
0.0441007
0.0441788
0.0442595
0.0443425
0.0444275
0.0445141
0.0446023
0.0446921
0.0447837
0.0448773
0.0449729
0.0450706
0.0451702
0.0452715
0.0453744
0.0454786
0.0455839
0.0456899
0.0457965
0.0459034
0.0460101
0.0461162
0.0462213
0.0463249
0.0464265
0.0465255
0.0466212
0.0467124
0.0467982
0.0468773
0.0469483
0.04701
0.0470581
0.047093
0.0471106
0.0471115
0.0470805
0.0470224
0.0469234
0.0467846
0.0465928
0.0463406
0.0460172
0.0456086
0.0451064
0.0444895
0.0437297
0.0428271
0.0417139
0.0402131
0.042133
0.042133
0.042133
0.042133
0.042133
0.042133
0.042133
0.042133
0.042133
0.042133
0.042133
0.042133
0.042133
0.042133
0.042133
0.042133
0.042133
0.042133
0.042133
0.042133
0.042133
0.042133
0.042133
0.042133
0.042133
0.042133
0.0421331
0.0421343
0.0421685
0.0424133
0.0429141
0.0432746
0.0433898
0.0433792
0.043297
0.043169
0.0430667
0.0429816
0.0428993
0.0428169
0.0427435
0.0426995
0.0426958
0.0427615
0.0429112
0.0430088
0.0430339
0.0430321
0.0430271
0.0430341
0.0430666
0.0431158
0.0431702
0.0432165
0.0432481
0.0432735
0.043304
0.0433428
0.0433857
0.0434301
0.0434765
0.043526
0.0435791
0.0436357
0.0436953
0.043758
0.0438244
0.0438942
0.0439668
0.0440413
0.0441173
0.0441953
0.0442758
0.044359
0.0444447
0.0445325
0.0446221
0.0447135
0.0448066
0.0449018
0.044999
0.0450986
0.0452005
0.0453046
0.0454109
0.045519
0.045629
0.0457404
0.0458531
0.045967
0.0460818
0.0461971
0.0463126
0.046428
0.0465429
0.0466569
0.0467696
0.0468804
0.0469884
0.0470929
0.0471926
0.0472868
0.0473739
0.0474523
0.0475205
0.0475734
0.0476116
0.04763
0.0476287
0.0475899
0.0475216
0.0474035
0.047235
0.0470006
0.046689
0.0462886
0.0457664
0.0450963
0.0442737
0.0432392
0.0418596
0.042133
0.042133
0.042133
0.042133
0.042133
0.042133
0.042133
0.042133
0.042133
0.042133
0.042133
0.042133
0.042133
0.042133
0.042133
0.042133
0.042133
0.042133
0.042133
0.042133
0.042133
0.042133
0.042133
0.042133
0.042133
0.042133
0.0421331
0.0421338
0.0421577
0.0423655
0.0428608
0.0432644
0.0433997
0.0433932
0.043322
0.0431974
0.0430971
0.0430131
0.0429296
0.0428449
0.0427689
0.0427232
0.0427191
0.0427884
0.0429476
0.0430543
0.0430851
0.0430855
0.0430802
0.0430857
0.0431188
0.0431694
0.0432257
0.0432736
0.0433064
0.0433325
0.0433638
0.0434041
0.043449
0.0434954
0.0435437
0.0435951
0.0436502
0.0437087
0.0437703
0.0438351
0.0439033
0.0439751
0.0440499
0.0441266
0.0442049
0.0442851
0.0443677
0.0444532
0.0445413
0.0446317
0.044724
0.0448182
0.0449143
0.0450125
0.0451131
0.0452161
0.0453217
0.0454298
0.0455403
0.0456531
0.045768
0.0458848
0.0460033
0.0461235
0.046245
0.0463678
0.0464914
0.0466157
0.0467403
0.0468649
0.0469893
0.0471129
0.0472352
0.0473556
0.0474732
0.0475873
0.0476965
0.0478001
0.047896
0.0479825
0.0480577
0.0481157
0.0481573
0.0481761
0.0481706
0.0481191
0.048028
0.0478755
0.0476574
0.0473574
0.0469414
0.0463862
0.045661
0.0447199
0.0434619
0.042133
0.042133
0.042133
0.042133
0.042133
0.042133
0.042133
0.042133
0.042133
0.042133
0.042133
0.042133
0.042133
0.042133
0.042133
0.042133
0.042133
0.042133
0.042133
0.042133
0.042133
0.042133
0.042133
0.042133
0.042133
0.042133
0.042133
0.0421336
0.042152
0.0423346
0.042822
0.0432573
0.0434065
0.0434055
0.0433431
0.0432222
0.0431234
0.0430385
0.0429521
0.0428652
0.0427885
0.0427436
0.0427411
0.0428189
0.0429883
0.0431008
0.0431358
0.0431381
0.0431325
0.0431372
0.0431711
0.0432227
0.04328
0.0433283
0.0433612
0.0433876
0.0434198
0.0434618
0.0435087
0.0435569
0.0436071
0.0436604
0.0437174
0.0437778
0.0438414
0.043908
0.0439782
0.0440519
0.0441287
0.0442075
0.0442879
0.0443701
0.0444549
0.0445424
0.0446327
0.0447254
0.0448202
0.0449168
0.0450156
0.0451166
0.04522
0.0453261
0.045435
0.0455465
0.0456607
0.0457775
0.0458967
0.0460181
0.0461416
0.0462672
0.0463945
0.0465236
0.0466541
0.0467859
0.0469187
0.0470524
0.0471866
0.0473211
0.0474556
0.0475894
0.047722
0.0478528
0.0479809
0.0481058
0.0482255
0.0483395
0.0484452
0.0485409
0.0486234
0.0486867
0.0487309
0.0487477
0.0487325
0.0486659
0.0485506
0.0483635
0.0480736
0.047649
0.0470215
0.0461772
0.0450057
0.042133
0.042133
0.042133
0.042133
0.042133
0.042133
0.042133
0.042133
0.042133
0.042133
0.042133
0.042133
0.042133
0.042133
0.042133
0.042133
0.042133
0.042133
0.042133
0.042133
0.042133
0.042133
0.042133
0.042133
0.042133
0.042133
0.042133
0.0421335
0.0421497
0.0423191
0.0428013
0.0432562
0.0434134
0.0434183
0.0433598
0.0432418
0.0431438
0.0430569
0.0429682
0.0428799
0.0428038
0.0427617
0.0427624
0.0428536
0.0430336
0.0431477
0.0431836
0.0431874
0.0431813
0.0431864
0.0432218
0.0432749
0.0433329
0.0433806
0.043413
0.0434393
0.0434725
0.0435163
0.0435651
0.043615
0.0436669
0.0437219
0.0437807
0.043843
0.0439084
0.0439769
0.0440489
0.0441245
0.0442032
0.044284
0.0443663
0.0444505
0.0445372
0.0446267
0.044719
0.0448138
0.0449107
0.0450096
0.0451107
0.0452141
0.0453202
0.045429
0.0455406
0.0456552
0.0457726
0.0458928
0.0460157
0.0461411
0.0462689
0.0463991
0.0465314