/*--------------------------------*- C++ -*----------------------------------*\
| =========                 |                                                 |
| \\      /  F ield         | OpenFOAM: The Open Source CFD Toolbox           |
|  \\    /   O peration     | Version:  2406                                  |
|   \\  /    A nd           | Website:  www.openfoam.com                      |
|    \\/     M anipulation  |                                                 |
\*---------------------------------------------------------------------------*/
FoamFile
{
    version     2.0;
    format      ascii;
    arch        "LSB;label=32;scalar=64";
    class       volVectorField;
    location    "0.018";
    object      U;
}
// * * * * * * * * * * * * * * * * * * * * * * * * * * * * * * * * * * * * * //

dimensions      [0 1 -1 0 0 0 0];

internalField   nonuniform List<vector> 
78650
(
(210 -4.51319e-12 0)
(210 4.98803e-11 0)
(210 6.73392e-09 0)
(210 8.30392e-07 0)
(210 8.58726e-05 0)
(209.984 0.00512167 0)
(209.741 0.101897 0)
(208.569 0.661966 0)
(206.519 1.73941 0)
(205.129 2.58467 0)
(204.513 3.01745 0)
(204.612 3.14039 0)
(205.207 2.94089 0)
(206.208 2.52761 0)
(207.185 2.17798 0)
(208.105 2.06834 0)
(208.903 1.9723 0)
(209.686 1.92911 0)
(210.478 1.88052 0)
(211.268 1.83257 0)
(212.003 1.8108 0)
(212.568 1.9611 0)
(212.851 2.31374 0)
(212.993 2.79144 0)
(213.089 3.34917 0)
(213.204 3.95196 0)
(213.406 4.52064 0)
(213.761 5.0298 0)
(214.178 5.53919 0)
(214.552 6.0965 0)
(214.876 6.69945 0)
(215.162 7.33294 0)
(215.418 7.99442 0)
(215.65 8.68945 0)
(215.874 9.41687 0)
(216.089 10.1811 0)
(216.29 10.9862 0)
(216.477 11.8319 0)
(216.652 12.7164 0)
(216.816 13.6362 0)
(216.969 14.5875 0)
(217.112 15.5678 0)
(217.247 16.5795 0)
(217.371 17.6282 0)
(217.486 18.7175 0)
(217.593 19.8467 0)
(217.703 21.0116 0)
(217.817 22.2094 0)
(217.936 23.4413 0)
(218.058 24.7093 0)
(218.183 26.015 0)
(218.315 27.3578 0)
(218.462 28.7351 0)
(218.627 30.1454 0)
(218.815 31.5895 0)
(219.03 33.0682 0)
(219.267 34.5835 0)
(219.537 36.1363 0)
(219.845 37.7257 0)
(220.189 39.3511 0)
(220.583 41.0123 0)
(221.036 42.7084 0)
(221.543 44.4377 0)
(222.119 46.1992 0)
(222.783 47.9904 0)
(223.519 49.8092 0)
(224.352 51.6552 0)
(225.3 53.5249 0)
(226.338 55.4176 0)
(227.508 57.3279 0)
(228.807 59.2501 0)
(230.226 61.1809 0)
(231.817 63.1044 0)
(233.554 65.0137 0)
(235.448 66.9085 0)
(237.532 68.7872 0)
(239.795 70.6441 0)
(242.237 72.4702 0)
(244.907 74.2281 0)
(247.752 75.9239 0)
(250.816 77.5372 0)
(254.097 79.0523 0)
(257.566 80.4862 0)
(261.26 81.7687 0)
(265.129 82.9509 0)
(269.227 83.9485 0)
(273.506 84.7802 0)
(277.955 85.4133 0)
(282.546 85.8662 0)
(287.321 86.0857 0)
(292.182 86.1086 0)
(297.236 85.9497 0)
(301.939 85.7394 0)
(306.619 85.4513 0)
(311.088 85.0411 0)
(315.212 84.6147 0)
(319.469 83.862 0)
(323.174 83.2635 0)
(327.284 82.3273 0)
(331.037 81.5099 0)
(335.001 80.4916 0)
(338.931 79.4481 0)
(342.915 78.2817 0)
(346.892 77.026 0)
(350.792 75.6667 0)
(354.134 74.4836 0)
(357.687 73.1356 0)
(360.164 72.335 0)
(362.578 71.2932 0)
(364.308 70.7668 0)
(366.368 69.7339 0)
(368.133 69.0084 0)
(370.481 67.8866 0)
(372.172 67.0334 0)
(373.803 65.9359 0)
(374.637 65.3784 0)
(375.509 64.6134 0)
(376.667 64.5482 0)
(378.858 64.3837 0)
(381.94 64.1765 0)
(383.226 65.9487 0)
(210 -5.68217e-13 0)
(210 8.12505e-12 0)
(210 1.95436e-09 0)
(210 2.64745e-07 0)
(210 3.07087e-05 0)
(209.992 0.00236688 0)
(209.834 0.0601443 0)
(208.879 0.484734 0)
(206.858 1.49534 0)
(205.224 2.44773 0)
(204.422 2.95632 0)
(204.464 3.08466 0)
(204.892 2.97115 0)
(205.84 2.62101 0)
(206.85 2.2785 0)
(207.787 2.1611 0)
(208.574 2.0536 0)
(209.343 2.00424 0)
(210.119 1.95219 0)
(210.896 1.8989 0)
(211.629 1.86704 0)
(212.212 1.99207 0)
(212.512 2.32331 0)
(212.648 2.78852 0)
(212.727 3.33449 0)
(212.815 3.93449 0)
(212.969 4.51822 0)
(213.274 5.03415 0)
(213.659 5.53468 0)
(214.017 6.07591 0)
(214.324 6.66485 0)
(214.59 7.2849 0)
(214.824 7.93377 0)
(215.032 8.61639 0)
(215.232 9.33202 0)
(215.421 10.0858 0)
(215.596 10.8801 0)
(215.757 11.7146 0)
(215.904 12.5879 0)
(216.04 13.4961 0)
(216.163 14.4355 0)
(216.275 15.4033 0)
(216.377 16.4018 0)
(216.466 17.4359 0)
(216.543 18.5094 0)
(216.611 19.6223 0)
(216.678 20.7706 0)
(216.746 21.9513 0)
(216.817 23.1648 0)
(216.889 24.4133 0)
(216.961 25.6992 0)
(217.037 27.0224 0)
(217.122 28.3806 0)
(217.221 29.7726 0)
(217.34 31.1985 0)
(217.481 32.6589 0)
(217.639 34.1562 0)
(217.826 35.6921 0)
(218.044 37.2659 0)
(218.291 38.8774 0)
(218.581 40.5269 0)
(218.921 42.214 0)
(219.307 43.9372 0)
(219.755 45.6963 0)
(220.282 47.4899 0)
(220.871 49.316 0)
(221.548 51.1752 0)
(222.329 53.0649 0)
(223.19 54.9834 0)
(224.176 56.9267 0)
(225.28 58.8897 0)
(226.497 60.871 0)
(227.877 62.8632 0)
(229.392 64.8653 0)
(231.06 66.8738 0)
(232.912 68.8761 0)
(234.931 70.8569 0)
(237.123 72.8055 0)
(239.534 74.6972 0)
(242.107 76.5431 0)
(244.892 78.3233 0)
(247.875 80.031 0)
(251.038 81.6666 0)
(254.412 83.1806 0)
(257.933 84.6142 0)
(261.664 85.8739 0)
(265.55 87.0366 0)
(269.633 87.996 0)
(273.906 88.8276 0)
(278.327 89.4936 0)
(282.765 89.9999 0)
(287.306 90.3548 0)
(291.83 90.5442 0)
(296.298 90.5982 0)
(301.243 90.4303 0)
(305.604 90.1554 0)
(310.568 89.6398 0)
(315.079 89.042 0)
(320.013 88.2067 0)
(324.764 87.1626 0)
(329.275 85.9922 0)
(333.886 84.6435 0)
(337.955 83.3983 0)
(341.865 82.1811 0)
(345.427 81.0888 0)
(348.401 80.282 0)
(351.355 79.3034 0)
(353.77 78.5379 0)
(356.325 77.4299 0)
(358.572 76.7317 0)
(361.243 75.8034 0)
(363.625 75.3196 0)
(366.576 74.4969 0)
(368.528 73.9858 0)
(370.229 72.9852 0)
(370.971 72.1724 0)
(371.479 71.0656 0)
(372.272 70.4082 0)
(374.394 69.9531 0)
(378.077 69.6432 0)
(379.54 71.8742 0)
(210 2.24135e-12 0)
(210 1.04095e-11 0)
(210 8.59262e-10 0)
(210 1.07539e-07 0)
(210 1.15671e-05 0)
(209.996 0.00102902 0)
(209.901 0.0331674 0)
(209.17 0.337571 0)
(207.272 1.24917 0)
(205.391 2.28432 0)
(204.352 2.87145 0)
(204.336 3.02188 0)
(204.593 2.9813 0)
(205.462 2.71154 0)
(206.493 2.36844 0)
(207.443 2.22974 0)
(208.221 2.10396 0)
(208.978 2.04621 0)
(209.74 1.98792 0)
(210.502 1.9259 0)
(211.233 1.88472 0)
(211.84 1.98816 0)
(212.167 2.30513 0)
(212.301 2.76675 0)
(212.365 3.30652 0)
(212.419 3.91149 0)
(212.533 4.50803 0)
(212.787 5.02806 0)
(213.135 5.52045 0)
(213.476 6.04578 0)
(213.765 6.6199 0)
(214.011 7.22633 0)
(214.221 7.86359 0)
(214.407 8.53543 0)
(214.585 9.24156 0)
(214.747 9.98693 0)
(214.895 10.7725 0)
(215.03 11.5983 0)
(215.149 12.4629 0)
(215.256 13.362 0)
(215.349 14.2916 0)
(215.429 15.2492 0)
(215.496 16.2367 0)
(215.55 17.2587 0)
(215.59 18.3192 0)
(215.618 19.418 0)
(215.641 20.5522 0)
(215.663 21.7184 0)
(215.686 22.9163 0)
(215.707 24.1486 0)
(215.726 25.4179 0)
(215.745 26.7246 0)
(215.77 28.0671 0)
(215.803 29.4438 0)
(215.854 30.8544 0)
(215.922 32.2997 0)
(216.003 33.7815 0)
(216.109 35.3023 0)
(216.239 36.8619 0)
(216.393 38.4596 0)
(216.584 40.0963 0)
(216.818 41.7717 0)
(217.09 43.4841 0)
(217.419 45.2342 0)
(217.816 47.0206 0)
(218.265 48.8414 0)
(218.797 50.6972 0)
(219.421 52.5857 0)
(220.115 54.5059 0)
(220.925 56.4567 0)
(221.836 58.4347 0)
(222.848 60.4386 0)
(224.01 62.4609 0)
(225.289 64.4974 0)
(226.709 66.5422 0)
(228.298 68.5855 0)
(230.036 70.6206 0)
(231.941 72.644 0)
(234.052 74.6417 0)
(236.315 76.6223 0)
(238.793 78.5639 0)
(241.465 80.458 0)
(244.332 82.2895 0)
(247.414 84.036 0)
(250.68 85.7185 0)
(254.185 87.2558 0)
(257.821 88.7398 0)
(261.712 90.0409 0)
(265.769 91.2366 0)
(269.99 92.2172 0)
(274.431 93.0661 0)
(278.819 93.6815 0)
(283.77 94.2084 0)
(288.242 94.3747 0)
(293.469 94.4249 0)
(298.076 94.213 0)
(303.062 93.9031 0)
(308.045 93.3731 0)
(312.531 92.8783 0)
(317.452 92.1328 0)
(321.389 91.6606 0)
(325.705 90.9243 0)
(329.481 90.2426 0)
(333.19 89.3302 0)
(336.727 88.3229 0)
(340.03 87.4213 0)
(343.495 86.3992 0)
(346.605 85.6451 0)
(350.389 84.4939 0)
(353.328 83.6361 0)
(356.683 82.5191 0)
(359.107 81.9214 0)
(361.56 81.0604 0)
(363.41 80.42 0)
(365.167 79.4156 0)
(366.514 78.6792 0)
(368.107 77.783 0)
(369.911 77.1175 0)
(372.459 76.4451 0)
(376.131 75.9623 0)
(377.655 77.7596 0)
(210 2.1431e-12 0)
(210 7.87353e-12 0)
(210 2.14137e-10 0)
(210 2.90062e-08 0)
(210 3.52867e-06 0)
(209.998 0.000386195 0)
(209.945 0.0164869 0)
(209.42 0.217804 0)
(207.705 0.992267 0)
(205.613 2.07928 0)
(204.316 2.7622 0)
(204.22 2.95298 0)
(204.318 2.98936 0)
(205.083 2.80781 0)
(206.124 2.46686 0)
(207.088 2.30536 0)
(207.859 2.16246 0)
(208.608 2.09782 0)
(209.357 2.03772 0)
(210.106 1.97667 0)
(210.835 1.93785 0)
(211.461 2.02591 0)
(211.816 2.32317 0)
(211.949 2.76865 0)
(212 3.28615 0)
(212.013 3.88996 0)
(212.091 4.48534 0)
(212.294 5.00622 0)
(212.601 5.49709 0)
(212.922 6.00822 0)
(213.192 6.56584 0)
(213.417 7.1579 0)
(213.604 7.7834 0)
(213.77 8.44367 0)
(213.924 9.1391 0)
(214.06 9.87387 0)
(214.184 10.648 0)
(214.293 11.4623 0)
(214.386 12.3148 0)
(214.465 13.2011 0)
(214.529 14.1173 0)
(214.579 15.0614 0)
(214.613 16.0343 0)
(214.633 17.04 0)
(214.636 18.0836 0)
(214.627 19.1634 0)
(214.609 20.2793 0)
(214.587 21.4263 0)
(214.564 22.6036 0)
(214.537 23.8146 0)
(214.506 25.0616 0)
(214.472 26.3458 0)
(214.439 27.6662 0)
(214.411 29.0209 0)
(214.397 30.4098 0)
(214.395 31.8336 0)
(214.403 33.2932 0)
(214.431 34.7923 0)
(214.477 36.3307 0)
(214.54 37.9083 0)
(214.634 39.5263 0)
(214.764 41.1847 0)
(214.924 42.8822 0)
(215.133 44.6203 0)
(215.401 46.398 0)
(215.712 48.2133 0)
(216.098 50.0682 0)
(216.564 51.9613 0)
(217.09 53.8925 0)
(217.723 55.8614 0)
(218.442 57.8637 0)
(219.257 59.8975 0)
(220.213 61.958 0)
(221.273 64.0428 0)
(222.47 66.1498 0)
(223.826 68.2728 0)
(225.318 70.4069 0)
(226.974 72.5479 0)
(228.827 74.681 0)
(230.823 76.8062 0)
(233.036 78.8987 0)
(235.435 80.9518 0)
(238.031 82.9504 0)
(240.829 84.8853 0)
(243.821 86.7559 0)
(247.036 88.5201 0)
(250.397 90.2331 0)
(254.018 91.7483 0)
(257.744 93.2033 0)
(261.735 94.4527 0)
(265.915 95.6189 0)
(270.225 96.5531 0)
(274.77 97.3891 0)
(279.249 97.9456 0)
(283.825 98.4044 0)
(288.663 98.7191 0)
(293.067 98.938 0)
(298.094 98.9228 0)
(302.414 98.792 0)
(307.104 98.4568 0)
(311.563 98.1045 0)
(315.808 97.7076 0)
(320.413 97.0532 0)
(324.457 96.3525 0)
(329.007 95.3329 0)
(333.077 94.3933 0)
(337.327 93.3212 0)
(340.961 92.463 0)
(344.566 91.4212 0)
(347.469 90.6478 0)
(350.494 89.6045 0)
(353.011 89.013 0)
(356.032 88.0532 0)
(358.455 87.3274 0)
(360.897 86.1878 0)
(362.453 85.3065 0)
(363.674 84.3383 0)
(364.964 83.9689 0)
(367.291 83.4736 0)
(371.14 82.8523 0)
(372.605 85.0092 0)
(210 -9.00551e-13 0)
(210 5.96115e-13 0)
(210 5.7162e-11 0)
(210 8.32175e-09 0)
(210 1.02647e-06 0)
(209.999 0.00012796 0)
(209.972 0.00735845 0)
(209.625 0.129322 0)
(208.17 0.746496 0)
(205.959 1.83297 0)
(204.35 2.6054 0)
(204.115 2.87458 0)
(204.069 2.99482 0)
(204.698 2.89027 0)
(205.724 2.55074 0)
(206.702 2.35798 0)
(207.473 2.19759 0)
(208.216 2.12219 0)
(208.952 2.05251 0)
(209.686 1.98925 0)
(210.412 1.95823 0)
(211.059 2.03635 0)
(211.451 2.31694 0)
(211.592 2.74868 0)
(211.636 3.24424 0)
(211.591 3.85666 0)
(211.636 4.4394 0)
(211.792 4.97241 0)
(212.055 5.46344 0)
(212.352 5.95688 0)
(212.603 6.49582 0)
(212.806 7.07409 0)
(212.971 7.68859 0)
(213.117 8.33779 0)
(213.246 9.0236 0)
(213.356 9.74912 0)
(213.455 10.514 0)
(213.537 11.3194 0)
(213.603 12.1624 0)
(213.655 13.0381 0)
(213.688 13.9428 0)
(213.705 14.8752 0)
(213.706 15.8357 0)
(213.691 16.8272 0)
(213.656 17.855 0)
(213.609 18.9162 0)
(213.547 20.0161 0)
(213.481 21.1454 0)
(213.412 22.3045 0)
(213.336 23.4964 0)
(213.254 24.7231 0)
(213.166 25.9874 0)
(213.075 27.2885 0)
(212.986 28.6236 0)
(212.907 29.9924 0)
(212.834 31.398 0)
(212.77 32.8376 0)
(212.722 34.317 0)
(212.684 35.8364 0)
(212.661 37.3945 0)
(212.663 38.9937 0)
(212.692 40.6336 0)
(212.747 42.3129 0)
(212.844 44.0339 0)
(212.991 45.7954 0)
(213.173 47.5954 0)
(213.425 49.437 0)
(213.743 51.3182 0)
(214.113 53.2385 0)
(214.582 55.1985 0)
(215.122 57.1943 0)
(215.75 59.227 0)
(216.505 61.295 0)
(217.345 63.396 0)
(218.311 65.5281 0)
(219.415 67.6849 0)
(220.638 69.861 0)
(222.019 72.0525 0)
(223.577 74.247 0)
(225.269 76.4425 0)
(227.169 78.6232 0)
(229.243 80.7881 0)
(231.508 82.9274 0)
(233.973 85.0355 0)
(236.643 87.0978 0)
(239.517 89.0945 0)
(242.572 91.0451 0)
(245.903 92.861 0)
(249.339 94.6519 0)
(253.064 96.2322 0)
(256.888 97.7721 0)
(260.947 99.1073 0)
(265.126 100.262 0)
(269.567 101.289 0)
(274.007 102.098 0)
(278.789 102.831 0)
(283.455 103.295 0)
(288.211 103.567 0)
(293.241 103.617 0)
(297.766 103.595 0)
(303.074 103.408 0)
(307.455 103.141 0)
(312.666 102.575 0)
(316.974 102.007 0)
(321.801 101.138 0)
(326.047 100.325 0)
(330.335 99.3524 0)
(334.069 98.5686 0)
(337.884 97.6132 0)
(341.129 96.8689 0)
(344.732 95.8118 0)
(347.742 95.0652 0)
(351.063 94.1094 0)
(353.599 93.5654 0)
(356.163 92.6377 0)
(357.86 91.8314 0)
(359.225 90.788 0)
(360.609 90.4522 0)
(363.315 90.0755 0)
(367.766 89.7778 0)
(369.315 92.8198 0)
(210 -6.63684e-12 0)
(210 1.0184e-12 0)
(210 1.29745e-11 0)
(210 1.46822e-09 0)
(210 2.22409e-07 0)
(210 3.43658e-05 0)
(209.988 0.00284897 0)
(209.778 0.068872 0)
(208.624 0.520344 0)
(206.392 1.54378 0)
(204.457 2.41702 0)
(204.014 2.7928 0)
(203.843 2.97975 0)
(204.31 2.94242 0)
(205.301 2.62936 0)
(206.294 2.41569 0)
(207.07 2.23256 0)
(207.811 2.1513 0)
(208.538 2.08766 0)
(209.261 2.03666 0)
(209.984 2.01824 0)
(210.646 2.08552 0)
(211.075 2.33959 0)
(211.224 2.74545 0)
(211.264 3.2073 0)
(211.162 3.81414 0)
(211.163 4.38589 0)
(211.278 4.92419 0)
(211.493 5.41354 0)
(211.764 5.89136 0)
(211.996 6.41565 0)
(212.175 6.98319 0)
(212.32 7.58681 0)
(212.446 8.22415 0)
(212.548 8.8994 0)
(212.634 9.61406 0)
(212.708 10.3678 0)
(212.766 11.161 0)
(212.807 11.99 0)
(212.831 12.8508 0)
(212.835 13.7397 0)
(212.82 14.656 0)
(212.787 15.5998 0)
(212.74 16.571 0)
(212.673 17.5784 0)
(212.585 18.6226 0)
(212.484 19.6997 0)
(212.376 20.8068 0)
(212.262 21.9429 0)
(212.142 23.1098 0)
(212.012 24.3117 0)
(211.872 25.5505 0)
(211.727 26.8259 0)
(211.582 28.1355 0)
(211.442 29.4783 0)
(211.299 30.8625 0)
(211.168 32.2742 0)
(211.046 33.7261 0)
(210.929 35.2195 0)
(210.823 36.7516 0)
(210.736 38.3258 0)
(210.668 39.9417 0)
(210.62 41.5981 0)
(210.608 43.2979 0)
(210.634 45.0403 0)
(210.688 46.8234 0)
(210.805 48.6517 0)
(210.974 50.5227 0)
(211.189 52.4366 0)
(211.493 54.3963 0)
(211.852 56.398 0)
(212.294 58.4442 0)
(212.849 60.5329 0)
(213.473 62.6588 0)
(214.22 64.8209 0)
(215.092 67.0139 0)
(216.074 69.2348 0)
(217.211 71.4822 0)
(218.507 73.7474 0)
(219.927 76.0298 0)
(221.546 78.319 0)
(223.32 80.6123 0)
(225.277 82.8966 0)
(227.427 85.1636 0)
(229.779 87.3955 0)
(232.32 89.583 0)
(235.065 91.7224 0)
(238.054 93.7716 0)
(241.176 95.7928 0)
(244.62 97.6357 0)
(248.153 99.4511 0)
(251.983 101.049 0)
(255.974 102.606 0)
(260.189 103.934 0)
(264.625 105.132 0)
(269.067 106.099 0)
(273.866 107.01 0)
(278.374 107.583 0)
(283.593 108.102 0)
(288.09 108.367 0)
(293.333 108.504 0)
(297.814 108.512 0)
(302.735 108.367 0)
(307.214 108.204 0)
(311.71 107.89 0)
(316.096 107.412 0)
(320.268 106.831 0)
(324.456 106.151 0)
(328.488 105.444 0)
(332.335 104.721 0)
(336.241 103.829 0)
(339.709 103.041 0)
(343.407 102.164 0)
(346.45 101.612 0)
(349.842 100.761 0)
(352.118 99.8917 0)
(354.147 98.5657 0)
(356.003 97.5775 0)
(358.764 96.8089 0)
(363.144 96.2949 0)
(364.718 98.5454 0)
(210 -1.26622e-11 0)
(210 -1.98223e-12 0)
(210 -4.75929e-12 0)
(210 2.41521e-10 0)
(210 4.01062e-08 0)
(210 7.0908e-06 0)
(209.995 0.000935467 0)
(209.882 0.0323802 0)
(209.041 0.33211 0)
(206.93 1.23111 0)
(204.733 2.20177 0)
(203.946 2.71613 0)
(203.636 2.909 0)
(203.94 2.956 0)
(204.864 2.70769 0)
(205.857 2.45908 0)
(206.641 2.23627 0)
(207.387 2.1442 0)
(208.107 2.0933 0)
(208.82 2.06333 0)
(209.536 2.06027 0)
(210.21 2.11767 0)
(210.679 2.34113 0)
(210.846 2.71806 0)
(210.887 3.14453 0)
(210.733 3.74207 0)
(210.675 4.31473 0)
(210.752 4.85097 0)
(210.914 5.3383 0)
(211.159 5.80675 0)
(211.372 6.31802 0)
(211.529 6.87287 0)
(211.654 7.46285 0)
(211.758 8.0878 0)
(211.834 8.75371 0)
(211.895 9.46003 0)
(211.945 10.2057 0)
(211.976 10.9895 0)
(211.991 11.8063 0)
(211.985 12.6531 0)
(211.958 13.5273 0)
(211.911 14.4284 0)
(211.845 15.3561 0)
(211.761 16.3134 0)
(211.657 17.3025 0)
(211.533 18.3258 0)
(211.392 19.3822 0)
(211.24 20.4681 0)
(211.081 21.5821 0)
(210.914 22.7263 0)
(210.735 23.9046 0)
(210.544 25.1196 0)
(210.344 26.3715 0)
(210.139 27.659 0)
(209.934 28.9815 0)
(209.731 30.3359 0)
(209.531 31.7263 0)
(209.335 33.1542 0)
(209.139 34.625 0)
(208.952 36.1318 0)
(208.778 37.6795 0)
(208.617 39.27 0)
(208.471 40.9011 0)
(208.356 42.5763 0)
(208.268 44.2946 0)
(208.204 46.0535 0)
(208.196 47.8588 0)
(208.228 49.7065 0)
(208.301 51.5981 0)
(208.452 53.537 0)
(208.643 55.5182 0)
(208.914 57.5463 0)
(209.28 59.6189 0)
(209.703 61.7314 0)
(210.242 63.888 0)
(210.885 66.0859 0)
(211.621 68.3252 0)
(212.502 70.606 0)
(213.514 72.9196 0)
(214.637 75.2626 0)
(215.949 77.6269 0)
(217.401 80.0063 0)
(219.032 82.3905 0)
(220.855 84.7726 0)
(222.873 87.1382 0)
(225.075 89.485 0)
(227.497 91.8025 0)
(230.137 94.0676 0)
(232.936 96.295 0)
(236.023 98.4025 0)
(239.208 100.5 0)
(242.722 102.411 0)
(246.293 104.3 0)
(250.161 105.967 0)
(254.159 107.565 0)
(258.338 108.942 0)
(262.758 110.334 0)
(267.142 111.358 0)
(271.931 112.33 0)
(276.582 113.042 0)
(281.393 113.583 0)
(286.337 113.964 0)
(290.859 114.24 0)
(295.996 114.375 0)
(300.234 114.449 0)
(305.289 114.245 0)
(309.563 113.992 0)
(314.332 113.442 0)
(318.571 112.908 0)
(322.851 112.209 0)
(326.713 111.584 0)
(330.692 110.805 0)
(334.283 110.122 0)
(337.845 109.457 0)
(341.117 108.658 0)
(343.561 107.93 0)
(345.817 106.764 0)
(347.805 105.701 0)
(350.611 104.953 0)
(356.021 104.106 0)
(357.743 107.339 0)
(210 -1.18947e-11 0)
(210 -3.3288e-12 0)
(210 -7.77425e-12 0)
(210 -1.56336e-11 0)
(210 2.48577e-09 0)
(210 1.07547e-06 0)
(209.998 0.000245933 0)
(209.944 0.013063 0)
(209.39 0.18948 0)
(207.534 0.917177 0)
(205.094 1.93026 0)
(203.91 2.5967 0)
(203.428 2.80512 0)
(203.617 2.95728 0)
(204.419 2.77338 0)
(205.391 2.48874 0)
(206.193 2.23552 0)
(206.952 2.16001 0)
(207.674 2.13379 0)
(208.376 2.11912 0)
(209.081 2.12203 0)
(209.757 2.16801 0)
(210.263 2.35438 0)
(210.452 2.69478 0)
(210.498 3.08067 0)
(210.306 3.65388 0)
(210.169 4.23191 0)
(210.208 4.75097 0)
(210.323 5.24984 0)
(210.537 5.71749 0)
(210.73 6.21776 0)
(210.863 6.76155 0)
(210.97 7.34004 0)
(211.05 7.95481 0)
(211.099 8.61048 0)
(211.139 9.30487 0)
(211.165 10.0374 0)
(211.172 10.8041 0)
(211.163 11.6002 0)
(211.125 12.4308 0)
(211.069 13.2871 0)
(210.992 14.1694 0)
(210.894 15.0781 0)
(210.776 16.0143 0)
(210.638 16.9809 0)
(210.479 17.98 0)
(210.299 19.0115 0)
(210.106 20.0723 0)
(209.905 21.1606 0)
(209.694 22.278 0)
(209.47 23.4282 0)
(209.23 24.6145 0)
(208.978 25.8377 0)
(208.718 27.0963 0)
(208.455 28.389 0)
(208.19 29.7156 0)
(207.924 31.077 0)
(207.658 32.4756 0)
(207.393 33.9115 0)
(207.13 35.3874 0)
(206.874 36.9038 0)
(206.621 38.4653 0)
(206.381 40.0665 0)
(206.165 41.7098 0)
(205.965 43.3995 0)
(205.786 45.1304 0)
(205.654 46.911 0)
(205.546 48.736 0)
(205.479 50.6072 0)
(205.475 52.5292 0)
(205.499 54.4961 0)
(205.6 56.5155 0)
(205.777 58.5844 0)
(206.001 60.6991 0)
(206.334 62.8662 0)
(206.749 65.0804 0)
(207.25 67.3409 0)
(207.885 69.6461 0)
(208.633 71.9856 0)
(209.489 74.3569 0)
(210.525 76.7578 0)
(211.682 79.1844 0)
(213.009 81.6333 0)
(214.511 84.1007 0)
(216.185 86.5751 0)
(218.028 89.0543 0)
(220.086 91.525 0)
(222.336 93.9742 0)
(224.768 96.4021 0)
(227.47 98.7704 0)
(230.312 101.126 0)
(233.49 103.349 0)
(236.766 105.558 0)
(240.403 107.555 0)
(244.119 109.563 0)
(248.137 111.327 0)
(252.282 113.009 0)
(256.682 114.507 0)
(261.131 115.77 0)
(265.943 116.938 0)
(270.57 117.753 0)
(275.719 118.548 0)
(280.345 119.086 0)
(285.641 119.571 0)
(290.383 119.8 0)
(295.543 119.927 0)
(300.374 119.881 0)
(305.317 119.648 0)
(310.079 119.261 0)
(314.76 118.705 0)
(319.008 118.168 0)
(323.434 117.431 0)
(327.31 116.799 0)
(331.492 116.022 0)
(335.206 115.224 0)
(338.035 114.521 0)
(340.464 113.561 0)
(342.427 112.732 0)
(345.34 112.254 0)
(350.935 112.008 0)
(352.519 116.273 0)
(210 -6.79849e-12 0)
(210 5.52126e-12 0)
(210 -3.48412e-12 0)
(210 -1.81979e-11 0)
(210 -1.22164e-09 0)
(210 3.44498e-08 0)
(209.999 4.627e-05 0)
(209.977 0.00438622 0)
(209.652 0.0948157 0)
(208.153 0.624937 0)
(205.627 1.6239 0)
(203.996 2.41581 0)
(203.266 2.69872 0)
(203.345 2.91952 0)
(203.964 2.78829 0)
(204.896 2.48977 0)
(205.73 2.2282 0)
(206.512 2.18018 0)
(207.233 2.16812 0)
(207.918 2.15543 0)
(208.606 2.15717 0)
(209.281 2.19532 0)
(209.823 2.34456 0)
(210.048 2.64841 0)
(210.101 2.99766 0)
(209.891 3.53299 0)
(209.669 4.1131 0)
(209.655 4.62142 0)
(209.734 5.127 0)
(209.911 5.59369 0)
(210.083 6.08049 0)
(210.194 6.61342 0)
(210.285 7.18286 0)
(210.337 7.79099 0)
(210.361 8.43987 0)
(210.376 9.12581 0)
(210.376 9.84541 0)
(210.359 10.5946 0)
(210.315 11.3799 0)
(210.25 12.1912 0)
(210.164 13.0294 0)
(210.056 13.8938 0)
(209.924 14.7846 0)
(209.771 15.7021 0)
(209.597 16.6477 0)
(209.401 17.6234 0)
(209.183 18.63 0)
(208.949 19.6657 0)
(208.704 20.7288 0)
(208.447 21.8203 0)
(208.176 22.944 0)
(207.888 24.1034 0)
(207.583 25.2996 0)
(207.267 26.5316 0)
(206.943 27.7975 0)
(206.616 29.0965 0)
(206.286 30.4293 0)
(205.953 31.7979 0)
(205.615 33.2048 0)
(205.276 34.6511 0)
(204.937 36.1383 0)
(204.602 37.6655 0)
(204.275 39.2334 0)
(203.964 40.8443 0)
(203.653 42.5065 0)
(203.369 44.2028 0)
(203.119 45.9483 0)
(202.883 47.7405 0)
(202.689 49.5779 0)
(202.541 51.4672 0)
(202.415 53.4006 0)
(202.361 55.3891 0)
(202.362 57.4272 0)
(202.403 59.513 0)
(202.544 61.6546 0)
(202.744 63.8446 0)
(203.024 66.0857 0)
(203.425 68.3794 0)
(203.914 70.7183 0)
(204.505 73.1061 0)
(205.255 75.5447 0)
(206.102 78.0281 0)
(207.108 80.5549 0)
(208.272 83.1165 0)
(209.594 85.7 0)
(211.083 88.3014 0)
(212.79 90.9064 0)
(214.673 93.5056 0)
(216.754 96.0954 0)
(219.078 98.6544 0)
(221.56 101.191 0)
(224.334 103.636 0)
(227.22 106.067 0)
(230.454 108.362 0)
(233.747 110.658 0)
(237.397 112.737 0)
(241.13 114.788 0)
(245.116 116.638 0)
(249.285 118.46 0)
(253.658 120.009 0)
(258.258 121.407 0)
(262.893 122.61 0)
(267.784 123.704 0)
(272.513 124.512 0)
(277.642 125.224 0)
(282.133 125.784 0)
(287.336 126.252 0)
(291.693 126.567 0)
(296.663 126.634 0)
(301.052 126.585 0)
(305.445 126.397 0)
(309.886 126.032 0)
(314.018 125.721 0)
(318.862 125.213 0)
(323.003 124.763 0)
(326.728 124.271 0)
(330.088 123.577 0)
(332.711 123.074 0)
(336.118 122.443 0)
(341.586 121.925 0)
(343.239 125.315 0)
(210 -4.21659e-12 0)
(210 2.88964e-12 0)
(210 3.3029e-13 0)
(210 -7.76559e-12 0)
(210 -7.4106e-10 0)
(210 -5.67611e-08 0)
(210 3.23185e-06 0)
(209.992 0.00115984 0)
(209.824 0.040425 0)
(208.733 0.382182 0)
(206.283 1.27761 0)
(204.193 2.18804 0)
(203.134 2.62185 0)
(203.125 2.81047 0)
(203.526 2.75084 0)
(204.384 2.50229 0)
(205.261 2.25694 0)
(206.07 2.22308 0)
(206.785 2.20531 0)
(207.449 2.18387 0)
(208.118 2.18379 0)
(208.789 2.21708 0)
(209.36 2.33116 0)
(209.63 2.5949 0)
(209.686 2.91624 0)
(209.475 3.40047 0)
(209.167 3.98363 0)
(209.08 4.49991 0)
(209.131 5.0116 0)
(209.267 5.48199 0)
(209.415 5.96174 0)
(209.512 6.48537 0)
(209.585 7.04358 0)
(209.608 7.63986 0)
(209.611 8.2733 0)
(209.604 8.94012 0)
(209.579 9.64078 0)
(209.531 10.3746 0)
(209.461 11.1367 0)
(209.369 11.9276 0)
(209.254 12.7453 0)
(209.115 13.5888 0)
(208.951 14.4578 0)
(208.765 15.352 0)
(208.557 16.2724 0)
(208.327 17.2208 0)
(208.073 18.1989 0)
(207.799 19.2061 0)
(207.512 20.2407 0)
(207.213 21.303 0)
(206.899 22.3964 0)
(206.565 23.5244 0)
(206.212 24.6887 0)
(205.843 25.8886 0)
(205.465 27.1222 0)
(205.08 28.3883 0)
(204.689 29.6875 0)
(204.292 31.0214 0)
(203.889 32.3921 0)
(203.479 33.8014 0)
(203.065 35.2507 0)
(202.65 36.741 0)
(202.236 38.2735 0)
(201.827 39.8495 0)
(201.426 41.4668 0)
(201.04 43.1283 0)
(200.673 44.8368 0)
(200.305 46.5998 0)
(199.987 48.3998 0)
(199.693 50.2561 0)
(199.418 52.1583 0)
(199.208 54.1201 0)
(199.033 56.1331 0)
(198.895 58.1967 0)
(198.845 60.3208 0)
(198.834 62.4951 0)
(198.902 64.7282 0)
(199.073 67.0208 0)
(199.309 69.3643 0)
(199.645 71.7638 0)
(200.118 74.2175 0)
(200.671 76.7143 0)
(201.379 79.2566 0)
(202.226 81.8363 0)
(203.211 84.447 0)
(204.358 87.0913 0)
(205.703 89.7612 0)
(207.197 92.4523 0)
(208.889 95.1628 0)
(210.791 97.8778 0)
(212.862 100.591 0)
(215.2 103.272 0)
(217.69 105.953 0)
(220.505 108.551 0)
(223.417 111.139 0)
(226.712 113.576 0)
(230.073 116.031 0)
(233.793 118.281 0)
(237.61 120.468 0)
(241.71 122.446 0)
(245.978 124.362 0)
(250.411 126.019 0)
(255.129 127.64 0)
(259.74 128.827 0)
(264.88 130.05 0)
(269.473 130.918 0)
(274.768 131.84 0)
(279.299 132.501 0)
(284.583 133.031 0)
(289.158 133.384 0)
(294.18 133.531 0)
(298.893 133.494 0)
(303.31 133.418 0)
(308.448 133.138 0)
(312.653 132.857 0)
(316.72 132.289 0)
(319.87 131.526 0)
(322.244 130.962 0)
(325.58 130.604 0)
(331.93 130.373 0)
(333.4 135.161 0)
(210 3.41548e-12 0)
(210 7.94789e-12 0)
(210 -3.24067e-12 0)
(210 -8.98987e-12 0)
(210 -2.49602e-10 0)
(210 -2.60763e-08 0)
(210 -1.1775e-06 0)
(209.997 0.000210385 0)
(209.923 0.0142208 0)
(209.218 0.204827 0)
(207.037 0.929562 0)
(204.562 1.91361 0)
(203.096 2.46923 0)
(202.968 2.66004 0)
(203.127 2.68657 0)
(203.863 2.53304 0)
(204.775 2.29124 0)
(205.614 2.24091 0)
(206.32 2.2056 0)
(206.966 2.18199 0)
(207.619 2.18796 0)
(208.285 2.21919 0)
(208.879 2.29593 0)
(209.205 2.5134 0)
(209.268 2.80267 0)
(209.087 3.22655 0)
(208.703 3.80513 0)
(208.517 4.34117 0)
(208.544 4.84984 0)
(208.635 5.33366 0)
(208.756 5.81044 0)
(208.842 6.32644 0)
(208.89 6.87565 0)
(208.883 7.46096 0)
(208.869 8.07649 0)
(208.832 8.73115 0)
(208.776 9.41606 0)
(208.7 10.1301 0)
(208.603 10.873 0)
(208.482 11.6438 0)
(208.336 12.4409 0)
(208.166 13.2633 0)
(207.969 14.1103 0)
(207.749 14.9814 0)
(207.506 15.8767 0)
(207.241 16.798 0)
(206.95 17.7477 0)
(206.637 18.7265 0)
(206.308 19.7331 0)
(205.965 20.7673 0)
(205.606 21.8316 0)
(205.226 22.9297 0)
(204.823 24.0636 0)
(204.403 25.2327 0)
(203.968 26.4353 0)
(203.525 27.6697 0)
(203.074 28.9362 0)
(202.615 30.2362 0)
(202.146 31.572 0)
(201.666 32.9455 0)
(201.179 34.3582 0)
(200.685 35.8108 0)
(200.189 37.3044 0)
(199.691 38.8401 0)
(199.197 40.4194 0)
(198.709 42.0431 0)
(198.23 43.7121 0)
(197.765 45.4227 0)
(197.326 47.1827 0)
(196.892 49.0002 0)
(196.487 50.856 0)
(196.134 52.7702 0)
(195.795 54.7376 0)
(195.501 56.7559 0)
(195.274 58.8377 0)
(195.07 60.9692 0)
(194.942 63.1651 0)
(194.895 65.4223 0)
(194.891 67.7327 0)
(194.985 70.1061 0)
(195.19 72.5395 0)
(195.46 75.025 0)
(195.877 77.574 0)
(196.407 80.1786 0)
(197.056 82.8367 0)
(197.858 85.5515 0)
(198.834 88.3127 0)
(199.941 91.1119 0)
(201.249 93.945 0)
(202.743 96.7968 0)
(204.414 99.6593 0)
(206.33 102.519 0)
(208.415 105.38 0)
(210.787 108.192 0)
(213.289 111 0)
(216.144 113.727 0)
(219.08 116.454 0)
(222.41 119.003 0)
(225.821 121.538 0)
(229.569 123.9 0)
(233.429 126.264 0)
(237.586 128.407 0)
(241.911 130.398 0)
(246.465 132.181 0)
(251.186 133.849 0)
(256.065 135.254 0)
(261.06 136.503 0)
(266.145 137.611 0)
(271.213 138.552 0)
(276.337 139.298 0)
(281.66 139.869 0)
(286.577 140.225 0)
(291.619 140.403 0)
(296.354 140.543 0)
(301.354 140.432 0)
(305.82 140.165 0)
(310.048 139.506 0)
(313.161 138.892 0)
(316.569 138.583 0)
(322.26 138.645 0)
(323.561 142.605 0)
(210 6.99503e-12 0)
(210 -1.73842e-12 0)
(210 -9.5028e-12 0)
(210 -5.75796e-12 0)
(210 -7.58944e-11 0)
(210 -8.03033e-09 0)
(210 -6.58321e-07 0)
(209.999 9.30933e-06 0)
(209.971 0.00389422 0)
(209.572 0.0937241 0)
(207.816 0.611349 0)
(205.109 1.58365 0)
(203.162 2.23133 0)
(202.833 2.52018 0)
(202.776 2.62987 0)
(203.353 2.55165 0)
(204.272 2.30724 0)
(205.142 2.23573 0)
(205.844 2.19002 0)
(206.477 2.16845 0)
(207.115 2.17732 0)
(207.774 2.20139 0)
(208.382 2.25164 0)
(208.761 2.43048 0)
(208.834 2.69709 0)
(208.694 3.06564 0)
(208.249 3.63685 0)
(207.956 4.20282 0)
(207.943 4.71601 0)
(207.995 5.20931 0)
(208.089 5.68068 0)
(208.165 6.18172 0)
(208.182 6.7146 0)
(208.156 7.27732 0)
(208.12 7.87724 0)
(208.053 8.51297 0)
(207.97 9.17698 0)
(207.867 9.86964 0)
(207.741 10.5897 0)
(207.592 11.3371 0)
(207.418 12.1104 0)
(207.218 12.9084 0)
(206.99 13.7303 0)
(206.737 14.5753 0)
(206.461 15.4431 0)
(206.162 16.3351 0)
(205.837 17.2542 0)
(205.488 18.202 0)
(205.119 19.1778 0)
(204.735 20.1809 0)
(204.334 21.2129 0)
(203.911 22.2772 0)
(203.465 23.3763 0)
(202.997 24.5099 0)
(202.512 25.6765 0)
(202.015 26.8744 0)
(201.509 28.1033 0)
(200.992 29.3644 0)
(200.463 30.66 0)
(199.92 31.9921 0)
(199.365 33.3624 0)
(198.799 34.772 0)
(198.225 36.2219 0)
(197.645 37.713 0)
(197.062 39.2465 0)
(196.478 40.8236 0)
(195.898 42.4457 0)
(195.325 44.1144 0)
(194.762 45.8314 0)
(194.212 47.5945 0)
(193.681 49.4072 0)
(193.182 51.2754 0)
(192.674 53.2071 0)
(192.229 55.1794 0)
(191.821 57.2195 0)
(191.429 59.3103 0)
(191.112 61.4717 0)
(190.85 63.6943 0)
(190.62 65.9716 0)
(190.484 68.3197 0)
(190.432 70.7303 0)
(190.434 73.1995 0)
(190.574 75.7418 0)
(190.795 78.3427 0)
(191.122 81.0035 0)
(191.593 83.7267 0)
(192.208 86.5009 0)
(192.94 89.3192 0)
(193.866 92.1842 0)
(194.949 95.0854 0)
(196.202 98.023 0)
(197.674 100.992 0)
(199.317 103.982 0)
(201.211 106.97 0)
(203.26 109.98 0)
(205.628 112.956 0)
(208.102 115.923 0)
(210.957 118.786 0)
(213.887 121.673 0)
(217.195 124.444 0)
(220.593 127.184 0)
(224.334 129.694 0)
(228.214 132.135 0)
(232.321 134.409 0)
(236.615 136.634 0)
(241.187 138.694 0)
(245.763 140.333 0)
(250.755 142.044 0)
(255.25 143.421 0)
(260.408 144.918 0)
(264.986 146.035 0)
(269.978 147.013 0)
(274.924 147.7 0)
(279.426 148.35 0)
(284.898 148.899 0)
(289.426 149.138 0)
(294.145 148.911 0)
(297.715 148.383 0)
(301.386 148.125 0)
(308.225 148.181 0)
(309.366 153.337 0)
(210 3.71976e-12 0)
(210 -5.12701e-12 0)
(210 -1.08699e-13 0)
(210 -2.64973e-12 0)
(210 -1.50308e-11 0)
(210 -2.01083e-09 0)
(210 -2.15212e-07 0)
(210 -1.03988e-05 0)
(209.991 0.000709555 0)
(209.795 0.0353942 0)
(208.532 0.355847 0)
(205.836 1.21669 0)