/*--------------------------------*- C++ -*----------------------------------*\
| =========                 |                                                 |
| \\      /  F ield         | OpenFOAM: The Open Source CFD Toolbox           |
|  \\    /   O peration     | Version:  2412                                  |
|   \\  /    A nd           | Website:  www.openfoam.com                      |
|    \\/     M anipulation  |                                                 |
\*---------------------------------------------------------------------------*/
FoamFile
{
    version     2.0;
    format      ascii;
    arch        "LSB;label=32;scalar=64";
    class       volScalarField;
    location    "0.017";
    object      T;
}
// * * * * * * * * * * * * * * * * * * * * * * * * * * * * * * * * * * * * * //

dimensions      [0 0 0 1 0 0 0];

internalField   nonuniform List<scalar> 
9771
(
204.599
215.175
217.458
218.329
218.988
219.596
220.166
220.712
221.227
221.7
204.487
215.165
217.453
218.324
218.981
219.59
220.159
220.705
221.22
221.692
204.375
215.155
217.448
218.318
218.975
219.583
220.152
220.697
221.212
221.685
204.26
215.147
217.444
218.313
218.969
219.576
220.145
220.69
221.204
221.678
204.144
215.139
217.439
218.307
218.963
219.569
220.137
220.682
221.197
221.671
204.024
215.132
217.434
218.302
218.956
219.563
220.13
220.675
221.189
221.663
203.901
215.126
217.429
218.297
218.95
219.556
220.123
220.667
221.181
221.656
222.075
222.421
222.682
222.874
223.013
223.368
224.009
224.536
224.802
224.92
224.986
225.05
225.13
225.21
225.292
225.383
225.477
225.552
225.602
225.634
225.655
225.674
203.773
215.12
217.424
218.291
218.944
219.549
220.115
220.659
221.173
221.648
222.068
222.415
222.678
222.871
223.013
223.373
224.016
224.54
224.805
224.922
224.986
225.051
225.129
225.208
225.29
225.381
225.474
225.547
225.598
225.629
225.65
225.669
225.698
225.746
225.806
225.865
225.918
225.967
203.641
215.116
217.419
218.286
218.938
219.542
220.108
220.651
221.166
221.64
222.06
222.409
222.673
222.868
223.013
223.378
224.022
224.544
224.807
224.923
224.987
225.051
225.128
225.205
225.287
225.378
225.47
225.543
225.593
225.624
225.645
225.664
225.693
225.74
225.8
225.858
225.91
225.959
226.007
203.511
215.113
217.415
218.281
218.932
219.536
220.101
220.644
221.158
221.632
222.053
222.403
222.668
222.866
223.013
223.383
224.029
224.548
224.81
224.925
224.987
225.052
225.127
225.203
225.285
225.376
225.467
225.539
225.588
225.619
225.639
225.658
225.687
225.734
225.793
225.85
225.902
225.95
225.998
203.399
215.114
217.411
218.276
218.926
219.529
220.093
220.636
221.15
221.625
222.046
222.396
222.663
222.863
223.013
223.388
224.035
224.552
224.812
224.926
224.987
225.052
225.126
225.201
225.283
225.373
225.464
225.535
225.583
225.614
225.634
225.653
225.681
225.728
225.786
225.843
225.894
225.941
225.988
203.621
215.405
217.339
218.126
218.774
219.375
219.938
220.482
221.001
221.486
221.922
222.291
222.581
222.819
223.014
223.459
224.119
224.607
224.84
224.937
224.988
225.041
225.104
225.174
225.256
225.344
225.426
225.488
225.531
225.558
225.576
225.593
225.62
225.663
225.716
225.765
225.809
225.85
225.892
225.935
225.979
226.023
226.069
226.116
226.165
226.213
226.259
226.306
226.355
226.408
226.461
226.515
226.568
226.621
226.674
226.727
226.779
226.83
226.88
226.929
226.977
227.024
227.069
227.112
227.153
227.192
227.228
227.262
227.293
227.322
227.348
227.372
227.393
227.411
227.426
227.438
227.448
227.454
227.457
206.654
216.219
217.236
217.866
218.504
219.096
219.653
220.197
220.725
221.227
221.689
222.091
222.427
222.739
223.022
223.604
224.285
224.712
224.891
224.955
224.984
225.012
225.057
225.123
225.206
225.285
225.35
225.398
225.431
225.452
225.465
225.479
225.502
225.537
225.577
225.614
225.646
225.675
225.706
225.738
225.77
225.801
225.831
225.861
225.891
225.922
225.95
225.976
225.999
226.021
226.04
226.058
226.074
226.089
226.102
226.114
226.123
226.129
226.132
226.132
226.129
226.123
226.116
226.105
226.092
226.076
226.057
226.036
226.013
225.988
225.961
225.933
225.903
225.871
225.838
225.804
225.769
225.733
225.696
208.558
216.49
217.079
217.689
218.302
218.861
219.398
219.929
220.456
220.967
221.446
221.873
222.25
222.642
223.03
223.743
224.425
224.788
224.912
224.942
224.942
224.952
224.999
225.073
225.151
225.216
225.264
225.301
225.326
225.341
225.348
225.355
225.371
225.396
225.423
225.446
225.467
225.486
225.504
225.522
225.539
225.555
225.571
225.585
225.597
225.608
225.616
225.622
225.624
225.623
225.618
225.611
225.602
225.59
225.577
225.563
225.547
225.527
225.506
225.482
225.456
225.429
225.401
225.371
225.34
225.307
225.274
225.24
225.206
225.171
225.135
225.1
225.065
225.03
224.995
224.961
224.927
224.894
224.861
210.083
216.693
216.995
217.572
218.141
218.665
219.177
219.69
220.208
220.721
221.209
221.655
222.071
222.543
223.044
223.86
224.522
224.822
224.903
224.9
224.888
224.896
224.95
225.025
225.09
225.138
225.172
225.2
225.218
225.226
225.227
225.228
225.234
225.248
225.263
225.275
225.284
225.293
225.3
225.305
225.308
225.311
225.312
225.312
225.308
225.301
225.292
225.281
225.267
225.252
225.234
225.213
225.19
225.165
225.138
225.111
225.082
225.052
225.02
224.988
224.954
224.921
224.887
224.852
224.818
224.783
224.749
224.715
224.681
224.648
224.615
224.583
224.551
224.521
224.491
224.462
224.433
224.406
224.379
211.29
216.67
216.952
217.49
218.009
218.503
218.985
219.474
219.977
220.484
220.975
221.434
221.89
222.441
223.06
223.944
224.568
224.818
224.871
224.849
224.827
224.842
224.902
224.969
225.017
225.051
225.076
225.096
225.106
225.108
225.104
225.098
225.095
225.098
225.102
225.104
225.103
225.101
225.098
225.094
225.087
225.079
225.069
225.056
225.04
225.021
225
224.977
224.953
224.928
224.902
224.874
224.844
224.813
224.781
224.749
224.717
224.684
224.651
224.618
224.585
224.552
224.519
224.487
224.455
224.423
224.392
224.362
224.331
224.302
224.273
224.246
224.218
224.192
224.166
224.142
224.118
224.095
224.072
212.345
216.662
216.906
217.403
217.894
218.367
218.821
219.282
219.765
220.26
220.747
221.217
221.713
222.341
223.069
223.983
224.567
224.786
224.819
224.79
224.768
224.789
224.85
224.905
224.938
224.961
224.978
224.991
224.995
224.993
224.983
224.968
224.956
224.949
224.945
224.939
224.929
224.919
224.908
224.896
224.882
224.866
224.847
224.825
224.801
224.776
224.749
224.721
224.692
224.662
224.631
224.599
224.567
224.534
224.501
224.468
224.435
224.403
224.37
224.338
224.307
224.276
224.245
224.216
224.186
224.158
224.129
224.103
224.076
224.051
224.026
224.002
223.979
223.957
223.935
223.914
223.894
223.875
223.857
213.308
216.643
216.844
217.309
217.79
218.245
218.676
219.111
219.571
220.05
220.529
221.006
221.543
222.241
223.064
223.979
224.525
224.729
224.752
224.723
224.713
224.739
224.794
224.835
224.856
224.87
224.88
224.886
224.887
224.881
224.864
224.843
224.822
224.806
224.794
224.781
224.767
224.75
224.733
224.715
224.695
224.674
224.649
224.622
224.594
224.565
224.536
224.505
224.474
224.442
224.409
224.377
224.345
224.313
224.282
224.251
224.22
224.19
224.16
224.13
224.101
224.072
224.044
224.016
223.989
223.964
223.939
223.915
223.891
223.869
223.847
223.826
223.806
223.786
223.768
223.749
223.732
223.715
223.699
214.171
216.613
216.78
217.215
217.69
218.13
218.544
218.957
219.394
219.853
220.32
220.805
221.384
222.142
223.038
223.934
224.452
224.65
224.677
224.657
224.656
224.688
224.734
224.761
224.773
224.779
224.783
224.784
224.78
224.769
224.75
224.724
224.697
224.672
224.652
224.634
224.615
224.595
224.574
224.552
224.528
224.503
224.474
224.444
224.414
224.383
224.353
224.321
224.289
224.257
224.224
224.192
224.161
224.13
224.1
224.07
224.04
224.01
223.981
223.953
223.925
223.898
223.872
223.848
223.824
223.801
223.78
223.759
223.739
223.719
223.7
223.682
223.665
223.648
223.632
223.617
223.602
223.588
223.574
214.893
216.632
216.699
217.112
217.59
218.021
218.422
218.816
219.23
219.669
220.123
220.615
221.233
222.04
222.988
223.857
224.357
224.549
224.59
224.587
224.598
224.635
224.671
224.686
224.691
224.691
224.689
224.683
224.675
224.661
224.64
224.613
224.582
224.551
224.523
224.498
224.475
224.452
224.429
224.405
224.38
224.352
224.322
224.291
224.26
224.228
224.196
224.164
224.132
224.1
224.068
224.036
224.006
223.976
223.947
223.919
223.891
223.863
223.836
223.81
223.785
223.76
223.737
223.715
223.693
223.673
223.653
223.634
223.616
223.598
223.581
223.564
223.549
223.534
223.519
223.505
223.492
223.479
223.466
215.466
216.692
216.658
217.04
217.501
217.919
218.308
218.685
219.078
219.496
219.937
220.436
221.087
221.933
222.916
223.761
224.241
224.433
224.495
224.517
224.539
224.579
224.605
224.612
224.612
224.607
224.598
224.587
224.574
224.557
224.535
224.507
224.476
224.442
224.409
224.378
224.35
224.323
224.297
224.272
224.246
224.217
224.188
224.157
224.127
224.096
224.065
224.033
224.001
223.971
223.941
223.912
223.883
223.855
223.827
223.8
223.774
223.748
223.723
223.7
223.677
223.656
223.635
223.616
223.597
223.579
223.561
223.544
223.528
223.512
223.497
223.482
223.468
223.454
223.441
223.429
223.417
223.405
223.394
215.909
216.761
216.661
217.003
217.424
217.825
218.202
218.562
218.936
219.334
219.761
220.266
220.943
221.82
222.824
223.652
224.108
224.305
224.393
224.446
224.476
224.52
224.539
224.54
224.535
224.524
224.51
224.495
224.478
224.458
224.435
224.408
224.377
224.344
224.309
224.275
224.241
224.21
224.181
224.153
224.125
224.097
224.068
224.039
224.01
223.981
223.952
223.921
223.891
223.862
223.834
223.807
223.781
223.755
223.729
223.704
223.679
223.655
223.632
223.611
223.591
223.572
223.553
223.534
223.516
223.499
223.482
223.465
223.449
223.434
223.419
223.405
223.391
223.379
223.367
223.355
223.345
223.335
223.325
216.245
216.827
216.676
216.995
217.361
217.742
218.103
218.447
218.802
219.181
219.596
220.105
220.8
221.7
222.714
223.53
223.965
224.17
224.286
224.372
224.409
224.459
224.473
224.471
224.46
224.444
224.427
224.409
224.389
224.367
224.342
224.314
224.284
224.252
224.218
224.183
224.148
224.114
224.082
224.051
224.021
223.991
223.962
223.934
223.906
223.879
223.851
223.823
223.795
223.768
223.741
223.715
223.691
223.667
223.642
223.618
223.594
223.572
223.55
223.53
223.511
223.493
223.475
223.458
223.442
223.426
223.41
223.395
223.38
223.366
223.353
223.34
223.328
223.317
223.306
223.296
223.287
223.278
223.269
216.493
216.886
216.709
217.005
217.309
217.669
218.013
218.34
218.676
219.036
219.439
219.95
220.658
221.574
222.592
223.398
223.816
224.033
224.171
224.288
224.343
224.397
224.41
224.404
224.388
224.368
224.349
224.329
224.306
224.282
224.256
224.228
224.197
224.166
224.133
224.099
224.065
224.031
223.997
223.964
223.932
223.902
223.872
223.844
223.816
223.789
223.763
223.737
223.71
223.685
223.66
223.636
223.613
223.589
223.566
223.543
223.521
223.5
223.481
223.462
223.445
223.427
223.41
223.394
223.378
223.363
223.349
223.335
223.322
223.31
223.298
223.288
223.278
223.268
223.26
223.252
223.244
223.236
223.229
216.675
216.935
216.752
217.034
217.269
217.604
217.929
218.239
218.557
218.899
219.29
219.801
220.515
221.441
222.458
223.255
223.665
223.894
224.053
224.195
224.279
224.336
224.35
224.341
224.32
224.297
224.274
224.252
224.229
224.205
224.179
224.149
224.119
224.087
224.054
224.021
223.988
223.956
223.923
223.89
223.857
223.826
223.796
223.768
223.74
223.713
223.687
223.661
223.637
223.613
223.591
223.569
223.545
223.522
223.499
223.478
223.458
223.44
223.423
223.406
223.39
223.373
223.357
223.341
223.326
223.312
223.3
223.288
223.278
223.268
223.259
223.251
223.243
223.235
223.228
223.221
223.214
223.207
223.2
216.809
216.973
216.795
217.071
217.241
217.55
217.853
218.145
218.444
218.769
219.148
219.655
220.372
221.301
222.316
223.105
223.511
223.756
223.937
224.101
224.212
224.273
224.291
224.28
224.257
224.231
224.204
224.179
224.156
224.133
224.107
224.078
224.048
224.016
223.984
223.951
223.919
223.888
223.857
223.825
223.793
223.762
223.732
223.704
223.676
223.648
223.622
223.597
223.574
223.553
223.531
223.51
223.487
223.464
223.443
223.424
223.405
223.388
223.371
223.354
223.338
223.321
223.306
223.291
223.277
223.265
223.253
223.243
223.234
223.224
223.216
223.208
223.2
223.192
223.185
223.178
223.172
223.165
223.16
216.909
217.003
216.835
217.104
217.221
217.505
217.786
218.058
218.338
218.645
219.012
219.512
220.226
221.155
222.166
222.95
223.356
223.617
223.824
224.008
224.141
224.208
224.231
224.221
224.198
224.171
224.141
224.113
224.087
224.064
224.039
224.012
223.983
223.952
223.92
223.889
223.857
223.827
223.797
223.767
223.737
223.707
223.678
223.65
223.622
223.594
223.568
223.543
223.521
223.501
223.48
223.458
223.437
223.416
223.397
223.379
223.362
223.344
223.326
223.309
223.292
223.276
223.262
223.248
223.235
223.223
223.211
223.2
223.189
223.179
223.168
223.159
223.15
223.141
223.134
223.127
223.12
223.115
223.11
216.985
217.024
216.871
217.128
217.208
217.468
217.725
217.978
218.237
218.526
218.88
219.372
220.079
221.005
222.01
222.791
223.201
223.48
223.712
223.917
224.069
224.144
224.169
224.162
224.141
224.116
224.085
224.054
224.026
224.001
223.976
223.951
223.923
223.894
223.863
223.832
223.801
223.772
223.743
223.715
223.687
223.659
223.631
223.603
223.576
223.548
223.522
223.498
223.477
223.456
223.435
223.414
223.394
223.375
223.358
223.341
223.323
223.305
223.287
223.27
223.255
223.24
223.225
223.212
223.199
223.186
223.173
223.16
223.148
223.136
223.125
223.115
223.106
223.097
223.089
223.082
223.075
223.069
223.064
217.04
217.04
216.904
217.146
217.2
217.436
217.67
217.903
218.142
218.414
218.753
219.234
219.93
220.849
221.848
222.63
223.048
223.345
223.6
223.826
224
224.084
224.11
224.103
224.085
224.064
224.034
224.002
223.971
223.944
223.919
223.894
223.868
223.841
223.811
223.78
223.751
223.722
223.694
223.667
223.641
223.615
223.589
223.563
223.536
223.509
223.483
223.46
223.439
223.417
223.396
223.375
223.357
223.34
223.323
223.306
223.288
223.271
223.254
223.239
223.224
223.209
223.195
223.18
223.166
223.151
223.137
223.123
223.11
223.097
223.085
223.074
223.064
223.055
223.046
223.037
223.029
223.02
223.012
217.078
217.054
216.933
217.157
217.195
217.408
217.619
217.831
218.052
218.306
218.63
219.097
219.779
220.688
221.681
222.466
222.9
223.212
223.491
223.737
223.93
224.028
224.056
224.047
224.03
224.012
223.985
223.954
223.922
223.894
223.867
223.843
223.818
223.792
223.764
223.735
223.706
223.678
223.651
223.625
223.6
223.577
223.553
223.528
223.501
223.475
223.451
223.429
223.407
223.385
223.364
223.345
223.327
223.31
223.293
223.276
223.26
223.245
223.23
223.215
223.201
223.186
223.17
223.154
223.137
223.121
223.106
223.092
223.078
223.064
223.052
223.04
223.029
223.019
223.009
223
222.99
222.981
222.972
217.104
217.064
216.961
217.163
217.19
217.381
217.571
217.763
217.965
218.202
218.511
218.961
219.627
220.521
221.509
222.302
222.758
223.083
223.387
223.648
223.857
223.971
224.006
223.997
223.979
223.962
223.937
223.908
223.876
223.848
223.821
223.796
223.773
223.748
223.722
223.694
223.666
223.639
223.613
223.587
223.563
223.542
223.521
223.497
223.472
223.447
223.425
223.404
223.382
223.361
223.341
223.322
223.304
223.286
223.269
223.254
223.24
223.227
223.214
223.199
223.184
223.168
223.152
223.136
223.121
223.107
223.095
223.084
223.072
223.061
223.05
223.039
223.029
223.019
223.009
222.999
222.989
222.98
222.971
217.117
217.071
216.991
217.168
217.186
217.354
217.523
217.695
217.88
218.101
218.395
218.828
219.474
220.35
221.332
222.138
222.62
222.961
223.286
223.56
223.782
223.915
223.96
223.953
223.933
223.916
223.891
223.864
223.834
223.805
223.778
223.753
223.73
223.707
223.683
223.657
223.63
223.604
223.578
223.553
223.531
223.511
223.492
223.469
223.446
223.424
223.404
223.384
223.363
223.343
223.323
223.304
223.286
223.268
223.252
223.239
223.227
223.215
223.202
223.188
223.173
223.159
223.145
223.132
223.121
223.111
223.101
223.09
223.078
223.067
223.055
223.045
223.035
223.025
223.015
223.005
222.996
222.988
222.98
217.116
217.078
217.02
217.173
217.183
217.328
217.476
217.628
217.796
218.003
218.282
218.696
219.32
220.175
221.152
221.974
222.483
222.845
223.19
223.472
223.708
223.863
223.915
223.911
223.891
223.873
223.849
223.823
223.794
223.766
223.738
223.713
223.69
223.669
223.647
223.623
223.598
223.572
223.547
223.523
223.502
223.483
223.465
223.444
223.422
223.403
223.386
223.367
223.348
223.328
223.308
223.289
223.272
223.256
223.242
223.229
223.218
223.207
223.195
223.182
223.17
223.159
223.147
223.136
223.126
223.117
223.107
223.097
223.086
223.075
223.065
223.056
223.047
223.039
223.031
223.024
223.017
223.01
223.005
217.108
217.083
217.047
217.179
217.181
217.303
217.429
217.562
217.713
217.906
218.171
218.566
219.166
219.997
220.969
221.809
222.348
222.734
223.096
223.388
223.639
223.813
223.872
223.871
223.852
223.834
223.813
223.787
223.759
223.729
223.701
223.675
223.653
223.633
223.613
223.591
223.568
223.543
223.518
223.495
223.475
223.457
223.439
223.42
223.402
223.385
223.37
223.354
223.335
223.315
223.295
223.277
223.262
223.248
223.236
223.224
223.213
223.203
223.193
223.183
223.173
223.163
223.154
223.143
223.133
223.123
223.114
223.105
223.096
223.088
223.081
223.074
223.067
223.061
223.055
223.049
223.044
223.038
223.032
217.097
217.089
217.07
217.182
217.179
217.279
217.382
217.495
217.63
217.81
218.062
218.438
219.013
219.817
220.781
221.643
222.216
222.629
223.004
223.31
223.575
223.764
223.828
223.83
223.814
223.799
223.781
223.756
223.728
223.697
223.668
223.64
223.619
223.6
223.582
223.562
223.541
223.516
223.492
223.469
223.451
223.434
223.417
223.399
223.383
223.37
223.356
223.341
223.323
223.303
223.284
223.268
223.254
223.242
223.232
223.222
223.212
223.203
223.194
223.186
223.178
223.169
223.16
223.151
223.142
223.132
223.124
223.117
223.11
223.104
223.098
223.092
223.087
223.082
223.077
223.072
223.067
223.062
223.057
217.093
217.095
217.087
217.18
217.177
217.257
217.336
217.427
217.547
217.716
217.954
218.312
218.86
219.637
220.59
221.474
222.089
222.529
222.914
223.237
223.519
223.718
223.787
223.79
223.777
223.765
223.752
223.729
223.7
223.668
223.637
223.61
223.59
223.572
223.555
223.537
223.516
223.492
223.468
223.445
223.428
223.413
223.398
223.382
223.368
223.355
223.343
223.329
223.312
223.293
223.275
223.259
223.246
223.236
223.228
223.22
223.212
223.205
223.197
223.19
223.182
223.174
223.166
223.158
223.15
223.142
223.134
223.128
223.122
223.116
223.111
223.106
223.101
223.097
223.092
223.088
223.084
223.08
223.076
217.085
217.098
217.095
217.171
217.175
217.234
217.288
217.359
217.464
217.621
217.848
218.188
218.709
219.456
220.395
221.302
221.966
222.435
222.827
223.17
223.468
223.673
223.749
223.753
223.742
223.732
223.723
223.703
223.674
223.641
223.61
223.583
223.564
223.548
223.533
223.514
223.493
223.469
223.445
223.424
223.408
223.395
223.382
223.368
223.354
223.342
223.33
223.317
223.301
223.284
223.266
223.252
223.24
223.231
223.224
223.219
223.213
223.207
223.201
223.194
223.187
223.179
223.171
223.163
223.155
223.148
223.141
223.134
223.128
223.122
223.117
223.113
223.109
223.105
223.101
223.098
223.094
223.091
223.089
217.076
217.098
217.099
217.16
217.17
217.207
217.239
217.289
217.381
217.528
217.744
218.067
218.561
219.277
220.196
221.125
221.844
222.345
222.746
223.108
223.42
223.631
223.713
223.722
223.71
223.701
223.695
223.676
223.649
223.615
223.585
223.56
223.543
223.528
223.513
223.493
223.471
223.447
223.424
223.405
223.392
223.381
223.37
223.357
223.342
223.329
223.317
223.304
223.29
223.275
223.26
223.247
223.236
223.228
223.223
223.218
223.214
223.209
223.204
223.198
223.191
223.183
223.175
223.166
223.158
223.151
223.143
223.137
223.13
223.125
223.12
223.116
223.112
223.108
223.105
223.102
223.1
223.097
223.095
217.066
217.096
217.102
217.152
217.161
217.176
217.187
217.218
217.297
217.434
217.64
217.948
218.416
219.099
219.995
220.943
221.718
222.261
222.672
223.053
223.378
223.591
223.677
223.695
223.686
223.675
223.668
223.649
223.621
223.588
223.56
223.54
223.526
223.512
223.495
223.473
223.45
223.428
223.407
223.391
223.379
223.37
223.36
223.347
223.331
223.316
223.303
223.29
223.278
223.267
223.255
223.244
223.235
223.228
223.223
223.218
223.214
223.21
223.205
223.199
223.192
223.185
223.177
223.169
223.161
223.154
223.147
223.14
223.134
223.129
223.125
223.121
223.117
223.114
223.111
223.109
223.107
223.105
223.103
217.055
217.091
217.104
217.148
217.144
217.138
217.131
217.147
217.213
217.34
217.537
217.832
218.275
218.925
219.793
220.754
221.586
222.18
222.608
223.008
223.341
223.551
223.639
223.668
223.669
223.657
223.645
223.621
223.591
223.561
223.539
223.524
223.512
223.496
223.476
223.454
223.431
223.411
223.394
223.381
223.37
223.361
223.35
223.336
223.32
223.304
223.289
223.278
223.268
223.259
223.251
223.243
223.236
223.229
223.223
223.218
223.213
223.208
223.202
223.197
223.19
223.183
223.177
223.17
223.163
223.157
223.151
223.145
223.14
223.136
223.132
223.129
223.126
223.124
223.122
223.12
223.118
223.116
223.115
217.041
217.083
217.103
217.144
217.122
217.095
217.072
217.075
217.129
217.245
217.434
217.718
218.14
218.756
219.591
220.557
221.443
222.097
222.555
222.974
223.308
223.51
223.599
223.643
223.658
223.647
223.625
223.593
223.563
223.537
223.521
223.51
223.496
223.479
223.457
223.435
223.414
223.398
223.385
223.374
223.363
223.352
223.34
223.325
223.309
223.293
223.279
223.268
223.26
223.253
223.247
223.241
223.235
223.228
223.221
223.215
223.208
223.202
223.196
223.19
223.184
223.179
223.173
223.168
223.163
223.158
223.153
223.149
223.145
223.142
223.139
223.136
223.134
223.132
223.13
223.129
223.127
223.126
223.125
217.026
217.073
217.099
217.136
217.096
217.051
217.01
217.001
217.046
217.15
217.331
217.606
218.01
218.594
219.394
220.355
221.289
222.01
222.513
222.955
223.282
223.469
223.565
223.622
223.647
223.637
223.605
223.568
223.54
223.52
223.507
223.496
223.479
223.46
223.438
223.418
223.401
223.389
223.377
223.367
223.356
223.342
223.328
223.314
223.299
223.285
223.273
223.263
223.255
223.249
223.244
223.238
223.231
223.224
223.216
223.208
223.2
223.193
223.187
223.181
223.176
223.171
223.166
223.162
223.158
223.155
223.151
223.148
223.145
223.143
223.14
223.138
223.136
223.134
223.132
223.131
223.129
223.128
223.126
217.011
217.061
217.091
217.121
217.071
217.006
216.946
216.924
216.961
217.055
217.227
217.495
217.885
218.441
219.204
220.149
221.121
221.914
222.478
222.945
223.265
223.438
223.539
223.603
223.63
223.621
223.585
223.549
223.525
223.509
223.494
223.481
223.461
223.441
223.42
223.404
223.39
223.381
223.371
223.36
223.347
223.332
223.318
223.304
223.291
223.28
223.27
223.262
223.254
223.247
223.241
223.234
223.226
223.219
223.21
223.202
223.194
223.186
223.18
223.174
223.169
223.164
223.16
223.156
223.153
223.15
223.147
223.144
223.141
223.139
223.136
223.134
223.131
223.129
223.127
223.125
223.123
223.121
223.119
216.995
217.049
217.077
217.098
217.044
216.96
216.881
216.846
216.876
216.96
217.124
217.386
217.765
218.298
219.025
219.945
220.941
221.803
222.44
222.938
223.259
223.427
223.525
223.586
223.605
223.595
223.565
223.536
223.515
223.502
223.483
223.465
223.443
223.423
223.405
223.393
223.382
223.372
223.362
223.35
223.337
223.322
223.309
223.297
223.287
223.278
223.269
223.262
223.254
223.246
223.239
223.231
223.223
223.215
223.207
223.199
223.192
223.185
223.178
223.172
223.167
223.163
223.159
223.155
223.151
223.148
223.145
223.142
223.139
223.136
223.133
223.13
223.127
223.124
223.121
223.119
223.116
223.114
223.111
216.978
217.038
217.056
217.069
217.014
216.911
216.814
216.767
216.789
216.863
217.019
217.276
217.65
218.166
218.861
219.748
220.751
221.674
222.392
222.927
223.263
223.434
223.527
223.569
223.574
223.56
223.542
223.525
223.506
223.493
223.471
223.45
223.427
223.409
223.394
223.383
223.373
223.362
223.352
223.338
223.326
223.313
223.303
223.293
223.284
223.277
223.269
223.261
223.253
223.245
223.238
223.23
223.222
223.215
223.208
223.201
223.195
223.189
223.183
223.178
223.173
223.169
223.164
223.161
223.157
223.154
223.15
223.147
223.144
223.14
223.137
223.134
223.131
223.128
223.125
223.122
223.12
223.117
223.115
216.959
217.028
217.031
217.034
216.978
216.86
216.745
216.688
216.7
216.766
216.914
217.167
217.538
218.045
218.714
219.565
220.557
221.527
222.325
222.907
223.272
223.462
223.539
223.557
223.545
223.528
223.518
223.511
223.495
223.481
223.458
223.437
223.416
223.399
223.385
223.373
223.362
223.35
223.339
223.326
223.316
223.305
223.296
223.288
223.281
223.274
223.266
223.259
223.251
223.244
223.236
223.229
223.222
223.216
223.21
223.205
223.2
223.195
223.19
223.186
223.182
223.178
223.174
223.171
223.167
223.164
223.161
223.158
223.155
223.152
223.149
223.146
223.143
223.141
223.138
223.136
223.133
223.131
223.129
216.936
217.017
217.005
216.997
216.936
216.806
216.675
216.606
216.61
216.667
216.808
217.057
217.429
217.934
218.585
219.402
220.368
221.365
222.233
222.875
223.277
223.5
223.555
223.555
223.532
223.511
223.5
223.493
223.48
223.465
223.445
223.426
223.408
223.391
223.377
223.362
223.35
223.336
223.325
223.314
223.305
223.296
223.288
223.281
223.274
223.268
223.261
223.254
223.247
223.24
223.234
223.227
223.222
223.217
223.212
223.207
223.203
223.199
223.195
223.192
223.188
223.184
223.181
223.178
223.175
223.172
223.169
223.166
223.163
223.161
223.158
223.156
223.154
223.152
223.15
223.148
223.146
223.144
223.143
216.909
217.003
216.978
216.959
216.889
216.749
216.602
216.522
216.518
216.568
216.702
216.948
217.322
217.83
218.474
219.263
220.195
221.195
222.114
222.823
223.273
223.52
223.571
223.562
223.535
223.509
223.491
223.477
223.464
223.449
223.434
223.418
223.402
223.386
223.37
223.354
223.339
223.325
223.312
223.302
223.292
223.284
223.277
223.27
223.263
223.256
223.25
223.243
223.237
223.231
223.226
223.221
223.216
223.212
223.208
223.204
223.2
223.197
223.193
223.19
223.186
223.183
223.18
223.177
223.174
223.171
223.169
223.166
223.164
223.161
223.159
223.157
223.155
223.153
223.152
223.15
223.149
223.147
223.146
216.881
216.984
216.95
216.922
216.838
216.688
216.526
216.435
216.423
216.467
216.596
216.84
217.217
217.733
218.379
219.151
220.048
221.028
221.973
222.744
223.255
223.526
223.587
223.572
223.544
223.514
223.49
223.469
223.453
223.438
223.425
223.411
223.397
223.382
223.365
223.349
223.333
223.318
223.304
223.292
223.281
223.272
223.263
223.254
223.246
223.239
223.232
223.226
223.22
223.215
223.21
223.205
223.2
223.196
223.192
223.189
223.185
223.182
223.178
223.175
223.172
223.169
223.166
223.163
223.16
223.158
223.155
223.153
223.151
223.149
223.147
223.145
223.143
223.141
223.14
223.138
223.137
223.135
223.134
216.849
216.961
216.919
216.883
216.786
216.622
216.447
216.346
216.327
216.365
216.49
216.733
217.114
217.641
218.297
219.064
219.932
220.879
221.821
222.637
223.209
223.51
223.597
223.581
223.553
223.522
223.494
223.47
223.451
223.435
223.422
223.409
223.394
223.38
223.365
223.349
223.333
223.318
223.303
223.289
223.276
223.264
223.253
223.242
223.232
223.224
223.215
223.208
223.201
223.195
223.189
223.184
223.179
223.174
223.17
223.166
223.162
223.158
223.154
223.151
223.147
223.144
223.141
223.138
223.136
223.133
223.131
223.128
223.126
223.124
223.122
223.12
223.118
223.117
223.115
223.114
223.112
223.111
223.11
216.816
216.932
216.887
216.84
216.731
216.553
216.364
216.253
216.228
216.262
216.384
216.627
217.014
217.554
218.225
218.998
219.849
220.759
221.676
222.507
223.127
223.466
223.588
223.586
223.559
223.529
223.499
223.475
223.455
223.438
223.423
223.41
223.396
223.383
223.369
223.355
223.34
223.326
223.312
223.298
223.284
223.271
223.258
223.246
223.235
223.225
223.216
223.207
223.199
223.191
223.184
223.178
223.171
223.165
223.16
223.155
223.15
223.145
223.141
223.137
223.133
223.13
223.127
223.123
223.12
223.118
223.115
223.112
223.11
223.108
223.106
223.104
223.102
223.1
223.098
223.096
223.095
223.093
223.092
216.781
216.9
216.851
216.792
216.673
216.48
216.276
216.158
216.128
216.158
216.28
216.523
216.919
217.472
218.162
218.948
219.794
220.675
221.555
222.37
223.014
223.392
223.549
223.579
223.556
223.529
223.501
223.479
223.459
223.442
223.427
223.414
223.401
223.388
223.376
223.364
223.351
223.339
223.327
223.314
223.302
223.289
223.278
223.266
223.255
223.244
223.234
223.225
223.216
223.208
223.2
223.193
223.186
223.179
223.173
223.167
223.162
223.157
223.152
223.148
223.143
223.14
223.136
223.132
223.129
223.126
223.123
223.12
223.117
223.115
223.112
223.11
223.108
223.106
223.104
223.102
223.1
223.099
223.097
216.745
216.863
216.813
216.739
216.61
216.401
216.185
216.06
216.027
216.054
216.177
216.421
216.828
217.397
218.107
218.911
219.762
220.626
221.469
222.245
222.885
223.29
223.478
223.538
223.536
223.517
223.495
223.477
223.459
223.444
223.43
223.417
223.405
223.394
223.382
223.372
223.361
223.351
223.341
223.331
223.321
223.311
223.301
223.291
223.281
223.272
223.263
223.254
223.245
223.237
223.229
223.221
223.214
223.208
223.201
223.195
223.189
223.184
223.179
223.174
223.17
223.165
223.161
223.158
223.154
223.151
223.148
223.145
223.142
223.139
223.136
223.134
223.132
223.129
223.127
223.125
223.124
223.122
223.12
216.706
216.822
216.771
216.681
216.541
216.316
216.089
215.96
215.926
215.95
216.076
216.323
216.743
217.329
218.059
218.882
219.746
220.604
221.418
222.151
222.76
223.172
223.377
223.463
223.488
223.486
223.475
223.463
223.449
223.438
223.426
223.416
223.405
223.395
223.385
223.377
223.367
223.359
223.35
223.342
223.334
223.326
223.318
223.311
223.303
223.296
223.289
223.282
223.275
223.269
223.262
223.256
223.25
223.244
223.238
223.233
223.227
223.222
223.218
223.213
223.209
223.205
223.201
223.197
223.194
223.19
223.187
223.184
223.181
223.179
223.176
223.174
223.171
223.169
223.167
223.165
223.163
223.161
223.16
216.666
216.775
216.724
216.617
216.466
216.226
215.99
215.858
215.825
215.846
215.977
216.23
216.664
217.27
218.02
218.862
219.74
220.599
221.393
222.091
222.661
223.056
223.262
223.361
223.408
223.426
223.43
223.428
223.423
223.418
223.41
223.404
223.396
223.389
223.381
223.375
223.367
223.36
223.353
223.346
223.339
223.332
223.326
223.32
223.314