/*--------------------------------*- C++ -*----------------------------------*\
| =========                 |                                                 |
| \\      /  F ield         | OpenFOAM: The Open Source CFD Toolbox           |
|  \\    /   O peration     | Version:  2412                                  |
|   \\  /    A nd           | Website:  www.openfoam.com                      |
|    \\/     M anipulation  |                                                 |
\*---------------------------------------------------------------------------*/
FoamFile
{
    version     2.0;
    format      ascii;
    arch        "LSB;label=32;scalar=64";
    class       volVectorField;
    location    "0.036";
    object      U;
}
// * * * * * * * * * * * * * * * * * * * * * * * * * * * * * * * * * * * * * //

dimensions      [0 1 -1 0 0 0 0];

internalField   nonuniform List<vector> 
9763
(
(165.665 -24.2771 0)
(155.094 -28.8399 0)
(165.486 -24.4437 0)
(153.488 -28.8139 0)
(165.42 -24.4831 0)
(153.024 -28.785 0)
(165.419 -24.4782 0)
(152.976 -28.9341 0)
(165.533 -24.4655 0)
(153.123 -29.0482 0)
(165.849 -24.5406 0)
(153.618 -29.1431 0)
(166.376 -24.7459 0)
(154.401 -29.384 0)
(167.086 -24.8984 0)
(155.371 -29.5265 0)
(167.858 -25.0244 0)
(156.335 -29.8121 0)
(168.606 -25.1334 0)
(157.286 -29.9717 0)
(169.266 -25.3153 0)
(158.164 -30.2434 0)
(169.861 -25.4324 0)
(159.037 -30.4106 0)
(170.386 -25.5749 0)
(159.868 -30.6684 0)
(170.877 -25.681 0)
(160.708 -30.8419 0)
(171.337 -25.8247 0)
(161.518 -31.087 0)
(171.799 -25.9317 0)
(162.333 -31.2642 0)
(172.254 -26.0742 0)
(163.123 -31.4976 0)
(172.728 -26.1858 0)
(163.923 -31.6794 0)
(173.207 -26.3342 0)
(164.715 -31.9064 0)
(173.712 -26.4528 0)
(165.532 -32.0972 0)
(174.226 -26.6085 0)
(166.366 -32.3253 0)
(174.764 -26.7342 0)
(167.241 -32.5302 0)
(175.305 -26.8954 0)
(168.152 -32.7655 0)
(175.86 -27.0244 0)
(169.113 -32.9867 0)
(176.401 -27.1855 0)
(170.113 -33.2303 0)
(176.938 -27.3112 0)
(171.155 -33.4643 0)
(177.449 -27.4665 0)
(172.222 -33.711 0)
(177.95 -27.5862 0)
(173.305 -33.9491 0)
(178.434 -27.7348 0)
(174.387 -34.1892 0)
(178.934 -27.8503 0)
(175.456 -34.4199 0)
(179.45 -28.0048 0)
(176.499 -34.6448 0)
(180.028 -28.1235 0)
(177.516 -34.8598 0)
(180.658 -28.2881 0)
(178.515 -35.0666 0)
(181.348 -28.4294 0)
(179.514 -35.2669 0)
(182.081 -28.593 0)
(180.523 -35.4633 0)
(182.846 -28.7537 0)
(181.546 -35.6517 0)
(183.634 -28.9208 0)
(182.578 -35.8308 0)
(184.447 -29.0815 0)
(183.609 -35.9877 0)
(185.281 -29.2549 0)
(184.63 -36.1215 0)
(186.138 -29.4121 0)
(185.639 -36.2216 0)
(186.647 -36.2973 0)
(187.671 -36.3472 0)
(188.732 -36.3891 0)
(168.721 77.6805 0)
(165.862 12.0233 0)
(182.268 0.665578 0)
(193.183 -3.52867 0)
(196.034 -7.41935 0)
(196.965 -9.10582 0)
(197.444 -9.9822 0)
(198.136 -10.5376 0)
(199.03 -10.9759 0)
(199.991 -11.4256 0)
(200.914 -11.8358 0)
(201.809 -12.1601 0)
(202.711 -12.414 0)
(203.614 -12.6535 0)
(204.506 -12.8862 0)
(205.42 -13.1009 0)
(206.363 -13.3163 0)
(207.339 -13.5065 0)
(208.358 -13.6614 0)
(209.441 -13.7679 0)
(210.607 -13.828 0)
(211.861 -13.8417 0)
(213.199 -13.8185 0)
(214.605 -13.7666 0)
(216.057 -13.6959 0)
(217.528 -13.6258 0)
(218.98 -13.6002 0)
(220.351 -13.6829 0)
(221.587 -13.9069 0)
(222.672 -14.2583 0)
(223.61 -14.7251 0)
(224.412 -15.3003 0)
(225.096 -15.9732 0)
(225.684 -16.7331 0)
(226.186 -17.5701 0)
(226.601 -18.4715 0)
(226.927 -19.4218 0)
(227.166 -20.4045 0)
(227.317 -21.407 0)
(227.382 -22.4185 0)
(227.366 -23.4269 0)
(227.274 -24.4442 0)
(227.107 -25.4433 0)
(226.866 -26.4256 0)
(226.558 -27.3972 0)
(226.185 -28.3481 0)
(225.749 -29.2642 0)
(225.252 -30.1361 0)
(224.686 -30.9606 0)
(224.047 -31.735 0)
(223.42 -32.4924 0)
(222.862 -33.2539 0)
(222.201 -33.9387 0)
(221.579 -34.6858 0)
(220.634 -35.204 0)
(219.779 -35.8777 0)
(218.57 -36.3609 0)
(217.225 -36.6222 0)
(215.852 -37.0383 0)
(214.411 -37.2712 0)
(213.043 -37.6979 0)
(211.653 -37.9915 0)
(210.316 -38.3396 0)
(209.004 -38.6231 0)
(207.685 -38.8517 0)
(206.401 -39.0673 0)
(205.143 -39.3542 0)
(203.854 -39.5308 0)
(202.599 -39.8083 0)
(201.341 -40.0012 0)
(200.132 -40.2842 0)
(198.917 -40.5171 0)
(197.686 -40.7528 0)
(196.396 -40.9218 0)
(195.063 -41.0203 0)
(193.768 -41.0944 0)
(192.589 -41.2313 0)
(191.532 -41.4029 0)
(190.575 -41.7127 0)
(189.503 -41.968 0)
(188.236 -42.0687 0)
(186.824 -42.1084 0)
(185.339 -42.0578 0)
(183.855 -42.0128 0)
(182.432 -41.9574 0)
(181.103 -41.9633 0)
(179.871 -41.9884 0)
(178.718 -42.0826 0)
(177.606 -42.1793 0)
(176.52 -42.3285 0)
(175.44 -42.4681 0)
(174.398 -42.6573 0)
(173.378 -42.8075 0)
(172.38 -42.9708 0)
(171.391 -43.1022 0)
(170.428 -43.2522 0)
(169.488 -43.3868 0)
(168.584 -43.5429 0)
(167.71 -43.6957 0)
(166.869 -43.8656 0)
(166.048 -44.0402 0)
(165.239 -44.213 0)
(164.431 -44.4055 0)
(163.599 -44.5568 0)
(162.755 -44.7518 0)
(161.866 -44.8691 0)
(160.958 -45.0407 0)
(160.005 -45.1243 0)
(159.046 -45.2721 0)
(158.1 -45.3586 0)
(157.197 -45.5212 0)
(156.342 -45.6603 0)
(155.554 -45.8792 0)
(154.834 -46.1121 0)
(154.218 -46.4438 0)
(153.729 -46.8353 0)
(153.451 -47.3498 0)
(153.419 -47.9258 0)
(153.449 -48.455 0)
(153.479 -49.0534 0)
(153.32 -49.2172 0)
(168.829 78.0953 0)
(165.91 12.1846 0)
(182.303 0.67508 0)
(193.215 -3.53635 0)
(196.064 -7.41534 0)
(196.987 -9.09843 0)
(197.463 -9.97561 0)
(198.153 -10.5301 0)
(199.046 -10.9655 0)
(200.006 -11.4125 0)
(200.93 -11.8213 0)
(201.826 -12.1444 0)
(202.728 -12.3964 0)
(203.632 -12.6343 0)
(204.526 -12.865 0)
(205.441 -13.0771 0)
(206.387 -13.2894 0)
(207.367 -13.4759 0)
(208.39 -13.6264 0)
(209.48 -13.7281 0)
(210.653 -13.7828 0)
(211.917 -13.791 0)
(213.265 -13.7624 0)
(214.682 -13.7058 0)
(216.145 -13.6314 0)
(217.627 -13.5585 0)
(219.088 -13.5319 0)
(220.466 -13.6145 0)
(221.706 -13.8388 0)
(222.796 -14.1915 0)
(223.74 -14.6596 0)
(224.547 -15.2356 0)
(225.239 -15.908 0)
(225.837 -16.6669 0)
(226.352 -17.5038 0)
(226.783 -18.4069 0)
(227.126 -19.3602 0)
(227.383 -20.3473 0)
(227.553 -21.3554 0)
(227.638 -22.3734 0)
(227.64 -23.3924 0)
(227.568 -24.4089 0)
(227.42 -25.4234 0)
(227.196 -26.4149 0)
(226.905 -27.3966 0)
(226.549 -28.3611 0)
(226.129 -29.2931 0)
(225.646 -30.1815 0)
(225.091 -31.0225 0)
(224.46 -31.8134 0)
(223.838 -32.5861 0)
(223.285 -33.3569 0)
(222.638 -34.052 0)
(222.037 -34.8161 0)
(221.09 -35.3109 0)
(220.287 -36.0768 0)
(219.043 -36.547 0)
(217.709 -36.866 0)
(216.348 -37.2819 0)
(214.926 -37.5157 0)
(213.584 -37.9585 0)
(212.203 -38.2733 0)
(210.871 -38.6364 0)
(209.558 -38.9364 0)
(208.243 -39.156 0)
(206.987 -39.4117 0)
(205.739 -39.698 0)
(204.464 -39.8784 0)
(203.219 -40.1726 0)
(201.965 -40.3693 0)
(200.762 -40.7001 0)
(199.542 -40.9517 0)
(198.318 -41.2508 0)
(197.029 -41.4623 0)
(195.706 -41.624 0)
(194.441 -41.7697 0)
(193.301 -41.9988 0)
(192.289 -42.2589 0)
(191.378 -42.6686 0)
(190.281 -42.907 0)
(189 -42.9987 0)
(187.593 -43.0264 0)
(186.131 -42.9956 0)
(184.688 -43.0035 0)
(183.315 -43.0306 0)
(182.041 -43.1428 0)
(180.861 -43.2846 0)
(179.765 -43.5046 0)
(178.708 -43.7208 0)
(177.684 -43.9899 0)
(176.651 -44.2328 0)
(175.635 -44.5147 0)
(174.615 -44.7611 0)
(173.619 -45.0356 0)
(172.633 -45.2801 0)
(171.68 -45.5522 0)
(170.749 -45.8013 0)
(169.864 -46.0763 0)
(169.01 -46.3338 0)
(168.204 -46.6143 0)
(167.425 -46.8808 0)
(166.672 -47.1581 0)
(165.923 -47.4291 0)
(165.16 -47.6737 0)
(164.385 -47.9396 0)
(163.561 -48.1234 0)
(162.73 -48.3704 0)
(161.841 -48.4912 0)
(160.946 -48.678 0)
(160.072 -48.7941 0)
(159.263 -48.9567 0)
(158.537 -49.1035 0)
(157.905 -49.281 0)
(157.36 -49.4676 0)
(156.903 -49.6662 0)
(156.543 -49.8747 0)
(156.293 -50.089 0)
(156.153 -50.2981 0)
(156.075 -50.4807 0)
(156.089 -50.6796 0)
(156.191 -50.8314 0)
(168.927 78.236 0)
(165.924 12.1823 0)
(182.348 0.675389 0)
(193.247 -3.51718 0)
(196.091 -7.40386 0)
(197.009 -9.09291 0)
(197.482 -9.96852 0)
(198.17 -10.5216 0)
(199.062 -10.9549 0)
(200.022 -11.4 0)
(200.946 -11.8074 0)
(201.842 -12.1292 0)
(202.745 -12.3795 0)
(203.649 -12.6159 0)
(204.545 -12.8449 0)
(205.461 -13.0551 0)
(206.409 -13.265 0)
(207.392 -13.4488 0)
(208.419 -13.5959 0)
(209.514 -13.6933 0)
(210.694 -13.7428 0)
(211.964 -13.7453 0)
(213.321 -13.7107 0)
(214.746 -13.6485 0)
(216.22 -13.5689 0)
(217.712 -13.4917 0)
(219.183 -13.4628 0)
(220.568 -13.5458 0)
(221.816 -13.7727 0)
(222.914 -14.1296 0)
(223.867 -14.6029 0)
(224.684 -15.1841 0)
(225.387 -15.8613 0)
(225.998 -16.6249 0)
(226.528 -17.467 0)
(226.976 -18.3769 0)
(227.338 -19.3384 0)
(227.613 -20.3348 0)
(227.802 -21.3537 0)
(227.906 -22.3842 0)
(227.926 -23.4155 0)
(227.872 -24.4427 0)
(227.74 -25.4724 0)
(227.531 -26.4781 0)
(227.253 -27.4729 0)
(226.91 -28.4522 0)
(226.502 -29.3997 0)
(226.03 -30.3034 0)
(225.484 -31.1586 0)
(224.859 -31.9626 0)
(224.242 -32.7482 0)
(223.693 -33.5302 0)
(223.051 -34.2437 0)
(222.465 -35.0072 0)
(221.517 -35.5136 0)
(220.759 -36.303 0)
(219.493 -36.7562 0)
(218.149 -37.1513 0)
(216.774 -37.572 0)
(215.363 -37.8256 0)
(214.049 -38.2807 0)
(212.684 -38.5993 0)
(211.365 -38.9646 0)
(210.049 -39.2957 0)
(208.726 -39.5434 0)
(207.475 -39.8807 0)
(206.222 -40.167 0)
(204.961 -40.3823 0)
(203.737 -40.651 0)
(202.517 -40.8309 0)
(201.353 -41.1288 0)
(200.167 -41.35 0)
(198.971 -41.6636 0)
(197.686 -41.8944 0)
(196.36 -42.1057 0)
(195.105 -42.3302 0)
(193.994 -42.6192 0)
(193.042 -42.9561 0)
(192.179 -43.3827 0)
(191.091 -43.5732 0)
(189.817 -43.6576 0)
(188.427 -43.6733 0)
(186.994 -43.671 0)
(185.589 -43.716 0)
(184.258 -43.8023 0)
(183.03 -43.9707 0)
(181.898 -44.1718 0)
(180.852 -44.439 0)
(179.845 -44.6915 0)
(178.879 -44.981 0)
(177.914 -45.2288 0)
(176.974 -45.5071 0)
(176.034 -45.7501 0)
(175.121 -46.0271 0)
(174.215 -46.2754 0)
(173.341 -46.5554 0)
(172.484 -46.8081 0)
(171.668 -47.0885 0)
(170.877 -47.3429 0)
(170.133 -47.6228 0)
(169.411 -47.8753 0)
(168.721 -48.1486 0)
(168.028 -48.393 0)
(167.33 -48.6353 0)
(166.604 -48.8676 0)
(165.835 -49.0455 0)
(165.038 -49.2633 0)
(164.178 -49.3624 0)
(163.295 -49.5234 0)
(162.416 -49.613 0)
(161.577 -49.7363 0)
(160.804 -49.8403 0)
(160.114 -49.9574 0)
(159.514 -50.0876 0)
(158.994 -50.2189 0)
(158.541 -50.3671 0)
(158.143 -50.5062 0)
(157.817 -50.6644 0)
(157.581 -50.8288 0)
(157.472 -51.046 0)
(157.498 -51.2846 0)
(169.018 78.3394 0)
(165.935 12.1665 0)
(182.393 0.682367 0)
(193.277 -3.50511 0)
(196.12 -7.39825 0)
(197.029 -9.08576 0)
(197.501 -9.96164 0)
(198.186 -10.5134 0)
(199.077 -10.9442 0)
(200.036 -11.3874 0)
(200.961 -11.7936 0)
(201.857 -12.1144 0)
(202.761 -12.3631 0)
(203.666 -12.5982 0)
(204.562 -12.8256 0)
(205.48 -13.034 0)
(206.43 -13.2417 0)
(207.416 -13.4229 0)
(208.448 -13.5668 0)
(209.548 -13.6604 0)
(210.735 -13.7055 0)
(212.014 -13.7031 0)
(213.38 -13.6634 0)
(214.816 -13.5964 0)
(216.299 -13.5124 0)
(217.802 -13.4317 0)
(219.281 -13.4008 0)
(220.671 -13.4837 0)
(221.923 -13.7113 0)
(223.025 -14.0698 0)
(223.983 -14.5451 0)
(224.806 -15.1276 0)
(225.517 -15.8049 0)
(226.138 -16.5677 0)
(226.682 -17.4097 0)
(227.146 -18.3208 0)
(227.527 -19.2852 0)
(227.821 -20.2858 0)
(228.03 -21.31 0)
(228.154 -22.347 0)
(228.195 -23.3865 0)
(228.161 -24.4191 0)
(228.049 -25.458 0)
(227.86 -26.4755 0)
(227.599 -27.4799 0)
(227.273 -28.4714 0)
(226.882 -29.4338 0)
(226.425 -30.3529 0)
(225.892 -31.223 0)
(225.278 -32.0424 0)
(224.668 -32.8438 0)
(224.122 -33.6391 0)
(223.491 -34.3677 0)
(222.911 -35.1357 0)
(221.975 -35.6421 0)
(221.256 -36.4522 0)
(219.982 -36.8831 0)
(218.661 -37.3386 0)
(217.277 -37.7545 0)
(215.882 -38.0308 0)
(214.59 -38.4932 0)
(213.242 -38.7976 0)
(211.939 -39.1626 0)
(210.634 -39.5167 0)
(209.323 -39.7958 0)
(208.095 -40.2099 0)
(206.828 -40.5158 0)
(205.566 -40.8055 0)
(204.326 -41.0951 0)
(203.102 -41.3174 0)
(201.94 -41.6022 0)
(200.785 -41.8066 0)
(199.639 -42.0857 0)
(198.404 -42.2699 0)
(197.134 -42.4607 0)
(195.932 -42.7263 0)
(194.854 -43.0604 0)
(193.932 -43.509 0)
(193.024 -43.9723 0)
(191.888 -44.1846 0)
(190.592 -44.2992 0)
(189.214 -44.3279 0)
(187.837 -44.3427 0)
(186.516 -44.3867 0)
(185.284 -44.4821 0)
(184.152 -44.6542 0)
(183.106 -44.8718 0)
(182.131 -45.1519 0)
(181.182 -45.4264 0)
(180.26 -45.7381 0)
(179.33 -46.0154 0)
(178.422 -46.3259 0)
(177.515 -46.6028 0)
(176.636 -46.912 0)
(175.763 -47.1877 0)
(174.923 -47.4901 0)
(174.096 -47.7564 0)
(173.311 -48.0465 0)
(172.548 -48.3003 0)
(171.835 -48.5795 0)
(171.143 -48.8199 0)
(170.492 -49.089 0)
(169.835 -49.3082 0)
(169.188 -49.5522 0)
(168.503 -49.7414 0)
(167.788 -49.9277 0)
(167.023 -50.0906 0)
(166.205 -50.187 0)
(165.353 -50.2989 0)
(164.497 -50.3729 0)
(163.669 -50.4544 0)
(162.896 -50.5321 0)
(162.201 -50.6199 0)
(161.597 -50.7251 0)
(161.082 -50.8408 0)
(160.647 -50.9777 0)
(160.277 -51.1201 0)
(159.972 -51.285 0)
(159.729 -51.4554 0)
(159.596 -51.6875 0)
(159.599 -51.954 0)
(169.075 78.4232 0)
(165.949 12.145 0)
(182.437 0.688021 0)
(193.308 -3.49539 0)
(196.146 -7.3883 0)
(197.051 -9.08065 0)
(197.519 -9.95519 0)
(198.203 -10.5057 0)
(199.092 -10.9345 0)
(200.051 -11.3757 0)
(200.976 -11.7807 0)
(201.872 -12.1003 0)
(202.776 -12.3474 0)
(203.682 -12.5811 0)
(204.579 -12.8069 0)
(205.499 -13.0135 0)
(206.451 -13.2189 0)
(207.439 -13.3975 0)
(208.475 -13.5381 0)
(209.58 -13.6276 0)
(210.772 -13.6678 0)
(212.057 -13.66 0)
(213.43 -13.6148 0)
(214.874 -13.5424 0)
(216.367 -13.4537 0)
(217.88 -13.3692 0)
(219.366 -13.3365 0)
(220.763 -13.4198 0)
(222.022 -13.6497 0)
(223.132 -14.012 0)
(224.098 -14.4919 0)
(224.931 -15.0788 0)
(225.652 -15.7601 0)
(226.285 -16.5266 0)
(226.843 -17.3726 0)
(227.324 -18.2891 0)
(227.722 -19.2603 0)
(228.034 -20.269 0)
(228.261 -21.3024 0)
(228.405 -22.3499 0)
(228.465 -23.4002 0)
(228.446 -24.4446 0)
(228.35 -25.4926 0)
(228.18 -26.5256 0)
(227.932 -27.5419 0)
(227.619 -28.5462 0)
(227.24 -29.5233 0)
(226.794 -30.4573 0)
(226.271 -31.3408 0)
(225.664 -32.1719 0)
(225.06 -32.9843 0)
(224.516 -33.7919 0)
(223.889 -34.5403 0)
(223.309 -35.3208 0)
(222.377 -35.8483 0)
(221.691 -36.6759 0)
(220.417 -37.0947 0)
(219.105 -37.6022 0)
(217.707 -38.0057 0)
(216.321 -38.3201 0)
(215.043 -38.7885 0)
(213.711 -39.0741 0)
(212.43 -39.4421 0)
(211.139 -39.8006 0)
(209.844 -40.0931 0)
(208.637 -40.5337 0)
(207.374 -40.8296 0)
(206.127 -41.1793 0)
(204.879 -41.4935 0)
(203.646 -41.7831 0)
(202.46 -42.0898 0)
(201.296 -42.342 0)
(200.152 -42.6344 0)
(198.937 -42.8151 0)
(197.721 -42.985 0)
(196.599 -43.2329 0)
(195.603 -43.5282 0)
(194.775 -44 0)
(193.864 -44.426 0)
(192.723 -44.6423 0)
(191.418 -44.7918 0)
(190.03 -44.87 0)
(188.653 -44.9517 0)
(187.355 -45.0542 0)
(186.167 -45.2077 0)
(185.092 -45.4166 0)
(184.11 -45.6639 0)
(183.197 -45.9522 0)
(182.31 -46.2298 0)
(181.45 -46.5316 0)
(180.587 -46.8 0)
(179.748 -47.0998 0)
(178.909 -47.3682 0)
(178.096 -47.6696 0)
(177.283 -47.9384 0)
(176.496 -48.2336 0)
(175.715 -48.4935 0)
(174.969 -48.7776 0)
(174.242 -49.0261 0)
(173.561 -49.3023 0)
(172.901 -49.5411 0)
(172.283 -49.8129 0)
(171.66 -50.0325 0)
(171.054 -50.2915 0)
(170.403 -50.4695 0)
(169.736 -50.6946 0)
(168.996 -50.8167 0)
(168.211 -50.9693 0)
(167.385 -51.0459 0)
(166.55 -51.1539 0)
(165.731 -51.213 0)
(164.96 -51.3045 0)
(164.263 -51.38 0)
(163.656 -51.4885 0)
(163.141 -51.5993 0)
(162.713 -51.7363 0)
(162.355 -51.875 0)
(162.062 -52.0309 0)
(161.83 -52.1887 0)
(161.709 -52.4079 0)
(161.7 -52.652 0)
(169.159 78.5117 0)
(165.962 12.1213 0)
(182.482 0.693545 0)
(193.339 -3.48378 0)
(196.174 -7.38268 0)
(197.071 -9.07387 0)
(197.537 -9.94863 0)
(198.219 -10.4979 0)
(199.106 -10.9243 0)
(200.065 -11.3637 0)
(200.99 -11.7676 0)
(201.886 -12.0862 0)
(202.791 -12.3318 0)
(203.698 -12.5642 0)
(204.596 -12.7885 0)
(205.517 -12.9934 0)
(206.471 -13.1966 0)
(207.462 -13.3728 0)
(208.502 -13.5103 0)
(209.613 -13.5961 0)
(210.812 -13.6321 0)
(212.105 -13.6195 0)
(213.486 -13.5694 0)
(214.94 -13.4923 0)
(216.443 -13.3994 0)
(217.965 -13.3116 0)
(219.458 -13.2772 0)
(220.859 -13.3604 0)
(222.122 -13.5909 0)
(223.236 -13.9547 0)
(224.207 -14.4362 0)
(225.045 -15.0244 0)
(225.775 -15.7058 0)
(226.418 -16.4716 0)
(226.988 -17.3172 0)
(227.484 -18.2347 0)
(227.9 -19.2087 0)
(228.232 -20.2216 0)
(228.478 -21.26 0)
(228.643 -22.3137 0)
(228.724 -23.3717 0)
(228.723 -24.4263 0)
(228.647 -25.476 0)
(228.498 -26.5239 0)
(228.267 -27.5502 0)
(227.97 -28.5648 0)
(227.608 -29.5556 0)
(227.176 -30.5052 0)
(226.665 -31.4039 0)
(226.069 -32.2491 0)
(225.473 -33.0728 0)
(224.935 -33.889 0)
(224.318 -34.6506 0)
(223.741 -35.4414 0)
(222.816 -35.9894 0)
(222.155 -36.8365 0)
(220.885 -37.2531 0)
(219.6 -37.8015 0)
(218.198 -38.1841 0)
(216.832 -38.5357 0)
(215.557 -39.0008 0)
(214.227 -39.2729 0)
(212.962 -39.6656 0)
(211.679 -40.0349 0)
(210.4 -40.3363 0)
(209.211 -40.773 0)
(207.96 -41.0403 0)
(206.743 -41.4309 0)
(205.503 -41.7555 0)
(204.283 -42.1061 0)
(203.091 -42.4388 0)
(201.928 -42.7563 0)
(200.769 -43.0744 0)
(199.546 -43.2725 0)
(198.346 -43.4499 0)
(197.264 -43.7115 0)
(196.317 -44.0081 0)
(195.556 -44.5039 0)
(194.629 -44.8782 0)
(193.487 -45.0757 0)
(192.199 -45.2134 0)
(190.84 -45.2976 0)
(189.503 -45.406 0)
(188.25 -45.5376 0)
(187.114 -45.7268 0)
(186.091 -45.9576 0)
(185.162 -46.2301 0)
(184.294 -46.5307 0)
(183.45 -46.8265 0)
(182.625 -47.1386 0)
(181.799 -47.4251 0)
(180.997 -47.7396 0)
(180.195 -48.0242 0)
(179.417 -48.3371 0)
(178.637 -48.6147 0)
(177.881 -48.9132 0)
(177.128 -49.1758 0)
(176.407 -49.4578 0)
(175.704 -49.7065 0)
(175.046 -49.9787 0)
(174.413 -50.2194 0)
(173.822 -50.4854 0)
(173.234 -50.7125 0)
(172.659 -50.9617 0)
(172.049 -51.1501 0)
(171.418 -51.366 0)
(170.717 -51.4848 0)
(169.97 -51.6362 0)
(169.18 -51.7125 0)
(168.377 -51.8111 0)
(167.584 -51.8693 0)
(166.833 -51.9511 0)
(166.153 -52.0251 0)
(165.562 -52.1286 0)
(165.064 -52.2398 0)
(164.654 -52.3789 0)
(164.313 -52.5214 0)
(164.034 -52.6841 0)
(163.81 -52.8414 0)
(163.721 -53.0722 0)
(163.773 -53.2817 0)
(169.204 78.5962 0)
(165.975 12.0921 0)
(182.527 0.698304 0)
(193.37 -3.47395 0)
(196.2 -7.37316 0)
(197.092 -9.0688 0)
(197.555 -9.94228 0)
(198.235 -10.4903 0)
(199.122 -10.9147 0)
(200.08 -11.3522 0)
(201.005 -11.7548 0)
(201.901 -12.0723 0)
(202.807 -12.3163 0)
(203.714 -12.5473 0)
(204.613 -12.7701 0)
(205.535 -12.9731 0)
(206.491 -13.1741 0)
(207.485 -13.3477 0)
(208.528 -13.4819 0)
(209.644 -13.5637 0)
(210.848 -13.5947 0)
(212.148 -13.5768 0)
(213.536 -13.5211 0)
(214.998 -13.4388 0)
(216.51 -13.3412 0)
(218.041 -13.2497 0)
(219.542 -13.2137 0)
(220.949 -13.2975 0)
(222.218 -13.5301 0)
(223.339 -13.8973 0)
(224.319 -14.3832 0)
(225.167 -14.9757 0)
(225.906 -15.6606 0)
(226.561 -16.4294 0)
(227.145 -17.2782 0)
(227.658 -18.2001 0)
(228.092 -19.1801 0)
(228.442 -20.2003 0)
(228.708 -21.2472 0)
(228.892 -22.3104 0)
(228.992 -23.3791 0)
(229.008 -24.4449 0)
(228.952 -25.504 0)
(228.819 -26.5649 0)
(228.604 -27.6049 0)
(228.32 -28.6315 0)
(227.971 -29.6363 0)
(227.551 -30.6012 0)
(227.05 -31.5152 0)
(226.461 -32.3748 0)
(225.871 -33.2111 0)
(225.336 -34.0372 0)
(224.728 -34.8091 0)
(224.153 -35.6028 0)
(223.235 -36.1667 0)
(222.593 -37.0338 0)
(221.324 -37.4687 0)
(220.049 -38.063 0)
(218.639 -38.4414 0)
(217.286 -38.8356 0)
(216.012 -39.2804 0)
(214.692 -39.5426 0)
(213.443 -39.9751 0)
(212.159 -40.3599 0)
(210.89 -40.6754 0)
(209.718 -41.0907 0)
(208.495 -41.327 0)
(207.321 -41.7296 0)
(206.103 -42.0366 0)
(204.906 -42.4154 0)
(203.719 -42.7532 0)
(202.563 -43.1246 0)
(201.387 -43.4642 0)
(200.151 -43.694 0)
(198.959 -43.9019 0)
(197.909 -44.1901 0)
(197.008 -44.5006 0)
(196.304 -45.0056 0)
(195.369 -45.3277 0)
(194.229 -45.5099 0)
(192.958 -45.638 0)
(191.629 -45.7309 0)
(190.325 -45.8632 0)
(189.106 -46.0254 0)
(188.006 -46.2542 0)
(187.018 -46.5149 0)
(186.127 -46.82 0)
(185.292 -47.1347 0)
(184.482 -47.442 0)
(183.691 -47.7492 0)
(182.905 -48.0331 0)
(182.141 -48.3351 0)
(181.377 -48.6084 0)
(180.634 -48.904 0)
(179.886 -49.164 0)
(179.155 -49.4431 0)
(178.424 -49.6884 0)
(177.721 -49.9533 0)
(177.034 -50.1901 0)
(176.389 -50.4512 0)
(175.768 -50.6873 0)
(175.187 -50.9473 0)
(174.613 -51.1777 0)
(174.047 -51.4199 0)
(173.451 -51.6196 0)
(172.824 -51.8206 0)
(172.134 -51.9542 0)
(171.396 -52.0919 0)
(170.615 -52.1763 0)
(169.817 -52.2633 0)
(169.028 -52.3232 0)
(168.28 -52.3963 0)
(167.601 -52.4702 0)
(167.011 -52.5687 0)
(166.517 -52.6815 0)
(166.114 -52.8215 0)
(165.784 -52.9699 0)
(165.513 -53.1436 0)
(165.273 -53.3026 0)
(165.117 -53.5169 0)
(165.135 -53.7668 0)
(169.274 78.6855 0)
(165.989 12.0614 0)
(182.573 0.702811 0)
(193.401 -3.46285 0)
(196.229 -7.3673 0)
(197.112 -9.06202 0)
(197.574 -9.93566 0)
(198.251 -10.4825 0)
(199.136 -10.9044 0)
(200.094 -11.34 0)
(201.019 -11.7415 0)
(201.916 -12.058 0)
(202.822 -12.3005 0)
(203.73 -12.5302 0)
(204.63 -12.7514 0)
(205.553 -12.9527 0)
(206.511 -13.1515 0)
(207.509 -13.3227 0)
(208.557 -13.4537 0)
(209.678 -13.5317 0)
(210.889 -13.5583 0)
(212.196 -13.5356 0)
(213.593 -13.4748 0)
(215.064 -13.3877 0)
(216.586 -13.2857 0)
(218.126 -13.1909 0)
(219.634 -13.1533 0)
(221.045 -13.2369 0)
(222.317 -13.47 0)
(223.442 -13.8385 0)
(224.427 -14.326 0)
(225.282 -14.9197 0)
(226.03 -15.6047 0)
(226.695 -16.3728 0)
(227.292 -17.2209 0)
(227.82 -18.1434 0)
(228.272 -19.126 0)
(228.642 -20.1503 0)
(228.929 -21.2023 0)
(229.134 -22.2718 0)
(229.256 -23.3485 0)
(229.294 -24.4232 0)
(229.258 -25.4891 0)
(229.145 -26.5593 0)
(228.951 -27.6127 0)
(228.684 -28.6498 0)
(228.351 -29.6675 0)
(227.948 -30.6475 0)
(227.462 -31.5769 0)
(226.884 -32.4518 0)
(226.302 -33.3027 0)
(225.773 -34.142 0)
(225.173 -34.9272 0)
(224.601 -35.7231 0)
(223.695 -36.2929 0)
(223.077 -37.1616 0)
(221.823 -37.5986 0)
(220.571 -38.2306 0)
(219.152 -38.6158 0)
(217.81 -39.0666 0)
(216.523 -39.4939 0)
(215.214 -39.7545 0)
(213.994 -40.2298 0)
(212.709 -40.6316 0)
(211.44 -40.9743 0)
(210.264 -41.381 0)
(209.063 -41.6087 0)
(207.934 -42.0107 0)
(206.748 -42.2813 0)
(205.59 -42.6622 0)
(204.423 -42.9859 0)
(203.288 -43.3968 0)
(202.098 -43.7514 0)
(200.849 -44.0225 0)
(199.658 -44.2816 0)
(198.622 -44.6166 0)
(197.751 -44.9721 0)
(197.071 -45.4935 0)
(196.125 -45.7808 0)
(194.983 -45.9495 0)
(193.731 -46.0589 0)
(192.443 -46.1396 0)
(191.194 -46.2662 0)
(190.032 -46.4303 0)
(188.988 -46.6755 0)
(188.047 -46.9543 0)
(187.201 -47.2919 0)
(186.395 -47.628 0)
(185.61 -47.9612 0)
(184.835 -48.2817 0)
(184.07 -48.5859 0)
(183.325 -48.8949 0)
(182.582 -49.1775 0)
(181.857 -49.4706 0)
(181.127 -49.7286 0)
(180.412 -49.9988 0)
(179.698 -50.2352 0)
(179.01 -50.4884 0)
(178.339 -50.7153 0)
(177.707 -50.9649 0)
(177.1 -51.1917 0)
(176.532 -51.4408 0)
(175.97 -51.663 0)
(175.415 -51.8933 0)
(174.83 -52.0874 0)
(174.208 -52.2721 0)
(173.527 -52.4004 0)
(172.794 -52.5246 0)
(172.018 -52.6014 0)
(171.222 -52.6746 0)
(170.434 -52.7256 0)
(169.688 -52.7857 0)
(169.011 -52.8523 0)
(168.425 -52.9397 0)
(167.937 -53.049 0)
(167.544 -53.18 0)
(167.232 -53.3313 0)
(166.983 -53.4992 0)
(166.771 -53.6769 0)
(166.581 -53.8695 0)
(166.503 -54.1483 0)
(169.33 78.7657 0)
(166.005 12.0335 0)
(182.62 0.706997 0)
(193.434 -3.45295 0)
(196.256 -7.35787 0)
(197.134 -9.05686 0)
(197.592 -9.92924 0)
(198.268 -10.4748 0)
(199.152 -10.8946 0)
(200.109 -11.3282 0)
(201.034 -11.7284 0)
(201.931 -12.0437 0)
(202.838 -12.2846 0)
(203.746 -12.5129 0)
(204.647 -12.7325 0)
(205.572 -12.9319 0)
(206.532 -13.1284 0)
(207.532 -13.297 0)
(208.584 -13.4245 0)
(209.709 -13.4982 0)
(210.926 -13.5198 0)
(212.239 -13.4916 0)
(213.643 -13.4251 0)
(215.123 -13.3325 0)
(216.654 -13.2256 0)
(218.204 -13.1272 0)
(219.719 -13.0881 0)
(221.137 -13.1723 0)
(222.415 -13.4075 0)
(223.547 -13.7794 0)
(224.54 -14.2711 0)
(225.404 -14.8688 0)
(226.164 -15.5572 0)
(226.841 -16.3278 0)
(227.453 -17.1785 0)
(227.998 -18.1047 0)
(228.468 -19.0927 0)
(228.858 -20.124 0)
(229.165 -21.1841 0)
(229.391 -22.2627 0)
(229.534 -23.3501 0)
(229.594 -24.4357 0)
(229.574 -25.5144 0)
(229.48 -26.5923 0)
(229.307 -27.6628 0)
(229.055 -28.713 0)
(228.735 -29.7445 0)
(228.345 -30.7402 0)
(227.871 -31.6848 0)
(227.304 -32.5738 0)
(226.728 -33.4381 0)
(226.203 -34.2922 0)
(225.609 -35.095 0)
(225.038 -35.8999 0)
(224.14 -36.4804 0)
(223.542 -37.344 0)
(222.305 -37.7719 0)
(221.073 -38.4221 0)
(219.645 -38.8186 0)
(218.303 -39.3288 0)
(216.997 -39.7477 0)
(215.705 -40.0274 0)
(214.518 -40.5308 0)
(213.234 -40.9285 0)
(211.959 -41.3072 0)
(210.764 -41.7358 0)
(209.569 -42.0133 0)
(208.473 -42.4315 0)
(207.331 -42.6782 0)
(206.231 -43.0302 0)
(205.111 -43.3016 0)
(204.02 -43.6985 0)
(202.839 -44.0267 0)
(201.591 -44.3159 0)
(200.406 -44.6254 0)
(199.379 -45.0105 0)
(198.528 -45.4354 0)
(197.844 -45.9774 0)
(196.884 -46.2539 0)
(195.74 -46.422 0)
(194.502 -46.528 0)
(193.25 -46.6106 0)
(192.052 -46.7423 0)
(190.948 -46.9163 0)
(189.962 -47.1785 0)
(189.076 -47.4769 0)
(188.281 -47.8407 0)
(187.508 -48.1881 0)
(186.752 -48.533 0)
(186.002 -48.8538 0)
(185.266 -49.1644 0)
(184.544 -49.4651 0)
(183.83 -49.7447 0)
(183.128 -50.0221 0)
(182.425 -50.27 0)
(181.736 -50.5228 0)
(181.051 -50.7466 0)
(180.391 -50.9847 0)
(179.749 -51.2007 0)
(179.146 -51.4393 0)
(178.567 -51.6583 0)
(178.026 -51.8993 0)
(177.491 -52.1154 0)
(176.961 -52.338 0)
(176.401 -52.529 0)
(175.799 -52.6977 0)
(175.14 -52.8342 0)
(174.427 -52.942 0)
(173.669 -53.0179 0)
(172.887 -53.0775 0)
(172.112 -53.1199 0)
(171.379 -53.1676 0)
(170.717 -53.2214 0)
(170.148 -53.296 0)
(169.68 -53.3917 0)
(169.31 -53.5083 0)
(169.028 -53.646 0)
(168.819 -53.7991 0)
(168.678 -53.976 0)
(168.593 -54.1712 0)
(168.498 -54.3609 0)
(169.396 78.8529 0)
(166.022 12.0074 0)
(182.667 0.711115 0)
(193.467 -3.44202 0)
(196.285 -7.35179 0)
(197.155 -9.05002 0)
(197.611 -9.9225 0)
(198.285 -10.4668 0)
(199.167 -10.8841 0)
(200.124 -11.3157 0)
(201.049 -11.7148 0)
(201.946 -12.0291 0)
(202.853 -12.2684 0)
(203.763 -12.4954 0)
(204.664 -12.7134 0)
(205.59 -12.911 0)
(206.553 -13.1052 0)
(207.556 -13.2713 0)
(208.612 -13.3955 0)
(209.744 -13.4653 0)
(210.968 -13.4823 0)
(212.289 -13.449 0)
(213.701 -13.3773 0)
(215.191 -13.2796 0)
(216.732 -13.1682 0)
(218.291 -13.0664 0)
(219.813 -13.0258 0)
(221.234 -13.1098 0)
(222.515 -13.3454 0)
(223.651 -13.7183 0)
(224.649 -14.2115 0)
(225.521 -14.8103 0)
(226.289 -15.4989 0)
(226.978 -16.2686 0)
(227.603 -17.1183 0)
(228.164 -18.0447 0)
(228.654 -19.0349 0)
(229.064 -20.0702 0)
(229.393 -21.1355 0)
(229.641 -22.2205 0)
(229.808 -23.3155 0)
(229.892 -24.4102 0)
(229.893 -25.4994 0)
(229.821 -26.5821 0)
(229.67 -27.6678 0)
(229.438 -28.7307 0)
(229.136 -29.7748 0)
(228.763 -30.7861 0)
(228.304 -31.7469 0)
(227.75 -32.6508 0)
(227.186 -33.5282 0)
(226.669 -34.3962 0)
(226.085 -35.2182 0)
(225.513 -36.0375 0)
(224.623 -36.6346 0)
(224.036 -37.491 0)
(222.818 -37.8964 0)
(221.614 -38.5439 0)
(220.19 -38.9388 0)
(218.858 -39.5072 0)
(217.531 -39.9283 0)
(216.256 -40.2449 0)
(215.106 -40.7599 0)
(213.835 -41.1264 0)
(212.576 -41.5376 0)
(211.37 -42.0044 0)
(210.167 -42.3635 0)
(209.066 -42.8256 0)
(207.932 -43.0949 0)
(206.866 -43.4467 0)
(205.792 -43.6838 0)
(204.752 -44.0476 0)
(203.596 -44.3165 0)
(202.378 -44.5798 0)
(201.227 -44.903 0)
(200.227 -45.3107 0)
(199.409 -45.81 0)
(198.692 -46.3718 0)
(197.705 -46.6629 0)
(196.544 -46.8531 0)
(195.306 -46.974 0)
(194.081 -47.0683 0)
(192.935 -47.2058 0)
(191.898 -47.3846 0)
(190.985 -47.6559 0)
(190.168 -47.97 0)
(189.432 -48.3508 0)
(188.694 -48.7036 0)
(187.966 -49.057 0)
(187.238 -49.3825 0)
(186.524 -49.7043 0)
(185.818 -50.0048 0)
(185.122 -50.2915 0)
(184.435 -50.5634 0)
(183.752 -50.812 0)
(183.082 -51.0545 0)
(182.421 -51.2757 0)
(181.787 -51.5041 0)
(181.175 -51.7127 0)
(180.602 -51.9394 0)
(180.054 -52.1474 0)
(179.543 -52.3759 0)
(179.037 -52.577 0)
(178.536 -52.7898 0)
(178 -52.9598 0)
(177.424 -53.1256 0)
(176.786 -53.241 0)
(176.091 -53.3432 0)
(175.345 -53.4001 0)
(174.571 -53.4492 0)
(173.801 -53.4735 0)
(173.07 -53.5063 0)
(172.412 -53.542 0)
(171.847 -53.5991 0)
(171.387 -53.6768 0)
(171.025 -53.7746 0)
(170.753 -53.894 0)
(170.554 -54.0254 0)
(170.428 -54.1818 0)
(170.369 -54.3554 0)
(170.32 -54.5202 0)
(169.457 78.9306 0)
(166.039 11.981 0)
(182.716 0.715032 0)
(193.501 -3.43204 0)
(196.314 -7.34243 0)
(197.178 -9.0448 0)
(197.631 -9.91602 0)
(198.303 -10.459 0)
(199.183 -10.8741 0)
(200.14 -11.3038 0)
(201.065 -11.7015 0)
(201.962 -12.0145 0)
(202.869 -12.2522 0)
(203.779 -12.4778 0)
(204.682 -12.6941 0)
(205.609 -12.8898 0)
(206.573 -13.0817 0)
(207.58 -13.2449 0)
(208.64 -13.3655 0)
(209.776 -13.4309 0)
(211.005 -13.4427 0)
(212.333 -13.4039 0)
(213.753 -13.3262 0)
(215.251 -13.2228 0)
(216.802 -13.1064 0)
(218.37 -13.0011 0)
(219.899 -12.959 0)
(221.326 -13.0437 0)
(222.613 -13.2814 0)
(223.756 -13.6576 0)
(224.763 -14.1548 0)
(225.645 -14.7575 0)
(226.425 -15.4491 0)
(227.126 -16.221 0)
(227.766 -17.0727 0)
(228.345 -18.0021 0)
(228.854 -18.9971 0)
(229.285 -20.0389 0)
(229.635 -21.112 0)
(229.906 -22.2058 0)
(230.095 -23.311 0)
(230.202 -24.4175 0)
(230.223 -25.5187 0)
(230.171 -26.6118 0)
(230.04 -27.7106 0)
(229.827 -28.7898 0)
(229.54 -29.8481 0)
(229.181 -30.8756 0)
(228.735 -31.8535 0)
(228.193 -32.7727 0)
(227.638 -33.6624 0)
(227.13 -34.5415 0)
(226.555 -35.3791 0)
(225.981 -36.2144 0)
(225.092 -36.8414 0)
(224.506 -37.7108 0)
(223.303 -38.1154 0)
(222.128 -38.753 0)
(220.719 -39.1296 0)
(219.398 -39.7242 0)
(218.052 -40.1504 0)
(216.783 -40.532 0)
(215.653 -41.0537 0)
(214.402 -41.3648 0)
(213.179 -41.7753 0)
(211.984 -42.247 0)
(210.787 -42.6759 0)
(209.671 -43.1848 0)
(208.526 -43.5117 0)
(207.464 -43.9026 0)
(206.413 -44.1557 0)
(205.415 -44.5138 0)
(204.295 -44.7429 0)
(203.123 -44.9714 0)
(202.026 -45.2719 0)
(201.074 -45.6477 0)
(200.318 -46.1747 0)
(199.571 -46.7067 0)
(198.571 -46.996 0)
(197.402 -47.2064 0)
(196.158 -47.3596 0)
(194.94 -47.4979 0)
(193.823 -47.6791 0)
(192.834 -47.9009 0)
(191.985 -48.2102 0)
(191.23 -48.5555 0)
(190.543 -48.9449 0)
(189.84 -49.2899 0)
(189.143 -49.6318 0)
(188.444 -49.945 0)
(187.758 -50.2562 0)
(187.076 -50.5415 0)
(186.404 -50.8196 0)
(185.737 -51.0729 0)
(185.074 -51.3157 0)
(184.422 -51.547 0)
(183.783 -51.7595 0)
(183.169 -51.9752 0)
(182.58 -52.1735 0)
(182.03 -52.3851 0)
(181.507 -52.5799 0)
(181.018 -52.79 0)
(180.536 -52.9764 0)
(180.056 -53.1694 0)
(179.544 -53.3267 0)
(178.99 -53.4753 0)
(178.372 -53.5795 0)
(177.692 -53.6675 0)