/*--------------------------------*- C++ -*----------------------------------*\
| =========                 |                                                 |
| \\      /  F ield         | OpenFOAM: The Open Source CFD Toolbox           |
|  \\    /   O peration     | Version:  2406                                  |
|   \\  /    A nd           | Website:  www.openfoam.com                      |
|    \\/     M anipulation  |                                                 |
\*---------------------------------------------------------------------------*/
FoamFile
{
    version     2.0;
    format      ascii;
    arch        "LSB;label=32;scalar=64";
    class       volVectorField;
    location    "0.046";
    object      U;
}
// * * * * * * * * * * * * * * * * * * * * * * * * * * * * * * * * * * * * * //

dimensions      [0 1 -1 0 0 0 0];

internalField   nonuniform List<vector> 
78650
(
(173.487 30.2528 0)
(199.931 -2.70193 0)
(202.682 -2.58037 0)
(204.031 -1.9495 0)
(205.87 -1.69606 0)
(207.508 -1.50733 0)
(208.663 -1.6317 0)
(209.494 -1.77272 0)
(210.259 -1.83859 0)
(211.054 -1.83642 0)
(211.902 -1.75807 0)
(212.749 -1.59518 0)
(213.502 -1.34495 0)
(214.127 -1.02431 0)
(214.642 -0.659031 0)
(215.094 -0.274557 0)
(215.518 0.11346 0)
(215.929 0.496194 0)
(216.339 0.878342 0)
(216.738 1.27013 0)
(217.119 1.6815 0)
(217.478 2.1201 0)
(217.815 2.58925 0)
(218.126 3.09421 0)
(218.415 3.63533 0)
(218.67 4.21623 0)
(218.905 4.8321 0)
(219.115 5.48224 0)
(219.309 6.16259 0)
(219.498 6.86858 0)
(219.671 7.60195 0)
(219.836 8.35898 0)
(219.996 9.13948 0)
(220.149 9.94414 0)
(220.292 10.7734 0)
(220.423 11.628 0)
(220.541 12.5083 0)
(220.646 13.415 0)
(220.738 14.3488 0)
(220.818 15.3106 0)
(220.887 16.3013 0)
(220.944 17.3216 0)
(220.991 18.3723 0)
(221.028 19.4539 0)
(221.058 20.5669 0)
(221.083 21.7115 0)
(221.104 22.8882 0)
(221.123 24.0974 0)
(221.144 25.3392 0)
(221.168 26.6144 0)
(221.198 27.9235 0)
(221.237 29.267 0)
(221.29 30.6456 0)
(221.36 32.0591 0)
(221.449 33.5074 0)
(221.565 34.9911 0)
(221.713 36.5107 0)
(221.893 38.0655 0)
(222.113 39.6561 0)
(222.384 41.2827 0)
(222.7 42.9439 0)
(223.077 44.6401 0)
(223.526 46.3696 0)
(224.036 48.1303 0)
(224.636 49.9215 0)
(225.326 51.7416 0)
(226.102 53.5899 0)
(226.997 55.4628 0)
(227.991 57.3559 0)
(229.107 59.2654 0)
(230.37 61.1864 0)
(231.753 63.1192 0)
(233.301 65.0557 0)
(235.01 66.9851 0)
(236.868 68.901 0)
(238.927 70.7844 0)
(241.167 72.6224 0)
(243.578 74.4159 0)
(246.222 76.1418 0)
(249.037 77.8162 0)
(252.082 79.4046 0)
(255.337 80.899 0)
(258.796 82.2953 0)
(262.471 83.5723 0)
(266.364 84.7423 0)
(270.498 85.7514 0)
(274.844 86.6017 0)
(279.243 87.1956 0)
(284.064 87.6249 0)
(288.952 87.7628 0)
(293.657 87.8509 0)
(297.961 87.8999 0)
(302.525 87.7236 0)
(307.946 87.2305 0)
(312.922 86.5913 0)
(316.493 86.2251 0)
(320.528 85.5977 0)
(325.57 84.5703 0)
(331.626 83.276 0)
(335.958 82.0883 0)
(339.165 81.0529 0)
(341.716 80.2429 0)
(344.853 79.1816 0)
(348.654 77.9843 0)
(353.132 76.44 0)
(356.295 75.3458 0)
(359.749 74.0082 0)
(362.163 73.2773 0)
(365.082 72.0828 0)
(367.236 71.2549 0)
(369.795 70.0278 0)
(371.743 69.2115 0)
(373.839 68.122 0)
(375.193 67.4191 0)
(376.287 66.5496 0)
(376.913 66.0649 0)
(377.665 65.5378 0)
(378.886 65.495 0)
(381.094 65.347 0)
(384.489 64.9311 0)
(385.782 66.9388 0)
(174.304 30.4057 0)
(199.84 -2.1363 0)
(202.868 -2.29371 0)
(204.206 -1.64195 0)
(206.034 -1.38734 0)
(207.573 -1.25524 0)
(208.652 -1.41384 0)
(209.472 -1.57336 0)
(210.233 -1.646 0)
(211.02 -1.63949 0)
(211.846 -1.55093 0)
(212.669 -1.38816 0)
(213.417 -1.14896 0)
(214.046 -0.844095 0)
(214.56 -0.493113 0)
(214.998 -0.11973 0)
(215.397 0.259794 0)
(215.782 0.635232 0)
(216.161 1.00876 0)
(216.531 1.38928 0)
(216.884 1.78722 0)
(217.215 2.21138 0)
(217.525 2.66598 0)
(217.81 3.15651 0)
(218.074 3.68344 0)
(218.303 4.25024 0)
(218.514 4.85209 0)
(218.695 5.48896 0)
(218.862 6.15501 0)
(219.021 6.84759 0)
(219.162 7.56732 0)
(219.296 8.30966 0)
(219.425 9.07551 0)
(219.546 9.8654 0)
(219.657 10.6796 0)
(219.757 11.5187 0)
(219.843 12.3833 0)
(219.917 13.274 0)
(219.977 14.1914 0)
(220.025 15.1363 0)
(220.06 16.1098 0)
(220.084 17.1124 0)
(220.095 18.1451 0)
(220.097 19.2083 0)
(220.089 20.3024 0)
(220.074 21.4279 0)
(220.053 22.5851 0)
(220.028 23.7746 0)
(220.002 24.9966 0)
(219.976 26.2517 0)
(219.954 27.5407 0)
(219.936 28.8641 0)
(219.93 30.2228 0)
(219.935 31.617 0)
(219.955 33.0461 0)
(219.997 34.5116 0)
(220.066 36.0138 0)
(220.161 37.5521 0)
(220.291 39.1275 0)
(220.464 40.7405 0)
(220.674 42.3901 0)
(220.939 44.0772 0)
(221.267 45.8009 0)
(221.646 47.5593 0)
(222.108 49.3533 0)
(222.648 51.1806 0)
(223.266 53.0401 0)
(223.994 54.9302 0)
(224.811 56.849 0)
(225.742 58.7967 0)
(226.805 60.7681 0)
(227.977 62.7578 0)
(229.309 64.7551 0)
(230.792 66.7515 0)
(232.419 68.746 0)
(234.241 70.7287 0)
(236.233 72.6945 0)
(238.396 74.6431 0)
(240.789 76.55 0)
(243.348 78.4168 0)
(246.133 80.2058 0)
(249.12 81.911 0)
(252.307 83.5225 0)
(255.693 85.0228 0)
(259.241 86.4339 0)
(262.982 87.6896 0)
(266.886 88.8219 0)
(271.026 89.7669 0)
(275.324 90.5671 0)
(279.736 91.1985 0)
(284.027 91.6818 0)
(288.761 91.9942 0)
(294.002 92.0938 0)
(298.704 91.9711 0)
(302.879 91.8465 0)
(307.57 91.4352 0)
(313.598 90.733 0)
(318.38 89.9415 0)
(322.639 89.1614 0)
(326.021 88.536 0)
(329.619 87.8066 0)
(334.316 86.6938 0)
(339.19 85.3586 0)
(343.538 84.0279 0)
(347.231 82.7184 0)
(350.116 81.7155 0)
(353.034 80.5356 0)
(355.555 79.8478 0)
(358.492 78.8404 0)
(360.917 78.1255 0)
(363.724 76.9938 0)
(365.998 76.1889 0)
(368.707 75.0727 0)
(370.61 74.2743 0)
(372.577 73.0775 0)
(373.659 72.1684 0)
(374.63 71.0678 0)
(375.754 70.4519 0)
(377.981 70.1257 0)
(381.652 69.9789 0)
(383.071 72.4799 0)
(174.457 30.0744 0)
(200.354 -1.66524 0)
(203.093 -2.0182 0)
(204.39 -1.39005 0)
(206.204 -1.14929 0)
(207.637 -1.04608 0)
(208.644 -1.20305 0)
(209.443 -1.37603 0)
(210.192 -1.46138 0)
(210.948 -1.46039 0)
(211.736 -1.36739 0)
(212.537 -1.20028 0)
(213.283 -0.966749 0)
(213.921 -0.675888 0)
(214.44 -0.339702 0)
(214.868 0.0207294 0)
(215.242 0.387217 0)
(215.595 0.751562 0)
(215.943 1.11473 0)
(216.286 1.48321 0)
(216.614 1.86768 0)
(216.919 2.27808 0)
(217.205 2.71935 0)
(217.464 3.19697 0)
(217.704 3.7116 0)
(217.911 4.26638 0)
(218.098 4.85676 0)
(218.255 5.48267 0)
(218.399 6.13684 0)
(218.528 6.81845 0)
(218.64 7.5263 0)
(218.745 8.25575 0)
(218.843 9.00856 0)
(218.933 9.78488 0)
(219.013 10.5851 0)
(219.081 11.4098 0)
(219.136 12.2599 0)
(219.177 13.1359 0)
(219.205 14.0383 0)
(219.22 14.9679 0)
(219.222 15.9257 0)
(219.211 16.9126 0)
(219.187 17.9294 0)
(219.151 18.9767 0)
(219.104 20.055 0)
(219.049 21.1646 0)
(218.985 22.3059 0)
(218.915 23.4795 0)
(218.84 24.6858 0)
(218.764 25.9253 0)
(218.688 27.1985 0)
(218.614 28.5061 0)
(218.547 29.8491 0)
(218.488 31.2279 0)
(218.44 32.6416 0)
(218.41 34.0918 0)
(218.402 35.579 0)
(218.415 37.1026 0)
(218.457 38.6637 0)
(218.537 40.2633 0)
(218.648 41.8999 0)
(218.807 43.5752 0)
(219.02 45.2884 0)
(219.278 47.0377 0)
(219.611 48.8243 0)
(220.011 50.6459 0)
(220.482 52.5022 0)
(221.053 54.3933 0)
(221.7 56.3166 0)
(222.452 58.2711 0)
(223.322 60.2512 0)
(224.29 62.2535 0)
(225.407 64.2747 0)
(226.658 66.3117 0)
(228.037 68.364 0)
(229.599 70.4204 0)
(231.309 72.4718 0)
(233.186 74.5114 0)
(235.279 76.5185 0)
(237.523 78.4958 0)
(239.988 80.4177 0)
(242.649 82.2832 0)
(245.517 84.0828 0)
(248.593 85.8182 0)
(251.875 87.4893 0)
(255.39 89.0264 0)
(259.064 90.4911 0)
(262.973 91.7764 0)
(267.043 92.9255 0)
(271.307 93.8825 0)
(275.835 94.6485 0)
(280.475 95.1996 0)
(285.139 95.6333 0)
(289.455 95.9523 0)
(294.444 95.9832 0)
(299.299 95.7667 0)
(304.601 95.4971 0)
(308.745 95.1813 0)
(312.504 94.8858 0)
(317.308 94.26 0)
(322.405 93.4334 0)
(327.684 92.3925 0)
(331.701 91.4928 0)
(335.292 90.5796 0)
(338.689 89.544 0)
(342.001 88.6282 0)
(346.037 87.3304 0)
(349.175 86.4517 0)
(352.436 85.3503 0)
(355.049 84.6262 0)
(357.876 83.5367 0)
(360.33 82.8204 0)
(363.057 81.8562 0)
(365.108 81.3868 0)
(367.153 80.5202 0)
(368.611 79.771 0)
(370.149 78.7604 0)
(371.947 78.0394 0)
(374.644 77.3983 0)
(378.256 76.965 0)
(379.836 78.3712 0)
(174.484 29.2186 0)
(200.778 -1.6503 0)
(203.176 -1.71246 0)
(204.563 -1.1555 0)
(206.329 -0.938556 0)
(207.566 -0.872236 0)
(208.491 -1.02849 0)
(209.315 -1.20709 0)
(210.098 -1.30402 0)
(210.846 -1.30873 0)
(211.584 -1.21697 0)
(212.327 -1.05311 0)
(213.048 -0.827325 0)
(213.694 -0.547225 0)
(214.228 -0.223534 0)
(214.659 0.123798 0)
(215.021 0.479875 0)
(215.352 0.835462 0)
(215.674 1.19011 0)
(215.993 1.54918 0)
(216.3 1.92293 0)
(216.585 2.3218 0)
(216.848 2.75136 0)
(217.086 3.21697 0)
(217.302 3.7196 0)
(217.487 4.26193 0)
(217.653 4.84025 0)
(217.787 5.45413 0)
(217.91 6.09558 0)
(218.013 6.76554 0)
(218.099 7.46062 0)
(218.179 8.17658 0)
(218.248 8.91571 0)
(218.309 9.67765 0)
(218.358 10.4628 0)
(218.396 11.272 0)
(218.42 12.1061 0)
(218.43 12.9658 0)
(218.427 13.8517 0)
(218.41 14.764 0)
(218.38 15.7038 0)
(218.336 16.6722 0)
(218.278 17.6701 0)
(218.207 18.6981 0)
(218.124 19.7565 0)
(218.03 20.8459 0)
(217.927 21.9665 0)
(217.814 23.1191 0)
(217.696 24.3041 0)
(217.573 25.5218 0)
(217.447 26.7729 0)
(217.321 28.0581 0)
(217.197 29.3782 0)
(217.077 30.7348 0)
(216.966 32.1259 0)
(216.867 33.5539 0)
(216.785 35.0193 0)
(216.719 36.5217 0)
(216.677 38.0621 0)
(216.666 39.6418 0)
(216.679 41.2596 0)
(216.735 42.918 0)
(216.834 44.6163 0)
(216.971 46.3532 0)
(217.174 48.1312 0)
(217.433 49.9477 0)
(217.756 51.8035 0)
(218.167 53.6989 0)
(218.644 55.6309 0)
(219.219 57.6005 0)
(219.9 59.6052 0)
(220.668 61.6436 0)
(221.574 63.7133 0)
(222.599 65.8071 0)
(223.747 67.9194 0)
(225.071 70.0404 0)
(226.532 72.1649 0)
(228.157 74.2921 0)
(229.984 76.4103 0)
(231.951 78.5211 0)
(234.138 80.6023 0)
(236.516 82.6493 0)
(239.102 84.645 0)
(241.885 86.5852 0)
(244.883 88.4463 0)
(248.088 90.1966 0)
(251.447 91.8806 0)
(255.061 93.3897 0)
(258.817 94.8297 0)
(262.84 96.061 0)
(267.079 97.2128 0)
(271.39 98.1344 0)
(275.852 98.9341 0)
(280.509 99.5142 0)
(285.604 100.006 0)
(290.26 100.222 0)
(294.53 100.411 0)
(299.414 100.366 0)
(304.367 100.077 0)
(309.965 99.6104 0)
(314.614 99.0952 0)
(318.835 98.5771 0)
(323.062 97.7901 0)
(326.877 97.2156 0)
(331.747 96.1944 0)
(335.834 95.2147 0)
(340.402 93.8655 0)
(343.877 92.8607 0)
(347.625 91.5974 0)
(350.471 90.7685 0)
(353.762 89.5492 0)
(356.336 88.7459 0)
(359.141 87.7429 0)
(361.268 87.2046 0)
(363.148 86.4266 0)
(364.322 85.8975 0)
(365.472 84.8981 0)
(366.771 84.1863 0)
(369.232 83.523 0)
(373.633 82.7922 0)
(375.303 85.1152 0)
(174.148 28.1755 0)
(200.94 -1.63693 0)
(203.295 -1.55428 0)
(204.886 -1.06356 0)
(206.415 -0.838221 0)
(207.371 -0.793527 0)
(208.189 -0.927781 0)
(209.055 -1.09698 0)
(209.898 -1.20012 0)
(210.659 -1.20781 0)
(211.358 -1.11729 0)
(212.041 -0.958515 0)
(212.716 -0.742803 0)
(213.351 -0.474418 0)
(213.899 -0.161424 0)
(214.346 0.176607 0)
(214.712 0.524634 0)
(215.033 0.873419 0)
(215.339 1.22174 0)
(215.64 1.57386 0)
(215.931 1.93978 0)
(216.2 2.33018 0)
(216.447 2.75105 0)
(216.666 3.20745 0)
(216.862 3.70066 0)
(217.028 4.23278 0)
(217.171 4.80129 0)
(217.287 5.40485 0)
(217.389 6.03578 0)
(217.466 6.69604 0)
(217.53 7.38009 0)
(217.586 8.08451 0)
(217.628 8.81171 0)
(217.66 9.56097 0)
(217.68 10.3326 0)
(217.687 11.1273 0)
(217.681 11.9464 0)
(217.66 12.7905 0)
(217.625 13.6607 0)
(217.575 14.5567 0)
(217.512 15.4785 0)
(217.434 16.4301 0)
(217.341 17.4107 0)
(217.234 18.421 0)
(217.114 19.4616 0)
(216.98 20.533 0)
(216.835 21.6357 0)
(216.679 22.77 0)
(216.515 23.9365 0)
(216.343 25.1358 0)
(216.166 26.3684 0)
(215.986 27.6348 0)
(215.806 28.9358 0)
(215.624 30.2746 0)
(215.449 31.6465 0)
(215.282 33.0543 0)
(215.126 34.4999 0)
(214.983 35.9833 0)
(214.86 37.5043 0)
(214.76 39.0653 0)
(214.681 40.6645 0)
(214.638 42.3046 0)
(214.631 43.9851 0)
(214.655 45.7046 0)
(214.738 47.4666 0)
(214.867 49.2679 0)
(215.053 51.1096 0)
(215.317 52.9926 0)
(215.637 54.914 0)
(216.048 56.8766 0)
(216.548 58.8778 0)
(217.125 60.9152 0)
(217.829 62.9871 0)
(218.633 65.0871 0)
(219.553 67.2148 0)
(220.632 69.3683 0)
(221.827 71.5456 0)
(223.175 73.7439 0)
(224.707 75.9484 0)
(226.368 78.1528 0)
(228.245 80.3405 0)
(230.303 82.5092 0)
(232.562 84.647 0)
(235.018 86.7498 0)
(237.697 88.7924 0)
(240.57 90.7728 0)
(243.644 92.7056 0)
(246.99 94.5102 0)
(250.445 96.2821 0)
(254.179 97.8464 0)
(258.016 99.3475 0)
(262.126 100.643 0)
(266.483 101.804 0)
(270.983 102.724 0)
(275.326 103.508 0)
(280.014 104.198 0)
(284.673 104.624 0)
(289.833 104.907 0)
(294.845 105.013 0)
(299.6 104.963 0)
(304.087 104.644 0)
(308.067 104.509 0)
(313.336 104.028 0)
(317.666 103.525 0)
(322.53 102.674 0)
(326.611 101.939 0)
(330.745 100.977 0)
(334.544 100.16 0)
(338.498 99.1753 0)
(341.91 98.5337 0)
(345.987 97.5991 0)
(349.101 96.8129 0)
(353.041 95.4795 0)
(355.842 94.3062 0)
(358.784 92.8001 0)
(360.532 91.7923 0)
(362.047 90.6792 0)
(363.508 90.0003 0)
(366.078 89.611 0)
(370.688 89.3226 0)
(372.317 92.4964 0)
(173.962 26.7257 0)
(200.92 -1.71822 0)
(203.469 -1.53734 0)
(205.095 -0.984445 0)
(206.331 -0.795101 0)
(207.033 -0.78585 0)
(207.744 -0.918436 0)
(208.625 -1.07045 0)
(209.535 -1.17027 0)
(210.345 -1.1715 0)
(211.042 -1.08004 0)
(211.683 -0.927473 0)
(212.307 -0.719564 0)
(212.911 -0.459262 0)
(213.459 -0.154085 0)
(213.925 0.17718 0)
(214.308 0.519792 0)
(214.636 0.864189 0)
(214.936 1.209 0)
(215.225 1.55767 0)
(215.503 1.91952 0)
(215.761 2.305 0)
(215.996 2.72032 0)
(216.2 3.17008 0)
(216.38 3.65576 0)
(216.529 4.17878 0)
(216.652 4.73798 0)
(216.75 5.33083 0)
(216.833 5.95101 0)
(216.887 6.60042 0)
(216.932 7.27313 0)
(216.966 7.96545 0)
(216.984 8.67977 0)
(216.989 9.4155 0)
(216.982 10.1724 0)
(216.961 10.9508 0)
(216.926 11.7537 0)
(216.876 12.581 0)
(216.81 13.433 0)
(216.73 14.3108 0)
(216.634 15.2149 0)
(216.524 16.1464 0)
(216.399 17.1064 0)
(216.258 18.0957 0)
(216.102 19.1149 0)
(215.931 20.1643 0)
(215.747 21.2446 0)
(215.551 22.3561 0)
(215.344 23.4993 0)
(215.127 24.6747 0)
(214.903 25.8829 0)
(214.673 27.1248 0)
(214.438 28.4015 0)
(214.202 29.7122 0)
(213.967 31.0586 0)
(213.737 32.4407 0)
(213.512 33.8609 0)
(213.294 35.3202 0)
(213.093 36.8138 0)
(212.908 38.3487 0)
(212.739 39.9229 0)
(212.6 41.539 0)
(212.487 43.1972 0)
(212.4 44.8954 0)
(212.364 46.6388 0)
(212.362 48.4234 0)
(212.411 50.2516 0)
(212.527 52.1251 0)
(212.687 54.0406 0)
(212.932 56.0025 0)
(213.251 58.0074 0)
(213.64 60.0545 0)
(214.145 62.1451 0)
(214.734 64.2741 0)
(215.432 66.4418 0)
(216.275 68.6442 0)
(217.218 70.8734 0)
(218.315 73.1245 0)
(219.581 75.3861 0)
(220.968 77.6578 0)
(222.563 79.9358 0)
(224.32 82.2187 0)
(226.261 84.491 0)
(228.392 86.743 0)
(230.737 88.953 0)
(233.259 91.1263 0)
(236.002 93.2546 0)
(238.983 95.3023 0)
(242.109 97.3161 0)
(245.555 99.1587 0)
(249.116 100.966 0)
(252.978 102.543 0)
(256.963 104.072 0)
(261.156 105.408 0)
(265.587 106.587 0)
(270.15 107.554 0)
(275.057 108.451 0)
(279.715 109.096 0)
(284.512 109.561 0)
(288.79 109.957 0)
(294.078 110.159 0)
(298.868 110.068 0)
(304.382 109.838 0)
(309.089 109.539 0)
(313.673 109.195 0)
(318.229 108.675 0)
(322.363 108.081 0)
(326.761 107.195 0)
(330.789 106.254 0)
(334.312 105.514 0)
(337.766 104.723 0)
(340.788 104.314 0)
(344.464 103.397 0)
(347.485 102.72 0)
(350.747 101.596 0)
(352.976 100.823 0)
(355.047 99.7964 0)
(357.036 99.2305 0)
(360.162 98.5408 0)
(364.87 97.9777 0)
(366.61 100.574 0)
(173.874 24.9792 0)
(200.828 -1.80963 0)
(203.59 -1.48715 0)
(205.207 -0.94459 0)
(206.138 -0.874799 0)
(206.633 -0.90118 0)
(207.236 -0.999805 0)
(208.083 -1.12455 0)
(209.033 -1.21039 0)
(209.905 -1.2029 0)
(210.635 -1.11068 0)
(211.264 -0.962371 0)
(211.843 -0.757853 0)
(212.399 -0.500194 0)
(212.925 -0.197907 0)
(213.4 0.129404 0)
(213.808 0.46792 0)
(214.155 0.809005 0)
(214.461 1.15118 0)
(214.745 1.49759 0)
(215.015 1.8573 0)
(215.265 2.2403 0)
(215.491 2.6528 0)
(215.686 3.09874 0)
(215.853 3.57945 0)
(215.988 4.09564 0)
(216.093 4.64731 0)
(216.177 5.23085 0)
(216.239 5.84206 0)
(216.273 6.48059 0)
(216.299 7.14333 0)
(216.312 7.82432 0)
(216.307 8.52781 0)
(216.288 9.25148 0)
(216.255 9.99524 0)
(216.207 10.7603 0)
(216.144 11.5477 0)
(216.065 12.3586 0)
(215.969 13.1936 0)
(215.857 14.0535 0)
(215.73 14.9393 0)
(215.587 15.8521 0)
(215.428 16.7931 0)
(215.251 17.763 0)
(215.058 18.7623 0)
(214.849 19.7917 0)
(214.625 20.8514 0)
(214.387 21.9422 0)
(214.135 23.0643 0)
(213.872 24.2184 0)
(213.598 25.4051 0)
(213.317 26.6249 0)
(213.028 27.8788 0)
(212.734 29.1675 0)
(212.438 30.4915 0)
(212.142 31.8515 0)
(211.849 33.2478 0)
(211.562 34.6798 0)
(211.285 36.1501 0)
(211.015 37.6622 0)
(210.758 39.2131 0)
(210.528 40.8023 0)
(210.313 42.4358 0)
(210.124 44.1085 0)
(209.976 45.8278 0)
(209.854 47.5887 0)
(209.777 49.3932 0)
(209.756 51.2436 0)
(209.772 53.136 0)
(209.865 55.0766 0)
(210.017 57.0613 0)
(210.232 59.0913 0)
(210.55 61.169 0)
(210.934 63.2877 0)
(211.419 65.4487 0)
(212.031 67.6494 0)
(212.729 69.8846 0)
(213.572 72.1579 0)
(214.559 74.4642 0)
(215.653 76.8036 0)
(216.941 79.172 0)
(218.373 81.5581 0)
(219.982 83.9438 0)
(221.783 86.3219 0)
(223.794 88.6823 0)
(225.981 91.0341 0)
(228.409 93.3572 0)
(231.047 95.6278 0)
(233.858 97.8526 0)
(236.96 99.9541 0)
(240.163 102.031 0)
(243.688 103.919 0)
(247.288 105.791 0)
(251.211 107.454 0)
(255.314 109.036 0)
(259.583 110.364 0)
(264.056 111.673 0)
(268.362 112.681 0)
(273.268 113.658 0)
(277.979 114.252 0)
(283.139 114.823 0)
(288.059 115.147 0)
(292.67 115.354 0)
(297.786 115.329 0)
(302.074 115.354 0)
(307.106 115.169 0)
(311.537 114.934 0)
(316.478 114.348 0)
(321.068 113.553 0)
(325.275 112.752 0)
(329.829 111.786 0)
(333.264 111.228 0)
(337.237 110.375 0)
(340.423 109.795 0)
(343.892 108.762 0)
(346.284 107.923 0)
(348.221 106.749 0)
(349.89 106.258 0)
(352.896 105.81 0)
(358.262 105.356 0)
(359.938 109.004 0)
(174.192 22.904 0)
(200.658 -1.91866 0)
(203.711 -1.57191 0)
(205.196 -1.03763 0)
(205.838 -1.04989 0)
(206.208 -1.08852 0)
(206.715 -1.15199 0)
(207.475 -1.24514 0)
(208.406 -1.30255 0)
(209.328 -1.28525 0)
(210.123 -1.19857 0)
(210.779 -1.05552 0)
(211.336 -0.854574 0)
(211.84 -0.598681 0)
(212.322 -0.2975 0)
(212.788 0.0287078 0)
(213.214 0.367297 0)
(213.588 0.710282 0)
(213.911 1.05486 0)
(214.2 1.40317 0)
(214.466 1.76396 0)
(214.709 2.14679 0)
(214.929 2.55811 0)
(215.118 3.00161 0)
(215.277 3.47853 0)
(215.403 3.98895 0)
(215.494 4.53358 0)
(215.566 5.10831 0)
(215.607 5.71088 0)
(215.626 6.33451 0)
(215.634 6.98749 0)
(215.625 7.65814 0)
(215.6 8.34853 0)
(215.56 9.05843 0)
(215.504 9.78733 0)
(215.432 10.5366 0)
(215.344 11.3072 0)
(215.238 12.1003 0)
(215.115 12.9169 0)
(214.974 13.7577 0)
(214.817 14.6236 0)
(214.643 15.5156 0)
(214.451 16.4348 0)
(214.241 17.3822 0)
(214.014 18.3586 0)
(213.769 19.3643 0)
(213.508 20.3999 0)
(213.23 21.4657 0)
(212.937 22.5624 0)
(212.631 23.6902 0)
(212.313 24.85 0)
(211.984 26.0423 0)
(211.645 27.268 0)
(211.299 28.5277 0)
(210.947 29.822 0)
(210.591 31.1517 0)
(210.234 32.5178 0)
(209.878 33.921 0)
(209.526 35.3624 0)
(209.181 36.8419 0)
(208.846 38.3596 0)
(208.526 39.9182 0)
(208.21 41.5262 0)
(207.922 43.1677 0)
(207.662 44.8563 0)
(207.419 46.5904 0)
(207.22 48.3694 0)
(207.06 50.1973 0)
(206.931 52.0693 0)
(206.87 53.9934 0)
(206.854 55.9645 0)
(206.894 57.9851 0)
(207.024 60.0581 0)
(207.205 62.1763 0)
(207.484 64.345 0)
(207.871 66.562 0)
(208.33 68.8224 0)
(208.928 71.1304 0)
(209.647 73.4764 0)
(210.466 75.8555 0)
(211.471 78.2646 0)
(212.602 80.6923 0)
(213.901 83.1328 0)
(215.379 85.5879 0)
(217.044 88.0527 0)
(218.868 90.5289 0)
(220.924 92.9929 0)
(223.162 95.4304 0)
(225.594 97.8369 0)
(228.289 100.181 0)
(231.132 102.509 0)
(234.318 104.715 0)
(237.607 106.912 0)
(241.253 108.891 0)
(244.962 110.868 0)
(248.965 112.634 0)
(253.108 114.314 0)
(257.536 115.762 0)
(262.161 117.062 0)
(266.944 118.201 0)
(271.471 119.14 0)
(276.497 119.967 0)
(280.994 120.536 0)
(286.233 120.99 0)
(290.907 121.291 0)
(296.121 121.372 0)
(300.806 121.348 0)
(305.738 121.155 0)
(310.631 120.793 0)
(315.072 120.388 0)
(319.823 119.746 0)
(323.727 119.321 0)
(328.398 118.645 0)
(332.032 118.104 0)
(336.343 117.05 0)
(339.398 115.969 0)
(342.072 114.505 0)
(344.204 113.586 0)
(347.249 113.047 0)
(352.272 112.797 0)
(353.871 115.808 0)
(175.05 20.565 0)
(200.389 -1.96941 0)
(203.869 -1.61265 0)
(205.009 -1.19252 0)
(205.483 -1.23989 0)
(205.821 -1.27337 0)
(206.254 -1.31336 0)
(206.887 -1.39205 0)
(207.726 -1.42863 0)
(208.652 -1.4149 0)
(209.512 -1.33905 0)
(210.222 -1.19911 0)
(210.785 -0.997866 0)
(211.252 -0.742213 0)
(211.684 -0.443069 0)
(212.118 -0.119617 0)
(212.546 0.217673 0)
(212.943 0.562399 0)
(213.291 0.91111 0)
(213.595 1.26474 0)
(213.864 1.63056 0)
(214.103 2.01671 0)
(214.317 2.42947 0)
(214.502 2.87247 0)
(214.656 3.34681 0)
(214.777 3.85231 0)
(214.858 4.3901 0)
(214.92 4.95666 0)
(214.942 5.54999 0)
(214.951 6.15931 0)
(214.936 6.8045 0)
(214.909 7.46255 0)
(214.864 8.14082 0)
(214.802 8.83816 0)
(214.725 9.55391 0)
(214.63 10.289 0)
(214.518 11.0441 0)
(214.386 11.8207 0)
(214.236 12.6197 0)
(214.067 13.4422 0)
(213.88 14.289 0)
(213.675 15.1612 0)
(213.45 16.0599 0)
(213.207 16.9862 0)
(212.944 17.9409 0)
(212.662 18.9243 0)
(212.362 19.937 0)
(212.044 20.9795 0)
(211.709 22.0524 0)
(211.359 23.156 0)
(210.994 24.291 0)
(210.616 25.458 0)
(210.226 26.6578 0)
(209.825 27.8911 0)
(209.416 29.1586 0)
(208.999 30.4611 0)
(208.578 31.799 0)
(208.155 33.1732 0)
(207.731 34.5846 0)
(207.31 36.0345 0)
(206.893 37.5241 0)
(206.482 39.055 0)
(206.084 40.6243 0)
(205.7 42.2357 0)
(205.335 43.8917 0)
(204.978 45.5984 0)
(204.665 47.341 0)
(204.376 49.1349 0)
(204.118 50.9727 0)
(203.917 52.8641 0)
(203.748 54.8019 0)
(203.632 56.79 0)
(203.59 58.832 0)
(203.585 60.9209 0)
(203.671 63.0658 0)
(203.844 65.262 0)
(204.076 67.5046 0)
(204.437 69.8007 0)
(204.893 72.1412 0)
(205.443 74.527 0)
(206.165 76.9622 0)
(206.987 79.4372 0)
(207.966 81.9523 0)
(209.111 84.5062 0)
(210.422 87.0882 0)
(211.891 89.6912 0)
(213.59 92.293 0)
(215.456 94.8849 0)
(217.533 97.4641 0)
(219.85 100.017 0)
(222.333 102.554 0)
(225.108 105.011 0)
(228.001 107.45 0)
(231.251 109.737 0)
(234.561 112.024 0)
(238.249 114.099 0)
(242.045 116.155 0)
(246.092 117.988 0)
(250.289 119.747 0)
(254.695 121.36 0)
(259.234 122.705 0)
(263.989 123.914 0)
(268.868 124.942 0)
(273.793 125.775 0)
(279 126.449 0)
(283.904 126.923 0)
(289.029 127.341 0)
(293.59 127.665 0)
(298.56 127.685 0)
(302.809 127.577 0)
(307.508 127.138 0)
(311.611 126.853 0)
(315.958 126.466 0)
(319.872 126.308 0)
(324.101 125.801 0)
(327.564 125.1 0)
(330.57 123.863 0)
(333.036 122.745 0)
(336.43 122.05 0)
(342.757 121.626 0)
(344.546 125.692 0)
(176.712 18.1019 0)
(200.513 -1.80303 0)
(203.79 -1.75288 0)
(204.563 -1.40872 0)
(205.049 -1.37397 0)
(205.46 -1.39677 0)
(205.886 -1.43922 0)
(206.412 -1.52164 0)
(207.116 -1.56004 0)
(207.97 -1.56363 0)
(208.843 -1.49884 0)
(209.602 -1.36498 0)
(210.195 -1.16774 0)
(210.652 -0.914555 0)
(211.043 -0.619472 0)
(211.428 -0.298303 0)
(211.827 0.0403267 0)
(212.226 0.389773 0)
(212.596 0.744782 0)
(212.923 1.1052 0)
(213.206 1.4767 0)
(213.449 1.86627 0)
(213.66 2.28071 0)
(213.841 2.72395 0)
(213.99 3.19686 0)
(214.107 3.69863 0)
(214.183 4.23027 0)
(214.236 4.78901 0)
(214.247 5.36991 0)
(214.241 5.96961 0)
(214.209 6.60167 0)
(214.164 7.24591 0)
(214.101 7.90984 0)
(214.02 8.59209 0)
(213.923 9.29205 0)
(213.807 10.0106 0)
(213.674 10.7485 0)
(213.52 11.507 0)
(213.345 12.2871 0)
(213.15 13.0897 0)
(212.936 13.9159 0)
(212.702 14.7664 0)
(212.447 15.6425 0)
(212.172 16.5452 0)
(211.877 17.4753 0)
(211.561 18.4335 0)
(211.225 19.42 0)
(210.87 20.4356 0)
(210.497 21.4806 0)
(210.106 22.5556 0)
(209.699 23.6612 0)
(209.277 24.7979 0)
(208.84 25.9665 0)
(208.391 27.1678 0)
(207.929 28.4026 0)
(207.458 29.6714 0)
(206.978 30.9752 0)
(206.491 32.3148 0)
(206.001 33.6911 0)
(205.508 35.1049 0)
(205.014 36.5574 0)
(204.524 38.0499 0)
(204.038 39.584 0)
(203.56 41.1606 0)
(203.092 42.7808 0)
(202.64 44.4422 0)
(202.213 46.1507 0)
(201.792 47.9144 0)
(201.405 49.7171 0)
(201.061 51.5737 0)
(200.737 53.4812 0)
(200.466 55.4414 0)
(200.248 57.4592 0)
(200.059 59.5261 0)
(199.954 61.6541 0)
(199.914 63.8351 0)
(199.927 66.0673 0)
(200.061 68.361 0)
(200.264 70.7047 0)
(200.559 73.1028 0)
(201.006 75.5576 0)
(201.533 78.0548 0)
(202.208 80.5989 0)
(203.032 83.1846 0)
(203.999 85.8011 0)
(205.12 88.4463 0)
(206.452 91.1117 0)
(207.926 93.7964 0)
(209.61 96.5026 0)
(211.505 99.2204 0)
(213.578 101.94 0)
(215.922 104.624 0)
(218.426 107.291 0)
(221.259 109.867 0)
(224.19 112.439 0)
(227.511 114.852 0)
(230.881 117.275 0)
(234.604 119.507 0)
(238.437 121.694 0)
(242.568 123.652 0)
(246.949 125.52 0)
(251.452 127.084 0)
(256.247 128.742 0)
(260.778 129.963 0)
(266.012 131.219 0)
(270.498 132.093 0)
(275.819 133.041 0)
(280.307 133.667 0)
(285.839 134.214 0)
(290.687 134.39 0)
(296.376 134.337 0)
(301.374 134.068 0)
(306.397 133.787 0)
(311.149 133.529 0)
(315.722 133.228 0)
(319.658 132.726 0)
(323.07 131.768 0)
(325.811 130.836 0)
(329.397 130.147 0)
(335.728 130.008 0)
(337.429 134.445 0)
(179.302 15.7666 0)
(201.262 -1.33175 0)
(203.49 -1.87038 0)
(204.015 -1.61828 0)
(204.575 -1.57201 0)
(205.112 -1.53844 0)
(205.596 -1.56738 0)
(206.079 -1.62482 0)
(206.654 -1.65815 0)
(207.375 -1.67742 0)
(208.185 -1.63407 0)
(208.96 -1.52305 0)
(209.595 -1.34298 0)
(210.071 -1.10092 0)
(210.439 -0.816243 0)
(210.77 -0.503225 0)
(211.114 -0.168127 0)
(211.482 0.18232 0)
(211.856 0.541505 0)
(212.206 0.908936 0)
(212.512 1.28743 0)
(212.769 1.68139 0)
(212.981 2.09736 0)
(213.157 2.53976 0)
(213.301 3.00983 0)
(213.415 3.50661 0)
(213.486 4.03135 0)
(213.534 4.58174 0)
(213.534 5.15194 0)
(213.517 5.74073 0)
(213.467 6.36162 0)
(213.404 6.99324 0)
(213.322 7.64392 0)
(213.221 8.31228 0)
(213.104 8.99764 0)
(212.968 9.70083 0)
(212.812 10.4225 0)
(212.636 11.1639 0)
(212.438 11.9261 0)
(212.218 12.7101 0)
(211.976 13.5167 0)
(211.713 14.3469 0)
(211.429 15.2016 0)
(211.122 16.0819 0)
(210.794 16.9888 0)
(210.444 17.9227 0)
(210.072 18.8842 0)
(209.679 19.874 0)
(209.267 20.8924 0)
(208.835 21.9401 0)
(208.385 23.0177 0)
(207.917 24.1257 0)
(207.433 25.2648 0)
(206.933 26.4359 0)
(206.418 27.6398 0)
(205.89 28.8771 0)
(205.351 30.1486 0)
(204.801 31.4551 0)
(204.244 32.7974 0)
(203.68 34.1765 0)
(203.112 35.5936 0)
(202.542 37.0496 0)
(201.973 38.5455 0)
(201.406 40.0828 0)
(200.845 41.6627 0)
(200.294 43.2871 0)
(199.754 44.9574 0)
(199.23 46.6709 0)
(198.729 48.4315 0)
(198.253 50.244 0)
(197.785 52.1125 0)
(197.376 54.0239 0)
(196.997 55.9948 0)
(196.646 58.0148 0)
(196.368 60.0999 0)
(196.133 62.2384 0)
(195.947 64.4322 0)
(195.863 66.6928 0)
(195.823 69.0049 0)
(195.875 71.3792 0)
(196.053 73.8169 0)
(196.29 76.3043 0)
(196.669 78.8542 0)
(197.174 81.459 0)
(197.802 84.1114 0)
(198.58 86.8152 0)
(199.547 89.5661 0)
(200.635 92.358 0)
(201.936 95.1873 0)
(203.42 98.0362 0)
(205.085 100.89 0)
(206.99 103.732 0)
(209.068 106.57 0)
(211.43 109.37 0)
(213.923 112.174 0)
(216.783 114.89 0)
(219.718 117.61 0)
(223.055 120.168 0)
(226.471 122.712 0)
(230.241 125.043 0)
(234.127 127.343 0)
(238.285 129.475 0)
(242.543 131.512 0)
(246.994 133.295 0)
(251.683 134.933 0)
(256.439 136.314 0)
(261.484 137.659 0)
(266.473 138.779 0)
(271.635 139.747 0)
(276.673 140.535 0)
(281.468 141.117 0)
(286.636 141.425 0)
(291.024 141.707 0)
(296.23 141.857 0)
(300.511 142.047 0)
(304.996 142.009 0)
(308.986 141.579 0)
(312.154 140.99 0)
(315.762 140.477 0)
(322.277 140.07 0)
(323.591 144.614 0)
(182.6 13.9958 0)
(202.528 -0.663191 0)
(203.477 -1.68877 0)
(203.756 -1.67691 0)
(204.189 -1.61231 0)
(204.717 -1.59937 0)
(205.28 -1.6635 0)
(205.81 -1.7204 0)
(206.319 -1.76617 0)
(206.901 -1.7673 0)
(207.6 -1.72146 0)
(208.342 -1.63136 0)
(209 -1.47644 0)
(209.498 -1.25148 0)
(209.856 -0.979964 0)
(210.139 -0.678222 0)
(210.42 -0.352285 0)
(210.731 -0.00757142 0)
(211.08 0.34965 0)
(211.435 0.720507 0)
(211.764 1.1046 0)
(212.043 1.50291 0)
(212.267 1.92025 0)
(212.443 2.361 0)
(212.581 2.82681 0)
(212.69 3.31687 0)
(212.757 3.83238 0)
(212.801 4.3718 0)
(212.792 4.92933 0)
(212.766 5.50433 0)
(212.701 6.11143 0)
(212.623 6.72783 0)
(212.522 7.36267 0)
(212.403 8.01468 0)
(212.266 8.68308 0)
(212.111 9.36871 0)
(211.935 10.0721 0)
(211.739 10.7944 0)
(211.519 11.5366 0)
(211.277 12.2998 0)
(211.011 13.0846 0)
(210.723 13.892 0)
(210.412 14.723 0)
(210.078 15.5784 0)
(209.72 16.4593 0)
(209.339 17.3663 0)
(208.935 18.2999 0)
(208.508 19.2608 0)
(208.061 20.2494 0)
(207.591 21.2663 0)
(207.102 22.3122 0)
(206.593 23.3875 0)
(206.066 24.4931 0)
(205.52 25.6295 0)
(204.958 26.7977 0)
(204.379 27.9983 0)
(203.785 29.2321 0)
(203.179 30.4999 0)
(202.56 31.8025 0)
(201.932 33.1409 0)
(201.296 34.5162 0)
(200.653 35.9296 0)
(200.006 37.3822 0)
(199.357 38.8754 0)
(198.707 40.4102 0)
(198.061 41.9883 0)
(197.42 43.6113 0)
(196.787 45.2809 0)
(196.167 46.9988 0)
(195.561 48.7659 0)
(194.975 50.58 0)
(194.422 52.4498 0)
(193.874 54.3828 0)
(193.364 56.3593 0)
(192.911 58.4019 0)
(192.479 60.5014 0)
(192.101 62.6594 0)
(191.803 64.8873 0)
(191.532 67.166 0)
(191.355 69.5146 0)
(191.277 71.9287 0)
(191.242 74.3962 0)
(191.345 76.9361 0)
(191.544 79.5345 0)
(191.849 82.1891 0)
(192.297 84.9071 0)
(192.9 87.683 0)
(193.606 90.508 0)
(194.518 93.3833 0)
(195.581 96.2932 0)
(196.823 99.2337 0)
(198.286 102.202 0)
(199.926 105.195 0)
(201.818 108.198 0)
(203.877 111.216 0)
(206.266 114.188 0)
(208.759 117.156 0)
(211.639 120.026 0)
(214.596 122.908 0)
(217.95 125.652 0)
(221.396 128.396 0)
(225.198 130.945 0)
(229.161 133.445 0)
(233.408 135.717 0)
(237.842 137.879 0)
(242.53 139.972 0)
(247.282 141.71 0)
(252.288 143.328 0)
(256.942 144.639 0)
(262.143 146.047 0)
(266.727 146.983 0)
(272.312 147.828 0)
(277.076 148.334 0)
(282.823 148.815 0)
(287.434 149.243 0)
(292.599 149.494 0)
(296.545 149.406 0)
(299.736 148.969 0)
(303.355 148.835 0)
(310.401 148.978 0)
(311.381 154.8 0)
(185.67 12.9731 0)
(204.222 -0.13362 0)
(203.808 -1.3553 0)
(203.898 -1.4438 0)
(204.157 -1.48304 0)
(204.534 -1.6432 0)