/*--------------------------------*- C++ -*----------------------------------*\
| =========                 |                                                 |
| \\      /  F ield         | OpenFOAM: The Open Source CFD Toolbox           |
|  \\    /   O peration     | Version:  2412                                  |
|   \\  /    A nd           | Website:  www.openfoam.com                      |
|    \\/     M anipulation  |                                                 |
\*---------------------------------------------------------------------------*/
FoamFile
{
    version     2.0;
    format      ascii;
    arch        "LSB;label=32;scalar=64";
    class       volScalarField;
    location    "0.115";
    object      rho;
}
// * * * * * * * * * * * * * * * * * * * * * * * * * * * * * * * * * * * * * //

dimensions      [1 -3 0 0 0 0 0];

internalField   nonuniform List<scalar> 
9816
(
0.0439877
0.043992
0.0439949
0.0439966
0.0439969
0.0439957
0.0439935
0.0439903
0.0439861
0.0439812
0.0439757
0.0439697
0.043963
0.0439557
0.0439477
0.0439392
0.0439301
0.04392
0.0439118
0.0439022
0.0438937
0.0438852
0.043877
0.0438688
0.0438606
0.0438517
0.0438417
0.0438293
0.0438148
0.0437981
0.0437791
0.0437542
0.0437185
0.0436711
0.0436096
0.0435405
0.0434614
0.0433808
0.043292
0.0432068
0.0431166
0.0430459
0.0432494
0.0432396
0.0432294
0.043219
0.0432085
0.0431974
0.043187
0.0431763
0.0431654
0.0431546
0.0431439
0.0431332
0.0431227
0.0431123
0.043103
0.0430938
0.0430862
0.0430792
0.0430735
0.0430687
0.0430642
0.0430596
0.0430539
0.043046
0.0430376
0.0430263
0.0430112
0.0429827
0.0429418
0.0428843
0.0428178
0.0427411
0.0426644
0.0425861
0.0425148
0.0424467
0.0423896
0.0423407
0.042307
0.0422834
0.0422721
0.0422624
0.0429278
0.0429196
0.0429116
0.0429035
0.0428957
0.0428878
0.0428803
0.0428728
0.0428654
0.042858
0.0428509
0.0428441
0.0428379
0.0428322
0.0428275
0.0428234
0.04282
0.0428167
0.0428132
0.0428087
0.0428031
0.0427968
0.0427884
0.042775
0.0427541
0.0427233
0.0426815
0.0426285
0.0425659
0.0424942
0.0424184
0.0423425
0.0422704
0.042209
0.0421682
0.0421342
0.0421036
0.042096
0.0420986
0.0421007
0.0421008
0.0421012
0.0427277
0.0427211
0.0427149
0.0427088
0.042703
0.0426972
0.0426916
0.0426861
0.0426809
0.0426758
0.0426711
0.0426669
0.0426633
0.0426604
0.0426581
0.0426561
0.0426539
0.0426508
0.0426469
0.0426422
0.0426367
0.0426271
0.042613
0.0425894
0.0425563
0.0425095
0.0424515
0.0423816
0.0423066
0.0422287
0.0421552
0.042096
0.0420505
0.0420079
0.0419883
0.0419899
0.0419882
0.0419813
0.0419744
0.0419753
0.0419801
0.0419899
0.042608
0.0426031
0.0425987
0.042594
0.0425895
0.0425849
0.0425804
0.042576
0.0425718
0.0425679
0.0425645
0.0425616
0.0425594
0.0425578
0.0425564
0.0425546
0.0425521
0.0425485
0.0425444
0.0425396
0.0425316
0.0425194
0.0424988
0.0424689
0.0424255
0.0423701
0.0423023
0.0422275
0.0421504
0.0420765
0.0420129
0.0419736
0.0419441
0.0419149
0.0419066
0.0419116
0.0419155
0.0419145
0.0419101
0.0419088
0.0419104
0.0419169
0.0425178
0.0425138
0.0425102
0.0425067
0.0425032
0.0424998
0.0424966
0.0424935
0.0424908
0.0424884
0.0424865
0.0424852
0.0424845
0.0424839
0.0424831
0.0424817
0.0424794
0.0424766
0.0424733
0.0424675
0.0424584
0.0424426
0.0424187
0.0423829
0.0423353
0.0422752
0.0422058
0.042132
0.0420588
0.0419938
0.0419458
0.0419115
0.0418825
0.0418738
0.0418775
0.041878
0.0418728
0.041865
0.0418637
0.0418653
0.0418708
0.0418796
0.0424577
0.042455
0.0424524
0.0424498
0.0424471
0.0424445
0.0424421
0.0424398
0.0424378
0.0424361
0.0424352
0.0424346
0.0424341
0.0424336
0.0424324
0.0424306
0.0424285
0.0424257
0.0424212
0.0424139
0.0424014
0.042382
0.0423527
0.0423127
0.0422606
0.0421988
0.0421294
0.0420594
0.0419945
0.0419409
0.0418964
0.0418694
0.0418608
0.0418533
0.0418421
0.0418369
0.0418373
0.0418398
0.0418434
0.0418456
0.0418475
0.0418499
0.042412
0.0424095
0.0424071
0.0424046
0.0424022
0.0423999
0.0423979
0.042396
0.0423946
0.0423935
0.0423931
0.0423926
0.042392
0.042391
0.0423895
0.0423878
0.0423855
0.0423819
0.042376
0.0423658
0.0423499
0.0423253
0.0422912
0.0422458
0.0421903
0.0421271
0.0420608
0.0419967
0.0419387
0.0418937
0.0418639
0.0418403
0.0418239
0.0418221
0.0418242
0.0418231
0.0418192
0.0418137
0.0418129
0.0418141
0.0418175
0.0418234
0.0423678
0.042366
0.0423644
0.0423628
0.0423612
0.0423598
0.0423585
0.0423576
0.0423567
0.0423564
0.042356
0.0423556
0.0423549
0.0423537
0.0423523
0.0423505
0.0423478
0.0423432
0.0423356
0.042323
0.0423037
0.0422757
0.0422378
0.0421896
0.042133
0.0420707
0.042008
0.0419484
0.0418988
0.0418622
0.0418328
0.0418128
0.0418095
0.0418107
0.0418071
0.0417997
0.0417945
0.0417938
0.0417952
0.0417987
0.0418034
0.0418084
0.042337
0.0423357
0.0423343
0.0423329
0.0423317
0.0423303
0.0423295
0.0423287
0.0423283
0.0423279
0.0423275
0.0423269
0.0423259
0.0423248
0.0423234
0.0423214
0.0423182
0.0423129
0.0423041
0.04229
0.0422691
0.0422393
0.0422003
0.0421517
0.0420957
0.0420347
0.0419741
0.0419176
0.0418722
0.0418373
0.0418091
0.0417947
0.0417943
0.0417927
0.0417852
0.0417788
0.0417774
0.0417779
0.041781
0.0417846
0.0417872
0.0417895
0.0423039
0.0423028
0.0423016
0.0423006
0.0422997
0.0422989
0.0422982
0.0422978
0.0422975
0.0422973
0.042297
0.0422966
0.0422958
0.0422948
0.0422936
0.0422918
0.0422885
0.0422832
0.042274
0.04226
0.0422388
0.0422096
0.0421713
0.0421245
0.0420708
0.0420135
0.041956
0.0419028
0.0418577
0.0418236
0.041797
0.0417794
0.0417742
0.0417738
0.0417694
0.0417628
0.0417612
0.0417611
0.0417632
0.0417662
0.0417682
0.0417698
0.0422739
0.0422732
0.0422726
0.0422719
0.0422713
0.0422708
0.0422705
0.0422704
0.0422703
0.0422703
0.0422702
0.0422701
0.0422694
0.0422687
0.0422676
0.042266
0.0422629
0.0422579
0.0422492
0.042236
0.0422164
0.0421892
0.042154
0.0421105
0.042061
0.042007
0.041953
0.0419011
0.041856
0.0418194
0.041791
0.0417709
0.0417624
0.0417589
0.0417526
0.0417473
0.0417473
0.0417487
0.0417509
0.0417518
0.0417519
0.0417515
0.0422456
0.0422449
0.0422442
0.0422436
0.0422431
0.0422428
0.0422426
0.0422426
0.0422427
0.0422427
0.0422427
0.0422425
0.042242
0.0422415
0.0422406
0.042239
0.0422362
0.0422312
0.0422232
0.0422105
0.0421925
0.0421671
0.0421349
0.0420946
0.0420487
0.0419978
0.0419464
0.0418957
0.0418505
0.0418123
0.0417832
0.0417603
0.0417472
0.0417431
0.0417398
0.041734
0.0417306
0.0417311
0.0417327
0.0417346
0.0417353
0.0417353
0.0422167
0.0422162
0.0422158
0.0422153
0.0422151
0.0422146
0.0422145
0.0422145
0.0422146
0.0422146
0.0422146
0.0422143
0.042214
0.0422134
0.0422125
0.0422108
0.0422079
0.0422027
0.0421945
0.0421818
0.0421638
0.042139
0.0421075
0.0420688
0.0420245
0.0419759
0.0419261
0.0418774
0.0418332
0.0417957
0.041766
0.0417431
0.0417299
0.0417248
0.0417193
0.0417132
0.0417115
0.0417127
0.0417148
0.0417153
0.041715
0.0417139
0.0421878
0.0421873
0.042187
0.0421866
0.0421864
0.0421864
0.0421865
0.0421867
0.0421868
0.0421869
0.0421869
0.0421867
0.0421864
0.0421858
0.0421848
0.0421827
0.0421793
0.0421734
0.0421643
0.0421505
0.0421315
0.0421056
0.0420735
0.0420345
0.0419907
0.0419432
0.041895
0.0418486
0.0418067
0.0417708
0.0417424
0.0417231
0.0417104
0.0417001
0.0416949
0.0416957
0.0416971
0.041696
0.0416929
0.0416904
0.0416902
0.0416909
0.0421597
0.0421594
0.0421592
0.0421589
0.0421588
0.0421587
0.0421587
0.0421587
0.0421588
0.0421588
0.0421586
0.0421584
0.0421581
0.0421575
0.0421563
0.0421539
0.04215
0.0421431
0.042133
0.0421177
0.0420974
0.0420701
0.042037
0.0419973
0.0419537
0.0419066
0.0418601
0.0418154
0.0417758
0.0417422
0.0417172
0.0416989
0.041685
0.0416781
0.0416778
0.0416774
0.0416738
0.0416703
0.0416697
0.0416698
0.0416714
0.0416731
0.0421317
0.0421315
0.0421312
0.0421311
0.0421309
0.0421308
0.0421308
0.0421308
0.0421307
0.0421306
0.0421303
0.04213
0.0421296
0.0421287
0.0421271
0.0421242
0.0421195
0.0421118
0.0421005
0.042084
0.0420622
0.0420338
0.0419997
0.0419596
0.041916
0.0418698
0.0418245
0.0417814
0.0417437
0.0417123
0.0416891
0.0416713
0.0416591
0.0416547
0.0416545
0.0416521
0.0416474
0.0416458
0.0416456
0.0416467
0.0416486
0.0416493
0.0421046
0.0421043
0.0421039
0.0421037
0.0421035
0.0421034
0.0421032
0.0421031
0.0421029
0.0421028
0.0421024
0.0421021
0.0421015
0.0421006
0.0420987
0.0420956
0.0420903
0.0420821
0.04207
0.0420531
0.0420305
0.0420019
0.0419675
0.0419278
0.0418847
0.0418397
0.0417956
0.0417544
0.041718
0.0416879
0.0416651
0.0416493
0.0416374
0.0416304
0.0416293
0.0416297
0.0416276
0.0416243
0.0416234
0.0416232
0.0416241
0.0416256
0.042079
0.0420787
0.0420784
0.0420781
0.0420779
0.0420777
0.0420775
0.0420773
0.042077
0.0420767
0.0420764
0.0420759
0.0420753
0.0420741
0.0420721
0.0420686
0.042063
0.0420545
0.0420421
0.0420251
0.0420026
0.0419745
0.0419407
0.0419022
0.0418602
0.0418169
0.0417738
0.0417339
0.0416982
0.0416688
0.0416452
0.0416284
0.041618
0.0416116
0.041606
0.0416038
0.0416046
0.0416056
0.0416048
0.041603
0.0416014
0.041601
0.0420554
0.042055
0.0420546
0.0420543
0.042054
0.0420538
0.0420535
0.0420531
0.0420529
0.0420523
0.0420517
0.042051
0.0420502
0.0420488
0.0420466
0.0420431
0.0420376
0.0420292
0.0420173
0.0420008
0.0419792
0.0419522
0.0419198
0.041883
0.0418425
0.0418007
0.0417588
0.0417195
0.0416839
0.0416541
0.0416303
0.0416124
0.0415996
0.0415933
0.0415904
0.0415867
0.0415837
0.0415836
0.0415843
0.0415852
0.041585
0.0415842
0.0420336
0.0420331
0.0420325
0.042032
0.0420316
0.042031
0.0420307
0.0420301
0.0420296
0.0420291
0.0420286
0.042028
0.0420272
0.0420259
0.0420237
0.0420202
0.0420146
0.0420065
0.0419947
0.0419789
0.0419581
0.0419323
0.0419013
0.0418659
0.0418269
0.0417862
0.0417453
0.0417065
0.0416713
0.0416412
0.0416169
0.0415981
0.0415852
0.0415783
0.0415734
0.0415689
0.0415673
0.0415682
0.0415693
0.0415688
0.0415673
0.0415656
0.0420121
0.0420114
0.0420109
0.0420104
0.04201
0.0420096
0.0420092
0.0420087
0.0420083
0.0420077
0.0420071
0.0420064
0.0420055
0.042004
0.0420016
0.0419979
0.0419921
0.0419838
0.0419719
0.0419561
0.0419353
0.0419099
0.0418793
0.0418446
0.0418065
0.0417668
0.041727
0.0416891
0.0416547
0.0416253
0.0416016
0.0415836
0.0415703
0.0415624
0.0415592
0.0415562
0.0415529
0.0415516
0.0415522
0.041553
0.0415531
0.0415525
0.0419927
0.041992
0.0419914
0.0419908
0.0419903
0.0419898
0.0419893
0.0419887
0.0419881
0.0419874
0.0419867
0.0419859
0.0419847
0.0419831
0.0419803
0.0419761
0.0419697
0.0419607
0.0419479
0.0419311
0.0419093
0.041883
0.0418515
0.0418166
0.0417786
0.0417399
0.0417013
0.0416654
0.041633
0.0416056
0.0415835
0.0415676
0.0415563
0.0415478
0.0415436
0.0415435
0.0415437
0.0415417
0.041539
0.041538
0.0415377
0.0415382
0.0419739
0.0419732
0.0419726
0.0419721
0.0419716
0.0419711
0.0419706
0.04197
0.0419694
0.0419688
0.0419681
0.0419672
0.0419659
0.0419638
0.0419607
0.0419559
0.0419488
0.0419386
0.0419248
0.0419066
0.0418837
0.0418561
0.0418241
0.0417886
0.0417507
0.0417124
0.041675
0.0416407
0.0416102
0.0415853
0.0415659
0.0415515
0.0415411
0.0415364
0.0415347
0.0415319
0.0415289
0.0415282
0.0415284
0.041529
0.0415293
0.0415288
0.0419554
0.0419548
0.0419542
0.0419537
0.0419531
0.0419527
0.0419521
0.0419515
0.0419508
0.0419501
0.0419493
0.0419483
0.0419468
0.0419443
0.0419408
0.0419352
0.0419274
0.0419162
0.0419013
0.0418819
0.041858
0.0418293
0.0417967
0.0417608
0.0417231
0.0416853
0.041649
0.0416161
0.0415877
0.0415647
0.0415467
0.0415342
0.0415267
0.0415217
0.0415175
0.0415163
0.0415168
0.0415172
0.0415163
0.0415145
0.0415134
0.0415126
0.0419368
0.0419362
0.0419356
0.0419351
0.0419346
0.0419341
0.0419335
0.0419329
0.0419322
0.0419315
0.0419306
0.0419294
0.0419278
0.0419252
0.0419213
0.0419155
0.0419071
0.0418954
0.0418799
0.0418601
0.0418356
0.0418067
0.0417739
0.0417383
0.0417012
0.0416644
0.0416292
0.0415976
0.0415704
0.0415482
0.0415311
0.0415197
0.041512
0.041506
0.0415031
0.0415035
0.0415041
0.0415029
0.0415008
0.0414993
0.0414986
0.0414987
0.0419173
0.0419167
0.0419162
0.0419157
0.0419153
0.0419148
0.0419143
0.0419137
0.041913
0.0419123
0.0419115
0.0419104
0.0419087
0.0419061
0.0419022
0.0418963
0.041888
0.0418765
0.0418612
0.0418417
0.0418178
0.0417897
0.0417578
0.0417233
0.0416872
0.0416514
0.041617
0.0415858
0.0415585
0.0415361
0.0415183
0.041506
0.041498
0.0414919
0.0414879
0.0414875
0.0414883
0.041488
0.0414862
0.0414842
0.0414833
0.0414829
0.0418973
0.0418968
0.0418963
0.0418959
0.0418955
0.0418951
0.0418947
0.041894
0.0418935
0.0418928
0.041892
0.0418909
0.0418893
0.0418869
0.0418832
0.0418777
0.0418699
0.0418592
0.041845
0.0418269
0.0418047
0.0417784
0.0417485
0.0417156
0.041681
0.0416459
0.0416117
0.0415797
0.0415514
0.041527
0.0415077
0.0414932
0.0414828
0.0414752
0.0414717
0.0414709
0.0414694
0.0414671
0.0414662
0.041466
0.0414663
0.0414667
0.0418758
0.0418753
0.0418748
0.0418744
0.0418741
0.0418736
0.0418733
0.0418725
0.0418719
0.0418712
0.0418705
0.0418695
0.041868
0.0418659
0.0418627
0.041858
0.0418513
0.041842
0.0418297
0.0418138
0.0417941
0.0417705
0.0417432
0.0417127
0.0416798
0.0416455
0.0416112
0.0415783
0.0415478
0.0415211
0.0414987
0.0414809
0.0414676
0.0414591
0.0414534
0.0414488
0.0414468
0.0414472
0.0414475
0.0414464
0.0414447
0.0414437
0.0418543
0.0418537
0.0418532
0.0418527
0.0418523
0.0418518
0.0418514
0.0418508
0.0418501
0.0418495
0.0418488
0.0418479
0.0418467
0.0418449
0.0418423
0.0418384
0.041833
0.0418254
0.0418151
0.0418017
0.0417848
0.0417642
0.0417397
0.0417118
0.0416808
0.0416478
0.0416136
0.0415799
0.0415475
0.0415181
0.0414922
0.0414707
0.0414537
0.0414418
0.0414332
0.0414266
0.0414241
0.0414246
0.0414243
0.041422
0.0414198
0.0414191
0.0418325
0.0418318
0.0418312
0.0418307
0.0418301
0.0418297
0.0418292
0.0418285
0.0418279
0.0418272
0.0418266
0.0418258
0.0418247
0.0418233
0.0418212
0.0418182
0.0418139
0.0418078
0.0417995
0.0417885
0.0417743
0.0417567
0.0417352
0.0417102
0.0416817
0.0416505
0.0416173
0.0415834
0.0415499
0.0415181
0.041489
0.0414634
0.0414422
0.0414258
0.041414
0.0414047
0.041399
0.0413978
0.0413979
0.0413959
0.0413931
0.0413923
0.0418105
0.0418097
0.041809
0.0418083
0.0418077
0.0418071
0.0418066
0.041806
0.0418053
0.0418046
0.0418039
0.0418031
0.0418023
0.0418011
0.0417995
0.0417972
0.0417938
0.041789
0.0417824
0.0417734
0.0417617
0.0417469
0.0417285
0.0417065
0.041681
0.0416524
0.0416212
0.0415884
0.0415549
0.041522
0.0414906
0.041462
0.0414366
0.0414153
0.0413984
0.0413857
0.0413756
0.0413703
0.0413691
0.0413673
0.0413639
0.0413623
0.0417891
0.0417882
0.0417873
0.0417865
0.0417858
0.0417852
0.0417845
0.0417839
0.0417832
0.0417825
0.0417817
0.0417809
0.0417801
0.0417791
0.0417778
0.0417759
0.0417732
0.0417693
0.041764
0.0417569
0.0417474
0.0417351
0.0417198
0.0417011
0.0416791
0.0416538
0.0416256
0.0415951
0.0415631
0.0415306
0.0414986
0.041468
0.0414397
0.0414145
0.0413926
0.0413745
0.0413601
0.0413501
0.0413426
0.0413364
0.0413337
0.0413339
0.0417682
0.041767
0.0417659
0.041765
0.0417641
0.0417633
0.0417626
0.0417619
0.0417611
0.0417604
0.0417595
0.0417586
0.0417577
0.0417568
0.0417556
0.041754
0.0417519
0.0417489
0.0417448
0.0417392
0.0417316
0.0417218
0.0417094
0.0416941
0.0416758
0.0416544
0.0416301
0.0416032
0.0415742
0.0415437
0.0415126
0.0414816
0.0414517
0.0414236
0.0413979
0.0413752
0.0413557
0.0413395
0.0413269
0.0413172
0.0413092
0.0413038
0.0417487
0.0417472
0.0417459
0.0417446
0.0417435
0.0417425
0.0417415
0.0417406
0.0417397
0.0417389
0.0417378
0.0417368
0.0417357
0.0417347
0.0417335
0.0417321
0.0417303
0.0417279
0.0417246
0.0417202
0.0417144
0.0417069
0.0416973
0.0416852
0.0416706
0.0416533
0.0416332
0.0416105
0.0415853
0.041558
0.0415292
0.0414994
0.0414694
0.0414398
0.0414114
0.0413849
0.0413608
0.0413395
0.0413212
0.0413059
0.0412933
0.041283
0.0417319
0.0417302
0.0417286
0.0417271
0.0417257
0.0417245
0.0417233
0.0417223
0.0417212
0.0417201
0.0417191
0.0417179
0.0417169
0.0417157
0.0417145
0.0417132
0.0417116
0.0417097
0.0417071
0.0417037
0.0416993
0.0416935
0.0416861
0.0416769
0.0416655
0.0416517
0.0416352
0.0416162
0.0415945
0.0415704
0.041544
0.0415158
0.0414864
0.0414564
0.0414265
0.0413975
0.0413699
0.0413445
0.0413216
0.0413015
0.041284
0.0412691
0.0417169
0.041715
0.0417131
0.0417114
0.0417099
0.0417085
0.0417072
0.0417059
0.0417048
0.0417036
0.0417025
0.0417014
0.0417002
0.041699
0.0416978
0.0416966
0.0416953
0.0416937
0.0416917
0.0416891
0.0416858
0.0416813
0.0416756
0.0416681
0.0416588
0.0416471
0.0416327
0.0416156
0.0415957
0.041573
0.0415477
0.0415202
0.041491
0.0414607
0.0414301
0.0413997
0.0413703
0.0413426
0.041317
0.0412938
0.0412731
0.0412549
0.0417044
0.0417022
0.0417003
0.0416984
0.0416967
0.0416952
0.0416937
0.0416924
0.041691
0.0416898
0.0416885
0.0416873
0.041686
0.0416847
0.0416833
0.0416819
0.0416805
0.041679
0.0416772
0.0416747
0.0416715
0.0416671
0.0416612
0.0416535
0.0416436
0.0416313
0.0416164
0.0415987
0.0415784
0.0415553
0.0415297
0.041502
0.0414725
0.0414419
0.0414108
0.0413797
0.0413497
0.041321
0.0412946
0.0412705
0.0412491
0.0412301
0.0416934
0.0416911
0.041689
0.041687
0.0416851
0.0416834
0.0416818
0.0416803
0.0416788
0.0416775
0.0416761
0.0416748
0.0416733
0.0416719
0.0416704
0.0416689
0.0416673
0.0416656
0.0416633
0.0416602
0.0416559
0.0416502
0.0416429
0.0416337
0.0416225
0.0416089
0.0415929
0.0415741
0.0415527
0.0415286
0.0415021
0.0414736
0.0414435
0.0414124
0.041381
0.0413499
0.0413199
0.0412916
0.0412655
0.041242
0.041221
0.0412026
0.0416839
0.0416816
0.0416794
0.0416773
0.0416754
0.0416737
0.041672
0.0416705
0.0416689
0.0416675
0.041666
0.0416645
0.0416629
0.0416613
0.0416596
0.0416579
0.0416559
0.0416533
0.0416498
0.0416452
0.0416394
0.041632
0.0416228
0.0416114
0.0415976
0.0415813
0.0415624
0.0415407
0.0415164
0.0414897
0.0414609
0.0414305
0.041399
0.0413672
0.0413356
0.041305
0.041276
0.0412492
0.0412251
0.0412037
0.041185
0.0411689
0.0416751
0.0416727
0.0416705
0.0416684
0.0416665
0.0416647
0.0416631
0.0416615
0.0416599
0.0416583
0.0416567
0.0416551
0.0416533
0.0416515
0.0416496
0.0416472
0.041644
0.04164
0.0416348
0.0416282
0.0416198
0.0416093
0.0415965
0.041581
0.0415628
0.0415417
0.0415178
0.0414912
0.0414623
0.0414315
0.0413993
0.0413665
0.0413335
0.0413014
0.0412706
0.0412419
0.0412156
0.0411924
0.0411723
0.0411553
0.0411412
0.0411296
0.041668
0.0416653
0.041663
0.0416608
0.0416587
0.0416569
0.0416551
0.0416533
0.0416515
0.0416497
0.0416478
0.0416458
0.0416437
0.0416413
0.0416384
0.0416345
0.0416297
0.0416234
0.0416154
0.0416051
0.0415924
0.0415768
0.0415582
0.0415364
0.0415114
0.0414835
0.0414529
0.0414202
0.041386
0.041351
0.041316
0.0412819
0.0412495
0.0412193
0.0411919
0.0411677
0.0411471
0.0411298
0.0411157
0.0411053
0.0410978
0.0410907
0.0416652
0.0416623
0.0416596
0.0416571
0.0416548
0.0416526
0.0416504
0.0416481
0.0416458
0.0416433
0.0416407
0.0416381
0.0416349
0.0416311
0.0416262
0.04162
0.041612
0.0416017
0.0415888
0.0415727
0.0415533
0.0415302
0.0415036
0.0414735
0.0414403
0.0414047
0.0413675
0.0413295
0.0412917
0.0412552
0.0412208
0.0411893
0.0411612
0.041137
0.0411167
0.0411006
0.0410882
0.041078
0.041071
0.0410685
0.0410669
0.0410634
0.0416664
0.041663
0.0416598
0.0416568
0.0416539
0.0416509
0.0416479
0.0416448
0.0416417
0.0416385
0.0416352
0.0416313
0.0416266
0.0416205
0.0416124
0.0416022
0.041589
0.0415726
0.0415523
0.041528
0.0414996
0.0414673
0.0414314
0.0413927
0.0413522
0.0413108
0.04127
0.0412308
0.0411944
0.0411616
0.0411331
0.0411091
0.0410897
0.0410751
0.0410643
0.0410556
0.0410503
0.0410488
0.041048
0.0410455
0.0410428
0.0410416
0.0416733
0.0416692
0.0416654
0.0416617
0.0416579
0.0416542
0.0416504
0.0416464
0.0416425
0.0416382
0.0416332
0.041627
0.0416191
0.0416088
0.0415956
0.0415788
0.041558
0.0415327
0.0415029
0.0414685
0.0414302
0.0413886
0.0413448
0.0413002
0.0412563
0.0412143
0.0411758
0.0411415
0.0411124
0.0410885
0.0410696
0.0410559
0.0410471
0.0410403
0.0410346
0.0410327
0.0410329
0.0410327
0.0410309
0.0410282
0.0410266
0.0410253
0.0416868
0.0416822
0.0416776
0.0416731
0.0416685
0.0416638
0.0416589
0.0416541
0.0416489
0.0416428
0.041635
0.0416249
0.0416117
0.041595
0.0415739
0.0415481
0.0415172
0.0414814
0.0414409
0.0413967
0.0413499
0.0413021
0.0412549
0.04121
0.0411689
0.0411327
0.0411024
0.0410782
0.0410592
0.0410452
0.0410375
0.0410334
0.0410283
0.0410237
0.0410225
0.0410223
0.0410226
0.0410223
0.041021
0.041019
0.041017
0.0410155
0.041704
0.0416987
0.0416935
0.0416881
0.0416826
0.041677
0.0416713
0.0416652
0.0416578
0.0416484
0.0416361
0.04162
0.0415996
0.041574
0.0415429
0.0415062
0.0414644
0.041418
0.0413685
0.0413175
0.0412669
0.0412185
0.0411741
0.0411352
0.0411028
0.041077
0.0410568
0.0410433
0.0410361
0.0410302
0.041024
0.0410214
0.0410208
0.0410208
0.0410202
0.0410187
0.0410165
0.0410144
0.0410128
0.0410119
0.0410118
0.0410121
0.0417252
0.0417193
0.0417133
0.041707
0.0417006
0.0416941
0.0416872
0.0416787
0.0416679
0.0416536
0.0416349
0.041611
0.0415811
0.041545
0.0415028
0.0414553
0.0414035
0.0413495
0.0412951
0.0412426
0.0411941
0.0411512
0.0411151
0.0410868
0.0410647
0.041048
0.0410393
0.0410359
0.0410312
0.0410256
0.0410225
0.0410211
0.0410208
0.0410211
0.0410208
0.0410196
0.0410178
0.0410158
0.0410142
0.0410137
0.0410139
0.0410149
0.0417492
0.0417426
0.0417358
0.0417288
0.0417217
0.0417141
0.0417049
0.0416931
0.0416776
0.041657
0.0416304
0.0415971
0.0415569
0.04151
0.0414576
0.0414012
0.0413432
0.0412859
0.041232
0.0411835
0.0411423
0.0411084
0.0410825
0.0410657
0.0410543
0.0410439
0.0410374
0.0410357
0.0410352
0.0410338
0.0410316
0.0410287
0.0410262
0.0410243
0.0410236
0.0410235
0.0410238
0.0410245
0.0410255
0.0410264
0.0410274
0.0410284
0.0417751
0.0417679
0.0417604
0.0417528
0.0417448
0.0417353
0.0417233
0.0417072
0.0416858
0.0416578
0.0416226
0.0415795
0.0415293
0.0414731
0.041413
0.0413515
0.0412916
0.041236
0.041187
0.0411459
0.0411132
0.0410904
0.0410751
0.0410622
0.0410528
0.04105
0.0410491
0.0410473
0.0410447
0.0410415
0.0410384
0.0410364
0.0410355
0.0410355
0.041036
0.0410371
0.0410384
0.0410397
0.0410408
0.0410419
0.0410433
0.0410451
0.0418022
0.0417942
0.0417863
0.0417782
0.0417687
0.0417569
0.0417411
0.0417201
0.0416921
0.0416566
0.0416126
0.0415609
0.0415024
0.0414397
0.0413753
0.0413126
0.0412545
0.0412034
0.0411612
0.0411289
0.0411049
0.0410863
0.0410756
0.0410712
0.0410671
0.0410623
0.0410574
0.041055
0.0410534
0.0410527
0.0410523
0.0410521
0.041052
0.0410517
0.0410515
0.0410518
0.0410528
0.0410544
0.0410568
0.0410599
0.0410635
0.0410676
0.0418295
0.0418213
0.041813
0.0418037
0.0417924
0.0417776
0.0417578
0.0417312
0.0416968
0.0416537
0.0416023
0.0415435
0.0414795
0.0414131
0.0413477
0.0412864
0.0412323
0.0411872
0.0411513
0.0411242
0.0411064
0.0410952
0.0410856
0.0410789
0.041076
0.0410742
0.0410728
0.0410708
0.0410688
0.0410669
0.0410657
0.0410652
0.0410656
0.0410667
0.0410686
0.041071
0.0410739
0.0410772
0.0410806
0.0410843
0.041088
0.0410919
0.041857
0.0418486
0.0418396
0.0418288
0.0418152
0.0417969
0.0417724
0.04174
0.0416992
0.0416493
0.0415916
0.0415276
0.0414604
0.0413928
0.0413286
0.0412704
0.0412208
0.0411812
0.0411504
0.041127
0.0411128
0.0411053
0.0410984
0.0410921
0.0410881
0.0410861
0.0410849
0.041084
0.0410834
0.0410827
0.0410822
0.0410822
0.0410829
0.0410845
0.0410871
0.0410905
0.0410945
0.041099
0.0411036
0.0411082
0.0411127
0.041117
0.0418844
0.0418756
0.0418653
0.0418527
0.0418358
0.0418134
0.0417834
0.041745
0.0416975
0.0416416
0.0415786
0.0415112
0.0414422
0.0413753
0.0413135
0.0412592
0.0412145
0.0411796
0.0411523
0.0411331
0.0411232
0.0411163
0.0411095
0.0411039
0.0411011
0.0410994
0.0410986
0.0410982
0.0410981
0.0410982
0.0410984
0.0410993
0.0411011
0.0411039
0.0411075
0.0411119
0.0411168
0.041122
0.0411272
0.0411322
0.0411369
0.0411412
0.0419112
0.0419013
0.0418895
0.0418737
0.0418529
0.0418247
0.0417885
0.0417429
0.0416889
0.0416271
0.0415598
0.0414899
0.0414208
0.0413559
0.0412976
0.0412481
0.0412088
0.0411784
0.0411548
0.0411405
0.0411331
0.0411266
0.0411205
0.0411159
0.0411137
0.0411125
0.041112
0.0411122
0.041113
0.041114
0.0411153
0.0411175
0.0411205
0.0411244
0.041129
0.0411342
0.0411397
0.0411452
0.0411506
0.0411557
0.0411604
0.0411647
0.041936
0.0419245
0.0419094
0.0418894
0.0418624
0.0418274
0.0417833
0.0417304
0.0416692
0.0416018
0.0415309
0.0414598
0.0413922
0.0413305
0.0412773
0.0412342
0.0412008
0.0411746
0.041157
0.041148
0.0411412
0.041135
0.0411297
0.0411272
0.0411257
0.041125
0.0411253
0.0411264
0.0411279
0.0411298
0.0411325
0.0411361
0.0411405
0.0411456
0.0411512
0.0411571
0.041163
0.0411687
0.0411741
0.041179
0.0411835
0.0411875
0.0419572
0.0419423
0.0419226
0.0418958
0.0418612
0.0418174
0.0417645
0.0417028
0.0416343
0.0415617
0.0414885
0.0414183
0.0413538
0.0412976
0.0412516
0.0412163
0.0411882
0.0411684
0.0411582
0.0411519
0.041146
0.0411404
0.0411375
0.0411356
0.0411349
0.0411356
0.0411372
0.0411395
0.0411424
0.0411459
0.0411502
0.0411551
0.0411607
0.0411667
0.0411729
0.0411792
0.0411852
0.041191
0.0411962
0.041201
0.0412053
0.0412092
0.0419718
0.0419517
0.0419245
0.0418894
0.0418448
0.0417905
0.041727
0.0416563
0.041581
0.0415049
0.0414317
0.0413645
0.0413059
0.041258
0.0412216
0.0411926
0.0411715
0.0411609
0.0411554
0.0411499
0.0411444
0.0411408
0.0411386
0.0411382
0.0411396
0.0411423
0.0411461
0.0411505
0.0411553
0.0411607
0.0411664
0.0411725
0.0411787
0.0411852
0.0411916
0.0411979
0.041204
0.0412096
0.0412148
0.0412196
0.0412238
0.0412277
0.0419767
0.0419486
0.0419121
0.0418656
0.0418088
0.0417422
0.0416678
0.0415887
0.0415086
0.0414318
0.0413617
0.0413014
0.0412512
0.0412121
0.0411859
0.0411688
0.0411542
0.0411452
0.0411408
0.0411389
0.0411378
0.0411367
0.0411364
0.041137
0.0411388
0.0411425
0.0411478
0.0411546
0.0411624
0.0411707
0.0411791
0.0411873
0.041195
0.041202
0.0412084
0.0412141
0.0412192
0.0412237
0.0412278
0.0412315
0.0412349
0.0412382
0.0419691
0.0419304
0.0418811
0.0418205
0.0417496
0.0416703
0.0415861
0.041501
0.0414198
0.0413461
0.0412827
0.0412311
0.0411937
0.0411661
0.0411459
0.0411343
0.0411289
0.041126
0.0411233
0.0411208
0.0411199
0.04112
0.0411217
0.0411259
0.0411315
0.0411392
0.0411478
0.0411572
0.0411667
0.0411761
0.0411849
0.0411931
0.0412006
0.0412073
0.0412133
0.0412188
0.0412237
0.0412281
0.0412322
0.041236
0.0412396
0.0412431
0.0419449
0.0418919
0.0418268
0.0417503
0.041665
0.0415744
0.0414835
0.0413967
0.041319
0.0412527
0.041199
0.0411605
0.0411337
0.0411152
0.0411035
0.0410978
0.0410949
0.041093
0.0410917
0.0410918
0.0410935
0.0410965
0.0411019
0.0411094
0.0411185
0.041129
0.04114
0.0411513
0.0411621
0.0411724
0.0411817
0.0411902
0.0411978
0.0412046
0.0412105
0.0412159
0.0412207
0.041225
0.0412289
0.0412325
0.041236
0.0412393
0.0419005
0.0418304
0.041748
0.0416558
0.0415582
0.0414603
0.0413675
0.0412849
0.0412148
0.0411587
0.0411204
0.0410947
0.0410746
0.0410629
0.0410579
0.0410564
0.0410557
0.041055
0.0410551
0.0410571
0.0410606
0.0410668
0.0410759
0.041087
0.0410999
0.0411135
0.0411272
0.0411402
0.0411522
0.0411628
0.0411722
0.0411803
0.0411873
0.0411934
0.0411988
0.0412036
0.0412079
0.0412119
0.0412156
0.0412192
0.0412227
0.0412262
0.0418357
0.0417476
0.0416489
0.0415444
0.0414394
0.04134
0.041252
0.0411793
0.0411201
0.0410762
0.0410531
0.0410394
0.041026
0.0410177
0.0410131
0.0410116
0.0410129
0.0410162
0.0410205
0.0410258
0.0410329
0.0410416
0.0410525
0.0410651
0.0410789
0.0410934
0.0411079
0.041122
0.0411352
0.041147
0.0411575
0.0411664
0.0411739
0.0411802
0.0411854
0.0411898
0.0411936
0.041197
0.0412
0.0412028
0.0412056
0.0412084
0.0417549
0.041651
0.0415403
0.0414289
0.0413237
0.0412305
0.0411518
0.0410897
0.0410488
0.0410231
0.0410018
0.040989
0.040984
0.0409831
0.0409835
0.0409834
0.0409838
0.0409858
0.0409894
0.0409963
0.0410063
0.041019
0.0410341
0.0410504
0.0410671
0.0410832
0.041098
0.0411112
0.0411227
0.0411326
0.041141
0.0411481
0.0411543
0.0411596
0.0411644
0.0411687
0.0411727
0.0411765
0.0411802
0.0411838
0.0411875
0.0411913
0.0416648
0.04155
0.0414337
0.041323
0.0412241
0.0411401
0.0410771
0.0410337
0.0409997
0.0409766
0.0409693
0.0409681
0.0409665
0.0409628
0.0409598
0.0409584
0.04096
0.0409642
0.0409725
0.0409843
0.0409987
0.0410144
0.0410305
0.0410462
0.041061
0.0410747
0.0410871
0.0410984
0.0411084
0.0411175
0.0411257
0.0411331
0.0411399
0.0411462
0.0411521
0.0411575
0.0411626
0.0411673
0.0411716
0.0411757
0.0411795
0.0411832
0.0415733
0.041454
0.041339
0.0412349
0.0411461
0.0410792
0.0410302
0.0409914
0.0409696
0.0409633
0.0409603
0.0409549
0.04095
0.0409465
0.0409455
0.0409478
0.0409529
0.0409621
0.0409734
0.0409865
0.0410004
0.0410147
0.0410291
0.0410431
0.0410567
0.0410696
0.0410817
0.041093
0.0411034
0.0411129
0.0411215
0.0411294
0.0411364
0.0411427
0.0411482
0.0411532
0.0411576
0.0411615
0.0411651
0.0411684
0.0411715
0.0411745
0.0414859
0.0413685
0.0412608
0.0411677
0.0410957
0.0410423
0.0410002
0.0409754
0.0409674
0.0409628
0.0409577
0.040951
0.0409478
0.040947
0.0409496
0.0409549
0.0409639
0.040975
0.0409877
0.0410013
0.0410152
0.0410293
0.0410431
0.0410567
0.0410698
0.0410823
0.041094
0.0411049
0.041115
0.0411242
0.0411324
0.0411398
0.0411463
0.041152
0.0411571
0.0411615
0.0411654
0.041169
0.0411722
0.0411752
0.0411781
0.0411809
0.0414035
0.0412942
0.0411985
0.0411209
0.0410652
0.0410235
0.0409922
0.0409784
0.0409741
0.0409706
0.0409668
0.0409638
0.0409619
0.0409634
0.0409677
0.040975
0.040985
0.0409968
0.0410098
0.0410237
0.0410379
0.0410521
0.0410661
0.0410797
0.0410926
0.0411048
0.0411161
0.0411265
0.0411359
0.0411444
0.041152
0.0411587
0.0411647
0.04117
0.0411747
0.0411789
0.0411828
0.0411863
0.0411896
0.0411927
0.0411957
0.0411987
0.0413293
0.0412326
0.0411537
0.0410927
0.04105
0.0410218
0.041003
0.040994
0.0409895
0.0409873
0.0409852
0.040984
0.0409842
0.0409866
0.0409922
0.041
0.0410111
0.0410235
0.0410377
0.0410521
0.0410671
0.0410815
0.0410955
0.0411087
0.041121
0.0411323
0.0411427
0.041152
0.0411605
0.041168
0.0411748
0.041181
0.0411865
0.0411915
0.0411961
0.0412004
0.0412043
0.041208
0.0412115
0.0412148
0.0412181
0.0412214
0.0412656
0.0411867
0.0411257
0.0410814
0.0410521
0.0410332
0.0410223
0.0410153
0.0410123
0.0410101
0.0410091
0.0410099
0.0410125
0.0410177
0.0410252
0.0410356
0.0410477
0.0410616
0.0410761
0.0410911
0.0411058
0.04112
0.0411333
0.0411457
0.0411569
0.0411671
0.0411763
0.0411846
0.041192
0.0411987
0.0412048
0.0412103
0.0412154
0.0412201
0.0412245
0.0412286
0.0412325
0.0412362
0.0412397
0.0412431
0.0412464
0.0412497
0.0412186
0.0411583