/*--------------------------------*- C++ -*----------------------------------*\
| =========                 |                                                 |
| \\      /  F ield         | OpenFOAM: The Open Source CFD Toolbox           |
|  \\    /   O peration     | Version:  2412                                  |
|   \\  /    A nd           | Website:  www.openfoam.com                      |
|    \\/     M anipulation  |                                                 |
\*---------------------------------------------------------------------------*/
FoamFile
{
    version     2.0;
    format      ascii;
    arch        "LSB;label=32;scalar=64";
    class       volScalarField;
    location    "0.056";
    object      p;
}
// * * * * * * * * * * * * * * * * * * * * * * * * * * * * * * * * * * * * * //

dimensions      [1 -1 -2 0 0 0 0];

internalField   nonuniform List<scalar> 
9922
(
4102.68
2906.07
2886.51
2906.55
2906.22
2910.09
2909.44
2910.27
2911.33
2911.56
2910.28
2907.54
2903.16
2897.26
2890.24
2882.63
2874.77
2866.81
2858.76
2850.53
2841.96
2832.86
2823.03
2812.39
2800.96
2788.71
2775.59
2761.6
2746.79
2731.24
2715
2698.03
2680.27
2661.6
2641.94
2621.18
2599.21
2575.88
2550.99
2524.35
2495.69
2464.69
2430.94
2393.95
2353.2
2308.17
2258.47
2203.94
2145.14
2083.99
2022.71
1962.78
1904.77
1848.94
1795.57
1744.86
1696.48
1650.08
1605.84
1563.77
1523.52
1484.67
1447.12
1411.27
1377.78
1347.23
1319.75
1295.13
1272.88
1252.52
1233.32
1215.88
1200.34
1186.27
1173.38
1161.39
1150.21
1139.66
1129.77
1120.37
1111.54
1103.13
1095.25
1087.77
1080.73
1074.01
1067.63
1061.53
1055.74
1050.23
1045.01
1040.02
1035.23
1030.66
1026.29
1022.09
1018.04
1014.16
1010.44
1006.9
1003.49
1000.22
997.076
994.072
991.195
988.457
985.813
983.294
980.857
978.566
976.349
974.257
972.211
970.287
968.511
966.768
965.15
963.511
962.026
960.532
958.296
4104.41
2905.55
2884.98
2905.32
2905.31
2909.43
2908.94
2909.9
2911.06
2911.31
2910.04
2907.27
2902.86
2896.92
2889.88
2882.27
2874.42
2866.49
2858.46
2850.26
2841.73
2832.64
2822.83
2812.2
2800.76
2788.5
2775.38
2761.36
2746.52
2730.93
2714.63
2697.62
2679.8
2661.07
2641.34
2620.48
2598.38
2574.89
2549.81
2522.94
2494
2462.68
2428.58
2391.24
2350.17
2304.9
2255.13
2200.87
2142.85
2082.92
2023.08
1964.4
1907.51
1853.05
1801.33
1751.85
1704.1
1657.88
1613.05
1569.91
1528.91
1490.26
1453.61
1418.65
1385.38
1354.08
1325.07
1298.71
1275.24
1254.54
1236.25
1219.31
1203.59
1189.11
1175.77
1163.37
1151.89
1141.2
1131.35
1122.1
1113.46
1105.19
1097.33
1089.8
1082.66
1075.85
1069.39
1063.23
1057.42
1051.9
1046.65
1041.62
1036.8
1032.19
1027.76
1023.5
1019.41
1015.51
1011.78
1008.2
1004.74
1001.44
998.268
995.234
992.325
989.557
986.881
984.322
981.84
979.496
977.22
975.066
972.951
970.938
969.057
967.211
965.489
963.738
962.083
960.437
957.994
4106.13
2905.06
2883.43
2904.06
2904.39
2908.77
2908.42
2909.52
2910.78
2911.06
2909.78
2906.99
2902.54
2896.57
2889.51
2881.9
2874.06
2866.16
2858.17
2849.99
2841.49
2832.43
2822.62
2812
2800.56
2788.3
2775.16
2761.12
2746.25
2730.62
2714.28
2697.21
2679.34
2660.55
2640.74
2619.79
2597.58
2573.94
2548.68
2521.59
2492.4
2460.8
2426.4
2388.76
2347.44
2302.01
2252.29
2198.32
2140.98
2082.17
2023.63
1966.21
1910.72
1857.55
1806.44
1757.37
1710.39
1665.16
1621.35
1578.65
1537.02
1496.89
1459
1423.69
1390.79
1360.06
1331.4
1304.86
1280.49
1258.27
1238.33
1220.85
1205.1
1190.68
1177.42
1165.08
1153.6
1142.82
1132.76
1123.25
1114.33
1105.82
1097.79
1090.14
1082.94
1076.08
1069.61
1063.47
1057.67
1052.15
1046.87
1041.82
1036.98
1032.35
1027.9
1023.63
1019.57
1015.7
1011.97
1008.4
1004.98
1001.74
998.633
995.665
992.809
990.085
987.464
984.971
982.557
980.279
978.071
976.006
973.989
972.085
970.291
968.53
966.898
965.277
963.695
962.085
959.679
4107.84
2904.6
2881.87
2902.79
2903.47
2908.09
2907.89
2909.13
2910.49
2910.8
2909.52
2906.7
2902.22
2896.21
2889.13
2881.52
2873.71
2865.83
2857.87
2849.72
2841.24
2832.2
2822.42
2811.8
2800.36
2788.09
2774.94
2760.88
2745.98
2730.31
2713.92
2696.8
2678.88
2660.04
2640.16
2619.12
2596.8
2573.02
2547.6
2520.32
2490.9
2459.05
2424.39
2386.51
2344.98
2299.46
2249.75
2196.06
2139.56
2082.09
2024.86
1968.79
1914.39
1861.66
1810.9
1762.34
1715.65
1670.67
1627.39
1585.71
1545.27
1505.78
1467.37
1430.56
1396.09
1364.34
1335.34
1308.92
1284.84
1262.93
1242.77
1224.28
1207.58
1192.39
1178.55
1165.81
1154.1
1143.18
1133.07
1123.56
1114.73
1106.36
1098.53
1091.03
1083.9
1077.05
1070.55
1064.37
1058.51
1052.9
1047.54
1042.43
1037.54
1032.86
1028.36
1024.08
1020.01
1016.11
1012.33
1008.71
1005.27
1002
998.882
995.881
992.974
990.191
987.527
984.999
982.55
980.223
977.957
975.838
973.778
971.846
970.019
968.23
966.567
964.97
963.518
962.046
959.749
4109.53
2904.18
2880.29
2901.5
2902.54
2907.42
2907.35
2908.73
2910.2
2910.52
2909.24
2906.41
2901.89
2895.85
2888.75
2881.14
2873.34
2865.5
2857.56
2849.45
2841
2831.98
2822.21
2811.59
2800.15
2787.87
2774.71
2760.64
2745.71
2730
2713.57
2696.4
2678.43
2659.53
2639.58
2618.47
2596.04
2572.14
2546.57
2519.11
2489.49
2457.42
2422.54
2384.45
2342.77
2297.15
2247.48
2194.29
2138.9
2082.74
2026.77
1971.92
1918.58
1866.94
1817.28
1769.5
1723.23
1678.11
1634.18
1591.81
1551.28
1512.53
1475.19
1439.1
1404.44
1371.57
1340.95
1312.98
1287.81
1265.38
1245.44
1227.35
1210.82
1195.63
1181.6
1168.57
1156.57
1145.45
1135.21
1125.59
1116.62
1108.07
1100.02
1092.33
1085.07
1078.16
1071.64
1065.42
1059.49
1053.83
1048.44
1043.3
1038.4
1033.72
1029.26
1025.01
1020.93
1017.02
1013.25
1009.66
1006.26
1003.03
999.936
996.967
994.084
991.318
988.668
986.161
983.741
981.439
979.186
977.067
974.995
973.047
971.199
969.387
967.64
965.942
964.366
962.808
960.455
4111.2
2903.79
2878.7
2900.2
2901.61
2906.73
2906.8
2908.33
2909.89
2910.24
2908.96
2906.11
2901.56
2895.48
2888.36
2880.76
2872.98
2865.16
2857.26
2849.18
2840.75
2831.75
2821.99
2811.38
2799.94
2787.66
2774.49
2760.4
2745.44
2729.7
2713.22
2696.01
2677.98
2659.03
2639.02
2617.82
2595.3
2571.29
2545.58
2517.96
2488.16
2455.9
2420.83
2382.57
2340.74
2295.05
2245.62
2193.19
2138.86
2083.66
2028.64
1974.68
1922.16
1871.69
1823.22
1776.28
1730.76
1686.46
1643.13
1600.63
1559.09
1519.04
1481.01
1445.11
1411.11
1378.85
1348.43
1320.04
1293.89
1270.04
1248.53
1229.37
1212.26
1196.84
1182.76
1169.74
1157.71
1146.49
1136.06
1126.21
1116.98
1108.21
1099.98
1092.17
1084.88
1077.96
1071.44
1065.2
1059.25
1053.57
1048.18
1043.05
1038.16
1033.49
1029.05
1024.8
1020.7
1016.76
1012.98
1009.41
1006
1002.76
999.648
996.667
993.788
991.03
988.396
985.905
983.509
981.24
979.02
976.939
974.904
973.016
971.258
969.565
967.922
966.324
964.802
963.294
961.034
4112.85
2903.43
2877.1
2898.88
2900.67
2906.04
2906.25
2907.93
2909.59
2909.96
2908.67
2905.8
2901.21
2895.1
2887.97
2880.37
2872.61
2864.82
2856.95
2848.9
2840.5
2831.53
2821.78
2811.17
2799.73
2787.44
2774.26
2760.16
2745.18
2729.4
2712.88
2695.62
2677.54
2658.53
2638.46
2617.19
2594.59
2570.47
2544.63
2516.86
2486.91
2454.48
2419.25
2380.83
2338.88
2293.26
2244.27
2192.56
2139
2084.6
2030.66
1977.81
1926.49
1876.71
1828.33
1781.57
1736.41
1692.63
1650.17
1608.81
1568.26
1528.38
1489.43
1452
1416.72
1383.86
1353.38
1325.16
1299.18
1275.45
1253.83
1234.14
1216.2
1199.88
1185.03
1171.44
1159.05
1147.65
1137.19
1127.41
1118.32
1109.66
1101.49
1093.69
1086.37
1079.41
1072.83
1066.55
1060.59
1054.92
1049.53
1044.4
1039.49
1034.82
1030.36
1026.07
1021.93
1017.98
1014.23
1010.66
1007.21
1003.9
1000.72
997.695
994.808
992.055
989.405
986.871
984.427
982.121
979.873
977.745
975.632
973.645
971.797
970.035
968.334
966.685
965.099
963.545
961.262
4114.48
2903.11
2875.49
2897.55
2899.72
2905.33
2905.7
2907.53
2909.28
2909.67
2908.38
2905.48
2900.86
2894.72
2887.57
2879.97
2872.24
2864.48
2856.64
2848.62
2840.25
2831.29
2821.56
2810.96
2799.51
2787.22
2774.03
2759.92
2744.91
2729.1
2712.54
2695.23
2677.11
2658.04
2637.91
2616.57
2593.89
2569.67
2543.72
2515.82
2485.73
2453.16
2417.77
2379.22
2337.23
2291.8
2243.22
2192.06
2139.25
2086.02
2033.33
1981.54
1931.04
1881.97
1834.47
1788.48
1743.64
1699.71
1656.79
1615.19
1575.07
1536.2
1498.31
1461.35
1425.57
1391.4
1359.33
1329.77
1302.85
1278.57
1256.74
1237.08
1219.24
1202.98
1188.08
1174.34
1161.74
1150.09
1139.33
1129.22
1119.81
1110.89
1102.52
1094.54
1087.05
1079.91
1073.19
1066.82
1060.83
1055.15
1049.72
1044.53
1039.59
1034.89
1030.38
1026.05
1021.91
1017.99
1014.25
1010.67
1007.22
1003.9
1000.73
997.724
994.887
992.189
989.577
987.058
984.618
982.335
980.141
978.09
976.051
974.136
972.335
970.608
968.968
967.389
965.859
964.344
962.146
4116.07
2902.83
2873.88
2896.21
2898.75
2904.6
2905.15
2907.14
2908.98
2909.38
2908.09
2905.16
2900.5
2894.32
2887.16
2879.57
2871.86
2864.13
2856.33
2848.34
2839.99
2831.06
2821.33
2810.74
2799.29
2786.99
2773.8
2759.67
2744.65
2728.81
2712.21
2694.85
2676.68
2657.56
2637.37
2615.97
2593.2
2568.9
2542.85
2514.83
2484.61
2451.91
2416.4
2377.77
2335.82
2290.62
2242.44
2191.95
2140.17
2088.24
2036.55
1985.67
1936.11
1888.04
1841.5
1796.22
1751.99
1708.63
1665.92
1623.84
1582.65
1542.84
1504.74
1468.34
1433.39
1399.82
1367.81
1337.65
1309.65
1284.01
1260.82
1240.01
1221.35
1204.52
1189.28
1175.35
1162.58
1150.78
1139.85
1129.63
1120.19
1111.33
1103.12
1095.31
1087.94
1080.83
1074.06
1067.62
1061.59
1055.83
1050.34
1045.09
1040.12
1035.37
1030.81
1026.44
1022.3
1018.36
1014.57
1010.92
1007.4
1004.03
1000.82
997.777
994.904
992.162
989.5
986.923
984.428
982.098
979.863
977.769
975.679
973.69
971.792
969.965
968.257
966.619
965.076
963.568
961.301
4117.64
2902.58
2872.27
2894.86
2897.76
2903.87
2904.61
2906.75
2908.67
2909.08
2907.78
2904.83
2900.13
2893.92
2886.75
2879.17
2871.48
2863.79
2856.01
2848.06
2839.74
2830.82
2821.11
2810.51
2799.06
2786.76
2773.56
2759.42
2744.39
2728.52
2711.88
2694.48
2676.26
2657.09
2636.84
2615.37
2592.54
2568.15
2542
2513.88
2483.56
2450.74
2415.13
2376.47
2334.61
2289.64
2241.94
2192.32
2141.63
2090.43
2039.29
1989.15
1940.42
1893.17
1847.11
1802.18
1758.43
1715.73
1673.97
1632.95
1592.45
1552.43
1513.2
1475.38
1439.49
1405.66
1373.83
1343.95
1316.1
1290.42
1266.94
1245.61
1226.26
1208.69
1192.75
1178.25
1165.09
1153.06
1142.03
1131.76
1122.27
1113.33
1104.98
1097
1089.44
1082.18
1075.34
1068.81
1062.65
1056.76
1051.15
1045.83
1040.79
1035.98
1031.39
1027.02
1022.87
1018.91
1015.09
1011.44
1007.95
1004.64
1001.47
998.461
995.58
992.822
990.17
987.626
985.168
982.852
980.615
978.526
976.464
974.518
972.658
970.845
969.107
967.425
965.852
964.326
962.034
4119.16
2902.37
2870.66
2893.49
2896.75
2903.11
2904.07
2906.37
2908.35
2908.78
2907.47
2904.49
2899.75
2893.51
2886.33
2878.76
2871.1
2863.44
2855.7
2847.77
2839.48
2830.58
2820.88
2810.29
2798.83
2786.52
2773.32
2759.17
2744.12
2728.23
2711.56
2694.12
2675.84
2656.62
2636.32
2614.8
2591.89
2567.43
2541.2
2512.99
2482.56
2449.66
2413.98
2375.33
2333.61
2289
2241.96
2193.11
2143.08
2092.42
2042.25
1993.25
1945.37
1898.64
1853.13
1808.75
1765.28
1722.56
1680.67
1639.81
1600.05
1561.15
1522.91
1485.33
1448.7
1413.48
1380.17
1349.14
1320.55
1294.42
1270.65
1249.11
1229.58
1211.86
1195.73
1180.97
1167.48
1155.07
1143.63
1132.95
1123.07
1113.79
1105.16
1096.98
1089.31
1082.01
1075.16
1068.63
1062.43
1056.5
1050.9
1045.6
1040.59
1035.8
1031.23
1026.89
1022.75
1018.76
1014.92
1011.28
1007.82
1004.54
1001.39
998.36
995.442
992.654
990.006
987.489
985.064
982.757
980.51
978.421
976.393
974.528
972.783
971.096
969.438
967.824
966.256
964.68
962.278
4120.66
2902.19
2869.05
2892.11
2895.72
2902.35
2903.54
2905.99
2908.03
2908.46
2907.14
2904.13
2899.36
2893.09
2885.9
2878.34
2870.71
2863.08
2855.38
2847.48
2839.21
2830.33
2820.64
2810.06
2798.6
2786.28
2773.07
2758.92
2743.86
2727.95
2711.25
2693.76
2675.44
2656.17
2635.81
2614.23
2591.27
2566.73
2540.43
2512.14
2481.63
2448.65
2412.95
2374.35
2332.84
2288.64
2242.24
2193.99
2144.52
2094.91
2046.07
1998.09
1951.14
1905.43
1860.78
1817.03
1774.07
1731.68
1689.73
1648.28
1607.62
1568.14
1530.04
1493.24
1457.53
1422.89
1389.5
1357.72
1327.94
1300.47
1275.44
1252.83
1232.48
1214.09
1197.46
1182.37
1168.67
1156.16
1144.67
1134.03
1124.22
1115.03
1106.49
1098.36
1090.73
1083.45
1076.59
1070
1063.75
1057.8
1052.23
1046.95
1041.91
1037.09
1032.48
1028.09
1023.86
1019.82
1015.98
1012.33
1008.86
1005.54
1002.34
999.268
996.316
993.499
990.826
988.285
985.836
983.502
981.213
979.064
976.96
975.007
973.187
971.454
969.754
968.133
966.515
964.903
962.455
4122.09
2902.05
2867.44
2890.71
2894.66
2901.57
2903.02
2905.62
2907.7
2908.13
2906.81
2903.77
2898.96
2892.67
2885.46
2877.92
2870.32
2862.73
2855.06
2847.19
2838.95
2830.09
2820.41
2809.82
2798.36
2786.04
2772.82
2758.67
2743.6
2727.67
2710.94
2693.42
2675.05
2655.73
2635.32
2613.69
2590.66
2566.06
2539.7
2511.34
2480.77
2447.75
2412.06
2373.57
2332.34
2288.61
2242.66
2194.99
2146.51
2098.14
2050.12
2002.64
1956.26
1911.11
1867.04
1823.81
1781.38
1739.71
1698.65
1658.04
1617.75
1577.81
1538.55
1500.55
1464.2
1429.58
1396.59
1365.22
1335.63
1308.04
1282.59
1259.37
1238.28
1219.17
1201.89
1186.29
1172.21
1159.36
1147.53
1136.5
1126.29
1116.73
1107.86
1099.46
1091.58
1084.06
1076.99
1070.25
1063.94
1057.97
1052.38
1047.05
1041.94
1037.03
1032.35
1027.86
1023.57
1019.5
1015.66
1012
1008.47
1005.08
1001.82
998.695
995.726
992.907
990.222
987.653
985.18
982.837
980.56
978.438
976.358
974.418
972.6
970.868
969.177
967.591
966.02
964.514
962.295
4123.51
2901.94
2865.84
2889.29
2893.58
2900.79
2902.52
2905.26
2907.36
2907.78
2906.45
2903.39
2898.55
2892.23
2885.02
2877.5
2869.92
2862.37
2854.73
2846.89
2838.68
2829.84
2820.17
2809.58
2798.12
2785.79
2772.57
2758.41
2743.33
2727.39
2710.64
2693.08
2674.67
2655.3
2634.85
2613.16
2590.08
2565.43
2539
2510.59
2479.98
2446.94
2411.29
2372.96
2332.02
2288.73
2243.3
2196.43
2148.94
2101.2
2053.52
2006.75
1961.28
1916.82
1873.16
1830.29
1788.13
1746.59
1705.68
1665.54
1626.16
1587.34
1548.91
1510.95
1473.73
1437.7
1403.36
1371.06
1340.93
1313.02
1287.33
1263.81
1242.33
1222.83
1205.18
1189.1
1174.44
1161.03
1148.73
1137.34
1126.92
1117.24
1108.37
1100.02
1092.21
1084.76
1077.71
1070.98
1064.7
1058.76
1053.17
1047.79
1042.62
1037.65
1032.9
1028.37
1024.09
1020.05
1016.19
1012.48
1008.89
1005.45
1002.15
999.009
996.038
993.202
990.469
987.833
985.291
982.882
980.548
978.359
976.198
974.161
972.238
970.419
968.663
967.046
965.426
963.929
961.831
4124.84
2901.87
2864.24
2887.86
2892.49
2900.01
2902.02
2904.9
2907.01
2907.42
2906.08
2902.99
2898.12
2891.78
2884.57
2877.06
2869.52
2862
2854.41
2846.6
2838.41
2829.58
2819.92
2809.34
2797.87
2785.54
2772.31
2758.15
2743.07
2727.12
2710.34
2692.75
2674.3
2654.89
2634.39
2612.66
2589.53
2564.83
2538.36
2509.91
2479.27
2446.24
2410.69
2372.57
2331.98
2289.06
2244.26
2198.2
2151.3
2104.01
2057.29
2011.77
1967.2
1923.51
1880.75
1838.63
1796.95
1755.62
1714.55
1673.86
1633.83
1594.75
1556.75
1519.7
1483.44
1447.94
1413.42
1380.25
1348.86
1319.64
1292.75
1268.22
1245.98
1225.82
1207.55
1191.08
1176.33
1163.04
1150.93
1139.65
1129.26
1119.53
1110.53
1102
1094
1086.36
1079.17
1072.32
1065.88
1059.76
1053.97
1048.42
1043.12
1038.05
1033.23
1028.68
1024.41
1020.36
1016.46
1012.72
1009.15
1005.77
1002.56
999.522
996.621
993.82
991.093
988.471
985.967
983.621
981.362
979.251
977.147
975.158
973.252
971.423
969.651
968.035
966.395
964.866
962.586
4126.16
2901.83
2862.66
2886.42
2891.4
2899.23
2901.53
2904.53
2906.65
2907.05
2905.7
2902.59
2897.69
2891.33
2884.12
2876.63
2869.12
2861.64
2854.08
2846.3
2838.13
2829.33
2819.68
2809.1
2797.63
2785.28
2772.05
2757.89
2742.8
2726.84
2710.05
2692.43
2673.95
2654.5
2633.95
2612.18
2589.01
2564.27
2537.76
2509.28
2478.64
2445.65
2410.2
2372.3
2332.08
2289.66
2245.49
2199.99
2153.63
2107.37
2062
2017.37
1973.43
1930.37
1888.04
1846.3
1805.13
1764.45
1724.14
1684.06
1644.15
1604.48
1565.38
1527.35
1490.72
1455.48
1421.52
1388.86
1357.71
1328.34
1300.98
1275.76
1252.75
1231.84
1212.85
1195.81
1180.55
1166.6
1153.74
1141.77
1130.83
1120.63
1111.26
1102.4
1094.21
1086.45
1079.23
1072.36
1065.91
1059.76
1053.95
1048.39
1043.11
1038.06
1033.29
1028.79
1024.54
1020.44
1016.48
1012.7
1009.11
1005.7
1002.46
999.364
996.388
993.516
990.748
988.117
985.631
983.307
981.056
978.952
976.856
974.882
972.998
971.191
969.411
967.727
966.039
964.465
962.152
4127.36
2901.81
2861.08
2884.99
2890.32
2898.46
2901.04
2904.16
2906.29
2906.67
2905.31
2902.17
2897.24
2890.86
2883.65
2876.19
2868.72
2861.27
2853.75
2846
2837.86
2829.07
2819.43
2808.85
2797.37
2785.02
2771.79
2757.62
2742.54
2726.57
2709.77
2692.13
2673.61
2654.13
2633.54
2611.73
2588.52
2563.75
2537.22
2508.73
2478.1
2445.19
2409.92
2372.3
2332.39
2290.46
2246.82
2201.87
2156.43
2111.3
2066.52
2022.11
1978.55
1935.95
1894.11
1852.84
1812.01
1771.61
1731.67
1692.25
1653.31
1614.68
1576.26
1538.12
1500.54
1463.95
1428.8
1395.4
1363.91
1334.37
1306.85
1281.37
1257.88
1236.43
1217.03
1199.36
1183.15
1168.38
1155.1
1143.04
1132.18
1122.05
1112.74
1103.92
1095.79
1088.09
1080.88
1074
1067.49
1061.28
1055.4
1049.79
1044.42
1039.31
1034.47
1029.89
1025.51
1021.3
1017.28
1013.48
1009.85
1006.37
1003.01
999.769
996.644
993.653
990.826
988.158
985.619
983.206
980.83
978.582
976.358
974.265
972.279
970.402
968.543
966.823
965.062
963.399
961.047
4128.55
2901.82
2859.53
2883.56
2889.26
2897.7
2900.53
2903.78
2905.92
2906.29
2904.91
2901.74
2896.79
2890.39
2883.18
2875.74
2868.31
2860.9
2853.42
2845.7
2837.58
2828.8
2819.17
2808.6
2797.12
2784.76
2771.52
2757.35
2742.27
2726.3
2709.49
2691.84
2673.29
2653.77
2633.15
2611.3
2588.07
2563.27
2536.72
2508.24
2477.66
2444.84
2409.74
2372.43
2332.91
2291.43
2248.3
2204.1
2159.58
2115.01
2070.53
2026.94
1984.44
1942.78
1901.72
1861.1
1820.71
1780.47
1740.36
1700.52
1661.18
1622.57
1584.77
1547.63
1511.01
1474.91
1439.5
1405.17
1372.38
1341.55
1312.89
1286.47
1262.24
1240.12
1220.03
1201.9
1185.73
1171.39
1158.42
1146.26
1135.04
1124.43
1114.64
1105.42
1096.93
1088.91
1081.44
1074.35
1067.71
1061.41
1055.44
1049.74
1044.29
1039.12
1034.24
1029.6
1025.11
1020.83
1016.8
1013.02
1009.38
1005.87
1002.48
999.224
996.11
993.161
990.391
987.758
985.229
982.811
980.437
978.208
976.011
973.957
972.035
970.24
968.459
966.836
965.128
963.567
961.334
4129.62
2901.85
2858
2882.13
2888.21
2896.94
2900.02
2903.38
2905.54
2905.89
2904.5
2901.31
2896.32
2889.91
2882.71
2875.29
2867.89
2860.53
2853.08
2845.4
2837.3
2828.54
2818.91
2808.34
2796.86
2784.49
2771.25
2757.08
2742
2726.03
2709.22
2691.55
2672.99
2653.44
2632.79
2610.91
2587.65
2562.84
2536.3
2507.83
2477.31
2444.63
2409.77
2372.71
2333.57
2292.54
2250.01
2206.57
2162.64
2118.55
2075.13
2032.85
1991.26
1950.18
1909.61
1869.44
1829.56
1789.91
1750.43
1711
1671.62
1632.37
1593.58
1555.68
1518.91
1483.23
1448.51
1414.79
1382.29
1351.32
1322.15
1294.98
1269.97
1247.07
1226.11
1207.31
1190.61
1175.28
1161.1
1148.06
1136.27
1125.33
1115.42
1106.15
1097.69
1089.68
1082.24
1075.19
1068.6
1062.34
1056.36
1050.63
1045.17
1040.01
1035.07
1030.33
1025.76
1021.44
1017.39
1013.54
1009.82
1006.27
1002.91
999.739
996.72
993.857
991.126
988.496
985.926
983.453
981.048
978.807
976.616
974.579
972.671
970.884
969.097
967.467
965.722
964.115
961.772
4130.65
2901.88
2856.49
2880.71
2887.17
2896.18
2899.48
2902.96
2905.14
2905.48
2904.08
2900.86
2895.84
2889.42
2882.23
2874.83
2867.48
2860.16
2852.75
2845.09
2837.01
2828.27
2818.65
2808.08
2796.59
2784.22
2770.97
2756.8
2741.72
2725.77
2708.95
2691.28
2672.7
2653.13
2632.46
2610.56
2587.28
2562.46
2535.93
2507.51
2477.08
2444.55
2409.91
2373.15
2334.39
2293.85
2251.93
2209.08
2165.72
2122.63
2080.44
2038.62
1997.16
1956.3
1916.08
1876.29
1836.78
1797.51
1758.52
1719.84
1681.42
1643.13
1604.88
1566.76
1529.03
1492.1
1456.36
1422.06
1389.37
1358.37
1329.16
1301.82
1276.35
1252.9
1231.49
1211.91
1193.96
1177.67
1163.27
1150.46
1138.87
1128
1118.03
1108.58
1099.86
1091.57
1083.83
1076.53
1069.69
1063.19
1056.98
1051.09
1045.53
1040.27
1035.22
1030.36
1025.75
1021.41
1017.3
1013.36
1009.55
1005.93
1002.53
999.314
996.277
993.401
990.657
988.005
985.394
982.879
980.444
978.186
975.986
973.929
971.979
970.13
968.265
966.552
964.744
963.078
960.676
4131.57
2901.92
2855.02
2879.31
2886.16
2895.43
2898.94
2902.53
2904.72
2905.05
2903.64
2900.39
2895.35
2888.92
2881.73
2874.37
2867.06
2859.78
2852.41
2844.79
2836.73
2827.99
2818.39
2807.82
2796.32
2783.95
2770.69
2756.52
2741.45
2725.5
2708.69
2691.02
2672.43
2652.85
2632.16
2610.24
2586.95
2562.14
2535.64
2507.27
2476.92
2444.6
2410.18
2373.74
2335.37
2295.32
2253.94
2211.67
2169.19
2127.14
2085.32
2043.67
2002.9
1962.89
1923.47
1884.34
1845.29
1806.2
1767.11
1728.18
1689.59
1651.53
1614.01
1576.93
1540.16
1503.68
1467.64
1432.41
1398.45
1366.19
1335.9
1307.66
1281.48
1257.34
1235.28
1215.23
1197.11
1181.3
1167.16
1153.76
1141.33
1129.79
1119.31
1109.48
1100.47
1091.95
1084.09
1076.72
1069.86
1063.35
1057.18
1051.34
1045.85
1040.64
1035.59
1030.76
1026.19
1021.89
1017.77
1013.81
1009.98
1006.36
1002.89
999.567
996.344
993.233
990.233
987.341
984.583
982.001
979.557
977.301
975.103
973.047
971.114
969.301
967.49
965.849
964.088
962.503
960.315
4132.44
2901.97
2853.59
2877.93
2885.16
2894.69
2898.4
2902.08
2904.29
2904.61
2903.19
2899.91
2894.85
2888.4
2881.24
2873.91
2866.64
2859.41
2852.08
2844.48
2836.44
2827.72
2818.12
2807.55
2796.05
2783.67
2770.41
2756.24
2741.17
2725.23
2708.43
2690.77
2672.18
2652.59
2631.89
2609.96
2586.67
2561.87
2535.4
2507.11
2476.93
2444.76
2410.59
2374.47
2336.5
2296.92
2256.08
2214.54
2172.92
2131.38
2089.88
2049.32
2009.69
1970.57
1931.78
1893.18
1854.64
1816.08
1777.49
1738.83
1700.1
1661.42
1623.07
1585.42
1548.65
1512.71
1477.46
1442.91
1409.29
1376.93
1346.14
1317.14
1290.14
1265.19
1242.25
1221.55
1202.93
1185.64
1169.82
1155.58
1142.92
1131.42
1121.07
1111.32
1102.37
1093.87
1085.99
1078.54
1071.56
1064.93
1058.62
1052.63
1046.95
1041.53
1036.31
1031.36
1026.69
1022.27
1018.05
1014.04
1010.24
1006.65
1003.23
999.989
996.889
993.878
990.914
988.047
985.332
982.785
980.359
978.098
975.876
973.787
971.821
969.981
968.136
966.469
964.676
963.047
960.63
4133.14
2902.03
2852.22
2876.57
2884.17
2893.95
2897.84
2901.62
2903.84
2904.15
2902.71
2899.41
2894.33
2887.88
2880.73
2873.44
2866.21
2859.03
2851.74
2844.17
2836.15
2827.44
2817.84
2807.28
2795.78
2783.39
2770.12
2755.95
2740.89
2724.97
2708.18
2690.52
2671.94
2652.35
2631.65
2609.72
2586.44
2561.67
2535.26
2507.06
2477.01
2445.03
2411.13
2375.33
2337.75
2298.64
2258.4
2217.6
2176.59
2135.55
2095.18
2055.83
2016.57
1977.6
1938.88
1900.5
1862.3
1824.18
1786.16
1748.28
1710.48
1672.65
1634.72
1596.79
1559.12
1522.04
1485.89
1450.9
1417.21
1384.94
1354.22
1325.15
1297.81
1272.33
1248.77
1227.15
1207.55
1189.53
1173.61
1159.46
1146.61
1134.63
1123.63
1113.31
1103.89
1095.01
1086.8
1079.03
1071.78
1064.92
1058.49
1052.42
1046.68
1041.2
1035.97
1031.04
1026.36
1021.9
1017.63
1013.57
1009.72
1006.06
1002.58
999.281
996.163
993.185
990.335
987.621
985.025
982.557
980.152
977.879
975.62
973.454
971.381
969.425
967.443
965.634
963.738
962.032
959.58
4133.76
2902.08
2850.92
2875.22
2883.21
2893.22
2897.28
2901.14
2903.38
2903.67
2902.23
2898.9
2893.8
2887.35
2880.22
2872.96
2865.78
2858.65
2851.4
2843.86
2835.86
2827.15
2817.56
2807
2795.5
2783.11
2769.84
2755.67
2740.61
2724.7
2707.93
2690.29
2671.72
2652.13
2631.44
2609.52
2586.26
2561.53
2535.17
2507.1
2477.19
2445.42
2411.79
2376.32
2339.13
2300.52
2260.9
2220.72
2180.31
2140.21
2100.9
2061.61
2022.42
1983.95
1945.96
1908.32
1870.64
1832.77
1794.76
1756.78
1719
1681.56
1644.44
1607.56
1570.81
1534.16
1497.75
1461.87
1426.98
1393.51
1361.74
1331.83
1303.8
1277.66
1253.48
1231.26
1211.15
1193.82
1177.76
1162.65
1148.83
1136.17
1124.78
1114.33
1104.96
1096.14
1087.99
1080.22
1072.94
1066.08
1059.66
1053.58
1047.8
1042.29
1037.04
1032.07
1027.32
1022.79
1018.47
1014.37
1010.44
1006.67
1003.04
999.515
996.048
992.714
989.606
986.715
984.027
981.485
979.022
976.685
974.373
972.159
970.075
968.15
966.223
964.496
962.659
960.994
958.736
4134.25
2902.13
2849.69
2873.92
2882.26
2892.5
2896.71
2900.66
2902.9
2903.19
2901.73
2898.38
2893.25
2886.81
2879.71
2872.49
2865.35
2858.27
2851.06
2843.55
2835.56
2826.87
2817.28
2806.72
2795.22
2782.83
2769.55
2755.38
2740.33
2724.43
2707.68
2690.06
2671.51
2651.94
2631.26
2609.36
2586.13
2561.44
2535.18
2507.21
2477.47
2445.92
2412.55
2377.41
2340.63
2302.52
2263.49
2223.93
2184.33
2145.16
2106.14
2067.05
2029.06
1991.65
1954.54
1917.48
1880.3
1842.93
1805.32
1767.53
1729.58
1691.59
1653.78
1616.48
1579.85
1543.81
1508.23
1473.11
1438.64
1405.15
1372.95
1342.29
1313.4
1286.45
1261.55
1238.74
1217.62
1197.99
1180.63
1165.28
1151.64
1139.24
1127.88
1117.29
1107.58
1098.36
1089.8
1081.7
1074.18
1067.07
1060.38
1054.04
1048.02
1042.36
1037.02
1031.97
1027.17
1022.64
1018.36
1014.3
1010.37
1006.61
1002.99
999.518
996.174
993.014
990.053
987.234
984.536
981.946
979.43
977.049
974.726
972.534
970.504
968.641
966.764
965.075
963.238
961.581
959.131
4134.63
2902.16
2848.56
2872.66
2881.33
2891.78
2896.13
2900.15
2902.41
2902.69
2901.22
2897.84
2892.7
2886.26
2879.18
2872
2864.92
2857.88
2850.72
2843.24
2835.27
2826.58
2816.99
2806.43
2794.93
2782.54
2769.26
2755.09
2740.05
2724.17
2707.44
2689.84
2671.31
2651.77
2631.11
2609.24
2586.05
2561.43
2535.26
2507.41
2477.84
2446.52
2413.42
2378.61
2342.26
2304.66
2266.21
2227.36
2188.56
2149.9
2111.24
2073.43
2036.51
1999.33
1962.35
1925.36
1888.48
1851.56
1814.56
1777.54
1740.45
1703.21
1665.75
1628.18
1590.72
1553.66
1517.27
1481.77
1447.31
1413.99
1381.97
1351.37
1322.29
1294.84
1269.14
1245.51
1224.05
1204.18
1186.34
1170.4
1155.81
1142.34
1130.03
1118.79
1108.57
1099.04
1090.36
1082.24
1074.81
1067.77
1061.12
1054.76
1048.74
1043.09
1037.75
1032.68
1027.86
1023.29
1018.89
1014.66
1010.62
1006.83
1003.19
999.716
996.408
993.258
990.236
987.338
984.556
981.899
979.348
976.959
974.647
972.452
970.381
968.442
966.472
964.678
962.773
961.023
958.491
4134.83
2902.19
2847.52
2871.45
2880.43
2891.07
2895.54
2899.63
2901.91
2902.17
2900.69
2897.28
2892.13
2885.7
2878.65
2871.52
2864.49
2857.5
2850.38
2842.93
2834.97
2826.29
2816.7
2806.14
2794.65
2782.25
2768.96
2754.8
2739.77
2723.9
2707.2
2689.63
2671.13
2651.62
2630.99
2609.16
2586.02
2561.48
2535.39
2507.69
2478.31
2447.21
2414.38
2379.92
2343.99
2306.91
2269.08
2230.94
2192.77
2154.63
2116.98
2080.21
2043.03
2005.98
1969.41
1933
1896.67
1860.09
1823.23
1786.25
1749.36
1712.6
1675.98
1639.44
1602.88
1566.28
1529.71
1493.44
1457.86
1423.4
1390.37
1358.95
1329.2
1301.15
1274.85
1250.49
1228.41
1208.9
1190.66
1173.76
1158.29
1144.46
1132.17
1121.08
1110.88
1101.36
1092.66
1084.42
1076.77
1069.43
1062.46
1055.8
1049.55
1043.66
1038.14
1032.94
1028.03
1023.33
1018.75
1014.36
1010.23
1006.35
1002.59
998.98
995.537
992.289
989.192
986.206
983.344
980.613
978.005
975.566
973.22
970.997
968.918
966.985
965.033
963.264
961.376
959.633
957.18
4134.9
2902.2
2846.58
2870.3
2879.55
2890.37
2894.95
2899.1
2901.39
2901.64
2900.14
2896.71
2891.55
2885.13
2878.12
2871.03
2864.05
2857.12
2850.04
2842.62
2834.68
2825.99
2816.41
2805.85
2794.35
2781.95
2768.67
2754.5
2739.48
2723.63
2706.95
2689.42
2670.96
2651.48
2630.9
2609.11
2586.04
2561.57
2535.61
2508.05
2478.86
2447.98
2415.44
2381.33
2345.84
2309.3
2272.11
2234.62
2197.05
2159.72
2123
2086.23
2049.29
2013.46
1977.79
1942.22
1906.49
1870.39
1833.9
1797.07
1760.01
1722.81
1685.66
1648.82
1612.43
1576.45
1540.74
1505.27
1470.22
1435.86
1402.52
1370.44
1339.85
1311.02
1284.13
1259.07
1235.51
1213.77
1194.62
1177.66
1162.61
1148.87
1136.04
1124.08
1113.03
1102.9
1093.73
1085.1
1077.1
1069.48
1062.38
1055.7
1049.51
1043.7
1038.27
1033.14
1028.24
1023.51
1018.95
1014.65
1010.57
1006.65
1002.82
999.222
995.873
992.693
989.602
986.591
983.693
980.93
978.29
975.83
973.475
971.245
969.175
967.246
965.281
963.484
961.595
959.882
957.328
4134.79
2902.21
2845.75
2869.2
2878.7
2889.67
2894.34
2898.56
2900.86
2901.1
2899.58
2896.13
2890.96
2884.55
2877.57
2870.53
2863.61
2856.73
2849.7
2842.31
2834.38
2825.7
2816.11
2805.55
2794.05
2781.66
2768.38
2754.21
2739.2
2723.37
2706.72
2689.22
2670.8
2651.37
2630.83
2609.1
2586.1
2561.73
2535.88
2508.49
2479.49
2448.84
2416.59
2382.84
2347.8
2311.82
2275.24
2238.38
2201.53
2165.01
2128.64
2092.14
2056.65
2021.7
1986.24
1950.87
1915.27
1879.57
1843.68
1807.59
1771.31
1734.77
1697.93
1660.86
1623.76
1586.87
1550.42
1514.59
1479.55
1445.41
1412.33
1380.44
1349.8
1320.53
1292.83
1267.15
1243.57
1221.75
1201.79
1183.69
1167.11
1151.97
1138.16
1125.72
1114.57
1104.57
1095.48
1086.8
1078.74
1071.06
1063.97
1057.25
1050.95
1044.97
1039.33
1033.95
1028.77
1023.82
1019.18
1014.85
1010.76
1006.83
1003.03
999.471
996.114
992.891
989.756
986.723
983.821
981.054
978.414
975.946
973.556
971.244
969.058
966.997
964.905
962.983
961
959.166
956.479
4134.51
2902.21
2845.03
2868.16
2877.87
2888.98
2893.73
2898
2900.31
2900.54
2899
2895.52
2890.34
2883.97
2877.03
2870.04
2863.17
2856.35
2849.36
2842
2834.08
2825.4
2815.81
2805.25
2793.75
2781.36
2768.08
2753.92
2738.92
2723.1
2706.48
2689.02
2670.64
2651.27
2630.79
2609.13
2586.2
2561.93
2536.22
2508.99
2480.18
2449.78
2417.83
2384.46
2349.89
2314.46
2278.5
2242.31
2206.18
2170.21
2134.27
2098.92
2064.34
2028.92
1993.62
1958.55
1923.37
1888.09
1852.48
1816.58
1780.61
1744.63
1708.63
1672.55
1636.34
1599.96
1563.44
1526.99
1490.96
1455.74
1421.68
1388.97
1357.69
1327.86
1299.57
1273.08
1248.83
1226.79
1206.42
1187.51
1170.29
1155.1
1141.71
1129.54
1118.19
1107.58
1097.76
1088.46
1079.95
1071.88
1064.47
1057.45
1050.93
1044.79
1039.07
1033.65
1028.46
1023.56
1018.97
1014.57
1010.23
1006.05
1002.13
998.518
995.09
991.757
988.533
985.455
982.534
979.761
977.119
974.639
972.205
969.829
967.588
965.493
963.37
961.443
959.419
957.564
954.997
4134.02
2902.21
2844.41
2867.18
2877.06
2888.28
2893.1
2897.43
2899.75
2899.97
2898.4
2894.9
2889.72
2883.37
2876.47
2869.54
2862.73
2855.96
2849.03
2841.69
2833.78
2825.1
2815.5
2804.94
2793.44
2781.06
2767.79
2753.63
2738.64
2722.85
2706.25
2688.83
2670.5
2651.18
2630.77
2609.18
2586.35
2562.19
2536.61
2509.55
2480.95
2450.8
2419.16
2386.18
2352.1
2317.22
2281.88
2246.36
2210.86
2175.43
2140.32
2105.84
2070.96
2035.86
2001.77
1967.49
1933.1
1898.39
1863.16