/*--------------------------------*- C++ -*----------------------------------*\
| =========                 |                                                 |
| \\      /  F ield         | OpenFOAM: The Open Source CFD Toolbox           |
|  \\    /   O peration     | Version:  2412                                  |
|   \\  /    A nd           | Website:  www.openfoam.com                      |
|    \\/     M anipulation  |                                                 |
\*---------------------------------------------------------------------------*/
FoamFile
{
    version     2.0;
    format      ascii;
    arch        "LSB;label=32;scalar=64";
    class       volScalarField;
    location    "0.056";
    object      rho;
}
// * * * * * * * * * * * * * * * * * * * * * * * * * * * * * * * * * * * * * //

dimensions      [1 -3 0 0 0 0 0];

internalField   nonuniform List<scalar> 
9922
(
0.0562254
0.043616
0.0431595
0.0433426
0.043356
0.043402
0.0433954
0.0434044
0.0434156
0.043418
0.0434046
0.0433758
0.0433298
0.0432677
0.0431939
0.0431137
0.0430308
0.0429469
0.0428618
0.0427749
0.0426843
0.0425879
0.0424837
0.0423709
0.0422494
0.0421192
0.0419795
0.0418304
0.0416722
0.0415058
0.0413317
0.0411496
0.0409585
0.0407574
0.040545
0.0403203
0.0400819
0.039828
0.0395566
0.0392651
0.0389505
0.038609
0.0382357
0.0378249
0.0373701
0.0368649
0.0363038
0.035684
0.0350106
0.0343045
0.0335907
0.0328863
0.0321984
0.0315306
0.0308866
0.0302694
0.0296757
0.0291014
0.0285495
0.0280205
0.0275105
0.0270143
0.0265311
0.0260663
0.025629
0.0252273
0.0248636
0.0245359
0.0242381
0.0239644
0.023705
0.0234683
0.0232566
0.0230641
0.0228872
0.0227222
0.0225678
0.0224218
0.0222845
0.0221537
0.0220305
0.0219129
0.0218024
0.0216973
0.0215983
0.0215035
0.0214134
0.0213271
0.0212452
0.021167
0.0210929
0.0210218
0.0209537
0.0208884
0.0208259
0.0207658
0.0207078
0.0206521
0.020599
0.0205481
0.020499
0.0204517
0.0204058
0.0203616
0.0203195
0.02028
0.0202432
0.0202099
0.020179
0.0201502
0.02012
0.0200873
0.02005
0.0200111
0.0199715
0.0199281
0.0198829
0.0198367
0.0197957
0.0197596
0.0197213
0.0562392
0.0436085
0.043142
0.0433298
0.0433466
0.0433951
0.0433901
0.0434005
0.0434127
0.0434155
0.0434021
0.043373
0.0433266
0.0432641
0.04319
0.0431098
0.0430271
0.0429435
0.0428587
0.0427721
0.0426818
0.0425856
0.0424816
0.0423688
0.0422474
0.042117
0.0419772
0.0418278
0.0416693
0.0415024
0.0413278
0.0411452
0.0409535
0.0407517
0.0405385
0.0403127
0.0400729
0.0398173
0.0395437
0.0392496
0.0389319
0.0385868
0.0382096
0.0377947
0.0373362
0.0368281
0.036266
0.0356491
0.0349843
0.034292
0.0335949
0.0329055
0.0322311
0.0315799
0.0309563
0.0303548
0.0297695
0.0291983
0.0286398
0.028098
0.027579
0.0270859
0.0266149
0.0261622
0.0257285
0.0253176
0.0249341
0.0245837
0.0242698
0.0239916
0.0237446
0.0235149
0.0233008
0.023103
0.0229201
0.0227495
0.0225911
0.0224432
0.0223064
0.0221779
0.0220573
0.0219417
0.0218316
0.0217259
0.0216255
0.0215295
0.0214383
0.0213512
0.021269
0.0211907
0.0211162
0.0210447
0.020976
0.0209102
0.0208469
0.020786
0.0207275
0.0206716
0.0206181
0.0205667
0.0205171
0.0204693
0.020423
0.0203784
0.0203358
0.0202958
0.0202585
0.0202246
0.0201931
0.0201636
0.0201329
0.0200996
0.0200617
0.0200215
0.0199803
0.0199354
0.0198886
0.0198405
0.0197969
0.0197585
0.019717
0.0562527
0.0436013
0.0431243
0.0433168
0.043337
0.0433881
0.0433847
0.0433965
0.0434098
0.0434128
0.0433994
0.0433701
0.0433233
0.0432604
0.0431861
0.0431059
0.0430234
0.04294
0.0428556
0.0427692
0.0426792
0.0425833
0.0424794
0.0423667
0.0422452
0.0421148
0.0419749
0.0418252
0.0416664
0.0414991
0.041324
0.0411408
0.0409485
0.0407461
0.0405321
0.0403053
0.0400642
0.0398069
0.0395313
0.0392348
0.0389143
0.0385661
0.0381854
0.0377672
0.0373056
0.0367956
0.0362338
0.0356199
0.0349628
0.0342834
0.0336014
0.0329268
0.0322693
0.0316339
0.0310182
0.0304222
0.0298469
0.0292886
0.0287435
0.0282081
0.027682
0.0271708
0.0266844
0.0262277
0.0257993
0.0253963
0.0250181
0.0246656
0.0243402
0.0240419
0.0237728
0.0235358
0.0233214
0.0231245
0.0229428
0.0227731
0.0226148
0.0224656
0.0223261
0.0221939
0.0220694
0.0219506
0.0218381
0.0217307
0.0216295
0.0215328
0.0214415
0.0213546
0.0212726
0.0211942
0.0211193
0.0210474
0.0209786
0.0209126
0.0208489
0.0207879
0.0207297
0.0206743
0.0206209
0.0205696
0.0205205
0.0204735
0.0204283
0.0203847
0.0203428
0.0203034
0.0202668
0.0202338
0.0202033
0.0201749
0.0201453
0.0201135
0.0200771
0.0200386
0.0199989
0.0199552
0.0199097
0.0198634
0.0198207
0.0197828
0.0197419
0.0562659
0.0435944
0.0431065
0.0433036
0.0433274
0.043381
0.0433791
0.0433925
0.0434068
0.04341
0.0433966
0.0433671
0.0433199
0.0432567
0.0431822
0.043102
0.0430196
0.0429365
0.0428524
0.0427664
0.0426767
0.042581
0.0424772
0.0423646
0.0422431
0.0421126
0.0419725
0.0418227
0.0416635
0.0414958
0.0413202
0.0411364
0.0409436
0.0407405
0.0405257
0.040298
0.0400557
0.039797
0.0395196
0.0392208
0.0388978
0.0385467
0.0381631
0.037742
0.0372781
0.0367668
0.0362051
0.0355941
0.0349464
0.0342824
0.0336158
0.0329573
0.032313
0.0316833
0.0310722
0.0304827
0.0299116
0.0293568
0.0288189
0.028297
0.0277866
0.0272844
0.0267921
0.0263169
0.0258685
0.0254526
0.0250702
0.0247196
0.0243984
0.0241046
0.0238327
0.0235824
0.0233552
0.0231479
0.0229582
0.0227831
0.0226216
0.0224706
0.0223304
0.0221982
0.022075
0.0219582
0.0218485
0.0217433
0.021643
0.0215464
0.0214548
0.0213673
0.0212844
0.0212049
0.0211289
0.0210561
0.0209866
0.0209198
0.0208556
0.0207944
0.020736
0.0206801
0.020626
0.0205741
0.0205246
0.0204774
0.0204319
0.0203878
0.0203451
0.0203049
0.0202676
0.020234
0.020203
0.020174
0.0201437
0.0201113
0.0200745
0.0200357
0.0199954
0.0199514
0.0199053
0.0198592
0.0198183
0.0197825
0.0197433
0.0562789
0.0435877
0.0430885
0.0432904
0.0433178
0.0433739
0.0433735
0.0433883
0.0434037
0.0434071
0.0433937
0.043364
0.0433165
0.0432529
0.0431782
0.043098
0.0430158
0.042933
0.0428492
0.0427635
0.0426741
0.0425786
0.042475
0.0423624
0.0422409
0.0421103
0.0419702
0.0418201
0.0416606
0.0414925
0.0413164
0.0411321
0.0409387
0.040735
0.0405195
0.0402909
0.0400475
0.0397874
0.0395083
0.0392076
0.0388823
0.0385287
0.0381426
0.0377191
0.0372534
0.0367408
0.0361793
0.0355739
0.0349389
0.0342899
0.0336382
0.0329941
0.0323628
0.0317466
0.0311492
0.03057
0.0300046
0.0294489
0.0289037
0.0283736
0.0278627
0.0273706
0.0268927
0.0264275
0.0259774
0.0255475
0.0251443
0.0247737
0.0244381
0.0241375
0.0238688
0.0236241
0.0233994
0.0231922
0.0230001
0.0228211
0.0226557
0.022502
0.0223601
0.0222264
0.0221014
0.021982
0.0218693
0.0217615
0.0216594
0.0215621
0.0214702
0.0213822
0.0212984
0.0212181
0.0211416
0.0210686
0.0209989
0.0209322
0.0208684
0.0208076
0.0207493
0.0206932
0.0206392
0.0205878
0.0205388
0.0204921
0.0204471
0.0204035
0.0203612
0.0203211
0.0202839
0.0202506
0.02022
0.0201914
0.0201616
0.0201295
0.0200927
0.0200537
0.0200132
0.0199689
0.0199214
0.0198737
0.0198308
0.0197936
0.0197535
0.0562915
0.0435814
0.0430705
0.043277
0.0433081
0.0433667
0.0433677
0.043384
0.0434005
0.0434042
0.0433908
0.0433608
0.0433129
0.043249
0.0431741
0.0430939
0.043012
0.0429294
0.042846
0.0427606
0.0426715
0.0425762
0.0424727
0.0423602
0.0422386
0.042108
0.0419678
0.0418175
0.0416577
0.0414893
0.0413127
0.0411279
0.0409339
0.0407296
0.0405134
0.0402839
0.0400395
0.0397781
0.0394975
0.039195
0.0388676
0.0385119
0.0381236
0.0376982
0.0372306
0.0367171
0.0361582
0.0355613
0.0349383
0.0343006
0.0336601
0.0330267
0.0324054
0.0318035
0.0312209
0.0306525
0.0300969
0.0295521
0.0290151
0.0284842
0.0279614
0.0274535
0.0269674
0.0265052
0.0260643
0.0256431
0.0252431
0.0248675
0.0245193
0.0242001
0.0239105
0.0236515
0.023419
0.0232087
0.023016
0.0228372
0.0226715
0.0225164
0.0223719
0.022235
0.0221065
0.0219839
0.0218687
0.0217592
0.0216567
0.0215593
0.0214673
0.0213791
0.0212949
0.0212144
0.021138
0.0210651
0.0209954
0.0209289
0.0208654
0.0208046
0.0207459
0.0206894
0.0206354
0.0205841
0.0205352
0.0204882
0.020443
0.0203992
0.0203569
0.0203168
0.0202798
0.0202467
0.0202164
0.0201884
0.0201592
0.0201278
0.0200916
0.0200536
0.0200145
0.0199718
0.0199257
0.0198792
0.0198369
0.0198004
0.0197617
0.0563037
0.0435755
0.0430523
0.0432635
0.0432983
0.0433593
0.0433618
0.0433798
0.0433973
0.0434012
0.0433877
0.0433575
0.0433093
0.043245
0.0431699
0.0430898
0.0430081
0.0429259
0.0428427
0.0427577
0.0426688
0.0425738
0.0424704
0.0423579
0.0422364
0.0421057
0.0419653
0.0418149
0.0416549
0.0414861
0.041309
0.0411237
0.0409292
0.0407242
0.0405074
0.0402771
0.0400316
0.0397691
0.0394871
0.039183
0.0388539
0.0384963
0.0381061
0.0376788
0.0372098
0.0366969
0.0361428
0.0355541
0.03494
0.0343115
0.0336836
0.0330636
0.0324567
0.0318636
0.0312826
0.0307168
0.030166
0.0296283
0.0291026
0.0285868
0.0280772
0.0275723
0.0270753
0.0265941
0.0261373
0.0257087
0.0253083
0.0249354
0.02459
0.0242727
0.023982
0.023716
0.0234727
0.0232503
0.0230471
0.0228606
0.0226899
0.0225325
0.0223876
0.0222517
0.0221251
0.0220042
0.0218899
0.0217805
0.0216776
0.0215796
0.0214869
0.0213982
0.0213139
0.0212336
0.0211572
0.0210842
0.0210144
0.0209479
0.0208841
0.0208228
0.0207636
0.020707
0.0206532
0.020602
0.0205525
0.0205047
0.0204585
0.020414
0.0203716
0.0203315
0.0202941
0.0202602
0.0202292
0.0202008
0.0201714
0.0201397
0.0201027
0.0200633
0.0200228
0.019979
0.0199319
0.0198844
0.019841
0.0198036
0.0197645
0.0563156
0.0435699
0.0430342
0.0432499
0.0432883
0.0433518
0.0433561
0.0433756
0.0433941
0.0433982
0.0433847
0.0433542
0.0433056
0.043241
0.0431657
0.0430857
0.0430041
0.0429222
0.0428395
0.0427547
0.0426661
0.0425713
0.0424681
0.0423556
0.0422341
0.0421033
0.0419629
0.0418123
0.0416521
0.0414829
0.0413054
0.0411195
0.0409245
0.0407189
0.0405014
0.0402703
0.040024
0.0397604
0.0394771
0.0391716
0.0388409
0.0384816
0.0380897
0.0376608
0.0371913
0.0366805
0.036131
0.0355484
0.0349428
0.034328
0.0337148
0.0331075
0.0325107
0.0319264
0.0313566
0.0308006
0.0302545
0.0297154
0.0291848
0.0286667
0.028163
0.0276716
0.027189
0.0267147
0.0262522
0.0258072
0.0253867
0.0249964
0.0246389
0.0243144
0.0240212
0.0237558
0.023514
0.0232925
0.0230888
0.0229005
0.022727
0.0225661
0.0224172
0.0222769
0.0221459
0.0220214
0.0219043
0.0217924
0.0216872
0.0215868
0.021492
0.021402
0.0213173
0.0212368
0.0211598
0.0210861
0.0210159
0.0209488
0.0208844
0.0208225
0.0207633
0.0207071
0.0206536
0.0206023
0.0205526
0.0205047
0.0204586
0.0204144
0.0203727
0.0203334
0.0202965
0.0202627
0.0202318
0.0202037
0.0201753
0.0201447
0.0201089
0.0200706
0.0200308
0.0199875
0.0199411
0.0198944
0.0198516
0.0198148
0.0197769
0.0563269
0.0435648
0.0430161
0.0432363
0.0432781
0.0433441
0.0433503
0.0433715
0.0433909
0.0433951
0.0433816
0.0433508
0.0433018
0.0432368
0.0431614
0.0430815
0.0430002
0.0429186
0.0428362
0.0427517
0.0426634
0.0425688
0.0424657
0.0423533
0.0422317
0.0421009
0.0419604
0.0418097
0.0416492
0.0414797
0.0413018
0.0411155
0.0409199
0.0407137
0.0404956
0.0402638
0.0400166
0.039752
0.0394675
0.0391607
0.0388286
0.0384678
0.0380745
0.0376446
0.0371755
0.0366671
0.0361221
0.0355472
0.0349535
0.0343537
0.0337525
0.0331561
0.0325709
0.031999
0.0314412
0.0308944
0.0303566
0.0298252
0.029298
0.0287746
0.0282585
0.0277558
0.0272711
0.0268046
0.0263535
0.0259172
0.0254982
0.0251008
0.0247294
0.0243874
0.0240761
0.0237955
0.0235426
0.0233136
0.0231054
0.0229143
0.0227386
0.0225757
0.0224244
0.0222826
0.0221511
0.0220276
0.0219127
0.0218033
0.0216997
0.0215997
0.0215043
0.0214134
0.021328
0.0212465
0.0211686
0.0210941
0.0210233
0.0209557
0.0208905
0.0208282
0.0207688
0.0207125
0.0206582
0.0206058
0.0205552
0.0205066
0.0204598
0.0204152
0.0203729
0.0203329
0.0202953
0.0202606
0.0202288
0.0202001
0.0201711
0.0201401
0.0201036
0.0200643
0.020023
0.0199782
0.0199307
0.019883
0.0198399
0.0198031
0.0197643
0.0563379
0.0435601
0.042998
0.0432225
0.0432677
0.0433363
0.0433446
0.0433675
0.0433876
0.043392
0.0433784
0.0433473
0.0432979
0.0432326
0.0431571
0.0430772
0.0429962
0.0429149
0.0428329
0.0427487
0.0426607
0.0425663
0.0424633
0.0423509
0.0422293
0.0420984
0.0419578
0.0418071
0.0416464
0.0414766
0.0412983
0.0411115
0.0409153
0.0407086
0.0404898
0.0402573
0.0400094
0.0397438
0.0394583
0.0391503
0.0388169
0.0384549
0.0380604
0.0376301
0.0371619
0.0366561
0.0361164
0.0355514
0.0349703
0.0343792
0.0337844
0.033197
0.0326219
0.0320603
0.0315086
0.0309667
0.0304351
0.0299126
0.0293977
0.0288883
0.0283817
0.0278773
0.0273791
0.0268952
0.0264325
0.0259933
0.0255772
0.025184
0.0248152
0.0244731
0.0241585
0.0238712
0.0236093
0.0233705
0.0231528
0.0229541
0.0227732
0.0226073
0.0224546
0.0223122
0.0221802
0.0220555
0.0219388
0.021827
0.0217209
0.0216188
0.0215223
0.0214302
0.0213431
0.0212596
0.0211801
0.0211045
0.0210328
0.0209644
0.0208989
0.0208364
0.0207771
0.0207203
0.0206656
0.0206132
0.0205632
0.0205154
0.0204693
0.0204251
0.0203827
0.0203424
0.0203048
0.0202705
0.0202392
0.0202107
0.0201819
0.0201511
0.020115
0.0200764
0.0200356
0.0199908
0.0199425
0.0198938
0.0198499
0.0198126
0.0197733
0.0563482
0.0435557
0.0429799
0.0432087
0.043257
0.0433282
0.0433389
0.0433634
0.0433843
0.0433888
0.0433751
0.0433437
0.0432939
0.0432283
0.0431526
0.0430729
0.0429921
0.0429112
0.0428295
0.0427457
0.0426579
0.0425637
0.0424609
0.0423485
0.0422269
0.0420959
0.0419553
0.0418044
0.0416436
0.0414736
0.0412949
0.0411075
0.0409109
0.0407036
0.0404842
0.0402511
0.0400024
0.0397359
0.0394495
0.0391405
0.038806
0.0384429
0.0380476
0.0376174
0.0371507
0.0366489
0.0361167
0.0355605
0.0349869
0.0344022
0.033819
0.0332452
0.0326806
0.0321254
0.031581
0.0310462
0.0305186
0.0299964
0.0294806
0.0289738
0.028477
0.0279875
0.0275027
0.0270228
0.0265516
0.0260951
0.0256603
0.0252525
0.0248743
0.0245264
0.0242083
0.0239184
0.0236543
0.0234135
0.0231936
0.0229915
0.0228061
0.0226351
0.0224767
0.0223287
0.0221913
0.0220619
0.0219414
0.0218267
0.021719
0.0216163
0.0215198
0.0214276
0.02134
0.021256
0.0211766
0.0211014
0.02103
0.0209618
0.0208966
0.0208346
0.0207753
0.0207181
0.0206632
0.0206109
0.0205613
0.0205139
0.0204681
0.0204237
0.0203807
0.0203399
0.0203023
0.0202683
0.0202374
0.020209
0.0201801
0.0201494
0.0201139
0.0200764
0.0200373
0.019994
0.0199466
0.0198984
0.0198542
0.0198159
0.019775
0.056358
0.0435518
0.0429619
0.0431947
0.0432461
0.04332
0.0433334
0.0433595
0.0433809
0.0433855
0.0433717
0.04334
0.0432898
0.0432239
0.0431481
0.0430685
0.042988
0.0429075
0.0428261
0.0427426
0.0426552
0.0425611
0.0424584
0.0423461
0.0422244
0.0420934
0.0419527
0.0418017
0.0416408
0.0414705
0.0412915
0.0411037
0.0409065
0.0406987
0.0404788
0.040245
0.0399955
0.0397284
0.0394411
0.0391311
0.0387958
0.0384318
0.0380362
0.0376065
0.037142
0.0366449
0.0361198
0.0355704
0.0350035
0.034431
0.0338635
0.0333021
0.0327489
0.0322064
0.0316728
0.0311463
0.0306256
0.0301082
0.0295925
0.0290791
0.0285719
0.0280757
0.0275934
0.0271241
0.0266654
0.0262173
0.0257824
0.0253656
0.0249723
0.0246072
0.0242726
0.0239686
0.0236935
0.0234439
0.0232172
0.0230106
0.0228225
0.02265
0.0224912
0.0223436
0.0222073
0.0220792
0.0219598
0.0218461
0.021739
0.0216366
0.0215399
0.021447
0.0213586
0.0212744
0.0211954
0.0211204
0.0210488
0.0209802
0.0209145
0.0208517
0.0207913
0.0207334
0.0206783
0.0206261
0.0205762
0.0205283
0.0204818
0.0204368
0.0203933
0.020352
0.0203139
0.0202795
0.0202482
0.0202194
0.02019
0.0201586
0.0201221
0.0200833
0.020043
0.019999
0.0199507
0.0199022
0.0198569
0.0198179
0.019776
0.056367
0.0435484
0.042944
0.0431806
0.0432349
0.0433118
0.0433279
0.0433556
0.0433774
0.043382
0.0433681
0.0433362
0.0432856
0.0432194
0.0431435
0.0430641
0.0429839
0.0429037
0.0428227
0.0427396
0.0426523
0.0425585
0.0424559
0.0423436
0.0422218
0.0420908
0.04195
0.041799
0.041638
0.0414675
0.0412882
0.0411
0.0409023
0.040694
0.0404734
0.0402391
0.039989
0.0397211
0.0394331
0.0391224
0.0387863
0.0384218
0.0380262
0.0375978
0.0371365
0.0366445
0.0361246
0.0355819
0.0350263
0.0344684
0.0339107
0.0333554
0.0328094
0.032274
0.0317478
0.0312281
0.0307145
0.0302065
0.0297024
0.0292003
0.0286986
0.0281976
0.0277015
0.0272176
0.0267514
0.0263042
0.025875
0.0254641
0.025074
0.0247079
0.0243684
0.0240566
0.0237722
0.023513
0.0232776
0.0230644
0.0228712
0.0226942
0.0225307
0.022378
0.0222362
0.0221029
0.0219791
0.0218615
0.0217509
0.0216451
0.0215455
0.0214505
0.0213613
0.0212769
0.0211976
0.0211219
0.0210492
0.0209794
0.0209125
0.0208484
0.0207871
0.0207288
0.0206737
0.0206212
0.0205706
0.0205217
0.0204743
0.0204285
0.0203847
0.0203434
0.0203051
0.0202701
0.0202384
0.0202094
0.0201802
0.0201493
0.0201133
0.0200746
0.0200342
0.01999
0.0199414
0.0198929
0.0198478
0.0198104
0.0197723
0.0563756
0.0435453
0.0429261
0.0431663
0.0432235
0.0433035
0.0433226
0.0433517
0.0433738
0.0433783
0.0433644
0.0433322
0.0432813
0.0432148
0.0431389
0.0430596
0.0429797
0.0428999
0.0428193
0.0427365
0.0426495
0.0425559
0.0424534
0.0423411
0.0422193
0.0420881
0.0419473
0.0417963
0.0416352
0.0414646
0.0412849
0.0410964
0.0408982
0.0406894
0.0404683
0.0402333
0.0399827
0.0397142
0.0394255
0.0391142
0.0387776
0.0384129
0.0380177
0.0375909
0.0371328
0.0366458
0.0361318
0.0355983
0.0350543
0.0345038
0.0339504
0.0334037
0.0328687
0.0323419
0.0318211
0.0313063
0.0307965
0.0302906
0.029789
0.0292934
0.0288037
0.0283175
0.0278328
0.0273504
0.0268739
0.0264093
0.0259634
0.0255408
0.0251441
0.0247743
0.0244318
0.0241164
0.0238269
0.0235627
0.0233226
0.0231029
0.0229018
0.0227172
0.0225474
0.0223897
0.0222448
0.0221101
0.0219862
0.0218693
0.0217598
0.021655
0.0215557
0.0214608
0.021372
0.0212881
0.0212088
0.0211325
0.0210589
0.0209882
0.0209205
0.0208557
0.0207945
0.0207366
0.0206813
0.0206281
0.0205766
0.020527
0.020479
0.0204331
0.0203892
0.0203476
0.0203085
0.0202724
0.0202397
0.0202098
0.0201799
0.0201481
0.020111
0.0200709
0.0200288
0.0199832
0.0199335
0.0198842
0.0198381
0.0198006
0.0197641
0.0563831
0.0435428
0.0429084
0.0431519
0.043212
0.0432952
0.0433174
0.043348
0.0433702
0.0433746
0.0433605
0.043328
0.0432768
0.0432101
0.0431342
0.043055
0.0429755
0.0428961
0.0428159
0.0427333
0.0426466
0.0425532
0.0424508
0.0423385
0.0422167
0.0420855
0.0419446
0.0417935
0.0416324
0.0414616
0.0412818
0.0410928
0.0408943
0.040685
0.0404634
0.0402279
0.0399767
0.0397076
0.0394185
0.0391067
0.0387697
0.0384052
0.038011
0.0375866
0.0371324
0.0366495
0.0361428
0.0356185
0.0350814
0.0345363
0.0339943
0.0334625
0.0329385
0.0324214
0.0319119
0.0314066
0.0309034
0.0304009
0.0298981
0.0293964
0.0288993
0.0284106
0.0279319
0.0274619
0.0269985
0.0265418
0.0260944
0.0256614
0.0252489
0.0248622
0.0245041
0.0241757
0.0238761
0.0236032
0.0233549
0.02313
0.0229277
0.0227449
0.0225778
0.0224217
0.0222774
0.0221419
0.0220164
0.021897
0.0217848
0.0216776
0.0215763
0.0214797
0.0213888
0.0213022
0.0212201
0.0211414
0.021066
0.0209939
0.0209252
0.0208602
0.0207991
0.0207411
0.0206852
0.0206315
0.0205803
0.0205316
0.020485
0.0204405
0.0203977
0.0203565
0.0203174
0.0202814
0.0202491
0.0202202
0.0201915
0.0201609
0.0201247
0.0200854
0.0200435
0.0199976
0.0199473
0.0198976
0.0198509
0.0198126
0.0197734
0.0563901
0.0435406
0.0428909
0.0431374
0.0432006
0.0432869
0.0433122
0.0433442
0.0433665
0.0433707
0.0433565
0.0433238
0.0432722
0.0432053
0.0431294
0.0430504
0.0429713
0.0428923
0.0428124
0.0427302
0.0426437
0.0425505
0.0424482
0.0423359
0.042214
0.0420827
0.0419418
0.0417907
0.0416295
0.0414587
0.0412787
0.0410894
0.0408905
0.0406807
0.0404586
0.0402227
0.039971
0.0397015
0.0394119
0.0390998
0.0387628
0.0383986
0.0380057
0.0375835
0.0371335
0.0366563
0.0361567
0.0356389
0.0351082
0.0345752
0.034049
0.0335282
0.033012
0.0325029
0.031999
0.031499
0.0310024
0.0305085
0.0300157
0.0295225
0.0290278
0.0285325
0.0280409
0.0275593
0.0270918
0.0266391
0.0261996
0.0257741
0.0253654
0.0249776
0.0246139
0.0242768
0.0239675
0.0236849
0.0234271
0.0231947
0.0229856
0.022794
0.0226166
0.0224511
0.0222992
0.0221573
0.0220265
0.0219026
0.0217878
0.0216788
0.0215772
0.0214803
0.0213892
0.0213022
0.0212199
0.021141
0.0210659
0.0209941
0.020926
0.0208618
0.0208009
0.0207423
0.0206856
0.0206312
0.0205797
0.0205306
0.0204836
0.0204382
0.0203943
0.0203521
0.0203123
0.0202761
0.020244
0.0202154
0.0201869
0.0201566
0.0201206
0.0200815
0.0200399
0.0199941
0.0199434
0.0198924
0.0198447
0.0198054
0.0197654
0.0563957
0.0435389
0.0428735
0.0431229
0.0431892
0.0432788
0.043307
0.0433403
0.0433627
0.0433667
0.0433524
0.0433194
0.0432675
0.0432004
0.0431245
0.0430458
0.042967
0.0428884
0.0428089
0.042727
0.0426408
0.0425477
0.0424455
0.0423333
0.0422113
0.04208
0.041939
0.0417878
0.0416267
0.0414558
0.0412756
0.0410862
0.0408869
0.0406767
0.0404542
0.0402178
0.0399657
0.0396958
0.039406
0.0390937
0.0387569
0.0383935
0.0380025
0.0375836
0.037137
0.0366654
0.0361717
0.0356605
0.0351404
0.0346207
0.0341017
0.0335837
0.0330723
0.032569
0.0320714
0.0315775
0.0310857
0.0305957
0.0301081
0.0296236
0.0291416
0.0286603
0.0281781
0.0276959
0.0272174
0.0267481
0.0262941
0.0258596
0.0254469
0.0250574
0.0246922
0.024352
0.0240365
0.0237471
0.0234839
0.0232431
0.0230213
0.0228184
0.0226354
0.0224686
0.0223181
0.0221771
0.0220472
0.0219239
0.0218099
0.0217018
0.0216004
0.0215034
0.0214115
0.0213237
0.0212405
0.0211608
0.0210846
0.0210118
0.0209428
0.0208775
0.0208148
0.0207545
0.020697
0.0206425
0.0205904
0.0205402
0.0204914
0.020444
0.020398
0.020354
0.0203133
0.0202765
0.0202436
0.0202137
0.0201835
0.0201514
0.0201138
0.0200729
0.0200297
0.0199828
0.0199307
0.0198786
0.0198294
0.0197887
0.0197482
0.0564008
0.0435376
0.0428564
0.0431085
0.043178
0.0432707
0.0433017
0.0433362
0.0433588
0.0433627
0.0433482
0.0433149
0.0432627
0.0431954
0.0431195
0.0430411
0.0429627
0.0428845
0.0428054
0.0427238
0.0426379
0.0425449
0.0424428
0.0423306
0.0422086
0.0420772
0.0419361
0.041785
0.0416238
0.0414529
0.0412726
0.041083
0.0408834
0.0406729
0.04045
0.0402132
0.0399607
0.0396906
0.0394006
0.0390884
0.038752
0.0383897
0.0380005
0.037585
0.0371428
0.0366763
0.0361885
0.0356859
0.0351766
0.0346635
0.0341483
0.0336401
0.0331416
0.0326499
0.0321623
0.0316766
0.0311907
0.0307034
0.0302145
0.0297254
0.0292393
0.0287589
0.0282851
0.0278165
0.0273512
0.0268891
0.0264327
0.025987
0.0255583
0.0251524
0.0247725
0.0244202
0.0240952
0.0237969
0.0235248
0.0232779
0.0230567
0.0228599
0.0226812
0.0225132
0.0223576
0.0222102
0.0220738
0.0219448
0.021826
0.0217134
0.0216083
0.0215084
0.0214147
0.0213255
0.021241
0.0211601
0.0210828
0.0210092
0.0209396
0.0208733
0.0208092
0.0207478
0.0206902
0.0206358
0.0205835
0.020533
0.0204838
0.0204362
0.0203903
0.0203469
0.0203069
0.0202706
0.0202377
0.0202078
0.0201777
0.0201461
0.020109
0.0200687
0.0200265
0.0199807
0.0199295
0.0198785
0.0198298
0.0197905
0.0197517
0.0564045
0.0435365
0.0428396
0.0430941
0.043167
0.0432626
0.0432962
0.043332
0.0433548
0.0433585
0.0433439
0.0433103
0.0432578
0.0431903
0.0431145
0.0430363
0.0429583
0.0428806
0.0428019
0.0427206
0.0426349
0.0425421
0.0424401
0.0423279
0.0422058
0.0420743
0.0419332
0.041782
0.0416209
0.04145
0.0412697
0.04108
0.0408801
0.0406693
0.0404461
0.0402089
0.0399562
0.0396859
0.0393959
0.0390839
0.0387482
0.0383873
0.0380008
0.0375881
0.0371502
0.0366888
0.036208
0.0357141
0.0352117
0.0347043
0.0342017
0.0337092
0.0332218
0.0327375
0.0322562
0.0317766
0.0312974
0.0308181
0.0303375
0.0298545
0.0293686
0.0288811
0.0283959
0.0279184
0.0274518
0.0269959
0.0265492
0.0261121
0.025688
0.0252812
0.0248955
0.024534
0.0241992
0.0238909
0.0236073
0.0233516
0.0231235
0.0229134
0.0227182
0.0225381
0.0223748
0.0222228
0.0220847
0.0219551
0.0218366
0.0217243
0.0216196
0.0215202
0.0214272
0.0213387
0.021254
0.0211728
0.0210953
0.0210218
0.0209515
0.0208838
0.0208185
0.0207566
0.0206986
0.0206434
0.0205899
0.0205388
0.0204901
0.0204437
0.0203991
0.020357
0.0203175
0.020281
0.0202476
0.0202169
0.0201866
0.020155
0.0201181
0.0200782
0.0200361
0.0199904
0.0199389
0.0198876
0.0198381
0.0197979
0.0197575
0.0564075
0.0435354
0.0428232
0.0430797
0.0431561
0.0432546
0.0432906
0.0433276
0.0433506
0.0433542
0.0433395
0.0433056
0.0432528
0.0431852
0.0431094
0.0430315
0.0429539
0.0428766
0.0427984
0.0427174
0.0426319
0.0425392
0.0424373
0.0423251
0.042203
0.0420714
0.0419302
0.0417791
0.041618
0.0414472
0.0412669
0.041077
0.0408771
0.040666
0.0404425
0.0402051
0.0399522
0.0396818
0.0393919
0.0390804
0.0387456
0.0383864
0.0380024
0.0375931
0.0371595
0.0367036
0.0362297
0.0357426
0.0352469
0.0347514
0.0342633
0.0337766
0.0332912
0.0328099
0.0323332
0.0318586
0.0313844
0.0309101
0.0304362
0.029963
0.0294899
0.0290151
0.0285376
0.0280583
0.0275806
0.0271096
0.0266504
0.0262066
0.0257807
0.0253741
0.0249885
0.0246251
0.0242848
0.0239695
0.0236802
0.0234142
0.0231693
0.0229462
0.0227482
0.0225713
0.0224109
0.0222599
0.022121
0.0219892
0.0218671
0.0217507
0.021642
0.0215391
0.0214427
0.0213508
0.0212629
0.0211793
0.0211003
0.0210255
0.0209535
0.0208843
0.0208182
0.0207561
0.0206973
0.0206408
0.020586
0.0205339
0.0204846
0.0204376
0.0203928
0.0203504
0.0203106
0.0202738
0.0202396
0.0202084
0.0201779
0.0201464
0.0201097
0.0200696
0.0200269
0.0199803
0.0199275
0.0198746
0.0198237
0.0197823
0.0197409
0.0564095
0.0435344
0.0428073
0.0430655
0.0431454
0.0432467
0.043285
0.043323
0.0433462
0.0433497
0.0433349
0.0433007
0.0432476
0.0431799
0.0431042
0.0430266
0.0429495
0.0428727
0.0427948
0.0427142
0.0426288
0.0425363
0.0424345
0.0423223
0.0422002
0.0420685
0.0419273
0.0417761
0.041615
0.0414443
0.0412641
0.0410742
0.0408741
0.0406629
0.0404392
0.0402016
0.0399486
0.0396783
0.0393887
0.0390777
0.0387439
0.0383869
0.0380054
0.0375996
0.0371704
0.0367201
0.0362525
0.0357722
0.0352867
0.0348034
0.03432
0.0338355
0.0333585
0.0328877
0.0324209
0.0319548
0.0314868
0.0310154
0.030541
0.0300653
0.0295908
0.0291195
0.0286519
0.0281866
0.0277219
0.0272576
0.0267957
0.0263409
0.0258993
0.025477
0.0250776
0.024703
0.0243535
0.0240293
0.0237316
0.0234595
0.0232124
0.0229959
0.0228016
0.0226168
0.0224449
0.0222847
0.0221389
0.0220016
0.0218756
0.021756
0.0216456
0.0215417
0.0214451
0.021353
0.0212656
0.0211829
0.0211049
0.0210308
0.0209589
0.0208899
0.0208246
0.0207631
0.020704
0.0206471
0.0205922
0.0205401
0.0204899
0.0204413
0.0203938
0.020348
0.0203044
0.020264
0.0202277
0.0201956
0.0201651
0.0201339
0.0200974
0.0200574
0.020015
0.0199689
0.0199167
0.0198647
0.0198142
0.0197739
0.0197357
0.0564109
0.0435334
0.0427919
0.0430513
0.0431348
0.0432389
0.0432792
0.0433183
0.0433416
0.043345
0.0433301
0.0432956
0.0432423
0.0431745
0.043099
0.0430217
0.042945
0.0428687
0.0427912
0.0427109
0.0426258
0.0425334
0.0424316
0.0423195
0.0421973
0.0420656
0.0419243
0.0417731
0.0416121
0.0414415
0.0412613
0.0410715
0.0408714
0.0406601
0.0404362
0.0401986
0.0399456
0.0396754
0.0393861
0.039076
0.038744
0.0383887
0.03801
0.0376078
0.0371831
0.0367381
0.0362767
0.0358049
0.0353295
0.0348523
0.0343728
0.0339014
0.0334382
0.0329783
0.0325196
0.0320603
0.0315991
0.0311348
0.0306672
0.0301958
0.0297204
0.0292423
0.0287651
0.0282933
0.0278295
0.0273728
0.0269218
0.0264767
0.0260406
0.0256179
0.0252129
0.024829
0.0244693
0.0241349
0.0238258
0.0235453
0.0232918
0.0230554
0.0228383
0.0226421
0.022467
0.0223074
0.0221634
0.0220274
0.0219022
0.021783
0.0216723
0.0215674
0.0214691
0.0213753
0.021286
0.0212012
0.0211206
0.0210435
0.0209692
0.0208985
0.0208317
0.0207685
0.020708
0.0206505
0.0205959
0.0205442
0.0204947
0.0204474
0.0204017
0.0203573
0.0203142
0.0202741
0.0202383
0.0202068
0.0201767
0.0201458
0.0201092
0.0200688
0.0200259
0.0199793
0.0199266
0.019874
0.0198228
0.0197818
0.0197401
0.0564105
0.0435323
0.0427773
0.0430373
0.0431244
0.0432311
0.0432734
0.0433135
0.0433369
0.0433402
0.0433251
0.0432904
0.0432369
0.043169
0.0430937
0.0430168
0.0429405
0.0428647
0.0427877
0.0427076
0.0426227
0.0425304
0.0424287
0.0423166
0.0421944
0.0420626
0.0419212
0.04177
0.0416091
0.0414386
0.0412586
0.0410689
0.0408688
0.0406575
0.0404336
0.040196
0.0399431
0.0396732
0.0393845
0.0390754
0.0387449
0.0383918
0.0380159
0.0376174
0.0371971
0.0367575
0.0363031
0.0358397
0.0353715
0.0349003
0.0344341
0.0339772
0.0335188
0.0330611
0.0326038
0.0321477
0.0316911
0.0312326
0.0307726
0.0303113
0.0298481
0.0293814
0.0289104
0.0284362
0.0279619
0.0274917
0.02703
0.0265799
0.0261436
0.0257228
0.0253194
0.0249353
0.0245717
0.0242309
0.0239138
0.0236213
0.0233549
0.0231087
0.0228903
0.0226955
0.022518
0.022352
0.022199
0.0220551
0.0219235
0.021799
0.0216838
0.0215744
0.0214721
0.0213752
0.0212842
0.0211982
0.0211167
0.0210388
0.0209643
0.0208939
0.020827
0.0207632
0.0207019
0.0206437
0.0205884
0.0205357
0.0204854
0.0204372
0.0203913
0.0203473
0.0203058
0.0202678
0.0202337
0.0202033
0.0201738
0.020143
0.0201063
0.0200648
0.0200203
0.0199724
0.0199178
0.0198629
0.0198098
0.019767
0.0197245
0.0564092
0.0435313
0.0427636
0.0430233
0.0431143
0.0432234
0.0432674
0.0433085
0.043332
0.0433352
0.04332
0.043285
0.0432313
0.0431634
0.0430883
0.0430118
0.042936
0.0428607
0.0427841
0.0427044
0.0426196
0.0425274
0.0424258
0.0423136
0.0421914
0.0420596
0.0419182
0.041767
0.0416061
0.0414357
0.0412559
0.0410664
0.0408664
0.0406552
0.0404314
0.0401938
0.0399411
0.0396716
0.0393835
0.0390758
0.0387468
0.0383961
0.0380232
0.0376284
0.0372126
0.0367787
0.0363313
0.0358753
0.0354141
0.0349539
0.0345003
0.0340445
0.0335872
0.0331359
0.0326876
0.0322408
0.031791
0.0313361
0.0308768
0.030415
0.0299528
0.0294916
0.0290314
0.0285711
0.0281094
0.0276458
0.0271818
0.0267215
0.0262705
0.0258348
0.0254185
0.0250238
0.0246515
0.0243023
0.0239774
0.023677
0.0234039
0.0231675
0.0229474
0.0227396
0.0225487
0.0223734
0.022215
0.0220695
0.0219384
0.0218149
0.0217004
0.0215911
0.0214886
0.0213916
0.0213008
0.0212147
0.0211327
0.0210543
0.0209795
0.0209086
0.0208407
0.0207759
0.0207139
0.0206553
0.0205988
0.0205446
0.020492
0.0204407
0.0203897
0.0203406
0.0202953
0.0202546
0.0202191
0.0201876
0.0201574
0.0201261
0.020089
0.0200469
0.0200022
0.0199547
0.0199009
0.0198469
0.0197943
0.019752
0.0197124
0.0564065
0.0435302
0.0427507
0.0430097
0.0431043
0.0432158
0.0432614
0.0433034
0.043327
0.0433301
0.0433148
0.0432795
0.0432256
0.0431577
0.0430829
0.0430067
0.0429315
0.0428567
0.0427805
0.0427011
0.0426165
0.0425244
0.0424228
0.0423107
0.0421884
0.0420566
0.0419151
0.0417639
0.0416031
0.0414329
0.0412533
0.0410639
0.0408642
0.0406531
0.0404295