/*--------------------------------*- C++ -*----------------------------------*\
| =========                 |                                                 |
| \\      /  F ield         | OpenFOAM: The Open Source CFD Toolbox           |
|  \\    /   O peration     | Version:  2412                                  |
|   \\  /    A nd           | Website:  www.openfoam.com                      |
|    \\/     M anipulation  |                                                 |
\*---------------------------------------------------------------------------*/
FoamFile
{
    version     2.0;
    format      ascii;
    arch        "LSB;label=32;scalar=64";
    class       volScalarField;
    location    "0.089";
    object      T;
}
// * * * * * * * * * * * * * * * * * * * * * * * * * * * * * * * * * * * * * //

dimensions      [0 0 0 1 0 0 0];

internalField   nonuniform List<scalar> 
9859
(
223.061
223.146
223.178
223.19
223.199
223.185
223.209
223.188
223.17
223.179
223.161
223.134
223.111
223.099
223.108
223.091
223.113
223.123
223.125
223.139
223.153
223.166
223.177
223.186
223.192
223.198
223.202
223.206
223.211
223.217
223.222
223.227
223.231
223.234
223.236
223.238
223.24
223.242
223.246
223.252
223.259
223.267
223.274
223.28
223.285
223.289
223.293
223.297
223.301
223.308
223.318
223.33
223.346
223.363
223.385
223.411
223.446
223.489
223.537
223.588
223.647
223.72
223.806
223.891
223.976
224.074
224.19
224.315
224.44
223.066
223.148
223.18
223.193
223.201
223.188
223.211
223.19
223.172
223.18
223.161
223.134
223.11
223.099
223.108
223.09
223.111
223.122
223.124
223.138
223.153
223.165
223.177
223.186
223.192
223.198
223.202
223.206
223.212
223.217
223.222
223.227
223.232
223.235
223.237
223.239
223.241
223.244
223.248
223.254
223.261
223.268
223.275
223.281
223.285
223.289
223.292
223.295
223.299
223.305
223.313
223.325
223.339
223.356
223.375
223.399
223.43
223.469
223.515
223.563
223.616
223.683
223.765
223.851
223.935
224.025
224.133
224.255
224.381
224.51
224.655
224.821
224.997
225.189
225.409
227.038
227.067
227.074
227.056
226.967
226.823
226.664
226.51
226.369
226.248
226.145
226.058
225.981
225.91
225.844
225.779
225.714
225.647
225.578
225.506
225.433
225.36
225.289
225.222
225.159
225.1
225.048
225.005
224.966
224.932
224.903
224.885
224.868
224.87
224.881
224.927
224.945
223.072
223.149
223.182
223.196
223.204
223.19
223.213
223.191
223.173
223.18
223.161
223.133
223.109
223.098
223.108
223.09
223.11
223.12
223.124
223.138
223.152
223.165
223.177
223.185
223.192
223.197
223.202
223.207
223.212
223.217
223.223
223.228
223.232
223.235
223.238
223.24
223.242
223.245
223.25
223.256
223.263
223.27
223.277
223.282
223.286
223.289
223.292
223.294
223.297
223.302
223.309
223.319
223.333
223.349
223.367
223.387
223.414
223.45
223.492
223.539
223.588
223.646
223.722
223.809
223.893
223.978
224.077
224.193
224.32
224.451
224.589
224.749
224.926
225.117
225.333
225.567
225.805
226.044
226.269
226.471
226.642
226.778
226.875
226.935
226.963
226.971
226.952
226.865
226.725
226.571
226.422
226.285
226.166
226.066
225.98
225.905
225.835
225.77
225.706
225.641
225.575
225.505
225.433
225.359
225.284
225.212
225.146
225.082
225.024
224.973
224.93
224.893
224.859
224.831
224.812
224.795
224.796
224.802
224.84
224.815
223.079
223.151
223.185
223.199
223.206
223.193
223.215
223.192
223.175
223.181
223.16
223.131
223.108
223.097
223.107
223.089
223.108
223.119
223.123
223.137
223.152
223.165
223.176
223.185
223.192
223.197
223.202
223.207
223.212
223.218
223.223
223.228
223.233
223.236
223.239
223.241
223.244
223.247
223.252
223.258
223.265
223.272
223.278
223.284
223.287
223.289
223.292
223.294
223.296
223.3
223.306
223.315
223.327
223.342
223.359
223.377
223.4
223.431
223.47
223.514
223.56
223.611
223.679
223.763
223.848
223.931
224.022
224.131
224.257
224.39
224.523
224.675
224.851
225.041
225.253
225.483
225.711
225.946
226.171
226.37
226.539
226.674
226.77
226.829
226.857
226.864
226.846
226.76
226.624
226.476
226.332
226.199
226.083
225.985
225.901
225.827
225.758
225.694
225.631
225.567
225.501
225.431
225.357
225.282
225.207
225.134
225.068
225.004
224.947
224.896
224.853
224.817
224.783
224.756
224.737
224.719
224.717
224.718
224.751
224.68
223.085
223.153
223.187
223.202
223.209
223.195
223.216
223.193
223.176
223.181
223.159
223.13
223.107
223.097
223.107
223.089
223.106
223.117
223.122
223.137
223.151
223.164
223.176
223.185
223.191
223.197
223.202
223.207
223.212
223.218
223.224
223.229
223.233
223.237
223.24
223.242
223.245
223.248
223.253
223.26
223.267
223.274
223.28
223.285
223.288
223.29
223.292
223.293
223.295
223.298
223.303
223.31
223.321
223.335
223.351
223.368
223.388
223.414
223.448
223.49
223.534
223.58
223.637
223.714
223.799
223.883
223.97
224.07
224.192
224.324
224.456
224.6
224.772
224.959
225.163
225.387
225.612
225.844
226.066
226.263
226.431
226.565
226.66
226.72
226.747
226.755
226.738
226.654
226.523
226.379
226.241
226.112
225.999
225.902
225.82
225.747
225.68
225.617
225.555
225.491
225.425
225.354
225.28
225.204
225.128
225.055
224.988
224.924
224.868
224.817
224.775
224.739
224.705
224.679
224.659
224.639
224.634
224.631
224.653
224.544
223.873
223.092
223.154
223.189
223.205
223.211
223.197
223.218
223.194
223.177
223.18
223.157
223.128
223.106
223.096
223.106
223.089
223.104
223.115
223.122
223.136
223.151
223.164
223.176
223.184
223.191
223.197
223.202
223.207
223.212
223.218
223.224
223.229
223.234
223.237
223.241
223.243
223.246
223.25
223.255
223.262
223.269
223.276
223.282
223.287
223.289
223.291
223.292
223.293
223.295
223.297
223.301
223.307
223.315
223.328
223.344
223.361
223.378
223.399
223.428
223.467
223.509
223.551
223.599
223.666
223.747
223.833
223.919
224.013
224.126
224.254
224.385
224.523
224.686
224.869
225.064
225.282
225.509
225.738
225.954
226.151
226.318
226.451
226.546
226.606
226.634
226.642
226.626
226.546
226.42
226.282
226.148
226.023
225.912
225.818
225.737
225.666
225.6
225.537
225.476
225.413
225.347
225.276
225.201
225.124
225.046
224.973
224.906
224.843
224.786
224.736
224.695
224.66
224.626
224.599
224.578
224.556
224.548
224.54
224.543
224.41
223.7
223.1
223.156
223.192
223.208
223.213
223.2
223.219
223.194
223.178
223.18
223.156
223.126
223.104
223.095
223.106
223.089
223.102
223.114
223.121
223.135
223.15
223.163
223.175
223.184
223.191
223.197
223.202
223.207
223.212
223.218
223.224
223.23
223.234
223.238
223.241
223.244
223.247
223.251
223.257
223.264
223.271
223.278
223.284
223.289
223.29
223.292
223.292
223.293
223.294
223.297
223.3
223.304
223.311
223.322
223.337
223.353
223.369
223.387
223.411
223.445
223.485
223.525
223.567
223.621
223.695
223.781
223.868
223.958
224.061
224.18
224.31
224.445
224.597
224.773
224.961
225.172
225.399
225.623
225.837
226.031
226.198
226.331
226.427
226.488
226.517
226.525
226.512
226.436
226.315
226.182
226.054
225.933
225.825
225.732
225.653
225.582
225.517
225.456
225.395
225.332
225.266
225.194
225.119
225.04
224.963
224.889
224.822
224.759
224.703
224.654
224.613
224.578
224.544
224.517
224.494
224.47
224.458
224.446
224.424
224.275
223.524
223.108
223.158
223.194
223.211
223.215
223.202
223.221
223.195
223.179
223.179
223.153
223.124
223.103
223.094
223.105
223.089
223.1
223.112
223.12
223.135
223.15
223.163
223.175
223.184
223.191
223.197
223.202
223.207
223.212
223.218
223.225
223.23
223.235
223.239
223.242
223.245
223.248
223.253
223.259
223.266
223.273
223.281
223.287
223.291
223.292
223.293
223.293
223.293
223.294
223.296
223.299
223.303
223.308
223.317
223.331
223.347
223.362
223.378
223.397
223.425
223.462
223.502
223.539
223.583
223.646
223.728
223.816
223.904
223.997
224.105
224.231
224.364
224.506
224.674
224.86
225.061
225.282
225.501
225.712
225.905
226.071
226.205
226.302
226.364
226.395
226.404
226.394
226.323
226.208
226.081
225.958
225.84
225.735
225.644
225.566
225.497
225.433
225.372
225.311
225.249
225.181
225.109
225.033
224.954
224.876
224.803
224.736
224.673
224.619
224.57
224.53
224.495
224.461
224.432
224.408
224.381
224.364
224.346
224.3
224.138
223.346
223.115
223.161
223.196
223.214
223.217
223.204
223.223
223.196
223.179
223.177
223.151
223.121
223.101
223.092
223.105
223.088
223.098
223.11
223.119
223.134
223.149
223.162
223.174
223.183
223.19
223.196
223.202
223.207
223.212
223.219
223.225
223.231
223.236
223.239
223.243
223.246
223.25
223.255
223.261
223.268
223.276
223.283
223.289
223.293
223.295
223.294
223.294
223.294
223.295
223.296
223.299
223.302
223.307
223.314
223.325
223.34
223.356
223.371
223.387
223.409
223.44
223.478
223.516
223.554
223.606
223.678
223.761
223.849
223.936
224.033
224.15
224.28
224.415
224.572
224.755
224.949
225.158
225.371
225.58
225.771
225.937
226.072
226.171
226.235
226.268
226.278
226.271
226.208
226.099
225.977
225.859
225.746
225.643
225.553
225.476
225.408
225.345
225.284
225.224
225.161
225.093
225.02
224.943
224.864
224.786
224.713
224.647
224.585
224.532
224.484
224.445
224.409
224.375
224.345
224.319
224.288
224.266
224.239
224.176
223.997
223.166
223.123
223.164
223.198
223.216
223.219
223.207
223.225
223.198
223.18
223.175
223.148
223.119
223.099
223.092
223.104
223.088
223.096
223.108
223.118
223.133
223.148
223.162
223.173
223.183
223.19
223.196
223.201
223.206
223.212
223.219
223.225
223.231
223.236
223.24
223.244
223.247
223.251
223.256
223.263
223.27
223.279
223.286
223.292
223.296
223.297
223.296
223.296
223.295
223.295
223.297
223.299
223.303
223.307
223.313
223.322
223.334
223.349
223.365
223.38
223.397
223.421
223.455
223.494
223.532
223.576
223.634
223.707
223.791
223.876
223.966
224.071
224.193
224.323
224.469
224.642
224.829
225.027
225.236
225.44
225.63
225.796
225.932
226.034
226.1
226.135
226.147
226.144
226.088
225.987
225.871
225.757
225.648
225.548
225.46
225.384
225.317
225.254
225.193
225.133
225.069
225
224.926
224.848
224.769
224.693
224.62
224.554
224.495
224.442
224.396
224.357
224.321
224.286
224.255
224.227
224.192
224.164
224.126
224.051
223.85
222.984
223.13
223.168
223.201
223.218
223.221
223.21
223.227
223.199
223.181
223.173
223.145
223.116
223.098
223.092
223.102
223.087
223.094
223.106
223.117
223.132
223.148
223.161
223.173
223.182
223.19
223.196
223.201
223.206
223.212
223.219
223.226
223.232
223.237
223.241
223.244
223.248
223.252
223.258
223.265
223.273
223.281
223.289
223.295
223.299
223.3
223.299
223.297
223.296
223.295
223.297
223.299
223.303
223.308
223.313
223.32
223.329
223.343
223.358
223.373
223.387
223.405
223.431
223.469
223.511
223.553
223.599
223.658
223.732
223.817
223.903
223.995
224.105
224.23
224.365
224.523
224.702
224.893
225.095
225.293
225.48
225.646
225.784
225.888
225.959
225.997
226.011
226.01
225.963
225.87
225.761
225.652
225.547
225.449
225.363
225.288
225.221
225.158
225.097
225.036
224.972
224.902
224.827
224.749
224.67
224.594
224.524
224.459
224.401
224.349
224.305
224.266
224.229
224.194
224.162
224.13
224.091
224.058
224.012
223.926
223.699
222.8
223.139
223.171
223.203
223.221
223.223
223.213
223.23
223.201
223.182
223.171
223.141
223.112
223.095
223.092
223.1
223.087
223.091
223.104
223.116
223.132
223.147
223.16
223.172
223.182
223.189
223.195
223.201
223.206
223.212
223.219
223.226
223.232
223.237
223.241
223.245
223.249
223.254
223.26
223.267
223.275
223.284
223.292
223.298
223.302
223.304
223.302
223.3
223.297
223.296
223.297
223.299
223.304
223.309
223.314
223.319
223.326
223.337
223.351
223.367
223.38
223.393
223.411
223.441
223.484
223.528
223.569
223.616
223.678
223.756
223.84
223.924
224.019
224.135
224.263
224.405
224.573
224.755
224.947
225.14
225.324
225.489
225.628
225.736
225.81
225.852
225.869
225.871
225.833
225.749
225.646
225.542
225.442
225.347
225.262
225.188
225.121
225.058
224.996
224.934
224.868
224.797
224.721
224.643
224.565
224.492
224.423
224.36
224.304
224.254
224.211
224.172
224.135
224.099
224.064
224.029
223.987
223.95
223.896
223.796
223.542
222.616
223.147
223.176
223.205
223.223
223.224
223.216
223.232
223.203
223.183
223.168
223.138
223.109
223.093
223.091
223.098
223.085
223.089
223.102
223.114
223.131
223.146
223.16
223.172
223.181
223.189
223.195
223.2
223.206
223.212
223.219
223.226
223.232
223.238
223.242
223.246
223.25
223.255
223.261
223.269
223.278
223.287
223.295
223.302
223.306
223.307
223.305
223.302
223.3
223.298
223.297
223.299
223.303
223.309
223.315
223.32
223.325
223.333
223.344
223.359
223.374
223.385
223.397
223.417
223.452
223.496
223.539
223.582
223.632
223.697
223.774
223.854
223.938
224.039
224.159
224.29
224.443
224.615
224.796
224.981
225.16
225.324
225.464
225.575
225.654
225.7
225.72
225.725
225.697
225.623
225.527
225.428
225.332
225.24
225.156
225.082
225.016
224.952
224.89
224.826
224.759
224.686
224.61
224.532
224.455
224.384
224.318
224.258
224.204
224.156
224.114
224.075
224.037
223.999
223.963
223.923
223.88
223.838
223.778
223.662
223.381
222.43
223.157
223.18
223.208
223.225
223.226
223.219
223.234
223.205
223.184
223.166
223.135
223.106
223.091
223.091
223.095
223.084
223.086
223.099
223.113
223.129
223.145
223.159
223.171
223.18
223.188
223.194
223.2
223.205
223.212
223.219
223.226
223.232
223.238
223.242
223.247
223.251
223.256
223.263
223.271
223.28
223.29
223.298
223.305
223.309
223.311
223.309
223.306
223.303
223.3
223.298
223.299
223.302
223.308
223.315
223.321
223.326
223.332
223.34
223.352
223.367
223.381
223.392
223.404
223.427
223.462
223.505
223.549
223.594
223.645
223.71
223.785
223.863
223.949
224.055
224.177
224.315
224.472
224.643
224.818
224.992
225.153
225.294
225.408
225.49
225.541
225.565
225.573
225.554
225.49
225.402
225.308
225.216
225.128
225.045
224.972
224.905
224.84
224.777
224.712
224.643
224.569
224.493
224.416
224.342
224.274
224.211
224.154
224.102
224.056
224.015
223.975
223.936
223.896
223.857
223.814
223.769
223.724
223.656
223.523
223.215
222.244
223.166
223.183
223.21
223.227
223.228
223.222
223.236
223.207
223.185
223.164
223.131
223.102
223.089
223.089
223.093
223.082
223.083
223.097
223.111
223.128
223.144
223.158
223.17
223.18
223.187
223.194
223.199
223.205
223.211
223.219
223.226
223.233
223.238
223.243
223.247
223.252
223.257
223.264
223.273
223.282
223.292
223.301
223.308
223.313
223.315
223.313
223.31
223.306
223.303
223.301
223.3
223.301
223.306
223.313
223.321
223.328
223.334
223.34
223.348
223.361
223.376
223.391
223.402
223.415
223.439
223.473
223.515
223.558
223.602
223.653
223.717
223.789
223.865
223.955
224.064
224.189
224.331
224.489
224.654
224.82
224.977
225.117
225.233
225.319
225.375
225.403
225.414
225.403
225.35
225.27
225.182
225.095
225.01
224.929
224.856
224.788
224.722
224.657
224.591
224.521
224.447
224.371
224.296
224.225
224.161
224.102
224.048
224
223.955
223.915
223.873
223.833
223.792
223.75
223.703
223.658
223.608
223.53
223.381
223.046
222.057
223.176
223.186
223.211
223.228
223.229
223.225
223.238
223.208
223.185
223.161
223.127
223.099
223.086
223.087
223.089
223.079
223.081
223.094
223.11
223.127
223.143
223.156
223.169
223.179
223.186
223.193
223.199
223.204
223.211
223.218
223.226
223.233
223.238
223.243
223.248
223.253
223.259
223.266
223.275
223.285
223.295
223.305
223.312
223.317
223.319
223.317
223.314
223.311
223.307
223.304
223.302
223.302
223.306
223.312
223.319
223.328
223.336
223.342
223.348
223.357
223.37
223.388
223.404
223.416
223.428
223.45
223.482
223.521
223.563
223.607
223.657
223.718
223.787
223.864
223.957
224.068
224.195
224.338
224.491
224.647
224.798
224.936
225.053
225.143
225.202
225.235
225.249
225.245
225.204
225.132
225.05
224.967
224.886
224.807
224.734
224.665
224.599
224.533
224.465
224.394
224.32
224.246
224.174
224.108
224.048
223.993
223.943
223.898
223.855
223.814
223.772
223.731
223.687
223.642
223.593
223.545
223.49
223.401
223.235
222.873
221.869
223.187
223.188
223.212
223.229
223.231
223.229
223.24
223.209
223.184
223.157
223.122
223.094
223.083
223.084
223.085
223.076
223.078
223.092
223.108
223.125
223.141
223.155
223.167
223.178
223.185
223.192
223.198
223.204
223.211
223.218
223.225
223.232
223.239
223.244
223.249
223.254
223.26
223.267
223.276
223.287
223.298
223.308
223.316
223.321
223.323
223.322
223.319
223.315
223.312
223.309
223.307
223.305
223.307
223.311
223.318
223.327
223.336
223.344
223.349
223.355
223.365
223.379
223.396
223.412
223.423
223.436
223.457
223.487
223.525
223.565
223.606
223.655
223.713
223.78
223.858
223.953
224.064
224.192
224.331
224.476
224.619
224.753
224.869
224.961
225.025
225.062
225.079
225.081
225.05
224.988
224.912
224.834
224.757
224.68
224.607
224.538
224.471
224.403
224.336
224.265
224.193
224.121
224.054
223.993
223.938
223.887
223.841
223.8
223.757
223.716
223.674
223.63
223.586
223.536
223.485
223.434
223.371
223.269
223.087
222.698
221.682
223.196
223.189
223.213
223.229
223.232
223.233
223.242
223.209
223.183
223.153
223.117
223.089
223.079
223.08
223.08
223.072
223.074
223.089
223.105
223.123
223.139
223.153
223.166
223.176
223.184
223.191
223.197
223.203
223.21
223.217
223.225
223.232
223.239
223.244
223.249
223.255
223.261
223.268
223.278
223.29
223.301
223.311
223.319
223.325
223.328
223.327
223.324
223.32
223.317
223.313
223.311
223.31
223.31
223.313
223.318
223.324
223.333
223.343
223.351
223.356
223.362
223.371
223.383
223.398
223.411
223.425
223.441
223.463
223.492
223.526
223.562
223.601
223.647
223.703
223.768
223.847
223.943
224.054
224.178
224.31
224.444
224.571
224.685
224.778
224.844
224.885
224.906
224.911
224.891
224.838
224.769
224.696
224.622
224.549
224.476
224.407
224.339
224.272
224.205
224.136
224.067
224
223.938
223.883
223.833
223.787
223.745
223.706
223.665
223.623
223.58
223.535
223.489
223.435
223.383
223.327
223.253
223.139
222.94
222.522
221.495
223.205
223.19
223.213
223.229
223.234
223.237
223.243
223.209
223.181
223.147
223.111
223.084
223.075
223.076
223.074
223.067
223.07
223.086
223.103
223.12
223.137
223.151
223.164
223.175
223.183
223.19
223.196
223.202
223.209
223.217
223.225
223.232
223.238
223.244
223.25
223.255
223.262
223.27
223.28
223.292
223.303
223.314
223.323
223.329
223.332
223.332
223.329
223.326
223.322
223.318
223.316
223.315
223.315
223.317
223.32
223.324
223.331
223.34
223.35
223.357
223.363
223.368
223.376
223.386
223.398
223.412
223.428
223.447
223.467
223.493
223.523
223.555
223.591
223.635
223.688
223.753
223.833
223.928
224.036
224.154
224.276
224.395
224.504
224.595
224.663
224.707
224.73
224.738
224.727
224.684
224.622
224.554
224.485
224.415
224.344
224.275
224.208
224.142
224.077
224.011
223.947
223.886
223.83
223.781
223.737
223.696
223.659
223.621
223.581
223.539
223.496
223.448
223.401
223.343
223.287
223.224
223.141
223.013
222.796
222.349
221.314
223.213
223.191
223.213
223.229
223.236
223.241
223.243
223.208
223.177
223.14
223.103
223.077
223.069
223.07
223.068
223.062
223.066
223.082
223.099
223.117
223.134
223.149
223.162
223.173
223.181
223.188
223.195
223.201
223.209
223.216
223.224
223.232
223.238
223.244
223.25
223.256
223.263
223.271
223.282
223.294
223.306
223.317
223.327
223.333
223.337
223.337
223.335
223.332
223.328
223.324
223.321
223.32
223.32
223.322
223.324
223.327
223.332
223.339
223.348
223.356
223.364
223.37
223.375
223.382
223.391
223.403
223.417
223.433
223.449
223.469
223.491
223.517
223.546
223.579
223.621
223.672
223.737
223.815
223.907
224.01
224.119
224.227
224.329
224.417
224.485
224.53
224.556
224.566
224.562
224.528
224.473
224.411
224.346
224.281
224.212
224.145
224.081
224.017
223.955
223.895
223.836
223.782
223.734
223.691
223.652
223.616
223.582
223.546
223.507
223.465
223.42
223.373
223.32
223.26
223.201
223.128
223.034
222.893
222.656
222.181
221.134
223.221
223.191
223.212
223.228
223.238
223.244
223.243
223.205
223.171
223.132
223.094
223.07
223.063
223.063
223.06
223.056
223.062
223.078
223.095
223.114
223.131
223.146
223.159
223.17
223.179
223.187
223.194
223.2
223.207
223.215
223.223
223.231
223.238
223.244
223.25
223.257
223.264
223.273
223.284
223.296
223.308
223.32
223.33
223.338
223.341
223.342
223.341
223.338
223.334
223.33
223.327
223.325
223.325
223.326
223.329
223.333
223.336
223.341
223.347
223.355
223.363
223.372
223.378
223.383
223.39
223.398
223.409
223.421
223.436
223.451
223.468
223.487
223.509
223.534
223.566
223.605
223.656
223.719
223.794
223.881
223.976
224.073
224.166
224.248
224.313
224.359
224.386
224.398
224.399
224.373
224.326
224.269
224.21
224.149
224.085
224.021
223.96
223.901
223.844
223.79
223.739
223.692
223.65
223.613
223.58
223.549
223.517
223.482
223.443
223.402
223.357
223.308
223.251
223.189
223.123
223.043
222.937
222.783
222.524
222.024
220.968
223.229
223.191
223.211
223.227
223.239
223.246
223.24
223.2
223.164
223.122
223.084
223.061
223.055
223.055
223.052
223.049
223.056
223.073
223.091
223.109
223.127
223.142
223.156
223.168
223.177
223.185
223.192
223.199
223.206
223.214
223.222
223.23
223.238
223.244
223.25
223.257
223.265
223.274
223.285
223.298
223.311
223.323
223.334
223.342
223.346
223.348
223.347
223.344
223.341
223.338
223.335
223.332
223.331
223.331
223.334
223.338
223.343
223.347
223.35
223.355
223.362
223.371
223.378
223.384
223.39
223.397
223.405
223.414
223.426
223.438
223.451
223.465
223.481
223.5
223.523
223.553
223.591
223.64
223.7
223.771
223.851
223.934
224.017
224.091
224.153
224.197
224.225
224.239
224.241
224.224
224.184
224.134
224.08
224.025
223.966
223.907
223.851
223.797
223.747
223.7
223.657
223.617
223.582
223.551
223.522
223.494
223.464
223.43
223.391
223.351
223.303
223.255
223.192
223.127
223.054
222.968
222.849
222.681
222.4
221.874
220.819
223.236
223.191
223.21
223.225
223.24
223.246
223.235
223.193
223.154
223.111
223.073
223.051
223.046
223.046
223.043
223.042
223.051
223.067
223.086
223.104
223.122
223.138
223.152
223.164
223.174
223.182
223.19
223.197
223.205
223.213
223.221
223.229
223.237
223.244
223.25
223.257
223.265
223.275
223.287
223.3
223.313
223.326
223.337
223.346
223.351
223.353
223.353
223.351
223.348
223.345
223.342
223.34
223.338
223.338
223.34
223.343
223.348
223.352
223.356
223.359
223.364
223.369
223.376
223.383
223.39
223.396
223.403
223.411
223.42
223.429
223.44
223.451
223.462
223.476
223.493
223.514
223.542
223.579
223.625
223.681
223.745
223.815
223.886
223.952
224.007
224.049
224.076
224.091
224.095
224.084
224.051
224.007
223.96
223.91
223.859
223.806
223.756
223.709
223.666
223.627
223.591
223.558
223.529
223.503
223.477
223.451
223.422
223.389
223.351
223.309
223.262
223.209
223.142
223.075
222.998
222.904
222.772
222.59
222.287
221.738
220.676
223.243
223.189
223.209
223.222
223.238
223.244
223.227
223.184
223.141
223.097
223.06
223.039
223.035
223.035
223.033
223.034
223.044
223.061
223.08
223.098
223.116
223.133
223.148
223.16
223.171
223.179
223.187
223.195
223.203
223.211
223.22
223.228
223.236
223.243
223.25
223.257
223.266
223.276
223.288
223.301
223.315
223.329
223.34
223.349
223.355
223.358
223.358
223.357
223.355
223.353
223.351
223.349
223.348
223.347
223.348
223.35
223.353
223.357
223.362
223.365
223.368
223.372
223.376
223.382
223.389
223.396
223.403
223.41
223.417
223.425
223.433
223.441
223.451
223.461
223.473
223.488
223.508
223.535
223.569
223.612
223.662
223.718
223.777
223.832
223.88
223.918
223.944
223.958
223.963
223.956
223.93
223.893
223.852
223.81
223.766
223.721
223.678
223.639
223.603
223.571
223.542
223.515
223.491
223.468
223.445
223.42
223.391
223.359
223.32
223.279
223.229
223.169
223.104
223.034
222.951
222.846
222.703
222.507
222.182
221.615
220.549
223.25
223.187
223.207
223.218
223.235
223.239
223.216
223.171
223.126
223.081
223.045
223.026
223.022
223.023
223.022
223.025
223.037
223.054
223.073
223.092
223.11
223.127
223.142
223.155
223.166
223.176
223.184
223.192
223.201
223.209
223.218
223.227
223.235
223.242
223.25
223.257
223.267
223.277
223.289
223.303
223.318
223.331
223.344
223.353
223.359
223.363
223.364
223.364
223.362
223.36
223.358
223.357
223.357
223.357
223.357
223.359
223.361
223.364
223.368
223.372
223.375
223.379
223.382
223.385
223.39
223.396
223.403
223.409
223.416
223.423
223.43
223.437
223.445
223.452
223.461
223.472
223.486
223.506
223.53
223.562
223.6
223.643
223.69
223.735
223.775
223.807
223.831
223.845
223.849
223.846
223.826
223.796
223.762
223.726
223.689
223.653
223.618
223.586
223.558
223.532
223.508
223.486
223.465
223.444
223.423
223.398
223.369
223.336
223.298
223.254
223.202
223.14
223.074
223
222.911
222.796
222.642
222.431
222.087
221.499
220.441
223.255
223.183
223.204
223.212
223.229
223.231
223.202
223.154
223.107
223.062
223.028
223.012
223.009
223.01
223.01
223.014
223.028
223.045
223.065
223.084
223.102
223.12
223.136
223.149
223.161
223.171
223.18
223.189
223.198
223.207
223.216
223.225
223.234
223.241
223.249
223.257
223.267
223.278
223.29
223.304
223.319
223.334
223.346
223.356
223.363
223.368
223.37
223.37
223.369
223.368
223.366
223.366
223.366
223.366
223.368
223.37
223.372
223.374
223.376
223.379
223.382
223.385
223.388
223.391
223.394
223.399
223.404
223.41
223.417
223.422
223.428
223.435
223.442
223.449
223.456
223.464
223.474
223.488
223.506
223.53
223.558
223.59
223.625
223.661
223.693
223.72
223.74
223.752
223.757
223.756
223.74
223.717
223.689
223.661
223.632
223.603
223.576
223.551
223.529
223.508
223.489
223.47
223.451
223.431
223.409
223.383
223.354
223.32
223.281
223.234
223.182
223.117
223.05
222.971
222.875
222.749
222.586
222.36
221.998
221.394
220.338
223.261
223.178
223.198
223.203
223.219
223.219
223.184
223.134
223.085
223.041
223.009
222.995
222.993
222.995
222.997
223.003
223.018
223.036
223.055
223.075
223.094
223.112
223.128
223.143
223.155
223.166
223.176
223.185
223.195
223.204
223.214
223.223
223.232
223.24
223.249
223.257
223.267
223.278
223.291
223.306
223.321
223.336
223.349
223.36
223.367
223.372
223.375
223.376
223.376
223.376
223.375
223.375
223.375
223.375
223.377
223.379
223.382
223.384
223.386
223.388
223.391
223.393
223.396
223.399
223.402
223.405
223.408
223.412
223.418
223.423
223.429
223.435
223.441
223.447
223.454
223.461
223.469
223.48
223.494
223.511
223.532
223.556
223.582
223.609
223.634
223.655
223.672
223.682
223.687
223.687
223.675
223.657
223.637
223.615
223.593
223.571
223.551
223.532
223.514
223.497
223.481
223.463
223.445
223.424
223.401
223.375
223.345
223.309
223.268
223.22
223.166
223.099
223.028
222.944
222.84
222.706
222.532
222.291
221.912
221.295
220.25
223.264
223.169
223.188
223.19
223.205
223.202
223.161
223.11
223.06
223.017
222.988
222.977
222.977
222.979
222.983
222.991
223.007
223.025
223.045
223.064
223.084
223.102
223.12
223.135
223.148
223.16
223.17
223.18
223.19
223.2
223.211
223.221
223.23
223.239
223.248
223.256
223.266
223.278
223.292
223.307
223.323
223.338
223.352
223.363
223.371
223.377
223.38
223.382
223.383
223.383
223.384
223.384
223.384
223.385
223.387
223.389
223.392
223.394
223.397
223.399
223.401
223.403
223.405
223.407
223.409
223.411
223.414
223.417
223.421
223.426
223.432
223.438
223.443
223.449
223.455
223.461
223.467
223.476
223.489
223.502
223.519
223.537
223.557
223.577
223.596
223.613
223.626
223.635
223.639
223.64
223.631
223.619
223.603
223.587
223.571
223.555
223.539
223.524
223.509
223.494
223.479
223.462
223.443
223.423
223.399
223.371
223.339
223.302
223.259
223.21
223.152
223.083
223.008
222.917
222.807
222.663
222.481
222.226
221.831
221.202
220.169
223.265
223.157
223.175
223.172
223.187
223.178
223.132
223.081
223.031
222.99
222.966
222.958
222.958
222.962
222.967
222.977
222.994
223.013
223.033
223.053
223.073
223.092
223.11
223.126
223.14
223.152
223.163
223.174
223.185
223.196
223.207
223.218
223.228
223.237
223.246
223.255
223.265
223.277
223.292
223.308
223.324
223.34
223.354
223.366
223.374
223.381
223.385
223.388
223.39
223.391
223.392
223.393
223.394
223.396
223.398
223.4
223.402
223.405
223.408
223.41
223.412
223.414
223.415
223.417
223.419
223.421
223.423
223.426
223.429
223.432
223.436
223.441
223.446
223.451
223.456
223.461
223.468
223.477
223.487
223.499
223.514
223.529
223.545
223.561
223.576
223.589
223.6
223.608
223.611
223.612
223.607
223.598
223.587
223.575
223.562
223.549
223.536
223.522
223.509
223.495
223.48
223.463
223.445
223.424
223.399
223.369
223.336
223.297
223.252
223.201
223.138
223.067
222.987
222.891
222.773
222.621
222.428
222.159
221.749
221.113
220.095
223.263
223.14
223.156
223.149
223.162
223.147
223.098
223.047
223
222.962
222.942
222.937
222.938
222.943
222.95
222.962
222.98
222.999
223.019
223.039
223.06
223.08
223.098
223.115
223.13
223.143
223.155
223.167
223.179
223.191
223.203
223.215
223.225
223.235
223.245
223.254
223.265
223.277
223.292
223.308
223.325
223.342
223.356
223.368
223.378
223.385
223.39
223.393
223.396
223.398
223.4
223.402
223.404
223.406
223.408
223.411
223.414
223.417
223.419
223.422
223.424
223.426
223.427
223.429
223.43
223.432
223.434
223.436
223.438
223.441
223.445
223.449
223.453
223.457
223.461
223.466
223.473
223.481
223.49
223.501
223.514
223.527
223.541
223.554
223.567
223.578
223.588
223.595
223.599
223.6
223.596
223.59
223.582
223.572
223.561
223.549
223.537
223.525
223.513
223.499
223.484
223.468
223.449
223.427
223.4
223.37
223.334
223.294
223.246
223.192
223.126
223.051
222.967
222.864
222.738
222.578
222.376
222.095
221.671
221.029
220.027
223.257
223.117
223.131
223.12
223.13
223.108
223.058
223.008
222.966
222.932
222.916
222.914
222.916
222.922
222.932
222.945
222.964
222.983
223.004
223.024
223.046
223.066
223.086
223.103
223.119
223.133
223.146
223.158
223.171
223.184
223.197
223.21
223.222
223.232
223.242
223.252
223.264
223.276
223.291
223.308
223.326
223.343
223.358
223.371
223.381
223.388
223.394
223.399
223.402
223.405
223.408
223.411
223.413
223.416
223.419
223.422
223.426
223.429
223.431
223.434
223.436
223.438
223.44
223.441
223.443
223.444
223.446
223.448
223.45
223.453
223.457
223.46
223.464
223.467
223.471
223.476
223.482
223.488
223.496
223.505
223.516
223.528
223.541
223.553
223.565
223.575
223.585
223.592
223.596
223.597
223.594
223.589
223.582
223.574
223.564
223.553
223.542
223.531
223.519
223.506
223.491
223.474
223.454
223.431
223.403
223.371
223.334
223.29
223.239
223.182
223.112
223.034
222.945
222.836
222.703
222.535
222.323
222.029
221.593
220.95
219.966