/*--------------------------------*- C++ -*----------------------------------*\
| =========                 |                                                 |
| \\      /  F ield         | OpenFOAM: The Open Source CFD Toolbox           |
|  \\    /   O peration     | Version:  2412                                  |
|   \\  /    A nd           | Website:  www.openfoam.com                      |
|    \\/     M anipulation  |                                                 |
\*---------------------------------------------------------------------------*/
FoamFile
{
    version     2.0;
    format      ascii;
    arch        "LSB;label=32;scalar=64";
    class       volScalarField;
    location    "0.044";
    object      T;
}
// * * * * * * * * * * * * * * * * * * * * * * * * * * * * * * * * * * * * * //

dimensions      [0 0 0 1 0 0 0];

internalField   nonuniform List<scalar> 
9922
(
244.022
224.581
225.214
225.825
225.928
225.934
225.873
225.775
225.685
225.603
225.514
225.399
225.258
225.094
224.914
224.723
224.523
224.314
224.099
223.877
223.648
223.411
223.16
222.891
222.595
222.267
221.902
221.498
221.052
220.561
220.022
219.434
218.796
218.115
217.395
216.645
215.871
215.075
214.254
213.4
212.499
211.535
210.489
209.346
208.098
206.748
205.316
203.834
202.329
200.831
199.344
197.867
196.411
194.974
193.555
192.158
190.781
189.392
187.97
186.566
185.23
183.92
182.61
181.317
180.079
178.928
177.876
176.918
176.045
175.244
174.497
173.815
173.196
172.627
172.108
171.621
171.173
170.744
170.339
169.952
169.59
169.245
168.917
168.6
168.29
167.991
167.707
167.44
167.186
166.942
166.705
166.475
166.253
166.04
165.834
165.637
165.447
165.265
165.088
164.919
164.756
164.601
164.453
164.314
164.177
164.042
163.899
163.748
163.59
163.439
163.313
163.234
163.201
163.199
163.226
163.295
163.408
163.527
163.624
163.671
163.599
244.059
224.575
225.183
225.793
225.906
225.916
225.859
225.764
225.676
225.596
225.508
225.393
225.252
225.087
224.907
224.716
224.515
224.307
224.091
223.869
223.639
223.401
223.15
222.879
222.582
222.253
221.886
221.48
221.031
220.536
219.993
219.401
218.759
218.074
217.351
216.599
215.824
215.026
214.204
213.347
212.443
211.476
210.428
209.287
208.045
206.71
205.305
203.858
202.39
200.93
199.484
198.045
196.617
195.202
193.79
192.382
190.993
189.638
188.283
186.887
185.485
184.144
182.865
181.616
180.395
179.219
178.109
177.086
176.158
175.33
174.588
173.909
173.289
172.718
172.195
171.7
171.241
170.8
170.383
169.985
169.613
169.261
168.925
168.601
168.287
167.988
167.709
167.446
167.194
166.951
166.713
166.483
166.261
166.049
165.845
165.649
165.46
165.279
165.105
164.938
164.777
164.624
164.478
164.341
164.208
164.076
163.935
163.786
163.63
163.481
163.357
163.28
163.248
163.247
163.276
163.347
163.461
163.584
163.681
163.728
163.656
244.096
224.57
225.152
225.759
225.882
225.897
225.845
225.753
225.668
225.589
225.501
225.387
225.245
225.08
224.9
224.708
224.508
224.299
224.083
223.86
223.63
223.392
223.14
222.868
222.57
222.239
221.871
221.462
221.01
220.511
219.964
219.367
218.722
218.034
217.309
216.555
215.778
214.98
214.156
213.297
212.391
211.422
210.374
209.236
208.003
206.69
205.314
203.895
202.46
201.033
199.619
198.206
196.806
195.422
194.046
192.666
191.272
189.876
188.521
187.189
185.83
184.45
183.104
181.829
180.622
179.47
178.376
177.348
176.391
175.506
174.701
173.98
173.335
172.749
172.216
171.713
171.247
170.801
170.388
169.996
169.632
169.285
168.947
168.619
168.302
168.004
167.726
167.461
167.203
166.953
166.708
166.474
166.248
166.033
165.828
165.631
165.442
165.261
165.086
164.917
164.755
164.6
164.453
164.316
164.183
164.05
163.908
163.758
163.6
163.45
163.324
163.245
163.212
163.214
163.246
163.323
163.444
163.573
163.674
163.724
163.658
244.133
224.566
225.12
225.725
225.859
225.879
225.83
225.742
225.659
225.582
225.495
225.38
225.238
225.073
224.892
224.701
224.5
224.291
224.075
223.852
223.622
223.382
223.129
222.856
222.557
222.225
221.855
221.444
220.988
220.486
219.935
219.334
218.685
217.994
217.266
216.511
215.734
214.935
214.11
213.251
212.343
211.373
210.326
209.193
207.974
206.68
205.327
203.933
202.528
201.129
199.735
198.341
196.959
195.594
194.241
192.9
191.56
190.193
188.796
187.426
186.105
184.786
183.454
182.13
180.855
179.658
178.548
177.52
176.571
175.696
174.889
174.151
173.481
172.873
172.32
171.803
171.329
170.88
170.467
170.073
169.701
169.342
168.993
168.657
168.341
168.045
167.767
167.5
167.238
166.985
166.741
166.508
166.285
166.073
165.869
165.674
165.486
165.305
165.131
164.962
164.798
164.643
164.496
164.359
164.226
164.092
163.949
163.797
163.636
163.482
163.352
163.268
163.23
163.228
163.258
163.334
163.454
163.585
163.689
163.74
163.676
244.17
224.561
225.088
225.691
225.834
225.86
225.815
225.731
225.65
225.575
225.488
225.374
225.231
225.066
224.885
224.693
224.493
224.284
224.067
223.843
223.612
223.372
223.119
222.845
222.544
222.211
221.839
221.425
220.967
220.461
219.906
219.301
218.649
217.954
217.225
216.469
215.691
214.892
214.067
213.207
212.299
211.33
210.286
209.161
207.957
206.68
205.345
203.982
202.612
201.244
199.883
198.524
197.166
195.815
194.465
193.116
191.782
190.466
189.128
187.745
186.361
185.032
183.743
182.466
181.2
179.967
178.793
177.703
176.708
175.803
174.982
174.239
173.565
172.95
172.387
171.859
171.371
170.908
170.482
170.076
169.697
169.331
168.98
168.645
168.333
168.039
167.759
167.486
167.218
166.962
166.719
166.488
166.269
166.059
165.856
165.661
165.473
165.293
165.117
164.947
164.783
164.629
164.485
164.349
164.216
164.082
163.939
163.787
163.627
163.474
163.344
163.262
163.229
163.23
163.262
163.342
163.467
163.6
163.708
163.76
163.698
244.207
224.557
225.055
225.655
225.81
225.84
225.8
225.719
225.641
225.567
225.482
225.367
225.224
225.058
224.877
224.686
224.485
224.276
224.059
223.835
223.603
223.363
223.108
222.833
222.531
222.196
221.823
221.406
220.945
220.436
219.877
219.268
218.612
217.915
217.185
216.428
215.65
214.851
214.026
213.167
212.26
211.292
210.253
209.136
207.943
206.684
205.378
204.052
202.713
201.373
200.042
198.712
197.381
196.058
194.735
193.4
192.05
190.702
189.386
188.071
186.715
185.337
183.991
182.704
181.465
180.264
179.104
178.002
176.971
176.017
175.143
174.35
173.642
173.008
172.433
171.896
171.401
170.935
170.512
170.115
169.745
169.386
169.039
168.707
168.394
168.095
167.804
167.521
167.247
166.988
166.743
166.511
166.287
166.074
165.867
165.669
165.48
165.297
165.119
164.947
164.784
164.631
164.487
164.351
164.217
164.082
163.94
163.788
163.627
163.472
163.338
163.252
163.214
163.211
163.24
163.317
163.442
163.576
163.683
163.735
163.671
244.245
224.553
225.022
225.619
225.785
225.821
225.784
225.708
225.632
225.56
225.475
225.36
225.216
225.05
224.869
224.678
224.477
224.268
224.05
223.826
223.594
223.353
223.097
222.821
222.518
222.182
221.806
221.388
220.923
220.41
219.847
219.235
218.576
217.877
217.145
216.388
215.61
214.812
213.988
213.13
212.224
211.259
210.226
209.119
207.94
206.701
205.427
204.126
202.808
201.492
200.181
198.867
197.552
196.249
194.956
193.662
192.355
191.017
189.655
188.321
187.015
185.695
184.352
183.011
181.711
180.477
179.315
178.221
177.198
176.244
175.362
174.554
173.822
173.163
172.567
172.013
171.504
171.024
170.584
170.169
169.78
169.408
169.054
168.717
168.397
168.089
167.789
167.501
167.23
166.976
166.734
166.503
166.279
166.065
165.859
165.662
165.473
165.291
165.114
164.945
164.785
164.634
164.49
164.354
164.22
164.087
163.948
163.799
163.639
163.485
163.352
163.266
163.23
163.231
163.263
163.343
163.471
163.61
163.718
163.77
163.703
244.282
224.549
224.989
225.583
225.76
225.801
225.768
225.696
225.623
225.552
225.468
225.353
225.209
225.043
224.861
224.67
224.469
224.26
224.042
223.817
223.585
223.343
223.086
222.809
222.505
222.167
221.789
221.369
220.901
220.385
219.818
219.202
218.54
217.839
217.106
216.349
215.572
214.775
213.953
213.096
212.193
211.232
210.204
209.106
207.945
206.732
205.478
204.193
202.9
201.611
200.325
199.038
197.746
196.458
195.17
193.88
192.597
191.313
189.996
188.635
187.276
185.961
184.669
183.374
182.078
180.801
179.573
178.423
177.361
176.384
175.487
174.673
173.928
173.247
172.629
172.058
171.535
171.044
170.593
170.168
169.779
169.414
169.07
168.738
168.415
168.102
167.8
167.514
167.247
166.995
166.754
166.521
166.295
166.077
165.869
165.671
165.479
165.295
165.117
164.949
164.787
164.634
164.486
164.345
164.209
164.075
163.935
163.785
163.624
163.467
163.329
163.239
163.199
163.198
163.228
163.309
163.44
163.581
163.692
163.745
163.677
244.319
224.546
224.955
225.546
225.735
225.78
225.752
225.685
225.614
225.545
225.461
225.346
225.201
225.035
224.853
224.662
224.461
224.251
224.034
223.808
223.576
223.333
223.075
222.797
222.491
222.152
221.773
221.35
220.879
220.359
219.789
219.169
218.504
217.801
217.068
216.311
215.535
214.74
213.92
213.066
212.166
211.209
210.189
209.104
207.96
206.765
205.527
204.271
203.016
201.758
200.499
199.242
197.978
196.713
195.443
194.156
192.853
191.555
190.275
188.978
187.636
186.269
184.929
183.636
182.376
181.136
179.923
178.755
177.649
176.62
175.675
174.808
174.03
173.337
172.717
172.144
171.618
171.124
170.673
170.246
169.853
169.479
169.122
168.779
168.449
168.132
167.831
167.549
167.287
167.037
166.792
166.554
166.324
166.106
165.898
165.698
165.504
165.318
165.141
164.973
164.811
164.655
164.505
164.364
164.23
164.098
163.96
163.811
163.651
163.494
163.355
163.264
163.222
163.218
163.247
163.326
163.454
163.595
163.706
163.76
163.693
244.357
224.543
224.922
225.508
225.709
225.759
225.736
225.673
225.605
225.537
225.454
225.338
225.193
225.027
224.845
224.654
224.452
224.243
224.025
223.799
223.566
223.323
223.064
222.785
222.478
222.136
221.755
221.33
220.857
220.334
219.76
219.136
218.469
217.764
217.03
216.274
215.501
214.708
213.89
213.038
212.142
211.191
210.179
209.109
207.979
206.8
205.59
204.371
203.144
201.902
200.661
199.42
198.173
196.929
195.689
194.439
193.168
191.863
190.541
189.242
187.955
186.643
185.3
183.952
182.637
181.376
180.171
179.019
177.926
176.896
175.937
175.051
174.244
173.522
172.868
172.264
171.713
171.2
170.731
170.286
169.871
169.477
169.111
168.764
168.436
168.123
167.828
167.549
167.285
167.029
166.777
166.531
166.294
166.07
165.858
165.655
165.459
165.273
165.098
164.931
164.769
164.611
164.46
164.319
164.187
164.057
163.92
163.772
163.613
163.456
163.317
163.225
163.183
163.181
163.212
163.294
163.423
163.568
163.682
163.739
163.677
244.394
224.539
224.888
225.47
225.683
225.738
225.72
225.662
225.596
225.529
225.447
225.331
225.185
225.018
224.837
224.645
224.444
224.235
224.016
223.79
223.557
223.312
223.053
222.772
222.464
222.121
221.738
221.311
220.835
220.308
219.73
219.104
218.434
217.728
216.994
216.239
215.467
214.677
213.862
213.014
212.123
211.178
210.177
209.118
208.003
206.846
205.667
204.471
203.252
202.026
200.804
199.584
198.36
197.131
195.901
194.666
193.429
192.177
190.886
189.554
188.224
186.926
185.637
184.336
183.021
181.714
180.445
179.243
178.119
177.074
176.102
175.211
174.392
173.634
172.946
172.319
171.758
171.239
170.77
170.326
169.915
169.526
169.165
168.823
168.497
168.183
167.882
167.594
167.316
167.048
166.788
166.538
166.299
166.073
165.858
165.652
165.458
165.276
165.104
164.939
164.777
164.62
164.471
164.332
164.201
164.07
163.932
163.782
163.622
163.462
163.32
163.223
163.174
163.168
163.196
163.275
163.402
163.546
163.658
163.716
163.656
244.431
224.536
224.854
225.432
225.656
225.716
225.703
225.65
225.586
225.521
225.439
225.323
225.177
225.01
224.828
224.637
224.436
224.226
224.008
223.781
223.547
223.302
223.042
222.76
222.449
222.105
221.72
221.291
220.812
220.282
219.701
219.071
218.399
217.692
216.958
216.205
215.436
214.649
213.837
212.993
212.106
211.169
210.179
209.132
208.035
206.903
205.745
204.56
203.363
202.171
200.982
199.794
198.597
197.387
196.169
194.932
193.679
192.428
191.183
189.91
188.587
187.239
185.91
184.618
183.346
182.08
180.826
179.602
178.43
177.329
176.31
175.371
174.516
173.749
173.075
172.456
171.891
171.36
170.877
170.415
169.988
169.582
169.206
168.848
168.507
168.181
167.873
167.578
167.294
167.021
166.763
166.52
166.288
166.068
165.855
165.651
165.458
165.275
165.097
164.926
164.76
164.601
164.453
164.314
164.18
164.047
163.909
163.761
163.602
163.442
163.299
163.199
163.15
163.145
163.175
163.258
163.39
163.538
163.651
163.706
163.642
244.467
224.533
224.819
225.393
225.63
225.693
225.686
225.639
225.577
225.513
225.432
225.316
225.169
225.001
224.819
224.628
224.427
224.217
223.999
223.772
223.537
223.292
223.03
222.747
222.435
222.089
221.702
221.27
220.789
220.256
219.672
219.039
218.365
217.657
216.924
216.173
215.406
214.622
213.815
212.976
212.095
211.167
210.186
209.153
208.075
206.962
205.82
204.66
203.501
202.338
201.166
199.992
198.813
197.626
196.435
195.229
193.995
192.729
191.45
190.187
188.922
187.624
186.289
184.944
183.623
182.344
181.107
179.909
178.754
177.653
176.617
175.653
174.767
173.966
173.234
172.567
171.97
171.414
170.91
170.433
170.004
169.602
169.236
168.883
168.541
168.213
167.903
167.607
167.323
167.053
166.8
166.56
166.328
166.104
165.886
165.677
165.477
165.286
165.1
164.922
164.752
164.592
164.442
164.301
164.164
164.028
163.889
163.742
163.583
163.421
163.274
163.168
163.113
163.103
163.13
163.212
163.345
163.497
163.614
163.672
163.613
244.504
224.53
224.785
225.354
225.602
225.67
225.668
225.628
225.568
225.505
225.424
225.308
225.16
224.992
224.81
224.619
224.418
224.209
223.99
223.763
223.528
223.281
223.019
222.734
222.42
222.072
221.684
221.25
220.766
220.23
219.642
219.007
218.331
217.623
216.891
216.142
215.378
214.598
213.795
212.961
212.087
211.168
210.198
209.179
208.119
207.023
205.904
204.777
203.641
202.486
201.322
200.163
199.002
197.831
196.654
195.47
194.275
193.057
191.797
190.498
189.2
187.922
186.643
185.344
184.022
182.696
181.398
180.156
178.98
177.87
176.826
175.856
174.963
174.128
173.355
172.667
172.061
171.499
170.994
170.519
170.093
169.69
169.309
168.939
168.584
168.246
167.929
167.628
167.343
167.074
166.821
166.581
166.344
166.114
165.89
165.676
165.471
165.276
165.089
164.912
164.745
164.587
164.438
164.296
164.159
164.024
163.889
163.747
163.591
163.432
163.285
163.179
163.124
163.116
163.145
163.23
163.366
163.523
163.644
163.704
163.641
244.54
224.527
224.751
225.314
225.574
225.647
225.652
225.617
225.559
225.497
225.416
225.299
225.152
224.983
224.801
224.61
224.409
224.2
223.981
223.754
223.518
223.271
223.007
222.721
222.406
222.056
221.665
221.229
220.742
220.203
219.613
218.975
218.298
217.589
216.859
216.112
215.352
214.576
213.778
212.95
212.084
211.174
210.215
209.211
208.166
207.092
206
204.893
203.764
202.622
201.487
200.359
199.231
198.08
196.911
195.726
194.524
193.319
192.108
190.862
189.566
188.241
186.929
185.644
184.368
183.088
181.806
180.54
179.313
178.146
177.055
176.041
175.109
174.269
173.535
172.846
172.213
171.622
171.089
170.588
170.136
169.706
169.306
168.928
168.577
168.245
167.93
167.63
167.344
167.072
166.813
166.564
166.319
166.083
165.857
165.643
165.437
165.24
165.054
164.878
164.71
164.549
164.397
164.251
164.11
163.974
163.839
163.697
163.543
163.383
163.231
163.122
163.065
163.056
163.088
163.176
163.317
163.479
163.605
163.669
163.606
244.576
224.523
224.718
225.274
225.545
225.624
225.636
225.605
225.551
225.488
225.408
225.291
225.143
224.974
224.792
224.601
224.401
224.191
223.972
223.744
223.508
223.26
222.995
222.708
222.391
222.039
221.646
221.208
220.718
220.177
219.583
218.943
218.265
217.556
216.827
216.084
215.328
214.557
213.764
212.943
212.085
211.183
210.236
209.246
208.22
207.168
206.096
205.001
203.893
202.787
201.685
200.58
199.469
198.337
197.192
196.029
194.837
193.614
192.379
191.152
189.913
188.635
187.317
185.98
184.661
183.374
182.116
180.882
179.677
178.514
177.406
176.364
175.392
174.497
173.681
172.949
172.289
171.682
171.138
170.631
170.177
169.748
169.358
168.991
168.645
168.313
167.99
167.681
167.386
167.106
166.836
166.577
166.329
166.096
165.876
165.665
165.458
165.262
165.076
164.899
164.728
164.566
164.411
164.264
164.123
163.987
163.85
163.706
163.547
163.383
163.227
163.112
163.051
163.04
163.069
163.155
163.294
163.455
163.58
163.644
163.583
244.61
224.52
224.684
225.233
225.515
225.602
225.619
225.594
225.542
225.48
225.399
225.282
225.134
224.965
224.782
224.592
224.391
224.182
223.963
223.735
223.498
223.249
222.984
222.694
222.375
222.022
221.627
221.186
220.694
220.15
219.554
218.912
218.232
217.525
216.798
216.058
215.306
214.54
213.753
212.938
212.089
211.197
210.262
209.287
208.28
207.247
206.191
205.118
204.041
202.96
201.868
200.768
199.666
198.551
197.424
196.288
195.134
193.95
192.725
191.464
190.2
188.946
187.684
186.393
185.073
183.741
182.425
181.153
179.934
178.77
177.658
176.612
175.642
174.733
173.88
173.125
172.452
171.836
171.279
170.754
170.276
169.821
169.405
169.016
168.654
168.31
167.98
167.665
167.367
167.085
166.816
166.56
166.318
166.089
165.866
165.648
165.435
165.232
165.039
164.857
164.682
164.517
164.361
164.214
164.075
163.941
163.805
163.658
163.497
163.333
163.181
163.073
163.016
163.007
163.036
163.12
163.259
163.419
163.544
163.607
163.542
244.644
224.517
224.65
225.193
225.487
225.581
225.603
225.582
225.533
225.472
225.391
225.273
225.124
224.955
224.773
224.582
224.382
224.173
223.954
223.725
223.488
223.238
222.971
222.681
222.36
222.004
221.607
221.164
220.67
220.122
219.524
218.881
218.2
217.494
216.769
216.033
215.286
214.525
213.745
212.938
212.096
211.214
210.291
209.332
208.343
207.328
206.293
205.247
204.188
203.113
202.031
200.954
199.879
198.789
197.672
196.536
195.386
194.225
193.05
191.835
190.569
189.272
187.981
186.708
185.437
184.152
182.854
181.56
180.291
179.071
177.914
176.826
175.819
174.911
174.082
173.306
172.596
171.946
171.358
170.808
170.31
169.842
169.428
169.042
168.686
168.345
168.014
167.697
167.395
167.109
166.837
166.579
166.331
166.095
165.866
165.647
165.437
165.237
165.044
164.859
164.683
164.518
164.361
164.213
164.073
163.937
163.797
163.646
163.482
163.316
163.163
163.052
162.994
162.983
163.01
163.094
163.233
163.397
163.525
163.592
163.53
244.675
224.513
224.617
225.153
225.459
225.561
225.587
225.569
225.523
225.463
225.382
225.264
225.115
224.945
224.763
224.573
224.373
224.164
223.945
223.716
223.478
223.227
222.959
222.667
222.344
221.986
221.587
221.141
220.645
220.095
219.495
218.85
218.169
217.464
216.742
216.009
215.267
214.513
213.739
212.94
212.106
211.235
210.325
209.382
208.41
207.415
206.402
205.372
204.324
203.27
202.221
201.177
200.128
199.059
197.961
196.84
195.692
194.515
193.326
192.135
190.926
189.674
188.376
187.056
185.745
184.457
183.187
181.93
180.689
179.476
178.305
177.191
176.135
175.142
174.241
173.435
172.71
172.052
171.461
170.911
170.417
169.95
169.526
169.12
168.736
168.374
168.03
167.704
167.394
167.102
166.825
166.562
166.312
166.075
165.849
165.635
165.43
165.23
165.034
164.847
164.67
164.503
164.344
164.195
164.054
163.919
163.78
163.63
163.468
163.303
163.15
163.038
162.98
162.971
162.999
163.085
163.224
163.387
163.511
163.574
163.509
244.706
224.51
224.583
225.113
225.432
225.541
225.57
225.556
225.514
225.454
225.373
225.255
225.105
224.935
224.753
224.563
224.363
224.154
223.935
223.706
223.468
223.216
222.947
222.653
222.328
221.968
221.567
221.118
220.619
220.067
219.465
218.819
218.138
217.434
216.716
215.988
215.251
214.503
213.736
212.944
212.12
211.259
210.363
209.436
208.482
207.507
206.51
205.494
204.47
203.447
202.423
201.39
200.345
199.287
198.209
197.115
196.002
194.856
193.669
192.449
191.221
189.995
188.754
187.48
186.17
184.84
183.517
182.225
180.974
179.765
178.597
177.482
176.434
175.451
174.53
173.69
172.933
172.243
171.617
171.032
170.505
170.007
169.557
169.131
168.743
168.383
168.048
167.729
167.423
167.132
166.854
166.59
166.338
166.099
165.87
165.652
165.44
165.233
165.032
164.842
164.661
164.489
164.325
164.171
164.028
163.891
163.751
163.6
163.436
163.267
163.108
162.989
162.923
162.911
162.94
163.03
163.174
163.345
163.479
163.55
163.492
244.735
224.507
224.55
225.074
225.405
225.521
225.553
225.542
225.504
225.445
225.364
225.246
225.095
224.925
224.743
224.553
224.354
224.145
223.926
223.696
223.457
223.205
222.935
222.639
222.312
221.949
221.546
221.095
220.594
220.039
219.435
218.788
218.108
217.406
216.691
215.968
215.237
214.495
213.736
212.952
212.137
211.288
210.406
209.495
208.559
207.6
206.619
205.625
204.627
203.621
202.603
201.58
200.551
199.514
198.45
197.362
196.26
195.144
194.005
192.825
191.593
190.328
189.062
187.807
186.547
185.267
183.965
182.655
181.358
180.096
178.885
177.731
176.645
175.646
174.721
173.86
173.069
172.347
171.697
171.099
170.567
170.07
169.627
169.208
168.826
168.463
168.116
167.784
167.467
167.167
166.882
166.612
166.355
166.111
165.877
165.655
165.438
165.228
165.028
164.84
164.659
164.486
164.322
164.17
164.029
163.895
163.758
163.611
163.45
163.281
163.118
162.993
162.924
162.909
162.939
163.028
163.172
163.344
163.48
163.55
163.488
244.762
224.504
224.518
225.035
225.379
225.502
225.535
225.528
225.494
225.436
225.355
225.236
225.085
224.914
224.732
224.543
224.344
224.135
223.916
223.687
223.447
223.194
222.922
222.625
222.296
221.931
221.524
221.071
220.567
220.011
219.405
218.758
218.078
217.379
216.667
215.949
215.225
214.49
213.738
212.962
212.156
211.319
210.452
209.557
208.638
207.695
206.734
205.762
204.778
203.782
202.786
201.791
200.794
199.783
198.739
197.662
196.559
195.43
194.287
193.135
191.958
190.736
189.465
188.167
186.87
185.588
184.316
183.047
181.782
180.533
179.312
178.137
177.011
175.944
174.963
174.067
173.259
172.53
171.875
171.265
170.712
170.186
169.71
169.262
168.856
168.472
168.113
167.776
167.457
167.151
166.855
166.576
166.312
166.065
165.831
165.609
165.393
165.185
164.986
164.796
164.612
164.436
164.269
164.115
163.972
163.835
163.697
163.552
163.392
163.222
163.054
162.923
162.846
162.826
162.851
162.939
163.086
163.269
163.414
163.49
163.432
244.787
224.501
224.486
224.998
225.352
225.482
225.517
225.514
225.484
225.427
225.346
225.226
225.074
224.904
224.722
224.532
224.334
224.126
223.907
223.677
223.436
223.182
222.909
222.61
222.279
221.912
221.502
221.047
220.541
219.982
219.375
218.727
218.049
217.352
216.645
215.932
215.214
214.486
213.742
212.975
212.18
211.355
210.503
209.624
208.72
207.795
206.853
205.896
204.925
203.957
202.993
202.02
201.034
200.031
199.004
197.953
196.879
195.774
194.628
193.451
192.261
191.066
189.851
188.599
187.307
185.988
184.667
183.364
182.092
180.849
179.637
178.464
177.344
176.284
175.286
174.36
173.512
172.734
172.025
171.371
170.785
170.235
169.752
169.306
168.908
168.529
168.171
167.831
167.498
167.176
166.87
166.586
166.321
166.075
165.842
165.62
165.406
165.201
165.003
164.812
164.627
164.45
164.282
164.126
163.979
163.837
163.696
163.548
163.388
163.216
163.045
162.91
162.829
162.808
162.833
162.922
163.072
163.258
163.404
163.481
163.415
244.81
224.499
224.457
224.961
225.326
225.462
225.499
225.501
225.474
225.418
225.336
225.216
225.064
224.893
224.711
224.522
224.324
224.116
223.897
223.667
223.426
223.171
222.896
222.595
222.262
221.892
221.48
221.022
220.513
219.953
219.345
218.697
218.021
217.326
216.624
215.917
215.205
214.485
213.749
212.991
212.207
211.395
210.557
209.693
208.806
207.898
206.971
206.029
205.085
204.145
203.192
202.224
201.245
200.252
199.242
198.204
197.147
196.074
194.974
193.83
192.635
191.406
190.17
188.937
187.694
186.427
185.131
183.817
182.504
181.213
179.958
178.75
177.596
176.509
175.489
174.541
173.666
172.861
172.137
171.486
170.911
170.369
169.879
169.414
168.985
168.579
168.2
167.839
167.496
167.175
166.885
166.615
166.352
166.098
165.853
165.621
165.4
165.188
164.98
164.78
164.591
164.413
164.246
164.088
163.937
163.793
163.653
163.506
163.345
163.172
163
162.862
162.778
162.752
162.772
162.85
162.987
163.16
163.296
163.366
163.301
244.831
224.496
224.429
224.926
225.299
225.441
225.483
225.488
225.463
225.409
225.327
225.205
225.053
224.882
224.7
224.511
224.314
224.106
223.887
223.657
223.415
223.159
222.883
222.581
222.245
221.872
221.458
220.997
220.486
219.924
219.315
218.667
217.993
217.302
216.604
215.903
215.199
214.486
213.758
213.01
212.237
211.439
210.615
209.766
208.894
208.001
207.09
206.171
205.251
204.321
203.375
202.429
201.475
200.51
199.523
198.496
197.438
196.359
195.262
194.15
193.008
191.818
190.579
189.309
188.032
186.762
185.495
184.224
182.948
181.675
180.419
179.194
178.009
176.879
175.821
174.842
173.939
173.118
172.378
171.693
171.065
170.475
169.946
169.451
169.012
168.606
168.234
167.88
167.548
167.239
166.95
166.673
166.398
166.132
165.879
165.642
165.418
165.203
164.988
164.781
164.586
164.405
164.234
164.072
163.917
163.768
163.622
163.468
163.3
163.118
162.94
162.799
162.714
162.691
162.715
162.799
162.944
163.125
163.27
163.35
163.291
244.849
224.494
224.403
224.891
225.271
225.42
225.467
225.476
225.453
225.399
225.316
225.195
225.042
224.87
224.689
224.501
224.303
224.096
223.877
223.647
223.404
223.147
222.87
222.566
222.228
221.852
221.435
220.971
220.458
219.894
219.285
218.638
217.965
217.278
216.586
215.891
215.194
214.489
213.77
213.032
212.271
211.486
210.676
209.842
208.985
208.107
207.215
206.317
205.41
204.491
203.576
202.661
201.726
200.776
199.804
198.8
197.766
196.701
195.6
194.467
193.318
192.157
190.972
189.747
188.48
187.18
185.868
184.564
183.279
182.014
180.769
179.551
178.372
177.241
176.162
175.151
174.215
173.352
172.555
171.816
171.154
170.555
170.037
169.552
169.117
168.702
168.309
167.938
167.592
167.268
166.961
166.667
166.381
166.107
165.845
165.602
165.375
165.159
164.95
164.748
164.555
164.374
164.204
164.043
163.89
163.745
163.603
163.455
163.293
163.119
162.947
162.81
162.727
162.704
162.725
162.803
162.94
163.114
163.251
163.323
163.25
244.864
224.493
224.379
224.858
225.245
225.399
225.451
225.464
225.442
225.388
225.306
225.184
225.03
224.859
224.678
224.49
224.293
224.086
223.867
223.637
223.393
223.135
222.856
222.55
222.21
221.832
221.411
220.945
220.429
219.864
219.254
218.608
217.938
217.256
216.569
215.881
215.192
214.495
213.785
213.058
212.309
211.537
210.741
209.921
209.078
208.216
207.343
206.46
205.568
204.678
203.792
202.882
201.952
201.007
200.044
199.059
198.047
197.014
195.953
194.848
193.694
192.504
191.301
190.094
188.875
187.626
186.345
185.039
183.722
182.413
181.127
179.874
178.665
177.507
176.405
175.368
174.405
173.519
172.713
171.988
171.342
170.732
170.174
169.646
169.173
168.727
168.324
167.954
167.613
167.284
166.957
166.643
166.35
166.078
165.819
165.577
165.353
165.14
164.932
164.73
164.535
164.35
164.175
164.01
163.854
163.708
163.565
163.415
163.251
163.073
162.894
162.744
162.646
162.611
162.622
162.692
162.826
163.002
163.144
163.219
163.155
244.876
224.492
224.357
224.826
225.219
225.379
225.435
225.452
225.431
225.378
225.295
225.173
225.019
224.847
224.666
224.478
224.282
224.076
223.857
223.626
223.382
223.123
222.843
222.535
222.193
221.811
221.387
220.918
220.399
219.833
219.223
218.579
217.912
217.234
216.554
215.873
215.192
214.504
213.804
213.087
212.35
211.59
210.808
210.001
209.173
208.328
207.471
206.605
205.737
204.873
203.991
203.084
202.175
201.251
200.309
199.341
198.332
197.299
196.249
195.178
194.073
192.92
191.717
190.478
189.226
187.974
186.72
185.455
184.178
182.895
181.615
180.354
179.122
177.933
176.803
175.742
174.75
173.833
173
172.232
171.517
170.851
170.256
169.713
169.245
168.805
168.413
168.04
167.68
167.331
166.99
166.67
166.387
166.121
165.862
165.614
165.382
165.162
164.948
164.742
164.544
164.356
164.179
164.011
163.854
163.706
163.559
163.403
163.227
163.034
162.843
162.686
162.588
162.556
162.576
162.655
162.798
162.983
163.133
163.216
163.153
244.884
224.493
224.338
224.796
225.193
225.359
225.419
225.439
225.419
225.367
225.284
225.161
225.007
224.835
224.654
224.467
224.271
224.065
223.847
223.616
223.371
223.11
222.829
222.519
222.174
221.79
221.363
220.89
220.37
219.802
219.192
218.55
217.887
217.214
216.54
215.868
215.194
214.515
213.825
213.119
212.394
211.647
210.877
210.084
209.271
208.442
207.601
206.756
205.911
205.056
204.18
203.307
202.428
201.523
200.601
199.652
198.662
197.638
196.582
195.496
194.39
193.266
192.115
190.922
189.685
188.41
187.116
185.818
184.529
183.251
181.985
180.734
179.51
178.321
177.172
176.08
175.056
174.104
173.215
172.392
171.66
171.006
170.419
169.865
169.359
168.883
168.458
168.056
167.677
167.324
167.011
166.725
166.443
166.165
165.892
165.631
165.384
165.15
164.928
164.716
164.512
164.319
164.135
163.962
163.8
163.649
163.502
163.349
163.184
163.008
162.833
162.686
162.592
162.56
162.576
162.647
162.779
162.956
163.1
163.178
163.107
244.89
224.495
224.321
224.767
225.168
225.339
225.404
225.427
225.408
225.356
225.273
225.149
224.995
224.823
224.642
224.456
224.26
224.055
223.837
223.605
223.36
223.098
222.815
222.503
222.156
221.769
221.338
220.862
220.339
219.77
219.161
218.521
217.862
217.195
216.528
215.863
215.199
214.529
213.849
213.155
212.441
211.706
210.949
210.17
209.371
208.558
207.736
206.91
206.08
205.236
204.392
203.548
202.671
201.772
200.857
199.921
198.958
197.965
196.942
195.878
194.767
193.619
192.453
191.277
190.084
188.862
187.603
186.313
185.003
183.688
182.382
181.098
179.844
178.629
177.458
176.341
175.291
174.318
173.422
172.599
171.861
171.176
170.54
169.949
169.42
168.936
168.517
168.115
167.742
167.396
167.071
166.756
166.446
166.152
165.872
165.611
165.365
165.133
164.914
164.708
164.51
164.32
164.137
163.966
163.805
163.651
163.5
163.345
163.18
163.002
162.813
162.644
162.529
162.484
162.49
162.553
162.684
162.866
163.015
163.095
163.033
244.894
224.498
224.306
224.741
225.144
225.319
225.388
225.414
225.396
225.344
225.261
225.137
224.982
224.811
224.63
224.444
224.249
224.044
223.827
223.595
223.348
223.085
222.8
222.487
222.137
221.747
221.313
220.834
220.308
219.738
219.129
218.492
217.838
217.177
216.518
215.862
215.206
214.546
213.877
213.193
212.491
211.768
211.023
210.257
209.473
208.677
207.873
207.065
206.249
205.43
204.612
203.766
202.89
202.01
201.11
200.189
199.239
198.252
197.246
196.217