/*--------------------------------*- C++ -*----------------------------------*\
| =========                 |                                                 |
| \\      /  F ield         | OpenFOAM: The Open Source CFD Toolbox           |
|  \\    /   O peration     | Version:  2412                                  |
|   \\  /    A nd           | Website:  www.openfoam.com                      |
|    \\/     M anipulation  |                                                 |
\*---------------------------------------------------------------------------*/
FoamFile
{
    version     2.0;
    format      ascii;
    arch        "LSB;label=32;scalar=64";
    class       volVectorField;
    location    "0.044";
    object      U;
}
// * * * * * * * * * * * * * * * * * * * * * * * * * * * * * * * * * * * * * //

dimensions      [0 1 -1 0 0 0 0];

internalField   nonuniform List<vector> 
9922
(
(169.696 84.8926 0)
(169.485 7.07024 0)
(183.768 0.0999223 0)
(194.451 -0.980873 0)
(198.154 -4.2519 0)
(198.473 -6.0938 0)
(198.924 -7.19785 0)
(199.554 -8.10304 0)
(200.282 -8.80398 0)
(200.843 -9.48144 0)
(201.525 -9.99465 0)
(202.236 -10.4361 0)
(203.001 -10.7791 0)
(203.829 -11.0387 0)
(204.705 -11.2597 0)
(205.624 -11.4523 0)
(206.577 -11.6336 0)
(207.559 -11.804 0)
(208.565 -11.9616 0)
(209.59 -12.1092 0)
(210.641 -12.2414 0)
(211.725 -12.3645 0)
(212.856 -12.4772 0)
(214.048 -12.5848 0)
(215.322 -12.6863 0)
(216.698 -12.7798 0)
(218.192 -12.8579 0)
(219.816 -12.9129 0)
(221.579 -12.9376 0)
(223.489 -12.9309 0)
(225.555 -12.8956 0)
(227.784 -12.8365 0)
(230.177 -12.7628 0)
(232.726 -12.6887 0)
(235.414 -12.6331 0)
(238.224 -12.622 0)
(241.139 -12.6766 0)
(244.156 -12.8136 0)
(247.286 -13.04 0)
(250.556 -13.3538 0)
(254.007 -13.7453 0)
(257.691 -14.1974 0)
(261.663 -14.6824 0)
(265.973 -15.1624 0)
(270.635 -15.5945 0)
(275.602 -15.9418 0)
(280.785 -16.1868 0)
(286.078 -16.341 0)
(291.358 -16.441 0)
(296.523 -16.5305 0)
(301.547 -16.6963 0)
(306.435 -16.9881 0)
(311.171 -17.4075 0)
(315.773 -17.9831 0)
(320.27 -18.747 0)
(324.69 -19.7193 0)
(329.026 -20.9099 0)
(333.21 -22.224 0)
(337.2 -23.6069 0)
(341.151 -25.2113 0)
(345.143 -27.0343 0)
(348.959 -28.9373 0)
(352.537 -30.7266 0)
(355.902 -32.4849 0)
(359.078 -34.2757 0)
(362.094 -36.0371 0)
(364.921 -37.7039 0)
(367.521 -39.2291 0)
(369.877 -40.6011 0)
(371.962 -41.7435 0)
(373.795 -42.6512 0)
(375.471 -43.4441 0)
(377.008 -44.1443 0)
(378.425 -44.6991 0)
(379.752 -45.274 0)
(380.975 -45.6304 0)
(382.139 -46.1322 0)
(383.212 -46.3743 0)
(384.25 -46.8388 0)
(385.225 -47.0223 0)
(386.175 -47.4337 0)
(387.076 -47.5507 0)
(387.933 -47.8924 0)
(388.74 -47.978 0)
(389.483 -48.2857 0)
(390.188 -48.3594 0)
(390.86 -48.6263 0)
(391.524 -48.6696 0)
(392.165 -48.8855 0)
(392.801 -48.9187 0)
(393.404 -49.1184 0)
(393.993 -49.1617 0)
(394.545 -49.3511 0)
(395.078 -49.3955 0)
(395.577 -49.567 0)
(396.062 -49.6046 0)
(396.521 -49.7592 0)
(396.97 -49.7974 0)
(397.397 -49.9377 0)
(397.814 -49.9729 0)
(398.207 -50.0991 0)
(398.589 -50.1396 0)
(398.954 -50.2579 0)
(399.318 -50.3051 0)
(399.677 -50.4085 0)
(400.033 -50.4648 0)
(400.368 -50.5492 0)
(400.66 -50.6127 0)
(400.888 -50.673 0)
(401.03 -50.74 0)
(401.069 -50.7593 0)
(400.989 -50.8243 0)
(400.836 -50.7743 0)
(400.665 -50.8619 0)
(400.61 -50.8159 0)
(400.763 -50.8847 0)
(401.211 -50.9278 0)
(401.928 -51.0116 0)
(402.75 -51.139 0)
(403.553 -51.2944 0)
(403.998 -51.0216 0)
(169.524 84.8417 0)
(169.589 6.88995 0)
(183.903 0.0206346 0)
(194.588 -1.03014 0)
(198.262 -4.26618 0)
(198.555 -6.09258 0)
(198.989 -7.18378 0)
(199.604 -8.08682 0)
(200.322 -8.78687 0)
(200.877 -9.46282 0)
(201.554 -9.97402 0)
(202.265 -10.4125 0)
(203.03 -10.7529 0)
(203.858 -11.0099 0)
(204.735 -11.2286 0)
(205.654 -11.419 0)
(206.607 -11.598 0)
(207.59 -11.7661 0)
(208.596 -11.9214 0)
(209.623 -12.0667 0)
(210.676 -12.196 0)
(211.762 -12.3157 0)
(212.896 -12.4242 0)
(214.092 -12.5265 0)
(215.37 -12.6212 0)
(216.75 -12.7065 0)
(218.25 -12.7751 0)
(219.883 -12.8198 0)
(221.656 -12.8331 0)
(223.579 -12.814 0)
(225.659 -12.7649 0)
(227.903 -12.6906 0)
(230.31 -12.6005 0)
(232.871 -12.5093 0)
(235.57 -12.4363 0)
(238.389 -12.4077 0)
(241.312 -12.4438 0)
(244.338 -12.5604 0)
(247.478 -12.7634 0)
(250.759 -13.0488 0)
(254.225 -13.406 0)
(257.923 -13.8158 0)
(261.907 -14.2492 0)
(266.213 -14.6689 0)
(270.839 -15.0357 0)
(275.743 -15.3186 0)
(280.852 -15.5033 0)
(286.05 -15.6095 0)
(291.221 -15.6715 0)
(296.282 -15.7297 0)
(301.233 -15.8619 0)
(306.065 -16.1306 0)
(310.741 -16.5296 0)
(315.268 -17.0752 0)
(319.663 -17.8012 0)
(323.948 -18.716 0)
(328.197 -19.8252 0)
(332.442 -21.1619 0)
(336.567 -22.6586 0)
(340.49 -24.1552 0)
(344.296 -25.8132 0)
(348.118 -27.6578 0)
(351.85 -29.6255 0)
(355.356 -31.5601 0)
(358.624 -33.35 0)
(361.655 -35.0311 0)
(364.445 -36.6365 0)
(367.014 -38.1453 0)
(369.393 -39.5132 0)
(371.62 -40.7565 0)
(373.633 -41.8522 0)
(375.407 -42.7692 0)
(377.005 -43.5298 0)
(378.464 -44.1302 0)
(379.821 -44.7132 0)
(381.064 -45.0961 0)
(382.245 -45.6096 0)
(383.325 -45.8669 0)
(384.363 -46.3246 0)
(385.331 -46.4905 0)
(386.272 -46.8784 0)
(387.165 -46.9722 0)
(388.011 -47.3033 0)
(388.806 -47.3925 0)
(389.547 -47.712 0)
(390.26 -47.7862 0)
(390.96 -48.0515 0)
(391.657 -48.0867 0)
(392.324 -48.3013 0)
(392.976 -48.3408 0)
(393.587 -48.5524 0)
(394.178 -48.6014 0)
(394.734 -48.7927 0)
(395.275 -48.8312 0)
(395.781 -48.9961 0)
(396.274 -49.025 0)
(396.737 -49.1728 0)
(397.193 -49.2019 0)
(397.624 -49.3357 0)
(398.046 -49.3639 0)
(398.44 -49.4874 0)
(398.825 -49.5228 0)
(399.193 -49.6377 0)
(399.563 -49.6759 0)
(399.929 -49.7735 0)
(400.295 -49.8207 0)
(400.636 -49.9028 0)
(400.936 -49.9607 0)
(401.168 -50.02 0)
(401.312 -50.0792 0)
(401.351 -50.0928 0)
(401.265 -50.1473 0)
(401.097 -50.0907 0)
(400.902 -50.1659 0)
(400.818 -50.1042 0)
(400.931 -50.1605 0)
(401.332 -50.19 0)
(402 -50.2699 0)
(402.803 -50.3751 0)
(403.605 -50.5148 0)
(404.039 -50.236 0)
(169.349 84.7864 0)
(169.693 6.70757 0)
(184.04 -0.0607977 0)
(194.728 -1.08202 0)
(198.372 -4.28238 0)
(198.639 -6.09375 0)
(199.055 -7.17231 0)
(199.655 -8.07257 0)
(200.365 -8.77135 0)
(200.912 -9.44553 0)
(201.586 -9.95439 0)
(202.296 -10.3896 0)
(203.061 -10.7273 0)
(203.89 -10.9816 0)
(204.767 -11.1979 0)
(205.686 -11.3859 0)
(206.64 -11.5626 0)
(207.623 -11.7285 0)
(208.631 -11.8814 0)
(209.659 -12.0242 0)
(210.713 -12.1508 0)
(211.802 -12.267 0)
(212.939 -12.3713 0)
(214.138 -12.4681 0)
(215.421 -12.5562 0)
(216.807 -12.6333 0)
(218.314 -12.6924 0)
(219.955 -12.7266 0)
(221.739 -12.7284 0)
(223.674 -12.6967 0)
(225.768 -12.6336 0)
(228.026 -12.544 0)
(230.447 -12.4377 0)
(233.022 -12.3297 0)
(235.734 -12.2399 0)
(238.564 -12.1944 0)
(241.498 -12.2126 0)
(244.533 -12.3095 0)
(247.685 -12.4893 0)
(250.98 -12.7469 0)
(254.46 -13.0697 0)
(258.173 -13.4374 0)
(262.165 -13.8199 0)
(266.459 -14.181 0)
(271.051 -14.4841 0)
(275.904 -14.7025 0)
(280.934 -14.8295 0)
(286.029 -14.891 0)
(291.082 -14.913 0)
(296.035 -14.941 0)
(300.874 -15.0427 0)
(305.61 -15.2868 0)
(310.224 -15.6701 0)
(314.723 -16.206 0)
(319.115 -16.9228 0)
(323.384 -17.8056 0)
(327.515 -18.8361 0)
(331.59 -20.0597 0)
(335.728 -21.5119 0)
(339.805 -23.1702 0)
(343.679 -24.8113 0)
(347.38 -26.4932 0)
(350.998 -28.3256 0)
(354.566 -30.2572 0)
(357.982 -32.2236 0)
(361.153 -34.1128 0)
(364.063 -35.8187 0)
(366.719 -37.328 0)
(369.123 -38.6621 0)
(371.282 -39.8611 0)
(373.253 -40.9426 0)
(375.068 -41.8883 0)
(376.721 -42.6858 0)
(378.235 -43.3333 0)
(379.634 -43.945 0)
(380.907 -44.3671 0)
(382.094 -44.8936 0)
(383.172 -45.1709 0)
(384.203 -45.6388 0)
(385.172 -45.8125 0)
(386.122 -46.2019 0)
(387.027 -46.3092 0)
(387.881 -46.6624 0)
(388.681 -46.777 0)
(389.436 -47.114 0)
(390.159 -47.1847 0)
(390.866 -47.4342 0)
(391.568 -47.4531 0)
(392.23 -47.6657 0)
(392.875 -47.7076 0)
(393.474 -47.9242 0)
(394.055 -47.9699 0)
(394.605 -48.1559 0)
(395.144 -48.1811 0)
(395.65 -48.336 0)
(396.144 -48.3554 0)
(396.607 -48.4969 0)
(397.064 -48.515 0)
(397.495 -48.6392 0)
(397.918 -48.6586 0)
(398.312 -48.7782 0)
(398.698 -48.8059 0)
(399.068 -48.9129 0)
(399.443 -48.9367 0)
(399.815 -49.0219 0)
(400.19 -49.0549 0)
(400.542 -49.1315 0)
(400.853 -49.1824 0)
(401.097 -49.2393 0)
(401.254 -49.2907 0)
(401.307 -49.3012 0)
(401.237 -49.3522 0)
(401.082 -49.2984 0)
(400.901 -49.3785 0)
(400.834 -49.3196 0)
(400.975 -49.3827 0)
(401.415 -49.4234 0)
(402.12 -49.5206 0)
(402.942 -49.6242 0)
(403.745 -49.7553 0)
(404.183 -49.4843 0)
(169.171 84.727 0)
(169.798 6.52318 0)
(184.18 -0.144425 0)
(194.871 -1.13671 0)
(198.484 -4.2992 0)
(198.724 -6.09309 0)
(199.121 -7.15878 0)
(199.707 -8.05625 0)
(200.406 -8.75391 0)
(200.947 -9.42643 0)
(201.617 -9.93306 0)
(202.325 -10.3651 0)
(203.091 -10.7 0)
(203.92 -10.9518 0)
(204.797 -11.1656 0)
(205.717 -11.3514 0)
(206.67 -11.5258 0)
(207.654 -11.6893 0)
(208.663 -11.8399 0)
(209.693 -11.9802 0)
(210.748 -12.1039 0)
(211.84 -12.2167 0)
(212.979 -12.3166 0)
(214.182 -12.408 0)
(215.469 -12.4892 0)
(216.86 -12.5579 0)
(218.373 -12.6073 0)
(220.022 -12.6306 0)
(221.817 -12.6207 0)
(223.764 -12.5761 0)
(225.872 -12.499 0)
(228.143 -12.3939 0)
(230.578 -12.2711 0)
(233.163 -12.1459 0)
(235.883 -12.0387 0)
(238.72 -11.9754 0)
(241.659 -11.9749 0)
(244.701 -12.0511 0)
(247.858 -12.2068 0)
(251.161 -12.4353 0)
(254.648 -12.7228 0)
(258.366 -13.0476 0)
(262.352 -13.3796 0)
(266.627 -13.684 0)
(271.186 -13.9269 0)
(275.983 -14.0859 0)
(280.914 -14.1621 0)
(285.882 -14.1753 0)
(290.824 -14.1615 0)
(295.67 -14.161 0)
(300.395 -14.234 0)
(305.028 -14.4401 0)
(309.564 -14.7851 0)
(313.997 -15.2775 0)
(318.355 -15.9568 0)
(322.658 -16.8479 0)
(326.877 -17.9291 0)
(330.946 -19.0978 0)
(334.894 -20.4076 0)
(338.891 -21.9499 0)
(342.906 -23.7125 0)
(346.746 -25.5303 0)
(350.389 -27.2767 0)
(353.86 -29.0628 0)
(357.198 -30.9237 0)
(360.413 -32.7938 0)
(363.448 -34.6078 0)
(366.244 -36.2989 0)
(368.784 -37.8236 0)
(371.075 -39.1538 0)
(373.128 -40.2598 0)
(374.968 -41.2046 0)
(376.623 -41.9914 0)
(378.138 -42.6478 0)
(379.54 -43.2617 0)
(380.828 -43.7094 0)
(382.043 -44.2515 0)
(383.157 -44.5549 0)
(384.246 -45.0439 0)
(385.269 -45.2358 0)
(386.261 -45.6507 0)
(387.181 -45.7819 0)
(388.039 -46.1441 0)
(388.843 -46.2482 0)
(389.616 -46.5693 0)
(390.368 -46.6155 0)
(391.088 -46.8573 0)
(391.791 -46.8842 0)
(392.443 -47.1092 0)
(393.077 -47.1489 0)
(393.676 -47.3525 0)
(394.26 -47.3765 0)
(394.808 -47.546 0)
(395.347 -47.5575 0)
(395.851 -47.7067 0)
(396.346 -47.7212 0)
(396.809 -47.8577 0)
(397.266 -47.8674 0)
(397.694 -47.9871 0)
(398.112 -48.0035 0)
(398.5 -48.121 0)
(398.879 -48.14 0)
(399.241 -48.2387 0)
(399.611 -48.2512 0)
(399.976 -48.3316 0)
(400.344 -48.3583 0)
(400.689 -48.4342 0)
(400.993 -48.4783 0)
(401.23 -48.5316 0)
(401.378 -48.5729 0)
(401.414 -48.5789 0)
(401.317 -48.6196 0)
(401.128 -48.5619 0)
(400.91 -48.6361 0)
(400.806 -48.5765 0)
(400.914 -48.6401 0)
(401.33 -48.6747 0)
(402.018 -48.7737 0)
(402.839 -48.8765 0)
(403.646 -48.9992 0)
(404.079 -48.7186 0)
(168.99 84.6625 0)
(169.903 6.33686 0)
(184.321 -0.230216 0)
(195.016 -1.19418 0)
(198.596 -4.318 0)
(198.81 -6.09488 0)
(199.189 -7.14798 0)
(199.76 -8.04197 0)
(200.45 -8.7381 0)
(200.984 -9.40867 0)
(201.65 -9.91272 0)
(202.358 -10.3412 0)
(203.123 -10.6733 0)
(203.953 -10.9223 0)
(204.83 -11.1337 0)
(205.749 -11.3172 0)
(206.703 -11.4891 0)
(207.688 -11.6503 0)
(208.698 -11.7985 0)
(209.729 -11.9362 0)
(210.786 -12.0571 0)
(211.88 -12.1664 0)
(213.023 -12.262 0)
(214.23 -12.3479 0)
(215.521 -12.4221 0)
(216.917 -12.4824 0)
(218.437 -12.5221 0)
(220.094 -12.5344 0)
(221.899 -12.5126 0)
(223.859 -12.4549 0)
(225.98 -12.3635 0)
(228.265 -12.2428 0)
(230.713 -12.1036 0)
(233.31 -11.9617 0)
(236.041 -11.8376 0)
(238.886 -11.7572 0)
(241.833 -11.7386 0)
(244.881 -11.7946 0)
(248.046 -11.9265 0)
(251.357 -12.1261 0)
(254.852 -12.3786 0)
(258.574 -12.661 0)
(262.554 -12.9432 0)
(266.811 -13.1912 0)
(271.331 -13.375 0)
(276.048 -13.4791 0)
(280.881 -13.5066 0)
(285.757 -13.4765 0)
(290.609 -13.4311 0)
(295.358 -13.4026 0)
(300 -13.4431 0)
(304.569 -13.612 0)
(309.039 -13.9295 0)
(313.39 -14.3922 0)
(317.641 -15.0293 0)
(321.829 -15.8525 0)
(326.013 -16.8684 0)
(330.197 -18.1128 0)
(334.249 -19.4676 0)
(338.135 -20.867 0)
(341.978 -22.4717 0)
(345.869 -24.274 0)
(349.666 -26.2093 0)
(353.263 -28.1134 0)
(356.657 -29.9187 0)
(359.846 -31.682 0)
(362.827 -33.4209 0)
(365.615 -35.0844 0)
(368.209 -36.6261 0)
(370.598 -38.0252 0)
(372.773 -39.2667 0)
(374.743 -40.3657 0)
(376.496 -41.2617 0)
(378.083 -41.9944 0)
(379.536 -42.6424 0)
(380.858 -43.1248 0)
(382.092 -43.6745 0)
(383.214 -43.9861 0)
(384.284 -44.4492 0)
(385.268 -44.6048 0)
(386.212 -44.995 0)
(387.094 -45.1181 0)
(387.93 -45.4902 0)
(388.729 -45.5986 0)
(389.514 -45.9095 0)
(390.281 -45.9385 0)
(391.007 -46.181 0)
(391.71 -46.2221 0)
(392.367 -46.4696 0)
(393.009 -46.5164 0)
(393.63 -46.7192 0)
(394.245 -46.7376 0)
(394.825 -46.9062 0)
(395.388 -46.9182 0)
(395.907 -47.0707 0)
(396.413 -47.0843 0)
(396.888 -47.2198 0)
(397.357 -47.2264 0)
(397.793 -47.3471 0)
(398.217 -47.3619 0)
(398.611 -47.4771 0)
(398.998 -47.4879 0)
(399.37 -47.581 0)
(399.75 -47.5874 0)
(400.123 -47.667 0)
(400.502 -47.6892 0)
(400.857 -47.7637 0)
(401.176 -47.8004 0)
(401.428 -47.8518 0)
(401.593 -47.8859 0)
(401.647 -47.8911 0)
(401.569 -47.9246 0)
(401.394 -47.8651 0)
(401.182 -47.9344 0)
(401.079 -47.8693 0)
(401.188 -47.9268 0)
(401.608 -47.9545 0)
(402.306 -48.0489 0)
(403.132 -48.1642 0)
(403.94 -48.2917 0)
(404.375 -48.0127 0)
(168.805 84.5944 0)
(170.009 6.14867 0)
(184.464 -0.318165 0)
(195.164 -1.25458 0)
(198.711 -4.33764 0)
(198.898 -6.09484 0)
(199.258 -7.13519 0)
(199.812 -8.02562 0)
(200.493 -8.72032 0)
(201.02 -9.38904 0)
(201.682 -9.89061 0)
(202.388 -10.3156 0)
(203.154 -10.6449 0)
(203.984 -10.8913 0)
(204.861 -11.1003 0)
(205.781 -11.2814 0)
(206.735 -11.451 0)
(207.72 -11.6098 0)
(208.731 -11.7555 0)
(209.763 -11.8907 0)
(210.822 -12.0087 0)
(211.918 -12.1144 0)
(213.064 -12.2056 0)
(214.275 -12.2858 0)
(215.57 -12.3531 0)
(216.971 -12.4048 0)
(218.497 -12.4344 0)
(220.162 -12.4355 0)
(221.977 -12.4014 0)
(223.949 -12.3305 0)
(226.083 -12.2246 0)
(228.382 -12.0883 0)
(230.841 -11.9325 0)
(233.447 -11.7733 0)
(236.184 -11.6318 0)
(239.033 -11.5337 0)
(241.982 -11.4962 0)
(245.033 -11.5312 0)
(248.2 -11.6384 0)
(251.513 -11.8084 0)
(255.008 -12.0251 0)
(258.725 -12.2652 0)
(262.693 -12.4984 0)
(266.925 -12.6927 0)
(271.392 -12.8226 0)
(276.025 -12.8749 0)
(280.781 -12.8538 0)
(285.592 -12.7841 0)
(290.355 -12.7072 0)
(295.018 -12.6497 0)
(299.597 -12.6603 0)
(304.108 -12.8054 0)
(308.53 -13.109 0)
(312.844 -13.5552 0)
(317.066 -14.1638 0)
(321.196 -14.9393 0)
(325.239 -15.8808 0)
(329.276 -17.0107 0)
(333.39 -18.3681 0)
(337.431 -19.9069 0)
(341.295 -21.4404 0)
(345.029 -23.0757 0)
(348.736 -24.8813 0)
(352.419 -26.8134 0)
(355.962 -28.8109 0)
(359.283 -30.7501 0)
(362.371 -32.536 0)
(365.222 -34.1669 0)
(367.833 -35.6608 0)
(370.212 -37.0398 0)
(372.378 -38.2967 0)
(374.354 -39.4087 0)
(376.148 -40.347 0)
(377.777 -41.1385 0)
(379.265 -41.8315 0)
(380.62 -42.3632 0)
(381.887 -42.9445 0)
(383.042 -43.2911 0)
(384.142 -43.7709 0)
(385.149 -43.9525 0)
(386.128 -44.3619 0)
(387.051 -44.4963 0)
(387.946 -44.8718 0)
(388.799 -44.974 0)
(389.613 -45.2901 0)
(390.386 -45.337 0)
(391.101 -45.6046 0)
(391.783 -45.656 0)
(392.43 -45.9041 0)
(393.067 -45.9356 0)
(393.683 -46.1273 0)
(394.291 -46.1353 0)
(394.854 -46.2981 0)
(395.401 -46.3018 0)
(395.904 -46.4475 0)
(396.397 -46.4492 0)
(396.858 -46.5751 0)
(397.314 -46.5731 0)
(397.738 -46.6918 0)
(398.154 -46.7012 0)
(398.543 -46.8079 0)
(398.93 -46.8047 0)
(399.299 -46.8867 0)
(399.677 -46.885 0)
(400.046 -46.9638 0)
(400.423 -46.981 0)
(400.779 -47.0514 0)
(401.102 -47.0782 0)
(401.357 -47.126 0)
(401.525 -47.1505 0)
(401.578 -47.1538 0)
(401.495 -47.178 0)
(401.307 -47.1192 0)
(401.078 -47.1831 0)
(400.96 -47.1213 0)
(401.063 -47.1702 0)
(401.489 -47.1935 0)
(402.194 -47.2777 0)
(403.023 -47.3875 0)
(403.833 -47.5196 0)
(404.267 -47.242 0)
(168.618 84.5192 0)
(170.116 5.95871 0)
(184.609 -0.408196 0)
(195.315 -1.31792 0)
(198.827 -4.35922 0)
(198.987 -6.09728 0)
(199.329 -7.12522 0)
(199.867 -8.01135 0)
(200.538 -8.70418 0)
(201.058 -9.37078 0)
(201.716 -9.86951 0)
(202.422 -10.2908 0)
(203.187 -10.6171 0)
(204.018 -10.8606 0)
(204.895 -11.0671 0)
(205.815 -11.2459 0)
(206.769 -11.413 0)
(207.754 -11.5694 0)
(208.766 -11.7126 0)
(209.799 -11.8451 0)
(210.861 -11.9602 0)
(211.959 -12.0624 0)
(213.108 -12.1491 0)
(214.323 -12.2237 0)
(215.623 -12.2839 0)
(217.029 -12.327 0)
(218.561 -12.3465 0)
(220.235 -12.3362 0)
(222.06 -12.2896 0)
(224.043 -12.2052 0)
(226.191 -12.0847 0)
(228.502 -11.9326 0)
(230.973 -11.7604 0)
(233.59 -11.5844 0)
(236.335 -11.4261 0)
(239.19 -11.3108 0)
(242.143 -11.255 0)
(245.198 -11.2693 0)
(248.368 -11.3522 0)
(251.683 -11.4928 0)
(255.179 -11.6741 0)
(258.892 -11.8721 0)
(262.846 -12.057 0)
(267.041 -12.1988 0)
(271.447 -12.2756 0)
(276.029 -12.2769 0)
(280.725 -12.2095 0)
(285.431 -12.1048 0)
(290.069 -11.9908 0)
(294.634 -11.9043 0)
(299.108 -11.8836 0)
(303.507 -11.9911 0)
(307.844 -12.2561 0)
(312.11 -12.6691 0)
(316.322 -13.258 0)
(320.49 -14.0451 0)
(324.581 -14.9885 0)
(328.565 -16.0388 0)
(332.485 -17.2622 0)
(336.487 -18.7127 0)
(340.497 -20.3822 0)
(344.351 -22.0987 0)
(348.043 -23.7879 0)
(351.602 -25.5653 0)
(355.079 -27.4496 0)
(358.467 -29.3863 0)
(361.691 -31.3118 0)
(364.682 -33.1425 0)
(367.417 -34.8082 0)
(369.907 -36.2866 0)
(372.166 -37.5753 0)
(374.196 -38.6845 0)
(376.028 -39.6397 0)
(377.698 -40.4665 0)
(379.226 -41.1789 0)
(380.621 -41.7407 0)
(381.926 -42.334 0)
(383.116 -42.7122 0)
(384.257 -43.2208 0)
(385.297 -43.44 0)
(386.283 -43.8474 0)
(387.189 -43.9548 0)
(388.062 -44.3041 0)
(388.899 -44.3824 0)
(389.696 -44.6879 0)
(390.451 -44.7432 0)
(391.144 -45.0279 0)
(391.811 -45.0887 0)
(392.47 -45.3375 0)
(393.136 -45.3552 0)
(393.777 -45.5371 0)
(394.408 -45.5398 0)
(394.987 -45.7039 0)
(395.544 -45.7053 0)
(396.057 -45.8466 0)
(396.561 -45.8387 0)
(397.029 -45.9585 0)
(397.49 -45.9539 0)
(397.919 -46.0712 0)
(398.343 -46.0722 0)
(398.741 -46.1679 0)
(399.14 -46.155 0)
(399.514 -46.234 0)
(399.895 -46.2312 0)
(400.268 -46.3098 0)
(400.654 -46.3204 0)
(401.021 -46.386 0)
(401.359 -46.4056 0)
(401.628 -46.4521 0)
(401.81 -46.4702 0)
(401.876 -46.474 0)
(401.801 -46.4895 0)
(401.615 -46.4248 0)
(401.378 -46.4769 0)
(401.243 -46.4043 0)
(401.327 -46.446 0)
(401.736 -46.4692 0)
(402.433 -46.5541 0)
(403.26 -46.6582 0)
(404.073 -46.7893 0)
(404.508 -46.5082 0)
(168.427 84.4424 0)
(170.223 5.76704 0)
(184.756 -0.500223 0)
(195.468 -1.38434 0)
(198.944 -4.38174 0)
(199.078 -6.09785 0)
(199.4 -7.11336 0)
(199.921 -7.99499 0)
(200.582 -8.68601 0)
(201.095 -9.35058 0)
(201.748 -9.84658 0)
(202.454 -10.2641 0)
(203.219 -10.5875 0)
(204.05 -10.8283 0)
(204.928 -11.0323 0)
(205.847 -11.2088 0)
(206.801 -11.3734 0)
(207.787 -11.5274 0)
(208.799 -11.6681 0)
(209.834 -11.798 0)
(210.897 -11.9101 0)
(211.998 -12.0086 0)
(213.149 -12.0907 0)
(214.368 -12.1596 0)
(215.673 -12.2127 0)
(217.084 -12.2469 0)
(218.622 -12.2561 0)
(220.304 -12.2341 0)
(222.138 -12.1749 0)
(224.134 -12.0767 0)
(226.293 -11.9414 0)
(228.617 -11.7734 0)
(231.099 -11.5846 0)
(233.723 -11.3915 0)
(236.471 -11.216 0)
(239.328 -11.0829 0)
(242.281 -11.0081 0)
(245.334 -11.0012 0)
(248.502 -11.0589 0)
(251.813 -11.1696 0)
(255.303 -11.3154 0)
(259.005 -11.4719 0)
(262.938 -11.6104 0)
(267.096 -11.7036 0)
(271.449 -11.7282 0)
(275.972 -11.6801 0)
(280.568 -11.572 0)
(285.147 -11.4305 0)
(289.69 -11.2872 0)
(294.184 -11.175 0)
(298.591 -11.1276 0)
(302.93 -11.1993 0)
(307.209 -11.4301 0)
(311.399 -11.8085 0)
(315.518 -12.3469 0)
(319.613 -13.0669 0)
(323.724 -13.9836 0)
(327.813 -15.103 0)
(331.788 -16.3109 0)
(335.645 -17.6184 0)
(339.511 -19.142 0)
(343.438 -20.8698 0)
(347.278 -22.7372 0)
(350.948 -24.5854 0)
(354.447 -26.3791 0)
(357.775 -28.1878 0)
(360.935 -30.0203 0)
(363.936 -31.8129 0)
(366.752 -33.5127 0)
(369.351 -35.0841 0)
(371.716 -36.4869 0)
(373.878 -37.7738 0)
(375.806 -38.8409 0)
(377.529 -39.7015 0)
(379.081 -40.4199 0)
(380.495 -41.008 0)
(381.807 -41.6068 0)
(382.999 -42.0061 0)
(384.132 -42.5121 0)
(385.168 -42.7432 0)
(386.144 -43.1545 0)
(387.048 -43.2907 0)
(387.93 -43.6467 0)
(388.773 -43.7336 0)
(389.575 -44.0508 0)
(390.336 -44.1325 0)
(391.049 -44.4366 0)
(391.733 -44.4997 0)
(392.409 -44.7328 0)
(393.092 -44.7296 0)
(393.738 -44.9025 0)
(394.371 -44.9083 0)
(394.951 -45.082 0)
(395.506 -45.0886 0)
(396.017 -45.2323 0)
(396.52 -45.2236 0)
(396.984 -45.3473 0)
(397.441 -45.3474 0)
(397.866 -45.464 0)
(398.287 -45.4532 0)
(398.679 -45.536 0)
(399.069 -45.513 0)
(399.431 -45.5905 0)
(399.803 -45.5839 0)
(400.17 -45.6566 0)
(400.554 -45.6546 0)
(400.922 -45.7085 0)
(401.264 -45.7151 0)
(401.538 -45.7542 0)
(401.727 -45.7605 0)
(401.801 -45.7605 0)
(401.736 -45.764 0)
(401.562 -45.6928 0)
(401.341 -45.731 0)
(401.228 -45.6547 0)
(401.334 -45.6961 0)
(401.764 -45.7226 0)
(402.476 -45.809 0)
(403.311 -45.9118 0)
(404.124 -46.0426 0)
(404.559 -45.7617 0)
(168.235 84.355 0)
(170.332 5.57378 0)
(184.905 -0.594131 0)
(195.624 -1.45383 0)
(199.063 -4.40646 0)
(199.17 -6.10097 0)
(199.473 -7.10442 0)
(199.977 -7.98074 0)
(200.628 -8.66951 0)
(201.134 -9.33176 0)
(201.784 -9.82466 0)
(202.488 -10.2381 0)
(203.254 -10.5584 0)
(204.085 -10.7963 0)
(204.963 -10.9978 0)
(205.882 -11.1719 0)
(206.836 -11.334 0)
(207.822 -11.4854 0)
(208.835 -11.6235 0)
(209.871 -11.7508 0)
(210.936 -11.8599 0)
(212.039 -11.9546 0)
(213.194 -12.0321 0)
(214.417 -12.0952 0)
(215.726 -12.1412 0)
(217.143 -12.1666 0)
(218.688 -12.1653 0)
(220.377 -12.1314 0)
(222.221 -12.0592 0)
(224.228 -11.9471 0)
(226.4 -11.7967 0)
(228.736 -11.6129 0)
(231.228 -11.4077 0)
(233.861 -11.1979 0)
(236.616 -11.0057 0)
(239.475 -10.8555 0)
(242.43 -10.7622 0)
(245.482 -10.7344 0)
(248.649 -10.7674 0)
(251.959 -10.8485 0)
(255.443 -10.9589 0)
(259.131 -11.0742 0)
(263.037 -11.1665 0)
(267.155 -11.2099 0)
(271.468 -11.1867 0)
(275.913 -11.0944 0)
(280.401 -10.9476 0)
(284.898 -10.7707 0)
(289.393 -10.5949 0)
(293.826 -10.455 0)
(298.163 -10.38 0)
(302.443 -10.4203 0)
(306.673 -10.6274 0)
(310.823 -10.9847 0)
(314.892 -11.4891 0)
(318.896 -12.1591 0)
(322.857 -12.9997 0)
(326.861 -14.0227 0)
(330.928 -15.2696 0)
(334.914 -16.6682 0)
(338.758 -18.0913 0)
(342.516 -19.6564 0)
(346.285 -21.4012 0)
(350.051 -23.2945 0)
(353.695 -25.2782 0)
(357.148 -27.227 0)
(360.396 -29.0609 0)
(363.432 -30.7893 0)
(366.245 -32.4265 0)
(368.836 -33.9701 0)
(371.215 -35.4018 0)
(373.396 -36.6969 0)
(375.375 -37.7994 0)
(377.154 -38.7497 0)
(378.766 -39.5635 0)
(380.234 -40.2217 0)
(381.597 -40.8636 0)
(382.842 -41.3029 0)
(384.04 -41.8295 0)
(385.14 -42.0961 0)
(386.202 -42.5423 0)
(387.175 -42.7307 0)
(388.096 -43.1085 0)
(388.948 -43.2024 0)
(389.753 -43.5084 0)
(390.516 -43.582 0)
(391.249 -43.8627 0)
(391.967 -43.8935 0)
(392.664 -44.1065 0)
(393.354 -44.1154 0)
(394 -44.315 0)
(394.627 -44.3481 0)
(395.206 -44.5348 0)
(395.759 -44.5433 0)
(396.271 -44.6874 0)
(396.772 -44.6821 0)
(397.237 -44.8097 0)
(397.696 -44.8036 0)
(398.126 -44.9069 0)
(398.552 -44.8808 0)
(398.941 -44.9573 0)
(399.326 -44.9333 0)
(399.681 -45.0073 0)
(400.048 -44.9866 0)
(400.415 -45.0421 0)
(400.802 -45.025 0)
(401.171 -45.0718 0)
(401.514 -45.0729 0)
(401.785 -45.1112 0)
(401.969 -45.1119 0)
(402.031 -45.1112 0)
(401.948 -45.1024 0)
(401.741 -45.0308 0)
(401.476 -45.0519 0)
(401.317 -44.973 0)
(401.391 -45.0021 0)
(401.8 -45.0188 0)
(402.5 -45.0956 0)
(403.331 -45.1864 0)
(404.146 -45.3095 0)
(404.58 -45.0282 0)
(168.037 84.27 0)
(170.441 5.37895 0)
(185.056 -0.689739 0)
(195.782 -1.52656 0)
(199.183 -4.43219 0)
(199.264 -6.10216 0)
(199.546 -7.09377 0)
(200.032 -7.96434 0)
(200.673 -8.65088 0)
(201.172 -9.31093 0)
(201.818 -9.80085 0)
(202.521 -10.2103 0)
(203.287 -10.5275 0)
(204.119 -10.7627 0)
(204.996 -10.9617 0)
(205.915 -11.1334 0)
(206.869 -11.2929 0)
(207.856 -11.4418 0)
(208.869 -11.5773 0)
(209.907 -11.7019 0)
(210.973 -11.8079 0)
(212.078 -11.8989 0)
(213.237 -11.9717 0)
(214.463 -12.0289 0)
(215.777 -12.0675 0)
(217.199 -12.084 0)
(218.75 -12.072 0)
(220.446 -12.026 0)
(222.3 -11.9406 0)
(224.318 -11.8143 0)
(226.502 -11.6488 0)
(228.849 -11.4489 0)
(231.35 -11.2271 0)
(233.989 -11.0003 0)
(236.745 -10.7911 0)
(239.604 -10.6233 0)
(242.554 -10.511 0)
(245.602 -10.4618 0)
(248.763 -10.4697 0)
(252.064 -10.5209 0)
(255.537 -10.5963 0)
(259.209 -10.6718 0)
(263.088 -10.7204 0)
(267.162 -10.7157 0)
(271.412 -10.6466 0)
(275.766 -10.5133 0)
(280.182 -10.3285 0)
(284.637 -10.1133 0)
(289.061 -9.9088 0)
(293.397 -9.73995 0)
(297.658 -9.63868 0)
(301.851 -9.64764 0)
(306.006 -9.82 0)
(310.108 -10.1506 0)
(314.167 -10.6393 0)
(318.197 -11.3045 0)
(322.172 -12.1133 0)
(326.068 -13.0471 0)
(329.955 -14.1676 0)
(333.945 -15.5088 0)
(337.933 -17.0625 0)
(341.79 -18.6659 0)
(345.515 -20.2807 0)
(349.142 -22.0147 0)
(352.728 -23.8804 0)
(356.258 -25.8387 0)
(359.647 -27.8306 0)
(362.82 -29.7611 0)
(365.752 -31.5448 0)
(368.445 -33.1549 0)
(370.913 -34.6181 0)
(373.14 -35.8822 0)
(375.162 -37.0109 0)
(377.021 -38.0524 0)
(378.716 -38.9346 0)
(380.234 -39.6272 0)
(381.625 -40.278 0)
(382.888 -40.7237 0)
(384.089 -41.2403 0)
(385.175 -41.5034 0)
(386.202 -41.9269 0)
(387.136 -42.0935 0)
(388.016 -42.4424 0)
(388.845 -42.5378 0)
(389.643 -42.8482 0)
(390.408 -42.9334 0)
(391.155 -43.2033 0)
(391.896 -43.2233 0)
(392.609 -43.4307 0)
(393.301 -43.4535 0)
(393.941 -43.6662 0)
(394.555 -43.7071 0)
(395.132 -43.8958 0)
(395.694 -43.9034 0)
(396.22 -44.0441 0)
(396.73 -44.037 0)
(397.194 -44.1647 0)
(397.648 -44.1497 0)
(398.072 -44.2397 0)
(398.496 -44.2039 0)
(398.881 -44.2839 0)
(399.262 -44.2703 0)
(399.619 -44.3557 0)
(399.991 -44.3377 0)
(400.367 -44.3885 0)
(400.769 -44.3639 0)
(401.152 -44.4077 0)
(401.512 -44.4038 0)
(401.803 -44.4396 0)
(402.011 -44.4321 0)
(402.101 -44.4314 0)
(402.051 -44.4131 0)
(401.874 -44.3542 0)
(401.635 -44.3752 0)
(401.493 -44.31 0)
(401.577 -44.3348 0)
(401.994 -44.3521 0)
(402.705 -44.4253 0)
(403.546 -44.5026 0)
(404.356 -44.6147 0)
(404.782 -44.3356 0)
(167.842 84.1682 0)
(170.552 5.18274 0)
(185.209 -0.786944 0)
(195.943 -1.60251 0)
(199.304 -4.46025 0)
(199.36 -6.10597 0)
(199.621 -7.08621 0)
(200.088 -7.95007 0)
(200.72 -8.63395 0)
(201.212 -9.29151 0)
(201.854 -9.77806 0)
(202.557 -10.1832 0)
(203.323 -10.4971 0)
(204.155 -10.7293 0)
(205.033 -10.9258 0)
(205.951 -11.095 0)
(206.905 -11.2519 0)
(207.891 -11.3982 0)
(208.906 -11.531 0)
(209.944 -11.6529 0)
(211.012 -11.7558 0)
(212.12 -11.8429 0)
(213.282 -11.9109 0)
(214.513 -11.9622 0)
(215.832 -11.9935 0)
(217.259 -12.0009 0)
(218.816 -11.9781 0)
(220.52 -11.9198 0)
(222.383 -11.8209 0)
(224.412 -11.6801 0)
(226.607 -11.4992 0)
(228.966 -11.2833 0)
(231.476 -11.0451 0)
(234.122 -10.8019 0)
(236.882 -10.5762 0)
(239.741 -10.3914 0)
(242.69 -10.2607 0)
(245.734 -10.1904 0)
(248.89 -10.1734 0)
(252.184 -10.1949 0)
(255.645 -10.2354 0)
(259.295 -10.2707 0)
(263.14 -10.2752 0)
(267.175 -10.227 0)
(271.361 -10.1137 0)
(275.653 -9.93805 0)
(280.015 -9.71325 0)
(284.375 -9.46843 0)
(288.666 -9.23099 0)
(292.894 -9.03462 0)
(297.071 -8.90719 0)
(301.187 -8.88528 0)
(305.275 -9.01789 0)
(309.314 -9.31082 0)
(313.309 -9.74812 0)
(317.304 -10.3581 0)
(321.319 -11.1624 0)
(325.311 -12.1444 0)
(329.21 -13.2122 0)
(333.031 -14.4149 0)
(336.899 -15.8345 0)
(340.837 -17.4624 0)
(344.705 -19.2365 0)
(348.43 -21.0087 0)
(352.012 -22.7629 0)
(355.455 -24.5767 0)
(358.773 -26.4579 0)
(361.968 -28.3421 0)
(364.999 -30.176 0)
(367.816 -31.9091 0)
(370.39 -33.4858 0)
(372.746 -34.9336 0)
(374.877 -36.2154 0)
(376.774 -37.2404 0)
(378.443 -38.0561 0)
(379.942 -38.7465 0)
(381.344 -39.4359 0)
(382.622 -39.9099 0)
(383.843 -40.4689 0)
(384.945 -40.7695 0)
(386.017 -41.2378 0)
(387.008 -41.4292 0)
(387.972 -41.7949 0)
(388.874 -41.9072 0)
(389.728 -42.229 0)
(390.534 -42.3276 0)
(391.301 -42.6128 0)
(392.034 -42.6568 0)
(392.722 -42.8766 0)
(393.384 -42.8996 0)
(394.002 -43.1001 0)
(394.597 -43.1224 0)
(395.157 -43.2964 0)
(395.71 -43.294 0)
(396.227 -43.4319 0)
(396.734 -43.4224 0)
(397.207 -43.5441 0)
(397.681 -43.5164 0)
(398.123 -43.5973 0)
(398.558 -43.5609 0)
(398.949 -43.6441 0)
(399.334 -43.6302 0)
(399.697 -43.7126 0)
(400.074 -43.6903 0)
(400.45 -43.7423 0)
(400.847 -43.7186 0)
(401.224 -43.7658 0)
(401.58 -43.7578 0)
(401.865 -43.7916 0)
(402.067 -43.7763 0)
(402.145 -43.7767 0)
(402.08 -43.7463 0)
(401.881 -43.6969 0)
(401.622 -43.7019 0)
(401.459 -43.6511 0)
(401.532 -43.6658 0)
(401.939 -43.684 0)
(402.639 -43.7621 0)
(403.487 -43.8321 0)
(404.322 -43.9302 0)
(404.759 -43.6348 0)
(167.636 84.0757 0)
(170.663 4.98509 0)
(185.363 -0.885476 0)
(196.106 -1.68187 0)
(199.426 -4.48933 0)
(199.458 -6.10771 0)
(199.696 -7.07719 0)
(200.144 -7.93363 0)
(200.766 -8.61482 0)
(201.252 -9.27002 0)
(201.889 -9.75332 0)
(202.592 -10.1541 0)
(203.358 -10.4649 0)
(204.19 -10.6942 0)
(205.067 -10.8882 0)
(205.985 -11.055 0)
(206.939 -11.2093 0)
(207.926 -11.353 0)
(208.941 -11.4831 0)
(209.98 -11.6021 0)
(211.049 -11.7018 0)
(212.16 -11.785 0)
(213.325 -11.8481 0)
(214.56 -11.8934 0)
(215.884 -11.9173 0)
(217.317 -11.9155 0)
(218.88 -11.8818 0)
(220.591 -11.811 0)
(222.463 -11.6983 0)
(224.502 -11.5428 0)
(226.709 -11.3464 0)
(229.077 -11.1143 0)
(231.595 -10.8595 0)
(234.244 -10.5996 0)
(237.004 -10.3572 0)
(239.859 -10.155 0)
(242.801 -10.0055 0)
(245.837 -9.91384 0)
(248.983 -9.87178 0)
(252.265 -9.86369 0)
(255.711 -9.87012 0)
(259.339 -9.86731 0)
(263.145 -9.82915 0)
(267.129 -9.73801 0)
(271.256 -9.58242 0)
(275.488 -9.36573 0)
(279.761 -9.10611 0)
(284.005 -8.8314 0)
(288.213 -8.56996 0)
(292.414 -8.34459 0)
(296.571 -8.18561 0)
(300.658 -8.1325 0)
(304.697 -8.23653 0)
(308.684 -8.50129 0)
(312.61 -8.90325 0)
(316.5 -9.46358 0)
(320.389 -10.1914 0)
(324.337 -11.0961 0)
(328.336 -12.2154 0)
(332.265 -13.469 0)
(336.083 -14.7769 0)
(339.849 -16.2483 0)
(343.654 -17.9047 0)
(347.477 -19.7263 0)
(351.201 -21.6596 0)
(354.762 -23.5829 0)
(358.148 -25.4308 0)
(361.349 -27.2231 0)
(364.353 -28.9744 0)