/*--------------------------------*- C++ -*----------------------------------*\
| =========                 |                                                 |
| \\      /  F ield         | OpenFOAM: The Open Source CFD Toolbox           |
|  \\    /   O peration     | Version:  2412                                  |
|   \\  /    A nd           | Website:  www.openfoam.com                      |
|    \\/     M anipulation  |                                                 |
\*---------------------------------------------------------------------------*/
FoamFile
{
    version     2.0;
    format      ascii;
    arch        "LSB;label=32;scalar=64";
    class       volScalarField;
    location    "0.067";
    object      p;
}
// * * * * * * * * * * * * * * * * * * * * * * * * * * * * * * * * * * * * * //

dimensions      [1 -1 -2 0 0 0 0];

internalField   nonuniform List<scalar> 
78650
(
2835.2
2810.63
2812.97
2814.68
2821.08
2830.41
2840.39
2850.09
2858.95
2865.48
2869.15
2870.26
2870
2868.9
2867.09
2864.63
2860.99
2855.73
2849.12
2841.84
2834.53
2827.48
2820.85
2814.54
2808.49
2802.69
2797.15
2791.9
2786.95
2782.32
2777.99
2773.9
2770.01
2766.34
2762.9
2759.68
2756.67
2753.84
2751.17
2748.63
2746.2
2743.86
2741.61
2739.43
2737.34
2735.35
2733.46
2731.68
2730.02
2728.48
2727.06
2725.75
2724.54
2723.42
2722.39
2721.42
2720.51
2719.62
2718.74
2717.84
2716.92
2715.95
2714.91
2713.77
2712.5
2711.07
2709.4
2707.47
2705.23
2702.65
2699.67
2696.23
2692.24
2687.61
2682.3
2676.23
2669.33
2661.5
2652.6
2642.48
2631.01
2618.06
2603.54
2587.34
2569.31
2549.29
2527.11
2502.59
2475.61
2445.88
2413.45
2378
2339.9
2298.44
2254.15
2206.82
2156.8
2103.76
2046.79
1987.55
1926.1
1866.09
1804.81
1741.51
1680.82
1622.82
1565.84
1508.49
1452.73
1399.48
1348.88
1304.09
1263.39
1226.14
1192.7
1161.66
1133.71
1107.7
1085.5
1067.01
1028.33
2831.08
2808.35
2806.45
2802.34
2804.95
2813.92
2826.65
2839.99
2852.06
2861.47
2867.08
2869.43
2869.79
2869.06
2867.39
2864.98
2861.43
2856.36
2849.93
2842.71
2835.37
2828.27
2821.6
2815.32
2809.36
2803.68
2798.27
2793.12
2788.25
2783.71
2779.49
2775.53
2771.79
2768.26
2764.97
2761.91
2759.05
2756.39
2753.89
2751.52
2749.28
2747.14
2745.09
2743.13
2741.26
2739.48
2737.81
2736.25
2734.82
2733.51
2732.32
2731.25
2730.29
2729.43
2728.66
2727.98
2727.36
2726.78
2726.23
2725.68
2725.13
2724.54
2723.91
2723.21
2722.41
2721.48
2720.36
2719.02
2717.4
2715.49
2713.24
2710.59
2707.46
2703.77
2699.46
2694.47
2688.73
2682.17
2674.66
2666.06
2656.22
2645.05
2632.43
2618.25
2602.36
2584.58
2564.75
2542.71
2518.36
2491.45
2462
2429.6
2394.44
2355.99
2314.79
2270.4
2222.92
2172.26
2118.55
2061.82
2003.2
1942.23
1880.25
1817.39
1753.19
1690.33
1629.95
1571.51
1514.83
1460.83
1408.63
1359.63
1315.24
1274.47
1236.9
1202.05
1171.4
1142.41
1115.96
1092.59
1047.68
2828.21
2808.02
2805.7
2797.9
2793.86
2798.11
2809.74
2825.76
2841.84
2854.97
2863.67
2868.06
2869.33
2868.92
2867.59
2865.4
2861.96
2857.07
2850.8
2843.64
2836.27
2829.1
2822.38
2816.09
2810.2
2804.65
2799.38
2794.33
2789.56
2785.13
2781.02
2777.17
2773.57
2770.2
2767.08
2764.17
2761.48
2758.98
2756.65
2754.47
2752.41
2750.46
2748.61
2746.86
2745.21
2743.65
2742.2
2740.87
2739.67
2738.59
2737.64
2736.81
2736.11
2735.51
2735.01
2734.62
2734.29
2734.03
2733.81
2733.61
2733.42
2733.22
2733
2732.73
2732.39
2731.96
2731.37
2730.6
2729.61
2728.35
2726.8
2724.92
2722.62
2719.82
2716.48
2712.52
2707.89
2702.52
2696.3
2689.11
2680.8
2671.27
2660.38
2648.06
2634.14
2618.49
2600.98
2581.43
2559.7
2535.55
2508.93
2479.48
2447.29
2411.86
2373.52
2331.86
2287.24
2239.72
2188.9
2134.76
2077.39
2016.87
1955.08
1893.38
1830.8
1766.56
1701.8
1638.23
1576.14
1515.17
1457.98
1402.26
1350.72
1304.65
1262.72
1224.6
1191.39
1161.05
1134.95
1112.76
1068.81
2825.46
2808.18
2806.38
2798.04
2789.21
2786.94
2792.92
2807.31
2825.95
2843.92
2857.25
2864.88
2868.09
2868.4
2867.68
2865.8
2862.5
2857.78
2851.66
2844.6
2837.24
2830.03
2823.24
2816.91
2811.06
2805.62
2800.49
2795.58
2790.93
2786.61
2782.61
2778.88
2775.41
2772.2
2769.23
2766.49
2763.97
2761.65
2759.49
2757.49
2755.62
2753.86
2752.21
2750.67
2749.22
2747.89
2746.66
2745.55
2744.57
2743.73
2743.01
2742.43
2741.97
2741.63
2741.4
2741.29
2741.26
2741.3
2741.39
2741.53
2741.7
2741.87
2742.04
2742.19
2742.3
2742.34
2742.27
2742.05
2741.65
2741.04
2740.15
2739
2737.49
2735.56
2733.15
2730.19
2726.63
2722.42
2717.46
2711.66
2704.85
2696.94
2687.81
2677.36
2665.48
2652.02
2636.81
2619.66
2600.43
2578.9
2555
2528.41
2499.14
2466.82
2431.69
2393.29
2351.73
2306.85
2258.51
2207.16
2152.62
2094.89
2034.37
1971.11
1907.44
1842.67
1778.19
1712.74
1650.61
1588.07
1528.49
1470.2
1411.87
1358.44
1307.88
1262.44
1221.9
1184.12
1151.61
1123.95
1067.98
2822.37
2808.43
2807.59
2800.13
2789.04
2781.58
2781.05
2788.94
2805.35
2826.23
2845.32
2858.17
2864.55
2866.92
2867.17
2865.83
2862.82
2858.4
2852.49
2845.59
2838.28
2831.04
2824.16
2817.77
2811.94
2806.59
2801.57
2796.8
2792.31
2788.14
2784.26
2780.64
2777.31
2774.24
2771.43
2768.87
2766.53
2764.39
2762.43
2760.61
2758.92
2757.36
2755.91
2754.57
2753.34
2752.22
2751.22
2750.34
2749.59
2748.97
2748.5
2748.16
2747.95
2747.88
2747.92
2748.08
2748.34
2748.68
2749.09
2749.57
2750.08
2750.63
2751.19
2751.75
2752.29
2752.79
2753.23
2753.54
2753.7
2753.71
2753.48
2753.04
2752.31
2751.19
2749.67
2747.67
2745.13
2742.02
2738.25
2733.73
2728.33
2721.94
2714.43
2705.73
2695.71
2684.23
2671.14
2656.28
2639.52
2620.68
2599.66
2576.15
2550.13
2521.16
2489.29
2454.05
2415.69
2374.09
2329.09
2281.01
2229.13
2173.84
2115.25
2052.7
1989.05
1922.21
1856.57
1788.16
1720.72
1655.67
1591
1531.29
1471.57
1416.23
1363.42
1315.3
1273.31
1233.38
1196.66
1164.05
1099.8
2818.85
2808.6
2808.74
2803.19
2791.34
2780.99
2775.71
2776.88
2785.46
2802.97
2825.21
2844.77
2857.22
2863.15
2865.26
2864.84
2862.68
2858.65
2853.12
2846.48
2839.34
2832.12
2825.2
2818.75
2812.91
2807.61
2802.68
2798.05
2793.74
2789.74
2785.99
2782.5
2779.28
2776.35
2773.7
2771.31
2769.16
2767.22
2765.45
2763.83
2762.34
2760.97
2759.72
2758.58
2757.56
2756.65
2755.87
2755.21
2754.69
2754.31
2754.07
2753.99
2754.03
2754.22
2754.53
2754.95
2755.49
2756.14
2756.87
2757.67
2758.52
2759.43
2760.37
2761.33
2762.3
2763.25
2764.17
2765
2765.72
2766.3
2766.71
2766.92
2766.93
2766.61
2765.96
2764.89
2763.34
2761.29
2758.66
2755.4
2751.37
2746.47
2740.58
2733.61
2725.45
2715.98
2705.07
2692.54
2678.26
2662.04
2643.72
2623.01
2599.83
2573.83
2545.1
2513.22
2478.28
2439.94
2398.15
2353.12
2304.16
2251.97
2196.14
2137.06
2075.22
2010.64
1943.29
1875.96
1804.84
1736.49
1665.8
1598.12
1531.75
1467.01
1406.66
1350.6
1302.17
1258.45
1221.28
1191.11
1129.55
2814.82
2808.5
2809.58
2806.3
2795.7
2783.27
2775.32
2771.91
2773.66
2782.32
2800.11
2822.71
2842.07
2854.15
2860.22
2862.06
2861.35
2858.37
2853.34
2847.14
2840.31
2833.26
2826.32
2819.8
2813.9
2808.59
2803.73
2799.23
2795.12
2791.33
2787.76
2784.41
2781.32
2778.53
2776.02
2773.8
2771.84
2770.1
2768.54
2767.13
2765.85
2764.69
2763.64
2762.71
2761.9
2761.21
2760.64
2760.21
2759.91
2759.77
2759.77
2759.94
2760.24
2760.67
2761.24
2761.95
2762.78
2763.72
2764.76
2765.89
2767.08
2768.34
2769.66
2771.01
2772.39
2773.79
2775.17
2776.51
2777.77
2778.93
2779.95
2780.81
2781.49
2781.94
2782.1
2781.92
2781.34
2780.32
2778.75
2776.66
2773.9
2770.39
2765.99
2760.63
2754.19
2746.59
2737.67
2727.29
2715.3
2701.52
2685.83
2667.99
2647.93
2625.31
2600.07
2571.72
2540.36
2505.62
2467.46
2425.81
2380.15
2331.27
2278.15
2221.54
2161.15
2098.13
2030.21
1963.4
1892.65
1822.62
1754.2
1684.16
1617.81
1550.06
1484.68
1422.55
1363.04
1308.68
1259.5
1217.91
1137.43
2809.99
2808.06
2810.33
2808.96
2800.87
2788.07
2777.41
2771.72
2769.75
2771.33
2779.67
2796.83
2818.49
2837.37
2849.9
2856.28
2858.18
2856.97
2852.99
2847.22
2840.72
2834.11
2827.41
2821.02
2815.11
2809.74
2804.87
2800.45
2796.51
2792.92
2789.56
2786.39
2783.45
2780.79
2778.42
2776.35
2774.57
2773.03
2771.69
2770.5
2769.44
2768.5
2767.67
2766.95
2766.34
2765.86
2765.51
2765.29
2765.23
2765.31
2765.56
2765.96
2766.5
2767.2
2768.04
2769.02
2770.13
2771.37
2772.71
2774.15
2775.68
2777.29
2778.97
2780.71
2782.49
2784.31
2786.14
2787.97
2789.75
2791.45
2793.06
2794.56
2795.92
2797.09
2798.02
2798.66
2798.98
2798.96
2798.46
2797.51
2795.98
2793.81
2790.88
2787.1
2782.37
2776.61
2769.69
2761.44
2751.74
2740.43
2727.37
2712.34
2695.19
2675.58
2653.47
2628.49
2600.64
2569.48
2534.97
2496.91
2454.98
2409.69
2360.18
2307.37
2250.15
2188.89
2125.15
2055.44
1986.23
1910.44
1838.91
1762.67
1690.38
1618.93
1549.03
1485.58
1424.81
1370.76
1323.05
1280.22
1194.92
2804.61
2807.63
2811.22
2810.86
2805.52
2794.12
2781.99
2773.51
2769.63
2768.88
2770.44
2778.07
2793.53
2812.97
2830.82
2843.18
2849.76
2851.56
2850.29
2846.33
2840.59
2834.33
2827.95
2821.87
2816.14
2810.86
2806.01
2801.65
2797.81
2794.39
2791.25
2788.3
2785.57
2783.08
2780.87
2778.95
2777.34
2776
2774.87
2773.91
2773.08
2772.37
2771.77
2771.27
2770.88
2770.61
2770.48
2770.47
2770.64
2770.95
2771.42
2772.06
2772.86
2773.82
2774.92
2776.17
2777.57
2779.09
2780.74
2782.5
2784.36
2786.31
2788.35
2790.46
2792.64
2794.87
2797.14
2799.44
2801.72
2803.97
2806.14
2808.24
2810.24
2812.11
2813.8
2815.26
2816.43
2817.28
2817.79
2817.92
2817.54
2816.64
2815.08
2812.75
2809.59
2805.52
2800.42
2794.16
2786.61
2777.6
2767.02
2754.65
2740.37
2723.89
2705.14
2683.68
2659.47
2632.05
2601.43
2567.32
2529.52
2488.14
2442.37
2393.06
2339.11
2281.38
2219.14
2153.01
2085.66
2011.88
1936.84
1860.04
1782.21
1705.75
1628.21
1552.54
1479.13
1412.39
1355.45
1308.93
1213.96
2800.14
2806.65
2811.28
2812.03
2809.13
2799.87
2787.83
2777.57
2771.27
2769.01
2769.13
2771.17
2777.9
2790.42
2806.7
2822.96
2835.49
2842.12
2843.79
2842.58
2839.04
2833.76
2827.94
2822.07
2816.68
2811.73
2807.14
2802.95
2799.28
2795.98
2792.99
2790.22
2787.69
2785.4
2783.35
2781.6
2780.15
2778.99
2778.07
2777.34
2776.76
2776.29
2775.92
2775.64
2775.49
2775.43
2775.52
2775.74
2776.11
2776.64
2777.34
2778.22
2779.26
2780.47
2781.84
2783.35
2785.02
2786.84
2788.78
2790.85
2793.03
2795.32
2797.7
2800.18
2802.73
2805.36
2808.06
2810.81
2813.57
2816.33
2819.05
2821.72
2824.34
2826.87
2829.27
2831.49
2833.5
2835.26
2836.71
2837.81
2838.54
2838.84
2838.61
2837.73
2836.14
2833.71
2830.41
2826.08
2820.63
2813.87
2805.69
2795.91
2784.39
2770.85
2755.17
2736.99
2716.29
2692.64
2665.99
2635.94
2602.29
2564.93
2523.25
2477.68
2427.14
2372.91
2314.1
2251.25
2183.86
2113.97
2037.66
1962.49
1884.52
1808.24
1729.96
1655.4
1577.72
1506.98
1438.56
1378.41
1261.46
2796.75
2804.63
2810.71
2812.95
2811.46
2804.58
2793.59
2783.1
2775.12
2770.73
2769.65
2770.45
2773.41
2778.93
2787.85
2800.31
2814.09
2825.49
2832.37
2834.84
2834.36
2831.38
2826.84
2821.76
2816.68
2811.89
2807.55
2803.75
2800.42
2797.39
2794.63
2792.07
2789.74
2787.64
2785.77
2784.2
2782.94
2781.98
2781.26
2780.76
2780.43
2780.2
2780.08
2780.05
2780.12
2780.3
2780.61
2781.04
2781.63
2782.38
2783.31
2784.41
2785.7
2787.15
2788.78
2790.56
2792.5
2794.6
2796.84
2799.21
2801.71
2804.32
2807.05
2809.88
2812.81
2815.83
2818.94
2822.12
2825.35
2828.6
2831.84
2835.07
2838.27
2841.43
2844.51
2847.47
2850.26
2852.85
2855.2
2857.29
2859.06
2860.43
2861.35
2861.78
2861.66
2860.78
2859.16
2856.59
2853.07
2848.4
2842.5
2835.19
2826.34
2815.71
2803.17
2788.38
2771.26
2751.36
2728.62
2702.6
2673.11
2639.88
2602.5
2561.29
2515.36
2465.42
2410.36
2351.3
2287.11
2217.5
2144.05
2065.36
1983.6
1900.66
1815.68
1732.94
1651.21
1575.29
1507.44
1449.54
1333.74
2794.14
2801.96
2809.74
2813.3
2812.84
2808.45
2798.94
2788.89
2780.36
2774.31
2771.53
2771.36
2773.05
2776.71
2780.78
2785.96
2794.45
2804.68
2814.14
2820.83
2823.98
2824.73
2823.03
2819.81
2815.63
2811.38
2807.4
2803.97
2801.01
2798.4
2796.07
2793.92
2791.87
2789.94
2788.2
2786.79
2785.7
2784.93
2784.42
2784.15
2784.08
2784.09
2784.23
2784.45
2784.76
2785.17
2785.7
2786.36
2787.17
2788.14
2789.28
2790.61
2792.13
2793.82
2795.69
2797.73
2799.94
2802.31
2804.83
2807.5
2810.3
2813.23
2816.29
2819.47
2822.76
2826.15
2829.65
2833.24
2836.91
2840.63
2844.38
2848.14
2851.9
2855.65
2859.37
2863.02
2866.55
2869.94
2873.15
2876.15
2878.89
2881.36
2883.46
2885.11
2886.25
2886.85
2886.91
2886.08
2884.47
2881.81
2878.08
2873.1
2866.77
2858.84
2849.19
2837.49
2823.69
2807.36
2788.47
2766.52
2741.35
2712.61
2680
2643.54
2602.51
2557.34
2506.84
2451.84
2391.24
2326.08
2255.93
2181.06
2103.18
2019.19
1933.96
1841.08
1754.85
1665.67
1582.11
1509.87
1369.43
2792.28
2799.07
2808.08
2813.3
2813.77
2811.58
2803.76
2794.25
2785.82
2779.11
2774.91
2773.56
2774.15
2776.7
2780.06
2782.56
2784.76
2789.15
2794.85
2801.77
2808.45
2813.02
2814.77
2814.22
2812.25
2809.77
2806.8
2803.77
2800.98
2798.57
2796.65
2795.13
2793.64
2792.07
2790.57
2789.32
2788.39
2787.79
2787.5
2787.46
2787.64
2787.93
2788.31
2788.78
2789.34
2790
2790.77
2791.66
2792.69
2793.88
2795.24
2796.79
2798.53
2800.46
2802.58
2804.87
2807.33
2809.97
2812.77
2815.73
2818.83
2822.07
2825.45
2828.96
2832.6
2836.36
2840.23
2844.22
2848.32
2852.49
2856.72
2860.98
2865.27
2869.59
2873.91
2878.21
2882.45
2886.59
2890.6
2894.45
2898.12
2901.56
2904.72
2907.55
2909.97
2911.89
2913.27
2914.06
2914.22
2913.45
2911.78
2909
2905.04
2899.72
2892.9
2884.31
2873.84
2861.1
2845.99
2828.04
2807.14
2782.89
2755.03
2723.34
2687.16
2646.6
2600.6
2549.93
2493.39
2432.12
2365.28
2293.05
2215.38
2132.89
2049.67
1958.97
1867.11
1777.88
1692.57
1617.92
1474.98
2791.12
2796.33
2805.68
2812.78
2814.71
2813.81
2807.92
2799.12
2791.05
2784.31
2779.25
2776.81
2776.52
2777.85
2780.64
2782.48
2783.6
2783.53
2783.58
2785.47
2789.99
2795.76
2801.07
2804.62
2806.11
2805.74
2804.38
2802.22
2799.97
2798.1
2796.68
2795.61
2794.74
2793.8
2792.8
2791.83
2791.05
2790.6
2790.48
2790.68
2791.12
2791.67
2792.31
2793.05
2793.86
2794.77
2795.77
2796.89
2798.15
2799.56
2801.14
2802.91
2804.88
2807.03
2809.38
2811.91
2814.62
2817.51
2820.58
2823.82
2827.21
2830.74
2834.43
2838.26
2842.23
2846.34
2850.57
2854.94
2859.43
2864.03
2868.71
2873.45
2878.25
2883.09
2887.98
2892.89
2897.79
2902.63
2907.4
2912.06
2916.59
2920.96
2925.13
2929.05
2932.64
2935.87
2938.67
2940.93
2942.61
2943.63
2943.92
2943.25
2941.56
2938.67
2934.46
2928.7
2921.28
2911.83
2900.3
2886.23
2869.54
2849.74
2826.57
2799.64
2768.43
2732.87
2692.11
2646.73
2595.75
2539.65
2476.78
2407.92
2333.32
2253.52
2168.22
2078.61
1979.65
1883.51
1784.01
1696.63
1528.92
2790.49
2794.03
2802.83
2811.72
2815.22
2815.21
2811.49
2803.77
2795.99
2789.31
2783.82
2780.43
2779.47
2780
2782.01
2783.57
2784.09
2783.04
2780.73
2777.89
2777.21
2779.38
2784.1
2789.66
2794.43
2797.26
2798.33
2798.41
2797.76
2796.96
2796.23
2795.55
2795
2794.63
2794.4
2794.02
2793.56
2793.31
2793.35
2793.76
2794.43
2795.26
2796.18
2797.18
2798.26
2799.41
2800.67
2802.03
2803.52
2805.15
2806.96
2808.94
2811.13
2813.51
2816.08
2818.85
2821.8
2824.94
2828.27
2831.77
2835.44
2839.26
2843.25
2847.39
2851.68
2856.12
2860.7
2865.43
2870.3
2875.31
2880.41
2885.61
2890.88
2896.23
2901.65
2907.14
2912.64
2918.15
2923.62
2929.03
2934.36
2939.59
2944.69
2949.6
2954.28
2958.67
2962.72
2966.37
2969.57
2972.17
2974.13
2975.34
2975.78
2975.22
2973.52
2970.5
2966.01
2959.78
2951.72
2941.41
2928.74
2913.22
2894.63
2872.54
2846.54
2816.51
2781.74
2742.39
2697.3
2646.82
2589.67
2526.62
2456.62
2380.82
2298.93
2211.14
2116.33
2018.99
1916.36
1828.58
1663.07
2790.19
2792.33
2799.86
2809.99
2815.14
2816.35
2814.44
2808.09
2800.52
2793.92
2788.26
2784.18
2782.6
2782.7
2784.07
2785.4
2785.53
2783.89
2780.8
2776.46
2772.36
2770.07
2770.53
2773.78
2779.12
2784.79
2789.29
2792.23
2793.7
2794.06
2794.35
2794.51
2794.6
2794.77
2795.11
2795.5
2795.72
2795.88
2796.15
2796.71
2797.6
2798.7
2799.91
2801.18
2802.52
2803.93
2805.43
2807.04
2808.76
2810.63
2812.65
2814.85
2817.25
2819.85
2822.65
2825.64
2828.83
2832.21
2835.78
2839.53
2843.46
2847.56
2851.83
2856.26
2860.86
2865.61
2870.52
2875.59
2880.82
2886.2
2891.71
2897.33
2903.04
2908.86
2914.78
2920.79
2926.87
2932.98
2939.1
2945.21
2951.29
2957.32
2963.28
2969.12
2974.81
2980.29
2985.52
2990.45
2995.02
2999.16
3002.79
3005.78
3008.06
3009.54
3010.15
3009.7
3007.93
3004.72
2999.84
2993.03
2984.16
2972.75
2958.65
2941.37
2920.58
2895.97
2866.81
2832.96
2793.33
2748.14
2696.24
2638.25
2572.76
2500.64
2420.7
2334.67
2242.62
2142.22
2032.97
1932.37
1747.92
2790.07
2791.22
2797.08
2807.64
2814.7
2817.46
2816.58
2811.76
2804.62
2798.22
2792.62
2788.11
2785.85
2785.57
2786.43
2787.63
2787.71
2785.67
2781.7
2776.66
2771.57
2767.27
2764
2763.27
2765.35
2770.11
2776.11
2781.69
2785.86
2788.58
2790.22
2792
2793.5
2794.47
2795.23
2796.1
2797.12
2798.01
2798.72
2799.52
2800.59
2801.93
2803.43
2804.99
2806.6
2808.27
2810.03
2811.88
2813.84
2815.94
2818.18
2820.6
2823.22
2826.04
2829.05
2832.27
2835.68
2839.29
2843.09
2847.1
2851.28
2855.64
2860.18
2864.89
2869.78
2874.83
2880.05
2885.44
2891.01
2896.75
2902.63
2908.65
2914.79
2921.05
2927.43
2933.94
2940.54
2947.22
2953.95
2960.71
2967.47
2974.24
2980.98
2987.67
2994.27
3000.74
3007.04
3013.13
3018.95
3024.45
3029.55
3034.17
3038.24
3041.65
3044.28
3046.03
3046.83
3046.51
3044.66
3041.21
3035.88
3028.39
3018.55
3005.89
2990.1
2970.74
2947.19
2919.18
2885.8
2847.17
2802.18
2751.1
2692.54
2626.94
2552.71
2471.46
2382.7
2287.08
2182.55
2083.48
1904.16
2790.02
2790.59
2794.76
2804.9
2814.02
2818.12
2817.92
2814.81
2808.44
2802.32
2796.92
2792.16
2789.23
2788.49
2788.93
2789.93
2790.11
2787.98
2783.42
2777.54
2771.94
2766.73
2762.32
2758.94
2757.53
2758.82
2762.85
2768.9
2775.26
2780.69
2784.98
2788.2
2790.97
2793.07
2794.61
2796.04
2797.66
2799.35
2800.82
2802.1
2803.44
2805
2806.76
2808.62
2810.51
2812.44
2814.45
2816.55
2818.76
2821.08
2823.55
2826.19
2829.01
2832.04
2835.28
2838.71
2842.34
2846.17
2850.2
2854.44
2858.86
2863.47
2868.26
2873.23
2878.39
2883.73
2889.24
2894.93
2900.81
2906.88
2913.12
2919.51
2926.03
2932.7
2939.51
2946.46
2953.55
2960.74
2968.02
2975.37
2982.77
2990.21
2997.67
3005.13
3012.57
3019.95
3027.23
3034.38
3041.35
3048.1
3054.56
3060.67
3066.35
3071.52
3076.11
3079.98
3082.98
3085.01
3085.97
3085.73
3083.73
3080
3074.14
3065.86
3054.82
3040.56
3022.57
3000.49
2973.54
2941.65
2903.55
2859.16
2807.08
2747.71
2679.74
2603.55
2517.01
2422.05
2319.01
2209.6
2029.24
2790.01
2790.27
2793.04
2802.13
2812.85
2818.4
2818.92
2817.25
2811.91
2806.13
2800.99
2796.2
2792.73
2791.5
2791.59
2792.2
2792.37
2790.24
2785.49
2779.14
2772.86
2767.17
2762.03
2757.68
2754.63
2753.16
2753.97
2757.47
2763.34
2770.16
2776.56
2781.91
2786.23
2789.87
2793.03
2795.51
2797.63
2799.88
2802.18
2804.23
2806.02
2807.85
2809.87
2812.01
2814.19
2816.4
2818.67
2821.01
2823.45
2826.01
2828.7
2831.56
2834.6
2837.84
2841.28
2844.93
2848.77
2852.81
2857.07
2861.52
2866.18
2871.02
2876.05
2881.28
2886.69
2892.3
2898.09
2904.06
2910.23
2916.61
2923.17
2929.91
2936.8
2943.84
2951.05
2958.42
2965.95
2973.63
2981.42
2989.31
2997.28
3005.34
3013.45
3021.62
3029.81
3038.01
3046.17
3054.27
3062.27
3070.13
3077.81
3085.24
3092.37
3099.12
3105.42
3111.18
3116.31
3120.68
3124.07
3126.4
3127.53
3127.37
3125.16
3121
3114.33
3104.93
3092.3
3076.05
3055.44
3030.14
2998.89
2961.61
2917.02
2865.17
2804.5
2734.71
2654.2
2566.22
2465.67
2362.54
2193.37
2790
2790.12
2791.88
2799.62
2811.21
2818.3
2819.94
2819.14
2814.89
2809.52
2804.72
2800.14
2796.38
2794.62
2794.33
2794.4
2794.3
2792.13
2787.38
2780.98
2774.29
2768.01
2762.45
2757.61
2753.58
2750.93
2749.95
2750.6
2753.79
2759.49
2766.62
2773.83
2780.31
2785.76
2790.32
2793.98
2796.97
2799.76
2802.76
2805.67
2808.19
2810.45
2812.76
2815.2
2817.68
2820.17
2822.7
2825.29
2827.97
2830.76
2833.67
2836.74
2839.99
2843.43
2847.09
2850.94
2854.99
2859.25
2863.71
2868.38
2873.25
2878.32
2883.57
2889.03
2894.69
2900.54
2906.59
2912.82
2919.27
2925.93
2932.79
2939.84
2947.06
2954.45
2962.02
2969.77
2977.71
2985.81
2994.06
3002.44
3010.93
3019.54
3028.25
3037.04
3045.91
3054.84
3063.79
3072.75
3081.67
3090.54
3099.31
3107.93
3116.36
3124.53
3132.38
3139.84
3146.83
3153.24
3158.95
3163.84
3167.62
3170.26
3171.54
3171.38
3168.89
3164.28
3156.77
3146.15
3131.61
3112.75
3088.42
3058.39
3021.18
2976.78
2923.89
2861.79
2789.15
2705.69
2608.62
2503.81
2346.81
2790
2790.05
2791.15
2797.52
2809.39
2818.06
2820.82
2820.53
2817.36
2812.52
2808.14
2803.92
2800.13
2797.86
2797.02
2796.54
2795.78
2793.43
2788.69
2782.41
2775.69
2769.14
2763.15
2757.94
2753.57
2750.06
2748.06
2747.68
2748.56
2751.63
2757.34
2764.8
2772.67
2779.85
2785.93
2791.03
2795.44
2799.22
2802.75
2806.39
2809.79
2812.68
2815.37
2818.12
2820.92
2823.71
2826.5
2829.34
2832.25
2835.27
2838.4
2841.68
2845.14
2848.79
2852.65
2856.71
2860.96
2865.41
2870.08
2874.95
2880.03
2885.31
2890.78
2896.45
2902.34
2908.42
2914.7
2921.19
2927.89
2934.81
2941.95
2949.29
2956.81
2964.52
2972.42
2980.52
2988.83
2997.32
3005.99
3014.81
3023.78
3032.89
3042.13
3051.5
3060.98
3070.56
3080.22
3089.93
3099.68
3109.44
3119.17
3128.84
3138.41
3147.83
3157.05
3166.01
3174.65
3182.87
3190.59
3197.68
3204.01
3209.45
3213.66
3216.62
3218.05
3217.85
3214.88
3209.39
3200.36
3187.65
3170.18
3147.71
3118.64
3082.82
3038.39
2984.58
2919.98
2842.41
2752.94
2647.65
2505.45
2790
2790.03
2790.72
2795.91
2807.66
2817.77
2821.47
2821.6
2819.4
2815.19
2811.27
2807.5
2803.8
2801.09
2799.56
2798.37
2796.77
2794.08
2789.33
2783.14
2776.57
2770.13
2764.02
2758.49
2753.82
2750
2747.36
2746.23
2746.28
2747.54
2750.85
2756.87
2764.7
2773.01
2780.68
2787.36
2793.11
2797.99
2802.31
2806.57
2810.74
2814.48
2817.71
2820.83
2823.95
2827.04
2830.1
2833.2
2836.35
2839.59
2842.94
2846.44
2850.1
2853.95
2858.01
2862.26
2866.71
2871.36
2876.22
2881.29
2886.57
2892.04
2897.72
2903.6
2909.69
2915.99
2922.49
2929.2
2936.14
2943.3
2950.69
2958.3
2966.1
2974.1
2982.3
2990.72
2999.35
3008.2
3017.24
3026.46
3035.84
3045.39
3055.11
3064.98
3075
3085.16
3095.44
3105.82
3116.29
3126.83
3137.41
3148
3158.58
3169.1
3179.51
3189.79
3199.87
3209.69
3219.17
3228.21
3236.73
3244.55
3251.57
3257.6
3262.26
3265.52
3267.05
3266.64
3263.13
3256.79
3246.3
3231.48
3210.61
3183.51
3148.02
3103.82
3048.29
2979.1
2897.04
2796.24
2661.55
2790
2790.01
2790.48
2794.75
2806.19
2817.43
2821.96
2822.6
2821.11
2817.57
2814.12
2810.8
2807.23
2804.13
2801.82
2799.79
2797.37
2794.1
2789.27
2783.07
2776.68
2770.54
2764.7
2759.15
2754.25
2750.23
2747.27
2745.67
2745.25
2745.66
2747.56
2751.51
2757.96
2766.13
2774.7
2782.7
2789.75
2795.89
2801.31
2806.28
2811.23
2815.78
2819.67
2823.23
2826.71
2830.13
2833.48
2836.83
2840.22
2843.69
2847.26
2850.96
2854.82
2858.87
2863.12
2867.57
2872.21
2877.05
2882.09
2887.35
2892.82
2898.48
2904.34
2910.41
2916.7
2923.2
2929.91
2936.83
2943.97
2951.36
2958.98
2966.83
2974.88
2983.14
2991.61
3000.31
3009.25
3018.41
3027.78
3037.36
3047.12
3057.06
3067.2
3077.52
3088.02
3098.68
3109.51
3120.49
3131.59
3142.81
3154.13
3165.53
3176.98
3188.45
3199.91
3211.33
3222.66
3233.86
3244.86
3255.6
3266
3275.92
3285.3
3293.93
3301.69
3308.36
3313.53
3317.12
3318.73
3318.02
3313.55
3305.45
3292
3273.08
3246.28
3211.37
3164.5
3104.05
3029.28
2935.2
2809.84
2790
2790.01
2790.35
2793.99
2805.09
2817.11
2822.45
2823.56
2822.58
2819.69
2816.72
2813.78
2810.31
2806.79
2803.64
2800.69
2797.56
2793.63
2788.49
2782.34
2776.17
2770.39
2764.89
2759.63
2754.79
2750.62
2747.45
2745.53
2744.9
2744.94
2745.94
2748.72
2753.52
2760.43
2768.86
2777.63
2785.89
2793.3
2799.87
2805.76
2811.35
2816.62
2821.28
2825.39
2829.27
2833.03
2836.68
2840.29
2843.92
2847.61
2851.39
2855.29
2859.35
2863.6
2868.04
2872.67
2877.5
2882.51
2887.74
2893.17
2898.82
2904.66
2910.7
2916.95
2923.42
2930.11
2937.01
2944.12
2951.46
2959.05
2966.89
2974.96
2983.24
2991.73
3000.46
3009.41
3018.62
3028.06
3037.73
3047.62
3057.72
3068.01
3078.52
3089.24
3100.15
3111.26
3122.57
3134.06
3145.72
3157.53
3169.49
3181.58
3193.78
3206.07
3218.43
3230.82
3243.23
3255.6
3267.91
3280.1
3292.1
3303.84
3315.23
3326.13
3336.46
3346.01
3354.61
3361.97
3367.66
3371.52
3373.08
3371.68
3365.89
3355.76
3339.08
3315.74
3281.1
3233.12
3166.69
3078.9
2959.68
2790
2790.01
2790.3
2793.58
2804.42
2816.96
2823.04
2824.48
2823.86
2821.61
2819.08
2816.43
2812.96
2808.89
2804.89
2801.06
2797.18
2792.57
2787.16
2781.12
2775.2
2769.75
2764.63
2759.72
2755.19
2751.1
2747.8
2745.68
2744.84
2744.78
2745.38
2747.36
2751.13
2756.73
2764.08
2772.77
2781.75
2790.22
2797.89
2804.8
2811.11
2817.14
2822.56
2827.27
2831.6
2835.71
2839.67
2843.55
2847.42
2851.33
2855.32
2859.42
2863.67
2868.11
2872.73
2877.55
2882.55
2887.74
2893.13
2898.74
2904.55
2910.56
2916.77
2923.19
2929.83
2936.69
2943.76
2951.05
2958.57
2966.35
2974.38
2982.65
2991.13
2999.84
3008.79
3017.98
3027.42
3037.12
3047.06
3057.22
3067.61
3078.22
3089.05
3100.11
3111.4
3122.9
3134.62
3146.56
3158.7
3171.03
3183.54
3196.23
3209.07
3222.07
3235.19
3248.42
3261.73
3275.12
3288.53
3301.94
3315.31
3328.57
3341.66
3354.5
3367
3379
3390.41
3400.97
3410.54
3418.68
3425.02
3429.23
3430.79
3428.64
3421.08
3407.63
3384.36
3349.21
3293
3216.6
3103.1
2790
2790.01
2790.29
2793.49
2804.24
2817.04
2823.66
2825.37
2825.05
2823.4
2821.24
2818.73
2815.02
2810.28
2805.44
2800.9
2795.91
2790.8
2785.36
2779.56
2773.88
2768.73
2763.94
2759.44
2755.32
2751.53
2748.29
2746
2744.98
2744.85
2745.31
2746.93
2750.01
2754.66
2760.94
2768.83
2777.84
2787.01
2795.68
2803.61
2810.82
2817.52
2823.62
2828.96
2833.75
2838.22
2842.49
2846.65
2850.76
2854.89
2859.08
2863.38
2867.82
2872.44
2877.25
2882.24
2887.41
2892.77
2898.32
2904.09
2910.07
2916.23
2922.6
2929.17
2935.97
2942.99
2950.23
2957.68
2965.38
2973.33
2981.54
2989.98
2998.66
3007.56
3016.71
3026.11
3035.77
3045.7
3055.88
3066.3
3076.95
3087.83
3098.95
3110.32
3121.93
3133.78
3145.87
3158.19
3170.75
3183.53
3196.52
3209.73
3223.13
3236.73
3250.5
3264.44
3278.54
3292.77
3307.12
3321.56
3336.07
3350.61
3365.13
3379.58
3393.88
3407.95
3421.7
3434.97
3447.64
3459.43
3470.15
3479.17
3486.12
3490.35
3491.37
3487.31
3476.84
3456.61
3415.36
3357.35
3252.46
2790
2790.01
2790.29
2793.56
2804.47
2817.43
2824.36
2826.28
2826.23
2825.11
2823.18
2820.55
2816.33
2810.86
2805.25
2799.54
2793.94
2788.61
2783.22
2777.66
2772.24
2767.44
2762.96
2758.89
2755.2
2751.8
2748.79
2746.51
2745.32
2745.09
2745.46
2746.91
2749.69
2753.7
2759.12
2766.17
2774.7
2784.05
2793.42
2802.24
2810.33
2817.72
2824.49
2830.45
2835.72
2840.57
2845.16
2849.58
2853.93
2858.28
2862.67
2867.16
2871.78
2876.58
2881.57
2886.73
2892.06
2897.57
2903.28
2909.21
2915.33
2921.65
2928.16
2934.89
2941.83
2949
2956.39
2964
2971.85
2979.96
2988.34
2996.95
3005.8
3014.88
3024.21
3033.81
3043.68
3053.81
3064.21
3074.85
3085.74
3096.87
3108.26
3119.9
3131.81
3143.96
3156.38
3169.05
3181.98
3195.15
3208.56
3222.22
3236.11
3250.22
3264.56
3279.11
3293.87
3308.83
3323.97
3339.29
3354.75
3370.36
3386.06
3401.84
3417.64
3433.41
3449.08
3464.58
3479.79
3494.53
3508.67
3521.86
3533.95
3544.02
3551.98
3556.54
3557.58
3549.82
3526.61
3490.72
3410.09
2790
2790.01
2790.34
2793.89
2805.2
2818.19
2825.19
2827.27
2827.45
2826.69
2824.79
2821.74
2816.77
2810.6
2803.87
2797.24
2791.31
2786.01
2780.79
2775.49
2770.4
2765.93
2761.81
2758.18
2754.9
2751.9
2749.24
2747.11
2745.86
2745.52
2745.81
2747.13
2749.76
2753.46
2758.25
2764.57
2772.51
2781.68
2791.4
2800.93
2809.82
2817.95
2825.31
2831.85
2837.59
2842.81
2847.7
2852.39
2856.98
2861.53
2866.12
2870.79
2875.6
2880.57
2885.73
2891.05
2896.54
2902.2
2908.07
2914.14
2920.41
2926.86
2933.51
2940.38
2947.47
2954.78
2962.3
2970.05
2978.05
2986.32
2994.84
3003.61
3012.62
3021.86
3031.37
3041.14
3051.2
3061.52
3072.12
3082.97
3094.07
3105.43
3117.05
3128.95
3141.11
3153.55
3166.26
3179.24
3192.5
3206.02
3219.81
3233.86
3248.17
3262.75
3277.57
3292.66
3307.99
3323.57
3339.39
3355.45
3371.73
3388.24
3404.93
3421.82
3438.85
3456.02
3473.27
3490.57
3507.82
3524.97
3541.87
3558.41
3574.37
3589.35
3603.06
3614.24
3623.29
3627.26
3623.37
3605.77
3563.51
2790
2790.01
2790.43
2794.5
2806.32
2819.24
2826.18
2828.35
2828.65
2828.02
2825.9
2822.14
2816.41
2808.97
2801.19
2794.21
2788.31
2783.14
2778.11
2773.1
2768.43
2764.31
2760.62
2757.39
2754.49
2751.89
2749.59
2747.72
2746.54
2746.14
2746.36
2747.56
2750.07
2753.56
2758.03
2763.81
2771.2
2780.05
2789.85
2799.85
2809.39
2818.16
2826.1
2833.17
2839.36
2844.94
2850.13
2855.08
2859.89
2864.64
2869.41
2874.26
2879.24
2884.38
2889.7
2895.18
2900.81
2906.62
2912.63
2918.84
2925.25
2931.84
2938.62
2945.62
2952.84
2960.29
2967.94
2975.83
2983.97
2992.39
3001.06
3009.98
3019.13
3028.53
3038.2
3048.15
3058.38
3068.89
3079.67
3090.72
3102.02
3113.59
3125.44
3137.57
3149.98
3162.68
3175.66
3188.93
3202.49
3216.34
3230.46
3244.88
3259.58
3274.56
3289.83
3305.38
3321.22
3337.35
3353.76
3370.45
3387.43
3404.69
3422.22
3440.03
3458.07
3476.38
3494.88
3513.62
3532.49
3551.52
3570.57
3589.63
3608.49
3627.06
3645.03
3662.09
3677.76
3690.46
3699.7
3699.13
3692.11
2790
2790.02
2790.6
2795.4
2807.85
2820.6
2827.36
2829.51
2829.73
2828.93
2826.34
2821.77
2814.54
2805.93
2797.71
2790.72
2785.02
2780.07
2775.3
2770.67
2766.38
2762.66
2759.42
2756.59
2754.06
2751.83
2749.89
2748.31
2747.28
2746.88
2747.06
2748.19
2750.58
2753.89
2758.14
2763.62
2770.57
2779.08
2788.81
2799.1
2809.18
2818.49
2826.98
2834.51
2841.1
2847.01
2852.48
2857.66
2862.69
2867.63
2872.58
2877.6
2882.75
2888.06
2893.53
2899.15
2904.93
2910.88
2917.02
2923.37
2929.89
2936.61
2943.51
2950.64
2957.98
2965.55
2973.33
2981.35
2989.62
2998.17
3006.98
3016.03
3025.33
3034.88
3044.7
3054.81
3065.21
3075.89
3086.84
3098.07
3109.56
3121.33
3133.38
3145.72
3158.37
3171.3
3184.53
3198.07
3211.91
3226.04
3240.48
3255.22
3270.26
3285.61
3301.27
3317.24
3333.53
3350.14
3367.06
3384.3
3401.87
3419.77
3438
3456.56
3475.43
3494.64
3514.15
3534
3554.1
3574.52
3595.13
3615.99
3636.92
3657.95
3678.77
3699.3
3718.91
3737.65
3753.4
3763.59
3775.01
2790
2790.04
2790.87
2796.63
2809.75
2822.27
2828.61
2830.61
2830.53
2829.31
2826.07
2819.87
2811.2
2801.96
2793.71
2786.98
2781.58
2776.93
2772.47
2768.19
2764.4
2761.1
2758.26
2755.81
2753.65
2751.77
2750.16
2748.86
2748.03
2747.68
2747.88
2749
2751.25
2754.41
2758.51
2763.79
2770.48
2778.71
2788.32
2798.74
2809.19
2819
2827.92
2835.85
2842.81
2849.02
2854.74
2860.14
2865.36
2870.48
2875.6
2880.78
2886.09
2891.55
2897.17
2902.93
2908.84
2914.93
2921.2
2927.67
2934.32
2941.15
2948.18
2955.42