/*--------------------------------*- C++ -*----------------------------------*\
| =========                 |                                                 |
| \\      /  F ield         | OpenFOAM: The Open Source CFD Toolbox           |
|  \\    /   O peration     | Version:  2412                                  |
|   \\  /    A nd           | Website:  www.openfoam.com                      |
|    \\/     M anipulation  |                                                 |
\*---------------------------------------------------------------------------*/
FoamFile
{
    version     2.0;
    format      ascii;
    arch        "LSB;label=32;scalar=64";
    class       volScalarField;
    location    "0.063";
    object      p;
}
// * * * * * * * * * * * * * * * * * * * * * * * * * * * * * * * * * * * * * //

dimensions      [1 -1 -2 0 0 0 0];

internalField   nonuniform List<scalar> 
9922
(
4195.45
2901.07
2894.05
2916.37
2916.48
2917.97
2914.99
2911.69
2907.64
2903.14
2898.61
2894.27
2889.82
2885.02
2879.35
2872.77
2865.11
2856.28
2846.29
2835.2
2823.15
2810.37
2797.16
2783.83
2770.58
2757.54
2744.74
2732.19
2719.8
2707.48
2695.1
2682.52
2669.62
2656.27
2642.34
2627.71
2612.26
2595.85
2578.35
2559.65
2539.61
2518.11
2494.96
2469.92
2442.61
2412.54
2379.08
2341.1
2295.39
2234.49
2152.39
2062.47
1979.92
1911.13
1853.87
1803.34
1756.56
1711.96
1668.95
1628
1588.6
1551.29
1516.12
1483.5
1453.6
1426.08
1400.75
1377.55
1356.36
1337.08
1319.63
1303.83
1289.59
1276.59
1264.73
1253.11
1242.04
1231.71
1222.14
1213.06
1204.5
1196.35
1188.6
1181.25
1174.31
1167.73
1161.43
1155.41
1149.67
1144.2
1138.94
1133.86
1128.97
1124.33
1119.89
1115.65
1111.6
1107.75
1104.07
1100.56
1097.18
1093.94
1090.8
1087.77
1084.85
1082.06
1079.39
1076.85
1074.38
1072.05
1069.76
1067.6
1065.48
1063.46
1061.53
1059.65
1057.83
1056.12
1054.48
1052.87
1050.41
4197.5
2900.63
2892.53
2915.09
2915.43
2917.18
2914.38
2911.17
2907.19
2902.76
2898.32
2894.07
2889.7
2884.98
2879.37
2872.82
2865.17
2856.33
2846.31
2835.18
2823.1
2810.29
2797.05
2783.69
2770.42
2757.35
2744.5
2731.89
2719.44
2707.04
2694.57
2681.9
2668.9
2655.41
2641.33
2626.52
2610.87
2594.22
2576.46
2557.43
2537
2515.02
2491.27
2465.46
2437.18
2405.86
2370.74
2330.22
2280.33
2214.41
2133.03
2049.61
1974.9
1911.63
1857.33
1808.2
1761.97
1717.72
1675.38
1634.62
1595.63
1558.25
1522.44
1488.83
1457.67
1429.42
1403.8
1380.64
1359.67
1340.55
1323
1306.72
1291.62
1277.63
1265.25
1254.16
1243.7
1233.48
1223.81
1214.63
1206.02
1197.81
1190.04
1182.67
1175.67
1168.99
1162.6
1156.51
1150.7
1145.15
1139.77
1134.6
1129.64
1124.91
1120.38
1116.04
1111.89
1107.95
1104.17
1100.55
1097.07
1093.73
1090.49
1087.37
1084.4
1081.59
1078.91
1076.37
1073.92
1071.59
1069.32
1067.2
1065.12
1063.17
1061.33
1059.56
1057.85
1056.19
1054.64
1053.11
1050.82
4199.55
2900.24
2890.99
2913.79
2914.37
2916.37
2913.75
2910.64
2906.74
2902.38
2898.03
2893.87
2889.59
2884.94
2879.38
2872.86
2865.22
2856.37
2846.33
2835.17
2823.05
2810.21
2796.95
2783.56
2770.27
2757.16
2744.27
2731.59
2719.08
2706.61
2694.06
2681.3
2668.18
2654.57
2640.33
2625.34
2609.48
2592.61
2574.57
2555.22
2534.39
2511.92
2487.57
2461
2431.74
2399.17
2362.36
2319.26
2265.56
2196.73
2118.03
2040.91
1972.45
1913.26
1860.94
1812.65
1767.14
1723.46
1681.14
1640.61
1601.76
1564.67
1529.62
1496
1464.17
1434.53
1407.5
1383.18
1361.51
1342.2
1324.81
1308.87
1294.14
1280.15
1266.99
1254.7
1243.88
1233.7
1224.07
1214.87
1206.22
1198
1190.22
1182.81
1175.72
1168.95
1162.54
1156.48
1150.73
1145.24
1139.95
1134.89
1130.07
1125.47
1121.06
1116.84
1112.8
1108.94
1105.23
1101.68
1098.24
1094.91
1091.67
1088.55
1085.58
1082.76
1080.05
1077.46
1074.95
1072.55
1070.19
1067.97
1065.79
1063.73
1061.8
1059.95
1058.17
1056.43
1054.78
1053.2
1050.92
4201.6
2899.89
2889.43
2912.46
2913.29
2915.54
2913.11
2910.09
2906.27
2901.99
2897.73
2893.67
2889.48
2884.89
2879.39
2872.91
2865.27
2856.41
2846.34
2835.15
2822.99
2810.12
2796.84
2783.44
2770.12
2756.98
2744.04
2731.31
2718.72
2706.18
2693.55
2680.7
2667.47
2653.73
2639.34
2624.18
2608.11
2591.01
2572.69
2553.02
2531.8
2508.84
2483.89
2456.55
2426.33
2392.53
2354.02
2308.37
2251.53
2181.93
2106.88
2035.3
1971.7
1915.86
1865.48
1818.36
1773.25
1729.77
1687.89
1647.05
1607.87
1570.5
1535
1501.7
1470.42
1440.98
1413.57
1388.3
1365.34
1344.73
1326.32
1309.79
1294.95
1281.39
1268.87
1256.68
1245.16
1234.41
1224.51
1215.19
1206.52
1198.3
1190.52
1183.07
1175.92
1169.12
1162.7
1156.65
1150.86
1145.27
1139.9
1134.78
1129.9
1125.23
1120.75
1116.47
1112.39
1108.5
1104.79
1101.26
1097.85
1094.57
1091.4
1088.39
1085.53
1082.79
1080.14
1077.59
1075.14
1072.81
1070.55
1068.44
1066.37
1064.44
1062.61
1060.84
1059.14
1057.48
1055.86
1054.26
1051.91
4203.64
2899.58
2887.85
2911.12
2912.2
2914.7
2912.45
2909.53
2905.8
2901.6
2897.43
2893.46
2889.36
2884.85
2879.4
2872.95
2865.33
2856.46
2846.36
2835.13
2822.94
2810.04
2796.73
2783.31
2769.97
2756.8
2743.82
2731.03
2718.38
2705.77
2693.05
2680.11
2666.77
2652.9
2638.36
2623.02
2606.76
2589.42
2570.83
2550.83
2529.22
2505.78
2480.22
2452.13
2420.96
2385.96
2345.77
2297.78
2238.8
2169.98
2098.84
2032.23
1972.81
1919.72
1870.92
1824.69
1780.4
1737.4
1695.44
1655
1615.67
1577.75
1541.25
1506.94
1475.12
1445.68
1418.43
1393.29
1370.26
1349.3
1330.21
1312.72
1296.73
1282.23
1269.41
1257.71
1246.82
1236.3
1226.4
1217
1208.22
1199.89
1191.97
1184.36
1177.11
1170.25
1163.83
1157.77
1151.93
1146.32
1140.97
1135.9
1131.04
1126.36
1121.84
1117.49
1113.3
1109.29
1105.46
1101.81
1098.28
1094.9
1091.68
1088.63
1085.72
1082.9
1080.16
1077.54
1075.01
1072.62
1070.3
1068.12
1065.98
1063.99
1062.1
1060.29
1058.57
1056.95
1055.34
1053.75
1051.35
4205.67
2899.32
2886.24
2909.75
2911.09
2913.83
2911.78
2908.97
2905.31
2901.19
2897.12
2893.25
2889.24
2884.8
2879.41
2872.99
2865.38
2856.5
2846.37
2835.11
2822.88
2809.95
2796.63
2783.19
2769.83
2756.63
2743.61
2730.76
2718.05
2705.36
2692.56
2679.53
2666.08
2652.09
2637.4
2621.89
2605.42
2587.84
2568.99
2548.66
2526.66
2502.75
2476.59
2447.76
2415.69
2379.52
2337.7
2287.69
2227.67
2160.7
2093.47
2030.99
1974.68
1923.49
1875.69
1830
1785.95
1743.3
1701.96
1661.84
1623.04
1585.46
1549.26
1514.35
1481.19
1450.39
1422.17
1396.52
1373.29
1352.33
1333.36
1316.04
1300.07
1285.07
1271.17
1258.38
1246.96
1236.34
1226.45
1217.04
1208.18
1199.74
1191.71
1184.02
1176.76
1169.93
1163.53
1157.41
1151.51
1145.86
1140.54
1135.5
1130.66
1126.01
1121.53
1117.23
1113.11
1109.19
1105.45
1101.88
1098.45
1095.18
1092.08
1089.14
1086.3
1083.53
1080.84
1078.26
1075.78
1073.43
1071.15
1069
1066.87
1064.87
1062.97
1061.14
1059.38
1057.73
1056.09
1054.51
1052.14
4207.69
2899.12
2884.62
2908.35
2909.96
2912.95
2911.09
2908.4
2904.83
2900.79
2896.81
2893.03
2889.11
2884.76
2879.42
2873.03
2865.43
2856.53
2846.39
2835.09
2822.83
2809.87
2796.52
2783.07
2769.69
2756.46
2743.4
2730.5
2717.72
2704.96
2692.08
2678.95
2665.41
2651.29
2636.45
2620.77
2604.1
2586.29
2567.17
2546.52
2524.14
2499.75
2473.02
2443.48
2410.54
2373.23
2329.92
2278.43
2218.35
2153.57
2089.81
2030.76
1976.94
1927.28
1880.35
1835.34
1791.99
1749.79
1708.57
1668.41
1629.53
1592.12
1556.37
1521.97
1489.08
1457.83
1428.49
1401.4
1376.82
1354.79
1335.13
1317.53
1301.68
1287.14
1273.73
1260.94
1249.02
1237.8
1227.54
1217.96
1209.1
1200.68
1192.69
1185.07
1177.88
1171.07
1164.56
1158.27
1152.23
1146.51
1141.12
1135.98
1131.01
1126.23
1121.63
1117.23
1113.01
1108.99
1105.16
1101.5
1098.01
1094.71
1091.59
1088.62
1085.72
1082.9
1080.19
1077.6
1075.13
1072.82
1070.57
1068.47
1066.39
1064.46
1062.62
1060.87
1059.15
1057.55
1055.94
1054.42
1052.19
4209.7
2898.96
2882.97
2906.94
2908.82
2912.05
2910.4
2907.82
2904.33
2900.37
2896.49
2892.82
2888.99
2884.71
2879.43
2873.07
2865.47
2856.57
2846.4
2835.06
2822.77
2809.78
2796.41
2782.95
2769.56
2756.3
2743.2
2730.25
2717.4
2704.57
2691.61
2678.39
2664.74
2650.5
2635.52
2619.66
2602.8
2584.76
2565.37
2544.41
2521.65
2496.81
2469.52
2439.31
2405.53
2367.15
2322.53
2270.11
2210.61
2148.22
2087.71
2031.58
1979.97
1931.97
1886.4
1842.3
1799.31
1757.37
1716.38
1676.13
1637
1599.07
1562.4
1527.77
1495.1
1464.27
1435.22
1408.04
1382.91
1359.97
1339.18
1320.39
1303.45
1288.14
1274.47
1261.94
1250.49
1239.57
1229.37
1219.68
1210.6
1201.94
1193.75
1185.98
1178.6
1171.57
1164.84
1158.42
1152.4
1146.75
1141.42
1136.31
1131.39
1126.68
1122.19
1117.89
1113.76
1109.8
1105.99
1102.35
1098.88
1095.6
1092.47
1089.43
1086.45
1083.57
1080.82
1078.2
1075.68
1073.3
1070.97
1068.8
1066.65
1064.65
1062.75
1060.96
1059.19
1057.55
1055.89
1054.36
1052.16
4211.7
2898.85
2881.3
2905.5
2907.67
2911.14
2909.69
2907.24
2903.84
2899.96
2896.17
2892.6
2888.86
2884.66
2879.44
2873.11
2865.52
2856.6
2846.41
2835.04
2822.71
2809.69
2796.31
2782.83
2769.42
2756.15
2743.01
2730.01
2717.1
2704.19
2691.15
2677.84
2664.09
2649.73
2634.61
2618.58
2601.52
2583.26
2563.6
2542.34
2519.21
2493.92
2466.1
2435.25
2400.68
2361.31
2315.65
2262.79
2204.32
2144.42
2086.95
2033.52
1984.01
1937.41
1892.62
1848.95
1806.53
1765
1724.2
1684.57
1645.63
1607.59
1570.59
1534.8
1500.88
1469.19
1439.83
1412.64
1387.58
1364.64
1343.77
1324.79
1307.43
1291.37
1276.64
1263.09
1250.98
1239.75
1229.41
1219.61
1210.43
1201.73
1193.57
1185.84
1178.47
1171.39
1164.63
1158.24
1152.28
1146.68
1141.29
1136.06
1131.03
1126.27
1121.75
1117.45
1113.32
1109.36
1105.57
1101.97
1098.55
1095.31
1092.16
1089.09
1086.13
1083.33
1080.67
1078.13
1075.66
1073.32
1071.03
1068.91
1066.82
1064.89
1063.06
1061.32
1059.61
1058.01
1056.35
1054.81
1052.6
4213.68
2898.79
2879.62
2904.04
2906.51
2910.22
2908.97
2906.65
2903.34
2899.54
2895.85
2892.38
2888.73
2884.61
2879.44
2873.14
2865.56
2856.64
2846.41
2835.01
2822.64
2809.6
2796.2
2782.71
2769.3
2756
2742.83
2729.78
2716.8
2703.82
2690.7
2677.3
2663.45
2648.97
2633.71
2617.52
2600.27
2581.78
2561.87
2540.31
2516.82
2491.11
2462.77
2431.31
2396.01
2355.76
2309.31
2256.42
2199.38
2142.08
2087.39
2036.11
1987.98
1942.11
1897.74
1854.47
1812.29
1771.23
1731.04
1691.43
1652.95
1615.52
1579.19
1543.8
1509.57
1476.81
1445.94
1417.38
1391.28
1367.65
1346.37
1327.23
1309.94
1294.11
1279.63
1266.06
1253.57
1241.8
1231.04
1221.02
1211.87
1203.28
1195.17
1187.37
1179.84
1172.63
1165.83
1159.47
1153.53
1147.88
1142.37
1137.05
1131.98
1127.21
1122.66
1118.29
1114.06
1109.99
1106.1
1102.41
1098.9
1095.55
1092.28
1089.12
1086.1
1083.28
1080.59
1078.02
1075.51
1073.1
1070.77
1068.61
1066.48
1064.49
1062.59
1060.79
1059.02
1057.39
1055.68
1054.1
1051.87
4215.64
2898.79
2877.91
2902.56
2905.33
2909.27
2908.24
2906.05
2902.83
2899.11
2895.52
2892.15
2888.6
2884.55
2879.44
2873.18
2865.6
2856.67
2846.42
2834.98
2822.58
2809.51
2796.1
2782.6
2769.18
2755.86
2742.66
2729.56
2716.52
2703.46
2690.26
2676.77
2662.82
2648.23
2632.83
2616.48
2599.04
2580.34
2560.18
2538.32
2514.48
2488.36
2459.54
2427.51
2391.53
2350.53
2303.6
2251.2
2195.92
2140.94
2088.35
2038.75
1991.84
1946.95
1903.5
1861.08
1819.59
1778.72
1738.4
1698.86
1660.11
1622.33
1585.78
1550.73
1517.1
1484.85
1454.07
1424.98
1397.86
1372.97
1350.43
1330.15
1311.92
1295.45
1280.69
1267.18
1254.97
1243.39
1232.66
1222.48
1213.04
1204.08
1195.58
1187.45
1179.73
1172.43
1165.67
1159.36
1153.36
1147.55
1141.92
1136.58
1131.58
1126.88
1122.37
1118.04
1113.85
1109.85
1106.03
1102.39
1098.9
1095.58
1092.36
1089.29
1086.37
1083.61
1080.97
1078.42
1075.94
1073.6
1071.33
1069.2
1067.09
1065.11
1063.2
1061.39
1059.59
1057.96
1056.21
1054.61
1052.31
4217.58
2898.85
2876.19
2901.06
2904.14
2908.31
2907.5
2905.45
2902.32
2898.69
2895.2
2891.93
2888.47
2884.49
2879.44
2873.21
2865.64
2856.69
2846.42
2834.94
2822.51
2809.42
2796
2782.49
2769.06
2755.73
2742.5
2729.35
2716.25
2703.12
2689.83
2676.25
2662.2
2647.5
2631.97
2615.47
2597.85
2578.93
2558.52
2536.37
2512.21
2485.69
2456.42
2423.86
2387.26
2345.67
2298.58
2247.01
2193.51
2140.66
2089.93
2042.01
1996.48
1952.86
1910.53
1868.81
1827.69
1787.3
1747.46
1708.08
1669.26
1631.14
1593.76
1557.64
1523.24
1490.74
1460.12
1431.29
1404.28
1379.26
1356.34
1335.49
1316.54
1299.21
1283.43
1268.94
1255.95
1243.92
1232.96
1222.63
1213.08
1204.09
1195.71
1187.77
1180.28
1173.22
1166.57
1160.22
1154.03
1148
1142.26
1136.89
1131.85
1127.04
1122.39
1117.92
1113.63
1109.54
1105.61
1101.85
1098.26
1094.83
1091.56
1088.47
1085.56
1082.77
1080.08
1077.47
1074.98
1072.64
1070.38
1068.27
1066.17
1064.21
1062.32
1060.52
1058.71
1057.06
1055.3
1053.69
1051.39
4219.5
2898.95
2874.45
2899.53
2902.93
2907.33
2906.73
2904.83
2901.79
2898.25
2894.86
2891.7
2888.33
2884.43
2879.44
2873.24
2865.68
2856.72
2846.41
2834.9
2822.44
2809.33
2795.89
2782.38
2768.94
2755.61
2742.35
2729.16
2715.99
2702.78
2689.42
2675.75
2661.6
2646.79
2631.13
2614.48
2596.68
2577.55
2556.9
2534.48
2509.99
2483.11
2453.41
2420.37
2383.25
2341.27
2294.33
2243.72
2191.79
2140.87
2092.21
2046.05
2001.81
1958.9
1916.77
1875.14
1834.29
1794.2
1754.69
1715.84
1677.69
1640.18
1603.36
1567.16
1531.9
1498.07
1466.13
1436.34
1408.76
1383.4
1360.22
1339.17
1320.08
1302.72
1286.93
1272.34
1259.06
1246.63
1235.36
1224.79
1215.06
1205.92
1197.38
1189.26
1181.57
1174.29
1167.35
1160.69
1154.27
1148.15
1142.48
1137.21
1132.2
1127.38
1122.73
1118.3
1114.07
1110.03
1106.13
1102.39
1098.8
1095.38
1092.12
1089.05
1086.13
1083.28
1080.5
1077.83
1075.29
1072.9
1070.56
1068.36
1066.18
1064.15
1062.21
1060.38
1058.54
1056.89
1055.14
1053.62
1051.49
4221.39
2899.11
2872.7
2897.99
2901.71
2906.33
2905.94
2904.2
2901.26
2897.81
2894.53
2891.47
2888.19
2884.37
2879.43
2873.26
2865.71
2856.74
2846.41
2834.86
2822.37
2809.24
2795.79
2782.28
2768.83
2755.49
2742.21
2728.98
2715.75
2702.47
2689.02
2675.26
2661.01
2646.09
2630.31
2613.51
2595.54
2576.22
2555.34
2532.64
2507.85
2480.62
2450.54
2417.07
2379.53
2337.35
2290.78
2241.28
2191.06
2142.09
2095.28
2050.2
2006.53
1963.97
1922.32
1881.4
1841.07
1801.39
1762.16
1723.26
1684.99
1647.58
1611.06
1575.56
1540.99
1507.42
1475.09
1444.3
1415.43
1388.76
1364.41
1342.38
1322.5
1304.57
1288.41
1273.71
1260.48
1248.11
1236.77
1225.97
1215.88
1206.35
1197.49
1189.17
1181.4
1174.08
1167.08
1160.33
1153.86
1147.8
1142.22
1136.99
1131.9
1126.95
1122.19
1117.7
1113.46
1109.41
1105.51
1101.8
1098.24
1094.84
1091.62
1088.58
1085.63
1082.76
1079.99
1077.37
1074.88
1072.5
1070.18
1068.01
1065.89
1063.92
1062.03
1060.25
1058.46
1056.8
1055.04
1053.41
1051.07
4223.25
2899.33
2870.93
2896.43
2900.48
2905.3
2905.13
2903.56
2900.72
2897.36
2894.18
2891.23
2888.05
2884.3
2879.42
2873.28
2865.74
2856.76
2846.4
2834.82
2822.3
2809.15
2795.7
2782.18
2768.73
2755.37
2742.08
2728.8
2715.52
2702.17
2688.63
2674.78
2660.43
2645.41
2629.51
2612.57
2594.43
2574.91
2553.81
2530.87
2505.79
2478.24
2447.81
2413.97
2376.12
2333.91
2287.85
2239.59
2191.22
2144
2098.31
2054.07
2011.35
1969.82
1929.29
1889.31
1849.61
1810.22
1771.09
1732.33
1693.92
1655.95
1618.68
1582.52
1547.79
1514.54
1482.7
1452.27
1423.42
1396.41
1371.42
1348.56
1327.76
1308.87
1291.71
1276.08
1262.05
1249.2
1237.61
1226.67
1216.58
1207.14
1198.54
1190.47
1182.83
1175.47
1168.32
1161.45
1154.98
1148.99
1143.44
1138.14
1132.92
1127.85
1123.02
1118.46
1114.12
1109.99
1106.04
1102.26
1098.59
1095.07
1091.74
1088.59
1085.55
1082.6
1079.81
1077.16
1074.6
1072.12
1069.68
1067.41
1065.18
1063.1
1061.17
1059.39
1057.64
1056.05
1054.36
1052.82
1050.64
4225.08
2899.6
2869.15
2894.85
2899.24
2904.25
2904.3
2902.9
2900.17
2896.9
2893.84
2890.98
2887.9
2884.23
2879.41
2873.3
2865.77
2856.77
2846.38
2834.77
2822.22
2809.06
2795.6
2782.08
2768.63
2755.27
2741.95
2728.65
2715.31
2701.88
2688.26
2674.32
2659.88
2644.74
2628.73
2611.65
2593.35
2573.66
2552.34
2529.16
2503.82
2475.98
2445.23
2411.09
2373.05
2330.96
2285.6
2238.64
2191.89
2146.07
2101.5
2058.61
2017.05
1976.49
1936.55
1896.84
1857.29
1818.3
1779.75
1741.5
1703.66
1666.18
1629
1592.26
1556.36
1521.81
1489.02
1458.1
1429.08
1401.98
1376.85
1353.75
1332.64
1313.44
1296.01
1280.09
1265.71
1252.46
1240.52
1229.28
1218.92
1209.17
1200.15
1191.59
1183.44
1175.67
1168.27
1161.31
1154.92
1149
1143.35
1137.86
1132.54
1127.47
1122.68
1118.14
1113.83
1109.76
1105.88
1102.13
1098.46
1094.93
1091.59
1088.43
1085.42
1082.56
1079.87
1077.31
1074.8
1072.39
1070.02
1067.81
1065.62
1063.58
1061.68
1059.9
1058.13
1056.52
1054.84
1053.25
1050.93
4226.87
2899.92
2867.36
2893.25
2898
2903.19
2903.46
2902.23
2899.61
2896.44
2893.48
2890.74
2887.75
2884.16
2879.4
2873.32
2865.8
2856.79
2846.37
2834.72
2822.15
2808.97
2795.5
2781.98
2768.54
2755.17
2741.84
2728.5
2715.12
2701.62
2687.91
2673.88
2659.34
2644.1
2627.97
2610.76
2592.31
2572.44
2550.93
2527.52
2501.93
2473.84
2442.83
2408.45
2370.31
2328.53
2284.09
2238.55
2193.02
2148.43
2105.38
2063.78
2022.91
1982.61
1942.69
1903.13
1863.97
1825.24
1786.84
1748.76
1711.12
1674.11
1637.73
1601.86
1566.54
1531.93
1498.34
1466.18
1435.83
1407.55
1381.45
1357.56
1335.79
1316.05
1298.2
1282.02
1267.47
1253.99
1241.72
1230.14
1219.47
1209.45
1200.25
1191.61
1183.59
1176
1168.83
1162.1
1155.8
1149.82
1143.97
1138.26
1132.81
1127.69
1122.8
1118.14
1113.71
1109.56
1105.57
1101.69
1097.9
1094.29
1090.86
1087.58
1084.46
1081.53
1078.78
1076.14
1073.61
1071.2
1068.87
1066.69
1064.54
1062.56
1060.67
1058.88
1057.09
1055.45
1053.73
1052.12
1049.79
4228.62
2900.3
2865.57
2891.65
2896.74
2902.11
2902.61
2901.56
2899.05
2895.97
2893.12
2890.49
2887.59
2884.08
2879.38
2873.33
2865.81
2856.79
2846.35
2834.67
2822.07
2808.88
2795.41
2781.89
2768.45
2755.08
2741.74
2728.37
2714.94
2701.37
2687.58
2673.45
2658.81
2643.47
2627.23
2609.9
2591.3
2571.27
2549.57
2525.96
2500.15
2471.82
2440.59
2406.05
2367.94
2326.57
2283.04
2238.77
2194.59
2151.52
2109.76
2068.6
2028.01
1988.2
1949.14
1910.67
1872.32
1834.08
1795.96
1757.93
1720.07
1682.52
1645.53
1609.42
1574.38
1540.39
1507.41
1475.55
1445.05
1416.19
1389.23
1364.31
1341.51
1320.77
1302
1284.96
1269.63
1255.68
1243.27
1231.71
1221.12
1211.16
1202.04
1193.45
1185.37
1177.61
1170.19
1163.19
1156.54
1150.2
1144.11
1138.33
1132.91
1127.81
1122.93
1118.3
1113.91
1109.77
1105.76
1101.87
1098.13
1094.58
1091.18
1087.9
1084.76
1081.79
1078.98
1076.28
1073.71
1071.27
1068.9
1066.67
1064.48
1062.45
1060.52
1058.71
1056.91
1055.26
1053.51
1051.89
1049.52
4230.31
2900.72
2863.76
2890.03
2895.47
2901.03
2901.75
2900.88
2898.48
2895.5
2892.76
2890.23
2887.44
2884
2879.35
2873.34
2865.83
2856.79
2846.32
2834.61
2821.99
2808.79
2795.32
2781.8
2768.36
2755
2741.65
2728.26
2714.78
2701.14
2687.27
2673.05
2658.31
2642.87
2626.51
2609.06
2590.33
2570.14
2548.27
2524.47
2498.47
2469.95
2438.53
2403.89
2365.95
2325.2
2282.67
2239.48
2196.74
2154.97
2113.8
2073.19
2033.71
1995
1956.89
1918.98
1880.97
1843.01
1805.28
1767.69
1730.24
1692.95
1655.81
1618.97
1582.84
1547.89
1514.4
1482.45
1452.07
1423.32
1396.31
1371.16
1347.95
1326.71
1307.39
1289.82
1273.96
1259.5
1246.56
1234.46
1223.26
1212.71
1203.03
1193.96
1185.5
1177.52
1170.05
1162.99
1156.23
1149.75
1143.59
1137.84
1132.46
1127.34
1122.42
1117.73
1113.25
1108.97
1104.82
1100.84
1097.08
1093.56
1090.17
1086.9
1083.77
1080.8
1077.97
1075.3
1072.78
1070.4
1068.07
1065.89
1063.73
1061.69
1059.73
1057.85
1055.97
1054.25
1052.44
1050.8
1048.42
4231.97
2901.19
2861.96
2888.39
2894.2
2899.94
2900.88
2900.19
2897.91
2895.03
2892.4
2889.97
2887.27
2883.92
2879.33
2873.34
2865.84
2856.79
2846.29
2834.55
2821.91
2808.7
2795.23
2781.71
2768.28
2754.93
2741.57
2728.16
2714.63
2700.94
2686.99
2672.67
2657.84
2642.29
2625.82
2608.25
2589.39
2569.06
2547.03
2523.07
2496.89
2468.2
2436.65
2402
2364.31
2324.2
2282.75
2240.79
2199.3
2158.35
2117.92
2078.61
2040.15
2001.94
1963.96
1926.04
1888.13
1850.42
1812.98
1775.77
1738.82
1702.18
1665.79
1629.62
1593.74
1558.38
1523.88
1490.64
1459.06
1429.35
1401.63
1375.92
1352.2
1330.46
1310.65
1292.64
1276.39
1261.51
1247.96
1235.4
1223.95
1213.29
1203.58
1194.59
1186.42
1178.73
1171.36
1164.21
1157.27
1150.68
1144.58
1138.92
1133.54
1128.37
1123.41
1118.68
1114.1
1109.68
1105.4
1101.35
1097.55
1093.92
1090.38
1086.99
1083.76
1080.69
1077.78
1075.02
1072.41
1069.9
1067.46
1065.18
1062.95
1060.84
1058.83
1056.94
1055.03
1053.31
1051.49
1049.88
1047.61
4233.53
2901.7
2860.16
2886.75
2892.91
2898.85
2900.01
2899.48
2897.34
2894.56
2892.04
2889.71
2887.11
2883.83
2879.3
2873.34
2865.85
2856.78
2846.25
2834.49
2821.83
2808.61
2795.14
2781.63
2768.21
2754.86
2741.5
2728.07
2714.51
2700.76
2686.73
2672.32
2657.39
2641.73
2625.16
2607.48
2588.49
2568.02
2545.85
2521.74
2495.42
2466.59
2434.96
2400.41
2363.12
2323.74
2283.26
2242.51
2201.99
2161.89
2122.7
2084.41
2046.12
2008.07
1970.36
1933.05
1895.95
1858.78
1821.6
1784.42
1747.27
1710.37
1673.89
1637.98
1602.73
1568.12
1534.19
1501.12
1469.18
1438.67
1409.88
1383
1358.18
1335.47
1314.81
1296.06
1279.13
1263.71
1250.11
1237.84
1226.6
1215.9
1205.92
1196.51
1187.78
1179.53
1171.68
1164.16
1157.09
1150.55
1144.58
1138.93
1133.45
1128.15
1123.13
1118.35
1113.73
1109.31
1105.11
1101.16
1097.35
1093.66
1090.11
1086.76
1083.6
1080.61
1077.76
1075.03
1072.39
1069.87
1067.45
1065.2
1062.96
1060.81
1058.74
1056.79
1054.83
1053.03
1051.09
1049.34
1046.88
4235.08
2902.25
2858.36
2885.08
2891.61
2897.75
2899.12
2898.76
2896.76
2894.08
2891.67
2889.45
2886.94
2883.73
2879.26
2873.34
2865.85
2856.77
2846.21
2834.42
2821.74
2808.52
2795.05
2781.56
2768.15
2754.8
2741.44
2728
2714.41
2700.6
2686.5
2672
2656.96
2641.21
2624.53
2606.73
2587.63
2567.04
2544.74
2520.49
2494.04
2465.12
2433.48
2399.08
2362.26
2323.77
2284.23
2244.5
2204.93
2165.97
2127.79
2089.65
2051.67
2014.51
1977.85
1941.54
1905.14
1868.39
1831.57
1794.74
1757.89
1720.99
1684.07
1647.36
1611.24
1576.08
1542.05
1509.2
1477.59
1447.32
1418.54
1391.42
1366.12
1342.78
1321.43
1301.99
1284.39
1268.38
1253.99
1240.61
1228.42
1217.08
1206.59
1196.79
1187.82
1179.52
1171.9
1164.71
1157.95
1151.59
1145.5
1139.58
1133.87
1128.41
1123.23
1118.28
1113.52
1109.02
1104.8
1100.79
1096.87
1093.04
1089.4
1086
1082.8
1079.76
1076.86
1074.02
1071.26
1068.66
1066.2
1063.9
1061.59
1059.42
1057.39
1055.51
1053.66
1052.02
1050.21
1048.6
1046.35
4236.48
2902.84
2856.58
2883.41
2890.3
2896.65
2898.22
2898.01
2896.17
2893.6
2891.3
2889.19
2886.77
2883.64
2879.22
2873.32
2865.84
2856.75
2846.17
2834.35
2821.66
2808.44
2794.97
2781.49
2768.09
2754.75
2741.4
2727.95
2714.32
2700.46
2686.29
2671.71
2656.57
2640.71
2623.93
2606.02
2586.81
2566.1
2543.69
2519.33
2492.78
2463.8
2432.22
2398.11
2361.84
2324.13
2285.56
2246.77
2208.26
2170.27
2132.46
2094.81
2058.15
2021.96
1985.78
1949.54
1913.12
1876.54
1840.04
1803.66
1767.37
1731.15
1694.95
1658.72
1622.58
1586.78
1551.66
1517.63
1485.04
1454.08
1424.85
1397.39
1371.72
1347.96
1326.07
1306.05
1287.89
1271.41
1256.38
1242.39
1230.12
1218.77
1208.36
1198.65
1189.77
1181.45
1173.64
1166.19
1159.08
1152.3
1145.75
1139.47
1133.6
1128.13
1122.98
1118.06
1113.39
1108.99
1104.83
1100.83
1096.94
1093.21
1089.68
1086.37
1083.22
1080.19
1077.24
1074.33
1071.52
1068.89
1066.42
1064.09
1061.83
1059.74
1057.8
1055.99
1054.16
1052.5
1050.68
1049.04
1046.71
4237.89
2903.44
2854.83
2881.74
2888.99
2895.53
2897.28
2897.25
2895.57
2893.11
2890.93
2888.92
2886.59
2883.53
2879.17
2873.31
2865.83
2856.72
2846.11
2834.27
2821.57
2808.35
2794.89
2781.42
2768.03
2754.71
2741.36
2727.91
2714.26
2700.36
2686.12
2671.45
2656.22
2640.26
2623.37
2605.36
2586.04
2565.23
2542.71
2518.25
2491.64
2462.66
2431.19
2397.42
2361.85
2324.86
2287.21
2249.41
2211.83
2174.46
2137.25
2100.85
2065.02
2028.81
1992.67
1956.59
1920.63
1884.58
1848.35
1812.07
1775.8
1739.63
1703.67
1667.99
1632.63
1597.59
1562.97
1528.95
1495.82
1463.89
1433.47
1404.8
1378.05
1353.33
1330.63
1309.9
1291.06
1273.97
1258.99
1245.61
1233.26
1221.46
1210.53
1200.28
1190.84
1182
1173.8
1166.12
1158.89
1151.95
1145.26
1138.94
1133.16
1127.81
1122.73
1117.85
1113.16
1108.67
1104.35
1100.17
1096.16
1092.42
1088.93
1085.62
1082.42
1079.31
1076.28
1073.36
1070.62
1068.08
1065.63
1063.33
1061.09
1058.98
1056.97
1055.06
1053.1
1051.33
1049.39
1047.66
1045.24
4239.15
2904.05
2853.1
2880.06
2887.68
2894.41
2896.33
2896.47
2894.96
2892.62
2890.56
2888.65
2886.41
2883.43
2879.12
2873.28
2865.81
2856.69
2846.05
2834.19
2821.48
2808.26
2794.82
2781.36
2767.98
2754.68
2741.34
2727.88
2714.21
2700.28
2685.97
2671.22
2655.9
2639.84
2622.85
2604.74
2585.32
2564.41
2541.8
2517.28
2490.64
2461.7
2430.45
2397.12
2362.14
2325.96
2289.18
2252.29
2215.47
2178.76
2142.59
2107.02
2071.09
2035.19
1999.82
1964.69
1929.68
1894.34
1858.57
1822.6
1786.46
1750.13
1713.69
1677.35
1641.43
1606.19
1571.76
1538.19
1505.55
1473.94
1443.55
1414.59
1387.28
1361.83
1338.36
1316.88
1297.31
1279.38
1262.94
1247.96
1234.74
1222.5
1211.42
1201.09
1191.76
1183.12
1175.17
1167.6
1160.21
1153.05
1146.28
1140.06
1134.4
1129.1
1123.98
1119.05
1114.24
1109.58
1105.08
1100.78
1096.74
1092.97
1089.39
1085.92
1082.49
1079.16
1075.98
1072.99
1070.22
1067.62
1065.1
1062.72
1060.4
1058.2
1056.12
1054.19
1052.23
1050.47
1048.54
1046.84
1044.42
4240.42
2904.67
2851.4
2878.37
2886.38
2893.28
2895.37
2895.69
2894.34
2892.12
2890.18
2888.37
2886.23
2883.32
2879.06
2873.25
2865.78
2856.65
2845.98
2834.1
2821.38
2808.17
2794.74
2781.3
2767.94
2754.65
2741.32
2727.87
2714.19
2700.21
2685.86
2671.04
2655.62
2639.47
2622.38
2604.17
2584.66
2563.66
2540.99
2516.42
2489.78
2460.94
2429.94
2397.15
2362.75
2327.35
2291.44
2255.35
2219.25
2183.45
2148.12
2112.66
2077.16
2042.52
2008.03
1973.43
1938.59
1903.4
1867.89
1832.32
1796.75
1761.07
1725.2
1689.14
1653
1617.03
1581.57
1547
1513.62
1481.6
1451
1421.89
1394.34
1368.53
1344.54
1322.43
1302.25
1283.93
1267.22
1251.63
1238.08
1225.64
1214.41
1203.85
1194.13
1184.96
1176.35
1168.19
1160.41
1153.09
1146.47
1140.44
1134.74
1129.21
1123.88
1118.74
1113.74
1108.91
1104.29
1099.99
1096.03
1092.34
1088.75
1085.2
1081.74
1078.45
1075.35
1072.46
1069.72
1067.08
1064.49
1062.02
1059.62
1057.3
1055.13
1053.12
1051.08
1049.26
1047.26
1045.48
1042.96
4241.51
2905.29
2849.76
2876.69
2885.08
2892.15
2894.4
2894.91
2893.71
2891.63
2889.8
2888.09
2886.04
2883.2
2879
2873.21
2865.75
2856.6
2845.91
2834.01
2821.29
2808.09
2794.67
2781.25
2767.91
2754.63
2741.33
2727.88
2714.19
2700.18
2685.78
2670.89
2655.39
2639.14
2621.96
2603.67
2584.07
2563
2540.27
2515.69
2489.09
2460.41
2429.8
2397.44
2363.7
2329.05
2293.91
2258.57
2223.3
2188.29
2153.32
2118.35
2084.18
2050.26
2015.72
1981.07
1946.27
1911.39
1876.25
1840.91
1805.53
1770.11
1734.69
1699.31
1663.98
1628.74
1593.68
1558.98
1524.94
1491.87
1460.07
1429.79
1401.23
1374.53
1349.76
1326.93
1306.03
1287.02
1270.27
1254.95
1240.92
1227.85
1216
1204.92
1194.76
1185.26
1176.57
1168.53
1161.15
1154.26
1147.76
1141.54
1135.48
1129.61
1124
1118.65
1113.52
1108.65
1104.06
1099.78
1095.77
1091.97
1088.23
1084.56
1081.01
1077.67
1074.56
1071.64
1068.85
1066.11
1063.43
1060.9
1058.47
1056.15
1054.01
1052.05
1050.05
1048.26
1046.28
1044.59
1042.21
4242.6
2905.89
2848.18
2875.01
2883.78
2891.01
2893.43
2894.13
2893.08
2891.14
2889.42
2887.82
2885.85
2883.08
2878.93
2873.16
2865.7
2856.54
2845.83
2833.91
2821.19
2808
2794.61
2781.21
2767.89
2754.63
2741.34
2727.89
2714.21
2700.18
2685.73
2670.78
2655.21
2638.87
2621.6
2603.22
2583.55
2562.42
2539.67
2515.1
2488.58
2460.12
2429.9
2398
2364.9
2330.98
2296.6
2262.03
2227.51
2193.07
2158.66
2124.79
2091.28
2057.04
2022.77
1988.78
1954.85
1920.83
1886.27
1851.22
1815.92
1780.37
1744.61
1708.81
1673.2
1638.02
1603.37
1569.28
1535.83
1503.14
1471.39
1440.78
1411.59
1384.08
1358.47
1334.87
1313.19
1293.22
1274.7
1257.97
1243.25
1229.94
1218.07
1207.01
1196.92
1187.41
1178.65
1170.42
1162.69
1155.37
1148.34
1141.59
1135.18
1129.13
1123.42
1118.05
1113.03
1108.37
1103.95
1099.73
1095.68
1091.8
1088.05
1084.47
1081.09
1077.9
1074.85
1071.92
1069.06
1066.24
1063.52
1060.96
1058.47
1056.06
1053.81
1051.71
1049.58
1047.65
1045.53
1043.66
1041.04
4243.47
2906.48
2846.66
2873.36
2882.49
2889.87
2892.46
2893.34
2892.45
2890.65
2889.05
2887.54
2885.66
2882.95
2878.85
2873.11
2865.65
2856.47
2845.74
2833.81
2821.09
2807.92
2794.55
2781.17
2767.87
2754.64
2741.36
2727.93
2714.24
2700.2
2685.72
2670.7
2655.07
2638.66
2621.31
2602.85
2583.13
2561.97
2539.2
2514.65
2488.26
2460.13
2430.22
2398.85
2366.38
2333.15
2299.48
2265.65
2231.79
2197.94
2164.4
2131.24
2097.63
2063.9
2030.87
1997.7
1964.35
1930.65
1896.43
1861.79
1826.97
1791.93
1756.58
1720.88
1684.96
1649.05
1613.48
1578.58
1544.62
1511.74
1479.99
1449.41
1420.11
1392.34
1366.25
1342
1319.66
1299.25
1280.64
1263.47
1248.02
1233.97
1221.43
1209.68
1198.84
1188.63
1179.26
1170.57
1162.63
1155.19
1148.09
1141.29
1134.91
1128.98
1123.34
1118.02
1113.05
1108.4
1103.92
1099.57
1095.33
1091.22
1087.28
1083.59
1080.19
1076.98
1073.86
1070.8
1067.79
1064.88
1062.1
1059.49
1056.99
1054.63
1052.49
1050.55
1048.56
1046.79
1044.8
1043.07
1040.62
4244.21
2907.02
2845.23
2871.74
2881.21
2888.73
2891.47
2892.54
2891.8
2890.15
2888.68
2887.26
2885.47
2882.82
2878.76
2873.04
2865.58
2856.39
2845.64
2833.7
2820.98
2807.83
2794.49
2781.14
2767.87
2754.66
2741.39
2727.97
2714.29
2700.25
2685.74
2670.68
2654.97
2638.5
2621.09
2602.58
2582.81
2561.61
2538.82
2514.36
2488.22
2460.32
2430.79
2399.94
2368.08
2335.52
2302.56
2269.4
2236.18
2203.08
2170.26
2137.3
2104.19
2071.8
2039.32
2006.12
1972.74
1939.04
1905.08
1870.75
1836.22
1801.6
1766.82
1731.86
1696.74
1661.5
1626.23
1591.12
1556.45
1522.53
1489.63
1457.99
1427.78
1399.19
1372.38
1347.43
1324.38
1303.19
1283.98
1266.44
1250.53
1235.92
1222.92
1210.84
1199.87
1189.67
1180.56
1172.08
1164.21
1156.68
1149.4
1142.55
1136.25
1130.36
1124.68
1119.25
1114.13
1109.27
1104.61
1100.17
1095.86
1091.69
1087.71
1084
1080.53
1077.21
1073.96
1070.78
1067.73
1064.82
1062.08
1059.56
1057.19
1054.94
1052.84
1050.83
1048.72
1046.81
1044.7
1042.84
1040.2
4244.84
2907.52
2843.89
2870.16
2879.94
2887.59
2890.48
2891.72
2891.15
2889.66
2888.31
2886.98
2885.27
2882.68
2878.67
2872.97
2865.51
2856.3
2845.53
2833.58
2820.88
2807.75
2794.44
2781.12
2767.88
2754.68
2741.44
2728.04
2714.36
2700.31
2685.79
2670.7
2654.94
2638.39
2620.92
2602.36
2582.54
2561.32
2538.61
2514.33
2488.35
2460.7
2431.59
2401.26
2370
2338.09
2305.78
2273.28
2240.74
2208.34
2175.94
2143.48
2111.52
2079.65
2046.77
2013.83
1980.97
1947.99
1914.75
1880.83
1846.42
1811.74
1776.78
1741.63
1706.47
1671.49