/*--------------------------------*- C++ -*----------------------------------*\
| =========                 |                                                 |
| \\      /  F ield         | OpenFOAM: The Open Source CFD Toolbox           |
|  \\    /   O peration     | Version:  2412                                  |
|   \\  /    A nd           | Website:  www.openfoam.com                      |
|    \\/     M anipulation  |                                                 |
\*---------------------------------------------------------------------------*/
FoamFile
{
    version     2.0;
    format      ascii;
    arch        "LSB;label=32;scalar=64";
    class       volVectorField;
    location    "0.064";
    object      U;
}
// * * * * * * * * * * * * * * * * * * * * * * * * * * * * * * * * * * * * * //

dimensions      [0 1 -1 0 0 0 0];

internalField   nonuniform List<vector> 
9771
(
(292.705 121.438 0)
(276.754 1.53445 0)
(255.81 -5.37013 0)
(241.423 -6.63541 0)
(233.118 -8.05994 0)
(229.18 -8.87187 0)
(227.378 -9.73431 0)
(226.244 -10.3787 0)
(225.332 -10.9571 0)
(224.453 -11.4263 0)
(293.065 121.423 0)
(277.243 1.52375 0)
(255.896 -5.39715 0)
(241.456 -6.65173 0)
(233.139 -8.0733 0)
(229.194 -8.88423 0)
(227.388 -9.74601 0)
(226.252 -10.3901 0)
(225.34 -10.9687 0)
(224.462 -11.438 0)
(293.43 121.388 0)
(277.71 1.45595 0)
(255.972 -5.43095 0)
(241.489 -6.66596 0)
(233.163 -8.08424 0)
(229.21 -8.8945 0)
(227.399 -9.75665 0)
(226.261 -10.4007 0)
(225.349 -10.9797 0)
(224.471 -11.4493 0)
(293.771 121.35 0)
(278.247 1.43949 0)
(256.051 -5.45611 0)
(241.522 -6.68215 0)
(233.184 -8.09748 0)
(229.224 -8.90674 0)
(227.408 -9.7681 0)
(226.269 -10.4118 0)
(225.357 -10.991 0)
(224.479 -11.4608 0)
(294.052 121.311 0)
(278.752 1.36299 0)
(256.121 -5.48998 0)
(241.556 -6.69559 0)
(233.208 -8.10797 0)
(229.24 -8.91683 0)
(227.42 -9.7787 0)
(226.278 -10.4224 0)
(225.366 -11.002 0)
(224.488 -11.472 0)
(294.306 121.294 0)
(279.361 1.32586 0)
(256.195 -5.51304 0)
(241.588 -6.71235 0)
(233.23 -8.1216 0)
(229.254 -8.92935 0)
(227.43 -9.79029 0)
(226.287 -10.4336 0)
(225.374 -11.0135 0)
(224.497 -11.4837 0)
(294.505 121.28 0)
(279.939 1.23907 0)
(256.257 -5.54795 0)
(241.623 -6.72481 0)
(233.255 -8.13169 0)
(229.271 -8.93944 0)
(227.441 -9.80107 0)
(226.296 -10.4445 0)
(225.383 -11.0247 0)
(224.506 -11.4951 0)
(223.68 -11.8908 0)
(222.908 -12.2157 0)
(222.173 -12.4582 0)
(221.459 -12.6345 0)
(220.749 -12.743 0)
(220.028 -12.8065 0)
(219.281 -12.8455 0)
(218.49 -12.8942 0)
(217.621 -12.9806 0)
(216.626 -13.1403 0)
(215.49 -13.3968 0)
(214.267 -13.7481 0)
(213.009 -14.1478 0)
(211.776 -14.5414 0)
(210.605 -14.8937 0)
(209.512 -15.1964 0)
(208.496 -15.452 0)
(207.546 -15.6748 0)
(206.645 -15.8749 0)
(205.784 -16.0638 0)
(204.96 -16.2435 0)
(204.169 -16.4196 0)
(294.748 121.289 0)
(280.639 1.17201 0)
(256.326 -5.56814 0)
(241.655 -6.74265 0)
(233.276 -8.14593 0)
(229.285 -8.95231 0)
(227.452 -9.81283 0)
(226.305 -10.4558 0)
(225.392 -11.0363 0)
(224.515 -11.507 0)
(223.69 -11.9032 0)
(222.919 -12.2289 0)
(222.185 -12.4724 0)
(221.473 -12.6502 0)
(220.764 -12.7605 0)
(220.044 -12.8262 0)
(219.298 -12.8676 0)
(218.507 -12.9194 0)
(217.635 -13.0101 0)
(216.635 -13.1751 0)
(215.493 -13.4371 0)
(214.267 -13.7926 0)
(213.007 -14.1952 0)
(211.774 -14.5902 0)
(210.604 -14.9429 0)
(209.513 -15.2457 0)
(208.5 -15.5015 0)
(207.552 -15.7249 0)
(206.652 -15.9258 0)
(205.794 -16.1157 0)
(204.972 -16.2965 0)
(204.183 -16.4739 0)
(203.423 -16.6461 0)
(202.689 -16.8169 0)
(201.977 -16.9854 0)
(201.285 -17.1556 0)
(200.611 -17.3257 0)
(199.955 -17.4973 0)
(294.867 121.258 0)
(281.32 1.05904 0)
(256.378 -5.60384 0)
(241.691 -6.75381 0)
(233.302 -8.15553 0)
(229.302 -8.96235 0)
(227.463 -9.82376 0)
(226.315 -10.4668 0)
(225.401 -11.0477 0)
(224.524 -11.5186 0)
(223.7 -11.9156 0)
(222.931 -12.2419 0)
(222.198 -12.4866 0)
(221.487 -12.6657 0)
(220.78 -12.7779 0)
(220.062 -12.8458 0)
(219.317 -12.8896 0)
(218.526 -12.9443 0)
(217.652 -13.0393 0)
(216.646 -13.2102 0)
(215.501 -13.4778 0)
(214.27 -13.8376 0)
(213.006 -14.2431 0)
(211.773 -14.6395 0)
(210.603 -14.9927 0)
(209.514 -15.2955 0)
(208.503 -15.5514 0)
(207.558 -15.7754 0)
(206.659 -15.9775 0)
(205.801 -16.1685 0)
(204.981 -16.3506 0)
(204.194 -16.5293 0)
(203.436 -16.703 0)
(202.704 -16.8755 0)
(201.994 -17.0458 0)
(201.304 -17.2179 0)
(200.633 -17.3901 0)
(199.979 -17.5638 0)
(199.342 -17.7366 0)
(295.116 121.312 0)
(282.09 0.980786 0)
(256.441 -5.62202 0)
(241.722 -6.77358 0)
(233.323 -8.171 0)
(229.316 -8.97618 0)
(227.474 -9.83576 0)
(226.323 -10.4784 0)
(225.41 -11.0595 0)
(224.533 -11.5305 0)
(223.71 -11.9281 0)
(222.941 -12.2551 0)
(222.21 -12.5009 0)
(221.501 -12.6815 0)
(220.796 -12.7955 0)
(220.079 -12.8656 0)
(219.335 -12.9121 0)
(218.543 -12.9702 0)
(217.666 -13.0697 0)
(216.654 -13.2461 0)
(215.504 -13.5194 0)
(214.269 -13.8832 0)
(213.005 -14.2915 0)
(211.771 -14.6891 0)
(210.603 -15.0427 0)
(209.516 -15.3454 0)
(208.508 -15.6016 0)
(207.564 -15.8262 0)
(206.667 -16.0292 0)
(205.812 -16.2212 0)
(204.994 -16.4043 0)
(204.209 -16.5843 0)
(203.453 -16.7595 0)
(202.724 -16.9335 0)
(202.016 -17.1056 0)
(201.328 -17.2796 0)
(200.659 -17.4538 0)
(200.008 -17.6295 0)
(199.374 -17.8045 0)
(295.15 121.365 0)
(282.628 0.82962 0)
(256.468 -5.67838 0)
(241.758 -6.78168 0)
(233.35 -8.17873 0)
(229.334 -8.98431 0)
(227.486 -9.8462 0)
(226.333 -10.489 0)
(225.419 -11.0708 0)
(224.543 -11.5421 0)
(223.72 -11.9406 0)
(222.952 -12.2685 0)
(222.222 -12.5154 0)
(221.515 -12.6975 0)
(220.811 -12.8134 0)
(220.096 -12.8854 0)
(219.353 -12.9336 0)
(218.561 -12.9935 0)
(217.682 -13.0964 0)
(216.664 -13.2784 0)
(215.511 -13.5574 0)
(214.271 -13.9264 0)
(213.004 -14.3387 0)
(211.77 -14.7386 0)
(210.602 -15.0934 0)
(209.517 -15.3962 0)
(208.512 -15.6522 0)
(207.57 -15.8778 0)
(206.674 -16.0824 0)
(205.82 -16.2757 0)
(205.003 -16.46 0)
(204.22 -16.6414 0)
(203.467 -16.8182 0)
(202.739 -16.994 0)
(202.033 -17.1681 0)
(201.348 -17.3442 0)
(200.681 -17.5207 0)
(200.033 -17.6989 0)
(199.401 -17.8765 0)
(318.27 98.3722 0)
(283.637 -5.85812 0)
(256.958 -6.78313 0)
(242.702 -7.18836 0)
(234.049 -8.5369 0)
(229.747 -9.30701 0)
(227.754 -10.1311 0)
(226.535 -10.7445 0)
(225.593 -11.3115 0)
(224.7 -11.7705 0)
(223.876 -12.1659 0)
(223.113 -12.4917 0)
(222.392 -12.7439 0)
(221.697 -12.9366 0)
(221.006 -13.0698 0)
(220.299 -13.1641 0)
(219.551 -13.2415 0)
(218.73 -13.3413 0)
(217.794 -13.4989 0)
(216.717 -13.7456 0)
(215.514 -14.0837 0)
(214.244 -14.4942 0)
(212.973 -14.9255 0)
(211.753 -15.327 0)
(210.608 -15.6743 0)
(209.545 -15.9673 0)
(208.556 -16.2155 0)
(207.633 -16.4384 0)
(206.759 -16.6449 0)
(205.927 -16.841 0)
(205.131 -17.0299 0)
(204.367 -17.2178 0)
(203.633 -17.4032 0)
(202.925 -17.589 0)
(202.239 -17.7749 0)
(201.574 -17.964 0)
(200.929 -18.1548 0)
(200.303 -18.3483 0)
(199.695 -18.5425 0)
(199.105 -18.7385 0)
(198.532 -18.9351 0)
(197.973 -19.1335 0)
(197.427 -19.3332 0)
(196.891 -19.5351 0)
(196.366 -19.7387 0)
(195.848 -19.9447 0)
(195.338 -20.1529 0)
(194.835 -20.3636 0)
(194.341 -20.5762 0)
(193.856 -20.7907 0)
(193.379 -21.008 0)
(192.909 -21.2305 0)
(192.445 -21.4597 0)
(191.987 -21.6957 0)
(191.536 -21.9363 0)
(191.092 -22.1813 0)
(190.656 -22.432 0)
(190.226 -22.6926 0)
(189.803 -22.9649 0)
(189.389 -23.2492 0)
(188.985 -23.542 0)
(188.593 -23.8409 0)
(188.215 -24.1422 0)
(187.852 -24.4456 0)
(187.506 -24.7506 0)
(187.178 -25.0605 0)
(186.867 -25.377 0)
(186.575 -25.7023 0)
(186.3 -26.0348 0)
(186.043 -26.3735 0)
(185.803 -26.7156 0)
(185.583 -27.0604 0)
(185.379 -27.4061 0)
(185.194 -27.7519 0)
(185.025 -28.0961 0)
(184.875 -28.4386 0)
(184.74 -28.7776 0)
(184.624 -29.1141 0)
(184.519 -29.4462 0)
(271.602 66.0314 0)
(265.781 -10.8759 0)
(255.994 -8.12517 0)
(244.241 -8.09197 0)
(235.159 -9.4443 0)
(230.43 -10.0595 0)
(228.213 -10.7401 0)
(226.894 -11.2737 0)
(225.909 -11.7951 0)
(225 -12.2194 0)
(224.178 -12.5979 0)
(223.428 -12.9129 0)
(222.729 -13.1713 0)
(222.06 -13.3817 0)
(221.393 -13.5486 0)
(220.701 -13.6908 0)
(219.943 -13.8394 0)
(219.064 -14.0435 0)
(218.018 -14.3319 0)
(216.833 -14.7062 0)
(215.552 -15.1506 0)
(214.223 -15.6194 0)
(212.929 -16.0644 0)
(211.717 -16.4496 0)
(210.602 -16.7691 0)
(209.583 -17.0399 0)
(208.637 -17.2789 0)
(207.741 -17.4931 0)
(206.895 -17.6939 0)
(206.1 -17.8923 0)
(205.345 -18.0885 0)
(204.623 -18.2871 0)
(203.931 -18.4862 0)
(203.266 -18.6877 0)
(202.626 -18.8912 0)
(202.009 -19.0989 0)
(201.415 -19.3094 0)
(200.842 -19.5239 0)
(200.288 -19.7411 0)
(199.753 -19.9618 0)
(199.238 -20.1848 0)
(198.741 -20.4108 0)
(198.262 -20.6394 0)
(197.8 -20.8719 0)
(197.352 -21.1086 0)
(196.916 -21.3504 0)
(196.492 -21.597 0)
(196.08 -21.8474 0)
(195.681 -22.1002 0)
(195.296 -22.3559 0)
(194.925 -22.6159 0)
(194.57 -22.8804 0)
(194.235 -23.1452 0)
(193.921 -23.4063 0)
(193.628 -23.6639 0)
(193.354 -23.9248 0)
(193.096 -24.1953 0)
(192.853 -24.4773 0)
(192.627 -24.7652 0)
(192.419 -25.0527 0)
(192.229 -25.3353 0)
(192.059 -25.6129 0)
(191.906 -25.8862 0)
(191.77 -26.1575 0)
(191.649 -26.4286 0)
(191.545 -26.7024 0)
(191.456 -26.9806 0)
(191.383 -27.2618 0)
(191.331 -27.5437 0)
(191.298 -27.8216 0)
(191.276 -28.0963 0)
(191.269 -28.3622 0)
(191.277 -28.6223 0)
(191.301 -28.8766 0)
(191.335 -29.1243 0)
(191.385 -29.3645 0)
(191.437 -29.5982 0)
(191.507 -29.8235 0)
(191.575 -30.0434 0)
(241.914 38.6633 0)
(256.811 -14.5332 0)
(254.661 -9.11992 0)
(245.92 -8.41333 0)
(236.266 -10.379 0)
(231.06 -10.8874 0)
(228.677 -11.4078 0)
(227.263 -11.8479 0)
(226.216 -12.3062 0)
(225.276 -12.6832 0)
(224.445 -13.0315 0)
(223.698 -13.327 0)
(223.014 -13.5847 0)
(222.365 -13.8079 0)
(221.717 -14.0077 0)
(221.029 -14.2067 0)
(220.232 -14.4541 0)
(219.255 -14.7927 0)
(218.119 -15.2267 0)
(216.837 -15.7282 0)
(215.478 -16.2571 0)
(214.136 -16.757 0)
(212.872 -17.189 0)
(211.713 -17.5425 0)
(210.655 -17.8335 0)
(209.674 -18.0849 0)
(208.759 -18.3068 0)
(207.916 -18.513 0)
(207.126 -18.7078 0)
(206.377 -18.9056 0)
(205.662 -19.1071 0)
(204.979 -19.3119 0)
(204.325 -19.5197 0)
(203.698 -19.7316 0)
(203.097 -19.9467 0)
(202.524 -20.166 0)
(201.977 -20.3878 0)
(201.455 -20.6132 0)
(200.957 -20.8415 0)
(200.482 -21.0736 0)
(200.027 -21.3082 0)
(199.593 -21.5455 0)
(199.18 -21.7848 0)
(198.788 -22.0272 0)
(198.417 -22.2723 0)
(198.066 -22.5196 0)
(197.736 -22.7684 0)
(197.425 -23.0195 0)
(197.129 -23.275 0)
(196.847 -23.5377 0)
(196.578 -23.8073 0)
(196.325 -24.0787 0)
(196.091 -24.345 0)
(195.876 -24.6043 0)
(195.68 -24.8616 0)
(195.502 -25.1242 0)
(195.342 -25.3932 0)
(195.203 -25.6624 0)
(195.087 -25.9235 0)
(194.993 -26.1738 0)
(194.92 -26.4147 0)
(194.864 -26.6497 0)
(194.825 -26.8803 0)
(194.799 -27.1086 0)
(194.778 -27.3319 0)
(194.77 -27.5489 0)
(194.778 -27.7587 0)
(194.798 -27.961 0)
(194.836 -28.1551 0)
(194.884 -28.3401 0)
(194.936 -28.5165 0)
(194.998 -28.6832 0)
(195.059 -28.8422 0)
(195.133 -28.9904 0)
(195.204 -29.1323 0)
(195.284 -29.2626 0)
(195.354 -29.3881 0)
(195.433 -29.502 0)
(195.502 -29.6118 0)
(229.996 16.9804 0)
(253.47 -20.5477 0)
(255.038 -11.061 0)
(247.384 -9.33607 0)
(237.416 -11.2706 0)
(231.721 -11.7179 0)
(229.155 -12.1295 0)
(227.648 -12.4711 0)
(226.539 -12.848 0)
(225.563 -13.1647 0)
(224.715 -13.4703 0)
(223.962 -13.7381 0)
(223.283 -13.988 0)
(222.642 -14.2201 0)
(221.997 -14.4543 0)
(221.281 -14.7282 0)
(220.401 -15.0999 0)
(219.353 -15.5931 0)
(218.117 -16.1741 0)
(216.764 -16.788 0)
(215.39 -17.3694 0)
(214.081 -17.8735 0)
(212.873 -18.2779 0)
(211.772 -18.5984 0)
(210.761 -18.8611 0)
(209.83 -19.0888 0)
(208.972 -19.294 0)
(208.171 -19.4897 0)
(207.414 -19.6849 0)
(206.696 -19.8834 0)
(206.014 -20.0866 0)
(205.367 -20.2927 0)
(204.752 -20.5023 0)
(204.167 -20.7169 0)
(203.61 -20.9353 0)
(203.083 -21.1576 0)
(202.583 -21.382 0)
(202.112 -21.6086 0)
(201.667 -21.8366 0)
(201.248 -22.0665 0)
(200.853 -22.2971 0)
(200.481 -22.5281 0)
(200.131 -22.7592 0)
(199.803 -22.9915 0)
(199.498 -23.2234 0)
(199.218 -23.4512 0)
(198.964 -23.6727 0)
(198.733 -23.8913 0)
(198.524 -24.1122 0)
(198.332 -24.3379 0)
(198.157 -24.5647 0)
(197.997 -24.7872 0)
(197.851 -25.0039 0)
(197.715 -25.2183 0)
(197.589 -25.4351 0)
(197.473 -25.6558 0)
(197.372 -25.8751 0)
(197.288 -26.0864 0)
(197.22 -26.2862 0)
(197.172 -26.4769 0)
(197.138 -26.6594 0)
(197.109 -26.8332 0)
(197.094 -27.0027 0)
(197.088 -27.1648 0)
(197.085 -27.3183 0)
(197.085 -27.4618 0)
(197.093 -27.5945 0)
(197.108 -27.7165 0)
(197.13 -27.8291 0)
(197.155 -27.933 0)
(197.178 -28.0292 0)
(197.198 -28.1176 0)
(197.209 -28.1981 0)
(197.238 -28.2737 0)
(197.254 -28.3424 0)
(197.276 -28.4057 0)
(197.29 -28.4634 0)
(197.308 -28.517 0)
(197.322 -28.5658 0)
(217.726 1.60661 0)
(248.221 -25.749 0)
(254.702 -12.9029 0)
(248.513 -10.5286 0)
(238.689 -12.2656 0)
(232.46 -12.5777 0)
(229.63 -12.9041 0)
(228.019 -13.1382 0)
(226.854 -13.4214 0)
(225.849 -13.6663 0)
(224.981 -13.9182 0)
(224.219 -14.1509 0)
(223.539 -14.3869 0)
(222.894 -14.6266 0)
(222.227 -14.9049 0)
(221.441 -15.2729 0)
(220.495 -15.7903 0)
(219.334 -16.4414 0)
(218.017 -17.1598 0)
(216.638 -17.8512 0)
(215.294 -18.455 0)
(214.046 -18.9425 0)
(212.908 -19.3163 0)
(211.872 -19.6083 0)
(210.917 -19.8441 0)
(210.041 -20.0498 0)
(209.227 -20.2414 0)
(208.461 -20.4298 0)
(207.737 -20.623 0)
(207.053 -20.8199 0)
(206.407 -21.0203 0)
(205.797 -21.2237 0)
(205.221 -21.4302 0)
(204.676 -21.6413 0)
(204.161 -21.8554 0)
(203.675 -22.0725 0)
(203.218 -22.2911 0)
(202.789 -22.5109 0)
(202.388 -22.7308 0)
(202.015 -22.951 0)
(201.667 -23.1705 0)
(201.342 -23.3883 0)
(201.039 -23.6037 0)
(200.758 -23.8184 0)
(200.499 -24.0309 0)
(200.263 -24.2359 0)
(200.052 -24.4296 0)
(199.864 -24.6165 0)
(199.697 -24.8033 0)
(199.551 -24.9908 0)
(199.426 -25.1717 0)
(199.319 -25.3414 0)
(199.225 -25.5017 0)
(199.142 -25.658 0)
(199.065 -25.8139 0)
(198.995 -25.9688 0)
(198.931 -26.1186 0)
(198.877 -26.2604 0)
(198.829 -26.3973 0)
(198.791 -26.5234 0)
(198.757 -26.645 0)
(198.727 -26.7634 0)
(198.704 -26.8784 0)
(198.685 -26.9877 0)
(198.666 -27.0901 0)
(198.649 -27.185 0)
(198.636 -27.2723 0)
(198.628 -27.353 0)
(198.624 -27.4274 0)
(198.627 -27.4975 0)
(198.624 -27.5623 0)
(198.617 -27.622 0)
(198.609 -27.6773 0)
(198.616 -27.7329 0)
(198.613 -27.7822 0)
(198.615 -27.83 0)
(198.616 -27.8745 0)
(198.616 -27.9165 0)
(198.617 -27.9565 0)
(209.8 -9.08986 0)
(243.45 -30.0501 0)
(254.471 -15.1545 0)
(249.324 -12.0768 0)
(239.823 -13.3241 0)
(233.163 -13.4523 0)
(230.082 -13.7226 0)
(228.37 -13.8407 0)
(227.155 -14.0207 0)
(226.128 -14.185 0)
(225.243 -14.3761 0)
(224.471 -14.5686 0)
(223.782 -14.7873 0)
(223.117 -15.0393 0)
(222.396 -15.3752 0)
(221.538 -15.8609 0)
(220.471 -16.5324 0)
(219.211 -17.3363 0)
(217.848 -18.1548 0)
(216.488 -18.8874 0)
(215.209 -19.4873 0)
(214.04 -19.9491 0)
(212.977 -20.2962 0)
(212.006 -20.562 0)
(211.117 -20.7785 0)
(210.29 -20.9681 0)
(209.516 -21.1498 0)
(208.784 -21.3331 0)
(208.094 -21.5212 0)
(207.442 -21.7135 0)
(206.828 -21.9084 0)
(206.25 -22.1064 0)
(205.706 -22.3065 0)
(205.196 -22.5092 0)
(204.717 -22.713 0)
(204.27 -22.918 0)
(203.851 -23.1234 0)
(203.461 -23.3286 0)
(203.098 -23.533 0)
(202.762 -23.737 0)
(202.451 -23.9401 0)
(202.163 -24.1407 0)
(201.897 -24.3374 0)
(201.65 -24.5324 0)
(201.422 -24.7264 0)
(201.213 -24.9145 0)
(201.022 -25.0912 0)
(200.851 -25.2588 0)
(200.698 -25.4233 0)
(200.565 -25.5859 0)
(200.453 -25.7399 0)
(200.36 -25.8812 0)
(200.28 -26.0121 0)
(200.212 -26.1376 0)
(200.153 -26.2601 0)
(200.1 -26.3784 0)
(200.054 -26.4899 0)
(200.015 -26.5953 0)
(199.98 -26.6939 0)
(199.948 -26.7855 0)
(199.918 -26.8746 0)
(199.89 -26.9612 0)
(199.867 -27.0458 0)
(199.844 -27.1262 0)
(199.822 -27.2025 0)
(199.801 -27.2741 0)
(199.781 -27.3412 0)
(199.768 -27.4058 0)
(199.756 -27.4659 0)
(199.757 -27.5261 0)
(199.748 -27.5817 0)
(199.739 -27.6351 0)
(199.734 -27.6879 0)
(199.739 -27.7406 0)
(199.737 -27.7901 0)
(199.743 -27.8397 0)
(199.743 -27.8864 0)
(199.754 -27.9334 0)
(199.754 -27.9784 0)
(204.169 -16.3066 0)
(238.553 -32.4406 0)
(253.977 -17.6703 0)
(249.206 -13.7678 0)
(240.695 -14.4071 0)
(233.87 -14.3318 0)
(230.491 -14.583 0)
(228.674 -14.5722 0)
(227.421 -14.6391 0)
(226.385 -14.7159 0)
(225.492 -14.8415 0)
(224.712 -14.9917 0)
(224.006 -15.1944 0)
(223.303 -15.4693 0)
(222.507 -15.8832 0)
(221.538 -16.5041 0)
(220.35 -17.3336 0)
(219.012 -18.2577 0)
(217.644 -19.1344 0)
(216.337 -19.873 0)
(215.141 -20.4519 0)
(214.057 -20.8864 0)
(213.074 -21.2115 0)
(212.172 -21.459 0)
(211.338 -21.663 0)
(210.556 -21.8449 0)
(209.818 -22.0214 0)
(209.121 -22.1995 0)
(208.463 -22.3809 0)
(207.843 -22.5658 0)
(207.259 -22.7529 0)
(206.71 -22.9423 0)
(206.195 -23.1329 0)
(205.715 -23.3239 0)
(205.267 -23.5146 0)
(204.851 -23.7042 0)
(204.463 -23.8924 0)
(204.105 -24.0788 0)
(203.773 -24.2629 0)
(203.467 -24.4454 0)
(203.186 -24.6263 0)
(202.929 -24.8044 0)
(202.693 -24.9777 0)
(202.475 -25.1483 0)
(202.273 -25.3191 0)
(202.085 -25.4891 0)
(201.911 -25.6523 0)
(201.748 -25.8073 0)
(201.598 -25.9574 0)
(201.463 -26.1041 0)
(201.346 -26.2431 0)
(201.245 -26.3705 0)
(201.16 -26.4874 0)
(201.087 -26.5973 0)
(201.024 -26.702 0)
(200.972 -26.8012 0)
(200.926 -26.8934 0)
(200.89 -26.9795 0)
(200.859 -27.0615 0)
(200.826 -27.1362 0)
(200.798 -27.2092 0)
(200.772 -27.2799 0)
(200.747 -27.348 0)
(200.723 -27.4129 0)
(200.702 -27.4752 0)
(200.681 -27.5345 0)
(200.661 -27.5907 0)
(200.648 -27.6458 0)
(200.638 -27.6981 0)
(200.642 -27.7515 0)
(200.636 -27.8004 0)
(200.64 -27.8496 0)
(200.638 -27.8971 0)
(200.652 -27.9443 0)
(200.653 -27.9901 0)
(200.673 -28.034 0)
(200.676 -28.0787 0)
(200.701 -28.1198 0)
(200.716 -28.1639 0)
(200.665 -21.1043 0)
(233.964 -33.5088 0)
(252.752 -20.1953 0)
(248.884 -15.612 0)
(241.527 -15.4555 0)
(234.507 -15.2629 0)
(230.838 -15.4689 0)
(228.929 -15.3175 0)
(227.649 -15.268 0)
(226.612 -15.254 0)
(225.718 -15.3122 0)
(224.929 -15.4207 0)
(224.199 -15.6141 0)
(223.433 -15.9251 0)
(222.551 -16.443 0)
(221.445 -17.2154 0)
(220.148 -18.1835 0)
(218.769 -19.1846 0)
(217.431 -20.0762 0)
(216.2 -20.7943 0)
(215.094 -21.3433 0)
(214.096 -21.7525 0)
(213.189 -22.0614 0)
(212.35 -22.3004 0)
(211.565 -22.5003 0)
(210.824 -22.6811 0)
(210.123 -22.8557 0)
(209.459 -23.0292 0)
(208.832 -23.2035 0)
(208.241 -23.3795 0)
(207.686 -23.5569 0)
(207.166 -23.7351 0)
(206.679 -23.9135 0)
(206.224 -24.0908 0)
(205.801 -24.2667 0)
(205.409 -24.4404 0)
(205.045 -24.6114 0)
(204.709 -24.7795 0)
(204.399 -24.9441 0)
(204.114 -25.1056 0)
(203.853 -25.264 0)
(203.616 -25.4192 0)
(203.4 -25.5687 0)
(203.203 -25.7132 0)
(203.023 -25.8554 0)
(202.858 -25.9977 0)
(202.704 -26.137 0)
(202.559 -26.2708 0)
(202.42 -26.4002 0)
(202.288 -26.5275 0)
(202.166 -26.6514 0)
(202.054 -26.7687 0)
(201.953 -26.8779 0)
(201.863 -26.9799 0)
(201.784 -27.0754 0)
(201.716 -27.1647 0)
(201.657 -27.2469 0)
(201.609 -27.3231 0)
(201.57 -27.3933 0)
(201.534 -27.4587 0)
(201.502 -27.5195 0)
(201.473 -27.5764 0)
(201.448 -27.631 0)
(201.423 -27.6822 0)
(201.402 -27.7315 0)
(201.383 -27.7783 0)
(201.366 -27.8226 0)
(201.351 -27.8645 0)
(201.351 -27.9075 0)
(201.353 -27.9483 0)
(201.347 -27.9859 0)
(201.357 -28.0236 0)
(201.354 -28.0594 0)
(201.368 -28.0938 0)
(201.366 -28.1277 0)
(201.384 -28.1587 0)
(201.393 -28.1915 0)
(201.417 -28.2215 0)
(201.442 -28.2523 0)
(198.686 -24.1896 0)
(229.697 -33.7085 0)
(250.374 -22.0475 0)
(248.255 -17.3433 0)
(242.056 -16.5183 0)
(234.995 -16.2336 0)
(231.082 -16.3517 0)
(229.125 -16.0665 0)
(227.837 -15.9021 0)
(226.808 -15.7959 0)
(225.916 -15.7867 0)
(225.117 -15.8566 0)
(224.351 -16.0508 0)
(223.514 -16.4238 0)
(222.5 -17.0685 0)
(221.264 -17.9925 0)
(219.886 -19.0627 0)
(218.507 -20.0933 0)
(217.23 -20.9647 0)
(216.086 -21.6461 0)
(215.069 -22.1627 0)
(214.152 -22.5509 0)
(213.312 -22.8503 0)
(212.529 -23.0886 0)
(211.79 -23.2919 0)
(211.087 -23.4758 0)
(210.42 -23.651 0)
(209.789 -23.8213 0)
(209.192 -23.9893 0)
(208.63 -24.1562 0)
(208.103 -24.3231 0)
(207.608 -24.4888 0)
(207.146 -24.6533 0)
(206.716 -24.8156 0)
(206.315 -24.9757 0)
(205.943 -25.1331 0)
(205.598 -25.2874 0)
(205.279 -25.4389 0)
(204.984 -25.5868 0)
(204.712 -25.731 0)
(204.462 -25.8711 0)
(204.234 -26.0074 0)
(204.026 -26.1384 0)
(203.837 -26.263 0)
(203.666 -26.3819 0)
(203.51 -26.4982 0)
(203.369 -26.6118 0)
(203.239 -26.7206 0)
(203.116 -26.8241 0)
(202.998 -26.9246 0)
(202.884 -27.0234 0)
(202.775 -27.12 0)
(202.67 -27.2125 0)
(202.57 -27.3007 0)
(202.478 -27.3844 0)
(202.393 -27.4639 0)
(202.317 -27.5385 0)
(202.251 -27.6086 0)
(202.194 -27.6734 0)
(202.144 -27.7328 0)
(202.099 -27.7878 0)
(202.058 -27.8381 0)
(202.022 -27.8856 0)
(201.988 -27.9294 0)
(201.958 -27.9708 0)
(201.932 -28.009 0)
(201.909 -28.0445 0)
(201.89 -28.0772 0)
(201.892 -28.112 0)
(201.885 -28.1417 0)
(201.874 -28.1687 0)
(201.88 -28.1964 0)
(201.875 -28.2209 0)
(201.884 -28.2444 0)
(201.88 -28.2674 0)
(201.892 -28.2881 0)
(201.904 -28.3093 0)
(201.924 -28.328 0)
(201.947 -28.345 0)
(197.696 -26.0846 0)
(226.086 -33.4581 0)
(247.74 -23.5699 0)
(247.767 -19.0427 0)
(242.167 -17.5972 0)
(235.31 -17.2128 0)
(231.275 -17.1997 0)
(229.277 -16.8087 0)
(227.993 -16.5366 0)
(226.975 -16.34 0)
(226.085 -16.2659 0)
(225.269 -16.3031 0)
(224.447 -16.5114 0)
(223.513 -16.9743 0)
(222.358 -17.7666 0)
(221.006 -18.8205 0)
(219.59 -19.946 0)
(218.248 -20.9637 0)
(217.05 -21.7912 0)
(215.996 -22.4289 0)
(215.063 -22.915 0)
(214.217 -23.2883 0)
(213.436 -23.585 0)
(212.7 -23.8284 0)
(212.002 -24.0398 0)
(211.336 -24.2296 0)
(210.704 -24.4073 0)
(210.103 -24.5756 0)
(209.536 -24.7384 0)
(209.002 -24.897 0)
(208.501 -25.0534 0)
(208.031 -25.2068 0)
(207.592 -25.3577 0)
(207.182 -25.5052 0)
(206.802 -25.6499 0)
(206.448 -25.7913 0)
(206.119 -25.9299 0)
(205.815 -26.0657 0)
(205.532 -26.1988 0)
(205.269 -26.3288 0)
(205.025 -26.4548 0)
(204.799 -26.577 0)
(204.591 -26.695 0)
(204.4 -26.8073 0)
(204.226 -26.9129 0)
(204.067 -27.013 0)
(203.923 -27.1087 0)
(203.793 -27.1997 0)
(203.674 -27.2847 0)
(203.563 -27.3649 0)
(203.458 -27.4422 0)
(203.357 -27.5174 0)
(203.259 -27.5899 0)
(203.164 -27.6593 0)
(203.071 -27.7257 0)
(202.982 -27.7901 0)
(202.897 -27.8523 0)
(202.819 -27.9122 0)
(202.749 -27.9684 0)
(202.685 -28.0208 0)
(202.626 -28.0693 0)
(202.572 -28.1138 0)
(202.522 -28.1551 0)
(202.475 -28.193 0)
(202.432 -28.2283 0)
(202.392 -28.2603 0)
(202.357 -28.2899 0)
(202.329 -28.3165 0)
(202.318 -28.3458 0)
(202.298 -28.3669 0)
(202.281 -28.3871 0)
(202.27 -28.4067 0)
(202.258 -28.4218 0)
(202.252 -28.4375 0)
(202.244 -28.4485 0)
(202.241 -28.4603 0)
(202.236 -28.4684 0)
(202.23 -28.4746 0)
(202.221 -28.4783 0)
(197.431 -27.1866 0)
(222.996 -32.8582 0)
(244.783 -24.625 0)
(246.682 -20.3997 0)
(241.984 -18.6085 0)
(235.467 -18.1678 0)
(231.384 -18.0047 0)
(229.377 -17.5354 0)
(228.121 -17.1653 0)
(227.121 -16.8863 0)
(226.231 -16.7522 0)
(225.389 -16.7656 0)
(224.496 -17.0131 0)
(223.425 -17.5928 0)
(222.128 -18.533 0)
(220.692 -19.6782 0)
(219.279 -20.8099 0)
(218.004 -21.7815 0)
(216.894 -22.5525 0)
(215.928 -23.1465 0)
(215.069 -23.6074 0)
(214.285 -23.972 0)
(213.555 -24.2713 0)
(212.862 -24.5235 0)
(212.202 -24.7452 0)
(211.571 -24.9423 0)
(210.971 -25.1238 0)
(210.401 -25.2913 0)
(209.863 -25.4503 0)
(209.355 -25.6017 0)
(208.878 -25.7488 0)
(208.431 -25.8911 0)
(208.013 -26.0295 0)
(207.623 -26.1636 0)
(207.26 -26.2942 0)
(206.922 -26.421 0)
(206.609 -26.545 0)
(206.317 -26.666 0)
(206.045 -26.7847 0)
(205.791 -26.9009 0)
(205.553 -27.0141 0)
(205.331 -27.1241 0)
(205.122 -27.2313 0)
(204.927 -27.3354 0)
(204.745 -27.4347 0)
(204.575 -27.528 0)
(204.419 -27.6157 0)
(204.277 -27.6983 0)
(204.147 -27.7751 0)
(204.028 -27.8465 0)
(203.919 -27.9134 0)
(203.816 -27.9772 0)
(203.719 -28.0375 0)
(203.626 -28.0943 0)
(203.536 -28.148 0)
(203.448 -28.1996 0)
(203.363 -28.2497 0)
(203.283 -28.2981 0)
(203.207 -28.3442 0)
(203.136 -28.3874 0)
(203.068 -28.4275 0)
(203.004 -28.4648 0)
(202.943 -28.4991 0)
(202.884 -28.5308 0)
(202.827 -28.5598 0)
(202.774 -28.5862 0)
(202.726 -28.6105 0)
(202.684 -28.6324 0)
(202.648 -28.6532 0)
(202.612 -28.6684 0)
(202.578 -28.6833 0)
(202.545 -28.6943 0)
(202.512 -28.7033 0)
(202.48 -28.7104 0)
(202.448 -28.7141 0)
(202.416 -28.717 0)
(202.383 -28.7161 0)
(202.349 -28.7147 0)
(202.316 -28.7105 0)
(197.58 -27.7655 0)
(220.402 -32.2318 0)
(242.045 -25.4665 0)
(245.553 -21.6246 0)
(241.579 -19.5333 0)
(235.523 -19.0728 0)
(231.452 -18.7531 0)
(229.435 -18.2328 0)
(228.225 -17.78 0)
(227.25 -17.4336 0)
(226.358 -17.2487 0)
(225.476 -17.2527 0)
(224.479 -17.57 0)
(223.253 -18.2897 0)
(221.826 -19.3557 0)
(220.347 -20.5416 0)
(218.973 -21.6357 0)
(217.78 -22.5396 0)
(216.761 -23.25 0)
(215.874 -23.8047 0)
(215.08 -24.2468 0)
(214.349 -24.6084 0)
(213.662 -24.9146 0)
(213.006 -25.1768 0)
(212.384 -25.4095 0)
(211.787 -25.6154 0)
(211.218 -25.8017 0)
(210.677 -25.9698 0)
(210.167 -26.1261 0)
(209.684 -26.2716 0)
(209.231 -26.4107 0)
(208.805 -26.5432 0)
(208.407 -26.6712 0)
(208.035 -26.7941 0)
(207.687 -26.9133 0)
(207.363 -27.0285 0)
(207.062 -27.1407 0)
(206.78 -27.2492 0)
(206.517 -27.3551 0)
(206.27 -27.4585 0)
(206.039 -27.5595 0)
(205.821 -27.6577 0)
(205.615 -27.7538 0)
(205.42 -27.8485 0)
(205.235 -27.9411 0)
(205.061 -28.0297 0)
(204.896 -28.1139 0)
(204.741 -28.1939 0)
(204.596 -28.2696 0)
(204.463 -28.3407 0)
(204.338 -28.4071 0)
(204.223 -28.4694 0)
(204.116 -28.5275 0)
(204.015 -28.5813 0)
(203.919 -28.6312 0)
(203.827 -28.6782 0)
(203.739 -28.7228 0)
(203.655 -28.7652 0)
(203.575 -28.8052 0)
(203.498 -28.8427 0)
(203.424 -28.8776 0)
(203.352 -28.91 0)
(203.281 -28.9398 0)
(203.211 -28.9672 0)
(203.144 -28.992 0)
(203.08 -29.0146 0)
(203.019 -29.0349 0)
(202.961 -29.053 0)
(202.906 -29.0687 0)
(202.852 -29.0817 0)
(202.799 -29.0931 0)
(202.746 -29.1016 0)
(202.694 -29.1089 0)
(202.642 -29.1139 0)
(202.59 -29.117 0)
(202.537 -29.1191 0)
(202.484 -29.1185 0)
(202.432 -29.1186 0)
(202.381 -29.1152 0)
(197.99 -28.083 0)
(218.321 -31.3736 0)
(239.475 -26.1578 0)
(244.236 -22.6546 0)
(240.979 -20.3512 0)
(235.411 -19.9018 0)
(231.422 -19.4312 0)
(229.437 -18.8863 0)
(228.296 -18.3708 0)
(227.358 -17.9776 0)
(226.465 -17.7575 0)
(225.52 -17.7769 0)
(224.393 -18.1986 0)
(223.005 -19.0644 0)
(221.478 -20.2161 0)
(219.996 -21.39 0)
(218.686 -22.4131 0)
(217.581 -23.2381 0)
(216.643 -23.8893 0)
(215.826 -24.4102 0)
(215.088 -24.8392 0)
(214.404 -25.2018 0)
(213.758 -25.5167 0)
(213.142 -25.7913 0)
(212.551 -26.0345 0)
(211.986 -26.2497 0)
(211.447 -26.4416 0)
(210.934 -26.6114 0)
(210.449 -26.7662 0)
(209.991 -26.9072 0)
(209.561 -27.0397 0)
(209.156 -27.164 0)
(208.777 -27.2832 0)
(208.422 -27.3969 0)
(208.089 -27.5071 0)
(207.777 -27.6133 0)
(207.485 -27.7166 0)
(207.21 -27.8161 0)
(206.953 -27.9128 0)
(206.711 -28.0066 0)
(206.483 -28.0982 0)
(206.268 -28.1872 0)
(206.065 -28.2738 0)
(205.872 -28.359 0)
(205.689 -28.4429 0)
(205.515 -28.5249 0)
(205.349 -28.6043 0)
(205.191 -28.6811 0)
(205.039 -28.7557 0)
(204.896 -28.8275 0)
(204.76 -28.896 0)
(204.632 -28.9609 0)
(204.511 -29.0221 0)
(204.397 -29.0796 0)
(204.289 -29.1332 0)
(204.186 -29.1832 0)
(204.089 -29.23 0)
(203.997 -29.2739 0)
(203.909 -29.315 0)
(203.823 -29.3537 0)
(203.74 -29.3898 0)
(203.659 -29.4235 0)
(203.579 -29.4547 0)
(203.5 -29.4834 0)
(203.424 -29.5098 0)
(203.349 -29.5341 0)
(203.277 -29.5563 0)
(203.207 -29.5765 0)
(203.138 -29.5948 0)
(203.072 -29.6116 0)
(203.006 -29.6268 0)
(202.942 -29.6404 0)
(202.879 -29.6529 0)
(202.816 -29.6639 0)
(202.753 -29.6739 0)
(202.69 -29.683 0)
(202.628 -29.6909 0)
(202.566 -29.6983 0)
(202.507 -29.7047 0)
(198.57 -28.178 0)
(216.599 -30.5568 0)
(237.138 -26.7947 0)
(242.864 -23.5378 0)
(240.27 -21.0836 0)
(235.22 -20.6478 0)
(231.377 -20.0453 0)
(229.397 -19.4943 0)
(228.328 -18.9294 0)
(227.434 -18.5116 0)
(226.541 -18.2789 0)
(225.519 -18.3531 0)
(224.237 -18.9093 0)
(222.699 -19.9061 0)
(221.112 -21.0925 0)
(219.661 -22.2091 0)
(218.429 -23.1399 0)
(217.405 -23.8826 0)
(216.539 -24.4784 0)
(215.779 -24.9703 0)
(215.09 -25.3899 0)
(214.447 -25.7554 0)
(213.839 -26.0796 0)
(213.257 -26.3681 0)
(212.696 -26.6223 0)
(212.164 -26.8468 0)
(211.655 -27.0449 0)
(211.169 -27.2176 0)
(210.71 -27.3721 0)
(210.275 -27.5102 0)
(209.866 -27.6378 0)
(209.481 -27.7556 0)
(209.12 -27.8681 0)
(208.78 -27.9748 0)
(208.46 -28.0783 0)
(208.159 -28.1778 0)
(207.876 -28.2747 0)
(207.607 -28.3682 0)
(207.354 -28.4593 0)
(207.115 -28.5475 0)
(206.889 -28.6337 0)
(206.675 -28.7173 0)
(206.473 -28.7983 0)
(206.282 -28.8769 0)
(206.101 -28.9537 0)
(205.93 -29.0289 0)
(205.766 -29.1025 0)
(205.61 -29.1744 0)
(205.46 -29.2447 0)
(205.316 -29.3132 0)
(205.178 -29.3793 0)
(205.046 -29.4431 0)
(204.919 -29.5048 0)
(204.798 -29.5645 0)
(204.681 -29.6218 0)
(204.571 -29.6762 0)
(204.465 -29.7277 0)
(204.364 -29.7764 0)
(204.268 -29.8227 0)
(204.174 -29.8669 0)
(204.084 -29.9089 0)
(203.995 -29.9486 0)
(203.908 -29.9861 0)
(203.823 -30.0214 0)
(203.739 -30.0547 0)
(203.658 -30.0864 0)
(203.58 -30.1163 0)
(203.503 -30.1449 0)
(203.429 -30.1721 0)
(203.357 -30.1984 0)
(203.287 -30.2234 0)
(203.219 -30.2476 0)
(203.153 -30.2709 0)
(203.089 -30.2934 0)
(203.026 -30.3154 0)
(202.964 -30.3365 0)
(202.903 -30.3575 0)
(202.843 -30.3771 0)
(202.787 -30.3972 0)
(199.23 -28.1666 0)
(215.297 -29.6416 0)
(235.033 -27.4033 0)
(241.478 -24.2822 0)
(239.464 -21.7462 0)
(234.93 -21.3025 0)
(231.244 -20.5796 0)
(229.306 -20.0436 0)
(228.315 -19.4498 0)
(227.469 -19.0305 0)
(226.572 -18.8145 0)
(225.454 -18.9881 0)
(224.012 -19.7023 0)
(222.356 -20.7952 0)
(220.754 -21.9642 0)
(219.36 -22.9908 0)
(218.207 -23.8198 0)
(217.255 -24.4819 0)
(216.446 -25.0268 0)
(215.733 -25.4928 0)
(215.083 -25.9044 0)
(214.477 -26.273 0)
(213.903 -26.6058 0)
(213.355 -26.9057 0)
(212.832 -27.1731 0)
(212.324 -27.4059 0)
(211.845 -27.6112 0)
(211.386 -27.7889 0)
(210.95 -27.9449 0)
(210.538 -28.0817 0)
(210.15 -28.2061 0)
(209.783 -28.3192 0)
(209.439 -28.4265 0)
(209.113 -28.5277 0)
(208.806 -28.6262 0)
(208.515 -28.7207 0)
(208.239 -28.8133 0)
(207.977 -28.9031 0)
(207.727 -28.9916 0)
(207.49 -29.0775 0)
(207.265 -29.1622 0)
(207.051 -29.2446 0)
(206.848 -29.3249 0)
(206.656 -29.4023 0)
(206.474 -29.4772 0)
(206.301 -29.5499 0)
(206.138 -29.6208 0)