/*--------------------------------*- C++ -*----------------------------------*\
| =========                 |                                                 |
| \\      /  F ield         | OpenFOAM: The Open Source CFD Toolbox           |
|  \\    /   O peration     | Version:  2406                                  |
|   \\  /    A nd           | Website:  www.openfoam.com                      |
|    \\/     M anipulation  |                                                 |
\*---------------------------------------------------------------------------*/
FoamFile
{
    version     2.0;
    format      ascii;
    arch        "LSB;label=32;scalar=64";
    class       volScalarField;
    location    "0.017";
    object      p;
}
// * * * * * * * * * * * * * * * * * * * * * * * * * * * * * * * * * * * * * //

dimensions      [1 -1 -2 0 0 0 0];

internalField   nonuniform List<scalar> 
78650
(
2790
2790
2790
2790
2790
2790
2790.15
2792.88
2808.32
2838.98
2863.51
2873.25
2872.25
2865.54
2850.24
2835.8
2824.34
2814.19
2804.36
2794.5
2784.51
2774.47
2765.01
2758.05
2755.34
2755.21
2756.75
2758.11
2758.03
2756.02
2752.45
2748.98
2745.95
2743.25
2740.79
2738.52
2736.43
2734.51
2732.78
2731.2
2729.78
2728.45
2727.16
2725.84
2724.46
2723.05
2721.63
2720.15
2718.54
2716.76
2714.8
2712.7
2710.41
2707.87
2705
2701.71
2697.95
2693.73
2689.01
2683.76
2677.94
2671.46
2664.27
2656.27
2647.42
2637.62
2626.78
2614.81
2601.65
2587.2
2571.41
2554.19
2535.47
2515.21
2493.33
2469.81
2444.63
2417.72
2389.04
2358.63
2326.44
2292.66
2257.22
2220.34
2181.8
2141.83
2100.37
2057.5
2013.49
1968.86
1924.28
1879.47
1834.59
1790.14
1748.21
1708.73
1669.61
1631.36
1593.76
1557.16
1521.8
1487.58
1455.69
1425.8
1398.23
1372.25
1349.22
1328.74
1309.62
1291.36
1274.01
1257.05
1241.61
1226.52
1212.48
1199.86
1188.75
1178.13
1168
1159.52
1142.49
2790
2790
2790
2790
2790
2790
2790.08
2791.77
2803.82
2833.08
2861.17
2873.74
2873.72
2869.33
2855.17
2840.61
2828.97
2818.65
2808.66
2798.71
2788.76
2778.85
2769.44
2762.25
2759.24
2759.05
2760.71
2762.57
2762.88
2761.34
2758.06
2754.69
2751.76
2749.21
2746.92
2744.85
2743
2741.34
2739.88
2738.59
2737.44
2736.41
2735.42
2734.42
2733.39
2732.34
2731.3
2730.24
2729.08
2727.76
2726.28
2724.68
2722.93
2720.98
2718.76
2716.16
2713.15
2709.72
2705.83
2701.48
2696.61
2691.16
2685.07
2678.26
2670.67
2662.22
2652.81
2642.38
2630.84
2618.09
2604.09
2588.75
2571.99
2553.8
2534.07
2512.76
2489.78
2464.96
2438.26
2409.76
2379.44
2347.43
2313.65
2278.28
2241.16
2202.7
2162.85
2121.71
2079.41
2036.04
1991.76
1948.1
1905.33
1863.24
1820.38
1778.14
1736.8
1696.49
1657.75
1619.96
1584.9
1551.74
1520.59
1489.19
1458.84
1428.64
1400.35
1374.19
1350.63
1328.37
1307.38
1288.21
1270.22
1253.82
1239.07
1225.43
1212.53
1199.85
1187.73
1176.74
1156.23
2790
2790
2790
2790
2790
2790
2790.04
2791.02
2799.93
2826.67
2857.61
2873.84
2875.32
2872.58
2860.12
2845.65
2833.72
2823.1
2812.9
2802.9
2793.05
2783.33
2774.03
2766.67
2763.32
2763.03
2764.75
2767.11
2767.78
2766.63
2763.68
2760.46
2757.66
2755.27
2753.15
2751.29
2749.68
2748.29
2747.12
2746.11
2745.25
2744.5
2743.81
2743.13
2742.44
2741.75
2741.1
2740.45
2739.73
2738.87
2737.87
2736.77
2735.55
2734.18
2732.58
2730.67
2728.39
2725.72
2722.65
2719.15
2715.21
2710.75
2705.71
2700.02
2693.62
2686.43
2678.38
2669.38
2659.35
2648.2
2635.9
2622.33
2607.42
2591.13
2573.34
2554.02
2533.1
2510.44
2486.05
2459.96
2432.13
2402.64
2371.41
2338.51
2303.82
2267.72
2229.86
2190.62
2149.96
2107.78
2064.58
2020.61
1976.26
1931.95
1886.98
1842.55
1799.13
1755.76
1713.92
1672.15
1632.17
1594.96
1560.22
1527.32
1496.9
1468.15
1441.81
1415.85
1390.52
1365.59
1341.6
1319.21
1299.49
1281.36
1264.43
1248.49
1233.53
1219.86
1207.41
1196.44
1174.45
2790
2790
2790
2790
2790
2790
2790.02
2790.55
2796.69
2819.92
2852.77
2873.32
2876.81
2875.42
2865.35
2851.15
2838.66
2827.59
2817.21
2807.25
2797.57
2788.08
2778.92
2771.41
2767.6
2767.12
2768.8
2771.61
2772.68
2771.88
2769.32
2766.32
2763.68
2761.43
2759.49
2757.84
2756.48
2755.37
2754.48
2753.75
2753.16
2752.69
2752.29
2751.93
2751.57
2751.23
2750.94
2750.69
2750.4
2749.99
2749.45
2748.82
2748.11
2747.29
2746.3
2745.04
2743.46
2741.54
2739.25
2736.59
2733.54
2730.04
2726.02
2721.43
2716.21
2710.27
2703.57
2696.01
2687.51
2677.99
2667.39
2655.61
2642.57
2628.24
2612.51
2595.38
2576.75
2556.49
2534.54
2510.87
2485.4
2458.18
2429.13
2398.27
2365.55
2331.18
2294.95
2257.49
2218.38
2177.92
2136.16
2092.73
2048.65
2003.99
1959.7
1915.39
1873.39
1830.84
1788.65
1746.12
1704.54
1664.06
1622.99
1583.13
1545.61
1511.1
1479.03
1449.44
1421.37
1394.55
1369.88
1346.7
1325.37
1305.24
1286.31
1268.45
1251.82
1236.66
1223.44
1211.92
1189.07
2790
2790
2790
2790
2790
2790
2790.01
2790.26
2794.17
2813.19
2846.66
2871.69
2877.83
2878.15
2870.66
2856.82
2843.61
2832.06
2821.61
2811.78
2802.29
2793.04
2784.06
2776.44
2772.11
2771.36
2772.88
2776.13
2777.66
2777.18
2775.09
2772.35
2769.84
2767.74
2766
2764.59
2763.49
2762.67
2762.06
2761.6
2761.28
2761.09
2760.98
2760.92
2760.89
2760.9
2760.98
2761.12
2761.24
2761.28
2761.2
2761.04
2760.83
2760.54
2760.14
2759.54
2758.63
2757.45
2755.92
2754.07
2751.89
2749.31
2746.28
2742.74
2738.64
2733.9
2728.46
2722.25
2715.19
2707.18
2698.18
2688.08
2676.84
2664.41
2650.68
2635.62
2619.1
2600.99
2581.23
2559.79
2536.59
2511.69
2485.02
2456.53
2426.2
2394.13
2360.21
2324.84
2287.59
2249.02
2208.79
2167.32
2124.76
2080.96
2037.29
1992.27
1947.91
1903.48
1859.44
1816.49
1773.55
1732.8
1693.64
1655.34
1618.64
1582.47
1547
1512.08
1479.07
1448.1
1420.14
1393.52
1368.37
1344.36
1321.68
1300.2
1279.63
1260.53
1243.85
1229.08
1200.96
2790
2790
2790
2790
2790
2790
2790
2790.11
2792.37
2806.83
2839.17
2868.67
2878.56
2880.88
2875.7
2862.58
2848.64
2836.73
2826.3
2816.63
2807.34
2798.33
2789.55
2781.82
2776.88
2775.72
2776.94
2780.5
2782.64
2782.52
2780.95
2778.49
2776.13
2774.21
2772.71
2771.55
2770.73
2770.18
2769.83
2769.64
2769.59
2769.66
2769.83
2770.07
2770.36
2770.71
2771.14
2771.66
2772.19
2772.65
2773.03
2773.33
2773.59
2773.82
2773.96
2773.97
2773.74
2773.27
2772.5
2771.42
2770.07
2768.39
2766.31
2763.81
2760.8
2757.22
2753.04
2748.18
2742.54
2736.07
2728.69
2720.32
2710.9
2700.36
2688.58
2675.53
2661.12
2645.24
2627.86
2608.9
2588.29
2566.05
2542.03
2516.19
2488.52
2459.04
2427.67
2394.59
2359.56
2323.09
2284.7
2244.81
2203.23
2160.38
2116.41
2071.23
2025.15
1979.92
1934.11
1889.67
1844.46
1799.73
1756.39
1714.45
1674.37
1635.63
1598.93
1564.1
1531.56
1500.06
1470.99
1442.63
1415.44
1389.2
1364.89
1343.04
1323.13
1304.47
1287.45
1272.06
1243.87
2790
2790
2790
2790
2790
2790
2790
2790.04
2791.2
2801.28
2830.66
2864.03
2878.79
2883.39
2880.11
2868.2
2853.84
2841.67
2831.28
2821.72
2812.63
2803.86
2795.3
2787.45
2781.87
2780.18
2781.01
2784.65
2787.65
2788.01
2786.91
2784.76
2782.6
2780.91
2779.67
2778.77
2778.21
2777.92
2777.84
2777.93
2778.15
2778.47
2778.9
2779.44
2780.05
2780.73
2781.52
2782.4
2783.33
2784.22
2785.03
2785.78
2786.51
2787.25
2787.95
2788.54
2788.97
2789.16
2789.15
2788.83
2788.3
2787.49
2786.32
2784.8
2782.83
2780.37
2777.37
2773.77
2769.47
2764.43
2758.57
2751.79
2744.05
2735.27
2725.38
2714.34
2702.07
2688.47
2673.48
2656.96
2638.8
2618.99
2597.42
2574.07
2548.95
2522.01
2493.15
2462.44
2429.72
2395.36
2359.05
2321.38
2281.86
2241.23
2199.42
2156.45
2112.33
2067.8
2023.39
1978.76
1933.69
1887.86
1843.83
1799.12
1755.39
1710.9
1668.31
1627.74
1589.65
1552.7
1517.75
1484.64
1453.46
1423.58
1395.11
1369.23
1346.27
1325.28
1306.27
1289.93
1254.4
2790
2790
2790
2790
2790
2790
2790
2790.02
2790.54
2796.87
2821.57
2857.43
2878.43
2885.5
2883.46
2873.85
2859.51
2847.07
2836.59
2827.13
2818.24
2809.72
2801.32
2793.29
2787.04
2784.67
2785.04
2788.58
2792.62
2793.63
2792.94
2791.18
2789.29
2787.87
2786.87
2786.2
2785.91
2785.88
2786.07
2786.41
2786.87
2787.44
2788.13
2788.95
2789.87
2790.88
2792
2793.24
2794.55
2795.85
2797.08
2798.26
2799.45
2800.67
2801.9
2803.09
2804.13
2804.98
2805.64
2806.09
2806.32
2806.36
2806.08
2805.52
2804.59
2803.2
2801.37
2798.99
2796.02
2792.41
2788.06
2782.89
2776.86
2769.89
2761.9
2752.87
2742.67
2731.22
2718.42
2704.15
2688.32
2670.97
2651.98
2631.35
2609.02
2584.84
2558.74
2530.76
2500.85
2469.16
2435.49
2400.18
2362.84
2324.01
2283.17
2240.83
2197.17
2151.85
2106.94
2060.69
2015.82
1968.18
1922.88
1878.94
1836.05
1792.63
1750.8
1709.96
1671.02
1632.16
1594.19
1557.53
1523.47
1491.49
1460.73
1430.81
1402.6
1376.23
1352.69
1331.4
1288.02
2790
2790
2790
2790
2790
2790
2790
2790
2790.21
2793.74
2812.71
2848.85
2876.54
2886.87
2886.09
2879.44
2865.66
2852.79
2842.15
2832.81
2824.12
2815.74
2807.38
2799.14
2792.31
2789.16
2789.06
2792.33
2797.48
2799.39
2799.08
2797.81
2796.24
2795.07
2794.29
2793.87
2793.82
2794.07
2794.49
2795.07
2795.77
2796.59
2797.54
2798.63
2799.85
2801.19
2802.64
2804.23
2805.91
2807.61
2809.26
2810.87
2812.5
2814.19
2815.94
2817.68
2819.34
2820.85
2822.2
2823.37
2824.35
2825.16
2825.75
2826.07
2826.13
2825.78
2825.06
2823.88
2822.13
2819.84
2816.89
2813.22
2808.78
2803.48
2797.27
2790.1
2781.86
2772.5
2761.94
2750.05
2736.8
2722.14
2705.94
2688.14
2668.62
2647.24
2623.98
2598.87
2571.81
2542.81
2511.79
2479.01
2444.22
2407.84
2369.34
2329.45
2287.85
2245.11
2201.17
2156.71
2111.22
2064.3
2016.73
1970.79
1923.63
1877.74
1830.95
1786.21
1743.27
1702.2
1662.1
1623.37
1586.47
1552.41
1520.84
1490.09
1460.56
1432.72
1408.11
1387.2
1349.37
2790
2790
2790
2790
2790
2790
2790
2790
2790.07
2791.8
2804.91
2838.58
2872.16
2887.36
2888.54
2884.76
2872.02
2858.78
2848.05
2838.87
2830.25
2821.79
2813.33
2804.95
2797.69
2793.77
2793.19
2796.03
2802.16
2805.28
2805.43
2804.65
2803.4
2802.47
2801.92
2801.74
2801.9
2802.39
2803.04
2803.85
2804.78
2805.84
2807.03
2808.39
2809.91
2811.55
2813.32
2815.23
2817.26
2819.34
2821.4
2823.43
2825.49
2827.63
2829.87
2832.16
2834.41
2836.55
2838.55
2840.4
2842.12
2843.7
2845.11
2846.31
2847.26
2847.92
2848.24
2848.24
2847.7
2846.74
2845.19
2843
2840.13
2836.5
2832.06
2826.75
2820.48
2813.22
2804.85
2795.27
2784.4
2772.15
2758.4
2743.12
2726.19
2707.54
2687.17
2665.07
2641.07
2615.19
2587.38
2557.7
2525.88
2492.15
2456.19
2418.71
2379.31
2338.39
2295.57
2251.35
2206.26
2160.69
2113.75
2067.42
2019.21
1972.28
1923.96
1876.46
1830.1
1785.7
1742.01
1699.4
1656.68
1616.33
1578.38
1542.41
1507.95
1474.34
1442.69
1415.79
1363.06
2790
2790
2790
2790
2790
2790
2790
2790
2790.02
2790.75
2798.79
2827.44
2865.16
2886.7
2891.12
2889.01
2878.36
2865.18
2854.33
2845.06
2836.23
2827.57
2819.08
2810.7
2803.18
2798.57
2797.5
2799.76
2806.57
2811.19
2812.02
2811.62
2810.73
2810.05
2809.73
2809.74
2810.12
2810.78
2811.67
2812.7
2813.87
2815.17
2816.61
2818.23
2820.03
2821.98
2824.06
2826.28
2828.65
2831.1
2833.56
2836.01
2838.49
2841.07
2843.79
2846.6
2849.42
2852.17
2854.82
2857.34
2859.75
2862.06
2864.25
2866.3
2868.15
2869.76
2871.07
2872.07
2872.71
2872.95
2872.72
2871.92
2870.54
2868.45
2865.65
2862.08
2857.67
2852.37
2846.07
2838.69
2830.14
2820.34
2809.18
2796.66
2782.64
2767.05
2749.83
2730.86
2709.97
2687.15
2662.32
2635.45
2606.45
2575.53
2542.56
2507.95
2471.21
2432.61
2391.79
2349.69
2306.6
2262.52
2217.18
2169.51
2122.3
2074.75
2028.18
1980.07
1932.93
1886.4
1841.89
1798.55
1754.57
1711.57
1670.19
1631.08
1595.36
1560.64
1527.36
1496.76
1435.52
2790
2790
2790
2790
2790
2790
2790
2790
2790.01
2790.27
2794.58
2816.58
2855.65
2884.55
2892.54
2892.25
2884.78
2872.14
2860.79
2850.98
2841.88
2833.2
2824.83
2816.58
2808.89
2803.63
2802.07
2803.67
2810.72
2817
2818.81
2818.76
2818.27
2817.77
2817.63
2817.8
2818.34
2819.18
2820.29
2821.54
2822.93
2824.46
2826.13
2828.01
2830.09
2832.33
2834.71
2837.24
2839.93
2842.74
2845.59
2848.44
2851.34
2854.34
2857.51
2860.81
2864.17
2867.5
2870.77
2873.93
2877.01
2880.02
2882.95
2885.79
2888.48
2890.99
2893.29
2895.34
2897.07
2898.45
2899.44
2899.98
2900.07
2899.52
2898.37
2896.52
2893.9
2890.51
2886.22
2880.99
2874.7
2867.27
2858.62
2848.71
2837.4
2824.61
2810.25
2794.18
2776.35
2756.73
2735.22
2711.75
2686.29
2658.92
2629.43
2597.98
2564.19
2528.43
2490.49
2451.02
2409.76
2366.95
2322.2
2275.73
2227.9
2180.13
2132.88
2083.06
2033.51
1982.32
1933.96
1887.54
1841.61
1795.52
1750.62
1707.83
1669.5
1633.5
1600.48
1571
1511.88
2790
2790
2790
2790
2790
2790
2790
2790
2790
2790.08
2792.08
2807.11
2844.17
2879.85
2892.73
2895.38
2890.94
2879.16
2866.91
2856.56
2847.42
2838.88
2830.66
2822.52
2814.73
2808.93
2806.82
2807.79
2814.59
2822.5
2825.68
2826.07
2825.86
2825.47
2825.44
2825.8
2826.5
2827.5
2828.81
2830.28
2831.89
2833.64
2835.57
2837.7
2840.06
2842.61
2845.3
2848.13
2851.13
2854.27
2857.5
2860.75
2864.05
2867.47
2871.07
2874.84
2878.72
2882.62
2886.48
2890.26
2893.99
2897.66
2901.3
2904.88
2908.38
2911.75
2914.96
2917.96
2920.73
2923.22
2925.38
2927.15
2928.49
2929.35
2929.7
2929.49
2928.56
2926.99
2924.6
2921.4
2917.28
2912.14
2905.92
2898.55
2889.92
2879.95
2868.51
2855.5
2840.86
2824.53
2806.34
2786.25
2764.23
2740.24
2714.11
2685.89
2655.38
2623.02
2588.55
2552.14
2513.37
2472.93
2430.79
2387.15
2341.84
2295.38
2248.17
2200.4
2150.38
2099.62
2048.95
1999.47
1951.34
1902.3
1853.64
1803.44
1757.24
1712.71
1671.5
1633.59
1558.62
2790
2790
2790
2790
2790
2790
2790
2790
2790
2790.02
2790.82
2799.87
2831.69
2872.33
2892.19
2898.58
2895.86
2885.53
2872.81
2862.23
2853.14
2844.69
2836.5
2828.43
2820.64
2814.46
2811.81
2812.26
2818.34
2827.7
2832.53
2833.46
2833.38
2833.06
2833.1
2833.64
2834.51
2835.67
2837.15
2838.81
2840.64
2842.65
2844.84
2847.24
2849.88
2852.72
2855.71
2858.83
2862.11
2865.57
2869.16
2872.8
2876.5
2880.31
2884.32
2888.54
2892.9
2897.33
2901.75
2906.13
2910.46
2914.76
2919.06
2923.35
2927.6
2931.78
2935.84
2939.76
2943.51
2947.03
2950.3
2953.28
2955.9
2958.13
2959.87
2961.13
2961.85
2962.04
2961.5
2960.28
2958.23
2955.22
2951.32
2946.35
2940.25
2932.97
2924.36
2914.33
2902.83
2889.78
2875.02
2858.49
2840.12
2819.76
2797.3
2772.73
2745.99
2717.38
2686.51
2653.27
2617.47
2580
2540.95
2500.17
2456.93
2411.65
2364.98
2317.61
2269.64
2220.23
2169.76
2118.97
2069.48
2020.82
1973.68
1922.58
1874.68
1828.27
1787.37
1751.69
1686.8
2790
2790
2790
2790
2790
2790
2790
2790
2790
2790.01
2790.28
2795.07
2819.61
2862.23
2890.77
2900.57
2899.26
2891.49
2878.95
2868.14
2858.9
2850.35
2842.16
2834.23
2826.59
2820.23
2816.96
2816.92
2821.93
2832.35
2839
2840.63
2840.62
2840.39
2840.5
2841.2
2842.24
2843.56
2845.21
2847.09
2849.16
2851.43
2853.9
2856.59
2859.5
2862.62
2865.89
2869.29
2872.86
2876.62
2880.55
2884.57
2888.66
2892.88
2897.29
2901.92
2906.75
2911.69
2916.64
2921.58
2926.49
2931.39
2936.32
2941.27
2946.22
2951.15
2956.02
2960.8
2965.45
2969.94
2974.24
2978.31
2982.09
2985.56
2988.65
2991.34
2993.54
2995.24
2996.39
2996.95
2996.95
2995.97
2994.31
2991.67
2988.04
2983.38
2977.54
2970.45
2962
2952.1
2940.58
2927.39
2912.39
2895.47
2876.57
2855.69
2832.75
2807.81
2780.48
2750.86
2718.9
2685.15
2649.43
2611.61
2571.04
2528.1
2483.29
2437.64
2391.04
2342.94
2292.64
2240.4
2187.64
2136.06
2084.88
2032.13
1977.88
1924.91
1872.96
1826.14
1741.68
2790
2790
2790
2790
2790
2790
2790
2790
2790
2790
2790.09
2792.32
2809.33
2850.29
2887
2901.28
2901.84
2897.14
2885.37
2873.97
2864.32
2855.72
2847.69
2840.03
2832.64
2826.11
2822.14
2821.52
2825.32
2836.27
2844.84
2847.45
2847.63
2847.5
2847.67
2848.5
2849.7
2851.19
2853.04
2855.14
2857.46
2860
2862.75
2865.7
2868.87
2872.25
2875.79
2879.46
2883.29
2887.35
2891.61
2895.99
2900.47
2905.07
2909.86
2914.89
2920.14
2925.54
2931
2936.46
2941.91
2947.38
2952.88
2958.44
2964.05
2969.67
2975.29
2980.85
2986.35
2991.75
2997.01
3002.1
3006.98
3011.61
3015.96
3019.96
3023.6
3026.82
3029.59
3031.82
3033.5
3034.54
3034.93
3034.51
3033.2
3031.01
3027.74
3023.38
3017.79
3010.87
3002.55
2992.74
2981.29
2968.13
2953.23
2936.49
2917.74
2896.91
2873.82
2848.7
2821.32
2791.73
2759.61
2725.32
2688.7
2649.9
2608.93
2566.36
2522.22
2476.6
2428.89
2379.23
2328.25
2276.95
2226.51
2176.66
2125.24
2073.7
2022.04
1975.86
1891.01
2790
2790
2790
2790
2790
2790
2790
2790
2790
2790
2790.02
2790.95
2801.6
2837.73
2880.39
2900.78
2904.63
2902.1
2891.3
2879.29
2869.42
2860.99
2853.25
2845.83
2838.53
2831.67
2826.99
2825.79
2828.52
2839.52
2850.01
2853.92
2854.46
2854.43
2854.63
2855.56
2856.91
2858.57
2860.61
2862.94
2865.51
2868.32
2871.34
2874.54
2877.96
2881.58
2885.37
2889.3
2893.4
2897.74
2902.32
2907.06
2911.91
2916.88
2922.04
2927.44
2933.09
2938.92
2944.84
2950.8
2956.76
2962.75
2968.79
2974.92
2981.13
2987.41
2993.71
3000.01
3006.29
3012.51
3018.66
3024.69
3030.57
3036.26
3041.74
3046.96
3051.88
3056.47
3060.69
3064.51
3067.87
3070.69
3072.91
3074.48
3075.35
3075.55
3074.7
3073.01
3070.21
3066.2
3061.02
3054.5
3046.52
3036.98
3025.79
3012.78
2997.79
2980.75
2961.6
2940.46
2916.96
2890.98
2862.39
2831.82
2799.22
2764.41
2726.87
2686.79
2644.51
2600.77
2555.25
2507.96
2458.31
2407.21
2355.11
2303.4
2250.97
2199.51
2142.46
2091.63
2002.08
2790
2790
2790
2790
2790
2790
2790
2790
2790
2790
2790.01
2790.36
2796.44
2825.84
2871.71
2899.48
2907.23
2905.56
2896.45
2884.35
2874.5
2866.34
2858.78
2851.28
2843.79
2836.62
2831.45
2829.77
2831.71
2842.43
2854.73
2860.11
2861.18
2861.24
2861.47
2862.43
2863.9
2865.7
2867.92
2870.48
2873.3
2876.35
2879.62
2883.07
2886.71
2890.55
2894.59
2898.78
2903.15
2907.77
2912.65
2917.73
2922.93
2928.26
2933.76
2939.5
2945.51
2951.73
2958.08
2964.48
2970.92
2977.39
2983.93
2990.58
2997.34
3004.2
3011.13
3018.1
3025.09
3032.07
3039.02
3045.91
3052.7
3059.38
3065.9
3072.23
3078.34
3084.2
3089.76
3095.02
3099.91
3104.38
3108.38
3111.84
3114.68
3116.87
3118.34
3119.04
3118.98
3117.64
3115.44
3111.95
3107.16
3100.98
3093.25
3083.85
3072.73
3059.79
3044.94
3028.13
3009.07
2987.76
2964.11
2938.46
2910.57
2880.32
2847.23
2811.44
2773.31
2733.36
2691.6
2648
2601.82
2553.69
2503.21
2452.03
2399.51
2346.99
2292.13
2239.82
2150.61
2790
2790
2790
2790
2790
2790
2790
2790
2790
2790
2790
2790.13
2793.37
2815.67
2861.86
2897.31
2908.63
2907.9
2901.08
2889.5
2879.71
2871.54
2863.73
2855.94
2848.33
2841.07
2835.69
2833.68
2835.09
2845.32
2859.18
2866.07
2867.72
2867.87
2868.1
2869.09
2870.64
2872.59
2875
2877.78
2880.82
2884.11
2887.6
2891.26
2895.11
2899.18
2903.45
2907.9
2912.54
2917.43
2922.61
2928
2933.54
2939.2
2945.02
2951.08
2957.42
2963.99
2970.72
2977.54
2984.41
2991.33
2998.33
3005.45
3012.72
3020.11
3027.62
3035.19
3042.83
3050.5
3058.18
3065.84
3073.46
3081.02
3088.47
3095.81
3102.98
3109.97
3116.75
3123.3
3129.57
3135.52
3141.1
3146.25
3150.93
3155.09
3158.66
3161.52
3163.68
3164.99
3165.48
3164.91
3163.18
3160.32
3156.03
3150.37
3143.18
3134.37
3123.77
3111.25
3096.67
3080.06
3061.17
3039.98
3016.19
2990.08
2961.39
2930.22
2896.53
2860.44
2822.17
2781.75
2739.08
2694.37
2647.1
2598.58
2548.02
2497.6
2444.54
2392.82
2310.3
2790
2790
2790
2790
2790
2790
2790
2790
2790
2790
2790
2790.05
2791.7
2807.78
2851.79
2893.85
2908.88
2910.01
2905.53
2894.7
2884.59
2875.99
2867.84
2859.94
2852.38
2845.24
2839.85
2837.57
2838.61
2848.29
2863.45
2871.78
2873.99
2874.24
2874.5
2875.53
2877.2
2879.31
2881.9
2884.9
2888.14
2891.62
2895.31
2899.17
2903.21
2907.48
2911.99
2916.69
2921.59
2926.75
2932.19
2937.88
2943.72
2949.68
2955.79
2962.14
2968.76
2975.65
2982.73
2989.92
2997.18
3004.5
3011.92
3019.47
3027.18
3035.06
3043.07
3051.19
3059.4
3067.68
3076.02
3084.38
3092.74
3101.08
3109.37
3117.6
3125.73
3133.75
3141.61
3149.32
3156.83
3164.11
3171.12
3177.8
3184.11
3190.02
3195.45
3200.37
3204.7
3208.32
3211.18
3213.23
3214.37
3214.65
3213.55
3211.38
3207.76
3202.59
3195.86
3187.32
3176.95
3164.65
3150.15
3133.35
3114.07
3092.66
3068.85
3042.65
3013.67
2981.92
2947.62
2910.83
2871.95
2830.69
2786.95
2740.91
2692.04
2642.29
2589.23
2535.4
2458.54
2790
2790
2790
2790
2790
2790
2790
2790
2790
2790
2790
2790.02
2790.87
2802.16
2842.41
2889.38
2908.46
2912.41
2909.65
2899.32
2888.6
2879.61
2871.37
2863.54
2856.17
2849.26
2843.87
2841.31
2842.04
2851.28
2867.53
2877.21
2879.98
2880.35
2880.69
2881.81
2883.65
2885.93
2888.7
2891.88
2895.3
2898.94
2902.78
2906.81
2911.03
2915.49
2920.2
2925.14
2930.29
2935.69
2941.38
2947.32
2953.44
2959.67
2966.04
2972.64
2979.53
2986.7
2994.08
3001.61
3009.22
3016.9
3024.7
3032.64
3040.76
3049.06
3057.53
3066.14
3074.87
3083.7
3092.61
3101.59
3110.61
3119.65
3128.68
3137.7
3146.68
3155.59
3164.42
3173.14
3181.74
3190.2
3198.46
3206.49
3214.25
3221.7
3228.8
3235.51
3241.75
3247.47
3252.58
3257.04
3260.69
3263.55
3265.44
3266.36
3266.3
3264.52
3261.73
3257.28
3251.24
3243.45
3233.73
3221.99
3208.07
3192.05
3173.53
3152.65
3128.97
3102.68
3073.66
3042.03
3008.07
2971.46
2932.72
2891.17
2847.23
2800.65
2751.3
2697.28
2625.23
2790
2790
2790
2790
2790
2790
2790
2790
2790
2790
2790
2790.01
2790.47
2798.45
2834.42
2884.55
2908.03
2914.8
2912.87
2902.95
2891.83
2882.68
2874.5
2866.86
2859.73
2853.02
2847.49
2844.65
2845.14
2854.3
2871.55
2882.47
2885.76
2886.3
2886.77
2888.02
2890.05
2892.51
2895.44
2898.78
2902.34
2906.1
2910.07
2914.23
2918.6
2923.22
2928.12
2933.27
2938.64
2944.26
2950.17
2956.34
2962.69
2969.16
2975.77
2982.6
2989.72
2997.14
3004.8
3012.62
3020.54
3028.56
3036.69
3044.98
3053.45
3062.13
3071.01
3080.04
3089.22
3098.53
3107.95
3117.47
3127.07
3136.71
3146.39
3156.1
3165.81
3175.51
3185.17
3194.78
3204.33
3213.8
3223.16
3232.37
3241.39
3250.2
3258.75
3267.02
3274.95
3282.49
3289.57
3296.13
3302.11
3307.43
3312.01
3315.7
3318.52
3320.27
3321.01
3320.47
3318.38
3314.84
3309.51
3302.41
3293.27
3281.95
3268.17
3252.09
3233.32
3212.04
3187.8
3160.88
3131.08
3098.46
3063.34
3025.14
2984.59
2941.08
2895.16
2843.99
2776.77
2790
2790
2790
2790
2790
2790
2790
2790
2790
2790
2790
2790
2790.28
2796.14
2828.23
2880.09
2907.87
2916.8
2915.2
2905.83
2894.49
2885.32
2877.32
2869.91
2862.96
2856.27
2850.51
2847.47
2847.84
2857.47
2875.75
2887.71
2891.42
2892.14
2892.76
2894.17
2896.4
2899.02
2902.09
2905.56
2909.23
2913.08
2917.15
2921.42
2925.9
2930.66
2935.72
2941.05
2946.61
2952.42
2958.52
2964.89
2971.45
2978.13
2984.95
2991.99
2999.32
3006.96
3014.86
3022.95
3031.15
3039.46
3047.89
3056.48
3065.27
3074.29
3083.51
3092.92
3102.49
3112.22
3122.08
3132.07
3142.16
3152.33
3162.57
3172.87
3183.21
3193.58
3203.96
3214.34
3224.71
3235.05
3245.35
3255.56
3265.67
3275.64
3285.45
3295.06
3304.44
3313.55
3322.32
3330.71
3338.67
3346.14
3353.04
3359.3
3364.83
3369.51
3373.25
3375.96
3377.53
3377.98
3376.74
3374.06
3369.59
3363.12
3354.62
3343.96
3330.86
3315.32
3296.91
3275.87
3251.69
3224.79
3194.96
3161.87
3125.9
3086.23
3043.76
2995.53
2932.54
2790
2790
2790
2790
2790
2790
2790
2790
2790
2790
2790
2790
2790.2
2794.82
2823.95
2876.55
2908.1
2918.39
2916.96
2908.05
2896.66
2887.59
2879.79
2872.58
2865.65
2858.79
2852.88
2849.81
2850.21
2860.96
2880.32
2893
2896.98
2897.86
2898.64
2900.17
2902.6
2905.35
2908.54
2912.1
2915.85
2919.77
2923.92
2928.28
2932.87
2937.75
2942.95
2948.44
2954.18
2960.16
2966.43
2972.97
2979.71
2986.59
2993.61
3000.83
3008.35
3016.19
3024.32
3032.64
3041.09
3049.65
3058.34
3067.2
3076.27
3085.57
3095.1
3104.83
3114.74
3124.82
3135.07
3145.46
3155.97
3166.59
3177.31
3188.11
3198.99
3209.93
3220.92
3231.95
3243.01
3254.08
3265.17
3276.23
3287.25
3298.2
3309.06
3319.81
3330.42
3340.85
3351.06
3361.01
3370.65
3379.93
3388.81
3397.21
3405.07
3412.31
3418.84
3424.6
3429.42
3433.29
3436
3437.5
3437.83
3436.16
3433.15
3427.99
3420.62
3411.03
3398.67
3383.7
3365.38
3344.27
3319.6
3291.56
3259.8
3223.81
3184.57
3139.18
3079.76
2790
2790
2790
2790
2790
2790
2790
2790
2790
2790
2790
2790
2790.16
2794.24
2821.6
2874.55
2908.66
2919.7
2918.38
2909.71
2898.39
2889.46
2881.83
2874.72
2867.7
2860.66
2854.74
2851.84
2852.48
2864.98
2885.42
2898.34
2902.35
2903.32
2904.22
2905.85
2908.46
2911.31
2914.59
2918.23
2922.05
2926.04
2930.27
2934.73
2939.43
2944.43
2949.76
2955.41
2961.3
2967.44
2973.87
2980.57
2987.48
2994.54
3001.73
3009.13
3016.83
3024.86
3033.17
3041.7
3050.37
3059.15
3068.07
3077.16
3086.47
3096.02
3105.81
3115.81
3126.02
3136.41
3146.98
3157.71
3168.58
3179.58
3190.7
3201.93
3213.26
3224.68
3236.18
3247.75
3259.39
3271.08
3282.82
3294.6
3306.38
3318.14
3329.88
3341.56
3353.18
3364.71
3376.11
3387.34
3398.38
3409.18
3419.71
3429.91
3439.73
3449.11
3457.99
3466.3
3473.97
3480.88
3486.95
3491.95
3495.95
3498.59
3499.98
3499.96
3497.42
3493.49
3486.97
3478.08
3466.31
3451.87
3433.84
3412.71
3387
3356.66
3321.56
3279.72
3224.37
2790
2790
2790
2790
2790
2790
2790
2790
2790
2790
2790
2790
2790.15
2794.1
2821.12
2874.24
2909.44
2920.92
2919.57
2910.85
2899.65
2890.84
2883.31
2876.24
2869.12
2862.01
2856.25
2853.68
2854.93
2869.73
2891.07
2903.65
2907.37
2908.33
2909.3
2911
2913.79
2916.72
2920.1
2923.83
2927.74
2931.82
2936.15
2940.72
2945.54
2950.67
2956.14
2961.94
2967.99
2974.28
2980.87
2987.73
2994.8
3002.02
3009.37
3016.94
3024.8
3032.99
3041.49
3050.19
3059.05
3068.02
3077.14
3086.44
3095.95
3105.72
3115.73
3125.97
3136.43
3147.08
3157.92
3168.94
3180.11
3191.44
3202.89
3214.48
3226.19
3238.01
3249.94
3261.96
3274.07
3286.28
3298.56
3310.92
3323.32
3335.76
3348.21
3360.67
3373.11
3385.53
3397.9
3410.19
3422.36
3434.39
3446.26
3457.92
3469.34
3480.47
3491.24
3501.63
3511.56
3520.97
3529.77
3537.88
3545.19
3551.6
3556.91
3561.2
3564.02
3565.55
3565.54
3562.83
3558.37
3551.12
3540.62
3527.3
3509
3486.15
3456.03
3419.42
3368.44
2790
2790
2790
2790
2790
2790
2790
2790
2790
2790
2790
2790
2790.16
2794.23
2821.78
2875.52
2910.75
2922.11
2920.54
2911.48
2900.37
2891.66
2884.18
2877.13
2869.99
2862.99
2857.53
2855.41
2857.91
2875.39
2897.18
2908.83
2911.91
2912.72
2913.69
2915.51
2918.48
2921.52
2925.03
2928.87
2932.9
2937.1
2941.55
2946.24
2951.2
2956.47
2962.1
2968.05
2974.26
2980.71
2987.45
2994.46
3001.68
3009.05
3016.56
3024.28
3032.29
3040.64
3049.29
3058.16
3067.17
3076.32
3085.61
3095.08
3104.78
3114.74
3124.95
3135.4
3146.07
3156.94
3168.02
3179.28
3190.72
3202.32
3214.06
3225.95
3237.98
3250.14
3262.42
3274.82
3287.34
3299.96
3312.7
3325.54
3338.45
3351.44
3364.47
3377.56
3390.68
3403.82
3416.96
3430.09
3443.17
3456.19
3469.12
3481.95
3494.63
3507.14
3519.43
3531.48
3543.23
3554.66
3565.69
3576.28
3586.33
3595.79
3604.55
3612.49
3619.48
3625.26
3629.91
3632.91
3634.45
3634.13
3630.86
3625.86
3616.81
3604.03
3583.07
3557.76
3517.65
2790
2790
2790
2790
2790
2790
2790
2790
2790
2790
2790
2790
2790.19
2794.78
2824.38
2878.75
2912.5
2923.19
2921.29
2911.65
2900.61
2891.96
2884.47
2877.39
2870.32
2863.62
2858.69
2857.18
2861.76
2882.13
2903.65
2913.81
2916
2916.51
2917.41
2919.38
2922.57
2925.77
2929.45
2933.45
2937.62
2941.95
2946.55
2951.38
2956.48
2961.91
2967.7
2973.81
2980.18
2986.78
2993.67
3000.82
3008.18
3015.68
3023.33
3031.19
3039.34
3047.83
3056.62
3065.62
3074.78
3084.07
3093.51
3103.14
3113.01
3123.13
3133.52
3144.15
3155
3166.07
3177.36
3188.83
3200.5
3212.33
3224.32
3236.47
3248.77
3261.21
3273.8
3286.53
3299.38
3312.37
3325.48
3338.72
3352.06
3365.5
3379.03
3392.62
3406.29
3420.02
3433.8
3447.6
3461.41
3475.21
3488.99
3502.72
3516.4
3529.99
3543.46
3556.79
3569.95
3582.91
3595.63
3608.07
3620.15
3631.85
3643.08
3653.8
3663.92
3673.35
3681.96
3689.6
3696.05
3701.3
3704.81
3706.75
3706.67
3702.86
3694.01
3682.08
3659.04
2790
2790
2790
2790
2790
2790
2790
2790
2790
2790
2790
2790
2790.26
2795.98
2828.7
2883.33
2914.44
2923.96
2921.74
2911.45
2900.45
2891.8
2884.23
2877.1
2870.1
2863.87
2859.71
2859.07
2866.75
2889.93
2910.24
2918.56
2919.75
2919.86
2920.63
2922.8
2926.23
2929.61
2933.49
2937.66
2942
2946.48
2951.22
2956.2
2961.45
2967.04
2972.99
2979.26
2985.78
2992.53
2999.56
3006.84
3014.33
3021.95
3029.72
3037.7
3045.99
3054.61
3063.53
3072.66
3081.95
3091.36
3100.94
3110.71
3120.72
3131
3141.54
3152.33
3163.35
3174.6
3186.06
3197.73
3209.59
3221.62
3233.83
3246.2
3258.74
3271.44
3284.29
3297.29
3310.43
3323.72
3337.16
3350.73
3364.43
3378.25
3392.17
3406.2
3420.31
3434.52
3448.8
3463.14
3477.53
3491.95
3506.39
3520.83
3535.27
3549.68
3564.04
3578.32
3592.52
3606.61
3620.56
3634.34
3647.93
3661.28
3674.34
3687.08
3699.44
3711.37
3722.76
3733.55
3743.62
3752.84
3761.07
3768.04
3774.01
3777.78
3779.65
3777.7
3773.03
2790
2790
2790
2790
2790
2790
2790
2790
2790
2790
2790
2790.01
2790.41
2797.95
2834.67
2888.93
2916.51
2924.29
2921.72
2910.83
2899.93
2891.27
2883.58
2876.31
2869.34
2863.74
2860.55
2861.16
2873.17
2898.55
2916.63
2922.95
2923.28
2923.04
2923.67
2926.06
2929.69
2933.26
2937.34
2941.68
2946.17
2950.8
2955.68
2960.79
2966.19
2971.93
2978.04
2984.45
2991.1
2997.98
3005.12
3012.52
3020.11
3027.83
3035.71
3043.8
3052.21
3060.96
3069.99
3079.23
3088.63
3098.16
3107.85
3117.76
3127.9
3138.32
3149
3159.94
3171.12
3182.52
3194.15
3205.98
3218.02
3230.24
3242.64
3255.22
3267.96
3280.88
3293.96
3307.2
3320.6
3334.16
3347.87
3361.74
3375.74
3389.88
3404.14
3418.51
3432.99
3447.58
3462.27
3477.03
3491.87
3506.76
3521.69
3536.66
3551.66
3566.66
3581.65
3596.6
3611.52
3626.37
3641.14
3655.79
3670.34
3684.71
3698.87
3712.8
3726.45
3739.8
3752.74
3765.27
3777.26
3788.59
3799.12
3808.72
3817.34
3824.68
3830.79
3834.03
3838.13
2790
2790
2790
2790
2790
2790
2790
2790
2790
2790
2790
2790.01
2790.69
2800.92
2842.21
2895.06
2918.64
2924.29
2920.99
2909.82
2899.19
2890.51
2882.65
2875.19
2868.21
2863.31
2861.15
2863.73
2881.02
2907.52
2922.5
2926.78
2926.59
2926.05
2926.69
2929.36
2933.13
2936.86
2941.11
2945.6
2950.21
2954.97
2959.97
2965.21
2970.73
2976.61
2982.86
2989.4
2996.15
3003.14
3010.39
3017.88
3025.55
3033.36
3041.33
3049.53
3058.05
3066.9
3076.04
3085.38
3094.87
3104.49
3114.29
3124.31
3134.58
3145.12
3155.93
3167
3178.32
3189.86
3201.64
3213.63
3225.82
3238.2
3250.77
3263.52
3276.45
3289.55
3302.83
3316.28
3329.89
3343.67
3357.62
3371.72
3385.98
3400.38
3414.91
3429.56
3444.34
3459.23
3474.23
3489.31
3504.48
3519.71
3535
3550.33
3565.69
3581.07
3596.45
3611.79
3627.12
3642.38
3657.56
3672.63
3687.6
3702.39
3717.02
3731.44
3745.56
3759.3
3772.6
3785.58
3798.02
3809.88
3820.99
3831.25
3840.43
3848.48
3854.58
3858.79
3862.6
2790
2790
2790
2790
2790
2790
2790
2790
2790
2790
2790
2790.03
2791.2
2805.15
2851.02
2901.18
2920.77
2924.14
2919.44
2908.14
2898.1
2889.57
2881.56
2873.87
2866.95
2862.74
2861.68
2867.44
2890.01
2916.02
2927.72
2930
2929.53
2928.83
2929.63
2932.66
2936.58
2940.45
2944.84
2949.44
2954.15
2959.01
2964.11
2969.44
2975.07
2981.07
2987.42
2994.04
3000.88
3007.95
3015.28