/*--------------------------------*- C++ -*----------------------------------*\
| =========                 |                                                 |
| \\      /  F ield         | OpenFOAM: The Open Source CFD Toolbox           |
|  \\    /   O peration     | Version:  2406                                  |
|   \\  /    A nd           | Website:  www.openfoam.com                      |
|    \\/     M anipulation  |                                                 |
\*---------------------------------------------------------------------------*/
FoamFile
{
    version     2.0;
    format      ascii;
    arch        "LSB;label=32;scalar=64";
    class       volScalarField;
    location    "0.017";
    object      rho;
}
// * * * * * * * * * * * * * * * * * * * * * * * * * * * * * * * * * * * * * //

dimensions      [1 -3 0 0 0 0 0];

internalField   nonuniform List<scalar> 
78650
(
0.042133
0.042133
0.042133
0.042133
0.042133
0.0421331
0.0421347
0.0421637
0.0423277
0.0426526
0.0429119
0.0430147
0.0430041
0.0429332
0.0427716
0.0426189
0.0424974
0.0423897
0.0422853
0.0421805
0.0420742
0.0419673
0.0418663
0.0417921
0.0417632
0.0417617
0.0417781
0.0417927
0.0417918
0.0417703
0.0417322
0.0416951
0.0416627
0.0416339
0.0416075
0.0415832
0.0415609
0.0415403
0.0415217
0.0415049
0.0414896
0.0414754
0.0414616
0.0414474
0.0414326
0.0414175
0.0414023
0.0413864
0.0413692
0.04135
0.041329
0.0413064
0.0412819
0.0412546
0.0412238
0.0411884
0.0411481
0.0411027
0.041052
0.0409955
0.0409328
0.040863
0.0407854
0.0406992
0.0406036
0.0404977
0.0403803
0.0402506
0.0401078
0.0399507
0.0397788
0.039591
0.0393863
0.0391644
0.038924
0.038665
0.0383869
0.0380888
0.0377699
0.0374306
0.03707
0.03669
0.0362896
0.0358709
0.0354312
0.0349726
0.0344944
0.0339969
0.0334829
0.0329582
0.0324307
0.0318969
0.0313586
0.0308216
0.0303113
0.0298273
0.0293443
0.028869
0.0283984
0.0279376
0.0274893
0.0270524
0.0266427
0.0262562
0.0258974
0.0255571
0.0252537
0.0249824
0.0247281
0.0244844
0.0242527
0.0240261
0.0238194
0.0236158
0.0234228
0.0232432
0.0230772
0.0229109
0.0227449
0.0225968
0.0223461
0.042133
0.042133
0.042133
0.042133
0.042133
0.0421331
0.0421338
0.0421519
0.0422799
0.0425902
0.0428872
0.0430198
0.0430196
0.0429733
0.0428237
0.0426697
0.0425464
0.0424371
0.042331
0.0422252
0.0421194
0.0420139
0.0419136
0.0418369
0.0418048
0.0418027
0.0418204
0.0418403
0.0418435
0.0418271
0.0417921
0.0417561
0.0417248
0.0416976
0.041673
0.0416509
0.0416311
0.0416133
0.0415977
0.0415839
0.0415716
0.0415605
0.04155
0.0415393
0.0415282
0.041517
0.0415059
0.0414945
0.041482
0.0414679
0.0414521
0.0414349
0.0414161
0.0413953
0.0413714
0.0413436
0.0413113
0.0412744
0.0412327
0.0411859
0.0411336
0.0410751
0.0410096
0.0409362
0.0408545
0.0407633
0.0406618
0.0405491
0.0404243
0.0402861
0.0401343
0.0399676
0.0397851
0.0395867
0.039371
0.0391375
0.038885
0.0386115
0.0383164
0.0380004
0.0376629
0.0373053
0.0369264
0.0365278
0.0361075
0.03567
0.0352141
0.034741
0.0342516
0.0337469
0.0332284
0.0327138
0.0322061
0.0317034
0.0311877
0.030676
0.0301717
0.0296766
0.0291976
0.0287271
0.0282878
0.0278696
0.0274743
0.0270733
0.0266833
0.0262927
0.0259244
0.0255815
0.0252711
0.0249766
0.0246983
0.0244436
0.0242043
0.0239851
0.0237853
0.0235959
0.0234095
0.0232178
0.0230246
0.02284
0.02254
0.042133
0.042133
0.042133
0.042133
0.042133
0.042133
0.0421334
0.0421439
0.0422386
0.0425223
0.0428497
0.0430209
0.0430364
0.0430076
0.042876
0.0427231
0.0425968
0.0424842
0.042376
0.0422698
0.0421651
0.0420617
0.0419625
0.0418841
0.0418483
0.0418452
0.0418636
0.0418887
0.0418959
0.0418835
0.041852
0.0418177
0.0417878
0.0417622
0.0417396
0.0417197
0.0417025
0.0416877
0.0416751
0.0416643
0.0416551
0.0416471
0.0416397
0.0416325
0.0416251
0.0416177
0.0416107
0.0416037
0.041596
0.0415869
0.0415762
0.0415643
0.0415513
0.0415366
0.0415195
0.0414991
0.0414746
0.041446
0.0414131
0.0413756
0.0413334
0.0412855
0.0412314
0.0411702
0.0411015
0.0410242
0.0409375
0.0408406
0.0407324
0.0406121
0.040479
0.0403321
0.0401705
0.0399936
0.0397999
0.0395892
0.0393604
0.0391121
0.038844
0.0385564
0.0382486
0.0379213
0.0375735
0.0372054
0.0368159
0.0364086
0.0359793
0.0355321
0.0350663
0.0345803
0.0340795
0.0335666
0.0330458
0.032522
0.031987
0.0314547
0.0309307
0.0304036
0.0298913
0.0293761
0.0288795
0.0284141
0.0279765
0.0275593
0.0271713
0.0268022
0.0264622
0.0261252
0.0257947
0.0254678
0.0251521
0.0248566
0.0245959
0.0243547
0.0241269
0.0239074
0.023694
0.0234894
0.0232926
0.0231084
0.0227889
0.042133
0.042133
0.042133
0.042133
0.042133
0.042133
0.0421332
0.0421388
0.0422041
0.0424508
0.0427985
0.0430154
0.0430522
0.0430375
0.0429313
0.0427812
0.0426491
0.0425318
0.0424217
0.042316
0.0422131
0.0421122
0.0420146
0.0419346
0.041894
0.0418888
0.0419067
0.0419367
0.0419481
0.0419395
0.0419123
0.0418803
0.041852
0.041828
0.0418073
0.0417897
0.0417751
0.0417633
0.0417537
0.0417459
0.0417396
0.0417346
0.0417303
0.0417264
0.0417226
0.041719
0.0417159
0.0417132
0.04171
0.0417057
0.0417
0.0416932
0.0416856
0.0416768
0.0416662
0.0416528
0.0416359
0.0416153
0.0415908
0.0415624
0.0415297
0.0414923
0.0414493
0.0414
0.041344
0.0412804
0.0412084
0.0411272
0.0410358
0.0409334
0.0408192
0.0406921
0.0405513
0.0403962
0.0402257
0.0400397
0.0398371
0.0396161
0.0393762
0.0391169
0.0388369
0.0385368
0.0382155
0.0378729
0.0375081
0.0371234
0.0367162
0.0362929
0.0358489
0.0353871
0.0349077
0.0344063
0.0338941
0.0333721
0.032851
0.0323261
0.0318251
0.0313139
0.0308038
0.0302859
0.0297759
0.0292761
0.0287653
0.0282658
0.0277923
0.0273534
0.0269432
0.0265619
0.026198
0.0258482
0.0255252
0.0252207
0.0249398
0.0246735
0.0244204
0.0241767
0.023942
0.023718
0.023511
0.0233204
0.0229908
0.042133
0.042133
0.042133
0.042133
0.042133
0.042133
0.0421331
0.0421359
0.0421774
0.0423794
0.0427339
0.0429982
0.043063
0.0430663
0.0429872
0.0428411
0.0427015
0.0425792
0.0424684
0.0423641
0.0422633
0.042165
0.0420694
0.0419882
0.0419421
0.041934
0.0419502
0.0419848
0.0420012
0.041996
0.0419737
0.0419445
0.0419177
0.0418953
0.0418768
0.0418617
0.04185
0.0418412
0.0418347
0.0418298
0.0418263
0.0418243
0.0418231
0.0418225
0.0418222
0.0418223
0.0418231
0.0418245
0.0418258
0.0418263
0.0418254
0.0418237
0.0418214
0.0418184
0.0418141
0.0418076
0.041798
0.0417853
0.041769
0.0417492
0.0417259
0.0416984
0.041666
0.0416282
0.0415843
0.0415336
0.0414753
0.0414089
0.0413331
0.0412472
0.0411505
0.041042
0.040921
0.0407871
0.0406389
0.0404761
0.0402972
0.0401007
0.0398859
0.0396522
0.0393987
0.0391259
0.0388328
0.0385187
0.0381831
0.0378269
0.0374486
0.0370524
0.0366332
0.036197
0.0357397
0.0352658
0.0347766
0.0342701
0.0337618
0.0332344
0.0327113
0.032184
0.0316575
0.0311408
0.0306204
0.0301232
0.0296421
0.0291683
0.0287112
0.0282576
0.0278099
0.0273658
0.0269431
0.0265439
0.0261818
0.0258354
0.0255073
0.0251923
0.0248917
0.0246017
0.0243158
0.0240395
0.0237865
0.0235528
0.0231527
0.042133
0.042133
0.042133
0.042133
0.042133
0.042133
0.0421331
0.0421343
0.0421582
0.0423119
0.0426546
0.0429664
0.0430706
0.0430951
0.0430405
0.042902
0.0427547
0.0426286
0.0425182
0.0424155
0.0423169
0.0422212
0.0421278
0.0420455
0.0419929
0.0419805
0.0419935
0.0420314
0.0420541
0.0420528
0.0420362
0.0420099
0.0419848
0.0419643
0.0419483
0.041936
0.0419272
0.0419213
0.0419175
0.0419156
0.041915
0.0419158
0.0419175
0.0419201
0.0419232
0.0419269
0.0419315
0.041937
0.0419426
0.0419476
0.0419515
0.0419547
0.0419575
0.04196
0.0419615
0.0419616
0.0419591
0.0419541
0.0419459
0.0419344
0.04192
0.041902
0.0418799
0.0418532
0.041821
0.0417829
0.0417383
0.0416863
0.0416261
0.0415568
0.0414779
0.0413882
0.0412872
0.041174
0.0410474
0.040907
0.0407516
0.0405801
0.0403922
0.0401867
0.0399628
0.0397206
0.0394584
0.0391754
0.0388714
0.0385465
0.0381996
0.0378322
0.0374415
0.037033
0.0366008
0.0361495
0.0356765
0.0351864
0.0346804
0.0341572
0.0336202
0.0330896
0.0325485
0.0320199
0.0314783
0.0309385
0.0304118
0.0298984
0.0294042
0.0289231
0.0284641
0.0280253
0.0276128
0.027211
0.0268384
0.0264733
0.0261221
0.0257812
0.0254627
0.0251714
0.024898
0.0246314
0.0243768
0.0241363
0.0237385
0.042133
0.042133
0.042133
0.042133
0.042133
0.042133
0.042133
0.0421335
0.0421459
0.0422529
0.0425645
0.0429174
0.043073
0.0431215
0.0430869
0.0429613
0.0428096
0.0426809
0.0425708
0.0424696
0.0423731
0.0422799
0.0421889
0.0421054
0.042046
0.042028
0.0420369
0.0420756
0.0421075
0.0421113
0.0420997
0.0420768
0.0420537
0.0420357
0.0420225
0.0420129
0.0420069
0.0420038
0.0420029
0.0420039
0.0420062
0.0420096
0.0420142
0.0420199
0.0420264
0.0420337
0.042042
0.0420514
0.0420613
0.0420708
0.0420794
0.0420873
0.0420951
0.042103
0.0421105
0.0421168
0.0421212
0.0421233
0.0421232
0.0421198
0.0421141
0.0421055
0.0420931
0.0420769
0.042056
0.0420297
0.0419978
0.0419594
0.0419136
0.0418599
0.0417973
0.0417249
0.0416423
0.0415484
0.0414424
0.0413241
0.0411924
0.0410463
0.040885
0.0407068
0.0405106
0.0402962
0.0400621
0.0398081
0.0395341
0.0392393
0.0389225
0.0385842
0.0382223
0.0378409
0.037436
0.0370138
0.0365689
0.0361091
0.0356333
0.0351416
0.0346335
0.0341177
0.0335998
0.0330759
0.0325434
0.0319981
0.0314707
0.0309313
0.0303998
0.029855
0.0293294
0.028825
0.0283481
0.0278821
0.0274385
0.0270159
0.026616
0.0262305
0.02586
0.0255177
0.0252056
0.0249093
0.0246292
0.0243763
0.0238811
0.042133
0.042133
0.042133
0.042133
0.042133
0.042133
0.042133
0.0421332
0.0421388
0.0422061
0.0424682
0.0428477
0.0430693
0.0431437
0.0431222
0.0430209
0.0428696
0.042738
0.0426272
0.0425269
0.0424327
0.0423422
0.0422529
0.0421675
0.0421011
0.0420759
0.0420798
0.0421175
0.0421604
0.0421712
0.0421637
0.042145
0.0421249
0.0421098
0.0420992
0.042092
0.0420889
0.0420886
0.0420906
0.0420941
0.042099
0.0421051
0.0421124
0.0421211
0.0421309
0.0421417
0.0421536
0.0421668
0.0421807
0.0421945
0.0422076
0.0422202
0.0422328
0.0422457
0.0422588
0.0422714
0.0422825
0.0422915
0.0422985
0.0423033
0.0423057
0.0423061
0.0423032
0.0422972
0.0422873
0.0422725
0.0422531
0.0422279
0.0421963
0.0421579
0.0421116
0.0420566
0.0419924
0.0419181
0.041833
0.0417365
0.0416276
0.0415051
0.041368
0.0412148
0.0410448
0.040858
0.0406531
0.0404302
0.0401882
0.0399255
0.0396411
0.0393353
0.0390073
0.0386585
0.0382864
0.0378947
0.0374784
0.0370436
0.0365839
0.0361047
0.0356077
0.0350888
0.0345713
0.0340351
0.0335114
0.0329516
0.0324157
0.0318922
0.0313777
0.030853
0.0303441
0.0298436
0.0293631
0.0288801
0.0284051
0.0279437
0.0275128
0.0271058
0.026711
0.0263213
0.0259452
0.0255819
0.0252445
0.0249284
0.0243326
0.042133
0.042133
0.042133
0.042133
0.042133
0.042133
0.042133
0.0421331
0.0421353
0.0421728
0.0423743
0.0427571
0.0430494
0.0431582
0.0431499
0.0430799
0.0429345
0.0427985
0.042686
0.0425871
0.042495
0.0424061
0.0423173
0.0422298
0.0421572
0.0421237
0.0421225
0.0421573
0.0422121
0.0422323
0.042229
0.0422155
0.0421988
0.0421864
0.0421781
0.0421736
0.042173
0.0421757
0.0421802
0.0421863
0.0421938
0.0422025
0.0422125
0.0422241
0.0422371
0.0422513
0.0422667
0.0422836
0.0423014
0.0423194
0.042337
0.0423541
0.0423713
0.0423893
0.0424079
0.0424264
0.0424439
0.04246
0.0424743
0.0424867
0.0424971
0.0425056
0.0425119
0.0425153
0.0425159
0.0425122
0.0425046
0.042492
0.0424735
0.0424492
0.0424179
0.042379
0.0423319
0.0422756
0.0422096
0.0421334
0.0420457
0.041946
0.0418334
0.0417065
0.0415648
0.0414079
0.0412341
0.0410429
0.0408328
0.0406021
0.0403505
0.0400782
0.0397838
0.0394673
0.0391276
0.0387673
0.0383833
0.03798
0.0375513
0.0371049
0.036637
0.0361536
0.0356537
0.0351449
0.0346212
0.0340774
0.0335224
0.0329825
0.0324246
0.0318778
0.031316
0.0307749
0.0302517
0.0297475
0.029252
0.0287703
0.0283088
0.0278804
0.0274803
0.0270852
0.0266978
0.0263212
0.0259746
0.0256675
0.0251518
0.042133
0.042133
0.042133
0.042133
0.042133
0.042133
0.042133
0.0421331
0.0421338
0.0421521
0.0422915
0.0426484
0.0430032
0.0431633
0.0431757
0.043136
0.0430016
0.0428618
0.0427484
0.0426512
0.04256
0.0424702
0.0423805
0.0422915
0.0422144
0.0421727
0.0421665
0.0421967
0.0422618
0.0422949
0.0422965
0.0422882
0.0422749
0.0422651
0.0422591
0.0422573
0.042259
0.0422641
0.0422711
0.0422796
0.0422895
0.0423007
0.0423134
0.0423278
0.0423439
0.0423614
0.0423801
0.0424004
0.0424219
0.042444
0.0424658
0.0424873
0.0425091
0.0425319
0.0425556
0.0425798
0.0426036
0.0426263
0.0426475
0.0426671
0.0426852
0.042702
0.0427169
0.0427296
0.0427396
0.0427466
0.04275
0.04275
0.0427443
0.0427341
0.0427177
0.0426946
0.0426643
0.0426258
0.0425788
0.0425225
0.0424561
0.0423791
0.0422903
0.0421884
0.0420728
0.0419424
0.0417957
0.0416326
0.0414514
0.0412514
0.0410326
0.0407946
0.0405356
0.0402554
0.0399534
0.0396301
0.0392823
0.038912
0.0385157
0.038101
0.0376627
0.0372054
0.0367242
0.0362245
0.035712
0.0351908
0.0346505
0.0341139
0.0335516
0.0330005
0.0324289
0.0318629
0.0313063
0.0307694
0.0302374
0.0297149
0.0291876
0.0286861
0.0282106
0.027754
0.0273078
0.0268607
0.026426
0.0260424
0.0253336
0.042133
0.042133
0.042133
0.042133
0.042133
0.042133
0.042133
0.042133
0.0421333
0.042141
0.0422265
0.0425305
0.0429294
0.0431563
0.0432029
0.0431807
0.0430684
0.0429294
0.0428148
0.0427167
0.0426232
0.0425316
0.0424415
0.0423526
0.0422727
0.0422236
0.0422124
0.0422363
0.0423086
0.0423577
0.0423665
0.0423622
0.0423528
0.0423456
0.0423422
0.0423423
0.0423462
0.0423532
0.0423626
0.0423737
0.0423861
0.0423998
0.0424151
0.0424322
0.0424513
0.042472
0.042494
0.0425176
0.0425427
0.0425686
0.0425947
0.0426206
0.0426469
0.0426742
0.0427029
0.0427326
0.0427624
0.0427915
0.0428195
0.0428462
0.0428717
0.042896
0.0429192
0.0429408
0.0429603
0.0429773
0.0429911
0.0430017
0.0430085
0.043011
0.0430085
0.0430001
0.0429855
0.0429635
0.042934
0.0428963
0.0428497
0.0427937
0.0427272
0.0426491
0.0425586
0.0424547
0.0423363
0.0422033
0.0420542
0.0418881
0.0417044
0.0415015
0.0412777
0.0410326
0.0407652
0.040475
0.0401608
0.0398247
0.0394649
0.0390859
0.0386818
0.0382553
0.0378021
0.0373322
0.0368487
0.0363514
0.0358368
0.0352924
0.0347498
0.0341996
0.033657
0.0330926
0.0325356
0.0319818
0.0314484
0.0309258
0.0303917
0.0298662
0.0293564
0.0288687
0.0284148
0.0279619
0.0275142
0.0270899
0.0262823
0.042133
0.042133
0.042133
0.042133
0.042133
0.042133
0.042133
0.042133
0.0421331
0.0421359
0.0421817
0.0424153
0.0428289
0.0431337
0.0432178
0.0432148
0.0431361
0.0430028
0.042883
0.0427793
0.0426831
0.0425912
0.0425025
0.042415
0.0423334
0.0422775
0.0422608
0.0422778
0.0423527
0.0424193
0.0424386
0.042438
0.0424328
0.0424275
0.042426
0.0424278
0.0424335
0.0424424
0.0424541
0.0424674
0.0424821
0.0424983
0.0425161
0.0425359
0.0425579
0.0425817
0.0426069
0.0426337
0.0426621
0.0426918
0.042722
0.0427522
0.0427827
0.0428145
0.042848
0.0428828
0.0429183
0.0429535
0.0429879
0.0430213
0.0430538
0.0430855
0.0431164
0.0431463
0.0431746
0.0432011
0.0432253
0.0432468
0.0432651
0.0432796
0.04329
0.0432956
0.0432967
0.0432908
0.0432788
0.0432593
0.0432318
0.0431961
0.043151
0.0430958
0.0430296
0.0429512
0.0428599
0.0427552
0.0426356
0.0425001
0.0423478
0.0421772
0.0419874
0.0417783
0.0415483
0.0412969
0.0410236
0.0407287
0.0404101
0.0400692
0.0397014
0.0393107
0.0388944
0.0384593
0.0380021
0.0375254
0.0370244
0.0365009
0.0359589
0.0354141
0.0348717
0.0342959
0.0337191
0.0331189
0.0325478
0.0319959
0.0314462
0.0308908
0.0303454
0.0298197
0.0293403
0.0288781
0.0284404
0.0280368
0.0272679
0.042133
0.042133
0.042133
0.042133
0.042133
0.042133
0.042133
0.042133
0.0421331
0.0421339
0.0421552
0.0423149
0.0427076
0.0430842
0.0432199
0.0432477
0.043201
0.0430769
0.0429476
0.0428383
0.0427417
0.0426513
0.0425643
0.042478
0.0423954
0.0423337
0.0423113
0.0423217
0.0423938
0.0424776
0.0425114
0.0425155
0.0425132
0.0425092
0.0425088
0.0425126
0.04252
0.0425306
0.0425444
0.04256
0.042577
0.0425956
0.042616
0.0426386
0.0426636
0.0426905
0.042719
0.0427489
0.0427806
0.0428138
0.0428479
0.0428822
0.0429171
0.0429532
0.0429912
0.0430309
0.0430718
0.0431129
0.0431535
0.0431934
0.0432326
0.0432712
0.0433095
0.0433472
0.043384
0.0434194
0.0434531
0.0434846
0.0435137
0.0435398
0.0435625
0.043581
0.0435951
0.0436042
0.0436078
0.0436057
0.0435959
0.0435794
0.0435544
0.0435209
0.0434776
0.0434236
0.0433583
0.0432809
0.04319
0.043085
0.0429645
0.0428271
0.0426723
0.0424994
0.0423065
0.042093
0.0418585
0.0416023
0.0413225
0.0410195
0.0406909
0.040341
0.039967
0.0395702
0.0391459
0.0387014
0.0382358
0.0377511
0.0372451
0.0367232
0.0361897
0.0356464
0.0350738
0.0344887
0.0339005
0.0333224
0.0327562
0.0321753
0.0315941
0.0309879
0.0304207
0.0298611
0.0293278
0.0288232
0.0278617
0.042133
0.042133
0.042133
0.042133
0.042133
0.042133
0.042133
0.042133
0.042133
0.0421333
0.0421418
0.042238
0.0425754
0.043005
0.0432142
0.0432814
0.0432527
0.0431439
0.0430099
0.0428982
0.0428022
0.0427128
0.0426262
0.0425406
0.042458
0.0423925
0.0423643
0.042369
0.0424336
0.0425328
0.042584
0.0425937
0.0425929
0.0425896
0.04259
0.0425956
0.0426049
0.0426171
0.0426328
0.0426504
0.0426698
0.042691
0.0427141
0.0427395
0.0427674
0.0427975
0.042829
0.0428619
0.0428966
0.0429332
0.042971
0.0430094
0.0430484
0.0430886
0.0431309
0.0431752
0.0432212
0.0432678
0.0433143
0.0433603
0.0434058
0.043451
0.0434961
0.0435412
0.0435858
0.0436295
0.0436722
0.0437132
0.0437525
0.0437894
0.0438236
0.0438547
0.0438822
0.0439055
0.0439238
0.0439369
0.0439445
0.0439465
0.0439408
0.0439281
0.0439067
0.0438752
0.0438344
0.0437824
0.0437186
0.0436423
0.043552
0.0434468
0.043326
0.0431887
0.0430332
0.0428589
0.0426647
0.0424492
0.0422108
0.0419494
0.041664
0.0413579
0.0410265
0.0406685
0.0402812
0.0398745
0.0394485
0.0390017
0.0385254
0.0380241
0.0375043
0.0369738
0.0364331
0.0358725
0.0352963
0.0347125
0.0341401
0.0335736
0.0330205
0.0324153
0.0318398
0.0312704
0.0307534
0.0302887
0.029473
0.042133
0.042133
0.042133
0.042133
0.042133
0.042133
0.042133
0.042133
0.042133
0.0421331
0.042136
0.0421869
0.0424475
0.0428984
0.0431992
0.0433024
0.0432886
0.0432067
0.0430747
0.0429606
0.042863
0.0427727
0.042686
0.042602
0.0425212
0.0424537
0.0424189
0.0424185
0.0424716
0.042582
0.0426525
0.0426697
0.0426696
0.0426672
0.0426683
0.0426757
0.0426867
0.0427006
0.0427181
0.042738
0.0427599
0.0427839
0.04281
0.0428383
0.0428691
0.0429021
0.0429366
0.0429724
0.04301
0.0430497
0.0430911
0.0431335
0.0431766
0.0432209
0.0432673
0.0433161
0.0433669
0.0434187
0.0434708
0.0435226
0.0435741
0.0436256
0.0436771
0.043729
0.0437809
0.0438325
0.0438834
0.0439334
0.043982
0.044029
0.0440739
0.0441163
0.0441558
0.0441919
0.0442242
0.0442522
0.0442751
0.0442929
0.0443049
0.0443107
0.0443108
0.0443006
0.0442833
0.0442558
0.044218
0.0441695
0.0441086
0.0440345
0.0439463
0.0438428
0.0437222
0.0435841
0.0434267
0.0432488
0.0430499
0.0428296
0.042587
0.0423227
0.0420322
0.0417164
0.0413745
0.0410122
0.0406273
0.0402181
0.0397772
0.0393083
0.0388164
0.0383125
0.0377952
0.0372583
0.0366933
0.0361028
0.0355026
0.0349121
0.0343217
0.0337071
0.0330668
0.0324294
0.0317893
0.0311977
0.0301529
0.042133
0.042133
0.042133
0.042133
0.042133
0.042133
0.042133
0.042133
0.042133
0.0421331
0.042134
0.0421577
0.0423385
0.0427722
0.0431596
0.0433098
0.0433157
0.0432661
0.0431422
0.0430221
0.0429203
0.0428294
0.0427445
0.0426634
0.0425853
0.042516
0.0424739
0.0424673
0.0425076
0.0426235
0.0427143
0.0427419
0.0427437
0.0427424
0.0427441
0.0427529
0.0427656
0.0427813
0.0428008
0.042823
0.0428476
0.0428744
0.0429034
0.0429346
0.042968
0.0430037
0.043041
0.0430796
0.04312
0.0431628
0.0432076
0.0432537
0.0433008
0.0433492
0.0433995
0.0434524
0.0435075
0.0435642
0.0436214
0.0436786
0.0437358
0.043793
0.0438505
0.0439087
0.0439673
0.0440261
0.0440847
0.0441429
0.0442002
0.0442565
0.0443113
0.0443643
0.0444151
0.0444633
0.0445085
0.0445501
0.0445879
0.0446214
0.0446502
0.0446733
0.0446908
0.0447017
0.0447057
0.0447014
0.0446878
0.0446651
0.0446311
0.0445859
0.0445278
0.0444559
0.0443693
0.0442672
0.0441479
0.0440106
0.0438549
0.0436797
0.0434832
0.0432644
0.0430212
0.0427561
0.0424664
0.0421523
0.0418103
0.0414439
0.041051
0.0406331
0.0401898
0.0397271
0.0392447
0.0387436
0.0382166
0.0376651
0.0370955
0.0365191
0.0359482
0.0353788
0.0347839
0.0341776
0.0335568
0.0329875
0.0319634
0.042133
0.042133
0.042133
0.042133
0.042133
0.042133
0.042133
0.042133
0.042133
0.042133
0.0421333
0.0421432
0.0422563
0.0426395
0.0430899
0.0433045
0.0433449
0.0433184
0.0432047
0.0430781
0.0429741
0.0428851
0.0428033
0.0427249
0.0426476
0.0425749
0.0425253
0.0425125
0.0425415
0.0426579
0.042769
0.0428102
0.042816
0.0428156
0.0428178
0.0428276
0.0428418
0.0428593
0.0428808
0.0429054
0.0429326
0.0429622
0.042994
0.0430278
0.0430638
0.043102
0.0431419
0.0431833
0.0432265
0.0432722
0.0433203
0.0433701
0.0434211
0.0434733
0.0435274
0.0435841
0.0436433
0.0437044
0.0437665
0.0438288
0.0438912
0.0439538
0.0440169
0.0440809
0.0441457
0.0442112
0.0442769
0.0443425
0.0444079
0.0444727
0.0445365
0.0445992
0.0446603
0.0447194
0.0447762
0.0448303
0.0448813
0.0449289
0.0449726
0.0450121
0.0450469
0.0450761
0.0450991
0.0451153
0.0451243
0.0451264
0.0451177
0.0451003
0.0450713
0.0450298
0.0449764
0.0449089
0.0448262
0.0447274
0.0446113
0.0444761
0.0443202
0.0441426
0.0439427
0.0437217
0.0434754
0.0432024
0.0429012
0.0425782
0.0422325
0.0418621
0.041461
0.0410311
0.0405755
0.0401018
0.0396064
0.0390892
0.0385433
0.0379783
0.0373983
0.0368173
0.036221
0.0356268
0.0349567
0.0343461
0.0332856
0.042133
0.042133
0.042133
0.042133
0.042133
0.042133
0.042133
0.042133
0.042133
0.042133
0.0421331
0.0421369
0.0422015
0.0425135
0.0429984
0.0432909
0.0433723
0.0433547
0.0432589
0.0431315
0.0430277
0.0429416
0.0428617
0.0427825
0.0427032
0.0426274
0.0425726
0.0425548
0.0425753
0.0426888
0.0428188
0.0428756
0.0428869
0.0428875
0.0428899
0.0429001
0.0429155
0.0429346
0.042958
0.0429851
0.0430147
0.0430469
0.0430814
0.0431177
0.043156
0.0431965
0.043239
0.0432831
0.043329
0.0433776
0.0434289
0.0434822
0.0435368
0.0435927
0.0436503
0.0437105
0.0437735
0.0438386
0.043905
0.0439719
0.0440391
0.0441067
0.0441749
0.0442442
0.0443147
0.0443862
0.0444583
0.0445308
0.0446034
0.0446759
0.044748
0.0448194
0.0448898
0.044959
0.0450265
0.045092
0.0451552
0.0452157
0.0452732
0.0453274
0.0453778
0.045424
0.0454652
0.0455009
0.0455301
0.0455528
0.0455679
0.0455751
0.0455746
0.0455608
0.0455381
0.0455022
0.0454529
0.0453892
0.0453096
0.0452127
0.0450977
0.044964
0.0448102
0.0446359
0.0444379
0.0442161
0.0439694
0.0437013
0.0434089
0.0430907
0.0427417
0.0423628
0.0419575
0.0415312
0.0410835
0.0406141
0.0401148
0.0395918
0.0390398
0.0384757
0.0378897
0.0372949
0.0366626
0.0360486
0.0350143
0.042133
0.042133
0.042133
0.042133
0.042133
0.042133
0.042133
0.042133
0.042133
0.042133
0.0421331
0.0421344
0.0421688
0.0424057
0.0428945
0.043268
0.043387
0.0433793
0.0433076
0.0431857
0.0430826
0.0429965
0.042914
0.0428317
0.0427512
0.0426744
0.0426174
0.0425961
0.042611
0.0427193
0.0428659
0.0429385
0.0429559
0.0429575
0.04296
0.0429703
0.0429867
0.0430073
0.0430327
0.043062
0.0430941
0.0431286
0.0431654
0.043204
0.0432445
0.0432873
0.0433322
0.043379
0.0434277
0.0434791
0.0435334
0.04359
0.0436481
0.0437074
0.0437683
0.0438318
0.043898
0.0439668
0.0440371
0.0441083
0.0441799
0.044252
0.044325
0.0443992
0.0444747
0.0445516
0.0446296
0.0447083
0.0447875
0.044867
0.0449465
0.0450259
0.0451047
0.0451828
0.0452598
0.0453355
0.0454095
0.0454816
0.0455514
0.0456188
0.0456833
0.0457445
0.0458018
0.0458548
0.0459029
0.0459456
0.0459822
0.0460116
0.0460337
0.0460472
0.0460522
0.0460464
0.0460288
0.0459994
0.0459555
0.0458975
0.0458237
0.0457333
0.0456244
0.0454955
0.0453454
0.045174
0.0449788
0.0447594
0.0445126
0.044241
0.0439418
0.0436157
0.0432622
0.0428821
0.0424775
0.0420486
0.041594
0.0411158
0.0406076
0.0400818
0.0395277
0.038967
0.0383672
0.0377732
0.0368358
0.042133
0.042133
0.042133
0.042133
0.042133
0.042133
0.042133
0.042133
0.042133
0.042133
0.042133
0.0421335
0.0421512
0.042322
0.0427881
0.0432317
0.0433897
0.0434015
0.0433544
0.0432405
0.043134
0.0430433
0.0429574
0.042874
0.0427941
0.0427186
0.0426615
0.0426374
0.0426483
0.0427507
0.0429109
0.0429988
0.0430221
0.0430247
0.0430275
0.0430383
0.0430559
0.0430782
0.0431054
0.043137
0.0431712
0.0432078
0.0432466
0.0432872
0.0433297
0.0433746
0.0434219
0.0434713
0.0435228
0.0435768
0.0436339
0.0436935
0.0437548
0.0438171
0.0438811
0.0439474
0.0440166
0.0440886
0.0441624
0.0442374
0.044313
0.0443892
0.0444664
0.0445449
0.0446251
0.0447068
0.04479
0.0448741
0.0449592
0.0450449
0.0451311
0.0452175
0.0453038
0.0453898
0.0454753
0.0455601
0.0456438
0.0457262
0.0458071
0.0458862
0.0459633
0.046038
0.0461098
0.0461783
0.0462429
0.0463033
0.0463589
0.0464092
0.0464534
0.0464904
0.0465196
0.0465405
0.0465522
0.0465552
0.046544
0.0465219
0.046485
0.0464322
0.0463636
0.0462764
0.0461703
0.0460444
0.0458959
0.0457234
0.0455252
0.0453047
0.0450589
0.0447879
0.0444871
0.0441567
0.0437985
0.0434131
0.0430046
0.0425696
0.0421063
0.0416151
0.041088
0.0405439
0.0399547
0.0393493
0.0384918
0.042133
0.042133
0.042133
0.042133
0.042133
0.042133
0.042133
0.042133
0.042133
0.042133
0.042133
0.0421332
0.0421423
0.0422623
0.0426889
0.0431846
0.0433853
0.0434267
0.0433977
0.043289
0.0431762
0.0430815
0.0429946
0.0429119
0.0428341
0.0427611
0.042704
0.042677
0.0426847
0.0427824
0.042954
0.0430561
0.0430853
0.0430892
0.0430927
0.0431045
0.0431239
0.0431479
0.043177
0.0432105
0.0432465
0.0432848
0.0433252
0.0433675
0.0434119
0.0434587
0.0435082
0.04356
0.043614
0.0436706
0.0437302
0.0437925
0.0438564
0.0439216
0.0439882
0.0440571
0.044129
0.0442038
0.0442808
0.0443591
0.0444383
0.0445183
0.0445993
0.0446817
0.044766
0.0448521
0.0449398
0.0450289
0.0451192
0.0452104
0.0453025
0.0453951
0.0454881
0.0455811
0.0456741
0.0457669
0.0458591
0.0459506
0.0460411
0.0461305
0.0462186
0.046305
0.0463895
0.0464716
0.0465508
0.0466268
0.0466992
0.0467675
0.0468311
0.0468893
0.0469414
0.0469867
0.0470239
0.0470529
0.0470722
0.0470815
0.047081
0.047063
0.0470348
0.0469896
0.0469282
0.0468492
0.0467502
0.0466308
0.0464889
0.0463254
0.046136
0.0459222
0.0456792
0.0454088
0.0451094
0.0447823
0.0444304
0.0440499
0.0436457
0.0432094
0.0427431
0.0422417
0.0417026
0.0411067
0.0403179
0.042133
0.042133
0.042133
0.042133
0.042133
0.042133
0.042133
0.042133
0.042133
0.042133
0.042133
0.0421331
0.042138
0.0422228
0.0426043
0.0431338
0.0433807
0.0434519
0.0434315
0.0433273
0.0432102
0.0431138
0.0430277
0.042947
0.0428717
0.0428008
0.0427423
0.0427123
0.0427175
0.0428143
0.0429964
0.0431115
0.0431461
0.0431518
0.0431567
0.0431699
0.0431913
0.0432171
0.043248
0.0432831
0.0433206
0.0433601
0.0434018
0.0434455
0.0434914
0.0435398
0.0435913
0.0436453
0.0437015
0.0437604
0.0438222
0.0438868
0.0439532
0.0440208
0.0440898
0.0441611
0.0442353
0.0443126
0.0443923
0.0444737
0.0445561
0.0446394
0.0447238
0.0448097
0.0448976
0.0449875
0.0450792
0.0451726
0.0452675
0.0453635
0.0454607
0.0455588
0.0456575
0.0457566
0.0458561
0.0459557
0.0460553
0.0461547
0.0462536
0.0463519
0.0464495
0.0465461
0.0466416
0.0467355
0.0468274
0.046917
0.047004
0.047088
0.0471685
0.047245
0.0473168
0.0473833
0.0474439
0.0474977
0.0475442
0.0475814
0.04761
0.0476278
0.0476354
0.0476299
0.0476089
0.0475732
0.0475194
0.0474477
0.0473552
0.0472407
0.047101
0.0469378
0.046747
0.0465303
0.046283
0.0460077
0.0457024
0.0453675
0.0450059
0.0446099
0.0441852
0.0437231
0.043228
0.0426716
0.0419473
0.042133
0.042133
0.042133
0.042133
0.042133
0.042133
0.042133
0.042133
0.042133
0.042133
0.042133
0.0421331
0.042136
0.0421983
0.0425388
0.0430867
0.043379
0.0434728
0.043456
0.0433576
0.0432382
0.0431417
0.0430573
0.0429791
0.0429058
0.0428351
0.0427742
0.0427421
0.0427459
0.0428477
0.0430406
0.0431667
0.0432058
0.0432133
0.0432199
0.0432346
0.0432581
0.0432857
0.043318
0.0433544
0.043393
0.0434335
0.0434762
0.043521
0.043568
0.0436179
0.0436709
0.0437268
0.043785
0.0438458
0.0439096
0.0439762
0.0440447
0.0441144
0.0441856
0.044259
0.0443353
0.0444148
0.0444971
0.0445811
0.0446663
0.0447525
0.0448399
0.0449289
0.0450199
0.0451131
0.0452085
0.0453056
0.0454044
0.0455046
0.0456062
0.0457089
0.0458126
0.045917
0.0460221
0.0461276
0.0462336
0.0463396
0.0464457
0.0465517
0.0466574
0.0467628
0.0468676
0.0469715
0.0470742
0.0471754
0.0472749
0.0473723
0.0474674
0.0475595
0.0476482
0.047733
0.0478133
0.0478887
0.0479583
0.0480214
0.0480772
0.0481243
0.048162
0.0481893
0.0482052
0.0482098
0.0481974
0.0481705
0.0481257
0.0480607
0.0479752
0.0478679
0.0477359
0.0475792
0.0473931
0.0471802
0.0469351
0.0466621
0.0463587
0.04602
0.0456481
0.0452318
0.0447796
0.0442621
0.0435937
0.042133
0.042133
0.042133
0.042133
0.042133
0.042133
0.042133
0.042133
0.042133
0.042133
0.042133
0.0421331
0.0421351
0.0421842
0.0424934
0.0430494
0.0433815
0.0434896
0.0434745
0.0433809
0.043261
0.0431656
0.0430834
0.0430073
0.0429342
0.0428618
0.0427993
0.0427669
0.0427711
0.0428846
0.0430889
0.0432224
0.0432642
0.0432735
0.0432817
0.0432978
0.0433233
0.0433522
0.0433857
0.0434231
0.0434625
0.0435037
0.0435472
0.0435929
0.0436411
0.0436922
0.0437467
0.0438042
0.0438642
0.0439267
0.0439922
0.0440606
0.0441309
0.0442027
0.0442758
0.0443511
0.0444293
0.0445109
0.0445953
0.0446817
0.0447694
0.0448582
0.0449482
0.0450399
0.0451337
0.0452297
0.0453281
0.0454284
0.0455306
0.0456344
0.0457397
0.0458465
0.0459544
0.0460633
0.0461731
0.0462836
0.0463949
0.0465066
0.0466188
0.0467311
0.0468437
0.0469564
0.0470691
0.0471814
0.0472932
0.0474041
0.0475141
0.0476228
0.0477299
0.0478352
0.0479382
0.0480385
0.0481355
0.048229
0.0483182
0.0484026
0.0484815
0.0485542
0.0486197
0.0486774
0.0487258
0.0487646
0.0487918
0.0488069
0.0488103
0.0487937
0.0487636
0.0487122
0.0486385
0.0485426
0.0484189
0.0482687
0.0480849
0.047873
0.0476249
0.0473413
0.0470166
0.0466429
0.0462293
0.0457478
0.0451258
0.042133
0.042133
0.042133
0.042133
0.042133
0.042133
0.042133
0.042133
0.042133
0.042133
0.042133
0.0421331
0.0421348
0.0421781
0.0424686
0.0430284
0.0433873
0.0435033
0.0434894
0.0433983
0.0432793
0.0431852
0.0431049
0.04303
0.0429559
0.0428815
0.0428189
0.0427883
0.042795
0.0429271
0.0431426
0.0432786
0.0433207
0.0433309
0.0433404
0.0433575
0.0433849
0.0434148
0.0434492
0.0434875
0.0435276
0.0435695
0.0436138
0.0436605
0.0437098
0.0437622
0.043818
0.043877
0.0439386
0.0440028
0.0440699
0.0441399
0.044212
0.0442855
0.0443604
0.0444375
0.0445175