/*--------------------------------*- C++ -*----------------------------------*\
| =========                 |                                                 |
| \\      /  F ield         | OpenFOAM: The Open Source CFD Toolbox           |
|  \\    /   O peration     | Version:  2406                                  |
|   \\  /    A nd           | Website:  www.openfoam.com                      |
|    \\/     M anipulation  |                                                 |
\*---------------------------------------------------------------------------*/
FoamFile
{
    version     2.0;
    format      ascii;
    arch        "LSB;label=32;scalar=64";
    class       volVectorField;
    location    "0.017";
    object      U;
}
// * * * * * * * * * * * * * * * * * * * * * * * * * * * * * * * * * * * * * //

dimensions      [0 1 -1 0 0 0 0];

internalField   nonuniform List<vector> 
78650
(
(210 -3.24907e-12 0)
(210 -2.63576e-12 0)
(210 1.78703e-11 0)
(210 4.11756e-09 0)
(210 5.17678e-07 0)
(210 5.42329e-05 0)
(209.989 0.00357804 0)
(209.791 0.0811171 0)
(208.702 0.59274 0)
(206.619 1.71587 0)
(204.827 2.67044 0)
(204.435 3.04206 0)
(204.275 3.25799 0)
(204.76 3.22052 0)
(205.775 2.84622 0)
(206.79 2.54471 0)
(207.599 2.29349 0)
(208.385 2.17194 0)
(209.137 2.07669 0)
(209.879 2.04602 0)
(210.624 2.06385 0)
(211.382 2.11164 0)
(212.118 2.19311 0)
(212.706 2.40062 0)
(212.993 2.79347 0)
(213.132 3.26034 0)
(213.165 3.86145 0)
(213.207 4.48265 0)
(213.364 5.08657 0)
(213.61 5.61421 0)
(213.97 6.12204 0)
(214.313 6.69873 0)
(214.623 7.34148 0)
(214.914 8.03264 0)
(215.181 8.76174 0)
(215.426 9.52366 0)
(215.653 10.3143 0)
(215.859 11.1348 0)
(216.043 11.9885 0)
(216.212 12.8753 0)
(216.374 13.7959 0)
(216.529 14.7496 0)
(216.676 15.7345 0)
(216.816 16.7488 0)
(216.951 17.7931 0)
(217.08 18.8715 0)
(217.202 19.9877 0)
(217.322 21.1417 0)
(217.446 22.3316 0)
(217.575 23.5566 0)
(217.709 24.8185 0)
(217.847 26.1201 0)
(217.993 27.4624 0)
(218.154 28.8448 0)
(218.334 30.2659 0)
(218.542 31.7234 0)
(218.781 33.218 0)
(219.054 34.7516 0)
(219.369 36.3243 0)
(219.719 37.9372 0)
(220.117 39.5901 0)
(220.576 41.2801 0)
(221.086 43.0062 0)
(221.662 44.7675 0)
(222.323 46.5612 0)
(223.055 48.3849 0)
(223.877 50.2368 0)
(224.815 52.1123 0)
(225.849 54.0081 0)
(226.995 55.922 0)
(228.288 57.8459 0)
(229.696 59.7775 0)
(231.258 61.7079 0)
(232.985 63.627 0)
(234.851 65.5351 0)
(236.903 67.4216 0)
(239.14 69.2774 0)
(241.549 71.0978 0)
(244.166 72.8645 0)
(246.99 74.558 0)
(249.995 76.1859 0)
(253.233 77.708 0)
(256.654 79.152 0)
(260.308 80.441 0)
(264.146 81.6224 0)
(268.233 82.6182 0)
(272.503 83.4517 0)
(276.907 84.0641 0)
(281.498 84.503 0)
(286.223 84.6921 0)
(291.216 84.7907 0)
(295.722 84.8553 0)
(300.032 84.7706 0)
(303.887 84.67 0)
(308.011 84.4081 0)
(312.687 83.9486 0)
(317.814 83.1931 0)
(322.832 82.1965 0)
(327.123 81.2533 0)
(331.077 80.3157 0)
(334.642 79.4137 0)
(338.047 78.5343 0)
(341.578 77.5575 0)
(344.723 76.7445 0)
(347.843 75.6455 0)
(350.349 74.7831 0)
(353.095 73.5878 0)
(355.434 72.8076 0)
(358.443 71.7011 0)
(361.082 70.7431 0)
(364.296 69.5191 0)
(366.49 68.7049 0)
(369.208 67.4845 0)
(370.368 66.8053 0)
(370.889 65.9723 0)
(371.211 65.5563 0)
(372.122 64.9867 0)
(373.66 64.7075 0)
(375.971 64.3356 0)
(379.031 63.9456 0)
(380.191 65.5607 0)
(210 -1.25551e-12 0)
(210 -2.4509e-12 0)
(210 2.90889e-12 0)
(210 1.17939e-09 0)
(210 1.58865e-07 0)
(210 1.85375e-05 0)
(209.994 0.00159634 0)
(209.87 0.0464953 0)
(209.005 0.424374 0)
(206.981 1.45146 0)
(204.979 2.49281 0)
(204.368 2.97501 0)
(204.113 3.23019 0)
(204.458 3.25714 0)
(205.419 2.93575 0)
(206.436 2.61245 0)
(207.253 2.34129 0)
(208.045 2.229 0)
(208.796 2.14885 0)
(209.531 2.12986 0)
(210.267 2.15252 0)
(211.011 2.19885 0)
(211.738 2.26906 0)
(212.336 2.43944 0)
(212.635 2.7927 0)
(212.767 3.23191 0)
(212.783 3.81039 0)
(212.779 4.43805 0)
(212.909 5.03582 0)
(213.106 5.59123 0)
(213.434 6.10483 0)
(213.757 6.67476 0)
(214.048 7.30681 0)
(214.318 7.98676 0)
(214.563 8.70478 0)
(214.784 9.45476 0)
(214.986 10.2321 0)
(215.163 11.0388 0)
(215.317 11.8771 0)
(215.456 12.747 0)
(215.587 13.65 0)
(215.709 14.5862 0)
(215.821 15.5542 0)
(215.924 16.5524 0)
(216.021 17.5812 0)
(216.11 18.6442 0)
(216.191 19.7449 0)
(216.267 20.8838 0)
(216.343 22.059 0)
(216.423 23.2687 0)
(216.505 24.5141 0)
(216.589 25.798 0)
(216.677 27.122 0)
(216.773 28.4867 0)
(216.884 29.8907 0)
(217.019 31.3318 0)
(217.177 32.8103 0)
(217.366 34.3282 0)
(217.591 35.8855 0)
(217.844 37.4841 0)
(218.14 39.1246 0)
(218.488 40.805 0)
(218.879 42.524 0)
(219.329 44.2815 0)
(219.854 46.0759 0)
(220.44 47.905 0)
(221.107 49.7678 0)
(221.879 51.6612 0)
(222.736 53.5819 0)
(223.699 55.5282 0)
(224.799 57.4942 0)
(226.005 59.4782 0)
(227.358 61.4753 0)
(228.865 63.4793 0)
(230.502 65.4901 0)
(232.323 67.4952 0)
(234.321 69.4801 0)
(236.486 71.4325 0)
(238.853 73.3346 0)
(241.417 75.177 0)
(244.15 76.9671 0)
(247.103 78.6741 0)
(250.221 80.3108 0)
(253.547 81.8235 0)
(257.016 83.2575 0)
(260.686 84.5213 0)
(264.499 85.694 0)
(268.528 86.6856 0)
(272.745 87.5441 0)
(277.153 88.2315 0)
(281.585 88.7336 0)
(285.95 89.1154 0)
(290.358 89.368 0)
(295.266 89.3609 0)
(300.513 89.027 0)
(305.762 88.4817 0)
(310.553 87.8922 0)
(314.882 87.3736 0)
(319.111 86.7036 0)
(323.178 85.9217 0)
(327.586 84.8049 0)
(331.508 83.7822 0)
(335.682 82.6487 0)
(339.048 81.9015 0)
(342.523 80.8782 0)
(345.44 80.1001 0)
(348.75 78.9799 0)
(351.61 78.2037 0)
(354.999 77.0444 0)
(357.506 76.3595 0)
(360.419 75.2594 0)
(362.519 74.578 0)
(364.575 73.7162 0)
(366.267 73.2165 0)
(368.017 72.3311 0)
(368.996 71.7506 0)
(369.843 70.827 0)
(370.732 70.3691 0)
(372.686 69.935 0)
(376.153 69.4686 0)
(377.558 71.4755 0)
(210 3.33853e-13 0)
(210 2.64973e-12 0)
(210 -2.86724e-12 0)
(210 5.28545e-10 0)
(210 6.5802e-08 0)
(210 7.21915e-06 0)
(209.997 0.000677594 0)
(209.924 0.0249295 0)
(209.28 0.288451 0)
(207.416 1.18993 0)
(205.234 2.29609 0)
(204.316 2.91006 0)
(203.946 3.18771 0)
(204.191 3.28188 0)
(205.056 3.0094 0)
(206.055 2.65063 0)
(206.887 2.35567 0)
(207.69 2.25634 0)
(208.439 2.19405 0)
(209.165 2.18616 0)
(209.888 2.21118 0)
(210.619 2.25312 0)
(211.336 2.31097 0)
(211.948 2.44387 0)
(212.27 2.76216 0)
(212.4 3.18131 0)
(212.402 3.74035 0)
(212.351 4.37729 0)
(212.448 4.9785 0)
(212.603 5.55709 0)
(212.896 6.07917 0)
(213.196 6.64332 0)
(213.467 7.26508 0)
(213.716 7.93502 0)
(213.937 8.64352 0)
(214.136 9.38266 0)
(214.313 10.148 0)
(214.459 10.9424 0)
(214.582 11.7671 0)
(214.691 12.6223 0)
(214.791 13.5099 0)
(214.879 14.4306 0)
(214.955 15.3835 0)
(215.021 16.3674 0)
(215.08 17.3828 0)
(215.129 18.4326 0)
(215.169 19.5204 0)
(215.201 20.647 0)
(215.23 21.8102 0)
(215.26 23.0078 0)
(215.29 24.2399 0)
(215.32 25.5096 0)
(215.35 26.8192 0)
(215.383 28.1695 0)
(215.426 29.5595 0)
(215.487 30.9869 0)
(215.567 32.4515 0)
(215.675 33.9553 0)
(215.814 35.4985 0)
(215.973 37.0831 0)
(216.172 38.7104 0)
(216.414 40.3784 0)
(216.691 42.0861 0)
(217.022 43.8335 0)
(217.42 45.6195 0)
(217.867 47.442 0)
(218.39 49.3009 0)
(219.006 51.1933 0)
(219.695 53.116 0)
(220.483 55.0685 0)
(221.393 57.0472 0)
(222.393 59.0508 0)
(223.531 61.0747 0)
(224.805 63.1116 0)
(226.196 65.1593 0)
(227.761 67.2074 0)
(229.484 69.2473 0)
(231.36 71.2735 0)
(233.431 73.2764 0)
(235.685 75.252 0)
(238.111 77.2028 0)
(240.758 79.1022 0)
(243.585 80.9513 0)
(246.634 82.7153 0)
(249.87 84.4152 0)
(253.358 85.967 0)
(256.99 87.4511 0)
(260.869 88.7423 0)
(264.902 89.9267 0)
(269.089 90.8964 0)
(273.416 91.701 0)
(278.011 92.3143 0)
(282.791 92.7214 0)
(287.629 92.9395 0)
(292.095 93.0745 0)
(296.533 93.112 0)
(300.713 93.0138 0)
(304.719 92.8438 0)
(309.291 92.3696 0)
(313.659 91.8024 0)
(318.558 91.0999 0)
(322.857 90.4593 0)
(327.652 89.5291 0)
(331.432 88.551 0)
(335.822 87.1749 0)
(339.266 86.0607 0)
(343.249 84.7731 0)
(346.256 83.97 0)
(349.569 82.8948 0)
(352.123 82.1698 0)
(354.766 81.1342 0)
(356.94 80.5896 0)
(359.527 79.6685 0)
(361.423 79.1774 0)
(363.394 78.2899 0)
(364.73 77.7166 0)
(366.165 76.8739 0)
(367.753 76.4052 0)
(370.156 75.9219 0)
(373.821 75.4811 0)
(375.243 77.6055 0)
(210 1.99645e-12 0)
(210 2.5656e-12 0)
(210 -5.74022e-13 0)
(210 1.35414e-10 0)
(210 1.73351e-08 0)
(210 2.14822e-06 0)
(209.999 0.000245112 0)
(209.959 0.0119833 0)
(209.509 0.181043 0)
(207.862 0.925615 0)
(205.533 2.05616 0)
(204.299 2.8028 0)
(203.788 3.11913 0)
(203.958 3.2869 0)
(204.684 3.0618 0)
(205.655 2.69788 0)
(206.514 2.40023 0)
(207.336 2.32099 0)
(208.084 2.26808 0)
(208.799 2.26151 0)
(209.508 2.28419 0)
(210.221 2.32114 0)
(210.926 2.36854 0)
(211.544 2.47003 0)
(211.89 2.75232 0)
(212.017 3.15162 0)
(212.012 3.68192 0)
(211.918 4.32265 0)
(211.979 4.92783 0)
(212.096 5.52337 0)
(212.351 6.05136 0)
(212.623 6.60596 0)
(212.875 7.21446 0)
(213.102 7.87283 0)
(213.3 8.56961 0)
(213.478 9.29413 0)
(213.627 10.0438 0)
(213.743 10.8224 0)
(213.837 11.6301 0)
(213.919 12.4675 0)
(213.988 13.3365 0)
(214.044 14.2389 0)
(214.086 15.1739 0)
(214.117 16.1408 0)
(214.139 17.1399 0)
(214.151 18.1736 0)
(214.151 19.245 0)
(214.141 20.3554 0)
(214.125 21.5019 0)
(214.107 22.6829 0)
(214.089 23.8968 0)
(214.067 25.1468 0)
(214.043 26.4357 0)
(214.016 27.7649 0)
(213.996 29.134 0)
(213.987 30.541 0)
(213.992 31.9849 0)
(214.022 33.4683 0)
(214.076 34.9909 0)
(214.145 36.5549 0)
(214.249 38.163 0)
(214.387 39.8133 0)
(214.553 41.505 0)
(214.767 43.239 0)
(215.037 45.0145 0)
(215.346 46.8297 0)
(215.725 48.6862 0)
(216.184 50.5817 0)
(216.704 52.5138 0)
(217.317 54.4829 0)
(218.038 56.4857 0)
(218.839 58.5193 0)
(219.773 60.5803 0)
(220.83 62.6637 0)
(221.999 64.7704 0)
(223.336 66.8953 0)
(224.814 69.0329 0)
(226.44 71.1757 0)
(228.255 73.3109 0)
(230.242 75.4292 0)
(232.401 77.5259 0)
(234.78 79.5774 0)
(237.329 81.583 0)
(240.086 83.5181 0)
(243.032 85.3856 0)
(246.203 87.1369 0)
(249.51 88.8338 0)
(253.068 90.3542 0)
(256.737 91.8186 0)
(260.675 93.0848 0)
(264.835 94.2379 0)
(269.123 95.1802 0)
(273.558 96.0398 0)
(278.018 96.7156 0)
(282.455 97.2223 0)
(286.867 97.6022 0)
(291.871 97.8999 0)
(296.444 97.8684 0)
(301.815 97.6627 0)
(306.496 97.2466 0)
(311.206 96.7367 0)
(315.459 96.2131 0)
(319.231 95.6836 0)
(323.095 95.1072 0)
(327.315 94.3106 0)
(331.07 93.7117 0)
(335.021 92.8764 0)
(338.335 92.1222 0)
(341.779 90.9561 0)
(344.629 90.0436 0)
(348.024 88.8265 0)
(350.78 88.1045 0)
(354.26 87.1165 0)
(356.723 86.5048 0)
(359.211 85.4608 0)
(360.71 84.6546 0)
(362.033 83.5654 0)
(363.37 83.0275 0)
(365.737 82.5205 0)
(369.516 82.0807 0)
(371.013 84.2259 0)
(210 3.46247e-13 0)
(210 -1.89514e-12 0)
(210 2.89937e-12 0)
(210 4.14735e-11 0)
(210 5.05338e-09 0)
(210 6.22712e-07 0)
(210 7.85609e-05 0)
(209.98 0.00516319 0)
(209.691 0.104184 0)
(208.326 0.679359 0)
(205.964 1.78708 0)
(204.375 2.6606 0)
(203.651 3.06741 0)
(203.743 3.23462 0)
(204.304 3.08044 0)
(205.231 2.735 0)
(206.122 2.44119 0)
(206.965 2.37613 0)
(207.707 2.32235 0)
(208.408 2.30964 0)
(209.102 2.32669 0)
(209.8 2.35711 0)
(210.491 2.39251 0)
(211.115 2.46142 0)
(211.497 2.70646 0)
(211.631 3.08649 0)
(211.628 3.58692 0)
(211.49 4.23521 0)
(211.499 4.85795 0)
(211.583 5.47144 0)
(211.794 6.00857 0)
(212.036 6.55684 0)
(212.269 7.15533 0)
(212.473 7.80345 0)
(212.648 8.48727 0)
(212.803 9.19559 0)
(212.923 9.92996 0)
(213.007 10.6935 0)
(213.074 11.485 0)
(213.126 12.3066 0)
(213.164 13.159 0)
(213.185 14.0448 0)
(213.192 14.9634 0)
(213.188 15.9148 0)
(213.172 16.8995 0)
(213.146 17.9186 0)
(213.106 18.9761 0)
(213.053 20.0726 0)
(212.993 21.2046 0)
(212.926 22.3716 0)
(212.858 23.5693 0)
(212.785 24.8018 0)
(212.705 26.0729 0)
(212.619 27.3838 0)
(212.535 28.7339 0)
(212.456 30.1236 0)
(212.388 31.5486 0)
(212.342 33.0133 0)
(212.312 34.5173 0)
(212.295 36.0612 0)
(212.308 37.6498 0)
(212.346 39.281 0)
(212.406 40.9537 0)
(212.51 42.67 0)
(212.659 44.4282 0)
(212.841 46.2268 0)
(213.085 48.0687 0)
(213.399 49.9512 0)
(213.762 51.8716 0)
(214.212 53.8313 0)
(214.755 55.8276 0)
(215.368 57.8588 0)
(216.105 59.9249 0)
(216.944 62.023 0)
(217.882 64.1533 0)
(218.975 66.3106 0)
(220.186 68.4872 0)
(221.534 70.6755 0)
(223.06 72.8654 0)
(224.742 75.0511 0)
(226.592 77.2308 0)
(228.652 79.3909 0)
(230.871 81.5329 0)
(233.296 83.6378 0)
(235.921 85.6999 0)
(238.763 87.6946 0)
(241.779 89.649 0)
(245.073 91.4803 0)
(248.495 93.2754 0)
(252.191 94.8699 0)
(255.988 96.4036 0)
(260.021 97.7323 0)
(264.235 98.9183 0)
(268.573 99.8796 0)
(273.337 100.788 0)
(277.872 101.281 0)
(282.982 101.855 0)
(287.553 102.15 0)
(292.373 102.398 0)
(296.939 102.439 0)
(301.296 102.381 0)
(306.211 102.064 0)
(310.762 101.519 0)
(315.331 100.859 0)
(320.004 100.105 0)
(323.916 99.4599 0)
(327.67 98.7513 0)
(331.088 98.1159 0)
(334.635 97.2709 0)
(337.83 96.6766 0)
(341.538 95.7727 0)
(344.467 95.2202 0)
(347.858 94.2638 0)
(350.4 93.6432 0)
(353.044 92.5733 0)
(354.82 91.729 0)
(356.415 90.5727 0)
(357.954 89.9091 0)
(360.651 89.3399 0)
(365.178 88.8928 0)
(366.825 91.6012 0)
(210 -5.64016e-12 0)
(210 -1.01074e-12 0)
(210 -4.26778e-12 0)
(210 -7.02396e-13 0)
(210 8.52289e-10 0)
(210 1.30648e-07 0)
(210 2.0046e-05 0)
(209.991 0.00192021 0)
(209.823 0.0535502 0)
(208.77 0.460316 0)
(206.46 1.47803 0)
(204.513 2.48004 0)
(203.533 2.99109 0)
(203.552 3.15617 0)
(203.931 3.07736 0)
(204.794 2.79496 0)
(205.721 2.51237 0)
(206.585 2.44769 0)
(207.316 2.38393 0)
(208.002 2.3625 0)
(208.683 2.37327 0)
(209.366 2.39695 0)
(210.042 2.42508 0)
(210.667 2.47615 0)
(211.081 2.69161 0)
(211.225 3.05595 0)
(211.229 3.52349 0)
(211.055 4.17145 0)
(211.002 4.80965 0)
(211.06 5.42245 0)
(211.223 5.95993 0)
(211.434 6.50179 0)
(211.648 7.08805 0)
(211.828 7.72127 0)
(211.981 8.38681 0)
(212.111 9.07563 0)
(212.199 9.79323 0)
(212.255 10.5397 0)
(212.296 11.3132 0)
(212.319 12.1164 0)
(212.327 12.9487 0)
(212.315 13.8152 0)
(212.29 14.7153 0)
(212.251 15.6491 0)
(212.2 16.6163 0)
(212.137 17.6185 0)
(212.058 18.6583 0)
(211.965 19.7363 0)
(211.861 20.8505 0)
(211.751 21.9964 0)
(211.636 23.1741 0)
(211.513 24.3852 0)
(211.381 25.6332 0)
(211.24 26.9196 0)
(211.098 28.2438 0)
(210.951 29.6121 0)
(210.816 31.0101 0)
(210.695 32.4478 0)
(210.583 33.9273 0)
(210.484 35.4445 0)
(210.41 37.0077 0)
(210.35 38.6143 0)
(210.308 40.2628 0)
(210.303 41.957 0)
(210.333 43.6945 0)
(210.387 45.4745 0)
(210.499 47.3014 0)
(210.665 49.1723 0)
(210.872 51.0852 0)
(211.158 53.0432 0)
(211.523 55.0439 0)
(211.948 57.0861 0)
(212.489 59.1708 0)
(213.114 61.2932 0)
(213.833 63.4526 0)
(214.699 65.6452 0)
(215.667 67.8649 0)
(216.771 70.1088 0)
(218.042 72.3717 0)
(219.452 74.65 0)
(221.025 76.942 0)
(222.795 79.2343 0)
(224.71 81.5222 0)
(226.83 83.7865 0)
(229.145 86.0196 0)
(231.662 88.2055 0)
(234.368 90.3459 0)
(237.32 92.389 0)
(240.406 94.3895 0)
(243.784 96.2368 0)
(247.277 98.0503 0)
(251.069 99.6453 0)
(255.012 101.172 0)
(259.184 102.506 0)
(263.475 103.742 0)
(267.826 104.745 0)
(272.255 105.615 0)
(276.763 106.37 0)
(281.126 106.976 0)
(285.907 107.426 0)
(290.392 107.598 0)
(295.574 107.646 0)
(300.283 107.608 0)
(305.106 107.457 0)
(309.87 107.108 0)
(314.28 106.566 0)
(319.073 105.775 0)
(323.485 104.904 0)
(328.026 103.891 0)
(331.738 103.101 0)
(335.815 102.121 0)
(338.904 101.5 0)
(342.661 100.465 0)
(345.55 99.7566 0)
(348.833 98.5997 0)
(350.912 97.8027 0)
(352.715 96.7319 0)
(354.364 96.1563 0)
(357.155 95.6163 0)
(361.674 95.3601 0)
(363.332 98.1855 0)
(210 -1.14257e-11 0)
(210 -4.7003e-12 0)
(210 -5.61037e-12 0)
(210 -4.21695e-12 0)
(210 1.45849e-10 0)
(210 2.37514e-08 0)
(210 4.05808e-06 0)
(209.997 0.000602895 0)
(209.909 0.0242086 0)
(209.166 0.284318 0)
(207.052 1.15833 0)
(204.791 2.24746 0)
(203.486 2.86693 0)
(203.411 3.05287 0)
(203.579 3.05854 0)
(204.344 2.86677 0)
(205.296 2.58319 0)
(206.178 2.49642 0)
(206.898 2.41611 0)
(207.574 2.38994 0)
(208.245 2.39508 0)
(208.913 2.40601 0)
(209.572 2.41769 0)
(210.197 2.45193 0)
(210.651 2.63728 0)
(210.818 2.98652 0)
(210.84 3.4255 0)
(210.641 4.06997 0)
(210.5 4.73777 0)
(210.528 5.34007 0)
(210.64 5.89349 0)
(210.819 6.4343 0)
(211.009 7.00795 0)
(211.163 7.62398 0)
(211.295 8.26922 0)
(211.397 8.93976 0)
(211.452 9.64225 0)
(211.484 10.3711 0)
(211.499 11.1256 0)
(211.491 11.9096 0)
(211.463 12.7276 0)
(211.42 13.5762 0)
(211.362 14.4585 0)
(211.289 15.3754 0)
(211.202 16.327 0)
(211.101 17.3139 0)
(210.983 18.3377 0)
(210.849 19.3992 0)
(210.702 20.4961 0)
(210.545 21.625 0)
(210.382 22.7841 0)
(210.209 23.9749 0)
(210.025 25.201 0)
(209.828 26.4654 0)
(209.623 27.7693 0)
(209.415 29.1092 0)
(209.211 30.4859 0)
(209.018 31.8993 0)
(208.822 33.3595 0)
(208.646 34.849 0)
(208.484 36.3845 0)
(208.33 37.9656 0)
(208.192 39.5873 0)
(208.083 41.2562 0)
(208 42.9685 0)
(207.936 44.7227 0)
(207.925 46.5251 0)
(207.955 48.3714 0)
(208.018 50.2604 0)
(208.154 52.197 0)
(208.352 54.1772 0)
(208.604 56.2007 0)
(208.961 58.2693 0)
(209.383 60.3781 0)
(209.895 62.5297 0)
(210.537 64.7246 0)
(211.26 66.9587 0)
(212.11 69.2326 0)
(213.104 71.541 0)
(214.216 73.8771 0)
(215.485 76.2361 0)
(216.935 78.6059 0)
(218.519 80.9824 0)
(220.31 83.3557 0)
(222.287 85.7224 0)
(224.458 88.0718 0)
(226.83 90.3965 0)
(229.437 92.6635 0)
(232.208 94.8946 0)
(235.258 97.0239 0)
(238.432 99.1277 0)
(241.916 101.052 0)
(245.474 102.95 0)
(249.314 104.632 0)
(253.309 106.27 0)
(257.563 107.719 0)
(261.96 108.93 0)
(266.632 110.064 0)
(271.3 110.941 0)
(276.244 111.731 0)
(281.009 112.192 0)
(285.918 112.531 0)
(290.671 112.772 0)
(295.012 112.961 0)
(299.572 112.961 0)
(303.888 112.829 0)
(308.536 112.536 0)
(312.731 112.304 0)
(316.932 111.856 0)
(320.629 111.456 0)
(324.603 110.668 0)
(327.989 110.107 0)
(331.999 109.202 0)
(335.322 108.57 0)
(339.076 107.56 0)
(341.66 106.8 0)
(343.892 105.787 0)
(345.852 105.268 0)
(348.76 104.703 0)
(353.527 104.108 0)
(355.048 106.993 0)
(210 -1.08075e-11 0)
(210 -1.62058e-12 0)
(210 -6.16095e-12 0)
(210 -1.07719e-11 0)
(210 -9.41142e-12 0)
(210 1.26807e-09 0)
(210 6.0278e-07 0)
(209.999 0.000149397 0)
(209.959 0.00934709 0)
(209.486 0.156347 0)
(207.687 0.841257 0)
(205.184 1.954 0)
(203.484 2.68529 0)
(203.266 2.9449 0)
(203.26 3.03611 0)
(203.893 2.93239 0)
(204.847 2.6494 0)
(205.747 2.53753 0)
(206.461 2.44122 0)
(207.129 2.40994 0)
(207.792 2.41062 0)
(208.445 2.41685 0)
(209.089 2.42809 0)
(209.71 2.46194 0)
(210.197 2.62458 0)
(210.397 2.95407 0)
(210.433 3.3639 0)
(210.225 3.98637 0)
(209.994 4.66861 0)
(209.977 5.26057 0)
(210.044 5.82193 0)
(210.189 6.35629 0)
(210.353 6.91057 0)
(210.481 7.50517 0)
(210.592 8.12924 0)
(210.662 8.78348 0)
(210.689 9.46749 0)
(210.701 10.1728 0)
(210.684 10.9123 0)
(210.646 11.6797 0)
(210.588 12.4766 0)
(210.516 13.3053 0)
(210.427 14.168 0)
(210.321 15.0663 0)
(210.199 15.9997 0)
(210.062 16.968 0)
(209.908 17.9721 0)
(209.735 19.0126 0)
(209.547 20.0878 0)
(209.347 21.1943 0)
(209.138 22.3299 0)
(208.918 23.4958 0)
(208.685 24.6952 0)
(208.436 25.9314 0)
(208.175 27.2057 0)
(207.906 28.5178 0)
(207.637 29.8663 0)
(207.37 31.2524 0)
(207.109 32.6735 0)
(206.854 34.1349 0)
(206.609 35.6381 0)
(206.361 37.1914 0)
(206.133 38.7794 0)
(205.923 40.4154 0)
(205.727 42.0981 0)
(205.55 43.8225 0)
(205.416 45.5987 0)
(205.309 47.4206 0)
(205.23 49.2874 0)
(205.215 51.2059 0)
(205.245 53.1709 0)
(205.325 55.1839 0)
(205.497 57.2479 0)
(205.718 59.3571 0)
(206.026 61.5171 0)
(206.448 63.7272 0)
(206.933 65.9808 0)
(207.542 68.2787 0)
(208.276 70.6135 0)
(209.117 72.979 0)
(210.114 75.3751 0)
(211.272 77.7957 0)
(212.552 80.2404 0)
(214.029 82.7048 0)
(215.669 85.1819 0)
(217.487 87.6578 0)
(219.498 90.1217 0)
(221.721 92.5557 0)
(224.114 94.9693 0)
(226.766 97.3244 0)
(229.577 99.6502 0)
(232.692 101.862 0)
(235.93 104.064 0)
(239.516 106.076 0)
(243.189 108.046 0)
(247.14 109.799 0)
(251.266 111.48 0)
(255.527 112.887 0)
(259.998 114.332 0)
(264.325 115.47 0)
(269.154 116.6 0)
(273.465 117.335 0)
(278.635 118.157 0)
(283.151 118.633 0)
(288.603 119.095 0)
(293.22 119.209 0)
(298.397 119.093 0)
(302.701 118.986 0)
(307.377 118.658 0)
(311.407 118.392 0)
(316.055 117.787 0)
(319.963 117.336 0)
(324.319 116.682 0)
(327.889 116.295 0)
(331.697 115.589 0)
(334.563 114.894 0)
(337.027 113.789 0)
(338.99 113.161 0)
(342.075 112.703 0)
(347.585 112.382 0)
(349.172 116.311 0)
(210 -6.48253e-12 0)
(210 4.62012e-12 0)
(210 -5.38794e-12 0)
(210 -2.08518e-12 0)
(210 -1.0634e-11 0)
(210 -7.53141e-10 0)
(210 5.3665e-09 0)
(210 2.52684e-05 0)
(209.984 0.00298245 0)
(209.717 0.0750524 0)
(208.318 0.557861 0)
(205.745 1.6101 0)
(203.641 2.45373 0)
(203.163 2.83139 0)
(202.98 2.99386 0)
(203.436 2.95432 0)
(204.368 2.69099 0)
(205.291 2.56153 0)
(206.006 2.44815 0)
(206.67 2.40119 0)
(207.325 2.3865 0)
(207.966 2.3847 0)
(208.596 2.40185 0)
(209.213 2.44696 0)
(209.73 2.59272 0)
(209.978 2.89792 0)
(210.026 3.2907 0)
(209.829 3.86905 0)
(209.502 4.56146 0)
(209.416 5.15539 0)
(209.44 5.72404 0)
(209.547 6.25019 0)
(209.679 6.78761 0)
(209.784 7.36406 0)
(209.873 7.96975 0)
(209.907 8.60759 0)
(209.918 9.26461 0)
(209.898 9.95979 0)
(209.853 10.6801 0)
(209.786 11.4279 0)
(209.699 12.2057 0)
(209.595 13.0156 0)
(209.475 13.8599 0)
(209.336 14.7405 0)
(209.179 15.6568 0)
(209.005 16.6079 0)
(208.813 17.5937 0)
(208.601 18.6149 0)
(208.37 19.6701 0)
(208.126 20.7559 0)
(207.87 21.8698 0)
(207.602 23.0123 0)
(207.319 24.1866 0)
(207.018 25.3963 0)
(206.699 26.6432 0)
(206.37 27.927 0)
(206.035 29.247 0)
(205.7 30.6029 0)
(205.365 31.9963 0)
(205.033 33.4281 0)
(204.704 34.9017 0)
(204.378 36.4153 0)
(204.059 37.9729 0)
(203.754 39.5745 0)
(203.449 41.2288 0)
(203.167 42.9166 0)
(202.917 44.6558 0)
(202.681 46.444 0)
(202.476 48.275 0)
(202.322 50.1602 0)
(202.198 52.0911 0)
(202.123 54.0716 0)
(202.125 56.1042 0)
(202.16 58.1826 0)
(202.279 60.3154 0)
(202.49 62.5011 0)
(202.75 64.7338 0)
(203.129 67.0198 0)
(203.608 69.3532 0)
(204.18 71.7328 0)
(204.897 74.162 0)
(205.748 76.6348 0)
(206.708 79.1486 0)
(207.855 81.6987 0)
(209.145 84.2735 0)
(210.609 86.8619 0)
(212.268 89.4579 0)
(214.125 92.0511 0)
(216.163 94.6399 0)
(218.451 97.1957 0)
(220.912 99.7271 0)
(223.634 102.19 0)
(226.487 104.632 0)
(229.665 106.936 0)
(232.926 109.223 0)
(236.538 111.309 0)
(240.243 113.375 0)
(244.244 115.25 0)
(248.365 117.055 0)
(252.683 118.647 0)
(257.185 120.113 0)
(261.774 121.255 0)
(266.537 122.324 0)
(271.437 123.282 0)
(276.145 124.024 0)
(281.04 124.653 0)
(285.977 125.026 0)
(290.814 125.246 0)
(295.944 125.333 0)
(300.566 125.296 0)
(305.65 125.058 0)
(310.122 124.665 0)
(314.699 124.181 0)
(318.858 123.776 0)
(323.315 123.208 0)
(326.652 122.565 0)
(329.745 121.433 0)
(332.212 120.519 0)
(335.432 119.896 0)
(340.797 119.672 0)
(342.33 123.084 0)
(210 -4.26271e-12 0)
(210 2.2915e-12 0)
(210 -2.6782e-14 0)
(210 7.31859e-13 0)
(210 -8.07733e-12 0)
(210 -4.41298e-10 0)
(210 -3.72182e-08 0)
(210 8.75348e-07 0)
(209.994 0.0007361 0)
(209.863 0.0305457 0)
(208.882 0.329427 0)
(206.449 1.24072 0)
(203.938 2.18181 0)
(203.063 2.74177 0)
(202.73 2.88453 0)
(203.009 2.92964 0)
(203.881 2.73839 0)
(204.814 2.58505 0)
(205.533 2.43742 0)
(206.198 2.3735 0)
(206.848 2.36334 0)
(207.481 2.37685 0)
(208.1 2.40992 0)
(208.71 2.46366 0)
(209.247 2.59012 0)
(209.544 2.86297 0)
(209.603 3.23363 0)
(209.436 3.74951 0)
(209.023 4.43696 0)
(208.836 5.04208 0)
(208.825 5.59737 0)
(208.894 6.11676 0)
(208.994 6.64045 0)
(209.08 7.19674 0)
(209.138 7.78448 0)
(209.147 8.39953 0)
(209.136 9.04286 0)
(209.087 9.72019 0)
(209.013 10.4234 0)
(208.917 11.1538 0)
(208.801 11.9131 0)
(208.668 12.7035 0)
(208.518 13.5278 0)
(208.347 14.3881 0)
(208.157 15.2845 0)
(207.949 16.215 0)
(207.722 17.1788 0)
(207.473 18.1761 0)
(207.203 19.206 0)
(206.917 20.2658 0)
(206.617 21.3527 0)
(206.304 22.4668 0)
(205.975 23.6109 0)
(205.625 24.7887 0)
(205.255 26.0027 0)
(204.869 27.2531 0)
(204.473 28.5392 0)
(204.073 29.8605 0)
(203.671 31.2175 0)
(203.268 32.6119 0)
(202.863 34.0464 0)
(202.456 35.5232 0)
(202.051 37.0434 0)
(201.648 38.6086 0)
(201.253 40.216 0)
(200.868 41.8684 0)
(200.506 43.5676 0)
(200.136 45.3272 0)
(199.81 47.1183 0)
(199.514 48.968 0)
(199.238 50.8666 0)
(199.01 52.8185 0)
(198.837 54.8258 0)
(198.689 56.8806 0)
(198.623 58.9954 0)
(198.624 61.1653 0)
(198.667 63.387 0)
(198.823 65.6697 0)
(199.052 68.0047 0)
(199.367 70.3929 0)
(199.818 72.8362 0)
(200.374 75.3246 0)
(201.035 77.8563 0)
(201.87 80.4308 0)
(202.826 83.0377 0)
(203.948 85.6759 0)
(205.249 88.3446 0)
(206.722 91.0357 0)
(208.367 93.7442 0)
(210.241 96.4541 0)
(212.288 99.1681 0)
(214.581 101.861 0)
(217.05 104.541 0)
(219.829 107.136 0)
(222.729 109.717 0)
(225.994 112.163 0)
(229.345 114.61 0)
(233.047 116.855 0)
(236.872 119.051 0)
(240.961 121.01 0)
(245.199 122.908 0)
(249.648 124.692 0)
(254.125 126.163 0)
(258.945 127.636 0)
(263.355 128.725 0)
(268.41 129.829 0)
(272.908 130.612 0)
(278.077 131.263 0)
(282.693 131.747 0)
(287.28 132.151 0)
(291.749 132.482 0)
(296.405 132.53 0)
(300.63 132.477 0)
(305.31 132.277 0)
(309.499 132.014 0)
(313.217 131.67 0)
(316.62 130.897 0)
(319.326 130.005 0)
(322.528 129.317 0)
(328.755 128.673 0)
(330.18 132.841 0)
(210 4.31265e-12 0)
(210 7.14498e-12 0)
(210 -2.72157e-12 0)
(210 -9.30403e-12 0)
(210 -1.07056e-11 0)
(210 -1.38349e-10 0)
(210 -1.60697e-08 0)
(210 -8.62608e-07 0)
(209.998 0.000117005 0)
(209.942 0.0101495 0)
(209.334 0.1698 0)
(207.225 0.874605 0)
(204.442 1.87821 0)
(203.063 2.57725 0)
(202.508 2.71387 0)
(202.649 2.89175 0)
(203.396 2.77617 0)
(204.312 2.57644 0)
(205.046 2.38426 0)
(205.723 2.31795 0)
(206.372 2.33183 0)
(207 2.36436 0)
(207.606 2.4057 0)
(208.203 2.4607 0)
(208.751 2.56923 0)
(209.096 2.8103 0)
(209.172 3.15783 0)
(209.049 3.61097 0)
(208.57 4.27952 0)
(208.257 4.90285 0)
(208.198 5.44538 0)
(208.235 5.96143 0)
(208.301 6.46882 0)
(208.37 7.00094 0)
(208.394 7.57019 0)
(208.389 8.16093 0)
(208.349 8.79404 0)
(208.276 9.45259 0)
(208.174 10.137 0)
(208.05 10.8476 0)
(207.906 11.5875 0)
(207.744 12.3597 0)
(207.563 13.1663 0)
(207.36 14.0089 0)
(207.135 14.8872 0)
(206.891 15.799 0)
(206.626 16.7425 0)
(206.339 17.7175 0)
(206.029 18.7235 0)
(205.699 19.7584 0)
(205.354 20.8196 0)
(204.994 21.9066 0)
(204.617 23.0216 0)
(204.218 24.1686 0)
(203.796 25.3505 0)
(203.354 26.5681 0)
(202.898 27.8208 0)
(202.433 29.1079 0)
(201.964 30.4301 0)
(201.489 31.7885 0)
(201.01 33.1855 0)
(200.526 34.623 0)
(200.037 36.103 0)
(199.546 37.6263 0)
(199.057 39.1943 0)
(198.573 40.8071 0)
(198.096 42.4673 0)
(197.631 44.1697 0)
(197.186 45.922 0)
(196.758 47.7276 0)
(196.341 49.5831 0)
(195.976 51.4863 0)
(195.642 53.447 0)
(195.332 55.4548 0)
(195.096 57.5266 0)
(194.902 59.653 0)
(194.748 61.8345 0)
(194.692 64.0818 0)
(194.682 66.3827 0)
(194.755 68.7447 0)
(194.946 71.1691 0)
(195.215 73.646 0)
(195.584 76.1805 0)
(196.109 78.7757 0)
(196.729 81.4214 0)
(197.509 84.1217 0)
(198.448 86.8714 0)
(199.538 89.6579 0)
(200.798 92.4751 0)
(202.271 95.3109 0)
(203.911 98.1579 0)
(205.774 100.997 0)
(207.819 103.829 0)
(210.128 106.623 0)
(212.578 109.418 0)
(215.362 112.141 0)
(218.244 114.858 0)
(221.501 117.418 0)
(224.857 119.943 0)
(228.541 122.3 0)
(232.33 124.653 0)
(236.358 126.857 0)
(240.602 128.96 0)
(245.038 130.702 0)
(249.754 132.45 0)
(254.439 133.938 0)
(259.357 135.363 0)
(264.405 136.483 0)
(269.504 137.42 0)
(274.392 138.151 0)
(279.304 138.864 0)
(284.424 139.35 0)
(289.08 139.568 0)
(294.555 139.644 0)
(299.153 139.608 0)
(303.523 139.483 0)
(307.4 139.08 0)
(310.372 138.639 0)
(313.943 138.309 0)
(320.425 138.271 0)
(321.705 143.392 0)
(210 7.3184e-12 0)
(210 -2.04793e-12 0)
(210 -8.92269e-12 0)
(210 -8.20501e-12 0)
(210 -7.45835e-12 0)
(210 -3.20235e-11 0)
(210 -4.85056e-09 0)
(210 -4.27671e-07 0)
(210 -9.37872e-07 0)
(209.979 0.00257422 0)
(209.649 0.0739962 0)
(208.006 0.555856 0)
(205.107 1.51946 0)
(203.179 2.34242 0)
(202.318 2.57503 0)
(202.347 2.83058 0)
(202.919 2.75828 0)
(203.792 2.53093 0)
(204.552 2.32243 0)
(205.247 2.28962 0)
(205.9 2.32999 0)
(206.52 2.3659 0)
(207.11 2.40026 0)
(207.69 2.44993 0)
(208.242 2.54381 0)
(208.632 2.75191 0)
(208.732 3.07186 0)
(208.657 3.46326 0)
(208.141 4.09305 0)
(207.693 4.73398 0)
(207.559 5.27355 0)
(207.568 5.78145 0)
(207.601 6.27463 0)
(207.646 6.79227 0)
(207.643 7.34406 0)
(207.616 7.92592 0)
(207.553 8.54228 0)
(207.455 9.18318 0)
(207.326 9.85011 0)
(207.175 10.542 0)
(207.004 11.2624 0)
(206.813 12.0146 0)
(206.603 12.8004 0)
(206.371 13.6212 0)
(206.115 14.4767 0)
(205.836 15.3643 0)
(205.537 16.2817 0)
(205.215 17.2285 0)
(204.868 18.2047 0)
(204.499 19.209 0)
(204.111 20.2392 0)
(203.709 21.2941 0)
(203.288 22.3756 0)
(202.844 23.4872 0)
(202.374 24.6322 0)
(201.881 25.812 0)
(201.37 27.0261 0)
(200.847 28.2739 0)
(200.314 29.5555 0)
(199.775 30.8721 0)
(199.227 32.2259 0)
(198.67 33.6191 0)
(198.104 35.0538 0)
(197.531 36.5311 0)
(196.953 38.0518 0)
(196.375 39.6168 0)
(195.798 41.2279 0)
(195.225 42.8863 0)
(194.661 44.5934 0)
(194.108 46.3493 0)
(193.572 48.153 0)
(193.067 50.0111 0)
(192.563 51.9342 0)
(192.097 53.8959 0)
(191.689 55.9244 0)
(191.3 58.0095 0)
(190.958 60.1533 0)
(190.694 62.3666 0)
(190.455 64.6331 0)
(190.3 66.9688 0)
(190.241 69.3701 0)
(190.237 71.8271 0)
(190.334 74.3505 0)
(190.56 76.9409 0)
(190.86 79.5869 0)
(191.312 82.2968 0)
(191.897 85.0609 0)
(192.611 87.8707 0)
(193.485 90.7296 0)
(194.549 93.6324 0)
(195.763 96.5706 0)
(197.191 99.5373 0)
(198.807 102.531 0)
(200.661 105.534 0)
(202.689 108.554 0)
(205.024 111.538 0)
(207.487 114.512 0)
(210.307 117.392 0)
(213.24 120.269 0)
(216.546 123.024 0)
(219.951 125.773 0)
(223.674 128.334 0)
(227.527 130.817 0)
(231.689 133.089 0)
(236.009 135.233 0)
(240.448 137.201 0)
(245.058 139.251 0)
(249.6 140.789 0)
(254.82 142.378 0)
(259.572 143.478 0)
(264.541 144.643 0)
(269.583 145.713 0)
(274.395 146.473 0)
(279.732 147.083 0)
(284.773 147.449 0)
(289.724 147.701 0)
(294.195 147.667 0)
(297.488 147.465 0)
(300.976 147.301 0)
(306.984 147.386 0)
(308.115 151.991 0)
(210 4.37806e-12 0)
(210 -4.18461e-12 0)
(210 1.53215e-12 0)
(210 -1.79497e-12 0)
(210 1.18344e-12 0)
(210 3.3335e-12 0)
(210 -1.20376e-09 0)
(210 -1.33326e-07 0)
(210 -7.73697e-06 0)
(209.994 0.000403442 0)
(209.839 0.0263522 0)
(208.701 0.309441 0)