/*--------------------------------*- C++ -*----------------------------------*\
| =========                 |                                                 |
| \\      /  F ield         | OpenFOAM: The Open Source CFD Toolbox           |
|  \\    /   O peration     | Version:  2412                                  |
|   \\  /    A nd           | Website:  www.openfoam.com                      |
|    \\/     M anipulation  |                                                 |
\*---------------------------------------------------------------------------*/
FoamFile
{
    version     2.0;
    format      ascii;
    arch        "LSB;label=32;scalar=64";
    class       volScalarField;
    location    "0.044";
    object      p;
}
// * * * * * * * * * * * * * * * * * * * * * * * * * * * * * * * * * * * * * //

dimensions      [1 -1 -2 0 0 0 0];

internalField   nonuniform List<scalar> 
9763
(
2814.21
2873.95
2813.68
2871.87
2814.59
2871.02
2815.51
2868.98
2815.55
2867.56
2814.47
2865.74
2813.35
2864
2813.11
2862.36
2813.41
2860.69
2813.03
2858.87
2812.31
2856.91
2811.89
2854.91
2811.54
2852.97
2811.06
2850.82
2810.53
2848.67
2810.01
2846.39
2809.47
2844.1
2808.89
2841.67
2808.29
2839.23
2807.65
2836.67
2806.99
2834.08
2806.28
2831.39
2805.54
2828.67
2804.75
2825.85
2803.93
2822.98
2803.07
2820.01
2802.16
2816.98
2801.23
2813.86
2800.25
2810.66
2799.25
2807.38
2798.21
2804.02
2797.13
2800.6
2795.98
2797.14
2794.76
2793.64
2793.46
2790.08
2792.07
2786.49
2790.59
2782.85
2789.01
2779.17
2787.32
2775.43
2785.54
2771.65
2767.81
2763.92
2759.95
3919.1
2942.83
2954.45
2959.97
2955.35
2948.97
2941.41
2933.02
2925.13
2918.33
2912.51
2906.89
2901.13
2894.86
2888.11
2881.04
2873.77
2866.39
2858.83
2851.06
2842.99
2834.65
2826.09
2817.38
2808.61
2799.79
2790.95
2782.05
2773.07
2763.96
2754.68
2745.24
2735.69
2726.11
2716.59
2707.18
2697.91
2688.8
2679.98
2671.57
2663.77
2656.71
2650.49
2645.16
2640.71
2637.16
2634.45
2632.69
2631.54
2631.22
2631.92
2633.15
2634.63
2636.82
2639.47
2642.07
2645.32
2648.93
2652.73
2656.83
2660.68
2664.98
2669.34
2674.07
2678.86
2683.52
2688.07
2692.44
2696.88
2701.43
2706.01
2710.52
2714.98
2719.43
2723.81
2728.16
2732.49
2736.87
2741.26
2745.69
2750.09
2754.5
2758.82
2763.09
2767.27
2771.41
2775.5
2779.57
2783.56
2787.5
2791.2
2794.72
2798.08
2801.28
2804.32
2807.21
2809.96
2812.54
2814.97
2817.22
2819.33
2821.22
2822.96
2824.48
2825.83
2826.99
2827.94
2828.73
2829.38
2829.83
2830.12
2830.22
2830.11
2829.71
2828.89
2827.72
2826.12
2824.08
2821.47
2820.64
2812.62
3918.81
2942.61
2953.88
2959.57
2955.05
2948.73
2941.18
2932.79
2924.92
2918.14
2912.34
2906.73
2900.97
2894.69
2887.93
2880.83
2873.54
2866.13
2858.55
2850.74
2842.65
2834.27
2825.67
2816.92
2808.08
2799.19
2790.26
2781.27
2772.18
2762.95
2753.52
2743.92
2734.19
2724.42
2714.69
2705.08
2695.6
2686.29
2677.26
2668.65
2660.64
2653.38
2646.99
2641.51
2636.95
2633.3
2630.53
2628.71
2627.53
2627.16
2627.84
2629.13
2630.67
2632.97
2635.8
2638.6
2642.04
2645.83
2649.62
2653.75
2657.45
2661.42
2665.53
2669.96
2674.74
2679.51
2684.26
2688.81
2693.31
2697.78
2702.24
2706.62
2711.02
2715.41
2719.75
2724.06
2728.38
2732.71
2737.06
2741.45
2745.82
2750.21
2754.51
2758.76
2762.91
2767.01
2771.04
2775
2778.85
2782.55
2786.05
2789.38
2792.55
2795.55
2798.38
2801.06
2803.59
2805.96
2808.18
2810.26
2812.2
2814
2815.68
2817.22
2818.63
2819.94
2821.09
2822.1
2823.01
2823.79
2824.44
2824.97
2825.38
2825.72
2825.95
2826.11
2826.17
2826.15
2826.13
2826.24
2826.01
3918.45
2942.43
2953.35
2959.32
2954.78
2948.49
2940.95
2932.57
2924.72
2917.97
2912.17
2906.58
2900.82
2894.53
2887.75
2880.63
2873.32
2865.87
2858.27
2850.44
2842.32
2833.91
2825.27
2816.47
2807.57
2798.6
2789.59
2780.49
2771.29
2761.92
2752.34
2742.57
2732.65
2722.67
2712.73
2702.89
2693.2
2683.68
2674.42
2665.59
2657.35
2649.88
2643.28
2637.64
2632.95
2629.2
2626.36
2624.45
2623.23
2622.86
2623.52
2624.78
2626.32
2628.64
2631.51
2634.38
2637.88
2641.7
2645.48
2649.56
2653.24
2657.18
2661.2
2665.5
2670.13
2674.83
2679.53
2683.98
2688.46
2692.84
2697.19
2701.44
2705.68
2709.95
2714.12
2718.22
2722.32
2726.46
2730.64
2734.87
2739.1
2743.34
2747.47
2751.53
2755.45
2759.28
2763
2766.63
2770.14
2773.53
2776.75
2779.81
2782.7
2785.44
2788.03
2790.47
2792.77
2794.91
2796.91
2798.78
2800.51
2802.1
2803.59
2804.94
2806.2
2807.35
2808.36
2809.31
2810.14
2810.92
2811.59
2812.21
2812.73
2813.21
2813.61
2813.97
2814.28
2814.56
2814.81
2815.1
2815.57
3917.93
2942.28
2952.83
2959.04
2954.52
2948.26
2940.73
2932.37
2924.52
2917.79
2912.02
2906.44
2900.67
2894.38
2887.58
2880.44
2873.1
2865.64
2858
2850.15
2842.01
2833.57
2824.89
2816.04
2807.08
2798.04
2788.94
2779.75
2770.44
2760.94
2751.22
2741.28
2731.18
2721
2710.84
2700.79
2690.88
2681.14
2671.67
2662.62
2654.16
2646.47
2639.68
2633.87
2629.05
2625.21
2622.29
2620.3
2619.06
2618.66
2619.3
2620.53
2622.09
2624.46
2627.42
2630.38
2633.9
2637.65
2641.43
2645.55
2649.3
2653.24
2657.2
2661.34
2665.85
2670.35
2674.89
2679.16
2683.54
2687.77
2692.06
2696.25
2700.47
2704.73
2708.81
2712.77
2716.69
2720.56
2724.46
2728.39
2732.33
2736.28
2740.13
2743.91
2747.54
2751.04
2754.37
2757.56
2760.6
2763.51
2766.29
2768.95
2771.49
2773.91
2776.21
2778.39
2780.45
2782.38
2784.19
2785.88
2787.46
2788.92
2790.28
2791.53
2792.71
2793.78
2794.75
2795.65
2796.47
2797.23
2797.92
2798.55
2799.13
2799.67
2800.17
2800.64
2801.08
2801.51
2801.91
2802.3
2802.83
3917.8
2942.12
2952.36
2958.76
2954.25
2948.03
2940.51
2932.16
2924.34
2917.63
2911.87
2906.3
2900.53
2894.23
2887.42
2880.26
2872.9
2865.41
2857.75
2849.87
2841.7
2833.24
2824.53
2815.63
2806.61
2797.51
2788.33
2779.05
2769.62
2760
2750.14
2740.04
2729.76
2719.38
2709.02
2698.75
2688.62
2678.68
2668.99
2659.72
2651.04
2643.14
2636.15
2630.16
2625.22
2621.28
2618.29
2616.24
2614.96
2614.55
2615.15
2616.36
2617.96
2620.39
2623.39
2626.37
2629.91
2633.63
2637.48
2641.63
2645.47
2649.44
2653.24
2657.09
2661.31
2665.59
2670.09
2674.36
2678.82
2683.04
2687.32
2691.44
2695.57
2699.71
2703.6
2707.37
2711.04
2714.64
2718.26
2721.88
2725.52
2729.17
2732.73
2736.25
2739.62
2742.88
2745.97
2748.93
2751.72
2754.37
2756.87
2759.24
2761.49
2763.61
2765.62
2767.51
2769.28
2770.93
2772.46
2773.88
2775.2
2776.42
2777.55
2778.6
2779.58
2780.47
2781.32
2782.09
2782.83
2783.51
2784.16
2784.77
2785.35
2785.9
2786.42
2786.93
2787.41
2787.88
2788.32
2788.72
2789.28
3917.57
2941.96
2951.87
2958.49
2953.99
2947.8
2940.3
2931.96
2924.16
2917.46
2911.72
2906.16
2900.39
2894.09
2887.26
2880.08
2872.7
2865.18
2857.5
2849.6
2841.41
2832.92
2824.17
2815.23
2806.15
2796.98
2787.73
2778.35
2768.82
2759.07
2749.07
2738.82
2728.36
2717.79
2707.21
2696.73
2686.39
2676.23
2666.33
2656.84
2647.95
2639.83
2632.64
2626.48
2621.41
2617.37
2614.32
2612.2
2610.9
2610.47
2611.06
2612.26
2613.91
2616.38
2619.38
2622.34
2625.9
2629.57
2633.42
2637.57
2641.47
2645.45
2649.21
2652.97
2657.05
2661.14
2665.54
2669.75
2674.2
2678.32
2682.53
2686.55
2690.62
2694.71
2698.48
2702.1
2705.59
2708.98
2712.36
2715.73
2719.1
2722.48
2725.8
2729.08
2732.23
2735.26
2738.11
2740.82
2743.35
2745.76
2748.02
2750.16
2752.19
2754.11
2755.92
2757.63
2759.21
2760.69
2762.06
2763.31
2764.47
2765.53
2766.51
2767.4
2768.21
2768.95
2769.63
2770.25
2770.82
2771.33
2771.82
2772.27
2772.68
2773.09
2773.46
2773.83
2774.19
2774.55
2774.9
2775.14
2775
3917.32
2941.83
2951.36
2958.2
2953.73
2947.57
2940.08
2931.76
2923.97
2917.3
2911.58
2906.02
2900.26
2893.94
2887.1
2879.9
2872.49
2864.96
2857.25
2849.33
2841.11
2832.6
2823.81
2814.82
2805.69
2796.46
2787.12
2777.66
2768.02
2758.15
2748.01
2737.59
2726.96
2716.19
2705.4
2694.7
2684.14
2673.76
2663.64
2653.92
2644.8
2636.47
2629.07
2622.74
2617.52
2613.39
2610.27
2608.1
2606.78
2606.33
2606.89
2608.05
2609.74
2612.26
2615.27
2618.23
2621.78
2625.35
2629.14
2633.26
2637.27
2641.33
2645.13
2648.89
2652.84
2656.74
2660.97
2665.08
2669.47
2673.5
2677.59
2681.46
2685.39
2689.35
2692.99
2696.49
2699.84
2703.1
2706.35
2709.53
2712.7
2715.86
2718.96
2722.03
2725
2727.89
2730.61
2733.2
2735.63
2737.92
2740.05
2742.07
2743.95
2745.72
2747.38
2748.92
2750.37
2751.7
2752.94
2754.07
2755.13
2756.09
2756.99
2757.81
2758.57
2759.25
2759.89
2760.47
2761.01
2761.49
2761.95
2762.36
2762.76
2763.14
2763.49
2763.83
2764.16
2764.51
2764.87
2765.27
2765.74
3917.14
2941.65
2950.83
2957.91
2953.46
2947.34
2939.86
2931.55
2923.79
2917.14
2911.43
2905.88
2900.12
2893.8
2886.94
2879.72
2872.29
2864.73
2857
2849.05
2840.82
2832.28
2823.46
2814.42
2805.23
2795.93
2786.52
2776.96
2767.21
2757.21
2746.93
2736.35
2725.53
2714.56
2703.56
2692.63
2681.84
2671.23
2660.89
2650.94
2641.6
2633.04
2625.43
2618.91
2613.55
2609.31
2606.13
2603.91
2602.56
2602.08
2602.6
2603.76
2605.51
2608.08
2611.09
2614.05
2617.51
2620.95
2624.72
2628.86
2633.02
2637.12
2640.93
2644.62
2648.43
2652.21
2656.28
2660.27
2664.53
2668.43
2672.37
2676.09
2679.88
2683.72
2687.26
2690.67
2693.93
2697.09
2700.22
2703.27
2706.26
2709.23
2712.11
2714.96
2717.7
2720.38
2722.9
2725.31
2727.58
2729.73
2731.73
2733.63
2735.39
2737.05
2738.6
2740.05
2741.39
2742.64
2743.8
2744.87
2745.86
2746.78
2747.63
2748.41
2749.14
2749.79
2750.4
2750.95
2751.45
2751.9
2752.33
2752.7
2753.05
2753.37
2753.66
2753.93
2754.16
2754.39
2754.64
2754.99
2755.89
3917.02
2941.45
2950.29
2957.61
2953.18
2947.1
2939.64
2931.35
2923.6
2916.97
2911.28
2905.74
2899.98
2893.65
2886.78
2879.54
2872.09
2864.5
2856.74
2848.77
2840.52
2831.95
2823.09
2814.01
2804.77
2795.4
2785.9
2776.25
2766.39
2756.27
2745.84
2735.09
2724.09
2712.91
2701.68
2690.52
2679.49
2668.65
2658.06
2647.88
2638.3
2629.5
2621.68
2614.97
2609.45
2605.1
2601.85
2599.58
2598.22
2597.72
2598.21
2599.35
2601.16
2603.74
2606.71
2609.63
2613.03
2616.41
2620.17
2624.27
2628.45
2632.57
2636.46
2640.15
2643.91
2647.61
2651.52
2655.34
2659.38
2663.1
2666.86
2670.44
2674.06
2677.76
2681.18
2684.48
2687.63
2690.71
2693.74
2696.67
2699.53
2702.35
2705.04
2707.68
2710.21
2712.68
2715.01
2717.25
2719.36
2721.36
2723.23
2724.97
2726.6
2728.11
2729.49
2730.77
2731.94
2733.03
2734.03
2734.95
2735.8
2736.59
2737.31
2737.98
2738.59
2739.13
2739.63
2740.07
2740.46
2740.8
2741.1
2741.35
2741.57
2741.74
2741.89
2742.01
2742.1
2742.17
2742.24
2742.36
2742.2
3916.6
2941.24
2949.74
2957.29
2952.9
2946.86
2939.41
2931.14
2923.41
2916.8
2911.13
2905.6
2899.84
2893.5
2886.61
2879.36
2871.88
2864.26
2856.48
2848.49
2840.21
2831.62
2822.73
2813.6
2804.3
2794.86
2785.29
2775.54
2765.57
2755.31
2744.73
2733.82
2722.63
2711.23
2699.77
2688.37
2677.1
2666.01
2655.18
2644.75
2634.92
2625.9
2617.85
2610.94
2605.25
2600.78
2597.46
2595.15
2593.77
2593.25
2593.71
2594.83
2596.67
2599.2
2602.17
2605.11
2608.47
2611.8
2615.49
2619.52
2623.7
2627.79
2631.76
2635.49
2639.26
2642.89
2646.65
2650.29
2654.1
2657.64
2661.23
2664.69
2668.2
2671.77
2675.11
2678.29
2681.32
2684.28
2687.17
2689.95
2692.66
2695.29
2697.76
2700.16
2702.42
2704.61
2706.7
2708.71
2710.62
2712.45
2714.17
2715.78
2717.28
2718.66
2719.92
2721.07
2722.13
2723.09
2723.97
2724.78
2725.52
2726.19
2726.81
2727.38
2727.89
2728.35
2728.76
2729.12
2729.43
2729.69
2729.92
2730.09
2730.24
2730.35
2730.44
2730.49
2730.52
2730.52
2730.51
2730.44
2730.34
3916.5
2941.03
2949.19
2956.98
2952.62
2946.61
2939.18
2930.93
2923.22
2916.64
2910.98
2905.46
2899.69
2893.34
2886.44
2879.17
2871.67
2864.03
2856.22
2848.21
2839.9
2831.28
2822.36
2813.19
2803.83
2794.32
2784.66
2774.82
2764.74
2754.35
2743.62
2732.53
2721.14
2709.54
2697.84
2686.19
2674.67
2663.33
2652.24
2641.56
2631.47
2622.2
2613.92
2606.81
2600.95
2596.35
2592.95
2590.6
2589.21
2588.67
2589.11
2590.21
2592.08
2594.54
2597.52
2600.48
2603.81
2607.1
2610.72
2614.66
2618.79
2622.83
2626.83
2630.59
2634.44
2638.04
2641.69
2645.21
2648.81
2652.16
2655.57
2658.9
2662.26
2665.66
2668.85
2671.84
2674.69
2677.46
2680.16
2682.78
2685.34
2687.84
2690.17
2692.41
2694.5
2696.51
2698.42
2700.25
2702
2703.69
2705.25
2706.73
2708.09
2709.35
2710.48
2711.52
2712.46
2713.32
2714.11
2714.82
2715.47
2716.07
2716.61
2717.11
2717.56
2717.96
2718.32
2718.63
2718.9
2719.13
2719.33
2719.49
2719.63
2719.72
2719.81
2719.85
2719.89
2719.89
2719.88
2719.82
2719.74
3916.36
2940.81
2948.62
2956.65
2952.33
2946.36
2938.95
2930.71
2923.03
2916.47
2910.82
2905.31
2899.55
2893.19
2886.28
2878.98
2871.46
2863.79
2855.96
2847.92
2839.6
2830.95
2822
2812.78
2803.36
2793.78
2784.04
2774.1
2763.91
2753.38
2742.5
2731.24
2719.65
2707.83
2695.89
2683.99
2672.2
2660.6
2649.26
2638.31
2627.97
2618.45
2609.94
2602.61
2596.58
2591.85
2588.36
2585.96
2584.55
2584.01
2584.44
2585.53
2587.43
2589.81
2592.77
2595.73
2599.06
2602.34
2605.88
2609.66
2613.66
2617.72
2621.8
2625.64
2629.6
2633.18
2636.71
2640.02
2643.4
2646.58
2649.88
2653.11
2656.37
2659.63
2662.7
2665.55
2668.24
2670.8
2673.3
2675.71
2678.1
2680.42
2682.58
2684.65
2686.56
2688.38
2690.08
2691.76
2693.33
2694.84
2696.26
2697.61
2698.85
2700.01
2701.07
2702.04
2702.93
2703.74
2704.47
2705.14
2705.75
2706.31
2706.81
2707.27
2707.69
2708.06
2708.4
2708.7
2708.96
2709.18
2709.38
2709.55
2709.69
2709.81
2709.92
2709.99
2710.05
2710.1
2710.12
2710.13
2710.1
3916.17
2940.59
2948.06
2956.33
2952.04
2946.11
2938.71
2930.49
2922.84
2916.3
2910.67
2905.17
2899.4
2893.03
2886.11
2878.79
2871.24
2863.55
2855.7
2847.64
2839.29
2830.62
2821.63
2812.37
2802.89
2793.24
2783.42
2773.38
2763.07
2752.42
2741.37
2729.94
2718.16
2706.11
2693.93
2681.76
2669.71
2657.84
2646.23
2635.02
2624.41
2614.63
2605.89
2598.35
2592.13
2587.26
2583.68
2581.22
2579.8
2579.27
2579.7
2580.78
2582.7
2584.98
2587.95
2590.98
2594.29
2597.56
2601.03
2604.67
2608.53
2612.59
2616.74
2620.65
2624.58
2628.03
2631.45
2634.69
2637.97
2641.08
2644.29
2647.37
2650.47
2653.55
2656.44
2659.13
2661.65
2664.01
2666.31
2668.51
2670.71
2672.85
2674.87
2676.82
2678.62
2680.34
2681.94
2683.48
2684.9
2686.26
2687.53
2688.74
2689.85
2690.91
2691.87
2692.78
2693.6
2694.37
2695.06
2695.7
2696.28
2696.81
2697.29
2697.73
2698.13
2698.49
2698.82
2699.11
2699.37
2699.6
2699.81
2699.99
2700.16
2700.3
2700.43
2700.55
2700.64
2700.73
2700.8
2700.86
2700.91
3915.97
2940.36
2947.48
2955.99
2951.74
2945.86
2938.48
2930.28
2922.64
2916.12
2910.52
2905.02
2899.25
2892.88
2885.93
2878.6
2871.03
2863.32
2855.44
2847.35
2838.98
2830.28
2821.26
2811.96
2802.43
2792.71
2782.8
2772.67
2762.24
2751.45
2740.25
2728.64
2716.66
2704.39
2691.96
2679.53
2667.21
2655.06
2643.17
2631.69
2620.81
2610.78
2601.79
2594.04
2587.64
2582.63
2578.94
2576.42
2574.98
2574.44
2574.87
2575.95
2577.92
2580.16
2583.14
2586.24
2589.51
2592.74
2596.17
2599.67
2603.41
2607.45
2611.61
2615.61
2619.52
2622.89
2626.19
2629.39
2632.58
2635.61
2638.72
2641.64
2644.6
2647.52
2650.23
2652.79
2655.18
2657.39
2659.51
2661.52
2663.49
2665.42
2667.26
2669.02
2670.69
2672.31
2673.78
2675.18
2676.45
2677.67
2678.79
2679.87
2680.87
2681.82
2682.72
2683.56
2684.35
2685.09
2685.76
2686.38
2686.95
2687.46
2687.94
2688.38
2688.78
2689.15
2689.49
2689.79
2690.07
2690.33
2690.56
2690.77
2690.96
2691.14
2691.3
2691.46
2691.59
2691.72
2691.85
2691.97
2692.08
3915.86
2940.13
2946.91
2955.65
2951.44
2945.6
2938.24
2930.06
2922.45
2915.95
2910.36
2904.88
2899.11
2892.72
2885.76
2878.41
2870.82
2863.08
2855.18
2847.06
2838.67
2829.95
2820.9
2811.55
2801.96
2792.17
2782.18
2771.95
2761.41
2750.49
2739.13
2727.34
2715.16
2702.67
2689.99
2677.29
2664.69
2652.26
2640.09
2628.32
2617.17
2606.87
2597.65
2589.68
2583.09
2577.93
2574.13
2571.54
2570.07
2569.52
2569.96
2571.06
2573.09
2575.32
2578.28
2581.4
2584.59
2587.87
2591.33
2594.75
2598.4
2602.41
2606.54
2610.56
2614.43
2617.75
2620.91
2624.1
2627.22
2630.18
2633.14
2635.9
2638.69
2641.42
2643.93
2646.34
2648.6
2650.72
2652.69
2654.56
2656.37
2658.09
2659.72
2661.34
2662.88
2664.36
2665.72
2667.01
2668.16
2669.26
2670.25
2671.2
2672.08
2672.94
2673.75
2674.53
2675.27
2675.96
2676.6
2677.19
2677.74
2678.24
2678.71
2679.15
2679.55
2679.93
2680.28
2680.6
2680.9
2681.18
2681.43
2681.67
2681.89
2682.1
2682.29
2682.48
2682.65
2682.82
2682.98
2683.15
2683.32
3915.77
2939.89
2946.32
2955.3
2951.14
2945.34
2938
2929.83
2922.25
2915.78
2910.21
2904.73
2898.96
2892.57
2885.59
2878.22
2870.61
2862.85
2854.91
2846.78
2838.37
2829.62
2820.54
2811.15
2801.5
2791.64
2781.57
2771.24
2760.59
2749.53
2738.02
2726.05
2713.66
2700.94
2688.02
2675.05
2662.16
2649.44
2636.99
2624.94
2613.51
2602.95
2593.47
2585.28
2578.5
2573.19
2569.28
2566.61
2565.09
2564.54
2564.97
2566.11
2568.18
2570.42
2573.36
2576.56
2579.7
2583.05
2586.6
2589.97
2593.55
2597.51
2601.54
2605.58
2609.38
2612.65
2615.77
2618.94
2621.94
2624.78
2627.54
2630.13
2632.77
2635.3
2637.67
2639.95
2642.06
2644.08
2645.95
2647.67
2649.3
2650.83
2652.29
2653.72
2655.09
2656.42
2657.65
2658.81
2659.85
2660.82
2661.7
2662.54
2663.33
2664.11
2664.85
2665.57
2666.25
2666.9
2667.51
2668.08
2668.6
2669.1
2669.56
2669.99
2670.4
2670.79
2671.15
2671.49
2671.81
2672.1
2672.38
2672.65
2672.89
2673.13
2673.34
2673.56
2673.76
2673.96
2674.15
2674.35
2674.57
3915.7
2939.64
2945.73
2954.95
2950.83
2945.07
2937.76
2929.61
2922.05
2915.6
2910.05
2904.58
2898.81
2892.41
2885.42
2878.04
2870.4
2862.61
2854.66
2846.5
2838.06
2829.29
2820.18
2810.74
2801.04
2791.11
2780.96
2770.53
2759.77
2748.57
2736.9
2724.76
2712.17
2699.22
2686.04
2672.8
2659.62
2646.61
2633.86
2621.52
2609.81
2598.98
2589.25
2580.83
2573.86
2568.39
2564.36
2561.61
2560.04
2559.48
2559.9
2561.08
2563.2
2565.48
2568.4
2571.67
2574.79
2578.2
2581.87
2585.26
2588.81
2592.64
2596.53
2600.59
2604.37
2607.67
2610.79
2613.92
2616.74
2619.38
2621.89
2624.33
2626.82
2629.19
2631.41
2633.52
2635.49
2637.36
2639.11
2640.74
2642.25
2643.63
2644.94
2646.21
2647.42
2648.59
2649.68
2650.72
2651.64
2652.51
2653.29
2654.05
2654.75
2655.45
2656.11
2656.76
2657.37
2657.96
2658.52
2659.04
2659.53
2660
2660.44
2660.86
2661.26
2661.65
2662.01
2662.36
2662.68
2662.99
2663.28
2663.57
2663.82
2664.08
2664.31
2664.55
2664.76
2664.98
2665.2
2665.41
2665.66
3915.63
2939.39
2945.14
2954.59
2950.52
2944.81
2937.51
2929.39
2921.85
2915.43
2909.89
2904.44
2898.67
2892.26
2885.26
2877.85
2870.19
2862.38
2854.4
2846.22
2837.76
2828.97
2819.82
2810.34
2800.59
2790.59
2780.35
2769.83
2758.95
2747.62
2735.8
2723.47
2710.68
2697.51
2684.07
2670.55
2657.07
2643.76
2630.72
2618.09
2606.09
2594.99
2585
2576.35
2569.18
2563.55
2559.39
2556.56
2554.93
2554.34
2554.76
2555.98
2558.13
2560.47
2563.36
2566.69
2569.83
2573.36
2577.18
2580.63
2584.18
2587.87
2591.61
2595.65
2599.43
2602.79
2605.94
2609
2611.61
2614.03
2616.29
2618.6
2621
2623.28
2625.38
2627.31
2629.1
2630.79
2632.38
2633.91
2635.29
2636.54
2637.7
2638.78
2639.82
2640.81
2641.75
2642.64
2643.45
2644.22
2644.92
2645.6
2646.23
2646.84
2647.42
2647.99
2648.52
2649.04
2649.53
2650.01
2650.45
2650.88
2651.29
2651.69
2652.08
2652.45
2652.81
2653.16
2653.48
2653.8
2654.09
2654.38
2654.65
2654.92
2655.16
2655.41
2655.63
2655.87
2656.09
2656.32
2656.58
3915.6
2939.12
2944.54
2954.23
2950.21
2944.54
2937.27
2929.16
2921.65
2915.25
2909.74
2904.29
2898.52
2892.1
2885.09
2877.66
2869.98
2862.14
2854.14
2845.93
2837.46
2828.64
2819.47
2809.95
2800.14
2790.07
2779.75
2769.13
2758.14
2746.67
2734.69
2722.19
2709.2
2695.79
2682.1
2668.29
2654.52
2640.9
2627.55
2614.63
2602.34
2590.96
2580.72
2571.83
2564.45
2558.65
2554.36
2551.43
2549.75
2549.13
2549.54
2550.8
2552.98
2555.37
2558.25
2561.67
2564.87
2568.5
2572.47
2576.02
2579.62
2583.22
2586.82
2590.75
2594.44
2597.86
2601.05
2604.1
2606.55
2608.79
2610.81
2613.02
2615.32
2617.49
2619.46
2621.2
2622.83
2624.3
2625.73
2627.1
2628.35
2629.47
2630.49
2631.44
2632.32
2633.15
2633.94
2634.69
2635.38
2636.05
2636.67
2637.27
2637.81
2638.34
2638.83
2639.3
2639.74
2640.17
2640.59
2640.99
2641.38
2641.76
2642.13
2642.49
2642.85
2643.2
2643.54
2643.87
2644.19
2644.49
2644.78
2645.06
2645.32
2645.59
2645.83
2646.07
2646.29
2646.53
2646.75
2646.98
2647.24
3915.57
2938.85
2943.93
2953.86
2949.89
2944.27
2937.02
2928.93
2921.45
2915.08
2909.58
2904.14
2898.38
2891.95
2884.92
2877.48
2869.77
2861.91
2853.88
2845.65
2837.15
2828.32
2819.11
2809.55
2799.69
2789.55
2779.15
2768.44
2757.33
2745.73
2733.6
2720.91
2707.71
2694.08
2680.14
2666.04
2651.96
2638.03
2624.38
2611.15
2598.58
2586.91
2576.41
2567.28
2559.69
2553.7
2549.28
2546.25
2544.5
2543.84
2544.24
2545.53
2547.73
2550.18
2553.1
2556.62
2559.88
2563.62
2567.71
2571.37
2575.03
2578.57
2582.07
2585.91
2589.49
2592.92
2596.11
2599.14
2601.5
2603.63
2605.51
2607.64
2609.81
2611.86
2613.69
2615.29
2616.75
2618.02
2619.28
2620.47
2621.57
2622.54
2623.41
2624.2
2624.9
2625.56
2626.18
2626.77
2627.34
2627.9
2628.43
2628.94
2629.4
2629.83
2630.22
2630.6
2630.95
2631.3
2631.63
2631.97
2632.29
2632.62
2632.94
2633.25
2633.58
2633.89
2634.21
2634.51
2634.81
2635.09
2635.37
2635.63
2635.88
2636.13
2636.36
2636.59
2636.8
2637.02
2637.23
2637.45
2637.7
3915.62
2938.57
2943.32
2953.48
2949.57
2944
2936.77
2928.71
2921.25
2914.9
2909.43
2904
2898.23
2891.8
2884.75
2877.29
2869.57
2861.68
2853.62
2845.38
2836.85
2828
2818.76
2809.16
2799.24
2789.04
2778.56
2767.74
2756.52
2744.79
2732.5
2719.64
2706.24
2692.37
2678.17
2663.79
2649.4
2635.15
2621.18
2607.64
2594.77
2582.83
2572.07
2562.69
2554.88
2548.7
2544.13
2540.99
2539.16
2538.47
2538.85
2540.18
2542.41
2544.91
2547.88
2551.51
2554.84
2558.69
2562.9
2566.72
2570.49
2573.98
2577.34
2581.06
2584.52
2587.91
2590.98
2594
2596.35
2598.47
2600.3
2602.3
2604.3
2606.17
2607.83
2609.32
2610.64
2611.77
2612.83
2613.84
2614.79
2615.61
2616.36
2617.01
2617.57
2618.07
2618.53
2618.98
2619.42
2619.86
2620.28
2620.67
2621.03
2621.36
2621.66
2621.94
2622.2
2622.45
2622.71
2622.96
2623.22
2623.48
2623.74
2624.01
2624.28
2624.55
2624.83
2625.1
2625.36
2625.61
2625.86
2626.1
2626.33
2626.55
2626.77
2626.98
2627.17
2627.37
2627.57
2627.78
2628
3915.6
2938.28
2942.7
2953.1
2949.25
2943.72
2936.52
2928.48
2921.04
2914.73
2909.27
2903.85
2898.08
2891.64
2884.59
2877.11
2869.36
2861.45
2853.37
2845.1
2836.55
2827.68
2818.41
2808.78
2798.8
2788.53
2777.97
2767.06
2755.72
2743.86
2731.41
2718.37
2704.76
2690.67
2676.21
2661.53
2646.83
2632.26
2617.97
2604.12
2590.96
2578.73
2567.7
2558.08
2550.04
2543.67
2538.93
2535.67
2533.76
2533.02
2533.38
2534.74
2536.99
2539.54
2542.6
2546.35
2549.76
2553.72
2558.06
2562.04
2565.93
2569.39
2572.52
2576.02
2579.39
2582.75
2585.73
2588.74
2591.12
2593.25
2595.1
2596.95
2598.78
2600.44
2601.9
2603.28
2604.5
2605.54
2606.45
2607.32
2608.11
2608.78
2609.39
2609.88
2610.29
2610.64
2610.96
2611.26
2611.57
2611.87
2612.16
2612.43
2612.68
2612.9
2613.1
2613.28
2613.45
2613.62
2613.79
2613.97
2614.15
2614.34
2614.53
2614.74
2614.95
2615.17
2615.39
2615.6
2615.82
2616.03
2616.24
2616.44
2616.64
2616.83
2617.02
2617.2
2617.38
2617.55
2617.72
2617.92
2618.11
3915.74
2937.98
2942.07
2952.7
2948.92
2943.44
2936.26
2928.24
2920.84
2914.55
2909.12
2903.71
2897.94
2891.49
2884.42
2876.92
2869.15
2861.22
2853.11
2844.82
2836.26
2827.36
2818.07
2808.39
2798.37
2788.03
2777.38
2766.37
2754.92
2742.93
2730.32
2717.1
2703.29
2688.97
2674.24
2659.28
2644.26
2629.36
2614.74
2600.58
2587.1
2574.59
2563.28
2553.41
2545.14
2538.57
2533.66
2530.28
2528.28
2527.49
2527.82
2529.2
2531.49
2534.1
2537.26
2541.11
2544.6
2548.65
2553.12
2557.26
2561.27
2564.72
2567.64
2570.95
2574.2
2577.5
2580.45
2583.48
2585.89
2588
2589.82
2591.55
2593.26
2594.72
2595.98
2597.21
2598.31
2599.26
2600.08
2600.8
2601.45
2601.97
2602.45
2602.81
2603.09
2603.31
2603.48
2603.65
2603.81
2603.97
2604.12
2604.26
2604.39
2604.5
2604.6
2604.68
2604.75
2604.82
2604.9
2604.99
2605.09
2605.2
2605.31
2605.44
2605.58
2605.73
2605.88
2606.04
2606.19
2606.35
2606.51
2606.66
2606.81
2606.96
2607.12
2607.26
2607.41
2607.55
2607.69
2607.85
2608.03
3915.74
2937.67
2941.43
2952.31
2948.59
2943.16
2936.01
2928.01
2920.64
2914.38
2908.97
2903.57
2897.79
2891.34
2884.25
2876.73
2868.94
2860.99
2852.86
2844.54
2835.96
2827.04
2817.72
2808.01
2797.93
2787.53
2776.8
2765.69
2754.13
2742
2729.24
2715.83
2701.82
2687.27
2672.28
2657.03
2641.69
2626.46
2611.5
2597.02
2583.24
2570.43
2558.85
2548.72
2540.21
2533.43
2528.34
2524.83
2522.74
2521.88
2522.18
2523.57
2525.89
2528.54
2531.79
2535.76
2539.36
2543.55
2548.14
2552.3
2556.41
2559.91
2562.73
2565.93
2569.07
2572.3
2575.23
2578.21
2580.6
2582.71
2584.48
2586.18
2587.82
2589.12
2590.22
2591.27
2592.22
2593.05
2593.78
2594.38
2594.85
2595.23
2595.57
2595.8
2595.96
2596.06
2596.1
2596.12
2596.13
2596.13
2596.12
2596.12
2596.12
2596.12
2596.1
2596.07
2596.04
2596.01
2595.98
2595.97
2595.97
2595.99
2596.01
2596.05
2596.1
2596.17
2596.25
2596.33
2596.41
2596.5
2596.59
2596.69
2596.79
2596.89
2596.99
2597.09
2597.2
2597.3
2597.4
2597.49
2597.65
3915.93
2937.36
2940.79
2951.9
2948.25
2942.87
2935.75
2927.78
2920.43
2914.21
2908.81
2903.42
2897.65
2891.18
2884.08
2876.55
2868.74
2860.76
2852.61
2844.27
2835.66
2826.72
2817.38
2807.63
2797.5
2787.03
2776.22
2765.02
2753.34
2741.07
2728.15
2714.57
2700.36
2685.57
2670.32
2654.77
2639.11
2623.54
2608.25
2593.43
2579.34
2566.23
2554.36
2543.97
2535.22
2528.22
2522.96
2519.3
2517.11
2516.19
2516.45
2517.84
2520.19
2522.9
2526.23
2530.32
2534
2538.34
2543.03
2547.18
2551.37
2554.91
2557.75
2560.91
2563.99
2567.21
2570.11
2573.02
2575.34
2577.45
2579.16
2580.89
2582.51
2583.72
2584.69
2585.52
2586.28
2586.98
2587.61
2588.07
2588.39
2588.61
2588.78
2588.88
2588.92
2588.88
2588.78
2588.66
2588.49
2588.33
2588.17
2588.04
2587.9
2587.77
2587.63
2587.49
2587.34
2587.19
2587.05
2586.93
2586.81
2586.72
2586.63
2586.57
2586.52
2586.5
2586.48
2586.48
2586.49
2586.5
2586.52
2586.55
2586.58
2586.61
2586.67
2586.71
2586.77
2586.84
2586.95
2587.12
2586.99
3915.99
2937.03
2940.14
2951.48
2947.9
2942.59
2935.49
2927.54
2920.23
2914.03
2908.66
2903.28
2897.5
2891.02
2883.91
2876.36
2868.53
2860.53
2852.35
2843.99
2835.37
2826.4
2817.04
2807.25
2797.07
2786.53
2775.64
2764.34
2752.55
2740.15
2727.08
2713.31
2698.89
2683.88
2668.36
2652.51
2636.52
2620.61
2604.98
2589.84
2575.42
2562.01
2549.85
2539.19
2530.19
2522.97
2517.51
2513.71
2511.41
2510.42
2510.65
2512.04
2514.41
2517.16
2520.57
2524.77
2528.51
2532.93
2537.64
2541.88
2546.13
2549.75
2552.73
2555.95
2559
2562.2
2565.08
2567.92
2570.16
2572.27
2573.94
2575.76
2577.36
2578.53
2579.4
2580.05
2580.61
2581.15
2581.64
2581.95
2582.12
2582.16
2582.16
2582.1
2581.99
2581.82
2581.58
2581.29
2580.96
2580.63
2580.31
2580.03
2579.74
2579.47
2579.19
2578.91
2578.63
2578.35
2578.09
2577.83
2577.59
2577.37
2577.16
2576.99
2576.83
2576.7
2576.59
2576.5
2576.41
2576.35
2576.29
2576.24
2576.21
2576.18
2576.17
2576.15
2576.16
2576.19
2576.28
2576.46
2576.15
3916.22
2936.69
2939.49
2951.06
2947.56
2942.29
2935.22
2927.31
2920.03
2913.86
2908.51
2903.13
2897.36
2890.87
2883.74
2876.17
2868.32
2860.3
2852.1
2843.72
2835.07
2826.09
2816.7
2806.87
2796.64
2786.04
2775.07
2763.67
2751.76
2739.23
2726
2712.05
2697.43
2682.18
2666.4
2650.25
2633.93
2617.67
2601.69
2586.21
2571.48
2557.75
2545.3
2534.35
2525.1
2517.64
2511.98
2508.03
2505.62
2504.55
2504.75
2506.14
2508.53
2511.32
2514.8
2519.13
2522.99
2527.5
2532.17
2536.43
2540.73
2544.46
2547.69
2551.08
2554.07
2557.22
2560.05
2562.85
2565.04
2567.2
2568.85
2570.75
2572.29
2573.4
2574.18
2574.68
2575.07
2575.45
2575.8
2575.97
2576.02
2575.89
2575.71
2575.48
2575.21
2574.89
2574.5
2574.05
2573.56
2573.07
2572.59
2572.14
2571.7
2571.26
2570.84
2570.42
2570
2569.58
2569.17
2568.77
2568.38
2568.01
2567.67
2567.36
2567.07
2566.83
2566.6
2566.4
2566.22
2566.06
2565.91
2565.78
2565.66
2565.56
2565.46
2565.38
2565.32
2565.28
2565.33
2565.53
2565
3916.34
2936.35
2938.82
2950.63
2947.2
2942
2934.96
2927.07
2919.82
2913.68
2908.35
2902.99
2897.21
2890.71
2883.57
2875.98
2868.11
2860.07
2851.85
2843.44
2834.78
2825.77
2816.35
2806.49
2796.22
2785.55
2774.5
2763.01
2750.98
2738.31
2724.92
2710.8
2695.97
2680.48
2664.44
2647.99
2631.34
2614.73
2598.39
2582.58
2567.52
2553.48
2540.72
2529.49
2519.96
2512.25
2506.39
2502.27
2499.74
2498.6
2498.76
2500.13
2502.53
2505.38
2508.93
2513.38
2517.36
2521.96
2526.58
2530.87
2535.17
2539.05
2542.59
2546.23
2549.21
2552.32
2555.06
2557.83
2560
2562.23
2563.93
2565.85
2567.28
2568.28
2569
2569.44
2569.71
2569.95
2570.17
2570.24
2570.16
2569.89
2569.53
2569.11
2568.66
2568.17
2567.61
2566.99
2566.34
2565.68
2565.03
2564.4
2563.79
2563.19
2562.61
2562.04
2561.47
2560.89
2560.33
2559.77
2559.23
2558.71
2558.22
2557.75
2557.33
2556.94
2556.59
2556.26
2555.96
2555.69
2555.44
2555.21
2555
2554.81
2554.62
2554.46
2554.32
2554.21
2554.2
2554.4
2553.65
3916.6
2936
2938.15
2950.19
2946.84
2941.7
2934.69
2926.83
2919.61
2913.51
2908.2
2902.84
2897.06
2890.55
2883.4
2875.8
2867.91
2859.84
2851.6
2843.17
2834.48
2825.46
2816.01
2806.12
2795.79
2785.06
2773.93
2762.34
2750.2
2737.4
2723.85
2709.54
2694.5
2678.79
2662.48
2645.72
2628.73
2611.77
2595.08
2578.92
2563.53
2549.17
2536.11
2524.57
2514.76
2506.8
2500.71
2496.41
2493.76
2492.53
2492.65
2494.02
2496.42
2499.34
2502.97
2507.54
2511.6
2516.27
2520.82
2525.2
2529.6
2533.62
2537.45
2541.36
2544.37
2547.45
2550.09
2552.81
2555.06
2557.33
2559.15
2560.98
2562.27
2563.15
2563.82
2564.25
2564.46
2564.62
2564.69
2564.64
2564.45
2564.06
2563.55
2562.97
2562.34
2561.67
2560.95
2560.16
2559.35
2558.52
2557.7
2556.89
2556.1
2555.34
2554.59
2553.85
2553.11
2552.38
2551.65
2550.92
2550.22
2549.53
2548.88
2548.26
2547.67
2547.14
2546.63
2546.16
2545.72
2545.31
2544.93
2544.58
2544.25
2543.95
2543.66
2543.4
2543.16
2542.97
2542.89
2543.09
2542.12
3916.8
2935.64
2937.46
2949.74
2946.48
2941.39
2934.42
2926.59
2919.41
2913.33
2908.04
2902.69
2896.91
2890.4
2883.23
2875.61
2867.7
2859.61
2851.34
2842.89
2834.19
2825.14
2815.68
2805.75
2795.37
2784.58
2773.36
2761.68
2749.42
2736.48
2722.78
2708.29
2693.04
2677.09
2660.52
2643.46
2626.13
2608.8
2591.75
2575.24
2559.52
2544.84
2531.47
2519.63
2509.52
2501.29
2494.96
2490.47
2487.67
2486.36
2486.43
2487.78
2490.19
2493.19
2496.89
2501.56
2505.74
2510.53
2514.98
2519.44
2523.97
2528.18
2532.27
2536.37
2539.38
2542.46
2545.09
2547.8
2550.2
2552.47
2554.44
2556.1
2557.27
2558.06
2558.74
2559.18
2559.41
2559.51
2559.45
2559.28
2558.95
2558.46
2557.84
2557.12
2556.32
2555.48
2554.59
2553.65
2552.67
2551.68
2550.68
2549.69
2548.72
2547.79
2546.86
2545.95
2545.03
2544.12
2543.2