/*--------------------------------*- C++ -*----------------------------------*\
| =========                 |                                                 |
| \\      /  F ield         | OpenFOAM: The Open Source CFD Toolbox           |
|  \\    /   O peration     | Version:  2412                                  |
|   \\  /    A nd           | Website:  www.openfoam.com                      |
|    \\/     M anipulation  |                                                 |
\*---------------------------------------------------------------------------*/
FoamFile
{
    version     2.0;
    format      ascii;
    arch        "LSB;label=32;scalar=64";
    class       volScalarField;
    location    "0.117";
    object      p;
}
// * * * * * * * * * * * * * * * * * * * * * * * * * * * * * * * * * * * * * //

dimensions      [1 -1 -2 0 0 0 0];

internalField   nonuniform List<scalar> 
9922
(
4404.96
2742.95
2768.21
2783.11
2785.96
2786.92
2783.99
2780.98
2776.75
2772.62
2768.3
2764.3
2760.44
2756.8
2753.2
2749.66
2746.09
2742.43
2738.59
2734.52
2730.17
2725.47
2720.37
2714.8
2708.7
2702.05
2694.8
2686.92
2678.41
2669.23
2659.36
2648.78
2637.46
2625.37
2612.48
2598.74
2584.13
2568.61
2552.14
2534.67
2516.15
2496.51
2475.68
2453.57
2430.07
2405.07
2378.43
2349.96
2319.44
2286.55
2250.82
2211.41
2166.61
2114.32
2053.67
1985.54
1917.7
1854.59
1798.22
1748.31
1703.92
1663.91
1627.68
1595.2
1565.75
1539.08
1514.95
1492.86
1472.46
1453.6
1436.31
1420.65
1406.6
1393.5
1381.23
1369.35
1358
1347.13
1336.89
1327.27
1318.33
1309.9
1301.93
1294.35
1287.14
1280.27
1273.68
1267.34
1261.27
1255.53
1250.12
1245.01
1240.13
1235.44
1230.89
1226.52
1222.32
1218.26
1214.29
1210.44
1206.72
1203.23
1199.93
1196.79
1193.79
1190.92
1188.17
1185.55
1183.03
1180.66
1178.37
1176.22
1174.13
1172.16
1170.31
1168.51
1166.8
1165.1
1163.57
1162.02
1159.67
4409.34
2741.86
2766.82
2782.05
2785.32
2786.49
2783.64
2780.66
2776.46
2772.33
2768.02
2764.03
2760.18
2756.56
2752.98
2749.47
2745.92
2742.29
2738.47
2734.42
2730.07
2725.38
2720.28
2714.71
2708.6
2701.93
2694.66
2686.77
2678.23
2669.02
2659.11
2648.48
2637.1
2624.95
2611.99
2598.17
2583.46
2567.82
2551.22
2533.6
2514.89
2495.03
2473.92
2451.49
2427.6
2402.13
2374.89
2345.68
2314.25
2280.22
2243.03
2201.66
2154.43
2100.24
2039.44
1973.87
1909.75
1850.37
1796.82
1748.41
1704.69
1665.26
1629.54
1596.77
1567.1
1540.19
1515.72
1493.54
1473.32
1454.84
1437.95
1422.3
1407.81
1394.06
1381.11
1368.8
1357.41
1346.82
1337.07
1327.93
1319.29
1310.98
1303.01
1295.41
1288.14
1281.19
1274.5
1268.05
1261.86
1255.97
1250.38
1245.11
1240.08
1235.23
1230.54
1226.09
1221.87
1217.87
1214.08
1210.53
1207.16
1203.91
1200.72
1197.63
1194.63
1191.76
1188.99
1186.34
1183.77
1181.33
1178.96
1176.71
1174.52
1172.44
1170.49
1168.62
1166.83
1165.07
1163.44
1161.84
1159.5
4413.76
2740.79
2765.44
2781
2784.66
2786.04
2783.28
2780.34
2776.15
2772.04
2767.73
2763.75
2759.92
2756.31
2752.75
2749.27
2745.75
2742.14
2738.35
2734.31
2729.98
2725.29
2720.19
2714.61
2708.5
2701.82
2694.53
2686.62
2678.05
2668.8
2658.86
2648.18
2636.76
2624.54
2611.51
2597.61
2582.81
2567.06
2550.32
2532.55
2513.66
2493.58
2472.22
2449.47
2425.21
2399.26
2371.45
2341.54
2309.23
2274.11
2235.54
2192.43
2143.44
2088.39
2027.95
1965.21
1904.37
1847.95
1796.35
1749.59
1707.17
1668.31
1632.68
1600.17
1570.33
1543.17
1518.62
1496.28
1475.85
1457
1439.54
1423.14
1407.9
1393.74
1380.95
1369.15
1358.4
1348.12
1338.34
1328.91
1319.8
1311.1
1302.87
1295.09
1287.73
1280.74
1274.14
1267.88
1261.92
1256.24
1250.83
1245.68
1240.72
1235.95
1231.34
1226.97
1222.78
1218.73
1214.76
1210.91
1207.22
1203.76
1200.47
1197.34
1194.36
1191.53
1188.82
1186.24
1183.76
1181.4
1179.14
1176.99
1174.92
1172.95
1171.1
1169.3
1167.6
1165.93
1164.32
1162.71
1160.36
4418.2
2739.71
2764.01
2779.92
2784
2785.57
2782.9
2780.01
2775.84
2771.74
2767.44
2763.47
2759.65
2756.06
2752.53
2749.07
2745.58
2742
2738.22
2734.2
2729.88
2725.2
2720.1
2714.52
2708.4
2701.71
2694.4
2686.46
2677.87
2668.59
2658.61
2647.89
2636.41
2624.14
2611.04
2597.07
2582.17
2566.32
2549.46
2531.54
2512.48
2492.19
2470.58
2447.53
2422.89
2396.5
2368.14
2337.56
2304.42
2268.28
2228.43
2183.87
2133.72
2078.51
2018.99
1958.95
1901.16
1847.49
1798.05
1752.71
1710.95
1672.49
1636.95
1604.1
1574.02
1546.59
1521.55
1498.71
1477.75
1458.33
1440.23
1423.51
1408.48
1394.78
1382.37
1370.57
1359.4
1348.58
1338.25
1328.41
1319.12
1310.42
1302.31
1294.62
1287.27
1280.27
1273.64
1267.37
1261.37
1255.64
1250.17
1244.95
1239.93
1235.15
1230.6
1226.27
1222.07
1218.01
1214.07
1210.34
1206.83
1203.51
1200.3
1197.2
1194.21
1191.35
1188.6
1185.98
1183.43
1181
1178.65
1176.42
1174.28
1172.25
1170.34
1168.5
1166.77
1165.12
1163.51
1161.91
1159.5
4422.64
2738.61
2762.61
2778.94
2783.38
2785.1
2782.5
2779.67
2775.53
2771.44
2767.14
2763.19
2759.38
2755.81
2752.3
2748.87
2745.41
2741.85
2738.1
2734.1
2729.79
2725.11
2720.02
2714.43
2708.3
2701.59
2694.27
2686.31
2677.7
2668.39
2658.37
2647.61
2636.08
2623.75
2610.59
2596.54
2581.56
2565.6
2548.62
2530.56
2511.33
2490.84
2468.99
2445.65
2420.67
2393.85
2364.97
2333.75
2299.84
2262.76
2221.82
2176.21
2125.55
2070.76
2012.58
1954.96
1899.64
1847.86
1799.9
1755.46
1714.24
1675.8
1640.05
1607.03
1576.53
1548.56
1523.09
1499.89
1478.66
1459.2
1441.43
1425.22
1410.4
1396.45
1383.41
1370.91
1359.14
1348.1
1338.01
1328.59
1319.79
1311.4
1303.36
1295.66
1288.27
1281.28
1274.63
1268.33
1262.26
1256.47
1250.89
1245.55
1240.39
1235.5
1230.82
1226.36
1222.04
1217.91
1214.03
1210.47
1207.09
1203.82
1200.64
1197.57
1194.62
1191.81
1189.12
1186.55
1184.06
1181.66
1179.34
1177.13
1175
1172.96
1171.03
1169.16
1167.38
1165.69
1164.05
1162.47
1160.1
4427.05
2737.56
2761.45
2778.28
2782.85
2784.61
2782.07
2779.32
2775.22
2771.13
2766.84
2762.9
2759.1
2755.55
2752.06
2748.66
2745.23
2741.7
2737.97
2733.99
2729.69
2725.03
2719.93
2714.34
2708.21
2701.48
2694.15
2686.17
2677.52
2668.19
2658.13
2647.33
2635.76
2623.38
2610.15
2596.03
2580.96
2564.91
2547.82
2529.62
2510.23
2489.55
2467.47
2443.85
2418.53
2391.31
2361.94
2330.14
2295.52
2257.62
2215.81
2169.51
2118.74
2064.57
2007.94
1952.4
1899.06
1848.84
1801.96
1758.1
1717.08
1678.9
1643.38
1610.24
1579.61
1551.46
1525.77
1502.44
1481.21
1461.82
1443.98
1427.35
1411.85
1397.2
1383.52
1370.78
1359.37
1348.9
1339.22
1329.78
1320.6
1311.79
1303.36
1295.41
1287.94
1280.91
1274.22
1267.85
1261.75
1255.97
1250.43
1245.16
1240.14
1235.4
1230.86
1226.53
1222.36
1218.31
1214.31
1210.41
1206.66
1203.16
1199.86
1196.73
1193.74
1190.91
1188.22
1185.66
1183.2
1180.84
1178.58
1176.44
1174.36
1172.4
1170.55
1168.76
1167.03
1165.37
1163.76
1162.2
1159.88
4431.39
2736.63
2760.75
2778.04
2782.42
2784.11
2781.62
2778.97
2774.9
2770.82
2766.54
2762.6
2758.82
2755.29
2751.83
2748.45
2745.05
2741.55
2737.85
2733.88
2729.6
2724.94
2719.84
2714.25
2708.11
2701.38
2694.02
2686.02
2677.35
2667.99
2657.9
2647.06
2635.44
2623.01
2609.72
2595.53
2580.39
2564.24
2547.04
2528.71
2509.17
2488.31
2466.01
2442.13
2416.5
2388.9
2359.08
2326.73
2291.5
2252.92
2210.48
2163.8
2113.19
2059.75
2004.83
1951.11
1899.42
1850.72
1804.94
1762.04
1721.89
1684.13
1648.68
1615.59
1584.77
1556.32
1530.23
1506.41
1484.63
1464.6
1446.01
1428.65
1412.58
1397.74
1384.35
1371.98
1360.74
1349.99
1339.64
1329.6
1320.06
1311.14
1302.82
1295.01
1287.66
1280.68
1273.96
1267.55
1261.43
1255.63
1250.06
1244.75
1239.66
1234.82
1230.15
1225.7
1221.47
1217.49
1213.76
1210.3
1206.96
1203.67
1200.41
1197.28
1194.29
1191.44
1188.7
1186.07
1183.54
1181.12
1178.78
1176.56
1174.41
1172.37
1170.45
1168.61
1166.81
1165.1
1163.44
1161.88
1159.63
4435.64
2735.95
2760.52
2778.01
2782
2783.58
2781.16
2778.61
2774.57
2770.5
2766.23
2762.3
2758.54
2755.03
2751.59
2748.24
2744.87
2741.4
2737.72
2733.77
2729.5
2724.85
2719.76
2714.16
2708.01
2701.27
2693.9
2685.88
2677.19
2667.8
2657.68
2646.8
2635.13
2622.65
2609.31
2595.06
2579.84
2563.6
2546.3
2527.84
2508.16
2487.13
2464.62
2440.5
2414.57
2386.62
2356.39
2323.57
2287.8
2248.69
2205.79
2158.94
2108.68
2056.17
2002.93
1950.98
1901.13
1853.96
1809.47
1767.34
1727.39
1689.66
1654.07
1620.61
1589.34
1560.31
1533.57
1509.09
1486.68
1466.15
1447.23
1429.86
1414.06
1399.52
1386.19
1373.45
1361.45
1349.99
1339.33
1329.57
1320.62
1312.12
1303.98
1296.21
1288.78
1281.7
1274.9
1268.43
1262.28
1256.44
1250.85
1245.53
1240.42
1235.55
1230.84
1226.34
1222.03
1217.91
1213.95
1210.15
1206.56
1203.15
1199.87
1196.76
1193.83
1191.05
1188.38
1185.82
1183.36
1181.02
1178.76
1176.62
1174.55
1172.59
1170.73
1168.95
1167.21
1165.56
1163.91
1162.31
1159.98
4439.82
2735.56
2760.58
2777.99
2781.55
2783.04
2780.71
2778.25
2774.24
2770.18
2765.92
2762
2758.25
2754.76
2751.34
2748.03
2744.69
2741.24
2737.59
2733.66
2729.4
2724.76
2719.67
2714.07
2707.92
2701.16
2693.78
2685.74
2677.03
2667.61
2657.45
2646.54
2634.83
2622.3
2608.91
2594.59
2579.31
2562.99
2545.58
2527.02
2507.19
2486
2463.31
2438.95
2412.76
2384.49
2353.89
2320.66
2284.46
2244.92
2201.73
2154.97
2105.32
2053.93
2002.29
1951.97
1903.55
1857.38
1813.37
1771.41
1731.56
1693.79
1658.09
1624.46
1592.88
1563.45
1536.33
1511.52
1488.91
1468.35
1449.59
1432.38
1416.48
1401.55
1387.55
1374.15
1361.72
1350.37
1340.37
1330.94
1321.78
1312.84
1304.22
1296.08
1288.38
1281.13
1274.27
1267.78
1261.6
1255.72
1250.11
1244.77
1239.66
1234.79
1230.17
1225.81
1221.69
1217.79
1214
1210.25
1206.55
1203.03
1199.68
1196.51
1193.51
1190.64
1187.89
1185.25
1182.72
1180.32
1178
1175.81
1173.68
1171.68
1169.79
1167.98
1166.22
1164.57
1162.89
1161.29
1158.96
4443.97
2735.37
2760.64
2777.84
2781
2782.5
2780.27
2777.89
2773.9
2769.86
2765.6
2761.69
2757.96
2754.48
2751.1
2747.81
2744.5
2741.08
2737.46
2733.55
2729.31
2724.67
2719.59
2713.99
2707.83
2701.06
2693.66
2685.6
2676.87
2667.42
2657.24
2646.29
2634.54
2621.96
2608.52
2594.15
2578.8
2562.4
2544.91
2526.23
2506.28
2484.93
2462.06
2437.5
2411.05
2382.5
2351.58
2318.01
2281.46
2241.61
2198.33
2151.86
2102.94
2052.62
2002.36
1953.37
1905.92
1860.4
1817.03
1775.67
1736.28
1698.85
1663.34
1629.73
1598.13
1568.61
1541.26
1516.16
1493.21
1472.24
1452.95
1435.1
1418.51
1402.95
1388.51
1375.1
1363.11
1351.9
1341.48
1331.39
1321.58
1312.31
1303.7
1295.68
1288.15
1281.03
1274.25
1267.82
1261.68
1255.85
1250.26
1244.9
1239.72
1234.75
1230
1225.47
1221.13
1217.03
1213.22
1209.68
1206.25
1202.95
1199.77
1196.73
1193.81
1191
1188.3
1185.7
1183.2
1180.81
1178.51
1176.32
1174.18
1172.16
1170.24
1168.42
1166.64
1165
1163.31
1161.73
1159.39
4448.16
2735.24
2760.46
2777.47
2780.34
2781.94
2779.84
2777.53
2773.56
2769.53
2765.28
2761.38
2757.66
2754.21
2750.84
2747.59
2744.31
2740.92
2737.33
2733.44
2729.21
2724.58
2719.5
2713.9
2707.73
2700.96
2693.54
2685.47
2676.71
2667.24
2657.03
2646.04
2634.26
2621.64
2608.15
2593.73
2578.31
2561.84
2544.26
2525.48
2505.41
2483.93
2460.89
2436.14
2409.47
2380.67
2349.48
2315.62
2278.8
2238.8
2195.61
2149.55
2101.32
2052.01
2003.02
1955.29
1909.06
1864.75
1822.41
1781.83
1742.94
1705.73
1670.21
1636.47
1604.53
1574.53
1546.59
1520.77
1497.04
1475.27
1455.26
1436.86
1419.95
1404.39
1390.34
1377.11
1364.76
1352.89
1341.67
1331.24
1321.77
1313.03
1304.84
1296.97
1289.44
1282.27
1275.37
1268.79
1262.48
1256.48
1250.72
1245.21
1239.95
1235.01
1230.33
1225.89
1221.59
1217.43
1213.38
1209.46
1205.71
1202.14
1198.79
1195.64
1192.67
1189.84
1187.13
1184.53
1182.05
1179.7
1177.46
1175.34
1173.26
1171.29
1169.44
1167.67
1165.93
1164.31
1162.64
1161.07
1158.78
4452.43
2735.03
2759.93
2776.84
2779.6
2781.38
2779.41
2777.16
2773.22
2769.2
2764.95
2761.07
2757.36
2753.92
2750.59
2747.36
2744.11
2740.76
2737.19
2733.33
2729.12
2724.5
2719.42
2713.82
2707.64
2700.85
2693.43
2685.33
2676.56
2667.07
2656.83
2645.81
2633.99
2621.33
2607.79
2593.32
2577.85
2561.31
2543.65
2524.78
2504.59
2482.98
2459.79
2434.87
2408.01
2379
2347.58
2313.5
2276.5
2236.46
2193.43
2147.76
2100.32
2052.27
2004.63
1958.23
1913.33
1870.01
1828.26
1787.91
1749.01
1711.68
1675.97
1641.91
1609.57
1579.05
1550.51
1524.08
1499.76
1477.54
1457.3
1438.88
1422.11
1406.68
1392.44
1378.73
1365.67
1353.37
1342.44
1332.43
1323.22
1314.28
1305.54
1297.23
1289.35
1281.94
1274.87
1268.13
1261.69
1255.59
1249.77
1244.27
1239.04
1234.1
1229.39
1224.92
1220.74
1216.82
1213.09
1209.52
1206
1202.55
1199.2
1196
1192.95
1190.03
1187.22
1184.52
1181.94
1179.51
1177.19
1174.98
1172.83
1170.8
1168.9
1167.11
1165.33
1163.68
1162
1160.46
1158.25
4456.82
2734.71
2759.14
2776.04
2778.81
2780.81
2778.98
2776.79
2772.87
2768.86
2764.62
2760.75
2757.05
2753.64
2750.33
2747.13
2743.92
2740.6
2737.06
2733.22
2729.02
2724.41
2719.33
2713.73
2707.55
2700.76
2693.31
2685.2
2676.41
2666.9
2656.63
2645.58
2633.73
2621.03
2607.45
2592.93
2577.41
2560.81
2543.07
2524.11
2503.83
2482.1
2458.78
2433.7
2406.68
2377.49
2345.89
2311.65
2274.57
2234.56
2191.76
2146.72
2100.33
2053.43
2006.97
1961.66
1917.56
1874.6
1833.02
1792.84
1754.09
1716.84
1681.16
1647.1
1614.68
1584.01
1555.27
1528.61
1504.08
1481.67
1461.21
1442.46
1425.18
1409.05
1393.9
1379.68
1366.8
1354.89
1344.11
1333.77
1323.82
1314.27
1305.24
1296.94
1289.26
1281.99
1275.01
1268.38
1262.03
1256.02
1250.31
1244.91
1239.72
1234.72
1229.87
1225.21
1220.75
1216.47
1212.35
1208.48
1204.9
1201.53
1198.29
1195.2
1192.24
1189.39
1186.65
1184.02
1181.51
1179.15
1176.88
1174.74
1172.66
1170.69
1168.81
1167.02
1165.23
1163.56
1161.85
1160.25
1157.95
4461.32
2734.33
2758.22
2775.21
2778
2780.24
2778.55
2776.41
2772.52
2768.52
2764.29
2760.42
2756.74
2753.35
2750.07
2746.9
2743.72
2740.43
2736.92
2733.1
2728.92
2724.32
2719.25
2713.65
2707.46
2700.66
2693.2
2685.08
2676.26
2666.73
2656.44
2645.37
2633.48
2620.74
2607.13
2592.56
2576.99
2560.34
2542.53
2523.49
2503.12
2481.28
2457.84
2432.64
2405.47
2376.14
2344.41
2310.07
2272.96
2233.06
2190.64
2146.34
2100.91
2055.01
2009.49
1964.99
1921.47
1879.11
1838.31
1798.9
1760.77
1723.96
1688.5
1654.45
1621.93
1591.05
1561.96
1534.79
1509.62
1486.42
1465.12
1445.59
1427.62
1410.89
1395.56
1381.52
1368.84
1356.62
1345.06
1334.07
1323.93
1314.65
1306.26
1298.27
1290.48
1283.01
1275.89
1269.16
1262.65
1256.42
1250.43
1244.8
1239.46
1234.4
1229.61
1225.12
1220.88
1216.81
1212.75
1208.78
1205
1201.42
1198.01
1194.75
1191.63
1188.61
1185.73
1182.96
1180.33
1177.85
1175.48
1173.26
1171.12
1169.09
1167.16
1165.33
1163.54
1161.91
1160.2
1158.61
1156.37
4465.91
2733.99
2757.32
2774.37
2777.15
2779.67
2778.12
2776.03
2772.16
2768.17
2763.95
2760.09
2756.42
2753.05
2749.8
2746.67
2743.52
2740.26
2736.78
2732.99
2728.82
2724.24
2719.17
2713.57
2707.38
2700.56
2693.09
2684.95
2676.12
2666.57
2656.26
2645.16
2633.24
2620.47
2606.82
2592.22
2576.6
2559.9
2542.03
2522.92
2502.46
2480.53
2456.99
2431.67
2404.39
2374.95
2343.13
2308.75
2271.67
2231.98
2190.08
2146.59
2101.88
2056.82
2012.29
1968.78
1926.44
1885.33
1845.39
1806.44
1768.45
1731.58
1695.96
1661.68
1628.81
1597.45
1567.75
1539.9
1513.95
1489.91
1467.84
1447.73
1429.53
1413.02
1398.08
1383.87
1370.41
1357.48
1345.62
1334.81
1325.26
1316.18
1307.36
1298.71
1290.29
1282.46
1275.26
1268.48
1261.93
1255.68
1249.8
1244.34
1239.12
1234.06
1229.18
1224.49
1220.01
1215.8
1211.89
1208.19
1204.62
1201.2
1197.96
1194.85
1191.82
1188.88
1186.04
1183.31
1180.68
1178.17
1175.77
1173.52
1171.33
1169.25
1167.3
1165.48
1163.7
1162.08
1160.37
1158.78
1156.44
4470.57
2733.71
2756.39
2773.48
2776.26
2779.06
2777.68
2775.65
2771.79
2767.82
2763.6
2759.76
2756.11
2752.75
2749.53
2746.43
2743.32
2740.09
2736.64
2732.87
2728.73
2724.15
2719.09
2713.49
2707.29
2700.47
2692.99
2684.83
2675.99
2666.42
2656.09
2644.96
2633.01
2620.22
2606.53
2591.89
2576.23
2559.48
2541.56
2522.39
2501.86
2479.85
2456.22
2430.81
2403.45
2373.93
2342.06
2307.67
2270.72
2231.4
2190.11
2147.14
2103.23
2059.29
2015.94
1973.52
1932.18
1891.52
1851.6
1812.58
1774.55
1737.64
1701.97
1667.55
1634.48
1602.85
1572.81
1544.58
1518.26
1493.96
1471.66
1451.32
1432.93
1416.11
1400.44
1385.53
1371.63
1358.7
1347.21
1336.43
1326.35
1316.63
1307.18
1298.34
1290.31
1282.94
1275.97
1269.24
1262.71
1256.53
1250.68
1245.09
1239.64
1234.46
1229.57
1224.91
1220.33
1215.9
1211.74
1207.77
1203.92
1200.27
1196.87
1193.66
1190.58
1187.61
1184.79
1182.11
1179.55
1177.13
1174.8
1172.6
1170.45
1168.4
1166.47
1164.63
1162.78
1161.06
1159.29
1157.64
1155.25
4475.32
2733.45
2755.34
2772.46
2775.31
2778.42
2777.21
2775.26
2771.43
2767.47
2763.26
2759.42
2755.78
2752.45
2749.26
2746.19
2743.11
2739.92
2736.5
2732.76
2728.63
2724.06
2719.01
2713.41
2707.21
2700.38
2692.89
2684.72
2675.86
2666.27
2655.92
2644.77
2632.8
2619.97
2606.26
2591.58
2575.89
2559.1
2541.14
2521.91
2501.32
2479.25
2455.54
2430.06
2402.63
2373.07
2341.19
2306.88
2270.15
2231.22
2190.38
2148.1
2105.25
2062.44
2019.97
1978.25
1937.26
1896.72
1857.13
1818.64
1781.11
1744.55
1709.08
1674.78
1641.73
1610.03
1579.87
1551.38
1524.72
1499.99
1477.1
1456.08
1436.85
1419.08
1402.6
1387.39
1373.79
1360.88
1348.8
1337.23
1326.51
1316.61
1307.71
1299.53
1291.77
1284.19
1276.76
1269.66
1262.92
1256.52
1250.34
1244.42
1238.81
1233.58
1228.69
1224.06
1219.72
1215.64
1211.74
1208
1204.31
1200.73
1197.31
1194.02
1190.85
1187.8
1184.88
1182.11
1179.48
1176.98
1174.57
1172.29
1170.08
1168
1166.05
1164.21
1162.37
1160.69
1158.98
1157.42
1155.17
4480.18
2733.11
2754.02
2771.27
2774.31
2777.76
2776.73
2774.86
2771.06
2767.11
2762.9
2759.07
2755.45
2752.15
2748.98
2745.95
2742.9
2739.75
2736.36
2732.64
2728.53
2723.98
2718.93
2713.33
2707.13
2700.29
2692.79
2684.61
2675.73
2666.13
2655.76
2644.6
2632.6
2619.75
2606
2591.3
2575.58
2558.75
2540.75
2521.48
2500.84
2478.71
2454.95
2429.42
2401.95
2372.38
2340.54
2306.35
2269.88
2231.36
2191.05
2149.68
2107.79
2065.69
2023.85
1982.74
1942.39
1902.87
1864.3
1826.55
1789.46
1753.14
1717.74
1683.35
1650.09
1618.08
1587.46
1558.39
1531.02
1505.36
1481.58
1459.77
1439.72
1421.42
1404.98
1389.96
1376.08
1362.74
1350.17
1338.32
1327.85
1318.1
1309.1
1300.45
1291.92
1283.72
1275.99
1268.78
1262.09
1255.82
1249.96
1244.51
1239.3
1234.22
1229.19
1224.31
1219.65
1215.23
1210.99
1206.97
1203.26
1199.82
1196.51
1193.31
1190.24
1187.32
1184.54
1181.9
1179.37
1176.96
1174.61
1172.4
1170.24
1168.19
1166.23
1164.37
1162.51
1160.79
1159.01
1157.37
1155.01
4485.19
2732.67
2752.42
2769.96
2773.33
2777.13
2776.24
2774.46
2770.68
2766.74
2762.54
2758.72
2755.12
2751.84
2748.7
2745.7
2742.69
2739.57
2736.21
2732.53
2728.44
2723.89
2718.85
2713.25
2707.05
2700.2
2692.69
2684.5
2675.61
2665.99
2655.61
2644.43
2632.41
2619.54
2605.77
2591.04
2575.29
2558.44
2540.4
2521.1
2500.42
2478.25
2454.45
2428.89
2401.41
2371.86
2340.09
2306.08
2269.96
2231.84
2192.23
2151.65
2110.4
2068.99
2028.08
1987.95
1948.73
1910.17
1871.91
1834.18
1797.04
1760.61
1725.06
1690.51
1657.02
1624.69
1593.66
1564.13
1536.21
1509.96
1485.63
1463.25
1442.9
1424.52
1407.65
1391.99
1377.54
1364.01
1351.77
1340.16
1329.39
1319.15
1309.4
1300.18
1291.59
1283.64
1276.42
1269.65
1263.16
1256.93
1250.86
1244.98
1239.36
1234.06
1229.02
1224.28
1219.84
1215.59
1211.33
1207.16
1203.27
1199.65
1196.15
1192.77
1189.54
1186.48
1183.59
1180.86
1178.27
1175.8
1173.4
1171.13
1168.92
1166.81
1164.83
1162.99
1161.16
1159.48
1157.7
1156.05
1153.71
4490.36
2732.19
2750.73
2768.65
2772.4
2776.52
2775.76
2774.05
2770.3
2766.37
2762.18
2758.37
2754.79
2751.52
2748.42
2745.45
2742.48
2739.4
2736.07
2732.41
2728.34
2723.81
2718.77
2713.17
2706.97
2700.12
2692.6
2684.39
2675.49
2665.86
2655.47
2644.27
2632.24
2619.34
2605.55
2590.8
2575.03
2558.16
2540.1
2520.76
2500.05
2477.86
2454.04
2428.47
2401.01
2371.5
2339.85
2306.13
2270.3
2232.7
2193.75
2153.77
2113.25
2072.94
2033.14
1993.84
1955.12
1916.62
1878.28
1840.64
1803.71
1767.5
1732.12
1697.63
1664.13
1631.74
1600.6
1570.89
1542.77
1516.45
1491.78
1468.82
1448.01
1428.96
1411.25
1394.76
1379.95
1366.16
1353.42
1341.23
1329.91
1319.4
1309.79
1300.9
1292.72
1284.9
1277.46
1270.42
1263.69
1257.28
1251.05
1244.97
1239.22
1233.76
1228.54
1223.57
1218.89
1214.48
1210.37
1206.52
1202.86
1199.38
1196.01
1192.77
1189.64
1186.63
1183.75
1181.01
1178.39
1175.87
1173.43
1171.09
1168.84
1166.7
1164.7
1162.85
1160.99
1159.3
1157.49
1155.81
1153.37
4495.71
2731.84
2749.15
2767.45
2771.53
2775.93
2775.28
2773.64
2769.91
2765.99
2761.81
2758.02
2754.45
2751.21
2748.14
2745.2
2742.27
2739.22
2735.93
2732.29
2728.24
2723.72
2718.69
2713.1
2706.89
2700.04
2692.51
2684.29
2675.38
2665.74
2655.34
2644.13
2632.08
2619.17
2605.35
2590.59
2574.8
2557.91
2539.83
2520.48
2499.76
2477.55
2453.73
2428.18
2400.74
2371.32
2339.9
2306.39
2270.94
2233.87
2195.47
2156.19
2116.71
2077.4
2038.17
1999.25
1960.78
1922.66
1885.13
1848.35
1812.12
1776.38
1741.24
1706.85
1673.31
1640.76
1609.38
1579.28
1550.65
1523.66
1498.29
1474.71
1452.84
1432.73
1414.68
1398.31
1383.28
1369.16
1356.12
1343.59
1332.06
1321.39
1311.67
1302.42
1293.52
1285.08
1277.22
1269.96
1263.16
1256.67
1250.54
1244.79
1239.2
1233.86
1228.77
1223.92
1219.12
1214.46
1210.11
1206.04
1202.1
1198.28
1194.67
1191.32
1188.17
1185.16
1182.29
1179.52
1176.87
1174.32
1171.86
1169.54
1167.29
1165.14
1163.12
1161.24
1159.34
1157.63
1155.8
1154.11
1151.69
4501.21
2731.64
2747.78
2766.37
2770.67
2775.34
2774.8
2773.23
2769.51
2765.6
2761.44
2757.66
2754.11
2750.89
2747.85
2744.95
2742.05
2739.04
2735.78
2732.17
2728.14
2723.64
2718.62
2713.03
2706.82
2699.96
2692.42
2684.2
2675.27
2665.63
2655.21
2643.99
2631.93
2619.01
2605.18
2590.4
2574.6
2557.7
2539.61
2520.25
2499.52
2477.32
2453.52
2427.98
2400.62
2371.37
2340.11
2306.88
2271.87
2235.28
2197.5
2159.12
2120.54
2081.73
2042.95
2004.7
1967.09
1930.18
1893.55
1857.07
1820.92
1785.16
1749.96
1715.44
1681.72
1648.91
1617.14
1586.6
1557.4
1529.53
1503.52
1479.46
1456.82
1436.13
1417.36
1400.38
1384.95
1370.58
1357.61
1345.39
1334.21
1323.39
1313.01
1303.14
1293.95
1285.63
1278.16
1271.01
1264.12
1257.46
1250.92
1244.63
1238.72
1233.18
1228.06
1223.27
1218.72
1214.37
1210.24
1206.36
1202.49
1198.65
1194.94
1191.45
1188.17
1185.04
1182.02
1179.1
1176.3
1173.65
1171.13
1168.75
1166.45
1164.26
1162.21
1160.32
1158.43
1156.72
1154.9
1153.28
1150.92
4506.79
2731.61
2746.56
2765.35
2769.8
2774.73
2774.31
2772.81
2769.11
2765.21
2761.06
2757.29
2753.76
2750.57
2747.56
2744.7
2741.84
2738.86
2735.63
2732.06
2728.05
2723.56
2718.54
2712.95
2706.75
2699.88
2692.34
2684.11
2675.18
2665.52
2655.1
2643.87
2631.8
2618.86
2605.02
2590.24
2574.43
2557.52
2539.43
2520.07
2499.36
2477.16
2453.37
2427.93
2400.68
2371.56
2340.52
2307.63
2273.02
2236.97
2199.93
2162.34
2124.29
2086.07
2048.3
2011.09
1974.3
1937.81
1901.06
1864.43
1828.28
1792.59
1757.44
1722.93
1689.14
1656.21
1624.28
1593.54
1564.08
1536.07
1509.6
1484.79
1462.18
1441.6
1422.22
1404.27
1388.06
1373.16
1359.69
1347
1335.26
1324.13
1313.65
1304.04
1295.52
1287.22
1279.11
1271.47
1264.41
1257.86
1251.59
1245.54
1239.7
1234.16
1228.88
1223.8
1218.88
1214.19
1209.73
1205.48
1201.47
1197.69
1194.1
1190.69
1187.45
1184.36
1181.39
1178.52
1175.77
1173.17
1170.66
1168.25
1165.9
1163.62
1161.48
1159.5
1157.51
1155.69
1153.78
1152.05
1149.58
4512.26
2731.58
2745.37
2764.3
2768.9
2774.1
2773.82
2772.38
2768.7
2764.82
2760.68
2756.93
2753.42
2750.26
2747.28
2744.45
2741.62
2738.68
2735.49
2731.94
2727.95
2723.48
2718.47
2712.88
2706.68
2699.81
2692.26
2684.02
2675.08
2665.42
2654.99
2643.76
2631.68
2618.74
2604.89
2590.1
2574.28
2557.38
2539.3
2519.96
2499.25
2477.09
2453.38
2428
2400.86
2371.91
2341.13
2308.58
2274.42
2238.96
2202.62
2165.61
2128.22
2091.08
2054.31
2017.55
1980.93
1944.41
1907.96
1871.98
1836.48
1801.32
1766.54
1732.23
1698.52
1665.55
1633.51
1602.53
1572.81
1544.62
1517.61
1492.09
1468.59
1446.8
1426.91
1408.81
1392.26
1376.95
1363.09
1349.99
1337.51
1325.76
1315.27
1305.45
1296.12
1287.25
1278.88
1271.27
1264.38
1257.78
1251.27
1245.05
1239.24
1233.81
1228.62
1223.66
1218.94
1214.47
1210.07
1205.65
1201.39
1197.41
1193.66
1190.07
1186.61
1183.31
1180.17
1177.19
1174.4
1171.76
1169.2
1166.72
1164.32
1162.05
1159.96
1158.05
1156.13
1154.4
1152.57
1150.95
1148.62
4517.44
2731.54
2744.15
2763.22
2767.99
2773.47
2773.31
2771.94
2768.29
2764.42
2760.3
2756.57
2753.08
2749.93
2746.99
2744.19
2741.41
2738.5
2735.34
2731.82
2727.86
2723.4
2718.4
2712.82
2706.61
2699.74
2692.19
2683.94
2675
2665.33
2654.9
2643.66
2631.58
2618.63
2604.78
2589.99
2574.18
2557.28
2539.21
2519.88
2499.22
2477.12
2453.47
2428.18
2401.19
2372.44
2341.93
2309.75
2276.08
2241.22
2205.45
2169.1
2132.7
2096.44
2059.96
2023.44
1987.3
1951.59
1916.32
1881.11
1845.99
1811.05
1776.36
1742.07
1708.28
1675.14
1642.82
1611.46
1581.22
1552.19
1524.77
1499.05
1474.33
1451.16
1430.25
1411.39
1394.36
1378.67
1364.45
1351.25
1339.51
1328.33
1317.58
1307.02
1297.02
1288.09
1280.25
1272.91
1265.8
1258.86
1252.03
1245.46
1239.38
1233.73
1228.3
1223.04
1218.03
1213.31
1208.93
1204.81
1200.88
1197.14
1193.53
1190.06
1186.7
1183.46
1180.37
1177.43
1174.67
1172.01
1169.4
1166.94
1164.59
1162.33
1160.21
1158.2
1156.16
1154.3
1152.34
1150.54
1147.93
4522.29
2731.53
2742.95
2762.12
2767.08
2772.84
2772.79
2771.48
2767.86
2764.02
2759.92
2756.2
2752.73
2749.61
2746.7
2743.94
2741.19
2738.32
2735.19
2731.7
2727.76
2723.32
2718.33
2712.75
2706.54
2699.67
2692.12
2683.87
2674.92
2665.24
2654.81
2643.57
2631.5
2618.55
2604.7
2589.9
2574.1
2557.21
2539.16
2519.88
2499.26
2477.22
2453.65
2428.48
2401.65
2373.12
2342.92
2311.13
2277.96
2243.64
2208.52
2173.03
2137.44
2101.53
2065.47
2029.88
1994.7
1959.84
1925
1889.65
1854.4
1819.4
1784.68
1750.35
1716.48
1683.22
1650.69
1619.12
1588.56
1559
1531.08
1504.87
1480.24
1457.68
1436.32
1416.36
1398.39
1382.1
1367.54
1354.04
1341.73
1330.04
1319.16
1308.89
1299.26
1290.14
1281.62
1273.49
1265.61
1258.23
1251.5
1245.32
1239.49
1233.95
1228.62
1223.49
1218.45
1213.56
1208.89
1204.51
1200.37
1196.39
1192.51
1188.83
1185.39
1182.16
1179.11
1176.22
1173.44
1170.72
1168.11
1165.66
1163.29
1160.96
1158.74
1156.68
1154.64
1152.83
1150.9
1149.14
1146.66
4526.96
2731.67
2741.8
2761.03
2766.17
2772.2
2772.26
2771.01
2767.43
2763.62
2759.55
2755.84
2752.39
2749.29
2746.41
2743.68
2740.97
2738.13
2735.04
2731.58
2727.67
2723.24
2718.26
2712.69
2706.48
2699.61
2692.05
2683.8
2674.84
2665.17
2654.73
2643.5
2631.43
2618.48
2604.64
2589.85
2574.05
2557.19
2539.18
2519.94
2499.37
2477.39
2453.93
2428.9
2402.25
2373.98
2344.09
2312.72
2280.03
2246.3
2211.9
2177.15
2142.03
2106.68
2071.7
2037.04
2002.25
1967.44
1932.43
1897.28
1862.47
1827.95
1793.63
1759.56
1725.84
1692.58
1660
1628.27
1597.56
1568.11
1539.47
1512.15
1487.31
1464.23
1442.53
1422.39
1403.83
1386.74
1371.18
1356.76
1343.58
1331.18
1320.07
1309.74
1299.91
1290.55
1281.58
1273.22
1265.63
1258.68
1252.17
1245.94
1239.86
1233.98
1228.34
1223.03
1218.12
1213.45
1208.96
1204.76
1200.74
1196.81
1192.89
1189.12
1185.58
1182.27
1179.16
1176.18
1173.3
1170.52
1167.91
1165.44
1163.06
1160.75
1158.65
1156.73
1154.82
1153.07
1151.17
1149.45
1146.93
4531.69
2732
2740.72
2760.02
2765.28
2771.55
2771.72
2770.52
2766.99
2763.22
2759.17
2755.48
2752.04
2748.97
2746.12
2743.43
2740.75
2737.95
2734.9
2731.47
2727.57
2723.16
2718.19
2712.62
2706.42
2699.55
2691.99
2683.73
2674.77
2665.1
2654.67
2643.44
2631.37
2618.43
2604.6
2589.82
2574.06
2557.22
2539.24
2520.04
2499.54
2477.66
2454.31
2429.44
2402.99
2374.98
2345.44
2314.49
2282.32
2249.21
2215.49
2181.31
2146.8
2112.46
2078.31
2043.77
2009.1
1974.62
1940.39
1906.36
1872.26
1838.2
1804.17
1770.26
1736.59
1703.29
1670.57
1638.56
1607.48
1577.52
1548.65
1521.08
1494.61
1469.55
1446.88
1426.34
1407.2
1389.39
1373.22
1358.58
1345.86
1333.91
1322.44
1311.24
1300.8
1291.24
1282.58
1274.64
1267.21
1260.05
1253.16
1246.67
1240.51
1234.61
1228.89
1223.36
1218.05
1213.05
1208.26
1203.74
1199.54
1195.59
1191.82
1188.28
1184.91
1181.7
1178.61
1175.65
1172.8
1170.06
1167.45
1164.91
1162.52
1160.18
1158.02
1155.99
1153.9
1151.98
1149.93
1148.1
1145.51
4536.67
2732.54
2739.74
2759.12
2764.41
2770.89
2771.17
2770.02
2766.54
2762.82
2758.8
2755.12
2751.7
2748.65
2745.83
2743.17
2740.53
2737.77
2734.75
2731.35
2727.48
2723.09
2718.13
2712.56
2706.36
2699.49
2691.93
2683.68
2674.71
2665.04
2654.61
2643.39
2631.33
2618.41
2604.58
2589.83
2574.09
2557.28
2539.35
2520.21
2499.79
2478.01
2454.79
2430.09
2403.87
2376.14
2346.95
2316.45
2284.81
2252.32
2219.2
2185.64
2152.02
2118.43
2084.43
2050.22
2016.42
1982.91
1949.57
1915.92
1881.72
1847.55
1813.48
1779.55
1745.83
1712.45
1679.55
1647.36
1615.92
1585.25
1556.21
1528.62
1501.84
1476.69
1453.14
1431.2
1411.52
1393.72
1377.65
1362.75
1349.21
1336.47
1324.89
1313.91
1303.53
1293.78
1284.66
1276.03
1267.64
1259.8
1252.61
1245.94
1239.59
1233.49
1227.76
1222.54
1217.62
1212.92
1208.33
1203.85
1199.44
1195.25
1191.34
1187.72
1184.25
1180.87
1177.6
1174.5
1171.57
1168.79
1166.13
1163.57
1161.2
1158.87
1156.74
1154.72
1152.67
1150.79
1148.79
1147.01
1144.49
4541.97
2733.29
2738.84
2758.31
2763.56
2770.22
2770.6
2769.51
2766.09
2762.42
2758.42
2754.76
2751.36
2748.33
2745.53
2742.91
2740.3
2737.58
2734.6
2731.23
2727.39
2723.01
2718.06
2712.5
2706.3
2699.44
2691.88
2683.62
2674.66
2664.98
2654.57
2643.35
2631.31
2618.4
2604.6
2589.87
2574.15
2557.39
2539.51
2520.44
2500.11
2478.44
2455.37
2430.86
2404.87
2377.44
2348.64
2318.59
2287.5
2255.59
2223.09
2190.3
2157.4
2124.12
2090.59
2057.49
2024.55
1991.35
1957.94
1924.11
1890.05
1856.18
1822.45
1788.78
1755.22
1721.88
1688.95
1656.64
1625.08
1594.38
1564.45
1535.8
1509.49
1484.9
1461.21
1438.74
1418.11
1399.13
1381.69
1365.56
1350.99
1337.59
1325.67
1314.66
1304.4
1294.59
1285.12
1276.17
1267.97
1260.47
1253.42
1246.72
1240.12
1233.76
1227.81
1222.35
1217.18
1212.23
1207.56
1203.21
1199
1194.95
1191.17
1187.64
1184.21
1180.82
1177.51
1174.37
1171.4
1168.56
1165.86
1163.28
1160.85
1158.43
1156.16
1154.01
1151.83
1149.84
1147.72
1145.8
1143.07
4547.48
2734.18
2738.01
2757.59
2762.72
2769.53
2770.02
2768.99
2765.64
2762.02
2758.06
2754.41
2751.02
2748.01
2745.24
2742.65
2740.08
2737.4
2734.44
2731.11
2727.29
2722.94
2718
2712.44
2706.25
2699.38
2691.83
2683.57
2674.61
2664.94
2654.53
2643.33
2631.31
2618.42
2604.64
2589.94
2574.26
2557.54
2539.73
2520.74
2500.5
2478.96
2456.05
2431.74
2406.01
2378.9
2350.49
2320.92
2290.37
2259.05
2227.22
2195.11
2162.66
2129.94
2097.47
2065.09
2032.14
1999.01
1965.89
1932.86
1899.78
1866.55
1833.28