/*--------------------------------*- C++ -*----------------------------------*\
| =========                 |                                                 |
| \\      /  F ield         | OpenFOAM: The Open Source CFD Toolbox           |
|  \\    /   O peration     | Version:  2412                                  |
|   \\  /    A nd           | Website:  www.openfoam.com                      |
|    \\/     M anipulation  |                                                 |
\*---------------------------------------------------------------------------*/
FoamFile
{
    version     2.0;
    format      ascii;
    arch        "LSB;label=32;scalar=64";
    class       volScalarField;
    location    "0.102";
    object      p;
}
// * * * * * * * * * * * * * * * * * * * * * * * * * * * * * * * * * * * * * //

dimensions      [1 -1 -2 0 0 0 0];

internalField   nonuniform List<scalar> 
78650
(
3668.02
2953.22
2898.48
2883.36
2869.28
2858.92
2850.29
2842.69
2835.52
2828.66
2822.1
2816.33
2811.81
2808.59
2806.31
2804.48
2802.65
2800.47
2797.58
2793.87
2789.56
2785.02
2780.58
2776.46
2772.72
2769.3
2766.11
2763.14
2760.44
2757.98
2755.72
2753.59
2751.54
2749.55
2747.65
2745.86
2744.2
2742.66
2741.22
2739.85
2738.55
2737.31
2736.12
2734.98
2733.88
2732.83
2731.84
2730.92
2730.09
2729.34
2728.68
2728.08
2727.54
2727.04
2726.59
2726.18
2725.79
2725.43
2725.09
2724.74
2724.38
2723.98
2723.52
2722.96
2722.28
2721.43
2720.38
2719.1
2717.56
2715.68
2713.42
2710.74
2707.58
2703.87
2699.51
2694.42
2688.52
2681.72
2673.94
2665.04
2654.9
2643.36
2630.29
2615.57
2599.04
2580.58
2559.96
2537.09
2511.76
2484.04
2453.69
2420.78
2384.67
2345.81
2303.26
2258.16
2209.41
2157.7
2103.08
2045.67
1987.8
1929.98
1873.59
1816.45
1757.51
1699.38
1641.24
1583.69
1531.02
1479.09
1430.8
1386.06
1343.28
1304.72
1271.79
1242.73
1217.15
1192.92
1170.77
1151.25
1112.19
3625.31
2947.67
2898.39
2883.4
2869.8
2859.69
2851.21
2843.71
2836.72
2830.01
2823.47
2817.48
2812.61
2809.02
2806.48
2804.56
2802.83
2800.89
2798.35
2794.98
2790.91
2786.48
2782.06
2777.93
2774.2
2770.81
2767.67
2764.76
2762.11
2759.72
2757.55
2755.53
2753.6
2751.74
2749.95
2748.28
2746.73
2745.31
2744
2742.77
2741.62
2740.53
2739.51
2738.55
2737.63
2736.77
2735.97
2735.24
2734.61
2734.07
2733.62
2733.25
2732.94
2732.69
2732.5
2732.36
2732.25
2732.18
2732.14
2732.12
2732.11
2732.08
2732.01
2731.87
2731.63
2731.26
2730.74
2730.01
2729.06
2727.83
2726.27
2724.34
2722
2719.17
2715.78
2711.74
2706.98
2701.4
2694.95
2687.5
2678.94
2669.12
2657.89
2645.14
2630.73
2614.55
2596.38
2576.06
2553.37
2528.28
2500.53
2470.08
2436.5
2400.15
2360.4
2318.27
2272.74
2224.87
2174.18
2120.31
2062.64
2003.1
1941.31
1881.35
1821.54
1762.99
1707.13
1648.61
1593.92
1540.39
1488.67
1441.49
1394.29
1349.67
1308.94
1273.9
1245.59
1220.64
1196.83
1174.37
1129.66
3582.36
2937.47
2898.29
2884
2870.55
2860.39
2851.94
2844.58
2837.85
2831.35
2824.89
2818.79
2813.6
2809.62
2806.74
2804.66
2802.97
2801.24
2799.04
2796.03
2792.25
2787.97
2783.6
2779.46
2775.73
2772.37
2769.28
2766.42
2763.83
2761.5
2759.42
2757.5
2755.7
2753.96
2752.3
2750.75
2749.32
2748.03
2746.84
2745.75
2744.75
2743.82
2742.96
2742.17
2741.45
2740.77
2740.16
2739.63
2739.2
2738.87
2738.64
2738.5
2738.43
2738.43
2738.49
2738.62
2738.79
2739.02
2739.29
2739.59
2739.92
2740.26
2740.58
2740.85
2741.06
2741.16
2741.15
2740.96
2740.61
2740.02
2739.13
2737.93
2736.37
2734.39
2731.93
2728.89
2725.2
2720.8
2715.59
2709.49
2702.39
2694.15
2684.63
2673.72
2661.27
2647.15
2631.17
2613.21
2593.07
2570.7
2545.81
2518.33
2487.95
2454.9
2418.68
2379.87
2337.46
2292.51
2244.03
2192.77
2138.79
2082.07
2021.76
1958.62
1895.73
1830.69
1769.25
1708.33
1647.87
1593.01
1538.6
1489.48
1441.82
1396.13
1351.93
1308.99
1270.71
1237.99
1212.48
1192.38
1149.39
3541.77
2931.47
2897.78
2884.35
2871.05
2860.58
2852.29
2845.35
2838.91
2832.66
2826.38
2820.27
2814.83
2810.44
2807.16
2804.84
2803.11
2801.55
2799.65
2797.02
2793.57
2789.51
2785.22
2781.09
2777.35
2774.01
2770.97
2768.16
2765.61
2763.34
2761.34
2759.53
2757.85
2756.25
2754.72
2753.3
2751.99
2750.83
2749.77
2748.82
2747.96
2747.19
2746.49
2745.88
2745.33
2744.85
2744.43
2744.09
2743.86
2743.74
2743.73
2743.81
2743.97
2744.21
2744.53
2744.91
2745.36
2745.88
2746.45
2747.07
2747.73
2748.41
2749.11
2749.79
2750.42
2750.98
2751.44
2751.79
2751.97
2752
2751.76
2751.27
2750.47
2749.3
2747.72
2745.64
2743
2739.72
2735.74
2730.96
2725.29
2718.62
2710.8
2701.72
2691.24
2679.24
2665.56
2650.07
2632.54
2612.84
2590.65
2565.94
2538.45
2508.3
2475.03
2438.99
2399.43
2357.22
2311.3
2262.78
2211.18
2156.6
2100.76
2040.79
1981.3
1916.9
1850.97
1787.91
1721.54
1658.66
1597.94
1538.43
1486.24
1437.71
1393.64
1352.24
1311.72
1271.26
1235.74
1206.87
1153.2
3498.05
2924.76
2896.11
2883.73
2870.81
2860.45
2852.29
2845.63
2839.78
2833.96
2827.99
2821.97
2816.34
2811.53
2807.8
2805.14
2803.29
2801.82
2800.19
2797.94
2794.87
2791.07
2786.91
2782.8
2779.05
2775.73
2772.72
2769.96
2767.47
2765.26
2763.33
2761.62
2760.07
2758.6
2757.22
2755.93
2754.76
2753.72
2752.81
2752
2751.29
2750.66
2750.13
2749.69
2749.33
2749.03
2748.81
2748.67
2748.63
2748.72
2748.93
2749.23
2749.63
2750.11
2750.67
2751.32
2752.05
2752.84
2753.71
2754.64
2755.63
2756.66
2757.72
2758.79
2759.84
2760.85
2761.8
2762.65
2763.38
2763.97
2764.37
2764.55
2764.48
2764.1
2763.37
2762.21
2760.56
2758.35
2755.51
2751.98
2747.65
2742.43
2736.19
2728.8
2720.15
2710.11
2698.53
2685.27
2670.1
2652.91
2633.47
2611.75
2587.5
2560.72
2530.95
2498.32
2462.09
2422.77
2379.48
2333.29
2283.31
2230.33
2174.31
2116.1
2055.3
1994.25
1930.83
1868.98
1804.6
1738.04
1675.81
1609.89
1547.77
1488.88
1434
1387.57
1347.38
1311.87
1277.61
1245.1
1180.93
3452.28
2920.92
2893.91
2882.23
2869.81
2859.63
2851.76
2845.46
2840.09
2835.07
2829.67
2823.92
2818.2
2813.01
2808.76
2805.66
2803.58
2802.11
2800.68
2798.79
2796.13
2792.66
2788.69
2784.63
2780.87
2777.54
2774.57
2771.86
2769.42
2767.27
2765.41
2763.79
2762.36
2761.03
2759.79
2758.64
2757.62
2756.72
2755.95
2755.29
2754.73
2754.26
2753.89
2753.61
2753.43
2753.33
2753.3
2753.36
2753.52
2753.81
2754.22
2754.75
2755.38
2756.11
2756.92
2757.83
2758.82
2759.89
2761.05
2762.29
2763.59
2764.96
2766.38
2767.83
2769.29
2770.72
2772.12
2773.46
2774.73
2775.88
2776.89
2777.7
2778.31
2778.67
2778.76
2778.48
2777.81
2776.64
2774.91
2772.58
2769.54
2765.75
2761.05
2755.36
2748.53
2740.45
2730.97
2719.98
2707.26
2692.7
2676.08
2657.31
2636.07
2612.22
2585.36
2555.54
2522.3
2486.1
2446.36
2403.73
2357.19
2307.46
2253.91
2196.91
2136.64
2073.7
2008.47
1941.13
1877.01
1810.64
1749.63
1687
1624.5
1563.43
1501.12
1441.86
1386.42
1338.14
1301.98
1274.47
1214.51
3404.22
2918.37
2891.65
2879.8
2867.96
2858.27
2850.8
2844.97
2840.03
2835.54
2830.99
2825.87
2820.35
2814.91
2810.13
2806.47
2804.03
2802.45
2801.15
2799.57
2797.32
2794.25
2790.54
2786.58
2782.81
2779.46
2776.5
2773.84
2771.45
2769.35
2767.56
2766.03
2764.72
2763.53
2762.44
2761.45
2760.56
2759.81
2759.2
2758.69
2758.29
2757.98
2757.77
2757.66
2757.66
2757.75
2757.91
2758.17
2758.53
2759.02
2759.65
2760.4
2761.26
2762.23
2763.29
2764.45
2765.71
2767.06
2768.5
2770.04
2771.66
2773.37
2775.13
2776.95
2778.8
2780.66
2782.51
2784.33
2786.1
2787.79
2789.38
2790.83
2792.12
2793.19
2794.02
2794.58
2794.8
2794.63
2793.97
2792.8
2790.97
2788.49
2785.22
2781.08
2775.92
2769.65
2762.12
2753.23
2742.78
2730.66
2716.62
2700.58
2682.23
2661.49
2638.05
2611.94
2582.72
2550.55
2514.84
2476.02
2433.18
2386.95
2336.64
2283.23
2226.39
2165.36
2101.9
2033.2
1963.56
1892.64
1821.08
1754.76
1687.7
1626.09
1566.6
1511.69
1457.42
1402.1
1346.67
1301.66
1220.64
3354.13
2915.13
2890.08
2878.13
2866.46
2856.9
2849.54
2843.93
2839.43
2835.44
2831.5
2827.32
2822.44
2817.12
2811.95
2807.7
2804.76
2802.93
2801.64
2800.3
2798.45
2795.83
2792.45
2788.63
2784.88
2781.49
2778.53
2775.9
2773.56
2771.53
2769.8
2768.36
2767.15
2766.1
2765.17
2764.33
2763.6
2763
2762.53
2762.2
2761.95
2761.8
2761.76
2761.82
2762
2762.26
2762.62
2763.07
2763.64
2764.33
2765.17
2766.14
2767.24
2768.44
2769.75
2771.16
2772.68
2774.3
2776.03
2777.86
2779.79
2781.81
2783.92
2786.1
2788.33
2790.59
2792.87
2795.14
2797.4
2799.62
2801.77
2803.82
2805.73
2807.5
2809.09
2810.44
2811.5
2812.23
2812.58
2812.54
2811.92
2810.74
2808.85
2806.22
2802.72
2798.24
2792.65
2785.84
2777.63
2767.9
2756.44
2743.16
2727.78
2710.18
2690.03
2667.24
2641.4
2612.64
2580.44
2544.98
2505.54
2462.69
2415.74
2365.31
2310.93
2253.41
2192.73
2128.91
2060.79
1992.12
1919.12
1846.01
1768.84
1695
1626.09
1559.17
1500.41
1450.86
1405.9
1364.75
1276.68
3300.59
2914.24
2889.07
2876.55
2864.6
2854.83
2847.51
2842.17
2838.12
2834.75
2831.4
2827.9
2823.96
2819.19
2813.98
2809.28
2805.8
2803.58
2802.18
2800.99
2799.5
2797.35
2794.39
2790.8
2787.08
2783.66
2780.67
2778.06
2775.75
2773.77
2772.11
2770.76
2769.65
2768.74
2767.95
2767.27
2766.69
2766.25
2765.95
2765.78
2765.71
2765.73
2765.86
2766.08
2766.43
2766.88
2767.43
2768.08
2768.84
2769.74
2770.79
2771.98
2773.3
2774.74
2776.29
2777.96
2779.74
2781.63
2783.63
2785.75
2787.98
2790.32
2792.76
2795.29
2797.89
2800.55
2803.25
2805.97
2808.69
2811.41
2814.1
2816.73
2819.26
2821.69
2823.97
2826.08
2827.98
2829.62
2830.9
2831.81
2832.31
2832.37
2831.78
2830.58
2828.58
2825.74
2821.92
2817.02
2810.9
2803.43
2794.42
2783.75
2771.19
2756.59
2739.67
2720.33
2698.2
2673.24
2644.87
2613.18
2577.6
2538.48
2495.11
2447.89
2396.23
2341.03
2281.65
2218.38
2151.99
2083.91
2013.57
1941.56
1870.57
1795.18
1723.4
1646.76
1575.11
1504.05
1443.81
1397.19
1306.99
3244.93
2910.65
2889.99
2875.83
2863.28
2853.04
2845.38
2839.93
2836.1
2833.3
2830.72
2827.88
2824.57
2820.58
2815.78
2811
2807.1
2804.46
2802.82
2801.66
2800.45
2798.75
2796.27
2793.01
2789.41
2785.98
2782.94
2780.31
2778.02
2776.08
2774.48
2773.22
2772.21
2771.43
2770.78
2770.26
2769.85
2769.56
2769.43
2769.43
2769.54
2769.74
2770.03
2770.43
2770.95
2771.58
2772.32
2773.16
2774.12
2775.22
2776.47
2777.87
2779.42
2781.09
2782.89
2784.8
2786.83
2788.99
2791.26
2793.66
2796.18
2798.83
2801.59
2804.45
2807.41
2810.45
2813.55
2816.7
2819.87
2823.07
2826.27
2829.45
2832.57
2835.62
2838.57
2841.41
2844.09
2846.55
2848.77
2850.69
2852.23
2853.35
2854.03
2854.2
2853.7
2852.49
2850.41
2847.4
2843.31
2838.03
2831.37
2823.22
2813.37
2801.71
2787.93
2771.9
2753.23
2731.84
2707.24
2679.56
2648.31
2613.6
2574.67
2531.82
2484.53
2433.11
2376.65
2316.24
2251.72
2182.14
2109.47
2031.83
1957.28
1879.41
1806.29
1731.1
1661.15
1596.76
1526.2
1463.14
1344.92
3188.1
2905.29
2889.96
2876.18
2863.06
2852.02
2843.61
2837.66
2833.67
2831.09
2829.13
2827.09
2824.42
2820.97
2816.83
2812.38
2808.38
2805.45
2803.56
2802.36
2801.32
2800
2798.03
2795.2
2791.81
2788.41
2785.34
2782.68
2780.38
2778.46
2776.91
2775.72
2774.82
2774.15
2773.65
2773.29
2773.04
2772.91
2772.94
2773.13
2773.41
2773.79
2774.26
2774.84
2775.53
2776.34
2777.26
2778.3
2779.45
2780.74
2782.19
2783.81
2785.58
2787.48
2789.51
2791.67
2793.96
2796.37
2798.91
2801.59
2804.4
2807.34
2810.41
2813.61
2816.91
2820.32
2823.81
2827.36
2830.97
2834.63
2838.32
2842.03
2845.71
2849.36
2852.95
2856.47
2859.88
2863.15
2866.22
2869.05
2871.6
2873.82
2875.63
2876.98
2877.82
2878.09
2877.64
2876.37
2874.18
2870.91
2866.46
2860.7
2853.46
2844.62
2833.88
2821.11
2805.93
2788.27
2767.68
2744.19
2717.28
2686.92
2652.49
2614.17
2571.36
2524.28
2472.36
2416.21
2354.87
2288.85
2218.87
2145.55
2067.33
1984.93
1897.76
1815.69
1732.55
1658.02
1592.24
1538.31
1423.47
3130.64
2898.66
2888.63
2876.76
2863.51
2851.8
2842.57
2835.72
2831.09
2828.28
2826.66
2825.37
2823.61
2820.79
2817.02
2812.89
2809.13
2806.24
2804.29
2803.07
2802.16
2801.16
2799.67
2797.32
2794.24
2790.93
2787.83
2785.14
2782.82
2780.9
2779.38
2778.25
2777.45
2776.91
2776.55
2776.35
2776.26
2776.28
2776.5
2776.84
2777.31
2777.88
2778.53
2779.29
2780.15
2781.14
2782.25
2783.47
2784.81
2786.29
2787.94
2789.76
2791.74
2793.87
2796.13
2798.53
2801.06
2803.73
2806.53
2809.47
2812.56
2815.79
2819.16
2822.67
2826.31
2830.06
2833.92
2837.87
2841.89
2845.98
2850.14
2854.34
2858.56
2862.77
2866.96
2871.12
2875.23
2879.24
2883.12
2886.83
2890.33
2893.55
2896.47
2899.04
2901.17
2902.78
2903.83
2904.24
2903.9
2902.62
2900.33
2896.84
2892.04
2885.81
2877.92
2868.21
2856.37
2842.29
2825.55
2806.12
2783.41
2757.39
2727.48
2693.67
2655.36
2612.7
2565.13
2512.8
2454.83
2392.68
2326.4
2256
2180.64
2101.89
2018.15
1932.66
1846.04
1759.34
1671.13
1596.2
1456.93
3075.07
2887.9
2886.37
2877.74
2864.61
2851.95
2841.92
2834.21
2828.81
2825.47
2823.7
2822.74
2821.67
2819.7
2816.56
2812.75
2809.17
2806.39
2804.51
2803.33
2802.57
2801.95
2801.05
2799.32
2796.68
2793.54
2790.43
2787.68
2785.32
2783.39
2781.88
2780.8
2780.1
2779.66
2779.45
2779.4
2779.47
2779.66
2780.03
2780.55
2781.2
2781.96
2782.8
2783.74
2784.79
2785.96
2787.24
2788.64
2790.17
2791.85
2793.68
2795.7
2797.89
2800.23
2802.73
2805.36
2808.13
2811.04
2814.1
2817.3
2820.65
2824.16
2827.83
2831.64
2835.6
2839.69
2843.9
2848.22
2852.64
2857.16
2861.75
2866.43
2871.15
2875.9
2880.67
2885.43
2890.19
2894.91
2899.54
2904.07
2908.44
2912.62
2916.55
2920.2
2923.52
2926.45
2928.89
2930.76
2931.99
2932.52
2932.26
2930.92
2928.49
2924.74
2919.61
2912.89
2904.33
2893.75
2880.77
2865.25
2846.68
2825.02
2799.73
2770.72
2737.38
2699.68
2657
2609.29
2555.93
2497.83
2433.74
2364.39
2289.54
2209.27
2126.29
2038.99
1946.92
1866.21
1783.45
1709.29
1558.85
3025.78
2876.17
2881.42
2877.18
2865.16
2852.19
2841.58
2833.29
2827.15
2823.06
2820.7
2819.56
2818.8
2817.57
2815.27
2812.05
2808.75
2806.08
2804.27
2803.16
2802.58
2802.22
2801.84
2800.87
2798.92
2796.14
2793.09
2790.27
2787.87
2785.9
2784.4
2783.35
2782.73
2782.39
2782.32
2782.45
2782.68
2783.02
2783.55
2784.24
2785.08
2786.02
2787.05
2788.18
2789.41
2790.76
2792.23
2793.81
2795.52
2797.37
2799.4
2801.6
2803.99
2806.55
2809.26
2812.11
2815.12
2818.27
2821.57
2825.02
2828.63
2832.41
2836.35
2840.45
2844.71
2849.12
2853.67
2858.35
2863.14
2868.05
2873.06
2878.17
2883.37
2888.63
2893.93
2899.27
2904.63
2910
2915.34
2920.63
2925.82
2930.88
2935.78
2940.46
2944.9
2949.03
2952.8
2956.13
2958.95
2961.12
2962.59
2963.28
2963.14
2961.76
2959.23
2955.2
2949.63
2942.26
2932.79
2921.06
2906.62
2889.41
2868.87
2844.88
2816.85
2784.62
2747.58
2705.61
2658.22
2605.61
2546.19
2481.07
2409.85
2333.72
2252.13
2164.39
2069.75
1970.41
1875.85
1792.72
1638.13
2984.53
2862.7
2873.36
2872.83
2864.84
2852.59
2841.69
2833
2826.33
2821.52
2818.35
2816.59
2815.56
2814.51
2812.81
2810.31
2807.51
2805.13
2803.57
2802.66
2802.24
2802.09
2802.05
2801.75
2800.68
2798.54
2795.73
2792.88
2790.43
2788.42
2786.91
2785.87
2785.32
2785.09
2785.14
2785.47
2785.84
2786.34
2787.02
2787.88
2788.9
2790.03
2791.25
2792.56
2793.98
2795.51
2797.16
2798.93
2800.82
2802.85
2805.05
2807.44
2810.02
2812.78
2815.7
2818.78
2822
2825.39
2828.92
2832.62
2836.48
2840.51
2844.72
2849.1
2853.65
2858.36
2863.23
2868.25
2873.4
2878.68
2884.09
2889.62
2895.26
2900.99
2906.8
2912.67
2918.6
2924.58
2930.58
2936.57
2942.52
2948.4
2954.18
2959.81
2965.27
2970.51
2975.47
2980.1
2984.33
2988.08
2991.26
2993.72
2995.42
2996.26
2996.27
2994.85
2992.21
2987.91
2981.85
2973.8
2963.38
2950.48
2934.51
2915.38
2892.46
2865.5
2833.9
2797.52
2755.73
2708.21
2654.01
2594.3
2528.03
2455.86
2377.55
2292.55
2205.06
2107.6
2005.31
1911.95
1736.34
2951.44
2846.02
2861.65
2865.34
2862.32
2852.5
2841.87
2833.15
2826.26
2821.04
2817.26
2814.61
2812.74
2811.23
2809.61
2807.64
2805.44
2803.48
2802.24
2801.52
2801.32
2801.54
2801.94
2802.05
2801.69
2800.42
2798.16
2795.47
2792.98
2790.91
2789.39
2788.37
2787.86
2787.72
2787.91
2788.43
2788.96
2789.61
2790.45
2791.48
2792.67
2793.99
2795.4
2796.89
2798.49
2800.21
2802.04
2803.98
2806.05
2808.26
2810.63
2813.19
2815.96
2818.91
2822.04
2825.32
2828.77
2832.37
2836.13
2840.05
2844.15
2848.43
2852.89
2857.54
2862.36
2867.35
2872.52
2877.86
2883.34
2888.97
2894.75
2900.66
2906.72
2912.89
2919.16
2925.53
2931.99
2938.53
2945.13
2951.77
2958.42
2965.06
2971.65
2978.16
2984.57
2990.83
2996.91
3002.75
3008.29
3013.48
3018.22
3022.44
3026.04
3028.84
3030.84
3031.89
3032
3030.56
3027.71
3023.04
3016.36
3007.45
2995.82
2981.34
2963.36
2941.67
2915.67
2885.08
2849.13
2807.43
2759.49
2705.8
2644.79
2576.71
2500.25
2417.1
2327.23
2232.49
2128.36
2038.94
1875.06
2927.51
2828.48
2845.01
2854.88
2856.77
2851.88
2842.33
2833.51
2826.51
2821.17
2817.14
2813.93
2811.22
2808.88
2806.73
2804.66
2802.62
2800.99
2800.1
2799.73
2799.93
2800.42
2801.35
2801.92
2801.96
2801.49
2800.09
2797.85
2795.45
2793.35
2791.79
2790.79
2790.31
2790.25
2790.59
2791.29
2791.98
2792.81
2793.8
2794.98
2796.35
2797.85
2799.45
2801.13
2802.91
2804.8
2806.81
2808.94
2811.19
2813.57
2816.11
2818.84
2821.78
2824.92
2828.24
2831.73
2835.37
2839.19
2843.16
2847.31
2851.64
2856.15
2860.85
2865.74
2870.82
2876.09
2881.54
2887.18
2892.97
2898.93
2905.05
2911.33
2917.77
2924.36
2931.07
2937.9
2944.84
2951.9
2959.06
2966.3
2973.59
2980.92
2988.26
2995.58
3002.84
3010.03
3017.12
3024.05
3030.78
3037.25
3043.4
3049.16
3054.42
3059.12
3063.17
3066.36
3068.68
3069.96
3070.18
3068.71
3065.61
3060.47
3053.01
3043.06
3030.03
3013.75
2993.56
2969.07
2939.58
2904.85
2864.27
2817.29
2762.46
2700.43
2630.35
2552.89
2466.1
2370.39
2267.87
2161.77
1983.02
2913.47
2813.2
2825.72
2840.15
2847.81
2847.97
2842.25
2834.5
2827.7
2822.09
2817.61
2813.93
2810.79
2807.92
2805.1
2802.36
2799.89
2798.14
2797.29
2797.18
2797.67
2798.53
2799.91
2801.26
2801.87
2801.87
2801.28
2799.79
2797.7
2795.66
2794.1
2793.14
2792.69
2792.7
2793.2
2794.06
2794.93
2795.92
2797.07
2798.41
2799.94
2801.63
2803.41
2805.28
2807.23
2809.3
2811.49
2813.8
2816.22
2818.77
2821.48
2824.37
2827.48
2830.79
2834.3
2837.98
2841.82
2845.83
2850.02
2854.37
2858.91
2863.64
2868.57
2873.7
2879.02
2884.54
2890.26
2896.17
2902.26
2908.52
2914.96
2921.58
2928.37
2935.33
2942.44
2949.69
2957.09
2964.62
2972.28
2980.07
2987.95
2995.9
3003.92
3011.96
3020.01
3028.05
3036.05
3043.97
3051.79
3059.44
3066.88
3074.04
3080.84
3087.22
3093.08
3098.34
3102.9
3106.52
3109.18
3110.67
3110.96
3109.38
3105.94
3100.24
3091.9
3080.72
3065.97
3047.29
3024.06
2995.85
2961.75
2921.14
2873.25
2818.41
2755.32
2684.29
2603.32
2515.46
2416.18
2315.65
2147.2
2907.37
2802.14
2808.69
2821.94
2834.6
2840.2
2839.5
2834.67
2828.74
2823.67
2819
2814.94
2811.34
2808.05
2804.84
2801.66
2798.7
2796.21
2794.71
2794.42
2794.9
2796.11
2797.86
2799.94
2801.35
2801.82
2801.69
2801
2799.51
2797.72
2796.24
2795.33
2794.94
2795.01
2795.68
2796.7
2797.76
2798.93
2800.24
2801.74
2803.43
2805.3
2807.26
2809.31
2811.44
2813.68
2816.04
2818.52
2821.12
2823.84
2826.71
2829.77
2833.03
2836.51
2840.19
2844.06
2848.09
2852.29
2856.66
2861.22
2865.96
2870.89
2876.04
2881.38
2886.94
2892.7
2898.66
2904.83
2911.19
2917.74
2924.47
2931.4
2938.52
2945.82
2953.3
2960.95
2968.76
2976.72
2984.85
2993.13
3001.54
3010.07
3018.7
3027.4
3036.17
3044.97
3053.78
3062.6
3071.38
3080.08
3088.66
3097.06
3105.24
3113.11
3120.61
3127.67
3134.18
3140.04
3145.15
3149.23
3152.24
3153.95
3154.29
3152.56
3148.65
3142.15
3132.55
3119.54
3102.46
3080.69
3053.39
3020.1
2980.07
2932.86
2876.96
2811.82
2735.79
2650.45
2550.5
2446.54
2285.17
2906.35
2795.78
2797.87
2804.49
2817.34
2828.06
2833.19
2832.6
2828.69
2824.61
2820.66
2816.59
2812.5
2808.65
2805.14
2801.89
2798.75
2795.84
2793.6
2792.46
2792.49
2793.41
2795.29
2797.84
2800.03
2801.29
2801.64
2801.46
2800.72
2799.45
2798.17
2797.37
2797.06
2797.23
2798.06
2799.22
2800.47
2801.84
2803.32
2804.97
2806.83
2808.86
2811.01
2813.24
2815.54
2817.95
2820.48
2823.12
2825.89
2828.77
2831.81
2835.02
2838.44
2842.08
2845.93
2849.96
2854.17
2858.55
2863.11
2867.85
2872.78
2877.91
2883.25
2888.81
2894.57
2900.55
2906.75
2913.15
2919.76
2926.57
2933.58
2940.79
2948.21
2955.83
2963.64
2971.64
2979.82
2988.18
2996.73
3005.45
3014.34
3023.38
3032.55
3041.85
3051.25
3060.73
3070.28
3079.89
3089.52
3099.16
3108.76
3118.28
3127.68
3136.89
3145.86
3154.53
3162.8
3170.62
3177.84
3184.37
3190.07
3194.62
3197.97
3199.85
3200.21
3198.16
3193.66
3186.14
3175.09
3159.9
3139.94
3114.53
3082.61
3043.41
2995.64
2938.68
2871.62
2793.42
2703.06
2600.59
2453.21
2908.68
2793.98
2792.13
2791.67
2799.07
2811.68
2822.63
2827.31
2826.99
2824.56
2821.28
2817.95
2814.26
2810.21
2806.26
2802.63
2799.26
2796.22
2793.63
2791.88
2791.24
2791.46
2792.82
2795.4
2798.21
2800.23
2801.2
2801.45
2801.3
2800.67
2799.77
2799.15
2798.98
2799.31
2800.31
2801.62
2803.08
2804.64
2806.29
2808.1
2810.12
2812.32
2814.64
2817.04
2819.52
2822.09
2824.78
2827.59
2830.51
2833.56
2836.75
2840.11
2843.68
2847.47
2851.48
2855.68
2860.05
2864.6
2869.33
2874.25
2879.36
2884.67
2890.19
2895.94
2901.91
2908.09
2914.5
2921.12
2927.96
2935.01
2942.27
2949.74
2957.43
2965.34
2973.46
2981.78
2990.3
2999.02
3007.94
3017.06
3026.38
3035.88
3045.54
3055.36
3065.33
3075.42
3085.63
3095.93
3106.33
3116.79
3127.29
3137.79
3148.26
3158.64
3168.89
3178.97
3188.8
3198.33
3207.44
3216.07
3224.07
3231.3
3237.63
3242.67
3246.39
3248.45
3248.79
3246.32
3240.99
3231.9
3218.7
3200.32
3175.88
3144.62
3105.32
3057.32
2998.64
2926.9
2842.83
2741.52
2605.53
2912.15
2795.06
2788.44
2783.09
2784.54
2793.91
2807.93
2818.37
2822.8
2822.77
2820.73
2818.1
2815.08
2811.93
2808.17
2804.26
2800.46
2796.98
2794.01
2791.94
2790.92
2790.74
2791.28
2793.33
2796.18
2798.72
2800.36
2801.18
2801.45
2801.36
2800.96
2800.65
2800.7
2801.28
2802.44
2803.92
2805.57
2807.32
2809.16
2811.14
2813.31
2815.67
2818.17
2820.74
2823.38
2826.12
2828.96
2831.92
2835
2838.2
2841.54
2845.05
2848.77
2852.71
2856.86
2861.21
2865.75
2870.46
2875.35
2880.43
2885.71
2891.19
2896.89
2902.81
2908.96
2915.33
2921.93
2928.76
2935.81
2943.09
2950.57
2958.28
2966.22
2974.38
2982.78
2991.39
3000.21
3009.25
3018.51
3027.99
3037.69
3047.59
3057.69
3067.97
3078.44
3089.06
3099.84
3110.76
3121.83
3133.01
3144.29
3155.64
3167.04
3178.44
3189.81
3201.11
3212.3
3223.32
3234.09
3244.55
3254.58
3264.1
3272.95
3280.94
3287.96
3293.51
3297.58
3299.71
3299.89
3296.51
3289.96
3278.63
3262.35
3239.76
3209.6
3170.81
3120.66
3057.62
2982
2887.99
2762.5
2915.29
2796.39
2786.45
2777.39
2774.5
2778.5
2791.18
2805.78
2815.49
2818.96
2818.76
2817.27
2814.94
2812.5
2809.87
2806.39
2802.54
2798.68
2795.16
2792.48
2790.99
2790.6
2790.87
2792.26
2794.65
2797.24
2799.29
2800.59
2801.28
2801.62
2801.73
2801.82
2802.19
2803.05
2804.42
2806.1
2807.96
2809.9
2811.92
2814.07
2816.41
2818.93
2821.59
2824.32
2827.13
2830.02
2833.01
2836.12
2839.34
2842.68
2846.17
2849.83
2853.69
2857.77
2862.06
2866.56
2871.24
2876.1
2881.15
2886.38
2891.81
2897.45
2903.31
2909.39
2915.71
2922.26
2929.04
2936.06
2943.3
2950.77
2958.47
2966.39
2974.55
2982.95
2991.59
3000.46
3009.56
3018.88
3028.44
3038.24
3048.27
3058.53
3069.01
3079.7
3090.6
3101.7
3112.98
3124.44
3136.08
3147.89
3159.85
3171.94
3184.13
3196.41
3208.75
3221.11
3233.46
3245.75
3257.94
3269.98
3281.77
3293.25
3304.29
3314.77
3324.53
3333.37
3341.13
3347.21
3351.66
3353.9
3353.93
3349.4
3341.31
3327.3
3307.08
3278.9
3239.49
3186.8
3118.25
3030.17
2912.14
2917.65
2797.01
2785.04
2773.46
2767.61
2767.6
2775.48
2790.86
2805.17
2812.97
2815.24
2814.98
2813.79
2812.16
2810.31
2808.04
2804.92
2801.18
2797.28
2793.89
2791.67
2790.84
2790.87
2791.8
2793.84
2796.27
2798.42
2799.99
2801.05
2801.74
2802.23
2802.71
2803.45
2804.63
2806.25
2808.16
2810.24
2812.38
2814.59
2816.92
2819.42
2822.11
2824.92
2827.81
2830.77
2833.81
2836.95
2840.19
2843.55
2847.03
2850.66
2854.45
2858.45
2862.67
2867.1
2871.74
2876.56
2881.56
2886.74
2892.11
2897.69
2903.47
2909.48
2915.72
2922.2
2928.91
2935.86
2943.04
2950.46
2958.11
2966
2974.12
2982.48
2991.09
2999.95
3009.05
3018.39
3027.97
3037.8
3047.87
3058.2
3068.78
3079.59
3090.64
3101.93
3113.43
3125.14
3137.07
3149.21
3161.56
3174.1
3186.82
3199.7
3212.73
3225.88
3239.14
3252.48
3265.86
3279.25
3292.62
3305.9
3319.04
3331.95
3344.55
3356.68
3368.26
3379.07
3388.87
3397.46
3404.1
3408.92
3411.01
3410.14
3403.59
3392.2
3373.38
3344.77
3304.04
3245.3
3167.23
3057.59
2919.21
2797.04
2784.14
2770.79
2762.64
2759.94
2763.52
2776.3
2792.92
2804.85
2810.07
2811.44
2811.41
2810.9
2809.95
2808.62
2806.59
2803.73
2800.08
2796.26
2793.17
2791.55
2791.23
2791.7
2793.39
2795.62
2797.79
2799.53
2800.83
2801.8
2802.62
2803.46
2804.55
2806.05
2807.96
2810.12
2812.41
2814.76
2817.17
2819.68
2822.35
2825.19
2828.16
2831.19
2834.3
2837.48
2840.75
2844.13
2847.61
2851.23
2854.98
2858.91
2863.04
2867.39
2871.96
2876.72
2881.67
2886.81
2892.12
2897.63
2903.34
2909.26
2915.4
2921.79
2928.41
2935.27
2942.36
2949.7
2957.28
2965.1
2973.16
2981.45
2990
2998.8
3007.85
3017.16
3026.72
3036.53
3046.59
3056.92
3067.51
3078.36
3089.47
3100.83
3112.44
3124.3
3136.39
3148.72
3161.29
3174.1
3187.13
3200.39
3213.86
3227.53
3241.37
3255.38
3269.55
3283.85
3298.25
3312.73
3327.26
3341.79
3356.26
3370.62
3384.76
3398.6
3411.98
3424.78
3436.74
3447.6
3457.03
3464.26
3469.35
3471.2
3469.26
3461.24
3445.49
3418.27
3370.62
3305.28
3202.4
2919.57
2796.32
2783.17
2768.71
2759.09
2754.72
2755.43
2763.85
2780.11
2795.16
2803.51
2806.85
2808.07
2808.62
2808.82
2808.42
2807.3
2805.54
2802.77
2799.16
2795.5
2792.93
2792
2792.06
2793.29
2795.32
2797.44
2799.28
2800.77
2801.98
2803.05
2804.18
2805.59
2807.41
2809.6
2812.01
2814.52
2817.08
2819.67
2822.36
2825.21
2828.21
2831.32
2834.49
2837.73
2841.04
2844.45
2847.95
2851.56
2855.29
2859.17
2863.23
2867.49
2871.96
2876.65
2881.54
2886.61
2891.87
2897.3
2902.93
2908.77
2914.82
2921.09
2927.61
2934.36
2941.36
2948.6
2956.08
2963.81
2971.78
2979.99
2988.45
2997.16
3006.13
3015.36
3024.86
3034.61
3044.62
3054.9
3065.44
3076.27
3087.37
3098.73
3110.37
3122.27
3134.43
3146.86
3159.54
3172.48
3185.68
3199.15
3212.87
3226.84
3241.04
3255.47
3270.12
3284.99
3300.05
3315.3
3330.71
3346.27
3361.95
3377.71
3393.52
3409.3
3425.01
3440.53
3455.8
3470.59
3484.84
3498.18
3510.41
3520.87
3528.87
3534.05
3535.34
3530.82
3516.73
3483.77
3437.48
3346.87
2919.19
2794.73
2781.54
2766.75
2756.47
2750.85
2749.69
2754.28
2768.23
2784.85
2795.98
2801.38
2803.94
2805.6
2806.96
2807.59
2807.43
2806.4
2804.71
2801.91
2798.24
2794.96
2793.23
2792.85
2793.47
2795.27
2797.37
2799.27
2800.89
2802.28
2803.56
2804.95
2806.65
2808.76
2811.21
2813.85
2816.57
2819.32
2822.1
2824.97
2827.98
2831.14
2834.38
2837.69
2841.05
2844.49
2848.02
2851.63
2855.36
2859.21
2863.21
2867.39
2871.77
2876.37
2881.18
2886.18
2891.37
2896.74
2902.29
2908.04
2913.99
2920.16
2926.56
2933.19
2940.08
2947.2
2954.57
2962.18
2970.04
2978.15
2986.51
2995.12
3003.98
3013.11
3022.5
3032.17
3042.1
3052.3
3062.77
3073.51
3084.55
3095.87
3107.46
3119.34
3131.5
3143.94
3156.66
3169.65
3182.91
3196.47
3210.3
3224.42
3238.82
3253.49
3268.42
3283.61
3299.07
3314.78
3330.73
3346.92
3363.33
3379.96
3396.78
3413.77
3430.89
3448.11
3465.37
3482.6
3499.72
3516.62
3533.06
3548.93
3563.77
3577.37
3588.75
3597.51
3602.96
3602.99
3587.36
3561.95
3496.33
2918.24
2792.4
2779.15
2764.62
2754.26
2747.71
2745.26
2747.28
2757.97
2774.67
2787.94
2795.35
2799.33
2802.09
2804.54
2806.27
2807
2806.72
2805.77
2803.93
2800.83
2797.29
2794.85
2794.01
2794.12
2795.47
2797.51
2799.48
2801.21
2802.75
2804.21
2805.82
2807.78
2810.15
2812.83
2815.68
2818.59
2821.52
2824.47
2827.52
2830.7
2834
2837.37
2840.8
2844.28
2847.83
2851.47
2855.2
2859.03
2862.99
2867.1
2871.4
2875.9
2880.62
2885.54
2890.66
2895.96
2901.43
2907.09
2912.95
2919.01
2925.29
2931.8
2938.56
2945.56
2952.8
2960.29
2968.03
2976.02
2984.26
2992.75
3001.49
3010.49
3019.77
3029.32
3039.14
3049.23
3059.6
3070.24
3081.17
3092.4
3103.92
3115.73
3127.83
3140.22
3152.9
3165.88
3179.14
3192.7
3206.56
3220.72
3235.19
3249.96
3265.03
3280.4
3296.06
3312.02
3328.28
3344.83
3361.67
3378.8
3396.21
3413.9
3431.86
3450.07
3468.5
3487.15
3505.95
3524.88
3543.86
3562.8
3581.58
3599.98
3617.89
3634.64
3650.09
3662.7
3672
3674.8
3664.79
3635.78
2916.51
2789.23
2775.96
2762.15
2752.12
2744.9
2741.5
2741.94
2749.36
2765.13
2779.95
2789.17
2794.53
2798.33
2801.76
2804.52
2806.12
2806.55
2806.19
2805.11
2802.83
2799.53
2796.7
2795.39
2795.17
2795.97
2797.91
2799.93
2801.73
2803.37
2804.98
2806.79
2808.98
2811.59
2814.48
2817.51
2820.58
2823.66
2826.78
2830
2833.33
2836.77
2840.27
2843.81
2847.4
2851.07
2854.81
2858.64
2862.57
2866.63
2870.86
2875.27
2879.88
2884.71
2889.75
2894.97
2900.37
2905.94
2911.7
2917.66
2923.83
2930.21
2936.83
2943.7
2950.81
2958.17
2965.78
2973.63
2981.74
2990.1
2998.72
3007.59
3016.73
3026.14
3035.83
3045.8
3056.05
3066.58
3077.38
3088.49
3099.9
3111.6
3123.61
3135.91
3148.52
3161.43
3174.65
3188.16
3201.99
3216.13
3230.59
3245.38
3260.49
3275.92
3291.66
3307.74
3324.14
3340.87
3357.93
3375.33
3393.06
3411.13
3429.53
3448.28
3467.36
3486.77
3506.49
3526.52
3546.84
3567.4
3588.19
3609.08
3630.04
3650.86
3671.33
3691.33
3710.06
3726.96
3740.4
3745.05
3746.81
2913.51
2785.38
2771.96
2759.17
2749.7
2742.17
2737.98
2737.4
2742.24
2756.57
2772.44
2783.23
2789.83
2794.57
2798.8
2802.42
2804.88
2806.05
2806.16
2805.56
2804.07
2801.36
2798.53
2796.9
2796.46
2796.88
2798.57
2800.6
2802.44
2804.16
2805.91
2807.9
2810.3
2813.11
2816.18
2819.35
2822.55
2825.78
2829.05
2832.42
2835.9
2839.46
2843.07
2846.71
2850.41
2854.17
2858.02
2861.94
2865.97
2870.13
2874.46
2878.98
2883.71
2888.65
2893.78
2899.11
2904.6
2910.27
2916.12
2922.17
2928.44
2934.92
2941.65
2948.62
2955.84
2963.3
2971.02
2978.98
2987.2
2995.68
3004.41
3013.41
3022.67
3032.21
3042.04
3052.15
3062.54
3073.21
3084.18
3095.44
3107.02
3118.9
3131.09
3143.58
3156.39
3169.51
3182.94
3196.69
3210.76
3225.16
3239.89
3254.96
3270.37
3286.12
3302.2
3318.64
3335.42
3352.57
3370.07
3387.93
3406.17
3424.78
3443.77
3463.15
3482.92
3503.08
3523.62
3544.55
3565.87
3587.54
3609.58
3631.88
3654.5
3677.21
3699.96
3722.54
3744.34
3765.42
3783.49
3796.37
3810.72
2909.31
2781.01
2767.64
2755.87
2747.01
2739.42
2734.66
2733.3
2736.36
2749.08
2765.66
2777.83
2785.46
2790.96
2795.83
2800.13
2803.37
2805.22
2805.78
2805.57
2804.58
2802.64
2800.14
2798.44
2797.88
2798.1
2799.5
2801.51
2803.35
2805.1
2806.96
2809.11
2811.7
2814.69
2817.9
2821.19
2824.51
2827.86
2831.27
2834.78
2838.4
2842.08
2845.78
2849.52
2853.31
2857.17
2861.1
2865.11
2869.23
2873.49
2877.91
2882.54
2887.37
2892.42
2897.65
2903.06
2908.65
2914.4
2920.34
2926.49
2932.84
2939.42
2946.25