/*--------------------------------*- C++ -*----------------------------------*\
| =========                 |                                                 |
| \\      /  F ield         | OpenFOAM: The Open Source CFD Toolbox           |
|  \\    /   O peration     | Version:  2412                                  |
|   \\  /    A nd           | Website:  www.openfoam.com                      |
|    \\/     M anipulation  |                                                 |
\*---------------------------------------------------------------------------*/
FoamFile
{
    version     2.0;
    format      ascii;
    arch        "LSB;label=32;scalar=64";
    class       volScalarField;
    location    "0.056";
    object      p;
}
// * * * * * * * * * * * * * * * * * * * * * * * * * * * * * * * * * * * * * //

dimensions      [1 -1 -2 0 0 0 0];

internalField   nonuniform List<scalar> 
9771
(
1499.53
2323.51
2501.33
2546.85
2568.3
2580.94
2591.34
2601.07
2611.06
2621.53
1496.17
2318.28
2500.5
2546.65
2568.12
2580.78
2591.19
2600.9
2610.87
2621.33
1492.86
2312.77
2499.71
2546.45
2567.95
2580.62
2591.04
2600.74
2610.69
2621.14
1489.84
2307.12
2498.96
2546.25
2567.77
2580.46
2590.89
2600.58
2610.51
2620.94
1487.31
2301.03
2498.25
2546.06
2567.6
2580.31
2590.74
2600.42
2610.33
2620.74
1485.01
2294.57
2497.58
2545.87
2567.42
2580.16
2590.59
2600.26
2610.15
2620.54
1482.92
2287.59
2496.95
2545.68
2567.25
2580
2590.45
2600.1
2609.97
2620.34
2631.03
2641.59
2651.56
2660.72
2669.02
2676.46
2683.06
2688.81
2693.81
2698.31
2702.65
2706.97
2711.22
2715.35
2719.53
2723.97
2728.74
2733.82
2739.28
2745.3
2752.03
2759.51
1480.75
2280.01
2496.39
2545.49
2567.07
2579.85
2590.3
2599.93
2609.78
2620.14
2630.82
2641.37
2651.34
2660.51
2668.81
2676.26
2682.86
2688.6
2693.59
2698.09
2702.41
2706.72
2710.95
2715.07
2719.24
2723.67
2728.43
2733.51
2738.98
2745.03
2751.8
2759.32
2767.5
2776.14
2785.04
2794.01
2802.86
2811.47
1478.89
2271.87
2495.88
2545.3
2566.9
2579.7
2590.15
2599.77
2609.6
2619.94
2630.6
2641.15
2651.12
2660.3
2668.6
2676.06
2682.65
2688.39
2693.37
2697.86
2702.17
2706.47
2710.68
2714.79
2718.95
2723.37
2728.12
2733.2
2738.69
2744.75
2751.56
2759.14
2767.37
2776.06
2784.98
2793.96
2802.81
2811.41
2819.71
1476.85
2263.5
2495.48
2545.12
2566.72
2579.54
2590
2599.61
2609.42
2619.74
2630.39
2640.93
2650.91
2660.08
2668.39
2675.85
2682.44
2688.18
2693.15
2697.63
2701.93
2706.22
2710.42
2714.51
2718.66
2723.07
2727.81
2732.89
2738.39
2744.49
2751.34
2758.97
2767.25
2775.98
2784.92
2793.91
2802.75
2811.35
2819.63
1475.71
2257.01
2495.22
2544.95
2566.55
2579.4
2589.87
2599.46
2609.24
2619.54
2630.18
2640.71
2650.69
2659.87
2668.18
2675.64
2682.23
2687.96
2692.93
2697.4
2701.69
2705.96
2710.15
2714.23
2718.37
2722.77
2727.51
2732.58
2738.1
2744.23
2751.12
2758.81
2767.14
2775.91
2784.87
2793.87
2802.71
2811.3
2819.56
1291.08
2256.35
2505.46
2542.14
2562.86
2576.54
2587.27
2596.68
2606.18
2616.24
2626.74
2637.26
2647.32
2656.64
2665.1
2672.66
2679.31
2685.06
2690.02
2694.46
2698.7
2702.89
2706.99
2711.02
2715.14
2719.57
2724.41
2729.72
2735.62
2742.26
2749.72
2757.91
2766.63
2775.63
2784.7
2793.66
2802.37
2810.76
2818.77
2826.38
2833.59
2840.4
2846.86
2853.01
2858.89
2864.53
2869.93
2875.09
2880.01
2884.74
2889.3
2893.76
2898.13
2902.38
2906.48
2910.44
2914.27
2918.05
2921.81
2925.52
2929.15
2932.6
2935.85
2938.89
2941.79
2944.58
2947.31
2949.97
2952.53
2954.94
2957.17
2959.21
2961.05
2962.72
2964.17
2965.4
2966.4
2967.24
2967.96
1581.75
2436.2
2527
2538.97
2556.59
2571.57
2582.57
2591.58
2600.54
2610.11
2620.33
2630.8
2641
2650.56
2659.26
2667.01
2673.75
2679.53
2684.47
2688.84
2692.97
2697.02
2700.99
2704.93
2709.04
2713.56
2718.68
2724.53
2731.26
2738.96
2747.52
2756.64
2766.02
2775.4
2784.59
2793.42
2801.86
2809.82
2817.28
2824.25
2830.75
2836.82
2842.51
2847.86
2852.88
2857.57
2861.91
2865.94
2869.69
2873.25
2876.65
2879.87
2882.86
2885.56
2888.05
2890.43
2892.77
2895.05
2897.19
2899.1
2900.7
2901.94
2902.88
2903.67
2904.47
2905.33
2906.2
2906.99
2907.65
2908.14
2908.43
2908.54
2908.45
2908.2
2907.84
2907.36
2906.77
2906.13
2905.47
1819.58
2506.44
2540.14
2539.98
2555.37
2569.37
2579.73
2588.03
2596.21
2604.99
2614.56
2624.63
2634.7
2644.31
2653.14
2661.02
2667.86
2673.7
2678.67
2683.03
2687.11
2691.1
2695.03
2699.02
2703.3
2708.2
2713.99
2720.89
2728.95
2737.93
2747.45
2757.17
2766.83
2776.22
2785.16
2793.6
2801.44
2808.65
2815.27
2821.35
2826.94
2832.11
2836.93
2841.4
2845.53
2849.29
2852.69
2855.8
2858.71
2861.49
2864.1
2866.43
2868.42
2870.1
2871.59
2873.05
2874.52
2875.89
2877.05
2877.98
2878.66
2879.11
2879.38
2879.55
2879.69
2879.83
2879.96
2880.04
2880.05
2880.01
2879.9
2879.71
2879.42
2879.06
2878.64
2878.19
2877.72
2877.24
2876.77
1931.84
2483.56
2536.29
2541.26
2556.49
2568.59
2578.03
2585.69
2593.12
2601
2609.7
2619.09
2628.73
2638.16
2646.94
2654.84
2661.74
2667.63
2672.63
2677.02
2681.11
2685.11
2689.14
2693.36
2698.09
2703.77
2710.76
2719.12
2728.45
2738.36
2748.46
2758.46
2768.02
2777.01
2785.33
2792.99
2799.96
2806.31
2812.07
2817.29
2822.06
2826.45
2830.48
2834.17
2837.5
2840.47
2843.11
2845.5
2847.77
2849.93
2851.92
2853.64
2855.05
2856.17
2857.14
2858.05
2858.95
2859.76
2860.44
2860.97
2861.38
2861.68
2861.87
2861.96
2862
2861.99
2861.95
2861.88
2861.79
2861.68
2861.54
2861.39
2861.2
2860.98
2860.74
2860.47
2860.21
2859.93
2859.66
2053.23
2467.82
2526.66
2536.83
2555.7
2567.46
2576.73
2584.12
2591
2598.06
2605.79
2614.27
2623.24
2632.23
2640.77
2648.56
2655.42
2661.33
2666.38
2670.83
2674.99
2679.13
2683.43
2688.17
2693.8
2700.8
2709.35
2719.01
2729.29
2739.84
2750.19
2760.01
2769.11
2777.41
2784.97
2791.77
2797.9
2803.41
2808.36
2812.83
2816.9
2820.61
2824
2827.06
2829.79
2832.18
2834.28
2836.18
2837.97
2839.67
2841.25
2842.64
2843.78
2844.7
2845.45
2846.09
2846.67
2847.2
2847.64
2848.01
2848.32
2848.56
2848.74
2848.85
2848.91
2848.9
2848.86
2848.8
2848.71
2848.62
2848.51
2848.41
2848.29
2848.16
2848.01
2847.86
2847.7
2847.55
2847.39
2158
2455.85
2512.61
2528.48
2552.28
2565.33
2575.42
2582.99
2589.53
2595.92
2602.74
2610.25
2618.36
2626.7
2634.79
2642.3
2649.03
2654.9
2659.98
2664.52
2668.85
2673.26
2678.11
2683.79
2690.84
2699.52
2709.45
2720.15
2731.18
2741.96
2752.12
2761.44
2769.85
2777.37
2784.09
2790.09
2795.43
2800.19
2804.44
2808.26
2811.73
2814.89
2817.76
2820.34
2822.63
2824.64
2826.4
2827.96
2829.39
2830.75
2832.02
2833.18
2834.19
2835.04
2835.74
2836.31
2836.78
2837.19
2837.55
2837.87
2838.14
2838.38
2838.57
2838.71
2838.81
2838.86
2838.88
2838.86
2838.83
2838.78
2838.72
2838.65
2838.58
2838.5
2838.41
2838.31
2838.22
2838.12
2838.02
2246.86
2450.85
2498.31
2524.17
2549.61
2562.77
2573.87
2581.98
2588.48
2594.4
2600.43
2607
2614.17
2621.7
2629.16
2636.23
2642.69
2648.44
2653.53
2658.2
2662.79
2667.7
2673.46
2680.59
2689.43
2699.65
2710.78
2722.33
2733.64
2744.26
2753.93
2762.57
2770.21
2776.95
2782.87
2788.12
2792.77
2796.89
2800.57
2803.87
2806.86
2809.59
2812.07
2814.3
2816.28
2818.04
2819.59
2820.95
2822.18
2823.3
2824.36
2825.34
2826.24
2827.04
2827.72
2828.3
2828.78
2829.19
2829.55
2829.87
2830.15
2830.39
2830.6
2830.77
2830.91
2831.02
2831.11
2831.16
2831.21
2831.23
2831.25
2831.24
2831.24
2831.22
2831.19
2831.14
2831.14
2831.09
2831.07
2319.28
2452.81
2481.5
2522.39
2545.77
2560.12
2572.51
2581.14
2587.62
2593.23
2598.64
2604.36
2610.61
2617.26
2623.97
2630.46
2636.54
2642.09
2647.17
2651.99
2656.99
2662.71
2669.83
2678.77
2689.35
2700.97
2713.13
2725.1
2736.33
2746.5
2755.51
2763.4
2770.25
2776.24
2781.47
2786.06
2790.11
2793.7
2796.9
2799.77
2802.39
2804.78
2806.97
2808.95
2810.73
2812.33
2813.75
2815.01
2816.13
2817.15
2818.08
2818.95
2819.76
2820.51
2821.19
2821.78
2822.3
2822.75
2823.15
2823.5
2823.82
2824.1
2824.35
2824.57
2824.76
2824.93
2825.08
2825.2
2825.32
2825.41
2825.48
2825.55
2825.6
2825.64
2825.67
2825.68
2825.74
2825.76
2825.79
2375
2461.74
2477.98
2521.09
2541.61
2558.14
2571.53
2580.51
2587.03
2592.33
2597.22
2602.22
2607.6
2613.37
2619.28
2625.11
2630.7
2636
2641.04
2646.1
2651.7
2658.6
2667.46
2678.29
2690.46
2703.34
2716.13
2728.14
2738.98
2748.51
2756.74
2763.81
2769.93
2775.21
2779.82
2783.86
2787.45
2790.63
2793.47
2796.03
2798.36
2800.5
2802.47
2804.27
2805.91
2807.39
2808.74
2809.95
2811.04
2812.01
2812.9
2813.72
2814.48
2815.19
2815.85
2816.45
2816.98
2817.47
2817.9
2818.29
2818.64
2818.96
2819.25
2819.52
2819.76
2819.97
2820.17
2820.35
2820.51
2820.65
2820.78
2820.9
2821
2821.1
2821.19
2821.26
2821.34
2821.41
2821.48
2417.9
2471.59
2478.75
2520.54
2539.71
2557.54
2571.03
2580.13
2586.66
2591.73
2596.14
2600.48
2605.06
2609.96
2615.06
2620.19
2625.28
2630.28
2635.31
2640.71
2647.21
2655.69
2666.51
2679.05
2692.68
2706.43
2719.43
2731.13
2741.31
2750.03
2757.45
2763.79
2769.24
2773.95
2778.06
2781.68
2784.9
2787.78
2790.36
2792.69
2794.82
2796.78
2798.58
2800.24
2801.77
2803.17
2804.45
2805.63
2806.69
2807.66
2808.54
2809.35
2810.1
2810.8
2811.45
2812.04
2812.59
2813.09
2813.55
2813.96
2814.34
2814.69
2815.02
2815.31
2815.59
2815.84
2816.07
2816.28
2816.47
2816.65
2816.81
2816.96
2817.1
2817.22
2817.34
2817.45
2817.55
2817.64
2817.73
2449.99
2481.97
2484.79
2524.45
2540.51
2558.13
2571.09
2580.15
2586.58
2591.38
2595.33
2599.04
2602.88
2606.97
2611.27
2615.72
2620.31
2625.05
2630.13
2636.08
2643.85
2654.25
2666.87
2681.01
2695.75
2709.89
2722.65
2733.7
2743.06
2750.96
2757.65
2763.38
2768.3
2772.56
2776.3
2779.61
2782.57
2785.22
2787.62
2789.79
2791.77
2793.59
2795.28
2796.83
2798.28
2799.61
2800.84
2801.97
2803.01
2803.96
2804.84
2805.64
2806.39
2807.08
2807.72
2808.31
2808.86
2809.37
2809.85
2810.29
2810.69
2811.07
2811.42
2811.74
2812.05
2812.32
2812.58
2812.81
2813.03
2813.24
2813.43
2813.61
2813.77
2813.92
2814.07
2814.2
2814.33
2814.45
2814.55
2474.27
2491.31
2490.86
2528.63
2541.96
2559.31
2571.68
2580.71
2586.99
2591.38
2594.89
2597.98
2601.08
2604.36
2607.88
2611.69
2615.82
2620.37
2625.65
2632.45
2641.96
2654.25
2668.56
2684.04
2699.33
2713.3
2725.42
2735.63
2744.16
2751.34
2757.46
2762.7
2767.23
2771.18
2774.65
2777.73
2780.49
2782.98
2785.24
2787.3
2789.17
2790.9
2792.5
2793.98
2795.35
2796.63
2797.81
2798.91
2799.92
2800.86
2801.73
2802.53
2803.26
2803.94
2804.57
2805.15
2805.7
2806.21
2806.68
2807.12
2807.54
2807.92
2808.29
2808.62
2808.94
2809.23
2809.51
2809.76
2810
2810.23
2810.44
2810.63
2810.82
2810.99
2811.16
2811.31
2811.46
2811.6
2811.72
2492.98
2499.75
2497.66
2534.22
2544.72
2561.17
2572.65
2581.59
2587.74
2591.77
2594.8
2597.28
2599.64
2602.12
2604.88
2608.07
2611.82
2616.29
2622.02
2630.17
2641.59
2655.7
2671.58
2687.79
2702.99
2716.32
2727.55
2736.9
2744.71
2751.31
2756.97
2761.85
2766.09
2769.8
2773.08
2776
2778.63
2781.01
2783.18
2785.16
2786.97
2788.64
2790.17
2791.6
2792.92
2794.15
2795.3
2796.36
2797.35
2798.27
2799.12
2799.9
2800.63
2801.31
2801.94
2802.52
2803.07
2803.57
2804.05
2804.49
2804.9
2805.28
2805.64
2805.97
2806.29
2806.58
2806.85
2807.11
2807.36
2807.59
2807.8
2808.01
2808.2
2808.39
2808.56
2808.72
2808.87
2809
2809.15
2507.31
2507.04
2504.63
2539.99
2548.03
2563.17
2573.68
2582.53
2588.63
2592.43
2595.02
2596.95
2598.61
2600.29
2602.3
2604.9
2608.32
2612.9
2619.46
2629.4
2642.76
2658.65
2675.55
2691.84
2706.41
2718.79
2729.08
2737.63
2744.83
2750.98
2756.27
2760.87
2764.9
2768.45
2771.6
2774.43
2776.97
2779.28
2781.4
2783.33
2785.1
2786.73
2788.23
2789.62
2790.9
2792.1
2793.21
2794.24
2795.2
2796.09
2796.92
2797.69
2798.41
2799.08
2799.7
2800.28
2800.82
2801.33
2801.8
2802.24
2802.65
2803.04
2803.4
2803.73
2804.05
2804.34
2804.62
2804.87
2805.12
2805.34
2805.55
2805.76
2805.94
2806.11
2806.28
2806.42
2806.6
2806.72
2806.87
2518.67
2513.56
2511.66
2545.36
2551.5
2565.16
2574.62
2583.31
2589.43
2593.16
2595.47
2596.91
2597.95
2598.9
2600.17
2602.2
2605.38
2610.3
2618.25
2630.14
2645.47
2662.75
2680.04
2695.82
2709.41
2720.74
2730.14
2737.99
2744.67
2750.41
2755.41
2759.8
2763.67
2767.12
2770.2
2772.96
2775.47
2777.74
2779.83
2781.74
2783.49
2785.1
2786.58
2787.95
2789.22
2790.39
2791.47
2792.48
2793.41
2794.28
2795.09
2795.84
2796.54
2797.19
2797.8
2798.37
2798.9
2799.4
2799.86
2800.3
2800.71
2801.09
2801.44
2801.78
2802.09
2802.39
2802.67
2802.92
2803.17
2803.41
2803.63
2803.84
2804.03
2804.2
2804.4
2804.56
2804.72
2804.86
2805.01
2527.45
2519.78
2519.11
2549.51
2555.41
2567.22
2575.5
2583.84
2590
2593.79
2595.95
2597.03
2597.58
2597.92
2598.54
2600.02
2603.08
2608.73
2618.44
2632.42
2649.52
2667.59
2684.63
2699.49
2711.96
2722.28
2730.88
2738.12
2744.34
2749.73
2754.48
2758.68
2762.44
2765.8
2768.84
2771.58
2774.07
2776.34
2778.42
2780.32
2782.07
2783.68
2785.16
2786.52
2787.77
2788.92
2789.99
2790.98
2791.9
2792.75
2793.53
2794.27
2794.95
2795.59
2796.18
2796.74
2797.26
2797.74
2798.2
2798.63
2799.03
2799.4
2799.76
2800.09
2800.4
2800.69
2800.97
2801.23
2801.48
2801.72
2801.94
2802.14
2802.36
2802.54
2802.73
2802.91
2803.08
2803.23
2803.39
2534.74
2525.99
2527.11
2551.37
2559.25
2569.03
2576.37
2584.23
2590.35
2594.23
2596.35
2597.22
2597.41
2597.31
2597.41
2598.44
2601.6
2608.39
2620.1
2636.19
2654.53
2672.71
2688.99
2702.73
2714.12
2723.54
2731.43
2738.14
2743.93
2749.01
2753.53
2757.57
2761.22
2764.53
2767.53
2770.26
2772.75
2775.03
2777.11
2779.03
2780.78
2782.39
2783.87
2785.23
2786.48
2787.62
2788.68
2789.66
2790.56
2791.4
2792.17
2792.9
2793.57
2794.19
2794.78
2795.32
2795.82
2796.3
2796.75
2797.18
2797.58
2797.96
2798.31
2798.65
2798.97
2799.27
2799.55
2799.82
2800.07
2800.31
2800.54
2800.74
2800.95
2801.14
2801.33
2801.5
2801.67
2801.82
2801.96
2540.81
2531.99
2535.34
2552.86
2561.98
2570.11
2577.14
2584.54
2590.54
2594.48
2596.58
2597.32
2597.31
2596.94
2596.74
2597.62
2601.18
2609.47
2623.36
2641.14
2660.05
2677.73
2692.95
2705.56
2715.96
2724.6
2731.89
2738.11
2743.53
2748.33
2752.63
2756.53
2760.08
2763.32
2766.29
2769.01
2771.5
2773.79
2775.88
2777.8
2779.56
2781.17
2782.66
2784.01
2785.26
2786.41
2787.47
2788.44
2789.34
2790.17
2790.94
2791.66
2792.32
2792.94
2793.51
2794.05
2794.56
2795.04
2795.49
2795.91
2796.31
2796.68
2797.03
2797.37
2797.7
2798
2798.29
2798.58
2798.84
2799.1
2799.34
2799.56
2799.78
2799.99
2800.18
2800.36
2800.53
2800.69
2800.85
2545.99
2537.79
2542.81
2554.29
2564.11
2571
2577.95
2584.85
2590.64
2594.59
2596.66
2597.35
2597.24
2596.69
2596.41
2597.51
2601.98
2612.18
2628.06
2646.9
2665.68
2682.42
2696.47
2708.01
2717.56
2725.53
2732.29
2738.1
2743.2
2747.74
2751.85
2755.6
2759.05
2762.23
2765.15
2767.85
2770.33
2772.61
2774.7
2776.62
2778.38
2779.99
2781.47
2782.83
2784.08
2785.23
2786.29
2787.27
2788.17
2789
2789.78
2790.5
2791.16
2791.78
2792.36
2792.91
2793.43
2793.91
2794.37
2794.79
2795.19
2795.57
2795.93
2796.27
2796.61
2796.92
2797.22
2797.51
2797.78
2798.03
2798.27
2798.5
2798.72
2798.92
2799.12
2799.31
2799.49
2799.67
2799.83
2550.33
2542.77
2549.12
2555.84
2566.16
2571.9
2578.79
2585.18
2590.73
2594.65
2596.69
2597.32
2597.14
2596.55
2596.37
2598.02
2604.16
2616.58
2634
2653.13
2671.16
2686.69
2699.55
2710.14
2718.94
2726.34
2732.66
2738.14
2742.96
2747.28
2751.22
2754.84
2758.18
2761.28
2764.14
2766.79
2769.24
2771.49
2773.57
2775.47
2777.22
2778.83
2780.31
2781.67
2782.92
2784.07
2785.14
2786.12
2787.03
2787.87
2788.66
2789.38
2790.06
2790.7
2791.29
2791.86
2792.39
2792.88
2793.35
2793.79
2794.2
2794.6
2794.98
2795.34
2795.67
2795.99
2796.29
2796.58
2796.84
2797.1
2797.35
2797.58
2797.81
2798.03
2798.25
2798.46
2798.66
2798.85
2799.03
2554.12
2547.68
2554.25
2557.54
2568.18
2572.88
2579.64
2585.56
2590.85
2594.7
2596.7
2597.25
2597
2596.51
2596.62
2599.32
2607.77
2622.44
2640.84
2659.55
2676.36
2690.54
2702.26
2711.98
2720.14
2727.06
2733.02
2738.22
2742.83
2746.98
2750.76
2754.25
2757.48
2760.48
2763.26
2765.84
2768.24
2770.45
2772.49
2774.37
2776.1
2777.7
2779.17
2780.53
2781.78
2782.94
2784.01
2785
2785.93
2786.79
2787.58
2788.33
2789.03
2789.68
2790.3
2790.88
2791.42
2791.94
2792.42
2792.88
2793.32
2793.74
2794.13
2794.5
2794.85
2795.18
2795.49
2795.79
2796.07
2796.35
2796.61
2796.85
2797.08
2797.29
2797.5
2797.68
2797.88
2798.06
2798.23
2557.33
2551.69
2558.34
2559.35
2570.16
2573.96
2580.54
2586
2591.04
2594.77
2596.71
2597.2
2596.91
2596.58
2597.23
2601.65
2612.72
2629.37
2648.15
2665.92
2681.26
2694.04
2704.68
2713.61
2721.2
2727.71
2733.37
2738.35
2742.79
2746.8
2750.46
2753.83
2756.94
2759.83
2762.52
2765.01
2767.33
2769.47
2771.46
2773.31
2775.02
2776.6
2778.06
2779.42
2780.67
2781.84
2782.92
2783.93
2784.87
2785.75
2786.57
2787.34
2788.06
2788.74
2789.38
2789.98
2790.55
2791.08
2791.59
2792.07
2792.53
2792.96
2793.37
2793.75
2794.12
2794.46
2794.79
2795.11
2795.41
2795.7
2795.97
2796.23
2796.48
2796.69
2796.94
2797.15
2797.35
2797.54
2797.73
2560.1
2555.17
2561.62
2561.22
2572.03
2575.13
2581.45
2586.51
2591.3
2594.87
2596.74
2597.18
2596.91
2596.85
2598.34
2605.15
2618.87
2636.96
2655.56
2672.07
2685.86
2697.28
2706.89
2715.09
2722.16
2728.3
2733.71
2738.52
2742.83
2746.72
2750.28
2753.53
2756.53
2759.31
2761.89
2764.28
2766.51
2768.58
2770.51
2772.31
2773.99
2775.54
2777
2778.35
2779.61
2780.78
2781.88
2782.91
2783.87
2784.77
2785.62
2786.41
2787.16
2787.87
2788.53
2789.16
2789.75
2790.31
2790.84
2791.34
2791.81
2792.26
2792.69
2793.09
2793.47
2793.84
2794.18
2794.52
2794.83
2795.13
2795.42
2795.68
2795.95
2796.19
2796.43
2796.66
2796.87
2797.07
2797.26
2562.49
2558.17
2564.24
2563.14
2573.78
2576.25
2582.25
2587.02
2591.59
2595.02
2596.81
2597.21
2597.03
2597.38
2600.21
2609.86
2625.97
2644.84
2662.76
2677.88
2690.18
2700.34
2708.98
2716.47
2723.05
2728.86
2734.05
2738.7
2742.91
2746.71
2750.17
2753.32
2756.22
2758.89
2761.36
2763.65
2765.79
2767.78
2769.65
2771.39
2773.02
2774.55
2775.99
2777.34
2778.6
2779.78
2780.9
2781.94
2782.92
2783.85
2784.72
2785.55
2786.32
2787.06
2787.75
2788.4
2789.02
2789.61
2790.16
2790.68
2791.18
2791.65
2792.09
2792.52
2792.91
2793.29
2793.65
2794
2794.32
2794.63
2794.93
2795.22
2795.49
2795.75
2796
2796.23
2796.46
2796.67
2796.87
2564.59
2560.78
2566.41
2565.07
2575.34
2577.29
2582.91
2587.45
2591.87
2595.23
2596.93
2597.3
2597.34
2598.26
2603.08
2615.72
2633.69
2652.7
2669.57
2683.28
2694.23
2703.26
2711.01
2717.82
2723.92
2729.41
2734.38
2738.9
2742.99
2746.71
2750.09
2753.16
2755.96
2758.54
2760.91
2763.11
2765.16
2767.08
2768.87
2770.56
2772.15
2773.65
2775.06
2776.4
2777.66
2778.85
2779.97
2781.04
2782.04
2782.99
2783.89
2784.74
2785.55
2786.31
2787.03
2787.71
2788.36
2788.97
2789.55
2790.09
2790.61
2791.11
2791.58
2792.02
2792.45
2792.83
2793.22
2793.58
2793.93
2794.25
2794.57
2794.86
2795.14
2795.41
2795.65
2795.89
2796.11
2796.32
2796.52
2566.48
2563.08
2568.22
2566.89
2576.67
2578.26
2583.44
2587.76
2592.04
2595.42
2597.07
2597.5
2597.88
2599.67
2607.1
2622.56
2641.75
2660.34
2675.92
2688.25
2698.02
2706.06
2712.99
2719.17
2724.79
2729.95
2734.71
2739.08
2743.07
2746.71
2750.01
2753.01
2755.74
2758.24
2760.53
2762.65
2764.62
2766.47
2768.2
2769.84
2771.39
2772.85
2774.25
2775.57
2776.82
2778.02
2779.15
2780.22
2781.24
2782.21
2783.14
2784.01
2784.84
2785.63
2786.37
2787.08
2787.75
2788.39
2788.99
2789.57
2790.11
2790.63
2791.12
2791.58
2792.02
2792.44
2792.83
2793.21
2793.56
2793.89
2794.21
2794.5
2794.78
2795.05
2795.3
2795.53
2795.76
2795.97
2796.18
2568.22
2565.12
2569.76
2568.56
2577.71
2579.16
2583.89
2587.96
2592.07
2595.52
2597.24
2597.81
2598.65
2601.82
2612.3
2630.16
2649.89
2667.6
2681.79
2692.82
2701.54
2708.73
2714.94
2720.52
2725.68
2730.51
2735.03
2739.24
2743.13
2746.69
2749.93
2752.87
2755.54
2757.97
2760.21
2762.27
2764.18
2765.97
2767.65
2769.24
2770.75
2772.19
2773.56
2774.87
2776.12
2777.31
2778.45
2779.54
2780.57
2781.56
2782.49
2783.39
2784.24
2785.04
2785.81
2786.54
2787.23
2787.89
2788.51
2789.1
2789.66
2790.2
2790.7
2791.17
2791.62
2792.05
2792.45
2792.83
2793.19
2793.53
2793.86
2794.16
2794.45
2794.73
2794.99
2795.24
2795.48
2795.7
2795.92
2569.83
2566.94
2571.1
2570.06
2578.49
2579.98
2584.3
2588.05
2591.95
2595.49
2597.41
2598.22
2599.68
2604.88
2618.55
2638.24
2657.9
2674.44
2687.2
2697.02
2704.8
2711.24
2716.83
2721.87
2726.59
2731.08
2735.37
2739.41
2743.18
2746.66
2749.83
2752.72
2755.34
2757.74
2759.93
2761.95
2763.83
2765.58
2767.23
2768.79
2770.28
2771.7
2773.05
2774.35
2775.59
2776.78
2777.92
2779.01
2780.05
2781.05
2781.99
2782.9
2783.76
2784.58
2785.36
2786.1
2786.81
2787.48
2788.11
2788.72
2789.29
2789.83
2790.34
2790.83
2791.29
2791.72
2792.14
2792.53
2792.9
2793.26
2793.59
2793.92
2794.22
2794.51
2794.79
2795.05
2795.3
2795.54
2795.76
2571.35
2568.58
2572.29
2571.41
2579.03
2580.68
2584.65
2588.1
2591.74
2595.36
2597.56
2598.68
2601.08
2608.95
2625.66
2646.55
2665.65
2680.82
2692.18
2700.88
2707.81
2713.6
2718.64
2723.21
2727.53
2731.7
2735.74
2739.6
2743.24
2746.63
2749.73
2752.58
2755.17
2757.54
2759.71
2761.71
2763.57
2765.31
2766.94
2768.49
2769.96
2771.37
2772.71
2774.01
2775.24
2776.43
2777.57
2778.67
2779.71
2780.71
2781.66
2782.57
2783.44
2784.27
2785.05
2785.8
2786.51
2787.18
2787.82
2788.42
2789
2789.54
2790.06
2790.55
2791.02
2791.46
2791.89
2792.29
2792.66
2793.03
2793.37
2793.69
2794
2794.3
2794.58
2794.84
2795.1
2795.34
2795.57
2572.77
2570.04
2573.38
2572.65
2579.37
2581.22
2584.91
2588.08
2591.49
2595.14
2597.68
2599.16
2603.02
2614.02
2633.41
2654.87
2673.03
2686.75
2696.77
2704.42
2710.59
2715.8
2720.37
2724.55
2728.52
2732.39
2736.18
2739.85
2743.35
2746.62
2749.66
2752.46
2755.02
2757.38
2759.54
2761.54
2763.4
2765.15
2766.79
2768.34
2769.81
2771.22
2772.57
2773.86
2775.1
2776.28
2777.42
2778.51
2779.55
2780.54
2781.49
2782.39
2783.25
2784.08
2784.86
2785.6
2786.31
2786.98
2787.61
2788.22
2788.79
2789.33
2789.85
2790.34
2790.81
2791.25
2791.67
2792.07
2792.45
2792.81
2793.16
2793.48
2793.8
2794.09
2794.37
2794.64
2794.89
2795.13
2795.36
2574.08
2571.38
2574.38
2573.8
2579.61
2581.63
2585.07
2588.02
2591.23
2594.85
2597.79
2599.67
2605.65
2619.99
2641.55
2662.99
2679.97
2692.23
2701
2707.69
2713.16
2717.85
2722.03
2725.88
2729.57
2733.17
2736.73
2740.19
2743.53
2746.69
2749.65
2752.39
2754.93
2757.27
2759.44
2761.45
2763.32
2765.08
2766.73
2768.29
2769.77
2771.19
2772.54
2773.84
2775.07
2776.26
2777.39
2778.48
2779.51
2780.5
2781.44
2782.34
2783.19
2784
2784.77
2785.51
2786.2
2786.86
2787.49
2788.08
2788.65
2789.19
2789.7
2790.18
2790.64
2791.08
2791.5
2791.89
2792.27
2792.63
2792.97
2793.29
2793.59
2793.88
2794.16
2794.42
2794.67
2794.9
2795.13
2575.24
2572.6
2575.31
2574.85
2579.75
2581.93
2585.16
2587.9
2590.96
2594.5
2597.91
2600.35
2609.02
2626.69
2649.81
2670.77
2686.43
2697.3
2704.91
2710.72
2715.55
2719.8
2723.65
2727.25
2730.7
2734.08
2737.4
2740.67
2743.83
2746.85
2749.72
2752.41
2754.92
2757.25
2759.42
2761.43
2763.31
2765.08
2766.74
2768.32
2769.82
2771.24
2772.6
2773.89
2775.13
2776.31
2777.44
2778.52
2779.54
2780.52
2781.45
2782.33
2783.17
2783.97
2784.73
2785.45
2786.14
2786.79
2787.4
2787.99
2788.55
2789.08
2789.58
2790.06
2790.51
2790.94
2791.35
2791.73
2792.09
2792.44
2792.77
2793.08
2793.37
2793.65
2793.92
2794.17
2794.41
2794.64
2794.86
2576.28
2573.71
2576.16
2575.81
2579.83
2582.14
2585.16
2587.75
2590.67
2594.16
2598
2601.47
2613.18
2633.88
2657.94
2678.08
2692.39
2701.96
2708.55
2713.57
2717.83
2721.68
2725.27
2728.66
2731.92
2735.11
2738.23
2741.29
2744.27
2747.15
2749.91
2752.53
2755
2757.32
2759.49
2761.52
2763.42
2765.21
2766.89
2768.48
2769.98
2771.41
2772.76
2774.05
2775.28
2776.45
2777.56
2778.62
2779.62
2780.58
2781.5
2782.37
2783.19
2783.98
2784.72
2785.43
2786.1
2786.74
2787.34
2787.91
2788.46
2788.98
2789.47
2789.93
2790.38
2790.79
2791.19
2791.56
2791.92
2792.26
2792.58
2792.88
2793.17
2793.45
2793.7
2793.95
2794.18
2794.42
2794.63
2577.2
2574.7
2576.89
2576.63
2579.88
2582.34
2585.12
2587.55
2590.36
2593.84
2598.06
2603.14
2618.11
2641.36
2665.75
2684.84
2697.83
2706.27
2711.96
2716.3
2720.06
2723.56
2726.92
2730.14
2733.25
2736.27
2739.21
2742.08
2744.87
2747.6
2750.24
2752.77
2755.19
2757.49
2759.65
2761.69
2763.61
2765.42
2767.12
2768.72
2770.24
2771.68
2773.03
2774.32
2775.54
2776.69
2777.78
2778.82
2779.81
2780.75
2781.64
2782.48
2783.28
2784.04
2784.76
2785.44
2786.1
2786.71
2787.3
2787.86
2788.39
2788.89
2789.36
2789.81
2790.24
2790.64
2791.03
2791.4
2791.74
2792.08
2792.39
2792.69
2792.97
2793.25
2793.5
2793.76
2793.99
2794.22
2794.44
2578.02
2575.59
2577.52
2577.32
2579.93
2582.53
2585.04
2587.33
2590.04
2593.58
2598.21
2605.4
2623.71
2648.92
2673.08
2690.99
2702.77
2710.26
2715.22
2719
2722.32
2725.51
2728.64
2731.71
2734.68
2737.55
2740.32
2743
2745.61
2748.17
2750.68
2753.13
2755.48
2757.74
2759.9
2761.94
2763.87
2765.69
2767.41
2769.03
2770.55
2771.99
2773.35
2774.63
2775.84
2776.98
2778.06
2779.08
2780.05
2780.96
2781.83
2782.64
2783.42
2784.15
2784.85
2785.51
2786.14
2786.74
2787.3
2787.84
2788.35
2788.83
2789.29
2789.72
2790.14
2790.53
2790.91
2791.27
2791.61
2791.94
2792.25
2792.54
2792.83
2793.1
2793.35
2793.6
2793.84
2794.06
2794.27
2578.73
2576.38
2578.05
2577.91
2580
2582.68
2584.91
2587.07
2589.73
2593.44
2598.5
2608.33
2629.85
2656.37
2679.85
2696.52
2707.23
2713.97
2718.38
2721.72
2724.68
2727.57
2730.48
2733.38
2736.2
2738.91
2741.51
2744.02
2746.46
2748.86
2751.24
2753.58
2755.86
2758.08
2760.21
2762.25
2764.18
2766.01
2767.75
2769.38
2770.91
2772.36
2773.71
2774.99
2776.19
2777.32
2778.38
2779.38
2780.32
2781.21
2782.05
2782.85
2783.6
2784.31
2784.98
2785.62
2786.23
2786.8
2787.35
2787.86
2788.36
2788.82
2789.27
2789.69
2790.1
2790.49
2790.85
2791.21
2791.54
2791.86
2792.17
2792.46
2792.74
2793
2793.26
2793.5
2793.72
2793.94
2794.15
2579.35
2577.08
2578.53
2578.43
2580.1
2582.78
2584.75
2586.8
2589.44
2593.46
2599.01
2611.92
2636.34
2663.54
2686.02
2701.48
2711.28
2717.46
2721.49
2724.51
2727.18
2729.8
2732.45
2735.14
2737.78
2740.33
2742.76
2745.1
2747.38
2749.63
2751.87
2754.1
2756.31
2758.47
2760.57
2762.6
2764.53
2766.37
2768.11
2769.76
2771.3
2772.74
2774.1
2775.37
2776.56
2777.67
2778.72
2779.7
2780.62
2781.49
2782.3
2783.07
2783.8
2784.49
2785.14
2785.76
2786.35
2786.9
2787.43
2787.93
2788.41
2788.87
2789.3
2789.72
2790.11
2790.49
2790.85
2791.2
2791.53
2791.84
2792.14
2792.42
2792.7
2792.95
2793.2
2793.44
2793.66
2793.87
2794.08
2579.89
2577.69
2578.96
2578.9
2580.22
2582.82
2584.54
2586.52
2589.19
2593.66
2599.86
2616.11
2642.99
2670.31
2691.59
2705.92
2714.99
2720.8
2724.6
2727.41
2729.84
2732.17
2734.55
2736.98
2739.41
2741.77
2744.04
2746.22
2748.35
2750.46
2752.57
2754.7
2756.82
2758.92
2760.98
2762.98
2764.91
2766.75
2768.49
2770.14
2771.68
2773.13
2774.48
2775.74
2776.92
2778.02
2779.05
2780.01
2780.92
2781.76
2782.56
2783.31
2784.02
2784.69
2785.32
2785.92
2786.49
2787.03
2787.54
2788.03
2788.5
2788.95
2789.37
2789.78
2790.16
2790.53
2790.88
2791.22
2791.54
2791.85
2792.14
2792.42
2792.68
2792.94
2793.18
2793.41
2793.63
2793.84
2794.05
2580.39
2578.25
2579.35
2579.33
2580.35
2582.78
2584.3
2586.25
2589.06
2593.89
2601.32
2620.84
2649.6
2676.58
2696.61
2709.93
2718.44
2724.02
2727.72
2730.4
2732.62
2734.67
2736.74
2738.88
2741.06
2743.22
2745.31
2747.35
2749.34
2751.32
2753.32
2755.34
2757.37
2759.41
2761.43
2763.4
2765.31
2767.14
2768.87
2770.52
2772.06
2773.5
2774.84
2776.1
2777.27
2778.35
2779.37
2780.32
2781.2
2782.03
2782.81
2783.54
2784.23
2784.88
2785.5
2786.09
2786.64
2787.17
2787.67
2788.15
2788.6
2789.04
2789.45
2789.85
2790.22
2790.58
2790.93
2791.25
2791.57
2791.87
2792.15
2792.42
2792.68
2792.93
2793.17
2793.4
2793.62
2793.83
2794.02
2580.83
2578.73
2579.72
2579.72
2580.48
2582.68
2584.04
2586.01
2589.04
2594.18
2603.43
2626.04
2656.02
2682.34
2701.14
2713.62
2721.72
2727.2
2730.86
2733.46
2735.48
2737.25
2738.99
2740.82
2742.72
2744.66
2746.59
2748.48
2750.35
2752.21
2754.1
2756.03
2757.98
2759.95
2761.91
2763.84
2765.72
2767.53
2769.25
2770.88
2772.41
2773.84
2775.18
2776.42
2777.58
2778.65
2779.65
2780.59
2781.46
2782.27
2783.04
2783.76
2784.43
2785.07
2785.68
2786.25
2786.79
2787.31
2787.8
2788.26
2788.71
2789.13
2789.54
2789.92
2790.29
2790.65
2790.98
2791.31
2791.61
2791.91
2792.19
2792.46
2792.72
2792.96
2793.2
2793.42
2793.64
2793.85
2794.04
2581.19
2579.14
2580.03
2580.06
2580.59
2582.55
2583.78
2585.8
2589.13
2594.6
2606.16
2631.58
2662.17
2687.58
2705.28
2717.08
2724.92
2730.35
2734
2736.52
2738.36
2739.85
2741.26
2742.76
2744.39
2746.11
2747.86
2749.61
2751.36
2753.13
2754.92
2756.75
2758.63
2760.53
2762.43
2764.31
2766.15
2767.92
2769.62
2771.23
2772.74
2774.16
2775.48
2776.71
2777.85
2778.92
2779.9
2780.83
2781.68
2782.49
2783.24
2783.95
2784.61
2785.24
2785.83
2786.39
2786.92
2787.43
2787.91
2788.36
2788.8
2789.22
2789.61
2789.99
2790.35
2790.7
2791.03
2791.34
2791.65
2791.94
2792.22
2792.49
2792.74
2792.99
2793.22
2793.45
2793.67
2793.88
2794.08
2581.47
2579.47
2580.29
2580.34
2580.66
2582.41
2583.54
2585.63
2589.35
2595.17
2609.47
2637.33
2668
2692.37
2709.12
2720.41
2728.08
2733.48
2737.12
2739.55
2741.2
2742.42
2743.52
2744.71
2746.05
2747.55
2749.12
2750.74
2752.39
2754.06
2755.76
2757.52
2759.32
2761.15
2762.98
2764.81
2766.59
2768.32
2769.98
2771.56
2773.04
2774.44
2775.74
2776.95
2778.08
2779.13
2780.11
2781.02
2781.87
2782.66
2783.4
2784.1
2784.76
2785.37
2785.95
2786.51
2787.03
2787.53
2788
2788.44
2788.87
2789.27
2789.66
2790.04
2790.39
2790.73
2791.06
2791.37
2791.67
2791.96
2792.24
2792.5
2792.75
2792.99
2793.22
2793.44
2793.64
2793.84
2794.03
2581.66
2579.73
2580.5
2580.55
2580.7
2582.29
2583.3
2585.51
2589.66
2596.03
2613.26
2643.13
2673.49
2696.8
2712.76
2723.67
2731.23
2736.6
2740.19
2742.51
2743.96
2744.93
2745.74
2746.64
2747.71
2748.98
2750.38
2751.87
2753.41
2755
2756.63
2758.31
2760.04
2761.8
2763.57
2765.33
2767.05
2768.73
2770.34
2771.88
2773.33
2774.7
2775.98
2777.17
2778.28
2779.32
2780.28
2781.18
2782.02
2782.8
2783.53
2784.22
2784.87
2785.48
2786.05
2786.59
2787.11
2787.6
2788.06
2788.5
2788.92
2789.32
2789.7
2790.07
2790.42
2790.75
2791.07
2791.38
2791.67
2791.95
2792.22
2792.48
2792.73
2792.97
2793.2
2793.42
2793.63
2793.83
2794.03
2581.76
2579.87
2580.63
2580.67
2580.71
2582.18
2583.08
2585.44
2589.96
2597.31
2617.43
2648.85
2678.67
2700.97
2716.28
2726.9
2734.36
2739.67
2743.17
2745.36
2746.62
2747.36
2747.92
2748.54
2749.35
2750.4
2751.63
2752.99
2754.43
2755.95
2757.51
2759.13
2760.79
2762.48
2764.18
2765.87
2767.53
2769.15
2770.71
2772.2
2773.61
2774.94
2776.19
2777.36
2778.45
2779.47
2780.42
2781.31
2782.14
2782.91