/*--------------------------------*- C++ -*----------------------------------*\
| =========                 |                                                 |
| \\      /  F ield         | OpenFOAM: The Open Source CFD Toolbox           |
|  \\    /   O peration     | Version:  2412                                  |
|   \\  /    A nd           | Website:  www.openfoam.com                      |
|    \\/     M anipulation  |                                                 |
\*---------------------------------------------------------------------------*/
FoamFile
{
    version     2.0;
    format      ascii;
    arch        "LSB;label=32;scalar=64";
    class       volScalarField;
    location    "0.04";
    object      T;
}
// * * * * * * * * * * * * * * * * * * * * * * * * * * * * * * * * * * * * * //

dimensions      [0 0 0 1 0 0 0];

internalField   nonuniform List<scalar> 
9763
(
230.326
231.907
230.377
232.093
230.397
232.142
230.38
232.067
230.305
231.943
230.199
231.774
230.091
231.599
229.983
231.417
229.857
231.255
229.728
231.097
229.626
230.95
229.542
230.816
229.465
230.695
229.395
230.583
229.329
230.473
229.265
230.365
229.199
230.256
229.131
230.143
229.058
230.026
228.982
229.905
228.9
229.778
228.813
229.646
228.722
229.508
228.627
229.365
228.529
229.217
228.429
229.065
228.327
228.909
228.225
228.752
228.123
228.591
228.02
228.429
227.915
228.265
227.805
228.101
227.687
227.936
227.555
227.771
227.409
227.602
227.255
227.425
227.093
227.238
226.928
227.041
226.761
226.835
226.595
226.621
226.402
226.182
225.965
243.006
225.699
226.666
226.719
226.558
226.407
226.303
226.192
226.065
225.928
225.779
225.618
225.448
225.271
225.089
224.9
224.705
224.504
224.3
224.091
223.878
223.657
223.426
223.181
222.919
222.633
222.322
221.985
221.63
221.263
220.891
220.519
220.153
219.805
219.484
219.198
218.95
218.742
218.576
218.452
218.365
218.314
218.292
218.297
218.326
218.377
218.445
218.529
218.625
218.734
218.855
218.984
219.148
219.297
219.524
219.743
220.005
220.284
220.581
220.877
221.173
221.464
221.759
222.043
222.318
222.574
222.817
223.057
223.298
223.547
223.799
224.05
224.295
224.528
224.756
224.977
225.199
225.422
225.653
225.895
226.143
226.396
226.644
226.882
227.103
227.31
227.502
227.682
227.854
228.023
228.19
228.354
228.517
228.679
228.84
228.999
229.152
229.3
229.44
229.57
229.692
229.804
229.908
230.009
230.104
230.201
230.296
230.395
230.506
230.629
230.768
230.919
231.075
231.222
231.354
231.453
231.511
231.527
231.465
231.396
231.154
242.927
225.708
226.652
226.709
226.55
226.401
226.298
226.188
226.062
225.925
225.775
225.614
225.444
225.267
225.085
224.895
224.7
224.498
224.293
224.084
223.869
223.647
223.414
223.168
222.903
222.615
222.301
221.961
221.602
221.231
220.854
220.477
220.106
219.754
219.429
219.14
218.889
218.678
218.51
218.383
218.293
218.239
218.215
218.217
218.243
218.292
218.359
218.441
218.536
218.644
218.762
218.891
219.052
219.202
219.427
219.65
219.915
220.198
220.493
220.785
221.072
221.357
221.65
221.941
222.227
222.493
222.742
222.979
223.216
223.454
223.696
223.936
224.171
224.393
224.609
224.82
225.036
225.26
225.497
225.747
226.001
226.26
226.515
226.762
226.997
227.221
227.43
227.625
227.804
227.97
228.127
228.282
228.438
228.595
228.751
228.905
229.054
229.197
229.333
229.459
229.576
229.684
229.785
229.882
229.979
230.081
230.187
230.302
230.439
230.594
230.767
230.946
231.126
231.296
231.445
231.561
231.639
231.684
231.705
231.713
231.707
242.901
225.707
226.641
226.702
226.543
226.394
226.293
226.184
226.058
225.921
225.772
225.611
225.44
225.263
225.08
224.89
224.694
224.493
224.287
224.077
223.861
223.637
223.403
223.155
222.888
222.598
222.28
221.937
221.574
221.199
220.817
220.435
220.06
219.702
219.374
219.081
218.827
218.614
218.442
218.312
218.22
218.163
218.137
218.135
218.158
218.204
218.269
218.349
218.443
218.549
218.665
218.794
218.951
219.102
219.324
219.546
219.813
220.098
220.395
220.687
220.97
221.248
221.531
221.818
222.111
222.391
222.655
222.902
223.14
223.372
223.603
223.83
224.052
224.261
224.464
224.665
224.872
225.093
225.329
225.58
225.835
226.091
226.339
226.575
226.795
226.998
227.187
227.365
227.533
227.695
227.852
228.008
228.164
228.319
228.472
228.622
228.767
228.904
229.033
229.153
229.263
229.364
229.458
229.547
229.636
229.728
229.824
229.931
230.057
230.204
230.372
230.556
230.746
230.934
231.105
231.248
231.356
231.434
231.486
231.521
231.544
242.904
225.705
226.63
226.694
226.535
226.388
226.288
226.18
226.055
225.918
225.769
225.607
225.436
225.259
225.076
224.886
224.689
224.487
224.281
224.07
223.853
223.628
223.393
223.142
222.873
222.581
222.261
221.914
221.548
221.168
220.782
220.395
220.015
219.654
219.322
219.026
218.769
218.552
218.377
218.244
218.149
218.09
218.061
218.056
218.075
218.119
218.181
218.26
218.352
218.456
218.571
218.698
218.853
219.005
219.226
219.445
219.709
219.993
220.29
220.586
220.869
221.143
221.416
221.693
221.982
222.267
222.544
222.804
223.049
223.284
223.514
223.739
223.957
224.161
224.356
224.548
224.745
224.957
225.187
225.432
225.683
225.935
226.176
226.402
226.607
226.793
226.963
227.122
227.274
227.423
227.572
227.722
227.871
228.02
228.168
228.311
228.45
228.581
228.704
228.817
228.922
229.018
229.107
229.192
229.275
229.361
229.451
229.55
229.668
229.806
229.969
230.151
230.348
230.546
230.731
230.891
231.018
231.109
231.17
231.211
231.235
242.88
225.704
226.619
226.686
226.528
226.383
226.284
226.176
226.052
225.915
225.766
225.604
225.433
225.255
225.071
224.881
224.684
224.482
224.275
224.063
223.846
223.62
223.383
223.13
222.859
222.564
222.242
221.892
221.522
221.139
220.748
220.357
219.972
219.607
219.271
218.972
218.712
218.493
218.315
218.178
218.081
218.018
217.986
217.978
217.994
218.034
218.095
218.171
218.262
218.365
218.478
218.604
218.756
218.908
219.127
219.343
219.605
219.886
220.182
220.478
220.764
221.039
221.303
221.566
221.839
222.116
222.393
222.66
222.916
223.163
223.405
223.643
223.869
224.079
224.276
224.463
224.652
224.851
225.066
225.296
225.532
225.768
225.994
226.205
226.397
226.572
226.733
226.886
227.034
227.181
227.327
227.473
227.619
227.763
227.905
228.042
228.173
228.297
228.412
228.518
228.615
228.704
228.787
228.864
228.941
229.019
229.102
229.197
229.31
229.444
229.602
229.784
229.981
230.182
230.373
230.538
230.668
230.761
230.821
230.859
230.884
242.882
225.703
226.608
226.678
226.521
226.377
226.279
226.173
226.049
225.912
225.763
225.601
225.429
225.251
225.067
224.877
224.679
224.476
224.269
224.057
223.838
223.611
223.373
223.119
222.845
222.548
222.223
221.871
221.497
221.11
220.715
220.319
219.93
219.561
219.221
218.919
218.657
218.435
218.254
218.114
218.013
217.948
217.913
217.902
217.914
217.951
218.009
218.083
218.173
218.275
218.387
218.511
218.66
218.812
219.03
219.244
219.505
219.784
220.075
220.368
220.655
220.932
221.197
221.453
221.711
221.972
222.234
222.495
222.753
223.01
223.266
223.521
223.762
223.983
224.184
224.37
224.553
224.743
224.947
225.164
225.388
225.611
225.823
226.02
226.2
226.365
226.517
226.664
226.808
226.951
227.093
227.237
227.379
227.519
227.657
227.79
227.918
228.038
228.149
228.251
228.344
228.429
228.507
228.581
228.652
228.723
228.801
228.891
228.997
229.124
229.276
229.452
229.646
229.847
230.038
230.204
230.334
230.427
230.485
230.517
230.523
242.859
225.704
226.597
226.67
226.513
226.371
226.275
226.169
226.046
225.909
225.759
225.597
225.426
225.247
225.063
224.872
224.675
224.471
224.263
224.05
223.831
223.603
223.363
223.107
222.832
222.532
222.204
221.849
221.472
221.08
220.681
220.281
219.888
219.515
219.172
218.866
218.601
218.376
218.192
218.049
217.945
217.877
217.839
217.824
217.833
217.867
217.921
217.993
218.081
218.182
218.293
218.417
218.562
218.713
218.93
219.144
219.405
219.682
219.968
220.257
220.542
220.824
221.094
221.351
221.601
221.843
222.083
222.326
222.574
222.83
223.093
223.358
223.609
223.839
224.048
224.237
224.422
224.609
224.808
225.016
225.229
225.439
225.639
225.825
225.994
226.152
226.301
226.447
226.59
226.734
226.878
227.021
227.163
227.302
227.437
227.568
227.693
227.81
227.919
228.019
228.111
228.194
228.27
228.341
228.409
228.479
228.554
228.641
228.744
228.868
229.017
229.191
229.385
229.586
229.78
229.949
230.081
230.173
230.232
230.271
230.295
242.844
225.703
226.585
226.661
226.506
226.365
226.27
226.166
226.042
225.906
225.756
225.594
225.422
225.243
225.059
224.868
224.67
224.466
224.257
224.044
223.824
223.594
223.353
223.095
222.817
222.515
222.185
221.827
221.446
221.051
220.648
220.243
219.846
219.468
219.122
218.813
218.545
218.318
218.131
217.984
217.877
217.804
217.763
217.745
217.75
217.78
217.832
217.901
217.987
218.087
218.197
218.32
218.463
218.612
218.826
219.038
219.302
219.582
219.867
220.153
220.433
220.716
220.99
221.251
221.5
221.733
221.957
222.181
222.411
222.655
222.91
223.17
223.418
223.647
223.859
224.053
224.245
224.441
224.645
224.855
225.065
225.269
225.459
225.633
225.792
225.941
226.084
226.226
226.368
226.512
226.655
226.797
226.937
227.075
227.208
227.337
227.46
227.576
227.685
227.785
227.876
227.959
228.034
228.104
228.172
228.24
228.314
228.397
228.497
228.619
228.765
228.937
229.129
229.331
229.526
229.697
229.831
229.921
229.976
230.013
230.046
242.828
225.701
226.573
226.653
226.498
226.359
226.266
226.162
226.039
225.903
225.753
225.591
225.418
225.239
225.055
224.863
224.665
224.461
224.252
224.037
223.816
223.586
223.342
223.083
222.803
222.499
222.166
221.805
221.42
221.021
220.613
220.204
219.803
219.421
219.071
218.759
218.488
218.258
218.068
217.918
217.806
217.73
217.685
217.664
217.666
217.691
217.74
217.806
217.89
217.988
218.097
218.219
218.359
218.508
218.719
218.929
219.193
219.477
219.765
220.049
220.324
220.604
220.878
221.145
221.402
221.638
221.859
222.072
222.285
222.508
222.741
222.979
223.208
223.425
223.632
223.829
224.032
224.242
224.458
224.674
224.884
225.083
225.265
225.431
225.582
225.726
225.865
226.006
226.147
226.289
226.43
226.569
226.706
226.839
226.968
227.092
227.211
227.325
227.431
227.53
227.619
227.7
227.773
227.84
227.905
227.969
228.039
228.118
228.213
228.329
228.47
228.638
228.827
229.026
229.221
229.394
229.531
229.623
229.674
229.697
229.7
242.815
225.7
226.56
226.644
226.491
226.353
226.261
226.158
226.036
225.9
225.75
225.587
225.415
225.235
225.05
224.858
224.66
224.455
224.246
224.031
223.809
223.577
223.332
223.071
222.789
222.482
222.146
221.782
221.394
220.991
220.579
220.165
219.76
219.374
219.02
218.705
218.431
218.198
218.004
217.85
217.735
217.655
217.605
217.582
217.579
217.6
217.645
217.709
217.79
217.886
217.994
218.115
218.253
218.403
218.61
218.818
219.079
219.363
219.655
219.944
220.216
220.492
220.761
221.03
221.295
221.543
221.773
221.987
222.193
222.398
222.606
222.815
223.016
223.211
223.408
223.604
223.813
224.037
224.265
224.489
224.702
224.9
225.077
225.236
225.38
225.517
225.651
225.787
225.923
226.06
226.196
226.33
226.461
226.588
226.712
226.832
226.949
227.061
227.166
227.263
227.351
227.431
227.503
227.568
227.63
227.692
227.758
227.834
227.925
228.037
228.175
228.34
228.528
228.727
228.924
229.098
229.237
229.331
229.383
229.403
229.405
242.806
225.698
226.547
226.635
226.483
226.346
226.256
226.154
226.033
225.897
225.747
225.584
225.411
225.231
225.046
224.854
224.655
224.45
224.24
224.024
223.801
223.568
223.322
223.059
222.774
222.465
222.126
221.759
221.368
220.96
220.543
220.126
219.716
219.326
218.968
218.65
218.373
218.137
217.94
217.783
217.663
217.578
217.524
217.497
217.491
217.507
217.548
217.609
217.688
217.782
217.888
218.008
218.144
218.294
218.498
218.703
218.96
219.242
219.535
219.829
220.103
220.375
220.634
220.898
221.167
221.43
221.68
221.908
222.117
222.314
222.503
222.689
222.866
223.041
223.224
223.413
223.621
223.846
224.076
224.299
224.51
224.703
224.876
225.03
225.171
225.305
225.437
225.569
225.702
225.834
225.964
226.091
226.216
226.338
226.458
226.574
226.688
226.798
226.902
226.999
227.087
227.167
227.238
227.303
227.365
227.426
227.491
227.565
227.654
227.765
227.902
228.066
228.254
228.456
228.656
228.834
228.976
229.074
229.128
229.15
229.153
242.797
225.697
226.534
226.626
226.475
226.34
226.251
226.15
226.029
225.893
225.743
225.58
225.407
225.227
225.042
224.849
224.65
224.445
224.234
224.018
223.794
223.56
223.312
223.046
222.76
222.448
222.107
221.736
221.341
220.929
220.508
220.086
219.673
219.279
218.917
218.596
218.316
218.077
217.876
217.714
217.59
217.501
217.442
217.411
217.4
217.412
217.449
217.507
217.583
217.675
217.78
217.899
218.032
218.182
218.384
218.589
218.84
219.117
219.406
219.699
219.976
220.25
220.504
220.76
221.024
221.295
221.561
221.808
222.03
222.229
222.413
222.589
222.754
222.918
223.089
223.268
223.465
223.678
223.898
224.113
224.317
224.505
224.675
224.827
224.967
225.1
225.229
225.358
225.485
225.61
225.733
225.855
225.974
226.092
226.207
226.321
226.433
226.542
226.646
226.743
226.831
226.911
226.983
227.048
227.109
227.17
227.234
227.307
227.396
227.505
227.642
227.807
227.997
228.201
228.405
228.588
228.735
228.836
228.894
228.918
228.923
242.784
225.696
226.521
226.617
226.467
226.334
226.246
226.147
226.026
225.89
225.74
225.577
225.404
225.223
225.037
224.844
224.645
224.439
224.228
224.011
223.786
223.551
223.301
223.034
222.745
222.43
222.087
221.713
221.314
220.898
220.473
220.046
219.629
219.231
218.866
218.541
218.258
218.016
217.812
217.646
217.516
217.422
217.359
217.323
217.308
217.316
217.348
217.403
217.476
217.566
217.67
217.787
217.917
218.068
218.268
218.475
218.722
218.991
219.272
219.56
219.839
220.12
220.376
220.627
220.876
221.133
221.395
221.651
221.89
222.107
222.307
222.493
222.665
222.829
222.992
223.159
223.338
223.531
223.731
223.931
224.125
224.307
224.475
224.627
224.767
224.9
225.026
225.15
225.271
225.39
225.507
225.624
225.739
225.853
225.967
226.079
226.19
226.297
226.4
226.497
226.585
226.665
226.737
226.803
226.865
226.925
226.99
227.062
227.15
227.258
227.394
227.56
227.751
227.959
228.167
228.355
228.507
228.613
228.674
228.702
228.709
242.772
225.695
226.508
226.608
226.459
226.327
226.242
226.143
226.022
225.887
225.736
225.573
225.4
225.219
225.033
224.84
224.64
224.434
224.222
224.004
223.779
223.542
223.291
223.021
222.73
222.413
222.066
221.69
221.288
220.867
220.437
220.007
219.585
219.184
218.815
218.486
218.2
217.955
217.747
217.577
217.443
217.343
217.275
217.234
217.216
217.219
217.246
217.297
217.367
217.455
217.557
217.672
217.801
217.95
218.148
218.358
218.604
218.87
219.143
219.423
219.699
219.986
220.25
220.504
220.739
220.972
221.207
221.453
221.699
221.937
222.164
222.377
222.568
222.741
222.901
223.056
223.217
223.389
223.57
223.756
223.94
224.117
224.283
224.434
224.573
224.703
224.825
224.943
225.058
225.171
225.284
225.397
225.509
225.622
225.734
225.845
225.955
226.061
226.163
226.258
226.346
226.426
226.498
226.563
226.625
226.685
226.749
226.82
226.906
227.014
227.149
227.314
227.506
227.717
227.928
228.121
228.277
228.388
228.454
228.484
228.494
242.76
225.694
226.494
226.598
226.451
226.321
226.237
226.139
226.019
225.883
225.733
225.57
225.396
225.215
225.028
224.835
224.635
224.428
224.216
223.998
223.771
223.533
223.28
223.009
222.716
222.396
222.046
221.667
221.261
220.836
220.402
219.967
219.541
219.136
218.764
218.432
218.143
217.894
217.683
217.508
217.369
217.263
217.19
217.144
217.122
217.12
217.142
217.189
217.256
217.341
217.441
217.555
217.682
217.831
218.025
218.239
218.486
218.752
219.022
219.294
219.565
219.856
220.13
220.393
220.619
220.827
221.028
221.246
221.478
221.726
221.974
222.213
222.426
222.611
222.772
222.919
223.068
223.228
223.399
223.578
223.758
223.933
224.096
224.244
224.378
224.503
224.619
224.731
224.84
224.95
225.059
225.171
225.283
225.396
225.508
225.618
225.727
225.832
225.933
226.027
226.114
226.192
226.264
226.328
226.389
226.449
226.511
226.581
226.666
226.771
226.904
227.067
227.26
227.472
227.686
227.883
228.044
228.158
228.227
228.261
228.275
242.75
225.693
226.48
226.589
226.443
226.314
226.232
226.135
226.016
225.88
225.73
225.566
225.392
225.211
225.024
224.83
224.63
224.423
224.21
223.991
223.764
223.524
223.27
222.997
222.701
222.379
222.026
221.644
221.234
220.805
220.366
219.927
219.498
219.09
218.714
218.379
218.086
217.833
217.619
217.439
217.294
217.184
217.104
217.053
217.027
217.021
217.037
217.079
217.143
217.226
217.324
217.436
217.562
217.71
217.901
218.117
218.362
218.631
218.902
219.173
219.442
219.733
220.014
220.285
220.508
220.701
220.878
221.069
221.28
221.52
221.769
222.012
222.23
222.418
222.579
222.726
222.877
223.041
223.217
223.402
223.586
223.76
223.917
224.057
224.183
224.299
224.407
224.513
224.618
224.725
224.834
224.946
225.058
225.171
225.282
225.392
225.5
225.604
225.703
225.796
225.881
225.959
226.029
226.093
226.153
226.212
226.273
226.341
226.423
226.525
226.655
226.816
227.008
227.22
227.437
227.637
227.801
227.919
227.991
228.027
228.042
242.74
225.692
226.466
226.579
226.435
226.308
226.227
226.131
226.012
225.877
225.726
225.562
225.388
225.207
225.02
224.825
224.624
224.417
224.204
223.985
223.756
223.516
223.26
222.984
222.686
222.361
222.006
221.621
221.208
220.775
220.331
219.888
219.455
219.043
218.664
218.325
218.029
217.773
217.554
217.37
217.22
217.103
217.018
216.961
216.93
216.919
216.931
216.968
217.028
217.107
217.204
217.315
217.439
217.588
217.774
217.989
218.231
218.501
218.778
219.054
219.328
219.614
219.893
220.166
220.396
220.593
220.766
220.944
221.135
221.353
221.579
221.8
221.998
222.173
222.33
222.484
222.649
222.832
223.027
223.226
223.418
223.588
223.736
223.864
223.977
224.082
224.183
224.284
224.388
224.497
224.608
224.721
224.834
224.946
225.057
225.166
225.272
225.375
225.473
225.565
225.65
225.727
225.797
225.86
225.919
225.977
226.036
226.102
226.181
226.28
226.406
226.564
226.753
226.966
227.184
227.387
227.554
227.674
227.748
227.786
227.802
242.731
225.691
226.452
226.569
226.427
226.301
226.222
226.127
226.009
225.874
225.723
225.559
225.385
225.203
225.015
224.821
224.619
224.412
224.198
223.978
223.749
223.507
223.25
222.972
222.672
222.344
221.986
221.598
221.181
220.744
220.296
219.848
219.412
218.997
218.614
218.272
217.973
217.713
217.49
217.301
217.146
217.023
216.932
216.869
216.833
216.817
216.824
216.856
216.912
216.988
217.082
217.191
217.315
217.463
217.646
217.86
218.094
218.362
218.642
218.926
219.208
219.491
219.761
220.028
220.268
220.484
220.676
220.861
221.043
221.235
221.424
221.605
221.766
221.919
222.071
222.233
222.418
222.625
222.842
223.057
223.251
223.414
223.548
223.66
223.76
223.855
223.948
224.049
224.155
224.267
224.382
224.497
224.61
224.722
224.83
224.937
225.042
225.143
225.24
225.332
225.417
225.494
225.564
225.626
225.685
225.741
225.799
225.863
225.939
226.035
226.157
226.312
226.499
226.711
226.931
227.137
227.307
227.429
227.504
227.543
227.559
242.723
225.69
226.438
226.559
226.419
226.295
226.217
226.123
226.005
225.87
225.719
225.555
225.381
225.199
225.011
224.816
224.614
224.407
224.193
223.972
223.741
223.498
223.239
222.96
222.657
222.327
221.966
221.575
221.155
220.713
220.261
219.809
219.369
218.951
218.565
218.22
217.916
217.653
217.426
217.232
217.071
216.942
216.844
216.776
216.734
216.714
216.716
216.742
216.793
216.866
216.957
217.065
217.187
217.337
217.517
217.731
217.957
218.217
218.492
218.782
219.072
219.354
219.615
219.871
220.114
220.354
220.581
220.79
220.977
221.152
221.308
221.449
221.576
221.708
221.854
222.022
222.218
222.44
222.669
222.888
223.074
223.225
223.343
223.441
223.53
223.617
223.709
223.812
223.924
224.042
224.16
224.277
224.39
224.499
224.605
224.71
224.812
224.912
225.008
225.099
225.184
225.261
225.33
225.393
225.45
225.506
225.562
225.624
225.698
225.791
225.91
226.062
226.247
226.459
226.68
226.888
227.061
227.186
227.262
227.301
227.317
242.715
225.689
226.424
226.549
226.41
226.288
226.212
226.119
226.002
225.867
225.716
225.552
225.377
225.194
225.006
224.811
224.609
224.401
224.187
223.965
223.734
223.49
223.229
222.948
222.642
222.31
221.947
221.552
221.128
220.683
220.226
219.77
219.326
218.905
218.516
218.168
217.861
217.593
217.362
217.164
216.996
216.861
216.757
216.682
216.635
216.61
216.607
216.627
216.674
216.743
216.831
216.936
217.057
217.206
217.385
217.6
217.822
218.076
218.341
218.627
218.918
219.198
219.452
219.7
219.946
220.202
220.46
220.699
220.904
221.076
221.215
221.334
221.444
221.565
221.704
221.869
222.064
222.284
222.506
222.711
222.881
223.014
223.119
223.207
223.291
223.378
223.474
223.583
223.7
223.822
223.942
224.059
224.17
224.277
224.38
224.482
224.582
224.68
224.775
224.865
224.949
225.025
225.094
225.156
225.213
225.267
225.323
225.383
225.455
225.546
225.662
225.812
225.996
226.208
226.432
226.644
226.82
226.947
227.024
227.063
227.079
242.709
225.687
226.409
226.538
226.402
226.281
226.207
226.115
225.998
225.864
225.713
225.548
225.373
225.19
225.002
224.807
224.605
224.396
224.181
223.959
223.727
223.481
223.219
222.936
222.628
222.293
221.927
221.529
221.102
220.652
220.192
219.732
219.284
218.86
218.468
218.116
217.805
217.534
217.298
217.095
216.922
216.78
216.669
216.588
216.534
216.505
216.496
216.51
216.553
216.617
216.702
216.806
216.924
217.072
217.249
217.468
217.691
217.943
218.2
218.474
218.754
219.031
219.286
219.533
219.778
220.037
220.304
220.555
220.778
220.965
221.116
221.244
221.359
221.48
221.613
221.767
221.948
222.148
222.345
222.522
222.667
222.782
222.876
222.962
223.049
223.144
223.25
223.366
223.487
223.61
223.729
223.843
223.951
224.055
224.155
224.255
224.352
224.449
224.542
224.63
224.712
224.788
224.855
224.916
224.972
225.025
225.079
225.139
225.209
225.298
225.413
225.561
225.745
225.958
226.185
226.402
226.583
226.713
226.791
226.829
226.844
242.701
225.685
226.395
226.528
226.393
226.274
226.202
226.111
225.995
225.86
225.709
225.544
225.369
225.186
224.998
224.802
224.6
224.391
224.175
223.952
223.719
223.473
223.209
222.924
222.613
222.275
221.907
221.506
221.075
220.622
220.157
219.693
219.242
218.815
218.42
218.065
217.75
217.475
217.235
217.026
216.847
216.698
216.581
216.493
216.433
216.398
216.384
216.393
216.43
216.491
216.572
216.673
216.789
216.935
217.11
217.332
217.561
217.819
218.072
218.336
218.6
218.872
219.131
219.383
219.623
219.87
220.121
220.362
220.59
220.8
220.991
221.156
221.297
221.425
221.552
221.691
221.847
222.015
222.178
222.322
222.441
222.54
222.629
222.717
222.814
222.921
223.038
223.161
223.284
223.403
223.517
223.626
223.73
223.831
223.929
224.027
224.123
224.217
224.308
224.394
224.475
224.548
224.614
224.673
224.727
224.779
224.832
224.89
224.959
225.046
225.159
225.306
225.49
225.706
225.938
226.16
226.346
226.479
226.558
226.596
226.61
242.701
225.683
226.38
226.517
226.384
226.267
226.197
226.107
225.991
225.857
225.706
225.541
225.365
225.182
224.993
224.797
224.595
224.385
224.17
223.946
223.712
223.464
223.199
222.912
222.599
222.258
221.887
221.483
221.049
220.592
220.123
219.655
219.201
218.77
218.373
218.014
217.695
217.416
217.171
216.957
216.772
216.616
216.492
216.397
216.33
216.289
216.271
216.275
216.305
216.362
216.44
216.538
216.652
216.795
216.968
217.19
217.425
217.695
217.956
218.217
218.472
218.734
218.996
219.256
219.493
219.716
219.931
220.142
220.362
220.591
220.828
221.042
221.219
221.361
221.482
221.603
221.732
221.868
221.999
222.115
222.215
222.304
222.393
222.488
222.596
222.716
222.841
222.966
223.086
223.199
223.306
223.408
223.507
223.605
223.702
223.798
223.892
223.985
224.074
224.158
224.236
224.307
224.37
224.427
224.48
224.53
224.581
224.637
224.704
224.789
224.901
225.047
225.232
225.45
225.687
225.915
226.107
226.244
226.324
226.362
226.375
242.691
225.68
226.365
226.506
226.376
226.26
226.192
226.103
225.988
225.853
225.702
225.537
225.362
225.178
224.989
224.793
224.59
224.38
224.164
223.94
223.705
223.456
223.189
222.899
222.585
222.241
221.867
221.46
221.023
220.562
220.089
219.617
219.159
218.726
218.325
217.963
217.641
217.357
217.107
216.888
216.697
216.535
216.402
216.3
216.227
216.179
216.156
216.155
216.179
216.231
216.306
216.401
216.514
216.654
216.823
217.043
217.28
217.562
217.838
218.11
218.366
218.623
218.882
219.145
219.379
219.581
219.758
219.934
220.135
220.373
220.639
220.889
221.095
221.248
221.366
221.473
221.583
221.698
221.811
221.914
222.006
222.094
222.185
222.288
222.403
222.528
222.654
222.776
222.889
222.995
223.094
223.19
223.285
223.38
223.474
223.569
223.661
223.752
223.839
223.921
223.996
224.065
224.126
224.18
224.23
224.278
224.326
224.38
224.445
224.528
224.638
224.783
224.967
225.187
225.428
225.662
225.861
226.003
226.084
226.12
226.132
242.692
225.677
226.349
226.495
226.367
226.253
226.186
226.099
225.984
225.85
225.699
225.534
225.358
225.174
224.985
224.788
224.585
224.375
224.158
223.933
223.698
223.447
223.179
222.887
222.57
222.224
221.847
221.437
220.997
220.532
220.055
219.579
219.118
218.682
218.279
217.913
217.587
217.298
217.044
216.819
216.621
216.452
216.312
216.203
216.122
216.068
216.039
216.032
216.05
216.098
216.169
216.261
216.372
216.511
216.679
216.894
217.128
217.415
217.707
217.999
218.27
218.527
218.779
219.035
219.266
219.46
219.621
219.773
219.954
220.181
220.443
220.695
220.905
221.058
221.175
221.282
221.391
221.506
221.62
221.726
221.824
221.917
222.014
222.121
222.236
222.356
222.474
222.586
222.69
222.787
222.879
222.971
223.062
223.155
223.247
223.34
223.43
223.519
223.603
223.683
223.756
223.822
223.88
223.932
223.979
224.024
224.069
224.12
224.182
224.262
224.369
224.512
224.695
224.916
225.16
225.401
225.608
225.755
225.839
225.874
225.881
242.685
225.674
226.334
226.484
226.357
226.246
226.181
226.095
225.981
225.846
225.695
225.53
225.354
225.17
224.98
224.783
224.58
224.37
224.152
223.927
223.69
223.439
223.169
222.875
222.556
222.207
221.827
221.414
220.971
220.502
220.021
219.542
219.078
218.639
218.232
217.864
217.534
217.24
216.98
216.75
216.546
216.369
216.222
216.104
216.016
215.955
215.921
215.908
215.92
215.963
216.03
216.119
216.229
216.365
216.533
216.745
216.974
217.258
217.557
217.868
218.162
218.425
218.669
218.91
219.137
219.339
219.513
219.667
219.835
220.036
220.259
220.476
220.661
220.804
220.926
221.047
221.175
221.308
221.44
221.562
221.673
221.776
221.878
221.982
222.088
222.194
222.296
222.393
222.485
222.574
222.662
222.751
222.841
222.931
223.021
223.111
223.198
223.284
223.365
223.442
223.513
223.576
223.631
223.68
223.725
223.766
223.809
223.856
223.914
223.991
224.095
224.234
224.416
224.636
224.883
225.128
225.342
225.496
225.585
225.621
225.62
242.686
225.67
226.318
226.472
226.348
226.239
226.176
226.091
225.977
225.843
225.692
225.526
225.35
225.166
224.976
224.779
224.575
224.364
224.147
223.921
223.683
223.431
223.159
222.863
222.541
222.19
221.807
221.392
220.944
220.472
219.988
219.505
219.037
218.595
218.187
217.815
217.48
217.182
216.917
216.68
216.47
216.286
216.131
216.005
215.909
215.841
215.799
215.781
215.788
215.825
215.889
215.974
216.082
216.217
216.386
216.598
216.823
217.102
217.396
217.712
218.024
218.295
218.534
218.761
218.986
219.206
219.415
219.593
219.762
219.934
220.104
220.263
220.408
220.536
220.666
220.808
220.964
221.122
221.278
221.42
221.547
221.66
221.763
221.859
221.949
222.034
222.115
222.195
222.275
222.358
222.443
222.532
222.621
222.71
222.797
222.883
222.966
223.048
223.127
223.201
223.268
223.328
223.381
223.427
223.468
223.506
223.545
223.588
223.642
223.714
223.813
223.949
224.127
224.347
224.594
224.843
225.062
225.222
225.315
225.356
225.351
242.682
225.666
226.303
226.46
226.339
226.232
226.171
226.086
225.973
225.839
225.688
225.523
225.346
225.162
224.971
224.774
224.57
224.359
224.141
223.914
223.676
223.422
223.149
222.851
222.527
222.173
221.787
221.369
220.918
220.443
219.954
219.468
218.997
218.553
218.141
217.766
217.428
217.125
216.854
216.611
216.394
216.203
216.039
215.905
215.801
215.725
215.676
215.653
215.654
215.683
215.744
215.826
215.932
216.066
216.235
216.451
216.678
216.952
217.234
217.538
217.852
218.125
218.364
218.584
218.815
219.061
219.311
219.525
219.706
219.855
219.978
220.084
220.194
220.31
220.445
220.605
220.782
220.961
221.137
221.297
221.437
221.556
221.655
221.737
221.805
221.867
221.926
221.991
222.062
222.142
222.227
222.316
222.405
222.491
222.574
222.656
222.735
222.813
222.888
222.959
223.023
223.08
223.129
223.172
223.209
223.243
223.278
223.317
223.366
223.433
223.527
223.658
223.832
224.049
224.296
224.548
224.772
224.938
225.035
225.08
225.069
242.684
225.662
226.287
226.448
226.329
226.225
226.165
226.082
225.97
225.836
225.684
225.519
225.342
225.157
224.967
224.769
224.565
224.354
224.135
223.908
223.669
223.414
223.139
222.839
222.512
222.156
221.767
221.346
220.892
220.413
219.921
219.431
218.957
218.51
218.096
217.717
217.375
217.067
216.791
216.542
216.318
216.119
215.947
215.804
215.691
215.607
215.551
215.522
215.516
215.539
215.595
215.675
215.779
215.912
216.081
216.301
216.536
216.812
217.083
217.365
217.661
217.926
218.172
218.398
218.641
218.909
219.188
219.429
219.631
219.771
219.87
219.95
220.045
220.156
220.292
220.458
220.641
220.83
221.015
221.183
221.328
221.444
221.532
221.596
221.642
221.683
221.727
221.783
221.851
221.932
222.019
222.107
222.193
222.276
222.355
222.432
222.507
222.581
222.652
222.72
222.78
222.834
222.879
222.917
222.95
222.98
223.011
223.045
223.088
223.149
223.237
223.361
223.531
223.745
223.991
224.244
224.472
224.643
224.746
224.793
224.778
242.685
225.658
226.27
226.436
226.32
226.217
226.16
226.078
225.966
225.832
225.681
225.515
225.338
225.153
224.962
224.765
224.56
224.349
224.13
223.902
223.662
223.405
223.129
222.827
222.498
222.139
221.747
221.322
220.866
220.383
219.887
219.394
218.918
218.468
218.051
217.67
217.323
217.01
216.728
216.473
216.241
216.035
215.854
215.702
215.58
215.488
215.424
215.388
215.376
215.393
215.443
215.521
215.622
215.753
215.921
216.144
216.389
216.677
216.946
217.209
217.476
217.725
217.981
218.224
218.478
218.749
219.034
219.284
219.501
219.657
219.767
219.855
219.954
220.067
220.201
220.361
220.539
220.725
220.907
221.071
221.207
221.308
221.376
221.421
221.451
221.48
221.52
221.577
221.65
221.733
221.821
221.906