/*--------------------------------*- C++ -*----------------------------------*\
| =========                 |                                                 |
| \\      /  F ield         | OpenFOAM: The Open Source CFD Toolbox           |
|  \\    /   O peration     | Version:  2412                                  |
|   \\  /    A nd           | Website:  www.openfoam.com                      |
|    \\/     M anipulation  |                                                 |
\*---------------------------------------------------------------------------*/
FoamFile
{
    version     2.0;
    format      ascii;
    arch        "LSB;label=32;scalar=64";
    class       volScalarField;
    location    "0.107";
    object      rho;
}
// * * * * * * * * * * * * * * * * * * * * * * * * * * * * * * * * * * * * * //

dimensions      [1 -3 0 0 0 0 0];

internalField   nonuniform List<scalar> 
9771
(
0.0244094
0.0403593
0.0408896
0.0406601
0.0406362
0.0407145
0.0408588
0.0410058
0.0411517
0.0412856
0.0243668
0.0402856
0.040889
0.0406587
0.0406335
0.0407122
0.0408568
0.0410038
0.0411498
0.0412837
0.0243488
0.0402137
0.0408891
0.0406582
0.0406308
0.04071
0.0408548
0.0410018
0.0411479
0.0412819
0.0243432
0.0401383
0.0408899
0.0406582
0.0406282
0.0407078
0.0408529
0.0409999
0.0411459
0.04128
0.0243411
0.0400588
0.0408912
0.0406586
0.0406255
0.0407056
0.0408509
0.040998
0.041144
0.0412781
0.0243197
0.0399744
0.0408922
0.040659
0.0406227
0.0407033
0.0408489
0.040996
0.0411421
0.0412761
0.0242907
0.039883
0.0408919
0.0406593
0.04062
0.040701
0.0408469
0.040994
0.0411401
0.0412742
0.0413937
0.0414937
0.0415745
0.0416396
0.0416949
0.0417459
0.0417973
0.041851
0.0419068
0.0419643
0.0420232
0.0420828
0.0421424
0.0422015
0.0422597
0.0423168
0.0423728
0.0424277
0.0424815
0.042534
0.0425853
0.0426355
0.0242657
0.0397885
0.0408908
0.0406593
0.0406171
0.0406987
0.0408449
0.040992
0.0411381
0.0412722
0.0413917
0.0414917
0.0415726
0.0416378
0.0416932
0.0417444
0.041796
0.0418498
0.0419057
0.0419633
0.0420222
0.0420818
0.0421414
0.0422004
0.0422585
0.0423156
0.0423715
0.0424262
0.0424798
0.0425321
0.0425833
0.0426333
0.0426824
0.0427304
0.0427774
0.0428233
0.0428681
0.0429121
0.0242516
0.0396887
0.040888
0.0406584
0.0406142
0.0406964
0.0408429
0.04099
0.0411361
0.0412701
0.0413897
0.0414897
0.0415707
0.041636
0.0416915
0.0417429
0.0417947
0.0418486
0.0419046
0.0419623
0.0420213
0.0420808
0.0421404
0.0421993
0.0422574
0.0423143
0.0423701
0.0424247
0.0424781
0.0425302
0.0425812
0.0426311
0.0426799
0.0427278
0.0427746
0.0428203
0.0428649
0.0429086
0.0429515
0.0242515
0.039594
0.0408844
0.0406562
0.0406113
0.0406941
0.0408409
0.040988
0.0411341
0.0412681
0.0413876
0.0414877
0.0415687
0.0416342
0.0416898
0.0417414
0.0417934
0.0418474
0.0419036
0.0419613
0.0420203
0.0420798
0.0421393
0.0421982
0.0422562
0.042313
0.0423687
0.0424231
0.0424764
0.0425284
0.0425791
0.0426288
0.0426775
0.0427252
0.0427717
0.0428172
0.0428615
0.042905
0.0429478
0.0241824
0.0395222
0.0408822
0.0406527
0.0406084
0.0406918
0.0408388
0.040986
0.0411321
0.0412661
0.0413856
0.0414857
0.0415667
0.0416323
0.0416881
0.0417398
0.041792
0.0418462
0.0419025
0.0419603
0.0420193
0.0420789
0.0421383
0.0421972
0.042255
0.0423117
0.0423673
0.0424216
0.0424747
0.0425265
0.0425771
0.0426266
0.0426751
0.0427225
0.0427689
0.0428141
0.0428582
0.0429015
0.042944
0.0221732
0.0393984
0.0409872
0.0405154
0.0405293
0.0406381
0.0407941
0.0409462
0.0410949
0.0412301
0.0413506
0.041452
0.0415351
0.0416034
0.0416625
0.0417178
0.0417733
0.0418302
0.0418885
0.0419478
0.0420076
0.0420675
0.0421268
0.0421851
0.0422421
0.0422978
0.0423522
0.0424051
0.0424566
0.0425068
0.0425556
0.0426033
0.0426499
0.0426954
0.0427397
0.0427827
0.0428246
0.0428657
0.042906
0.0429455
0.0429844
0.0430225
0.0430598
0.0430964
0.0431324
0.0431678
0.0432028
0.0432374
0.0432717
0.0433058
0.0433396
0.0433731
0.0434064
0.0434394
0.0434722
0.0435046
0.0435367
0.0435683
0.0435995
0.0436301
0.04366
0.0436892
0.0437175
0.0437449
0.0437713
0.0437965
0.0438205
0.0438432
0.0438646
0.0438847
0.0439033
0.0439204
0.0439359
0.0439499
0.0439625
0.0439737
0.0439835
0.0439918
0.0439987
0.0258777
0.0408387
0.0405804
0.0402534
0.0403829
0.0405424
0.0407136
0.0408738
0.0410266
0.0411633
0.0412851
0.0413886
0.0414754
0.0415488
0.0416143
0.0416764
0.0417383
0.0418005
0.0418627
0.0419247
0.0419861
0.0420464
0.0421054
0.0421626
0.0422181
0.0422718
0.0423237
0.042374
0.0424225
0.0424693
0.0425148
0.0425589
0.0426018
0.0426434
0.0426836
0.0427224
0.0427602
0.0427969
0.0428327
0.0428674
0.042901
0.0429332
0.0429643
0.042994
0.0430226
0.04305
0.0430763
0.0431016
0.0431257
0.0431486
0.0431704
0.0431909
0.0432102
0.0432282
0.0432449
0.0432603
0.0432744
0.0432871
0.0432984
0.0433084
0.0433171
0.0433246
0.0433307
0.0433355
0.0433392
0.0433415
0.0433427
0.0433426
0.0433412
0.0433392
0.0433361
0.0433319
0.0433266
0.0433205
0.0433138
0.0433064
0.0432985
0.0432899
0.0432808
0.0287154
0.0407553
0.0404611
0.0402037
0.0403074
0.0404617
0.0406419
0.0408082
0.0409619
0.0410965
0.0412168
0.041321
0.0414112
0.0414904
0.0415629
0.0416325
0.0417013
0.0417691
0.0418355
0.0419003
0.0419634
0.0420244
0.0420831
0.0421394
0.0421933
0.042245
0.0422944
0.0423418
0.0423871
0.0424306
0.0424726
0.0425131
0.042552
0.0425892
0.0426248
0.042659
0.0426921
0.042724
0.0427546
0.0427837
0.0428112
0.042837
0.0428612
0.0428839
0.0429052
0.042925
0.0429436
0.0429607
0.0429763
0.0429905
0.0430032
0.0430145
0.0430243
0.0430327
0.0430397
0.0430453
0.0430497
0.0430527
0.0430545
0.0430551
0.0430546
0.0430531
0.0430506
0.0430472
0.043043
0.0430379
0.0430322
0.043026
0.043019
0.0430116
0.0430039
0.0429958
0.0429874
0.0429788
0.0429701
0.0429613
0.0429525
0.0429437
0.0429347
0.0305431
0.0396506
0.0401618
0.0401132
0.0402394
0.0404012
0.0405888
0.0407575
0.0409077
0.0410376
0.0411543
0.0412574
0.0413496
0.0414331
0.0415118
0.0415881
0.041663
0.0417359
0.0418062
0.0418738
0.0419386
0.0420004
0.042059
0.0421144
0.0421669
0.0422165
0.0422635
0.042308
0.0423502
0.0423905
0.0424291
0.042466
0.0425009
0.0425339
0.0425651
0.0425947
0.0426227
0.0426494
0.0426744
0.0426979
0.0427197
0.0427398
0.0427582
0.042775
0.0427902
0.0428038
0.042816
0.0428266
0.0428357
0.0428433
0.0428496
0.0428545
0.0428582
0.0428607
0.0428621
0.0428625
0.0428618
0.0428601
0.0428576
0.0428543
0.0428504
0.0428456
0.0428404
0.0428346
0.0428285
0.042822
0.0428152
0.0428083
0.0428012
0.042794
0.0427868
0.0427795
0.0427722
0.042765
0.0427576
0.0427509
0.0427438
0.0427375
0.0427308
0.0325011
0.0389857
0.0399512
0.0400089
0.0401947
0.0403651
0.0405538
0.0407193
0.0408639
0.0409865
0.0410976
0.041198
0.0412909
0.0413779
0.0414618
0.0415437
0.0416238
0.041701
0.0417748
0.041845
0.0419115
0.0419741
0.0420327
0.0420875
0.0421386
0.0421865
0.0422312
0.042273
0.0423124
0.0423496
0.0423849
0.0424182
0.0424494
0.0424786
0.0425058
0.0425314
0.0425553
0.0425774
0.0425976
0.0426158
0.0426322
0.0426469
0.0426601
0.0426718
0.0426821
0.0426911
0.0426987
0.042705
0.0427099
0.0427137
0.0427162
0.0427178
0.0427183
0.0427179
0.0427166
0.0427146
0.042712
0.0427088
0.0427051
0.0427009
0.0426963
0.0426913
0.0426861
0.0426806
0.042675
0.0426691
0.0426636
0.0426578
0.0426518
0.0426464
0.0426406
0.0426352
0.0426295
0.0426242
0.0426188
0.0426135
0.0426082
0.042603
0.0425979
0.0341572
0.0385363
0.0396941
0.0398992
0.0401564
0.0403398
0.0405349
0.0406975
0.040833
0.0409472
0.0410516
0.0411478
0.0412396
0.0413281
0.0414152
0.0415009
0.0415847
0.0416652
0.0417417
0.041814
0.041882
0.0419454
0.0420041
0.0420584
0.0421085
0.0421547
0.0421975
0.042237
0.0422739
0.0423084
0.0423407
0.0423708
0.0423986
0.0424244
0.0424484
0.0424705
0.0424908
0.042509
0.0425254
0.0425399
0.0425527
0.0425639
0.0425736
0.042582
0.042589
0.0425948
0.0425994
0.042603
0.0426055
0.0426072
0.042608
0.0426081
0.0426073
0.0426059
0.042604
0.0426016
0.0425987
0.0425955
0.0425919
0.0425881
0.042584
0.0425796
0.0425752
0.0425704
0.0425659
0.0425611
0.0425561
0.0425512
0.042546
0.0425415
0.0425364
0.0425317
0.0425268
0.042522
0.0425173
0.0425127
0.0425082
0.0425039
0.0424998
0.035569
0.0383791
0.039418
0.0398569
0.0401417
0.0403306
0.0405289
0.0406876
0.040815
0.040919
0.0410153
0.0411064
0.0411961
0.0412846
0.0413732
0.0414611
0.041547
0.0416294
0.0417077
0.0417815
0.0418505
0.0419145
0.0419733
0.0420272
0.0420764
0.0421214
0.0421625
0.0422002
0.0422351
0.0422674
0.0422972
0.0423247
0.0423497
0.0423725
0.0423935
0.0424128
0.0424304
0.0424462
0.0424597
0.0424713
0.042481
0.0424893
0.0424964
0.0425023
0.0425072
0.0425111
0.0425141
0.0425163
0.0425176
0.0425183
0.0425183
0.0425177
0.0425165
0.0425149
0.0425128
0.0425105
0.0425078
0.0425048
0.0425016
0.0424981
0.0424945
0.0424907
0.042487
0.0424831
0.0424791
0.0424752
0.0424712
0.0424675
0.0424636
0.0424601
0.0424565
0.0424531
0.0424498
0.0424466
0.0424437
0.0424408
0.0424381
0.0424355
0.042433
0.0366948
0.0384464
0.0392549
0.0398271
0.040145
0.0403512
0.0405456
0.0406919
0.0408089
0.0409037
0.0409914
0.0410763
0.0411625
0.0412495
0.0413378
0.0414258
0.0415121
0.0415952
0.0416741
0.0417484
0.0418178
0.0418819
0.0419407
0.0419942
0.0420428
0.0420868
0.0421267
0.0421629
0.0421962
0.0422267
0.0422547
0.0422802
0.0423032
0.042324
0.0423428
0.0423596
0.0423744
0.0423875
0.0423992
0.0424096
0.0424185
0.0424258
0.0424316
0.0424362
0.0424396
0.0424422
0.042444
0.0424452
0.0424459
0.042446
0.0424456
0.0424448
0.0424437
0.0424422
0.0424405
0.0424386
0.0424365
0.0424341
0.0424317
0.0424291
0.0424265
0.0424239
0.0424211
0.0424185
0.0424157
0.0424131
0.0424105
0.0424079
0.0424054
0.0424028
0.0424003
0.0423977
0.0423951
0.0423926
0.0423901
0.0423876
0.0423852
0.0423828
0.0423806
0.0375748
0.0386346
0.039289
0.0399099
0.040207
0.0404107
0.0405894
0.0407178
0.0408164
0.0408993
0.0409788
0.0410568
0.0411383
0.0412224
0.041309
0.0413958
0.0414813
0.0415637
0.0416421
0.041716
0.041785
0.0418486
0.0419069
0.0419598
0.0420078
0.0420511
0.0420901
0.0421254
0.0421575
0.0421868
0.0422135
0.0422375
0.0422592
0.0422786
0.0422961
0.0423115
0.0423251
0.0423367
0.0423465
0.0423548
0.0423618
0.0423678
0.042373
0.0423773
0.0423808
0.0423835
0.0423854
0.0423867
0.0423874
0.0423876
0.0423875
0.0423869
0.0423861
0.0423851
0.0423838
0.0423823
0.0423807
0.0423789
0.0423771
0.0423751
0.0423731
0.042371
0.0423688
0.0423667
0.0423645
0.0423623
0.0423601
0.0423579
0.0423558
0.0423537
0.0423516
0.0423497
0.0423478
0.0423461
0.0423443
0.042343
0.0423416
0.0423403
0.0423391
0.0382691
0.0388745
0.0393968
0.0400457
0.0402916
0.0404849
0.040646
0.0407577
0.0408399
0.0409071
0.0409764
0.041048
0.041124
0.0412041
0.0412876
0.041372
0.0414554
0.0415361
0.041613
0.0416855
0.0417532
0.0418157
0.0418729
0.0419249
0.0419721
0.0420147
0.0420531
0.0420878
0.0421193
0.0421479
0.0421737
0.0421969
0.0422177
0.0422364
0.042253
0.0422677
0.0422805
0.0422915
0.0423009
0.0423089
0.0423155
0.0423209
0.0423251
0.0423286
0.0423313
0.0423334
0.0423351
0.0423363
0.0423372
0.0423377
0.0423379
0.0423377
0.0423374
0.0423368
0.0423359
0.0423351
0.0423341
0.042333
0.0423319
0.0423307
0.0423295
0.0423283
0.0423271
0.0423259
0.0423247
0.0423235
0.0423223
0.0423212
0.0423201
0.042319
0.0423179
0.0423169
0.0423158
0.042315
0.0423139
0.0423129
0.0423119
0.0423109
0.0423099
0.0388188
0.0391281
0.0395472
0.0402276
0.0404085
0.040582
0.0407183
0.0408113
0.0408764
0.0409283
0.0409838
0.0410469
0.0411178
0.0411934
0.0412731
0.0413543
0.041435
0.0415131
0.0415877
0.0416579
0.0417235
0.0417841
0.0418396
0.0418902
0.0419363
0.0419782
0.042016
0.0420504
0.0420816
0.0421099
0.0421355
0.0421584
0.0421789
0.042197
0.0422133
0.0422277
0.0422404
0.0422513
0.0422604
0.0422681
0.0422747
0.0422803
0.0422851
0.042289
0.0422922
0.0422947
0.0422968
0.0422984
0.0422995
0.0423005
0.0423011
0.0423014
0.0423016
0.0423016
0.0423014
0.0423014
0.0423011
0.0423008
0.0423005
0.0423
0.0422995
0.042299
0.0422983
0.0422976
0.0422969
0.0422961
0.0422954
0.0422946
0.0422937
0.0422931
0.0422922
0.0422916
0.0422909
0.0422903
0.0422896
0.042289
0.0422884
0.0422878
0.0422871
0.0392497
0.0393667
0.0397194
0.040422
0.0405317
0.0406888
0.0408014
0.0408775
0.0409267
0.040964
0.0410058
0.0410563
0.0411191
0.0411898
0.0412655
0.0413429
0.0414204
0.0414954
0.041567
0.0416343
0.0416971
0.041755
0.0418081
0.0418568
0.0419014
0.0419422
0.0419794
0.0420134
0.0420444
0.0420728
0.0420984
0.0421215
0.0421421
0.0421605
0.0421767
0.0421909
0.0422035
0.0422146
0.0422244
0.0422328
0.0422398
0.0422456
0.0422504
0.0422546
0.0422581
0.0422613
0.042264
0.0422663
0.0422682
0.0422697
0.0422711
0.0422721
0.042273
0.0422736
0.042274
0.0422746
0.042275
0.0422751
0.0422752
0.0422753
0.0422752
0.042275
0.0422748
0.0422744
0.0422742
0.0422739
0.0422735
0.0422731
0.0422727
0.0422724
0.0422719
0.0422715
0.0422711
0.0422707
0.0422703
0.0422698
0.0422695
0.0422691
0.0422688
0.0395983
0.039588
0.0399016
0.0406127
0.0406612
0.0408005
0.0408887
0.0409519
0.040989
0.0410138
0.0410418
0.0410784
0.0411288
0.0411919
0.0412631
0.041337
0.0414111
0.0414829
0.0415511
0.041615
0.0416745
0.0417294
0.0417796
0.0418258
0.0418683
0.0419076
0.0419439
0.0419773
0.0420082
0.0420365
0.0420623
0.0420857
0.0421067
0.0421255
0.0421423
0.0421571
0.0421702
0.0421815
0.0421914
0.0422002
0.042208
0.0422151
0.0422212
0.0422264
0.0422307
0.0422344
0.0422375
0.0422403
0.0422427
0.0422448
0.0422467
0.0422483
0.0422498
0.042251
0.0422521
0.0422533
0.0422542
0.0422549
0.0422555
0.0422561
0.0422566
0.0422569
0.0422574
0.0422577
0.042258
0.0422583
0.0422585
0.0422587
0.0422589
0.0422591
0.0422593
0.0422595
0.0422597
0.0422599
0.0422602
0.0422605
0.0422607
0.0422609
0.042261
0.0398791
0.0397887
0.0400882
0.0407821
0.0407993
0.0409203
0.0409768
0.041028
0.0410565
0.0410733
0.041092
0.0411162
0.0411526
0.0412031
0.0412659
0.0413352
0.0414058
0.0414744
0.0415394
0.0416001
0.0416562
0.0417078
0.0417551
0.0417984
0.0418386
0.0418759
0.0419107
0.0419431
0.0419734
0.0420015
0.0420274
0.042051
0.0420725
0.0420918
0.0421092
0.0421248
0.0421387
0.0421511
0.0421621
0.0421718
0.0421802
0.0421877
0.0421945
0.0422006
0.0422061
0.042211
0.0422153
0.0422192
0.0422226
0.0422256
0.0422283
0.0422308
0.042233
0.042235
0.0422367
0.0422385
0.04224
0.0422413
0.0422424
0.0422436
0.0422447
0.0422457
0.0422466
0.0422475
0.0422483
0.042249
0.0422497
0.0422503
0.0422509
0.0422514
0.042252
0.0422524
0.0422529
0.0422533
0.0422537
0.042254
0.0422544
0.0422548
0.0422551
0.0401169
0.039989
0.0402599
0.0409003
0.040948
0.0410393
0.0410632
0.0411032
0.0411267
0.0411385
0.0411505
0.0411651
0.0411888
0.0412256
0.0412763
0.0413374
0.0414034
0.0414686
0.0415307
0.0415885
0.0416417
0.0416904
0.0417348
0.0417755
0.0418131
0.0418482
0.0418811
0.0419121
0.0419412
0.0419687
0.0419943
0.0420179
0.0420396
0.0420594
0.0420774
0.0420937
0.0421085
0.042122
0.0421342
0.0421452
0.042155
0.0421638
0.0421717
0.0421788
0.0421851
0.0421909
0.0421962
0.042201
0.0422054
0.0422093
0.0422129
0.0422162
0.0422193
0.042222
0.0422243
0.0422267
0.0422288
0.0422308
0.0422326
0.0422344
0.042236
0.0422374
0.0422388
0.04224
0.0422412
0.0422422
0.0422432
0.0422441
0.0422449
0.0422457
0.0422464
0.0422471
0.0422477
0.0422483
0.0422489
0.0422494
0.0422499
0.0422503
0.0422507
0.0403246
0.0401871
0.0404518
0.0409653
0.0410948
0.0411347
0.0411445
0.0411763
0.0411957
0.0412043
0.0412132
0.041222
0.0412371
0.0412613
0.0412979
0.0413469
0.0414047
0.0414653
0.0415241
0.0415792
0.04163
0.0416764
0.0417186
0.0417571
0.0417925
0.0418253
0.0418561
0.0418852
0.0419129
0.0419392
0.0419641
0.0419874
0.0420091
0.0420292
0.0420476
0.0420646
0.0420802
0.0420946
0.0421078
0.04212
0.0421311
0.0421412
0.0421505
0.0421589
0.0421665
0.0421735
0.0421798
0.0421855
0.0421908
0.0421956
0.0422
0.0422042
0.0422079
0.0422114
0.0422144
0.0422174
0.04222
0.0422226
0.0422249
0.042227
0.042229
0.0422308
0.0422325
0.042234
0.0422353
0.0422367
0.0422379
0.042239
0.0422401
0.0422411
0.042242
0.0422429
0.0422437
0.0422445
0.0422451
0.0422458
0.0422463
0.0422469
0.0422473
0.0405117
0.0403841
0.0406561
0.0410155
0.0412098
0.0412015
0.0412186
0.0412488
0.0412656
0.0412723
0.041278
0.0412825
0.0412911
0.0413057
0.0413297
0.0413656
0.0414122
0.0414653
0.0415199
0.0415719
0.0416205
0.041665
0.0417056
0.0417425
0.0417762
0.0418072
0.0418361
0.0418634
0.0418893
0.0419142
0.041938
0.0419606
0.041982
0.042002
0.0420207
0.0420382
0.0420545
0.0420696
0.0420836
0.0420966
0.0421087
0.0421198
0.0421301
0.0421396
0.0421485
0.0421566
0.042164
0.0421707
0.0421769
0.0421826
0.0421878
0.0421926
0.042197
0.0422011
0.0422048
0.0422083
0.0422114
0.0422144
0.0422171
0.0422196
0.0422219
0.0422241
0.0422261
0.0422279
0.0422296
0.0422312
0.0422327
0.0422341
0.0422354
0.0422366
0.0422376
0.0422387
0.0422396
0.0422406
0.0422414
0.0422421
0.0422429
0.0422436
0.0422442
0.0406824
0.0405649
0.0408473
0.0410744
0.0413059
0.0412655
0.041292
0.0413199
0.041336
0.0413419
0.0413443
0.0413452
0.0413493
0.0413566
0.0413705
0.041394
0.0414281
0.041471
0.041519
0.0415673
0.0416132
0.0416559
0.0416952
0.0417309
0.0417634
0.0417931
0.0418206
0.0418463
0.0418708
0.0418943
0.0419169
0.0419385
0.0419592
0.0419789
0.0419976
0.0420153
0.0420319
0.0420475
0.0420621
0.0420757
0.0420884
0.0421003
0.0421114
0.0421216
0.0421312
0.0421401
0.0421483
0.0421559
0.0421629
0.0421693
0.0421752
0.0421807
0.0421857
0.0421904
0.0421947
0.0421987
0.0422023
0.0422058
0.0422089
0.0422118
0.0422145
0.042217
0.0422193
0.0422215
0.0422233
0.0422253
0.0422269
0.0422285
0.04223
0.0422314
0.0422326
0.0422339
0.0422349
0.042236
0.0422369
0.0422379
0.0422387
0.0422395
0.0422403
0.0408413
0.0407372
0.0410185
0.0411488
0.0413797
0.0413358
0.0413673
0.0413896
0.0414059
0.0414135
0.0414152
0.0414114
0.04141
0.0414105
0.041416
0.0414292
0.0414518
0.041484
0.0415232
0.0415658
0.0416085
0.041649
0.0416868
0.0417215
0.0417532
0.0417821
0.0418087
0.0418335
0.0418569
0.0418793
0.0419008
0.0419215
0.0419415
0.0419606
0.0419789
0.0419964
0.042013
0.0420287
0.0420436
0.0420576
0.0420707
0.042083
0.0420945
0.0421053
0.0421154
0.0421248
0.0421335
0.0421416
0.0421492
0.0421562
0.0421627
0.0421687
0.0421742
0.0421794
0.0421841
0.0421886
0.0421926
0.0421964
0.0421999
0.0422032
0.0422062
0.042209
0.0422115
0.042214
0.0422161
0.0422183
0.0422202
0.0422221
0.0422238
0.0422255
0.042227
0.0422285
0.0422299
0.0422312
0.0422324
0.0422335
0.0422345
0.0422353
0.0422361
0.0409902
0.040898
0.0411682
0.0412257
0.0414487
0.0414049
0.0414402
0.0414587
0.041476
0.0414859
0.0414884
0.041481
0.041473
0.0414671
0.0414658
0.0414699
0.041482
0.0415036
0.0415334
0.0415687
0.0416067
0.0416443
0.0416803
0.0417138
0.0417449
0.0417734
0.0417997
0.041824
0.0418468
0.0418685
0.0418892
0.0419092
0.0419284
0.0419469
0.0419647
0.0419818
0.0419982
0.0420138
0.0420286
0.0420426
0.0420558
0.0420683
0.04208
0.0420911
0.0421014
0.042111
0.0421201
0.0421285
0.0421364
0.0421437
0.0421505
0.0421568
0.0421628
0.0421683
0.0421735
0.0421784
0.042183
0.0421872
0.0421912
0.0421948
0.0421982
0.0422014
0.0422044
0.0422072
0.0422097
0.0422122
0.0422144
0.0422164
0.0422183
0.04222
0.0422216
0.0422231
0.0422244
0.0422256
0.0422268
0.0422279
0.042229
0.04223
0.042231
0.0411279
0.041045
0.0412976
0.0413025
0.0415139
0.0414722
0.0415121
0.041528
0.0415466
0.041559
0.0415633
0.0415549
0.0415401
0.0415256
0.041517
0.0415144
0.0415178
0.0415291
0.0415493
0.0415767
0.0416087
0.0416425
0.041676
0.041708
0.0417383
0.0417666
0.0417929
0.0418173
0.0418401
0.0418615
0.0418818
0.0419012
0.0419199
0.0419378
0.041955
0.0419715
0.0419873
0.0420024
0.0420169
0.0420306
0.0420436
0.0420559
0.0420676
0.0420785
0.0420888
0.0420985
0.0421076
0.0421162
0.0421242
0.0421317
0.0421388
0.0421454
0.0421517
0.0421576
0.0421631
0.0421683
0.0421732
0.0421777
0.0421819
0.0421858
0.0421894
0.0421928
0.0421959
0.0421988
0.0422015
0.042204
0.0422064
0.0422086
0.0422106
0.0422126
0.0422144
0.0422161
0.0422177
0.0422192
0.0422207
0.042222
0.0422233
0.0422245
0.0422256
0.041252
0.0411704
0.0414033
0.0413847
0.0415838
0.0415385
0.0415809
0.0415953
0.0416162
0.0416315
0.0416379
0.0416297
0.0416112
0.0415887
0.0415708
0.0415608
0.0415579
0.0415609
0.0415712
0.04159
0.0416151
0.0416439
0.0416743
0.0417045
0.0417338
0.0417618
0.0417882
0.0418129
0.0418359
0.0418575
0.0418777
0.041897
0.0419152
0.0419326
0.0419492
0.041965
0.0419801
0.0419945
0.0420082
0.0420213
0.0420338
0.0420457
0.0420569
0.0420675
0.0420776
0.0420871
0.0420961
0.0421046
0.0421127
0.0421203
0.0421275
0.0421342
0.0421406
0.0421465
0.0421521
0.0421573
0.0421623
0.0421669
0.0421712
0.0421753
0.0421791
0.0421827
0.042186
0.0421891
0.042192
0.0421947
0.0421973
0.0421997
0.042202
0.0422042
0.0422062
0.0422082
0.04221
0.0422117
0.0422134
0.0422149
0.0422164
0.0422178
0.0422191
0.0413633
0.0412799
0.0414934
0.0414663
0.041655
0.0416037
0.0416455
0.0416591
0.0416831
0.0417024
0.0417115
0.0417046
0.0416855
0.0416565
0.0416289
0.0416094
0.0415996
0.0415968
0.0415993
0.0416088
0.0416262
0.0416492
0.0416756
0.0417035
0.0417315
0.0417589
0.0417853
0.0418103
0.0418336
0.0418554
0.0418758
0.0418949
0.0419129
0.0419299
0.041946
0.0419613
0.0419756
0.0419892
0.0420022
0.0420145
0.0420262
0.0420373
0.042048
0.0420581
0.0420677
0.0420768
0.0420855
0.0420937
0.0421016
0.042109
0.0421161
0.0421227
0.0421289
0.0421348
0.0421404
0.0421458
0.0421509
0.0421557
0.0421602
0.0421645
0.0421685
0.0421722
0.0421758
0.0421791
0.0421823
0.0421852
0.0421881
0.0421907
0.0421933
0.0421957
0.0421979
0.0422
0.0422021
0.0422039
0.0422057
0.0422074
0.0422089
0.0422103
0.0422117
0.0414638
0.0413778
0.0415739
0.0415434
0.0417225
0.0416662
0.0417062
0.0417199
0.0417471
0.0417709
0.0417829
0.0417772
0.0417588
0.0417268
0.041692
0.0416627
0.0416437
0.0416344
0.0416316
0.0416339
0.0416428
0.0416591
0.0416806
0.0417053
0.0417316
0.0417582
0.0417843
0.0418093
0.0418329
0.041855
0.0418755
0.0418946
0.0419123
0.041929
0.0419446
0.0419593
0.041973
0.0419859
0.0419981
0.0420097
0.0420207
0.0420311
0.0420411
0.0420505
0.0420596
0.0420682
0.0420764
0.0420842
0.0420917
0.0420987
0.0421054
0.0421118
0.042118
0.0421238
0.0421294
0.0421347
0.0421397
0.0421444
0.0421489
0.0421531
0.0421571
0.0421609
0.0421645
0.042168
0.0421713
0.0421745
0.0421775
0.0421803
0.042183
0.0421855
0.0421878
0.04219
0.0421921
0.0421941
0.0421959
0.0421977
0.0421993
0.0422008
0.0422023
0.0415545
0.0414661
0.0416476
0.0416163
0.0417862
0.0417262
0.0417638
0.0417784
0.0418083
0.0418367
0.0418517
0.0418474
0.0418306
0.0417984
0.0417592
0.0417214
0.0416923
0.0416743
0.0416656
0.0416631
0.0416654
0.0416741
0.0416899
0.0417105
0.0417342
0.0417594
0.0417849
0.0418099
0.0418338
0.0418561
0.0418769
0.041896
0.0419136
0.0419299
0.0419449
0.0419589
0.041972
0.0419843
0.0419959
0.0420068
0.0420171
0.0420269
0.0420362
0.0420451
0.0420535
0.0420616
0.0420694
0.0420768
0.0420838
0.0420905
0.0420969
0.0421031
0.042109
0.0421147
0.0421201
0.0421251
0.0421299
0.0421344
0.0421388
0.0421429
0.0421469
0.0421507
0.0421544
0.0421579
0.0421611
0.0421641
0.042167
0.0421696
0.0421721
0.0421744
0.0421766
0.0421787
0.0421807
0.0421826
0.0421844
0.042186
0.0421877
0.0421892
0.0421907
0.0416359
0.0415465
0.0417164
0.0416858
0.0418468
0.0417842
0.0418193
0.0418354
0.0418675
0.0418998
0.0419176
0.0419147
0.0418995
0.0418682
0.0418275
0.0417842
0.0417464
0.0417187
0.041702
0.0416943
0.0416926
0.0416954
0.0417045
0.0417202
0.0417404
0.0417633
0.0417875
0.0418119
0.0418356
0.0418581
0.0418791
0.0418984
0.0419161
0.0419322
0.0419469
0.0419604
0.0419729
0.0419846
0.0419955
0.0420058
0.0420156
0.0420248
0.0420336
0.0420419
0.0420499
0.0420575
0.0420649
0.0420718
0.0420785
0.0420849
0.042091
0.0420969
0.0421025
0.0421079
0.0421129
0.0421178
0.0421224
0.0421268
0.042131
0.042135
0.0421389
0.0421425
0.042146
0.0421493
0.0421523
0.0421552
0.0421579
0.0421605
0.042163
0.0421653
0.0421676
0.0421697
0.0421717
0.0421737
0.0421755
0.0421772
0.0421789
0.0421805
0.0421819
0.0417089
0.0416203
0.041781
0.0417519
0.0419044
0.0418407
0.0418732
0.0418915
0.041925
0.0419602
0.0419805
0.0419792
0.0419658
0.0419362
0.0418962
0.0418503
0.0418057
0.0417686
0.0417427
0.0417279
0.0417219
0.0417214
0.041725
0.0417348
0.0417504
0.0417701
0.041792
0.0418147
0.0418375
0.0418595
0.0418804
0.0418998
0.0419176
0.041934
0.0419489
0.0419625
0.0419749
0.0419863
0.0419968
0.0420067
0.042016
0.0420248
0.0420331
0.0420411
0.0420487
0.0420559
0.0420628
0.0420695
0.0420758
0.0420819
0.0420878
0.0420934
0.0420987
0.0421037
0.0421086
0.0421132
0.0421176
0.0421217
0.0421257
0.0421295
0.042133
0.0421364
0.0421395
0.0421425
0.0421453
0.042148
0.0421505
0.0421529
0.0421552
0.0421574
0.0421594
0.0421614
0.0421632
0.0421649
0.0421665
0.042168
0.0421695
0.0421708
0.042172
0.0417747
0.0416879
0.0418421
0.0418148
0.0419591
0.0418958
0.0419261
0.0419471
0.0419815
0.0420184
0.0420404
0.0420409
0.0420294
0.0420017
0.0419631
0.0419166
0.0418679
0.0418237
0.041789
0.041766
0.041754
0.0417502
0.0417509
0.0417554
0.0417654
0.0417805
0.0417989
0.0418191
0.0418401
0.0418608
0.041881
0.0419
0.0419179
0.0419344
0.0419496
0.0419636
0.0419763
0.041988
0.0419987
0.0420086
0.0420177
0.0420262
0.0420343
0.0420419
0.0420493
0.0420563
0.0420629
0.0420693
0.0420754
0.0420813
0.0420869
0.0420921
0.0420971
0.0421019
0.0421064
0.0421107
0.0421148
0.0421187
0.0421223
0.0421257
0.0421289
0.0421319
0.0421347
0.0421374
0.0421399
0.0421423
0.0421445
0.0421467
0.0421487
0.0421506
0.0421524
0.042154
0.0421556
0.0421571
0.0421585
0.0421599
0.0421611
0.0421622
0.0421633
0.0418347
0.0417503
0.0418993
0.041874
0.042011
0.0419492
0.041978
0.042002
0.0420369
0.0420742
0.0420976
0.0420999
0.0420901
0.0420646
0.0420281
0.0419826
0.0419328
0.0418835
0.0418412
0.0418096
0.04179
0.0417813
0.0417794
0.0417807
0.0417856
0.0417951
0.0418088
0.0418255
0.0418437
0.0418626
0.0418814
0.0418997
0.0419172
0.0419338
0.0419492
0.0419635
0.0419767
0.0419889
0.042
0.0420103
0.0420198
0.0420285
0.0420367
0.0420443
0.0420514
0.0420581
0.0420645
0.0420706
0.0420765
0.0420821
0.0420874
0.0420924
0.0420972
0.0421016
0.0421058
0.0421098
0.0421135
0.042117
0.0421202
0.0421233
0.0421261
0.0421288
0.0421313
0.0421337
0.0421359
0.042138
0.0421399
0.0421418
0.0421435
0.0421451
0.0421466
0.042148
0.0421494
0.0421506
0.0421518
0.0421529
0.0421539
0.0421549
0.0421557
0.0418897
0.0418082
0.0419536
0.0419298
0.0420599
0.0420012
0.0420285
0.0420558
0.0420906
0.0421278
0.0421523
0.0421563
0.0421479
0.0421249
0.0420908
0.0420471
0.041998
0.0419467
0.0418986
0.0418596
0.0418319
0.0418161
0.0418101
0.0418091
0.0418103
0.0418146
0.0418229
0.0418349
0.0418495
0.0418657
0.0418827
0.0418997
0.0419165
0.0419327
0.0419481
0.0419626
0.0419762
0.0419888
0.0420005
0.0420113
0.0420213
0.0420304
0.0420389
0.0420468
0.0420542
0.042061
0.0420673
0.0420732
0.0420788
0.042084
0.0420889
0.0420935
0.0420978
0.0421019
0.0421057
0.0421093
0.0421127
0.0421159
0.0421188
0.0421216
0.0421241
0.0421265
0.0421287
0.0421308
0.0421327
0.0421344
0.0421361
0.0421376
0.042139
0.0421403
0.0421416
0.0421427
0.0421438
0.0421448
0.0421457
0.0421466
0.0421474
0.0421481
0.0421488
0.0419408
0.0418627
0.0420049
0.0419825
0.0421051
0.0420521
0.0420786
0.0421081
0.0421424
0.0421789
0.0422042
0.0422097
0.0422027
0.0421823
0.0421511
0.0421099
0.0420624
0.0420114
0.0419609
0.0419157
0.04188
0.0418557
0.041843
0.0418383
0.0418371
0.0418377
0.0418409
0.0418478
0.0418581
0.041871
0.0418855
0.0419009
0.0419166
0.0419321
0.0419471
0.0419616
0.0419753
0.0419882
0.0420004
0.0420117
0.0420221
0.0420318
0.0420407
0.0420489
0.0420565
0.0420635
0.04207
0.0420759
0.0420814
0.0420865
0.0420911
0.0420954
0.0420993
0.042103
0.0421064
0.0421095
0.0421125
0.0421152
0.0421177
0.0421201
0.0421223
0.0421242
0.0421261
0.0421278
0.0421293
0.0421308
0.0421321
0.0421333
0.0421345
0.0421355
0.0421365
0.0421374
0.0421382
0.042139
0.0421397
0.0421403
0.0421409
0.0421414
0.0421418
0.0419884
0.0419141
0.0420542
0.0420328
0.042145
0.0421037
0.0421292
0.0421587
0.0421918
0.0422274
0.0422533
0.0422601
0.0422544
0.0422368
0.0422089
0.0421707
0.0421257
0.0420763
0.0420256
0.0419767
0.0419344
0.0419018
0.0418804
0.0418693
0.0418645
0.0418627
0.0418626
0.0418648
0.0418704
0.0418793
0.0418908
0.0419039
0.041918
0.0419325
0.0419469
0.0419611
0.0419747
0.0419877
0.042
0.0420116
0.0420225
0.0420326
0.0420419
0.0420504
0.0420583
0.0420655
0.0420721
0.0420781
0.0420836
0.0420886
0.0420931
0.0420972
0.0421009
0.0421043
0.0421073
0.0421101
0.0421126
0.0421148
0.0421169
0.0421188
0.0421205
0.0421221
0.0421235
0.0421248
0.042126
0.0421271
0.042128
0.0421289
0.0421297
0.0421304
0.0421311
0.0421316
0.0421322
0.0421326
0.042133
0.0421334
0.0421336
0.0421339
0.0421341
0.0420325
0.0419625
0.0421006
0.0420825
0.0421765
0.0421589
0.042181
0.0422089
0.0422396
0.0422734
0.0422994
0.0423073
0.0423029
0.0422881
0.0422638
0.0422293
0.0421876
0.0421406
0.042091
0.0420411
0.0419941
0.041954
0.0419232
0.0419034
0.0418928
0.0418877
0.0418854
0.0418848
0.0418864
0.0418909
0.0418988
0.0419092
0.0419213
0.0419343
0.0419478
0.0419613
0.0419746
0.0419875
0.0419998
0.0420116
0.0420226
0.0420329
0.0420425
0.0420513
0.0420594
0.0420668
0.0420735
0.0420795
0.042085
0.0420898
0.0420942
0.0420981
0.0421017
0.0421048
0.0421076
0.0421101
0.0421123
0.0421143
0.042116
0.0421175
0.0421188
0.04212
0.042121
0.0421219
0.0421226
0.0421233
0.0421239
0.0421244
0.0421248
0.0421251
0.0421254
0.0421256
0.0421258
0.0421259
0.042126
0.042126
0.042126
0.042126
0.042126
0.0420729
0.042007
0.0421418
0.0421305
0.0422058
0.0422188
0.0422337
0.0422582
0.0422863
0.0423173
0.0423426
0.0423513
0.0423483
0.0423363
0.0423158
0.0422856
0.0422478
0.042204
0.0421562
0.0421065
0.0420572
0.0420109
0.041972
0.0419429
0.0419244
0.0419141
0.0419087
0.0419061
0.0419054
0.0419066
0.0419105
0.0419175
0.041927
0.0419381
0.0419501
0.0419626
0.0419752
0.0419877
0.0419999
0.0420115
0.0420225
0.0420329
0.0420425
0.0420514
0.0420596
0.042067
0.0420737
0.0420797
0.0420851
0.0420899
0.0420942
0.042098
0.0421013
0.0421043
0.0421069
0.0421091
0.0421111
0.0421127
0.0421141
0.0421153
0.0421163
0.0421171
0.0421178
0.0421183
0.0421187
0.042119
0.0421192
0.0421193
0.0421193
0.0421193
0.0421193
0.0421192
0.042119
0.0421189
0.0421186
0.0421184
0.0421182
0.0421181
0.0421179
0.0421091
0.0420468
0.0421775
0.0421801
0.0422411
0.0422792
0.0422842
0.0423071
0.0423319
0.0423595