/*--------------------------------*- C++ -*----------------------------------*\
| =========                 |                                                 |
| \\      /  F ield         | OpenFOAM: The Open Source CFD Toolbox           |
|  \\    /   O peration     | Version:  2412                                  |
|   \\  /    A nd           | Website:  www.openfoam.com                      |
|    \\/     M anipulation  |                                                 |
\*---------------------------------------------------------------------------*/
FoamFile
{
    version     2.0;
    format      ascii;
    arch        "LSB;label=32;scalar=64";
    class       volScalarField;
    location    "0.053";
    object      rho;
}
// * * * * * * * * * * * * * * * * * * * * * * * * * * * * * * * * * * * * * //

dimensions      [1 -3 0 0 0 0 0];

internalField   nonuniform List<scalar> 
9922
(
0.0558137
0.043573
0.0431229
0.0433136
0.0433558
0.0434227
0.0434543
0.0434722
0.0434687
0.0434443
0.043402
0.0433426
0.0432713
0.0431942
0.0431171
0.0430433
0.0429732
0.0429057
0.0428377
0.0427656
0.0426862
0.0425975
0.042499
0.0423908
0.0422734
0.0421475
0.0420131
0.0418699
0.0417177
0.0415565
0.0413862
0.0412064
0.0410161
0.0408142
0.0405992
0.0403697
0.0401242
0.0398608
0.0395772
0.0392702
0.038936
0.0385697
0.038165
0.0377151
0.0372119
0.0366416
0.0359874
0.0352551
0.0344778
0.0336915
0.0329282
0.0322047
0.0315223
0.0308808
0.0302721
0.0296839
0.0291105
0.0285507
0.0280089
0.0274927
0.0270025
0.0265297
0.0260699
0.0256262
0.0252059
0.0248165
0.0244619
0.0241423
0.023856
0.0235993
0.0233675
0.023156
0.0229586
0.0227705
0.0225998
0.0224436
0.0222972
0.0221595
0.0220307
0.0219086
0.0217952
0.0216872
0.0215864
0.0214894
0.0213977
0.0213085
0.0212233
0.0211414
0.0210641
0.0209897
0.0209181
0.0208489
0.0207823
0.0207181
0.0206565
0.0205976
0.0205411
0.0204867
0.0204341
0.0203839
0.0203357
0.0202893
0.020244
0.0202003
0.0201582
0.0201185
0.0200809
0.0200467
0.020015
0.0199855
0.0199549
0.0199215
0.0198835
0.0198438
0.0198032
0.0197578
0.0197104
0.0196623
0.0196198
0.0195818
0.0195399
0.0558257
0.0435647
0.043107
0.0433022
0.0433479
0.043417
0.0434501
0.0434685
0.0434649
0.0434404
0.0433979
0.0433384
0.0432672
0.0431904
0.0431137
0.0430402
0.0429704
0.042903
0.042835
0.0427628
0.0426831
0.0425942
0.0424954
0.0423868
0.0422692
0.0421431
0.0420086
0.0418652
0.0417126
0.041551
0.0413802
0.0411999
0.041009
0.0408064
0.0405905
0.04036
0.0401131
0.039848
0.0395621
0.0392524
0.038915
0.0385447
0.0381357
0.037681
0.037172
0.036595
0.0359384
0.0352131
0.0344501
0.0336833
0.0329408
0.0322346
0.031569
0.0309372
0.030333
0.0297548
0.0291972
0.0286545
0.0281208
0.0275947
0.027085
0.0266032
0.0261493
0.0257173
0.0253051
0.0249152
0.0245513
0.024217
0.0239136
0.0236407
0.0233957
0.0231761
0.02298
0.0228021
0.0226342
0.022478
0.0223307
0.0221917
0.0220601
0.0219335
0.0218146
0.0217014
0.0215966
0.0214965
0.0214019
0.0213101
0.021223
0.0211398
0.0210616
0.0209866
0.0209146
0.0208455
0.0207794
0.0207161
0.0206556
0.0205978
0.0205421
0.0204885
0.020437
0.0203879
0.0203405
0.0202947
0.0202498
0.0202064
0.0201647
0.0201255
0.0200885
0.0200545
0.0200225
0.0199927
0.0199619
0.0199287
0.0198909
0.0198519
0.0198122
0.0197682
0.0197222
0.0196759
0.0196347
0.0195981
0.0195593
0.0558374
0.0435567
0.0430909
0.0432908
0.0433398
0.0434112
0.0434457
0.0434646
0.0434611
0.0434364
0.0433937
0.0433341
0.043263
0.0431865
0.0431102
0.0430371
0.0429676
0.0429003
0.0428323
0.0427599
0.0426801
0.0425908
0.0424917
0.0423829
0.042265
0.0421388
0.042004
0.0418604
0.0417075
0.0415455
0.0413742
0.0411933
0.0410019
0.0407986
0.0405819
0.0403503
0.0401022
0.0398354
0.0395474
0.0392352
0.0388947
0.0385208
0.0381077
0.0376485
0.0371342
0.0365522
0.0358954
0.0351774
0.0344279
0.0336807
0.0329598
0.0322749
0.031625
0.0310041
0.030406
0.0298271
0.0292678
0.0287297
0.0282112
0.0277042
0.0272022
0.0267081
0.0262332
0.0257876
0.0253727
0.0249856
0.0246248
0.0242915
0.0239868
0.0237099
0.0234577
0.0232262
0.0230125
0.0228203
0.022647
0.022489
0.0223415
0.0222039
0.0220745
0.0219508
0.0218341
0.0217218
0.0216167
0.0215159
0.0214209
0.0213292
0.0212426
0.0211597
0.0210812
0.0210056
0.0209327
0.0208626
0.0207956
0.0207314
0.0206701
0.020611
0.020554
0.0204996
0.020448
0.0203988
0.0203511
0.0203049
0.0202599
0.0202165
0.0201748
0.0201358
0.0200992
0.0200655
0.0200335
0.0200032
0.0199719
0.0199382
0.0198999
0.0198596
0.019818
0.0197724
0.0197246
0.0196765
0.0196339
0.0195959
0.0195549
0.0558488
0.0435491
0.0430749
0.0432793
0.0433316
0.0434053
0.0434413
0.0434607
0.0434571
0.0434323
0.0433894
0.0433297
0.0432587
0.0431826
0.0431067
0.043034
0.0429647
0.0428976
0.0428295
0.042757
0.042677
0.0425875
0.042488
0.0423789
0.0422608
0.0421343
0.0419994
0.0418556
0.0417024
0.04154
0.0413682
0.0411868
0.0409947
0.0407908
0.0405734
0.0403408
0.0400914
0.039823
0.0395331
0.0392185
0.0388751
0.0384978
0.0380809
0.0376175
0.0370986
0.0365128
0.0358562
0.0351456
0.0344129
0.0336893
0.0329903
0.0323229
0.0316877
0.0310805
0.0304949
0.029925
0.029367
0.0288209
0.0282913
0.0277841
0.0272965
0.0268198
0.0263514
0.025896
0.0254618
0.0250559
0.0246817
0.02434
0.0240305
0.0237514
0.0234996
0.0232713
0.0230615
0.022867
0.0226864
0.0225214
0.0223678
0.0222252
0.0220917
0.0219652
0.0218466
0.0217331
0.0216263
0.0215234
0.0214264
0.0213338
0.0212474
0.0211651
0.0210871
0.021012
0.0209398
0.0208705
0.0208043
0.0207411
0.0206803
0.0206216
0.0205649
0.0205112
0.0204604
0.0204117
0.0203641
0.020318
0.0202731
0.0202298
0.0201881
0.0201487
0.0201118
0.0200784
0.0200471
0.0200177
0.019987
0.0199543
0.0199174
0.0198791
0.0198394
0.0197949
0.0197478
0.0196999
0.0196569
0.0196194
0.0195784
0.0558597
0.0435418
0.0430588
0.0432677
0.0433233
0.0433994
0.0434367
0.0434566
0.043453
0.0434281
0.0433849
0.0433251
0.0432543
0.0431786
0.0431032
0.0430309
0.0429619
0.0428948
0.0428267
0.0427541
0.0426738
0.042584
0.0424843
0.0423748
0.0422565
0.0421299
0.0419948
0.0418508
0.0416973
0.0415345
0.0413623
0.0411803
0.0409877
0.0407831
0.0405649
0.0403314
0.0400808
0.039811
0.0395192
0.0392023
0.0388561
0.0384758
0.0380553
0.0375881
0.0370651
0.036476
0.0358215
0.0351223
0.0344085
0.0337026
0.0330169
0.0323612
0.0317347
0.0311359
0.0305612
0.0300051
0.0294632
0.0289312
0.0284049
0.0278848
0.0273808
0.0269008
0.0264424
0.0260001
0.0255733
0.025165
0.0247795
0.0244213
0.0240941
0.0237992
0.0235346
0.0232969
0.0230835
0.0228907
0.0227122
0.0225483
0.0223952
0.0222533
0.0221206
0.021995
0.0218775
0.0217643
0.0216572
0.0215527
0.0214533
0.021358
0.0212688
0.0211838
0.0211028
0.0210247
0.0209498
0.0208782
0.0208103
0.0207456
0.0206834
0.0206234
0.0205659
0.0205117
0.0204604
0.0204111
0.0203628
0.0203162
0.0202712
0.0202281
0.0201864
0.020147
0.0201101
0.0200767
0.0200456
0.0200159
0.0199843
0.0199504
0.0199121
0.0198729
0.0198332
0.0197896
0.0197435
0.0196966
0.0196537
0.0196174
0.0195792
0.0558703
0.0435349
0.0430427
0.0432561
0.043315
0.0433933
0.0434321
0.0434525
0.0434489
0.0434238
0.0433804
0.0433205
0.0432499
0.0431746
0.0430997
0.0430278
0.042959
0.042892
0.0428239
0.0427512
0.0426707
0.0425806
0.0424805
0.0423708
0.0422522
0.0421254
0.0419902
0.0418459
0.0416922
0.041529
0.0413563
0.0411738
0.0409806
0.0407754
0.0405564
0.0403221
0.0400704
0.0397991
0.0395056
0.0391865
0.0388378
0.0384545
0.0380308
0.0375601
0.0370332
0.0364423
0.0357928
0.0351067
0.0344091
0.0337167
0.0330468
0.0324071
0.0317966
0.0312082
0.0306354
0.0300779
0.0295369
0.0290134
0.0285046
0.028002
0.0275011
0.0270064
0.0265291
0.0260774
0.0256515
0.0252485
0.0248677
0.0245109
0.0241809
0.0238796
0.0236061
0.0233573
0.0231296
0.0229226
0.0227345
0.022564
0.0224064
0.0222614
0.0221265
0.022
0.0218826
0.0217702
0.0216643
0.0215612
0.0214636
0.02137
0.0212825
0.0211986
0.0211186
0.0210415
0.0209677
0.020897
0.0208296
0.020765
0.0207024
0.0206421
0.0205848
0.0205304
0.0204783
0.0204279
0.0203789
0.0203319
0.020287
0.0202441
0.0202025
0.020163
0.0201258
0.0200921
0.0200612
0.0200322
0.0200014
0.0199676
0.0199284
0.0198872
0.0198449
0.0197992
0.0197508
0.0197018
0.0196573
0.0196197
0.0195813
0.0558805
0.0435283
0.0430266
0.0432445
0.0433066
0.0433872
0.0434274
0.0434482
0.0434447
0.0434195
0.0433758
0.0433158
0.0432454
0.0431705
0.0430961
0.0430246
0.0429561
0.0428892
0.0428211
0.0427482
0.0426675
0.0425771
0.0424767
0.0423667
0.0422479
0.0421209
0.0419855
0.0418411
0.0416871
0.0415235
0.0413504
0.0411674
0.0409736
0.0407677
0.0405481
0.0403129
0.0400601
0.0397874
0.0394923
0.0391712
0.0388201
0.038434
0.0380074
0.0375334
0.0370033
0.0364126
0.0357702
0.0350959
0.0344107
0.0337338
0.0330845
0.0324637
0.0318667
0.0312893
0.0307276
0.0301772
0.0296359
0.0291041
0.0285874
0.0280894
0.0276051
0.0271268
0.0266533
0.02619
0.0257449
0.025325
0.0249331
0.0245703
0.0242368
0.0239326
0.0236572
0.0234078
0.023181
0.0229738
0.0227829
0.022608
0.0224454
0.0222953
0.0221551
0.0220235
0.0219013
0.021785
0.0216764
0.0215716
0.0214727
0.0213775
0.0212878
0.0212016
0.0211193
0.0210405
0.0209657
0.0208947
0.0208272
0.0207623
0.0206995
0.0206395
0.0205826
0.0205283
0.0204756
0.0204249
0.0203761
0.0203298
0.0202854
0.0202426
0.0202011
0.0201614
0.0201239
0.0200901
0.0200594
0.0200316
0.0200027
0.0199714
0.0199348
0.0198969
0.0198577
0.0198139
0.019767
0.019719
0.0196756
0.0196381
0.0195984
0.0558902
0.0435221
0.0430104
0.0432328
0.0432982
0.043381
0.0434226
0.0434439
0.0434404
0.043415
0.0433711
0.0433111
0.0432408
0.0431664
0.0430925
0.0430214
0.0429531
0.0428864
0.0428182
0.0427452
0.0426642
0.0425736
0.0424729
0.0423626
0.0422435
0.0421163
0.0419808
0.0418362
0.041682
0.0415181
0.0413445
0.041161
0.0409666
0.0407601
0.0405398
0.0403037
0.0400499
0.039776
0.0394792
0.0391562
0.0388028
0.0384142
0.0379849
0.0375079
0.0369759
0.0363871
0.0357513
0.035087
0.0344165
0.0337613
0.0331292
0.0325163
0.031925
0.0313551
0.0308034
0.0302657
0.0297386
0.0292183
0.0287013
0.0281899
0.0276927
0.0272152
0.0267539
0.0263042
0.0258663
0.025443
0.0250388
0.0246585
0.0243073
0.0239878
0.0236998
0.0234407
0.0232075
0.0229966
0.0228043
0.0226286
0.0224654
0.022315
0.0221748
0.0220434
0.0219214
0.0218048
0.0216959
0.021591
0.0214925
0.0213981
0.021309
0.0212229
0.0211401
0.0210602
0.0209843
0.020912
0.0208431
0.0207769
0.0207132
0.0206525
0.0205945
0.020539
0.0204855
0.0204346
0.0203863
0.0203404
0.0202959
0.0202528
0.0202111
0.0201716
0.0201345
0.0201009
0.0200699
0.0200417
0.0200124
0.0199805
0.0199428
0.0199026
0.0198601
0.019813
0.0197629
0.019713
0.0196685
0.0196313
0.0195922
0.0558993
0.0435163
0.0429943
0.0432211
0.0432898
0.0433748
0.0434178
0.0434395
0.0434359
0.0434104
0.0433663
0.0433062
0.0432361
0.0431621
0.0430888
0.0430182
0.0429502
0.0428835
0.0428153
0.0427421
0.042661
0.0425701
0.0424691
0.0423585
0.0422392
0.0421118
0.0419761
0.0418313
0.0416769
0.0415126
0.0413387
0.0411546
0.0409597
0.0407526
0.0405315
0.0402947
0.0400398
0.0397647
0.0394664
0.0391416
0.0387861
0.0383952
0.0379634
0.0374841
0.0369512
0.036365
0.0357365
0.035085
0.0344311
0.0337919
0.033167
0.0325641
0.0319856
0.0314246
0.0308762
0.03034
0.0298171
0.0293079
0.0288088
0.0283124
0.0278155
0.0273229
0.0268451
0.0263887
0.0259538
0.0255378
0.0251401
0.0247623
0.0244079
0.0240805
0.0237821
0.0235115
0.0232662
0.023043
0.0228401
0.0226567
0.0224883
0.0223335
0.0221891
0.0220538
0.0219279
0.0218078
0.0216958
0.0215886
0.0214893
0.0213946
0.0213058
0.0212204
0.0211388
0.0210605
0.0209861
0.020915
0.0208468
0.0207811
0.0207179
0.0206573
0.0205988
0.0205428
0.0204894
0.020439
0.0203909
0.0203445
0.020299
0.020255
0.0202127
0.020173
0.0201361
0.0201025
0.0200714
0.0200428
0.0200136
0.0199825
0.019946
0.0199075
0.0198666
0.0198198
0.0197685
0.0197172
0.0196712
0.0196329
0.0195943
0.055908
0.0435109
0.0429782
0.0432093
0.0432813
0.0433685
0.0434128
0.043435
0.0434314
0.0434057
0.0433614
0.0433012
0.0432314
0.0431579
0.043085
0.0430149
0.0429472
0.0428806
0.0428124
0.0427391
0.0426577
0.0425666
0.0424652
0.0423543
0.0422348
0.0421072
0.0419713
0.0418264
0.0416718
0.0415072
0.0413329
0.0411484
0.0409529
0.0407451
0.0405234
0.0402857
0.0400299
0.0397536
0.0394539
0.0391274
0.0387699
0.0383769
0.037943
0.0374619
0.0369289
0.0363463
0.0357264
0.0350882
0.0344504
0.0338215
0.033209
0.0326238
0.0320596
0.0315101
0.0309716
0.0304404
0.0299153
0.0293988
0.0288952
0.0284064
0.0279268
0.0274498
0.0269746
0.0265065
0.0260532
0.0256214
0.0252144
0.0248327
0.0244767
0.0241472
0.0238457
0.0235716
0.0233233
0.0230976
0.0228917
0.0227042
0.0225313
0.0223731
0.022226
0.0220882
0.0219593
0.0218357
0.0217201
0.0216096
0.0215075
0.0214102
0.0213185
0.0212303
0.0211467
0.0210672
0.0209923
0.0209206
0.0208517
0.0207853
0.0207215
0.0206601
0.0206007
0.020544
0.0204908
0.0204406
0.020392
0.0203447
0.0202983
0.0202537
0.0202111
0.0201713
0.0201343
0.0201006
0.0200691
0.02004
0.0200099
0.0199779
0.0199409
0.0199025
0.0198629
0.0198189
0.0197713
0.0197226
0.0196787
0.0196407
0.0196006
0.0559159
0.043506
0.0429621
0.0431975
0.0432728
0.0433622
0.0434076
0.0434303
0.0434266
0.0434009
0.0433563
0.0432961
0.0432265
0.0431535
0.0430813
0.0430116
0.0429442
0.0428777
0.0428095
0.042736
0.0426544
0.042563
0.0424613
0.0423501
0.0422303
0.0421025
0.0419665
0.0418215
0.0416667
0.0415019
0.0413271
0.0411421
0.0409461
0.0407378
0.0405154
0.0402769
0.0400202
0.0397427
0.0394417
0.0391135
0.0387543
0.0383595
0.0379238
0.0374415
0.0369092
0.036331
0.0357203
0.0350958
0.0344701
0.0338526
0.0332592
0.0326886
0.0321304
0.0315861
0.0310549
0.030535
0.0300232
0.0295156
0.0290097
0.0285082
0.0280185
0.0275445
0.0270824
0.0266285
0.0261827
0.0257478
0.0253281
0.0249288
0.0245553
0.024211
0.0238973
0.0236134
0.0233574
0.023126
0.0229159
0.0227244
0.0225484
0.022388
0.0222392
0.0221004
0.0219712
0.0218481
0.0217338
0.0216245
0.0215232
0.0214258
0.0213338
0.0212452
0.0211617
0.0210822
0.021007
0.020935
0.0208657
0.0207989
0.0207347
0.0206728
0.0206131
0.0205565
0.0205033
0.0204527
0.0204033
0.0203552
0.0203087
0.0202645
0.0202223
0.0201825
0.0201452
0.0201113
0.0200802
0.0200514
0.0200212
0.0199885
0.0199503
0.0199098
0.0198678
0.0198216
0.0197714
0.019721
0.0196754
0.019637
0.0195965
0.0559233
0.0435015
0.0429461
0.0431857
0.0432642
0.0433557
0.0434024
0.0434254
0.0434218
0.0433958
0.0433511
0.0432909
0.0432216
0.0431491
0.0430775
0.0430083
0.0429412
0.0428748
0.0428065
0.0427329
0.0426511
0.0425594
0.0424574
0.0423459
0.0422258
0.0420979
0.0419617
0.0418165
0.0416615
0.0414965
0.0413214
0.041136
0.0409395
0.0407305
0.0405074
0.0402682
0.0400106
0.0397321
0.0394297
0.0391001
0.0387393
0.038343
0.0379058
0.0374228
0.0368921
0.0363198
0.0357197
0.0351057
0.0344908
0.0338904
0.0333108
0.0327415
0.0321885
0.0316524
0.0311278
0.0306122
0.0301066
0.0296114
0.029123
0.0286348
0.0281442
0.0276559
0.0271791
0.0267196
0.0262781
0.025852
0.0254405
0.025045
0.0246689
0.0243166
0.0239916
0.0236952
0.0234273
0.0231845
0.0229637
0.0227651
0.0225856
0.0224222
0.0222697
0.0221263
0.0219923
0.0218653
0.0217486
0.0216381
0.0215364
0.0214386
0.0213453
0.0212548
0.0211689
0.0210868
0.0210088
0.0209343
0.0208632
0.0207955
0.0207306
0.0206682
0.0206087
0.0205526
0.0204994
0.0204482
0.0203983
0.0203506
0.0203054
0.0202627
0.0202219
0.0201828
0.0201458
0.0201123
0.0200818
0.020054
0.0200249
0.0199935
0.0199567
0.019918
0.0198775
0.0198327
0.0197836
0.0197345
0.0196893
0.0196511
0.0196099
0.0559298
0.0434975
0.0429302
0.0431739
0.0432556
0.0433492
0.043397
0.0434204
0.0434167
0.0433907
0.0433458
0.0432856
0.0432166
0.0431447
0.0430736
0.043005
0.0429381
0.0428719
0.0428035
0.0427297
0.0426477
0.0425557
0.0424535
0.0423417
0.0422213
0.0420932
0.0419569
0.0418116
0.0416564
0.0414912
0.0413158
0.0411299
0.0409329
0.0407234
0.0404996
0.0402597
0.0400012
0.0397216
0.0394181
0.0390872
0.038725
0.0383273
0.0378891
0.037406
0.0368782
0.0363127
0.0357215
0.0351179
0.0345174
0.0339324
0.0333595
0.0328024
0.0322669
0.0317428
0.0312253
0.0307125
0.0302046
0.0297036
0.0292131
0.0287339
0.0282607
0.0277876
0.0273138
0.0268437
0.0263845
0.0259433
0.0255236
0.0251258
0.0247499
0.024397
0.0240695
0.0237687
0.0234952
0.0232468
0.0230217
0.022817
0.0226295
0.0224588
0.0223012
0.0221551
0.0220195
0.0218922
0.0217756
0.0216649
0.0215621
0.0214628
0.0213682
0.0212771
0.0211911
0.0211085
0.0210294
0.0209533
0.0208808
0.0208117
0.0207457
0.0206828
0.0206234
0.0205669
0.0205121
0.020459
0.0204083
0.0203605
0.0203152
0.0202715
0.0202294
0.0201891
0.0201513
0.0201169
0.0200856
0.0200569
0.0200273
0.0199953
0.0199577
0.0199175
0.0198755
0.0198295
0.0197792
0.0197288
0.0196823
0.0196441
0.0196057
0.0559358
0.043494
0.0429144
0.043162
0.043247
0.0433425
0.0433915
0.0434153
0.0434116
0.0433854
0.0433404
0.0432802
0.0432115
0.0431402
0.0430697
0.0430016
0.0429351
0.042869
0.0428005
0.0427265
0.0426443
0.042552
0.0424495
0.0423374
0.0422168
0.0420884
0.041952
0.0418066
0.0416513
0.0414859
0.0413102
0.0411239
0.0409264
0.0407163
0.040492
0.0402513
0.039992
0.0397115
0.0394068
0.0390747
0.0387114
0.0383126
0.0378736
0.0373913
0.0368667
0.0363073
0.0357256
0.0351344
0.0345491
0.0339749
0.0334123
0.0328711
0.0323431
0.0318238
0.0313143
0.0308127
0.0303164
0.0298225
0.0293291
0.0288384
0.0283568
0.0278874
0.0274268
0.0269716
0.0265211
0.0260777
0.0256458
0.0252306
0.0248376
0.0244705
0.0241314
0.023821
0.0235391
0.0232835
0.0230528
0.0228429
0.0226507
0.022477
0.0223167
0.0221678
0.0220291
0.0218997
0.0217815
0.0216694
0.0215645
0.0214626
0.0213661
0.0212744
0.0211892
0.0211077
0.0210294
0.0209539
0.0208814
0.0208121
0.0207458
0.0206828
0.0206231
0.0205657
0.0205092
0.0204551
0.0204044
0.0203565
0.0203098
0.0202644
0.0202204
0.0201785
0.0201393
0.0201038
0.0200718
0.0200429
0.0200135
0.0199821
0.019945
0.0199051
0.0198631
0.0198169
0.0197665
0.0197159
0.0196694
0.0196309
0.019593
0.0559405
0.0434909
0.0428987
0.0431502
0.0432383
0.0433358
0.0433858
0.04341
0.0434063
0.04338
0.0433348
0.0432746
0.0432063
0.0431356
0.0430658
0.0429982
0.042932
0.042866
0.0427974
0.0427233
0.0426408
0.0425483
0.0424455
0.0423332
0.0422123
0.0420837
0.0419471
0.0418016
0.0416462
0.0414806
0.0413047
0.041118
0.0409201
0.0407095
0.0404845
0.0402431
0.039983
0.0397016
0.039396
0.0390629
0.0386985
0.0382988
0.0378596
0.0373787
0.0368583
0.0363064
0.0357337
0.0351556
0.0345821
0.0340161
0.033467
0.032934
0.0324081
0.031894
0.0313899
0.0308933
0.0304044
0.0299233
0.0294465
0.0289681
0.0284859
0.0280036
0.0275293
0.0270688
0.026623
0.0261897
0.0257675
0.0253575
0.024963
0.0245884
0.0242382
0.0239148
0.0236205
0.0233539
0.0231117
0.022894
0.0226997
0.0225247
0.022361
0.0222079
0.0220653
0.0219325
0.021811
0.0216954
0.021587
0.0214818
0.0213827
0.0212892
0.0212028
0.0211203
0.0210405
0.0209634
0.0208896
0.0208193
0.0207526
0.0206895
0.0206295
0.0205713
0.0205146
0.0204613
0.0204118
0.0203649
0.0203189
0.0202739
0.0202298
0.0201877
0.0201485
0.020113
0.0200813
0.0200529
0.0200244
0.019994
0.0199577
0.0199185
0.0198768
0.0198304
0.0197798
0.019729
0.0196824
0.019644
0.019604
0.0559448
0.0434883
0.0428832
0.0431383
0.0432295
0.0433289
0.04338
0.0434046
0.0434009
0.0433745
0.0433291
0.043269
0.0432011
0.0431309
0.0430618
0.0429948
0.0429289
0.042863
0.0427944
0.0427201
0.0426373
0.0425446
0.0424415
0.0423289
0.0422077
0.0420789
0.0419422
0.0417966
0.0416411
0.0414754
0.0412992
0.0411122
0.0409138
0.0407027
0.0404772
0.0402351
0.0399743
0.0396921
0.0393856
0.0390516
0.0386864
0.0382861
0.0378471
0.0373684
0.0368528
0.036308
0.0357457
0.0351785
0.0346139
0.0340604
0.0335239
0.0329959
0.0324821
0.0319811
0.0314859
0.0309931
0.0305027
0.0300174
0.0295402
0.0290713
0.0286061
0.0281391
0.0276691
0.0271996
0.026737
0.0262888
0.0258589
0.0254477
0.0250549
0.0246814
0.02433
0.0240029
0.0237022
0.0234276
0.023179
0.0229537
0.0227478
0.0225601
0.0223871
0.0222293
0.0220839
0.0219504
0.021828
0.0217114
0.0216022
0.0214964
0.0213971
0.0213025
0.0212148
0.021131
0.0210504
0.0209728
0.0208985
0.0208277
0.0207608
0.0206976
0.0206368
0.020578
0.0205216
0.0204684
0.0204177
0.020369
0.0203222
0.0202778
0.0202356
0.0201956
0.0201577
0.0201228
0.0200911
0.0200625
0.0200335
0.0200026
0.0199659
0.0199258
0.0198833
0.0198364
0.0197848
0.0197327
0.019685
0.0196455
0.0196054
0.0559475
0.0434862
0.042868
0.0431265
0.0432207
0.043322
0.0433741
0.0433991
0.0433954
0.0433689
0.0433234
0.0432633
0.0431957
0.0431262
0.0430578
0.0429913
0.0429258
0.04286
0.0427913
0.0427168
0.0426338
0.0425408
0.0424375
0.0423245
0.0422032
0.0420741
0.0419372
0.0417915
0.041636
0.0414701
0.0412938
0.0411065
0.0409077
0.0406962
0.04047
0.0402274
0.0399659
0.0396829
0.0393756
0.0390409
0.038675
0.0382744
0.0378363
0.03736
0.036849
0.0363123
0.03576
0.0352024
0.0346494
0.0341105
0.0335833
0.0330675
0.0325655
0.0320706
0.0315816
0.031098
0.0306176
0.0301381
0.029658
0.0291792
0.0287066
0.028243
0.027786
0.027332
0.0268797
0.026431
0.02599
0.0255619
0.0251523
0.0247651
0.0244028
0.0240667
0.0237575
0.0234749
0.0232191
0.0229879
0.0227758
0.0225855
0.0224137
0.0222567
0.0221088
0.0219721
0.0218455
0.0217257
0.0216144
0.0215077
0.0214083
0.0213129
0.0212229
0.0211363
0.0210535
0.0209743
0.0208991
0.0208282
0.0207618
0.0206989
0.020638
0.0205794
0.0205236
0.0204703
0.0204181
0.0203675
0.0203188
0.0202723
0.0202281
0.0201859
0.0201469
0.0201116
0.0200796
0.0200503
0.0200206
0.0199891
0.019952
0.0199116
0.0198689
0.0198222
0.0197704
0.0197184
0.0196702
0.0196299
0.0195885
0.0559498
0.0434846
0.042853
0.0431147
0.0432118
0.0433149
0.043368
0.0433934
0.0433897
0.0433631
0.0433174
0.0432574
0.0431903
0.0431214
0.0430537
0.0429878
0.0429227
0.0428569
0.0427881
0.0427135
0.0426302
0.042537
0.0424334
0.0423202
0.0421986
0.0420693
0.0419323
0.0417865
0.0416309
0.0414649
0.0412884
0.0411009
0.0409018
0.0406897
0.0404631
0.0402199
0.0399577
0.0396741
0.0393661
0.0390307
0.0386644
0.038264
0.0378271
0.037354
0.0368492
0.0363196
0.035776
0.0352291
0.0346901
0.0341628
0.0336435
0.0331363
0.0326363
0.0321439
0.0316598
0.0311823
0.0307101
0.0302432
0.0297788
0.0293115
0.0288391
0.0283646
0.0278946
0.027435
0.0269872
0.0265493
0.0261193
0.0256982
0.0252886
0.024895
0.024522
0.0241732
0.0238515
0.0235582
0.0232919
0.0230511
0.0228349
0.0226412
0.0224618
0.0222978
0.0221455
0.0220058
0.021876
0.021753
0.0216394
0.0215312
0.0214311
0.0213348
0.0212438
0.0211559
0.021072
0.0209915
0.0209155
0.0208439
0.0207766
0.020712
0.0206494
0.0205894
0.020532
0.0204769
0.020423
0.0203714
0.0203216
0.0202735
0.0202263
0.0201813
0.0201407
0.0201043
0.0200717
0.0200423
0.0200128
0.0199817
0.019945
0.0199053
0.0198635
0.0198177
0.0197666
0.019715
0.0196671
0.0196274
0.019588
0.0559506
0.0434833
0.0428383
0.043103
0.0432029
0.0433077
0.0433618
0.0433876
0.0433839
0.0433572
0.0433114
0.0432515
0.0431847
0.0431166
0.0430496
0.0429843
0.0429195
0.0428539
0.042785
0.0427101
0.0426266
0.0425331
0.0424293
0.0423159
0.042194
0.0420645
0.0419273
0.0417814
0.0416257
0.0414597
0.0412831
0.0410954
0.0408959
0.0406835
0.0404564
0.0402126
0.0399499
0.0396657
0.0393571
0.0390212
0.0386547
0.0382548
0.0378199
0.0373506
0.0368511
0.0363289
0.0357947
0.03526
0.0347324
0.0342108
0.033699
0.0331989
0.0327087
0.0322285
0.0317543
0.0312813
0.0308087
0.0303394
0.0298761
0.0294183
0.0289622
0.028503
0.028039
0.0275724
0.0271093
0.0266566
0.0262188
0.0257967
0.0253899
0.0249989
0.0246263
0.0242751
0.0239479
0.0236458
0.0233701
0.0231204
0.0228936
0.0226854
0.0224917
0.0223196
0.0221622
0.0220189
0.0218846
0.0217584
0.0216419
0.0215321
0.0214309
0.0213338
0.0212419
0.0211531
0.0210683
0.0209874
0.0209116
0.0208402
0.020772
0.0207061
0.0206425
0.0205819
0.0205238
0.0204676
0.0204135
0.0203629
0.0203159
0.0202716
0.0202292
0.0201882
0.0201494
0.0201138
0.0200817
0.0200527
0.0200237
0.0199931
0.0199568
0.0199172
0.0198753
0.0198292
0.0197777
0.0197259
0.0196772
0.0196369
0.0195951
0.0559503
0.0434823
0.042824
0.0430913
0.043194
0.0433004
0.0433555
0.0433816
0.0433779
0.0433511
0.0433051
0.0432454
0.0431791
0.0431117
0.0430455
0.0429808
0.0429164
0.0428508
0.0427818
0.0427067
0.042623
0.0425292
0.0424252
0.0423115
0.0421894
0.0420597
0.0419223
0.0417763
0.0416206
0.0414545
0.0412778
0.0410899
0.0408902
0.0406774
0.0404499
0.0402056
0.0399424
0.0396576
0.0393486
0.0390124
0.038646
0.0382471
0.0378143
0.0373486
0.0368549
0.0363406
0.0358166
0.0352927
0.0347729
0.0342608
0.033763
0.0332747
0.0327959
0.0323233
0.0318553
0.0313902
0.030926
0.0304615
0.0299956
0.0295294
0.0290669
0.0286106
0.0281589
0.0277083
0.027257
0.026806
0.0263591
0.0259213
0.025498
0.0250933
0.0247101
0.0243503
0.0240153
0.0237052
0.0234211
0.0231633
0.0229295
0.022722
0.0225365
0.0223668
0.0222062
0.0220579
0.0219185
0.0217883
0.0216687
0.0215561
0.0214525
0.021353
0.0212587
0.0211675
0.0210817
0.0210007
0.0209255
0.0208543
0.0207856
0.0207191
0.0206556
0.0205947
0.0205354
0.0204783
0.0204247
0.0203746
0.0203266
0.0202793
0.0202335
0.0201906
0.0201506
0.0201136
0.0200799
0.0200494
0.0200197
0.0199888
0.0199525
0.0199124
0.0198696
0.0198226
0.0197699
0.0197164
0.0196662
0.0196247
0.0195823
0.0559488
0.0434815
0.0428102
0.0430797
0.0431851
0.0432931
0.043349
0.0433755
0.0433717
0.0433448
0.0432988
0.0432392
0.0431734
0.0431067
0.0430413
0.0429772
0.0429132
0.0428477
0.0427786
0.0427032
0.0426193
0.0425253
0.042421
0.0423071
0.0421848
0.0420549
0.0419173
0.0417712
0.0416154
0.0414493
0.0412726
0.0410846
0.0408847
0.0406716
0.0404436
0.0401989
0.0399352
0.03965
0.0393406
0.0390043
0.0386384
0.0382408
0.0378106
0.0373493
0.0368611
0.0363549
0.0358406
0.0353258
0.0348158
0.0343178
0.0338303
0.0333482
0.0328719
0.0324014
0.0319374
0.0314785
0.0310233
0.0305709
0.0301194
0.0296642
0.029203
0.0287376
0.0282737
0.0278169
0.0273693
0.0269292
0.0264945
0.0260654
0.0256441
0.0252348
0.0248421
0.0244702
0.0241228
0.0238026
0.0235095
0.0232418
0.0229968
0.0227765
0.022578
0.0224003
0.0222342
0.0220821
0.0219401
0.0218084
0.0216868
0.0215711
0.0214631
0.0213591
0.0212624
0.0211707
0.0210865
0.0210068
0.0209318
0.0208595
0.0207895
0.0207224
0.0206586
0.0205971
0.0205369
0.0204796
0.0204257
0.0203741
0.0203226
0.020272
0.0202239
0.020179
0.0201372
0.0200985
0.0200635
0.0200326
0.0200032
0.0199727
0.0199366
0.0198964
0.0198534
0.0198064
0.0197537
0.0197004
0.01965
0.0196086
0.019568
0.0559464
0.0434807
0.0427969
0.0430681
0.0431761
0.0432856
0.0433423
0.0433691
0.0433654
0.0433384
0.0432923
0.0432329
0.0431676
0.0431017
0.043037
0.0429736
0.04291
0.0428446
0.0427754
0.0426998
0.0426156
0.0425213
0.0424168
0.0423027
0.0421802
0.04205
0.0419123
0.0417661
0.0416102
0.0414442
0.0412674
0.0410794
0.0408793
0.0406659
0.0404376
0.0401926
0.0399284
0.0396429
0.0393333
0.0389971
0.0386319
0.038236
0.0378085
0.0373514
0.0368694
0.0363714
0.0358661
0.0353611
0.0348636
0.034376
0.0338913
0.0334135
0.0329444
0.0324844
0.0320297
0.0315763
0.0311223
0.0306692
0.0302201
0.0297743
0.0293285
0.0288785
0.0284221
0.0279608
0.0274995
0.0270449
0.0266018
0.0261715
0.0257534
0.0253478
0.024957
0.0245843
0.0242328
0.0239044
0.0236006
0.0233234
0.0230721
0.02284
0.0226248
0.0224381
0.0222671
0.0221106
0.021965
0.0218299
0.0217047
0.0215853
0.0214737
0.0213666
0.0212688
0.0211774
0.0210943
0.0210153
0.0209399
0.0208659
0.0207943
0.0207258
0.0206608
0.0205981
0.020538
0.0204812
0.0204272
0.0203751
0.0203243
0.0202755
0.0202284
0.0201837
0.0201421
0.0201036
0.0200691
0.0200386
0.0200095
0.0199793
0.0199432
0.0199031
0.0198603
0.0198137
0.019761
0.0197079
0.0196575
0.0196166
0.0195746
0.0559428
0.0434802
0.0427842
0.0430566
0.0431671
0.043278
0.0433355
0.0433626
0.0433589
0.0433319
0.0432857
0.0432265
0.0431618
0.0430966
0.0430328
0.04297
0.0429067
0.0428415
0.0427721
0.0426963
0.0426118
0.0425173
0.0424126
0.0422983
0.0421755
0.0420452
0.0419073
0.041761
0.0416051
0.041439
0.0412622
0.0410742
0.040874
0.0406604
0.0404319
0.0401865
0.0399221
0.0396363
0.0393266
0.0389908
0.0386267
0.0382327
0.0378084
0.0373555
0.0368798
0.0363896
0.0358936
0.0353997
0.0349126
0.0344292
0.0339514
0.033487
0.0330315
0.0325816
0.0321341
0.0316882
0.0312413
0.0307921
0.0303411
0.0298886
0.0294373
0.0289897
0.0285449
0.0280994
0.0276513
0.0272009
0.0267513
0.026307
0.0258731
0.0254538
0.0250522
0.0246709
0.024312
0.0239761
0.0236638
0.0233772
0.0231188
0.0228919
0.0226843
0.0224929
0.0223163
0.022155
0.0220057
0.0218662
0.0217365
0.0216131
0.0214994
0.0213915
0.0212927
0.0211992
0.0211129
0.0210303
0.0209513
0.0208742
0.0208002
0.020729
0.0206609
0.0205961
0.0205356
0.0204782
0.0204219
0.0203672
0.0203158
0.0202684
0.0202244
0.0201828
0.020143
0.0201052
0.0200708
0.02004
0.0200104
0.0199798
0.0199435
0.0199029
0.0198596
0.0198123
0.0197587
0.0197043
0.0196528
0.0196108
0.0195688
0.0559383
0.0434797
0.0427722
0.0430451
0.0431581
0.0432702
0.0433285
0.043356
0.0433522
0.0433251
0.0432789
0.0432199
0.0431558
0.0430915
0.0430284
0.0429664
0.0429035
0.0428383
0.0427688
0.0426927
0.042608
0.0425133
0.0424084
0.0422939
0.0421709
0.0420404
0.0419024
0.0417559
0.0415999
0.0414339
0.0412572
0.0410691
0.0408689
0.0406552
0.0404264
0.0401808
0.0399161
0.0396302
0.0393207
0.0389855
0.0386227
0.0382308
0.0378096
0.0373612
0.0368919
0.03641
0.0359239
0.0354401
0.0349599
0.0344845
0.0340224
0.0335683
0.0331156
0.0326664
0.0322217
0.0317815
0.0313433
0.0309058
0.0304678
0.0300256
0.0295765
0.0291217
0.0286657
0.0282136
0.0277681
0.027328
0.0268912
0.0264573
0.0260279
0.0256063
0.0251971
0.0248049
0.0244341
0.0240881
0.0237684
0.0234725
0.0231973
0.0229448
0.022722
0.0225233
0.0223427
0.0221769
0.0220241
0.0218798
0.0217468
0.0216209
0.0215074
0.0214
0.0213016
0.0212068
0.0211179
0.0210322
0.0209509
0.0208728
0.020799
0.0207281
0.0206606
0.0205975
0.0205392
0.0204827
0.0204258
0.0203707
0.0203193
0.0202709
0.0202238
0.0201769
0.0201321
0.0200909
0.0200546
0.0200227
0.0199925
0.0199615
0.0199252
0.0198846
0.0198412
0.0197938
0.0197398
0.0196849
0.0196321
0.0195887
0.0195461
0.0559324
0.0434791
0.0427609
0.0430335
0.043149
0.0432624
0.0433213
0.0433491
0.0433454
0.0433183
0.043272
0.0432133
0.0431498
0.0430863
0.0430241
0.0429627
0.0429003
0.0428351
0.0427655
0.0426891
0.0426041
0.0425092
0.0424041
0.0422895
0.0421663
0.0420357
0.0418974
0.0417508
0.0415948
0.0414288
0.0412521
0.0410641
0.0408639
0.0406501
0.0404212
0.0401754
0.0399106