/*--------------------------------*- C++ -*----------------------------------*\
| =========                 |                                                 |
| \\      /  F ield         | OpenFOAM: The Open Source CFD Toolbox           |
|  \\    /   O peration     | Version:  2412                                  |
|   \\  /    A nd           | Website:  www.openfoam.com                      |
|    \\/     M anipulation  |                                                 |
\*---------------------------------------------------------------------------*/
FoamFile
{
    version     2.0;
    format      ascii;
    arch        "LSB;label=32;scalar=64";
    class       volVectorField;
    location    "0.053";
    object      U;
}
// * * * * * * * * * * * * * * * * * * * * * * * * * * * * * * * * * * * * * //

dimensions      [0 1 -1 0 0 0 0];

internalField   nonuniform List<vector> 
9922
(
(169.157 90.6696 0)
(167.043 9.22996 0)
(180.708 1.91457 0)
(191.72 1.70403 0)
(197.251 -1.71768 0)
(198.969 -3.82147 0)
(198.881 -5.49256 0)
(199.142 -6.69689 0)
(199.446 -7.65259 0)
(199.938 -8.46438 0)
(200.621 -9.0542 0)
(201.393 -9.50367 0)
(202.223 -9.84953 0)
(203.08 -10.1382 0)
(203.933 -10.416 0)
(204.776 -10.692 0)
(205.608 -10.9741 0)
(206.437 -11.2529 0)
(207.28 -11.5208 0)
(208.15 -11.7768 0)
(209.064 -12.0202 0)
(210.031 -12.2588 0)
(211.057 -12.497 0)
(212.143 -12.7448 0)
(213.294 -13.005 0)
(214.513 -13.2813 0)
(215.803 -13.5749 0)
(217.164 -13.8914 0)
(218.596 -14.2328 0)
(220.103 -14.599 0)
(221.689 -14.9878 0)
(223.364 -15.3987 0)
(225.137 -15.8335 0)
(227.018 -16.295 0)
(229.018 -16.786 0)
(231.148 -17.3082 0)
(233.421 -17.8622 0)
(235.853 -18.448 0)
(238.465 -19.066 0)
(241.281 -19.7159 0)
(244.333 -20.3956 0)
(247.661 -21.1003 0)
(251.313 -21.819 0)
(255.349 -22.5325 0)
(259.837 -23.2075 0)
(264.874 -23.778 0)
(270.58 -24.1282 0)
(276.92 -24.1546 0)
(283.609 -23.868 0)
(290.291 -23.3686 0)
(296.699 -22.8011 0)
(302.72 -22.306 0)
(308.332 -21.9909 0)
(313.633 -21.9141 0)
(318.67 -22.1144 0)
(323.443 -22.552 0)
(328.001 -23.1944 0)
(332.368 -24.038 0)
(336.601 -25.0932 0)
(340.778 -26.3632 0)
(344.862 -27.8511 0)
(348.738 -29.4546 0)
(352.372 -31.0244 0)
(355.775 -32.5647 0)
(358.956 -34.122 0)
(361.932 -35.6719 0)
(364.707 -37.1538 0)
(367.26 -38.5165 0)
(369.591 -39.7421 0)
(371.705 -40.8147 0)
(373.62 -41.7661 0)
(375.349 -42.5829 0)
(376.896 -43.2423 0)
(378.243 -43.771 0)
(379.566 -44.2665 0)
(380.825 -44.7645 0)
(381.999 -45.151 0)
(383.123 -45.5666 0)
(384.188 -45.9047 0)
(385.207 -46.2441 0)
(386.169 -46.5497 0)
(387.07 -46.8067 0)
(387.921 -47.077 0)
(388.731 -47.2728 0)
(389.501 -47.5329 0)
(390.232 -47.6994 0)
(390.929 -47.9582 0)
(391.604 -48.0963 0)
(392.258 -48.3314 0)
(392.893 -48.4353 0)
(393.497 -48.6462 0)
(394.074 -48.7341 0)
(394.617 -48.9303 0)
(395.135 -49.0045 0)
(395.624 -49.1812 0)
(396.095 -49.2393 0)
(396.541 -49.3958 0)
(396.972 -49.4516 0)
(397.38 -49.6011 0)
(397.775 -49.6551 0)
(398.153 -49.7898 0)
(398.522 -49.845 0)
(398.882 -49.9743 0)
(399.244 -50.041 0)
(399.607 -50.1618 0)
(399.969 -50.2396 0)
(400.314 -50.3503 0)
(400.619 -50.4391 0)
(400.862 -50.5268 0)
(401.024 -50.5989 0)
(401.087 -50.6323 0)
(401.042 -50.6818 0)
(400.922 -50.6666 0)
(400.785 -50.7283 0)
(400.75 -50.7221 0)
(400.914 -50.7793 0)
(401.339 -50.8663 0)
(402.011 -50.9706 0)
(402.807 -51.1189 0)
(403.612 -51.2773 0)
(404.059 -51.0008 0)
(168.981 90.6266 0)
(167.14 9.046 0)
(180.815 1.83362 0)
(191.825 1.67068 0)
(197.345 -1.73318 0)
(199.037 -3.82796 0)
(198.934 -5.48947 0)
(199.187 -6.68967 0)
(199.488 -7.63948 0)
(199.978 -8.44744 0)
(200.661 -9.0336 0)
(201.432 -9.47963 0)
(202.26 -9.823 0)
(203.114 -10.11 0)
(203.964 -10.3866 0)
(204.805 -10.6619 0)
(205.635 -10.9431 0)
(206.464 -11.2205 0)
(207.306 -11.4863 0)
(208.178 -11.7394 0)
(209.093 -11.9792 0)
(210.063 -12.2136 0)
(211.091 -12.4474 0)
(212.18 -12.6903 0)
(213.334 -12.9451 0)
(214.555 -13.2153 0)
(215.848 -13.5022 0)
(217.211 -13.8115 0)
(218.647 -14.1452 0)
(220.158 -14.5032 0)
(221.75 -14.8827 0)
(223.43 -15.2829 0)
(225.209 -15.7056 0)
(227.098 -16.1532 0)
(229.106 -16.6287 0)
(231.247 -17.1334 0)
(233.534 -17.6676 0)
(235.982 -18.2311 0)
(238.614 -18.8234 0)
(241.455 -19.4436 0)
(244.536 -20.0882 0)
(247.898 -20.7509 0)
(251.589 -21.419 0)
(255.667 -22.0717 0)
(260.198 -22.672 0)
(265.282 -23.147 0)
(271.018 -23.3846 0)
(277.309 -23.3082 0)
(283.853 -22.947 0)
(290.337 -22.4061 0)
(296.563 -21.8261 0)
(302.415 -21.3315 0)
(307.907 -21.0109 0)
(313.076 -20.9195 0)
(318 -21.0813 0)
(322.761 -21.5043 0)
(327.361 -22.1802 0)
(331.789 -23.0581 0)
(336.027 -24.0736 0)
(340.078 -25.2415 0)
(344.011 -26.6162 0)
(347.89 -28.1696 0)
(351.649 -29.8622 0)
(355.186 -31.5922 0)
(358.474 -33.2366 0)
(361.517 -34.7711 0)
(364.314 -36.2115 0)
(366.863 -37.5521 0)
(369.175 -38.7795 0)
(371.278 -39.8703 0)
(373.211 -40.8365 0)
(375.004 -41.6796 0)
(376.682 -42.4393 0)
(378.21 -43.1495 0)
(379.571 -43.6896 0)
(380.834 -44.1862 0)
(382 -44.5675 0)
(383.099 -44.9599 0)
(384.133 -45.2875 0)
(385.125 -45.6055 0)
(386.077 -45.9163 0)
(386.982 -46.1637 0)
(387.837 -46.4475 0)
(388.637 -46.6309 0)
(389.392 -46.9008 0)
(390.109 -47.0552 0)
(390.798 -47.318 0)
(391.47 -47.4332 0)
(392.131 -47.659 0)
(392.779 -47.7445 0)
(393.399 -47.959 0)
(393.995 -48.0451 0)
(394.561 -48.252 0)
(395.102 -48.3288 0)
(395.616 -48.5147 0)
(396.109 -48.5768 0)
(396.575 -48.7439 0)
(397.023 -48.8049 0)
(397.451 -48.9605 0)
(397.866 -49.0138 0)
(398.26 -49.1492 0)
(398.642 -49.2023 0)
(399.011 -49.3322 0)
(399.379 -49.3952 0)
(399.748 -49.5135 0)
(400.116 -49.5816 0)
(400.465 -49.6858 0)
(400.775 -49.7689 0)
(401.023 -49.8599 0)
(401.187 -49.9353 0)
(401.25 -49.9726 0)
(401.202 -50.0224 0)
(401.078 -50.0023 0)
(400.941 -50.0667 0)
(400.908 -50.0536 0)
(401.077 -50.1059 0)
(401.519 -50.1773 0)
(402.21 -50.2828 0)
(403.007 -50.4255 0)
(403.793 -50.5688 0)
(404.224 -50.3018 0)
(168.802 90.5794 0)
(167.236 8.85927 0)
(180.922 1.75057 0)
(191.932 1.63524 0)
(197.44 -1.75004 0)
(199.106 -3.83695 0)
(198.989 -5.4895 0)
(199.234 -6.68533 0)
(199.533 -7.62885 0)
(200.02 -8.43241 0)
(200.703 -9.0144 0)
(201.473 -9.45663 0)
(202.3 -9.79728 0)
(203.151 -10.0825 0)
(203.998 -10.358 0)
(204.836 -10.6325 0)
(205.665 -10.9128 0)
(206.493 -11.1889 0)
(207.336 -11.4525 0)
(208.208 -11.7026 0)
(209.126 -11.9387 0)
(210.097 -12.169 0)
(211.129 -12.3983 0)
(212.221 -12.6363 0)
(213.377 -12.8857 0)
(214.602 -13.1498 0)
(215.897 -13.43 0)
(217.264 -13.7323 0)
(218.704 -14.0585 0)
(220.22 -14.4084 0)
(221.818 -14.7788 0)
(223.505 -15.1687 0)
(225.292 -15.5796 0)
(227.189 -16.0138 0)
(229.208 -16.474 0)
(231.361 -16.9614 0)
(233.662 -17.4762 0)
(236.129 -18.0177 0)
(238.783 -18.5847 0)
(241.65 -19.1752 0)
(244.763 -19.7849 0)
(248.161 -20.4056 0)
(251.893 -21.0233 0)
(256.013 -21.6151 0)
(260.591 -22.1393 0)
(265.727 -22.5168 0)
(271.477 -22.646 0)
(277.689 -22.4757 0)
(284.076 -22.0475 0)
(290.378 -21.473 0)
(296.422 -20.8781 0)
(302.128 -20.3766 0)
(307.502 -20.0502 0)
(312.575 -19.9509 0)
(317.397 -20.0922 0)
(322.028 -20.4706 0)
(326.543 -21.0817 0)
(330.972 -21.9255 0)
(335.299 -23.0108 0)
(339.457 -24.2651 0)
(343.412 -25.5843 0)
(347.183 -27.015 0)
(350.822 -28.5965 0)
(354.364 -30.2772 0)
(357.758 -32.0032 0)
(360.932 -33.7107 0)
(363.849 -35.3248 0)
(366.504 -36.781 0)
(368.906 -38.0567 0)
(371.067 -39.1504 0)
(373.014 -40.0952 0)
(374.77 -40.9199 0)
(376.378 -41.6598 0)
(377.902 -42.3453 0)
(379.325 -42.9077 0)
(380.65 -43.4514 0)
(381.87 -43.8726 0)
(383.025 -44.311 0)
(384.105 -44.6703 0)
(385.131 -45.0101 0)
(386.109 -45.3358 0)
(387.035 -45.5862 0)
(387.914 -45.8831 0)
(388.734 -46.0642 0)
(389.5 -46.3401 0)
(390.22 -46.4815 0)
(390.907 -46.7385 0)
(391.566 -46.8354 0)
(392.198 -47.0572 0)
(392.806 -47.1315 0)
(393.386 -47.3429 0)
(393.947 -47.4181 0)
(394.485 -47.6194 0)
(395.005 -47.6825 0)
(395.5 -47.8601 0)
(395.978 -47.9132 0)
(396.431 -48.0786 0)
(396.872 -48.1303 0)
(397.294 -48.2738 0)
(397.708 -48.3102 0)
(398.099 -48.4342 0)
(398.479 -48.4758 0)
(398.844 -48.5978 0)
(399.209 -48.6492 0)
(399.575 -48.7592 0)
(399.94 -48.814 0)
(400.287 -48.9081 0)
(400.596 -48.978 0)
(400.845 -49.0652 0)
(401.013 -49.1383 0)
(401.079 -49.1837 0)
(401.03 -49.232 0)
(400.896 -49.2183 0)
(400.741 -49.277 0)
(400.69 -49.2736 0)
(400.85 -49.3231 0)
(401.293 -49.3801 0)
(401.984 -49.4642 0)
(402.78 -49.594 0)
(403.576 -49.7459 0)
(404.016 -49.4736 0)
(168.62 90.528 0)
(167.331 8.66976 0)
(181.028 1.66538 0)
(192.039 1.59766 0)
(197.536 -1.76788 0)
(199.177 -3.84506 0)
(199.045 -5.48709 0)
(199.282 -6.67825 0)
(199.578 -7.61549 0)
(200.063 -8.41488 0)
(200.744 -8.99302 0)
(201.514 -9.43175 0)
(202.338 -9.7699 0)
(203.187 -10.0534 0)
(204.03 -10.3278 0)
(204.866 -10.6014 0)
(205.692 -10.8808 0)
(206.52 -11.1554 0)
(207.363 -11.417 0)
(208.236 -11.664 0)
(209.155 -11.8964 0)
(210.129 -12.1224 0)
(211.163 -12.3472 0)
(212.258 -12.5803 0)
(213.417 -12.8242 0)
(214.644 -13.0821 0)
(215.942 -13.3556 0)
(217.311 -13.6506 0)
(218.755 -13.969 0)
(220.275 -14.3104 0)
(221.877 -14.6713 0)
(223.57 -15.0505 0)
(225.363 -15.4491 0)
(227.267 -15.8692 0)
(229.294 -16.3135 0)
(231.457 -16.7829 0)
(233.771 -17.2773 0)
(236.252 -17.7955 0)
(238.924 -18.3358 0)
(241.813 -18.8954 0)
(244.951 -19.4685 0)
(248.378 -20.0456 0)
(252.142 -20.6114 0)
(256.296 -21.1408 0)
(260.912 -21.5873 0)
(266.083 -21.8697 0)
(271.813 -21.8999 0)
(277.929 -21.6469 0)
(284.176 -21.1626 0)
(290.342 -20.5528 0)
(296.259 -19.9397 0)
(301.848 -19.4342 0)
(307.117 -19.107 0)
(312.114 -19.0052 0)
(316.899 -19.1397 0)
(321.496 -19.4969 0)
(325.919 -20.0648 0)
(330.202 -20.8453 0)
(334.407 -21.8388 0)
(338.581 -23.0574 0)
(342.662 -24.4996 0)
(346.552 -26.0437 0)
(350.237 -27.583 0)
(353.727 -29.1534 0)
(357.036 -30.7856 0)
(360.183 -32.4391 0)
(363.149 -34.0575 0)
(365.901 -35.589 0)
(368.418 -36.9905 0)
(370.694 -38.229 0)
(372.751 -39.3156 0)
(374.606 -40.256 0)
(376.277 -41.0316 0)
(377.778 -41.6827 0)
(379.156 -42.2219 0)
(380.452 -42.7644 0)
(381.652 -43.1819 0)
(382.791 -43.6277 0)
(383.855 -43.9748 0)
(384.873 -44.3141 0)
(385.848 -44.6269 0)
(386.782 -44.8827 0)
(387.679 -45.1863 0)
(388.525 -45.3862 0)
(389.33 -45.6808 0)
(390.092 -45.8354 0)
(390.827 -46.1045 0)
(391.529 -46.2095 0)
(392.202 -46.4482 0)
(392.847 -46.5389 0)
(393.462 -46.7686 0)
(394.052 -46.8507 0)
(394.613 -47.0552 0)
(395.153 -47.1141 0)
(395.661 -47.2918 0)
(396.149 -47.3465 0)
(396.609 -47.5134 0)
(397.059 -47.5578 0)
(397.489 -47.6968 0)
(397.907 -47.7319 0)
(398.298 -47.8601 0)
(398.678 -47.9029 0)
(399.044 -48.0238 0)
(399.413 -48.0681 0)
(399.78 -48.1754 0)
(400.149 -48.2263 0)
(400.498 -48.3193 0)
(400.811 -48.3776 0)
(401.063 -48.4542 0)
(401.235 -48.5155 0)
(401.303 -48.5589 0)
(401.253 -48.5983 0)
(401.111 -48.569 0)
(400.943 -48.6164 0)
(400.874 -48.5862 0)
(401.004 -48.6245 0)
(401.415 -48.6714 0)
(402.092 -48.7459 0)
(402.891 -48.8552 0)
(403.684 -48.992 0)
(404.111 -48.7097 0)
(168.435 90.4722 0)
(167.426 8.47767 0)
(181.135 1.57803 0)
(192.149 1.55789 0)
(197.634 -1.78715 0)
(199.248 -3.85581 0)
(199.102 -5.48788 0)
(199.331 -6.67412 0)
(199.625 -7.60466 0)
(200.107 -8.39927 0)
(200.788 -8.97305 0)
(201.557 -9.40789 0)
(202.38 -9.74331 0)
(203.225 -10.025 0)
(204.065 -10.2982 0)
(204.898 -10.5711 0)
(205.722 -10.8495 0)
(206.549 -11.1227 0)
(207.393 -11.382 0)
(208.267 -11.626 0)
(209.188 -11.8545 0)
(210.165 -12.0763 0)
(211.201 -12.2966 0)
(212.299 -12.5248 0)
(213.461 -12.7632 0)
(214.691 -13.0149 0)
(215.991 -13.2817 0)
(217.364 -13.5695 0)
(218.811 -13.8802 0)
(220.336 -14.2133 0)
(221.945 -14.565 0)
(223.644 -14.9337 0)
(225.445 -15.3203 0)
(227.357 -15.7267 0)
(229.394 -16.1553 0)
(231.568 -16.607 0)
(233.895 -17.0813 0)
(236.394 -17.5765 0)
(239.085 -18.0904 0)
(241.997 -18.6191 0)
(245.163 -19.1557 0)
(248.622 -19.6894 0)
(252.42 -20.2032 0)
(256.612 -20.6697 0)
(261.27 -21.0378 0)
(266.462 -21.2273 0)
(272.156 -21.1624 0)
(278.18 -20.83 0)
(284.306 -20.2914 0)
(290.312 -19.6523 0)
(296.024 -19.0254 0)
(301.428 -18.5086 0)
(306.553 -18.1654 0)
(311.464 -18.0333 0)
(316.208 -18.1406 0)
(320.811 -18.5016 0)
(325.281 -19.0997 0)
(329.604 -19.8833 0)
(333.762 -20.8099 0)
(337.781 -21.9234 0)
(341.739 -23.2535 0)
(345.668 -24.7787 0)
(349.482 -26.4608 0)
(353.095 -28.186 0)
(356.493 -29.8531 0)
(359.676 -31.4584 0)
(362.641 -33.0165 0)
(365.377 -34.5144 0)
(367.887 -35.9151 0)
(370.179 -37.1777 0)
(372.273 -38.2961 0)
(374.193 -39.2751 0)
(375.977 -40.1448 0)
(377.613 -40.9343 0)
(379.08 -41.5742 0)
(380.431 -42.1761 0)
(381.668 -42.6175 0)
(382.831 -43.0852 0)
(383.905 -43.4263 0)
(384.915 -43.7674 0)
(385.865 -44.0608 0)
(386.764 -44.3054 0)
(387.624 -44.5885 0)
(388.435 -44.7803 0)
(389.209 -45.0651 0)
(389.945 -45.2122 0)
(390.657 -45.4708 0)
(391.343 -45.567 0)
(392.003 -45.8023 0)
(392.646 -45.8911 0)
(393.263 -46.1192 0)
(393.86 -46.1919 0)
(394.428 -46.3856 0)
(394.975 -46.4312 0)
(395.488 -46.6037 0)
(395.98 -46.6571 0)
(396.447 -46.8223 0)
(396.904 -46.8556 0)
(397.339 -46.9854 0)
(397.759 -47.0179 0)
(398.151 -47.1521 0)
(398.529 -47.1948 0)
(398.894 -47.3125 0)
(399.261 -47.3468 0)
(399.625 -47.449 0)
(399.99 -47.4946 0)
(400.335 -47.5863 0)
(400.644 -47.634 0)
(400.892 -47.7011 0)
(401.064 -47.7488 0)
(401.139 -47.7889 0)
(401.098 -47.8251 0)
(400.97 -47.8 0)
(400.826 -47.8434 0)
(400.792 -47.8155 0)
(400.96 -47.8572 0)
(401.403 -47.9132 0)
(402.098 -47.9959 0)
(402.902 -48.0877 0)
(403.689 -48.2074 0)
(404.119 -47.9441 0)
(168.247 90.412 0)
(167.519 8.28274 0)
(181.242 1.48853 0)
(192.259 1.51585 0)
(197.733 -1.80743 0)
(199.321 -3.86568 0)
(199.16 -5.48617 0)
(199.38 -6.66715 0)
(199.672 -7.59099 0)
(200.151 -8.38104 0)
(200.831 -8.9508 0)
(201.6 -9.38207 0)
(202.419 -9.715 0)
(203.261 -9.99502 0)
(204.098 -10.2671 0)
(204.927 -10.539 0)
(205.75 -10.8165 0)
(206.577 -11.0882 0)
(207.42 -11.3453 0)
(208.295 -11.5861 0)
(209.218 -11.8108 0)
(210.197 -12.0282 0)
(211.236 -12.2439 0)
(212.337 -12.4671 0)
(213.501 -12.7 0)
(214.733 -12.9455 0)
(216.036 -13.2054 0)
(217.411 -13.4858 0)
(218.861 -13.7886 0)
(220.39 -14.113 0)
(222.003 -14.455 0)
(223.708 -14.8129 0)
(225.515 -15.187 0)
(227.434 -15.5792 0)
(229.478 -15.9915 0)
(231.661 -16.4247 0)
(234 -16.8779 0)
(236.511 -17.3492 0)
(239.219 -17.8355 0)
(242.149 -18.3321 0)
(245.337 -18.8308 0)
(248.821 -19.3198 0)
(252.646 -19.7805 0)
(256.866 -20.1827 0)
(261.549 -20.4726 0)
(266.742 -20.5731 0)
(272.393 -20.422 0)
(278.326 -20.0189 0)
(284.312 -19.4328 0)
(290.138 -18.7678 0)
(295.709 -18.1349 0)
(301.017 -17.6072 0)
(306.066 -17.2482 0)
(310.885 -17.1004 0)
(315.514 -17.181 0)
(320.011 -17.4893 0)
(324.418 -18.0219 0)
(328.763 -18.789 0)
(333.021 -19.7933 0)
(337.126 -20.9473 0)
(341.062 -22.1943 0)
(344.858 -23.5941 0)
(348.569 -25.1633 0)
(352.211 -26.8549 0)
(355.723 -28.6228 0)
(359.033 -30.4021 0)
(362.111 -32.1141 0)
(364.948 -33.6973 0)
(367.542 -35.1263 0)
(369.894 -36.3914 0)
(372.017 -37.5021 0)
(373.929 -38.4705 0)
(375.661 -39.327 0)
(377.259 -40.1062 0)
(378.744 -40.7583 0)
(380.129 -41.3763 0)
(381.403 -41.8424 0)
(382.613 -42.3403 0)
(383.732 -42.7053 0)
(384.797 -43.0834 0)
(385.797 -43.4016 0)
(386.735 -43.6768 0)
(387.623 -43.9766 0)
(388.457 -44.1892 0)
(389.258 -44.4904 0)
(390.019 -44.6493 0)
(390.755 -44.9174 0)
(391.461 -45.0225 0)
(392.138 -45.2623 0)
(392.789 -45.347 0)
(393.41 -45.567 0)
(394.008 -45.6264 0)
(394.576 -45.8108 0)
(395.123 -45.8493 0)
(395.632 -46.0177 0)
(396.122 -46.0615 0)
(396.588 -46.2163 0)
(397.044 -46.2414 0)
(397.474 -46.3723 0)
(397.887 -46.4064 0)
(398.271 -46.5402 0)
(398.645 -46.5745 0)
(399.007 -46.6853 0)
(399.375 -46.7099 0)
(399.74 -46.8074 0)
(400.108 -46.8466 0)
(400.457 -46.9378 0)
(400.769 -46.9804 0)
(401.016 -47.042 0)
(401.176 -47.0708 0)
(401.226 -47.0919 0)
(401.153 -47.1099 0)
(400.986 -47.0833 0)
(400.787 -47.1158 0)
(400.687 -47.0936 0)
(400.799 -47.1339 0)
(401.218 -47.185 0)
(401.905 -47.2698 0)
(402.722 -47.3676 0)
(403.524 -47.4878 0)
(403.948 -47.2116 0)
(168.056 90.3467 0)
(167.614 8.08538 0)
(181.348 1.39711 0)
(192.37 1.47112 0)
(197.833 -1.82932 0)
(199.394 -3.87816 0)
(199.219 -5.48772 0)
(199.431 -6.66318 0)
(199.721 -7.57986 0)
(200.198 -8.36475 0)
(200.877 -8.92995 0)
(201.644 -9.35727 0)
(202.462 -9.68748 0)
(203.3 -9.96571 0)
(204.133 -10.2366 0)
(204.96 -10.5077 0)
(205.781 -10.7841 0)
(206.607 -11.0544 0)
(207.451 -11.3091 0)
(208.327 -11.5468 0)
(209.252 -11.7675 0)
(210.232 -11.9805 0)
(211.274 -12.1915 0)
(212.378 -12.4097 0)
(213.546 -12.6372 0)
(214.78 -12.8765 0)
(216.086 -13.1297 0)
(217.464 -13.4027 0)
(218.918 -13.6976 0)
(220.451 -14.0134 0)
(222.07 -14.346 0)
(223.781 -14.6932 0)
(225.595 -15.0552 0)
(227.522 -15.4335 0)
(229.576 -15.8298 0)
(231.77 -16.2447 0)
(234.121 -16.6772 0)
(236.647 -17.1248 0)
(239.372 -17.5837 0)
(242.325 -18.0482 0)
(245.537 -18.5092 0)
(249.048 -18.9535 0)
(252.902 -19.3609 0)
(257.153 -19.6988 0)
(261.86 -19.9106 0)
(267.052 -19.9235 0)
(272.656 -19.6891 0)
(278.485 -19.2224 0)
(284.316 -18.5957 0)
(289.979 -17.9082 0)
(295.44 -17.2549 0)
(300.658 -16.7101 0)
(305.632 -16.3475 0)
(310.395 -16.1916 0)
(314.981 -16.2539 0)
(319.415 -16.5316 0)
(323.721 -17.022 0)
(327.925 -17.7236 0)
(332.085 -18.6373 0)
(336.231 -19.7824 0)
(340.289 -21.1481 0)
(344.184 -22.6136 0)
(347.908 -24.1109 0)
(351.473 -25.6836 0)
(354.895 -27.3481 0)
(358.188 -29.0627 0)
(361.328 -30.7811 0)
(364.274 -32.4535 0)
(366.989 -34.0239 0)
(369.455 -35.4374 0)
(371.684 -36.6856 0)
(373.693 -37.7616 0)
(375.513 -38.6869 0)
(377.163 -39.477 0)
(378.663 -40.1276 0)
(380.045 -40.7317 0)
(381.312 -41.1947 0)
(382.505 -41.6888 0)
(383.606 -42.049 0)
(384.653 -42.4293 0)
(385.637 -42.7422 0)
(386.565 -43.0184 0)
(387.439 -43.3142 0)
(388.265 -43.528 0)
(389.059 -43.8227 0)
(389.818 -43.9715 0)
(390.555 -44.2311 0)
(391.272 -44.3315 0)
(391.966 -44.5715 0)
(392.637 -44.6545 0)
(393.284 -44.8746 0)
(393.909 -44.9328 0)
(394.501 -45.1214 0)
(395.066 -45.165 0)
(395.593 -45.3409 0)
(396.101 -45.3849 0)
(396.585 -45.5407 0)
(397.055 -45.5692 0)
(397.493 -45.7076 0)
(397.912 -45.7437 0)
(398.307 -45.8755 0)
(398.69 -45.9025 0)
(399.057 -46.0087 0)
(399.425 -46.0263 0)
(399.785 -46.1193 0)
(400.148 -46.1503 0)
(400.493 -46.2381 0)
(400.805 -46.2752 0)
(401.055 -46.3328 0)
(401.228 -46.3516 0)
(401.301 -46.3638 0)
(401.264 -46.3774 0)
(401.132 -46.3446 0)
(400.96 -46.3859 0)
(400.878 -46.3511 0)
(401.004 -46.3878 0)
(401.43 -46.4375 0)
(402.126 -46.5266 0)
(402.943 -46.6375 0)
(403.746 -46.7673 0)
(404.178 -46.4839 0)
(167.863 90.2775 0)
(167.707 7.88503 0)
(181.454 1.30376 0)
(192.482 1.4238 0)
(197.935 -1.85241 0)
(199.468 -3.88959 0)
(199.279 -5.48676 0)
(199.482 -6.65633 0)
(199.77 -7.56582 0)
(200.244 -8.34577 0)
(200.922 -8.90676 0)
(201.688 -9.33046 0)
(202.503 -9.65819 0)
(203.337 -9.93474 0)
(204.166 -10.2045 0)
(204.99 -10.4746 0)
(205.81 -10.75 0)
(206.635 -11.0187 0)
(207.479 -11.2711 0)
(208.356 -11.5055 0)
(209.282 -11.7222 0)
(210.265 -11.9308 0)
(211.309 -12.1371 0)
(212.416 -12.3502 0)
(213.586 -12.5721 0)
(214.823 -12.8053 0)
(216.131 -13.0515 0)
(217.511 -13.3169 0)
(218.968 -13.6037 0)
(220.505 -13.9106 0)
(222.128 -14.2334 0)
(223.844 -14.5695 0)
(225.663 -14.9189 0)
(227.597 -15.2827 0)
(229.658 -15.6624 0)
(231.86 -16.0585 0)
(234.221 -16.4695 0)
(236.759 -16.8924 0)
(239.498 -17.3228 0)
(242.467 -17.7543 0)
(245.698 -18.1765 0)
(249.23 -18.575 0)
(253.105 -18.9282 0)
(257.375 -19.2011 0)
(262.093 -19.3361 0)
(267.271 -19.2664 0)
(272.813 -18.9577 0)
(278.526 -18.4368 0)
(284.207 -17.771 0)
(289.771 -17.0572 0)
(295.14 -16.3841 0)
(300.22 -15.835 0)
(305.053 -15.4513 0)
(309.721 -15.2623 0)
(314.277 -15.3034 0)
(318.727 -15.5852 0)
(323.064 -16.0861 0)
(327.278 -16.7657 0)
(331.362 -17.6054 0)
(335.348 -18.6476 0)
(339.311 -19.9067 0)
(343.262 -21.3733 0)
(347.111 -23.0096 0)
(350.789 -24.7049 0)
(354.283 -26.374 0)
(357.591 -28.0186 0)
(360.706 -29.6567 0)
(363.622 -31.276 0)
(366.336 -32.8309 0)
(368.837 -34.2653 0)
(371.123 -35.5578 0)
(373.202 -36.6895 0)
(375.106 -37.6912 0)
(376.85 -38.5727 0)
(378.44 -39.3224 0)
(379.896 -40.0019 0)
(381.221 -40.5274 0)
(382.467 -41.0649 0)
(383.614 -41.458 0)
(384.703 -41.8635 0)
(385.72 -42.1912 0)
(386.671 -42.4819 0)
(387.566 -42.7876 0)
(388.403 -43.0024 0)
(389.202 -43.2868 0)
(389.96 -43.4185 0)
(390.686 -43.6623 0)
(391.381 -43.7467 0)
(392.046 -43.9726 0)
(392.689 -44.039 0)
(393.307 -44.2469 0)
(393.907 -44.2938 0)
(394.476 -44.4783 0)
(395.024 -44.5184 0)
(395.538 -44.6916 0)
(396.038 -44.7269 0)
(396.512 -44.8795 0)
(396.973 -44.9092 0)
(397.408 -45.0504 0)
(397.83 -45.0772 0)
(398.229 -45.1946 0)
(398.617 -45.2072 0)
(398.985 -45.3079 0)
(399.356 -45.3232 0)
(399.72 -45.4163 0)
(400.086 -45.4414 0)
(400.433 -45.5232 0)
(400.747 -45.5545 0)
(400.997 -45.6152 0)
(401.164 -45.6363 0)
(401.218 -45.652 0)
(401.144 -45.6562 0)
(400.97 -45.6295 0)
(400.775 -45.6662 0)
(400.707 -45.6584 0)
(400.893 -45.6977 0)
(401.379 -45.7333 0)
(402.099 -45.8002 0)
(402.919 -45.8845 0)
(403.723 -46.0005 0)
(404.157 -45.7216 0)
(167.667 90.2015 0)
(167.801 7.68258 0)
(181.56 1.20864 0)
(192.596 1.37361 0)
(198.037 -1.87731 0)
(199.543 -3.90359 0)
(199.34 -5.48916 0)
(199.536 -6.65257 0)
(199.821 -7.55441 0)
(200.292 -8.32878 0)
(200.97 -8.88499 0)
(201.735 -9.30468 0)
(202.547 -9.62971 0)
(203.377 -9.90448 0)
(204.203 -10.173 0)
(205.024 -10.4423 0)
(205.842 -10.7165 0)
(206.666 -10.9836 0)
(207.51 -11.2336 0)
(208.388 -11.4647 0)
(209.316 -11.6774 0)
(210.301 -11.8814 0)
(211.348 -12.083 0)
(212.458 -12.291 0)
(213.631 -12.5074 0)
(214.871 -12.7343 0)
(216.181 -12.9736 0)
(217.564 -13.2316 0)
(219.024 -13.5103 0)
(220.565 -13.8085 0)
(222.193 -14.1215 0)
(223.916 -14.4468 0)
(225.742 -14.7838 0)
(227.684 -15.1334 0)
(229.753 -15.4969 0)
(231.966 -15.8743 0)
(234.338 -16.264 0)
(236.89 -16.6625 0)
(239.646 -17.0647 0)
(242.633 -17.4631 0)
(245.886 -17.8465 0)
(249.44 -18.1993 0)
(253.338 -18.4982 0)
(257.63 -18.7058 0)
(262.36 -18.7644 0)
(267.513 -18.6155 0)
(272.972 -18.2366 0)
(278.56 -17.6609 0)
(284.138 -16.9589 0)
(289.589 -16.2234 0)
(294.77 -15.5382 0)
(299.699 -14.9814 0)
(304.463 -14.5742 0)
(309.065 -14.3635 0)
(313.521 -14.3692 0)
(317.878 -14.5938 0)
(322.178 -15.0406 0)
(326.432 -15.721 0)
(330.606 -16.6236 0)
(334.651 -17.6705 0)
(338.562 -18.8359 0)
(342.37 -20.1774 0)
(346.129 -21.7003 0)
(349.843 -23.3668 0)
(353.45 -25.1381 0)
(356.881 -26.9507 0)
(360.106 -28.7239 0)
(363.115 -30.4021 0)
(365.902 -31.9634 0)
(368.458 -33.3928 0)
(370.784 -34.6836 0)
(372.883 -35.8189 0)
(374.787 -36.832 0)
(376.514 -37.7166 0)
(378.101 -38.4872 0)
(379.567 -39.1869 0)
(380.91 -39.7397 0)
(382.174 -40.2945 0)
(383.343 -40.7057 0)
(384.459 -41.1256 0)
(385.505 -41.4679 0)
(386.492 -41.7797 0)
(387.426 -42.1029 0)
(388.293 -42.3238 0)
(389.119 -42.609 0)
(389.908 -42.7428 0)
(390.67 -42.9983 0)
(391.401 -43.0984 0)
(392.1 -43.3438 0)
(392.771 -43.4218 0)
(393.417 -43.6401 0)
(394.038 -43.694 0)
(394.621 -43.8875 0)
(395.178 -43.9313 0)
(395.7 -44.106 0)
(396.205 -44.1383 0)
(396.68 -44.2943 0)
(397.139 -44.3269 0)
(397.576 -44.4673 0)
(398.007 -44.4825 0)
(398.411 -44.5907 0)
(398.802 -44.5992 0)
(399.165 -44.703 0)
(399.527 -44.7193 0)
(399.885 -44.8116 0)
(400.25 -44.8269 0)
(400.599 -44.8987 0)
(400.918 -44.9185 0)
(401.172 -44.9769 0)
(401.344 -44.9961 0)
(401.406 -45.0153 0)
(401.347 -45.0148 0)
(401.185 -44.9812 0)
(400.983 -45.0071 0)
(400.861 -44.9715 0)
(400.923 -44.996 0)
(401.275 -45.0202 0)
(401.937 -45.089 0)
(402.762 -45.1785 0)
(403.581 -45.2893 0)
(404.013 -45.0013 0)
(167.468 90.123 0)
(167.893 7.47711 0)
(181.665 1.1117 0)
(192.71 1.32057 0)
(198.14 -1.90333 0)
(199.619 -3.9167 0)
(199.403 -5.48904 0)
(199.59 -6.64589 0)
(199.872 -7.54005 0)
(200.341 -8.30906 0)
(201.017 -8.86085 0)
(201.781 -9.27685 0)
(202.589 -9.59942 0)
(203.416 -9.87252 0)
(204.237 -10.1399 0)
(205.055 -10.4081 0)
(205.871 -10.6812 0)
(206.694 -10.9467 0)
(207.538 -11.1942 0)
(208.417 -11.4219 0)
(209.347 -11.6305 0)
(210.334 -11.8299 0)
(211.384 -12.0266 0)
(212.496 -12.2296 0)
(213.672 -12.4403 0)
(214.914 -12.661 0)
(216.226 -12.8933 0)
(217.611 -13.1436 0)
(219.073 -13.414 0)
(220.617 -13.703 0)
(222.25 -14.006 0)
(223.977 -14.32 0)
(225.809 -14.6442 0)
(227.757 -14.9792 0)
(229.833 -15.3258 0)
(232.053 -15.684 0)
(234.434 -16.0517 0)
(236.997 -16.4249 0)
(239.765 -16.7979 0)
(242.767 -17.1625 0)
(246.035 -17.5062 0)
(249.605 -17.8125 0)
(253.518 -18.0566 0)
(257.821 -18.1989 0)
(262.545 -18.1838 0)
(267.654 -17.9617 0)
(273.029 -17.521 0)
(278.52 -16.8953 0)
(283.988 -16.16 0)
(289.285 -15.4032 0)
(294.342 -14.7124 0)
(299.242 -14.1294 0)
(303.961 -13.7025 0)
(308.508 -13.4778 0)
(312.927 -13.4623 0)
(317.223 -13.6584 0)
(321.411 -14.0615 0)
(325.53 -14.6717 0)
(329.633 -15.4916 0)
(333.732 -16.5435 0)
(337.757 -17.8118 0)
(341.648 -19.1887 0)
(345.4 -20.6281 0)
(349.024 -22.1712 0)
(352.536 -23.8295 0)
(355.95 -25.5661 0)
(359.241 -27.3433 0)
(362.363 -29.1161 0)
(365.273 -30.8261 0)
(367.943 -32.4069 0)
(370.373 -33.8303 0)
(372.567 -35.0675 0)
(374.557 -36.1507 0)
(376.355 -37.0699 0)
(377.993 -37.8686 0)
(379.496 -38.5753 0)
(380.869 -39.1384 0)
(382.156 -39.6914 0)
(383.336 -40.0977 0)
(384.448 -40.5129 0)
(385.475 -40.8453 0)
(386.438 -41.151 0)
(387.352 -41.4654 0)
(388.222 -41.6803 0)
(389.062 -41.9637 0)
(389.856 -42.0967 0)
(390.609 -42.3543 0)
(391.323 -42.4575 0)
(392.006 -42.7066 0)
(392.662 -42.7794 0)
(393.291 -42.9912 0)
(393.9 -43.037 0)
(394.477 -43.2291 0)
(395.03 -43.2682 0)
(395.549 -43.4399 0)
(396.052 -43.4701 0)
(396.525 -43.6329 0)
(396.982 -43.668 0)
(397.421 -43.8028 0)
(397.853 -43.8032 0)
(398.256 -43.9039 0)
(398.643 -43.9147 0)
(398.999 -44.0287 0)
(399.352 -44.0487 0)
(399.702 -44.1407 0)
(400.067 -44.1464 0)
(400.415 -44.2094 0)
(400.734 -44.2182 0)
(400.988 -44.2738 0)
(401.16 -44.2886 0)
(401.221 -44.3098 0)
(401.158 -44.3006 0)
(400.995 -44.2547 0)
(400.806 -44.2499 0)
(400.737 -44.1835 0)
(400.901 -44.1833 0)
(401.376 -44.2197 0)
(402.117 -44.3103 0)
(402.96 -44.4273 0)
(403.777 -44.5569 0)
(404.214 -44.2717 0)
(167.268 90.0343 0)
(167.986 7.26956 0)
(181.77 1.01323 0)
(192.826 1.26454 0)
(198.244 -1.93132 0)
(199.696 -3.93243 0)
(199.467 -5.49238 0)
(199.646 -6.64244 0)
(199.926 -7.52841 0)
(200.392 -8.2914 0)
(201.068 -8.83817 0)
(201.829 -9.25006 0)
(202.635 -9.56994 0)
(203.457 -9.84126 0)
(204.275 -10.1074 0)
(205.089 -10.3746 0)
(205.903 -10.6465 0)
(206.725 -10.9103 0)
(207.57 -11.1553 0)
(208.45 -11.3796 0)
(209.381 -11.584 0)
(210.371 -11.7787 0)
(211.423 -11.9706 0)
(212.538 -12.1683 0)
(213.717 -12.3735 0)
(214.962 -12.5879 0)
(216.276 -12.8133 0)
(217.664 -13.0561 0)
(219.129 -13.3181 0)
(220.677 -13.5981 0)
(222.314 -13.8912 0)
(224.047 -14.1941 0)
(225.886 -14.5057 0)
(227.841 -14.8262 0)
(229.926 -15.1563 0)
(232.156 -15.4955 0)
(234.548 -15.8413 0)
(237.123 -16.1895 0)
(239.905 -16.5335 0)
(242.924 -16.8641 0)
(246.209 -17.1682 0)
(249.797 -17.428 0)
(253.728 -17.6168 0)
(258.042 -17.6942 0)
(262.756 -17.6075 0)
(267.822 -17.3154 0)
(273.126 -16.8144 0)
(278.51 -16.1413 0)
(283.842 -15.3761 0)
(288.993 -14.5993 0)
(293.984 -13.8853 0)
(298.806 -13.2844 0)
(303.408 -12.8555 0)
(307.869 -12.6059 0)
(312.235 -12.5631 0)
(316.523 -12.7485 0)
(320.73 -13.1473 0)
(324.838 -13.7227 0)
(328.844 -14.4679 0)
(332.787 -15.4194 0)
(336.732 -16.5861 0)
(340.681 -17.9675 0)
(344.552 -19.5308 0)
(348.281 -21.1765 0)
(351.855 -22.8251 0)
(355.269 -24.4777 0)
(358.517 -26.1567 0)
(361.595 -27.855 0)
(364.5 -29.528 0)
(367.212 -31.1158 0)
(369.713 -32.5838 0)
(371.989 -33.8892 0)
(374.061 -35.0516 0)
(375.941 -36.0594 0)
(377.662 -36.9467 0)
(379.219 -37.7081 0)
(380.632 -38.3212 0)
(381.954 -38.9101 0)
(383.175 -39.3544 0)
(384.334 -39.8105 0)
(385.405 -40.1827 0)
(386.409 -40.5225 0)
(387.356 -40.8576 0)
(388.251 -41.0791 0)
(389.11 -41.367 0)
(389.92 -41.5032 0)
(390.687 -41.7692 0)
(391.416 -41.8795 0)
(392.116 -42.1369 0)
(392.791 -42.2111 0)
(393.439 -42.4295 0)
(394.061 -42.477 0)
(394.641 -42.6678 0)
(395.196 -42.6986 0)
(395.717 -42.8663 0)
(396.222 -42.8921 0)
(396.699 -43.0474 0)
(397.167 -43.0641 0)
(397.613 -43.1853 0)
(398.051 -43.1823 0)
(398.452 -43.2884 0)
(398.841 -43.2967 0)
(399.204 -43.3951 0)
(399.566 -43.3885 0)
(399.922 -43.4585 0)
(400.29 -43.4508 0)
(400.64 -43.513 0)
(400.963 -43.5181 0)
(401.215 -43.5672 0)
(401.383 -43.5686 0)
(401.429 -43.5881 0)
(401.34 -43.5779 0)
(401.137 -43.5501 0)
(400.9 -43.5487 0)
(400.778 -43.5132 0)
(400.899 -43.5183 0)
(401.339 -43.5414 0)
(402.048 -43.6092 0)
(402.875 -43.6961 0)
(403.692 -43.8169 0)
(404.127 -43.53 0)
(167.063 89.9473 0)
(168.077 7.0591 0)
(181.874 0.9132 0)
(192.943 1.20538 0)
(198.35 -1.96058 0)
(199.774 -3.94721 0)
(199.532 -5.49316 0)
(199.703 -6.63597 0)
(199.98 -7.51372 0)
(200.444 -8.27091 0)
(201.117 -8.81304 0)
(201.877 -9.22116 0)
(202.679 -9.53859 0)
(203.497 -9.80824 0)
(204.31 -10.0732 0)
(205.121 -10.3393 0)
(205.932 -10.6099 0)
(206.754 -10.8719 0)
(207.598 -11.1144 0)
(208.48 -11.3352 0)
(209.412 -11.5354 0)
(210.404 -11.7253 0)
(211.459 -11.9122 0)
(212.577 -12.1047 0)
(213.758 -12.3043 0)
(215.005 -12.5124 0)
(216.321 -12.7308 0)
(217.711 -12.9657 0)
(219.178 -13.2192 0)
(220.729 -13.4899 0)
(222.369 -13.7726 0)
(224.107 -14.064 0)
(225.95 -14.3626 0)
(227.911 -14.6682 0)
(230.003 -14.9812 0)
(232.239 -15.3008 0)
(234.639 -15.6242 0)
(237.224 -15.9466 0)
(240.017 -16.2608 0)
(243.047 -16.5568 0)
(246.344 -16.8206 0)
(249.943 -17.0333 0)
(253.882 -17.1669 0)
(258.195 -17.1806 0)
(262.887 -17.0257 0)
(267.9 -16.6681 0)
(273.114 -16.1096 0)
(278.398 -15.399 0)
(283.591 -14.6053 0)
(288.65 -13.8084 0)
(293.563 -13.0748 0)
(298.229 -12.4656 0)
(302.714 -12.0176 0)
(307.105 -11.7311 0)
(311.407 -11.6489 0)
(315.64 -11.784 0)
(319.826 -12.1387 0)
(323.977 -12.7192 0)
(328.063 -13.5102 0)
(332.047 -14.4473 0)
(335.925 -15.5185 0)
(339.729 -16.7768 0)
(343.509 -18.2248 0)
(347.27 -19.8344 0)
(350.952 -21.5751 0)
(354.487 -23.3866 0)
(357.842 -25.188 0)
(361.007 -26.9262 0)
(363.972 -28.5853 0)
(366.728 -30.152 0)
(369.265 -31.6115 0)
(371.575 -32.9258 0)