/*--------------------------------*- C++ -*----------------------------------*\
| =========                 |                                                 |
| \\      /  F ield         | OpenFOAM: The Open Source CFD Toolbox           |
|  \\    /   O peration     | Version:  2406                                  |
|   \\  /    A nd           | Website:  www.openfoam.com                      |
|    \\/     M anipulation  |                                                 |
\*---------------------------------------------------------------------------*/
FoamFile
{
    version     2.0;
    format      ascii;
    arch        "LSB;label=32;scalar=64";
    class       volScalarField;
    location    "0.002";
    object      p;
}
// * * * * * * * * * * * * * * * * * * * * * * * * * * * * * * * * * * * * * //

dimensions      [1 -1 -2 0 0 0 0];

internalField   nonuniform List<scalar> 
78650
(
2790
2790
2790
2790
2790
2790
2790
2790
2790
2790
2790
2790
2790
2790
2790
2790
2790
2790
2790
2790
2790
2790
2790
2790
2790
2790
2790
2790
2790
2790
2790
2790
2790
2790
2790
2790
2790
2790
2790
2790
2790
2790
2790
2790
2790
2790.25
2796.96
2849.9
2976.27
3084.12
3121.32
3126.41
3121.05
3114.33
3106.62
3100.32
3094.94
3090
3085.33
3080.98
3076.48
3071.71
3066.69
3061.26
3055.46
3049.45
3043.18
3036.56
3029.55
3022.09
3013.97
3005.02
2995.17
2984.47
2972.87
2960.21
2946.47
2931.83
2916.38
2900.04
2882.53
2863.8
2843.89
2823.19
2801.67
2779.64
2756.89
2733.72
2709.96
2685.92
2661.61
2637.24
2612.92
2588.81
2565.08
2541.8
2519.12
2497.09
2475.84
2455.41
2435.83
2417.01
2399.1
2382.16
2366.12
2350.85
2336.52
2323.05
2310.23
2297.93
2286.43
2275.83
2265.84
2257.08
2247.43
2239.45
2231.08
2223.63
2216.94
2211.81
2200.09
2790
2790
2790
2790
2790
2790
2790
2790
2790
2790
2790
2790
2790
2790
2790
2790
2790
2790
2790
2790
2790
2790
2790
2790
2790
2790
2790
2790
2790
2790
2790
2790
2790
2790
2790
2790
2790
2790
2790
2790
2790
2790
2790
2790
2790
2790.09
2793.47
2829.68
2943.68
3067.28
3121.24
3132.74
3128.3
3121.97
3114.78
3108.98
3103.97
3099.39
3095.18
3091.34
3087.33
3082.99
3078.43
3073.58
3068.48
3063.27
3057.88
3052.17
3046.07
3039.52
3032.37
3024.43
3015.63
3006.01
2995.53
2984.04
2971.49
2958.01
2943.73
2928.59
2912.27
2894.63
2875.7
2855.83
2835.04
2813.6
2791.26
2768.34
2744.57
2720.35
2695.58
2670.58
2645.38
2620.21
2595.21
2570.54
2546.35
2522.68
2499.67
2477.36
2455.85
2435.08
2415.24
2396.29
2378.22
2361.06
2344.95
2329.69
2315.1
2301
2288.02
2276.18
2264.85
2253.6
2243.44
2233.42
2225.24
2216.96
2209.13
2202.48
2188.51
2790
2790
2790
2790
2790
2790
2790
2790
2790
2790
2790
2790
2790
2790
2790
2790
2790
2790
2790
2790
2790
2790
2790
2790
2790
2790
2790
2790
2790
2790
2790
2790
2790
2790
2790
2790
2790
2790
2790
2790
2790
2790
2790
2790
2790
2790.03
2791.58
2814.46
2911.53
3046.21
3118.9
3137.9
3134.41
3129.67
3123.15
3117.63
3112.86
3108.8
3105.15
3101.78
3098.13
3094.13
3090.05
3085.84
3081.5
3077.11
3072.58
3067.74
3062.51
3056.84
3050.58
3043.6
3035.81
3027.24
3017.83
3007.48
2996.11
2983.82
2970.78
2956.89
2941.83
2925.4
2907.63
2888.83
2869.07
2848.56
2827.04
2804.75
2781.38
2757.38
2732.56
2707.33
2681.63
2655.73
2629.73
2603.85
2578.24
2552.97
2528.17
2503.91
2480.36
2457.54
2435.59
2414.48
2394.29
2375.05
2356.91
2339.57
2322.97
2307.17
2292.42
2278.76
2265.86
2253.21
2242.08
2230.34
2220.23
2210.15
2201.25
2193.97
2178.69
2790
2790
2790
2790
2790
2790
2790
2790
2790
2790
2790
2790
2790
2790
2790
2790
2790
2790
2790
2790
2790
2790
2790
2790
2790
2790
2790
2790
2790
2790
2790
2790
2790
2790
2790
2790
2790
2790
2790
2790
2790
2790
2790
2790
2790
2790.01
2790.62
2803.49
2879.3
3018.06
3112.47
3141.23
3140.39
3137.77
3131.78
3126.29
3121.87
3118.46
3115.34
3112.27
3108.85
3105.19
3101.64
3098.15
3094.58
3090.99
3087.28
3083.3
3078.94
3074.16
3068.84
3062.86
3056.13
3048.67
3040.44
3031.35
3021.31
3010.36
2998.68
2986.19
2972.58
2957.57
2941.15
2923.62
2905.06
2885.63
2865.1
2843.61
2820.84
2797.25
2772.57
2747.32
2721.31
2694.92
2668.17
2641.32
2614.5
2587.85
2561.49
2535.52
2510.11
2485.32
2461.32
2438.03
2415.67
2394.28
2373.87
2354.28
2335.75
2318.16
2301.52
2285.72
2270.74
2256.62
2242.91
2230.75
2218.33
2207.32
2197.1
2188.42
2170.8
2790
2790
2790
2790
2790
2790
2790
2790
2790
2790
2790
2790
2790
2790
2790
2790
2790
2790
2790
2790
2790
2790
2790
2790
2790
2790
2790
2790
2790
2790
2790
2790
2790
2790
2790
2790
2790
2790
2790
2790
2790
2790
2790
2790
2790
2790
2790.22
2796.66
2850.65
2984.53
3100.29
3142.76
3147.46
3145.57
3140.15
3135.16
3131.38
3128.4
3125.4
3122.41
3119.28
3116.15
3113.3
3110.57
3107.76
3104.91
3101.96
3098.78
3095.24
3091.29
3086.84
3081.78
3076.05
3069.66
3062.57
3054.71
3045.97
3036.38
3026.07
3015.01
3002.88
2989.35
2974.4
2958.29
2941.16
2923.11
2903.93
2883.64
2861.95
2839.23
2815.23
2790.47
2764.71
2738.4
2711.41
2684.08
2656.45
2628.75
2601.1
2573.63
2546.47
2519.74
2493.6
2468.12
2443.49
2419.71
2396.86
2374.91
2354.04
2334.12
2315.08
2297.05
2280.25
2264.23
2249
2234.6
2221.02
2208.36
2196.69
2186.67
2166.4
2790
2790
2790
2790
2790
2790
2790
2790
2790
2790
2790
2790
2790
2790
2790
2790
2790
2790
2790
2790
2790
2790
2790
2790
2790
2790
2790
2790
2790
2790
2790
2790
2790
2790
2790
2790
2790
2790
2790
2790
2790
2790
2790
2790
2790
2790
2790.07
2792.87
2827.1
2945.74
3080.53
3143.04
3153.64
3152.47
3148.41
3144.32
3140.94
3138.13
3135.22
3132.49
3129.86
3127.35
3125.17
3123.13
3121.01
3118.88
3116.71
3114.34
3111.63
3108.51
3104.91
3100.79
3096.1
3090.83
3084.97
3078.44
3071.13
3063.01
3054.19
3044.67
3034.16
3022.29
3008.99
2994.5
2978.97
2962.48
2944.83
2925.93
2905.53
2883.9
2860.82
2836.77
2811.52
2785.54
2758.61
2731.12
2703.02
2674.63
2646.03
2617.39
2588.83
2560.47
2532.51
2505.04
2478.22
2452.06
2426.79
2402.53
2379.29
2356.78
2335.31
2314.93
2295.59
2276.96
2260.56
2243.55
2228.4
2213.19
2199.56
2187.76
2164.55
2790
2790
2790
2790
2790
2790
2790
2790
2790
2790
2790
2790
2790
2790
2790
2790
2790
2790
2790
2790
2790
2790
2790
2790
2790
2790
2790
2790
2790
2790
2790
2790
2790
2790
2790
2790
2790
2790
2790
2790
2790
2790
2790
2790
2790
2790
2790.02
2791.07
2810.18
2905.55
3053.11
3138.78
3158.28
3159.16
3157.32
3153.93
3150.41
3147.5
3144.8
3142.55
3140.57
3138.72
3137.17
3135.78
3134.35
3132.92
3131.45
3129.8
3127.82
3125.45
3122.67
3119.45
3115.78
3111.62
3106.96
3101.73
3095.8
3089.11
3081.72
3073.68
3064.75
3054.55
3042.95
3030.14
3016.33
3001.59
2985.7
2968.5
2949.75
2929.64
2907.97
2885.17
2861.01
2835.96
2809.72
2782.73
2754.81
2726.33
2697.28
2667.93
2638.34
2608.7
2579.15
2549.85
2520.95
2492.59
2464.99
2438.16
2412.16
2387.09
2363.21
2340.43
2318.37
2296.88
2276.65
2260.17
2240.02
2223.48
2207.88
2194.85
2168.93
2790
2790
2790
2790
2790
2790
2790
2790
2790
2790
2790
2790
2790
2790
2790
2790
2790
2790
2790
2790
2790
2790
2790
2790
2790
2790
2790
2790
2790
2790
2790
2790
2790
2790
2790
2790
2790
2790
2790
2790
2790
2790
2790
2790
2790
2790
2790
2790.34
2799.54
2867.79
3015.91
3128.47
3162.17
3166.45
3165.87
3162.99
3159.34
3156.65
3154.5
3152.88
3151.49
3150.19
3149.22
3148.48
3147.74
3146.99
3146.19
3145.2
3143.91
3142.27
3140.32
3138.04
3135.45
3132.48
3129.09
3125.21
3120.75
3115.57
3109.71
3103.23
3095.98
3087.58
3077.83
3066.86
3054.91
3042.06
3028.08
3012.76
2995.88
2977.49
2957.47
2936.14
2913.33
2889.43
2864.18
2838
2810.63
2782.48
2753.41
2723.81
2693.65
2663.22
2632.57
2601.91
2571.38
2541.15
2511.42
2482.26
2453.79
2426.17
2399.57
2373.89
2349.16
2325.55
2303.06
2282
2260.98
2241.47
2223.47
2207.76
2177.7
2790
2790
2790
2790
2790
2790
2790
2790
2790
2790
2790
2790
2790
2790
2790
2790
2790
2790
2790
2790
2790
2790
2790
2790
2790
2790
2790
2790
2790
2790
2790
2790
2790
2790
2790
2790
2790
2790
2790
2790
2790
2790
2790
2790
2790
2790
2790
2790.09
2793.86
2836.65
2971.29
3109.53
3163.01
3173.55
3173.95
3171.86
3168.39
3166.11
3164.56
3163.45
3162.53
3161.74
3161.37
3161.28
3161.17
3160.99
3160.72
3160.3
3159.65
3158.76
3157.66
3156.36
3154.84
3153.01
3150.83
3148.22
3145.13
3141.38
3136.94
3131.93
3126.28
3119.64
3111.72
3102.6
3092.53
3081.62
3069.66
3056.39
3041.59
3025.23
3007.2
2987.77
2966.82
2944.63
2921
2896.29
2870.18
2843.06
2814.73
2785.56
2755.48
2724.81
2693.56
2662.01
2630.25
2598.48
2566.84
2535.53
2504.82
2474.82
2445.56
2417.02
2389.42
2362.75
2337.13
2312.46
2291.62
2267.18
2246.65
2228.6
2194.31
2790
2790
2790
2790
2790
2790
2790
2790
2790
2790
2790
2790
2790
2790
2790
2790
2790
2790
2790
2790
2790
2790
2790
2790
2790
2790
2790
2790
2790
2790
2790
2790
2790
2790
2790
2790
2790
2790
2790
2790
2790
2790
2790
2790
2790
2790
2790
2790.02
2791.32
2814.37
2923.33
3079.67
3160.91
3180.74
3181.4
3180.24
3177.55
3175.78
3174.63
3173.87
3173.45
3173.25
3173.53
3174.02
3174.43
3174.73
3174.96
3175.11
3175.17
3175.11
3174.94
3174.65
3174.21
3173.53
3172.56
3171.24
3169.52
3167.25
3164.29
3160.78
3156.77
3151.96
3145.98
3138.8
3130.7
3121.82
3111.99
3100.92
3088.36
3074.19
3058.35
3041.03
3022.14
3001.91
2980.16
2957.18
2932.65
2906.94
2879.78
2851.53
2822.04
2791.71
2760.45
2728.62
2696.24
2663.59
2630.76
2597.96
2565.32
2533
2501.22
2470.17
2440.04
2410.66
2382.33
2354.7
2328.63
2303.37
2279.61
2258.7
2219.71
2790
2790
2790
2790
2790
2790
2790
2790
2790
2790
2790
2790
2790
2790
2790
2790
2790
2790
2790
2790
2790
2790
2790
2790
2790
2790
2790
2790
2790
2790
2790
2790
2790
2790
2790
2790
2790
2790
2790
2790
2790
2790
2790
2790
2790
2790
2790
2790
2790.38
2800.89
2878.12
3038.53
3151.53
3185.6
3187.94
3188.39
3186.88
3185.44
3184.52
3184.17
3184.37
3184.83
3185.66
3186.59
3187.4
3188.11
3188.86
3189.66
3190.48
3191.28
3192.02
3192.71
3193.27
3193.64
3193.78
3193.69
3193.22
3192.34
3190.79
3188.67
3186.16
3183.06
3178.93
3173.65
3167.44
3160.53
3152.81
3143.98
3133.75
3121.92
3108.47
3093.54
3077.08
3059.23
3039.87
3019.17
2996.86
2973.22
2947.96
2921.39
2893.31
2864.09
2833.58
2802.17
2769.76
2736.77
2703.18
2669.36
2635.35
2601.41
2567.67
2534.34
2501.58
2469.47
2438.15
2407.56
2377.89
2351
2322.83
2299.1
2255.33
2790
2790
2790
2790
2790
2790
2790
2790
2790
2790
2790
2790
2790
2790
2790
2790
2790
2790
2790
2790
2790
2790
2790
2790
2790
2790
2790
2790
2790
2790
2790
2790
2790
2790
2790
2790
2790
2790
2790
2790
2790
2790
2790
2790
2790
2790
2790
2790
2790.09
2794.1
2841.23
2988.38
3132.19
3187.22
3194.85
3197.31
3196.16
3194.67
3194.16
3194.6
3195.41
3196.31
3197.43
3198.63
3199.82
3201.07
3202.47
3204.02
3205.64
3207.28
3208.91
3210.52
3212.07
3213.49
3214.71
3215.77
3216.59
3217.01
3216.93
3216.21
3215.21
3213.81
3211.57
3208.26
3203.98
3199.06
3193.5
3187
3179.2
3169.84
3158.91
3146.5
3132.59
3117.3
3100.51
3082.31
3062.48
3041.22
3018.2
2993.7
2967.51
2939.91
2910.77
2880.44
2848.82
2816.29
2782.74
2748.6
2713.81
2678.81
2643.6
2608.48
2573.58
2539.15
2505.42
2472.33
2440.24
2408.6
2377.78
2350.84
2302.09
2790
2790
2790
2790
2790
2790
2790
2790
2790
2790
2790
2790
2790
2790
2790
2790
2790
2790
2790
2790
2790
2790
2790
2790
2790
2790
2790
2790
2790
2790
2790
2790
2790
2790
2790
2790
2790
2790
2790
2790
2790
2790
2790
2790
2790
2790
2790
2790
2790.02
2791.3
2815.74
2934.41
3100.93
3184.62
3201.85
3205.67
3204.35
3203.17
3203.67
3204.86
3206.18
3207.35
3208.68
3210.24
3211.99
3213.9
3216.01
3218.27
3220.59
3222.96
3225.37
3227.84
3230.32
3232.71
3234.97
3237.13
3239.14
3240.78
3241.87
3242.52
3242.9
3243.04
3242.54
3241.14
3238.74
3235.7
3232.17
3227.91
3222.51
3215.65
3207.31
3197.52
3186.33
3173.84
3159.93
3144.63
3127.73
3109.36
3089.17
3067.4
3043.79
3018.57
2991.58
2963.08
2932.97
2901.59
2868.87
2835.23
2800.52
2765.26
2729.26
2693.04
2656.53
2620.13
2583.82
2548.07
2512.78
2479.49
2444.53
2414.76
2361.14
2790
2790
2790
2790
2790
2790
2790
2790
2790
2790
2790
2790
2790
2790
2790
2790
2790
2790
2790
2790
2790
2790
2790
2790
2790
2790
2790
2790
2790
2790
2790
2790
2790
2790
2790
2790
2790
2790
2790
2790
2790
2790
2790
2790
2790
2790
2790
2790
2790
2790.35
2801.04
2884.24
3057.24
3175.4
3207.34
3212.64
3212
3212.13
3213.7
3215.36
3216.58
3217.7
3219.36
3221.56
3224.07
3226.68
3229.37
3232.15
3235.05
3238.09
3241.3
3244.64
3248.03
3251.37
3254.59
3257.74
3260.84
3263.68
3266.01
3267.89
3269.64
3271.3
3272.49
3272.93
3272.54
3271.38
3269.88
3267.85
3264.88
3260.59
3254.88
3247.75
3239.35
3229.71
3218.76
3206.46
3192.64
3177.3
3160.16
3141.39
3120.68
3098.25
3073.89
3047.84
3019.99
2990.57
2959.55
2927.19
2893.4
2858.68
2822.81
2786.44
2749.24
2711.83
2674.05
2636.36
2598.7
2561.49
2524.75
2491.06
2433.36
2790
2790
2790
2790
2790
2790
2790
2790
2790
2790
2790
2790
2790
2790
2790
2790
2790
2790
2790
2790
2790
2790
2790
2790
2790
2790
2790
2790
2790
2790
2790
2790
2790
2790
2790
2790
2790
2790
2790
2790
2790
2790
2790
2790
2790
2790
2790
2790
2790
2790.08
2794.03
2844.34
3004.28
3156.35
3209.47
3218.62
3220.27
3221.67
3223.37
3224.75
3225.81
3227.26
3229.7
3232.79
3236.01
3239.11
3242.17
3245.36
3248.82
3252.57
3256.61
3260.82
3265.08
3269.26
3273.32
3277.32
3281.36
3285.26
3288.72
3291.76
3294.78
3297.92
3300.77
3302.82
3304.1
3304.84
3305.24
3305.26
3304.55
3302.8
3299.69
3295.2
3289.58
3282.82
3274.92
3265.77
3255.23
3243.24
3229.53
3214.19
3196.89
3177.81
3156.69
3133.75
3108.81
3082.07
3053.51
3023.26
2991.38
2958.1
2923.33
2887.64
2850.66
2813.2
2774.72
2736.09
2696.73
2657.76
2618.15
2580.71
2519.48
2790
2790
2790
2790
2790
2790
2790
2790
2790
2790
2790
2790
2790
2790
2790
2790
2790
2790
2790
2790
2790
2790
2790
2790
2790
2790
2790
2790
2790
2790
2790
2790
2790
2790
2790
2790
2790
2790
2790
2790
2790
2790
2790
2790
2790
2790
2790
2790
2790
2790.02
2791.26
2817.5
2948.21
3126.06
3207.31
3224.47
3229.15
3230.87
3231.87
3232.94
3234.51
3236.95
3240.42
3244.18
3247.69
3250.91
3254.19
3257.85
3262.02
3266.61
3271.47
3276.45
3281.4
3286.22
3290.94
3295.67
3300.55
3305.48
3310.1
3314.34
3318.59
3323.13
3327.58
3331.34
3334.28
3336.72
3338.95
3340.94
3342.36
3343
3342.58
3340.72
3337.89
3333.95
3329.05
3323.03
3315.75
3307.12
3296.91
3285.09
3271.36
3255.86
3238.3
3218.86
3197.3
3173.85
3148.35
3120.93
3091.68
3060.62
3027.9
2993.74
2958.01
2921.32
2883.08
2844.47
2804.35
2764.92
2723.14
2683.33
2620.72
2790
2790
2790
2790
2790
2790
2790
2790
2790
2790
2790
2790
2790
2790
2790
2790
2790
2790
2790
2790
2790
2790
2790
2790
2790
2790
2790
2790
2790
2790
2790
2790
2790
2790
2790
2790
2790
2790
2790
2790
2790
2790
2790
2790
2790
2790
2790
2790
2790
2790
2790.35
2802.25
2896.72
3084.9
3200.08
3229.82
3237.47
3238.56
3239.07
3240.61
3243.39
3246.95
3250.98
3254.81
3258.22
3261.55
3265.27
3269.67
3274.71
3280.12
3285.68
3291.22
3296.65
3301.95
3307.23
3312.63
3318.33
3324.25
3330.03
3335.47
3340.89
3346.68
3352.55
3357.83
3362.27
3366.2
3370.06
3373.9
3377.4
3380.14
3381.9
3382.74
3382.69
3381.43
3379.48
3376.56
3372.51
3367.33
3360.71
3352.57
3342.66
3331.02
3317.36
3301.8
3284.1
3264.48
3242.64
3218.84
3192.97
3165.06
3135.31
3103.66
3070.38
3035.51
2998.98
2961.23
2921.64
2881.8
2839.2
2796.78
2734.58
2790
2790
2790
2790
2790
2790
2790
2790
2790
2790
2790
2790
2790
2790
2790
2790
2790
2790
2790
2790
2790
2790
2790
2790
2790
2790
2790
2790
2790
2790
2790
2790
2790
2790
2790
2790
2790
2790
2790
2790
2790
2790
2790
2790
2790
2790
2790
2790
2790
2790
2790.09
2794.9
2855.82
3036.01
3185.64
3233.63
3244.29
3244.88
3245.91
3248.69
3252.65
3256.7
3260.6
3264.17
3267.64
3271.49
3276.04
3281.37
3287.22
3293.22
3299.15
3304.95
3310.67
3316.37
3322.22
3328.35
3334.92
3341.84
3348.75
3355.35
3361.87
3368.73
3375.82
3382.47
3388.29
3393.58
3398.88
3404.39
3409.83
3414.75
3418.85
3422
3424.3
3425.83
3426.61
3426.76
3425.73
3423.92
3420.8
3416.25
3410.14
3402.35
3392.68
3381.15
3367.53
3351.99
3334.15
3314.37
3292.31
3268.16
3241.92
3213.54
3183.35
3151.12
3117.28
3081.5
3044.08
3004.97
2963.91
2919.48
2860.52
2790
2790
2790
2790
2790
2790
2790
2790
2790
2790
2790
2790
2790
2790
2790
2790
2790
2790
2790
2790
2790
2790
2790
2790
2790
2790
2790
2790
2790
2790
2790
2790
2790
2790
2790
2790
2790
2790
2790
2790
2790
2790
2790
2790
2790
2790
2790
2790
2790
2790
2790.02
2791.82
2827.53
2984.95
3163.85
3235.15
3249.38
3250.74
3253.14
3257.1
3261.54
3265.37
3268.88
3272.43
3276.41
3281.14
3286.63
3292.71
3299.04
3305.27
3311.29
3317.22
3323.22
3329.42
3335.97
3342.94
3350.4
3358.27
3366.22
3373.85
3381.29
3389
3397.05
3404.84
3411.87
3418.37
3424.94
3431.91
3439.08
3445.99
3452.2
3457.6
3462.22
3466.18
3469.47
3472.23
3474.28
3475.53
3475.92
3474.84
3472.6
3468.71
3463.05
3455.71
3446.35
3435.12
3421.65
3406.28
3388.54
3368.77
3346.69
3322.44
3296.09
3267.52
3237.07
3204.25
3169.6
3132.65
3093.71
3050.36
2993.42
2790
2790
2790
2790
2790
2790
2790
2790
2790
2790
2790
2790
2790
2790
2790
2790
2790
2790
2790
2790
2790
2790
2790
2790
2790
2790
2790
2790
2790
2790
2790
2790
2790
2790
2790
2790
2790
2790
2790
2790
2790
2790
2790
2790
2790
2790
2790
2790
2790
2790
2790.01
2790.66
2810.24
2937.68
3135.75
3233.86
3252.98
3256.76
3260.6
3265.13
3269.41
3272.78
3276.17
3280.16
3284.99
3290.64
3296.85
3303.32
3309.77
3315.98
3322.02
3328.16
3334.62
3341.52
3348.91
3356.77
3365.07
3373.75
3382.52
3390.97
3399.12
3407.45
3416.21
3424.93
3433.05
3440.67
3448.39
3456.69
3465.46
3474.2
3482.39
3489.84
3496.57
3502.72
3508.41
3513.66
3518.42
3522.53
3525.89
3528.21
3529.43
3529.52
3527.63
3524.48
3519.31
3512.38
3503.37
3492.47
3479.22
3464.02
3446.36
3426.58
3404.45
3380.13
3353.65
3324.69
3293.6
3259.83
3223.9
3183.43
3130.73
2790
2790
2790
2790
2790
2790
2790
2790
2790
2790
2790
2790
2790
2790
2790
2790
2790
2790
2790
2790
2790
2790
2790
2790
2790
2790
2790
2790
2790
2790
2790
2790
2790
2790
2790
2790
2790
2790
2790
2790
2790
2790
2790
2790
2790
2790
2790
2790
2790
2790
2790
2790.25
2800.68
2898.48
3103.74
3229.55
3255.59
3262.97
3267.76
3272.26
3276.14
3279.26
3282.95
3287.7
3293.41
3299.76
3306.33
3312.84
3319.16
3325.3
3331.47
3338
3345.13
3352.85
3361.1
3369.76
3378.73
3387.97
3397.29
3406.32
3414.96
3423.71
3432.98
3442.5
3451.62
3460.3
3469.1
3478.59
3488.75
3499.11
3509.07
3518.34
3526.94
3535.02
3542.74
3550.18
3557.33
3564.07
3570.25
3575.67
3580.08
3583.44
3585.48
3586.26
3585.37
3582.75
3578.34
3571.99
3563.55
3553.21
3540.4
3525.57
3508.19
3488.68
3466.72
3442.31
3415.36
3385.39
3352.86
3315.57
3266.77
2790
2790
2790
2790
2790
2790
2790
2790
2790
2790
2790
2790
2790
2790
2790
2790
2790
2790
2790
2790
2790
2790
2790
2790
2790
2790
2790
2790
2790
2790
2790
2790
2790
2790
2790
2790
2790
2790
2790
2790
2790
2790
2790
2790
2790
2790
2790
2790
2790
2790
2790
2790.11
2795.74
2868.96
3071.26
3222.44
3257.72
3269.04
3274.22
3278.38
3281.9
3285.1
3289.44
3295.07
3301.51
3308.25
3314.84
3321.14
3327.27
3333.44
3339.93
3347.06
3354.95
3363.49
3372.49
3381.74
3391.14
3400.69
3410.31
3419.7
3428.71
3437.78
3447.49
3457.7
3467.79
3477.51
3487.34
3497.89
3509.26
3521
3532.48
3543.35
3553.58
3563.33
3572.79
3582.1
3591.28
3600.24
3608.86
3616.96
3624.35
3630.85
3636.27
3640.5
3643.41
3644.94
3645.07
3643.06
3639.43
3633.83
3625.87
3616.03
3603.54
3589.04
3571.87
3552.46
3530.17
3504.87
3476.62
3443.77
3400.42
2790
2790
2790
2790
2790
2790
2790
2790
2790
2790
2790
2790
2790
2790
2790
2790
2790
2790
2790
2790
2790
2790
2790
2790
2790
2790
2790
2790
2790
2790
2790
2790
2790
2790
2790
2790
2790
2790
2790
2790
2790
2790
2790
2790
2790
2790
2790
2790
2790
2790
2790
2790.05
2793.3
2848.49
3041.83
3213.72
3259.79
3274.64
3279.87
3283.61
3286.92
3290.46
3295.64
3302.12
3309.08
3315.93
3322.33
3328.35
3334.36
3340.7
3347.66
3355.45
3364.06
3373.29
3382.82
3392.43
3402.03
3411.68
3421.43
3431.05
3440.38
3449.77
3459.88
3470.76
3481.75
3492.46
3503.24
3514.7
3527.04
3539.9
3552.63
3564.83
3576.41
3587.53
3598.41
3609.22
3620.03
3630.81
3641.44
3651.77
3661.64
3670.87
3679.33
3686.84
3693.32
3698.56
3702.55
3705.1
3706.16
3705.58
3702.56
3698.04
3690.73
3681.59
3669.55
3655.37
3637.85
3617.39
3593.31
3565.06
3527.44
2790
2790
2790
2790
2790
2790
2790
2790
2790
2790
2790
2790
2790
2790
2790
2790
2790
2790
2790
2790
2790
2790
2790
2790
2790
2790
2790
2790
2790
2790
2790
2790
2790
2790
2790
2790
2790
2790
2790
2790
2790
2790
2790
2790
2790
2790
2790
2790
2790
2790
2790
2790.03
2792.18
2835.4
3018.28
3205.22
3261.91
3279.58
3284.75
3288.15
3291.43
3295.49
3301.53
3308.67
3315.91
3322.7
3328.85
3334.65
3340.66
3347.3
3354.78
3363.18
3372.39
3382.08
3391.92
3401.68
3411.3
3420.94
3430.74
3440.58
3450.22
3459.97
3470.51
3482.01
3493.84
3505.45
3517.05
3529.25
3542.34
3556.04
3569.74
3583
3595.65
3607.86
3619.84
3631.8
3643.86
3656.03
3668.24
3680.35
3692.21
3703.68
3714.6
3724.86
3734.34
3742.93
3750.49
3756.94
3762
3765.77
3767.83
3768.42
3766.39
3762.78
3756.28
3747.75
3735.75
3720.94
3701.52
3678.58
3646.89
2790
2790
2790
2790
2790
2790
2790
2790
2790
2790
2790
2790
2790
2790
2790
2790
2790
2790
2790
2790
2790
2790
2790
2790
2790
2790
2790
2790
2790
2790
2790
2790
2790
2790
2790
2790
2790
2790
2790
2790
2790
2790
2790
2790
2790
2790
2790
2790
2790
2790
2790
2790.02
2791.63
2828.17
3002.3
3199.21
3263.94
3283.63
3288.86
3292.22
3295.73
3300.39
3307.06
3314.58
3321.88
3328.53
3334.49
3340.21
3346.36
3353.35
3361.32
3370.2
3379.81
3389.77
3399.74
3409.51
3419.08
3428.68
3438.54
3448.59
3458.59
3468.74
3479.7
3491.76
3504.31
3516.69
3528.96
3541.7
3555.3
3569.59
3584
3598.03
3611.5
3624.49
3637.26
3650.04
3662.99
3676.15
3689.49
3702.91
3716.28
3729.46
3742.33
3754.77
3766.69
3778
3788.61
3798.42
3807.29
3815.09
3821.56
3826.69
3830.04
3831.78
3831.28
3828.29
3822.4
3813.6
3799.46
3782.7
3757.19
2790
2790
2790
2790
2790
2790
2790
2790
2790
2790
2790
2790
2790
2790
2790
2790
2790
2790
2790
2790
2790
2790
2790
2790
2790
2790
2790
2790
2790
2790
2790
2790
2790
2790
2790
2790
2790
2790
2790
2790
2790
2790
2790
2790
2790
2790
2790
2790
2790
2790
2790
2790.02
2791.42
2825.68
2996.21
3197.44
3266.33
3287.09
3292.43
3295.95
3299.82
3305.01
3312.06
3319.71
3326.97
3333.5
3339.39
3345.18
3351.57
3358.92
3367.26
3376.47
3386.3
3396.37
3406.35
3416.07
3425.6
3435.2
3445.15
3455.45
3465.82
3476.37
3487.73
3500.26
3513.39
3526.36
3539.12
3552.23
3566.15
3580.8
3595.66
3610.21
3624.21
3637.74
3651.04
3664.35
3677.87
3691.68
3705.78
3720.08
3734.48
3748.86
3763.1
3777.1
3790.79
3804.11
3816.99
3829.34
3841.11
3852.14
3862.37
3871.52
3879.56
3886.03
3890.91
3893.89
3894.68
3892.32
3885.01
3875.54
3857.02
2790
2790
2790
2790
2790
2790
2790
2790
2790
2790
2790
2790
2790
2790
2790
2790
2790
2790
2790
2790
2790
2790
2790
2790
2790
2790
2790
2790
2790
2790
2790
2790
2790
2790
2790
2790
2790
2790
2790
2790
2790
2790
2790
2790
2790
2790
2790
2790
2790
2790
2790
2790.02
2791.43
2825.69
2996.75
3199.54
3269.26
3290.14
3295.53
3299.36
3303.66
3309.28
3316.52
3324.15
3331.31
3337.78
3343.72
3349.7
3356.37
3364.03
3372.63
3382.01
3391.92
3402.01
3411.94
3421.62
3431.13
3440.77
3450.88
3461.45
3472.19
3483.11
3494.83
3507.72
3521.26
3534.63
3547.71
3561.02
3575.09
3589.92
3605.02
3619.86
3634.17
3648.01
3661.61
3675.22
3689.06
3703.24
3717.78
3732.62
3747.67
3762.79
3777.89
3792.89
3807.73
3822.37
3836.78
3850.87
3864.65
3877.98
3890.81
3902.99
3914.47
3924.91
3934.32
3942.14
3948.44
3952.49
3953.67
3951.18
3942.73
2790
2790
2790
2790
2790
2790
2790
2790
2790
2790
2790
2790
2790
2790
2790
2790
2790
2790
2790
2790
2790
2790
2790
2790
2790
2790
2790
2790
2790
2790
2790
2790
2790
2790
2790
2790
2790
2790
2790
2790
2790
2790
2790
2790
2790
2790
2790
2790
2790
2790
2790
2790.02
2791.63
2828.52
3005.64
3206.41
3273.42
3293.03
3298.36
3302.51
3307.18
3313.11
3320.4
3327.94
3335.03
3341.51
3347.58
3353.81
3360.76
3368.65
3377.41
3386.86
3396.77
3406.81
3416.69
3426.33
3435.87
3445.63
3455.94
3466.79
3477.85
3489.1
3501.11
3514.27
3528.06
3541.66
3554.88
3568.28
3582.39
3597.26
3612.43
3627.38
3641.82
3655.8
3669.53
3683.28
3697.24
3711.55
3726.25
3741.31
3756.68
3772.21
3787.77
3803.32
3818.79
3834.14
3849.36
3864.38
3879.22
3893.78
3908
3921.82
3935.19
3947.94
3960.03
3971.12
3981.29
3989.74
3996.68
4000.28
4003.19
2790
2790
2790
2790
2790
2790
2790
2790
2790
2790
2790
2790
2790
2790
2790
2790
2790
2790
2790
2790
2790
2790
2790
2790
2790
2790
2790
2790
2790
2790
2790
2790
2790
2790
2790
2790
2790
2790
2790
2790
2790
2790
2790
2790
2790
2790
2790
2790
2790
2790
2790
2790.03
2792.19
2836.38
3024.68
3218.17
3278.35
3295.72
3300.98
3305.45
3310.44
3316.56
3323.78
3331.2
3338.23
3344.77
3351.02
3357.52
3364.73
3372.78
3381.61
3391.07
3400.92
3410.88
3420.7
3430.34
3439.96
3449.89
3460.45
3471.58
3482.91
3494.42
3506.66
3520
3533.91
3547.55
3560.79
3574.16
3588.24
3603.06
3618.2
3633.11
3647.54
3661.5
3675.23
3689
3702.97
3717.29
3732
3747.06
3762.46
3778.1
3793.91
3809.78
3825.6
3841.34
3856.94
3872.36
3887.49
3902.36
3916.93
3931.13
3944.92
3958.2
3970.87
3982.7
3993.6
4003.21
4011.26
4016.54
4022.17
2790
2790
2790
2790
2790
2790
2790
2790
2790
2790
2790
2790
2790
2790
2790
2790
2790
2790
2790
2790
2790
2790
2790
2790
2790
2790
2790
2790
2790
2790
2790
2790
2790
2790
2790
2790
2790
2790
2790
2790
2790
2790
2790
2790
2790
2790
2790
2790
2790
2790
2790
2790.05
2793.33
2850.06
3051.51
3232.04
3283.5
3298.1
3303.28
3308.05
3313.34
3319.62
3326.71
3333.98
3340.97
3347.58
3354.03
3360.79
3368.22
3376.4
3385.26
3394.67
3404.44
3414.32
3424.09
3433.74
3443.47
3453.62
3464.46
3475.84
3487.37
3499.05
3511.47
3524.92
3538.81
3552.37
3565.51
3578.79
3592.77
3607.48
3622.5
3637.27
3651.56
3665.39
3679
3692.69
3706.71
3721.12
3735.93
3751.08
3766.39
3781.82
3797.26
3812.59
3827.76
3842.75
3857.5
3871.97
3886.14
3900.02
3913.58
3926.71
3939.34
3951.24
3962.33
3972.32
3981.1
3988.24
3993.43
3996
3996.18
2790
2790
2790
2790
2790
2790
2790
2790
2790
2790
2790
2790
2790
2790
2790
2790
2790
2790
2790
2790
2790
2790
2790
2790
2790
2790
2790
2790
2790
2790
2790
2790
2790
2790
2790
2790
2790
2790
2790
2790
2790
2790
2790
2790
2790
2790
2790
2790
2790
2790
2790
2790.11
2795.72
2870.82
3084.39
3246.54
3288.61
3300.15
3305.25
3310.3
3315.87
3322.26
3329.18
3336.31
3343.26
3349.94
3356.59
3363.58
3371.17
3379.43
3388.28
3397.63
3407.32
3417.12
3426.86
3436.56
3446.45
3456.84
3467.93
3479.51
3491.16
3502.97
3515.51
3528.99
3542.78
3556.16
3569.16
3582.33
3596.19
3610.74
3625.56
3640.2
3654.37
3668.14
3681.64
3695.05
3708.57
3722.36
3736.43
3750.74
3765.19
3779.8
3794.49
3809.16
3823.63
3837.86
3851.8
3865.39
3878.58
3891.17
3903.1
3914.2
3924.47
3933.66
3941.66
3948.18
3953
3956.04
3956.16
3954.09
3946.56
2790
2790
2790
2790
2790
2790
2790
2790
2790
2790
2790
2790
2790
2790
2790
2790
2790
2790
2790
2790
2790
2790
2790
2790
2790
2790
2790
2790
2790
2790
2790
2790
2790
2790
2790
2790
2790
2790
2790
2790
2790
2790
2790
2790
2790
2790
2790
2790
2790
2790
2790
2790.23
2800.25
2899.78
3120.61
3260.1
3293.33
3301.83
3307
3312.27
3318.07
3324.47
3331.21
3338.22
3345.13
3351.88
3358.7
3365.9
3373.64
3381.96
3390.79
3400.06
3409.64
3419.34
3429.04
3438.79
3448.82
3459.43
3470.73
3482.41
3494.1
3505.96
3518.57
3532.02
3545.61
3558.73
3571.54
3584.67
3598.53
3613.02
3627.58
3641.73
3655.3
3668.37
3681.13
3693.81
3706.72
3720.02
3733.6
3747.46
3761.52
3775.59
3789.5
3803.14
3816.47
3829.39
3841.82
3853.66
3864.85
3875.2
3884.67
3893.03
3900.21
3906.06
3910.26
3913.06
3913.84
3912.47
3907.52
3901.49
3889.44
2790
2790
2790
2790
2790
2790
2790
2790
2790
2790
2790
2790
2790
2790
2790
2790
2790
2790
2790
2790
2790
2790
2790
2790
2790
2790
2790
2790
2790
2790
2790
2790
2790
2790
2790
2790
2790
2790
2790
2790
2790
2790
2790
2790
2790
2790
2790
2790
2790
2790
2790.01
2790.55
2808.38
2937.17
3157.02
3271.83
3297.39
3303.33
3308.54
3313.87
3319.79
3326.13
3332.8
3339.77
3346.67
3353.48
3360.45
3367.79
3375.63
3383.99
3392.8
3402.02
3411.52
3421.13
3430.78
3440.55
3450.71
3461.5
3472.94
3484.65
3496.28
3508.13
3520.72
3534.08
3547.5
3560.39
3572.87
3585.59
3598.99
3612.86
3626.69
3640.17
3653.15
3665.66
3678
3690.42
3702.99
3715.77
3728.78
3741.89
3754.99
3767.93
3780.59
3792.87
3804.66
3815.85
3826.35
3836.03
3844.82
3852.56
3859.14
3864.51
3868.34
3870.89
3871.73
3870.97
3867.84
3863.22
3855.44
3846.42
3832.47
2790
2790
2790
2790
2790
2790
2790
2790
2790
2790
2790
2790
2790
2790
2790
2790
2790
2790
2790
2790
2790
2790
2790
2790
2790
2790
2790
2790
2790
2790
2790
2790
2790
2790
2790
2790
2790
2790
2790
2790
2790
2790
2790
2790
2790
2790
2790
2790
2790
2790
2790.02
2791.33
2822.05
2981.8
3190.47
3281.51
3300.46
3304.84
3309.75
3315.13
3321.14
3327.39
3334.05
3340.98
3347.84
3354.72
3361.81
3369.26
3377.18
3385.55
3394.32
3403.46
3412.87
3422.4
3432.01
3441.83
3452.1
3463.01
3474.46
3486.09
3497.68
3509.53
3522.1
3535.24
3548.12
3560.28
3572.08
3584.36
3597.38
3610.93
3624.45
3637.48
3649.95
3661.99
3673.82
3685.63
3697.49
3709.43
3721.49
3733.54
3745.43
3757.02
3768.17
3778.77
3788.7
3797.85
3806.13
3813.42
3819.59
3824.64
3828.28
3830.74
3831.73
3831.3
3828.99
3825.53
3819.99
3813.18
3804.29
3794
3779.57
2790
2790
2790
2790
2790
2790
2790
2790
2790
2790
2790
2790
2790
2790
2790
2790
2790
2790
2790
2790
2790
2790
2790
2790
2790
2790
2790
2790
2790
2790
2790
2790
2790
2790
2790
2790
2790
2790
2790
2790
2790
2790
2790
2790
2790
2790
2790
2790
2790
2790
2790.05
2793.11
2843.27
3030.93
3218.93
3289.03
3302.44
3306.15
3310.63
3316.15
3322.13
3328.3
3335
3341.86
3348.67
3355.56
3362.72
3370.27
3378.29
3386.73
3395.53
3404.66
3414
3423.42
3432.93
3442.71
3453
3463.96
3475.4
3486.86
3498.15
3509.65
3521.89
3534.55
3546.87
3558.54
3570.08
3582.12
3594.87
3607.99
3620.91
3633.23
3644.94
3656.23
3667.31
3678.31
3689.31
3700.29
3711.23
3722.01
3732.49
3742.54
3751.99
3760.74
3768.67
3775.67
3781.65
3786.55
3790.2
3792.66
3793.92
3793.9
3792.18
3789.48
3785.19
3779.9
3773.05
3765.15
3756.08
3745.7
3731.57
2790
2790
2790
2790
2790
2790
2790
2790
2790
2790
2790
2790
2790
2790
2790
2790
2790
2790
2790
2790
2790
2790
2790
2790
2790
2790
2790
2790
2790
2790
2790
2790
2790
2790
2790
2790
2790
2790
2790
2790
2790
2790
2790
2790
2790
2790
2790
2790
2790
2790
2790.15
2796.87
2873.36
3080.81
3242.11
3293.87
3303.42
3306.97
3311.36
3317.14
3322.97
3329.03
3335.62
3342.33
3349.09
3356
3363.19
3370.82
3378.91
3387.39
3396.23
3405.38
3414.71
3424.1
3433.58
3443.34
3453.61
3464.5
3475.72
3486.72
3497.56
3508.84
3520.92
3533.25
3545.03
3556.19
3567.3
3578.94
3591.21
3603.7
3615.88
3627.45
3638.38
3648.87
3659.1
3669.17
3679.13
3688.97
3698.61
3707.96
3716.87
3725.2