/*--------------------------------*- C++ -*----------------------------------*\
| =========                 |                                                 |
| \\      /  F ield         | OpenFOAM: The Open Source CFD Toolbox           |
|  \\    /   O peration     | Version:  2406                                  |
|   \\  /    A nd           | Website:  www.openfoam.com                      |
|    \\/     M anipulation  |                                                 |
\*---------------------------------------------------------------------------*/
FoamFile
{
    version     2.0;
    format      ascii;
    arch        "LSB;label=32;scalar=64";
    class       volScalarField;
    location    "0.002";
    object      rho;
}
// * * * * * * * * * * * * * * * * * * * * * * * * * * * * * * * * * * * * * //

dimensions      [1 -3 0 0 0 0 0];

internalField   nonuniform List<scalar> 
78650
(
0.042133
0.042133
0.042133
0.042133
0.042133
0.042133
0.042133
0.042133
0.042133
0.042133
0.042133
0.042133
0.042133
0.042133
0.042133
0.042133
0.042133
0.042133
0.042133
0.042133
0.042133
0.042133
0.042133
0.042133
0.042133
0.042133
0.042133
0.042133
0.042133
0.042133
0.042133
0.042133
0.042133
0.042133
0.042133
0.042133
0.042133
0.042133
0.042133
0.042133
0.042133
0.042133
0.042133
0.042133
0.0421331
0.0421357
0.042207
0.042767
0.0440923
0.0452109
0.0455939
0.0456459
0.0455905
0.0455211
0.0454413
0.045376
0.0453202
0.0452689
0.0452204
0.0451751
0.0451282
0.0450786
0.0450263
0.0449697
0.0449094
0.0448468
0.0447815
0.0447125
0.0446395
0.0445617
0.044477
0.0443836
0.0442807
0.0441689
0.0440475
0.043915
0.043771
0.0436172
0.0434549
0.043283
0.0430984
0.0429007
0.04269
0.0424706
0.042242
0.0420076
0.0417648
0.0415169
0.0412621
0.0410037
0.0407417
0.0404783
0.0402148
0.0399529
0.0396943
0.0394401
0.0391917
0.0389498
0.0387159
0.0384905
0.0382739
0.0380652
0.0378663
0.0376776
0.0374987
0.0373278
0.0371673
0.0370162
0.0368722
0.0367342
0.0366055
0.036487
0.0363752
0.0362765
0.0361659
0.0360716
0.0359697
0.0358747
0.0357852
0.0357109
0.0355696
0.042133
0.042133
0.042133
0.042133
0.042133
0.042133
0.042133
0.042133
0.042133
0.042133
0.042133
0.042133
0.042133
0.042133
0.042133
0.042133
0.042133
0.042133
0.042133
0.042133
0.042133
0.042133
0.042133
0.042133
0.042133
0.042133
0.042133
0.042133
0.042133
0.042133
0.042133
0.042133
0.042133
0.042133
0.042133
0.042133
0.042133
0.042133
0.042133
0.042133
0.042133
0.042133
0.042133
0.042133
0.0421331
0.042134
0.0421699
0.0425535
0.043752
0.0450372
0.0455932
0.045711
0.0456651
0.0455996
0.0455253
0.0454653
0.0454133
0.0453658
0.0453221
0.0452821
0.0452403
0.0451951
0.0451477
0.0450972
0.0450442
0.0449899
0.0449338
0.0448744
0.0448108
0.0447427
0.0446682
0.0445854
0.0444937
0.0443933
0.0442839
0.0441639
0.0440326
0.0438915
0.0437418
0.0435829
0.0434114
0.0432258
0.0430261
0.0428162
0.0425961
0.0423687
0.0421312
0.041887
0.041633
0.0413736
0.0411076
0.0408384
0.0405665
0.040294
0.0400226
0.039754
0.0394899
0.0392309
0.0389784
0.0387328
0.0384955
0.0382659
0.0380459
0.0378352
0.0376339
0.0374423
0.037262
0.0370909
0.0369272
0.0367689
0.0366231
0.0364903
0.0363634
0.036237
0.0361216
0.0360057
0.0359076
0.0358049
0.0357027
0.0356101
0.0354417
0.042133
0.042133
0.042133
0.042133
0.042133
0.042133
0.042133
0.042133
0.042133
0.042133
0.042133
0.042133
0.042133
0.042133
0.042133
0.042133
0.042133
0.042133
0.042133
0.042133
0.042133
0.042133
0.042133
0.042133
0.042133
0.042133
0.042133
0.042133
0.042133
0.042133
0.042133
0.042133
0.042133
0.042133
0.042133
0.042133
0.042133
0.042133
0.042133
0.042133
0.042133
0.042133
0.042133
0.042133
0.042133
0.0421334
0.0421498
0.0423925
0.0434154
0.0448192
0.0455692
0.045764
0.0457279
0.0456788
0.0456114
0.0455543
0.0455049
0.0454628
0.0454249
0.0453898
0.0453518
0.0453102
0.0452677
0.045224
0.0451788
0.0451331
0.045086
0.0450357
0.0449812
0.0449222
0.0448571
0.0447845
0.0447034
0.0446141
0.0445161
0.0444082
0.0442894
0.0441611
0.0440247
0.0438793
0.0437216
0.0435491
0.0433622
0.0431643
0.0429559
0.0427391
0.042511
0.0422744
0.0420258
0.0417697
0.0415043
0.0412338
0.0409574
0.0406781
0.040397
0.0401164
0.0398379
0.0395623
0.039291
0.039025
0.0387659
0.0385142
0.0382715
0.0380375
0.0378129
0.0375985
0.0373959
0.0372018
0.0370156
0.0368385
0.0366731
0.0365199
0.0363752
0.0362326
0.0361061
0.0359706
0.0358504
0.0357269
0.0356127
0.0355134
0.0353302
0.042133
0.042133
0.042133
0.042133
0.042133
0.042133
0.042133
0.042133
0.042133
0.042133
0.042133
0.042133
0.042133
0.042133
0.042133
0.042133
0.042133
0.042133
0.042133
0.042133
0.042133
0.042133
0.042133
0.042133
0.042133
0.042133
0.042133
0.042133
0.042133
0.042133
0.042133
0.042133
0.042133
0.042133
0.042133
0.042133
0.042133
0.042133
0.042133
0.042133
0.042133
0.042133
0.042133
0.042133
0.042133
0.0421331
0.0421397
0.0422762
0.0430768
0.0445272
0.0455031
0.0457983
0.0457892
0.0457621
0.0457002
0.0456435
0.0455978
0.0455623
0.0455298
0.0454979
0.0454623
0.0454243
0.0453873
0.045351
0.0453139
0.0452765
0.0452379
0.0451965
0.0451512
0.0451015
0.0450462
0.044984
0.044914
0.0448364
0.0447509
0.0446563
0.0445517
0.0444376
0.0443157
0.0441854
0.0440432
0.0438861
0.0437141
0.0435301
0.043335
0.0431304
0.0429137
0.0426865
0.0424452
0.0421946
0.0419318
0.0416621
0.0413837
0.0411004
0.0408124
0.0405225
0.040232
0.0399426
0.0396554
0.0393716
0.0390931
0.0388207
0.0385561
0.0382987
0.0380507
0.0378131
0.0375856
0.0373667
0.0371592
0.0369621
0.0367755
0.0365982
0.0364302
0.0362714
0.0361157
0.0359753
0.0358286
0.035694
0.035565
0.0354507
0.035241
0.042133
0.042133
0.042133
0.042133
0.042133
0.042133
0.042133
0.042133
0.042133
0.042133
0.042133
0.042133
0.042133
0.042133
0.042133
0.042133
0.042133
0.042133
0.042133
0.042133
0.042133
0.042133
0.042133
0.042133
0.042133
0.042133
0.042133
0.042133
0.042133
0.042133
0.042133
0.042133
0.042133
0.042133
0.042133
0.042133
0.042133
0.042133
0.042133
0.042133
0.042133
0.042133
0.042133
0.042133
0.042133
0.0421331
0.0421354
0.0422038
0.042775
0.0441784
0.0453776
0.0458139
0.0458618
0.0458422
0.0457863
0.0457347
0.0456955
0.0456646
0.0456333
0.0456022
0.0455698
0.0455372
0.0455075
0.0454791
0.0454498
0.0454201
0.0453895
0.0453564
0.0453195
0.0452784
0.0452322
0.0451796
0.0451202
0.0450538
0.0449802
0.0448986
0.0448077
0.044708
0.0446007
0.0444855
0.0443591
0.0442179
0.0440617
0.0438932
0.0437138
0.0435244
0.0433227
0.0431091
0.0428801
0.0426399
0.0423855
0.0421223
0.0418478
0.0415666
0.0412774
0.0409837
0.0406859
0.0403865
0.0400867
0.0397878
0.0394915
0.0391989
0.0389118
0.0386312
0.0383592
0.0380957
0.0378418
0.0375973
0.0373642
0.0371413
0.0369281
0.036726
0.0365377
0.0363574
0.036185
0.0360196
0.0358601
0.0357067
0.0355606
0.0354307
0.0351907
0.042133
0.042133
0.042133
0.042133
0.042133
0.042133
0.042133
0.042133
0.042133
0.042133
0.042133
0.042133
0.042133
0.042133
0.042133
0.042133
0.042133
0.042133
0.042133
0.042133
0.042133
0.042133
0.042133
0.042133
0.042133
0.042133
0.042133
0.042133
0.042133
0.042133
0.042133
0.042133
0.042133
0.042133
0.042133
0.042133
0.042133
0.042133
0.042133
0.042133
0.042133
0.042133
0.042133
0.042133
0.042133
0.042133
0.0421338
0.0421635
0.0425262
0.0437736
0.0451739
0.0458169
0.0459252
0.045913
0.0458711
0.0458288
0.0457938
0.0457645
0.0457343
0.0457059
0.0456786
0.0456524
0.0456297
0.0456083
0.0455863
0.0455641
0.0455415
0.0455168
0.0454885
0.045456
0.0454187
0.0453759
0.0453272
0.0452726
0.0452118
0.0451441
0.0450683
0.044984
0.0448924
0.0447935
0.0446843
0.0445608
0.0444223
0.0442712
0.0441091
0.0439368
0.0437519
0.0435537
0.0433393
0.0431117
0.0428681
0.0426137
0.042346
0.0420698
0.0417826
0.0414887
0.0411874
0.0408821
0.0405735
0.0402636
0.0399534
0.0396445
0.0393389
0.0390377
0.0387427
0.0384541
0.0381744
0.037905
0.0376463
0.0373952
0.0371552
0.0369272
0.0367107
0.0365012
0.0363159
0.0361212
0.0359441
0.0357621
0.035594
0.0354437
0.0351699
0.042133
0.042133
0.042133
0.042133
0.042133
0.042133
0.042133
0.042133
0.042133
0.042133
0.042133
0.042133
0.042133
0.042133
0.042133
0.042133
0.042133
0.042133
0.042133
0.042133
0.042133
0.042133
0.042133
0.042133
0.042133
0.042133
0.042133
0.042133
0.042133
0.042133
0.042133
0.042133
0.042133
0.042133
0.042133
0.042133
0.042133
0.042133
0.042133
0.042133
0.042133
0.042133
0.042133
0.042133
0.042133
0.042133
0.0421332
0.0421444
0.0423471
0.0433526
0.0448905
0.0457732
0.0459729
0.0459816
0.0459625
0.0459274
0.0458909
0.0458607
0.0458327
0.0458093
0.0457887
0.0457693
0.0457531
0.0457385
0.0457235
0.0457086
0.0456932
0.045676
0.0456553
0.0456306
0.0456016
0.0455681
0.0455301
0.045487
0.0454387
0.0453845
0.0453231
0.0452538
0.0451773
0.0450939
0.0450013
0.0448955
0.044775
0.0446419
0.0444983
0.0443448
0.044179
0.0439993
0.0438032
0.0435924
0.0433648
0.0431248
0.0428699
0.0426049
0.0423267
0.0420397
0.041742
0.0414375
0.0411258
0.0408099
0.0404904
0.0401693
0.0398482
0.0395286
0.0392124
0.038901
0.038597
0.0383004
0.0380122
0.0377336
0.0374676
0.0372135
0.0369669
0.036726
0.0364978
0.0363099
0.0360766
0.0358798
0.0356894
0.0355252
0.0352205
0.042133
0.042133
0.042133
0.042133
0.042133
0.042133
0.042133
0.042133
0.042133
0.042133
0.042133
0.042133
0.042133
0.042133
0.042133
0.042133
0.042133
0.042133
0.042133
0.042133
0.042133
0.042133
0.042133
0.042133
0.042133
0.042133
0.042133
0.042133
0.042133
0.042133
0.042133
0.042133
0.042133
0.042133
0.042133
0.042133
0.042133
0.042133
0.042133
0.042133
0.042133
0.042133
0.042133
0.042133
0.042133
0.042133
0.0421331
0.0421367
0.0422343
0.0429556
0.0445047
0.0456673
0.0460127
0.0460563
0.0460501
0.0460203
0.0459825
0.0459546
0.0459323
0.0459153
0.0459008
0.0458871
0.0458769
0.045869
0.045861
0.0458531
0.0458447
0.0458342
0.0458206
0.0458035
0.0457831
0.0457594
0.0457325
0.0457017
0.0456665
0.0456264
0.0455803
0.0455267
0.045466
0.045399
0.045324
0.0452371
0.0451361
0.0450225
0.0448986
0.0447653
0.04462
0.0444607
0.0442848
0.044093
0.0438837
0.0436603
0.0434209
0.0431695
0.0429033
0.0426265
0.0423364
0.0420371
0.0417271
0.0414105
0.0410868
0.0407592
0.0404281
0.0400957
0.0397636
0.0394337
0.039108
0.0387874
0.0384735
0.0381679
0.037873
0.0375876
0.0373121
0.0370485
0.0367957
0.0365568
0.0363147
0.0360848
0.0358674
0.0356729
0.0353211
0.042133
0.042133
0.042133
0.042133
0.042133
0.042133
0.042133
0.042133
0.042133
0.042133
0.042133
0.042133
0.042133
0.042133
0.042133
0.042133
0.042133
0.042133
0.042133
0.042133
0.042133
0.042133
0.042133
0.042133
0.042133
0.042133
0.042133
0.042133
0.042133
0.042133
0.042133
0.042133
0.042133
0.042133
0.042133
0.042133
0.042133
0.042133
0.042133
0.042133
0.042133
0.042133
0.042133
0.042133
0.042133
0.042133
0.0421331
0.042134
0.0421741
0.0426272
0.0440403
0.0454726
0.0460215
0.0461291
0.0461327
0.046111
0.0460752
0.0460516
0.0460354
0.0460237
0.046014
0.0460056
0.0460015
0.0460003
0.0459989
0.0459968
0.0459938
0.0459891
0.0459822
0.0459728
0.0459612
0.0459475
0.0459316
0.0459126
0.0458899
0.0458629
0.0458309
0.0457921
0.0457463
0.0456945
0.0456362
0.0455677
0.0454859
0.0453916
0.0452876
0.0451748
0.0450509
0.0449135
0.0447599
0.0445899
0.0444024
0.0442
0.0439812
0.0437491
0.0435013
0.0432416
0.0429665
0.04268
0.0423798
0.0420699
0.0417491
0.0414213
0.0410859
0.0407463
0.0404031
0.0400586
0.0397143
0.0393723
0.0390357
0.0387058
0.038383
0.0380676
0.0377616
0.0374651
0.0371785
0.0369001
0.0366612
0.0363768
0.0361314
0.0359107
0.0355114
0.042133
0.042133
0.042133
0.042133
0.042133
0.042133
0.042133
0.042133
0.042133
0.042133
0.042133
0.042133
0.042133
0.042133
0.042133
0.042133
0.042133
0.042133
0.042133
0.042133
0.042133
0.042133
0.042133
0.042133
0.042133
0.042133
0.042133
0.042133
0.042133
0.042133
0.042133
0.042133
0.042133
0.042133
0.042133
0.042133
0.042133
0.042133
0.042133
0.042133
0.042133
0.042133
0.042133
0.042133
0.042133
0.042133
0.042133
0.0421333
0.0421471
0.0423915
0.0435388
0.0451648
0.046
0.0462027
0.0462089
0.0461968
0.046169
0.0461506
0.0461385
0.0461304
0.0461258
0.0461235
0.0461262
0.0461308
0.0461348
0.0461376
0.0461396
0.0461408
0.0461412
0.0461403
0.0461382
0.046135
0.0461302
0.046123
0.0461128
0.046099
0.0460811
0.0460576
0.046027
0.0459908
0.0459494
0.0458998
0.0458382
0.0457642
0.0456808
0.0455892
0.0454878
0.0453736
0.0452438
0.0450973
0.0449333
0.0447537
0.0445576
0.0443471
0.0441204
0.0438802
0.0436235
0.0433535
0.0430677
0.0427695
0.0424574
0.0421353
0.0418023
0.0414622
0.0411148
0.0407634
0.0404087
0.0400531
0.0396978
0.0393449
0.0389967
0.0386555
0.0383235
0.0379987
0.0376839
0.037374
0.037078
0.0367858
0.0365051
0.0362528
0.0358013
0.042133
0.042133
0.042133
0.042133
0.042133
0.042133
0.042133
0.042133
0.042133
0.042133
0.042133
0.042133
0.042133
0.042133
0.042133
0.042133
0.042133
0.042133
0.042133
0.042133
0.042133
0.042133
0.042133
0.042133
0.042133
0.042133
0.042133
0.042133
0.042133
0.042133
0.042133
0.042133
0.042133
0.042133
0.042133
0.042133
0.042133
0.042133
0.042133
0.042133
0.042133
0.042133
0.042133
0.042133
0.042133
0.042133
0.042133
0.0421331
0.0421371
0.0422487
0.0430642
0.0447393
0.0459038
0.0462524
0.0462759
0.04628
0.0462645
0.0462494
0.0462396
0.0462359
0.0462377
0.0462421
0.0462503
0.0462596
0.0462675
0.0462745
0.0462818
0.0462897
0.0462979
0.0463057
0.0463131
0.0463198
0.0463252
0.0463287
0.0463299
0.0463288
0.0463237
0.0463144
0.0462983
0.0462763
0.0462505
0.0462185
0.0461761
0.0461217
0.0460579
0.0459869
0.0459075
0.0458167
0.0457114
0.0455896
0.045451
0.0452969
0.0451268
0.0449421
0.0447414
0.0445264
0.0442942
0.0440478
0.0437837
0.0435052
0.0432102
0.0429022
0.0425797
0.0422465
0.0419017
0.0415494
0.0411895
0.0408257
0.0404586
0.0400908
0.039724
0.0393606
0.0390021
0.0386496
0.0383039
0.0379635
0.0376293
0.0373211
0.0369927
0.0367098
0.0362063
0.042133
0.042133
0.042133
0.042133
0.042133
0.042133
0.042133
0.042133
0.042133
0.042133
0.042133
0.042133
0.042133
0.042133
0.042133
0.042133
0.042133
0.042133
0.042133
0.042133
0.042133
0.042133
0.042133
0.042133
0.042133
0.042133
0.042133
0.042133
0.042133
0.042133
0.042133
0.042133
0.042133
0.042133
0.042133
0.042133
0.042133
0.042133
0.042133
0.042133
0.042133
0.042133
0.042133
0.042133
0.042133
0.042133
0.042133
0.042133
0.042134
0.0421767
0.0426754
0.0442183
0.0457054
0.0462689
0.0463465
0.0463713
0.0463593
0.0463438
0.0463383
0.0463425
0.0463505
0.0463594
0.0463706
0.0463826
0.0463945
0.0464069
0.046421
0.0464365
0.0464528
0.0464692
0.0464856
0.0465018
0.0465173
0.0465315
0.0465437
0.0465543
0.0465623
0.0465664
0.0465653
0.0465576
0.0465472
0.0465328
0.0465097
0.0464756
0.0464317
0.0463813
0.0463243
0.0462576
0.0461776
0.0460816
0.0459695
0.045842
0.0456989
0.0455415
0.0453685
0.0451806
0.0449755
0.0447552
0.0445162
0.0442613
0.043988
0.0436994
0.0433937
0.0430746
0.042741
0.0423966
0.0420401
0.0416761
0.0413038
0.0409279
0.0405482
0.0401685
0.0397898
0.0394149
0.0390456
0.0386805
0.0383223
0.0379639
0.0376086
0.0372917
0.0367352
0.042133
0.042133
0.042133
0.042133
0.042133
0.042133
0.042133
0.042133
0.042133
0.042133
0.042133
0.042133
0.042133
0.042133
0.042133
0.042133
0.042133
0.042133
0.042133
0.042133
0.042133
0.042133
0.042133
0.042133
0.042133
0.042133
0.042133
0.042133
0.042133
0.042133
0.042133
0.042133
0.042133
0.042133
0.042133
0.042133
0.042133
0.042133
0.042133
0.042133
0.042133
0.042133
0.042133
0.042133
0.042133
0.042133
0.042133
0.042133
0.0421333
0.0421468
0.042406
0.0436547
0.0453839
0.0462423
0.0464181
0.0464566
0.0464429
0.0464305
0.0464354
0.0464474
0.0464605
0.0464722
0.0464855
0.0465011
0.0465187
0.0465379
0.0465592
0.0465819
0.0466053
0.0466292
0.0466535
0.0466784
0.0467033
0.0467275
0.0467502
0.0467719
0.0467922
0.0468085
0.0468194
0.0468257
0.0468294
0.0468306
0.0468253
0.0468108
0.0467861
0.046755
0.0467188
0.0466753
0.0466201
0.0465499
0.0464646
0.0463645
0.04625
0.046122
0.0459794
0.0458223
0.0456486
0.0454594
0.0452512
0.0450262
0.0447817
0.04452
0.0442391
0.0439417
0.0436267
0.0432974
0.0429528
0.0425974
0.0422294
0.0418541
0.0414697
0.0410817
0.0406892
0.0402964
0.0399026
0.039512
0.039122
0.0387488
0.0383509
0.0380054
0.0373988
0.042133
0.042133
0.042133
0.042133
0.042133
0.042133
0.042133
0.042133
0.042133
0.042133
0.042133
0.042133
0.042133
0.042133
0.042133
0.042133
0.042133
0.042133
0.042133
0.042133
0.042133
0.042133
0.042133
0.042133
0.042133
0.042133
0.042133
0.042133
0.042133
0.042133
0.042133
0.042133
0.042133
0.042133
0.042133
0.042133
0.042133
0.042133
0.042133
0.042133
0.042133
0.042133
0.042133
0.042133
0.042133
0.042133
0.042133
0.042133
0.0421331
0.0421367
0.0422502
0.0431285
0.0449329
0.046148
0.046474
0.0465278
0.0465209
0.046522
0.0465377
0.0465544
0.0465666
0.0465778
0.0465944
0.0466166
0.0466419
0.0466682
0.0466953
0.0467234
0.0467526
0.0467833
0.0468157
0.0468494
0.0468837
0.0469173
0.0469498
0.0469816
0.0470128
0.0470414
0.0470648
0.0470836
0.0471012
0.0471178
0.0471296
0.0471339
0.0471298
0.0471177
0.0471023
0.0470815
0.0470512
0.0470074
0.0469492
0.0468766
0.0467909
0.0466927
0.046581
0.0464554
0.0463141
0.0461572
0.0459815
0.0457888
0.0455759
0.0453448
0.0450932
0.0448237
0.0445348
0.0442287
0.043905
0.0435663
0.0432115
0.0428456
0.0424664
0.0420805
0.0416846
0.041285
0.0408794
0.0404719
0.0400604
0.0396483
0.0392349
0.03885
0.0382038
0.042133
0.042133
0.042133
0.042133
0.042133
0.042133
0.042133
0.042133
0.042133
0.042133
0.042133
0.042133
0.042133
0.042133
0.042133
0.042133
0.042133
0.042133
0.042133
0.042133
0.042133
0.042133
0.042133
0.042133
0.042133
0.042133
0.042133
0.042133
0.042133
0.042133
0.042133
0.042133
0.042133
0.042133
0.042133
0.042133
0.042133
0.042133
0.042133
0.042133
0.042133
0.042133
0.042133
0.042133
0.042133
0.042133
0.042133
0.042133
0.042133
0.0421339
0.0421758
0.0427082
0.0443835
0.0459531
0.0464957
0.0465887
0.0466052
0.0466192
0.0466364
0.0466502
0.0466607
0.0466752
0.0466998
0.046731
0.0467635
0.0467948
0.0468256
0.0468578
0.0468927
0.0469307
0.0469714
0.047014
0.0470569
0.0470991
0.04714
0.0471804
0.0472211
0.0472604
0.0472952
0.0473258
0.0473561
0.0473877
0.0474163
0.0474368
0.0474496
0.0474568
0.0474607
0.0474607
0.0474533
0.0474354
0.0474037
0.0473581
0.047301
0.0472324
0.0471521
0.0470592
0.046952
0.04683
0.0466904
0.046534
0.0463573
0.0461621
0.0459457
0.0457101
0.0454535
0.0451778
0.0448825
0.0445689
0.0442373
0.0438901
0.0435262
0.0431516
0.0427622
0.0423665
0.0419578
0.0415449
0.0411197
0.0406934
0.0402538
0.0398325
0.0391545
0.042133
0.042133
0.042133
0.042133
0.042133
0.042133
0.042133
0.042133
0.042133
0.042133
0.042133
0.042133
0.042133
0.042133
0.042133
0.042133
0.042133
0.042133
0.042133
0.042133
0.042133
0.042133
0.042133
0.042133
0.042133
0.042133
0.042133
0.042133
0.042133
0.042133
0.042133
0.042133
0.042133
0.042133
0.042133
0.042133
0.042133
0.042133
0.042133
0.042133
0.042133
0.042133
0.042133
0.042133
0.042133
0.042133
0.042133
0.042133
0.042133
0.0421332
0.0421465
0.0424245
0.0437989
0.0456423
0.0464738
0.0466483
0.0466957
0.046713
0.0467229
0.0467336
0.0467492
0.0467738
0.0468088
0.0468469
0.0468823
0.0469148
0.0469478
0.0469848
0.0470269
0.0470732
0.0471223
0.0471726
0.0472225
0.0472711
0.0473186
0.0473663
0.0474155
0.0474651
0.0475116
0.0475543
0.047597
0.0476426
0.0476874
0.0477251
0.0477546
0.0477789
0.0478013
0.0478212
0.0478353
0.0478415
0.0478371
0.0478182
0.0477895
0.0477496
0.0477
0.0476391
0.0475654
0.047478
0.0473746
0.0472548
0.0471155
0.046958
0.0467794
0.0465813
0.0463613
0.0461214
0.0458601
0.0455785
0.0452772
0.0449564
0.0446175
0.0442626
0.0438904
0.043507
0.0431056
0.0426976
0.0422695
0.0418436
0.0413861
0.0409448
0.0402599
0.042133
0.042133
0.042133
0.042133
0.042133
0.042133
0.042133
0.042133
0.042133
0.042133
0.042133
0.042133
0.042133
0.042133
0.042133
0.042133
0.042133
0.042133
0.042133
0.042133
0.042133
0.042133
0.042133
0.042133
0.042133
0.042133
0.042133
0.042133
0.042133
0.042133
0.042133
0.042133
0.042133
0.042133
0.042133
0.042133
0.042133
0.042133
0.042133
0.042133
0.042133
0.042133
0.042133
0.042133
0.042133
0.042133
0.042133
0.042133
0.042133
0.0421331
0.0421368
0.0422631
0.0432595
0.0452185
0.0463999
0.0467029
0.0467805
0.0467912
0.0467961
0.0468115
0.0468395
0.0468755
0.0469162
0.0469549
0.0469893
0.0470229
0.0470604
0.0471048
0.0471557
0.0472103
0.0472664
0.0473223
0.047377
0.0474305
0.0474835
0.047538
0.0475953
0.0476549
0.047713
0.0477676
0.0478222
0.0478802
0.0479392
0.0479922
0.0480366
0.048076
0.0481147
0.0481531
0.0481881
0.0482155
0.048233
0.0482412
0.0482405
0.0482278
0.0482081
0.0481785
0.0481377
0.0480854
0.0480187
0.0479367
0.0478367
0.0477192
0.0475811
0.0474238
0.0472444
0.0470454
0.0468235
0.0465812
0.0463173
0.0460318
0.0457267
0.0454013
0.0450585
0.0446982
0.0443193
0.0439252
0.0435078
0.0430829
0.0426227
0.0421598
0.041488
0.042133
0.042133
0.042133
0.042133
0.042133
0.042133
0.042133
0.042133
0.042133
0.042133
0.042133
0.042133
0.042133
0.042133
0.042133
0.042133
0.042133
0.042133
0.042133
0.042133
0.042133
0.042133
0.042133
0.042133
0.042133
0.042133
0.042133
0.042133
0.042133
0.042133
0.042133
0.042133
0.042133
0.042133
0.042133
0.042133
0.042133
0.042133
0.042133
0.042133
0.042133
0.042133
0.042133
0.042133
0.042133
0.042133
0.042133
0.042133
0.042133
0.042133
0.042134
0.0421851
0.0428291
0.0447128
0.0462526
0.0467416
0.0468498
0.0468555
0.0468657
0.0468937
0.0469337
0.0469746
0.0470139
0.0470499
0.0470849
0.0471237
0.0471697
0.0472234
0.0472824
0.047343
0.0474028
0.0474613
0.0475188
0.0475763
0.0476351
0.0476968
0.0477628
0.0478324
0.0479018
0.0479681
0.0480335
0.0481023
0.0481735
0.0482401
0.0482983
0.0483513
0.0484043
0.0484593
0.0485137
0.0485629
0.0486038
0.0486351
0.048658
0.0486732
0.0486808
0.0486822
0.0486717
0.0486535
0.0486221
0.0485764
0.0485151
0.0484369
0.0483397
0.0482239
0.0480869
0.0479304
0.0477506
0.0475509
0.0473278
0.0470831
0.0468166
0.0465278
0.0462199
0.0458906
0.0455435
0.0451744
0.0447847
0.0443725
0.0439345
0.043457
0.0428284
0.042133
0.042133
0.042133
0.042133
0.042133
0.042133
0.042133
0.042133
0.042133
0.042133
0.042133
0.042133
0.042133
0.042133
0.042133
0.042133
0.042133
0.042133
0.042133
0.042133
0.042133
0.042133
0.042133
0.042133
0.042133
0.042133
0.042133
0.042133
0.042133
0.042133
0.042133
0.042133
0.042133
0.042133
0.042133
0.042133
0.042133
0.042133
0.042133
0.042133
0.042133
0.042133
0.042133
0.042133
0.042133
0.042133
0.042133
0.042133
0.042133
0.042133
0.0421333
0.0421523
0.0425305
0.0441821
0.0460298
0.0467571
0.0469015
0.046915
0.0469391
0.0469791
0.0470239
0.0470626
0.047098
0.0471337
0.0471739
0.0472215
0.0472769
0.0473383
0.0474021
0.0474649
0.0475256
0.0475853
0.0476456
0.0477081
0.0477739
0.047844
0.047919
0.047998
0.0480777
0.0481543
0.0482289
0.0483061
0.0483868
0.0484647
0.048535
0.0485999
0.0486655
0.048735
0.0488066
0.0488754
0.0489374
0.0489912
0.0490371
0.0490764
0.0491091
0.0491364
0.0491567
0.0491691
0.0491728
0.0491619
0.0491395
0.0491006
0.049044
0.0489706
0.0488771
0.0487648
0.04863
0.0484762
0.0482981
0.0480996
0.0478774
0.047633
0.047367
0.0470781
0.0467693
0.0464346
0.0460779
0.045693
0.0452824
0.0448224
0.0442235
0.042133
0.042133
0.042133
0.042133
0.042133
0.042133
0.042133
0.042133
0.042133
0.042133
0.042133
0.042133
0.042133
0.042133
0.042133
0.042133
0.042133
0.042133
0.042133
0.042133
0.042133
0.042133
0.042133
0.042133
0.042133
0.042133
0.042133
0.042133
0.042133
0.042133
0.042133
0.042133
0.042133
0.042133
0.042133
0.042133
0.042133
0.042133
0.042133
0.042133
0.042133
0.042133
0.042133
0.042133
0.042133
0.042133
0.042133
0.042133
0.042133
0.042133
0.0421331
0.04214
0.0423476
0.0436885
0.0457417
0.0467439
0.046938
0.0469761
0.0470148
0.0470605
0.0471037
0.0471378
0.0471718
0.047212
0.0472607
0.0473178
0.0473804
0.0474457
0.0475107
0.0475732
0.047634
0.0476957
0.0477607
0.0478301
0.0479044
0.0479833
0.0480667
0.0481538
0.0482417
0.0483264
0.048408
0.0484912
0.0485788
0.048666
0.0487471
0.0488231
0.0489001
0.0489828
0.0490701
0.0491571
0.0492386
0.0493126
0.0493794
0.0494404
0.0494968
0.0495488
0.049596
0.0496366
0.0496699
0.0496927
0.0497047
0.0497055
0.0496866
0.0496553
0.0496039
0.0495351
0.0494455
0.0493371
0.0492052
0.0490538
0.0488775
0.0486799
0.0484586
0.048215
0.0479493
0.0476571
0.0473405
0.0469922
0.0466171
0.0461923
0.0456448
0.042133
0.042133
0.042133
0.042133
0.042133
0.042133
0.042133
0.042133
0.042133
0.042133
0.042133
0.042133
0.042133
0.042133
0.042133
0.042133
0.042133
0.042133
0.042133
0.042133
0.042133
0.042133
0.042133
0.042133
0.042133
0.042133
0.042133
0.042133
0.042133
0.042133
0.042133
0.042133
0.042133
0.042133
0.042133
0.042133
0.042133
0.042133
0.042133
0.042133
0.042133
0.042133
0.042133
0.042133
0.042133
0.042133
0.042133
0.042133
0.042133
0.042133
0.0421331
0.0421357
0.0422463
0.0432776
0.0454127
0.0467
0.0469645
0.0470391
0.0470874
0.0471328
0.0471719
0.0472034
0.0472405
0.0472884
0.047346
0.0474101
0.0474763
0.0475419
0.0476055
0.0476673
0.0477293
0.0477951
0.0478667
0.0479443
0.0480272
0.048114
0.048204
0.0482966
0.04839
0.0484803
0.0485668
0.0486542
0.0487468
0.0488417
0.0489327
0.0490191
0.0491068
0.0492012
0.0493023
0.0494051
0.049504
0.049596
0.0496812
0.0497612
0.0498376
0.0499112
0.0499818
0.0500484
0.0501093
0.0501628
0.0502062
0.0502394
0.0502594
0.0502671
0.0502582
0.0502323
0.0501887
0.0501259
0.0500425
0.0499402
0.0498134
0.0496664
0.049494
0.0493004
0.0490822
0.0488384
0.0485665
0.0482601
0.0479234
0.0475356
0.0470345
0.042133
0.042133
0.042133
0.042133
0.042133
0.042133
0.042133
0.042133
0.042133
0.042133
0.042133
0.042133
0.042133
0.042133
0.042133
0.042133
0.042133
0.042133
0.042133
0.042133
0.042133
0.042133
0.042133
0.042133
0.042133
0.042133
0.042133
0.042133
0.042133
0.042133
0.042133
0.042133
0.042133
0.042133
0.042133
0.042133
0.042133
0.042133
0.042133
0.042133
0.042133
0.042133
0.042133
0.042133
0.042133
0.042133
0.042133
0.042133
0.042133
0.042133
0.0421331
0.0421342
0.042194
0.0429673
0.0450775
0.0466276
0.0469861
0.0471007
0.0471529
0.0471948
0.0472303
0.0472625
0.0473062
0.0473629
0.047428
0.0474959
0.0475622
0.0476257
0.0476874
0.0477494
0.0478147
0.0478863
0.0479656
0.0480514
0.0481417
0.0482345
0.0483286
0.0484243
0.0485205
0.0486144
0.0487044
0.048795
0.0488918
0.0489937
0.0490941
0.0491908
0.0492886
0.0493934
0.0495063
0.0496227
0.0497366
0.0498442
0.0499453
0.0500416
0.0501351
0.0502269
0.0503174
0.0504057
0.0504906
0.0505702
0.0506429
0.0507068
0.05076
0.0508016
0.0508301
0.0508451
0.0508464
0.0508266
0.050791
0.0507359
0.0506576
0.0505608
0.0504378
0.0502951
0.050126
0.0499337
0.0497106
0.0494537
0.0491628
0.0488232
0.0483824
0.042133
0.042133
0.042133
0.042133
0.042133
0.042133
0.042133
0.042133
0.042133
0.042133
0.042133
0.042133
0.042133
0.042133
0.042133
0.042133
0.042133
0.042133
0.042133
0.042133
0.042133
0.042133
0.042133
0.042133
0.042133
0.042133
0.042133
0.042133
0.042133
0.042133
0.042133
0.042133
0.042133
0.042133
0.042133
0.042133
0.042133
0.042133
0.042133
0.042133
0.042133
0.042133
0.042133
0.042133
0.042133
0.042133
0.042133
0.042133
0.042133
0.042133
0.042133
0.0421336
0.0421681
0.0427516
0.0447729
0.0465388
0.0470069
0.0471573
0.0472101
0.0472477
0.047281
0.0473167
0.0473689
0.0474343
0.0475044
0.0475735
0.0476379
0.0476985
0.0477589
0.0478226
0.0478925
0.0479708
0.0480574
0.0481499
0.0482456
0.0483419
0.0484379
0.0485345
0.0486319
0.0487281
0.0488212
0.0489148
0.0490156
0.0491239
0.0492333
0.0493398
0.0494468
0.0495605
0.0496829
0.0498103
0.0499363
0.0500568
0.0501712
0.0502808
0.0503881
0.0504946
0.050601
0.0507069
0.0508113
0.0509128
0.0510096
0.0511001
0.0511829
0.0512565
0.0513199
0.0513711
0.0514102
0.0514351
0.0514455
0.0514398
0.0514102
0.051366
0.0512945
0.0512051
0.0510873
0.0509479
0.0507736
0.0505666
0.0503194
0.0500285
0.0496489
0.042133
0.042133
0.042133
0.042133
0.042133
0.042133
0.042133
0.042133
0.042133
0.042133
0.042133
0.042133
0.042133
0.042133
0.042133
0.042133
0.042133
0.042133
0.042133
0.042133
0.042133
0.042133
0.042133
0.042133
0.042133
0.042133
0.042133
0.042133
0.042133
0.042133
0.042133
0.042133
0.042133
0.042133
0.042133
0.042133
0.042133
0.042133
0.042133
0.042133
0.042133
0.042133
0.042133
0.042133
0.042133
0.042133
0.042133
0.042133
0.042133
0.042133
0.042133
0.0421334
0.0421562
0.0426135
0.0445285
0.0464522
0.0470284
0.0472073
0.0472595
0.0472937
0.0473267
0.0473676
0.0474284
0.0475005
0.0475735
0.0476419
0.0477038
0.0477621
0.0478225
0.0478891
0.0479642
0.0480486
0.048141
0.0482383
0.0483369
0.0484346
0.0485309
0.0486272
0.0487252
0.0488233
0.0489195
0.0490167
0.0491216
0.049236
0.0493537
0.049469
0.0495841
0.049705
0.0498346
0.0499701
0.0501056
0.0502364
0.0503613
0.0504814
0.0505994
0.050717
0.0508355
0.0509549
0.0510746
0.0511933
0.0513094
0.0514216
0.0515283
0.0516285
0.051721
0.0518048
0.0518785
0.0519413
0.0519906
0.0520272
0.0520471
0.0520528
0.0520331
0.0519981
0.0519347
0.051851
0.0517318
0.0515817
0.0513821
0.0511453
0.0508271
0.042133
0.042133
0.042133
0.042133
0.042133
0.042133
0.042133
0.042133
0.042133
0.042133
0.042133
0.042133
0.042133
0.042133
0.042133
0.042133
0.042133
0.042133
0.042133
0.042133
0.042133
0.042133
0.042133
0.042133
0.042133
0.042133
0.042133
0.042133
0.042133
0.042133
0.042133
0.042133
0.042133
0.042133
0.042133
0.042133
0.042133
0.042133
0.042133
0.042133
0.042133
0.042133
0.042133
0.042133
0.042133
0.042133
0.042133
0.042133
0.042133
0.042133
0.042133
0.0421332
0.0421504
0.0425372
0.0443623
0.0463908
0.047049
0.0472484
0.0473011
0.0473349
0.0473702
0.0474171
0.0474844
0.0475602
0.0476337
0.0477006
0.0477606
0.047818
0.0478798
0.0479501
0.04803
0.0481193
0.0482156
0.0483155
0.0484153
0.0485131
0.0486088
0.0487047
0.0488031
0.0489034
0.0490031
0.0491041
0.0492132
0.0493331
0.0494578
0.0495807
0.0497023
0.0498285
0.0499631
0.0501043
0.0502465
0.0503849
0.0505175
0.0506454
0.0507709
0.0508964
0.0510234
0.0511524
0.0512831
0.0514144
0.0515451
0.0516738
0.0517993
0.0519205
0.0520365
0.0521465
0.0522497
0.0523449
0.0524309
0.0525064
0.052569
0.0526186
0.0526511
0.0526682
0.052663
0.0526329
0.0525732
0.0524828
0.0523359
0.0521602
0.0519045
0.042133
0.042133
0.042133
0.042133
0.042133
0.042133
0.042133
0.042133
0.042133
0.042133
0.042133
0.042133
0.042133
0.042133
0.042133
0.042133
0.042133
0.042133
0.042133
0.042133
0.042133
0.042133
0.042133
0.042133
0.042133
0.042133