/*--------------------------------*- C++ -*----------------------------------*\
| =========                 |                                                 |
| \\      /  F ield         | OpenFOAM: The Open Source CFD Toolbox           |
|  \\    /   O peration     | Version:  2412                                  |
|   \\  /    A nd           | Website:  www.openfoam.com                      |
|    \\/     M anipulation  |                                                 |
\*---------------------------------------------------------------------------*/
FoamFile
{
    version     2.0;
    format      ascii;
    arch        "LSB;label=32;scalar=64";
    class       volVectorField;
    location    "0.095";
    object      U;
}
// * * * * * * * * * * * * * * * * * * * * * * * * * * * * * * * * * * * * * //

dimensions      [0 1 -1 0 0 0 0];

internalField   nonuniform List<vector> 
9831
(
(319.223 174.093 0)
(274.162 1.66368 0)
(319.46 175.017 0)
(274.341 1.76903 0)
(252.161 -4.09451 0)
(241.577 -4.18443 0)
(233.218 -6.31989 0)
(227.534 -7.81193 0)
(223.913 -9.23506 0)
(221.462 -10.1692 0)
(219.935 -11.0375 0)
(218.704 -11.6507 0)
(217.652 -12.1478 0)
(216.659 -12.5274 0)
(215.71 -12.8265 0)
(214.804 -13.0612 0)
(213.936 -13.2416 0)
(213.099 -13.378 0)
(212.283 -13.4831 0)
(211.48 -13.571 0)
(210.689 -13.6528 0)
(209.915 -13.7304 0)
(209.167 -13.803 0)
(208.446 -13.8671 0)
(207.755 -13.9245 0)
(207.092 -13.9736 0)
(206.457 -14.0139 0)
(205.85 -14.0404 0)
(205.273 -14.0496 0)
(204.722 -14.0404 0)
(204.194 -14.015 0)
(203.683 -13.9779 0)
(203.185 -13.9331 0)
(202.695 -13.8842 0)
(202.211 -13.834 0)
(201.73 -13.7852 0)
(201.251 -13.7396 0)
(200.774 -13.6981 0)
(200.3 -13.6609 0)
(199.831 -13.6277 0)
(199.367 -13.5987 0)
(198.909 -13.574 0)
(198.46 -13.5539 0)
(198.019 -13.5382 0)
(197.59 -13.5261 0)
(197.175 -13.5169 0)
(196.775 -13.51 0)
(196.393 -13.505 0)
(196.028 -13.502 0)
(195.684 -13.501 0)
(195.361 -13.502 0)
(195.06 -13.5048 0)
(319.567 175.721 0)
(274.519 1.86305 0)
(252.292 -4.06395 0)
(241.68 -4.17407 0)
(233.295 -6.34321 0)
(227.587 -7.84992 0)
(223.953 -9.27639 0)
(221.495 -10.2092 0)
(219.963 -11.0773 0)
(218.728 -11.6894 0)
(217.674 -12.1856 0)
(216.677 -12.5643 0)
(215.726 -12.8626 0)
(214.818 -13.0966 0)
(213.948 -13.2766 0)
(213.109 -13.4127 0)
(212.291 -13.518 0)
(211.486 -13.6063 0)
(210.693 -13.6884 0)
(209.919 -13.7662 0)
(209.17 -13.8387 0)
(208.45 -13.9025 0)
(207.759 -13.9597 0)
(207.096 -14.0087 0)
(206.462 -14.0487 0)
(205.856 -14.0749 0)
(205.279 -14.0838 0)
(204.728 -14.0745 0)
(204.2 -14.0492 0)
(203.69 -14.0125 0)
(203.191 -13.9683 0)
(202.701 -13.9203 0)
(202.216 -13.8711 0)
(201.734 -13.8235 0)
(201.255 -13.779 0)
(200.778 -13.7388 0)
(200.304 -13.7029 0)
(199.834 -13.671 0)
(199.369 -13.6431 0)
(198.912 -13.6195 0)
(198.462 -13.6004 0)
(198.021 -13.5855 0)
(197.592 -13.5741 0)
(197.177 -13.5652 0)
(196.777 -13.5584 0)
(196.394 -13.5532 0)
(196.03 -13.5498 0)
(195.686 -13.5481 0)
(195.362 -13.5479 0)
(195.061 -13.5491 0)
(194.784 -13.5511 0)
(194.534 -13.5535 0)
(319.595 176.33 0)
(274.684 1.96146 0)
(252.42 -4.03431 0)
(241.782 -4.16402 0)
(233.37 -6.36731 0)
(227.639 -7.88857 0)
(223.993 -9.31627 0)
(221.529 -10.2469 0)
(219.993 -11.1151 0)
(218.754 -11.7266 0)
(217.696 -12.2224 0)
(216.697 -12.6002 0)
(215.743 -12.8979 0)
(214.832 -13.1312 0)
(213.96 -13.3108 0)
(213.119 -13.4469 0)
(212.298 -13.5524 0)
(211.491 -13.6412 0)
(210.697 -13.7236 0)
(209.922 -13.8015 0)
(209.172 -13.8739 0)
(208.452 -13.9375 0)
(207.762 -13.9945 0)
(207.099 -14.0433 0)
(206.465 -14.0831 0)
(205.859 -14.109 0)
(205.283 -14.1177 0)
(204.733 -14.1083 0)
(204.205 -14.0831 0)
(203.694 -14.0468 0)
(203.195 -14.0032 0)
(202.705 -13.956 0)
(202.219 -13.9079 0)
(201.737 -13.8614 0)
(201.257 -13.8183 0)
(200.779 -13.7793 0)
(200.304 -13.7446 0)
(199.834 -13.7139 0)
(199.369 -13.6872 0)
(198.911 -13.6647 0)
(198.461 -13.6467 0)
(198.02 -13.6327 0)
(197.591 -13.6218 0)
(197.175 -13.6134 0)
(196.775 -13.6066 0)
(196.393 -13.6014 0)
(196.028 -13.5975 0)
(195.683 -13.595 0)
(195.36 -13.5937 0)
(195.058 -13.5933 0)
(194.782 -13.5932 0)
(194.531 -13.5928 0)
(194.308 -13.5917 0)
(194.116 -13.5892 0)
(319.782 177.222 0)
(274.834 2.08532 0)
(252.546 -4.00888 0)
(241.884 -4.15401 0)
(233.445 -6.39067 0)
(227.69 -7.92604 0)
(224.031 -9.35632 0)
(221.56 -10.2854 0)
(220.02 -11.1535 0)
(218.777 -11.7639 0)
(217.716 -12.2588 0)
(216.715 -12.6358 0)
(215.759 -12.9327 0)
(214.846 -13.1655 0)
(213.971 -13.3446 0)
(213.128 -13.4807 0)
(212.305 -13.5864 0)
(211.496 -13.6756 0)
(210.701 -13.7583 0)
(209.925 -13.8363 0)
(209.176 -13.9086 0)
(208.456 -13.972 0)
(207.765 -14.0288 0)
(207.103 -14.0775 0)
(206.469 -14.1171 0)
(205.865 -14.1428 0)
(205.289 -14.1513 0)
(204.739 -14.1417 0)
(204.211 -14.1167 0)
(203.7 -14.0808 0)
(203.201 -14.0379 0)
(202.71 -13.9916 0)
(202.224 -13.9446 0)
(201.742 -13.8993 0)
(201.261 -13.8574 0)
(200.783 -13.8198 0)
(200.308 -13.7863 0)
(199.837 -13.7569 0)
(199.372 -13.7313 0)
(198.914 -13.71 0)
(198.463 -13.6929 0)
(198.022 -13.6798 0)
(197.592 -13.6696 0)
(197.177 -13.6615 0)
(196.777 -13.6549 0)
(196.394 -13.6495 0)
(196.03 -13.6453 0)
(195.685 -13.6421 0)
(195.36 -13.6397 0)
(195.058 -13.6376 0)
(194.781 -13.6354 0)
(194.53 -13.6324 0)
(194.307 -13.628 0)
(194.113 -13.6214 0)
(193.95 -13.612 0)
(193.818 -13.5981 0)
(193.72 -13.5807 0)
(193.662 -13.5573 0)
(193.645 -13.5333 0)
(193.649 -13.5069 0)
(193.684 -13.4638 0)
(193.762 -13.4164 0)
(193.875 -13.3615 0)
(194.022 -13.2991 0)
(194.202 -13.2279 0)
(194.413 -13.1484 0)
(194.654 -13.0597 0)
(194.924 -12.9618 0)
(195.221 -12.8549 0)
(195.542 -12.7386 0)
(195.887 -12.6137 0)
(196.253 -12.4797 0)
(196.637 -12.3377 0)
(197.038 -12.1867 0)
(197.454 -12.0296 0)
(197.881 -11.8631 0)
(198.32 -11.6931 0)
(198.765 -11.513 0)
(199.22 -11.3329 0)
(199.676 -11.1412 0)
(200.14 -10.9539 0)
(200.598 -10.753 0)
(201.064 -10.5612 0)
(201.519 -10.3536 0)
(201.982 -10.1597 0)
(202.428 -9.94804 0)
(202.884 -9.75422 0)
(203.317 -9.5411 0)
(203.76 -9.34904 0)
(204.178 -9.13697 0)
(204.605 -8.94805 0)
(205.003 -8.73919 0)
(205.411 -8.55449 0)
(205.79 -8.35065 0)
(206.178 -8.17118 0)
(206.536 -7.97396 0)
(206.903 -7.80067 0)
(207.242 -7.61131 0)
(207.589 -7.44492 0)
(207.908 -7.26426 0)
(208.234 -7.10527 0)
(208.533 -6.93373 0)
(208.837 -6.78247 0)
(209.115 -6.62016 0)
(209.397 -6.47679 0)
(209.655 -6.32374 0)
(209.917 -6.18843 0)
(210.158 -6.04496 0)
(210.406 -5.91806 0)
(210.639 -5.7847 0)
(210.876 -5.66627 0)
(211.097 -5.54277 0)
(211.316 -5.43225 0)
(211.512 -5.31786 0)
(211.696 -5.21437 0)
(211.845 -5.10871 0)
(211.953 -5.00708 0)
(212.052 -4.90286 0)
(212.071 -4.82073 0)
(319.829 177.853 0)
(274.98 2.17184 0)
(252.669 -3.9854 0)
(241.986 -4.14391 0)
(233.519 -6.41485 0)
(227.739 -7.96417 0)
(224.07 -9.39491 0)
(221.593 -10.3218 0)
(220.048 -11.19 0)
(218.801 -11.7999 0)
(217.738 -12.2943 0)
(216.733 -12.6705 0)
(215.775 -12.9668 0)
(214.86 -13.199 0)
(213.983 -13.3778 0)
(213.137 -13.5139 0)
(212.313 -13.6199 0)
(211.502 -13.7095 0)
(210.705 -13.7926 0)
(209.928 -13.8707 0)
(209.178 -13.9429 0)
(208.458 -14.0062 0)
(207.768 -14.0628 0)
(207.106 -14.1113 0)
(206.473 -14.1507 0)
(205.868 -14.1762 0)
(205.293 -14.1845 0)
(204.743 -14.1749 0)
(204.216 -14.1501 0)
(203.705 -14.1146 0)
(203.205 -14.0724 0)
(202.714 -14.027 0)
(202.228 -13.981 0)
(201.744 -13.9369 0)
(201.263 -13.8963 0)
(200.784 -13.86 0)
(200.309 -13.8278 0)
(199.838 -13.7996 0)
(199.372 -13.7752 0)
(198.913 -13.755 0)
(198.462 -13.739 0)
(198.021 -13.7267 0)
(197.591 -13.7172 0)
(197.175 -13.7095 0)
(196.775 -13.703 0)
(196.392 -13.6976 0)
(196.027 -13.693 0)
(195.682 -13.689 0)
(195.357 -13.6855 0)
(195.055 -13.6819 0)
(194.777 -13.6776 0)
(194.525 -13.6718 0)
(194.301 -13.6641 0)
(194.106 -13.6535 0)
(193.942 -13.6395 0)
(193.808 -13.6198 0)
(193.709 -13.597 0)
(193.649 -13.5666 0)
(193.631 -13.5332 0)
(193.632 -13.4988 0)
(193.663 -13.4459 0)
(193.737 -13.3883 0)
(193.846 -13.3224 0)
(193.988 -13.2481 0)
(194.163 -13.1643 0)
(194.368 -13.0714 0)
(194.603 -12.9686 0)
(194.866 -12.8562 0)
(195.155 -12.7342 0)
(195.469 -12.6023 0)
(195.805 -12.4614 0)
(196.161 -12.311 0)
(196.535 -12.1524 0)
(196.925 -11.9847 0)
(197.33 -11.8105 0)
(197.746 -11.6272 0)
(198.173 -11.44 0)
(198.606 -11.2433 0)
(199.048 -11.046 0)
(199.491 -10.8381 0)
(199.941 -10.6338 0)
(200.386 -10.4172 0)
(200.839 -10.2089 0)
(201.28 -9.98628 0)
(201.729 -9.77645 0)
(202.161 -9.5506 0)
(202.602 -9.34153 0)
(203.021 -9.11504 0)
(203.45 -8.90856 0)
(203.853 -8.68397 0)
(204.267 -8.48154 0)
(204.651 -8.26099 0)
(205.046 -8.06372 0)
(205.41 -7.84901 0)
(205.785 -7.65794 0)
(206.13 -7.45067 0)
(206.484 -7.26669 0)
(206.81 -7.06807 0)
(207.145 -6.89188 0)
(207.451 -6.70269 0)
(207.766 -6.53476 0)
(208.053 -6.3554 0)
(208.346 -6.196 0)
(208.613 -6.02657 0)
(208.884 -5.8758 0)
(209.131 -5.71628 0)
(209.383 -5.57428 0)
(209.615 -5.42495 0)
(209.854 -5.29195 0)
(210.077 -5.15325 0)
(210.305 -5.02928 0)
(210.517 -4.90091 0)
(210.728 -4.78545 0)
(210.916 -4.66667 0)
(211.092 -4.55908 0)
(211.233 -4.45001 0)
(211.32 -4.34318 0)
(211.419 -4.23579 0)
(211.434 -4.15059 0)
(211.513 -4.04054 0)
(211.549 -4.0911 0)
(319.822 178.379 0)
(275.113 2.24954 0)
(252.79 -3.96025 0)
(242.088 -4.13367 0)
(233.593 -6.43839 0)
(227.788 -8.00121 0)
(224.106 -9.43376 0)
(221.623 -10.3589 0)
(220.074 -11.227 0)
(218.823 -11.8359 0)
(217.757 -12.3296 0)
(216.75 -12.7049 0)
(215.79 -13.0006 0)
(214.872 -13.2322 0)
(213.994 -13.4107 0)
(213.146 -13.5467 0)
(212.319 -13.653 0)
(211.507 -13.743 0)
(210.709 -13.8265 0)
(209.931 -13.9047 0)
(209.181 -13.9767 0)
(208.462 -14.0399 0)
(207.772 -14.0964 0)
(207.11 -14.1447 0)
(206.477 -14.184 0)
(205.874 -14.2093 0)
(205.299 -14.2174 0)
(204.75 -14.2078 0)
(204.222 -14.1831 0)
(203.711 -14.1481 0)
(203.212 -14.1066 0)
(202.72 -14.0622 0)
(202.233 -14.0173 0)
(201.749 -13.9744 0)
(201.267 -13.9351 0)
(200.788 -13.9001 0)
(200.312 -13.8692 0)
(199.841 -13.8422 0)
(199.375 -13.819 0)
(198.916 -13.8 0)
(198.464 -13.7851 0)
(198.023 -13.7737 0)
(197.593 -13.7648 0)
(197.177 -13.7576 0)
(196.777 -13.7513 0)
(196.394 -13.7457 0)
(196.028 -13.7408 0)
(195.682 -13.7362 0)
(195.357 -13.7316 0)
(195.054 -13.7264 0)
(194.775 -13.72 0)
(194.522 -13.7116 0)
(194.297 -13.7007 0)
(194.1 -13.6861 0)
(193.934 -13.6675 0)
(193.798 -13.6424 0)
(193.696 -13.6143 0)
(193.635 -13.577 0)
(193.613 -13.5336 0)
(193.609 -13.4933 0)
(193.636 -13.43 0)
(193.705 -13.3624 0)
(193.809 -13.2859 0)
(193.945 -13.2002 0)
(194.112 -13.1042 0)
(194.31 -12.9985 0)
(194.537 -12.8822 0)
(194.791 -12.7558 0)
(195.071 -12.6193 0)
(195.374 -12.4726 0)
(195.699 -12.3163 0)
(196.044 -12.1503 0)
(196.406 -11.9758 0)
(196.784 -11.7921 0)
(197.176 -11.6017 0)
(197.579 -11.4023 0)
(197.992 -11.1988 0)
(198.411 -10.9861 0)
(198.839 -10.7725 0)
(199.267 -10.5491 0)
(199.703 -10.3287 0)
(200.133 -10.0971 0)
(200.571 -9.87299 0)
(200.997 -9.63609 0)
(201.431 -9.41103 0)
(201.848 -9.17157 0)
(202.275 -8.94788 0)
(202.679 -8.70854 0)
(203.094 -8.48817 0)
(203.483 -8.25149 0)
(203.882 -8.03598 0)
(204.252 -7.80408 0)
(204.633 -7.59458 0)
(204.984 -7.36927 0)
(205.346 -7.16682 0)
(205.678 -6.94968 0)
(206.02 -6.75518 0)
(206.333 -6.5474 0)
(206.656 -6.36151 0)
(206.951 -6.16385 0)
(207.254 -5.98702 0)
(207.53 -5.79987 0)
(207.813 -5.63232 0)
(208.069 -5.45574 0)
(208.331 -5.29755 0)
(208.567 -5.1315 0)
(208.811 -4.98273 0)
(209.033 -4.82745 0)
(209.264 -4.68826 0)
(209.478 -4.5441 0)
(209.699 -4.41446 0)
(209.903 -4.28105 0)
(210.106 -4.1605 0)
(210.287 -4.03704 0)
(210.457 -3.92545 0)
(210.591 -3.81193 0)
(210.655 -3.70108 0)
(210.752 -3.59014 0)
(210.763 -3.50403 0)
(210.842 -3.39054 0)
(210.878 -3.43224 0)
(319.942 179.115 0)
(275.226 2.35104 0)
(252.91 -3.93554 0)
(242.19 -4.12335 0)
(233.666 -6.46282 0)
(227.835 -8.03887 0)
(224.142 -9.47114 0)
(221.654 -10.3939 0)
(220.102 -11.2622 0)
(218.847 -11.8706 0)
(217.778 -12.3638 0)
(216.768 -12.7385 0)
(215.805 -13.0335 0)
(214.885 -13.2647 0)
(214.005 -13.4429 0)
(213.155 -13.579 0)
(212.326 -13.6857 0)
(211.512 -13.7761 0)
(210.712 -13.8599 0)
(209.934 -13.9382 0)
(209.184 -14.0102 0)
(208.464 -14.0732 0)
(207.774 -14.1296 0)
(207.113 -14.1778 0)
(206.481 -14.2169 0)
(205.877 -14.242 0)
(205.303 -14.25 0)
(204.754 -14.2404 0)
(204.227 -14.216 0)
(203.716 -14.1814 0)
(203.216 -14.1407 0)
(202.724 -14.0971 0)
(202.236 -14.0533 0)
(201.752 -14.0117 0)
(201.27 -13.9737 0)
(200.79 -13.94 0)
(200.313 -13.9104 0)
(199.841 -13.8847 0)
(199.375 -13.8627 0)
(198.915 -13.8449 0)
(198.463 -13.831 0)
(198.021 -13.8205 0)
(197.591 -13.8123 0)
(197.175 -13.8055 0)
(196.775 -13.7994 0)
(196.391 -13.7938 0)
(196.025 -13.7885 0)
(195.679 -13.7833 0)
(195.353 -13.7776 0)
(195.049 -13.7708 0)
(194.769 -13.7624 0)
(194.515 -13.7513 0)
(194.288 -13.737 0)
(194.091 -13.7185 0)
(193.922 -13.6953 0)
(193.785 -13.6648 0)
(193.681 -13.6311 0)
(193.617 -13.5867 0)
(193.592 -13.5345 0)
(193.585 -13.4861 0)
(193.607 -13.4132 0)
(193.671 -13.3357 0)
(193.769 -13.2485 0)
(193.9 -13.151 0)
(194.061 -13.0427 0)
(194.252 -12.9239 0)
(194.471 -12.794 0)
(194.716 -12.6535 0)
(194.987 -12.5022 0)
(195.28 -12.3404 0)
(195.595 -12.1686 0)
(195.929 -11.9869 0)
(196.28 -11.7963 0)
(196.646 -11.5965 0)
(197.025 -11.3898 0)
(197.415 -11.1742 0)
(197.815 -10.9542 0)
(198.22 -10.7255 0)
(198.634 -10.4955 0)
(199.048 -10.2565 0)
(199.469 -10.02 0)
(199.884 -9.7735 0)
(200.307 -9.53376 0)
(200.718 -9.28261 0)
(201.137 -9.04251 0)
(201.539 -8.78958 0)
(201.95 -8.55156 0)
(202.34 -8.2996 0)
(202.74 -8.06572 0)
(203.113 -7.81727 0)
(203.498 -7.58913 0)
(203.854 -7.3463 0)
(204.22 -7.12509 0)
(204.557 -6.88969 0)
(204.905 -6.67646 0)
(205.223 -6.45004 0)
(205.552 -6.24565 0)
(205.852 -6.02934 0)
(206.162 -5.83442 0)
(206.445 -5.62896 0)
(206.736 -5.44391 0)
(207 -5.24965 0)
(207.271 -5.07465 0)
(207.516 -4.8916 0)
(207.767 -4.72668 0)
(207.993 -4.55478 0)
(208.226 -4.39994 0)
(208.439 -4.2394 0)
(208.66 -4.09473 0)
(208.866 -3.94582 0)
(209.078 -3.81126 0)
(209.273 -3.67357 0)
(209.468 -3.54872 0)
(209.641 -3.4214 0)
(209.803 -3.30648 0)
(209.928 -3.18834 0)
(209.974 -3.07512 0)
(210.068 -2.96168 0)
(210.076 -2.87279 0)
(210.154 -2.75716 0)
(210.19 -2.79379 0)
(319.928 179.671 0)
(275.327 2.45021 0)
(253.028 -3.90926 0)
(242.292 -4.11287 0)
(233.739 -6.48671 0)
(227.881 -8.07553 0)
(224.177 -9.50887 0)
(221.683 -10.4298 0)
(220.126 -11.298 0)
(218.868 -11.9053 0)
(217.796 -12.3979 0)
(216.784 -12.7717 0)
(215.819 -13.0662 0)
(214.897 -13.2968 0)
(214.015 -13.4748 0)
(213.163 -13.6109 0)
(212.332 -13.7179 0)
(211.516 -13.8088 0)
(210.716 -13.8929 0)
(209.937 -13.9714 0)
(209.187 -14.0432 0)
(208.467 -14.1062 0)
(207.778 -14.1624 0)
(207.117 -14.2105 0)
(206.485 -14.2495 0)
(205.883 -14.2744 0)
(205.309 -14.2823 0)
(204.761 -14.2727 0)
(204.233 -14.2486 0)
(203.722 -14.2145 0)
(203.222 -14.1745 0)
(202.73 -14.132 0)
(202.242 -14.0893 0)
(201.757 -14.0489 0)
(201.274 -14.0122 0)
(200.793 -13.9799 0)
(200.316 -13.9516 0)
(199.844 -13.9271 0)
(199.378 -13.9064 0)
(198.918 -13.8897 0)
(198.466 -13.877 0)
(198.023 -13.8674 0)
(197.593 -13.8599 0)
(197.177 -13.8534 0)
(196.776 -13.8476 0)
(196.392 -13.842 0)
(196.026 -13.8364 0)
(195.679 -13.8306 0)
(195.352 -13.8239 0)
(195.047 -13.8157 0)
(194.766 -13.8052 0)
(194.51 -13.7915 0)
(194.282 -13.7741 0)
(194.082 -13.7518 0)
(193.912 -13.724 0)
(193.772 -13.6884 0)
(193.664 -13.6491 0)
(193.598 -13.598 0)
(193.569 -13.5378 0)
(193.556 -13.4805 0)
(193.572 -13.3996 0)
(193.631 -13.3123 0)
(193.722 -13.2145 0)
(193.845 -13.1059 0)
(193.998 -12.9858 0)
(194.18 -12.8547 0)
(194.389 -12.7118 0)
(194.624 -12.5578 0)
(194.884 -12.3926 0)
(195.166 -12.2164 0)
(195.469 -12.03 0)
(195.79 -11.8333 0)
(196.127 -11.6275 0)
(196.479 -11.4125 0)
(196.845 -11.1902 0)
(197.219 -10.9593 0)
(197.605 -10.7238 0)
(197.994 -10.4799 0)
(198.393 -10.2345 0)
(198.791 -9.98071 0)
(199.196 -9.72903 0)
(199.595 -9.46826 0)
(200.002 -9.21369 0)
(200.397 -8.94897 0)
(200.8 -8.69456 0)
(201.186 -8.42878 0)
(201.582 -8.17706 0)
(201.956 -7.91299 0)
(202.341 -7.66612 0)
(202.699 -7.4063 0)
(203.069 -7.16593 0)
(203.41 -6.91248 0)
(203.763 -6.67984 0)
(204.085 -6.43454 0)
(204.42 -6.2107 0)
(204.724 -5.97509 0)
(205.041 -5.76089 0)
(205.328 -5.53609 0)
(205.626 -5.33214 0)
(205.897 -5.11885 0)
(206.177 -4.92552 0)
(206.429 -4.72407 0)
(206.69 -4.54153 0)
(206.924 -4.35191 0)
(207.165 -4.18013 0)
(207.381 -4.00226 0)
(207.606 -3.84119 0)
(207.809 -3.67522 0)
(208.022 -3.52489 0)
(208.22 -3.37105 0)
(208.423 -3.23134 0)
(208.611 -3.08913 0)
(208.8 -2.95964 0)
(208.965 -2.82821 0)
(209.12 -2.70923 0)
(209.237 -2.58614 0)
(209.271 -2.47052 0)
(209.361 -2.35377 0)
(209.365 -2.26237 0)
(209.44 -2.14433 0)
(209.475 -2.1755 0)
(319.935 180.244 0)
(275.409 2.54156 0)
(253.145 -3.88453 0)
(242.394 -4.10252 0)
(233.811 -6.51153 0)
(227.926 -8.11274 0)
(224.212 -9.54513 0)
(221.714 -10.4636 0)
(220.152 -11.3319 0)
(218.89 -11.9389 0)
(217.816 -12.431 0)
(216.801 -12.8042 0)
(215.834 -13.0981 0)
(214.91 -13.3283 0)
(214.025 -13.5061 0)
(213.172 -13.6424 0)
(212.339 -13.7497 0)
(211.521 -13.8411 0)
(210.719 -13.9255 0)
(209.94 -14.0041 0)
(209.189 -14.0759 0)
(208.47 -14.1388 0)
(207.78 -14.1949 0)
(207.12 -14.243 0)
(206.489 -14.2818 0)
(205.887 -14.3066 0)
(205.313 -14.3144 0)
(204.765 -14.3048 0)
(204.238 -14.2809 0)
(203.727 -14.2474 0)
(203.227 -14.2082 0)
(202.734 -14.1666 0)
(202.245 -14.1251 0)
(201.76 -14.0859 0)
(201.276 -14.0505 0)
(200.795 -14.0195 0)
(200.318 -13.9926 0)
(199.845 -13.9694 0)
(199.378 -13.9499 0)
(198.918 -13.9345 0)
(198.465 -13.9228 0)
(198.022 -13.9141 0)
(197.592 -13.9073 0)
(197.175 -13.9013 0)
(196.774 -13.8957 0)
(196.39 -13.8901 0)
(196.023 -13.8843 0)
(195.675 -13.8778 0)
(195.347 -13.8701 0)
(195.041 -13.8603 0)
(194.759 -13.8478 0)
(194.502 -13.8316 0)
(194.272 -13.811 0)
(194.07 -13.7847 0)
(193.897 -13.7524 0)
(193.754 -13.7117 0)
(193.644 -13.6665 0)
(193.574 -13.6087 0)
(193.542 -13.5409 0)
(193.525 -13.4735 0)
(193.535 -13.3848 0)
(193.587 -13.2877 0)
(193.672 -13.1792 0)
(193.788 -13.0593 0)
(193.933 -12.9272 0)
(194.107 -12.7834 0)
(194.307 -12.6274 0)
(194.533 -12.4596 0)
(194.782 -12.2803 0)
(195.053 -12.0896 0)
(195.343 -11.8882 0)
(195.652 -11.6764 0)
(195.977 -11.4553 0)
(196.315 -11.2247 0)
(196.667 -10.9869 0)
(197.027 -10.7405 0)
(197.397 -10.4893 0)
(197.772 -10.2301 0)
(198.155 -9.9692 0)
(198.537 -9.70058 0)
(198.927 -9.43372 0)
(199.31 -9.15873 0)
(199.701 -8.88946 0)
(200.08 -8.61122 0)
(200.467 -8.3427 0)
(200.837 -8.06421 0)
(201.217 -7.79908 0)
(201.575 -7.52314 0)
(201.944 -7.26365 0)
(202.287 -6.99282 0)
(202.641 -6.74068 0)
(202.967 -6.47705 0)
(203.305 -6.23353 0)
(203.613 -5.97888 0)
(203.933 -5.74504 0)
(204.223 -5.50085 0)
(204.526 -5.27751 0)
(204.8 -5.04487 0)
(205.086 -4.83258 0)
(205.343 -4.61215 0)
(205.611 -4.41124 0)
(205.852 -4.20329 0)
(206.101 -4.01388 0)
(206.324 -3.81836 0)
(206.554 -3.64038 0)
(206.76 -3.45716 0)
(206.974 -3.29048 0)
(207.168 -3.11969 0)
(207.372 -2.96426 0)
(207.561 -2.80603 0)
(207.756 -2.66169 0)
(207.936 -2.51546 0)
(208.116 -2.38177 0)
(208.274 -2.24675 0)
(208.42 -2.12379 0)
(208.529 -1.99648 0)
(208.553 -1.87907 0)
(208.637 -1.75892 0)
(208.637 -1.66577 0)
(208.707 -1.54547 0)
(208.74 -1.57035 0)
(319.902 180.797 0)
(275.473 2.62326 0)
(253.26 -3.85882 0)
(242.496 -4.09214 0)
(233.883 -6.53588 0)
(227.971 -8.14901 0)
(224.246 -9.58182 0)
(221.741 -10.4983 0)
(220.176 -11.3665 0)
(218.91 -11.9724 0)
(217.833 -12.4639 0)
(216.817 -12.8364 0)
(215.847 -13.1298 0)
(214.922 -13.3596 0)
(214.035 -13.5371 0)
(213.179 -13.6735 0)
(212.345 -13.7812 0)
(211.525 -13.873 0)
(210.723 -13.9578 0)
(209.943 -14.0365 0)
(209.192 -14.1082 0)
(208.473 -14.171 0)
(207.784 -14.2271 0)
(207.124 -14.275 0)
(206.494 -14.3138 0)
(205.892 -14.3384 0)
(205.319 -14.3461 0)
(204.772 -14.3367 0)
(204.245 -14.3131 0)
(203.733 -14.2801 0)
(203.233 -14.2417 0)
(202.74 -14.2011 0)
(202.251 -14.1608 0)
(201.764 -14.1229 0)
(201.28 -14.0888 0)
(200.799 -14.0592 0)
(200.321 -14.0335 0)
(199.848 -14.0116 0)
(199.381 -13.9934 0)
(198.92 -13.9792 0)
(198.468 -13.9687 0)
(198.025 -13.9609 0)
(197.594 -13.9548 0)
(197.177 -13.9493 0)
(196.776 -13.9439 0)
(196.391 -13.9384 0)
(196.023 -13.9324 0)
(195.674 -13.9254 0)
(195.345 -13.9167 0)
(195.038 -13.9055 0)
(194.754 -13.8911 0)
(194.496 -13.8723 0)
(194.264 -13.8487 0)
(194.059 -13.8187 0)
(193.883 -13.7821 0)
(193.737 -13.7365 0)
(193.624 -13.6855 0)
(193.549 -13.6216 0)
(193.512 -13.5466 0)
(193.489 -13.4691 0)
(193.492 -13.374 0)
(193.538 -13.2672 0)
(193.615 -13.1483 0)
(193.722 -13.0177 0)
(193.858 -12.8745 0)
(194.021 -12.7188 0)
(194.21 -12.5503 0)
(194.424 -12.3697 0)
(194.661 -12.177 0)
(194.919 -11.9726 0)
(195.196 -11.7573 0)
(195.491 -11.5313 0)
(195.801 -11.2957 0)
(196.124 -11.0507 0)
(196.46 -10.7981 0)
(196.804 -10.5373 0)
(197.158 -10.2714 0)
(197.516 -9.9979 0)
(197.883 -9.72242 0)
(198.248 -9.43984 0)
(198.62 -9.1587 0)
(198.987 -8.87029 0)
(199.36 -8.58713 0)
(199.722 -8.29612 0)
(200.093 -8.01421 0)
(200.446 -7.72365 0)
(200.809 -7.44573 0)
(201.151 -7.15843 0)
(201.504 -6.88681 0)
(201.831 -6.60534 0)
(202.17 -6.34179 0)
(202.481 -6.06823 0)
(202.804 -5.81404 0)
(203.098 -5.55016 0)
(203.404 -5.30641 0)
(203.681 -5.05366 0)
(203.971 -4.82116 0)
(204.231 -4.58061 0)
(204.505 -4.35988 0)
(204.75 -4.13217 0)
(205.007 -3.92353 0)
(205.236 -3.70889 0)
(205.475 -3.51243 0)
(205.686 -3.3108 0)
(205.907 -3.12641 0)
(206.103 -2.93764 0)
(206.308 -2.76514 0)
(206.493 -2.58932 0)
(206.689 -2.42859 0)
(206.869 -2.26578 0)
(207.057 -2.11662 0)
(207.229 -1.96619 0)
(207.402 -1.82812 0)
(207.552 -1.68941 0)
(207.689 -1.56217 0)
(207.791 -1.43093 0)
(207.808 -1.31149 0)
(207.886 -1.18779 0)
(207.881 -1.09292 0)
(207.946 -0.970252 0)
(207.976 -0.988716 0)
(319.866 181.337 0)
(275.517 2.69926 0)
(253.375 -3.83153 0)
(242.598 -4.08198 0)
(233.953 -6.5612 0)
(228.014 -8.18577 0)
(224.28 -9.61702 0)
(221.771 -10.531 0)
(220.201 -11.3993 0)
(218.932 -12.0048 0)
(217.852 -12.496 0)
(216.833 -12.8678 0)
(215.862 -13.1607 0)
(214.934 -13.3902 0)
(214.045 -13.5676 0)
(213.187 -13.7041 0)
(212.351 -13.8122 0)
(211.53 -13.9045 0)
(210.726 -13.9897 0)
(209.945 -14.0685 0)
(209.195 -14.1402 0)
(208.475 -14.2028 0)
(207.787 -14.2589 0)
(207.127 -14.3068 0)
(206.497 -14.3455 0)
(205.896 -14.37 0)
(205.324 -14.3776 0)
(204.776 -14.3683 0)
(204.25 -14.345 0)
(203.738 -14.3126 0)
(203.238 -14.275 0)
(202.744 -14.2354 0)
(202.254 -14.1963 0)
(201.767 -14.1597 0)
(201.282 -14.127 0)
(200.8 -14.0986 0)
(200.322 -14.0743 0)
(199.849 -14.0537 0)
(199.381 -14.0368 0)
(198.92 -14.0238 0)
(198.467 -14.0144 0)
(198.024 -14.0076 0)
(197.593 -14.0022 0)
(197.176 -13.9972 0)
(196.774 -13.9921 0)
(196.388 -13.9867 0)
(196.02 -13.9804 0)
(195.67 -13.9729 0)
(195.339 -13.9632 0)
(195.031 -13.9506 0)
(194.746 -13.9342 0)
(194.485 -13.9129 0)
(194.251 -13.8862 0)
(194.044 -13.8524 0)
(193.865 -13.8114 0)
(193.716 -13.7609 0)
(193.599 -13.7039 0)
(193.52 -13.6338 0)
(193.479 -13.5517 0)
(193.451 -13.4632 0)
(193.446 -13.3617 0)
(193.485 -13.245 0)
(193.555 -13.116 0)
(193.654 -12.9744 0)
(193.781 -12.8195 0)
(193.934 -12.6516 0)
(194.113 -12.4705 0)
(194.316 -12.2767 0)
(194.541 -12.0705 0)
(194.786 -11.8522 0)
(195.05 -11.6226 0)
(195.331 -11.3822 0)
(195.627 -11.1319 0)
(195.935 -10.8723 0)
(196.256 -10.6049 0)
(196.584 -10.3293 0)
(196.922 -10.0486 0)
(197.264 -9.76065 0)
(197.613 -9.47055 0)
(197.962 -9.17392 0)
(198.317 -8.87851 0)
(198.667 -8.57667 0)
(199.023 -8.27973 0)
(199.368 -7.976 0)
(199.722 -7.68091 0)
(200.058 -7.3784 0)
(200.405 -7.08798 0)
(200.73 -6.78957 0)
(201.066 -6.50621 0)
(201.377 -6.21446 0)
(201.701 -5.93997 0)
(201.996 -5.65696 0)
(202.304 -5.39268 0)
(202.582 -5.12013 0)
(202.874 -4.86711 0)
(203.136 -4.60645 0)
(203.412 -4.36547 0)
(203.659 -4.11771 0)
(203.92 -3.88926 0)
(204.152 -3.65497 0)
(204.397 -3.43933 0)
(204.614 -3.21871 0)
(204.841 -3.01589 0)
(205.041 -2.80884 0)
(205.251 -2.61869 0)
(205.436 -2.425 0)
(205.632 -2.24728 0)
(205.808 -2.06701 0)
(205.994 -1.90153 0)
(206.166 -1.73465 0)
(206.345 -1.58115 0)
(206.509 -1.427 0)
(206.674 -1.28501 0)
(206.816 -1.1431 0)
(206.944 -1.01186 0)
(207.039 -0.877296 0)
(207.048 -0.756126 0)
(207.121 -0.629119 0)
(207.11 -0.532963 0)
(207.169 -0.408201 0)
(207.196 -0.420184 0)
(319.794 181.796 0)
(275.541 2.77405 0)
(253.489 -3.79933 0)
(242.7 -4.07196 0)
(234.023 -6.5861 0)
(228.058 -8.22161 0)
(224.313 -9.65271 0)
(221.798 -10.5647 0)
(220.224 -11.4327 0)
(218.951 -12.0373 0)
(217.869 -12.5279 0)
(216.848 -12.899 0)
(215.874 -13.1914 0)
(214.945 -13.4205 0)
(214.054 -13.5978 0)
(213.194 -13.7344 0)
(212.356 -13.8429 0)
(211.534 -13.9357 0)
(210.729 -14.0212 0)
(209.948 -14.1001 0)
(209.198 -14.1717 0)
(208.479 -14.2344 0)
(207.79 -14.2904 0)
(207.131 -14.3383 0)
(206.502 -14.3769 0)
(205.902 -14.4013 0)
(205.33 -14.4089 0)
(204.783 -14.3997 0)
(204.256 -14.3767 0)
(203.745 -14.3449 0)
(203.244 -14.3081 0)
(202.75 -14.2696 0)
(202.26 -14.2317 0)
(201.772 -14.1964 0)
(201.287 -14.165 0)
(200.804 -14.1381 0)
(200.326 -14.1151 0)
(199.852 -14.0958 0)
(199.384 -14.0802 0)
(198.923 -14.0685 0)
(198.47 -14.0602 0)
(198.026 -14.0544 0)
(197.595 -14.0497 0)
(197.178 -14.0452 0)
(196.776 -14.0405 0)
(196.389 -14.0352 0)
(196.02 -14.0288 0)
(195.669 -14.0208 0)
(195.337 -14.0102 0)
(195.027 -13.9963 0)
(194.74 -13.978 0)
(194.478 -13.9544 0)
(194.241 -13.9247 0)
(194.031 -13.8874 0)
(193.849 -13.8422 0)
(193.696 -13.7871 0)
(193.575 -13.7244 0)
(193.491 -13.6485 0)
(193.443 -13.5598 0)
(193.408 -13.4609 0)
(193.395 -13.3544 0)
(193.427 -13.2274 0)
(193.488 -13.0889 0)
(193.577 -12.9372 0)
(193.693 -12.7716 0)
(193.835 -12.5925 0)
(194.002 -12.3996 0)
(194.192 -12.1936 0)
(194.403 -11.9747 0)
(194.634 -11.7435 0)
(194.883 -11.5007 0)
(195.148 -11.2468 0)
(195.428 -10.983 0)
(195.72 -10.7097 0)
(196.023 -10.4286 0)
(196.335 -10.1393 0)
(196.655 -9.84485 0)
(196.979 -9.54349 0)
(197.311 -9.2398 0)
(197.641 -8.93009 0)
(197.978 -8.62135 0)
(198.31 -8.30692 0)
(198.648 -7.99705 0)
(198.976 -7.68136 0)
(199.311 -7.37382 0)
(199.63 -7.06002 0)
(199.959 -6.75771 0)
(200.268 -6.44869 0)
(200.587 -6.15405 0)
(200.882 -5.85237 0)
(201.19 -5.56725 0)
(201.469 -5.27497 0)
(201.762 -5.00075 0)
(202.025 -4.71959 0)
(202.303 -4.45731 0)
(202.551 -4.18866 0)
(202.814 -3.93911 0)
(203.048 -3.68395 0)
(203.296 -3.4476 0)
(203.517 -3.20649 0)
(203.749 -2.98358 0)
(203.955 -2.75669 0)
(204.171 -2.54723 0)
(204.361 -2.33444 0)
(204.561 -2.13825 0)
(204.737 -1.93934 0)
(204.923 -1.75612 0)
(205.09 -1.57111 0)
(205.268 -1.40063 0)
(205.432 -1.22944 0)
(205.603 -1.07137 0)
(205.76 -0.913279 0)
(205.917 -0.767165 0)
(206.052 -0.621904 0)
(206.169 -0.486435 0)
(206.259 -0.348546 0)
(206.262 -0.225216 0)
(206.329 -0.0947743 0)
(206.312 0.00284505 0)
(206.365 0.129783 0)
(206.39 0.123987 0)
(319.681 182.166 0)
(275.537 2.85619 0)
(253.603 -3.76935 0)
(242.802 -4.06238 0)
(234.091 -6.61195 0)
(228.1 -8.25787 0)
(224.346 -9.68691 0)
(221.827 -10.5964 0)
(220.249 -11.4645 0)
(218.971 -12.0687 0)
(217.886 -12.5589 0)
(216.863 -12.9295 0)
(215.888 -13.2215 0)
(214.956 -13.4502 0)
(214.064 -13.6274 0)
(213.202 -13.7643 0)
(212.362 -13.8732 0)
(211.538 -13.9665 0)
(210.732 -14.0524 0)
(209.951 -14.1315 0)
(209.2 -14.203 0)
(208.481 -14.2656 0)
(207.793 -14.3216 0)
(207.134 -14.3695 0)
(206.505 -14.408 0)
(205.906 -14.4323 0)
(205.334 -14.4399 0)
(204.788 -14.4308 0)
(204.261 -14.4083 0)
(203.75 -14.3771 0)
(203.249 -14.3411 0)
(202.754 -14.3037 0)
(202.263 -14.2669 0)
(201.775 -14.233 0)
(201.289 -14.203 0)
(200.806 -14.1774 0)
(200.327 -14.1557 0)
(199.853 -14.1378 0)
(199.385 -14.1235 0)
(198.923 -14.1131 0)
(198.469 -14.1059 0)
(198.026 -14.101 0)
(197.594 -14.0971 0)
(197.177 -14.0932 0)
(196.774 -14.0888 0)
(196.386 -14.0837 0)
(196.016 -14.0772 0)
(195.663 -14.0686 0)
(195.331 -14.0572 0)
(195.019 -14.0418 0)
(194.73 -14.0217 0)
(194.465 -13.9956 0)
(194.226 -13.963 0)
(194.013 -13.922 0)
(193.828 -13.8727 0)
(193.671 -13.8127 0)
(193.546 -13.7443 0)
(193.457 -13.6623 0)
(193.403 -13.5667 0)
(193.361 -13.4589 0)
(193.342 -13.3435 0)
(193.365 -13.2084 0)
(193.418 -13.0603 0)
(193.497 -12.8979 0)
(193.603 -12.7211 0)
(193.735 -12.5303 0)
(193.89 -12.3254 0)
(194.067 -12.1068 0)
(194.265 -11.8751 0)
(194.483 -11.6306 0)
(194.717 -11.3743 0)
(194.967 -11.1068 0)
(195.231 -10.8292 0)
(195.507 -10.542 0)
(195.793 -10.2469 0)
(196.088 -9.94379 0)
(196.391 -9.63537 0)
(196.697 -9.32039 0)
(197.011 -9.003 0)
(197.324 -8.6801 0)
(197.643 -8.35803 0)
(197.957 -8.03099 0)
(198.277 -7.70828 0)
(198.586 -7.38067 0)
(198.904 -7.06086 0)
(199.206 -6.73591 0)
(199.517 -6.42198 0)
(199.808 -6.10261 0)
(200.111 -5.79707 0)
(200.389 -5.48583 0)
(200.68 -5.19058 0)
(200.944 -4.88953 0)
(201.221 -4.60596 0)
(201.469 -4.31679 0)
(201.732 -4.04594 0)
(201.965 -3.76998 0)
(202.214 -3.51258 0)
(202.434 -3.25077 0)
(202.669 -3.00727 0)
(202.876 -2.76011 0)
(203.097 -2.53069 0)
(203.29 -2.2983 0)
(203.495 -2.08293 0)
(203.674 -1.86513 0)
(203.863 -1.66356 0)
(204.028 -1.46011 0)
(204.204 -1.272 0)
(204.362 -1.08284 0)
(204.531 -0.907885 0)
(204.686 -0.732858 0)
(204.85 -0.570677 0)
(204.998 -0.409043 0)
(205.148 -0.259177 0)
(205.274 -0.110976 0)
(205.381 0.0285173 0)
(205.466 0.169415 0)
(205.463 0.294736 0)
(205.524 0.428363 0)
(205.501 0.52711 0)
(205.549 0.65572 0)
(205.569 0.656349 0)
(319.572 182.553 0)
(275.506 2.95486 0)
(253.717 -3.73275 0)
(242.904 -4.05297 0)
(234.159 -6.63739 0)
(228.141 -8.29322 0)
(224.378 -9.72162 0)
(221.853 -10.629 0)
(220.27 -11.4969 0)
(218.99 -12.1001 0)
(217.903 -12.5898 0)
(216.877 -12.9597 0)
(215.9 -13.2513 0)
(214.966 -13.4797 0)
(214.072 -13.6569 0)
(213.209 -13.7939 0)
(212.367 -13.9032 0)
(211.542 -13.997 0)
(210.735 -14.0832 0)
(209.954 -14.1624 0)
(209.203 -14.234 0)
(208.484 -14.2965 0)
(207.797 -14.3525 0)
(207.139 -14.4004 0)
(206.51 -14.4388 0)
(205.911 -14.4631 0)
(205.341 -14.4707 0)
(204.794 -14.4618 0)
(204.268 -14.4396 0)
(203.757 -14.4091 0)
(203.255 -14.374 0)
(202.76 -14.3377 0)
(202.269 -14.3022 0)
(201.78 -14.2695 0)
(201.293 -14.2409 0)