/*--------------------------------*- C++ -*----------------------------------*\
| =========                 |                                                 |
| \\      /  F ield         | OpenFOAM: The Open Source CFD Toolbox           |
|  \\    /   O peration     | Version:  2412                                  |
|   \\  /    A nd           | Website:  www.openfoam.com                      |
|    \\/     M anipulation  |                                                 |
\*---------------------------------------------------------------------------*/
FoamFile
{
    version     2.0;
    format      ascii;
    arch        "LSB;label=32;scalar=64";
    class       volScalarField;
    location    "0.109";
    object      p;
}
// * * * * * * * * * * * * * * * * * * * * * * * * * * * * * * * * * * * * * //

dimensions      [1 -1 -2 0 0 0 0];

internalField   nonuniform List<scalar> 
9771
(
1103.94
2541.95
2674.6
2658.4
2656.38
2663.65
2674.98
2686.63
2698.81
2710.08
1104.23
2537.26
2674.44
2658.04
2656.11
2663.46
2674.82
2686.47
2698.64
2709.89
1105.86
2532.55
2674.33
2657.66
2655.85
2663.28
2674.67
2686.31
2698.46
2709.7
1107.65
2527.74
2674.26
2657.24
2655.58
2663.1
2674.51
2686.15
2698.29
2709.52
1108.95
2522.71
2674.22
2656.8
2655.3
2662.91
2674.36
2685.99
2698.12
2709.33
1109.84
2517.55
2674.26
2656.35
2655.02
2662.73
2674.2
2685.82
2697.94
2709.14
1110.01
2512.22
2674.35
2655.88
2654.74
2662.55
2674.04
2685.66
2697.76
2708.94
2718.68
2726.71
2733.38
2739.2
2744.77
2750.45
2756.37
2762.48
2768.67
2774.85
2780.94
2786.88
2792.67
2798.28
2803.73
2809.03
2814.19
2819.23
2824.15
2828.95
2833.62
2838.19
1107.23
2506.97
2674.45
2655.42
2654.46
2662.36
2673.88
2685.49
2697.58
2708.74
2718.47
2726.5
2733.17
2739.02
2744.61
2750.31
2756.25
2762.38
2768.58
2774.76
2780.85
2786.8
2792.58
2798.18
2803.62
2808.91
2814.07
2819.09
2823.99
2828.78
2833.44
2837.99
2842.44
2846.8
2851.08
2855.28
2859.4
2863.45
1101.71
2501.93
2674.54
2654.98
2654.18
2662.18
2673.72
2685.33
2697.4
2708.55
2718.26
2726.29
2732.97
2738.83
2744.45
2750.16
2756.13
2762.27
2768.48
2774.67
2780.76
2786.71
2792.48
2798.08
2803.52
2808.8
2813.94
2818.95
2823.84
2828.61
2833.25
2837.78
2842.21
2846.56
2850.82
2855
2859.11
2863.13
2867.08
1093.9
2497.6
2674.67
2654.58
2653.91
2661.99
2673.56
2685.16
2697.22
2708.35
2718.05
2726.08
2732.77
2738.64
2744.28
2750.02
2756
2762.16
2768.38
2774.58
2780.67
2786.62
2792.39
2797.98
2803.41
2808.68
2813.81
2818.81
2823.68
2828.43
2833.06
2837.57
2841.99
2846.31
2850.56
2854.72
2858.81
2862.81
2866.74
1081.6
2494.4
2674.73
2654.17
2653.65
2661.82
2673.4
2684.99
2697.04
2708.16
2717.84
2725.87
2732.56
2738.45
2744.11
2749.87
2755.88
2762.05
2768.28
2774.48
2780.58
2786.53
2792.3
2797.88
2803.3
2808.56
2813.68
2818.67
2823.53
2828.26
2832.87
2837.37
2841.77
2846.07
2850.3
2854.45
2858.51
2862.49
2866.4
1090.09
2492.61
2676.03
2643.91
2648.29
2657.86
2669.97
2681.78
2693.84
2704.82
2714.41
2722.49
2729.4
2735.63
2741.67
2747.81
2754.13
2760.54
2766.96
2773.29
2779.46
2785.43
2791.19
2796.74
2802.09
2807.26
2812.26
2817.13
2821.85
2826.44
2830.89
2835.23
2839.46
2843.59
2847.64
2851.58
2855.43
2859.18
2862.85
2866.45
2869.99
2873.47
2876.9
2880.28
2883.62
2886.92
2890.2
2893.45
2896.68
2899.9
2903.1
2906.29
2909.46
2912.62
2915.76
2918.88
2921.96
2925.01
2928.01
2930.96
2933.85
2936.67
2939.43
2942.09
2944.66
2947.12
2949.46
2951.69
2953.78
2955.73
2957.54
2959.21
2960.73
2962.1
2963.31
2964.36
2965.28
2966.06
2966.71
1426.19
2661.42
2659.14
2626.66
2638.33
2650.74
2663.79
2675.98
2687.97
2698.61
2708
2716.15
2723.46
2730.32
2737.11
2743.96
2750.87
2757.76
2764.52
2771.08
2777.38
2783.39
2789.13
2794.59
2799.81
2804.8
2809.59
2814.22
2818.68
2822.97
2827.12
2831.14
2835.05
2838.85
2842.52
2846.06
2849.47
2852.76
2855.95
2859.03
2862.03
2864.94
2867.77
2870.49
2873.13
2875.67
2878.13
2880.48
2882.75
2884.91
2886.98
2888.94
2890.79
2892.53
2894.15
2895.64
2896.99
2898.22
2899.32
2900.28
2901.11
2901.8
2902.37
2902.81
2903.13
2903.32
2903.4
2903.36
2903.23
2902.99
2902.64
2902.21
2901.71
2901.14
2900.49
2899.76
2898.98
2898.15
2897.29
1631.36
2624.8
2631.17
2625.11
2635.09
2645.92
2658.78
2671.06
2682.73
2692.88
2701.92
2710.01
2717.59
2725
2732.43
2739.91
2747.37
2754.68
2761.77
2768.56
2775.01
2781.09
2786.82
2792.22
2797.31
2802.14
2806.73
2811.13
2815.33
2819.34
2823.18
2826.87
2830.43
2833.86
2837.12
2840.22
2843.17
2845.97
2848.65
2851.19
2853.61
2855.91
2858.08
2860.13
2862.06
2863.87
2865.57
2867.14
2868.59
2869.91
2871.1
2872.16
2873.1
2873.9
2874.57
2875.13
2875.56
2875.88
2876.09
2876.2
2876.2
2876.1
2875.91
2875.64
2875.29
2874.86
2874.38
2873.84
2873.24
2872.6
2871.92
2871.19
2870.44
2869.67
2868.87
2868.06
2867.23
2866.4
2865.56
1793.62
2532.72
2600.56
2616.1
2630.06
2642.35
2655.29
2667.39
2678.61
2688.19
2696.8
2704.71
2712.41
2720.14
2728.02
2735.94
2743.79
2751.43
2758.78
2765.77
2772.35
2778.49
2784.22
2789.55
2794.54
2799.22
2803.63
2807.81
2811.76
2815.49
2819.03
2822.41
2825.62
2828.65
2831.5
2834.17
2836.68
2839.02
2841.21
2843.25
2845.14
2846.89
2848.51
2849.99
2851.34
2852.56
2853.66
2854.63
2855.48
2856.2
2856.81
2857.3
2857.67
2857.93
2858.09
2858.15
2858.11
2857.99
2857.77
2857.49
2857.14
2856.71
2856.25
2855.73
2855.17
2854.57
2853.95
2853.32
2852.65
2851.98
2851.3
2850.61
2849.93
2849.24
2848.57
2847.91
2847.25
2846.62
2846
1958.99
2485.65
2581.63
2605.29
2625.79
2640.07
2653.31
2665.07
2675.53
2684.45
2692.56
2700.19
2707.87
2715.77
2723.91
2732.11
2740.21
2748.07
2755.61
2762.74
2769.41
2775.6
2781.32
2786.6
2791.49
2796.04
2800.3
2804.28
2808
2811.48
2814.76
2817.84
2820.72
2823.38
2825.83
2828.09
2830.18
2832.13
2833.94
2835.59
2837.07
2838.4
2839.57
2840.6
2841.5
2842.29
2842.96
2843.51
2843.96
2844.31
2844.56
2844.72
2844.8
2844.79
2844.7
2844.55
2844.33
2844.05
2843.72
2843.34
2842.93
2842.46
2841.99
2841.48
2840.96
2840.43
2839.88
2839.34
2838.79
2838.23
2837.69
2837.14
2836.6
2836.06
2835.53
2835
2834.48
2833.97
2833.44
2101.87
2456.04
2557.37
2592.5
2621.17
2637.87
2652.08
2663.79
2673.77
2681.98
2689.53
2696.79
2704.3
2712.16
2720.34
2728.62
2736.8
2744.74
2752.36
2759.55
2766.26
2772.46
2778.16
2783.39
2788.2
2792.64
2796.76
2800.57
2804.09
2807.36
2810.41
2813.24
2815.83
2818.2
2820.34
2822.27
2824.02
2825.6
2827.01
2828.27
2829.42
2830.44
2831.34
2832.12
2832.78
2833.32
2833.75
2834.08
2834.31
2834.46
2834.54
2834.54
2834.47
2834.35
2834.15
2833.92
2833.63
2833.31
2832.96
2832.57
2832.17
2831.75
2831.32
2830.88
2830.42
2829.96
2829.5
2829.04
2828.58
2828.13
2827.68
2827.24
2826.81
2826.41
2826
2825.66
2825.29
2824.95
2824.62
2228.01
2451.41
2530.47
2584.84
2618.83
2637.16
2652.1
2663.66
2673.07
2680.68
2687.65
2694.41
2701.6
2709.28
2717.34
2725.54
2733.66
2741.57
2749.16
2756.32
2762.99
2769.14
2774.79
2779.95
2784.69
2789.04
2793.04
2796.72
2800.09
2803.19
2806.05
2808.66
2811.03
2813.15
2815.06
2816.76
2818.29
2819.64
2820.83
2821.86
2822.75
2823.51
2824.15
2824.69
2825.13
2825.47
2825.74
2825.92
2826.04
2826.09
2826.09
2826.02
2825.9
2825.74
2825.54
2825.31
2825.05
2824.77
2824.48
2824.17
2823.85
2823.52
2823.19
2822.86
2822.53
2822.2
2821.88
2821.56
2821.24
2820.95
2820.63
2820.35
2820.05
2819.77
2819.49
2819.2
2818.92
2818.64
2818.36
2329.81
2464.52
2518.28
2578.34
2617.65
2639.45
2654.63
2665.19
2673.51
2680.42
2686.89
2693.19
2699.94
2707.25
2715.04
2723
2730.94
2738.7
2746.15
2753.18
2759.73
2765.77
2771.32
2776.39
2781.04
2785.3
2789.21
2792.79
2796.05
2799.02
2801.73
2804.18
2806.36
2808.32
2810.08
2811.64
2813
2814.19
2815.21
2816.1
2816.87
2817.53
2818.08
2818.53
2818.89
2819.16
2819.36
2819.5
2819.57
2819.6
2819.58
2819.51
2819.41
2819.28
2819.12
2818.95
2818.75
2818.55
2818.32
2818.09
2817.85
2817.59
2817.34
2817.07
2816.83
2816.56
2816.29
2816.02
2815.73
2815.49
2815.22
2814.97
2814.71
2814.46
2814.22
2813.98
2813.76
2813.54
2813.34
2409.19
2487.74
2520.82
2583.48
2621.59
2644.24
2658.8
2668.46
2675.64
2681.33
2687.02
2692.81
2699.16
2706.03
2713.4
2721.03
2728.69
2736.2
2743.42
2750.23
2756.59
2762.46
2767.85
2772.79
2777.33
2781.5
2785.33
2788.82
2791.99
2794.88
2797.5
2799.85
2801.93
2803.76
2805.37
2806.81
2808.11
2809.27
2810.26
2811.09
2811.77
2812.33
2812.8
2813.19
2813.5
2813.75
2813.94
2814.07
2814.15
2814.2
2814.19
2814.15
2814.08
2813.99
2813.88
2813.75
2813.6
2813.44
2813.26
2813.08
2812.88
2812.67
2812.5
2812.3
2812.09
2811.9
2811.7
2811.52
2811.33
2811.16
2810.99
2810.83
2810.68
2810.54
2810.41
2810.29
2810.18
2810.06
2809.95
2471.07
2512.95
2533.21
2594.8
2627.3
2649.95
2663.87
2672.71
2678.98
2683.66
2688.29
2693.27
2699.1
2705.56
2712.49
2719.69
2726.98
2734.15
2741.07
2747.6
2753.69
2759.31
2764.5
2769.27
2773.66
2777.72
2781.46
2784.87
2787.97
2790.8
2793.36
2795.65
2797.68
2799.48
2801.06
2802.44
2803.65
2804.71
2805.65
2806.51
2807.26
2807.9
2808.43
2808.85
2809.18
2809.43
2809.63
2809.78
2809.88
2809.95
2809.98
2809.98
2809.97
2809.93
2809.88
2809.82
2809.74
2809.65
2809.55
2809.45
2809.34
2809.22
2809.12
2809.01
2808.89
2808.79
2808.69
2808.59
2808.49
2808.38
2808.28
2808.18
2808.07
2807.96
2807.85
2807.74
2807.62
2807.52
2807.42
2520.07
2537.66
2549.29
2610.44
2635.58
2657.2
2670.02
2678.08
2683.54
2687.32
2690.93
2694.85
2699.75
2705.61
2712.12
2718.9
2725.78
2732.58
2739.14
2745.33
2751.1
2756.44
2761.37
2765.92
2770.14
2774.06
2777.68
2781.01
2784.05
2786.83
2789.34
2791.59
2793.6
2795.39
2796.97
2798.37
2799.62
2800.71
2801.67
2802.49
2803.2
2803.83
2804.39
2804.89
2805.31
2805.67
2805.97
2806.2
2806.39
2806.54
2806.65
2806.73
2806.79
2806.83
2806.84
2806.85
2806.83
2806.81
2806.78
2806.74
2806.69
2806.64
2806.58
2806.52
2806.46
2806.4
2806.33
2806.26
2806.19
2806.13
2806.06
2806
2805.93
2805.87
2805.82
2805.77
2805.71
2805.68
2805.63
2558.89
2560.06
2567.13
2627.92
2644.63
2664.87
2676.61
2684.13
2689
2692.08
2694.88
2697.83
2701.65
2706.47
2712.28
2718.58
2725.04
2731.44
2737.63
2743.46
2748.9
2753.92
2758.57
2762.87
2766.89
2770.63
2774.11
2777.33
2780.29
2783.01
2785.48
2787.7
2789.7
2791.49
2793.09
2794.53
2795.82
2796.98
2798.02
2798.95
2799.77
2800.47
2801.09
2801.63
2802.1
2802.51
2802.87
2803.17
2803.44
2803.68
2803.87
2804.04
2804.19
2804.3
2804.39
2804.47
2804.53
2804.58
2804.63
2804.66
2804.68
2804.7
2804.71
2804.72
2804.72
2804.72
2804.72
2804.71
2804.7
2804.69
2804.68
2804.66
2804.64
2804.63
2804.59
2804.58
2804.55
2804.53
2804.51
2590.44
2580.62
2585.97
2645.77
2655.26
2673.39
2683.45
2690.48
2695.08
2697.76
2699.93
2701.98
2704.73
2708.39
2713.13
2718.7
2724.67
2730.63
2736.44
2741.93
2747.05
2751.78
2756.15
2760.21
2763.99
2767.54
2770.85
2773.92
2776.77
2779.41
2781.83
2784.03
2786.02
2787.82
2789.44
2790.92
2792.27
2793.5
2794.61
2795.61
2796.52
2797.35
2798.11
2798.78
2799.37
2799.9
2800.35
2800.76
2801.12
2801.44
2801.72
2801.97
2802.19
2802.38
2802.54
2802.7
2802.84
2802.95
2803.06
2803.16
2803.24
2803.31
2803.37
2803.42
2803.46
2803.51
2803.54
2803.56
2803.58
2803.6
2803.59
2803.61
2803.61
2803.63
2803.63
2803.63
2803.63
2803.63
2803.63
2616.33
2599.42
2605.09
2661.79
2667.12
2683
2690.49
2696.84
2701.22
2703.74
2705.61
2707.11
2709.04
2711.61
2715.09
2719.51
2724.68
2730.12
2735.51
2740.66
2745.5
2749.98
2754.12
2757.95
2761.52
2764.86
2767.98
2770.89
2773.61
2776.13
2778.47
2780.63
2782.61
2784.43
2786.09
2787.61
2789.01
2790.29
2791.47
2792.57
2793.57
2794.49
2795.32
2796.08
2796.78
2797.42
2798
2798.52
2798.99
2799.41
2799.79
2800.12
2800.42
2800.69
2800.92
2801.15
2801.34
2801.51
2801.68
2801.83
2801.96
2802.07
2802.18
2802.28
2802.35
2802.43
2802.49
2802.55
2802.59
2802.65
2802.68
2802.74
2802.78
2802.83
2802.87
2802.92
2802.96
2802.99
2803.02
2638.71
2618.36
2622.89
2673.04
2680.07
2692.39
2697.42
2703.17
2707.42
2709.92
2711.63
2712.73
2714.04
2715.7
2718.04
2721.23
2725.28
2729.96
2734.84
2739.62
2744.19
2748.46
2752.42
2756.08
2759.47
2762.63
2765.57
2768.32
2770.88
2773.28
2775.52
2777.61
2779.56
2781.38
2783.07
2784.63
2786.09
2787.43
2788.68
2789.83
2790.9
2791.89
2792.81
2793.66
2794.43
2795.14
2795.78
2796.38
2796.92
2797.42
2797.88
2798.3
2798.68
2799.02
2799.33
2799.62
2799.88
2800.11
2800.34
2800.53
2800.71
2800.87
2801.01
2801.14
2801.27
2801.38
2801.47
2801.56
2801.63
2801.72
2801.79
2801.85
2801.91
2801.96
2802.01
2802.04
2802.07
2802.1
2802.13
2658.44
2637.24
2642.97
2678.96
2692.74
2699.65
2703.81
2709.45
2713.65
2716.14
2717.7
2718.56
2719.51
2720.53
2721.96
2724
2726.81
2730.4
2734.56
2738.88
2743.12
2747.18
2750.99
2754.52
2757.78
2760.8
2763.61
2766.21
2768.63
2770.91
2773.05
2775.07
2776.97
2778.76
2780.45
2782.03
2783.52
2784.91
2786.21
2787.42
2788.55
2789.6
2790.57
2791.48
2792.32
2793.09
2793.8
2794.46
2795.06
2795.62
2796.14
2796.61
2797.04
2797.44
2797.79
2798.13
2798.44
2798.73
2798.99
2799.23
2799.45
2799.65
2799.84
2800
2800.17
2800.32
2800.45
2800.58
2800.69
2800.81
2800.91
2801
2801.08
2801.16
2801.23
2801.29
2801.36
2801.42
2801.48
2676.32
2656.12
2664.01
2684.21
2702.03
2704.54
2709.63
2715.68
2719.98
2722.56
2724.03
2724.64
2725.18
2725.65
2726.37
2727.49
2729.2
2731.66
2734.86
2738.53
2742.36
2746.14
2749.78
2753.2
2756.37
2759.31
2762.03
2764.54
2766.86
2769.04
2771.09
2773.03
2774.88
2776.62
2778.28
2779.85
2781.33
2782.73
2784.06
2785.3
2786.47
2787.56
2788.57
2789.52
2790.4
2791.22
2791.99
2792.7
2793.35
2793.96
2794.53
2795.05
2795.53
2795.97
2796.37
2796.75
2797.11
2797.43
2797.72
2798
2798.26
2798.5
2798.72
2798.92
2799.12
2799.3
2799.47
2799.62
2799.77
2799.91
2800.03
2800.15
2800.26
2800.36
2800.45
2800.54
2800.62
2800.7
2800.77
2692.58
2673.71
2683.27
2689.72
2709.86
2709.69
2715.93
2721.89
2726.3
2729.08
2730.52
2730.87
2731.07
2731.05
2731.18
2731.53
2732.31
2733.73
2735.89
2738.73
2742
2745.41
2748.81
2752.09
2755.2
2758.09
2760.77
2763.24
2765.52
2767.64
2769.63
2771.51
2773.3
2774.99
2776.6
2778.13
2779.58
2780.96
2782.27
2783.51
2784.67
2785.77
2786.8
2787.77
2788.67
2789.52
2790.31
2791.05
2791.74
2792.38
2792.99
2793.54
2794.05
2794.53
2794.98
2795.4
2795.78
2796.14
2796.47
2796.78
2797.07
2797.34
2797.59
2797.83
2798.04
2798.24
2798.43
2798.61
2798.77
2798.92
2799.06
2799.19
2799.32
2799.43
2799.54
2799.64
2799.74
2799.83
2799.92
2707.3
2690.18
2700.14
2696.6
2716.16
2715.2
2722.29
2728.05
2732.62
2735.66
2737.2
2737.41
2737.22
2736.63
2736.14
2735.86
2735.91
2736.42
2737.6
2739.53
2742.1
2745.05
2748.13
2751.22
2754.22
2757.08
2759.76
2762.24
2764.51
2766.62
2768.58
2770.43
2772.17
2773.81
2775.37
2776.85
2778.25
2779.58
2780.85
2782.04
2783.18
2784.25
2785.26
2786.22
2787.12
2787.97
2788.77
2789.52
2790.22
2790.88
2791.5
2792.07
2792.6
2793.11
2793.58
2794.02
2794.42
2794.81
2795.16
2795.5
2795.81
2796.1
2796.37
2796.63
2796.87
2797.09
2797.3
2797.5
2797.68
2797.85
2798.02
2798.17
2798.31
2798.45
2798.56
2798.69
2798.79
2798.9
2798.99
2720.24
2704.3
2714.09
2704.3
2722.35
2721.03
2728.53
2734.12
2738.92
2742.22
2743.86
2744.01
2743.54
2742.48
2741.35
2740.42
2739.86
2739.7
2740.02
2741.01
2742.74
2745.1
2747.8
2750.65
2753.51
2756.3
2758.97
2761.47
2763.78
2765.91
2767.88
2769.71
2771.43
2773.03
2774.54
2775.96
2777.31
2778.58
2779.78
2780.91
2781.99
2783.01
2783.98
2784.9
2785.77
2786.6
2787.38
2788.12
2788.81
2789.46
2790.07
2790.65
2791.19
2791.7
2792.18
2792.63
2793.06
2793.46
2793.83
2794.18
2794.51
2794.82
2795.11
2795.39
2795.64
2795.89
2796.12
2796.33
2796.53
2796.72
2796.89
2797.06
2797.22
2797.37
2797.51
2797.64
2797.77
2797.89
2798
2731.38
2715.96
2725.25
2713
2729.67
2727.31
2734.78
2740.08
2745.08
2748.69
2750.49
2750.67
2750.09
2748.65
2746.88
2745.22
2743.98
2743.24
2742.97
2743.19
2744.05
2745.66
2747.87
2750.4
2753.08
2755.78
2758.41
2760.91
2763.26
2765.42
2767.42
2769.26
2770.96
2772.54
2774
2775.37
2776.65
2777.86
2778.99
2780.06
2781.07
2782.02
2782.93
2783.8
2784.62
2785.4
2786.15
2786.85
2787.52
2788.15
2788.75
2789.32
2789.85
2790.36
2790.84
2791.29
2791.72
2792.12
2792.5
2792.86
2793.2
2793.52
2793.82
2794.1
2794.37
2794.63
2794.86
2795.09
2795.3
2795.5
2795.69
2795.88
2796.05
2796.22
2796.38
2796.53
2796.67
2796.8
2796.92
2741.01
2725.85
2734.47
2721.9
2737.65
2734.13
2741.16
2745.92
2751.02
2754.96
2756.94
2757.17
2756.57
2754.94
2752.78
2750.44
2748.43
2747.01
2746.19
2745.91
2746.11
2746.92
2748.46
2750.57
2752.99
2755.53
2758.07
2760.54
2762.87
2765.06
2767.08
2768.93
2770.63
2772.19
2773.62
2774.95
2776.18
2777.32
2778.39
2779.4
2780.34
2781.24
2782.1
2782.91
2783.68
2784.41
2785.11
2785.78
2786.41
2787.02
2787.59
2788.14
2788.66
2789.15
2789.62
2790.07
2790.49
2790.89
2791.26
2791.62
2791.96
2792.29
2792.59
2792.88
2793.16
2793.42
2793.67
2793.9
2794.12
2794.32
2794.51
2794.69
2794.85
2795
2795.13
2795.26
2795.38
2795.49
2795.6
2749.56
2734.79
2742.66
2730.27
2745.21
2740.79
2747.34
2751.64
2756.72
2760.95
2763.15
2763.49
2762.96
2761.31
2758.93
2756.04
2753.29
2751.1
2749.63
2748.85
2748.64
2748.88
2749.72
2751.24
2753.26
2755.57
2757.98
2760.37
2762.67
2764.83
2766.84
2768.69
2770.38
2771.93
2773.34
2774.63
2775.82
2776.92
2777.95
2778.9
2779.8
2780.65
2781.45
2782.21
2782.93
2783.61
2784.26
2784.87
2785.47
2786.04
2786.58
2787.1
2787.6
2788.07
2788.53
2788.96
2789.37
2789.76
2790.14
2790.49
2790.82
2791.12
2791.41
2791.68
2791.94
2792.18
2792.4
2792.61
2792.8
2792.99
2793.16
2793.32
2793.48
2793.63
2793.77
2793.9
2794.03
2794.15
2794.26
2757.2
2742.85
2750.05
2738.16
2752.34
2747.27
2753.33
2757.29
2762.25
2766.66
2769.09
2769.55
2769.06
2767.47
2765.08
2761.92
2758.6
2755.65
2753.44
2752.05
2751.43
2751.36
2751.68
2752.58
2754.07
2756
2758.16
2760.41
2762.63
2764.74
2766.72
2768.55
2770.23
2771.76
2773.15
2774.42
2775.58
2776.65
2777.64
2778.56
2779.42
2780.23
2780.99
2781.71
2782.39
2783.04
2783.65
2784.23
2784.8
2785.33
2785.84
2786.33
2786.79
2787.23
2787.65
2788.04
2788.41
2788.76
2789.09
2789.4
2789.7
2789.97
2790.23
2790.48
2790.71
2790.93
2791.14
2791.33
2791.52
2791.7
2791.87
2792.02
2792.17
2792.31
2792.45
2792.57
2792.69
2792.8
2792.91
2764.13
2750.17
2756.86
2745.62
2759.09
2753.59
2759.18
2762.91
2767.66
2772.11
2774.73
2775.34
2774.91
2773.45
2771.18
2767.96
2764.28
2760.69
2757.72
2755.64
2754.45
2754.05
2754.12
2754.53
2755.47
2756.91
2758.71
2760.7
2762.74
2764.76
2766.68
2768.47
2770.13
2771.66
2773.05
2774.32
2775.48
2776.54
2777.52
2778.42
2779.26
2780.04
2780.78
2781.48
2782.13
2782.75
2783.34
2783.9
2784.42
2784.92
2785.39
2785.83
2786.25
2786.64
2787.02
2787.37
2787.7
2788.01
2788.29
2788.57
2788.83
2789.07
2789.31
2789.53
2789.73
2789.93
2790.11
2790.29
2790.45
2790.6
2790.75
2790.88
2791.01
2791.13
2791.24
2791.34
2791.44
2791.54
2791.63
2770.45
2756.87
2763.21
2752.68
2765.49
2759.78
2764.94
2768.5
2772.99
2777.35
2780.1
2780.85
2780.5
2779.17
2777.06
2773.92
2770.15
2766.16
2762.56
2759.77
2757.93
2757.03
2756.84
2756.99
2757.45
2758.35
2759.67
2761.29
2763.06
2764.88
2766.67
2768.39
2770.01
2771.53
2772.94
2774.23
2775.42
2776.5
2777.49
2778.4
2779.25
2780.03
2780.76
2781.44
2782.07
2782.67
2783.23
2783.75
2784.24
2784.69
2785.11
2785.52
2785.89
2786.25
2786.57
2786.87
2787.16
2787.42
2787.68
2787.91
2788.14
2788.35
2788.55
2788.74
2788.91
2789.07
2789.22
2789.36
2789.5
2789.62
2789.74
2789.85
2789.95
2790.05
2790.14
2790.23
2790.31
2790.38
2790.45
2776.2
2763.05
2769.14
2759.34
2771.57
2765.86
2770.63
2774.06
2778.27
2782.41
2785.22
2786.1
2785.83
2784.65
2782.73
2779.78
2776.1
2771.97
2767.94
2764.49
2761.95
2760.38
2759.73
2759.65
2759.79
2760.2
2760.99
2762.13
2763.54
2765.1
2766.71
2768.31
2769.86
2771.35
2772.75
2774.07
2775.29
2776.42
2777.45
2778.4
2779.27
2780.07
2780.8
2781.48
2782.11
2782.69
2783.23
2783.72
2784.18
2784.61
2785
2785.37
2785.7
2786.01
2786.29
2786.55
2786.79
2787.02
2787.24
2787.44
2787.62
2787.78
2787.93
2788.06
2788.19
2788.31
2788.41
2788.52
2788.61
2788.7
2788.79
2788.86
2788.93
2789
2789.05
2789.11
2789.16
2789.21
2789.25
2781.44
2768.78
2774.73
2765.63
2777.34
2771.82
2776.21
2779.54
2783.46
2787.3
2790.12
2791.1
2790.92
2789.89
2788.19
2785.45
2781.98
2777.92
2773.69
2769.79
2766.6
2764.32
2763.01
2762.49
2762.39
2762.47
2762.77
2763.4
2764.35
2765.55
2766.9
2768.33
2769.77
2771.19
2772.56
2773.86
2775.1
2776.26
2777.34
2778.34
2779.26
2780.1
2780.86
2781.56
2782.2
2782.77
2783.29
2783.77
2784.2
2784.59
2784.96
2785.29
2785.59
2785.85
2786.1
2786.32
2786.53
2786.72
2786.89
2787.05
2787.18
2787.3
2787.41
2787.51
2787.6
2787.69
2787.77
2787.84
2787.9
2787.96
2788.01
2788.06
2788.1
2788.14
2788.17
2788.2
2788.22
2788.24
2788.26
2786.23
2774.11
2780.01
2771.57
2782.83
2777.64
2781.68
2784.89
2788.53
2792.01
2794.78
2795.85
2795.78
2794.91
2793.43
2790.94
2787.74
2783.89
2779.71
2775.55
2771.85
2768.85
2766.77
2765.58
2765.06
2764.89
2764.88
2765.07
2765.54
2766.32
2767.34
2768.52
2769.79
2771.1
2772.41
2773.68
2774.91
2776.08
2777.18
2778.21
2779.17
2780.05
2780.85
2781.58
2782.24
2782.83
2783.36
2783.83
2784.26
2784.63
2784.97
2785.26
2785.52
2785.76
2785.96
2786.15
2786.31
2786.45
2786.57
2786.68
2786.77
2786.85
2786.92
2786.98
2787.04
2787.08
2787.12
2787.15
2787.18
2787.2
2787.22
2787.23
2787.24
2787.25
2787.26
2787.26
2787.27
2787.27
2787.28
2790.65
2779.11
2785.03
2777.21
2788.07
2783.35
2787
2790.07
2793.42
2796.51
2799.2
2800.34
2800.39
2799.69
2798.46
2796.26
2793.37
2789.79
2785.79
2781.59
2777.51
2773.94
2771.1
2769.14
2768
2767.43
2767.18
2767.1
2767.2
2767.54
2768.16
2769.03
2770.07
2771.21
2772.39
2773.59
2774.78
2775.93
2777.02
2778.05
2779.02
2779.91
2780.73
2781.47
2782.14
2782.73
2783.27
2783.75
2784.17
2784.55
2784.87
2785.15
2785.39
2785.6
2785.77
2785.92
2786.04
2786.14
2786.22
2786.28
2786.33
2786.37
2786.4
2786.43
2786.44
2786.45
2786.45
2786.45
2786.44
2786.43
2786.42
2786.41
2786.39
2786.38
2786.36
2786.35
2786.33
2786.32
2786.3
2794.71
2783.8
2789.83
2782.56
2792.95
2788.94
2792.27
2795.11
2798.12
2800.8
2803.36
2804.59
2804.76
2804.24
2803.27
2801.39
2798.85
2795.58
2791.81
2787.7
2783.49
2779.45
2775.96
2773.2
2771.3
2770.17
2769.56
2769.25
2769.14
2769.19
2769.43
2769.94
2770.68
2771.59
2772.61
2773.68
2774.78
2775.87
2776.92
2777.93
2778.87
2779.75
2780.56
2781.29
2781.95
2782.54
2783.07
2783.54
2783.95
2784.31
2784.61
2784.87
2785.09
2785.28
2785.43
2785.55
2785.64
2785.71
2785.75
2785.79
2785.81
2785.82
2785.82
2785.8
2785.79
2785.76
2785.74
2785.71
2785.67
2785.64
2785.6
2785.56
2785.52
2785.49
2785.45
2785.41
2785.38
2785.34
2785.3
2798.41
2788.16
2794.36
2787.64
2797.18
2794.81
2797.54
2800.06
2802.65
2804.9
2807.28
2808.59
2808.91
2808.55
2807.87
2806.34
2804.17
2801.23
2797.71
2793.74
2789.51
2785.26
2781.21
2777.74
2775.09
2773.28
2772.18
2771.55
2771.23
2771.11
2771.12
2771.29
2771.7
2772.32
2773.1
2774
2774.96
2775.95
2776.92
2777.86
2778.76
2779.59
2780.36
2781.07
2781.7
2782.27
2782.78
2783.22
2783.6
2783.93
2784.21
2784.44
2784.62
2784.78
2784.89
2784.98
2785.05
2785.09
2785.11
2785.12
2785.12
2785.1
2785.08
2785.04
2785.01
2784.96
2784.91
2784.86
2784.81
2784.76
2784.7
2784.64
2784.59
2784.53
2784.47
2784.42
2784.36
2784.31
2784.26
2801.71
2792.08
2798.58
2792.68
2800.47
2801.17
2803.1
2804.98
2807.08
2808.87
2810.99
2812.38
2812.84
2812.66
2812.25
2811.07
2809.3
2806.71
2803.46
2799.64
2795.46
2791.12
2786.82
2782.83
2779.43
2776.86
2775.11
2774.04
2773.43
2773.11
2772.99
2772.99
2773.11
2773.43
2773.93
2774.59
2775.36
2776.19
2777.04
2777.87
2778.68
2779.43
2780.14
2780.78
2781.37
2781.89
2782.35
2782.75
2783.09
2783.37
2783.61
2783.8
2783.95
2784.07
2784.16
2784.22
2784.26
2784.28
2784.29
2784.28
2784.25
2784.22
2784.18
2784.13
2784.07
2784.01
2783.95
2783.88
2783.81
2783.74
2783.67
2783.61
2783.54
2783.47
2783.4
2783.34
2783.28
2783.21
2783.15
2804.63
2795.5
2802.45
2798.36
2804.28
2807.13
2808.07
2809.72
2811.43
2812.77
2814.55
2815.98
2816.58
2816.57
2816.43
2815.59
2814.19
2811.95
2808.99
2805.37
2801.29
2796.93
2792.51
2788.23
2784.32
2781
2778.54
2776.89
2775.86
2775.26
2774.95
2774.83
2774.82
2774.89
2775.11
2775.49
2776.01
2776.62
2777.29
2777.97
2778.64
2779.29
2779.9
2780.46
2780.96
2781.41
2781.8
2782.14
2782.43
2782.66
2782.85
2783
2783.12
2783.2
2783.26
2783.29
2783.3
2783.3
2783.28
2783.25
2783.21
2783.15
2783.1
2783.03
2782.97
2782.9
2782.82
2782.75
2782.67
2782.6
2782.53
2782.45
2782.38
2782.31
2782.23
2782.17
2782.1
2782.03
2781.96
2807.33
2798.82
2806.32
2804.4
2808.41
2812.73
2812.4
2814.13
2815.64
2816.61
2818.02
2819.41
2820.17
2820.34
2820.42
2819.88
2818.83
2816.92
2814.26
2810.87
2806.95
2802.66
2798.22
2793.81
2789.59
2785.81
2782.64
2780.26
2778.65
2777.64
2777.05
2776.74
2776.6
2776.56
2776.57
2776.68
2776.91
2777.26
2777.69
2778.17
2778.67
2779.17
2779.65
2780.09
2780.49
2780.84
2781.14
2781.4
2781.62
2781.79
2781.93
2782.03
2782.1
2782.15
2782.17
2782.18
2782.17
2782.15
2782.11
2782.06
2782.01
2781.95
2781.88
2781.81
2781.73
2781.66
2781.58
2781.5
2781.42
2781.34
2781.26
2781.19
2781.11
2781.03
2780.96
2780.88
2780.81
2780.74
2780.68
2810.02
2802.36
2810.18
2809.85
2812.21
2817.74
2816.65
2818.51
2819.72
2820.4
2821.43
2822.73
2823.62
2824.02
2824.26
2823.95
2823.19
2821.59
2819.23
2816.11
2812.4
2808.26
2803.88
2799.44
2795.09
2791
2787.31
2784.25
2781.97
2780.41
2779.42
2778.82
2778.48
2778.29
2778.18
2778.11
2778.09
2778.15
2778.29
2778.52
2778.8
2779.1
2779.4
2779.69
2779.95
2780.18
2780.37
2780.53
2780.66
2780.76
2780.84
2780.89
2780.91
2780.93
2780.92
2780.9
2780.87
2780.82
2780.77
2780.72
2780.65
2780.58
2780.51
2780.44
2780.36
2780.28
2780.2
2780.12
2780.04
2779.96
2779.88
2779.8
2779.73
2779.65
2779.58
2779.51
2779.44
2779.38
2779.32
2812.7
2805.93
2813.74
2814.66
2815.89
2821.93
2821
2822.94
2823.69
2824.14
2824.8
2825.98
2826.99
2827.59
2827.97
2827.81
2827.29
2825.95
2823.88
2821.04
2817.6
2813.68
2809.45
2805.08
2800.7
2796.45
2792.47
2788.92
2785.98
2783.73
2782.17
2781.15
2780.51
2780.11
2779.83
2779.62
2779.42
2779.25
2779.14
2779.09
2779.09
2779.14
2779.22
2779.31
2779.4
2779.47
2779.54
2779.58
2779.61
2779.63
2779.63
2779.62
2779.6
2779.57
2779.53
2779.49
2779.44
2779.38
2779.31
2779.25
2779.17
2779.1
2779.02
2778.94
2778.86
2778.78
2778.7
2778.62
2778.54
2778.46
2778.38
2778.31
2778.24
2778.17
2778.1
2778.03
2777.96
2777.9
2777.83
2815.31
2809.4
2816.97
2818.9
2819.63
2826.02
2825.29
2827.22
2827.58
2827.85
2828.17
2829.22
2830.29
2831.06
2831.54
2831.5
2831.13
2830.01
2828.21
2825.68
2822.54
2818.89
2814.88
2810.64
2806.31
2802.01
2797.88
2794.02
2790.54
2787.66
2785.46
2783.89
2782.81
2782.08
2781.56
2781.16
2780.81
2780.46
2780.13
2779.83
2779.56
2779.33
2779.15
2779
2778.88
2778.78
2778.69
2778.61
2778.53
2778.46
2778.38
2778.31
2778.24
2778.16
2778.08
2778.01
2777.92
2777.84
2777.76
2777.67
2777.58
2777.5
2777.41
2777.33
2777.24
2777.16
2777.08
2777
2776.91
2776.84
2776.76
2776.68
2776.6
2776.52
2776.45
2776.38
2776.31
2776.24
2776.17
2817.85
2812.75
2819.99
2822.7
2823.37
2830.08
2829.49
2831.34
2831.41
2831.55
2831.58
2832.45
2833.54
2834.43
2834.98
2835.02
2834.75
2833.81
2832.26
2830.03
2827.2
2823.87
2820.13
2816.09
2811.88
2807.61
2803.4
2799.37
2795.61
2792.23
2789.39
2787.15
2785.48
2784.28
2783.42
2782.76
2782.2
2781.69
2781.18
2780.66
2780.16
2779.67
2779.23
2778.83
2778.48
2778.18
2777.92
2777.7
2777.5
2777.33
2777.17
2777.02
2776.88
2776.75
2776.62
2776.5
2776.38
2776.27
2776.16
2776.05
2775.95
2775.85
2775.75
2775.65
2775.55
2775.46
2775.36
2775.27
2775.18
2775.09
2775
2774.91
2774.83
2774.75
2774.68
2774.61
2774.54
2774.47
2774.41
2820.33
2816.01
2822.91
2826.2
2827.03
2834.01
2833.48
2835.27
2835.21
2835.24
2835.05
2835.72
2836.75
2837.68
2838.3
2838.39
2838.17
2837.39
2836.07
2834.13
2831.63
2828.62
2825.18
2821.38
2817.34
2813.16
2808.95
2804.82
2800.87
2797.18
2793.81
2790.92
2788.63
2786.85
2785.5
2784.46
2783.62
2782.88
2782.18
2781.48
2780.78
2780.09
2779.42
2778.8
2778.24
2777.74
2777.3
2776.92
2776.58
2776.29
2776.03
2775.79
2775.58
2775.38
2775.2
2775.03
2774.87
2774.72
2774.57
2774.43
2774.3
2774.17
2774.05
2773.92
2773.81
2773.69
2773.59
2773.48
2773.38
2773.29
2773.2
2773.11
2773.03
2772.94
2772.86
2772.78
2772.7
2772.63
2772.55
2822.77
2819.18
2825.8
2829.46
2830.53
2837.74
2837.27
2839.02
2838.95
2838.9
2838.61
2839.06
2839.93
2840.84
2841.49
2841.61
2841.42
2840.78
2839.67
2838.02
2835.84
2833.14
2830.01
2826.49
2822.66
2818.63
2814.48
2810.32
2806.24
2802.34
2798.67
2795.33
2792.36
2789.93
2787.96
2786.39
2785.14
2784.08
2783.13
2782.23
2781.35
2780.5
2779.67
2778.88
2778.14
2777.47
2776.85
2776.31
2775.82
2775.4
2775.02
2774.69
2774.39
2774.11
2773.86
2773.63
2773.41
2773.21
2773.02
2772.84
2772.67
2772.51
2772.36
2772.21
2772.08
2771.94
2771.82
2771.69
2771.57
2771.46
2771.34
2771.23
2771.12
2771.02
2770.92
2770.82
2770.73
2770.64
2770.55
2825.15
2822.25
2828.65
2832.55
2833.83
2841.26
2840.9
2842.65
2842.59
2842.5
2842.16
2842.45
2843.1
2843.92
2844.57
2844.71
2844.54
2844
2843.1
2841.72
2839.85
2837.47
2834.63
2831.39
2827.8
2823.94
2819.91
2815.78
2811.66
2807.6
2803.68
2799.98
2796.57
2793.45
2790.81
2788.65
2786.86
2785.36
2784.07
2782.91
2781.85
2780.85
2779.89
2778.98
2778.12
2777.31
2776.56
2775.87
2775.25
2774.69
2774.19
2773.74
2773.33
2772.97
2772.63
2772.32
2772.04
2771.77
2771.53
2771.3
2771.08
2770.88
2770.69
2770.5
2770.32
2770.14
2769.98
2769.82
2769.66
2769.52
2769.38
2769.24
2769.11
2768.99
2768.88
2768.77
2768.66
2768.56
2768.47
2827.47
2825.2
2831.45
2835.5
2837
2844.61
2844.38
2846.14
2846.11
2846.01
2845.66
2845.84
2846.26
2846.94
2847.55
2847.7
2847.54
2847.11
2846.38
2845.24
2843.66
2841.58
2839.03
2836.06
2832.73
2829.09
2825.21
2821.17
2817.04
2812.89
2808.79
2804.83
2801.05
2797.52
2794.27
2791.36
2788.93
2786.9
2785.17
2783.68
2782.37
2781.2
2780.11
2779.1
2778.14
2777.24
2776.39
2775.59
2774.85
2774.17
2773.54
2772.96
2772.43
2771.95
2771.51
2771.11
2770.74
2770.39
2770.07
2769.77
2769.48
2769.21
2768.96
2768.72
2768.49
2768.28
2768.08
2767.89
2767.7
2767.53
2767.37
2767.21
2767.06
2766.92
2766.79
2766.66
2766.53
2766.41
2766.3
2829.7
2828.04
2834.22
2838.39
2840.12
2847.83
2847.65
2849.41
2849.46
2849.43
2849.1
2849.19
2849.41
2849.93
2850.45
2850.61
2850.47
2850.11
2849.53
2848.61
2847.28
2845.49
2843.23
2840.53
2837.45
2834.03
2830.33
2826.4
2822.31
2818.13
2813.91
2809.73
2805.64
2801.73
2798.04
2794.63
2791.51
2788.77
2786.53
2784.64
2783.03
2781.62
2780.37
2779.23
2778.18
2777.19
2776.26
2775.38