/*--------------------------------*- C++ -*----------------------------------*\
| =========                 |                                                 |
| \\      /  F ield         | OpenFOAM: The Open Source CFD Toolbox           |
|  \\    /   O peration     | Version:  2412                                  |
|   \\  /    A nd           | Website:  www.openfoam.com                      |
|    \\/     M anipulation  |                                                 |
\*---------------------------------------------------------------------------*/
FoamFile
{
    version     2.0;
    format      ascii;
    arch        "LSB;label=32;scalar=64";
    class       volScalarField;
    location    "0.047";
    object      T;
}
// * * * * * * * * * * * * * * * * * * * * * * * * * * * * * * * * * * * * * //

dimensions      [0 0 0 1 0 0 0];

internalField   nonuniform List<scalar> 
9816
(
225.924
225.934
225.94
225.944
225.944
225.941
225.936
225.928
225.918
225.905
225.891
225.874
225.857
225.838
225.818
225.796
225.773
225.748
225.718
225.691
225.657
225.618
225.575
225.528
225.482
225.439
225.408
225.392
225.389
225.417
225.515
225.719
226.032
226.44
226.923
227.483
228.104
228.797
229.55
230.356
231.186
231.887
224.351
224.339
224.326
224.313
224.299
224.285
224.27
224.256
224.241
224.227
224.214
224.201
224.189
224.177
224.163
224.15
224.132
224.114
224.09
224.064
224.039
224.017
224.003
223.998
224.011
224.065
224.189
224.414
224.739
225.162
225.661
226.23
226.867
227.563
228.3
229.036
229.723
230.252
230.648
230.944
231.087
231.087
223.795
223.793
223.79
223.788
223.784
223.781
223.777
223.773
223.769
223.765
223.761
223.756
223.751
223.744
223.736
223.726
223.716
223.707
223.701
223.698
223.699
223.708
223.737
223.801
223.917
224.101
224.37
224.743
225.237
225.854
226.58
227.369
228.165
228.902
229.512
229.954
230.283
230.478
230.528
230.544
230.582
230.608
223.519
223.522
223.525
223.527
223.529
223.53
223.532
223.533
223.534
223.534
223.534
223.534
223.533
223.533
223.53
223.527
223.525
223.525
223.525
223.529
223.541
223.571
223.632
223.744
223.924
224.199
224.584
225.101
225.739
226.482
227.275
228.056
228.757
229.328
229.707
229.94
230.111
230.194
230.194
230.175
230.181
230.194
223.389
223.396
223.403
223.409
223.416
223.422
223.428
223.434
223.439
223.444
223.448
223.45
223.451
223.452
223.452
223.453
223.455
223.459
223.466
223.479
223.503
223.547
223.626
223.758
223.97
224.285
224.723
225.29
225.969
226.721
227.488
228.206
228.823
229.277
229.57
229.776
229.889
229.908
229.898
229.915
229.939
229.963
223.338
223.348
223.357
223.366
223.374
223.382
223.39
223.397
223.404
223.41
223.415
223.418
223.421
223.423
223.425
223.428
223.433
223.442
223.453
223.471
223.502
223.554
223.646
223.795
224.029
224.366
224.825
225.401
226.075
226.799
227.522
228.186
228.737
229.13
229.401
229.579
229.65
229.654
229.67
229.702
229.735
229.751
223.323
223.333
223.344
223.353
223.362
223.37
223.378
223.386
223.393
223.399
223.403
223.407
223.41
223.413
223.416
223.421
223.427
223.437
223.451
223.473
223.51
223.573
223.68
223.849
224.105
224.461
224.933
225.507
226.163
226.853
227.529
228.136
228.634
228.985
229.221
229.38
229.449
229.454
229.464
229.492
229.521
229.539
223.319
223.33
223.34
223.35
223.359
223.367
223.375
223.383
223.39
223.396
223.401
223.405
223.409
223.412
223.416
223.421
223.429
223.44
223.457
223.483
223.528
223.6
223.719
223.9
224.165
224.527
224.996
225.557
226.192
226.851
227.49
228.055
228.517
228.842
229.047
229.186
229.265
229.283
229.277
229.29
229.31
229.333
223.315
223.326
223.335
223.345
223.354
223.362
223.37
223.377
223.384
223.389
223.394
223.398
223.402
223.405
223.409
223.414
223.423
223.435
223.452
223.48
223.524
223.598
223.715
223.893
224.15
224.501
224.951
225.489
226.091
226.715
227.315
227.852
228.293
228.619
228.839
228.987
229.062
229.078
229.086
229.109
229.133
229.146
223.313
223.323
223.332
223.34
223.349
223.356
223.364
223.371
223.377
223.382
223.387
223.39
223.394
223.397
223.401
223.407
223.415
223.428
223.444
223.47
223.511
223.578
223.683
223.841
224.069
224.376
224.77
225.24
225.775
226.339
226.904
227.425
227.883
228.249
228.52
228.702
228.826
228.887
228.901
228.909
228.929
228.95
223.31
223.32
223.33
223.339
223.348
223.356
223.364
223.371
223.377
223.381
223.385
223.388
223.391
223.393
223.396
223.401
223.408
223.418
223.432
223.453
223.485
223.537
223.617
223.736
223.909
224.142
224.449
224.823
225.266
225.752
226.267
226.776
227.256
227.677
228.029
228.298
228.482
228.606
228.686
228.718
228.722
228.733
223.302
223.311
223.319
223.327
223.335
223.342
223.348
223.354
223.36
223.365
223.37
223.374
223.377
223.38
223.383
223.388
223.393
223.402
223.414
223.429
223.452
223.486
223.539
223.618
223.734
223.896
224.113
224.393
224.735
225.137
225.583
226.058
226.535
226.992
227.403
227.754
228.035
228.246
228.382
228.462
228.521
228.557
223.294
223.303
223.311
223.32
223.327
223.334
223.341
223.348
223.354
223.359
223.364
223.367
223.37
223.373
223.376
223.379
223.383
223.389
223.398
223.409
223.424
223.447
223.48
223.531
223.605
223.715
223.865
224.068
224.328
224.648
225.023
225.442
225.888
226.339
226.772
227.166
227.505
227.782
227.999
228.148
228.247
228.324
223.285
223.293
223.302
223.31
223.317
223.324
223.331
223.338
223.344
223.349
223.354
223.358
223.361
223.364
223.367
223.369
223.372
223.377
223.383
223.393
223.404
223.42
223.444
223.477
223.528
223.602
223.71
223.857
224.054
224.304
224.611
224.966
225.363
225.779
226.2
226.6
226.965
227.278
227.537
227.739
227.891
228.004
223.272
223.28
223.288
223.296
223.303
223.31
223.316
223.322
223.328
223.333
223.338
223.342
223.345
223.348
223.351
223.353
223.356
223.359
223.365
223.372
223.381
223.394
223.41
223.435
223.471
223.523
223.598
223.705
223.849
224.039
224.278
224.566
224.898
225.262
225.644
226.025
226.388
226.717
227.004
227.244
227.439
227.594
223.262
223.27
223.278
223.285
223.293
223.3
223.306
223.312
223.318
223.324
223.329
223.333
223.336
223.34
223.342
223.345
223.347
223.351
223.355
223.36
223.368
223.378
223.39
223.407
223.431
223.466
223.516
223.589
223.688
223.822
223.995
224.211
224.469
224.765
225.088
225.426
225.765
226.089
226.389
226.654
226.886
227.082
223.252
223.26
223.268
223.276
223.283
223.29
223.297
223.303
223.308
223.313
223.318
223.322
223.325
223.328
223.33
223.333
223.335
223.337
223.34
223.345
223.35
223.358
223.368
223.379
223.395
223.417
223.448
223.493
223.556
223.642
223.756
223.905
224.089
224.311
224.564
224.844
225.14
225.441
225.734
226.011
226.267
226.498
223.239
223.247
223.254
223.262
223.268
223.275
223.281
223.287
223.293
223.298
223.303
223.307
223.311
223.315
223.318
223.32
223.323
223.325
223.328
223.332
223.336
223.342
223.35
223.359
223.37
223.384
223.404
223.431
223.469
223.521
223.593
223.69
223.815
223.972
224.162
224.383
224.629
224.894
225.166
225.438
225.702
225.953
223.226
223.234
223.241
223.249
223.255
223.262
223.268
223.274
223.28
223.285
223.29
223.295
223.299
223.302
223.305
223.308
223.31
223.313
223.315
223.318
223.321
223.326
223.332
223.34
223.349
223.36
223.374
223.393
223.419
223.454
223.503
223.568
223.656
223.77
223.915
224.09
224.296
224.525
224.772
225.027
225.286
225.538
223.214
223.222
223.229
223.237
223.243
223.25
223.257
223.263
223.268
223.274
223.279
223.284
223.288
223.292
223.295
223.298
223.3
223.302
223.304
223.306
223.309
223.313
223.319
223.326
223.335
223.345
223.357
223.373
223.394
223.422
223.46
223.51
223.579
223.669
223.787
223.933
224.11
224.312
224.534
224.77
225.013
225.256
223.202
223.21
223.217
223.224
223.231
223.237
223.244
223.25
223.255
223.261
223.266
223.271
223.275
223.279
223.282
223.285
223.287
223.288
223.29
223.292
223.294
223.298
223.303
223.311
223.319
223.329
223.34
223.355
223.373
223.397
223.428
223.471
223.529
223.605
223.705
223.831
223.984
224.162
224.361
224.575
224.798
225.024
223.191
223.198
223.206
223.213
223.22
223.226
223.232
223.238
223.243
223.249
223.254
223.258
223.263
223.266
223.269
223.272
223.274
223.275
223.277
223.278
223.281
223.284
223.289
223.295
223.303
223.313
223.324
223.337
223.353
223.373
223.4
223.435
223.483
223.547
223.63
223.736
223.866
224.019
224.192
224.38
224.578
224.782
223.182
223.189
223.197
223.204
223.211
223.217
223.223
223.229
223.235
223.241
223.246
223.251
223.255
223.259
223.262
223.265
223.267
223.268
223.27
223.271
223.273
223.275
223.279
223.285
223.291
223.299
223.308
223.319
223.332
223.349
223.37
223.398
223.435
223.486
223.551
223.637
223.741
223.867
224.01
224.168
224.337
224.514
223.174
223.182
223.189
223.196
223.202
223.209
223.215
223.22
223.225
223.23
223.235
223.239
223.243
223.247
223.25
223.253
223.255
223.257
223.258
223.26
223.262
223.264
223.267
223.271
223.276
223.283
223.29
223.299
223.309
223.321
223.338
223.358
223.387
223.424
223.474
223.539
223.62
223.718
223.831
223.959
224.098
224.247
223.165
223.172
223.179
223.186
223.192
223.198
223.204
223.209
223.214
223.219
223.224
223.228
223.232
223.236
223.239
223.242
223.245
223.247
223.249
223.251
223.252
223.254
223.256
223.259
223.262
223.267
223.273
223.279
223.287
223.296
223.308
223.324
223.345
223.373
223.411
223.459
223.522
223.597
223.686
223.788
223.901
224.025
223.156
223.163
223.17
223.176
223.183
223.189
223.194
223.2
223.205
223.21
223.215
223.219
223.223
223.227
223.231
223.234
223.237
223.239
223.241
223.243
223.244
223.246
223.247
223.249
223.251
223.254
223.258
223.264
223.27
223.278
223.288
223.3
223.318
223.342
223.374
223.415
223.467
223.529
223.603
223.689
223.784
223.89
223.146
223.154
223.16
223.167
223.173
223.179
223.185
223.19
223.195
223.2
223.205
223.209
223.213
223.217
223.221
223.224
223.228
223.23
223.232
223.234
223.235
223.236
223.237
223.238
223.24
223.242
223.245
223.25
223.256
223.263
223.273
223.286
223.303
223.326
223.357
223.397
223.447
223.507
223.577
223.656
223.744
223.838
223.137
223.144
223.151
223.157
223.163
223.169
223.174
223.179
223.184
223.189
223.194
223.198
223.202
223.206
223.21
223.214
223.216
223.219
223.221
223.222
223.223
223.223
223.224
223.225
223.226
223.228
223.231
223.236
223.242
223.25
223.26
223.274
223.294
223.32
223.354
223.396
223.448
223.509
223.578
223.653
223.735
223.822
223.127
223.133
223.14
223.146
223.152
223.158
223.163
223.168
223.173
223.178
223.182
223.186
223.19
223.194
223.198
223.201
223.204
223.206
223.207
223.208
223.209
223.209
223.209
223.209
223.21
223.212
223.216
223.221
223.228
223.237
223.249
223.266
223.29
223.32
223.358
223.404
223.459
223.521
223.589
223.66
223.736
223.814
223.116
223.122
223.129
223.134
223.14
223.146
223.151
223.156
223.161
223.165
223.169
223.173
223.177
223.181
223.185
223.187
223.19
223.192
223.193
223.193
223.193
223.193
223.193
223.193
223.194
223.196
223.2
223.205
223.212
223.223
223.238
223.258
223.285
223.319
223.361
223.41
223.466
223.526
223.591
223.657
223.724
223.791
223.104
223.11
223.116
223.122
223.128
223.133
223.138
223.143
223.147
223.152
223.156
223.16
223.164
223.167
223.171
223.173
223.176
223.177
223.178
223.178
223.178
223.178
223.178
223.178
223.179
223.181
223.184
223.19
223.198
223.21
223.226
223.248
223.277
223.313
223.356
223.405
223.458
223.514
223.572
223.629
223.686
223.743
223.092
223.099
223.104
223.11
223.115
223.12
223.125
223.13
223.134
223.138
223.142
223.146
223.15
223.153
223.156
223.159
223.161
223.162
223.163
223.163
223.163
223.163
223.163
223.163
223.164
223.165
223.169
223.175
223.182
223.194
223.21
223.232
223.259
223.294
223.333
223.377
223.424
223.473
223.522
223.571
223.619
223.665
223.083
223.089
223.094
223.1
223.105
223.109
223.114
223.118
223.123
223.127
223.13
223.134
223.138
223.141
223.144
223.146
223.148
223.15
223.15
223.15
223.15
223.15
223.15
223.15
223.151
223.152
223.155
223.16
223.167
223.177
223.191
223.21
223.233
223.262
223.295
223.332
223.372
223.413
223.454
223.495
223.535
223.574
223.076
223.082
223.087
223.092
223.097
223.102
223.106
223.11
223.114
223.118
223.122
223.125
223.128
223.132
223.134
223.137
223.139
223.14
223.141
223.141
223.141
223.141
223.141
223.14
223.141
223.141
223.144
223.148
223.153
223.161
223.172
223.187
223.206
223.229
223.256
223.286
223.318
223.352
223.387
223.422
223.457
223.492
223.072
223.078
223.083
223.087
223.092
223.097
223.101
223.105
223.109
223.112
223.116
223.119
223.122
223.125
223.128
223.131
223.133
223.134
223.135
223.135
223.135
223.134
223.134
223.134
223.134
223.134
223.136
223.139
223.143
223.149
223.158
223.169
223.185
223.203
223.225
223.25
223.277
223.306
223.337
223.368
223.399
223.431
223.069
223.074
223.079
223.084
223.089
223.093
223.097
223.101
223.105
223.108
223.112
223.115
223.118
223.121
223.124
223.127
223.129
223.13
223.13
223.131
223.131
223.13
223.13
223.129
223.129
223.129
223.13
223.132
223.135
223.141
223.148
223.157
223.17
223.186
223.205
223.227
223.251
223.277
223.304
223.332
223.361
223.39
223.067
223.072
223.077
223.082
223.086
223.09
223.094
223.098
223.101
223.105
223.108
223.112
223.115
223.118
223.121
223.123
223.125
223.126
223.127
223.127
223.127
223.126
223.126
223.125
223.125
223.125
223.125
223.126
223.129
223.134
223.14
223.149
223.16
223.174
223.191
223.212
223.233
223.257
223.282
223.308
223.334
223.362
223.066
223.071
223.075
223.08
223.084
223.088
223.092
223.095
223.099
223.102
223.105
223.109
223.112
223.115
223.118
223.121
223.122
223.123
223.124
223.124
223.124
223.123
223.122
223.121
223.121
223.121
223.121
223.122
223.124
223.128
223.134
223.142
223.152
223.166
223.182
223.2
223.22
223.242
223.265
223.288
223.313
223.338
223.065
223.07
223.074
223.079
223.083
223.086
223.09
223.094
223.097
223.1
223.103
223.107
223.11
223.113
223.116
223.118
223.12
223.121
223.121
223.121
223.121
223.12
223.119
223.118
223.118
223.117
223.117
223.118
223.121
223.124
223.129
223.137
223.146
223.159
223.173
223.19
223.208
223.228
223.249
223.271
223.293
223.317
223.065
223.07
223.074
223.078
223.082
223.086
223.089
223.093
223.096
223.099
223.102
223.106
223.109
223.112
223.115
223.117
223.119
223.12
223.12
223.12
223.12
223.119
223.118
223.117
223.116
223.116
223.116
223.116
223.118
223.122
223.127
223.134
223.142
223.153
223.167
223.182
223.199
223.217
223.236
223.256
223.277
223.298
223.066
223.07
223.074
223.078
223.082
223.086
223.089
223.092
223.096
223.099
223.102
223.105
223.108
223.112
223.114
223.117
223.118
223.119
223.119
223.119
223.119
223.118
223.117
223.116
223.115
223.114
223.114
223.115
223.117
223.12
223.125
223.131
223.14
223.15
223.162
223.176
223.192
223.208
223.226
223.244
223.263
223.283
223.065
223.07
223.074
223.078
223.081
223.085
223.088
223.091
223.095
223.098
223.101
223.104
223.107
223.11
223.113
223.115
223.117
223.118
223.118
223.118
223.117
223.116
223.115
223.114
223.113
223.113
223.113
223.114
223.115
223.119
223.123
223.129
223.137
223.147
223.158
223.171
223.186
223.201
223.217
223.233
223.251
223.269
223.064
223.068
223.072
223.076
223.079
223.083
223.086
223.089
223.092
223.095
223.098
223.101
223.104
223.108
223.11
223.112
223.114
223.114
223.114
223.114
223.114
223.113
223.111
223.11
223.109
223.109
223.109
223.109
223.111
223.114
223.119
223.124
223.132
223.141
223.152
223.164
223.177
223.191
223.205
223.22
223.236
223.253
223.062
223.066
223.07
223.074
223.077
223.08
223.083
223.086
223.089
223.092
223.095
223.098
223.101
223.103
223.106
223.108
223.109
223.109
223.11
223.109
223.109
223.108
223.106
223.105
223.104
223.104
223.103
223.104
223.106
223.108
223.112
223.117
223.124
223.132
223.142
223.153
223.165
223.177
223.19
223.203
223.217
223.232
223.059
223.063
223.066
223.069
223.073
223.076
223.079
223.081
223.084
223.087
223.09
223.093
223.096
223.099
223.101
223.103
223.104
223.105
223.105
223.105
223.104
223.103
223.102
223.101
223.1
223.099
223.099
223.099
223.1
223.103
223.106
223.111
223.117
223.124
223.132
223.141
223.151
223.161
223.172
223.184
223.196
223.208
223.057
223.061
223.064
223.068
223.071
223.074
223.077
223.08
223.082
223.085
223.088
223.09
223.093
223.096
223.098
223.1
223.101
223.102
223.102
223.102
223.102
223.101
223.1
223.099
223.098
223.097
223.096
223.096
223.097
223.098
223.1
223.104
223.108
223.113
223.119
223.126
223.134
223.142
223.151
223.16
223.17
223.18
223.055
223.058
223.062
223.065
223.068
223.071
223.074
223.076
223.079
223.081
223.084
223.086
223.089
223.091
223.094
223.096
223.097
223.098
223.099
223.099
223.099
223.099
223.098
223.097
223.096
223.095
223.095
223.094
223.094
223.095
223.096
223.098
223.101
223.104
223.109
223.114
223.119
223.126
223.132
223.139
223.147
223.155
223.053
223.057
223.06
223.063
223.066
223.069
223.072
223.074
223.077
223.079
223.081
223.084
223.086
223.089
223.091
223.093
223.095
223.097
223.097
223.098
223.098
223.098
223.097
223.097
223.096
223.095
223.094
223.094
223.094
223.094
223.094
223.095
223.096
223.099
223.101
223.105
223.109
223.113
223.117
223.122
223.128
223.133
223.05
223.054
223.057
223.061
223.064
223.067
223.069
223.072
223.075
223.077
223.079
223.082
223.084
223.086
223.089
223.091
223.093
223.094
223.096
223.096
223.096
223.096
223.096
223.096
223.095
223.095
223.094
223.093
223.093
223.092
223.092
223.092
223.093
223.094
223.095
223.097
223.1
223.102
223.105
223.109
223.112
223.117
223.049
223.052
223.055
223.059
223.061
223.064
223.067
223.069
223.071
223.073
223.075
223.077
223.079
223.081
223.083
223.085
223.087
223.089
223.09
223.091
223.091
223.092
223.092
223.091
223.091
223.09
223.089
223.089
223.088
223.087
223.087
223.087
223.087
223.087
223.087
223.088
223.089
223.091
223.093
223.095
223.097
223.1
223.041
223.044
223.047
223.049
223.051
223.054
223.056
223.058
223.06
223.062
223.064
223.066
223.068
223.07
223.072
223.074
223.076
223.078
223.08
223.081
223.082
223.083
223.083
223.084
223.084
223.083
223.083
223.082
223.082
223.081
223.08
223.08
223.079
223.079
223.079
223.08
223.08
223.08
223.081
223.082
223.084
223.085
223.03
223.032
223.035
223.037
223.039
223.041
223.043
223.045
223.047
223.049
223.051
223.052
223.054
223.056
223.058
223.06
223.062
223.064
223.066
223.068
223.069
223.07
223.071
223.071
223.072
223.072
223.072
223.071
223.071
223.07
223.069
223.069
223.068
223.067
223.067
223.066
223.066
223.066
223.066
223.066
223.066
223.066
223.019
223.022
223.024
223.026
223.028
223.03
223.032
223.034
223.035
223.037
223.039
223.04
223.042
223.044
223.045
223.047
223.048
223.05
223.051
223.053
223.054
223.055
223.056
223.057
223.058
223.058
223.058
223.058
223.058
223.058
223.057
223.056
223.056
223.055
223.054
223.053
223.052
223.051
223.051
223.05
223.049
223.049
223.005
223.007
223.008
223.01
223.011
223.013
223.014
223.016
223.017
223.019
223.02
223.021
223.022
223.023
223.024
223.025
223.026
223.027
223.028
223.029
223.03
223.031
223.033
223.033
223.034
223.035
223.036
223.036
223.036
223.036
223.036
223.036
223.036
223.035
223.034
223.034
223.033
223.032
223.031
223.03
223.029
223.028
222.996
222.998
223
223.001
223.003
223.005
223.006
223.008
223.009
223.01
223.011
223.013
223.014
223.014
223.015
223.016
223.017
223.017
223.018
223.019
223.019
223.02
223.02
223.021
223.021
223.022
223.022
223.023
223.023
223.023
223.023
223.023
223.023
223.023
223.023
223.023
223.023
223.022
223.022
223.021
223.021
223.02
222.994
222.996
222.998
222.999
223.001
223.002
223.003
223.003
223.004
223.005
223.005
223.006
223.006
223.007
223.007
223.007
223.008
223.008
223.008
223.008
223.008
223.009
223.009
223.009
223.009
223.009
223.01
223.01
223.01
223.01
223.011
223.011
223.011
223.011
223.011
223.012
223.012
223.012
223.013
223.013
223.013
223.013
222.995
222.997
222.998
222.999
223
223
223.001
223.001
223.002
223.002
223.003
223.003
223.003
223.004
223.004
223.004
223.005
223.005
223.005
223.006
223.006
223.006
223.006
223.007
223.007
223.007
223.007
223.007
223.007
223.007
223.008
223.008
223.008
223.008
223.008
223.008
223.008
223.008
223.009
223.009
223.009
223.009
223.003
223.004
223.005
223.006
223.007
223.008
223.009
223.01
223.011
223.012
223.013
223.013
223.014
223.015
223.015
223.016
223.016
223.016
223.017
223.017
223.017
223.017
223.017
223.017
223.017
223.017
223.017
223.017
223.017
223.017
223.017
223.017
223.017
223.017
223.017
223.017
223.017
223.017
223.016
223.016
223.016
223.016
223.02
223.021
223.022
223.023
223.024
223.025
223.026
223.027
223.028
223.028
223.029
223.029
223.03
223.03
223.03
223.031
223.031
223.031
223.031
223.032
223.032
223.032
223.032
223.032
223.032
223.032
223.032
223.032
223.032
223.033
223.033
223.033
223.033
223.033
223.033
223.033
223.033
223.033
223.033
223.034
223.034
223.034
223.04
223.041
223.042
223.042
223.043
223.044
223.044
223.045
223.046
223.047
223.047
223.048
223.049
223.049
223.05
223.051
223.052
223.052
223.053
223.054
223.054
223.055
223.055
223.056
223.057
223.057
223.058
223.058
223.059
223.059
223.059
223.06
223.06
223.061
223.061
223.061
223.062
223.062
223.062
223.063
223.063
223.063
223.057
223.059
223.06
223.061
223.062
223.063
223.064
223.066
223.067
223.068
223.069
223.07
223.071
223.072
223.073
223.074
223.075
223.076
223.077
223.078
223.079
223.08
223.081
223.081
223.082
223.083
223.084
223.084
223.084
223.085
223.085
223.086
223.086
223.087
223.087
223.087
223.088
223.088
223.088
223.089
223.089
223.089
223.074
223.076
223.078
223.08
223.081
223.083
223.085
223.086
223.087
223.089
223.09
223.092
223.093
223.094
223.095
223.096
223.097
223.098
223.099
223.1
223.101
223.102
223.103
223.103
223.105
223.105
223.106
223.106
223.106
223.106
223.107
223.108
223.108
223.109
223.109
223.109
223.109
223.11
223.11
223.111
223.111
223.111
223.09
223.092
223.095
223.097
223.099
223.101
223.103
223.104
223.106
223.108
223.109
223.11
223.112
223.113
223.114
223.115
223.116
223.117
223.118
223.119
223.12
223.121
223.122
223.123
223.124
223.124
223.125
223.125
223.126
223.126
223.127
223.127
223.127
223.128
223.128
223.129
223.129
223.129
223.13
223.13
223.13
223.131
223.106
223.108
223.111
223.113
223.115
223.117
223.119
223.121
223.123
223.124
223.126
223.127
223.129
223.13
223.131
223.132
223.133
223.135
223.136
223.137
223.137
223.138
223.139
223.14
223.141
223.142
223.142
223.143
223.143
223.144
223.144
223.145
223.145
223.146
223.146
223.147
223.147
223.148
223.148
223.148
223.149
223.149
223.121
223.124
223.126
223.128
223.131
223.133
223.134
223.136
223.138
223.14
223.141
223.143
223.144
223.146
223.147
223.148
223.149
223.15
223.151
223.152
223.153
223.154
223.155
223.156
223.157
223.157
223.158
223.159
223.159
223.16
223.161
223.161
223.162
223.162
223.163
223.163
223.164
223.164
223.164
223.165
223.165
223.165
223.136
223.139
223.141
223.143
223.145
223.147
223.149
223.151
223.153
223.154
223.156
223.157
223.159
223.16
223.162
223.163
223.164
223.165
223.166
223.167
223.168
223.169
223.17
223.171
223.171
223.172
223.173
223.174
223.174
223.175
223.176
223.176
223.177
223.177
223.178
223.178
223.179
223.179
223.179
223.18
223.18
223.18
223.15
223.153
223.155
223.157
223.159
223.161
223.163
223.165
223.167
223.168
223.17
223.171
223.173
223.174
223.175
223.177
223.178
223.179
223.18
223.181
223.182
223.183
223.184
223.185
223.185
223.186
223.187
223.188
223.188
223.189
223.189
223.19
223.191
223.191
223.192
223.192
223.193
223.193
223.193
223.194
223.194
223.194
223.164
223.166
223.168
223.17
223.172
223.174
223.176
223.178
223.18
223.181
223.183
223.185
223.186
223.187
223.189
223.19
223.191
223.192
223.193
223.194
223.195
223.196
223.197
223.198
223.199
223.199
223.2
223.201
223.201
223.202
223.203
223.203
223.204
223.204
223.205
223.205
223.206
223.206
223.207
223.207
223.207
223.208
223.175
223.178
223.18
223.182
223.184
223.186
223.188
223.19
223.192
223.194
223.195
223.197
223.198
223.199
223.201
223.202
223.203
223.204
223.205
223.206
223.207
223.208
223.209
223.21
223.211
223.211
223.212
223.213
223.214
223.214
223.215
223.215
223.216
223.216
223.217
223.217
223.218
223.218
223.219
223.219
223.219
223.22
223.186
223.189
223.191
223.193
223.195
223.197
223.199
223.201
223.203
223.204
223.206
223.207
223.209
223.21
223.211
223.213
223.214
223.215
223.216
223.217
223.218
223.219
223.22
223.221
223.221
223.222
223.223
223.224
223.224
223.225
223.226
223.226
223.227
223.227
223.228
223.228
223.229
223.229
223.229
223.23
223.23
223.231
223.196
223.199
223.201
223.203
223.205
223.207
223.209
223.211
223.212
223.214
223.216
223.217
223.219
223.22
223.221
223.222
223.224
223.225
223.226
223.227
223.228
223.229
223.229
223.23
223.231
223.232
223.233
223.233
223.234
223.235
223.235
223.236
223.236
223.237
223.237
223.238
223.238
223.239
223.239
223.239
223.24
223.24
223.205
223.208
223.21
223.212
223.214
223.216
223.218
223.22
223.221
223.223
223.225
223.226
223.227
223.229
223.23
223.231
223.232
223.234
223.235
223.236
223.237
223.237
223.238
223.239
223.24
223.241
223.241
223.242
223.243
223.243
223.244
223.244
223.245
223.245
223.246
223.246
223.247
223.247
223.248
223.248
223.248
223.249
223.214
223.216
223.218
223.221
223.223
223.225
223.226
223.228
223.23
223.232
223.233
223.234
223.236
223.237
223.238
223.24
223.241
223.242
223.243
223.244
223.245
223.246
223.247
223.247
223.248
223.249
223.25
223.25
223.251
223.251
223.252
223.253
223.253
223.254
223.254
223.255
223.255
223.255
223.256
223.256
223.256
223.257
223.222
223.224
223.226
223.229
223.231
223.233
223.234
223.236
223.238
223.239
223.241
223.242
223.244
223.245
223.246
223.247
223.249
223.25
223.251
223.252
223.252
223.253
223.254
223.255
223.256
223.256
223.257
223.258
223.258
223.259
223.26
223.26
223.261
223.261
223.262
223.262
223.262
223.263
223.263
223.264
223.264
223.264
223.229
223.231
223.233
223.236
223.238
223.239
223.241
223.243
223.245
223.246
223.248
223.249
223.25
223.252
223.253
223.254
223.255
223.256
223.257
223.258
223.259
223.26
223.261
223.262
223.262
223.263
223.264
223.264
223.265
223.266
223.266
223.267
223.267
223.268
223.268
223.269
223.269
223.269
223.27
223.27
223.27
223.271
223.235
223.237
223.239
223.241
223.243
223.245
223.247
223.249
223.25
223.252
223.253
223.255
223.256
223.257
223.258
223.259
223.261
223.262
223.263
223.264
223.264
223.265
223.266
223.267
223.268
223.268
223.269
223.27
223.27
223.271
223.271
223.272
223.272
223.273
223.273
223.274
223.274
223.274
223.275
223.275
223.276
223.276
223.24
223.242
223.244
223.246
223.248
223.25
223.252
223.253
223.255
223.256
223.258
223.259
223.261
223.262
223.263
223.264
223.265
223.266
223.267
223.268
223.269
223.27
223.271
223.271
223.272
223.273
223.273
223.274
223.275
223.275
223.276
223.276
223.277
223.277
223.278
223.278
223.278
223.279
223.279
223.28
223.28
223.28
223.245
223.247
223.249
223.251
223.253
223.255
223.257
223.258
223.26
223.261
223.263
223.264
223.266
223.267
223.268
223.269
223.27
223.271
223.272
223.273
223.274
223.275
223.275
223.276
223.277
223.278
223.278
223.279
223.279
223.28
223.281
223.281
223.281
223.282
223.282
223.283
223.283
223.284
223.284
223.284
223.285
223.285
223.251
223.253
223.255
223.257
223.259
223.261
223.263
223.264
223.266
223.267
223.269
223.27
223.271
223.273
223.274
223.275
223.276
223.277
223.278
223.279
223.28
223.28
223.281
223.282
223.283
223.283
223.284
223.285
223.285
223.286
223.286
223.287
223.287
223.288
223.288
223.289
223.289
223.289
223.29
223.29
223.29
223.291
223.258
223.26
223.262
223.264
223.266
223.268
223.269
223.271
223.273
223.274
223.275
223.277
223.278
223.279
223.28
223.281
223.282
223.283
223.284
223.285
223.286
223.287
223.288
223.288
223.289
223.29
223.29
223.291
223.292
223.292
223.293
223.293
223.294
223.294
223.295
223.295
223.295
223.296
223.296
223.296
223.297
223.297
223.264
223.266
223.268
223.27
223.272
223.274
223.275
223.277
223.279
223.28
223.281
223.283
223.284
223.285
223.286
223.287
223.288
223.289
223.29
223.291
223.292
223.293
223.294
223.294
223.295
223.296
223.296
223.297
223.298
223.298
223.299
223.299
223.3
223.3
223.301
223.301
223.301
223.302
223.302
223.302
223.303
223.303
223.269
223.271
223.273
223.275
223.277
223.279
223.281
223.282
223.284
223.285
223.286
223.288
223.289
223.29
223.291
223.292
223.293
223.294
223.295
223.296
223.297
223.298
223.299
223.299
223.3
223.301
223.301
223.302
223.303
223.303
223.304
223.304
223.305
223.305
223.306
223.306
223.306
223.307
223.307
223.307
223.308
223.308
223.274
223.276
223.278
223.28
223.282
223.283
223.285
223.287
223.288
223.29
223.291
223.292
223.294
223.295
223.296
223.297
223.298
223.299
223.3
223.301
223.302
223.302
223.303
223.304
223.304
223.305
223.306
223.306
223.307
223.307
223.308
223.308
223.309
223.309
223.31
223.31
223.311
223.311
223.311
223.312
223.312
223.312
223.279
223.281
223.283
223.285
223.287
223.288
223.29
223.292
223.293
223.295
223.296
223.297
223.298
223.3
223.301
223.302
223.303
223.304
223.305
223.305
223.306
223.307
223.308
223.309
223.309
223.31
223.31
223.311
223.312
223.312
223.313
223.313
223.314
223.314
223.314
223.315
223.315
223.316
223.316
223.316
223.317
223.317
223.285
223.287
223.289
223.291
223.293
223.294
223.296
223.297
223.299
223.3
223.302
223.303
223.304
223.305
223.306
223.307
223.308
223.309
223.31
223.311
223.312
223.313
223.313
223.314
223.315
223.315
223.316
223.317
223.317
223.318
223.318
223.319
223.319
223.32
223.32
223.32
223.321
223.321
223.321
223.322
223.322
223.322
223.291
223.293
223.295
223.297
223.299
223.3
223.302
223.303
223.305
223.306
223.308
223.309
223.31
223.311
223.312
223.313
223.314
223.315
223.316
223.317
223.318
223.318
223.319
223.32
223.321
223.321
223.322
223.322
223.323
223.323
223.324
223.324
223.325
223.325
223.326
223.326
223.326
223.327
223.327
223.327
223.328
223.328
223.296
223.298
223.3
223.302
223.303
223.305
223.307
223.308
223.31
223.311
223.312
223.314
223.315
223.316
223.317
223.318
223.319
223.32
223.321
223.322
223.323
223.323
223.324
223.325
223.325
223.326
223.327
223.327
223.328
223.328
223.329
223.329
223.33
223.33
223.331
223.331
223.331
223.332
223.332
223.332
223.333
223.333
223.299
223.301
223.303
223.305
223.307
223.308
223.31
223.312
223.313
223.314
223.316
223.317
223.318
223.319
223.32
223.321
223.322
223.323
223.324
223.325
223.326
223.327
223.327
223.328
223.329
223.329
223.33
223.331
223.331
223.332
223.332
223.333
223.333
223.333
223.334