/*--------------------------------*- C++ -*----------------------------------*\
| =========                 |                                                 |
| \\      /  F ield         | OpenFOAM: The Open Source CFD Toolbox           |
|  \\    /   O peration     | Version:  2412                                  |
|   \\  /    A nd           | Website:  www.openfoam.com                      |
|    \\/     M anipulation  |                                                 |
\*---------------------------------------------------------------------------*/
FoamFile
{
    version     2.0;
    format      ascii;
    arch        "LSB;label=32;scalar=64";
    class       volScalarField;
    location    "0.052";
    object      rho;
}
// * * * * * * * * * * * * * * * * * * * * * * * * * * * * * * * * * * * * * //

dimensions      [1 -3 0 0 0 0 0];

internalField   nonuniform List<scalar> 
9831
(
0.0299542
0.0392847
0.0299011
0.0392669
0.0401167
0.0400903
0.0401412
0.0402364
0.0403494
0.0404656
0.0405761
0.040677
0.0407677
0.0408495
0.0409251
0.0409977
0.0410695
0.0411412
0.0412125
0.0412835
0.0413541
0.0414244
0.0414945
0.0415646
0.0416333
0.0416979
0.0417566
0.0418111
0.0418649
0.0419199
0.0419752
0.0420293
0.0420816
0.0421322
0.0421818
0.0422313
0.0422815
0.0423324
0.0423838
0.0424354
0.0424866
0.0425373
0.0425874
0.042637
0.042686
0.0427341
0.042781
0.0428265
0.0428703
0.0429125
0.0429527
0.0429909
0.0298488
0.0392493
0.0401021
0.0400766
0.0401302
0.0402277
0.0403421
0.0404592
0.0405706
0.0406723
0.0407636
0.0408459
0.0409218
0.0409946
0.0410665
0.0411383
0.0412097
0.0412807
0.0413513
0.0414217
0.0414918
0.0415619
0.0416305
0.0416951
0.0417537
0.0418082
0.0418621
0.0419171
0.0419724
0.0420265
0.0420788
0.0421294
0.0421791
0.0422286
0.0422788
0.0423298
0.0423813
0.0424328
0.042484
0.0425347
0.0425849
0.0426344
0.0426834
0.0427314
0.0427783
0.0428237
0.0428676
0.0429096
0.0429499
0.0429881
0.0430241
0.0430578
0.0297993
0.0392318
0.0400874
0.040063
0.0401195
0.0402193
0.0403349
0.040453
0.0405652
0.0406677
0.0407596
0.0408423
0.0409185
0.0409916
0.0410636
0.0411355
0.0412069
0.0412779
0.0413486
0.041419
0.0414892
0.0415592
0.0416278
0.0416923
0.0417509
0.0418054
0.0418593
0.0419144
0.0419696
0.0420238
0.042076
0.0421266
0.0421763
0.042226
0.0422762
0.0423272
0.0423787
0.0424302
0.0424814
0.0425321
0.0425823
0.0426319
0.0426808
0.0427288
0.0427756
0.042821
0.0428648
0.0429069
0.0429471
0.0429853
0.0430213
0.043055
0.0430863
0.0431148
0.0297505
0.0392145
0.0400726
0.0400497
0.0401091
0.0402112
0.0403278
0.0404469
0.04056
0.0406632
0.0407557
0.0408388
0.0409153
0.0409886
0.0410608
0.0411327
0.0412041
0.0412751
0.0413459
0.0414163
0.0414866
0.0415566
0.0416252
0.0416895
0.041748
0.0418026
0.0418566
0.0419116
0.0419669
0.042021
0.0420733
0.0421239
0.0421736
0.0422233
0.0422736
0.0423246
0.0423761
0.0424277
0.0424788
0.0425295
0.0425797
0.0426293
0.0426782
0.0427262
0.042773
0.0428183
0.0428621
0.0429042
0.0429444
0.0429826
0.0430187
0.0430524
0.0430837
0.0431123
0.0431382
0.0431613
0.0431813
0.0431982
0.0432119
0.0432225
0.043229
0.0432334
0.0432336
0.0432305
0.0432239
0.0432144
0.0432021
0.0431868
0.0431686
0.0431478
0.0431246
0.0430992
0.0430717
0.0430423
0.0430113
0.0429788
0.042945
0.0429101
0.0428742
0.0428377
0.0428005
0.042763
0.0427251
0.0426871
0.042649
0.0426112
0.0425734
0.0425361
0.0424991
0.0424626
0.0424266
0.0423912
0.0423565
0.0423225
0.0422893
0.0422568
0.0422252
0.0421944
0.0421644
0.0421353
0.042107
0.0420796
0.042053
0.0420274
0.0420026
0.0419786
0.0419556
0.0419333
0.0419119
0.0418913
0.0418713
0.0418521
0.0418335
0.0418155
0.0417981
0.0417814
0.0417653
0.0417511
0.0417355
0.0297044
0.0391972
0.0400578
0.0400367
0.0400992
0.0402032
0.0403208
0.0404409
0.0405549
0.0406588
0.0407518
0.0408354
0.0409122
0.0409857
0.041058
0.04113
0.0412014
0.0412725
0.0413432
0.0414137
0.041484
0.041554
0.0416225
0.0416868
0.0417452
0.0417998
0.0418538
0.0419089
0.0419642
0.0420182
0.0420705
0.0421211
0.0421709
0.0422207
0.042271
0.0423221
0.0423736
0.0424251
0.0424763
0.0425269
0.0425771
0.0426267
0.0426756
0.0427236
0.0427703
0.0428156
0.0428594
0.0429015
0.0429417
0.04298
0.0430161
0.0430499
0.0430812
0.0431099
0.043136
0.0431591
0.0431793
0.0431965
0.0432103
0.0432211
0.0432281
0.0432329
0.0432334
0.0432303
0.0432244
0.0432156
0.0432036
0.0431888
0.0431713
0.0431513
0.0431289
0.0431042
0.0430776
0.0430492
0.0430191
0.0429876
0.0429549
0.0429211
0.0428864
0.042851
0.042815
0.0427787
0.042742
0.0427053
0.0426685
0.0426319
0.0425954
0.0425593
0.0425236
0.0424883
0.0424536
0.0424195
0.042386
0.0423533
0.0423212
0.0422899
0.0422594
0.0422297
0.0422009
0.0421728
0.0421456
0.0421192
0.0420937
0.042069
0.0420452
0.0420222
0.042
0.0419787
0.0419581
0.0419383
0.0419191
0.0419006
0.0418828
0.0418655
0.0418489
0.0418328
0.0418174
0.041804
0.041789
0.0417787
0.0417514
0.0296589
0.0391801
0.0400428
0.0400241
0.0400896
0.0401954
0.040314
0.040435
0.0405499
0.0406545
0.040748
0.040832
0.0409091
0.0409829
0.0410553
0.0411274
0.0411988
0.0412698
0.0413406
0.0414111
0.0414814
0.0415515
0.0416199
0.041684
0.0417424
0.041797
0.0418511
0.0419062
0.0419615
0.0420155
0.0420677
0.0421184
0.0421682
0.042218
0.0422684
0.0423195
0.042371
0.0424225
0.0424737
0.0425244
0.0425745
0.0426241
0.042673
0.042721
0.0427677
0.042813
0.0428568
0.0428989
0.0429391
0.0429774
0.0430136
0.0430474
0.0430789
0.0431077
0.0431339
0.0431573
0.0431776
0.043195
0.043209
0.0432201
0.0432277
0.0432326
0.0432335
0.043231
0.0432257
0.0432173
0.043206
0.0431918
0.0431751
0.0431558
0.0431342
0.0431105
0.0430848
0.0430574
0.0430284
0.042998
0.0429664
0.0429337
0.0429003
0.0428661
0.0428314
0.0427963
0.0427609
0.0427255
0.04269
0.0426547
0.0426196
0.0425848
0.0425503
0.0425164
0.0424829
0.0424501
0.0424178
0.0423863
0.0423555
0.0423254
0.042296
0.0422675
0.0422397
0.0422128
0.0421866
0.0421613
0.0421368
0.0421131
0.0420902
0.0420681
0.0420469
0.0420264
0.0420067
0.0419876
0.0419693
0.0419515
0.0419344
0.0419179
0.041902
0.0418866
0.0418718
0.0418593
0.0418448
0.0418351
0.0418083
0.0296161
0.0391631
0.0400277
0.0400118
0.0400802
0.0401877
0.0403074
0.0404293
0.040545
0.0406503
0.0407444
0.0408287
0.0409061
0.0409801
0.0410527
0.0411248
0.0411962
0.0412673
0.041338
0.0414086
0.0414789
0.0415489
0.0416173
0.0416813
0.0417396
0.0417942
0.0418484
0.0419035
0.0419587
0.0420127
0.0420649
0.0421156
0.0421655
0.0422154
0.0422658
0.0423169
0.0423684
0.0424199
0.0424711
0.0425218
0.0425719
0.0426216
0.0426704
0.0427183
0.042765
0.0428103
0.0428541
0.0428963
0.0429366
0.042975
0.0430112
0.0430451
0.0430767
0.0431057
0.043132
0.0431556
0.0431762
0.0431938
0.0432082
0.0432194
0.0432277
0.0432327
0.0432344
0.0432323
0.0432275
0.0432197
0.043209
0.0431956
0.0431797
0.0431612
0.0431406
0.0431178
0.0430931
0.0430668
0.0430389
0.0430096
0.0429792
0.0429478
0.0429156
0.0428827
0.0428493
0.0428156
0.0427816
0.0427475
0.0427134
0.0426794
0.0426456
0.0426122
0.0425791
0.0425465
0.0425143
0.0424828
0.0424518
0.0424215
0.0423919
0.0423631
0.0423349
0.0423075
0.0422809
0.0422551
0.04223
0.0422057
0.0421822
0.0421595
0.0421376
0.0421165
0.0420961
0.0420765
0.0420576
0.0420394
0.0420218
0.0420048
0.0419885
0.0419726
0.0419575
0.0419428
0.0419287
0.0419171
0.041903
0.0418935
0.0418673
0.0295738
0.039146
0.0400126
0.0399997
0.0400709
0.0401801
0.0403009
0.0404237
0.0405401
0.0406462
0.0407407
0.0408255
0.0409032
0.0409773
0.0410501
0.0411222
0.0411937
0.0412647
0.0413355
0.0414061
0.0414765
0.0415464
0.0416147
0.0416786
0.0417369
0.0417915
0.0418457
0.0419009
0.041956
0.04201
0.0420622
0.0421129
0.0421628
0.0422127
0.0422632
0.0423144
0.0423659
0.0424174
0.0424685
0.0425192
0.0425694
0.042619
0.0426678
0.0427157
0.0427624
0.0428077
0.0428515
0.0428937
0.0429341
0.0429726
0.0430089
0.043043
0.0430747
0.0431039
0.0431304
0.0431542
0.043175
0.0431929
0.0432077
0.0432192
0.0432282
0.0432336
0.0432355
0.0432342
0.04323
0.0432228
0.0432129
0.0432003
0.0431852
0.0431677
0.043148
0.0431263
0.0431027
0.0430775
0.0430508
0.0430228
0.0429937
0.0429636
0.0429327
0.0429012
0.0428691
0.0428368
0.0428041
0.0427714
0.0427387
0.0427062
0.0426738
0.0426417
0.04261
0.0425787
0.0425479
0.0425177
0.042488
0.042459
0.0424306
0.042403
0.042376
0.0423498
0.0423243
0.0422996
0.0422756
0.0422524
0.0422299
0.0422082
0.0421872
0.042167
0.0421475
0.0421288
0.0421107
0.0420933
0.0420765
0.0420602
0.0420445
0.0420293
0.0420149
0.0420011
0.0419879
0.0419776
0.0419631
0.0419531
0.0419268
0.0295341
0.0391289
0.0399976
0.0399877
0.0400615
0.0401725
0.0402945
0.0404183
0.0405354
0.0406421
0.0407372
0.0408223
0.0409003
0.0409747
0.0410475
0.0411197
0.0411912
0.0412622
0.0413331
0.0414036
0.041474
0.041544
0.0416122
0.041676
0.0417342
0.0417888
0.041843
0.0418982
0.0419533
0.0420072
0.0420594
0.0421102
0.0421602
0.0422101
0.0422606
0.0423118
0.0423633
0.0424148
0.0424659
0.0425166
0.0425668
0.0426164
0.0426653
0.0427131
0.0427598
0.0428051
0.042849
0.0428913
0.0429317
0.0429702
0.0430067
0.0430409
0.0430728
0.0431022
0.0431289
0.043153
0.0431742
0.0431924
0.0432075
0.0432195
0.0432289
0.0432347
0.0432373
0.0432367
0.0432331
0.0432266
0.0432175
0.0432058
0.0431916
0.0431751
0.0431564
0.0431358
0.0431134
0.0430894
0.043064
0.0430373
0.0430095
0.0429807
0.0429512
0.0429211
0.0428905
0.0428595
0.0428283
0.0427971
0.0427658
0.0427347
0.0427037
0.0426731
0.0426427
0.0426129
0.0425834
0.0425546
0.0425262
0.0424985
0.0424714
0.042445
0.0424193
0.0423943
0.0423699
0.0423463
0.0423234
0.0423012
0.0422797
0.042259
0.042239
0.0422197
0.0422011
0.0421832
0.042166
0.0421494
0.0421333
0.0421178
0.0421028
0.0420883
0.0420746
0.0420619
0.0420493
0.0420394
0.042025
0.0420153
0.0419894
0.0294947
0.0391119
0.0399829
0.0399757
0.0400521
0.0401651
0.0402883
0.0404129
0.0405308
0.0406381
0.0407337
0.0408192
0.0408975
0.0409721
0.041045
0.0411173
0.0411887
0.0412598
0.0413306
0.0414012
0.0414716
0.0415415
0.0416096
0.0416733
0.0417315
0.0417861
0.0418404
0.0418955
0.0419507
0.0420045
0.0420567
0.0421075
0.0421575
0.0422075
0.0422581
0.0423092
0.0423607
0.0424122
0.0424633
0.042514
0.0425642
0.0426138
0.0426627
0.0427105
0.0427572
0.0428026
0.0428465
0.0428888
0.0429294
0.042968
0.0430046
0.043039
0.043071
0.0431007
0.0431277
0.0431521
0.0431735
0.0431922
0.0432077
0.0432202
0.04323
0.0432363
0.0432397
0.0432398
0.0432368
0.0432312
0.0432229
0.0432122
0.043199
0.0431835
0.043166
0.0431466
0.0431254
0.0431027
0.0430785
0.0430532
0.0430268
0.0429995
0.0429714
0.0429427
0.0429136
0.0428841
0.0428544
0.0428246
0.0427948
0.0427652
0.0427357
0.0427065
0.0426776
0.0426491
0.0426211
0.0425936
0.0425666
0.0425402
0.0425144
0.0424892
0.0424647
0.0424408
0.0424176
0.0423951
0.0423733
0.0423522
0.0423317
0.042312
0.0422929
0.0422745
0.0422568
0.0422398
0.0422234
0.0422075
0.0421922
0.0421774
0.0421631
0.0421494
0.0421365
0.0421247
0.0421126
0.0421026
0.0420887
0.0420798
0.0420545
0.029458
0.0390952
0.0399687
0.0399637
0.0400428
0.0401579
0.0402823
0.0404076
0.0405263
0.0406342
0.0407303
0.0408161
0.0408947
0.0409695
0.0410426
0.0411149
0.0411863
0.0412574
0.0413282
0.0413988
0.0414692
0.0415391
0.0416071
0.0416707
0.0417288
0.0417834
0.0418377
0.0418929
0.041948
0.0420018
0.042054
0.0421048
0.0421548
0.0422049
0.0422555
0.0423066
0.0423581
0.0424096
0.0424607
0.0425114
0.0425616
0.0426112
0.0426601
0.0427079
0.0427546
0.0428
0.042844
0.0428864
0.0429271
0.0429658
0.0430026
0.0430372
0.0430695
0.0430993
0.0431267
0.0431514
0.0431732
0.0431922
0.0432083
0.0432213
0.0432315
0.0432385
0.0432426
0.0432434
0.0432411
0.0432364
0.0432291
0.0432193
0.0432072
0.0431929
0.0431765
0.0431583
0.0431384
0.043117
0.0430943
0.0430703
0.0430454
0.0430195
0.0429929
0.0429657
0.0429381
0.0429102
0.042882
0.0428538
0.0428255
0.0427974
0.0427694
0.0427416
0.0427142
0.0426872
0.0426605
0.0426344
0.0426088
0.0425837
0.0425592
0.0425353
0.0425121
0.0424894
0.0424674
0.042446
0.0424253
0.0424052
0.0423858
0.042367
0.0423489
0.0423315
0.0423146
0.0422984
0.0422828
0.0422677
0.0422531
0.042239
0.0422254
0.0422125
0.0422003
0.0421895
0.0421776
0.0421677
0.0421544
0.0421465
0.0421218
0.0294215
0.0390789
0.0399549
0.0399517
0.0400336
0.0401509
0.0402764
0.0404025
0.0405218
0.0406304
0.0407269
0.0408132
0.040892
0.040967
0.0410402
0.0411125
0.041184
0.041255
0.0413259
0.0413965
0.0414668
0.0415367
0.0416046
0.0416681
0.0417261
0.0417807
0.0418351
0.0418903
0.0419453
0.0419991
0.0420513
0.0421021
0.0421522
0.0422023
0.0422529
0.0423041
0.0423555
0.042407
0.0424581
0.0425088
0.042559
0.0426086
0.0426575
0.0427054
0.0427521
0.0427975
0.0428416
0.0428841
0.0429249
0.0429638
0.0430007
0.0430355
0.043068
0.0430982
0.0431258
0.0431509
0.0431732
0.0431926
0.0432092
0.0432228
0.0432335
0.0432411
0.043246
0.0432476
0.0432461
0.0432424
0.043236
0.0432273
0.0432163
0.0432032
0.0431881
0.0431713
0.0431527
0.0431327
0.0431114
0.0430889
0.0430654
0.0430411
0.0430161
0.0429905
0.0429644
0.042938
0.0429114
0.0428847
0.042858
0.0428314
0.042805
0.0427787
0.0427528
0.0427272
0.042702
0.0426773
0.0426531
0.0426293
0.0426061
0.0425835
0.0425615
0.04254
0.0425191
0.0424989
0.0424793
0.0424602
0.0424418
0.042424
0.0424069
0.0423903
0.0423744
0.042359
0.0423442
0.0423299
0.042316
0.0423027
0.0422898
0.0422777
0.0422661
0.042256
0.0422444
0.0422346
0.0422221
0.042215
0.0421911
0.0293878
0.0390632
0.039941
0.0399397
0.0400248
0.040144
0.0402705
0.0403974
0.0405175
0.0406266
0.0407236
0.0408102
0.0408893
0.0409645
0.0410378
0.0411102
0.0411816
0.0412527
0.0413235
0.0413942
0.0414645
0.0415343
0.0416022
0.0416655
0.0417235
0.0417781
0.0418324
0.0418876
0.0419426
0.0419964
0.0420485
0.0420994
0.0421495
0.0421997
0.0422503
0.0423015
0.0423529
0.0424044
0.0424555
0.0425062
0.0425564
0.0426061
0.0426549
0.0427028
0.0427495
0.042795
0.0428392
0.0428818
0.0429227
0.0429618
0.0429989
0.0430339
0.0430667
0.0430972
0.0431252
0.0431507
0.0431733
0.0431933
0.0432104
0.0432246
0.0432359
0.0432441
0.0432498
0.0432523
0.0432518
0.043249
0.0432437
0.0432361
0.0432263
0.0432144
0.0432007
0.0431851
0.043168
0.0431494
0.0431296
0.0431086
0.0430867
0.043064
0.0430405
0.0430165
0.0429921
0.0429673
0.0429423
0.0429172
0.0428921
0.0428671
0.0428422
0.0428175
0.0427931
0.042769
0.0427453
0.042722
0.0426991
0.0426768
0.0426549
0.0426336
0.0426128
0.0425925
0.0425728
0.0425537
0.0425352
0.0425172
0.0424998
0.042483
0.0424668
0.0424512
0.0424361
0.0424216
0.0424076
0.042394
0.0423809
0.0423682
0.0423562
0.0423447
0.0423338
0.0423243
0.042313
0.0423035
0.0422917
0.0422855
0.0422624
0.0293541
0.0390477
0.0399266
0.0399278
0.0400162
0.0401374
0.0402648
0.0403925
0.0405132
0.0406229
0.0407204
0.0408073
0.0408867
0.0409621
0.0410355
0.0411079
0.0411794
0.0412504
0.0413212
0.0413919
0.0414622
0.0415319
0.0415997
0.041663
0.0417208
0.0417754
0.0418298
0.041885
0.04194
0.0419937
0.0420458
0.0420967
0.0421469
0.042197
0.0422477
0.0422989
0.0423503
0.0424017
0.0424529
0.0425036
0.0425538
0.0426035
0.0426523
0.0427002
0.042747
0.0427926
0.0428368
0.0428796
0.0429206
0.0429599
0.0429972
0.0430325
0.0430656
0.0430964
0.0431248
0.0431506
0.0431739
0.0431943
0.043212
0.0432268
0.0432387
0.0432477
0.0432541
0.0432577
0.0432583
0.0432563
0.0432522
0.0432458
0.0432372
0.0432267
0.0432143
0.0432002
0.0431845
0.0431675
0.0431492
0.0431298
0.0431095
0.0430883
0.0430665
0.0430442
0.0430214
0.0429983
0.042975
0.0429515
0.042928
0.0429046
0.0428813
0.0428582
0.0428353
0.0428127
0.0427904
0.0427686
0.0427471
0.0427261
0.0427056
0.0426855
0.042666
0.042647
0.0426284
0.0426105
0.042593
0.0425761
0.0425598
0.0425439
0.0425287
0.042514
0.0424998
0.0424861
0.0424729
0.0424601
0.0424477
0.0424358
0.0424244
0.0424137
0.0424034
0.0423944
0.0423836
0.0423743
0.0423633
0.042358
0.0423357
0.0293234
0.0390323
0.0399115
0.0399159
0.0400079
0.0401309
0.0402593
0.0403876
0.040509
0.0406193
0.0407172
0.0408045
0.0408842
0.0409597
0.0410332
0.0411057
0.0411771
0.0412481
0.041319
0.0413896
0.0414599
0.0415296
0.0415973
0.0416604
0.0417182
0.0417728
0.0418272
0.0418824
0.0419373
0.041991
0.0420431
0.042094
0.0421442
0.0421944
0.0422451
0.0422963
0.0423477
0.0423991
0.0424502
0.042501
0.0425512
0.0426009
0.0426497
0.0426976
0.0427445
0.0427902
0.0428345
0.0428774
0.0429186
0.0429581
0.0429956
0.0430312
0.0430646
0.0430958
0.0431246
0.0431509
0.0431746
0.0431956
0.0432139
0.0432294
0.0432419
0.0432517
0.043259
0.0432636
0.0432653
0.0432643
0.0432614
0.0432562
0.0432489
0.0432398
0.0432288
0.0432161
0.043202
0.0431865
0.0431698
0.043152
0.0431334
0.0431139
0.0430938
0.0430731
0.043052
0.0430306
0.043009
0.0429872
0.0429654
0.0429436
0.0429219
0.0429004
0.042879
0.042858
0.0428372
0.0428168
0.0427968
0.0427772
0.042758
0.0427393
0.042721
0.0427032
0.0426859
0.0426691
0.0426527
0.0426369
0.0426215
0.0426067
0.0425924
0.0425786
0.0425653
0.0425524
0.04254
0.042528
0.0425163
0.0425052
0.0424946
0.0424845
0.0424747
0.0424663
0.0424558
0.042447
0.0424366
0.0424324
0.0424106
0.0292926
0.0390168
0.0398957
0.0399042
0.0399999
0.0401245
0.0402538
0.0403829
0.0405049
0.0406157
0.0407141
0.0408017
0.0408816
0.0409573
0.041031
0.0411035
0.0411749
0.0412459
0.0413168
0.0413874
0.0414577
0.0415273
0.0415949
0.0416579
0.0417156
0.0417702
0.0418247
0.0418798
0.0419347
0.0419883
0.0420404
0.0420913
0.0421416
0.0421918
0.0422425
0.0422936
0.0423451
0.0423965
0.0424476
0.0424983
0.0425486
0.0425983
0.0426471
0.0426951
0.042742
0.0427878
0.0428322
0.0428753
0.0429167
0.0429563
0.0429941
0.04303
0.0430638
0.0430953
0.0431245
0.0431514
0.0431756
0.0431972
0.0432162
0.0432323
0.0432456
0.0432563
0.0432644
0.04327
0.0432729
0.0432732
0.0432713
0.0432674
0.0432616
0.0432538
0.0432443
0.0432332
0.0432206
0.0432068
0.0431917
0.0431756
0.0431587
0.0431409
0.0431226
0.0431036
0.0430843
0.0430646
0.0430447
0.0430246
0.0430045
0.0429844
0.0429643
0.0429444
0.0429246
0.0429051
0.0428859
0.0428669
0.0428483
0.0428301
0.0428123
0.0427949
0.0427778
0.0427613
0.0427451
0.0427294
0.0427142
0.0426994
0.0426851
0.0426713
0.0426579
0.0426451
0.0426326
0.0426206
0.042609
0.0425977
0.0425868
0.0425764
0.0425666
0.0425571
0.0425479
0.0425401
0.04253
0.0425217
0.042512
0.0425085
0.0424877
0.0292648
0.0390013
0.0398795
0.0398926
0.0399919
0.0401182
0.0402484
0.0403782
0.0405008
0.0406122
0.040711
0.040799
0.0408791
0.040955
0.0410288
0.0411013
0.0411727
0.0412437
0.0413146
0.0413852
0.0414554
0.041525
0.0415925
0.0416554
0.041713
0.0417676
0.0418221
0.0418772
0.041932
0.0419856
0.0420377
0.0420887
0.0421389
0.0421892
0.0422398
0.042291
0.0423424
0.0423938
0.042445
0.0424957
0.042546
0.0425957
0.0426446
0.0426925
0.0427395
0.0427854
0.04283
0.0428732
0.0429148
0.0429547
0.0429928
0.0430289
0.0430631
0.0430951
0.0431247
0.0431521
0.0431769
0.0431991
0.0432187
0.0432356
0.0432497
0.0432613
0.0432704
0.0432769
0.043281
0.0432827
0.0432819
0.0432794
0.0432749
0.0432686
0.0432606
0.0432511
0.0432402
0.043228
0.0432146
0.0432003
0.043185
0.0431691
0.0431525
0.0431353
0.0431177
0.0430998
0.0430817
0.0430633
0.0430449
0.0430265
0.0430081
0.0429898
0.0429717
0.0429537
0.042936
0.0429186
0.0429014
0.0428846
0.0428682
0.0428521
0.0428364
0.042821
0.0428061
0.0427916
0.0427775
0.0427638
0.0427505
0.0427377
0.0427253
0.0427133
0.0427017
0.0426906
0.0426797
0.0426692
0.0426591
0.0426495
0.0426403
0.0426315
0.0426228
0.0426155
0.0426059
0.042598
0.0425889
0.0425859
0.0425662
0.0292367
0.0389855
0.0398631
0.039881
0.0399841
0.0401121
0.0402431
0.0403736
0.0404969
0.0406088
0.040708
0.0407963
0.0408767
0.0409528
0.0410266
0.0410992
0.0411706
0.0412416
0.0413124
0.041383
0.0414532
0.0415227
0.0415901
0.0416529
0.0417104
0.041765
0.0418195
0.0418746
0.0419294
0.0419829
0.042035
0.042086
0.0421363
0.0421865
0.0422372
0.0422884
0.0423398
0.0423912
0.0424423
0.0424931
0.0425434
0.0425931
0.042642
0.04269
0.0427371
0.0427831
0.0428278
0.0428712
0.042913
0.0429531
0.0429915
0.043028
0.0430625
0.043095
0.0431252
0.043153
0.0431785
0.0432013
0.0432216
0.0432393
0.0432542
0.0432667
0.0432768
0.0432845
0.0432897
0.0432928
0.0432935
0.0432921
0.0432892
0.0432844
0.043278
0.0432701
0.0432609
0.0432504
0.0432388
0.0432262
0.0432128
0.0431986
0.0431838
0.0431685
0.0431528
0.0431366
0.0431203
0.0431037
0.043087
0.0430703
0.0430536
0.043037
0.0430204
0.0430041
0.0429879
0.042972
0.0429563
0.0429409
0.0429258
0.042911
0.0428966
0.0428825
0.0428688
0.0428554
0.0428424
0.0428298
0.0428175
0.0428057
0.0427943
0.0427832
0.0427725
0.0427622
0.0427522
0.0427425
0.0427331
0.0427243
0.0427159
0.0427077
0.0426995
0.0426928
0.0426836
0.0426763
0.0426678
0.0426653
0.0426468
0.0292116
0.0389696
0.0398466
0.0398696
0.0399764
0.040106
0.040238
0.0403692
0.040493
0.0406054
0.0407051
0.0407937
0.0408743
0.0409506
0.0410245
0.0410971
0.0411685
0.0412395
0.0413103
0.0413809
0.041451
0.0415205
0.0415877
0.0416504
0.0417079
0.0417624
0.0418169
0.041872
0.0419267
0.0419802
0.0420324
0.0420833
0.0421336
0.0421839
0.0422346
0.0422857
0.0423371
0.0423885
0.0424397
0.0424905
0.0425408
0.0425905
0.0426394
0.0426875
0.0427347
0.0427808
0.0428257
0.0428692
0.0429112
0.0429516
0.0429903
0.0430272
0.0430622
0.043095
0.0431258
0.0431542
0.0431803
0.0432038
0.0432248
0.0432433
0.0432591
0.0432726
0.0432838
0.0432925
0.043299
0.0433033
0.0433056
0.0433057
0.0433041
0.0433009
0.0432962
0.04329
0.0432824
0.0432737
0.0432639
0.0432531
0.0432415
0.0432292
0.0432163
0.0432028
0.0431888
0.0431746
0.04316
0.0431452
0.0431303
0.0431154
0.0431004
0.0430854
0.0430705
0.0430558
0.0430412
0.0430268
0.0430126
0.0429986
0.0429849
0.0429715
0.0429584
0.0429455
0.042933
0.0429208
0.042909
0.0428975
0.0428863
0.0428755
0.042865
0.0428549
0.0428451
0.0428356
0.0428264
0.0428175
0.0428089
0.0428008
0.0427931
0.0427856
0.042778
0.0427718
0.0427631
0.0427563
0.0427484
0.0427463
0.0427291
0.0291861
0.0389535
0.0398301
0.0398582
0.0399689
0.0401001
0.0402329
0.0403648
0.0404892
0.0406022
0.0407022
0.0407911
0.040872
0.0409484
0.0410224
0.041095
0.0411664
0.0412374
0.0413082
0.0413787
0.0414489
0.0415182
0.0415854
0.0416479
0.0417053
0.0417599
0.0418144
0.0418694
0.0419241
0.0419776
0.0420297
0.0420807
0.042131
0.0421813
0.0422319
0.042283
0.0423344
0.0423858
0.042437
0.0424878
0.0425382
0.0425878
0.0426368
0.042685
0.0427322
0.0427785
0.0428236
0.0428673
0.0429096
0.0429502
0.0429893
0.0430265
0.0430619
0.0430953
0.0431266
0.0431556
0.0431823
0.0432066
0.0432284
0.0432477
0.0432645
0.043279
0.0432913
0.0433012
0.0433089
0.0433146
0.0433183
0.0433201
0.0433199
0.0433183
0.0433153
0.0433108
0.0433051
0.0432982
0.0432902
0.0432813
0.0432716
0.0432611
0.0432501
0.0432385
0.0432264
0.043214
0.0432013
0.0431884
0.0431753
0.043162
0.0431488
0.0431355
0.0431223
0.0431091
0.0430961
0.0430832
0.0430705
0.043058
0.0430457
0.0430336
0.0430218
0.0430102
0.0429989
0.0429879
0.0429771
0.0429667
0.0429566
0.0429468
0.0429373
0.0429281
0.0429192
0.0429105
0.0429021
0.0428941
0.0428863
0.042879
0.042872
0.0428652
0.0428583
0.0428528
0.0428444
0.042838
0.0428306
0.0428291
0.0428132
0.0291635
0.0389375
0.0398136
0.0398469
0.0399614
0.0400943
0.0402279
0.0403604
0.0404855
0.0405989
0.0406994
0.0407886
0.0408697
0.0409462
0.0410204
0.041093
0.0411644
0.0412353
0.0413061
0.0413766
0.0414467
0.041516
0.041583
0.0416455
0.0417028
0.0417573
0.0418118
0.0418669
0.0419215
0.0419749
0.042027
0.042078
0.0421283
0.0421786
0.0422293
0.0422804
0.0423318
0.0423832
0.0424344
0.0424852
0.0425355
0.0425852
0.0426342
0.0426825
0.0427299
0.0427762
0.0428215
0.0428654
0.0429079
0.0429489
0.0429883
0.043026
0.0430619
0.0430958
0.0431276
0.0431573
0.0431846
0.0432096
0.0432322
0.0432524
0.0432702
0.0432857
0.0432992
0.0433103
0.0433193
0.0433264
0.0433316
0.043335
0.0433366
0.0433365
0.0433351
0.0433325
0.0433285
0.0433235
0.0433174
0.0433104
0.0433026
0.043294
0.0432848
0.0432751
0.043265
0.0432545
0.0432436
0.0432325
0.0432212
0.0432098
0.0431983
0.0431868
0.0431752
0.0431637
0.0431523
0.043141
0.0431298
0.0431187
0.0431078
0.0430971
0.0430867
0.0430764
0.0430663
0.0430565
0.0430469
0.0430376
0.0430285
0.0430198
0.0430112
0.043003
0.042995
0.0429872
0.0429796
0.0429724
0.0429654
0.0429588
0.0429525
0.0429466
0.0429402
0.0429352
0.0429272
0.0429211
0.0429143
0.0429131
0.0428984
0.0291403
0.0389212
0.039797
0.0398358
0.0399541
0.0400886
0.040223
0.0403562
0.0404818
0.0405957
0.0406966
0.0407861
0.0408674
0.0409441
0.0410183
0.041091
0.0411623
0.0412333
0.0413041
0.0413746
0.0414446
0.0415138
0.0415807
0.041643
0.0417003
0.0417548
0.0418093
0.0418643
0.0419189
0.0419722
0.0420243
0.0420753
0.0421256
0.0421759
0.0422266
0.0422777
0.0423291
0.0423805
0.0424317
0.0424825
0.0425329
0.0425826
0.0426317
0.04268
0.0427275
0.042774
0.0428195
0.0428636
0.0429064
0.0429477
0.0429875
0.0430256
0.0430619
0.0430963
0.0431288
0.0431591
0.0431872
0.0432129
0.0432364
0.0432575
0.0432763
0.043293
0.0433076
0.04332
0.0433304
0.0433389
0.0433456
0.0433506
0.0433539
0.0433557
0.043356
0.043355
0.0433529
0.0433498
0.0433457
0.0433406
0.0433347
0.0433281
0.0433209
0.0433132
0.043305
0.0432964
0.0432874
0.0432782
0.0432688
0.0432592
0.0432494
0.0432396
0.0432298
0.0432199
0.0432101
0.0432003
0.0431906
0.043181
0.0431716
0.0431622
0.0431531
0.0431441
0.0431352
0.0431266
0.0431182
0.0431099
0.0431019
0.0430942
0.0430866
0.0430793
0.0430722
0.0430653
0.0430586
0.0430521
0.0430459
0.0430401
0.0430345
0.0430294
0.0430235
0.0430188
0.0430114
0.0430061
0.0429998
0.0429989
0.0429855
0.02912
0.0389049
0.0397804
0.0398248
0.039947
0.040083
0.0402182
0.040352
0.0404782
0.0405926
0.0406938
0.0407836
0.0408652
0.0409421
0.0410164
0.041089
0.0411604
0.0412313
0.041302
0.0413725
0.0414425
0.0415116
0.0415784
0.0416406
0.0416978
0.0417522
0.0418067
0.0418617
0.0419162
0.0419696
0.0420216
0.0420726
0.042123
0.0421732
0.0422239
0.042275
0.0423264
0.0423778
0.042429
0.0424799
0.0425302
0.04258
0.0426291
0.0426775
0.0427251
0.0427718
0.0428175
0.0428619
0.0429049
0.0429466
0.0429867
0.0430253
0.0430621
0.0430971
0.0431302
0.0431612
0.0431899
0.0432165
0.0432408
0.0432629
0.0432827
0.0433006
0.0433164
0.0433302
0.0433419
0.043352
0.0433602
0.0433668
0.0433718
0.0433754
0.0433776
0.0433785
0.0433782
0.0433769
0.0433747
0.0433716
0.0433677
0.0433631
0.0433579
0.0433521
0.0433458
0.0433392
0.0433321
0.0433248
0.0433172
0.0433095
0.0433015
0.0432935
0.0432854
0.0432772
0.043269
0.0432608
0.0432527
0.0432446
0.0432366
0.0432287
0.0432209
0.0432132
0.0432056
0.0431982
0.0431909
0.0431838
0.0431769
0.0431702
0.0431637
0.0431573
0.0431511
0.0431451
0.0431393
0.0431336
0.0431283
0.0431232
0.0431183
0.0431141
0.0431086
0.0431041
0.0430974
0.0430929
0.0430871
0.0430866
0.0430745
0.029099
0.0388885
0.0397638
0.0398139
0.03994
0.0400775
0.0402135
0.040348
0.0404747
0.0405895
0.0406911
0.0407812
0.040863
0.04094
0.0410144
0.0410871
0.0411584
0.0412293
0.0413
0.0413705
0.0414404
0.0415094
0.0415761
0.0416381
0.0416952
0.0417497
0.0418042
0.0418592
0.0419136
0.0419669
0.0420189
0.0420699
0.0421203
0.0421705
0.0422212
0.0422723
0.0423237
0.0423751
0.0424263
0.0424772
0.0425276
0.0425774
0.0426265
0.042675
0.0427228
0.0427697
0.0428155
0.0428602
0.0429035
0.0429455
0.0429861
0.0430252
0.0430625
0.0430981
0.0431318
0.0431634
0.043193
0.0432203
0.0432456
0.0432686
0.0432896
0.0433086
0.0433258
0.0433409
0.0433541
0.0433656
0.0433755
0.0433837
0.0433905
0.0433958
0.0433998
0.0434027
0.0434044
0.043405
0.0434048
0.0434037
0.0434018
0.0433992
0.043396
0.0433923
0.043388
0.0433833
0.0433783
0.0433728
0.0433672
0.0433613
0.0433552
0.0433489
0.0433425
0.043336
0.0433294
0.0433229
0.0433163
0.0433097
0.0433031
0.0432966
0.0432901
0.0432837
0.0432774
0.0432712
0.0432651
0.0432591
0.0432533
0.0432476
0.043242
0.0432366
0.0432313
0.0432261
0.0432211
0.0432163
0.0432118
0.0432075
0.0432033
0.0432
0.0431948
0.0431905
0.0431846
0.0431809
0.0431758
0.0431755
0.0431648
0.0290809
0.0388719
0.0397471
0.0398033
0.0399332
0.0400721
0.0402089
0.0403439
0.0404712
0.0405865
0.0406884
0.0407788
0.0408608
0.040938
0.0410125
0.0410852
0.0411565
0.0412273
0.041298
0.0413685
0.0414383
0.0415072
0.0415738
0.0416357
0.0416928
0.0417472
0.0418017
0.0418566
0.041911
0.0419642
0.0420162
0.0420672
0.0421176
0.0421678
0.0422185
0.0422696
0.0423209
0.0423724
0.0424237
0.0424745
0.0425249
0.0425748
0.042624
0.0426726
0.0427205
0.0427675
0.0428136
0.0428585
0.0429022
0.0429446
0.0429856
0.0430251
0.043063
0.0430992
0.0431335
0.0431659
0.0431962
0.0432244
0.0432506
0.0432747
0.0432968
0.043317
0.0433355
0.043352
0.0433667
0.0433798
0.0433913
0.0434012
0.0434097
0.0434169
0.0434228
0.0434275
0.0434312
0.0434339
0.0434356
0.0434365
0.0434367
0.0434361
0.0434349
0.0434332
0.0434309
0.0434283
0.0434252
0.0434217
0.0434179
0.0434139
0.0434096
0.0434052
0.0434005
0.0433958
0.0433909
0.0433859
0.0433809
0.0433758
0.0433707
0.0433656
0.0433606
0.0433555
0.0433505
0.0433455
0.0433406
0.0433358
0.0433311
0.0433265
0.043322
0.0433175
0.0433132
0.0433089
0.0433048
0.0433009
0.0432972
0.0432936
0.0432902
0.0432876
0.0432828
0.0432788
0.0432737
0.0432708
0.0432663
0.0432663
0.0432569
0.029062
0.0388551
0.0397305
0.0397927
0.0399265
0.0400669
0.0402044
0.04034
0.0404678
0.0405835
0.0406858
0.0407765
0.0408587
0.040936
0.0410106
0.0410833
0.0411546
0.0412254
0.0412961
0.0413665
0.0414362
0.0415051
0.0415715
0.0416333
0.0416903
0.0417447
0.0417992
0.0418541
0.0419084
0.0419616
0.0420135
0.0420645
0.0421148
0.0421651
0.0422157
0.0422668
0.0423182
0.0423697
0.042421
0.0424719
0.0425223
0.0425721
0.0426214
0.0426701
0.0427182
0.0427654
0.0428117
0.0428569
0.0429009
0.0429437
0.0429851
0.0430252
0.0430637
0.0431005
0.0431355
0.0431686
0.0431997
0.0432288
0.0432559
0.0432811
0.0433043
0.0433258
0.0433457
0.0433636
0.0433798
0.0433945
0.0434077
0.0434194
0.0434297
0.0434387
0.0434465
0.0434532
0.0434588
0.0434635
0.0434673
0.0434703
0.0434725
0.0434741
0.043475
0.0434753
0.0434751
0.0434745
0.0434734
0.0434719
0.0434701
0.043468
0.0434656
0.0434629
0.04346
0.043457
0.0434538
0.0434504
0.043447
0.0434434
0.0434398
0.0434361
0.0434324
0.0434287
0.0434249
0.0434212
0.0434175
0.0434138
0.0434101
0.0434065
0.043403
0.0433995
0.0433961
0.0433927
0.0433894
0.0433864
0.0433835
0.0433807
0.0433778
0.0433757
0.0433714
0.0433681
0.0433638
0.0433615
0.0433576
0.043358
0.0433497
0.0290458
0.0388382
0.0397138
0.0397824
0.03992