/*--------------------------------*- C++ -*----------------------------------*\
| =========                 |                                                 |
| \\      /  F ield         | OpenFOAM: The Open Source CFD Toolbox           |
|  \\    /   O peration     | Version:  2406                                  |
|   \\  /    A nd           | Website:  www.openfoam.com                      |
|    \\/     M anipulation  |                                                 |
\*---------------------------------------------------------------------------*/
FoamFile
{
    version     2.0;
    format      ascii;
    arch        "LSB;label=32;scalar=64";
    class       volScalarField;
    location    "0.01";
    object      rho;
}
// * * * * * * * * * * * * * * * * * * * * * * * * * * * * * * * * * * * * * //

dimensions      [1 -3 0 0 0 0 0];

internalField   nonuniform List<scalar> 
78650
(
0.042133
0.042133
0.042133
0.042133
0.042133
0.042133
0.042133
0.042133
0.042133
0.042133
0.042133
0.042133
0.042133
0.042133
0.042133
0.0421331
0.0421342
0.0421605
0.0423533
0.0428222
0.0432676
0.0434659
0.0434751
0.0434439
0.0433322
0.043216
0.0431205
0.0430322
0.0429447
0.0428573
0.0427726
0.0426933
0.0426207
0.0425544
0.0424931
0.0424356
0.0423812
0.0423287
0.0422773
0.0422268
0.0421774
0.0421297
0.0420839
0.0420402
0.0419987
0.0419595
0.0419223
0.041887
0.0418532
0.0418205
0.0417885
0.0417566
0.041724
0.04169
0.0416543
0.0416171
0.0415781
0.0415365
0.0414912
0.0414416
0.0413878
0.0413301
0.0412681
0.0411998
0.0411208
0.0410267
0.0409198
0.0408159
0.0407353
0.0406804
0.0406298
0.0405512
0.0404212
0.0402448
0.0400439
0.0398273
0.0395928
0.0393388
0.039066
0.0387746
0.0384634
0.0381328
0.0377836
0.0374198
0.0370382
0.0366437
0.0362321
0.0358068
0.0353692
0.034918
0.0344585
0.0339909
0.0335281
0.0330624
0.0326133
0.0321636
0.0317368
0.0313151
0.0309004
0.030503
0.0301208
0.0297696
0.0294321
0.0290953
0.0287734
0.0284664
0.0281848
0.0279189
0.0276675
0.0274302
0.0272133
0.0270145
0.0268301
0.0266536
0.0264895
0.0263341
0.0261884
0.0260501
0.0259146
0.0257993
0.0256063
0.042133
0.042133
0.042133
0.042133
0.042133
0.042133
0.042133
0.042133
0.042133
0.042133
0.042133
0.042133
0.042133
0.042133
0.042133
0.042133
0.0421336
0.0421489
0.0422916
0.0427212
0.0432113
0.0434652
0.0434968
0.0434771
0.043385
0.0432708
0.0431713
0.0430798
0.0429914
0.0429046
0.0428215
0.0427445
0.0426745
0.0426105
0.0425508
0.0424945
0.0424409
0.0423892
0.0423386
0.0422892
0.0422413
0.0421955
0.042152
0.0421111
0.0420726
0.0420366
0.042003
0.0419715
0.0419417
0.0419132
0.0418855
0.0418581
0.0418304
0.0418017
0.0417716
0.0417403
0.0417078
0.0416734
0.0416359
0.0415947
0.0415497
0.0415014
0.0414496
0.0413929
0.0413273
0.0412476
0.0411535
0.041059
0.0409863
0.0409436
0.0409134
0.0408665
0.0407699
0.0406198
0.0404405
0.0402449
0.0400326
0.0398024
0.0395549
0.0392895
0.0390048
0.0387013
0.0383791
0.0380397
0.03768
0.037305
0.0369101
0.0365034
0.0360821
0.0356481
0.0352054
0.0347516
0.034297
0.0338366
0.0333807
0.0329209
0.0324706
0.0320298
0.0315856
0.0311625
0.0307474
0.0303549
0.0299919
0.0296288
0.0292841
0.0289549
0.0286454
0.0283536
0.0280764
0.0278103
0.0275646
0.0273349
0.027121
0.0269198
0.02673
0.0265525
0.0263818
0.0262144
0.0260579
0.0259141
0.0256727
0.042133
0.042133
0.042133
0.042133
0.042133
0.042133
0.042133
0.042133
0.042133
0.042133
0.042133
0.042133
0.042133
0.042133
0.042133
0.042133
0.0421333
0.0421417
0.0422413
0.0426174
0.0431389
0.0434556
0.0435132
0.0435097
0.0434379
0.0433258
0.0432212
0.0431268
0.043038
0.0429524
0.0428713
0.0427969
0.0427296
0.0426676
0.0426093
0.0425539
0.042501
0.0424498
0.0424
0.0423518
0.0423055
0.0422618
0.0422208
0.0421827
0.0421473
0.0421147
0.0420846
0.0420569
0.0420311
0.0420067
0.0419831
0.0419602
0.0419372
0.0419137
0.0418891
0.0418636
0.0418374
0.0418098
0.0417799
0.0417468
0.0417105
0.0416713
0.0416292
0.0415833
0.04153
0.0414637
0.0413827
0.0412992
0.0412364
0.041206
0.0411938
0.0411744
0.0411082
0.0409823
0.0408222
0.0406465
0.0404573
0.0402522
0.04003
0.0397895
0.0395299
0.0392512
0.0389533
0.038636
0.0382973
0.0379413
0.0375647
0.0371753
0.0367681
0.036349
0.0359158
0.0354706
0.0350162
0.0345547
0.0340866
0.0336205
0.0331545
0.0327092
0.0322587
0.0318171
0.0313901
0.0309675
0.0305794
0.030198
0.0298287
0.0294803
0.029144
0.0288257
0.0285323
0.0282469
0.0279803
0.0277225
0.0274772
0.0272417
0.0270195
0.0268103
0.0266095
0.0264159
0.0262336
0.026068
0.0257872
0.042133
0.042133
0.042133
0.042133
0.042133
0.042133
0.042133
0.042133
0.042133
0.042133
0.042133
0.042133
0.042133
0.042133
0.042133
0.042133
0.0421331
0.0421373
0.0422017
0.0425128
0.0430454
0.0434309
0.0435282
0.0435442
0.0434901
0.0433814
0.0432718
0.0431752
0.0430867
0.0430029
0.0429243
0.0428524
0.0427874
0.0427268
0.0426693
0.0426143
0.0425618
0.0425111
0.0424621
0.0424151
0.0423706
0.0423291
0.0422907
0.0422555
0.0422233
0.0421938
0.0421672
0.042143
0.042121
0.0421004
0.0420808
0.042062
0.0420436
0.0420249
0.0420056
0.0419856
0.0419653
0.0419443
0.0419216
0.0418964
0.0418684
0.0418379
0.0418053
0.0417697
0.0417284
0.0416758
0.0416084
0.0415351
0.0414795
0.0414574
0.041461
0.0414682
0.0414367
0.0413424
0.0412038
0.0410486
0.0408827
0.0407021
0.0405035
0.0402864
0.0400509
0.0397971
0.0395242
0.0392317
0.0389188
0.0385882
0.0382385
0.0378749
0.0374922
0.0370969
0.0366832
0.0362563
0.0358171
0.0353653
0.0349049
0.0344398
0.0339736
0.0335106
0.0330601
0.0325998
0.0321595
0.0317059
0.0312783
0.0308764
0.0304794
0.0300955
0.0297188
0.0293568
0.0290282
0.0287158
0.0284238
0.0281471
0.0278846
0.0276328
0.0273969
0.0271692
0.0269486
0.0267287
0.0265171
0.0263207
0.0259808
0.042133
0.042133
0.042133
0.042133
0.042133
0.042133
0.042133
0.042133
0.042133
0.042133
0.042133
0.042133
0.042133
0.042133
0.042133
0.042133
0.0421331
0.042135
0.0421731
0.0424141
0.0429348
0.0433869
0.0435389
0.0435765
0.0435388
0.0434363
0.0433226
0.0432246
0.0431369
0.0430555
0.0429795
0.04291
0.0428468
0.0427873
0.0427302
0.0426755
0.0426232
0.0425731
0.0425251
0.0424795
0.042437
0.0423979
0.0423623
0.0423301
0.0423009
0.0422747
0.0422514
0.0422307
0.0422122
0.0421954
0.0421797
0.042165
0.0421508
0.0421369
0.0421227
0.0421081
0.0420935
0.0420788
0.0420631
0.0420454
0.0420255
0.0420035
0.0419799
0.0419541
0.041924
0.0418842
0.0418302
0.0417681
0.041721
0.0417058
0.0417244
0.0417533
0.0417505
0.041692
0.0415758
0.0414378
0.0412925
0.0411345
0.0409591
0.0407666
0.0405579
0.0403324
0.0400885
0.0398254
0.0395431
0.0392427
0.0389223
0.0385843
0.0382246
0.0378492
0.0374519
0.037041
0.036613
0.0361728
0.0357231
0.035258
0.0347911
0.0343165
0.0338614
0.0333959
0.0329379
0.0324716
0.0320191
0.0316012
0.0311855
0.0307784
0.0303807
0.0299908
0.0296315
0.0292885
0.028959
0.0286477
0.0283566
0.0280829
0.0278298
0.0275845
0.0273508
0.0271226
0.0269036
0.0267034
0.0263447
0.042133
0.042133
0.042133
0.042133
0.042133
0.042133
0.042133
0.042133
0.042133
0.042133
0.042133
0.042133
0.042133
0.042133
0.042133
0.042133
0.0421331
0.0421338
0.0421542
0.0423262
0.0428059
0.0433212
0.0435446
0.0436079
0.0435808
0.0434914
0.0433762
0.0432774
0.0431908
0.043112
0.0430385
0.042971
0.0429089
0.0428497
0.0427926
0.0427379
0.0426858
0.0426363
0.0425894
0.0425456
0.0425053
0.0424687
0.0424359
0.0424067
0.0423805
0.0423574
0.0423372
0.0423197
0.0423046
0.0422913
0.0422793
0.0422683
0.0422582
0.0422488
0.0422394
0.04223
0.0422208
0.0422121
0.042203
0.0421927
0.0421806
0.0421668
0.0421518
0.0421354
0.042116
0.0420889
0.0420486
0.0419981
0.0419583
0.0419478
0.0419798
0.0420328
0.0420526
0.0420276
0.041944
0.0418265
0.0417003
0.0415644
0.0414138
0.0412476
0.0410656
0.0408665
0.0406486
0.0404114
0.0401551
0.0398794
0.0395828
0.0392669
0.0389294
0.0385749
0.0381991
0.03781
0.0374019
0.0369813
0.036545
0.0360953
0.0356338
0.035164
0.0346933
0.0342214
0.0337434
0.0332716
0.032795
0.0323446
0.031908
0.0314775
0.031062
0.0306473
0.030254
0.0298833
0.0295214
0.0291763
0.0288493
0.0285378
0.0282487
0.0279653
0.0276994
0.0274471
0.0272115
0.0269967
0.0266176
0.042133
0.042133
0.042133
0.042133
0.042133
0.042133
0.042133
0.042133
0.042133
0.042133
0.042133
0.042133
0.042133
0.042133
0.042133
0.042133
0.042133
0.0421333
0.042143
0.0422547
0.0426675
0.0432288
0.0435384
0.0436359
0.043617
0.0435461
0.0434333
0.0433331
0.0432474
0.0431711
0.0431
0.0430339
0.0429723
0.0429128
0.0428554
0.0428007
0.042749
0.0427003
0.042655
0.0426132
0.0425752
0.0425413
0.0425114
0.0424851
0.0424619
0.0424418
0.0424245
0.0424102
0.0423983
0.0423883
0.0423798
0.0423725
0.0423663
0.0423613
0.0423566
0.0423522
0.0423484
0.0423454
0.0423427
0.0423394
0.0423348
0.0423291
0.0423224
0.0423149
0.0423054
0.0422902
0.0422633
0.0422247
0.0421919
0.0421853
0.0422284
0.0423065
0.0423478
0.0423469
0.0423
0.0422045
0.0420943
0.0419789
0.0418523
0.0417106
0.0415532
0.0413794
0.0411884
0.0409799
0.0407538
0.0405089
0.0402438
0.0399595
0.0396544
0.0393312
0.0389874
0.0386278
0.0382465
0.0378509
0.0374352
0.0370054
0.0365594
0.0360998
0.0356314
0.0351632
0.0346904
0.0342177
0.0337298
0.0332434
0.0327849
0.032326
0.031883
0.0314291
0.030991
0.0305801
0.0301834
0.0298047
0.0294487
0.0291006
0.0287761
0.0284534
0.0281389
0.0278334
0.0275462
0.0272894
0.0268323
0.042133
0.042133
0.042133
0.042133
0.042133
0.042133
0.042133
0.042133
0.042133
0.042133
0.042133
0.042133
0.042133
0.042133
0.042133
0.042133
0.042133
0.0421331
0.0421372
0.0422021
0.0425288
0.0431048
0.0435134
0.0436562
0.0436501
0.0436011
0.0434938
0.0433917
0.0433078
0.0432343
0.0431649
0.043099
0.0430367
0.0429766
0.0429188
0.0428643
0.0428134
0.0427661
0.0427226
0.042683
0.0426476
0.0426163
0.0425892
0.0425656
0.0425452
0.0425278
0.0425133
0.0425017
0.0424927
0.0424858
0.0424806
0.0424766
0.0424741
0.0424732
0.0424732
0.0424736
0.0424747
0.0424772
0.0424806
0.042484
0.0424867
0.0424887
0.0424901
0.0424912
0.0424909
0.0424868
0.0424734
0.0424474
0.042422
0.0424183
0.042469
0.0425693
0.0426397
0.0426597
0.0426412
0.0425759
0.0424856
0.0423896
0.0422856
0.0421681
0.0420359
0.0418884
0.0417253
0.0415458
0.041349
0.0411333
0.0408979
0.0406433
0.040368
0.0400737
0.0397585
0.0394245
0.0390677
0.0386947
0.0382998
0.0378897
0.0374599
0.0370161
0.0365609
0.0360958
0.0356302
0.0351528
0.0346778
0.0341846
0.0337141
0.0332513
0.0328007
0.0323443
0.0318885
0.0314561
0.0310433
0.0306473
0.0302696
0.0298941
0.0295422
0.0291919
0.02887
0.0285569
0.0282537
0.0279729
0.0274712
0.042133
0.042133
0.042133
0.042133
0.042133
0.042133
0.042133
0.042133
0.042133
0.042133
0.042133
0.042133
0.042133
0.042133
0.042133
0.042133
0.042133
0.0421331
0.0421345
0.0421678
0.0424024
0.0429536
0.0434555
0.0436636
0.0436861
0.043653
0.0435547
0.0434534
0.0433722
0.0432999
0.0432306
0.0431641
0.0431006
0.0430399
0.0429822
0.0429284
0.0428788
0.0428332
0.0427918
0.0427546
0.0427217
0.042693
0.0426684
0.0426474
0.0426295
0.0426146
0.0426027
0.0425937
0.0425874
0.0425835
0.0425815
0.042581
0.0425819
0.0425849
0.0425892
0.0425944
0.0426005
0.0426082
0.0426175
0.0426274
0.0426372
0.0426465
0.0426558
0.0426653
0.0426741
0.0426793
0.0426779
0.0426652
0.0426479
0.0426468
0.0427017
0.0428205
0.0429233
0.0429654
0.0429666
0.0429336
0.0428648
0.0427855
0.0427016
0.0426073
0.0424994
0.0423778
0.042242
0.0420908
0.0419228
0.0417368
0.0415324
0.0413094
0.0410663
0.0408036
0.0405195
0.040215
0.0398876
0.0395417
0.039173
0.0387877
0.0383812
0.0379594
0.0375185
0.0370645
0.0365993
0.0361273
0.0356439
0.035146
0.0346443
0.0341529
0.0336639
0.033193
0.032701
0.0322266
0.0317711
0.0313433
0.0309408
0.0305382
0.0301419
0.0297497
0.0293909
0.029057
0.0287447
0.0284584
0.0279261
0.042133
0.042133
0.042133
0.042133
0.042133
0.042133
0.042133
0.042133
0.042133
0.042133
0.042133
0.042133
0.042133
0.042133
0.042133
0.042133
0.042133
0.042133
0.0421335
0.0421483
0.0422986
0.0427847
0.0433599
0.0436605
0.0437177
0.0436981
0.0436174
0.0435209
0.04344
0.0433659
0.0432955
0.0432281
0.043164
0.0431034
0.0430465
0.042994
0.042946
0.0429024
0.0428631
0.0428284
0.042798
0.0427716
0.0427493
0.0427304
0.0427148
0.0427021
0.0426923
0.0426856
0.0426818
0.0426808
0.0426816
0.0426842
0.0426886
0.0426951
0.0427035
0.0427133
0.0427243
0.042737
0.0427518
0.042768
0.0427845
0.0428009
0.0428176
0.042835
0.0428531
0.0428685
0.0428765
0.0428755
0.0428682
0.0428709
0.0429272
0.0430592
0.0431951
0.0432678
0.0432861
0.043276
0.0432345
0.0431751
0.0431103
0.0430381
0.0429544
0.042858
0.0427485
0.0426241
0.0424841
0.0423274
0.0421541
0.0419631
0.0417525
0.0415228
0.0412724
0.0410017
0.0407094
0.0403983
0.0400654
0.039715
0.0393422
0.038952
0.0385393
0.0381105
0.0376648
0.0372077
0.0367402
0.03626
0.0357682
0.0352751
0.0347817
0.034299
0.0338071
0.0333081
0.032816
0.0323288
0.0318762
0.0314364
0.0310012
0.0305644
0.030135
0.029727
0.029349
0.0290034
0.0283673
0.042133
0.042133
0.042133
0.042133
0.042133
0.042133
0.042133
0.042133
0.042133
0.042133
0.042133
0.042133
0.042133
0.042133
0.042133
0.042133
0.042133
0.042133
0.0421332
0.0421388
0.0422235
0.0426116
0.0432281
0.0436369
0.043737
0.0437395
0.0436833
0.0435922
0.043506
0.0434293
0.0433587
0.0432915
0.0432276
0.0431676
0.0431117
0.0430606
0.0430145
0.0429729
0.0429358
0.0429033
0.0428751
0.0428507
0.0428303
0.0428133
0.0427996
0.0427889
0.0427812
0.0427765
0.0427752
0.0427766
0.0427805
0.0427861
0.0427937
0.0428037
0.0428162
0.0428304
0.0428462
0.0428639
0.042884
0.0429062
0.0429293
0.0429526
0.0429762
0.043001
0.0430272
0.0430527
0.0430721
0.0430807
0.0430816
0.0430893
0.0431453
0.0432848
0.0434519
0.0435602
0.0435988
0.0436034
0.0435877
0.0435495
0.0435019
0.0434497
0.0433887
0.0433164
0.043232
0.0431347
0.0430234
0.0428973
0.0427557
0.042597
0.0424198
0.0422241
0.0420085
0.0417729
0.0415161
0.041239
0.0409392
0.0406192
0.0402753
0.0399114
0.0395226
0.0391148
0.0386867
0.0382466
0.0377955
0.0373322
0.0368526
0.0363549
0.0358564
0.0353579
0.0348761
0.0343773
0.0338881
0.0333825
0.0329071
0.0324623
0.0320342
0.031607
0.0311799
0.0307608
0.0303626
0.0300025
0.0293777
0.042133
0.042133
0.042133
0.042133
0.042133
0.042133
0.042133
0.042133
0.042133
0.042133
0.042133
0.042133
0.042133
0.042133
0.042133
0.042133
0.042133
0.042133
0.0421331
0.0421349
0.0421763
0.0424535
0.0430598
0.0435774
0.0437458
0.0437854
0.0437472
0.0436597
0.0435692
0.0434914
0.0434218
0.0433554
0.0432918
0.0432327
0.043178
0.0431288
0.0430847
0.0430453
0.0430103
0.0429798
0.0429533
0.0429305
0.0429115
0.0428958
0.0428837
0.0428746
0.0428686
0.042866
0.0428667
0.0428709
0.0428771
0.0428856
0.0428964
0.0429099
0.0429262
0.0429448
0.0429651
0.0429875
0.0430128
0.0430406
0.0430699
0.0430998
0.0431302
0.0431618
0.0431954
0.0432297
0.0432598
0.0432794
0.043289
0.0433018
0.0433555
0.0434982
0.043693
0.0438398
0.0439065
0.0439247
0.043925
0.043911
0.0438833
0.0438501
0.0438102
0.0437608
0.0437007
0.043629
0.0435447
0.0434467
0.0433343
0.0432059
0.0430604
0.0428979
0.0427167
0.0425163
0.0422955
0.0420541
0.0417903
0.0415061
0.0411981
0.0408688
0.040515
0.0401419
0.0397473
0.0393367
0.0389072
0.0384605
0.0379925
0.0375057
0.0370041
0.0365005
0.0359958
0.0354913
0.0349753
0.0344409
0.0339078
0.0333969
0.032897
0.0324332
0.0319502
0.0314923
0.0310356
0.0306235
0.0298574
0.042133
0.042133
0.042133
0.042133
0.042133
0.042133
0.042133
0.042133
0.042133
0.042133
0.042133
0.042133
0.042133
0.042133
0.042133
0.042133
0.042133
0.042133
0.042133
0.0421336
0.042151
0.0423258
0.0428676
0.0434773
0.0437462
0.0438252
0.0437986
0.0437239
0.0436326
0.0435542
0.0434854
0.0434195
0.0433563
0.0432982
0.0432454
0.0431983
0.0431562
0.0431185
0.0430849
0.0430558
0.0430304
0.0430086
0.0429906
0.0429761
0.0429654
0.0429578
0.0429536
0.0429528
0.0429558
0.0429621
0.042971
0.0429824
0.0429963
0.0430131
0.0430332
0.043056
0.0430809
0.043108
0.0431381
0.0431713
0.0432066
0.0432428
0.0432797
0.0433178
0.0433582
0.0434004
0.0434403
0.0434708
0.0434893
0.043507
0.0435588
0.0437002
0.0439173
0.0441034
0.0442021
0.0442386
0.04425
0.0442521
0.0442455
0.0442305
0.0442101
0.0441818
0.044145
0.0440982
0.0440403
0.0439704
0.0438874
0.0437901
0.0436778
0.0435497
0.0434042
0.0432404
0.0430572
0.0428539
0.0426291
0.0423839
0.0421157
0.0418268
0.0415151
0.0411835
0.0408275
0.0404502
0.0400495
0.0396312
0.0391938
0.038739
0.0382653
0.0377788
0.0372871
0.0367915
0.0362887
0.0357771
0.03525
0.0347294
0.0342073
0.0337142
0.0332027
0.0327073
0.0322089
0.0317319
0.0308635
0.042133
0.042133
0.042133
0.042133
0.042133
0.042133
0.042133
0.042133
0.042133
0.042133
0.042133
0.042133
0.042133
0.042133
0.042133
0.042133
0.042133
0.042133
0.042133
0.0421332
0.0421395
0.0422361
0.0426715
0.0433355
0.043732
0.043854
0.0438415
0.0437855
0.0436983
0.043618
0.0435483
0.043483
0.0434213
0.0433652
0.0433145
0.0432693
0.0432285
0.0431916
0.0431587
0.0431302
0.0431054
0.0430844
0.0430672
0.0430538
0.0430444
0.0430383
0.0430361
0.043037
0.0430422
0.0430505
0.043062
0.0430762
0.0430931
0.0431131
0.0431367
0.0431636
0.0431929
0.0432246
0.0432593
0.0432975
0.0433382
0.0433804
0.0434234
0.0434677
0.0435144
0.0435636
0.0436123
0.0436532
0.0436812
0.0437042
0.043754
0.0438909
0.0441251
0.0443501
0.0444841
0.0445423
0.0445671
0.0445812
0.0445906
0.0445946
0.0445933
0.044585
0.0445703
0.0445466
0.0445129
0.0444688
0.0444129
0.0443444
0.0442628
0.0441668
0.0440546
0.0439257
0.0437789
0.0436132
0.0434274
0.0432218
0.0429946
0.0427466
0.0424752
0.0421809
0.0418595
0.0415143
0.0411449
0.0407574
0.0403505
0.0399241
0.0394729
0.0390017
0.0385143
0.0380196
0.0375181
0.037007
0.0364863
0.0359482
0.0354175
0.0348782
0.0343647
0.033877
0.033391
0.0329478
0.0321479
0.042133
0.042133
0.042133
0.042133
0.042133
0.042133
0.042133
0.042133
0.042133
0.042133
0.042133
0.042133
0.042133
0.042133
0.042133
0.042133
0.042133
0.042133
0.042133
0.0421331
0.0421351
0.0421817
0.042495
0.0431582
0.043683
0.043866
0.0438835
0.0438452
0.043762
0.0436791
0.0436097
0.0435466
0.0434872
0.0434329
0.0433835
0.0433389
0.0432983
0.0432616
0.043229
0.0432009
0.0431768
0.0431568
0.0431404
0.0431284
0.0431202
0.0431158
0.0431151
0.0431184
0.0431251
0.0431356
0.0431494
0.0431663
0.0431862
0.0432094
0.0432365
0.0432672
0.0433009
0.0433369
0.0433761
0.0434188
0.0434647
0.0435124
0.0435612
0.0436114
0.0436639
0.0437195
0.0437761
0.0438266
0.043864
0.0438929
0.0439412
0.0440713
0.0443168
0.0445795
0.0447509
0.0448323
0.0448704
0.0448958
0.0449185
0.044938
0.0449534
0.0449636
0.0449684
0.0449669
0.0449561
0.0449374
0.0449083
0.0448683
0.044817
0.0447524
0.0446734
0.0445794
0.044469
0.0443409
0.0441943
0.0440286
0.043842
0.0436346
0.0434038
0.0431496
0.0428701
0.0425687
0.0422442
0.0419
0.0415335
0.0411444
0.0407286
0.0402897
0.039828
0.0393528
0.0388634
0.0383637
0.0378492
0.0373203
0.0367795
0.036223
0.0356769
0.035087
0.0345301
0.0340006
0.0330806
0.042133
0.042133
0.042133
0.042133
0.042133
0.042133
0.042133
0.042133
0.042133
0.042133
0.042133
0.042133
0.042133
0.042133
0.042133
0.042133
0.042133
0.042133
0.042133
0.042133
0.0421336
0.0421533
0.0423548
0.0429602
0.0435917
0.0438656
0.0439247
0.0438964
0.0438211
0.0437389
0.0436721
0.0436114
0.0435533
0.0434992
0.0434495
0.0434048
0.0433642
0.0433278
0.0432957
0.0432683
0.0432449
0.0432258
0.0432105
0.0431998
0.0431927
0.0431901
0.0431911
0.0431963
0.0432048
0.0432173
0.0432334
0.043253
0.0432757
0.043302
0.0433323
0.0433667
0.0434044
0.0434447
0.043488
0.043535
0.0435855
0.0436383
0.0436924
0.043748
0.043806
0.0438673
0.0439308
0.0439901
0.0440366
0.0440716
0.0441193
0.0442414
0.0444931
0.0447914
0.0450025
0.0451087
0.0451604
0.0451958
0.0452296
0.0452634
0.0452945
0.0453219
0.0453447
0.0453621
0.0453731
0.0453773
0.045373
0.0453588
0.045335
0.045299
0.0452508
0.0451893
0.0451135
0.0450221
0.0449142
0.0447885
0.0446434
0.0444786
0.0442921
0.044084
0.0438535
0.0436022
0.0433264
0.043027
0.0427017
0.0423528
0.0419795
0.0415827
0.0411614
0.040721
0.0402617
0.039791
0.0393033
0.0388044
0.038288
0.0377586
0.0372171
0.0366725
0.0361076
0.0356091
0.0347334
0.042133
0.042133
0.042133
0.042133
0.042133
0.042133
0.042133
0.042133
0.042133
0.042133
0.042133
0.042133
0.042133
0.042133
0.042133
0.042133
0.042133
0.042133
0.042133
0.042133
0.0421332
0.0421407
0.0422569
0.0427613
0.043465
0.0438555
0.0439552
0.0439376
0.0438762
0.0438003
0.0437344
0.0436739
0.0436155
0.0435603
0.0435102
0.0434658
0.0434258
0.0433902
0.043359
0.0433324
0.0433099
0.0432916
0.0432774
0.0432679
0.0432622
0.0432609
0.0432642
0.0432709
0.0432813
0.0432958
0.0433142
0.0433362
0.0433618
0.043391
0.0434244
0.0434622
0.0435037
0.0435479
0.0435951
0.0436459
0.0437006
0.0437579
0.0438168
0.0438774
0.0439404
0.044007
0.0440765
0.0441436
0.0441988
0.04424
0.0442877
0.0444019
0.0446557
0.0449868
0.0452387
0.045371
0.0454357
0.0454797
0.0455228
0.045568
0.0456127
0.045655
0.0456944
0.0457299
0.0457602
0.0457846
0.0458024
0.0458127
0.0458156
0.0458075
0.04579
0.0457607
0.0457179
0.045662
0.0455907
0.0455029
0.0453974
0.0452736
0.04513
0.0449665
0.0447814
0.0445738
0.0443399
0.0440816
0.0437977
0.0434917
0.0431624
0.0428085
0.0424278
0.0420213
0.0415907
0.0411417
0.0406713
0.0401863
0.0396774
0.0391526
0.0386027
0.0380354
0.0374504
0.0368726
0.0359546
0.042133
0.042133
0.042133
0.042133
0.042133
0.042133
0.042133
0.042133
0.042133
0.042133
0.042133
0.042133
0.042133
0.042133
0.042133
0.042133
0.042133
0.042133
0.042133
0.042133
0.0421331
0.0421357
0.0421968
0.0425827
0.0433112
0.0438271
0.0439693
0.0439736
0.0439326
0.0438629
0.0437922
0.0437306
0.0436715
0.043616
0.0435669
0.0435235
0.0434847
0.04345
0.0434195
0.0433934
0.0433715
0.043354
0.043341
0.0433326
0.0433288
0.0433289
0.0433345
0.0433427
0.0433551
0.0433715
0.0433921
0.0434165
0.0434448
0.0434768
0.0435131
0.0435539
0.0435987
0.0436464
0.0436971
0.0437513
0.0438095
0.0438708
0.043934
0.043999
0.0440666
0.0441378
0.0442127
0.0442866
0.0443496
0.0443968
0.0444452
0.0445524
0.0448057
0.0451667
0.0454601
0.0456191
0.0456962
0.0457474
0.0457979
0.045853
0.0459094
0.0459651
0.0460191
0.0460706
0.0461186
0.0461622
0.0462007
0.0462327
0.0462579
0.0462752
0.046284
0.0462849
0.0462715
0.0462485
0.0462112
0.0461595
0.046093
0.0460102
0.0459098
0.045791
0.0456514
0.0454899
0.0453048
0.045098
0.0448672
0.0446142
0.0443361
0.044033
0.0437032
0.0433466
0.0429652
0.0425608
0.0421349
0.0416915
0.041224
0.040742
0.0402299
0.0397096
0.0391457
0.0385855
0.0377058
0.042133
0.042133
0.042133
0.042133
0.042133
0.042133
0.042133
0.042133
0.042133
0.042133
0.042133
0.042133
0.042133
0.042133
0.042133
0.042133
0.042133
0.042133
0.042133
0.042133
0.0421331
0.0421339
0.042164
0.0424389
0.0431433
0.0437703
0.0439713
0.0440146
0.0439866
0.0439195
0.0438437
0.0437803
0.0437221
0.0436683
0.0436209
0.0435788
0.0435407
0.0435063
0.0434761
0.0434501
0.0434289
0.0434123
0.043401
0.0433943
0.0433922
0.0433946
0.0434018
0.0434118
0.0434261
0.0434444
0.043467
0.0434938
0.0435245
0.0435591
0.0435979
0.0436413
0.0436889
0.0437398
0.0437934
0.0438506
0.0439118
0.0439765
0.0440435
0.0441126
0.0441842
0.0442597
0.0443394
0.0444192
0.0444891
0.0445419
0.0445914
0.044693
0.0449451
0.0453339
0.0456684
0.0458538
0.0459421
0.0459985
0.0460545
0.0461174
0.0461838
0.0462507
0.0463174
0.0463829
0.0464463
0.0465067
0.0465633
0.0466154
0.0466621
0.0467027
0.0467356
0.0467612
0.0467777
0.046785
0.0467821
0.046765
0.0467367
0.0466928
0.046633
0.0465562
0.0464602
0.0463446
0.0462083
0.0460512
0.0458697
0.0456652
0.0454344
0.0451796
0.0448987
0.0445919
0.0442589
0.0438988
0.0435158
0.0431084
0.0426782
0.0422252
0.0417418
0.0412399
0.0406914
0.0401261
0.0393116
0.042133
0.042133
0.042133
0.042133
0.042133
0.042133
0.042133
0.042133
0.042133
0.042133
0.042133
0.042133
0.042133
0.042133
0.042133
0.042133
0.042133
0.042133
0.042133
0.042133
0.042133
0.0421333
0.0421477
0.0423341
0.0429772
0.043691
0.0439707
0.0440533
0.044034
0.0439668
0.0438884
0.0438253
0.0437702
0.0437189
0.043673
0.0436312
0.0435927
0.0435578
0.0435274
0.0435019
0.0434818
0.043467
0.0434579
0.0434534
0.0434532
0.0434578
0.0434666
0.0434784
0.0434944
0.0435146
0.0435392
0.043568
0.0436009
0.0436378
0.0436788
0.0437244
0.0437745
0.043828
0.0438843
0.043944
0.0440077
0.0440753
0.0441457
0.0442182
0.0442936
0.0443729
0.0444567
0.0445416
0.0446173
0.0446749
0.0447257
0.0448233
0.0450756
0.0454913
0.0458655
0.0460755
0.0461731
0.0462328
0.0462924
0.0463614
0.0464359
0.0465124
0.04659
0.0466677
0.0467446
0.0468198
0.0468925
0.0469619
0.0470275
0.0470883
0.0471438
0.0471931
0.0472352
0.047269
0.0472942
0.0473093
0.0473145
0.0473059
0.0472835
0.0472463
0.047192
0.0471214
0.0470317
0.0469219
0.0467895
0.0466351
0.0464559
0.0462539
0.0460257
0.0457727
0.0454921
0.0451844
0.0448518
0.0444914
0.0441088
0.043697
0.0432605
0.0427943
0.0422973
0.0417466
0.0410243
0.042133
0.042133
0.042133
0.042133
0.042133
0.042133
0.042133
0.042133
0.042133
0.042133
0.042133
0.042133
0.042133
0.042133
0.042133
0.042133
0.042133
0.042133
0.042133
0.042133
0.042133
0.0421332
0.0421401
0.0422638
0.0428279
0.0436
0.0439706
0.0440849
0.04407
0.0440062
0.0439294
0.0438683
0.0438165
0.0437672
0.0437215
0.0436788
0.0436391
0.0436033
0.0435731
0.0435488
0.0435308
0.0435184
0.0435117
0.0435093
0.0435111
0.0435175
0.0435278
0.0435412
0.0435588
0.0435808
0.0436072
0.043638
0.0436729
0.0437118
0.0437549
0.0438024
0.0438545
0.0439103
0.0439689
0.0440307
0.0440967
0.0441667
0.0442398
0.0443155
0.0443942
0.0444769
0.0445644
0.0446536
0.0447338
0.0447951
0.0448471
0.0449428
0.0451987
0.0456425
0.046054
0.0462854
0.0463893
0.0464502
0.0465114
0.0465847
0.0466658
0.0467503
0.046837
0.046925
0.0470133
0.0471011
0.0471877
0.0472723
0.0473542
0.0474328
0.0475076
0.0475777
0.0476425
0.0477011
0.0477527
0.0477959
0.0478304
0.0478546
0.0478681
0.0478712
0.0478572
0.0478313
0.0477873
0.0477246
0.0476432
0.0475412
0.0474165
0.0472695
0.0470965
0.0468995
0.0466742
0.0464236
0.0461453
0.0458399
0.0455097
0.0451475
0.0447573
0.0443296
0.043869
0.043348
0.0426693
0.042133
0.042133
0.042133
0.042133
0.042133
0.042133
0.042133
0.042133
0.042133
0.042133
0.042133
0.042133
0.042133
0.042133
0.042133
0.042133
0.042133
0.042133
0.042133
0.042133
0.042133
0.0421331
0.0421366
0.0422198
0.0427056
0.043509
0.0439682
0.0441078
0.044096
0.0440426
0.0439689
0.0439095
0.0438599
0.0438113
0.0437644
0.0437199
0.0436789
0.0436432
0.0436143
0.0435921
0.0435765
0.0435665
0.0435617
0.0435609
0.0435642
0.0435722
0.0435836
0.0435985
0.0436176
0.0436412
0.0436695
0.0437022
0.0437391
0.0437801
0.043825
0.0438744
0.0439284
0.0439862
0.0440469
0.0441107
0.0441785
0.0442506
0.0443262
0.0444047
0.0444863
0.0445722
0.044663
0.0447556
0.0448391
0.0449027
0.0449557
0.045052
0.0453174
0.0457922
0.0462373
0.0464845
0.0465911
0.0466508
0.0467118
0.046788
0.0468741
0.0469649
0.0470591
0.0471557
0.0472537
0.0473521
0.0474503
0.0475477
0.0476436
0.0477375
0.0478288
0.0479169
0.0480011
0.0480809
0.0481554
0.048224
0.0482857
0.0483397
0.0483841
0.048419
0.0484422
0.0484538
0.0484532
0.0484311
0.0483966
0.0483412
0.0482652
0.0481681
0.0480464
0.0479015
0.0477291
0.0475323
0.0473059
0.047054
0.0467746
0.0464641
0.0461246
0.0457467
0.0453366
0.0448672
0.0442632
0.042133
0.042133
0.042133
0.042133
0.042133
0.042133
0.042133
0.042133
0.042133
0.042133
0.042133
0.042133
0.042133
0.042133
0.042133
0.042133
0.042133
0.042133
0.042133
0.042133
0.042133
0.0421331
0.0421352
0.0421937
0.0426139
0.0434291
0.0439617
0.0441242
0.0441187
0.044077
0.0440058
0.0439471
0.0438984
0.0438488
0.0437999
0.0437541
0.0437134
0.0436792
0.0436526
0.0436327
0.0436188
0.0436104
0.0436067
0.0436068
0.0436107
0.0436198
0.043632
0.0436482
0.0436688
0.0436942
0.0437245
0.0437593
0.0437983
0.0438413
0.0438883
0.0439395
0.0439953
0.0440551
0.0441177
0.0441834
0.044253
0.044327
0.0444048
0.0444858
0.0445701
0.0446589
0.0447526
0.0448476
0.0449329
0.0449974
0.0450512
0.0451514
0.0454351
0.0459455
0.0464183
0.0466736
0.0467782
0.0468342
0.0468935
0.0469712
0.0470611
0.047157
0.0472572
0.0473609
0.0474667
0.0475739
0.0476818
0.0477898
0.0478973
0.0480038
0.0481089
0.0482121
0.0483128
0.0484106
0.0485046
0.0485944
0.0486792
0.0487582
0.0488304
0.0488947
0.0489503
0.0489953
0.0490304
0.0490523
0.0490619
0.0490554
0.0490303
0.0489881
0.0489236
0.0488379
0.0487268
0.0485916
0.048426
0.0482359
0.0480139
0.0477613
0.0474727
0.0471405
0.0467709
0.0463404
0.0457841
0.042133
0.042133
0.042133
0.042133
0.042133
0.042133
0.042133
0.042133
0.042133
0.042133
0.042133
0.042133
0.042133
0.042133
0.042133
0.042133
0.042133
0.042133
0.042133
0.042133
0.042133
0.0421331
0.0421345
0.0421795
0.0425523
0.0433684
0.0439555
0.0441372
0.044142
0.0441077
0.0440386
0.0439797
0.0439302
0.0438785
0.0438274
0.043782
0.0437439
0.0437128
0.0436886
0.0436703
0.0436573
0.0436494
0.0436455
0.0436456
0.0436495
0.043659
0.0436718
0.0436893
0.0437117
0.0437391
0.0437716
0.0438086
0.0438498
0.043895
0.0439441
0.0439973
0.044055
0.0441167
0.0441813
0.0442488
0.0443201
0.0443959
0.0444756
0.0445589
0.0446459
0.0447373
0.0448335
0.04493
0.0450153
0.0450792
0.045134
0.0452435
0.0455575
0.0461082
0.0465997
0.0468531
0.0469504
0.0470004
0.0470567
0.0471351
0.047228
0.0473277
0.0474327
0.047542
0.0476542
0.0477685
0.0478842
0.0480007
0.0481176
0.0482344
0.0483508
0.0484662
0.0485804
0.0486929
0.0488031
0.0489105
0.0490146
0.0491146
0.0492099
0.0492997
0.0493832
0.0494596
0.0495279
0.0495862
0.0496334
0.0496683
0.0496892
0.0496961
0.0496823
0.0496496
0.0495944
0.0495145
0.0494074
0.0492755
0.0491111
0.0489195
0.0486877
0.0484135
0.048094
0.0477149
0.0472206
0.042133
0.042133
0.042133
0.042133
0.042133
0.042133
0.042133
0.042133
0.042133
0.042133
0.042133
0.042133
0.042133
0.042133
0.042133
0.042133
0.042133
0.042133
0.042133
0.042133
0.042133
0.0421331
0.0421342
0.0421735
0.0425196
0.0433343
0.0439558
0.0441504
0.0441646
0.0441342
0.0440664
0.0440064
0.0439551
0.0439011
0.0438484
0.0438052
0.0437713
0.0437436
0.0437213
0.0437039
0.0436912
0.0436827
0.0436777
0.0436769
0.0436809
0.0436901
0.0437037
0.0437227
0.0437469
0.0437766
0.0438113
0.0438505
0.0438939
0.0439413
0.0439925
0.0440478
0.0441075
0.0441712
0.0442378
0.044307
0.04438
0.0444574
0.0445391
0.0446246
0.044714
0.044808
0.044906
0.0450028
0.0450862
0.0451483
0.0452054
0.0453325
0.0456926
0.0462865
0.0467832
0.0470225
0.047107
0.0471489
0.0472017
0.0472806