/*--------------------------------*- C++ -*----------------------------------*\
| =========                 |                                                 |
| \\      /  F ield         | OpenFOAM: The Open Source CFD Toolbox           |
|  \\    /   O peration     | Version:  2412                                  |
|   \\  /    A nd           | Website:  www.openfoam.com                      |
|    \\/     M anipulation  |                                                 |
\*---------------------------------------------------------------------------*/
FoamFile
{
    version     2.0;
    format      ascii;
    arch        "LSB;label=32;scalar=64";
    class       volScalarField;
    location    "0.074";
    object      p;
}
// * * * * * * * * * * * * * * * * * * * * * * * * * * * * * * * * * * * * * //

dimensions      [1 -1 -2 0 0 0 0];

internalField   nonuniform List<scalar> 
9816
(
2971.3
2971.82
2972.22
2972.5
2972.66
2972.72
2972.66
2972.5
2972.26
2971.94
2971.53
2971.05
2970.49
2969.87
2969.19
2968.45
2967.61
2966.85
2965.99
2965.13
2964.25
2963.32
2962.36
2961.36
2960.33
2959.25
2958.14
2956.98
2955.87
2954.69
2953.65
2952.55
2951.51
2950.48
2949.44
2948.51
2947.43
2946.54
2945.3
2944.56
2943.17
2942.86
2904.71
2903.91
2903.08
2902.21
2901.32
2900.41
2899.48
2898.53
2897.6
2896.65
2895.71
2894.79
2893.86
2892.94
2891.99
2891.19
2890.32
2889.49
2888.67
2887.87
2887.1
2886.36
2885.64
2884.99
2884.36
2883.85
2883.28
2882.91
2882.45
2882.08
2881.6
2881.09
2880.6
2880.03
2879.64
2879.06
2878.84
2878.33
2878.32
2877.93
2877.78
2876.96
2873.1
2872.46
2871.83
2871.21
2870.6
2870.01
2869.42
2868.86
2868.32
2867.78
2867.26
2866.78
2866.3
2865.84
2865.4
2864.96
2864.55
2864.14
2863.75
2863.36
2862.98
2862.64
2862.32
2861.96
2861.68
2861.36
2861.11
2860.76
2860.46
2860.12
2859.87
2859.55
2859.17
2859.16
2859.36
2858.3
2857.74
2858.79
2859.23
2858.83
2857.78
2857.37
2855.21
2854.8
2854.39
2853.99
2853.6
2853.21
2852.82
2852.44
2852.08
2851.72
2851.37
2851.02
2850.68
2850.34
2850.02
2849.71
2849.4
2849.11
2848.81
2848.57
2848.29
2848.09
2847.86
2847.73
2847.49
2847.34
2847.08
2846.94
2846.74
2846.56
2846.36
2846.52
2846.24
2845.42
2845.94
2846.68
2846.2
2845.11
2844.84
2844.86
2845
2845.36
2842.3
2841.94
2841.58
2841.24
2840.9
2840.57
2840.25
2839.94
2839.65
2839.37
2839.1
2838.83
2838.58
2838.34
2838.13
2837.91
2837.74
2837.56
2837.41
2837.25
2837.15
2836.98
2836.86
2836.66
2836.54
2836.37
2836.26
2836.13
2836.1
2835.77
2835.66
2836.31
2835.98
2834.58
2834.89
2835.78
2836.22
2836.1
2835.49
2834.93
2834.66
2834.58
2832.36
2832.16
2831.96
2831.78
2831.6
2831.44
2831.27
2831.12
2830.97
2830.82
2830.68
2830.53
2830.4
2830.26
2830.14
2830
2829.89
2829.75
2829.65
2829.49
2829.41
2829.24
2829.17
2829.01
2828.95
2828.8
2828.75
2828.62
2828.43
2828.65
2828.79
2827.75
2827.59
2828.64
2829.1
2828.7
2827.78
2827.43
2827.36
2827.49
2827.87
2828.26
2825.15
2824.98
2824.82
2824.67
2824.5
2824.34
2824.18
2824.02
2823.87
2823.71
2823.57
2823.43
2823.28
2823.15
2823.02
2822.9
2822.78
2822.66
2822.57
2822.44
2822.37
2822.26
2822.22
2822.11
2822.09
2821.99
2822.03
2821.84
2821.77
2822.17
2822.05
2820.88
2821.16
2822.28
2822.59
2822.12
2821.17
2820.77
2820.75
2820.96
2821.39
2821.86
2818.19
2818.05
2817.92
2817.79
2817.67
2817.54
2817.42
2817.3
2817.2
2817.09
2816.98
2816.88
2816.8
2816.71
2816.61
2816.52
2816.44
2816.41
2816.28
2816.26
2816.17
2816.14
2816.04
2816.04
2815.94
2815.95
2815.89
2815.77
2815.92
2816.12
2815.36
2815.08
2816.08
2816.61
2816.1
2815.23
2814.93
2814.95
2815.25
2815.73
2816.06
2816.14
2812.53
2812.45
2812.36
2812.27
2812.19
2812.1
2812.02
2811.94
2811.87
2811.79
2811.72
2811.65
2811.57
2811.5
2811.46
2811.39
2811.33
2811.28
2811.25
2811.17
2811.15
2811.08
2811.05
2810.99
2810.97
2810.91
2810.85
2810.83
2811.04
2810.71
2810.2
2810.86
2811.53
2811.03
2810.14
2809.98
2810.07
2810.46
2810.92
2811.14
2811.08
2810.79
2807.63
2807.55
2807.47
2807.4
2807.33
2807.26
2807.19
2807.13
2807.07
2807.04
2806.99
2806.91
2806.82
2806.82
2806.82
2806.68
2806.65
2806.69
2806.54
2806.55
2806.53
2806.46
2806.46
2806.41
2806.39
2806.37
2806.28
2806.24
2806.52
2806.34
2805.59
2805.96
2806.84
2806.84
2806.2
2805.61
2805.51
2805.64
2805.99
2806.36
2806.54
2806.5
2803.04
2802.98
2802.93
2802.87
2802.82
2802.79
2802.74
2802.7
2802.62
2802.57
2802.56
2802.59
2802.53
2802.36
2802.45
2802.49
2802.27
2802.36
2802.33
2802.22
2802.25
2802.2
2802.16
2802.15
2802.12
2802.1
2801.96
2802.1
2802.36
2801.74
2801.25
2801.98
2802.69
2802.55
2801.91
2801.36
2801.23
2801.34
2801.67
2802.06
2802.31
2802.33
2798.8
2798.76
2798.72
2798.67
2798.63
2798.61
2798.58
2798.55
2798.52
2798.49
2798.48
2798.48
2798.43
2798.41
2798.39
2798.35
2798.36
2798.32
2798.31
2798.29
2798.27
2798.25
2798.24
2798.22
2798.17
2798.15
2798.27
2798.15
2797.76
2798.11
2798.66
2798.32
2797.71
2797.61
2797.64
2797.95
2798.26
2798.39
2798.33
2798.14
2797.92
2797.7
2795.24
2795.2
2795.17
2795.12
2795.08
2795.03
2794.99
2794.94
2794.88
2794.84
2794.8
2794.75
2794.68
2794.67
2794.63
2794.59
2794.57
2794.55
2794.5
2794.51
2794.46
2794.45
2794.42
2794.4
2794.29
2794.39
2794.64
2794.13
2793.63
2794.38
2795.05
2794.74
2794.06
2793.74
2793.6
2793.8
2794.22
2794.59
2794.7
2794.61
2794.39
2794.08
2791.49
2791.45
2791.41
2791.38
2791.35
2791.32
2791.3
2791.28
2791.26
2791.23
2791.23
2791.23
2791.2
2791.2
2791.19
2791.17
2791.16
2791.16
2791.12
2791.13
2791.1
2791.11
2791.06
2791.01
2791.1
2791.19
2790.73
2790.67
2791.5
2791.59
2790.79
2790.42
2790.38
2790.65
2791.14
2791.44
2791.44
2791.24
2790.94
2790.67
2790.44
2790.33
2788.47
2788.43
2788.39
2788.36
2788.33
2788.3
2788.26
2788.24
2788.22
2788.19
2788.17
2788.16
2788.14
2788.12
2788.12
2788.1
2788.09
2788.08
2788.07
2788.06
2788.04
2788.03
2788.03
2788.05
2787.93
2787.89
2788.25
2788.17
2787.46
2787.54
2788.13
2788.52
2788.36
2787.97
2787.69
2787.5
2787.51
2787.67
2787.92
2788.14
2788.27
2788.25
2785.72
2785.68
2785.64
2785.61
2785.57
2785.54
2785.5
2785.48
2785.46
2785.43
2785.42
2785.39
2785.38
2785.35
2785.34
2785.32
2785.31
2785.29
2785.28
2785.26
2785.26
2785.23
2785.22
2785.29
2785.22
2784.91
2785.26
2785.81
2785.23
2784.52
2784.66
2785.08
2785.57
2785.71
2785.56
2785.23
2784.93
2784.76
2784.7
2784.79
2785.01
2785.28
2783.55
2783.5
2783.46
2783.42
2783.38
2783.34
2783.31
2783.29
2783.28
2783.23
2783.24
2783.19
2783.18
2783.14
2783.15
2783.08
2783.11
2783.04
2783.05
2783.01
2783
2782.92
2782.99
2783.08
2782.67
2782.56
2783.39
2783.51
2782.55
2782.18
2782.28
2782.71
2783.2
2783.4
2783.28
2782.98
2782.63
2782.37
2782.2
2782.19
2782.35
2782.63
2781.74
2781.71
2781.69
2781.66
2781.59
2781.57
2781.62
2781.56
2781.5
2781.55
2781.48
2781.44
2781.48
2781.4
2781.43
2781.38
2781.38
2781.36
2781.35
2781.3
2781.26
2781.36
2781.39
2780.89
2780.96
2781.86
2781.76
2780.79
2780.54
2780.6
2781.03
2781.48
2781.67
2781.59
2781.29
2780.96
2780.68
2780.51
2780.48
2780.62
2780.88
2781.2
2780.31
2780.27
2780.26
2780.26
2780.2
2780.13
2780.16
2780.1
2780.01
2780.05
2779.99
2779.96
2779.96
2779.92
2779.91
2779.89
2779.86
2779.85
2779.78
2779.74
2779.95
2779.88
2779.11
2779.39
2780.47
2780.39
2779.49
2778.96
2778.86
2779.12
2779.6
2780
2780.07
2779.95
2779.67
2779.33
2779.04
2778.84
2778.79
2778.89
2779.12
2779.43
2779.13
2779.05
2778.99
2778.94
2778.87
2778.82
2778.77
2778.76
2778.67
2778.71
2778.61
2778.65
2778.56
2778.6
2778.52
2778.55
2778.46
2778.43
2778.57
2778.54
2777.87
2778.1
2779.17
2778.95
2777.87
2777.54
2777.57
2777.95
2778.44
2778.72
2778.7
2778.48
2778.14
2777.82
2777.57
2777.45
2777.48
2777.65
2777.91
2778.2
2778.45
2778.61
2778.23
2778.16
2778.11
2778.05
2778
2777.94
2777.91
2777.84
2777.81
2777.76
2777.73
2777.68
2777.65
2777.61
2777.56
2777.5
2777.52
2777.54
2777.2
2777.19
2777.84
2777.67
2776.69
2776.65
2776.89
2777.32
2777.56
2777.5
2777.27
2776.97
2776.76
2776.62
2776.59
2776.68
2776.86
2777.05
2777.21
2777.3
2777.3
2777.23
2777.1
2776.93
2777.75
2777.68
2777.62
2777.55
2777.49
2777.43
2777.38
2777.32
2777.28
2777.23
2777.2
2777.14
2777.11
2777.05
2776.99
2777
2777.09
2776.7
2776.44
2777.24
2777.47
2776.51
2776.01
2776.13
2776.54
2776.94
2777.12
2777.04
2776.74
2776.45
2776.17
2776.04
2776.04
2776.2
2776.42
2776.67
2776.85
2776.95
2776.94
2776.84
2776.68
2776.47
2777.6
2777.52
2777.45
2777.37
2777.3
2777.23
2777.18
2777.11
2777.08
2777
2776.98
2776.91
2776.86
2776.79
2776.81
2776.81
2776.48
2776.51
2777
2776.83
2776.04
2776.08
2776.28
2776.57
2776.74
2776.68
2776.49
2776.29
2776.05
2775.96
2775.95
2776.06
2776.2
2776.36
2776.48
2776.53
2776.51
2776.42
2776.29
2776.14
2775.99
2775.86
2777.72
2777.61
2777.55
2777.44
2777.41
2777.3
2777.3
2777.18
2777.2
2777.08
2777.1
2776.98
2776.99
2776.92
2776.93
2776.77
2776.7
2776.82
2776.86
2776.5
2776.28
2776.42
2776.55
2776.62
2776.62
2776.51
2776.37
2776.24
2776.19
2776.19
2776.26
2776.33
2776.4
2776.43
2776.42
2776.37
2776.29
2776.2
2776.11
2776.03
2775.98
2775.95
2777.99
2777.88
2777.84
2777.75
2777.73
2777.64
2777.65
2777.53
2777.57
2777.42
2777.47
2777.31
2777.34
2777.27
2777.16
2776.98
2777.09
2777.07
2776.68
2776.74
2776.75
2776.79
2776.81
2776.82
2776.71
2776.65
2776.56
2776.55
2776.55
2776.58
2776.61
2776.62
2776.6
2776.56
2776.51
2776.45
2776.4
2776.35
2776.32
2776.3
2776.3
2776.31
2778.35
2778.28
2778.25
2778.19
2778.17
2778.07
2778.1
2777.93
2778.02
2777.8
2777.94
2777.69
2777.75
2777.46
2777.29
2777.3
2777.56
2777.5
2777.28
2777.2
2777.08
2777.08
2777.08
2777.14
2777.17
2777.19
2777.16
2777.1
2777.03
2776.95
2776.88
2776.81
2776.77
2776.74
2776.74
2776.75
2776.77
2776.81
2776.85
2776.89
2776.92
2776.95
2778.81
2778.77
2778.72
2778.68
2778.67
2778.57
2778.52
2778.41
2778.55
2778.06
2778.16
2778.64
2778.5
2777.67
2777.53
2777.59
2777.65
2777.92
2778.03
2778.13
2778
2777.83
2777.57
2777.39
2777.25
2777.23
2777.27
2777.38
2777.5
2777.63
2777.73
2777.79
2777.82
2777.79
2777.74
2777.65
2777.55
2777.44
2777.34
2777.24
2777.15
2777.07
2779.36
2779.3
2779.25
2779.23
2779.29
2779.09
2778.78
2778.99
2779.55
2778.54
2777.85
2778.41
2778.72
2778.99
2778.92
2778.75
2778.39
2778.19
2777.98
2778
2778.05
2778.21
2778.35
2778.48
2778.56
2778.57
2778.51
2778.4
2778.26
2778.11
2777.97
2777.85
2777.76
2777.69
2777.65
2777.63
2777.64
2777.68
2777.72
2777.78
2777.85
2777.93
2779.96
2779.82
2779.83
2779.61
2780.06
2780.12
2778.83
2778.73
2779.91
2780.09
2779.66
2779.08
2778.73
2778.71
2778.75
2779.02
2779.2
2779.4
2779.41
2779.35
2779.16
2778.97
2778.76
2778.63
2778.53
2778.51
2778.52
2778.58
2778.66
2778.75
2778.84
2778.93
2779
2779.06
2779.09
2779.1
2779.09
2779.06
2779.03
2778.98
2778.92
2778.86
2780.56
2780.49
2780.58
2780.28
2779.77
2780.78
2781.17
2780.13
2779.39
2779.45
2779.7
2779.84
2780.17
2780.29
2780.31
2780.14
2779.9
2779.64
2779.45
2779.35
2779.33
2779.41
2779.53
2779.7
2779.86
2780
2780.09
2780.13
2780.1
2780.04
2779.94
2779.82
2779.69
2779.56
2779.44
2779.33
2779.24
2779.16
2779.1
2779.06
2779.04
2779.03
2781.45
2781.1
2781.12
2781.75
2781
2780.21
2780.84
2781.16
2781.3
2781.21
2781.04
2780.68
2780.62
2780.52
2780.6
2780.66
2780.75
2780.81
2780.86
2780.85
2780.82
2780.75
2780.68
2780.61
2780.56
2780.52
2780.5
2780.48
2780.48
2780.48
2780.49
2780.49
2780.5
2780.51
2780.52
2780.53
2780.54
2780.55
2780.56
2780.57
2780.57
2780.58
2781.99
2781.75
2783.09
2782.67
2780.79
2781.09
2781.73
2782.42
2782.69
2782.51
2782.1
2781.59
2781.18
2781.06
2781.18
2781.48
2781.86
2782.21
2782.43
2782.47
2782.34
2782.1
2781.8
2781.51
2781.25
2781.06
2780.94
2780.89
2780.92
2781
2781.13
2781.29
2781.46
2781.64
2781.82
2781.98
2782.11
2782.23
2782.31
2782.36
2782.39
2782.39
2783.23
2783.84
2782.96
2782.06
2782.83
2783.46
2783.69
2783.54
2783.16
2782.69
2782.49
2782.42
2782.56
2782.82
2783.12
2783.35
2783.45
2783.39
2783.21
2782.96
2782.71
2782.49
2782.33
2782.24
2782.23
2782.29
2782.41
2782.56
2782.72
2782.9
2783.06
2783.2
2783.31
2783.39
2783.44
2783.45
2783.44
2783.4
2783.34
2783.27
2783.18
2783.09
2784.14
2785.51
2784.46
2783.22
2783.71
2784.11
2784.6
2784.75
2784.68
2784.35
2784
2783.75
2783.68
2783.77
2783.98
2784.21
2784.42
2784.53
2784.55
2784.48
2784.35
2784.19
2784.03
2783.89
2783.79
2783.73
2783.71
2783.72
2783.77
2783.83
2783.91
2783.99
2784.07
2784.15
2784.21
2784.27
2784.31
2784.35
2784.37
2784.39
2784.39
2784.39
2786.38
2785.46
2784.63
2785.27
2785.69
2785.98
2785.96
2785.78
2785.37
2785.19
2785.04
2785.14
2785.31
2785.54
2785.73
2785.85
2785.85
2785.77
2785.62
2785.46
2785.3
2785.18
2785.1
2785.07
2785.08
2785.13
2785.2
2785.3
2785.39
2785.49
2785.58
2785.66
2785.72
2785.77
2785.79
2785.81
2785.81
2785.8
2785.77
2785.74
2785.71
2785.67
2787.04
2787.6
2786.94
2786.34
2786.56
2786.65
2786.91
2787.03
2787.16
2787.09
2787.02
2786.84
2786.75
2786.67
2786.69
2786.73
2786.8
2786.87
2786.94
2786.99
2787.02
2787.03
2787.02
2787
2786.97
2786.94
2786.9
2786.87
2786.84
2786.82
2786.81
2786.8
2786.8
2786.8
2786.8
2786.8
2786.81
2786.82
2786.83
2786.84
2786.85
2786.86
2789.26
2788.87
2787.75
2787.62
2787.92
2788.17
2788.6
2788.84
2788.88
2788.64
2788.36
2788.04
2787.9
2787.86
2787.99
2788.18
2788.42
2788.64
2788.8
2788.88
2788.89
2788.82
2788.7
2788.55
2788.41
2788.26
2788.15
2788.05
2787.99
2787.96
2787.95
2787.97
2788.01
2788.07
2788.13
2788.2
2788.28
2788.36
2788.43
2788.51
2788.58
2788.64
2790.22
2789.09
2789.09
2789.47
2789.94
2790.27
2790.35
2790.18
2789.84
2789.55
2789.36
2789.35
2789.5
2789.74
2790.02
2790.25
2790.4
2790.43
2790.37
2790.23
2790.06
2789.87
2789.7
2789.56
2789.47
2789.42
2789.41
2789.44
2789.5
2789.59
2789.69
2789.81
2789.93
2790.04
2790.15
2790.24
2790.33
2790.4
2790.45
2790.49
2790.52
2790.54
2790.33
2790.64
2791.14
2791.7
2791.85
2791.68
2791.27
2791.01
2790.74
2790.82
2790.98
2791.3
2791.6
2791.84
2791.94
2791.89
2791.73
2791.52
2791.29
2791.1
2790.96
2790.87
2790.86
2790.9
2791
2791.12
2791.28
2791.43
2791.59
2791.73
2791.85
2791.95
2792.02
2792.07
2792.09
2792.09
2792.07
2792.03
2791.99
2791.93
2791.87
2791.8
2792.22
2792.84
2793.19
2793
2792.58
2792.31
2792.17
2792.24
2792.47
2792.77
2793.04
2793.2
2793.22
2793.1
2792.9
2792.69
2792.49
2792.37
2792.31
2792.34
2792.42
2792.55
2792.72
2792.89
2793.06
2793.2
2793.32
2793.4
2793.44
2793.45
2793.43
2793.39
2793.33
2793.25
2793.17
2793.08
2793
2792.91
2792.83
2792.76
2792.69
2792.63
2794.43
2794.32
2793.74
2793.43
2793.46
2793.45
2793.85
2794.12
2794.42
2794.5
2794.45
2794.23
2793.99
2793.76
2793.63
2793.59
2793.66
2793.8
2793.99
2794.21
2794.41
2794.58
2794.7
2794.77
2794.78
2794.75
2794.68
2794.59
2794.48
2794.36
2794.24
2794.13
2794.03
2793.94
2793.87
2793.81
2793.77
2793.74
2793.73
2793.73
2793.74
2793.76
2795.23
2794.47
2794.49
2794.61
2794.85
2795.23
2795.5
2795.61
2795.55
2795.33
2795.1
2794.9
2794.82
2794.84
2794.98
2795.17
2795.4
2795.6
2795.77
2795.87
2795.9
2795.87
2795.8
2795.7
2795.58
2795.45
2795.34
2795.23
2795.15
2795.09
2795.05
2795.03
2795.03
2795.05
2795.09
2795.14
2795.19
2795.26
2795.33
2795.4
2795.47
2795.55
2796.05
2795.97
2795.88
2795.98
2795.95
2796.19
2796.24
2796.38
2796.38
2796.38
2796.34
2796.33
2796.32
2796.35
2796.38
2796.43
2796.48
2796.52
2796.55
2796.57
2796.58
2796.58
2796.58
2796.57
2796.57
2796.57
2796.57
2796.58
2796.59
2796.6
2796.62
2796.64
2796.66
2796.68
2796.7
2796.72
2796.74
2796.76
2796.78
2796.8
2796.81
2796.83
2796.97
2796.85
2796.67
2796.84
2796.92
2797.16
2797.3
2797.43
2797.46
2797.44
2797.37
2797.31
2797.25
2797.24
2797.24
2797.28
2797.34
2797.42
2797.5
2797.58
2797.65
2797.7
2797.74
2797.77
2797.79
2797.79
2797.79
2797.77
2797.76
2797.74
2797.72
2797.7
2797.68
2797.67
2797.65
2797.64
2797.63
2797.62
2797.62
2797.62
2797.62
2797.62
2797.42
2797.49
2797.56
2797.68
2798.04
2798.18
2798.33
2798.32
2798.24
2798.14
2798.05
2798.02
2798.04
2798.12
2798.22
2798.34
2798.45
2798.55
2798.62
2798.67
2798.7
2798.7
2798.69
2798.67
2798.64
2798.61
2798.58
2798.56
2798.54
2798.52
2798.52
2798.51
2798.51
2798.52
2798.53
2798.54
2798.56
2798.57
2798.59
2798.61
2798.63
2798.66
2798.32
2798.4
2798.85
2798.85
2799.03
2798.96
2798.9
2798.81
2798.8
2798.83
2798.93
2799.06
2799.21
2799.34
2799.43
2799.48
2799.49
2799.47
2799.43
2799.39
2799.34
2799.3
2799.28
2799.27
2799.28
2799.3
2799.33
2799.37
2799.42
2799.47
2799.52
2799.57
2799.62
2799.67
2799.71
2799.75
2799.78
2799.81
2799.83
2799.85
2799.86
2799.88
2799.21
2799.3
2799.78
2799.75
2799.73
2799.56
2799.44
2799.38
2799.46
2799.61
2799.83
2800.05
2800.23
2800.34
2800.37
2800.34
2800.26
2800.16
2800.05
2799.97
2799.9
2799.87
2799.87
2799.9
2799.96
2800.04
2800.12
2800.22
2800.32
2800.42
2800.51
2800.6
2800.67
2800.74
2800.79
2800.83
2800.86
2800.87
2800.88
2800.89
2800.88
2800.87
2799.97
2800.1
2800.48
2800.43
2800.32
2800.14
2800.04
2800.01
2800.15
2800.34
2800.59
2800.82
2801
2801.09
2801.1
2801.04
2800.93
2800.81
2800.69
2800.6
2800.54
2800.51
2800.53
2800.58
2800.65
2800.75
2800.86
2800.98
2801.09
2801.21
2801.31
2801.41
2801.49
2801.55
2801.61
2801.65
2801.67
2801.69
2801.69
2801.69
2801.68
2801.66
2800.64
2800.86
2801.01
2800.91
2800.79
2800.64
2800.63
2800.67
2800.85
2801.06
2801.3
2801.49
2801.62
2801.66
2801.64
2801.56
2801.46
2801.35
2801.26
2801.2
2801.17
2801.18
2801.22
2801.28
2801.37
2801.48
2801.59
2801.71
2801.82
2801.92
2802.01
2802.09
2802.16
2802.21
2802.25
2802.27
2802.28
2802.29
2802.28
2802.27
2802.25
2802.22
2801.34
2801.44
2801.32
2801.13
2801.09
2801.06
2801.22
2801.4
2801.64
2801.84
2801.99
2802.06
2802.06
2802.01
2801.94
2801.85
2801.78
2801.74
2801.72
2801.74
2801.78
2801.86
2801.95
2802.05
2802.16
2802.27
2802.37
2802.46
2802.54
2802.6
2802.65
2802.69
2802.71
2802.72
2802.72
2802.71
2802.7
2802.68
2802.65
2802.63
2802.6
2802.57
2801.63
2801.49
2801.47
2801.44
2801.56
2801.75
2801.95
2802.13
2802.25
2802.3
2802.31
2802.28
2802.24
2802.2
2802.19
2802.2
2802.23
2802.28
2802.35
2802.43
2802.51
2802.6
2802.68
2802.75
2802.82
2802.87
2802.91
2802.94
2802.96
2802.97
2802.98
2802.98
2802.97
2802.96
2802.94
2802.93
2802.91
2802.9
2802.88
2802.87
2802.85
2802.84
2801.63
2801.7
2801.78
2802.06
2802.2
2802.4
2802.48
2802.5
2802.46
2802.41
2802.38
2802.39
2802.44
2802.53
2802.65
2802.77
2802.89
2802.99
2803.07
2803.12
2803.15
2803.16
2803.16
2803.15
2803.13
2803.11
2803.09
2803.07
2803.06
2803.05
2803.04
2803.05
2803.05
2803.06
2803.08
2803.1
2803.12
2803.14
2803.16
2803.19
2803.21
2803.24
2801.83
2802.13
2802.23
2802.5
2802.57
2802.65
2802.62
2802.61
2802.57
2802.58
2802.62
2802.71
2802.83
2802.98
2803.12
2803.24
2803.33
2803.4
2803.43
2803.43
2803.41
2803.38
2803.35
2803.31
2803.27
2803.24
2803.22
2803.22
2803.22
2803.23
2803.25
2803.28
2803.31
2803.35
2803.39
2803.44
2803.48
2803.53
2803.58
2803.62
2803.66
2803.71
2802.26
2802.51
2802.65
2802.74
2802.72
2802.71
2802.68
2802.7
2802.74
2802.84
2802.95
2803.1
2803.23
2803.36
2803.45
2803.52
2803.56
2803.57
2803.56
2803.54
2803.52
2803.49
2803.47
2803.45
2803.44
2803.45
2803.46
2803.48
2803.5
2803.54
2803.58
2803.62
2803.67
2803.72
2803.77
2803.82
2803.87
2803.91
2803.95
2803.99
2804.03
2804.07
2802.53
2802.68
2802.92
2802.93
2802.89
2802.82
2802.77
2802.8
2802.88
2803.03
2803.2
2803.38
2803.53
2803.65
2803.71
2803.75
2803.75
2803.73
2803.7
2803.66
2803.63
2803.61
2803.6
2803.6
2803.61
2803.63
2803.67
2803.7
2803.75
2803.8
2803.85
2803.9
2803.96
2804.01
2804.06
2804.11
2804.15
2804.19
2804.23
2804.26
2804.3
2804.33
2802.69
2802.77
2802.97
2802.97
2803
2802.98
2803
2803.04
2803.14
2803.27
2803.41
2803.55
2803.67
2803.77
2803.82
2803.85
2803.86
2803.86
2803.84
2803.82
2803.81
2803.8
2803.81
2803.82
2803.84
2803.87
2803.9
2803.95
2803.99
2804.04
2804.09
2804.14
2804.19
2804.24
2804.29
2804.33
2804.37
2804.41
2804.44
2804.48
2804.5
2804.53
2802.79
2802.86
2803.01
2803.05
2803.12
2803.14
2803.21
2803.27
2803.36
2803.46
2803.57
2803.67
2803.75
2803.82
2803.88
2803.92
2803.95
2803.96
2803.98
2803.99
2804
2804.01
2804.03
2804.05
2804.08
2804.11
2804.15
2804.18
2804.22
2804.26
2804.31
2804.35
2804.39
2804.42
2804.46
2804.49
2804.53
2804.55
2804.58
2804.61
2804.63
2804.65
2802.86
2802.97
2803.07
2803.14
2803.23
2803.3
2803.38
2803.46
2803.55
2803.62
2803.71
2803.77
2803.84
2803.9
2803.95
2803.99
2804.03
2804.07
2804.1
2804.13
2804.16
2804.19
2804.22
2804.26
2804.29
2804.32
2804.36
2804.39
2804.42
2804.45
2804.48
2804.51
2804.54
2804.57
2804.6
2804.62
2804.64
2804.66
2804.68
2804.7
2804.72
2804.73
2802.88
2803.05
2803.11
2803.23
2803.31
2803.4
2803.49
2803.57
2803.65
2803.72
2803.8
2803.86
2803.92
2803.97
2804.03
2804.07
2804.12
2804.16
2804.21
2804.25
2804.29
2804.32
2804.36
2804.4
2804.43
2804.47
2804.5
2804.53
2804.56
2804.59
2804.61
2804.64
2804.66
2804.69
2804.71
2804.73
2804.75
2804.76
2804.78
2804.8
2804.81
2804.83
2802.92
2803.07
2803.15
2803.27
2803.36
2803.46
2803.54
2803.62
2803.69
2803.77
2803.84
2803.9
2803.96
2804.02
2804.07
2804.12
2804.17
2804.22
2804.27
2804.31
2804.35
2804.39
2804.43
2804.46
2804.5
2804.53
2804.56
2804.59
2804.62
2804.65
2804.67
2804.7
2804.72
2804.74
2804.76
2804.78
2804.8
2804.82
2804.83
2804.85
2804.86
2804.88
2802.93
2803.04
2803.16
2803.26
2803.36
2803.45
2803.54
2803.62
2803.69
2803.77
2803.84
2803.9
2803.97
2804.03
2804.08
2804.14
2804.19
2804.24
2804.29
2804.33
2804.37
2804.41
2804.45
2804.49
2804.52
2804.56
2804.59
2804.62
2804.64
2804.67
2804.7
2804.72
2804.74
2804.77
2804.79
2804.81
2804.83
2804.85
2804.86
2804.88
2804.9
2804.91
2802.87
2802.96
2803.09
2803.19
2803.29
2803.38
2803.47
2803.55
2803.63
2803.7
2803.77
2803.84
2803.9
2803.96
2804.02
2804.08
2804.13
2804.18
2804.23
2804.27
2804.32
2804.36
2804.4
2804.43
2804.47
2804.5
2804.53
2804.56
2804.59
2804.62
2804.64
2804.67
2804.69
2804.71
2804.73
2804.75
2804.77
2804.79
2804.8
2804.82
2804.83
2804.85
2802.73
2802.85
2802.96
2803.06
2803.16
2803.25
2803.34
2803.42
2803.5
2803.57
2803.64
2803.71
2803.77
2803.83
2803.89
2803.94
2803.99
2804.04
2804.08
2804.13
2804.17
2804.21
2804.25
2804.29
2804.32
2804.35
2804.38
2804.41
2804.44
2804.47
2804.5
2804.52
2804.54
2804.56
2804.58
2804.6
2804.62
2804.64
2804.66
2804.67
2804.69
2804.7
2802.58
2802.71
2802.81
2802.92
2803.02
2803.12
2803.21
2803.29
2803.37
2803.45
2803.53
2803.6
2803.67
2803.73
2803.79
2803.85
2803.9
2803.96
2804.01
2804.05
2804.1
2804.14
2804.18
2804.21
2804.25
2804.28
2804.31
2804.34
2804.36
2804.39
2804.41
2804.44
2804.46
2804.48
2804.5
2804.52
2804.54
2804.55
2804.57
2804.58
2804.6
2804.61
2802.43
2802.54
2802.65
2802.76
2802.85
2802.94
2803.03
2803.11
2803.19
2803.26
2803.33
2803.4
2803.46
2803.52
2803.57
2803.62
2803.67
2803.71
2803.76
2803.8
2803.83
2803.87
2803.91
2803.94
2803.97
2804.01
2804.04
2804.07
2804.1
2804.12
2804.15
2804.17
2804.2
2804.22
2804.24
2804.26
2804.28
2804.3
2804.32
2804.34
2804.35
2804.37
2802.16
2802.27
2802.38
2802.49
2802.59
2802.69
2802.78
2802.88
2802.96
2803.05
2803.12
2803.2
2803.27
2803.34
2803.4
2803.47
2803.53
2803.58
2803.64
2803.69
2803.73
2803.78
2803.82
2803.86
2803.89
2803.92
2803.95
2803.98
2804.01
2804.04
2804.06
2804.08
2804.11
2804.13
2804.15
2804.16
2804.18
2804.2
2804.22
2804.23
2804.25
2804.26
2802.14
2802.25
2802.36
2802.45
2802.54
2802.62
2802.69
2802.76
2802.83
2802.89
2802.96
2803.02
2803.07
2803.13
2803.19
2803.24
2803.3
2803.35
2803.4
2803.44
2803.49
2803.53
2803.57
2803.61
2803.64
2803.68
2803.71
2803.74
2803.77
2803.8
2803.83
2803.85
2803.87
2803.9
2803.92
2803.94
2803.96
2803.97
2803.99
2804.01
2804.02
2804.04
2801.77
2801.89
2802
2802.12
2802.23
2802.33
2802.43
2802.52
2802.6
2802.68
2802.76
2802.83
2802.89
2802.96
2803.02
2803.07
2803.12
2803.17
2803.22
2803.26
2803.3
2803.34
2803.37
2803.41
2803.44
2803.47
2803.5
2803.53
2803.56
2803.58
2803.61
2803.63
2803.65
2803.67
2803.69
2803.71
2803.73
2803.75
2803.76
2803.78
2803.8
2803.81
2801.55
2801.66
2801.77
2801.88
2801.98
2802.08
2802.18
2802.27
2802.35
2802.43
2802.51
2802.58
2802.64
2802.71
2802.76
2802.82
2802.87
2802.92
2802.97
2803.02
2803.06
2803.1
2803.14
2803.17
2803.21
2803.24
2803.27
2803.3
2803.33
2803.36
2803.38
2803.41
2803.43
2803.45
2803.48
2803.5
2803.52
2803.53
2803.55
2803.57
2803.58
2803.6
2801.3
2801.41
2801.53
2801.64
2801.75
2801.85
2801.94
2802.03
2802.12
2802.19
2802.27
2802.34
2802.4
2802.46
2802.52
2802.58
2802.63
2802.68
2802.73
2802.77
2802.82
2802.86
2802.9
2802.93
2802.97
2803
2803.03
2803.06
2803.09
2803.12
2803.15
2803.17
2803.19
2803.22
2803.24
2803.26
2803.28
2803.3
2803.31
2803.33
2803.35
2803.36
2801.03
2801.15
2801.27
2801.38
2801.48
2801.58
2801.67
2801.76
2801.84
2801.92
2801.99
2802.06
2802.13
2802.19
2802.25
2802.3
2802.36
2802.41
2802.45
2802.5
2802.54
2802.58
2802.62
2802.66
2802.69
2802.73
2802.76
2802.79
2802.82
2802.85
2802.87
2802.9
2802.92
2802.94
2802.96
2802.99
2803
2803.02
2803.04
2803.06
2803.07
2803.09
2800.75
2800.87
2800.98
2801.08
2801.18
2801.27
2801.36
2801.45
2801.53
2801.61
2801.68
2801.75
2801.82
2801.88
2801.94
2802
2802.05
2802.11
2802.15
2802.2
2802.24
2802.28
2802.32
2802.36
2802.4
2802.43
2802.46
2802.49
2802.52
2802.55
2802.57
2802.6
2802.62
2802.65
2802.67
2802.69
2802.71
2802.73
2802.74
2802.76
2802.78
2802.79
2800.48
2800.59
2800.7
2800.8
2800.89
2800.98
2801.07
2801.15
2801.23
2801.31
2801.38
2801.45
2801.52
2801.58
2801.64
2801.7
2801.75
2801.8
2801.85
2801.9
2801.94
2801.98
2802.02
2802.06
2802.09
2802.13
2802.16
2802.19
2802.22
2802.25
2802.27
2802.3
2802.32
2802.34
2802.36
2802.39
2802.4
2802.42
2802.44
2802.46
2802.47
2802.49
2800.19
2800.31
2800.42
2800.52
2800.61
2800.7
2800.79
2800.87
2800.95
2801.02
2801.1
2801.16
2801.23
2801.29
2801.34
2801.4
2801.45
2801.5
2801.55
2801.59
2801.63
2801.68
2801.71
2801.75
2801.78
2801.82
2801.85
2801.88
2801.91
2801.93
2801.96
2801.98
2802.01
2802.03
2802.05
2802.07
2802.09
2802.11
2802.13
2802.14
2802.16
2802.17
2799.91
2800.01
2800.11
2800.21
2800.3
2800.39
2800.47
2800.55
2800.62
2800.69
2800.76
2800.83
2800.89
2800.95
2801
2801.05
2801.1
2801.15
2801.2
2801.24
2801.28
2801.32
2801.36
2801.39
2801.43
2801.46
2801.49
2801.52
2801.55
2801.58
2801.6
2801.63
2801.65
2801.67
2801.69
2801.71
2801.73
2801.75
2801.77
2801.78
2801.8
2801.81
2799.49
2799.6
2799.7
2799.8
2799.89
2799.98
2800.07
2800.15
2800.22
2800.3
2800.37
2800.43
2800.5
2800.55
2800.61
2800.66
2800.71
2800.76
2800.81
2800.85
2800.9
2800.94
2800.97
2801.01
2801.04
2801.08
2801.11
2801.14
2801.17
2801.19
2801.22
2801.24
2801.27
2801.29
2801.31
2801.33
2801.35
2801.37
2801.38
2801.4
2801.42
2801.43
2799.05
2799.16
2799.26
2799.36
2799.46
2799.55
2799.64
2799.72
2799.8
2799.87
2799.94
2800.01
2800.07
2800.13
2800.19
2800.24
2800.29
2800.34
2800.39
2800.43
2800.48
2800.52
2800.55
2800.59
2800.62
2800.66
2800.69
2800.72
2800.74
2800.77
2800.8
2800.82
2800.84
2800.87
2800.89
2800.91
2800.93
2800.94
2800.96
2800.98
2800.99
2801.01
2798.6
2798.71
2798.82
2798.92
2799.01
2799.1
2799.19
2799.27
2799.35
2799.42
2799.49
2799.56
2799.62
2799.68
2799.74
2799.79
2799.84
2799.89
2799.94
2799.98
2800.02
2800.06
2800.1
2800.14
2800.17
2800.2
2800.23
2800.26
2800.29
2800.31
2800.34
2800.36
2800.38
2800.4
2800.42
2800.44
2800.46
2800.48
2800.49
2800.51
2800.52
2800.54
2798.19
2798.3
2798.4
2798.49
2798.59
2798.67
2798.75
2798.83
2798.9
2798.97
2799.04
2799.1
2799.16
2799.22
2799.27
2799.32
2799.37
2799.42
2799.46
2799.51
2799.55
2799.58
2799.62
2799.65
2799.68
2799.71
2799.74
2799.77
2799.8
2799.82
2799.85
2799.87
2799.89
2799.91
2799.93
2799.95
2799.97
2799.98
2800
2800.01
2800.03
2800.04
2797.44
2797.55
2797.65
2797.75
2797.85
2797.95
2798.04
2798.13
2798.21
2798.29
2798.36
2798.43
2798.5
2798.56
2798.62
2798.67
2798.73
2798.78
2798.83
2798.87
2798.92
2798.96
2799
2799.03
2799.07
2799.1
2799.13
2799.16
2799.19
2799.21
2799.24
2799.26
2799.29
2799.31
2799.33
2799.35
2799.37
2799.38
2799.4
2799.42
2799.43
2799.45
2797.05
2797.15
2797.24
2797.32
2797.4
2797.47
2797.54
2797.61
2797.68
2797.74
2797.8
2797.85
2797.91
2797.96
2798.02
2798.07
2798.11
2798.16
2798.2
2798.25
2798.29
2798.33
2798.36
2798.4
2798.43
2798.46
2798.49
2798.52
2798.55
2798.58
2798.6
2798.63
2798.65
2798.67
2798.69
2798.71
2798.73
2798.75
2798.76
2798.78
2798.8
2798.81
2796.55
2796.65
2796.75
2796.84
2796.92
2797
2797.08
2797.15
2797.22
2797.29
2797.35
2797.41
2797.46
2797.52
2797.57
2797.62
2797.66
2797.71
2797.75
2797.79
2797.83
2797.86
2797.9
2797.93
2797.96
2797.99
2798.02
2798.05
2798.07
2798.1
2798.12
2798.14
2798.16
2798.18
2798.2
2798.22
2798.24
2798.25
2798.27
2798.28
2798.3
2798.31
2796.02
2796.12
2796.21
2796.3
2796.39
2796.47
2796.54
2796.61
2796.68
2796.75
2796.81
2796.87
2796.92
2796.97
2797.02
2797.07
2797.12
2797.16
2797.2
2797.24
2797.27
2797.31
2797.34
2797.37
2797.4
2797.43
2797.45
2797.48
2797.5
2797.53
2797.55
2797.57
2797.59
2797.61
2797.63
2797.65
2797.66
2797.68
2797.69
2797.71
2797.72
2797.73
2795.46
2795.56
2795.65
2795.74
2795.82
2795.9
2795.97
2796.04
2796.11
2796.17
2796.23
2796.29
2796.35
2796.4
2796.45
2796.5
2796.54
2796.59
2796.63
2796.67
2796.71
2796.74
2796.78
2796.81
2796.84
2796.87
2796.9
2796.93
2796.96
2796.98
2797.01
2797.03
2797.05
2797.07
2797.09
2797.11
2797.13
2797.15
2797.17
2797.18
2797.2
2797.22
2794.75
2794.84
2794.91
2794.99
2795.06
2795.13
2795.19
2795.25
2795.31
2795.37
2795.42
2795.47
2795.53
2795.57
2795.62
2795.67
2795.71
2795.75
2795.8
2795.84
2795.87
2795.91
2795.95
2795.98
2796.01
2796.04
2796.07
2796.1
2796.13
2796.15
2796.18
2796.2
2796.23
2796.25
2796.27
2796.29
2796.31
2796.33
2796.34
2796.36
2796.38
2796.39
2793.83
2793.92
2794.01
2794.09
2794.17
2794.25
2794.33
2794.4
2794.47
2794.53
2794.59
2794.65
2794.7
2794.75
2794.8
2794.85
2794.9
2794.94
2794.98
2795.02
2795.05
2795.09
2795.12
2795.15
2795.17
2795.2
2795.22
2795.25
2795.27
2795.28
2795.3
2795.32
2795.33
2795.35
2795.36
2795.37
2795.38
2795.39
2795.4
2795.41
2795.42
2795.43
2792.78
2792.87
2792.96
2793.03
2793.11
2793.18
2793.25
2793.32
2793.38
2793.43
2793.49
2793.54
2793.58
2793.63
2793.67
2793.71
2793.74
2793.78
2793.81
2793.84
2793.87
2793.9
2793.93
2793.95
2793.98
2794
2794.02
2794.04
2794.06
2794.08
2794.1
2794.11
2794.13
2794.14
2794.16
2794.17
2794.18
2794.2
2794.21
2794.22
2794.23
2794.24
2791.61
2791.67
2791.74
2791.8
2791.86
2791.92
2791.98
2792.03
2792.08
2792.13
2792.18
2792.22
2792.26
2792.3
2792.34
2792.38
2792.41
2792.44
2792.48
2792.51
2792.54
2792.57
2792.59
2792.62
2792.65
2792.67
2792.69
2792.72
2792.74
2792.76
2792.78
2792.8
2792.82
2792.84
2792.85
2792.87
2792.89
2792.9
2792.92
2792.93
2792.95