/*--------------------------------*- C++ -*----------------------------------*\
| =========                 |                                                 |
| \\      /  F ield         | OpenFOAM: The Open Source CFD Toolbox           |
|  \\    /   O peration     | Version:  2412                                  |
|   \\  /    A nd           | Website:  www.openfoam.com                      |
|    \\/     M anipulation  |                                                 |
\*---------------------------------------------------------------------------*/
FoamFile
{
    version     2.0;
    format      ascii;
    arch        "LSB;label=32;scalar=64";
    class       volScalarField;
    location    "0.03";
    object      p;
}
// * * * * * * * * * * * * * * * * * * * * * * * * * * * * * * * * * * * * * //

dimensions      [1 -1 -2 0 0 0 0];

internalField   nonuniform List<scalar> 
9922
(
3752.47
2963.81
2963.4
2974.79
2973.93
2959.12
2926.77
2894.02
2869.92
2855.19
2846.11
2839.42
2829.02
2812.95
2792.35
2768.59
2744.02
2721.44
2702.97
2689.3
2679.23
2671.13
2663.92
2656.98
2649.83
2642.2
2633.98
2625.16
2615.64
2605.36
2594.26
2582.33
2569.49
2555.73
2541.04
2525.32
2508.42
2490.22
2470.68
2449.77
2427.34
2403.2
2377.11
2348.79
2317.89
2283.98
2246.6
2205.38
2160.32
2111.79
2060.38
2007.72
1953.65
1900.73
1849.41
1800.16
1753.29
1708.51
1665.63
1624.51
1585.28
1547.96
1512.71
1479.74
1449.18
1421.13
1395.67
1372.71
1352.01
1333.29
1316.28
1300.73
1286.53
1273.77
1262.19
1251.32
1240.89
1230.97
1221.5
1212.41
1203.48
1195.14
1187.57
1180.43
1173.62
1167.02
1160.76
1154.75
1149
1143.4
1138.02
1132.84
1127.95
1123.27
1118.84
1114.63
1110.61
1106.76
1103.07
1099.54
1096.17
1092.94
1089.81
1086.82
1083.92
1081.15
1078.46
1075.91
1073.42
1071.06
1068.75
1066.57
1064.41
1062.37
1060.44
1058.53
1056.74
1055.02
1053.42
1051.84
1049.46
3751.29
2963.22
2962.54
2974.06
2973.82
2959.46
2927.25
2894.23
2869.74
2854.68
2845.39
2838.6
2828.18
2812.06
2791.38
2767.58
2743.03
2720.61
2702.38
2688.94
2679.03
2671
2663.83
2656.9
2649.76
2642.12
2633.89
2625.04
2615.5
2605.19
2594.06
2582.08
2569.2
2555.39
2540.64
2524.85
2507.85
2489.53
2469.85
2448.75
2426.09
2401.68
2375.27
2346.57
2315.23
2280.87
2243.11
2201.74
2156.82
2108.64
2057.88
2005.93
1954.59
1902.24
1852.25
1804.24
1758.04
1713.53
1670.79
1629.93
1590.87
1553.68
1518.49
1485.37
1454.51
1425.98
1399.87
1376.19
1354.88
1335.61
1317.69
1302.01
1288.06
1275.31
1263.18
1251.64
1240.77
1230.57
1220.94
1211.88
1203.54
1195.76
1188.26
1180.93
1173.86
1167.08
1160.78
1154.82
1149.18
1143.73
1138.46
1133.36
1128.47
1123.74
1119.22
1114.88
1110.72
1106.72
1102.91
1099.28
1095.79
1092.44
1089.21
1086.11
1083.14
1080.3
1077.59
1075.02
1072.55
1070.22
1067.96
1065.86
1063.78
1061.86
1060.05
1058.27
1056.58
1054.92
1053.36
1051.81
1049.5
3750.03
2962.65
2961.66
2973.37
2973.72
2959.79
2927.74
2894.48
2869.57
2854.16
2844.65
2837.76
2827.32
2811.15
2790.4
2766.54
2742.03
2719.77
2701.79
2688.58
2678.82
2670.88
2663.75
2656.83
2649.69
2642.04
2633.8
2624.94
2615.37
2605.03
2593.87
2581.86
2568.93
2555.08
2540.26
2524.4
2507.31
2488.89
2469.08
2447.81
2424.95
2400.28
2373.58
2344.54
2312.85
2278.16
2240.17
2198.78
2154.05
2106.4
2056.63
2005.83
1955.18
1904.71
1855.89
1808.45
1762.49
1718.12
1675.56
1634.7
1595.6
1558.28
1522.85
1489.48
1458.29
1429.36
1402.73
1378.38
1356.54
1337.22
1320.06
1304.11
1289.31
1275.54
1262.8
1251.37
1240.89
1230.96
1221.44
1212.4
1203.83
1195.51
1187.62
1180.08
1172.97
1166.24
1159.95
1153.95
1148.24
1142.71
1137.46
1132.43
1127.67
1123.11
1118.75
1114.57
1110.55
1106.7
1103.04
1099.54
1096.16
1092.89
1089.71
1086.65
1083.68
1080.83
1078.08
1075.47
1072.94
1070.55
1068.23
1066.03
1063.87
1061.86
1059.98
1058.14
1056.38
1054.67
1053.03
1051.46
1049.19
3748.66
2962.1
2960.78
2972.68
2973.62
2960.1
2928.25
2894.73
2869.39
2853.62
2843.89
2836.9
2826.43
2810.21
2789.38
2765.47
2741.02
2718.93
2701.2
2688.23
2678.63
2670.76
2663.66
2656.76
2649.62
2641.97
2633.72
2624.83
2615.24
2604.87
2593.69
2581.64
2568.68
2554.78
2539.91
2523.98
2506.81
2488.29
2468.36
2446.95
2423.91
2399.02
2372.06
2342.74
2310.77
2275.85
2237.76
2196.42
2152.01
2105.1
2056.42
2006.87
1956.14
1907.15
1859.23
1812.49
1767.4
1724.03
1682.06
1641.52
1602.36
1564.75
1528.86
1494.9
1463.05
1433.48
1406.28
1381.49
1359.03
1338.84
1320.85
1304.5
1289.52
1276.03
1263.97
1252.78
1241.97
1231.57
1221.66
1212.31
1203.44
1195.21
1187.64
1180.4
1173.51
1166.88
1160.58
1154.49
1148.65
1143
1137.59
1132.4
1127.46
1122.72
1118.2
1113.84
1109.67
1105.71
1101.98
1098.43
1095.05
1091.81
1088.71
1085.73
1082.87
1080.13
1077.49
1074.98
1072.55
1070.28
1068.07
1066.01
1063.99
1062.12
1060.35
1058.61
1056.92
1055.29
1053.67
1052.07
1049.74
3747.2
2961.57
2959.91
2972.01
2973.51
2960.4
2928.77
2895.02
2869.24
2853.09
2843.12
2836.02
2825.52
2809.24
2788.34
2764.39
2739.99
2718.08
2700.61
2687.88
2678.44
2670.65
2663.58
2656.69
2649.55
2641.9
2633.64
2624.74
2615.12
2604.73
2593.52
2581.44
2568.44
2554.49
2539.58
2523.58
2506.34
2487.74
2467.71
2446.17
2422.97
2397.89
2370.72
2341.17
2308.99
2273.93
2235.82
2194.63
2150.63
2104.33
2056.35
2007.6
1958.41
1909.74
1862.7
1817.34
1773.35
1730.49
1688.95
1648.68
1609.76
1572.23
1536.3
1502.13
1469.89
1439.77
1411.93
1386.54
1363.38
1342.4
1323.43
1306.66
1291.7
1277.98
1265.06
1252.88
1241.56
1231.14
1221.52
1212.48
1203.96
1195.86
1188
1180.45
1173.33
1166.55
1160.11
1153.93
1148.12
1142.6
1137.39
1132.38
1127.59
1122.99
1118.55
1114.24
1110.09
1106.1
1102.31
1098.68
1095.21
1091.89
1088.7
1085.65
1082.72
1079.9
1077.18
1074.58
1072.08
1069.73
1067.43
1065.27
1063.14
1061.17
1059.32
1057.53
1055.84
1054.24
1052.63
1051.06
1048.72
3745.61
2961.07
2959.05
2971.34
2973.39
2960.69
2929.31
2895.33
2869.09
2852.55
2842.34
2835.12
2824.58
2808.25
2787.27
2763.28
2738.95
2717.24
2700.03
2687.54
2678.25
2670.54
2663.5
2656.62
2649.49
2641.83
2633.56
2624.65
2615.01
2604.6
2593.36
2581.25
2568.22
2554.23
2539.26
2523.21
2505.9
2487.22
2467.1
2445.45
2422.12
2396.89
2369.54
2339.82
2307.5
2272.37
2234.29
2193.28
2149.58
2103.65
2056.21
2008.37
1961.18
1913.6
1867.57
1822.66
1778.79
1736.03
1694.49
1654.32
1615.51
1578.11
1542.22
1507.99
1475.62
1445.23
1416.94
1390.79
1366.96
1345.57
1326.35
1308.95
1293.06
1278.41
1265.01
1253.1
1242.48
1232.38
1222.6
1213.04
1203.92
1195.24
1187.23
1179.83
1172.96
1166.32
1159.86
1153.56
1147.6
1141.92
1136.56
1131.42
1126.52
1121.85
1117.4
1113.13
1109.05
1105.15
1101.44
1097.91
1094.56
1091.38
1088.33
1085.4
1082.59
1079.87
1077.24
1074.72
1072.28
1069.97
1067.71
1065.57
1063.42
1061.4
1059.47
1057.63
1055.86
1054.22
1052.58
1051
1048.65
3743.92
2960.6
2958.21
2970.67
2973.24
2960.98
2929.88
2895.67
2868.97
2852.02
2841.56
2834.19
2823.62
2807.22
2786.17
2762.14
2737.9
2716.39
2699.46
2687.21
2678.07
2670.44
2663.43
2656.56
2649.43
2641.77
2633.49
2624.56
2614.91
2604.47
2593.21
2581.08
2568.01
2553.99
2538.98
2522.87
2505.5
2486.75
2466.54
2444.8
2421.36
2396.01
2368.52
2338.67
2306.26
2271.1
2233.09
2192.27
2148.9
2103.55
2057.09
2010.36
1963.72
1917.72
1872.39
1827.68
1784
1741.67
1700.63
1660.64
1621.76
1584.1
1547.84
1513.2
1480.38
1449.54
1420.81
1394.1
1369.68
1347.46
1327.67
1309.86
1293.81
1279.44
1266.61
1254.73
1243.39
1232.47
1222.21
1212.51
1203.67
1195.5
1187.97
1180.77
1173.79
1166.93
1160.26
1153.9
1147.97
1142.36
1137.01
1131.83
1126.84
1122.04
1117.46
1113.05
1108.82
1104.76
1100.86
1097.13
1093.6
1090.23
1087.03
1083.97
1081.06
1078.28
1075.6
1073.06
1070.61
1068.31
1066.08
1064
1061.93
1059.99
1058.17
1056.39
1054.67
1053.01
1051.38
1049.79
1047.43
3742.1
2960.17
2957.38
2970
2973.08
2961.26
2930.47
2896.04
2868.87
2851.48
2840.76
2833.24
2822.61
2806.15
2785.03
2760.99
2736.84
2715.54
2698.89
2686.88
2677.89
2670.33
2663.36
2656.5
2649.37
2641.71
2633.43
2624.49
2614.81
2604.36
2593.08
2580.92
2567.82
2553.77
2538.71
2522.55
2505.13
2486.31
2466.04
2444.22
2420.69
2395.23
2367.64
2337.7
2305.24
2270.09
2232.18
2191.59
2148.69
2104.2
2058.91
2013.07
1966.83
1921.21
1876.52
1833.05
1790.74
1749.33
1708.69
1668.92
1630.08
1592.3
1555.79
1520.74
1487.35
1455.82
1426.32
1399.07
1374.07
1351.43
1331.38
1313.26
1296.92
1281.97
1268.07
1255.04
1243.17
1232.56
1222.89
1213.56
1204.68
1196.16
1188.14
1180.48
1173.12
1165.96
1159.18
1152.8
1146.92
1141.39
1136.1
1131
1126.12
1121.47
1117.04
1112.79
1108.7
1104.76
1100.97
1097.32
1093.81
1090.44
1087.19
1084.08
1081.11
1078.28
1075.56
1072.96
1070.43
1068.04
1065.7
1063.49
1061.32
1059.3
1057.4
1055.58
1053.82
1052.16
1050.56
1049.06
1046.85
3740.16
2959.76
2956.58
2969.32
2972.89
2961.53
2931.09
2896.46
2868.81
2850.97
2839.97
2832.27
2821.57
2805.04
2783.86
2759.81
2735.77
2714.69
2698.32
2686.56
2677.72
2670.24
2663.29
2656.44
2649.32
2641.66
2633.37
2624.41
2614.73
2604.25
2592.95
2580.77
2567.65
2553.56
2538.47
2522.27
2504.79
2485.92
2465.59
2443.7
2420.09
2394.56
2366.89
2336.89
2304.41
2269.31
2231.53
2191.25
2148.99
2105.26
2060.55
2015.47
1970.57
1925.3
1881.48
1839
1797.08
1755.71
1715.26
1675.8
1637.32
1599.85
1563.5
1528.45
1494.95
1463.16
1433.23
1405.37
1379.61
1356.2
1335.11
1316.21
1299.05
1283.13
1268.6
1255.85
1244.6
1233.97
1223.63
1213.64
1204.34
1195.64
1187.72
1180.22
1173.02
1166.02
1159.39
1153.12
1147.19
1141.5
1136
1130.7
1125.63
1120.79
1116.19
1111.78
1107.55
1103.51
1099.67
1096.01
1092.52
1089.18
1085.99
1082.95
1080.07
1077.32
1074.69
1072.17
1069.73
1067.4
1065.14
1063.03
1060.96
1059.02
1057.17
1055.36
1053.61
1051.93
1050.3
1048.71
1046.39
3738.08
2959.39
2955.79
2968.64
2972.67
2961.8
2931.74
2896.92
2868.78
2850.46
2839.17
2831.26
2820.48
2803.88
2782.65
2758.61
2734.69
2713.84
2697.76
2686.24
2677.55
2670.14
2663.22
2656.39
2649.27
2641.61
2633.32
2624.35
2614.65
2604.16
2592.84
2580.64
2567.5
2553.38
2538.25
2522.01
2504.49
2485.58
2465.19
2443.25
2419.57
2393.97
2366.25
2336.23
2303.76
2268.72
2231.15
2191.37
2149.61
2106.33
2062.12
2017.96
1974.21
1930.5
1887.45
1844.75
1802.73
1761.66
1721.45
1682.07
1643.56
1606.03
1569.61
1534.47
1500.82
1468.81
1438.63
1410.28
1384.06
1359.85
1337.5
1317.75
1300.24
1284.73
1270.83
1257.88
1245.58
1233.95
1223.31
1213.68
1204.89
1196.48
1188.51
1180.76
1173.26
1166.12
1159.47
1153.21
1147.25
1141.54
1136.1
1130.91
1125.93
1121.16
1116.56
1112.14
1107.87
1103.76
1099.83
1096.06
1092.43
1088.96
1085.66
1082.52
1079.54
1076.7
1073.99
1071.38
1068.83
1066.39
1064.02
1061.82
1059.65
1057.62
1055.71
1053.91
1052.19
1050.58
1048.97
1047.41
1045.14
3735.87
2959.05
2955.02
2967.96
2972.44
2962.07
2932.42
2897.43
2868.79
2849.99
2838.37
2830.23
2819.35
2802.68
2781.4
2757.38
2733.6
2713
2697.21
2685.92
2677.38
2670.05
2663.16
2656.34
2649.23
2641.57
2633.27
2624.29
2614.57
2604.07
2592.75
2580.53
2567.36
2553.22
2538.06
2521.79
2504.23
2485.28
2464.85
2442.85
2419.13
2393.49
2365.74
2335.71
2303.28
2268.4
2231.19
2191.75
2150.46
2107.8
2064.52
2021.21
1977.92
1935.39
1892.87
1850.87
1809.71
1769.35
1729.64
1690.5
1651.96
1614.14
1577.28
1541.62
1507.39
1474.76
1443.89
1414.91
1388.09
1363.5
1341.29
1321.18
1303.41
1287.54
1272.59
1258.6
1245.88
1234.71
1224.67
1214.97
1205.57
1196.57
1188.14
1180.13
1172.67
1165.69
1159.14
1152.82
1146.66
1140.73
1135.13
1129.86
1124.85
1120.07
1115.53
1111.19
1107.03
1103.05
1099.23
1095.57
1092.06
1088.72
1085.54
1082.5
1079.59
1076.81
1074.14
1071.56
1069.03
1066.62
1064.26
1062.07
1059.89
1057.88
1056.01
1054.24
1052.53
1050.92
1049.3
1047.72
1045.37
3733.5
2958.75
2954.27
2967.28
2972.18
2962.33
2933.13
2898
2868.85
2849.55
2837.6
2829.17
2818.16
2801.42
2780.11
2756.14
2732.51
2712.16
2696.67
2685.62
2677.22
2669.96
2663.11
2656.29
2649.19
2641.53
2633.23
2624.24
2614.51
2604
2592.66
2580.43
2567.24
2553.08
2537.9
2521.6
2504.01
2485.02
2464.55
2442.52
2418.76
2393.1
2365.34
2335.34
2302.99
2268.33
2231.4
2192.36
2151.67
2109.87
2067.57
2024.99
1982.36
1939.97
1898.02
1857.23
1816.96
1776.99
1737.55
1698.73
1660.55
1623.05
1586.32
1550.59
1516.12
1483.14
1451.74
1422.19
1394.42
1368.85
1346.17
1325.58
1306.64
1289.23
1273.71
1260.13
1247.92
1236.37
1225.29
1214.8
1205.22
1196.51
1188.51
1180.83
1173.53
1166.5
1159.78
1153.3
1147.05
1141.07
1135.46
1130.13
1125.01
1120.1
1115.42
1110.95
1106.65
1102.53
1098.56
1094.75
1091.11
1087.66
1084.39
1081.29
1078.34
1075.53
1072.84
1070.26
1067.77
1065.42
1063.15
1061.03
1058.92
1056.98
1055.13
1053.33
1051.56
1049.9
1048.24
1046.65
1044.29
3730.99
2958.48
2953.53
2966.6
2971.9
2962.58
2933.88
2898.62
2868.99
2849.18
2836.85
2828.1
2816.93
2800.11
2778.78
2754.87
2731.41
2711.33
2696.13
2685.32
2677.06
2669.88
2663.06
2656.25
2649.15
2641.5
2633.19
2624.2
2614.46
2603.94
2592.59
2580.34
2567.14
2552.96
2537.76
2521.44
2503.83
2484.81
2464.32
2442.26
2418.48
2392.81
2365.05
2335.08
2302.91
2268.47
2231.83
2193.3
2153.24
2112.17
2070.51
2028.65
1986.9
1945.29
1904.05
1863.48
1823.23
1783.39
1744.1
1705.4
1667.35
1630.02
1593.51
1557.96
1523.56
1490.5
1458.94
1429
1400.94
1374.83
1350.74
1329.08
1309.64
1292.34
1276.86
1262.64
1249.24
1236.75
1225.52
1215.62
1206.55
1197.73
1189.18
1180.94
1173.21
1165.88
1158.95
1152.32
1146.06
1140.21
1134.78
1129.6
1124.58
1119.78
1115.23
1110.9
1106.72
1102.7
1098.79
1095.01
1091.4
1087.96
1084.67
1081.54
1078.54
1075.69
1072.95
1070.33
1067.82
1065.46
1063.16
1061.01
1058.89
1056.92
1055.05
1053.24
1051.46
1049.81
1048.16
1046.64
1044.4
3728.3
2958.24
2952.83
2965.91
2971.59
2962.82
2934.66
2899.3
2869.19
2848.86
2836.12
2827
2815.65
2798.74
2777.41
2753.58
2730.31
2710.5
2695.6
2685.02
2676.91
2669.81
2663.01
2656.22
2649.12
2641.48
2633.16
2624.16
2614.42
2603.89
2592.54
2580.27
2567.05
2552.86
2537.65
2521.31
2503.68
2484.65
2464.14
2442.07
2418.29
2392.6
2364.88
2335.06
2303.03
2268.81
2232.56
2194.51
2155.03
2114.54
2073.48
2032.27
1991.3
1950.96
1910.45
1869.86
1830.03
1790.83
1752.03
1713.57
1675.48
1637.87
1600.95
1564.96
1530.13
1496.64
1464.66
1434.19
1405.65
1379.25
1354.66
1332.27
1312.84
1295.16
1278.75
1263.62
1250.03
1238.22
1227.4
1216.98
1206.97
1197.49
1188.72
1180.65
1173.2
1166.07
1159.19
1152.55
1146.26
1140.34
1134.72
1129.31
1124.07
1119.07
1114.34
1109.86
1105.58
1101.5
1097.57
1093.83
1090.28
1086.91
1083.7
1080.65
1077.74
1074.98
1072.35
1069.86
1067.49
1065.23
1063.02
1060.95
1058.88
1056.92
1055.04
1053.22
1051.43
1049.74
1048.05
1046.48
1044.19
3725.46
2958.04
2952.14
2965.23
2971.25
2963.05
2935.47
2900.05
2869.47
2848.58
2835.4
2825.85
2814.29
2797.3
2775.99
2752.27
2729.21
2709.68
2695.08
2684.73
2676.76
2669.74
2662.97
2656.19
2649.1
2641.46
2633.14
2624.13
2614.38
2603.86
2592.49
2580.22
2566.99
2552.79
2537.57
2521.22
2503.59
2484.55
2464.03
2441.94
2418.15
2392.52
2364.9
2335.17
2303.31
2269.38
2233.51
2195.95
2157.04
2117.23
2076.89
2036.42
1996.19
1956.3
1916.53
1877.17
1838.2
1799.43
1760.94
1722.79
1685.01
1647.62
1610.72
1574.52
1539.3
1505.3
1472.65
1441.59
1412.11
1384.58
1359.7
1337.14
1316.04
1297.29
1280.67
1265.91
1252.61
1240.11
1228.13
1217.04
1207.09
1198.18
1189.81
1181.72
1173.97
1166.5
1159.41
1152.68
1146.42
1140.52
1134.92
1129.53
1124.37
1119.43
1114.71
1110.19
1105.85
1101.67
1097.66
1093.84
1090.19
1086.7
1083.38
1080.23
1077.22
1074.34
1071.6
1069.01
1066.55
1064.22
1061.95
1059.81
1057.7
1055.7
1053.8
1051.99
1050.22
1048.56
1046.86
1045.28
1043.04
3722.42
2957.88
2951.48
2964.55
2970.88
2963.26
2936.33
2900.86
2869.79
2848.3
2834.63
2824.62
2812.85
2795.8
2774.54
2750.94
2728.11
2708.88
2694.57
2684.44
2676.62
2669.67
2662.94
2656.17
2649.08
2641.44
2633.13
2624.11
2614.36
2603.84
2592.47
2580.19
2566.95
2552.74
2537.51
2521.16
2503.51
2484.46
2463.96
2441.9
2418.16
2392.57
2365.02
2335.42
2303.78
2270.15
2234.67
2197.6
2159.34
2120.25
2080.71
2041.1
2001.42
1961.86
1922.56
1883.63
1844.97
1806.46
1768.18
1730.26
1692.74
1655.68
1619.14
1583.26
1548.23
1514.25
1481.48
1450.11
1420.28
1392.23
1366.4
1342.84
1321.43
1302.17
1284.82
1269.02
1254.33
1240.8
1228.92
1218.53
1208.76
1199.26
1190.11
1181.51
1173.53
1166.04
1158.93
1152.13
1145.75
1139.69
1133.89
1128.34
1123.13
1118.23
1113.6
1109.19
1104.99
1101
1097.18
1093.53
1090.01
1086.62
1083.39
1080.33
1077.36
1074.49
1071.73
1069.11
1066.61
1064.22
1061.89
1059.68
1057.5
1055.44
1053.5
1051.66
1049.85
1048.17
1046.43
1044.8
1042.41
3719.21
2957.75
2950.84
2963.87
2970.48
2963.46
2937.22
2901.73
2870.16
2848.01
2833.8
2823.29
2811.32
2794.23
2773.04
2749.59
2727
2708.08
2694.07
2684.16
2676.48
2669.61
2662.91
2656.15
2649.07
2641.44
2633.12
2624.1
2614.35
2603.82
2592.45
2580.16
2566.92
2552.71
2537.48
2521.13
2503.5
2484.47
2463.98
2441.94
2418.24
2392.71
2365.26
2335.83
2304.42
2271.11
2236.04
2199.52
2161.87
2123.42
2084.59
2045.66
2006.62
1967.79
1929.1
1890.28
1851.9
1813.82
1775.91
1738.18
1700.66
1663.43
1626.65
1590.53
1555.31
1521.17
1488.27
1456.57
1426.44
1398.11
1371.4
1346.73
1325.01
1305.28
1287.08
1270.43
1255.59
1242.85
1231.13
1219.83
1209.05
1199.05
1190.14
1182.08
1174.41
1166.86
1159.51
1152.53
1146.09
1139.99
1134.12
1128.48
1123.17
1118.12
1113.3
1108.67
1104.29
1100.12
1096.15
1092.34
1088.68
1085.18
1081.87
1078.73
1075.7
1072.77
1069.97
1067.31
1064.76
1062.33
1059.96
1057.71
1055.49
1053.39
1051.42
1049.55
1047.7
1046
1044.24
1042.59
1040.23
3715.79
2957.66
2950.24
2963.18
2970.04
2963.64
2938.14
2902.64
2870.53
2847.67
2832.88
2821.86
2809.7
2792.6
2771.49
2748.22
2725.89
2707.28
2693.58
2683.89
2676.35
2669.56
2662.89
2656.14
2649.07
2641.44
2633.12
2624.1
2614.35
2603.83
2592.45
2580.16
2566.92
2552.71
2537.49
2521.14
2503.52
2484.51
2464.04
2442.04
2418.39
2392.96
2365.63
2336.37
2305.22
2272.24
2237.63
2201.64
2164.55
2126.72
2088.59
2050.23
2011.9
1973.76
1936.04
1898.1
1860.36
1822.77
1785.28
1747.89
1710.63
1673.53
1636.69
1600.28
1564.55
1529.77
1496.14
1463.81
1432.91
1403.77
1376.79
1352.05
1329.06
1308.18
1289.6
1273.29
1258.79
1245.2
1232.14
1220.23
1209.8
1200.47
1191.67
1182.97
1174.52
1166.35
1158.71
1151.66
1145.33
1139.36
1133.63
1128.11
1122.88
1117.88
1113.11
1108.55
1104.2
1100.02
1095.99
1092.09
1088.31
1084.72
1081.3
1078.02
1074.84
1071.78
1068.88
1066.12
1063.49
1061
1058.55
1056.25
1053.98
1051.89
1049.92
1048.08
1046.26
1044.58
1042.84
1041.24
1038.89
3712.19
2957.6
2949.67
2962.5
2969.55
2963.79
2939.11
2903.61
2870.93
2847.32
2831.91
2820.34
2808
2790.91
2769.9
2746.81
2724.77
2706.5
2693.09
2683.62
2676.22
2669.51
2662.88
2656.14
2649.07
2641.44
2633.13
2624.11
2614.36
2603.84
2592.47
2580.18
2566.94
2552.74
2537.52
2521.19
2503.59
2484.6
2464.17
2442.22
2418.64
2393.31
2366.12
2337.07
2306.18
2273.57
2239.4
2203.91
2167.4
2130.31
2092.88
2055.16
2017.43
1979.78
1942.66
1905.33
1867.97
1830.69
1793.47
1756.36
1719.43
1682.7
1646.25
1610.17
1574.67
1539.95
1506.17
1473.53
1442.13
1412.26
1384.68
1359.38
1335.9
1314.25
1294.86
1277.35
1261.19
1246.39
1233.52
1222.27
1211.64
1201.4
1191.77
1182.66
1174.33
1166.36
1159.04
1152.29
1145.99
1139.79
1133.74
1127.93
1122.42
1117.11
1112.07
1107.29
1102.8
1098.53
1094.43
1090.47
1086.7
1083.15
1079.76
1076.47
1073.29
1070.26
1067.37
1064.63
1062.01
1059.52
1057.1
1054.83
1052.59
1050.5
1048.52
1046.64
1044.76
1043.01
1041.2
1039.49
1037.03
3708.35
2957.58
2949.13
2961.82
2969.02
2963.92
2940.12
2904.63
2871.37
2846.96
2830.91
2818.77
2806.24
2789.16
2768.26
2745.38
2723.65
2705.71
2692.6
2683.35
2676.09
2669.48
2662.89
2656.15
2649.08
2641.46
2633.14
2624.12
2614.38
2603.87
2592.5
2580.22
2566.99
2552.79
2537.59
2521.27
2503.69
2484.74
2464.35
2442.47
2418.98
2393.76
2366.74
2337.9
2307.3
2275.06
2241.33
2206.35
2170.52
2134.16
2097.32
2060.23
2023.12
1986.02
1949.17
1911.98
1874.92
1838.05
1801.14
1764.21
1727.36
1690.65
1654.18
1618.12
1582.67
1548.02
1514.31
1481.58
1450.05
1419.99
1391.45
1364.87
1340.88
1319.2
1298.82
1279.88
1263.05
1248.78
1235.93
1223.56
1212.09
1201.73
1192.55
1183.7
1175.14
1166.89
1159.6
1152.84
1146.33
1139.95
1133.87
1128.1
1122.64
1117.4
1112.35
1107.5
1102.89
1098.48
1094.23
1090.16
1086.3
1082.65
1079.13
1075.71
1072.44
1069.34
1066.4
1063.6
1060.92
1058.37
1055.93
1053.68
1051.49
1049.46
1047.55
1045.73
1043.92
1042.27
1040.52
1038.96
1036.66
3704.31
2957.58
2948.61
2961.14
2968.46
2964.04
2941.17
2905.72
2871.88
2846.68
2829.95
2817.19
2804.45
2787.35
2766.56
2743.9
2722.51
2704.93
2692.12
2683.08
2675.97
2669.45
2662.9
2656.16
2649.1
2641.48
2633.17
2624.15
2614.42
2603.91
2592.55
2580.27
2567.06
2552.87
2537.69
2521.39
2503.84
2484.93
2464.6
2442.79
2419.4
2394.32
2367.47
2338.87
2308.57
2276.7
2243.42
2209.03
2173.86
2138.03
2101.73
2065.39
2029.06
1992.58
1956.31
1919.96
1883.51
1847.12
1810.65
1774.07
1737.43
1700.77
1664.16
1627.76
1591.81
1556.57
1522.25
1488.95
1456.86
1426.28
1397.32
1370.29
1345.43
1322.81
1301.89
1283.38
1267.06
1251.81
1237.32
1224.63
1213.77
1203.6
1193.62
1183.82
1174.79
1166.78
1159.76
1152.82
1145.83
1139.05
1132.77
1126.88
1121.36
1116.13
1111.19
1106.5
1102
1097.68
1093.54
1089.6
1085.85
1082.27
1078.81
1075.49
1072.33
1069.33
1066.46
1063.68
1060.99
1058.44
1056.03
1053.82
1051.64
1049.58
1047.6
1045.68
1043.75
1041.98
1040.09
1038.4
1036
3700.03
2957.61
2948.11
2960.47
2967.89
2964.17
2942.26
2906.87
2872.46
2846.49
2829.05
2815.62
2802.62
2785.48
2764.8
2742.39
2721.36
2704.15
2691.65
2682.82
2675.86
2669.43
2662.92
2656.19
2649.12
2641.51
2633.2
2624.19
2614.46
2603.96
2592.61
2580.35
2567.15
2552.98
2537.82
2521.54
2504.03
2485.17
2464.91
2443.19
2419.91
2394.97
2368.31
2339.95
2309.98
2278.5
2245.72
2211.91
2177.27
2141.96
2106.45
2070.93
2035.14
1999.27
1963.53
1928.05
1892.01
1855.9
1819.71
1783.46
1747.19
1710.93
1674.7
1638.61
1602.83
1567.58
1533.02
1499.33
1466.63
1435.16
1405.76
1378.62
1353.01
1328.78
1307.52
1288.49
1270.65
1254.07
1239.8
1227.42
1215.58
1204.18
1193.57
1184.2
1176.13
1168.39
1160.84
1153.35
1146.08
1139.18
1132.94
1127.11
1121.51
1116.12
1110.97
1106.08
1101.39
1096.91
1092.65
1088.62
1084.77
1081.05
1077.46
1074.07
1070.89
1067.9
1065.02
1062.22
1059.51
1056.96
1054.54
1052.29
1050.04
1047.92
1045.9
1044.03
1042.17
1040.51
1038.7
1037.07
1034.8
3695.53
2957.65
2947.61
2959.79
2967.33
2964.31
2943.37
2908.07
2873.16
2846.41
2828.22
2814.07
2800.76
2783.55
2762.97
2740.85
2720.21
2703.39
2691.19
2682.57
2675.76
2669.43
2662.95
2656.23
2649.16
2641.54
2633.24
2624.24
2614.52
2604.03
2592.69
2580.44
2567.26
2553.13
2537.98
2521.74
2504.27
2485.46
2465.28
2443.66
2420.51
2395.72
2369.27
2341.18
2311.53
2280.46
2248.19
2214.9
2180.77
2146.22
2111.54
2076.46
2041
2005.61
1970.19
1934.97
1899.21
1863.37
1827.5
1791.51
1755.43
1719.34
1683.29
1647.41
1611.88
1576.86
1542.5
1508.89
1476.18
1444.61
1414.48
1386.21
1360.22
1336.11
1313.5
1292.33
1273.41
1257.52
1242.97
1229.1
1216.26
1205.14
1195.33
1186.04
1177.13
1168.46
1160.19
1152.27
1145.03
1138.46
1132.54
1126.89
1121.33
1115.97
1110.85
1106
1101.4
1097.03
1092.88
1088.93
1085.08
1081.33
1077.69
1074.25
1071
1067.91
1064.91
1062
1059.23
1056.64
1054.17
1051.85
1049.58
1047.48
1045.54
1043.73
1041.88
1040.19
1038.32
1036.64
1034.24
3690.75
2957.7
2947.12
2959.13
2966.81
2964.46
2944.47
2909.31
2873.94
2846.4
2827.44
2812.5
2798.85
2781.55
2761.09
2739.27
2719.06
2702.64
2690.74
2682.32
2675.66
2669.42
2662.99
2656.27
2649.2
2641.59
2633.29
2624.3
2614.59
2604.11
2592.79
2580.56
2567.41
2553.3
2538.19
2521.98
2504.56
2485.81
2465.71
2444.2
2421.18
2396.57
2370.34
2342.51
2313.22
2282.58
2250.79
2218.01
2184.56
2150.77
2116.5
2081.71
2046.98
2012.32
1977.49
1942.83
1907.75
1872.42
1837.01
1801.34
1765.43
1729.33
1693.12
1656.94
1621.02
1585.57
1550.8
1516.8
1483.71
1451.85
1421.27
1392.24
1365.57
1341.48
1318.13
1296.6
1277.99
1261
1244.86
1230.73
1218.57
1207.39
1196.62
1186.51
1177.27
1168.69
1160.47
1152.65
1145.66
1139.21
1133.04
1126.97
1121.06
1115.39
1109.97
1104.82
1100.03
1095.59
1091.49
1087.6
1083.82
1080.15
1076.6
1073.23
1070.01
1066.91
1063.92
1061.02
1058.24
1055.58
1053.01
1050.6
1048.26
1046.07
1043.98
1042.01
1040.01
1038.24
1036.31
1034.6
1032.22
3685.75
2957.78
2946.65
2958.48
2966.31
2964.62
2945.55
2910.59
2874.81
2846.45
2826.65
2810.85
2796.84
2779.46
2759.13
2737.66
2717.91
2701.91
2690.32
2682.09
2675.57
2669.43
2663.04
2656.33
2649.26
2641.65
2633.36
2624.37
2614.68
2604.22
2592.9
2580.7
2567.58
2553.5
2538.43
2522.27
2504.89
2486.22
2466.21
2444.82
2421.94
2397.52
2371.51
2343.99
2315.05
2284.85
2253.53
2221.34
2188.56
2155.22
2121.29
2087.37
2053.69
2019.68
1985.45
1951.33
1916.85
1881.86
1846.77
1811.46
1775.96
1740.26
1704.41
1668.49
1632.66
1597.11
1562.03
1527.56
1493.87
1461.13
1430.02
1400.93
1373.16
1347.01
1323.75
1302.94
1282.9
1264.11
1248.11
1234.11
1220.87
1208.52
1197.45
1187.71
1178.62
1169.54
1160.93
1153.16
1146.36
1139.81
1133.39
1127.17
1121.31
1115.71
1110.29
1105.03
1100.08
1095.46
1091.14
1087.01
1083.05
1079.26
1075.6
1072.09
1068.72
1065.49
1062.42
1059.5
1056.69
1054
1051.41
1049.01
1046.67
1044.47
1042.41
1040.51
1038.61
1036.92
1035.05
1033.39
1030.99
3680.44
2957.87
2946.21
2957.83
2965.84
2964.77
2946.6
2911.9
2875.74
2846.54
2825.81
2809.1
2794.72
2777.27
2757.1
2736.02
2716.77
2701.21
2689.91
2681.87
2675.48
2669.44
2663.1
2656.4
2649.32
2641.71
2633.43
2624.46
2614.78
2604.33
2593.04
2580.87
2567.78
2553.74
2538.71
2522.59
2505.28
2486.68
2466.78
2445.5
2422.79
2398.56
2372.8
2345.58
2317.02
2287.25
2256.45
2224.85
2192.57
2159.66
2126.56
2093.63
2060.33
2026.5
1992.64
1958.68
1924.53
1889.85
1854.99
1819.95
1784.71
1749.28
1713.74
1678.16
1642.69
1607.5
1572.71
1538.4
1504.74
1471.94
1440.36
1410.45
1382.41
1355.8
1331.32
1308.58
1287.65
1269.3
1252.44
1236.7
1222.59
1210.69
1199.73
1189.07
1178.91
1169.32
1161.12
1153.77
1146.82
1139.74
1132.8
1126.2
1120.1
1114.38
1109.04
1103.99
1099.19
1094.58
1090.16
1085.97
1082.05
1078.33
1074.71
1071.21
1067.86
1064.68
1061.64
1058.7
1055.86
1053.13
1050.5
1048.01
1045.54
1043.17
1040.96
1038.93
1036.87
1035.03
1033.03
1031.22
1028.69
3674.88
2958
2945.81
2957.2
2965.37
2964.89
2947.61
2913.26
2876.75
2846.65
2824.9
2807.2
2792.46
2774.95
2754.98
2734.34
2715.64
2700.53
2689.53
2681.66
2675.4
2669.45
2663.16
2656.48
2649.4
2641.79
2633.52
2624.56
2614.9
2604.46
2593.19
2581.06
2568
2554.01
2539.02
2522.97
2505.72
2487.21
2467.41
2446.28
2423.73
2399.71
2374.21
2347.31
2319.12
2289.8
2259.52
2228.43
2196.64
2164.45
2132.22
2099.6
2066.33
2033.04
1999.81
1966.35
1932.88
1898.78
1864.31
1829.63
1794.58
1759.19
1723.54
1687.76
1652.05
1616.61
1581.61
1547.11
1513.21
1480.27
1448.35
1417.6
1389.13
1363.09
1337.67
1313.62
1292.88
1273.41
1255.28
1239.39
1225.96
1213.21
1200.82
1189.38
1179.57
1171.06
1163.24
1155.36
1147.56
1139.98
1132.98
1126.35
1120.19
1114.36
1108.91
1103.77
1098.81
1093.96
1089.3
1084.94
1080.89
1077.03
1073.27
1069.63
1066.19
1062.93
1059.8
1056.76
1053.85
1051.1
1048.45
1045.92
1043.44
1041.11
1038.97
1037.01
1035.03
1033.25
1031.31
1029.63
1027.25
3668.98
2958.16
2945.46
2956.57
2964.92
2964.98
2948.59
2914.69
2877.83
2846.78
2823.9
2805.12
2790.02
2772.5
2752.78
2732.63
2714.52
2699.89
2689.17
2681.46
2675.31
2669.46
2663.23
2656.57
2649.49
2641.88
2633.61
2624.67
2615.02
2604.61
2593.37
2581.27
2568.26
2554.31
2539.38
2523.38
2506.2
2487.79
2468.11
2447.12
2424.75
2400.95
2375.73
2349.15
2321.35
2292.49
2262.7
2232.12
2200.96
2169.51
2137.65
2105.2
2072.74
2040.6
2008.1
1975.19
1942.34
1908.72
1874.62
1840.33
1805.68
1770.66
1735.31
1699.72
1664.04
1628.45
1593.1
1558.14
1523.73
1490.02
1457.53
1426.71
1397.04
1369.14
1343.56
1320.08
1297.68
1277.33
1259.59
1243.92
1228.96
1214.79
1202.33
1191.59
1181.96
1172.74
1163.9
1155.09
1146.67
1138.85
1132.06
1125.81
1119.88
1114.19
1108.88
1103.85
1098.9
1094.07
1089.42
1085.05
1080.96
1077.02
1073.18
1069.53
1066.04
1062.69
1059.42
1056.27
1053.33
1050.59
1047.94
1045.42
1042.94
1040.54
1038.24
1036.1
1033.97
1032.04
1030
1028.15
1025.53
3662.8
2958.34
2945.17
2955.97
2964.46
2965.01
2949.54
2916.19
2879.02
2846.95
2822.83
2802.89
2787.39
2769.88
2750.47
2730.89
2713.4
2699.26
2688.83
2681.27
2675.23
2669.48
2663.32
2656.67
2649.59
2641.99
2633.73
2624.8
2615.17
2604.78
2593.57
2581.51
2568.54
2554.65
2539.77
2523.84
2506.75
2488.43
2468.88
2448.05
2425.87
2402.3
2377.36
2351.12
2323.72
2295.31
2266.01
2235.99
2205.46
2174.47
2142.95
2111.33
2080.04
2048.39
2016.01
1983.4
1950.64
1917.28
1883.46
1849.4
1815.05
1780.39
1745.43
1710.27
1675.02
1639.84
1604.83
1570.08
1535.72
1501.94
1469.12
1437.77
1407.83
1378.96
1352.52
1327.94
1305
1284.22
1265.21
1247.45
1231.35
1217.68
1205.31
1193.68
1183.04
1173.04
1163.77
1154.96
1147
1139.68
1132.97
1126.43
1120.12
1114.16
1108.61
1103.24
1097.98
1092.92
1088.17
1083.72
1079.51
1075.48
1071.69
1068.16
1064.71
1061.31
1057.97
1054.8
1051.87
1049.11
1046.4
1043.81
1041.28
1038.89
1036.72
1034.76
1032.79
1031
1029.04
1027.31
1024.78
3656.25
2958.55
2944.93
2955.4
2963.98
2964.99
2950.48
2917.77
2880.33
2847.2
2821.71
2800.49
2784.57
2767.1
2748.06
2729.09
2712.28
2698.66
2688.5
2681.08
2675.15
2669.5
2663.41
2656.79
2649.71
2642.11
2633.86
2624.94
2615.33
2604.96
2593.79
2581.77
2568.86
2555.02
2540.21
2524.35
2507.34
2489.14
2469.72
2449.06
2427.08
2403.76
2379.11
2353.21
2326.22
2298.25
2269.46
2240
2209.99
2179.45
2148.67
2118
2087.01
2055.18
2023.1
1991.01
1958.63
1925.98
1892.68
1858.92
1824.83
1790.27
1755.31
1720.07
1684.73
1649.48
1614.43
1579.64
1545.17
1511.36
1478.35
1446.19
1415.96
1387.88
1360.47
1334.54
1310.99
1289.2
1268.92
1250.79
1235.17
1220.53
1206.98
1194.87
1184.18
1174.29
1165.16
1156.47
1148.4
1140.64
1133.36
1126.52
1120.3
1114.5
1108.97
1103.59
1098.26
1093.14
1088.31
1083.72
1079.33
1075.2
1071.41
1067.85
1064.34
1060.86
1057.55
1054.46
1051.59
1048.81
1046.1
1043.6
1041.23
1038.99
1036.86
1034.8
1032.62
1030.63
1028.46
1026.52
1023.8
3649.39
2958.77
2944.75
2954.88
2963.49
2964.89
2951.39
2919.42
2881.78
2847.56
2820.59
2798.01
2781.62
2764.17
2745.53
2727.24
2711.15
2698.07
2688.2
2680.9
2675.07
2669.52
2663.51
2656.92
2649.84
2642.24
2634
2625.1
2615.51
2605.17
2594.04
2582.07
2569.2
2555.42
2540.68
2524.9
2507.99
2489.9
2470.64
2450.15
2428.39
2405.32
2380.97
2355.43
2328.83
2301.33
2273.04
2244.1
2214.59
2184.69
2154.68
2124.38
2093.38
2062.17
2031.22
1999.94
1968.12
1936.25
1903.39
1870.01
1836.31
1802.1
1767.41
1732.31