/*--------------------------------*- C++ -*----------------------------------*\
| =========                 |                                                 |
| \\      /  F ield         | OpenFOAM: The Open Source CFD Toolbox           |
|  \\    /   O peration     | Version:  2412                                  |
|   \\  /    A nd           | Website:  www.openfoam.com                      |
|    \\/     M anipulation  |                                                 |
\*---------------------------------------------------------------------------*/
FoamFile
{
    version     2.0;
    format      ascii;
    arch        "LSB;label=32;scalar=64";
    class       volScalarField;
    location    "0.03";
    object      T;
}
// * * * * * * * * * * * * * * * * * * * * * * * * * * * * * * * * * * * * * //

dimensions      [0 0 0 1 0 0 0];

internalField   nonuniform List<scalar> 
9922
(
241.559
226.52
226.97
227.305
227.255
226.914
226.176
225.426
224.87
224.529
224.317
224.161
223.918
223.542
223.057
222.494
221.909
221.368
220.923
220.592
220.348
220.15
219.975
219.805
219.631
219.444
219.242
219.024
218.79
218.535
218.26
217.963
217.642
217.297
216.927
216.53
216.101
215.636
215.135
214.595
214.013
213.382
212.695
211.943
211.115
210.198
209.176
208.034
206.77
205.386
203.896
202.342
200.717
199.094
197.491
195.922
194.401
192.921
191.477
190.068
188.701
187.377
186.106
184.899
183.762
182.704
181.73
180.842
180.032
179.292
178.613
177.987
177.411
176.89
176.413
175.963
175.529
175.113
174.714
174.329
173.949
173.592
173.266
172.958
172.663
172.376
172.102
171.839
171.586
171.339
171.1
170.87
170.652
170.443
170.244
170.055
169.874
169.7
169.532
169.372
169.219
169.075
168.937
168.807
168.679
168.551
168.415
168.273
168.125
167.985
167.87
167.796
167.764
167.76
167.782
167.839
167.932
168.035
168.118
168.159
168.094
241.549
226.514
226.953
227.288
227.252
226.922
226.187
225.431
224.866
224.517
224.301
224.142
223.899
223.521
223.034
222.47
221.885
221.348
220.908
220.583
220.343
220.147
219.973
219.804
219.629
219.442
219.239
219.022
218.786
218.531
218.255
217.957
217.635
217.289
216.917
216.518
216.086
215.619
215.114
214.569
213.981
213.342
212.646
211.884
211.044
210.114
209.08
207.933
206.67
205.296
203.823
202.289
200.745
199.141
197.58
196.053
194.557
193.088
191.652
190.256
188.897
187.582
186.316
185.106
183.961
182.888
181.892
180.977
180.145
179.384
178.67
178.039
177.474
176.953
176.454
175.976
175.524
175.097
174.691
174.307
173.951
173.618
173.296
172.98
172.673
172.379
172.103
171.842
171.594
171.353
171.12
170.893
170.675
170.464
170.261
170.066
169.879
169.698
169.525
169.36
169.202
169.052
168.909
168.774
168.643
168.512
168.376
168.233
168.085
167.945
167.829
167.757
167.726
167.726
167.753
167.818
167.918
168.026
168.112
168.155
168.093
241.539
226.508
226.936
227.271
227.25
226.929
226.199
225.437
224.862
224.505
224.283
224.123
223.879
223.499
223.011
222.445
221.861
221.328
220.894
220.575
220.338
220.144
219.971
219.802
219.627
219.44
219.237
219.019
218.783
218.527
218.25
217.951
217.628
217.281
216.908
216.507
216.073
215.602
215.094
214.545
213.951
213.305
212.601
211.83
210.98
210.04
208.999
207.85
206.592
205.231
203.786
202.286
200.763
199.218
197.695
196.188
194.702
193.241
191.814
190.42
189.063
187.745
186.474
185.257
184.103
183.016
182.002
181.063
180.21
179.448
178.765
178.124
177.524
176.962
176.439
175.965
175.529
175.113
174.712
174.329
173.964
173.608
173.268
172.943
172.635
172.342
172.067
171.804
171.552
171.308
171.075
170.852
170.64
170.436
170.24
170.052
169.871
169.697
169.531
169.372
169.219
169.072
168.932
168.799
168.668
168.537
168.4
168.255
168.104
167.96
167.839
167.76
167.724
167.72
167.743
167.805
167.903
168.008
168.092
168.134
168.074
241.527
226.502
226.919
227.255
227.247
226.936
226.21
225.442
224.858
224.492
224.266
224.103
223.858
223.477
222.987
222.42
221.837
221.307
220.88
220.566
220.333
220.142
219.969
219.8
219.625
219.438
219.235
219.016
218.78
218.523
218.245
217.946
217.622
217.273
216.899
216.496
216.06
215.587
215.075
214.522
213.924
213.272
212.561
211.782
210.924
209.977
208.932
207.784
206.534
205.194
203.78
202.317
200.792
199.293
197.8
196.318
194.862
193.437
192.034
190.654
189.299
187.975
186.691
185.456
184.28
183.171
182.138
181.183
180.308
179.512
178.796
178.14
177.533
176.982
176.487
176.024
175.574
175.138
174.721
174.325
173.947
173.595
173.269
172.957
172.658
172.37
172.095
171.828
171.571
171.321
171.082
170.851
170.63
170.418
170.215
170.02
169.832
169.652
169.483
169.321
169.168
169.023
168.886
168.756
168.631
168.506
168.374
168.235
168.088
167.947
167.826
167.75
167.719
167.721
167.749
167.817
167.919
168.03
168.115
168.156
168.094
241.514
226.498
226.902
227.24
227.245
226.943
226.222
225.449
224.855
224.48
224.248
224.082
223.837
223.455
222.962
222.394
221.813
221.287
220.866
220.558
220.328
220.139
219.967
219.798
219.624
219.436
219.233
219.014
218.777
218.52
218.241
217.941
217.616
217.266
216.89
216.486
216.048
215.573
215.058
214.502
213.899
213.243
212.526
211.74
210.876
209.924
208.879
207.734
206.495
205.171
203.778
202.339
200.861
199.373
197.909
196.473
195.055
193.651
192.266
190.9
189.557
188.24
186.959
185.72
184.534
183.409
182.354
181.378
180.478
179.653
178.899
178.227
177.621
177.062
176.532
176.028
175.557
175.12
174.715
174.332
173.969
173.623
173.285
172.959
172.65
172.355
172.074
171.803
171.547
171.304
171.072
170.85
170.636
170.43
170.231
170.038
169.851
169.67
169.498
169.333
169.175
169.026
168.885
168.752
168.624
168.495
168.361
168.218
168.067
167.921
167.793
167.707
167.665
167.659
167.682
167.746
167.849
167.963
168.05
168.094
168.03
241.498
226.494
226.886
227.224
227.242
226.95
226.235
225.456
224.851
224.467
224.23
224.061
223.815
223.431
222.937
222.368
221.788
221.267
220.852
220.549
220.324
220.136
219.965
219.797
219.622
219.434
219.231
219.012
218.774
218.516
218.237
217.936
217.61
217.259
216.882
216.476
216.037
215.56
215.043
214.484
213.877
213.216
212.495
211.704
210.835
209.882
208.836
207.696
206.465
205.152
203.774
202.361
200.945
199.492
198.062
196.642
195.232
193.834
192.452
191.092
189.757
188.448
187.172
185.935
184.746
183.614
182.545
181.543
180.618
179.778
179.016
178.319
177.677
177.08
176.529
176.037
175.595
175.172
174.761
174.356
173.968
173.596
173.252
172.932
172.634
172.345
172.063
171.787
171.524
171.273
171.036
170.807
170.588
170.379
170.18
169.988
169.804
169.627
169.459
169.298
169.145
169.002
168.867
168.74
168.617
168.494
168.364
168.225
168.077
167.933
167.805
167.717
167.67
167.66
167.68
167.741
167.84
167.953
168.04
168.084
168.02
241.481
226.491
226.869
227.208
227.238
226.956
226.248
225.464
224.848
224.455
224.211
224.039
223.792
223.407
222.911
222.341
221.763
221.246
220.838
220.541
220.319
220.134
219.963
219.795
219.621
219.433
219.23
219.01
218.772
218.513
218.234
217.932
217.605
217.253
216.875
216.468
216.026
215.547
215.029
214.467
213.857
213.193
212.468
211.673
210.802
209.847
208.803
207.668
206.446
205.149
203.8
202.421
201.022
199.619
198.213
196.802
195.401
194.019
192.657
191.308
189.973
188.659
187.373
186.124
184.922
183.776
182.692
181.67
180.724
179.853
179.069
178.356
177.707
177.122
176.595
176.104
175.633
175.176
174.744
174.334
173.957
173.607
173.284
172.973
172.67
172.372
172.081
171.802
171.541
171.293
171.056
170.825
170.602
170.388
170.182
169.984
169.793
169.61
169.432
169.263
169.102
168.95
168.807
168.674
168.547
168.42
168.289
168.149
168.001
167.856
167.729
167.642
167.599
167.593
167.617
167.682
167.784
167.897
167.986
168.03
167.966
241.463
226.488
226.854
227.192
227.234
226.962
226.261
225.473
224.846
224.443
224.193
224.017
223.768
223.382
222.884
222.313
221.737
221.226
220.824
220.533
220.315
220.131
219.961
219.794
219.619
219.432
219.228
219.008
218.769
218.51
218.23
217.928
217.6
217.248
216.868
216.46
216.017
215.536
215.016
214.452
213.84
213.173
212.444
211.647
210.774
209.82
208.778
207.649
206.44
205.168
203.853
202.501
201.116
199.726
198.342
196.973
195.619
194.271
192.927
191.589
190.261
188.947
187.657
186.397
185.179
184.01
182.901
181.861
180.895
180.009
179.216
178.492
177.833
177.225
176.656
176.117
175.624
175.18
174.773
174.378
174
173.635
173.291
172.96
172.641
172.33
172.033
171.753
171.494
171.25
171.015
170.788
170.57
170.362
170.163
169.972
169.788
169.61
169.437
169.271
169.111
168.959
168.815
168.679
168.549
168.42
168.287
168.146
167.994
167.844
167.711
167.617
167.569
167.559
167.581
167.643
167.744
167.859
167.951
168
167.943
241.442
226.487
226.838
227.176
227.23
226.968
226.275
225.482
224.844
224.431
224.174
223.994
223.744
223.356
222.856
222.285
221.712
221.205
220.81
220.525
220.311
220.129
219.959
219.792
219.618
219.43
219.227
219.006
218.767
218.508
218.227
217.924
217.596
217.243
216.862
216.452
216.008
215.526
215.004
214.438
213.824
213.155
212.424
211.625
210.752
209.798
208.76
207.64
206.448
205.198
203.901
202.573
201.229
199.851
198.497
197.162
195.823
194.48
193.146
191.822
190.51
189.211
187.931
186.676
185.458
184.284
183.162
182.103
181.11
180.197
179.365
178.611
177.919
177.273
176.677
176.151
175.683
175.239
174.804
174.381
173.985
173.613
173.272
172.949
172.637
172.332
172.042
171.767
171.506
171.255
171.011
170.775
170.548
170.332
170.125
169.927
169.736
169.553
169.378
169.212
169.052
168.901
168.759
168.626
168.5
168.376
168.248
168.11
167.962
167.815
167.684
167.594
167.55
167.543
167.567
167.631
167.734
167.85
167.942
167.989
167.928
241.419
226.485
226.823
227.16
227.225
226.974
226.29
225.493
224.844
224.419
224.156
223.971
223.718
223.329
222.827
222.257
221.686
221.185
220.797
220.518
220.307
220.126
219.958
219.791
219.617
219.429
219.225
219.005
218.765
218.505
218.224
217.921
217.592
217.238
216.857
216.446
216.001
215.517
214.994
214.426
213.81
213.14
212.407
211.608
210.734
209.782
208.75
207.643
206.466
205.229
203.947
202.646
201.338
200.011
198.682
197.344
196.005
194.675
193.351
192.034
190.724
189.427
188.148
186.893
185.673
184.494
183.366
182.291
181.283
180.34
179.459
178.672
177.967
177.338
176.769
176.235
175.725
175.238
174.791
174.383
174.009
173.649
173.307
172.972
172.647
172.336
172.046
171.771
171.509
171.257
171.015
170.784
170.562
170.348
170.142
169.943
169.75
169.565
169.386
169.214
169.048
168.891
168.744
168.606
168.475
168.348
168.216
168.074
167.921
167.769
167.632
167.537
167.486
167.476
167.497
167.561
167.667
167.788
167.883
167.93
167.871
241.394
226.485
226.809
227.144
227.219
226.98
226.305
225.505
224.844
224.408
224.137
223.947
223.692
223.3
222.798
222.228
221.66
221.165
220.784
220.51
220.303
220.124
219.956
219.79
219.616
219.428
219.224
219.003
218.763
218.503
218.222
217.918
217.589
217.234
216.852
216.44
215.994
215.51
214.985
214.416
213.799
213.127
212.394
211.594
210.721
209.773
208.751
207.654
206.49
205.271
204.017
202.743
201.45
200.16
198.851
197.537
196.229
194.925
193.623
192.318
191.012
189.709
188.419
187.15
185.912
184.714
183.563
182.467
181.438
180.483
179.609
178.81
178.096
177.452
176.841
176.265
175.737
175.27
174.848
174.438
174.038
173.653
173.291
172.945
172.621
172.318
172.031
171.754
171.483
171.22
170.972
170.737
170.513
170.3
170.095
169.9
169.712
169.532
169.359
169.192
169.032
168.88
168.738
168.605
168.478
168.353
168.223
168.083
167.932
167.78
167.643
167.547
167.496
167.486
167.508
167.576
167.683
167.806
167.902
167.95
167.887
241.367
226.486
226.794
227.127
227.213
226.986
226.322
225.518
224.845
224.398
224.119
223.922
223.664
223.271
222.767
222.198
221.633
221.144
220.77
220.503
220.299
220.122
219.955
219.789
219.615
219.427
219.223
219.002
218.762
218.502
218.22
217.915
217.586
217.23
216.848
216.435
215.988
215.503
214.977
214.408
213.789
213.116
212.383
211.584
210.713
209.772
208.756
207.671
206.524
205.331
204.106
202.855
201.584
200.3
199.011
197.737
196.461
195.174
193.884
192.594
191.305
190.018
188.737
187.471
186.23
185.024
183.858
182.744
181.682
180.692
179.802
178.986
178.226
177.521
176.887
176.328
175.822
175.34
174.874
174.431
174.023
173.651
173.307
172.975
172.659
172.353
172.059
171.775
171.5
171.236
170.987
170.749
170.521
170.301
170.09
169.889
169.695
169.509
169.328
169.154
168.988
168.831
168.685
168.549
168.419
168.293
168.164
168.025
167.875
167.726
167.591
167.496
167.447
167.439
167.463
167.53
167.638
167.761
167.857
167.905
167.842
241.337
226.488
226.781
227.111
227.206
226.992
226.339
225.532
224.849
224.389
224.102
223.897
223.635
223.24
222.736
222.168
221.607
221.124
220.757
220.495
220.295
220.12
219.954
219.788
219.614
219.426
219.222
219.001
218.76
218.5
218.218
217.913
217.583
217.227
216.845
216.431
215.984
215.498
214.971
214.401
213.782
213.109
212.375
211.577
210.711
209.775
208.769
207.697
206.569
205.397
204.191
202.963
201.72
200.462
199.197
197.934
196.661
195.381
194.099
192.817
191.536
190.259
188.99
187.734
186.5
185.295
184.127
183.002
181.933
180.925
179.983
179.125
178.347
177.648
177.016
176.432
175.877
175.355
174.884
174.465
174.08
173.703
173.335
172.98
172.645
172.326
172.023
171.732
171.456
171.198
170.957
170.726
170.501
170.286
170.082
169.887
169.698
169.516
169.338
169.166
169.001
168.845
168.698
168.56
168.429
168.301
168.17
168.029
167.879
167.728
167.592
167.494
167.444
167.435
167.457
167.524
167.633
167.759
167.858
167.909
167.851
241.305
226.49
226.767
227.094
227.199
226.997
226.357
225.548
224.853
224.382
224.085
223.871
223.605
223.207
222.703
222.137
221.581
221.104
220.745
220.488
220.291
220.118
219.953
219.787
219.613
219.426
219.222
219
218.759
218.499
218.217
217.911
217.581
217.225
216.842
216.428
215.98
215.494
214.967
214.396
213.777
213.104
212.371
211.576
210.715
209.785
208.788
207.731
206.62
205.465
204.278
203.07
201.851
200.635
199.395
198.133
196.877
195.622
194.36
193.089
191.811
190.529
189.25
187.983
186.737
185.52
184.34
183.198
182.114
181.096
180.136
179.252
178.475
177.762
177.094
176.472
175.909
175.417
174.963
174.523
174.098
173.693
173.316
172.967
172.645
172.334
172.034
171.742
171.465
171.203
170.954
170.713
170.479
170.254
170.042
169.84
169.647
169.462
169.283
169.112
168.95
168.797
168.652
168.518
168.391
168.269
168.143
168.01
167.866
167.72
167.585
167.489
167.44
167.431
167.454
167.522
167.632
167.76
167.859
167.911
167.852
241.27
226.493
226.755
227.078
227.191
227.002
226.375
225.565
224.86
224.375
224.068
223.844
223.573
223.174
222.67
222.106
221.554
221.085
220.732
220.481
220.288
220.117
219.952
219.786
219.613
219.425
219.221
218.999
218.759
218.498
218.216
217.91
217.579
217.223
216.84
216.426
215.978
215.491
214.964
214.393
213.773
213.101
212.372
211.579
210.722
209.8
208.815
207.771
206.676
205.542
204.377
203.192
201.998
200.797
199.582
198.362
197.136
195.899
194.651
193.396
192.133
190.863
189.59
188.321
187.067
185.836
184.636
183.477
182.361
181.303
180.334
179.445
178.604
177.848
177.172
176.567
176.017
175.496
174.994
174.525
174.103
173.722
173.363
173.014
172.678
172.353
172.043
171.748
171.472
171.211
170.963
170.723
170.492
170.271
170.059
169.855
169.659
169.47
169.287
169.113
168.946
168.787
168.637
168.498
168.367
168.239
168.109
167.972
167.825
167.675
167.536
167.435
167.381
167.37
167.394
167.466
167.582
167.716
167.82
167.874
167.818
241.233
226.497
226.742
227.061
227.182
227.007
226.395
225.583
224.867
224.369
224.05
223.815
223.539
223.138
222.635
222.074
221.528
221.065
220.72
220.474
220.284
220.115
219.951
219.785
219.612
219.425
219.221
218.999
218.758
218.497
218.215
217.909
217.578
217.222
216.838
216.424
215.976
215.489
214.962
214.392
213.774
213.103
212.375
211.586
210.735
209.821
208.847
207.817
206.741
205.629
204.488
203.33
202.154
200.965
199.767
198.563
197.351
196.125
194.887
193.643
192.393
191.139
189.882
188.629
187.387
186.162
184.963
183.797
182.672
181.598
180.596
179.671
178.82
178.046
177.342
176.695
176.088
175.525
175.027
174.588
174.174
173.768
173.376
173.004
172.659
172.333
172.022
171.724
171.442
171.174
170.917
170.669
170.436
170.217
170.008
169.81
169.62
169.439
169.265
169.099
168.937
168.783
168.638
168.503
168.373
168.246
168.116
167.978
167.829
167.676
167.534
167.429
167.371
167.359
167.383
167.455
167.572
167.709
167.814
167.869
167.806
241.192
226.501
226.73
227.044
227.173
227.011
226.415
225.603
224.876
224.362
224.03
223.784
223.503
223.101
222.6
222.042
221.501
221.046
220.708
220.467
220.281
220.114
219.95
219.785
219.612
219.425
219.22
218.998
218.758
218.497
218.215
217.909
217.578
217.221
216.837
216.424
215.975
215.489
214.962
214.393
213.776
213.106
212.381
211.597
210.752
209.847
208.885
207.871
206.813
205.719
204.601
203.464
202.309
201.145
199.968
198.77
197.569
196.36
195.139
193.905
192.658
191.403
190.142
188.885
187.639
186.413
185.213
184.038
182.905
181.824
180.792
179.825
178.963
178.171
177.434
176.753
176.14
175.611
175.12
174.643
174.186
173.759
173.377
173.029
172.697
172.368
172.048
171.741
171.458
171.188
170.927
170.676
170.438
170.212
169.995
169.786
169.588
169.399
169.218
169.044
168.876
168.716
168.567
168.428
168.295
168.166
168.035
167.896
167.745
167.591
167.447
167.339
167.279
167.265
167.288
167.36
167.477
167.615
167.723
167.778
167.717
241.148
226.506
226.719
227.027
227.163
227.015
226.436
225.624
224.884
224.354
224.009
223.751
223.465
223.063
222.563
222.009
221.475
221.027
220.696
220.461
220.277
220.112
219.95
219.785
219.612
219.425
219.22
218.998
218.758
218.497
218.215
217.909
217.578
217.221
216.838
216.424
215.976
215.49
214.964
214.395
213.78
213.113
212.391
211.611
210.774
209.878
208.929
207.93
206.889
205.814
204.716
203.599
202.466
201.325
200.18
199.013
197.836
196.646
195.442
194.224
192.991
191.745
190.488
189.226
187.968
186.724
185.502
184.308
183.15
182.042
181.001
180.034
179.124
178.288
177.536
176.87
176.273
175.709
175.162
174.66
174.218
173.82
173.443
173.068
172.702
172.346
172.012
171.703
171.424
171.16
170.905
170.659
170.425
170.201
169.986
169.781
169.584
169.395
169.211
169.033
168.859
168.695
168.54
168.394
168.255
168.12
167.984
167.842
167.689
167.531
167.384
167.273
167.211
167.196
167.22
167.293
167.414
167.557
167.668
167.727
167.667
241.102
226.512
226.709
227.011
227.151
227.019
226.458
225.646
224.894
224.346
223.986
223.715
223.425
223.023
222.525
221.976
221.448
221.008
220.684
220.454
220.274
220.111
219.95
219.785
219.612
219.425
219.221
218.999
218.758
218.498
218.215
217.909
217.578
217.222
216.838
216.425
215.978
215.492
214.967
214.4
213.786
213.122
212.404
211.63
210.8
209.914
208.977
207.993
206.969
205.917
204.841
203.743
202.631
201.506
200.382
199.237
198.074
196.898
195.707
194.501
193.284
192.055
190.816
189.571
188.327
187.09
185.868
184.669
183.497
182.366
181.307
180.322
179.396
178.532
177.75
177.036
176.372
175.758
175.22
174.746
174.296
173.86
173.447
173.054
172.693
172.347
172.027
171.731
171.453
171.179
170.91
170.651
170.405
170.166
169.939
169.724
169.521
169.327
169.14
168.958
168.785
168.622
168.468
168.322
168.183
168.049
167.915
167.774
167.623
167.466
167.318
167.208
167.146
167.131
167.153
167.225
167.345
167.486
167.597
167.652
167.587
241.052
226.518
226.699
226.994
227.139
227.022
226.481
225.67
224.904
224.337
223.963
223.678
223.384
222.981
222.486
221.941
221.421
220.989
220.672
220.448
220.271
220.11
219.95
219.785
219.612
219.425
219.221
218.999
218.758
218.498
218.216
217.91
217.579
217.223
216.84
216.427
215.98
215.496
214.972
214.406
213.795
213.134
212.42
211.652
210.83
209.955
209.031
208.061
207.057
206.026
204.969
203.891
202.799
201.693
200.58
199.442
198.292
197.132
195.954
194.758
193.547
192.323
191.087
189.847
188.609
187.379
186.164
184.966
183.795
182.66
181.568
180.537
179.593
178.73
177.91
177.14
176.449
175.858
175.321
174.801
174.315
173.874
173.48
173.099
172.728
172.37
172.051
171.755
171.468
171.186
170.916
170.659
170.415
170.18
169.952
169.733
169.524
169.324
169.131
168.944
168.767
168.599
168.439
168.286
168.142
168.006
167.87
167.727
167.573
167.414
167.265
167.154
167.094
167.081
167.106
167.181
167.303
167.451
167.567
167.63
167.572
240.999
226.524
226.689
226.977
227.126
227.024
226.505
225.695
224.915
224.331
223.94
223.641
223.342
222.939
222.446
221.906
221.393
220.97
220.66
220.441
220.268
220.11
219.95
219.785
219.613
219.426
219.222
219
218.759
218.499
218.217
217.911
217.581
217.225
216.843
216.43
215.984
215.501
214.978
214.415
213.806
213.149
212.44
211.678
210.864
210
209.088
208.136
207.151
206.137
205.096
204.042
202.975
201.89
200.797
199.687
198.56
197.419
196.259
195.079
193.88
192.662
191.427
190.18
188.93
187.684
186.452
185.238
184.049
182.899
181.794
180.748
179.773
178.875
178.034
177.283
176.614
175.984
175.38
174.846
174.387
173.954
173.526
173.104
172.714
172.365
172.058
171.754
171.446
171.146
170.867
170.604
170.357
170.122
169.9
169.688
169.484
169.288
169.099
168.919
168.746
168.582
168.424
168.275
168.136
168.005
167.873
167.732
167.579
167.42
167.272
167.161
167.099
167.084
167.105
167.175
167.292
167.435
167.546
167.605
167.544
240.941
226.531
226.68
226.96
227.113
227.027
226.53
225.721
224.929
224.326
223.919
223.605
223.299
222.895
222.404
221.87
221.366
220.951
220.649
220.435
220.266
220.109
219.95
219.786
219.613
219.426
219.222
219
218.76
218.501
218.219
217.913
217.583
217.228
216.846
216.434
215.989
215.507
214.986
214.425
213.819
213.166
212.462
211.707
210.902
210.049
209.151
208.216
207.247
206.248
205.232
204.204
203.155
202.09
201.016
199.936
198.824
197.695
196.548
195.383
194.201
193.001
191.785
190.554
189.315
188.076
186.841
185.618
184.413
183.235
182.118
181.072
180.072
179.113
178.261
177.491
176.762
176.078
175.483
174.964
174.463
173.978
173.524
173.121
172.771
172.435
172.105
171.777
171.457
171.152
170.874
170.615
170.364
170.122
169.89
169.669
169.456
169.253
169.058
168.874
168.696
168.525
168.361
168.209
168.069
167.938
167.806
167.666
167.513
167.353
167.201
167.083
167.014
166.995
167.015
167.087
167.209
167.361
167.479
167.543
167.488
240.881
226.539
226.67
226.943
227.1
227.03
226.555
225.749
224.945
224.325
223.9
223.568
223.255
222.849
222.361
221.833
221.338
220.933
220.638
220.429
220.263
220.109
219.951
219.787
219.614
219.427
219.223
219.002
218.762
218.502
218.221
217.916
217.586
217.232
216.85
216.439
215.995
215.514
214.996
214.437
213.835
213.186
212.487
211.74
210.944
210.102
209.219
208.299
207.346
206.37
205.379
204.365
203.327
202.279
201.217
200.148
199.048
197.93
196.797
195.644
194.471
193.281
192.075
190.856
189.63
188.404
187.182
185.967
184.767
183.591
182.451
181.366
180.355
179.404
178.502
177.647
176.875
176.221
175.616
175.035
174.492
174.019
173.599
173.2
172.815
172.438
172.077
171.729
171.411
171.12
170.857
170.605
170.356
170.115
169.884
169.665
169.457
169.258
169.069
168.888
168.711
168.538
168.372
168.217
168.074
167.938
167.802
167.657
167.502
167.339
167.182
167.058
166.986
166.968
166.991
167.067
167.191
167.345
167.464
167.529
167.469
240.815
226.547
226.66
226.926
227.088
227.033
226.58
225.777
224.963
224.324
223.882
223.531
223.21
222.801
222.316
221.795
221.31
220.915
220.627
220.423
220.261
220.109
219.952
219.788
219.615
219.429
219.225
219.003
218.764
218.504
218.223
217.919
217.59
217.236
216.855
216.445
216.002
215.523
215.007
214.451
213.852
213.208
212.516
211.775
210.989
210.16
209.291
208.386
207.452
206.499
205.521
204.517
203.503
202.479
201.437
200.387
199.311
198.214
197.099
195.96
194.798
193.612
192.405
191.182
189.947
188.711
187.479
186.255
185.045
183.862
182.709
181.599
180.564
179.617
178.688
177.82
177.063
176.364
175.695
175.103
174.59
174.115
173.655
173.22
172.821
172.448
172.089
171.746
171.438
171.153
170.879
170.608
170.344
170.089
169.844
169.611
169.394
169.193
169.006
168.828
168.653
168.484
168.321
168.17
168.027
167.892
167.756
167.612
167.456
167.29
167.126
166.996
166.919
166.897
166.915
166.984
167.104
167.257
167.378
167.443
167.385
240.746
226.556
226.651
226.91
227.077
227.037
226.604
225.806
224.983
224.326
223.863
223.493
223.163
222.752
222.269
221.757
221.283
220.897
220.617
220.417
220.259
220.109
219.953
219.789
219.616
219.43
219.226
219.005
218.766
218.507
218.226
217.922
217.594
217.241
216.861
216.452
216.011
215.534
215.02
214.467
213.872
213.233
212.547
211.815
211.039
210.222
209.366
208.478
207.564
206.625
205.659
204.681
203.7
202.697
201.676
200.646
199.592
198.508
197.408
196.285
195.14
193.973
192.784
191.574
190.349
189.116
187.878
186.644
185.418
184.208
183.041
181.933
180.86
179.836
178.912
178.077
177.264
176.493
175.83
175.245
174.687
174.163
173.69
173.272
172.879
172.485
172.109
171.769
171.469
171.18
170.894
170.617
170.355
170.103
169.859
169.621
169.397
169.187
168.99
168.801
168.618
168.443
168.275
168.117
167.967
167.825
167.686
167.541
167.384
167.216
167.051
166.921
166.842
166.819
166.839
166.913
167.04
167.201
167.328
167.399
167.34
240.671
226.566
226.642
226.894
227.066
227.04
226.628
225.837
225.005
224.328
223.844
223.451
223.113
222.7
222.221
221.717
221.255
220.88
220.607
220.412
220.256
220.109
219.955
219.791
219.618
219.432
219.228
219.007
218.768
218.51
218.229
217.926
217.599
217.247
216.868
216.461
216.021
215.546
215.034
214.485
213.894
213.26
212.581
211.857
211.092
210.287
209.446
208.575
207.677
206.751
205.809
204.862
203.894
202.899
201.892
200.869
199.828
198.757
197.667
196.556
195.424
194.27
193.095
191.902
190.694
189.478
188.257
187.035
185.816
184.61
183.431
182.297
181.219
180.181
179.214
178.304
177.457
176.707
176.01
175.353
174.76
174.256
173.788
173.331
172.892
172.476
172.118
171.796
171.49
171.177
170.868
170.574
170.301
170.043
169.802
169.574
169.356
169.147
168.945
168.753
168.572
168.401
168.234
168.076
167.927
167.787
167.649
167.504
167.346
167.176
167.01
166.873
166.786
166.757
166.772
166.839
166.96
167.118
167.242
167.309
167.246
240.592
226.576
226.633
226.878
227.055
227.043
226.651
225.868
225.028
224.33
223.822
223.407
223.059
222.645
222.17
221.677
221.228
220.864
220.597
220.407
220.254
220.11
219.956
219.793
219.62
219.434
219.23
219.01
218.771
218.513
218.233
217.931
217.605
217.254
216.876
216.47
216.032
215.559
215.051
214.505
213.919
213.29
212.618
211.903
211.148
210.356
209.53
208.675
207.79
206.886
205.971
205.035
204.07
203.093
202.106
201.101
200.083
199.034
197.96
196.864
195.743
194.594
193.421
192.225
191.015
189.795
188.571
187.347
186.125
184.918
183.731
182.57
181.479
180.467
179.466
178.507
177.67
176.875
176.128
175.466
174.902
174.363
173.835
173.344
172.921
172.551
172.211
171.866
171.522
171.187
170.876
170.581
170.305
170.042
169.796
169.564
169.339
169.118
168.906
168.706
168.519
168.341
168.168
168.002
167.849
167.705
167.563
167.414
167.253
167.084
166.915
166.775
166.687
166.659
166.677
166.748
166.875
167.04
167.172
167.246
167.19
240.506
226.588
226.626
226.863
227.045
227.045
226.673
225.9
225.053
224.333
223.799
223.358
223.002
222.587
222.118
221.636
221.201
220.848
220.589
220.402
220.252
220.11
219.958
219.795
219.622
219.436
219.233
219.012
218.774
218.517
218.238
217.936
217.611
217.261
216.885
216.481
216.044
215.574
215.069
214.527
213.946
213.323
212.658
211.953
211.208
210.429
209.618
208.777
207.911
207.029
206.126
205.196
204.256
203.316
202.353
201.368
200.372
199.341
198.283
197.204
196.099
194.968
193.81
192.627
191.423
190.204
188.975
187.74
186.505
185.277
184.074
182.915
181.784
180.703
179.699
178.766
177.864
177.036
176.306
175.655
175.029
174.43
173.899
173.439
173.024
172.624
172.239
171.854
171.483
171.137
170.835
170.556
170.291
170.035
169.795
169.568
169.343
169.123
168.911
168.711
168.523
168.341
168.164
167.997
167.841
167.693
167.545
167.392
167.231
167.061
166.893
166.752
166.663
166.631
166.641
166.704
166.826
166.987
167.118
167.188
167.122
240.416
226.6
226.619
226.848
227.034
227.046
226.695
225.935
225.081
224.337
223.774
223.305
222.94
222.525
222.063
221.594
221.174
220.833
220.58
220.397
220.25
220.11
219.96
219.798
219.625
219.438
219.235
219.016
218.778
218.521
218.243
217.942
217.618
217.27
216.895
216.492
216.058
215.59
215.089
214.551
213.975
213.358
212.701
212.005
211.272
210.506
209.708
208.883
208.037
207.169
206.277
205.373
204.469
203.544
202.588
201.615
200.625
199.605
198.558
197.491
196.4
195.284
194.143
192.979
191.796
190.597
189.385
188.164
186.938
185.714
184.505
183.333
182.197
181.085
180.053
179.079
178.16
177.318
176.538
175.803
175.129
174.552
174.027
173.529
173.07
172.637
172.234
171.848
171.497
171.174
170.876
170.584
170.302
170.033
169.783
169.54
169.301
169.071
168.854
168.65
168.456
168.27
168.095
167.933
167.779
167.628
167.477
167.324
167.164
166.994
166.822
166.675
166.581
166.549
166.565
166.637
166.767
166.939
167.078
167.156
167.095
240.319
226.612
226.613
226.835
227.023
227.045
226.716
225.971
225.111
224.343
223.747
223.249
222.873
222.459
222.005
221.551
221.147
220.818
220.573
220.393
220.248
220.111
219.962
219.801
219.628
219.441
219.239
219.019
218.782
218.525
218.248
217.949
217.626
217.279
216.906
216.505
216.073
215.609
215.11
214.577
214.006
213.397
212.748
212.061
211.339
210.585
209.802
208.994
208.163
207.309
206.439
205.564
204.671
203.744
202.799
201.843
200.868
199.872
198.845
197.79
196.712
195.604
194.467
193.305
192.123
190.927
189.719
188.502
187.277
186.057
184.847
183.65
182.508
181.431
180.365
179.342
178.402
177.521
176.691
175.941
175.289
174.673
174.098
173.58
173.12
172.692
172.294
171.914
171.559
171.217
170.893
170.588
170.309
170.049
169.799
169.556
169.314
169.081
168.86
168.651
168.448
168.257
168.082
167.919
167.761
167.607
167.458
167.309
167.152
166.982
166.808
166.664
166.576
166.55
166.568
166.636
166.757
166.921
167.052
167.123
167.054
240.216
226.626
226.607
226.823
227.012
227.043
226.737
226.009
225.144
224.351
223.721
223.19
222.803
222.389
221.945
221.507
221.12
220.804
220.565
220.388
220.246
220.111
219.965
219.804
219.631
219.444
219.242
219.023
218.786
218.531
218.254
217.956
217.635
217.289
216.918
216.519
216.09
215.628
215.134
214.605
214.04
213.437
212.797
212.12
211.409
210.668
209.9
209.107
208.291
207.456
206.61
205.747
204.855
203.948
203.039
202.11
201.155
200.187
199.177
198.138