/*--------------------------------*- C++ -*----------------------------------*\
| =========                 |                                                 |
| \\      /  F ield         | OpenFOAM: The Open Source CFD Toolbox           |
|  \\    /   O peration     | Version:  2406                                  |
|   \\  /    A nd           | Website:  www.openfoam.com                      |
|    \\/     M anipulation  |                                                 |
\*---------------------------------------------------------------------------*/
FoamFile
{
    version     2.0;
    format      ascii;
    arch        "LSB;label=32;scalar=64";
    class       volScalarField;
    location    "0.011";
    object      T;
}
// * * * * * * * * * * * * * * * * * * * * * * * * * * * * * * * * * * * * * //

dimensions      [0 0 0 1 0 0 0];

internalField   nonuniform List<scalar> 
78650
(
223
223
223
223
223
223
223
223
223
223
223
223
223
223
223.001
223.034
223.335
224.216
225.198
225.698
225.752
225.706
225.482
225.212
224.98
224.767
224.559
224.354
224.159
223.978
223.813
223.662
223.521
223.386
223.257
223.13
223.006
222.884
222.768
222.657
222.552
222.454
222.362
222.275
222.195
222.123
222.058
221.994
221.923
221.842
221.781
221.772
221.866
222.059
222.184
222.207
222.172
222.076
221.957
221.835
221.707
221.565
221.408
221.236
221.047
220.838
220.608
220.353
220.071
219.761
219.421
219.048
218.64
218.194
217.711
217.19
216.626
216.014
215.352
214.644
213.889
213.087
212.232
211.328
210.376
209.382
208.341
207.257
206.134
204.976
203.792
202.592
201.367
200.157
198.955
197.768
196.589
195.409
194.265
193.167
192.091
191.049
190.043
189.075
188.175
187.299
186.447
185.631
184.856
184.139
183.498
182.897
182.341
181.816
181.344
180.938
180.589
180.299
180.059
179.893
179.28
223
223
223
223
223
223
223
223
223
223
223
223
223
223
223.001
223.019
223.233
224.012
225.06
225.684
225.787
225.774
225.597
225.331
225.088
224.867
224.658
224.456
224.266
224.091
223.931
223.784
223.645
223.512
223.383
223.258
223.135
223.016
222.902
222.796
222.697
222.605
222.519
222.44
222.367
222.302
222.244
222.19
222.129
222.058
221.997
221.982
222.065
222.273
222.439
222.488
222.475
222.413
222.317
222.213
222.103
221.984
221.852
221.707
221.547
221.369
221.172
220.953
220.71
220.442
220.145
219.817
219.458
219.066
218.638
218.172
217.662
217.107
216.509
215.868
215.181
214.444
213.655
212.816
211.93
210.999
210.014
208.983
207.904
206.789
205.638
204.457
203.241
202.006
200.791
199.577
198.384
197.18
195.996
194.849
193.728
192.638
191.612
190.608
189.66
188.755
187.873
187.043
186.25
185.495
184.793
184.115
183.473
182.854
182.28
181.767
181.331
180.971
180.692
180.47
179.8
223
223
223
223
223
223
223
223
223
223
223
223
223
223
223
223.01
223.153
223.81
224.889
225.641
225.817
225.843
225.708
225.449
225.193
224.966
224.757
224.56
224.376
224.206
224.052
223.908
223.77
223.638
223.51
223.385
223.264
223.148
223.038
222.937
222.844
222.758
222.679
222.607
222.541
222.483
222.433
222.386
222.336
222.275
222.218
222.198
222.271
222.49
222.697
222.775
222.779
222.745
222.673
222.587
222.497
222.399
222.291
222.171
222.037
221.889
221.723
221.538
221.331
221.1
220.843
220.559
220.246
219.902
219.523
219.108
218.654
218.16
217.628
217.054
216.431
215.757
215.033
214.262
213.446
212.583
211.667
210.708
209.701
208.658
207.581
206.459
205.307
204.106
202.923
201.716
200.525
199.31
198.102
196.901
195.74
194.587
193.496
192.425
191.385
190.414
189.445
188.53
187.652
186.795
185.997
185.212
184.478
183.783
183.135
182.554
182.05
181.647
181.355
181.163
180.547
223
223
223
223
223
223
223
223
223
223
223
223
223
223
223
223.005
223.093
223.615
224.678
225.565
225.843
225.91
225.813
225.568
225.301
225.07
224.863
224.671
224.493
224.328
224.177
224.035
223.898
223.765
223.637
223.514
223.395
223.282
223.177
223.081
222.994
222.914
222.842
222.776
222.717
222.666
222.622
222.582
222.542
222.491
222.439
222.416
222.474
222.694
222.94
223.059
223.081
223.067
223.02
222.956
222.885
222.809
222.722
222.626
222.518
222.398
222.263
222.111
221.939
221.746
221.53
221.289
221.022
220.725
220.397
220.036
219.641
219.209
218.738
218.223
217.66
217.049
216.394
215.693
214.944
214.145
213.291
212.389
211.433
210.436
209.393
208.309
207.181
206.014
204.82
203.618
202.415
201.212
200.002
198.786
197.605
196.42
195.255
194.13
193.011
191.959
190.934
189.956
189.045
188.149
187.309
186.474
185.68
184.916
184.208
183.56
182.969
182.455
182.031
181.697
180.863
223
223
223
223
223
223
223
223
223
223
223
223
223
223
223
223.002
223.052
223.438
224.439
225.449
225.856
225.972
225.906
225.684
225.412
225.178
224.973
224.787
224.614
224.454
224.306
224.164
224.027
223.894
223.766
223.644
223.528
223.419
223.319
223.228
223.147
223.074
223.008
222.949
222.897
222.852
222.814
222.781
222.749
222.709
222.664
222.638
222.683
222.896
223.18
223.346
223.389
223.388
223.366
223.324
223.272
223.215
223.149
223.076
222.994
222.9
222.794
222.672
222.533
222.375
222.196
221.995
221.769
221.517
221.237
220.927
220.585
220.208
219.793
219.336
218.836
218.296
217.714
217.086
216.41
215.682
214.903
214.077
213.199
212.274
211.295
210.276
209.212
208.102
206.943
205.753
204.542
203.33
202.093
200.842
199.604
198.367
197.134
195.957
194.777
193.645
192.555
191.479
190.48
189.484
188.538
187.624
186.753
185.933
185.179
184.5
183.909
183.402
182.988
182.698
181.756
223
223
223
223
223
223
223
223
223
223
223
223
223
223
223
223.001
223.026
223.289
224.172
225.284
225.855
226.031
225.983
225.8
225.53
225.295
225.092
224.911
224.744
224.587
224.439
224.296
224.158
224.025
223.898
223.778
223.665
223.561
223.466
223.381
223.306
223.239
223.179
223.126
223.079
223.04
223.008
222.981
222.957
222.927
222.89
222.864
222.895
223.091
223.405
223.623
223.699
223.709
223.704
223.684
223.654
223.616
223.572
223.52
223.461
223.393
223.314
223.223
223.116
222.993
222.851
222.689
222.506
222.299
222.066
221.806
221.517
221.194
220.837
220.443
220.012
219.544
219.032
218.472
217.863
217.204
216.499
215.744
214.936
214.078
213.168
212.222
211.227
210.19
209.103
207.969
206.818
205.645
204.466
203.256
202.043
200.817
199.584
198.378
197.174
195.981
194.868
193.742
192.673
191.622
190.605
189.623
188.665
187.741
186.864
186.051
185.323
184.69
184.176
183.769
182.784
223
223
223
223
223
223
223
223
223
223
223
223
223
223
223
223
223.012
223.173
223.899
225.063
225.822
226.079
226.051
225.917
225.657
225.418
225.217
225.042
224.878
224.722
224.573
224.429
224.289
224.156
224.032
223.915
223.806
223.707
223.617
223.538
223.469
223.408
223.353
223.306
223.265
223.231
223.204
223.183
223.166
223.146
223.118
223.094
223.114
223.288
223.621
223.895
224.013
224.04
224.045
224.044
224.034
224.016
223.992
223.961
223.924
223.88
223.827
223.763
223.686
223.595
223.487
223.361
223.217
223.051
222.862
222.649
222.408
222.138
221.838
221.505
221.136
220.729
220.279
219.782
219.241
218.657
218.027
217.348
216.614
215.828
214.991
214.111
213.174
212.19
211.145
210.054
208.921
207.761
206.583
205.369
204.127
202.869
201.607
200.349
199.121
197.884
196.702
195.52
194.374
193.268
192.192
191.174
190.172
189.216
188.304
187.445
186.665
185.961
185.358
184.875
183.656
223
223
223
223
223
223
223
223
223
223
223
223
223
223
223
223
223.005
223.093
223.639
224.784
225.732
226.106
226.118
226.032
225.789
225.548
225.352
225.181
225.018
224.86
224.708
224.562
224.423
224.291
224.169
224.056
223.953
223.859
223.775
223.701
223.637
223.581
223.531
223.489
223.453
223.424
223.402
223.386
223.375
223.364
223.345
223.326
223.337
223.486
223.825
224.152
224.319
224.371
224.386
224.398
224.407
224.409
224.405
224.394
224.379
224.358
224.329
224.292
224.245
224.185
224.11
224.02
223.914
223.788
223.643
223.476
223.284
223.067
222.821
222.545
222.235
221.889
221.503
221.079
220.616
220.111
219.561
218.962
218.31
217.61
216.861
216.062
215.208
214.308
213.352
212.349
211.294
210.203
209.079
207.922
206.72
205.497
204.269
203.011
201.76
200.456
199.19
197.939
196.686
195.492
194.298
193.183
192.085
191.023
190.005
189.051
188.206
187.442
186.781
186.235
184.775
223
223
223
223
223
223
223
223
223
223
223
223
223
223
223
223
223.002
223.044
223.415
224.46
225.575
226.106
226.191
226.133
225.923
225.687
225.495
225.322
225.157
224.996
224.842
224.696
224.557
224.428
224.31
224.202
224.103
224.015
223.936
223.868
223.808
223.756
223.711
223.673
223.642
223.618
223.6
223.589
223.583
223.58
223.572
223.559
223.565
223.688
224.02
224.397
224.621
224.703
224.733
224.756
224.78
224.8
224.814
224.822
224.827
224.828
224.823
224.811
224.791
224.759
224.715
224.658
224.586
224.498
224.392
224.267
224.12
223.951
223.757
223.534
223.282
222.998
222.68
222.328
221.937
221.504
221.026
220.5
219.927
219.306
218.633
217.904
217.122
216.295
215.414
214.482
213.49
212.455
211.38
210.266
209.116
207.932
206.739
205.509
204.257
202.983
201.722
200.513
199.288
198.094
196.881
195.706
194.573
193.452
192.352
191.274
190.313
189.453
188.741
188.151
186.905
223
223
223
223
223
223
223
223
223
223
223
223
223
223
223
223
223
223.018
223.241
224.116
225.34
226.08
226.242
226.222
226.064
225.84
225.641
225.461
225.292
225.13
224.976
224.831
224.696
224.57
224.457
224.353
224.259
224.176
224.102
224.038
223.982
223.933
223.892
223.857
223.83
223.81
223.796
223.79
223.789
223.793
223.795
223.79
223.795
223.894
224.207
224.624
224.91
225.03
225.076
225.109
225.146
225.183
225.215
225.242
225.266
225.287
225.305
225.316
225.321
225.318
225.304
225.279
225.241
225.189
225.122
225.038
224.936
224.813
224.668
224.499
224.303
224.078
223.822
223.533
223.207
222.839
222.432
221.982
221.49
220.951
220.36
219.716
219.024
218.29
217.502
216.66
215.751
214.792
213.781
212.733
211.64
210.501
209.314
208.089
206.825
205.556
204.259
202.974
201.666
200.36
199.048
197.723
196.486
195.272
194.135
192.981
191.902
190.901
190.035
189.344
187.726
223
223
223
223
223
223
223
223
223
223
223
223
223
223
223
223
223
223.007
223.124
223.784
225.033
225.992
226.268
226.309
226.207
225.994
225.781
225.594
225.426
225.266
225.113
224.97
224.837
224.716
224.606
224.508
224.418
224.339
224.268
224.207
224.154
224.109
224.07
224.039
224.016
223.999
223.99
223.988
223.992
224.004
224.015
224.019
224.027
224.106
224.39
224.836
225.187
225.353
225.419
225.463
225.511
225.563
225.611
225.655
225.697
225.738
225.776
225.81
225.838
225.86
225.873
225.877
225.87
225.851
225.82
225.774
225.711
225.632
225.532
225.412
225.269
225.1
224.903
224.677
224.416
224.121
223.792
223.425
223.018
222.564
222.06
221.509
220.913
220.27
219.57
218.815
217.996
217.126
216.206
215.247
214.237
213.173
212.058
210.908
209.741
208.537
207.302
206.02
204.756
203.481
202.241
200.923
199.648
198.387
197.214
196.006
194.886
193.822
192.862
192.05
190.229
223
223
223
223
223
223
223
223
223
223
223
223
223
223
223
223
223
223.002
223.056
223.498
224.663
225.825
226.276
226.402
226.331
226.137
225.917
225.729
225.562
225.403
225.252
225.111
224.982
224.865
224.761
224.666
224.58
224.503
224.436
224.377
224.325
224.282
224.246
224.218
224.197
224.185
224.18
224.182
224.192
224.209
224.229
224.243
224.256
224.32
224.57
225.03
225.448
225.667
225.757
225.812
225.869
225.935
225.998
226.057
226.116
226.175
226.232
226.287
226.338
226.384
226.423
226.454
226.477
226.49
226.493
226.483
226.46
226.422
226.366
226.293
226.199
226.083
225.943
225.776
225.579
225.351
225.092
224.796
224.461
224.082
223.659
223.192
222.679
222.115
221.497
220.827
220.1
219.321
218.486
217.605
216.665
215.669
214.614
213.519
212.387
211.215
209.987
208.704
207.41
206.125
204.84
203.526
202.176
200.824
199.524
198.298
197.192
196.1
195.133
194.316
192.441
223
223
223
223
223
223
223
223
223
223
223
223
223
223
223
223
223
223.001
223.021
223.282
224.265
225.573
226.261
226.474
226.43
226.275
226.056
225.867
225.7
225.541
225.392
225.254
225.13
225.018
224.917
224.825
224.74
224.665
224.598
224.54
224.491
224.449
224.416
224.391
224.374
224.365
224.364
224.372
224.386
224.409
224.437
224.461
224.481
224.536
224.751
225.21
225.69
225.971
226.091
226.156
226.223
226.3
226.377
226.451
226.525
226.6
226.675
226.749
226.821
226.889
226.952
227.009
227.059
227.101
227.133
227.156
227.167
227.168
227.152
227.123
227.076
227.008
226.921
226.81
226.674
226.511
226.318
226.092
225.831
225.532
225.195
224.817
224.392
223.918
223.397
222.832
222.214
221.544
220.814
220.031
219.192
218.302
217.354
216.354
215.304
214.211
213.069
211.871
210.628
209.367
208.097
206.823
205.477
204.104
202.691
201.332
200.023
198.822
197.674
196.642
194.415
223
223
223
223
223
223
223
223
223
223
223
223
223
223
223
223
223
223
223.007
223.141
223.884
225.24
226.198
226.516
226.51
226.409
226.202
226.006
225.834
225.679
225.535
225.402
225.282
225.172
225.072
224.98
224.896
224.82
224.755
224.698
224.651
224.611
224.58
224.558
224.545
224.541
224.544
224.555
224.574
224.603
224.639
224.673
224.7
224.75
224.933
225.378
225.914
226.263
226.417
226.495
226.568
226.654
226.744
226.832
226.919
227.009
227.1
227.191
227.282
227.371
227.457
227.538
227.614
227.683
227.745
227.799
227.843
227.878
227.901
227.912
227.91
227.888
227.851
227.793
227.712
227.607
227.476
227.316
227.127
226.905
226.648
226.352
226.012
225.628
225.204
224.736
224.217
223.643
223.007
222.316
221.574
220.785
219.935
219.021
218.045
217.026
215.964
214.855
213.685
212.467
211.226
209.97
208.704
207.382
206.023
204.654
203.319
202.134
201.024
200.091
198.185
223
223
223
223
223
223
223
223
223
223
223
223
223
223
223
223
223
223
223.002
223.062
223.562
224.846
226.045
226.524
226.598
226.532
226.339
226.137
225.968
225.82
225.68
225.55
225.43
225.319
225.218
225.126
225.042
224.968
224.904
224.849
224.804
224.767
224.739
224.72
224.71
224.709
224.718
224.733
224.757
224.79
224.833
224.877
224.914
224.962
225.116
225.535
226.117
226.539
226.735
226.827
226.905
226.999
227.101
227.2
227.301
227.403
227.509
227.616
227.724
227.832
227.938
228.041
228.14
228.234
228.323
228.405
228.48
228.547
228.604
228.651
228.686
228.708
228.716
228.708
228.68
228.632
228.56
228.464
228.342
228.192
228.009
227.789
227.531
227.235
226.899
226.52
226.092
225.612
225.075
224.488
223.852
223.167
222.419
221.608
220.735
219.814
218.847
217.831
216.747
215.6
214.396
213.161
211.902
210.617
209.288
207.898
206.493
205.102
203.792
202.629
200.373
223
223
223
223
223
223
223
223
223
223
223
223
223
223
223
223
223
223
223.001
223.024
223.324
224.431
225.807
226.507
226.677
226.631
226.466
226.268
226.108
225.962
225.822
225.69
225.568
225.457
225.356
225.264
225.182
225.109
225.046
224.993
224.951
224.916
224.892
224.875
224.869
224.872
224.885
224.904
224.933
224.971
225.02
225.074
225.119
225.169
225.3
225.686
226.302
226.8
227.044
227.151
227.233
227.333
227.444
227.554
227.666
227.781
227.899
228.02
228.144
228.268
228.393
228.516
228.636
228.753
228.866
228.974
229.077
229.174
229.264
229.345
229.417
229.478
229.527
229.562
229.582
229.586
229.568
229.532
229.472
229.385
229.272
229.126
228.948
228.737
228.488
228.199
227.867
227.492
227.069
226.597
226.072
225.495
224.86
224.171
223.422
222.616
221.753
220.838
219.862
218.827
217.726
216.58
215.393
214.182
212.941
211.675
210.388
209.12
207.825
206.731
204.57
223
223
223
223
223
223
223
223
223
223
223
223
223
223
223
223
223
223
223
223.008
223.169
224.037
225.501
226.462
226.722
226.708
226.587
226.407
226.245
226.094
225.952
225.818
225.696
225.586
225.486
225.396
225.315
225.243
225.182
225.132
225.091
225.06
225.039
225.026
225.022
225.03
225.045
225.069
225.102
225.145
225.2
225.262
225.317
225.369
225.483
225.834
226.471
227.045
227.341
227.466
227.552
227.654
227.773
227.894
228.015
228.141
228.271
228.404
228.542
228.681
228.822
228.962
229.102
229.239
229.374
229.506
229.634
229.758
229.876
229.988
230.093
230.19
230.277
230.353
230.415
230.464
230.497
230.513
230.514
230.486
230.44
230.366
230.262
230.129
229.961
229.757
229.516
229.235
228.911
228.537
228.109
227.631
227.102
226.524
225.884
225.182
224.418
223.6
222.728
221.799
220.805
219.752
218.636
217.478
216.269
215.027
213.749
212.448
211.139
209.894
207.693
223
223
223
223
223
223
223
223
223
223
223
223
223
223
223
223
223
223
223
223.003
223.081
223.705
225.148
226.357
226.732
226.789
226.712
226.541
226.366
226.211
226.07
225.937
225.818
225.71
225.611
225.522
225.441
225.371
225.312
225.264
225.226
225.199
225.181
225.172
225.171
225.183
225.201
225.229
225.266
225.313
225.373
225.442
225.506
225.563
225.665
225.982
226.63
227.275
227.628
227.772
227.86
227.962
228.087
228.216
228.346
228.481
228.622
228.767
228.916
229.069
229.224
229.38
229.536
229.691
229.846
229.999
230.15
230.298
230.442
230.582
230.717
230.845
230.966
231.079
231.182
231.273
231.351
231.414
231.463
231.494
231.506
231.497
231.461
231.4
231.307
231.184
231.029
230.838
230.607
230.331
230.01
229.642
229.227
228.762
228.24
227.66
227.022
226.329
225.582
224.778
223.913
222.983
221.986
220.936
219.824
218.685
217.498
216.314
215.084
213.876
211.825
223
223
223
223
223
223
223
223
223
223
223
223
223
223
223
223
223
223
223
223.001
223.037
223.454
224.782
226.19
226.727
226.879
226.819
226.657
226.473
226.317
226.18
226.052
225.935
225.828
225.729
225.639
225.559
225.491
225.434
225.39
225.356
225.333
225.318
225.313
225.315
225.33
225.351
225.382
225.423
225.475
225.539
225.613
225.685
225.747
225.841
226.129
226.781
227.494
227.903
228.067
228.155
228.257
228.386
228.521
228.658
228.801
228.951
229.106
229.267
229.432
229.599
229.769
229.94
230.112
230.283
230.455
230.625
230.794
230.962
231.126
231.287
231.444
231.595
231.74
231.878
232.006
232.125
232.232
232.328
232.409
232.473
232.52
232.546
232.553
232.531
232.485
232.41
232.301
232.16
231.981
231.762
231.499
231.19
230.832
230.423
229.964
229.447
228.872
228.239
227.547
226.798
225.985
225.112
224.176
223.181
222.142
221.049
219.951
218.778
217.613
215.765
223
223
223
223
223
223
223
223
223
223
223
223
223
223
223
223
223
223
223
223
223.016
223.282
224.436
225.982
226.721
226.951
226.903
226.757
226.57
226.416
226.286
226.163
226.046
225.937
225.836
225.746
225.667
225.602
225.55
225.51
225.481
225.461
225.45
225.448
225.453
225.47
225.494
225.529
225.573
225.629
225.696
225.776
225.855
225.922
226.011
226.277
226.931
227.707
228.169
228.35
228.438
228.537
228.669
228.81
228.952
229.101
229.259
229.423
229.593
229.769
229.948
230.13
230.314
230.5
230.686
230.873
231.061
231.248
231.436
231.622
231.805
231.987
232.164
232.338
232.506
232.668
232.822
232.968
233.104
233.229
233.342
233.44
233.521
233.584
233.628
233.649
233.651
233.617
233.561
233.468
233.341
233.174
232.964
232.71
232.409
232.062
231.658
231.201
230.684
230.111
229.48
228.788
228.037
227.217
226.341
225.402
224.419
223.401
222.345
221.197
219.596
223
223
223
223
223
223
223
223
223
223
223
223
223
223
223
223
223
223
223
223
223.007
223.174
224.141
225.757
226.706
227.002
226.966
226.842
226.661
226.514
226.389
226.266
226.146
226.033
225.93
225.842
225.767
225.707
225.659
225.623
225.598
225.581
225.573
225.573
225.582
225.601
225.629
225.667
225.715
225.773
225.845
225.929
226.014
226.085
226.171
226.422
227.085
227.92
228.427
228.62
228.706
228.802
228.935
229.081
229.227
229.38
229.544
229.715
229.894
230.079
230.269
230.462
230.658
230.856
231.055
231.256
231.458
231.662
231.866
232.07
232.274
232.476
232.676
232.875
233.069
233.26
233.445
233.623
233.795
233.959
234.113
234.256
234.387
234.503
234.603
234.683
234.746
234.785
234.802
234.793
234.749
234.676
234.565
234.416
234.225
233.991
233.707
233.376
232.989
232.548
232.048
231.491
230.872
230.19
229.449
228.642
227.79
226.884
225.936
224.871
223.399
223
223
223
223
223
223
223
223
223
223
223
223
223
223
223
223
223
223
223
223
223.004
223.11
223.909
225.541
226.676
227.036
227.019
226.923
226.753
226.605
226.48
226.354
226.229
226.114
226.014
225.93
225.861
225.805
225.761
225.727
225.704
225.689
225.683
225.685
225.698
225.719
225.751
225.792
225.844
225.907
225.983
226.071
226.161
226.235
226.319
226.565
227.249
228.137
228.68
228.877
228.958
229.049
229.184
229.334
229.483
229.64
229.808
229.985
230.17
230.363
230.561
230.764
230.971
231.18
231.391
231.604
231.819
232.036
232.254
232.474
232.694
232.915
233.134
233.353
233.57
233.785
233.996
234.202
234.404
234.601
234.791
234.973
235.144
235.306
235.454
235.589
235.709
235.811
235.893
235.954
235.991
236.003
235.982
235.928
235.836
235.702
235.527
235.304
235.03
234.704
234.318
233.877
233.371
232.805
232.177
231.485
230.745
229.953
229.126
228.189
226.901
223
223
223
223
223
223
223
223
223
223
223
223
223
223
223
223
223
223
223
223
223.002
223.074
223.742
225.357
226.635
227.057
227.073
227.001
226.834
226.684
226.556
226.426
226.297
226.185
226.092
226.013
225.948
225.895
225.851
225.818
225.795
225.781
225.776
225.779
225.797
225.822
225.858
225.904
225.961
226.028
226.108
226.201
226.294
226.37
226.453
226.706
227.428
228.366
228.93
229.123
229.193
229.278
229.414
229.567
229.72
229.881
230.052
230.233
230.423
230.621
230.827
231.038
231.254
231.472
231.694
231.917
232.143
232.372
232.603
232.835
233.069
233.305
233.54
233.776
234.012
234.246
234.479
234.709
234.937
235.161
235.38
235.594
235.801
236
236.19
236.371
236.539
236.695
236.836
236.959
237.062
237.143
237.199
237.229
237.233
237.193
237.125
237.012
236.854
236.651
236.394
236.086
235.715
235.289
234.797
234.242
233.629
232.952
232.23
231.394
230.236
223
223
223
223
223
223
223
223
223
223
223
223
223
223
223
223
223
223
223
223
223.001
223.056
223.633
225.219
226.6
227.075
227.128
227.067
226.903
226.748
226.615
226.481
226.353
226.249
226.164
226.09
226.026
225.973
225.929
225.894
225.87
225.856
225.852
225.858
225.879
225.909
225.95
226.002
226.063
226.135
226.22
226.318
226.413
226.488
226.574
226.848
227.631
228.611
229.175
229.355
229.412
229.489
229.624
229.781
229.937
230.101
230.277
230.461
230.655
230.858
231.069
231.286
231.509
231.735
231.965
232.198
232.433
232.672
232.913
233.156
233.402
233.65
233.899
234.149
234.399
234.65
234.901
235.15
235.398
235.644
235.888
236.128
236.364
236.594
236.818
237.036
237.245
237.444
237.633
237.809
237.971
238.117
238.244
238.349
238.433
238.488
238.517
238.516
238.465
238.382
238.247
238.062
237.817
237.517
237.146
236.718
236.221
235.664
235.053
234.333
233.319
223
223
223
223
223
223
223
223
223
223
223
223
223
223
223
223
223
223
223
223
223.001
223.048
223.577
225.141
226.588
227.099
227.178
227.12
226.958
226.798
226.66
226.523
226.4
226.305
226.228
226.156
226.094
226.04
225.993
225.957
225.93
225.915
225.912
225.922
225.947
225.981
226.028
226.084
226.151
226.227
226.317
226.42
226.516
226.589
226.68
226.999
227.867
228.875
229.412
229.571
229.614
229.684
229.818
229.976
230.133
230.301
230.481
230.669
230.867
231.074
231.289
231.511
231.739
231.971
232.208
232.448
232.691
232.938
233.188
233.441
233.696
233.954
234.214
234.475
234.738
235.002
235.267
235.531
235.795
236.059
236.322
236.583
236.842
237.097
237.348
237.595
237.837
238.072
238.3
238.52
238.729
238.926
239.11
239.279
239.43
239.561
239.666
239.747
239.797
239.817
239.799
239.734
239.626
239.463
239.238
238.958
238.6
238.181
237.681
237.083
236.211
223
223
223
223
223
223
223
223
223
223
223
223
223
223
223
223
223
223
223
223
223.001
223.046
223.565
225.126
226.599
227.132
227.22
227.162
227
226.836
226.695
226.558
226.439
226.351
226.278
226.21
226.148
226.093
226.045
226.007
225.979
225.964
225.962
225.976
226.003
226.042
226.093
226.153
226.224
226.306
226.401
226.507
226.602
226.673
226.777
227.171
228.145
229.159
229.638
229.765
229.797
229.863
229.998
230.155
230.312
230.481
230.665
230.857
231.059
231.271
231.49
231.716
231.948
232.186
232.427
232.673
232.922
233.175
233.432
233.692
233.956
234.222
234.49
234.761
235.034
235.308
235.584
235.86
236.137
236.415
236.693
236.97
237.246
237.521
237.793
238.063
238.329
238.592
238.851
239.103
239.349
239.587
239.816
240.034
240.24
240.433
240.609
240.768
240.904
241.016
241.101
241.151
241.17
241.139
241.059
240.927
240.723
240.464
240.092
239.652
238.931
223
223
223
223
223
223
223
223
223
223
223
223
223
223
223
223
223
223
223
223
223.001
223.048
223.579
225.162
226.639
227.171
227.253
227.19
227.03
226.866
226.724
226.587
226.471
226.383
226.313
226.248
226.187
226.134
226.087
226.05
226.021
226.006
226.006
226.022
226.052
226.094
226.147
226.212
226.286
226.372
226.473
226.581
226.672
226.741
226.873
227.383
228.47
229.455
229.852
229.936
229.956
230.022
230.163
230.32
230.476
230.646
230.831
231.027
231.233
231.449
231.673
231.903
232.14
232.381
232.627
232.876
233.13
233.389
233.651
233.917
234.187
234.459
234.735
235.013
235.294
235.576
235.861
236.147
236.433
236.722
237.011
237.301
237.59
237.879
238.167
238.454
238.74
239.023
239.304
239.582
239.855
240.124
240.386
240.642
240.89
241.129
241.357
241.573
241.774
241.958
242.124
242.266
242.383
242.467
242.52
242.536
242.5
242.419
242.233
242.023
241.534
223
223
223
223
223
223
223
223
223
223
223
223
223
223
223
223
223
223
223
223
223.001
223.055
223.637
225.27
226.715
227.217
227.279
227.205
227.046
226.888
226.748
226.612
226.494
226.403
226.332
226.27
226.213
226.162
226.119
226.085
226.059
226.045
226.047
226.064
226.096
226.14
226.196
226.262
226.34
226.431
226.536
226.642
226.726
226.797
226.984
227.658
228.843
229.745
230.053
230.087
230.092
230.16
230.31
230.469
230.625
230.797
230.984
231.181
231.39
231.61
231.838
232.073
232.314
232.559
232.809
233.062
233.32
233.582
233.849
234.119
234.394
234.672
234.954
235.238
235.524
235.814
236.105
236.398
236.693
236.989
237.287
237.586
237.885
238.185
238.485
238.784
239.083
239.382
239.679
239.974
240.267
240.557
240.843
241.125
241.402
241.673
241.938
242.194
242.442
242.68
242.905
243.116
243.31
243.481
243.625
243.744
243.847
243.917
243.937
243.934
243.769
223
223
223
223
223
223
223
223
223
223
223
223
223
223
223
223
223
223
223
223
223.002
223.071
223.743
225.431
226.808
227.263
227.297
227.207
227.049
226.901
226.765
226.632
226.51
226.413
226.338
226.277
226.224
226.179
226.14
226.111
226.09
226.079
226.085
226.103
226.136
226.182
226.239
226.308
226.388
226.483
226.59
226.69
226.766
226.85
227.132
228.012
229.251
230.006
230.226
230.223
230.211
230.28
230.44
230.601
230.76
230.935
231.124
231.324
231.535
231.757
231.989
232.228
232.473
232.723
232.976
233.233
233.494
233.76
234.03
234.304
234.583
234.865
235.151
235.44
235.732
236.026
236.323
236.622
236.922
237.225
237.529
237.835
238.142
238.449
238.757
239.065
239.374
239.682
239.99
240.297
240.602
240.906
241.207
241.506
241.801
242.093
242.38
242.661
242.937
243.207
243.469
243.722
243.964
244.19
244.395
244.58
244.749
244.91
245.075
245.186
245.248
223
223
223
223
223
223
223
223
223
223
223
223
223
223
223
223
223
223
223
223
223.003
223.101
223.899
225.637
226.91
227.307
227.311
227.2
227.04
226.902
226.773
226.644
226.521
226.417
226.336
226.274
226.224
226.183
226.151
226.128
226.112
226.107
226.116
226.138
226.173
226.22
226.278
226.348
226.431
226.53
226.635
226.726
226.795
226.912
227.353
228.454
229.665
230.236
230.354
230.336
230.316
230.389
230.556
230.718
230.879
231.059
231.252
231.455
231.668
231.893
232.128
232.37
232.619
232.872
233.129
233.389
233.654
233.922
234.195
234.473
234.755
235.04
235.33
235.622
235.918
236.216
236.517
236.82
237.125
237.432
237.742
238.052
238.364
238.676
238.989
239.303
239.617
239.932
240.246
240.559
240.872
241.182
241.491
241.797
242.101
242.402
242.7
242.993
243.279
243.56
243.834
244.101
244.359
244.604
244.833
245.048
245.253
245.463
245.665
245.819
245.943
223
223
223
223
223
223
223
223
223
223
223
223
223
223
223
223
223
223
223
223
223.006
223.151
224.107
225.873
227.01
227.346
227.321
227.186
227.021
226.889
226.769
226.646
226.527
226.42
226.333
226.266
226.215
226.178
226.15
226.134
226.125
226.124
226.14
226.164
226.202
226.251
226.311
226.383
226.47
226.57
226.669
226.748
226.82
227.009
227.683
228.965
230.037
230.439
230.45
230.411
230.403
230.49
230.662
230.821
230.983
231.167
231.366
231.573
231.79
232.018
232.255
232.5
232.751
233.007
233.267
233.531
233.799
234.07
234.346
234.626
234.911
235.199
235.491
235.787
236.085
236.386
236.69
236.996
237.303
237.614
237.926
238.239
238.553
238.868
239.183
239.499
239.816
240.132
240.447
240.762
241.076
241.388
241.698
242.004
242.306
242.606
242.902
243.193
243.479
243.759
244.03
244.287
244.529
244.754
244.957
245.145
245.319
245.494
245.651
245.767
245.838
223
223
223
223
223
223
223
223
223
223
223
223
223
223
223
223
223
223
223
223
223.011
223.228
224.366
226.123
227.098
227.375
227.329
227.169
226.997
226.864
226.749
226.635
226.524
226.42
226.33
226.259
226.206
226.168
226.143
226.131
226.127
226.132
226.153
226.182
226.222
226.273
226.335
226.41
226.5
226.599
226.688
226.759
226.853
227.176
228.139
229.498
230.332
230.583
230.534
230.463
230.472
230.581
230.758
230.915
231.077
231.265
231.467
231.678
231.9
232.131
232.371
232.619
232.872
233.13
233.392
233.658
233.928
234.202
234.48
234.763
235.05
235.34
235.634
235.931
236.231
236.535
236.84
237.147
237.456
237.767
238.08
238.394
238.709
239.023
239.338
239.653
239.967
240.283
240.596
240.907
241.216
241.524
241.828
242.131
242.431
242.722
243.003
243.275
243.534
243.782
244.016
244.234
244.437
244.619
244.777
244.914
245.034
245.141
245.217
245.247
245.187
223
223
223
223
223
223
223
223
223
223
223
223
223
223
223
223
223
223
223
223
223.021
223.342
224.67
226.371
227.173
227.388
227.327
227.15
226.971
226.833
226.715
226.608
226.508
226.412
226.325
226.253
226.197
226.159
226.135
226.123
226.123
226.132
226.157
226.189
226.233
226.287
226.352
226.431
226.523
226.616
226.696
226.767
226.917
227.465
228.707
229.986
230.562
230.651
230.583
230.506
230.531
230.663
230.842
230.998
231.162
231.352
231.557
231.771
231.997
232.232
232.475
232.725
232.98
233.24
233.504
233.772
234.044
234.32
234.6
234.883
235.171
235.463
235.757
236.055
236.356
236.659
236.965
237.272
237.58
237.891
238.203
238.515
238.827
239.139
239.451
239.762
240.071
240.381
240.688
240.995
241.299
241.597
241.886
242.166
242.438
242.697
242.948
243.189
243.416
243.63