/*--------------------------------*- C++ -*----------------------------------*\
| =========                 |                                                 |
| \\      /  F ield         | OpenFOAM: The Open Source CFD Toolbox           |
|  \\    /   O peration     | Version:  2412                                  |
|   \\  /    A nd           | Website:  www.openfoam.com                      |
|    \\/     M anipulation  |                                                 |
\*---------------------------------------------------------------------------*/
FoamFile
{
    version     2.0;
    format      ascii;
    arch        "LSB;label=32;scalar=64";
    class       volScalarField;
    location    "0.104";
    object      rho;
}
// * * * * * * * * * * * * * * * * * * * * * * * * * * * * * * * * * * * * * //

dimensions      [1 -3 0 0 0 0 0];

internalField   nonuniform List<scalar> 
9816
(
0.0440268
0.0440307
0.0440334
0.0440349
0.0440354
0.0440349
0.0440335
0.044031
0.0440276
0.0440232
0.0440181
0.0440121
0.0440054
0.0439981
0.0439902
0.0439818
0.043973
0.0439633
0.0439553
0.0439461
0.0439379
0.0439294
0.0439211
0.0439126
0.0439038
0.0438943
0.0438835
0.0438706
0.0438556
0.043839
0.0438202
0.0437964
0.0437634
0.0437208
0.0436659
0.0436039
0.0435317
0.0434582
0.043377
0.0432998
0.0432174
0.0431526
0.0432842
0.0432742
0.0432637
0.0432532
0.0432424
0.0432317
0.0432207
0.0432096
0.0431986
0.0431874
0.0431762
0.043165
0.043154
0.0431429
0.043133
0.0431231
0.0431155
0.043108
0.043102
0.0430968
0.0430921
0.0430873
0.0430815
0.0430739
0.0430653
0.0430548
0.0430418
0.0430173
0.0429819
0.0429303
0.0428694
0.0427977
0.042725
0.0426498
0.0425812
0.0425166
0.0424635
0.0424186
0.0423876
0.0423655
0.0423547
0.0423459
0.0429452
0.0429364
0.0429276
0.0429191
0.0429108
0.0429026
0.0428947
0.042887
0.0428794
0.0428721
0.0428649
0.0428576
0.0428523
0.0428464
0.0428418
0.0428379
0.0428346
0.0428316
0.0428283
0.0428242
0.0428186
0.0428126
0.0428048
0.0427933
0.0427746
0.0427479
0.0427101
0.0426624
0.0426048
0.0425401
0.0424697
0.0423983
0.0423328
0.0422762
0.042226
0.0421976
0.0421896
0.0421781
0.042162
0.0421575
0.0421606
0.0421681
0.0427424
0.0427362
0.04273
0.0427242
0.0427184
0.0427124
0.0427073
0.0427015
0.042697
0.042692
0.0426874
0.0426832
0.0426795
0.0426764
0.0426738
0.0426714
0.0426688
0.0426655
0.0426612
0.0426564
0.04265
0.042641
0.0426267
0.0426059
0.0425752
0.0425342
0.0424818
0.0424207
0.0423522
0.0422826
0.0422178
0.0421596
0.0421111
0.0420874
0.0420745
0.0420566
0.0420452
0.042045
0.0420481
0.0420529
0.0420609
0.0420687
0.0426114
0.0426062
0.042602
0.0425974
0.0425931
0.0425887
0.0425845
0.0425804
0.0425763
0.0425726
0.0425692
0.0425664
0.0425639
0.0425619
0.0425599
0.0425577
0.0425547
0.0425511
0.042547
0.0425416
0.0425332
0.0425202
0.0424999
0.0424705
0.0424297
0.042378
0.0423159
0.0422478
0.0421779
0.0421166
0.0420628
0.0420162
0.041995
0.0419923
0.041983
0.0419687
0.0419636
0.0419644
0.0419691
0.0419769
0.0419857
0.0419935
0.0425156
0.0425121
0.0425085
0.0425051
0.0425015
0.0424981
0.0424945
0.0424912
0.042488
0.0424853
0.042483
0.0424812
0.0424798
0.0424786
0.042477
0.0424748
0.0424722
0.042469
0.042465
0.0424586
0.0424485
0.0424323
0.042408
0.0423733
0.0423275
0.0422712
0.0422066
0.042139
0.0420748
0.0420185
0.0419713
0.0419469
0.0419379
0.0419242
0.0419122
0.0419113
0.0419136
0.0419181
0.0419208
0.041923
0.041925
0.0419278
0.0424477
0.0424447
0.0424416
0.0424386
0.0424357
0.0424329
0.0424305
0.0424284
0.0424266
0.0424253
0.0424244
0.0424238
0.0424233
0.0424225
0.0424212
0.0424193
0.0424171
0.0424146
0.0424102
0.0424037
0.042392
0.0423746
0.0423475
0.0423112
0.0422626
0.0422058
0.0421414
0.0420777
0.0420176
0.0419666
0.0419308
0.041914
0.0418978
0.0418836
0.0418817
0.041885
0.0418881
0.0418881
0.0418858
0.0418842
0.0418848
0.0418884
0.0423911
0.0423891
0.0423872
0.0423858
0.0423841
0.0423826
0.0423811
0.0423797
0.0423786
0.0423778
0.0423772
0.0423768
0.0423764
0.0423756
0.0423744
0.0423729
0.0423711
0.0423683
0.0423639
0.0423561
0.0423437
0.0423241
0.042296
0.0422577
0.0422096
0.0421534
0.042093
0.0420335
0.0419784
0.0419338
0.0419043
0.0418836
0.041866
0.041861
0.0418639
0.0418651
0.0418626
0.0418569
0.0418548
0.0418551
0.0418579
0.0418637
0.0423484
0.042347
0.0423454
0.0423438
0.0423422
0.0423407
0.0423395
0.0423385
0.042338
0.0423377
0.0423378
0.0423378
0.0423376
0.0423371
0.0423363
0.0423352
0.0423335
0.0423306
0.0423253
0.0423166
0.0423024
0.0422812
0.0422512
0.0422122
0.0421645
0.0421107
0.0420538
0.0419987
0.0419499
0.0419112
0.0418801
0.04186
0.0418536
0.0418507
0.0418439
0.041838
0.0418378
0.0418389
0.0418414
0.0418434
0.0418449
0.0418465
0.042316
0.042315
0.0423141
0.0423132
0.0423125
0.0423118
0.0423113
0.042311
0.0423108
0.0423108
0.0423109
0.0423108
0.0423104
0.0423098
0.042309
0.0423077
0.0423056
0.0423018
0.0422954
0.042285
0.042269
0.0422458
0.0422146
0.042175
0.042128
0.0420761
0.0420224
0.0419718
0.0419271
0.0418903
0.0418651
0.0418531
0.041842
0.0418319
0.0418301
0.0418321
0.0418341
0.0418341
0.0418322
0.0418303
0.0418292
0.0418305
0.042291
0.0422905
0.04229
0.0422892
0.042289
0.0422886
0.0422883
0.0422882
0.0422882
0.0422882
0.0422882
0.042288
0.0422876
0.042287
0.0422862
0.0422848
0.0422823
0.0422778
0.0422704
0.0422587
0.0422413
0.0422169
0.0421847
0.0421449
0.0420985
0.0420484
0.0419975
0.0419501
0.0419085
0.0418769
0.0418541
0.0418364
0.0418274
0.0418276
0.0418278
0.041824
0.0418196
0.0418185
0.0418187
0.0418205
0.0418231
0.041826
0.0422722
0.0422719
0.0422715
0.0422711
0.0422708
0.0422705
0.0422704
0.0422704
0.0422704
0.0422705
0.0422704
0.0422702
0.0422698
0.0422693
0.0422686
0.0422671
0.0422645
0.0422598
0.0422522
0.04224
0.0422226
0.0421981
0.0421668
0.0421283
0.0420845
0.0420372
0.0419897
0.0419449
0.0419053
0.0418734
0.0418509
0.0418347
0.0418225
0.0418188
0.0418206
0.0418206
0.0418172
0.0418136
0.0418127
0.0418132
0.0418153
0.0418183
0.0422565
0.0422565
0.0422565
0.0422565
0.0422566
0.0422567
0.0422569
0.0422572
0.0422576
0.0422579
0.0422582
0.0422585
0.0422586
0.0422586
0.0422582
0.0422573
0.042255
0.042251
0.0422437
0.0422328
0.0422164
0.0421943
0.0421654
0.0421304
0.0420896
0.0420456
0.0420002
0.0419568
0.0419173
0.0418839
0.0418583
0.0418402
0.0418263
0.0418177
0.0418166
0.0418178
0.0418161
0.0418122
0.0418109
0.0418109
0.0418121
0.0418144
0.0422449
0.042245
0.0422452
0.0422455
0.042246
0.0422466
0.0422471
0.0422477
0.0422481
0.0422486
0.0422489
0.0422491
0.0422492
0.0422491
0.0422487
0.0422478
0.0422458
0.0422424
0.0422363
0.0422273
0.0422135
0.0421949
0.0421699
0.0421395
0.0421031
0.0420632
0.0420206
0.0419783
0.0419382
0.0419025
0.0418725
0.0418494
0.0418335
0.0418218
0.0418139
0.0418119
0.041813
0.0418124
0.0418096
0.041808
0.041808
0.0418088
0.0422373
0.0422379
0.0422385
0.042239
0.0422396
0.04224
0.0422405
0.0422409
0.0422414
0.0422419
0.0422424
0.0422428
0.0422431
0.0422433
0.0422432
0.0422426
0.0422415
0.0422388
0.0422346
0.0422272
0.0422167
0.0422012
0.0421812
0.0421551
0.0421243
0.0420882
0.0420493
0.0420083
0.0419681
0.0419301
0.0418965
0.0418685
0.0418465
0.0418302
0.0418203
0.0418155
0.0418109
0.0418075
0.0418075
0.0418089
0.0418094
0.041809
0.0422326
0.0422331
0.0422336
0.0422341
0.0422346
0.0422352
0.0422358
0.0422365
0.0422371
0.0422377
0.0422382
0.0422387
0.0422391
0.0422394
0.0422394
0.0422391
0.0422383
0.0422365
0.0422334
0.0422279
0.0422197
0.0422076
0.0421911
0.0421696
0.042143
0.0421115
0.0420757
0.0420373
0.0419975
0.0419587
0.0419221
0.0418899
0.0418631
0.0418419
0.0418258
0.0418167
0.0418124
0.0418073
0.0418031
0.0418032
0.041805
0.0418058
0.0422303
0.042231
0.0422316
0.0422322
0.0422328
0.0422335
0.0422341
0.0422348
0.0422355
0.0422363
0.042237
0.0422377
0.0422383
0.0422387
0.0422389
0.0422389
0.0422383
0.0422372
0.0422346
0.0422306
0.0422238
0.0422144
0.0422006
0.0421829
0.0421598
0.0421323
0.0421
0.0420645
0.0420262
0.0419876
0.0419497
0.0419147
0.0418835
0.0418576
0.041838
0.0418229
0.0418119
0.0418074
0.0418065
0.0418037
0.0418002
0.0417998
0.0422301
0.0422308
0.0422316
0.0422324
0.0422332
0.0422339
0.0422348
0.0422356
0.0422363
0.042237
0.0422377
0.0422383
0.0422389
0.0422393
0.0422395
0.0422394
0.042239
0.0422381
0.042236
0.0422328
0.0422273
0.0422195
0.042208
0.042193
0.0421731
0.0421492
0.0421203
0.042088
0.0420522
0.0420151
0.0419772
0.041941
0.0419071
0.0418774
0.0418526
0.0418332
0.0418175
0.0418079
0.0418046
0.0418013
0.0417963
0.0417943
0.0422324
0.0422332
0.0422339
0.0422346
0.0422353
0.042236
0.0422367
0.0422375
0.0422382
0.042239
0.0422397
0.0422403
0.0422409
0.0422414
0.0422417
0.0422417
0.0422414
0.0422407
0.0422391
0.0422365
0.0422321
0.0422258
0.0422164
0.042204
0.0421873
0.042167
0.0421419
0.0421133
0.0420809
0.0420464
0.0420101
0.0419741
0.0419391
0.0419068
0.0418777
0.041853
0.0418333
0.0418185
0.0418063
0.0417989
0.041797
0.0417948
0.0422339
0.0422348
0.0422357
0.0422366
0.0422374
0.0422383
0.0422391
0.0422399
0.0422407
0.0422415
0.0422423
0.042243
0.0422436
0.0422441
0.0422444
0.0422446
0.0422444
0.0422439
0.0422428
0.0422408
0.0422376
0.0422326
0.0422254
0.0422154
0.0422024
0.0421855
0.0421653
0.042141
0.0421134
0.0420826
0.0420498
0.0420154
0.0419809
0.0419472
0.0419155
0.0418867
0.0418616
0.0418407
0.0418243
0.0418112
0.0418009
0.0417948
0.0422345
0.0422355
0.0422364
0.0422372
0.042238
0.0422389
0.0422397
0.0422405
0.0422413
0.0422421
0.0422429
0.0422436
0.0422442
0.0422449
0.0422452
0.0422455
0.0422455
0.0422452
0.0422446
0.0422433
0.0422412
0.0422377
0.0422329
0.0422258
0.0422167
0.0422043
0.0421889
0.0421702
0.0421485
0.0421233
0.0420952
0.0420645
0.0420326
0.0419996
0.0419672
0.0419356
0.0419062
0.0418793
0.041856
0.0418359
0.0418195
0.0418062
0.0422352
0.0422361
0.042237
0.0422378
0.0422386
0.0422394
0.0422402
0.0422409
0.0422417
0.0422426
0.0422434
0.0422442
0.0422449
0.0422455
0.042246
0.0422462
0.0422464
0.0422464
0.042246
0.0422453
0.042244
0.0422419
0.0422386
0.0422341
0.0422277
0.0422189
0.0422078
0.0421946
0.0421783
0.0421584
0.0421352
0.0421093
0.042081
0.0420507
0.042019
0.0419865
0.0419541
0.0419229
0.0418939
0.0418676
0.0418444
0.0418242
0.0422356
0.0422368
0.0422379
0.0422389
0.0422399
0.042241
0.0422419
0.042243
0.042244
0.042245
0.042246
0.042247
0.0422479
0.0422487
0.0422494
0.04225
0.0422504
0.0422506
0.0422505
0.0422501
0.0422494
0.0422478
0.0422454
0.0422419
0.0422372
0.0422302
0.0422212
0.0422098
0.0421959
0.0421786
0.0421581
0.0421344
0.0421077
0.0420785
0.0420473
0.0420148
0.0419817
0.041949
0.0419177
0.0418883
0.0418614
0.0418374
0.0422333
0.0422345
0.0422357
0.0422368
0.0422378
0.0422389
0.0422399
0.0422409
0.0422419
0.0422429
0.0422439
0.0422448
0.0422457
0.0422465
0.0422472
0.0422477
0.0422481
0.0422482
0.0422481
0.0422477
0.0422469
0.0422454
0.0422431
0.0422396
0.0422348
0.042228
0.0422191
0.0422075
0.0421935
0.0421761
0.0421557
0.0421318
0.0421052
0.0420757
0.0420445
0.0420117
0.0419786
0.0419458
0.0419144
0.0418848
0.0418576
0.041833
0.0422297
0.0422309
0.0422322
0.0422333
0.0422344
0.0422355
0.0422366
0.0422377
0.0422387
0.0422398
0.0422407
0.0422417
0.0422426
0.0422434
0.0422441
0.0422447
0.042245
0.0422452
0.0422451
0.0422446
0.0422438
0.0422421
0.0422396
0.0422358
0.0422307
0.0422234
0.042214
0.0422018
0.042187
0.0421687
0.0421474
0.0421227
0.0420952
0.0420649
0.042033
0.0419997
0.0419662
0.0419331
0.0419017
0.0418721
0.0418451
0.0418205
0.042225
0.0422264
0.0422277
0.042229
0.0422303
0.0422315
0.0422327
0.0422339
0.0422351
0.0422362
0.0422374
0.0422384
0.0422394
0.0422403
0.042241
0.0422416
0.0422419
0.042242
0.0422418
0.0422412
0.0422399
0.0422379
0.0422346
0.0422299
0.0422233
0.0422146
0.0422031
0.0421889
0.0421712
0.0421504
0.042126
0.0420988
0.0420684
0.0420361
0.042002
0.0419676
0.0419333
0.0419004
0.0418694
0.0418412
0.0418156
0.0417932
0.0422197
0.0422212
0.0422227
0.0422241
0.0422255
0.0422269
0.0422283
0.0422297
0.0422309
0.0422322
0.0422334
0.0422345
0.0422355
0.0422364
0.042237
0.0422374
0.0422376
0.0422374
0.0422368
0.0422356
0.0422335
0.0422302
0.0422254
0.0422185
0.0422093
0.0421973
0.0421823
0.0421637
0.0421417
0.0421159
0.0420869
0.0420548
0.0420206
0.0419848
0.0419486
0.0419128
0.0418787
0.041847
0.0418186
0.0417936
0.0417722
0.0417542
0.0422135
0.0422152
0.0422167
0.0422183
0.0422198
0.0422213
0.0422228
0.0422242
0.0422255
0.0422268
0.0422281
0.0422291
0.0422301
0.0422308
0.0422313
0.0422315
0.0422313
0.0422306
0.0422293
0.042227
0.0422233
0.042218
0.0422104
0.0422002
0.0421869
0.0421702
0.0421496
0.0421253
0.0420969
0.0420651
0.04203
0.0419929
0.0419542
0.0419156
0.0418778
0.0418425
0.0418103
0.0417822
0.0417582
0.041739
0.0417245
0.0417121
0.0422066
0.0422083
0.0422099
0.0422116
0.0422131
0.0422147
0.0422162
0.0422177
0.0422191
0.0422204
0.0422216
0.0422227
0.0422234
0.042224
0.0422242
0.042224
0.0422232
0.0422217
0.0422191
0.042215
0.042209
0.0422004
0.042189
0.042174
0.0421554
0.0421323
0.0421052
0.0420736
0.0420385
0.042
0.0419596
0.0419179
0.041877
0.0418375
0.0418013
0.0417691
0.0417418
0.0417197
0.0417041
0.0416923
0.0416821
0.0416775
0.0421996
0.0422013
0.042203
0.0422047
0.0422064
0.042208
0.0422096
0.0422111
0.0422125
0.0422137
0.0422148
0.0422156
0.0422161
0.0422163
0.042216
0.0422151
0.0422133
0.0422103
0.0422055
0.0421987
0.0421889
0.042176
0.042159
0.042138
0.0421121
0.0420818
0.0420468
0.0420083
0.0419665
0.0419231
0.0418792
0.0418366
0.0417966
0.0417606
0.0417299
0.0417051
0.0416854
0.0416713
0.0416645
0.0416602
0.0416543
0.0416513
0.042193
0.0421947
0.0421964
0.042198
0.0421996
0.0422012
0.0422027
0.0422041
0.0422054
0.0422065
0.0422072
0.0422076
0.0422077
0.0422072
0.0422061
0.0422038
0.0422004
0.0421946
0.0421867
0.0421752
0.0421603
0.0421407
0.0421167
0.0420874
0.0420535
0.0420148
0.0419728
0.041928
0.0418823
0.0418371
0.0417942
0.0417551
0.041721
0.0416927
0.041671
0.041656
0.0416444
0.041636
0.0416339
0.0416349
0.0416339
0.0416304
0.0421872
0.0421888
0.0421904
0.042192
0.0421935
0.042195
0.0421964
0.0421976
0.0421986
0.0421992
0.0421996
0.0421995
0.0421987
0.0421973
0.0421944
0.04219
0.0421831
0.0421733
0.0421597
0.0421418
0.042119
0.0420908
0.0420575
0.042019
0.0419764
0.0419306
0.0418834
0.041836
0.0417908
0.041749
0.0417125
0.0416817
0.0416568
0.0416388
0.0416279
0.0416196
0.0416123
0.04161
0.0416111
0.0416121
0.041611
0.0416083
0.0421819
0.0421835
0.042185
0.0421866
0.042188
0.0421894
0.0421906
0.0421915
0.0421922
0.0421924
0.0421921
0.0421911
0.0421891
0.0421856
0.04218
0.0421717
0.0421596
0.0421433
0.0421217
0.0420948
0.0420617
0.0420234
0.0419798
0.041933
0.0418834
0.0418341
0.041786
0.0417418
0.0417024
0.0416693
0.0416425
0.0416231
0.04161
0.0415997
0.0415927
0.0415914
0.0415921
0.0415912
0.0415887
0.0415863
0.0415853
0.041585
0.0421781
0.0421797
0.0421811
0.0421825
0.0421837
0.0421848
0.0421855
0.0421859
0.0421859
0.0421853
0.0421842
0.0421815
0.0421775
0.0421707
0.0421611
0.0421467
0.0421278
0.0421023
0.0420712
0.042033
0.0419896
0.0419407
0.0418894
0.0418364
0.0417851
0.0417368
0.0416941
0.0416575
0.0416282
0.0416069
0.0415917
0.0415797
0.0415734
0.0415726
0.0415721
0.0415694
0.0415665
0.0415651
0.0415643
0.0415647
0.0415659
0.041567
0.0421747
0.0421759
0.0421771
0.0421781
0.042179
0.0421796
0.0421799
0.0421798
0.0421792
0.0421779
0.0421751
0.0421708
0.0421634
0.0421529
0.0421371
0.0421162
0.0420879
0.0420533
0.0420109
0.0419629
0.0419094
0.0418539
0.0417976
0.0417443
0.0416955
0.0416536
0.0416194
0.0415942
0.0415758
0.0415618
0.0415549
0.041554
0.0415524
0.0415486
0.0415457
0.0415444
0.041544
0.0415448
0.0415463
0.0415471
0.041547
0.0415463
0.0421711
0.0421722
0.0421732
0.042174
0.0421746
0.0421749
0.0421748
0.0421741
0.0421729
0.0421702
0.0421659
0.0421586
0.0421479
0.0421317
0.04211
0.0420805
0.0420438
0.0419988
0.0419475
0.0418906
0.0418313
0.041772
0.0417162
0.0416662
0.0416244
0.0415906
0.0415656
0.041551
0.0415421
0.0415327
0.0415279
0.0415284
0.0415295
0.0415297
0.0415281
0.0415256
0.0415238
0.0415228
0.0415228
0.0415236
0.0415251
0.0415265
0.042168
0.0421689
0.0421697
0.0421702
0.0421704
0.0421704
0.0421697
0.0421686
0.0421661
0.042162
0.0421551
0.0421448
0.0421292
0.0421078
0.0420785
0.0420414
0.0419956
0.0419426
0.0418835
0.0418214
0.0417593
0.0417007
0.0416483
0.0416042
0.0415703
0.0415466
0.0415286
0.0415167
0.0415139
0.0415139
0.0415113
0.0415071
0.0415046
0.0415034
0.0415035
0.0415046
0.0415057
0.0415061
0.041506
0.0415054
0.0415046
0.0415041
0.0421649
0.0421655
0.0421659
0.0421662
0.042166
0.0421655
0.0421644
0.0421621
0.0421583
0.042152
0.0421424
0.0421278
0.0421073
0.042079
0.0420426
0.0419972
0.0419438
0.0418836
0.0418198
0.0417552
0.0416936
0.0416383
0.0415919
0.0415552
0.0415272
0.0415101
0.0415021
0.0414944
0.0414873
0.0414857
0.0414859
0.0414867
0.0414866
0.0414855
0.0414836
0.041482
0.0414811
0.041481
0.0414814
0.0414826
0.0414841
0.0414857
0.0421607
0.042161
0.0421612
0.042161
0.0421605
0.0421594
0.0421573
0.0421538
0.042148
0.042139
0.0421254
0.0421061
0.0420791
0.0420438
0.0419992
0.0419462
0.0418856
0.0418206
0.041754
0.0416898
0.0416315
0.0415815
0.0415413
0.0415123
0.0414936
0.0414789
0.0414694
0.0414677
0.0414679
0.0414661
0.0414628
0.0414606
0.041459
0.0414584
0.0414588
0.0414598
0.0414609
0.0414616
0.0414619
0.0414621
0.0414624
0.041463
0.0421551
0.0421552
0.042155
0.0421545
0.0421534
0.0421514
0.042148
0.0421426
0.0421342
0.0421214
0.0421028
0.0420768
0.0420423
0.0419984
0.0419456
0.0418847
0.0418187
0.0417505
0.0416841
0.0416229
0.0415697
0.041527
0.0414955
0.0414721
0.0414554
0.041449
0.0414473
0.0414434
0.0414386
0.0414358
0.0414344
0.0414344
0.0414355
0.0414367
0.0414372
0.0414371
0.0414365
0.0414361
0.0414362
0.0414369
0.0414385
0.0414411
0.0421482
0.042148
0.0421475
0.0421464
0.0421445
0.0421412
0.042136
0.0421278
0.0421154
0.0420971
0.0420715
0.042037
0.0419931
0.0419396
0.041878
0.0418105
0.0417407
0.041672
0.0416086
0.0415535
0.0415087
0.0414734
0.0414486
0.0414347
0.0414253
0.0414165
0.0414127
0.0414115
0.0414118
0.0414119
0.0414112
0.0414098
0.0414086
0.041408
0.041408
0.0414087
0.0414102
0.0414125
0.0414154
0.0414186
0.0414219
0.0414253
0.0421403
0.0421397
0.0421387
0.0421368
0.0421336
0.0421284
0.0421202
0.0421076
0.042089
0.0420629
0.0420276
0.0419825
0.0419274
0.0418638
0.041794
0.0417219
0.0416512
0.041586
0.0415289
0.0414826
0.0414482
0.0414225
0.0414036
0.0413954
0.0413921
0.0413874
0.0413833
0.041381
0.0413801
0.0413805
0.0413816
0.0413825
0.0413829
0.0413832
0.0413839
0.0413849
0.0413868
0.0413896
0.041393
0.0413972
0.0414018
0.0414068
0.0421312
0.0421301
0.0421282
0.0421249
0.0421195
0.042111
0.0420979
0.0420785
0.042051
0.042014
0.0419663
0.0419084
0.0418415
0.0417686
0.0416933
0.0416202
0.0415532
0.0414955
0.0414482
0.0414141
0.0413913
0.0413724
0.0413601
0.0413572
0.0413571
0.0413556
0.0413533
0.0413507
0.0413493
0.041349
0.0413498
0.0413518
0.0413547
0.0413579
0.0413613
0.0413647
0.0413683
0.0413719
0.0413757
0.0413796
0.0413839
0.0413885
0.0421205
0.0421185
0.042115
0.0421093
0.0421001
0.0420862
0.0420654
0.042036
0.0419961
0.0419451
0.041883
0.0418118
0.0417345
0.0416556
0.0415797
0.0415112
0.0414537
0.0414071
0.0413716
0.0413509
0.0413395
0.0413276
0.04132
0.0413174
0.0413179
0.0413194
0.04132
0.0413195
0.0413189
0.041319
0.0413202
0.0413228
0.0413269
0.0413322
0.0413383
0.0413446
0.0413507
0.0413563
0.0413613
0.0413659
0.04137
0.0413739
0.0421071
0.0421033
0.042097
0.042087
0.0420717
0.0420489
0.0420167
0.0419732
0.0419177
0.0418506
0.041774
0.0416918
0.0416085
0.0415298
0.0414594
0.0414011
0.0413582
0.0413271
0.0413019
0.0412895
0.0412862
0.041284
0.0412807
0.0412782
0.0412766
0.0412766
0.0412777
0.0412804
0.0412844
0.0412892
0.0412943
0.0412997
0.0413052
0.0413107
0.0413163
0.0413218
0.0413274
0.0413329
0.0413382
0.0413435
0.0413487
0.0413538
0.0420897
0.0420827
0.0420714
0.0420542
0.0420287
0.0419929
0.0419447
0.0418838
0.0418105
0.0417279
0.0416397
0.0415522
0.0414705
0.0413994
0.0413402
0.0412977
0.0412708
0.0412492
0.0412357
0.0412326
0.0412327
0.0412327
0.0412318
0.0412309
0.041231
0.0412325
0.041236
0.0412416
0.0412489
0.041257
0.0412652
0.041273
0.0412802
0.0412868
0.0412929
0.0412984
0.0413036
0.0413085
0.0413133
0.041318
0.0413227
0.0413276
0.0420664
0.0420534
0.0420336
0.0420045
0.0419638
0.0419096
0.0418417
0.041761
0.0416712
0.0415766
0.0414845
0.0413992
0.0413268
0.0412682
0.0412286
0.0412008
0.0411827
0.0411736
0.0411708
0.0411707
0.0411708
0.0411707
0.0411718
0.041174
0.0411785
0.0411848
0.0411932
0.0412027
0.0412129
0.0412229
0.0412325
0.0412411
0.0412489
0.0412558
0.0412619
0.0412675
0.0412726
0.0412773
0.0412819
0.0412863
0.0412908
0.0412953
0.0420338
0.0420106
0.041977
0.0419299
0.0418685
0.0417916
0.0417025
0.0416035
0.0415025
0.0414037
0.0413161
0.0412423
0.0411853
0.0411444
0.0411213
0.0411076
0.0410995
0.041096
0.0410948
0.0410956
0.0410971
0.0411011
0.0411068
0.0411148
0.0411245
0.0411356
0.0411473
0.0411593
0.0411707
0.0411815
0.0411914
0.0412003
0.0412084
0.0412155
0.041222
0.0412277
0.041233
0.0412378
0.0412423
0.0412465
0.0412506
0.0412547
0.0419857
0.0419467
0.0418927
0.0418224
0.0417358
0.0416359
0.0415274
0.041418
0.0413138
0.0412229
0.0411467
0.0410921
0.0410565
0.0410336
0.0410188
0.0410133
0.0410119
0.0410125
0.0410141
0.041017
0.0410216
0.0410293
0.0410394
0.0410522
0.0410664
0.0410814
0.0410961
0.0411101
0.0411226
0.0411338
0.0411434
0.0411517
0.0411589
0.0411651
0.0411706
0.0411756
0.0411802
0.0411846
0.0411888
0.0411928
0.0411969
0.041201
0.0419174
0.0418565
0.0417773
0.0416804
0.0415695
0.0414508
0.0413327
0.0412234
0.041128
0.041053
0.0410031
0.0409674
0.0409434
0.0409342
0.040932
0.0409324
0.0409327
0.0409337
0.0409372
0.0409431
0.0409537
0.0409669
0.0409833
0.0410003
0.0410177
0.0410336
0.0410481
0.0410604
0.0410709
0.0410798
0.0410874
0.041094
0.0411
0.0411055
0.0411107
0.0411158
0.0411208
0.0411258
0.0411306
0.0411354
0.0411402
0.041145
0.0418216
0.0417349
0.041629
0.0415083
0.0413805
0.0412553
0.0411405
0.0410416
0.0409708
0.0409263
0.0408901
0.0408668
0.0408613
0.0408638
0.0408669
0.0408678
0.0408686
0.0408727
0.0408797
0.0408924
0.0409086
0.040928
0.040948
0.0409674
0.0409843
0.0409985
0.0410097
0.0410187
0.0410258
0.0410318
0.0410371
0.0410421
0.041047
0.0410522
0.0410576
0.0410632
0.0410691
0.041075
0.0410809
0.0410868
0.0410926
0.0410982
0.0416989
0.0415859
0.0414578
0.0413229
0.0411918
0.0410724
0.0409776
0.0409112
0.040857
0.040823
0.0408157
0.0408167
0.0408154
0.0408115
0.0408089
0.0408104
0.0408163
0.0408275
0.0408444
0.0408641
0.0408845
0.0409039
0.040921
0.0409357
0.040948
0.0409582
0.0409668
0.0409745
0.0409815
0.0409883
0.0409951
0.0410021
0.0410091
0.0410162
0.0410231
0.0410298
0.041036
0.0410418
0.0410472
0.0410521
0.0410566
0.0410608
0.0415476
0.0414149
0.0412751
0.0411402
0.0410217
0.0409312
0.0408584
0.0408085
0.0407931
0.0407882
0.0407786
0.0407695
0.0407657
0.0407656
0.0407693
0.0407791
0.040793
0.0408097
0.0408274
0.0408454
0.0408624
0.040878
0.0408921
0.0409046
0.0409159
0.0409263
0.0409362
0.0409457
0.0409548
0.0409635
0.0409717
0.0409794
0.0409864
0.0409928
0.0409986
0.0410037
0.0410083
0.0410125
0.0410162
0.0410197
0.0410229
0.0410261
0.0413761
0.0412349
0.0411014
0.0409826
0.0408864
0.040825
0.0407895
0.0407571
0.0407427
0.0407399
0.0407422
0.0407439
0.0407436
0.040744
0.0407482
0.0407562
0.0407695
0.0407865
0.040806
0.0408259
0.0408449
0.0408619
0.0408765
0.0408889
0.0408994
0.0409086
0.0409168
0.0409244
0.0409316
0.0409385
0.0409451
0.0409515
0.0409576
0.0409634
0.040969
0.0409743
0.0409792
0.0409839
0.0409883
0.0409924
0.0409964
0.0410003
0.0411969
0.0410629
0.0409496
0.0408628
0.0407918
0.0407515
0.0407405
0.0407319
0.0407206
0.0407127
0.04071
0.0407112
0.0407154
0.0407241
0.0407362
0.0407508
0.0407673
0.0407847
0.0408023
0.0408192
0.0408352
0.0408497
0.0408629
0.0408747
0.0408853
0.0408948
0.0409034
0.0409111
0.0409182
0.0409247
0.0409308
0.0409365
0.0409419
0.0409471
0.040952
0.0409566
0.0409611
0.0409653
0.0409694
0.0409733
0.0409771
0.0409809
0.0410277
0.0409184
0.0408337
0.0407701
0.040736
0.0407212
0.0407081
0.0406984
0.0406947
0.0406933
0.0406946
0.0407005
0.0407091
0.0407223
0.040737
0.0407539
0.0407711
0.0407886
0.0408053
0.0408212
0.0408358
0.0408491
0.0408611
0.040872
0.0408818
0.0408906
0.0408986
0.0409058
0.0409124
0.0409185
0.0409242
0.0409295
0.0409345
0.0409392
0.0409437
0.040948
0.0409521
0.040956
0.0409597
0.0409634
0.0409671
0.0409707
0.0408895
0.0408102
0.0407543
0.0407236
0.0407069
0.0406941
0.0406868
0.0406847
0.0406846
0.0406879
0.0406945
0.0407054
0.0407183
0.0407342
0.040751
0.040769
0.0407865
0.0408034
0.0408189
0.0408332
0.040846
0.0408576
0.040868
0.0408773
0.0408857
0.0408933
0.0409003
0.0409068
0.0409128
0.0409185
0.040924
0.0409291
0.040934
0.0409387
0.0409432
0.0409475
0.0409517
0.0409556
0.0409595
0.0409632
0.0409668
0.0409705
0.0407937
0.0407454
0.0407151
0.0407008
0.0406906
0.0406868
0.0406844
0.0406854
0.0406894
0.040698
0.0407105
0.0407264
0.0407443
0.0407633
0.0407817
0.0407995
0.0408155
0.0408301
0.040843
0.0408545
0.0408647
0.040874
0.0408824
0.0408901
0.0408973
0.0409041
0.0409106
0.0409167
0.0409225
0.040928
0.0409333
0.0409383
0.0409431
0.0409476
0.0409519
0.040956
0.04096
0.0409637
0.0409673
0.0409707
0.040974
0.0409774
0.0407423
0.0407178
0.0407034
0.0406973
0.0406947
0.0406935
0.0406963
0.0407023
0.0407142
0.0407289
0.0407477
0.0407671
0.0407873
0.0408061
0.0408235
0.0408387
0.040852
0.0408636
0.0408738
0.0408828
0.040891
0.0408986
0.0409057
0.0409125
0.0409189
0.0409252
0.0409311
0.0409368
0.0409422
0.0409474
0.0409522
0.0409569
0.0409612
0.0409653
0.0409692
0.0409729
0.0409764
0.0409797
0.0409829
0.0409859
0.0409889
0.0409918
0.0407303
0.0407168
0.0407136
0.0407115
0.040713
0.0407185
0.0407288
0.0407433
0.0407615
0.0407813
0.040802
0.0408215
0.0408397
0.0408556
0.0408696
0.0408815
0.0408918
0.0409009
0.040909
0.0409164
0.0409234
0.04093
0.0409364
0.0409426
0.0409485
0.0409542
0.0409596
0.0409648
0.0409697
0.0409743
0.0409786
0.0409827
0.0409866
0.0409903
0.0409937
0.040997
0.0410001
0.0410031
0.0410059
0.0410086
0.0410112
0.0410138
0.0407417
0.0407388
0.0407386
0.0407443
0.0407531
0.0407678
0.0407854
0.0408053
0.0408259
0.0408455
0.0408639
0.0408799
0.0408939
0.0409058
0.040916
0.040925
0.040933
0.0409402
0.0409471
0.0409536
0.0409598
0.0409659
0.0409717
0.0409773
0.0409827
0.0409878
0.0409927
0.0409973
0.0410016
0.0410057
0.0410096
0.0410132
0.0410167
0.04102
0.0410231
0.0410261
0.0410289
0.0410316
0.0410341
0.0410366
0.041039
0.0410414
0.0407691
0.0407749
0.0407836
0.0407992
0.0408167
0.0408371
0.0408576
0.0408773
0.0408954
0.0409111
0.0409248
0.0409363
0.0409461
0.0409546
0.0409622
0.0409691
0.0409756
0.0409818
0.0409878
0.0409936
0.0409993
0.0410048
0.0410101
0.0410152
0.04102
0.0410245
0.0410288
0.0410329
0.0410368
0.0410404
0.0410439
0.0410471
0.0410503
0.0410532
0.0410561
0.0410588
0.0410613
0.0410638
0.0410661
0.0410684
0.0410706
0.0410727
0.0408175
0.0408338
0.0408517
0.0408725
0.040893
0.0409127
0.0409305
0.040946
0.0409592
0.0409702
0.0409796
0.0409877
0.0409948
0.0410013
0.0410074
0.0410133
0.0410191
0.0410247
0.0410302
0.0410355
0.0410407
0.0410456
0.0410504
0.0410549
0.0410592
0.0410633
0.0410673
0.041071
0.0410745
0.0410779
0.0410811
0.0410842
0.0410872
0.04109
0.0410926
0.0410952
0.0410976
0.0410999
0.0411021
0.0411042
0.0411062
0.0411083
0.0408882
0.0409099
0.0409308
0.0409501
0.0409672
0.0409817
0.040994
0.0410043
0.0410131
0.0410208
0.0410277
0.0410341
0.0410402
0.041046
0.0410518
0.0410574
0.0410629
0.0410682
0.0410734
0.0410783
0.041083
0.0410875
0.0410918
0.0410959
0.0410997
0.0411034
0.0411069
0.0411103
0.0411135
0.0411166
0.0411195
0.0411223
0.041125
0.0411276
0.04113
0.0411324
0.0411346
0.0411367
0.0411388
0.0411407
0.0411427
0.0411446
0.0409647
0.0409846
0.0410019
0.0410161
0.0410279
0.0410376
0.0410459
0.0410532
0.0410598
0.041066
0.0410721
0.041078
0.0410837
0.0410894
0.041095
0.0411003
0.0411054
0.0411103
0.041115
0.0411194
0.0411236
0.0411276
0.0411314
0.041135
0.0411384
0.0411417
0.0411449
0.041148
0.0411509
0.0411538
0.0411565
0.0411591
0.0411616
0.041164
0.0411663
0.0411685
0.0411707
0.0411727
0.0411747
0.0411766
0.0411785
0.0411803
0.041031
0.0410457
0.0410577
0.0410674
0.0410755
0.0410826
0.0410891
0.0410951
0.041101
0.0411068
0.0411125
0.0411181
0.0411235
0.0411288
0.0411339
0.0411388
0.0411434
0.0411479
0.0411521
0.0411562
0.0411601
0.0411638
0.0411675
0.041171
0.0411743
0.0411776
0.0411807
0.0411838
0.0411867
0.0411895
0.0411922
0.0411948
0.0411973
0.0411997
0.041202
0.0412042
0.0412064
0.0412084
0.0412104
0.0412122
0.0412141
0.041216
0.041081
0.0410913
0.0410998
0.041107
0.0411133
0.0411192
0.0411248
0.0411303
0.0411358
0.0411411
0.0411465
0.0411517
0.0411568
0.0411618
0.0411666
0.0411713
0.0411759
0.0411803
0.0411847
0.0411888
0.0411929
0.0411968
0.0412006
0.0412043
0.0412078
0.0412113
0.0412145
0.0412177
0.0412206
0.0412235
0.0412263
0.0412289
0.0412314
0.0412338
0.041236
0.0412382
0.0412402
0.0412422
0.0412441
0.0412459
0.0412476
0.0412494
0.0411149
0.0411226
0.0411294
0.0411358
0.0411419
0.0411478
0.0411537
0.0411594
0.0411651
0.0411706
0.041176
0.0411812
0.0411863
0.0411913
0.0411961
0.0412008
0.0412053
0.0412097
0.041214
0.0412182
0.0412222
0.0412261
0.0412298
0.0412334
0.0412369
0.0412401
0.0412433
0.0412463
0.0412492
0.0412519
0.0412545
0.041257
0.0412594
0.0412616
0.0412637
0.0412658
0.0412677
0.0412695
0.0412712
0.0412729
0.0412745
0.0412761
0.0411348
0.041141
0.0411475
0.0411544
0.0411617
0.0411691
0.0411765
0.0411837
0.0411906
0.0411971
0.0412031
0.0412087
0.0412139
0.0412187
0.0412233
0.0412275
0.0412315
0.0412353
0.041239
0.0412424
0.0412458
0.041249
0.0412521
0.041255
0.0412579
0.0412607
0.0412634
0.0412659
0.0412684
0.0412708
0.0412731
0.0412754
0.0412775
0.0412796
0.0412816
0.0412835
0.0412853
0.0412871
0.0412888
0.0412904
0.041292
0.0412936
0.0411489
0.0411561
0.0411639
0.0411722
0.0411806
0.041189
0.041197
0.0412046
0.0412115
0.0412179
0.0412237
0.0412289
0.0412337
0.041238
0.0412421
0.0412458
0.0412494
0.0412527
0.0412559
0.041259
0.041262
0.0412649
0.0412677
0.0412705
0.0412731
0.0412758
0.0412783
0.0412808
0.0412832
0.0412856
0.0412879
0.0412901
0.0412923
0.0412944
0.0412964
0.0412983
0.0413002
0.041302
0.0413037
0.0413054
0.0413071
0.0413087
0.0411628
0.0411719
0.041181
0.04119
0.0411985