/*--------------------------------*- C++ -*----------------------------------*\
| =========                 |                                                 |
| \\      /  F ield         | OpenFOAM: The Open Source CFD Toolbox           |
|  \\    /   O peration     | Version:  2412                                  |
|   \\  /    A nd           | Website:  www.openfoam.com                      |
|    \\/     M anipulation  |                                                 |
\*---------------------------------------------------------------------------*/
FoamFile
{
    version     2.0;
    format      ascii;
    arch        "LSB;label=32;scalar=64";
    class       volVectorField;
    location    "0.114";
    object      U;
}
// * * * * * * * * * * * * * * * * * * * * * * * * * * * * * * * * * * * * * //

dimensions      [0 1 -1 0 0 0 0];

internalField   nonuniform List<vector> 
78650
(
(145.432 42.2091 0)
(184.695 -8.62277 0)
(194.371 -9.72677 0)
(197.927 -8.1619 0)
(200.847 -8.22362 0)
(202.953 -7.77369 0)
(204.629 -7.44528 0)
(205.916 -7.10488 0)
(206.912 -6.85883 0)
(207.64 -6.71011 0)
(208.156 -6.63903 0)
(208.568 -6.62083 0)
(208.968 -6.63493 0)
(209.385 -6.65618 0)
(209.8 -6.66649 0)
(210.198 -6.64702 0)
(210.572 -6.59961 0)
(210.922 -6.52669 0)
(211.245 -6.42884 0)
(211.534 -6.30283 0)
(211.788 -6.14882 0)
(212.012 -5.96947 0)
(212.216 -5.76768 0)
(212.407 -5.5454 0)
(212.594 -5.3051 0)
(212.788 -5.05009 0)
(212.997 -4.78188 0)
(213.227 -4.50055 0)
(213.475 -4.20481 0)
(213.739 -3.89347 0)
(214.016 -3.56539 0)
(214.3 -3.21912 0)
(214.588 -2.85275 0)
(214.876 -2.46436 0)
(215.158 -2.05221 0)
(215.435 -1.61526 0)
(215.702 -1.15255 0)
(215.959 -0.663837 0)
(216.204 -0.14837 0)
(216.435 0.394171 0)
(216.652 0.964307 0)
(216.852 1.56273 0)
(217.034 2.18983 0)
(217.201 2.84588 0)
(217.35 3.53072 0)
(217.481 4.24476 0)
(217.594 4.98819 0)
(217.691 5.76098 0)
(217.773 6.56319 0)
(217.839 7.39501 0)
(217.888 8.25674 0)
(217.923 9.14878 0)
(217.941 10.0713 0)
(217.945 11.0243 0)
(217.935 12.0089 0)
(217.911 13.0253 0)
(217.875 14.0733 0)
(217.827 15.1544 0)
(217.768 16.2689 0)
(217.701 17.4172 0)
(217.626 18.5999 0)
(217.547 19.8173 0)
(217.465 21.0706 0)
(217.381 22.362 0)
(217.299 23.6907 0)
(217.22 25.0583 0)
(217.152 26.4661 0)
(217.094 27.9153 0)
(217.05 29.4057 0)
(217.029 30.9416 0)
(217.028 32.5225 0)
(217.057 34.1489 0)
(217.125 35.8227 0)
(217.231 37.5442 0)
(217.394 39.3162 0)
(217.604 41.1387 0)
(217.889 43.0129 0)
(218.245 44.9376 0)
(218.689 46.9131 0)
(219.233 48.9395 0)
(219.884 51.0165 0)
(220.661 53.1425 0)
(221.57 55.3145 0)
(222.641 57.5262 0)
(223.873 59.7747 0)
(225.314 62.0514 0)
(226.935 64.3582 0)
(228.816 66.6751 0)
(230.894 69.0056 0)
(233.285 71.3097 0)
(235.89 73.6089 0)
(238.87 75.8318 0)
(242.071 78.0419 0)
(245.754 80.0736 0)
(249.632 82.1217 0)
(254.065 83.8515 0)
(258.733 85.5444 0)
(263.888 86.9045 0)
(269.371 88.0619 0)
(275.085 88.805 0)
(281.681 89.3094 0)
(288.071 89.4544 0)
(293.865 89.5264 0)
(299.954 89.2693 0)
(307.763 88.3917 0)
(314.282 87.2277 0)
(319.9 86.3843 0)
(325.947 84.958 0)
(332.483 83.1506 0)
(338.91 81.1114 0)
(344.559 79.3084 0)
(349.409 77.7902 0)
(353.508 76.6076 0)
(358.649 74.5849 0)
(362.595 72.509 0)
(365.502 70.4779 0)
(367.705 68.5014 0)
(369.797 67.4784 0)
(373.797 66.712 0)
(380.498 65.5765 0)
(382.912 69.4495 0)
(147.656 42.1195 0)
(184.82 -7.49642 0)
(194.677 -9.26642 0)
(198.175 -7.91481 0)
(200.938 -7.9969 0)
(202.941 -7.57383 0)
(204.576 -7.27062 0)
(205.89 -6.97425 0)
(206.91 -6.76681 0)
(207.624 -6.64416 0)
(208.102 -6.58198 0)
(208.476 -6.56284 0)
(208.851 -6.57112 0)
(209.259 -6.58689 0)
(209.681 -6.5961 0)
(210.091 -6.57988 0)
(210.476 -6.53673 0)
(210.831 -6.46787 0)
(211.153 -6.37282 0)
(211.439 -6.24909 0)
(211.69 -6.09773 0)
(211.912 -5.92147 0)
(212.113 -5.72278 0)
(212.298 -5.50288 0)
(212.474 -5.2644 0)
(212.654 -5.01067 0)
(212.847 -4.74346 0)
(213.058 -4.46332 0)
(213.286 -4.16913 0)
(213.53 -3.85975 0)
(213.787 -3.53408 0)
(214.054 -3.19086 0)
(214.326 -2.82831 0)
(214.598 -2.4445 0)
(214.866 -2.03764 0)
(215.127 -1.60656 0)
(215.379 -1.15031 0)
(215.621 -0.668627 0)
(215.85 -0.160745 0)
(216.066 0.373574 0)
(216.267 0.934932 0)
(216.451 1.52394 0)
(216.617 2.14106 0)
(216.767 2.78653 0)
(216.899 3.4603 0)
(217.011 4.16281 0)
(217.105 4.89411 0)
(217.184 5.65415 0)
(217.246 6.44312 0)
(217.292 7.26118 0)
(217.32 8.1085 0)
(217.332 8.98548 0)
(217.326 9.89283 0)
(217.306 10.8295 0)
(217.27 11.7974 0)
(217.219 12.7965 0)
(217.156 13.8256 0)
(217.079 14.8884 0)
(216.989 15.9837 0)
(216.888 17.112 0)
(216.779 18.274 0)
(216.663 19.4701 0)
(216.542 20.7013 0)
(216.415 21.9708 0)
(216.287 23.2762 0)
(216.161 24.6199 0)
(216.04 26.0028 0)
(215.924 27.4285 0)
(215.82 28.8937 0)
(215.732 30.4047 0)
(215.659 31.9614 0)
(215.611 33.5633 0)
(215.593 35.2134 0)
(215.607 36.9116 0)
(215.668 38.6614 0)
(215.769 40.4631 0)
(215.934 42.3193 0)
(216.158 44.2289 0)
(216.46 46.193 0)
(216.848 48.2125 0)
(217.331 50.2874 0)
(217.926 52.418 0)
(218.637 54.603 0)
(219.496 56.8398 0)
(220.498 59.1268 0)
(221.691 61.4566 0)
(223.051 63.8267 0)
(224.657 66.2191 0)
(226.451 68.6359 0)
(228.545 71.0501 0)
(230.847 73.4756 0)
(233.5 75.8568 0)
(236.368 78.2292 0)
(239.672 80.4797 0)
(243.151 82.7364 0)
(247.167 84.7427 0)
(251.307 86.7562 0)
(255.956 88.4434 0)
(260.888 90.0582 0)
(266.336 91.3691 0)
(272.073 92.4007 0)
(277.753 93.1458 0)
(284.099 93.6275 0)
(290.742 93.6024 0)
(298.011 93.4067 0)
(304.29 92.8258 0)
(310.417 92.0585 0)
(317.293 90.9908 0)
(324.706 89.469 0)
(330.914 87.8556 0)
(337.45 85.8252 0)
(342.672 84.1908 0)
(347.664 82.7572 0)
(353.168 80.9835 0)
(357.598 79.1929 0)
(361.406 76.8916 0)
(364.028 74.4412 0)
(366.096 72.4613 0)
(369.821 71.3428 0)
(377.009 70.406 0)
(379.579 75.1176 0)
(148.851 40.8563 0)
(185.837 -6.48168 0)
(195.258 -8.95693 0)
(198.461 -7.6847 0)
(200.998 -7.72138 0)
(202.918 -7.35082 0)
(204.566 -7.09596 0)
(205.914 -6.85247 0)
(206.933 -6.68006 0)
(207.613 -6.57461 0)
(208.05 -6.52149 0)
(208.385 -6.50293 0)
(208.728 -6.50752 0)
(209.122 -6.51953 0)
(209.548 -6.52874 0)
(209.971 -6.51658 0)
(210.367 -6.47792 0)
(210.727 -6.41315 0)
(211.049 -6.32111 0)
(211.332 -6.20017 0)
(211.582 -6.05187 0)
(211.804 -5.87879 0)
(212.003 -5.68307 0)
(212.181 -5.46547 0)
(212.349 -5.22892 0)
(212.517 -4.97668 0)
(212.694 -4.7109 0)
(212.886 -4.43255 0)
(213.094 -4.14069 0)
(213.317 -3.83417 0)
(213.554 -3.5119 0)
(213.803 -3.17273 0)
(214.058 -2.81493 0)
(214.315 -2.43653 0)
(214.568 -2.03563 0)
(214.814 -1.61095 0)
(215.051 -1.16156 0)
(215.278 -0.687139 0)
(215.491 -0.186944 0)
(215.692 0.339223 0)
(215.877 0.892041 0)
(216.045 1.47206 0)
(216.196 2.07981 0)
(216.329 2.71542 0)
(216.444 3.37898 0)
(216.538 4.07095 0)
(216.613 4.79118 0)
(216.673 5.53965 0)
(216.716 6.31657 0)
(216.74 7.12209 0)
(216.747 7.95643 0)
(216.736 8.81989 0)
(216.706 9.71329 0)
(216.662 10.6342 0)
(216.6 11.5873 0)
(216.523 12.5704 0)
(216.43 13.5848 0)
(216.323 14.6302 0)
(216.202 15.7079 0)
(216.068 16.8184 0)
(215.923 17.9621 0)
(215.769 19.1396 0)
(215.607 20.3524 0)
(215.439 21.6003 0)
(215.265 22.8858 0)
(215.09 24.2088 0)
(214.918 25.57 0)
(214.743 26.9766 0)
(214.58 28.4178 0)
(214.428 29.9042 0)
(214.284 31.4378 0)
(214.161 33.0157 0)
(214.061 34.6424 0)
(213.988 36.3166 0)
(213.954 38.0421 0)
(213.952 39.8195 0)
(214.006 41.6517 0)
(214.109 43.538 0)
(214.279 45.4797 0)
(214.524 47.4779 0)
(214.853 49.5331 0)
(215.28 51.6462 0)
(215.809 53.8169 0)
(216.468 56.0436 0)
(217.254 58.3242 0)
(218.209 60.6536 0)
(219.314 63.0303 0)
(220.639 65.446 0)
(222.133 67.9043 0)
(223.9 70.387 0)
(225.857 72.8998 0)
(228.141 75.4045 0)
(230.642 77.9222 0)
(233.548 80.3752 0)
(236.652 82.831 0)
(240.273 85.1126 0)
(244.048 87.4243 0)
(248.424 89.4403 0)
(252.957 91.449 0)
(257.956 93.1443 0)
(263.339 94.6864 0)
(269.271 95.8834 0)
(275.767 96.7992 0)
(281.993 97.24 0)
(288.052 97.5554 0)
(294.86 97.5148 0)
(302.311 96.7901 0)
(308.89 96.0289 0)
(316.099 94.9813 0)
(321.865 94.0456 0)
(328.376 92.6451 0)
(334.876 90.8338 0)
(340.301 89.2168 0)
(345.922 87.4797 0)
(350.721 85.941 0)
(354.871 84.1349 0)
(358.027 82.1802 0)
(360.821 80.6387 0)
(365.347 79.0296 0)
(372.994 77.4418 0)
(376.065 81.1078 0)
(150.665 38.9851 0)
(187.259 -6.07885 0)
(195.692 -8.43325 0)
(198.687 -7.32263 0)
(201.095 -7.42471 0)
(202.981 -7.14087 0)
(204.616 -6.9392 0)
(205.954 -6.73243 0)
(206.948 -6.57949 0)
(207.599 -6.4963 0)
(208.002 -6.45604 0)
(208.298 -6.43814 0)
(208.609 -6.43833 0)
(208.987 -6.44541 0)
(209.417 -6.45296 0)
(209.853 -6.444 0)
(210.261 -6.40952 0)
(210.626 -6.34869 0)
(210.947 -6.25968 0)
(211.228 -6.1419 0)
(211.476 -5.9972 0)
(211.696 -5.82792 0)
(211.891 -5.63579 0)
(212.064 -5.42127 0)
(212.223 -5.18751 0)
(212.379 -4.93749 0)
(212.54 -4.67375 0)
(212.714 -4.39755 0)
(212.901 -4.10816 0)
(213.103 -3.80447 0)
(213.319 -3.4854 0)
(213.548 -3.14997 0)
(213.785 -2.79662 0)
(214.025 -2.42338 0)
(214.262 -2.0283 0)
(214.493 -1.61001 0)
(214.714 -1.16763 0)
(214.925 -0.700752 0)
(215.122 -0.208692 0)
(215.307 0.30873 0)
(215.476 0.85225 0)
(215.627 1.42236 0)
(215.762 2.01962 0)
(215.879 2.64413 0)
(215.976 3.29617 0)
(216.051 3.97614 0)
(216.109 4.68372 0)
(216.15 5.41892 0)
(216.174 6.18201 0)
(216.178 6.97364 0)
(216.163 7.79311 0)
(216.131 8.63984 0)
(216.08 9.51645 0)
(216.01 10.4233 0)
(215.925 11.3588 0)
(215.822 12.3239 0)
(215.703 13.319 0)
(215.568 14.3451 0)
(215.417 15.4029 0)
(215.252 16.4928 0)
(215.075 17.6152 0)
(214.885 18.7707 0)
(214.687 19.9602 0)
(214.478 21.185 0)
(214.263 22.4461 0)
(214.043 23.7445 0)
(213.82 25.0823 0)
(213.598 26.4574 0)
(213.378 27.8738 0)
(213.165 29.3327 0)
(212.953 30.8412 0)
(212.761 32.3888 0)
(212.583 33.9865 0)
(212.425 35.6322 0)
(212.3 37.3296 0)
(212.199 39.0798 0)
(212.145 40.8854 0)
(212.128 42.7469 0)
(212.17 44.6656 0)
(212.273 46.644 0)
(212.448 48.6825 0)
(212.707 50.7837 0)
(213.055 52.948 0)
(213.516 55.1758 0)
(214.088 57.4658 0)
(214.812 59.8167 0)
(215.669 62.2276 0)
(216.727 64.6933 0)
(217.941 67.2116 0)
(219.412 69.7675 0)
(221.063 72.3631 0)
(223.02 74.9752 0)
(225.181 77.6185 0)
(227.715 80.2366 0)
(230.454 82.8667 0)
(233.68 85.3838 0)
(237.076 87.9144 0)
(241.046 90.2095 0)
(245.148 92.5296 0)
(249.836 94.5275 0)
(254.793 96.4511 0)
(260.191 98.0403 0)
(265.803 99.374 0)
(272.024 100.539 0)
(278.512 101.211 0)
(285.249 101.606 0)
(292.833 101.681 0)
(299.218 101.316 0)
(305.987 100.812 0)
(313.417 99.8346 0)
(319.548 98.9461 0)
(327.18 97.525 0)
(333.667 95.7847 0)
(340.483 93.5388 0)
(346.123 91.6118 0)
(350.844 89.7605 0)
(353.865 87.9669 0)
(356.005 86.5173 0)
(359.904 85.4214 0)
(368.447 83.6908 0)
(371.623 88.5608 0)
(152.047 36.6569 0)
(188.428 -5.47006 0)
(196.314 -8.03953 0)
(199.089 -7.11004 0)
(201.322 -7.21909 0)
(203.105 -6.97331 0)
(204.675 -6.78082 0)
(205.985 -6.59403 0)
(206.965 -6.47026 0)
(207.592 -6.4134 0)
(207.956 -6.38367 0)
(208.214 -6.36825 0)
(208.493 -6.36738 0)
(208.848 -6.37258 0)
(209.274 -6.37953 0)
(209.718 -6.37396 0)
(210.135 -6.34377 0)
(210.506 -6.28753 0)
(210.829 -6.20266 0)
(211.111 -6.08908 0)
(211.357 -5.94846 0)
(211.576 -5.78305 0)
(211.769 -5.59434 0)
(211.936 -5.38292 0)
(212.088 -5.15205 0)
(212.233 -4.90442 0)
(212.38 -4.64305 0)
(212.536 -4.36938 0)
(212.703 -4.08296 0)
(212.883 -3.7827 0)
(213.077 -3.46753 0)
(213.285 -3.13659 0)
(213.503 -2.78845 0)
(213.725 -2.42113 0)
(213.946 -2.03261 0)
(214.161 -1.62141 0)
(214.367 -1.18666 0)
(214.561 -0.727852 0)
(214.743 -0.244395 0)
(214.911 0.263921 0)
(215.063 0.797857 0)
(215.199 1.35788 0)
(215.317 1.94459 0)
(215.417 2.55807 0)
(215.496 3.19881 0)
(215.553 3.86707 0)
(215.593 4.56241 0)
(215.616 5.28494 0)
(215.619 6.03509 0)
(215.602 6.81275 0)
(215.568 7.61523 0)
(215.511 8.45023 0)
(215.437 9.31221 0)
(215.345 10.2019 0)
(215.234 11.1206 0)
(215.105 12.0685 0)
(214.958 13.0463 0)
(214.794 14.0543 0)
(214.614 15.0932 0)
(214.417 16.1635 0)
(214.205 17.2659 0)
(213.98 18.4009 0)
(213.743 19.5694 0)
(213.495 20.7722 0)
(213.237 22.0106 0)
(212.97 23.2858 0)
(212.699 24.5986 0)
(212.423 25.9509 0)
(212.147 27.3432 0)
(211.872 28.7779 0)
(211.602 30.254 0)
(211.34 31.7756 0)
(211.085 33.348 0)
(210.847 34.9653 0)
(210.633 36.6317 0)
(210.438 38.3521 0)
(210.284 40.1273 0)
(210.156 41.9598 0)
(210.08 43.8482 0)
(210.053 45.7971 0)
(210.088 47.8059 0)
(210.195 49.8781 0)
(210.379 52.0144 0)
(210.659 54.2165 0)
(211.037 56.4837 0)
(211.546 58.8163 0)
(212.169 61.2126 0)
(212.972 63.6712 0)
(213.909 66.1907 0)
(215.076 68.7662 0)
(216.399 71.3994 0)
(217.997 74.0753 0)
(219.784 76.7952 0)
(221.913 79.5198 0)
(224.246 82.2714 0)
(227.029 84.9766 0)
(229.999 87.7113 0)
(233.534 90.3047 0)
(237.228 92.9338 0)
(241.545 95.2987 0)
(246.022 97.6737 0)
(251.058 99.7491 0)
(256.529 101.688 0)
(262.434 103.231 0)
(268.929 104.549 0)
(275.115 105.313 0)
(281.855 106.008 0)
(289.165 106.235 0)
(295.836 106.065 0)
(304.106 105.517 0)
(310.881 104.662 0)
(317.452 103.755 0)
(324.348 102.663 0)
(331.012 101.395 0)
(337.41 99.9015 0)
(343.897 97.5628 0)
(348.168 94.8122 0)
(351.562 92.1247 0)
(356.201 90.4835 0)
(365.169 89.3191 0)
(368.352 95.2287 0)
(154.014 34.0649 0)
(189.816 -5.5207 0)
(196.978 -7.72147 0)
(199.455 -6.84916 0)
(201.493 -6.95124 0)
(203.192 -6.74992 0)
(204.724 -6.58853 0)
(206.023 -6.44041 0)
(206.985 -6.35319 0)
(207.576 -6.31876 0)
(207.902 -6.30059 0)
(208.137 -6.29069 0)
(208.392 -6.28978 0)
(208.724 -6.29339 0)
(209.136 -6.29817 0)
(209.581 -6.29389 0)
(210.005 -6.26685 0)
(210.384 -6.21519 0)
(210.711 -6.13536 0)
(210.994 -6.02704 0)
(211.24 -5.89119 0)
(211.455 -5.7301 0)
(211.643 -5.54518 0)
(211.805 -5.33758 0)
(211.949 -5.11031 0)
(212.083 -4.86587 0)
(212.217 -4.60764 0)
(212.355 -4.3371 0)
(212.502 -4.05411 0)
(212.66 -3.7576 0)
(212.831 -3.44656 0)
(213.016 -3.12019 0)
(213.213 -2.77729 0)
(213.417 -2.4159 0)
(213.62 -2.034 0)
(213.818 -1.63 0)
(214.007 -1.20306 0)
(214.185 -0.752568 0)
(214.35 -0.278064 0)
(214.501 0.220725 0)
(214.636 0.744514 0)
(214.755 1.29375 0)
(214.856 1.86906 0)
(214.939 2.47057 0)
(214.999 3.09897 0)
(215.038 3.75429 0)
(215.061 4.43619 0)
(215.065 5.14474 0)
(215.049 5.87909 0)
(215.013 6.63942 0)
(214.954 7.43056 0)
(214.877 8.24709 0)
(214.782 9.09114 0)
(214.667 9.96323 0)
(214.532 10.8636 0)
(214.378 11.7926 0)
(214.206 12.7504 0)
(214.015 13.7377 0)
(213.806 14.7551 0)
(213.579 15.8033 0)
(213.337 16.8829 0)
(213.078 17.9943 0)
(212.806 19.1382 0)
(212.521 20.3158 0)
(212.223 21.5281 0)
(211.915 22.7765 0)
(211.598 24.0619 0)
(211.274 25.385 0)
(210.947 26.7473 0)
(210.617 28.1507 0)
(210.286 29.5979 0)
(209.956 31.0902 0)
(209.634 32.6273 0)
(209.323 34.2107 0)
(209.026 35.8455 0)
(208.737 37.5356 0)
(208.486 39.274 0)
(208.249 41.0744 0)
(208.058 42.9302 0)
(207.903 44.8498 0)
(207.801 46.8304 0)
(207.755 48.877 0)
(207.774 50.9908 0)
(207.875 53.1753 0)
(208.057 55.4303 0)
(208.353 57.7579 0)
(208.748 60.1572 0)
(209.3 62.6306 0)
(209.971 65.1753 0)
(210.85 67.7888 0)
(211.873 70.466 0)
(213.153 73.1972 0)
(214.614 75.9829 0)
(216.387 78.8035 0)
(218.355 81.6731 0)
(220.727 84.5362 0)
(223.284 87.4295 0)
(226.358 90.2381 0)
(229.59 93.0841 0)
(233.434 95.7609 0)
(237.447 98.4626 0)
(242.084 100.855 0)
(246.972 103.173 0)
(252.387 105.207 0)
(258.177 107.034 0)
(264.546 108.534 0)
(271.073 109.671 0)
(278.473 110.632 0)
(285.539 110.897 0)
(292.746 111.025 0)
(300.842 110.727 0)
(307.44 110.199 0)
(315.344 109.112 0)
(321.588 108.302 0)
(328.164 107.145 0)
(334.574 105.458 0)
(339.27 103.419 0)
(343.068 101.554 0)
(348.152 100.131 0)
(357.5 98.6102 0)
(360.739 104.045 0)
(155.977 31.2702 0)
(191.118 -5.44211 0)
(197.62 -7.30218 0)
(199.89 -6.61218 0)
(201.761 -6.71652 0)
(203.366 -6.55123 0)
(204.839 -6.41116 0)
(206.086 -6.2845 0)
(206.993 -6.2192 0)
(207.536 -6.20461 0)
(207.849 -6.20402 0)
(208.075 -6.20692 0)
(208.311 -6.20959 0)
(208.612 -6.21378 0)
(208.996 -6.21694 0)
(209.428 -6.21383 0)
(209.854 -6.19129 0)
(210.241 -6.14647 0)
(210.576 -6.07399 0)
(210.863 -5.97238 0)
(211.108 -5.84175 0)
(211.32 -5.68492 0)
(211.502 -5.50367 0)
(211.66 -5.3 0)
(211.798 -5.0763 0)
(211.924 -4.83519 0)
(212.045 -4.58025 0)
(212.167 -4.31305 0)
(212.295 -4.0338 0)
(212.431 -3.74144 0)
(212.579 -3.435 0)
(212.742 -3.11372 0)
(212.917 -2.77659 0)
(213.1 -2.42171 0)
(213.285 -2.04705 0)
(213.465 -1.65094 0)
(213.637 -1.23247 0)
(213.798 -0.790923 0)
(213.946 -0.325975 0)
(214.08 0.162749 0)
(214.198 0.675866 0)
(214.299 1.21386 0)
(214.384 1.77733 0)
(214.448 2.36654 0)
(214.49 2.98236 0)
(214.512 3.62468 0)
(214.516 4.29315 0)
(214.502 4.986 0)
(214.466 5.70552 0)
(214.407 6.45389 0)
(214.329 7.22722 0)
(214.231 8.02768 0)
(214.112 8.85531 0)
(213.973 9.71015 0)
(213.814 10.5925 0)
(213.635 11.5027 0)
(213.436 12.4412 0)
(213.217 13.4087 0)
(212.979 14.4056 0)
(212.722 15.4326 0)
(212.447 16.4903 0)
(212.155 17.5793 0)
(211.846 18.7002 0)
(211.523 19.8538 0)
(211.185 21.0413 0)
(210.834 22.2641 0)
(210.471 23.5231 0)
(210.098 24.8194 0)
(209.718 26.1543 0)
(209.332 27.5292 0)
(208.942 28.9458 0)
(208.55 30.4059 0)
(208.159 31.912 0)
(207.772 33.4656 0)
(207.393 35.068 0)
(207.029 36.7179 0)
(206.686 38.4206 0)
(206.341 40.1921 0)
(206.046 42.0058 0)
(205.771 43.8871 0)
(205.544 45.8289 0)
(205.362 47.8376 0)
(205.234 49.9126 0)
(205.173 52.0584 0)
(205.181 54.2752 0)
(205.285 56.5667 0)
(205.472 58.9319 0)
(205.794 61.3756 0)
(206.216 63.8944 0)
(206.82 66.4915 0)
(207.546 69.1634 0)
(208.501 71.9124 0)
(209.611 74.7384 0)
(210.997 77.6314 0)
(212.561 80.5933 0)
(214.495 83.5885 0)
(216.619 86.6338 0)
(219.234 89.6564 0)
(222.033 92.7226 0)
(225.424 95.683 0)
(228.994 98.6802 0)
(233.209 101.465 0)
(237.641 104.245 0)
(242.672 106.704 0)
(248.063 109.083 0)
(253.984 111.164 0)
(260.418 112.896 0)
(266.967 114.179 0)
(274.442 115.243 0)
(281.017 115.792 0)
(289.281 116.199 0)
(296.476 116.095 0)
(304.646 115.706 0)
(313.005 114.637 0)
(320.34 113.332 0)
(328.223 111.446 0)
(333.266 109.697 0)
(337.011 107.791 0)
(341.588 106.971 0)
(351.917 105.73 0)
(354.806 112.951 0)
(158.324 28.3627 0)
(192.459 -5.51003 0)
(198.344 -6.98513 0)
(200.365 -6.37574 0)
(202.056 -6.44027 0)
(203.533 -6.29837 0)
(204.898 -6.16095 0)
(206.072 -6.06158 0)
(206.936 -6.04554 0)
(207.475 -6.07496 0)
(207.806 -6.09898 0)
(208.039 -6.11664 0)
(208.257 -6.12466 0)
(208.524 -6.12735 0)
(208.868 -6.12699 0)
(209.277 -6.12238 0)
(209.701 -6.10341 0)
(210.098 -6.06589 0)
(210.443 -6.00246 0)
(210.734 -5.90906 0)
(210.977 -5.78447 0)
(211.182 -5.63231 0)
(211.358 -5.4552 0)
(211.51 -5.25611 0)
(211.641 -5.03655 0)
(211.758 -4.79962 0)
(211.867 -4.54867 0)
(211.974 -4.28549 0)
(212.083 -4.0106 0)
(212.199 -3.72293 0)
(212.324 -3.42157 0)
(212.463 -3.10577 0)
(212.615 -2.77468 0)
(212.776 -2.42655 0)
(212.94 -2.05939 0)
(213.102 -1.67146 0)
(213.256 -1.26176 0)
(213.399 -0.829484 0)
(213.529 -0.374431 0)
(213.646 0.103887 0)
(213.746 0.605907 0)
(213.83 1.13216 0)
(213.896 1.6832 0)
(213.942 2.25954 0)
(213.964 2.86206 0)
(213.969 3.4904 0)
(213.957 4.1425 0)
(213.923 4.82044 0)
(213.865 5.52632 0)
(213.787 6.25666 0)
(213.688 7.01323 0)
(213.569 7.796 0)
(213.428 8.60504 0)
(213.267 9.44055 0)
(213.084 10.3029 0)
(212.881 11.1926 0)
(212.657 12.1098 0)
(212.412 13.0552 0)
(212.147 14.0291 0)
(211.862 15.0324 0)
(211.557 16.0655 0)
(211.233 17.1291 0)
(210.892 18.2238 0)
(210.534 19.3503 0)
(210.159 20.5098 0)
(209.769 21.7034 0)
(209.364 22.9325 0)
(208.946 24.1979 0)
(208.519 25.5007 0)
(208.082 26.8423 0)
(207.637 28.2251 0)
(207.185 29.6506 0)
(206.73 31.1206 0)
(206.275 32.6364 0)
(205.823 34.2004 0)
(205.376 35.8153 0)
(204.937 37.4847 0)
(204.515 39.2038 0)
(204.114 40.9814 0)
(203.717 42.8297 0)
(203.367 44.7296 0)
(203.046 46.6994 0)
(202.773 48.7375 0)
(202.551 50.8499 0)
(202.384 53.0365 0)
(202.296 55.3016 0)
(202.276 57.6446 0)
(202.371 60.0725 0)
(202.55 62.582 0)
(202.888 65.1805 0)
(203.329 67.8614 0)
(203.978 70.6296 0)
(204.762 73.4779 0)
(205.799 76.4019 0)
(207.001 79.3985 0)
(208.535 82.4513 0)
(210.246 85.5688 0)
(212.395 88.7108 0)
(214.715 91.9142 0)
(217.577 95.0855 0)
(220.616 98.3044 0)
(224.285 101.398 0)
(228.18 104.52 0)
(232.74 107.42 0)
(237.593 110.28 0)
(243.031 112.863 0)
(248.931 115.277 0)
(255.336 117.287 0)
(262.353 119.107 0)
(269.563 120.255 0)
(277.022 121.14 0)
(285.046 121.638 0)
(291.936 121.845 0)
(300.778 121.716 0)
(307.788 121.43 0)
(316.773 120.44 0)
(323.153 118.886 0)
(328.823 116.426 0)
(334.46 114.391 0)
(345.17 112.641 0)
(348.245 119.424 0)
(160.873 25.3858 0)
(193.819 -5.46386 0)
(198.981 -6.51468 0)
(200.822 -6.04814 0)
(202.361 -6.11999 0)
(203.729 -5.9976 0)
(204.995 -5.91282 0)
(206.081 -5.84574 0)
(206.904 -5.86892 0)
(207.447 -5.93586 0)
(207.792 -5.98769 0)
(208.029 -6.01623 0)
(208.228 -6.02974 0)
(208.449 -6.03461 0)
(208.745 -6.03406 0)
(209.121 -6.02934 0)
(209.537 -6.01689 0)
(209.941 -5.98931 0)
(210.296 -5.93745 0)
(210.592 -5.8538 0)
(210.832 -5.73613 0)
(211.03 -5.58907 0)
(211.199 -5.41659 0)
(211.346 -5.22221 0)
(211.472 -5.00687 0)
(211.581 -4.77423 0)
(211.68 -4.52725 0)
(211.772 -4.26823 0)
(211.865 -3.99787 0)
(211.961 -3.71512 0)
(212.065 -3.41909 0)
(212.18 -3.10905 0)
(212.308 -2.78424 0)
(212.446 -2.44317 0)
(212.589 -2.08393 0)
(212.731 -1.70469 0)
(212.866 -1.30431 0)
(212.992 -0.881884 0)
(213.104 -0.437287 0)
(213.203 0.0300854 0)
(213.285 0.52047 0)
(213.352 1.03446 0)
(213.4 1.57261 0)
(213.426 2.1357 0)
(213.43 2.72439 0)
(213.42 3.33652 0)
(213.389 3.97351 0)
(213.332 4.63819 0)
(213.256 5.32682 0)
(213.158 6.04083 0)
(213.038 6.78026 0)
(212.897 7.54521 0)
(212.735 8.33587 0)
(212.55 9.15246 0)
(212.344 9.9953 0)
(212.116 10.8647 0)
(211.867 11.761 0)
(211.595 12.6848 0)
(211.302 13.6364 0)
(210.988 14.6167 0)
(210.652 15.6261 0)
(210.296 16.6652 0)
(209.921 17.7347 0)
(209.527 18.8351 0)
(209.114 19.9677 0)
(208.684 21.1335 0)
(208.237 22.3338 0)
(207.774 23.5695 0)
(207.298 24.8418 0)
(206.809 26.1519 0)
(206.31 27.5017 0)
(205.8 28.893 0)
(205.283 30.3277 0)
(204.76 31.8074 0)
(204.235 33.3339 0)
(203.711 34.909 0)
(203.191 36.5354 0)
(202.677 38.2171 0)
(202.172 39.9566 0)
(201.686 41.7501 0)
(201.226 43.6053 0)
(200.774 45.534 0)
(200.369 47.5219 0)
(200.001 49.5825 0)
(199.681 51.7181 0)
(199.423 53.9325 0)
(199.22 56.2258 0)
(199.112 58.6052 0)
(199.07 61.0681 0)
(199.163 63.6247 0)
(199.337 66.2679 0)
(199.692 69.0091 0)
(200.159 71.8411 0)
(200.847 74.7708 0)
(201.679 77.7949 0)
(202.802 80.9118 0)
(204.084 84.1214 0)
(205.761 87.401 0)
(207.61 90.7578 0)
(209.975 94.1309 0)
(212.528 97.5632 0)
(215.68 100.943 0)
(219.054 104.37 0)
(223.086 107.659 0)
(227.403 110.949 0)
(232.381 113.964 0)
(237.702 116.905 0)
(243.647 119.548 0)
(250.08 121.896 0)
(257.265 123.982 0)
(264.377 125.454 0)
(272.717 126.843 0)
(280.354 127.505 0)
(288.736 127.884 0)
(296.571 128.078 0)
(304.47 127.697 0)
(311.411 126.841 0)
(317.141 125.073 0)
(322.561 123.863 0)
(333.98 122.097 0)
(336.727 129.895 0)
(163.594 22.3816 0)
(195.081 -5.61535 0)
(199.683 -6.0762 0)
(201.387 -5.70654 0)
(202.785 -5.78709 0)
(204.033 -5.70414 0)
(205.171 -5.6393 0)
(206.134 -5.63456 0)
(206.885 -5.70363 0)
(207.417 -5.8017 0)
(207.773 -5.87211 0)
(208.014 -5.90718 0)
(208.203 -5.92236 0)
(208.397 -5.93039 0)
(208.65 -5.93052 0)
(208.987 -5.9269 0)
(209.386 -5.92086 0)
(209.792 -5.9022 0)
(210.156 -5.8623 0)
(210.454 -5.78919 0)
(210.688 -5.67946 0)
(210.878 -5.53838 0)
(211.039 -5.37168 0)
(211.179 -5.18261 0)
(211.296 -4.97242 0)
(211.397 -4.74479 0)
(211.485 -4.50239 0)
(211.564 -4.24825 0)
(211.641 -3.98308 0)
(211.72 -3.70591 0)
(211.803 -3.41584 0)
(211.896 -3.11212 0)
(211.999 -2.79405 0)
(212.113 -2.46043 0)
(212.233 -2.10951 0)
(212.354 -1.73935 0)
(212.469 -1.34867 0)
(212.575 -0.936546 0)
(212.67 -0.502783 0)
(212.749 -0.046744 0)
(212.815 0.431627 0)
(212.863 0.932958 0)
(212.892 1.45783 0)
(212.897 2.00773 0)
(212.887 2.58029 0)
(212.859 3.17607 0)
(212.805 3.80022 0)
(212.73 4.44743 0)
(212.634 5.11924 0)
(212.516 5.81564 0)
(212.376 6.53677 0)
(212.214 7.28277 0)
(212.03 8.05379 0)
(211.823 8.84998 0)
(211.595 9.67163 0)
(211.343 10.519 0)
(211.07 11.3927 0)
(210.773 12.2928 0)
(210.454 13.2201 0)
(210.113 14.175 0)
(209.749 15.1582 0)
(209.364 16.1703 0)
(208.957 17.2118 0)
(208.53 18.2833 0)
(208.083 19.3858 0)
(207.617 20.5205 0)
(207.131 21.6886 0)
(206.627 22.8911 0)
(206.107 24.129 0)
(205.572 25.4035 0)
(205.023 26.7165 0)
(204.46 28.0696 0)
(203.886 29.4649 0)
(203.301 30.904 0)
(202.71 32.3888 0)
(202.113 33.9213 0)
(201.515 35.504 0)
(200.916 37.1393 0)
(200.322 38.8303 0)
(199.735 40.5804 0)
(199.157 42.3929 0)
(198.599 44.2656 0)
(198.069 46.2052 0)
(197.552 48.2226 0)
(197.075 50.3124 0)
(196.646 52.4787 0)
(196.259 54.7284 0)
(195.95 57.0672 0)
(195.691 59.4936 0)
(195.547 62.0176 0)
(195.464 64.6321 0)
(195.541 67.3522 0)
(195.708 70.1681 0)
(196.07 73.0917 0)
(196.555 76.1154 0)
(197.297 79.244 0)
(198.18 82.4684 0)
(199.414 85.7829 0)
(200.8 89.1862 0)
(202.647 92.6568 0)
(204.662 96.2165 0)
(207.235 99.8024 0)
(210.03 103.458 0)
(213.46 107.05 0)
(217.172 110.673 0)
(221.586 114.13 0)
(226.332 117.585 0)
(231.756 120.768 0)
(237.632 123.846 0)
(244.103 126.54 0)
(251.32 128.921 0)
(258.673 130.738 0)
(267.08 132.532 0)
(275.13 133.534 0)
(284.761 134.268 0)
(293.558 134.099 0)
(302.024 133.301 0)
(309.205 131.503 0)
(315.101 130.622 0)
(326.917 129.888 0)
(329.318 139.423 0)
(166.574 19.4205 0)
(196.407 -5.29528 0)
(200.542 -5.73661 0)
(202.12 -5.49115 0)
(203.388 -5.58225 0)
(204.487 -5.53634 0)
(205.45 -5.48042 0)
(206.243 -5.4976 0)
(206.872 -5.5697 0)
(207.366 -5.66734 0)
(207.734 -5.74424 0)
(207.996 -5.77997 0)
(208.188 -5.80529 0)
(208.369 -5.81659 0)
(208.583 -5.82653 0)
(208.874 -5.82646 0)
(209.242 -5.82753 0)
(209.637 -5.81886 0)
(210.002 -5.79228 0)
(210.303 -5.73129 0)
(210.536 -5.63116 0)
(210.718 -5.49726 0)
(210.872 -5.33735 0)
(211.002 -5.15393 0)
(211.112 -4.94957 0)
(211.203 -4.727 0)
(211.28 -4.48933 0)
(211.348 -4.24024 0)
(211.412 -3.98044 0)
(211.474 -3.70901 0)
(211.539 -3.42504 0)
(211.61 -3.12775 0)
(211.69 -2.81644 0)
(211.78 -2.4904 0)
(211.876 -2.14795 0)
(211.974 -1.78714 0)
(212.069 -1.40655 0)
(212.155 -1.0052 0)
(212.231 -0.582696 0)
(212.292 -0.138441 0)
(212.34 0.327543 0)
(212.369 0.815847 0)
(212.378 1.32761 0)
(212.366 1.86275 0)
(212.344 2.41655 0)
(212.291 3.0015 0)
(212.218 3.608 0)
(212.124 4.23853 0)
(212.009 4.89288 0)
(211.872 5.57123 0)
(211.712 6.27373 0)
(211.529 7.00049 0)
(211.323 7.75165 0)
(211.094 8.52734 0)
(210.842 9.32782 0)
(210.568 10.1534 0)
(210.269 11.0044 0)
(209.948 11.8813 0)
(209.602 12.7846 0)
(209.234 13.7146 0)
(208.841 14.6722 0)
(208.425 15.6578 0)
(207.987 16.6721 0)
(207.526 17.7155 0)
(207.044 18.789 0)
(206.541 19.8935 0)
(206.016 21.0305 0)
(205.471 22.2007 0)
(204.906 23.4054 0)
(204.324 24.6456 0)
(203.725 25.9229 0)
(203.11 27.2389 0)
(202.479 28.5957 0)
(201.834 29.9948 0)
(201.177 31.4382 0)
(200.511 32.9276 0)
(199.839 34.4656 0)
(199.161 36.0544 0)
(198.481 37.6972 0)
(197.8 39.3963 0)
(197.124 41.1549 0)
(196.458 42.9763 0)
(195.804 44.8646 0)
(195.169 46.8189 0)
(194.565 48.8447 0)
(193.982 50.9523 0)
(193.429 53.1419 0)
(192.943 55.4116 0)
(192.491 57.7727 0)
(192.135 60.2323 0)
(191.819 62.7862 0)
(191.639 65.4506 0)
(191.522 68.2148 0)
(191.571 71.0967 0)
(191.72 74.0877 0)
(192.087 77.2024 0)
(192.574 80.4309 0)
(193.365 83.7844 0)
(194.288 87.2506 0)
(195.63 90.8259 0)
(197.129 94.5043 0)
(199.149 98.2557 0)
(201.373 102.096 0)
(204.196 105.948 0)
(207.3 109.86 0)
(211.072 113.708 0)
(215.174 117.612 0)
(220.017 121.318 0)
(225.244 124.938 0)
(231.203 128.259 0)
(237.712 131.33 0)
(244.713 133.94 0)
(252.592 136.552 0)
(260.095 138.329 0)
(269.462 140.061 0)
(277.516 141.13 0)
(286.704 141.741 0)
(294.726 141.252 0)
(301.328 140.524 0)
(313.332 139.706 0)
(315.731 148.432 0)
(169.703 16.4573 0)
(197.67 -5.35189 0)
(201.128 -5.11345 0)
(202.69 -4.93496 0)
(203.858 -5.08036 0)
(204.811 -5.13706 0)
(205.601 -5.18915 0)
(206.228 -5.27965 0)
(206.735 -5.41609 0)
(207.229 -5.52792 0)
(207.652 -5.60832 0)
(207.964 -5.6532 0)
(208.19 -5.68267 0)
(208.372 -5.70464 0)
(208.562 -5.72241 0)
(208.804 -5.72547 0)
(209.123 -5.72971 0)
(209.492 -5.72747 0)
(209.853 -5.71162 0)
(210.156 -5.66268 0)
(210.39 -5.57335 0)
(210.566 -5.44819 0)
(210.709 -5.29622 0)
(210.827 -5.1196 0)
(210.925 -4.92241 0)
(211.004 -4.70562 0)
(211.069 -4.47356 0)
(211.126 -4.23019 0)
(211.177 -3.97636 0)
(211.226 -3.71131 0)
(211.273 -3.43417 0)
(211.324 -3.14405 0)
(211.381 -2.84019 0)
(211.446 -2.52227 0)
(211.518 -2.18867 0)
(211.593 -1.83752 0)
(211.665 -1.46737 0)
(211.731 -1.07719 0)
(211.787 -0.666328 0)
(211.83 -0.234318 0)
(211.858 0.218918 0)
(211.868 0.694164 0)
(211.858 1.19218 0)
(211.836 1.70751 0)
(211.787 2.2526 0)
(211.717 2.81888 0)
(211.625 3.4088 0)
(211.512 4.02196 0)
(211.377 4.65838 0)
(211.22 5.31814 0)
(211.04 6.00135 0)
(210.836 6.70814 0)
(210.61 7.4386 0)
(210.359 8.19285 0)
(210.086 8.97108 0)
(209.788 9.77358 0)
(209.467 10.6007 0)
(209.121 11.4528 0)
(208.751 12.3304 0)
(208.356 13.2338 0)
(207.938 14.1638 0)
(207.494 15.1209 0)
(207.027 16.1056 0)
(206.536 17.1185 0)
(206.022 18.1603 0)
(205.485 19.232 0)
(204.925 20.3348 0)
(204.343 21.4697 0)
(203.739 22.6379 0)
(203.114 23.8402 0)
(202.47 25.0782 0)
(201.807 26.3534 0)
(201.126 27.6678 0)
(200.426 29.0231 0)
(199.711 30.4212 0)
(198.982 31.8638 0)
(198.241 33.3532 0)
(197.489 34.8919 0)
(196.729 36.4828 0)
(195.962 38.1285 0)
(195.192 39.8323 0)
(194.422 41.5967 0)
(193.657 43.4259 0)
(192.901 45.3236 0)
(192.157 47.2949 0)
(191.429 49.3402 0)
(190.735 51.4633 0)
(190.068 53.6747 0)
(189.416 55.9835 0)
(188.854 58.3784 0)
(188.309 60.8745 0)
(187.887 63.483 0)
(187.501 66.1939 0)
(187.263 69.026 0)
(187.098 71.9706 0)
(187.122 75.0464 0)
(187.243 78.2405 0)
(187.625 81.5721 0)
(188.118 85.0236 0)
(188.975 88.6138 0)
(189.958 92.3271 0)
(191.413 96.1665 0)
(193.04 100.123 0)
(195.227 104.162 0)
(197.68 108.306 0)
(200.764 112.488 0)
(204.196 116.751 0)
(208.375 120.912 0)
(212.963 125.075 0)
(218.346 129.004 0)
(224.229 132.902 0)
(230.894 136.537 0)
(238.073 139.812 0)