/*--------------------------------*- C++ -*----------------------------------*\
| =========                 |                                                 |
| \\      /  F ield         | OpenFOAM: The Open Source CFD Toolbox           |
|  \\    /   O peration     | Version:  2412                                  |
|   \\  /    A nd           | Website:  www.openfoam.com                      |
|    \\/     M anipulation  |                                                 |
\*---------------------------------------------------------------------------*/
FoamFile
{
    version     2.0;
    format      ascii;
    arch        "LSB;label=32;scalar=64";
    class       volScalarField;
    location    "0.045";
    object      rho;
}
// * * * * * * * * * * * * * * * * * * * * * * * * * * * * * * * * * * * * * //

dimensions      [1 -3 0 0 0 0 0];

internalField   nonuniform List<scalar> 
78650
(
0.042133
0.042133
0.042133
0.0421333
0.0421387
0.0421795
0.0422875
0.042402
0.0424436
0.0424449
0.0423711
0.0422192
0.0420741
0.0419676
0.0418881
0.041815
0.0417324
0.0416479
0.0415896
0.0415717
0.0415789
0.0416109
0.0416484
0.0416674
0.0416706
0.0416636
0.0416472
0.0416298
0.0416138
0.041598
0.0415816
0.0415651
0.0415492
0.0415338
0.0415189
0.0415048
0.041492
0.0414805
0.0414699
0.0414597
0.0414494
0.0414387
0.0414279
0.041417
0.0414061
0.0413955
0.041385
0.0413747
0.0413645
0.0413542
0.041344
0.0413339
0.0413239
0.041314
0.0413042
0.0412944
0.0412844
0.0412739
0.0412627
0.0412509
0.0412382
0.0412243
0.041209
0.0411919
0.0411726
0.0411506
0.0411254
0.0410966
0.0410638
0.0410264
0.0409834
0.040934
0.0408777
0.0408138
0.0407416
0.0406599
0.0405675
0.0404628
0.0403446
0.0402116
0.0400626
0.0398964
0.0397114
0.0395065
0.0392796
0.0390293
0.0387518
0.0384451
0.0381074
0.0377392
0.0373364
0.036898
0.0364203
0.0359108
0.0353599
0.0347689
0.0341315
0.0334557
0.0327453
0.031989
0.0312249
0.030452
0.0296754
0.0288722
0.0280153
0.0271318
0.0263145
0.0255901
0.0249138
0.0242414
0.0235643
0.0229173
0.0223328
0.0218123
0.0213427
0.0208895
0.0204846
0.0200842
0.0196981
0.0193316
0.0186992
0.042133
0.042133
0.042133
0.0421332
0.0421363
0.0421659
0.042263
0.0423865
0.0424444
0.0424565
0.0424046
0.042263
0.0421115
0.0419998
0.0419198
0.0418511
0.0417748
0.041691
0.041623
0.0415943
0.0415941
0.0416164
0.0416554
0.0416824
0.04169
0.0416866
0.0416734
0.0416568
0.0416415
0.0416274
0.0416128
0.041598
0.0415836
0.0415697
0.0415564
0.0415439
0.0415328
0.0415231
0.0415143
0.041506
0.0414976
0.0414889
0.04148
0.041471
0.0414621
0.0414535
0.0414451
0.041437
0.041429
0.0414211
0.0414133
0.0414057
0.0413983
0.0413911
0.0413842
0.0413774
0.0413706
0.0413636
0.0413561
0.0413481
0.0413394
0.0413299
0.0413193
0.0413072
0.0412933
0.0412771
0.0412582
0.0412362
0.0412106
0.041181
0.0411465
0.0411065
0.0410601
0.041007
0.0409464
0.0408774
0.0407988
0.0407092
0.0406074
0.0404921
0.0403622
0.0402166
0.0400538
0.0398724
0.03967
0.039445
0.0391947
0.0389185
0.0386146
0.0382806
0.0379121
0.0375082
0.0370665
0.0365905
0.0360706
0.0355154
0.0349196
0.034284
0.0336143
0.0329245
0.0321903
0.0314198
0.0306261
0.0298398
0.0290506
0.0282031
0.0273459
0.0265148
0.0257396
0.0250118
0.0243202
0.0236396
0.0229861
0.0223598
0.0217916
0.021281
0.0208384
0.0204406
0.0200584
0.0196769
0.0190338
0.042133
0.042133
0.042133
0.0421331
0.0421348
0.0421551
0.0422381
0.0423667
0.0424434
0.0424667
0.0424327
0.0423053
0.0421502
0.0420337
0.0419527
0.0418874
0.0418174
0.0417369
0.0416629
0.0416211
0.0416128
0.0416256
0.0416614
0.0416953
0.0417085
0.0417084
0.0416996
0.0416847
0.0416701
0.0416572
0.0416446
0.0416317
0.0416189
0.0416066
0.0415949
0.0415841
0.0415747
0.0415666
0.0415598
0.0415533
0.0415468
0.0415401
0.0415331
0.0415261
0.0415192
0.0415125
0.0415063
0.0415003
0.0414946
0.041489
0.0414836
0.0414786
0.0414738
0.0414694
0.0414654
0.0414616
0.0414581
0.0414544
0.0414505
0.0414463
0.0414417
0.0414366
0.0414305
0.0414234
0.0414148
0.0414044
0.0413915
0.0413761
0.0413576
0.0413355
0.0413093
0.0412782
0.0412415
0.0411986
0.0411491
0.041092
0.0410264
0.040951
0.0408644
0.0407656
0.0406533
0.0405265
0.0403837
0.0402237
0.0400445
0.039845
0.0396229
0.0393768
0.0391033
0.0387998
0.0384635
0.0380947
0.0376925
0.0372573
0.0367816
0.0362729
0.0357188
0.0351253
0.0344903
0.033807
0.0330806
0.0323248
0.0315587
0.0307505
0.0299624
0.0291458
0.0283026
0.0274386
0.0265791
0.0257369
0.0249655
0.024264
0.0235896
0.0229644
0.0223409
0.0217207
0.0211456
0.0206055
0.0201457
0.0197438
0.0190458
0.042133
0.042133
0.042133
0.0421331
0.0421339
0.0421468
0.0422137
0.0423421
0.0424393
0.0424755
0.0424534
0.0423467
0.0421927
0.0420711
0.0419876
0.0419243
0.0418602
0.0417849
0.0417081
0.0416537
0.0416353
0.0416394
0.0416664
0.0417044
0.0417259
0.0417301
0.0417256
0.0417136
0.0416999
0.0416882
0.0416775
0.0416666
0.0416556
0.0416449
0.0416348
0.0416256
0.0416179
0.0416115
0.0416065
0.0416019
0.0415973
0.0415925
0.0415875
0.0415824
0.0415774
0.0415728
0.0415686
0.0415648
0.0415612
0.041558
0.041555
0.0415524
0.0415502
0.0415485
0.0415472
0.0415464
0.041546
0.0415456
0.0415453
0.0415448
0.0415441
0.041543
0.0415414
0.041539
0.0415355
0.0415306
0.0415237
0.0415145
0.0415027
0.0414879
0.0414696
0.0414471
0.0414196
0.0413866
0.0413477
0.0413022
0.0412492
0.0411875
0.0411159
0.0410332
0.0409383
0.0408303
0.0407078
0.0405697
0.0404142
0.0402398
0.0400441
0.0398256
0.0395819
0.0393108
0.03901
0.0386793
0.0383156
0.0379164
0.0374761
0.0369992
0.0364753
0.0359176
0.0353155
0.0346732
0.0339957
0.0332653
0.0325201
0.0317152
0.0308853
0.0300755
0.0292511
0.0284019
0.0275493
0.0266816
0.0258172
0.0250205
0.0242413
0.0235384
0.022928
0.0223583
0.0218137
0.0212285
0.0206451
0.0201135
0.0192254
0.042133
0.042133
0.042133
0.042133
0.0421334
0.0421409
0.0421913
0.0423131
0.0424295
0.0424799
0.0424683
0.0423875
0.042239
0.0421117
0.0420246
0.041962
0.041903
0.0418337
0.0417574
0.0416933
0.0416619
0.0416576
0.0416734
0.0417109
0.0417417
0.041752
0.0417512
0.0417435
0.0417316
0.0417209
0.0417117
0.041703
0.0416939
0.0416851
0.0416765
0.0416689
0.0416628
0.0416582
0.0416549
0.0416522
0.0416495
0.0416466
0.0416435
0.0416404
0.0416374
0.0416347
0.0416325
0.0416309
0.0416296
0.0416286
0.041628
0.0416279
0.0416283
0.0416292
0.0416307
0.0416328
0.0416355
0.0416384
0.0416415
0.0416447
0.0416479
0.0416509
0.0416537
0.0416559
0.0416573
0.0416577
0.0416565
0.0416535
0.0416484
0.0416406
0.0416299
0.0416156
0.041597
0.0415735
0.0415448
0.0415102
0.0414691
0.0414202
0.0413626
0.0412951
0.0412165
0.0411259
0.0410221
0.040904
0.0407699
0.0406184
0.0404479
0.040257
0.040043
0.0398033
0.0395355
0.0392384
0.038909
0.0385458
0.0381451
0.0377085
0.0372283
0.0367155
0.0361567
0.0355604
0.0349179
0.0342273
0.0334863
0.0327155
0.031886
0.031049
0.0302124
0.0293554
0.0285111
0.0276817
0.02682
0.025985
0.0251427
0.0242959
0.0235123
0.022816
0.0222237
0.0216682
0.0211397
0.0206342
0.019745
0.042133
0.042133
0.042133
0.042133
0.0421332
0.0421371
0.0421721
0.0422806
0.0424122
0.0424806
0.0424797
0.0424264
0.0422885
0.0421554
0.0420641
0.0420012
0.0419462
0.0418826
0.0418089
0.0417389
0.0416937
0.0416797
0.0416858
0.0417164
0.041754
0.0417735
0.0417773
0.0417739
0.041765
0.0417554
0.0417478
0.041741
0.041734
0.041727
0.0417202
0.0417141
0.0417096
0.0417066
0.0417051
0.0417042
0.0417034
0.0417024
0.0417013
0.0417001
0.0416991
0.0416984
0.0416982
0.0416986
0.0416995
0.0417009
0.0417026
0.0417049
0.0417078
0.0417114
0.0417156
0.0417206
0.0417263
0.0417324
0.0417389
0.0417456
0.0417525
0.0417595
0.0417665
0.0417732
0.0417794
0.0417848
0.0417892
0.0417921
0.0417932
0.0417922
0.0417888
0.0417825
0.0417724
0.0417581
0.0417391
0.041715
0.0416853
0.0416489
0.041605
0.0415522
0.0414895
0.0414162
0.041331
0.0412328
0.0411202
0.0409922
0.0408465
0.0406818
0.0404954
0.0402857
0.0400508
0.0397885
0.0394958
0.039171
0.0388112
0.0384153
0.0379775
0.0375028
0.0369792
0.0364212
0.0358155
0.0351706
0.0344789
0.0337397
0.0329554
0.03212
0.0312632
0.0303649
0.0294473
0.0285697
0.0276813
0.0267984
0.0259699
0.0251588
0.0243649
0.0235647
0.0227852
0.0220526
0.0214201
0.0208692
0.0198792
0.042133
0.042133
0.042133
0.042133
0.0421331
0.042135
0.042157
0.0422469
0.0423863
0.0424773
0.0424895
0.0424601
0.0423385
0.042202
0.0421065
0.0420419
0.0419892
0.0419303
0.0418603
0.0417882
0.0417322
0.0417067
0.0417046
0.0417237
0.0417634
0.0417938
0.0418048
0.0418051
0.0418002
0.0417923
0.0417858
0.0417808
0.041776
0.041771
0.0417659
0.0417614
0.0417583
0.041757
0.0417571
0.0417581
0.0417591
0.04176
0.0417608
0.0417616
0.0417625
0.0417638
0.0417657
0.0417682
0.0417713
0.0417749
0.041779
0.0417838
0.0417892
0.0417953
0.0418023
0.0418101
0.0418188
0.0418281
0.0418379
0.0418481
0.0418587
0.0418696
0.0418807
0.0418918
0.0419027
0.0419132
0.0419229
0.0419315
0.0419387
0.0419442
0.0419478
0.041949
0.0419471
0.0419418
0.0419324
0.0419181
0.0418992
0.0418745
0.0418433
0.0418042
0.0417565
0.0416991
0.041631
0.0415513
0.0414586
0.0413518
0.041229
0.0410892
0.0409304
0.0407509
0.0405479
0.0403187
0.0400606
0.0397726
0.0394519
0.0390967
0.0387027
0.0382724
0.0377967
0.0372852
0.0367226
0.0361224
0.0354708
0.0347625
0.0340244
0.0332288
0.0323999
0.0315393
0.0306244
0.0296822
0.0287489
0.0277768
0.0268683
0.025976
0.0251358
0.0243562
0.0235825
0.0228214
0.0220872
0.0214134
0.0202012
0.042133
0.042133
0.042133
0.042133
0.0421331
0.0421338
0.0421463
0.0422147
0.0423524
0.0424674
0.042498
0.0424854
0.0423882
0.0422533
0.0421521
0.0420833
0.0420309
0.0419757
0.0419104
0.0418399
0.041778
0.0417403
0.0417297
0.0417381
0.0417725
0.0418115
0.0418326
0.0418378
0.0418366
0.0418313
0.041826
0.0418224
0.0418195
0.0418166
0.0418134
0.0418105
0.041809
0.0418091
0.0418109
0.0418135
0.0418164
0.0418192
0.0418219
0.0418247
0.0418276
0.0418308
0.0418347
0.0418392
0.0418445
0.0418504
0.0418568
0.041864
0.0418719
0.0418806
0.0418902
0.0419008
0.0419124
0.0419248
0.0419379
0.0419515
0.0419657
0.0419803
0.0419954
0.0420108
0.0420262
0.0420414
0.0420563
0.0420704
0.0420835
0.0420954
0.0421056
0.0421139
0.0421197
0.0421226
0.0421226
0.0421181
0.0421097
0.0420961
0.0420771
0.0420514
0.0420181
0.0419763
0.0419251
0.0418636
0.0417906
0.0417049
0.0416049
0.0414895
0.0413564
0.0412043
0.0410305
0.0408328
0.0406092
0.0403582
0.0400771
0.0397637
0.0394131
0.0390242
0.0385902
0.0381183
0.0375961
0.0370347
0.0364172
0.0357576
0.0350461
0.0342826
0.0334746
0.0326386
0.031795
0.0308659
0.0299701
0.0290112
0.0280458
0.0270834
0.0261045
0.0251986
0.0243442
0.023552
0.02282
0.0221429
0.0209251
0.042133
0.042133
0.042133
0.042133
0.042133
0.0421333
0.0421395
0.0421867
0.0423131
0.042449
0.0425012
0.0425032
0.0424368
0.0423083
0.0421987
0.0421237
0.0420708
0.0420195
0.0419595
0.041893
0.0418294
0.0417821
0.0417619
0.0417618
0.0417843
0.0418262
0.0418591
0.0418724
0.0418745
0.0418723
0.0418684
0.0418657
0.0418645
0.0418638
0.0418626
0.0418614
0.0418614
0.0418629
0.0418661
0.0418704
0.0418751
0.0418798
0.0418844
0.0418891
0.041894
0.0418992
0.0419051
0.0419117
0.0419191
0.0419272
0.041936
0.0419456
0.041956
0.0419673
0.0419795
0.0419929
0.0420073
0.0420228
0.0420391
0.0420561
0.0420737
0.0420921
0.0421111
0.0421306
0.0421504
0.0421703
0.0421902
0.0422097
0.0422285
0.0422463
0.0422631
0.0422784
0.0422918
0.0423027
0.0423107
0.0423156
0.0423171
0.0423142
0.0423068
0.0422937
0.0422737
0.0422463
0.0422106
0.0421658
0.0421108
0.0420446
0.0419656
0.0418727
0.0417643
0.0416391
0.041495
0.0413298
0.0411409
0.0409259
0.0406817
0.0404064
0.0400961
0.03975
0.0393637
0.0389401
0.0384686
0.0379567
0.0373888
0.0367808
0.036114
0.0353903
0.0346119
0.0337656
0.0329024
0.0319619
0.0310204
0.030083
0.0290911
0.028127
0.0271178
0.0261381
0.0251656
0.0242335
0.0233661
0.0225923
0.0211137
0.042133
0.042133
0.042133
0.042133
0.042133
0.0421331
0.0421358
0.0421649
0.0422711
0.0424202
0.0424987
0.0425188
0.0424798
0.0423631
0.0422445
0.0421639
0.0421107
0.0420633
0.0420087
0.041947
0.0418852
0.0418327
0.0418018
0.041794
0.0418042
0.041841
0.0418827
0.0419067
0.041914
0.0419144
0.0419124
0.0419107
0.0419107
0.0419118
0.0419128
0.0419135
0.041915
0.0419179
0.0419225
0.0419283
0.0419348
0.0419414
0.041948
0.0419546
0.0419614
0.0419687
0.0419765
0.0419852
0.0419947
0.042005
0.0420161
0.042028
0.0420408
0.0420546
0.0420695
0.0420855
0.0421027
0.0421211
0.0421406
0.0421608
0.0421819
0.0422038
0.0422265
0.04225
0.042274
0.0422984
0.0423231
0.0423477
0.0423719
0.0423956
0.0424186
0.0424404
0.0424609
0.0424795
0.042496
0.0425096
0.0425201
0.0425273
0.0425307
0.0425298
0.0425229
0.04251
0.0424892
0.0424608
0.0424233
0.0423761
0.0423177
0.0422471
0.0421625
0.0420628
0.0419457
0.0418091
0.0416507
0.0414685
0.0412605
0.0410252
0.040759
0.0404594
0.0401214
0.039745
0.0393223
0.0388595
0.0383449
0.0377875
0.0371674
0.0365002
0.035781
0.0350102
0.0341688
0.0332684
0.0323013
0.0313461
0.0303048
0.0293006
0.0282789
0.0272878
0.0263051
0.0253386
0.0243897
0.0235189
0.0218433
0.042133
0.042133
0.042133
0.042133
0.042133
0.0421331
0.0421341
0.0421498
0.0422305
0.042382
0.042491
0.0425319
0.042511
0.0424135
0.0422912
0.0422062
0.0421518
0.0421074
0.0420577
0.042001
0.0419429
0.0418893
0.0418499
0.0418335
0.0418348
0.0418586
0.0419022
0.0419379
0.0419539
0.0419575
0.0419573
0.0419564
0.0419573
0.0419603
0.0419635
0.0419662
0.0419694
0.0419737
0.0419796
0.0419869
0.0419951
0.0420036
0.0420122
0.0420208
0.0420296
0.0420389
0.0420487
0.0420594
0.042071
0.0420835
0.0420969
0.0421111
0.0421263
0.0421426
0.0421601
0.0421787
0.0421987
0.04222
0.0422425
0.042266
0.0422904
0.0423158
0.0423422
0.0423695
0.0423976
0.0424264
0.0424556
0.0424851
0.0425147
0.0425439
0.0425728
0.042601
0.0426283
0.0426542
0.0426784
0.0427004
0.0427201
0.0427369
0.0427503
0.0427598
0.0427648
0.0427653
0.0427587
0.0427456
0.0427242
0.0426944
0.0426547
0.0426044
0.0425418
0.0424658
0.0423746
0.0422667
0.0421402
0.0419926
0.0418216
0.0416244
0.0413975
0.0411388
0.0408441
0.0405127
0.0401388
0.0397255
0.039262
0.0387527
0.0381826
0.0375687
0.0368924
0.0361604
0.0353681
0.0345244
0.0336261
0.0326671
0.0316746
0.030627
0.0295753
0.0284551
0.0273764
0.0263276
0.0253254
0.024432
0.0227812
0.042133
0.042133
0.042133
0.042133
0.042133
0.042133
0.0421334
0.0421408
0.0421955
0.0423362
0.0424753
0.0425369
0.0425304
0.0424618
0.0423417
0.042251
0.0421937
0.0421515
0.0421067
0.0420551
0.0420015
0.0419501
0.0419063
0.0418802
0.0418735
0.0418839
0.0419207
0.0419644
0.0419912
0.0420004
0.0420022
0.0420026
0.0420042
0.0420084
0.0420137
0.0420187
0.0420238
0.0420297
0.042037
0.0420458
0.0420557
0.0420661
0.0420767
0.0420873
0.0420982
0.0421094
0.0421212
0.0421338
0.0421475
0.0421621
0.0421777
0.0421943
0.0422119
0.0422306
0.0422505
0.0422718
0.0422944
0.0423184
0.0423438
0.0423704
0.0423981
0.0424268
0.0424567
0.0424877
0.0425197
0.0425526
0.0425862
0.0426204
0.0426549
0.0426895
0.042724
0.0427582
0.0427919
0.0428248
0.0428564
0.0428863
0.0429144
0.0429402
0.0429636
0.0429839
0.0430002
0.0430121
0.0430191
0.0430208
0.0430154
0.0430026
0.0429813
0.0429506
0.0429092
0.042856
0.0427896
0.0427083
0.0426102
0.0424929
0.042354
0.0421915
0.0420031
0.0417866
0.0415379
0.0412548
0.040932
0.0405704
0.0401602
0.0397043
0.0391905
0.0386287
0.0379994
0.0373161
0.0365656
0.0357514
0.0348913
0.0339007
0.0329214
0.0318561
0.0308096
0.0296525
0.028537
0.0274034
0.0262513
0.0252029
0.0231637
0.042133
0.042133
0.042133
0.042133
0.042133
0.042133
0.0421331
0.0421362
0.042169
0.0422874
0.0424465
0.0425354
0.0425434
0.0425052
0.0423935
0.042296
0.0422353
0.0421952
0.0421559
0.0421095
0.0420597
0.042011
0.0419662
0.041932
0.041917
0.0419177
0.0419403
0.0419847
0.0420229
0.0420411
0.0420466
0.0420483
0.0420504
0.0420555
0.0420629
0.0420704
0.0420776
0.0420852
0.042094
0.0421044
0.0421161
0.0421285
0.0421411
0.0421538
0.0421667
0.0421798
0.0421936
0.0422082
0.0422239
0.0422406
0.0422584
0.0422772
0.0422971
0.0423182
0.0423406
0.0423644
0.0423896
0.0424164
0.0424447
0.0424743
0.0425051
0.0425371
0.0425703
0.0426049
0.0426407
0.0426776
0.0427154
0.0427541
0.0427934
0.0428331
0.0428729
0.0429129
0.0429527
0.042992
0.0430306
0.0430681
0.0431042
0.0431385
0.0431709
0.0432009
0.043228
0.0432516
0.0432707
0.0432849
0.0432936
0.0432966
0.0432922
0.0432798
0.0432582
0.043226
0.0431824
0.0431259
0.0430549
0.0429674
0.0428612
0.0427343
0.042584
0.042408
0.0422022
0.0419646
0.0416906
0.0413794
0.0410236
0.0406253
0.0401738
0.0396729
0.0391075
0.0384918
0.0378075
0.0370578
0.0362336
0.0353497
0.0344008
0.0333827
0.032315
0.0311594
0.0300003
0.0288575
0.0277006
0.0266213
0.0245043
0.042133
0.042133
0.042133
0.042133
0.042133
0.042133
0.0421331
0.0421341
0.0421515
0.0422412
0.0424053
0.0425261
0.0425549
0.0425383
0.0424427
0.0423407
0.0422777
0.0422393
0.042205
0.042163
0.0421156
0.0420689
0.0420251
0.0419872
0.0419636
0.0419569
0.0419663
0.0420028
0.0420485
0.0420778
0.0420894
0.0420933
0.0420964
0.0421021
0.042111
0.0421209
0.0421304
0.0421399
0.0421504
0.0421624
0.0421759
0.0421903
0.0422051
0.0422199
0.0422348
0.0422499
0.0422656
0.0422821
0.0422997
0.0423185
0.0423384
0.0423594
0.0423816
0.042405
0.0424298
0.042456
0.0424837
0.0425131
0.0425441
0.0425766
0.0426104
0.0426455
0.042682
0.0427199
0.0427593
0.0427999
0.0428417
0.0428846
0.0429284
0.0429729
0.0430178
0.0430631
0.0431086
0.0431541
0.0431993
0.0432438
0.0432874
0.0433297
0.0433707
0.0434099
0.043447
0.0434812
0.0435121
0.0435392
0.0435616
0.0435786
0.0435897
0.0435945
0.0435921
0.0435802
0.0435586
0.0435251
0.0434794
0.0434192
0.0433428
0.0432481
0.0431327
0.0429943
0.0428298
0.0426365
0.04241
0.0421481
0.0418446
0.0415
0.0411044
0.0406599
0.0401539
0.0395945
0.0389623
0.0382676
0.0374978
0.0366573
0.0357429
0.0347491
0.0336443
0.0325222
0.0313095
0.0301092
0.0288993
0.027795
0.0256651
0.042133
0.042133
0.042133
0.042133
0.042133
0.042133
0.042133
0.0421334
0.0421414
0.0422024
0.0423567
0.0425074
0.0425617
0.0425587
0.0424887
0.0423873
0.042321
0.0422822
0.0422512
0.0422127
0.0421674
0.0421223
0.042081
0.0420431
0.0420136
0.0420003
0.0420007
0.0420228
0.0420689
0.0421092
0.0421299
0.0421378
0.0421422
0.0421483
0.0421581
0.04217
0.0421819
0.0421936
0.042206
0.0422198
0.0422352
0.0422516
0.0422684
0.0422853
0.0423021
0.0423192
0.0423368
0.0423551
0.0423746
0.0423954
0.0424174
0.0424405
0.0424649
0.0424906
0.0425177
0.0425463
0.0425765
0.0426083
0.042642
0.0426772
0.042714
0.0427521
0.0427917
0.0428329
0.0428757
0.0429199
0.0429655
0.0430124
0.0430604
0.0431094
0.0431592
0.0432096
0.0432605
0.0433118
0.0433631
0.0434143
0.0434649
0.0435147
0.0435637
0.0436114
0.0436577
0.0437018
0.0437434
0.0437819
0.0438167
0.0438473
0.043873
0.0438928
0.0439064
0.0439129
0.0439125
0.0439006
0.043879
0.0438441
0.0437959
0.0437316
0.0436495
0.0435468
0.0434208
0.0432689
0.0430871
0.0428734
0.0426227
0.0423342
0.041999
0.0416173
0.041178
0.0406854
0.0401226
0.0394985
0.0387986
0.0380278
0.0371702
0.0362281
0.0352139
0.0341374
0.0329146
0.0316618
0.0303138
0.0290425
0.0266012
0.042133
0.042133
0.042133
0.042133
0.042133
0.042133
0.042133
0.0421331
0.0421364
0.0421736
0.0423061
0.0424783
0.0425604
0.0425737
0.0425305
0.0424344
0.042362
0.042321
0.0422927
0.0422586
0.0422164
0.0421733
0.0421344
0.0420988
0.0420674
0.0420476
0.0420417
0.0420507
0.0420887
0.0421364
0.0421676
0.0421815
0.0421882
0.0421949
0.0422052
0.0422186
0.0422326
0.0422464
0.0422608
0.0422765
0.0422938
0.0423122
0.042331
0.0423499
0.0423687
0.0423876
0.0424069
0.042427
0.0424483
0.0424709
0.0424949
0.0425202
0.0425467
0.0425745
0.0426039
0.0426347
0.0426673
0.0427015
0.0427376
0.0427755
0.042815
0.0428561
0.0428986
0.0429428
0.0429888
0.0430364
0.0430856
0.0431362
0.0431882
0.0432414
0.0432957
0.0433509
0.0434068
0.0434634
0.0435204
0.0435777
0.0436348
0.0436917
0.0437481
0.0438037
0.0438585
0.0439119
0.0439634
0.0440127
0.0440591
0.0441022
0.0441415
0.0441762
0.0442059
0.0442291
0.0442456
0.0442544
0.0442556
0.0442443
0.0442223
0.0441858
0.0441341
0.0440647
0.0439753
0.0438636
0.0437261
0.0435605
0.0433616
0.043127
0.0428487
0.0425263
0.0421496
0.0417199
0.0412245
0.0406696
0.0400348
0.0393236
0.0385253
0.0376549
0.0366978
0.0356392
0.0344936
0.0332464
0.0319343
0.0307438
0.0285057
0.042133
0.042133
0.042133
0.042133
0.042133
0.042133
0.042133
0.0421331
0.0421343
0.0421547
0.0422589
0.0424399
0.042552
0.0425879
0.0425652
0.0424766
0.0423987
0.042356
0.0423309
0.0423023
0.0422643
0.0422231
0.042186
0.0421529
0.0421223
0.0420983
0.0420874
0.0420882
0.0421123
0.0421608
0.0422025
0.0422247
0.0422349
0.0422426
0.042253
0.0422671
0.0422829
0.0422988
0.0423152
0.0423328
0.042352
0.0423723
0.042393
0.0424137
0.0424342
0.0424548
0.0424758
0.0424975
0.0425205
0.0425449
0.0425708
0.042598
0.0426266
0.0426565
0.042688
0.0427211
0.0427559
0.0427925
0.0428309
0.0428713
0.0429135
0.0429573
0.0430026
0.0430497
0.0430987
0.0431496
0.0432021
0.0432563
0.043312
0.0433692
0.0434278
0.0434874
0.0435481
0.0436097
0.043672
0.043735
0.0437982
0.0438616
0.0439248
0.0439878
0.0440504
0.0441122
0.0441728
0.0442319
0.0442889
0.0443433
0.0443948
0.0444427
0.0444865
0.0445256
0.0445593
0.044586
0.0446055
0.0446166
0.0446191
0.0446087
0.044586
0.0445477
0.0444924
0.0444174
0.0443198
0.0441969
0.0440438
0.0438581
0.0436333
0.0433687
0.0430545
0.0426903
0.0422648
0.0417803
0.041218
0.0405829
0.0398601
0.0390596
0.038156
0.0371589
0.0360507
0.0348245
0.033426
0.0320776
0.0296168
0.042133
0.042133
0.042133
0.042133
0.042133
0.042133
0.042133
0.042133
0.0421335
0.0421437
0.0422191
0.0423954
0.04254
0.0425979
0.0425866
0.0425139
0.042434
0.0423898
0.0423676
0.0423444
0.042311
0.0422715
0.0422353
0.0422047
0.0421765
0.0421517
0.0421368
0.0421329
0.0421445
0.0421865
0.0422358
0.0422673
0.0422826
0.0422919
0.0423023
0.0423166
0.0423336
0.0423514
0.0423698
0.0423893
0.0424102
0.0424321
0.0424544
0.0424767
0.0424987
0.0425208
0.0425433
0.0425666
0.0425911
0.0426171
0.0426447
0.0426738
0.0427043
0.0427363
0.0427698
0.042805
0.0428419
0.0428807
0.0429214
0.0429642
0.0430088
0.0430552
0.0431032
0.043153
0.0432048
0.0432586
0.0433143
0.0433718
0.043431
0.0434919
0.0435543
0.0436181
0.0436831
0.0437493
0.0438166
0.0438847
0.0439535
0.0440228
0.0440924
0.0441621
0.0442319
0.0443014
0.0443703
0.0444383
0.044505
0.0445699
0.0446327
0.0446929
0.0447498
0.0448032
0.0448522
0.0448962
0.0449343
0.0449648
0.0449874
0.0450008
0.0450048
0.0449951
0.0449713
0.0449301
0.0448694
0.0447871
0.0446792
0.0445436
0.0443745
0.0441698
0.0439203
0.0436249
0.0432719
0.0428604
0.042375
0.0418215
0.0411823
0.0404581
0.0396232
0.0387
0.0376718
0.0365479
0.0352775
0.0340192
0.0317439
0.042133
0.042133
0.042133
0.042133
0.042133
0.042133
0.042133
0.042133
0.0421332
0.042138
0.0421891
0.0423497
0.0425229
0.0426016
0.0426004
0.0425473
0.0424681
0.0424224
0.0424023
0.0423837
0.0423549
0.0423177
0.0422825
0.0422541
0.0422291
0.0422061
0.0421893
0.0421825
0.0421863
0.0422166
0.0422681
0.0423086
0.0423302
0.042342
0.0423529
0.0423672
0.0423851
0.0424046
0.0424247
0.0424458
0.0424682
0.0424916
0.0425152
0.0425387
0.042562
0.0425854
0.0426091
0.0426338
0.0426597
0.0426872
0.0427165
0.0427473
0.0427797
0.0428136
0.0428491
0.0428862
0.0429252
0.042966
0.0430089
0.0430539
0.0431008
0.0431497
0.0432002
0.0432527
0.0433071
0.0433637
0.0434223
0.0434829
0.0435454
0.0436097
0.0436757
0.0437434
0.0438125
0.0438829
0.0439547
0.0440277
0.0441016
0.0441764
0.0442518
0.0443277
0.044404
0.0444806
0.0445571
0.0446332
0.0447086
0.044783
0.0448559
0.0449269
0.0449957
0.0450618
0.0451247
0.0451837
0.045238
0.0452869
0.0453294
0.0453639
0.0453898
0.0454057
0.045411
0.0454016
0.045376
0.0453318
0.0452657
0.0451756
0.0450559
0.0449038
0.0447111
0.0444759
0.0441869
0.0438431
0.0434314
0.0429527
0.0423863
0.0417346
0.0409814
0.0401318
0.0391543
0.0380564
0.0368319
0.0354809
0.0332798
0.042133
0.042133
0.042133
0.042133
0.042133
0.042133
0.042133
0.042133
0.0421331
0.0421353
0.0421685
0.0423077
0.0424989
0.0426011
0.0426111
0.0425761
0.0424999
0.0424528
0.0424339
0.0424194
0.0423958
0.0423619
0.0423282
0.0423018
0.0422801
0.0422598
0.0422431
0.0422346
0.0422341
0.0422524
0.0423004
0.042348
0.0423767
0.0423921
0.042404
0.0424186
0.0424373
0.0424582
0.0424799
0.0425025
0.0425262
0.0425506
0.0425753
0.0425998
0.0426241
0.0426485
0.0426734
0.0426992
0.0427264
0.0427553
0.042786
0.0428185
0.0428526
0.0428882
0.0429256
0.0429647
0.0430056
0.0430484
0.0430933
0.0431403
0.0431895
0.0432406
0.0432935
0.0433484
0.0434053
0.0434645
0.0435258
0.0435892
0.0436547
0.0437221
0.0437915
0.0438627
0.0439355
0.0440099
0.0440858
0.0441631
0.0442417
0.0443214
0.0444021
0.0444836
0.0445658
0.0446487
0.044732
0.0448154
0.0448987
0.0449815
0.0450636
0.0451446
0.0452241
0.0453017
0.0453771
0.0454497
0.0455188
0.0455839
0.0456438
0.0456979
0.0457453
0.0457841
0.0458135
0.0458319
0.0458383
0.0458289
0.0458007
0.0457517
0.0456773
0.0455754
0.0454389
0.0452659
0.0450461
0.0447779
0.0444473
0.0440526
0.0435755
0.0430186
0.0423633
0.0416012
0.0407002
0.0396873
0.0385061
0.0372565
0.0352208
0.042133
0.042133
0.042133
0.042133
0.042133
0.042133
0.042133
0.042133
0.0421331
0.0421341
0.0421554
0.0422724
0.0424718
0.0425972
0.0426205
0.0425997
0.0425282
0.0424799
0.0424624
0.042452
0.0424341
0.0424045
0.0423726
0.0423479
0.0423286
0.0423109
0.0422956
0.0422859
0.0422831
0.042293
0.0423334
0.042385
0.0424206
0.0424404
0.0424544
0.0424698
0.0424893
0.0425117
0.0425349
0.0425587
0.0425834
0.0426087
0.0426342
0.0426594
0.0426845
0.0427097
0.0427356
0.0427625
0.0427908
0.042821
0.0428531
0.0428871
0.0429228
0.0429601
0.0429992
0.0430401
0.0430828
0.0431275
0.0431743
0.0432233
0.0432745
0.0433277
0.0433829
0.04344
0.0434993
0.0435608
0.0436247
0.0436907
0.043759
0.0438293
0.0439018
0.0439762
0.0440524
0.0441304
0.0442101
0.0442914
0.0443743
0.0444585
0.044544
0.0446306
0.0447182
0.0448068
0.0448962
0.0449862
0.0450766
0.045167
0.0452573
0.0453471
0.045436
0.0455239
0.0456103
0.0456949
0.0457772
0.0458565
0.0459321
0.0460033
0.0460691
0.0461289
0.0461815
0.0462247
0.0462574
0.046278
0.0462853
0.0462751
0.046244
0.0461901
0.0461068
0.0459921
0.0458366
0.0456377
0.0453807
0.0450629
0.0446669
0.0441939
0.0436237
0.0429459
0.042139
0.0411994
0.040083
0.0388619
0.0370196
0.042133
0.042133
0.042133
0.042133
0.042133
0.042133
0.042133
0.042133
0.042133
0.0421336
0.0421475
0.042245
0.0424455
0.0425912
0.0426294
0.0426176
0.0425516
0.042504
0.0424887
0.0424826
0.0424704
0.0424452
0.0424149
0.0423912
0.0423735
0.0423578
0.0423444
0.0423347
0.0423308
0.0423362
0.0423675
0.0424197
0.0424615
0.0424865
0.0425032
0.04252
0.0425407
0.0425644
0.0425889
0.0426138
0.0426393
0.0426652
0.0426913
0.0427172
0.0427429
0.042769
0.0427957
0.0428235
0.0428529
0.0428843
0.0429177
0.0429531
0.0429903
0.0430292
0.04307
0.0431125
0.0431569
0.0432033
0.0432519
0.0433028
0.0433559
0.0434111
0.0434684
0.0435276
0.043589
0.0436528
0.043719
0.0437875
0.0438583
0.0439313
0.0440066
0.0440839
0.0441633
0.0442445
0.0443276
0.0444126
0.0444992
0.0445875
0.0446773
0.0447684
0.0448609
0.0449546
0.0450494
0.0451453
0.0452419
0.0453391
0.0454366
0.0455341
0.0456315
0.0457285
0.0458247
0.0459199
0.0460138
0.0461057
0.0461952
0.0462815
0.0463639
0.0464418
0.0465142
0.04658
0.046638
0.0466857
0.046722
0.046745
0.0467534
0.0467424
0.0467064
0.0466434
0.0465452
0.0464098
0.046224
0.0459861
0.0456783
0.0452981
0.0448212
0.0442384
0.0435248
0.0426505
0.0416142
0.0403864
0.038713
0.042133
0.042133
0.042133
0.042133
0.042133
0.042133
0.042133
0.042133
0.042133
0.0421334
0.042143
0.0422253
0.0424231
0.0425853
0.0426375
0.0426297
0.0425709
0.042526
0.0425138
0.0425116
0.0425046
0.0424833
0.0424542
0.0424311
0.0424143
0.0424005
0.0423892
0.0423805
0.0423768
0.0423801
0.0424037
0.0424539
0.0425004
0.0425307
0.0425506
0.0425691
0.0425909
0.0426156
0.042641
0.0426666
0.0426927
0.0427192
0.0427459
0.0427724
0.0427989
0.0428257
0.0428532
0.042882
0.0429125
0.042945
0.0429796
0.0430164
0.043055
0.0430954
0.0431377
0.0431818
0.0432278
0.0432759
0.0433262
0.0433788
0.0434336
0.0434907
0.0435499
0.0436111
0.0436745
0.0437404
0.0438087
0.0438795
0.0439526
0.0440281
0.0441059
0.0441859
0.0442681
0.0443523
0.0444385
0.0445267
0.0446168
0.0447087
0.0448024
0.0448976
0.0449944
0.0450927
0.0451924
0.0452934
0.0453956
0.0454988
0.0456027
0.0457072
0.045812
0.0459169
0.0460218
0.0461263
0.0462302
0.0463332
0.0464347
0.0465341
0.046631
0.0467247
0.0468146
0.0468997
0.046979
0.0470511
0.0471147
0.0471673
0.0472073
0.0472326
0.0472413
0.0472275
0.0471857
0.0471136
0.0470001
0.0468427
0.0466231
0.0463386
0.0459646
0.0454971
0.0448973
0.04413
0.0431914
0.0420128
0.0404359
0.042133
0.042133
0.042133
0.042133
0.042133
0.042133
0.042133
0.042133
0.042133
0.0421333
0.0421406
0.0422126
0.0424067
0.0425821
0.0426438
0.0426386
0.0425869
0.0425465
0.0425379
0.0425389
0.0425362
0.042518
0.0424901
0.0424678
0.042452
0.0424398
0.0424307
0.0424238
0.0424212
0.0424238
0.0424424
0.042489
0.0425386
0.0425737
0.0425967
0.0426167
0.0426392
0.0426643
0.0426902
0.0427163
0.0427429
0.04277
0.0427974
0.0428247
0.042852
0.0428796
0.0429081
0.0429378
0.0429694
0.043003
0.0430389
0.0430769
0.0431169
0.0431587
0.0432024
0.043248
0.0432956
0.0433452
0.043397
0.0434513
0.0435078
0.0435667
0.0436276
0.0436907
0.0437559
0.0438237
0.043894
0.0439669
0.0440422
0.0441199
0.0442
0.0442826
0.0443673
0.0444542
0.0445432
0.0446344
0.0447276
0.0448228
0.0449198
0.0450187
0.0451194
0.0452217
0.0453258
0.0454314
0.0455385
0.0456469
0.0457564
0.0458669
0.0459782
0.0460901
0.0462025
0.0463151
0.0464278
0.0465403
0.0466522
0.0467631
0.0468725
0.04698
0.0470849
0.0471868
0.0472847
0.0473775
0.0474641
0.047543
0.0476132
0.0476713
0.0477158
0.0477438
0.0477531
0.0477364
0.0476858
0.0475975
0.0474569
0.0472608
0.0469842
0.0466218
0.0461205
0.0454521
0.0445898
0.0434769
0.0419852
0.042133
0.042133
0.042133
0.042133
0.042133
0.042133
0.042133
0.042133
0.042133
0.0421332
0.0421397
0.042206
0.0423974
0.0425816
0.0426492
0.0426459
0.0426006
0.0425657
0.042561
0.0425643
0.0425649
0.0425495
0.0425233
0.042502
0.0424874
0.0424769
0.0424697
0.0424651
0.0424639
0.0424668
0.0424829
0.0425258
0.0425768
0.0426157
0.0426412
0.0426622
0.0426848
0.0427099
0.0427358
0.0427621
0.0427891
0.0428171
0.0428453
0.0428735
0.0429017
0.0429303
0.0429598
0.0429906
0.0430233