/*--------------------------------*- C++ -*----------------------------------*\
| =========                 |                                                 |
| \\      /  F ield         | OpenFOAM: The Open Source CFD Toolbox           |
|  \\    /   O peration     | Version:  2412                                  |
|   \\  /    A nd           | Website:  www.openfoam.com                      |
|    \\/     M anipulation  |                                                 |
\*---------------------------------------------------------------------------*/
FoamFile
{
    version     2.0;
    format      ascii;
    arch        "LSB;label=32;scalar=64";
    class       volScalarField;
    location    "0.045";
    object      T;
}
// * * * * * * * * * * * * * * * * * * * * * * * * * * * * * * * * * * * * * //

dimensions      [0 0 0 1 0 0 0];

internalField   nonuniform List<scalar> 
78650
(
223
223
223
223.001
223.012
223.103
223.343
223.596
223.688
223.691
223.528
223.192
222.87
222.633
222.456
222.293
222.109
221.92
221.79
221.75
221.766
221.838
221.921
221.964
221.971
221.955
221.919
221.88
221.844
221.809
221.772
221.735
221.7
221.665
221.632
221.6
221.572
221.546
221.522
221.5
221.476
221.453
221.428
221.404
221.379
221.356
221.332
221.309
221.286
221.263
221.24
221.217
221.195
221.173
221.151
221.129
221.106
221.083
221.058
221.031
221.003
220.971
220.937
220.899
220.855
220.806
220.749
220.684
220.61
220.526
220.429
220.317
220.19
220.046
219.882
219.697
219.488
219.25
218.981
218.678
218.338
217.957
217.533
217.061
216.537
215.957
215.312
214.595
213.802
212.933
211.976
210.928
209.779
208.542
207.194
205.735
204.145
202.44
200.626
198.668
196.663
194.606
192.509
190.307
187.919
185.411
183.05
180.927
178.917
176.887
174.8
172.755
170.857
169.128
167.571
166.154
165.066
164.245
163.732
163.495
161.781
223
223
223
223
223.007
223.073
223.288
223.562
223.69
223.717
223.602
223.289
222.953
222.705
222.527
222.374
222.203
222.016
221.865
221.8
221.8
221.85
221.937
221.997
222.014
222.007
221.977
221.94
221.906
221.875
221.842
221.809
221.777
221.746
221.716
221.688
221.663
221.641
221.622
221.603
221.584
221.565
221.545
221.525
221.505
221.486
221.467
221.449
221.431
221.413
221.396
221.379
221.362
221.346
221.33
221.315
221.3
221.284
221.267
221.249
221.23
221.209
221.185
221.158
221.126
221.09
221.048
220.998
220.94
220.874
220.796
220.706
220.602
220.482
220.345
220.189
220.012
219.809
219.578
219.316
219.021
218.689
218.317
217.902
217.437
216.919
216.341
215.7
214.991
214.209
213.341
212.385
211.332
210.189
208.931
207.576
206.108
204.525
202.839
201.082
199.189
197.175
195.069
192.951
190.794
188.441
186.019
183.632
181.366
179.204
177.108
175.002
172.928
170.893
169.028
167.405
166.149
165.285
164.769
164.554
162.932
223
223
223
223
223.004
223.049
223.233
223.518
223.688
223.739
223.664
223.382
223.039
222.78
222.6
222.454
222.298
222.119
221.954
221.86
221.842
221.871
221.95
222.026
222.056
222.056
222.036
222.003
221.97
221.941
221.913
221.884
221.856
221.828
221.802
221.778
221.757
221.739
221.724
221.709
221.695
221.679
221.664
221.648
221.633
221.618
221.604
221.591
221.578
221.565
221.553
221.542
221.531
221.521
221.512
221.504
221.496
221.488
221.479
221.47
221.459
221.448
221.434
221.418
221.399
221.376
221.347
221.312
221.271
221.221
221.162
221.092
221.01
220.913
220.802
220.673
220.526
220.355
220.16
219.936
219.682
219.394
219.07
218.705
218.296
217.839
217.329
216.761
216.128
215.423
214.637
213.772
212.822
211.787
210.649
209.421
208.073
206.616
205.041
203.328
201.483
199.539
197.541
195.402
193.286
191.06
188.723
186.286
183.816
181.354
179.053
176.92
174.819
172.819
170.806
168.847
167.17
165.855
165.105
164.811
162.974
223
223
223
223
223.002
223.031
223.179
223.464
223.679
223.759
223.71
223.474
223.133
222.863
222.677
222.537
222.394
222.226
222.055
221.933
221.892
221.901
221.962
222.047
222.095
222.104
222.094
222.067
222.037
222.011
221.987
221.962
221.938
221.914
221.891
221.871
221.853
221.839
221.828
221.818
221.808
221.797
221.786
221.774
221.763
221.753
221.743
221.735
221.727
221.72
221.713
221.707
221.702
221.698
221.696
221.694
221.693
221.692
221.691
221.69
221.689
221.686
221.683
221.677
221.669
221.658
221.643
221.622
221.596
221.563
221.522
221.471
221.41
221.336
221.248
221.146
221.027
220.888
220.727
220.541
220.327
220.083
219.805
219.492
219.139
218.742
218.295
217.794
217.234
216.608
215.911
215.141
214.29
213.35
212.307
211.169
209.91
208.557
207.084
205.495
203.801
201.953
200.043
197.951
195.761
193.591
191.347
188.998
186.601
184.12
181.599
179.224
176.844
174.634
172.687
170.903
169.333
167.875
166.724
165.997
163.55
223
223
223
223
223.001
223.018
223.129
223.399
223.657
223.768
223.743
223.564
223.236
222.953
222.76
222.621
222.489
222.335
222.165
222.022
221.951
221.942
221.977
222.061
222.13
222.153
222.151
222.134
222.107
222.083
222.063
222.044
222.023
222.004
221.985
221.968
221.954
221.944
221.936
221.93
221.924
221.918
221.911
221.904
221.897
221.891
221.886
221.883
221.88
221.878
221.876
221.876
221.877
221.879
221.882
221.887
221.893
221.9
221.907
221.914
221.921
221.927
221.934
221.939
221.942
221.943
221.94
221.933
221.922
221.904
221.88
221.848
221.807
221.754
221.69
221.612
221.52
221.411
221.282
221.13
220.953
220.749
220.516
220.249
219.946
219.602
219.215
218.781
218.292
217.743
217.127
216.44
215.676
214.829
213.889
212.858
211.717
210.488
209.138
207.684
206.102
204.383
202.515
200.546
198.397
196.195
193.961
191.638
189.311
186.989
184.532
182.097
179.584
176.984
174.528
172.361
170.649
169.289
168.315
167.691
165.296
223
223
223
223
223
223.009
223.087
223.327
223.619
223.77
223.768
223.65
223.345
223.05
222.847
222.708
222.585
222.444
222.28
222.123
222.023
221.991
222.005
222.073
222.157
222.201
222.209
222.202
222.182
222.161
222.143
222.128
222.113
222.097
222.082
222.069
222.058
222.052
222.048
222.046
222.045
222.042
222.04
222.037
222.035
222.033
222.033
222.034
222.036
222.039
222.043
222.048
222.055
222.062
222.072
222.083
222.096
222.109
222.124
222.139
222.154
222.17
222.185
222.2
222.214
222.226
222.236
222.242
222.245
222.243
222.235
222.221
222.199
222.167
222.124
222.07
222.004
221.923
221.824
221.706
221.566
221.402
221.21
220.99
220.736
220.448
220.119
219.746
219.323
218.846
218.309
217.708
217.035
216.284
215.448
214.523
213.493
212.369
211.121
209.778
208.308
206.726
205.01
203.155
201.161
199.006
196.763
194.374
191.89
189.474
186.987
184.461
182.034
179.593
177.151
174.695
172.409
170.497
169.205
168.441
165.715
223
223
223
223
223
223.004
223.053
223.253
223.561
223.763
223.79
223.725
223.456
223.154
222.942
222.798
222.681
222.55
222.394
222.233
222.109
222.052
222.047
222.09
222.178
222.246
222.271
222.271
222.26
222.243
222.228
222.217
222.206
222.195
222.184
222.174
222.167
222.164
222.164
222.167
222.169
222.171
222.173
222.175
222.177
222.179
222.184
222.189
222.196
222.204
222.213
222.224
222.236
222.25
222.265
222.283
222.302
222.323
222.345
222.368
222.391
222.415
222.44
222.465
222.489
222.512
222.534
222.553
222.569
222.581
222.589
222.592
222.588
222.576
222.555
222.523
222.481
222.426
222.356
222.269
222.163
222.034
221.882
221.704
221.496
221.257
220.981
220.666
220.308
219.902
219.442
218.92
218.331
217.671
216.933
216.111
215.194
214.187
213.066
211.851
210.504
209.053
207.463
205.715
203.872
201.858
199.73
197.487
195.064
192.523
189.963
187.24
184.634
182.01
179.483
177.135
174.898
172.912
171.31
170.176
166.788
223
223
223
223
223
223.002
223.029
223.181
223.486
223.741
223.808
223.781
223.566
223.267
223.043
222.89
222.774
222.651
222.506
222.349
222.211
222.127
222.103
222.122
222.199
222.285
222.333
222.344
222.341
222.33
222.318
222.31
222.304
222.297
222.29
222.283
222.28
222.28
222.284
222.29
222.297
222.303
222.309
222.315
222.322
222.329
222.337
222.348
222.359
222.373
222.387
222.403
222.42
222.44
222.461
222.485
222.511
222.538
222.567
222.598
222.629
222.662
222.695
222.73
222.764
222.798
222.831
222.862
222.891
222.918
222.94
222.959
222.972
222.978
222.978
222.968
222.949
222.919
222.877
222.82
222.745
222.652
222.538
222.401
222.238
222.047
221.824
221.565
221.267
220.925
220.533
220.087
219.58
219.01
218.368
217.65
216.842
215.942
214.931
213.823
212.59
211.251
209.767
208.164
206.417
204.519
202.483
200.348
198.163
195.717
193.318
190.702
188.006
185.253
182.382
179.695
177.236
175.167
173.582
172.452
169.123
223
223
223
223
223
223.001
223.014
223.119
223.399
223.7
223.815
223.82
223.673
223.389
223.146
222.98
222.862
222.748
222.615
222.467
222.325
222.22
222.175
222.175
222.225
222.318
222.392
222.421
222.426
222.421
222.412
222.406
222.404
222.402
222.4
222.397
222.397
222.4
222.407
222.417
222.428
222.438
222.448
222.459
222.47
222.481
222.494
222.509
222.526
222.544
222.563
222.585
222.608
222.633
222.66
222.69
222.722
222.756
222.792
222.83
222.87
222.91
222.952
222.996
223.04
223.084
223.128
223.171
223.213
223.252
223.29
223.323
223.353
223.377
223.395
223.406
223.409
223.403
223.386
223.357
223.313
223.252
223.173
223.073
222.951
222.804
222.628
222.421
222.179
221.9
221.577
221.207
220.782
220.297
219.744
219.119
218.411
217.618
216.728
215.745
214.646
213.442
212.096
210.642
209.032
207.265
205.341
203.221
201.026
198.597
196.122
193.615
190.904
188.201
185.304
182.449
179.676
177.207
175.229
173.815
169.678
223
223
223
223
223
223
223.006
223.071
223.306
223.636
223.81
223.854
223.768
223.51
223.248
223.069
222.951
222.846
222.724
222.587
222.45
222.333
222.264
222.246
222.269
222.351
222.444
222.498
222.514
222.515
222.51
222.507
222.507
222.509
222.511
222.513
222.516
222.523
222.533
222.546
222.56
222.575
222.59
222.605
222.62
222.636
222.653
222.673
222.694
222.717
222.741
222.768
222.796
222.827
222.86
222.896
222.934
222.975
223.018
223.063
223.11
223.158
223.209
223.261
223.314
223.368
223.422
223.477
223.531
223.583
223.634
223.682
223.727
223.768
223.805
223.835
223.858
223.874
223.881
223.879
223.864
223.835
223.789
223.726
223.644
223.539
223.41
223.253
223.066
222.844
222.583
222.279
221.925
221.517
221.05
220.52
219.919
219.239
218.468
217.605
216.631
215.557
214.354
213.041
211.567
209.965
208.22
206.327
204.233
201.959
199.475
196.978
194.201
191.457
188.604
185.789
183.043
180.507
178.309
176.63
172.008
223
223
223
223
223
223
223.002
223.037
223.216
223.552
223.793
223.883
223.837
223.622
223.351
223.163
223.042
222.944
222.833
222.707
222.578
222.459
222.371
222.335
222.337
222.391
222.488
222.567
222.603
222.611
222.61
222.608
222.61
222.617
222.624
222.63
222.637
222.647
222.66
222.676
222.695
222.714
222.733
222.752
222.771
222.792
222.814
222.838
222.863
222.891
222.921
222.952
222.986
223.022
223.061
223.103
223.147
223.194
223.244
223.296
223.35
223.406
223.465
223.525
223.587
223.651
223.716
223.781
223.846
223.911
223.974
224.037
224.097
224.154
224.207
224.255
224.299
224.336
224.365
224.386
224.397
224.398
224.384
224.355
224.307
224.242
224.154
224.043
223.905
223.737
223.535
223.296
223.015
222.687
222.306
221.866
221.357
220.776
220.11
219.359
218.507
217.559
216.49
215.307
213.972
212.521
210.908
209.142
207.21
205.124
202.871
200.427
197.848
195.067
192.209
189.109
186.137
183.391
181.056
179.315
174.88
223
223
223
223
223
223
223.001
223.017
223.139
223.451
223.758
223.894
223.88
223.729
223.463
223.262
223.135
223.042
222.942
222.827
222.708
222.594
222.497
222.439
222.424
222.447
222.529
222.626
222.686
222.706
222.71
222.711
222.715
222.724
222.736
222.747
222.758
222.771
222.788
222.807
222.829
222.852
222.876
222.9
222.924
222.949
222.975
223.003
223.033
223.066
223.1
223.137
223.176
223.218
223.262
223.309
223.359
223.412
223.468
223.527
223.588
223.652
223.718
223.787
223.857
223.93
224.004
224.079
224.155
224.232
224.308
224.383
224.457
224.529
224.599
224.664
224.726
224.783
224.834
224.878
224.914
224.94
224.956
224.959
224.947
224.919
224.872
224.805
224.714
224.597
224.451
224.272
224.055
223.796
223.489
223.129
222.71
222.227
221.671
221.036
220.308
219.489
218.555
217.51
216.324
215.017
213.54
211.92
210.123
208.148
206.034
203.56
201.068
198.3
195.518
192.385
189.365
186.418
183.681
181.516
175.977
223
223
223
223
223
223
223
223.007
223.08
223.342
223.694
223.891
223.909
223.824
223.578
223.362
223.227
223.139
223.051
222.948
222.838
222.73
222.63
222.554
222.52
222.522
222.572
222.671
222.756
222.797
222.809
222.813
222.817
222.829
222.845
222.862
222.878
222.895
222.914
222.937
222.963
222.991
223.019
223.047
223.076
223.105
223.135
223.168
223.203
223.24
223.279
223.321
223.365
223.412
223.461
223.514
223.57
223.629
223.691
223.757
223.825
223.896
223.969
224.045
224.124
224.205
224.289
224.374
224.46
224.548
224.635
224.723
224.81
224.897
224.981
225.063
225.142
225.218
225.288
225.354
225.413
225.465
225.506
225.537
225.556
225.563
225.553
225.526
225.479
225.408
225.313
225.189
225.033
224.841
224.608
224.328
223.997
223.608
223.152
222.623
222.012
221.315
220.514
219.613
218.585
217.436
216.13
214.695
213.086
211.302
209.319
207.163
204.81
202.24
199.488
196.453
193.395
190.48
187.768
185.547
179.956
223
223
223
223
223
223
223
223.002
223.041
223.24
223.603
223.871
223.934
223.898
223.686
223.461
223.321
223.236
223.16
223.067
222.962
222.858
222.761
222.677
222.624
222.609
222.63
222.711
222.813
222.878
222.904
222.913
222.92
222.932
222.952
222.974
222.995
223.016
223.04
223.066
223.096
223.128
223.161
223.194
223.227
223.26
223.295
223.332
223.371
223.412
223.456
223.503
223.552
223.604
223.659
223.716
223.778
223.843
223.911
223.983
224.057
224.135
224.215
224.299
224.385
224.475
224.567
224.661
224.757
224.855
224.953
225.052
225.152
225.252
225.351
225.448
225.543
225.636
225.725
225.811
225.891
225.966
226.033
226.092
226.141
226.178
226.202
226.212
226.207
226.181
226.134
226.061
225.961
225.83
225.663
225.456
225.203
224.899
224.538
224.112
223.611
223.03
222.355
221.584
220.695
219.69
218.538
217.254
215.792
214.169
212.352
210.342
208.125
205.674
202.897
200.025
196.896
193.868
191.033
188.748
183.248
223
223
223
223
223
223
223
223.001
223.019
223.154
223.496
223.829
223.949
223.942
223.788
223.564
223.417
223.331
223.263
223.177
223.077
222.977
222.885
222.801
222.736
222.706
222.707
222.756
222.858
222.948
222.994
223.011
223.021
223.035
223.057
223.083
223.109
223.135
223.163
223.193
223.228
223.264
223.301
223.339
223.376
223.414
223.453
223.493
223.536
223.582
223.631
223.682
223.736
223.793
223.853
223.916
223.982
224.053
224.127
224.205
224.286
224.37
224.457
224.547
224.641
224.738
224.838
224.941
225.047
225.154
225.263
225.373
225.485
225.597
225.709
225.82
225.931
226.039
226.146
226.25
226.35
226.446
226.536
226.62
226.695
226.762
226.817
226.86
226.889
226.904
226.903
226.877
226.83
226.754
226.649
226.51
226.331
226.107
225.832
225.5
225.102
224.633
224.08
223.442
222.698
221.846
220.86
219.746
218.466
217.033
215.411
213.604
211.567
209.296
206.81
204.13
201.061
197.959
194.794
192.081
185.839
223
223
223
223
223
223
223
223
223.007
223.09
223.384
223.765
223.946
223.976
223.88
223.668
223.508
223.417
223.355
223.279
223.186
223.09
223.004
222.925
222.855
222.811
222.798
222.818
222.902
223.008
223.078
223.108
223.123
223.138
223.161
223.191
223.222
223.252
223.284
223.319
223.357
223.398
223.44
223.482
223.523
223.565
223.608
223.652
223.699
223.749
223.802
223.858
223.917
223.978
224.043
224.111
224.183
224.258
224.338
224.421
224.508
224.598
224.692
224.789
224.89
224.994
225.102
225.213
225.326
225.443
225.561
225.682
225.804
225.927
226.052
226.176
226.301
226.424
226.547
226.668
226.786
226.902
227.014
227.12
227.221
227.314
227.398
227.474
227.538
227.588
227.623
227.642
227.644
227.62
227.572
227.493
227.382
227.231
227.038
226.795
226.496
226.136
225.702
225.188
224.577
223.866
223.031
222.073
220.963
219.709
218.264
216.627
214.769
212.715
210.425
207.861
205.071
202.057
199.028
196.534
191.011
223
223
223
223
223
223
223
223
223.003
223.048
223.279
223.68
223.928
224.007
223.957
223.761
223.589
223.495
223.439
223.376
223.292
223.2
223.118
223.045
222.977
222.924
222.899
222.901
222.955
223.062
223.155
223.204
223.227
223.244
223.267
223.298
223.333
223.368
223.405
223.444
223.486
223.531
223.577
223.623
223.668
223.714
223.76
223.808
223.859
223.913
223.97
224.03
224.093
224.159
224.228
224.301
224.378
224.458
224.543
224.632
224.724
224.82
224.92
225.023
225.131
225.242
225.357
225.475
225.597
225.722
225.85
225.98
226.112
226.246
226.382
226.518
226.656
226.793
226.93
227.067
227.202
227.335
227.466
227.594
227.717
227.834
227.945
228.048
228.142
228.226
228.299
228.356
228.398
228.421
228.426
228.404
228.355
228.273
228.154
227.992
227.782
227.516
227.185
226.782
226.293
225.716
225.028
224.227
223.286
222.208
220.948
219.512
217.862
216.009
213.894
211.532
208.897
206.001
202.796
199.892
193.875
223
223
223
223
223
223
223
223
223.001
223.024
223.191
223.581
223.901
224.029
224.004
223.844
223.667
223.569
223.52
223.469
223.395
223.308
223.228
223.16
223.097
223.042
223.009
223
223.026
223.119
223.229
223.299
223.333
223.353
223.376
223.408
223.446
223.485
223.526
223.569
223.615
223.664
223.713
223.762
223.811
223.86
223.909
223.961
224.015
224.072
224.133
224.197
224.264
224.335
224.409
224.486
224.567
224.652
224.742
224.836
224.933
225.035
225.14
225.25
225.363
225.481
225.602
225.728
225.857
225.99
226.126
226.264
226.406
226.55
226.696
226.843
226.992
227.142
227.293
227.443
227.594
227.744
227.892
228.039
228.182
228.322
228.456
228.585
228.708
228.822
228.927
229.021
229.102
229.167
229.215
229.244
229.252
229.232
229.18
229.092
228.962
228.785
228.554
228.262
227.898
227.456
226.916
226.274
225.503
224.6
223.529
222.298
220.864
219.22
217.305
215.165
212.78
210.203
207.382
204.748
199.374
223
223
223
223
223
223
223
223
223
223.011
223.124
223.48
223.863
224.037
224.035
223.918
223.743
223.642
223.597
223.556
223.492
223.41
223.332
223.269
223.214
223.163
223.126
223.111
223.119
223.186
223.3
223.39
223.438
223.464
223.488
223.52
223.56
223.603
223.647
223.694
223.743
223.795
223.847
223.899
223.95
224.002
224.054
224.109
224.166
224.227
224.291
224.359
224.43
224.505
224.583
224.664
224.75
224.84
224.934
225.032
225.135
225.242
225.353
225.468
225.587
225.71
225.838
225.97
226.106
226.246
226.39
226.537
226.687
226.839
226.995
227.153
227.313
227.474
227.637
227.801
227.965
228.13
228.294
228.458
228.619
228.779
228.935
229.087
229.234
229.375
229.509
229.635
229.75
229.854
229.945
230.018
230.073
230.107
230.118
230.098
230.043
229.949
229.808
229.615
229.36
229.034
228.621
228.115
227.492
226.747
225.851
224.802
223.552
222.098
220.402
218.472
216.253
213.79
211.123
208.264
203.163
223
223
223
223
223
223
223
223
223
223.005
223.079
223.387
223.81
224.036
224.058
223.981
223.813
223.709
223.667
223.635
223.583
223.508
223.433
223.375
223.327
223.282
223.245
223.226
223.225
223.266
223.372
223.477
223.541
223.575
223.601
223.634
223.675
223.721
223.769
223.819
223.871
223.925
223.98
224.034
224.087
224.141
224.196
224.253
224.313
224.376
224.444
224.515
224.59
224.669
224.751
224.837
224.926
225.02
225.119
225.222
225.329
225.441
225.557
225.677
225.801
225.93
226.064
226.202
226.344
226.491
226.641
226.796
226.953
227.114
227.279
227.446
227.615
227.787
227.961
228.136
228.313
228.491
228.67
228.848
229.027
229.204
229.379
229.552
229.721
229.886
230.046
230.201
230.347
230.485
230.612
230.727
230.827
230.909
230.971
231.01
231.023
231.003
230.943
230.839
230.681
230.465
230.175
229.807
229.337
228.763
228.053
227.2
226.164
224.942
223.491
221.793
219.792
217.57
215.053
212.482
207.902
223
223
223
223
223
223
223
223
223
223.002
223.05
223.309
223.75
224.028
224.079
224.033
223.875
223.769
223.73
223.707
223.667
223.602
223.531
223.477
223.434
223.395
223.361
223.34
223.333
223.356
223.445
223.559
223.638
223.682
223.713
223.747
223.79
223.839
223.89
223.943
223.998
224.053
224.11
224.165
224.22
224.276
224.333
224.392
224.455
224.521
224.592
224.666
224.745
224.827
224.912
225.002
225.096
225.194
225.296
225.403
225.515
225.631
225.752
225.877
226.006
226.14
226.279
226.422
226.571
226.723
226.88
227.042
227.207
227.375
227.547
227.723
227.901
228.082
228.266
228.452
228.64
228.83
229.021
229.214
229.407
229.6
229.792
229.983
230.172
230.358
230.542
230.721
230.895
231.063
231.222
231.372
231.511
231.637
231.747
231.838
231.907
231.95
231.965
231.943
231.878
231.764
231.588
231.346
231.017
230.596
230.05
229.372
228.523
227.501
226.258
224.773
223.015
221.001
218.669
216.19
212.151
223
223
223
223
223
223
223
223
223
223.001
223.032
223.248
223.692
224.014
224.098
224.073
223.927
223.822
223.788
223.775
223.748
223.692
223.625
223.573
223.534
223.499
223.469
223.448
223.439
223.451
223.521
223.636
223.728
223.784
223.821
223.858
223.903
223.956
224.01
224.065
224.121
224.178
224.235
224.292
224.349
224.406
224.465
224.527
224.591
224.66
224.734
224.811
224.893
224.978
225.068
225.161
225.258
225.36
225.466
225.577
225.693
225.814
225.938
226.067
226.201
226.34
226.484
226.633
226.786
226.944
227.107
227.275
227.446
227.621
227.801
227.984
228.17
228.36
228.552
228.748
228.946
229.146
229.349
229.553
229.759
229.966
230.173
230.38
230.587
230.792
230.996
231.197
231.395
231.588
231.777
231.958
232.131
232.294
232.446
232.584
232.705
232.805
232.88
232.928
232.945
232.922
232.847
232.715
232.509
232.224
231.834
231.332
230.681
229.871
228.847
227.59
226.063
224.228
222.11
219.644
216.062
223
223
223
223
223
223
223
223
223
223.001
223.022
223.205
223.643
224.001
224.116
224.099
223.969
223.87
223.843
223.839
223.823
223.776
223.712
223.661
223.624
223.593
223.568
223.549
223.541
223.548
223.601
223.711
223.814
223.881
223.925
223.966
224.014
224.068
224.125
224.181
224.239
224.297
224.356
224.414
224.472
224.531
224.592
224.655
224.722
224.793
224.869
224.95
225.035
225.123
225.216
225.312
225.413
225.518
225.628
225.743
225.863
225.987
226.116
226.249
226.387
226.53
226.679
226.832
226.991
227.154
227.322
227.495
227.672
227.854
228.04
228.229
228.423
228.62
228.821
229.025
229.231
229.441
229.654
229.869
230.086
230.305
230.526
230.747
230.969
231.191
231.412
231.632
231.851
232.067
232.28
232.488
232.691
232.887
233.075
233.252
233.417
233.567
233.699
233.809
233.892
233.944
233.962
233.933
233.845
233.695
233.459
233.13
232.671
232.072
231.28
230.285
229.023
227.446
225.573
223.25
219.95
223
223
223
223
223
223
223
223
223
223
223.017
223.176
223.607
223.994
224.13
224.119
224.005
223.916
223.897
223.899
223.893
223.853
223.791
223.742
223.707
223.68
223.66
223.645
223.639
223.645
223.686
223.789
223.899
223.976
224.027
224.071
224.12
224.176
224.233
224.29
224.349
224.409
224.469
224.529
224.589
224.65
224.712
224.778
224.847
224.921
224.999
225.083
225.17
225.262
225.358
225.457
225.561
225.67
225.783
225.901
226.024
226.153
226.285
226.422
226.564
226.711
226.864
227.021
227.184
227.352
227.526
227.704
227.886
228.073
228.265
228.461
228.66
228.864
229.072
229.283
229.498
229.716
229.938
230.162
230.39
230.62
230.851
231.085
231.32
231.556
231.792
232.029
232.266
232.501
232.736
232.968
233.196
233.42
233.638
233.85
234.053
234.246
234.425
234.588
234.733
234.853
234.945
235.002
235.021
234.986
234.881
234.698
234.407
233.999
233.42
232.657
231.616
230.266
228.582
226.43
223.369
223
223
223
223
223
223
223
223
223
223
223.015
223.162
223.586
223.993
224.142
224.135
224.035
223.958
223.948
223.955
223.956
223.922
223.865
223.818
223.785
223.762
223.746
223.736
223.734
223.74
223.776
223.87
223.983
224.069
224.125
224.171
224.221
224.276
224.333
224.391
224.451
224.512
224.574
224.636
224.698
224.761
224.826
224.894
224.965
225.042
225.123
225.209
225.299
225.394
225.493
225.595
225.702
225.814
225.93
226.052
226.178
226.31
226.446
226.587
226.732
226.883
227.039
227.201
227.368
227.54
227.718
227.9
228.088
228.28
228.477
228.678
228.883
229.093
229.307
229.525
229.747
229.973
230.202
230.435
230.671
230.91
231.152
231.396
231.643
231.891
232.141
232.392
232.644
232.896
233.149
233.4
233.651
233.898
234.143
234.384
234.619
234.848
235.067
235.276
235.471
235.65
235.809
235.94
236.04
236.101
236.118
236.069
235.939
235.714
235.356
234.856
234.119
233.11
231.684
229.741
226.866
223
223
223
223
223
223
223
223
223
223
223.014
223.159
223.582
223.997
224.154
224.149
224.061
223.996
223.995
224.009
224.015
223.985
223.933
223.89
223.86
223.841
223.829
223.823
223.824
223.833
223.867
223.954
224.067
224.158
224.218
224.266
224.315
224.369
224.425
224.483
224.544
224.607
224.672
224.736
224.8
224.865
224.932
225.003
225.077
225.156
225.24
225.329
225.422
225.519
225.621
225.726
225.836
225.951
226.07
226.195
226.325
226.459
226.599
226.743
226.891
227.046
227.206
227.371
227.542
227.718
227.9
228.087
228.279
228.475
228.677
228.883
229.094
229.309
229.529
229.753
229.981
230.213
230.449
230.689
230.933
231.18
231.431
231.685
231.941
232.2
232.462
232.725
232.99
233.257
233.525
233.794
234.063
234.331
234.598
234.863
235.126
235.385
235.638
235.885
236.123
236.35
236.564
236.76
236.935
237.08
237.193
237.262
237.281
237.223
237.065
236.787
236.324
235.633
234.498
232.912
230.217
223
223
223
223
223
223
223
223
223
223
223.015
223.165
223.595
224.01
224.166
224.162
224.084
224.031
224.039
224.061
224.069
224.043
223.996
223.958
223.932
223.916
223.908
223.906
223.911
223.923
223.957
224.039
224.15
224.244
224.306
224.353
224.4
224.453
224.509
224.567
224.629
224.694
224.761
224.827
224.894
224.962
225.031
225.104
225.181
225.263
225.35
225.442
225.538
225.638
225.743
225.851
225.964
226.081
226.203
226.331
226.464
226.601
226.744
226.891
227.043
227.2
227.364
227.533
227.707
227.887
228.072
228.263
228.459
228.66
228.866
229.076
229.292
229.512
229.737
229.966
230.2
230.438
230.68
230.927
231.178
231.432
231.691
231.953
232.218
232.487
232.758
233.032
233.309
233.589
233.87
234.154
234.438
234.724
235.01
235.296
235.582
235.866
236.148
236.426
236.7
236.968
237.227
237.476
237.711
237.928
238.124
238.286
238.41
238.479
238.487
238.39
238.184
237.809
237.073
236.042
233.833
223
223
223
223
223
223
223
223
223
223.001
223.018
223.182
223.625
224.031
224.179
224.174
224.106
224.065
224.08
224.111
224.118
224.096
224.055
224.023
224.002
223.989
223.984
223.986
223.994
224.009
224.044
224.122
224.231
224.324
224.386
224.433
224.479
224.531
224.586
224.645
224.707
224.774
224.843
224.911
224.98
225.051
225.123
225.199
225.279
225.364
225.454
225.549
225.648
225.751
225.858
225.969
226.084
226.204
226.329
226.46
226.596
226.736
226.882
227.032
227.187
227.347
227.514
227.686
227.864
228.047
228.236
228.431
228.63
228.835
229.045
229.26
229.48
229.704
229.934
230.168
230.407
230.65
230.898
231.151
231.408
231.669
231.935
232.204
232.478
232.754
233.035
233.319
233.606
233.896
234.189
234.485
234.784
235.085
235.387
235.691
235.996
236.302
236.608
236.913
237.216
237.517
237.815
238.107
238.391
238.665
238.926
239.168
239.39
239.573
239.718
239.797
239.815
239.699
239.364
238.821
237.469
223
223
223
223
223
223
223
223
223
223.001
223.023
223.212
223.668
224.057
224.193
224.186
224.126
224.098
224.122
224.157
224.163
224.143
224.109
224.084
224.068
224.058
224.056
224.062
224.072
224.09
224.127
224.203
224.308
224.4
224.461
224.507
224.552
224.603
224.658
224.717
224.78
224.848
224.918
224.989
225.06
225.132
225.208
225.287
225.37
225.458
225.552
225.649
225.751
225.857
225.967
226.08
226.198
226.321
226.449
226.582
226.721
226.864
227.012
227.165
227.323
227.487
227.656
227.832
228.013
228.199
228.392
228.59
228.793
229.001
229.215
229.434
229.658
229.887
230.121
230.359
230.603
230.852
231.105
231.363
231.626
231.893
232.165
232.441
232.722
233.007
233.295
233.587
233.884
234.184
234.488
234.795
235.106
235.42
235.736
236.055
236.377
236.702
237.028
237.355
237.683
238.012
238.34
238.667
238.991
239.312
239.625
239.931
240.225
240.501
240.752
240.956
241.125
241.232
241.27
241.069
240.633
223
223
223
223
223
223
223
223
223
223.001
223.033
223.254
223.724
224.087
224.207
224.196
224.147
224.133
224.165
224.201
224.205
224.186
224.159
224.14
224.129
224.123
224.125
224.134
224.147
224.167
224.206
224.281
224.382
224.471
224.531
224.576
224.621
224.671
224.725
224.784
224.848
224.917
224.988
225.06
225.133
225.208
225.286
225.368
225.455
225.546
225.643
225.743
225.848
225.957
226.069
226.185
226.306
226.432
226.562
226.698
226.839
226.985
227.136
227.292
227.452
227.619
227.791
227.97
228.154
228.344
228.54
228.741
228.947
229.159
229.376
229.599
229.827
230.059
230.297
230.541
230.789
231.042
231.3
231.563
231.831
232.105
232.382
232.665
232.952
233.244
233.539
233.84
234.144
234.453
234.766
235.084
235.405
235.73
236.059
236.392
236.728
237.068
237.411
237.758
238.106
238.458
238.811
239.166
239.522
239.879
240.233
240.586
240.933
241.273
241.6
241.91
242.199
242.451
242.688
242.797
242.881
223
223
223
223
223
223
223
223
223
223.002
223.047
223.31
223.788
224.117
224.219
224.207
224.169
224.168
224.209
224.244
224.244
224.227
224.205
224.193
224.187
224.185
224.191
224.203
224.218
224.24
224.281
224.356
224.454
224.539
224.597
224.641
224.685
224.735
224.789
224.847
224.911
224.98
225.052
225.125
225.2
225.277
225.358
225.443
225.533
225.628
225.728
225.832
225.939
226.05
226.165
226.284
226.407
226.536
226.669
226.808
226.951
227.1
227.253
227.411
227.575
227.744
227.919
228.101
228.288
228.481
228.68
228.884
229.094
229.309
229.53
229.756
229.987
230.224
230.465
230.713
230.965
231.223
231.486
231.754
232.027
232.305
232.589
232.877
233.17
233.468
233.771
234.078
234.39
234.707
235.029
235.355
235.686
236.022
236.362
236.706
237.055
237.408
237.765
238.127
238.493
238.862
239.236
239.613
239.993
240.375
240.759
241.145
241.53
241.913
242.291
242.66
243.014
243.359
243.669
243.913
244.164
223
223
223
223
223
223
223
223
223
223.004
223.07
223.378
223.856
224.145
224.23
224.219
224.192
224.203
224.253
224.284
224.282
224.266
224.25
224.243
224.241
224.245
224.254
224.268
224.285
224.309
224.352
224.427
224.521
224.602
224.657
224.7
224.745
224.794
224.847
224.906
224.97
225.039
225.111
225.185
225.262
225.341
225.425
225.513
225.606
225.704
225.807
225.914
226.024
226.138