/*--------------------------------*- C++ -*----------------------------------*\
| =========                 |                                                 |
| \\      /  F ield         | OpenFOAM: The Open Source CFD Toolbox           |
|  \\    /   O peration     | Version:  2412                                  |
|   \\  /    A nd           | Website:  www.openfoam.com                      |
|    \\/     M anipulation  |                                                 |
\*---------------------------------------------------------------------------*/
FoamFile
{
    version     2.0;
    format      ascii;
    arch        "LSB;label=32;scalar=64";
    class       volVectorField;
    location    "0.045";
    object      U;
}
// * * * * * * * * * * * * * * * * * * * * * * * * * * * * * * * * * * * * * //

dimensions      [0 1 -1 0 0 0 0];

internalField   nonuniform List<vector> 
78650
(
(210 1.39601e-09 0)
(210 2.62885e-08 0)
(210 3.06404e-06 0)
(209.998 0.000316396 0)
(209.96 0.0106431 0)
(209.678 0.111629 0)
(208.946 0.424126 0)
(208.214 0.787025 0)
(207.851 0.994369 0)
(207.913 1.08032 0)
(208.437 0.935507 0)
(209.46 0.58279 0)
(210.461 0.285746 0)
(211.264 0.230014 0)
(211.89 0.298242 0)
(212.472 0.432218 0)
(213.142 0.568753 0)
(213.848 0.705274 0)
(214.375 0.905292 0)
(214.591 1.19329 0)
(214.646 1.49272 0)
(214.508 1.86248 0)
(214.327 2.25244 0)
(214.276 2.62785 0)
(214.335 2.99581 0)
(214.456 3.38167 0)
(214.658 3.77014 0)
(214.868 4.18645 0)
(215.065 4.62735 0)
(215.255 5.08812 0)
(215.444 5.56653 0)
(215.627 6.0681 0)
(215.808 6.59491 0)
(215.987 7.14823 0)
(216.16 7.72942 0)
(216.325 8.33882 0)
(216.479 8.97775 0)
(216.622 9.64466 0)
(216.749 10.3383 0)
(216.864 11.0559 0)
(216.972 11.7946 0)
(217.073 12.5546 0)
(217.165 13.3375 0)
(217.248 14.1447 0)
(217.322 14.9775 0)
(217.385 15.837 0)
(217.437 16.7237 0)
(217.478 17.6374 0)
(217.509 18.5775 0)
(217.53 19.5445 0)
(217.539 20.5387 0)
(217.537 21.5607 0)
(217.524 22.6108 0)
(217.499 23.6897 0)
(217.463 24.7983 0)
(217.416 25.937 0)
(217.36 27.1061 0)
(217.298 28.3061 0)
(217.229 29.5379 0)
(217.156 30.8027 0)
(217.08 32.102 0)
(217.003 33.4365 0)
(216.928 34.8075 0)
(216.856 36.2161 0)
(216.793 37.6635 0)
(216.742 39.1504 0)
(216.705 40.6777 0)
(216.688 42.2475 0)
(216.696 43.8617 0)
(216.73 45.5204 0)
(216.8 47.2247 0)
(216.915 48.9757 0)
(217.071 50.7739 0)
(217.289 52.6232 0)
(217.566 54.5237 0)
(217.908 56.4754 0)
(218.341 58.4783 0)
(218.856 60.5305 0)
(219.492 62.6327 0)
(220.233 64.7833 0)
(221.112 66.9818 0)
(222.136 69.2251 0)
(223.31 71.5115 0)
(224.673 73.8377 0)
(226.207 76.2045 0)
(227.98 78.5964 0)
(229.949 81.0033 0)
(232.215 83.3906 0)
(234.719 85.7675 0)
(237.559 88.1116 0)
(240.677 90.4256 0)
(244.18 92.6391 0)
(247.975 94.8163 0)
(252.242 96.8029 0)
(256.812 98.7252 0)
(261.976 100.393 0)
(267.647 101.825 0)
(273.726 102.937 0)
(279.977 103.837 0)
(285.886 104.603 0)
(292.35 105.012 0)
(300.022 104.875 0)
(308.119 104.106 0)
(315.523 103.074 0)
(322.352 102.141 0)
(328.925 100.937 0)
(336.236 98.9315 0)
(344.045 96.3714 0)
(352.008 93.4079 0)
(359.589 90.3331 0)
(366.171 87.6326 0)
(372.277 84.9756 0)
(377.606 82.581 0)
(382.286 80.2211 0)
(385.42 77.8465 0)
(386.968 75.9189 0)
(388.835 73.2979 0)
(391.573 72.1477 0)
(397.435 70.9947 0)
(406.568 69.8887 0)
(409.847 74.6165 0)
(210 2.53343e-10 0)
(210 8.27394e-09 0)
(210 1.16665e-06 0)
(209.999 0.000136586 0)
(209.977 0.0056779 0)
(209.77 0.0741682 0)
(209.106 0.340193 0)
(208.301 0.719651 0)
(207.832 0.969912 0)
(207.839 1.05092 0)
(208.205 0.973172 0)
(209.154 0.675879 0)
(210.188 0.374339 0)
(211.02 0.296739 0)
(211.643 0.347455 0)
(212.19 0.475023 0)
(212.814 0.614798 0)
(213.511 0.749112 0)
(214.104 0.926144 0)
(214.398 1.19326 0)
(214.496 1.49074 0)
(214.428 1.84357 0)
(214.233 2.23414 0)
(214.119 2.61744 0)
(214.143 2.98854 0)
(214.231 3.38228 0)
(214.404 3.77578 0)
(214.605 4.18841 0)
(214.792 4.62386 0)
(214.967 5.07961 0)
(215.139 5.55336 0)
(215.305 6.04926 0)
(215.471 6.56899 0)
(215.633 7.11517 0)
(215.789 7.68866 0)
(215.938 8.29 0)
(216.075 8.92057 0)
(216.2 9.57909 0)
(216.308 10.2646 0)
(216.405 10.9734 0)
(216.495 11.7027 0)
(216.576 12.453 0)
(216.649 13.2256 0)
(216.713 14.0217 0)
(216.766 14.8425 0)
(216.808 15.6895 0)
(216.839 16.5631 0)
(216.859 17.4632 0)
(216.867 18.3893 0)
(216.865 19.3416 0)
(216.85 20.3205 0)
(216.824 21.3266 0)
(216.785 22.3601 0)
(216.734 23.4218 0)
(216.67 24.5125 0)
(216.595 25.6327 0)
(216.508 26.7829 0)
(216.413 27.9634 0)
(216.311 29.1752 0)
(216.202 30.4193 0)
(216.088 31.6972 0)
(215.97 33.01 0)
(215.85 34.3587 0)
(215.731 35.7445 0)
(215.617 37.1688 0)
(215.511 38.6323 0)
(215.415 40.1358 0)
(215.334 41.6816 0)
(215.273 43.2715 0)
(215.232 44.9061 0)
(215.221 46.587 0)
(215.247 48.3152 0)
(215.307 50.091 0)
(215.422 51.9189 0)
(215.586 53.7992 0)
(215.805 55.733 0)
(216.104 57.7218 0)
(216.473 59.7635 0)
(216.949 61.8598 0)
(217.519 64.0087 0)
(218.213 66.2125 0)
(219.038 68.471 0)
(219.997 70.7835 0)
(221.127 73.146 0)
(222.415 75.5535 0)
(223.927 77.9918 0)
(225.623 80.459 0)
(227.599 82.9447 0)
(229.798 85.4589 0)
(232.319 87.9668 0)
(235.11 90.4504 0)
(238.259 92.8606 0)
(241.697 95.236 0)
(245.576 97.4686 0)
(249.695 99.6565 0)
(254.269 101.588 0)
(259.12 103.443 0)
(264.43 105.083 0)
(270.046 106.504 0)
(276.361 107.645 0)
(283.406 108.388 0)
(290.459 108.743 0)
(297.271 108.868 0)
(304.673 108.543 0)
(312.358 107.697 0)
(319.615 106.676 0)
(327.229 105.327 0)
(334.801 103.607 0)
(342.754 101.256 0)
(350.185 98.726 0)
(357.318 95.8408 0)
(363.437 93.3337 0)
(369.292 90.7866 0)
(374.492 88.6428 0)
(379.68 85.882 0)
(382.994 83.4982 0)
(385.563 80.4621 0)
(388.001 78.3228 0)
(393.32 76.4555 0)
(402.719 75.2649 0)
(406.795 80.0157 0)
(210 5.40802e-11 0)
(210 3.54689e-09 0)
(210 3.78777e-07 0)
(210 4.9409e-05 0)
(209.988 0.00270965 0)
(209.845 0.0458505 0)
(209.274 0.261305 0)
(208.424 0.643083 0)
(207.832 0.927507 0)
(207.776 1.01608 0)
(207.997 0.995834 0)
(208.85 0.772632 0)
(209.899 0.465065 0)
(210.759 0.356782 0)
(211.387 0.384777 0)
(211.907 0.50372 0)
(212.483 0.645894 0)
(213.153 0.77946 0)
(213.786 0.936893 0)
(214.177 1.17852 0)
(214.318 1.48837 0)
(214.326 1.81769 0)
(214.152 2.20402 0)
(213.977 2.60086 0)
(213.952 2.98468 0)
(214.013 3.38175 0)
(214.148 3.77664 0)
(214.333 4.18634 0)
(214.513 4.61727 0)
(214.675 5.06771 0)
(214.827 5.53578 0)
(214.976 6.02497 0)
(215.126 6.53703 0)
(215.271 7.07576 0)
(215.41 7.64131 0)
(215.543 8.23452 0)
(215.664 8.85662 0)
(215.771 9.5069 0)
(215.86 10.1843 0)
(215.939 10.8844 0)
(216.011 11.6047 0)
(216.073 12.3456 0)
(216.126 13.1081 0)
(216.17 13.8933 0)
(216.203 14.7026 0)
(216.225 15.5374 0)
(216.234 16.3983 0)
(216.232 17.2853 0)
(216.218 18.1981 0)
(216.192 19.1366 0)
(216.153 20.1012 0)
(216.102 21.0926 0)
(216.037 22.1112 0)
(215.959 23.1575 0)
(215.866 24.2325 0)
(215.761 25.3366 0)
(215.643 26.4704 0)
(215.515 27.6342 0)
(215.377 28.8287 0)
(215.231 30.0551 0)
(215.077 31.3146 0)
(214.917 32.6085 0)
(214.753 33.9379 0)
(214.586 35.3036 0)
(214.422 36.7075 0)
(214.26 38.1505 0)
(214.105 39.6326 0)
(213.962 41.1565 0)
(213.834 42.7241 0)
(213.72 44.336 0)
(213.631 45.9941 0)
(213.572 47.6996 0)
(213.541 49.4523 0)
(213.558 51.257 0)
(213.617 53.114 0)
(213.722 55.0247 0)
(213.896 56.9915 0)
(214.13 59.0119 0)
(214.46 61.0886 0)
(214.871 63.2197 0)
(215.393 65.4083 0)
(216.031 67.6536 0)
(216.787 69.954 0)
(217.698 72.3077 0)
(218.751 74.7132 0)
(220.003 77.1668 0)
(221.414 79.6692 0)
(223.077 82.2088 0)
(224.937 84.7782 0)
(227.093 87.3481 0)
(229.499 89.9144 0)
(232.241 92.4602 0)
(235.268 95.0081 0)
(238.71 97.4917 0)
(242.438 99.9731 0)
(246.702 102.257 0)
(251.215 104.511 0)
(256.302 106.475 0)
(261.831 108.247 0)
(267.765 109.706 0)
(273.853 110.932 0)
(280.183 111.903 0)
(286.958 112.528 0)
(293.975 112.785 0)
(302.192 112.564 0)
(309.814 111.84 0)
(317.725 110.893 0)
(325.084 109.925 0)
(332.52 108.323 0)
(339.201 106.719 0)
(347.039 104.351 0)
(354.097 101.949 0)
(361.067 99.367 0)
(367.878 96.3865 0)
(372.682 93.6984 0)
(376.106 91.1437 0)
(378.856 88.2913 0)
(381.795 86.6538 0)
(387.722 85.0428 0)
(397.779 83.459 0)
(401.861 88.2104 0)
(210 6.95379e-12 0)
(210 7.87538e-10 0)
(210 8.92695e-08 0)
(210 1.48832e-05 0)
(209.994 0.00115288 0)
(209.902 0.0259365 0)
(209.437 0.188303 0)
(208.573 0.551924 0)
(207.858 0.868588 0)
(207.728 0.975812 0)
(207.823 1.01869 0)
(208.553 0.871833 0)
(209.595 0.558651 0)
(210.482 0.417553 0)
(211.12 0.42191 0)
(211.623 0.531737 0)
(212.155 0.676163 0)
(212.785 0.813067 0)
(213.431 0.962065 0)
(213.909 1.1858 0)
(214.115 1.49168 0)
(214.18 1.80933 0)
(214.066 2.18722 0)
(213.857 2.5911 0)
(213.763 2.98367 0)
(213.795 3.37151 0)
(213.892 3.77509 0)
(214.051 4.18348 0)
(214.221 4.60769 0)
(214.372 5.05079 0)
(214.506 5.51261 0)
(214.636 5.99518 0)
(214.769 6.49964 0)
(214.896 7.03058 0)
(215.019 7.58774 0)
(215.135 8.17255 0)
(215.24 8.78599 0)
(215.329 9.42795 0)
(215.4 10.0966 0)
(215.461 10.7872 0)
(215.514 11.4978 0)
(215.556 12.2284 0)
(215.59 12.98 0)
(215.614 13.7534 0)
(215.628 14.5504 0)
(215.629 15.3719 0)
(215.618 16.2189 0)
(215.594 17.0917 0)
(215.558 17.9897 0)
(215.509 18.9131 0)
(215.447 19.8619 0)
(215.372 20.8365 0)
(215.283 21.8379 0)
(215.179 22.8663 0)
(215.06 23.9227 0)
(214.927 25.0076 0)
(214.78 26.1216 0)
(214.621 27.2651 0)
(214.45 28.4387 0)
(214.27 29.6433 0)
(214.08 30.8804 0)
(213.882 32.1513 0)
(213.676 33.4571 0)
(213.466 34.7985 0)
(213.254 36.177 0)
(213.041 37.5947 0)
(212.832 39.0509 0)
(212.63 40.5481 0)
(212.438 42.0886 0)
(212.256 43.6731 0)
(212.093 45.3035 0)
(211.953 46.9815 0)
(211.834 48.7068 0)
(211.756 50.4844 0)
(211.711 52.3143 0)
(211.705 54.199 0)
(211.757 56.1418 0)
(211.858 58.1408 0)
(212.041 60.1998 0)
(212.293 62.3164 0)
(212.644 64.4949 0)
(213.095 66.735 0)
(213.653 69.0374 0)
(214.349 71.4039 0)
(215.169 73.8334 0)
(216.171 76.3217 0)
(217.317 78.8638 0)
(218.699 81.4527 0)
(220.262 84.0856 0)
(222.101 86.7464 0)
(224.174 89.434 0)
(226.565 92.1348 0)
(229.236 94.8472 0)
(232.283 97.5095 0)
(235.602 100.143 0)
(239.396 102.626 0)
(243.42 105.1 0)
(248 107.303 0)
(252.775 109.48 0)
(258.071 111.39 0)
(263.959 113.168 0)
(270.202 114.567 0)
(277.409 115.769 0)
(284.16 116.428 0)
(291.767 116.904 0)
(299.47 116.893 0)
(307.205 116.406 0)
(314.934 115.663 0)
(322.916 114.455 0)
(330.383 113.127 0)
(337.998 111.608 0)
(345.981 109.512 0)
(353.081 107.37 0)
(361.125 104.318 0)
(367.693 101.006 0)
(372.602 97.4841 0)
(375.525 94.4359 0)
(377.68 92.7312 0)
(382.873 91.7285 0)
(394.211 90.1635 0)
(398.473 96.3964 0)
(210 8.74848e-12 0)
(210 1.12191e-10 0)
(210 9.56107e-09 0)
(210 3.21799e-06 0)
(209.997 0.000422337 0)
(209.944 0.0132115 0)
(209.591 0.126095 0)
(208.762 0.451996 0)
(207.934 0.795982 0)
(207.692 0.941487 0)
(207.685 1.03504 0)
(208.259 0.950238 0)
(209.264 0.642116 0)
(210.18 0.471584 0)
(210.837 0.449914 0)
(211.333 0.548411 0)
(211.827 0.69224 0)
(212.409 0.832261 0)
(213.043 0.978078 0)
(213.584 1.1839 0)
(213.885 1.47229 0)
(213.995 1.81093 0)
(213.967 2.1645 0)
(213.756 2.56716 0)
(213.587 2.96821 0)
(213.57 3.36007 0)
(213.636 3.76855 0)
(213.76 4.17378 0)
(213.914 4.592 0)
(214.055 5.02809 0)
(214.172 5.48245 0)
(214.284 5.95676 0)
(214.397 6.45293 0)
(214.506 6.9758 0)
(214.613 7.52455 0)
(214.713 8.10083 0)
(214.801 8.70547 0)
(214.871 9.33901 0)
(214.925 9.99831 0)
(214.968 10.6794 0)
(215.001 11.3805 0)
(215.024 12.1011 0)
(215.037 12.8417 0)
(215.041 13.6035 0)
(215.035 14.388 0)
(215.016 15.1966 0)
(214.984 16.0297 0)
(214.938 16.8881 0)
(214.88 17.7714 0)
(214.808 18.6797 0)
(214.722 19.6132 0)
(214.622 20.5709 0)
(214.507 21.5558 0)
(214.376 22.5676 0)
(214.23 23.6067 0)
(214.068 24.6739 0)
(213.89 25.7699 0)
(213.699 26.8949 0)
(213.494 28.0495 0)
(213.278 29.2345 0)
(213.051 30.4514 0)
(212.812 31.7015 0)
(212.565 32.9857 0)
(212.31 34.3051 0)
(212.05 35.6608 0)
(211.785 37.0562 0)
(211.521 38.4884 0)
(211.261 39.9601 0)
(211.005 41.4749 0)
(210.756 43.0336 0)
(210.521 44.6375 0)
(210.302 46.289 0)
(210.099 47.987 0)
(209.931 49.7369 0)
(209.789 51.5383 0)
(209.679 53.3936 0)
(209.617 55.3074 0)
(209.595 57.2773 0)
(209.646 59.3079 0)
(209.753 61.3961 0)
(209.949 63.5471 0)
(210.23 65.7611 0)
(210.605 68.0393 0)
(211.099 70.3837 0)
(211.704 72.792 0)
(212.469 75.2644 0)
(213.359 77.8 0)
(214.457 80.4003 0)
(215.708 83.0592 0)
(217.212 85.7644 0)
(218.928 88.5115 0)
(220.933 91.2885 0)
(223.193 94.0899 0)
(225.795 96.8852 0)
(228.679 99.6905 0)
(232.021 102.435 0)
(235.624 105.199 0)
(239.818 107.781 0)
(244.224 110.394 0)
(249.267 112.696 0)
(254.631 114.849 0)
(260.516 116.708 0)
(266.77 118.341 0)
(273.483 119.571 0)
(280.2 120.526 0)
(287.539 121.26 0)
(295.363 121.411 0)
(303.362 121.051 0)
(312.378 120.159 0)
(320.976 118.729 0)
(328.697 117.437 0)
(337.34 115.416 0)
(344.549 113.704 0)
(352.034 111.561 0)
(358.749 109.41 0)
(364.893 106.452 0)
(369.488 102.814 0)
(373.054 99.6002 0)
(378.925 97.3829 0)
(390.405 95.9638 0)
(394.775 102.627 0)
(210 1.51096e-11 0)
(210 -3.42505e-11 0)
(210 -3.735e-09 0)
(210 2.4061e-07 0)
(209.999 0.000127642 0)
(209.97 0.00591843 0)
(209.723 0.0768206 0)
(208.976 0.348087 0)
(208.05 0.708216 0)
(207.671 0.914535 0)
(207.574 1.02653 0)
(207.978 1.0016 0)
(208.92 0.727034 0)
(209.862 0.535323 0)
(210.541 0.480296 0)
(211.038 0.564652 0)
(211.501 0.70841 0)
(212.035 0.85653 0)
(212.638 1.00794 0)
(213.213 1.20502 0)
(213.608 1.48202 0)
(213.78 1.82192 0)
(213.82 2.15791 0)
(213.657 2.54717 0)
(213.432 2.95373 0)
(213.342 3.35201 0)
(213.376 3.74876 0)
(213.463 4.15841 0)
(213.593 4.57172 0)
(213.722 4.9983 0)
(213.824 5.44401 0)
(213.917 5.9103 0)
(214.01 6.39903 0)
(214.1 6.91378 0)
(214.19 7.4539 0)
(214.274 8.0214 0)
(214.345 8.61746 0)
(214.396 9.2426 0)
(214.433 9.89157 0)
(214.458 10.5627 0)
(214.471 11.2536 0)
(214.474 11.9629 0)
(214.468 12.6915 0)
(214.452 13.4406 0)
(214.425 14.2118 0)
(214.386 15.0064 0)
(214.334 15.8235 0)
(214.266 16.6664 0)
(214.186 17.5339 0)
(214.091 18.4255 0)
(213.982 19.3416 0)
(213.858 20.2826 0)
(213.719 21.2488 0)
(213.563 22.241 0)
(213.391 23.2599 0)
(213.202 24.3065 0)
(212.996 25.3812 0)
(212.775 26.4844 0)
(212.539 27.6164 0)
(212.29 28.7782 0)
(212.028 29.971 0)
(211.753 31.1961 0)
(211.467 32.4547 0)
(211.171 33.7479 0)
(210.866 35.0774 0)
(210.555 36.4431 0)
(210.241 37.8469 0)
(209.926 39.2899 0)
(209.611 40.7755 0)
(209.298 42.3046 0)
(208.995 43.8759 0)
(208.701 45.4952 0)
(208.418 47.1612 0)
(208.164 48.879 0)
(207.926 50.6489 0)
(207.716 52.4717 0)
(207.544 54.3541 0)
(207.401 56.2934 0)
(207.32 58.2958 0)
(207.282 60.3579 0)
(207.322 62.4861 0)
(207.432 64.6804 0)
(207.624 66.943 0)
(207.919 69.2772 0)
(208.311 71.6823 0)
(208.845 74.1618 0)
(209.487 76.712 0)
(210.32 79.3328 0)
(211.29 82.0154 0)
(212.491 84.7591 0)
(213.881 87.5642 0)
(215.534 90.4225 0)
(217.426 93.3247 0)
(219.635 96.2487 0)
(222.117 99.1948 0)
(225.005 102.111 0)
(228.159 105.036 0)
(231.853 107.845 0)
(235.742 110.693 0)
(240.277 113.284 0)
(244.99 115.928 0)
(250.342 118.288 0)
(256.179 120.492 0)
(262.679 122.383 0)
(269.484 123.858 0)
(276.653 125.06 0)
(284.508 125.89 0)
(292.027 126.234 0)
(300.139 126.381 0)
(308.859 125.905 0)
(317.112 124.946 0)
(326.197 123.499 0)
(334.819 121.709 0)
(343.081 119.534 0)
(350.286 117.385 0)
(355.94 115.06 0)
(359.928 112.204 0)
(363.481 109.614 0)
(369.777 107.656 0)
(382.243 105.795 0)
(386.688 112.577 0)
(210 1.16927e-11 0)
(210 -1.21106e-11 0)
(210 -2.94299e-09 0)
(210 -1.52289e-07 0)
(210 2.79919e-05 0)
(209.986 0.00225972 0)
(209.829 0.0418679 0)
(209.202 0.248856 0)
(208.234 0.611006 0)
(207.67 0.874553 0)
(207.488 0.985507 0)
(207.73 1.02612 0)
(208.57 0.813187 0)
(209.521 0.598738 0)
(210.224 0.497144 0)
(210.732 0.564591 0)
(211.175 0.710532 0)
(211.665 0.872058 0)
(212.228 1.03416 0)
(212.807 1.22773 0)
(213.274 1.4892 0)
(213.531 1.81276 0)
(213.619 2.15833 0)
(213.544 2.51851 0)
(213.299 2.92232 0)
(213.124 3.32386 0)
(213.105 3.72094 0)
(213.162 4.12789 0)
(213.258 4.53768 0)
(213.371 4.95711 0)
(213.462 5.39438 0)
(213.538 5.85107 0)
(213.608 6.33111 0)
(213.679 6.83712 0)
(213.751 7.36897 0)
(213.819 7.92807 0)
(213.872 8.51648 0)
(213.906 9.13222 0)
(213.928 9.76933 0)
(213.932 10.4321 0)
(213.924 11.113 0)
(213.908 11.8112 0)
(213.881 12.5278 0)
(213.845 13.2643 0)
(213.797 14.0219 0)
(213.737 14.8017 0)
(213.663 15.6052 0)
(213.575 16.4322 0)
(213.472 17.2832 0)
(213.354 18.1579 0)
(213.221 19.0564 0)
(213.073 19.9794 0)
(212.908 20.9276 0)
(212.727 21.9013 0)
(212.527 22.9012 0)
(212.31 23.9281 0)
(212.074 24.9826 0)
(211.822 26.0653 0)
(211.554 27.1765 0)
(211.27 28.3167 0)
(210.972 29.4873 0)
(210.659 30.6894 0)
(210.333 31.9244 0)
(209.994 33.1932 0)
(209.644 34.4969 0)
(209.285 35.8371 0)
(208.918 37.2148 0)
(208.548 38.6315 0)
(208.175 40.0882 0)
(207.802 41.586 0)
(207.432 43.1279 0)
(207.064 44.7182 0)
(206.704 46.3531 0)
(206.366 48.0358 0)
(206.036 49.7732 0)
(205.734 51.5609 0)
(205.458 53.4083 0)
(205.205 55.3115 0)
(205.003 57.2777 0)
(204.835 59.3028 0)
(204.734 61.3937 0)
(204.69 63.55 0)
(204.717 65.775 0)
(204.833 68.0726 0)
(205.03 70.4426 0)
(205.35 72.8895 0)
(205.761 75.4096 0)
(206.339 78.0102 0)
(207.029 80.6873 0)
(207.922 83.446 0)
(208.976 86.2779 0)
(210.27 89.1726 0)
(211.785 92.1237 0)
(213.59 95.1251 0)
(215.653 98.1791 0)
(218.084 101.257 0)
(220.788 104.376 0)
(223.98 107.46 0)
(227.404 110.588 0)
(231.484 113.547 0)
(235.731 116.562 0)
(240.681 119.263 0)
(245.918 121.902 0)
(251.768 124.206 0)
(258.338 126.409 0)
(265.165 128.1 0)
(272.537 129.578 0)
(280.11 130.552 0)
(287.438 131.365 0)
(295.745 131.69 0)
(303.984 131.497 0)
(311.917 130.943 0)
(320.85 129.91 0)
(329.243 128.542 0)
(338.122 126.621 0)
(346.544 123.771 0)
(352.157 120.541 0)
(356.385 117.512 0)
(362.516 115.869 0)
(376.287 114.166 0)
(380.693 122.64 0)
(210 4.16241e-12 0)
(210 -6.42514e-12 0)
(210 -1.27295e-09 0)
(210 -9.88058e-08 0)
(210 2.30818e-06 0)
(209.994 0.000700299 0)
(209.905 0.019861 0)
(209.423 0.162502 0)
(208.459 0.496945 0)
(207.718 0.812351 0)
(207.415 0.938526 0)
(207.54 1.03907 0)
(208.226 0.891952 0)
(209.155 0.654897 0)
(209.889 0.513158 0)
(210.421 0.575669 0)
(210.855 0.728412 0)
(211.307 0.902044 0)
(211.823 1.07253 0)
(212.38 1.26322 0)
(212.888 1.50972 0)
(213.232 1.81554 0)
(213.37 2.16302 0)
(213.378 2.49631 0)
(213.167 2.88264 0)
(212.926 3.28509 0)
(212.828 3.6857 0)
(212.851 4.08465 0)
(212.914 4.49672 0)
(213.004 4.90813 0)
(213.082 5.33566 0)
(213.143 5.78431 0)
(213.192 6.25756 0)
(213.242 6.75591 0)
(213.296 7.27965 0)
(213.346 7.83018 0)
(213.379 8.40984 0)
(213.401 9.01109 0)
(213.403 9.6426 0)
(213.387 10.2939 0)
(213.361 10.9626 0)
(213.324 11.6484 0)
(213.278 12.3521 0)
(213.221 13.0748 0)
(213.153 13.8177 0)
(213.073 14.5819 0)
(212.978 15.3685 0)
(212.869 16.1785 0)
(212.743 17.012 0)
(212.603 17.8686 0)
(212.447 18.7486 0)
(212.275 19.6523 0)
(212.086 20.5803 0)
(211.88 21.5331 0)
(211.655 22.5115 0)
(211.411 23.5162 0)
(211.148 24.5479 0)
(210.867 25.6069 0)
(210.569 26.6937 0)
(210.254 27.8088 0)
(209.923 28.9534 0)
(209.576 30.1286 0)
(209.213 31.3358 0)
(208.835 32.5761 0)
(208.444 33.8506 0)
(208.041 35.1604 0)
(207.628 36.5068 0)
(207.206 37.891 0)
(206.779 39.3149 0)
(206.347 40.7801 0)
(205.913 42.289 0)
(205.479 43.8418 0)
(205.051 45.4395 0)
(204.634 47.0846 0)
(204.211 48.7904 0)
(203.821 50.5367 0)
(203.443 52.3447 0)
(203.084 54.2092 0)
(202.763 56.1381 0)
(202.465 58.1274 0)
(202.224 60.1838 0)
(202.026 62.3071 0)
(201.887 64.5014 0)
(201.821 66.7715 0)
(201.824 69.1174 0)
(201.932 71.5453 0)
(202.117 74.0516 0)
(202.449 76.6447 0)
(202.877 79.3159 0)
(203.49 82.0722 0)
(204.244 84.9051 0)
(205.215 87.8158 0)
(206.381 90.8038 0)
(207.801 93.868 0)
(209.449 97.0047 0)
(211.422 100.194 0)
(213.658 103.433 0)
(216.337 106.668 0)
(219.267 109.935 0)
(222.786 113.127 0)
(226.49 116.394 0)
(230.93 119.426 0)
(235.542 122.501 0)
(240.885 125.298 0)
(246.6 128.018 0)
(252.977 130.391 0)
(260.01 132.54 0)
(267.611 134.303 0)
(275.944 135.472 0)
(283.977 136.165 0)
(293.474 136.381 0)
(301.457 136.406 0)
(311.59 135.776 0)
(320.53 134.925 0)
(329.808 133.451 0)
(338.625 131.109 0)
(344.895 128.067 0)
(349.944 124.717 0)
(356.452 122.604 0)
(370.139 121.117 0)
(374.55 129.513 0)
(210 6.89672e-12 0)
(210 2.09631e-11 0)
(210 -4.10052e-10 0)
(210 -4.02826e-08 0)
(210 -1.50732e-06 0)
(209.998 0.000157473 0)
(209.953 0.00796208 0)
(209.617 0.0945496 0)
(208.729 0.378575 0)
(207.832 0.727421 0)
(207.366 0.906609 0)
(207.399 1.01946 0)
(207.894 0.937316 0)
(208.767 0.69835 0)
(209.542 0.536446 0)
(210.11 0.597089 0)
(210.54 0.750061 0)
(210.954 0.927347 0)
(211.421 1.10104 0)
(211.943 1.28717 0)
(212.458 1.52075 0)
(212.87 1.80707 0)
(213.078 2.1383 0)
(213.139 2.46767 0)
(213.021 2.8271 0)
(212.756 3.22447 0)
(212.566 3.62645 0)
(212.524 4.02713 0)
(212.565 4.42924 0)
(212.624 4.84087 0)
(212.689 5.26136 0)
(212.736 5.70089 0)
(212.767 6.16353 0)
(212.798 6.65337 0)
(212.83 7.17015 0)
(212.859 7.71426 0)
(212.878 8.28266 0)
(212.881 8.87876 0)
(212.865 9.49854 0)
(212.831 10.1381 0)
(212.785 10.7953 0)
(212.728 11.4693 0)
(212.661 12.1604 0)
(212.584 12.8696 0)
(212.495 13.598 0)
(212.394 14.3467 0)
(212.278 15.1169 0)
(212.147 15.9095 0)
(211.999 16.7249 0)
(211.836 17.563 0)
(211.657 18.4239 0)
(211.461 19.3081 0)
(211.247 20.216 0)
(211.015 21.1483 0)
(210.764 22.1056 0)
(210.492 23.0885 0)
(210.201 24.098 0)
(209.89 25.1344 0)
(209.56 26.1982 0)
(209.212 27.2897 0)
(208.847 28.4098 0)
(208.464 29.5598 0)
(208.063 30.7409 0)
(207.645 31.9544 0)
(207.211 33.2011 0)
(206.763 34.4824 0)
(206.301 35.7996 0)
(205.828 37.1539 0)
(205.346 38.5465 0)
(204.856 39.979 0)
(204.361 41.4534 0)
(203.861 42.9718 0)
(203.36 44.5361 0)
(202.861 46.1488 0)
(202.371 47.8062 0)
(201.892 49.5167 0)
(201.415 51.2867 0)
(200.957 53.1088 0)
(200.527 54.9914 0)
(200.111 56.9363 0)
(199.745 58.9467 0)
(199.408 61.0238 0)
(199.124 63.17 0)
(198.897 65.3911 0)
(198.727 67.6875 0)
(198.644 70.0665 0)
(198.624 72.5246 0)
(198.732 75.0734 0)
(198.914 77.7052 0)
(199.257 80.4348 0)
(199.71 83.255 0)
(200.348 86.1721 0)
(201.151 89.1816 0)
(202.184 92.2807 0)
(203.431 95.4611 0)
(204.976 98.713 0)
(206.772 102.033 0)
(208.961 105.399 0)
(211.401 108.832 0)
(214.365 112.27 0)
(217.535 115.777 0)
(221.412 119.157 0)
(225.439 122.618 0)
(230.262 125.799 0)
(235.32 128.987 0)
(241.133 131.86 0)
(247.508 134.537 0)
(254.207 136.9 0)
(262.057 139.169 0)
(269.389 140.617 0)
(278.422 141.998 0)
(287.004 142.728 0)
(296.291 143.092 0)
(305.977 142.843 0)
(314.774 142.259 0)
(323.586 140.799 0)
(330.297 138.668 0)
(335.891 135.857 0)
(342.64 134.108 0)
(357.404 132.361 0)
(361.348 141.677 0)
(210 2.8866e-12 0)
(210 -5.23427e-13 0)
(210 -1.51653e-10 0)
(210 -1.27483e-08 0)
(210 -8.92752e-07 0)
(209.999 1.45237e-05 0)
(209.98 0.0025636 0)
(209.771 0.04781 0)
(209.019 0.263801 0)
(208.01 0.621303 0)
(207.352 0.86154 0)
(207.303 0.959686 0)
(207.593 0.937791 0)
(208.377 0.757758 0)
(209.192 0.591474 0)
(209.799 0.632632 0)
(210.226 0.771827 0)
(210.602 0.945018 0)
(211.021 1.12079 0)
(211.503 1.30443 0)
(212.003 1.52903 0)
(212.45 1.79772 0)
(212.736 2.10743 0)
(212.836 2.44425 0)
(212.814 2.77404 0)
(212.582 3.15717 0)
(212.322 3.56053 0)
(212.198 3.96425 0)
(212.197 4.36597 0)
(212.232 4.77376 0)
(212.279 5.18686 0)
(212.311 5.61973 0)
(212.329 6.07199 0)
(212.338 6.55587 0)
(212.348 7.06475 0)
(212.357 7.59814 0)
(212.359 8.15712 0)
(212.345 8.74173 0)
(212.312 9.34891 0)
(212.261 9.97603 0)
(212.196 10.6205 0)
(212.119 11.2811 0)
(212.031 11.9578 0)
(211.934 12.6518 0)
(211.825 13.364 0)
(211.703 14.0956 0)
(211.567 14.848 0)
(211.414 15.622 0)
(211.245 16.4181 0)
(211.06 17.2365 0)
(210.858 18.0771 0)
(210.638 18.9402 0)
(210.4 19.8265 0)
(210.144 20.7365 0)
(209.868 21.6706 0)
(209.571 22.6297 0)
(209.253 23.6144 0)
(208.915 24.6254 0)
(208.556 25.663 0)
(208.178 26.7276 0)
(207.782 27.8199 0)
(207.366 28.9412 0)
(206.93 30.0927 0)
(206.476 31.2755 0)
(206.004 32.4907 0)
(205.515 33.7394 0)
(205.01 35.0229 0)
(204.491 36.3424 0)
(203.959 37.6993 0)
(203.416 39.0951 0)
(202.863 40.5319 0)
(202.302 42.011 0)
(201.736 43.5346 0)
(201.168 45.1042 0)
(200.599 46.7231 0)
(200.032 48.3928 0)
(199.472 50.1144 0)
(198.923 51.8911 0)
(198.387 53.7275 0)
(197.85 55.632 0)
(197.361 57.5928 0)
(196.883 59.625 0)
(196.455 61.7264 0)
(196.065 63.9054 0)
(195.723 66.1608 0)
(195.449 68.5007 0)
(195.225 70.9224 0)
(195.109 73.4393 0)
(195.051 76.0422 0)
(195.135 78.7476 0)
(195.309 81.5429 0)
(195.649 84.4373 0)
(196.135 87.4242 0)
(196.824 90.5082 0)
(197.7 93.6902 0)
(198.829 96.9756 0)
(200.176 100.362 0)
(201.865 103.836 0)
(203.799 107.397 0)
(206.204 111.005 0)
(208.838 114.685 0)
(212.111 118.344 0)
(215.572 122.116 0)
(219.868 125.721 0)
(224.358 129.372 0)
(229.644 132.721 0)
(235.31 136.062 0)
(241.701 139.111 0)
(248.628 141.833 0)
(256.272 144.117 0)
(263.833 146.104 0)
(272.782 147.783 0)
(280.637 148.862 0)
(291.077 149.528 0)
(299.796 149.79 0)
(310.99 149.015 0)
(319.389 147.33 0)
(326.521 144.382 0)
(333.513 142.807 0)
(349.026 141.582 0)
(352.355 152.907 0)
(210 1.98504e-12 0)
(210 -1.0952e-11 0)
(210 -6.57835e-11 0)
(210 -3.41427e-09 0)
(210 -3.03202e-07 0)
(210 -7.4347e-06 0)
(209.992 0.000592893 0)
(209.878 0.0203628 0)
(209.302 0.164867 0)
(208.256 0.500367 0)
(207.405 0.783208 0)
(207.253 0.889429 0)
(207.343 0.933345 0)
(207.995 0.831638 0)
(208.832 0.650608 0)
(209.476 0.653259 0)
(209.904 0.775704 0)
(210.248 0.945603 0)
(210.622 1.12577 0)
(211.067 1.30805 0)
(211.539 1.52215 0)
(211.991 1.77254 0)
(212.335 2.06015 0)
(212.495 2.38198 0)
(212.533 2.70177 0)
(212.402 3.06477 0)
(212.123 3.46398 0)
(211.904 3.86921 0)
(211.832 4.27213 0)
(211.842 4.67517 0)
(211.864 5.09048 0)
(211.884 5.51605 0)
(211.892 5.9592 0)
(211.88 6.43436 0)
(211.866 6.93672 0)
(211.853 7.46396 0)
(211.835 8.01494 0)
(211.804 8.58837 0)
(211.755 9.18319 0)
(211.686 9.79736 0)
(211.6 10.4288 0)
(211.503 11.0761 0)
(211.395 11.739 0)
(211.276 12.4181 0)
(211.146 13.1144 0)
(211.004 13.829 0)
(210.847 14.5631 0)
(210.673 15.318 0)
(210.483 16.0944 0)
(210.275 16.8925 0)
(210.049 17.7123 0)
(209.806 18.5542 0)
(209.544 19.4186 0)
(209.263 20.3061 0)
(208.961 21.2172 0)
(208.639 22.1526 0)
(208.294 23.1131 0)
(207.927 24.0993 0)
(207.538 25.1116 0)
(207.129 26.1503 0)
(206.7 27.2161 0)
(206.25 28.3098 0)
(205.779 29.4329 0)
(205.287 30.5865 0)
(204.775 31.7717 0)
(204.244 32.9893 0)
(203.695 34.2408 0)
(203.128 35.5273 0)
(202.545 36.8501 0)
(201.949 38.2106 0)
(201.34 39.6105 0)
(200.719 41.0516 0)
(200.088 42.536 0)
(199.45 44.0651 0)
(198.808 45.6409 0)
(198.164 47.2654 0)
(197.52 48.9423 0)
(196.878 50.6743 0)
(196.241 52.4641 0)
(195.616 54.3087 0)
(195.015 56.2173 0)
(194.402 58.2031 0)
(193.848 60.2427 0)
(193.312 62.361 0)
(192.821 64.5553 0)
(192.378 66.8333 0)
(191.976 69.1927 0)
(191.661 71.6471 0)
(191.388 74.1866 0)
(191.238 76.8317 0)
(191.152 79.5705 0)
(191.207 82.4216 0)
(191.375 85.3813 0)
(191.713 88.4585 0)
(192.207 91.6502 0)
(192.922 94.9575 0)
(193.836 98.3712 0)
(195.052 101.888 0)
(196.498 105.504 0)
(198.357 109.206 0)
(200.444 113.003 0)
(203.094 116.851 0)
(205.939 120.796 0)
(209.538 124.674 0)
(213.313 128.664 0)
(218 132.485 0)
(222.937 136.376 0)
(228.711 139.929 0)
(235.094 143.423 0)
(242.312 146.615 0)
(250.024 149.261 0)
(258.755 151.598 0)
(267.589 153.174 0)
(277.423 154.611 0)
(287.471 155.547 0)
(298.182 155.792 0)
(307.546 155.03 0)
(315.346 152.666 0)
(322.534 150.988 0)
(337.924 149.743 0)
(341.278 160.209 0)
(210 -2.76968e-12 0)
(210 -1.59389e-11 0)
(210 -1.93637e-11 0)
(210 -7.95074e-10 0)
(210 -8.55272e-08 0)
(210 -5.0108e-06 0)
(209.998 5.41903e-05 0)
(209.944 0.00694392 0)
(209.549 0.090054 0)
(208.561 0.370739 0)
(207.532 0.675553 0)
(207.215 0.837756 0)
(207.155 0.924304 0)
(207.636 0.880199 0)
(208.461 0.695286 0)
(209.141 0.664968 0)
(209.58 0.775148 0)
(209.896 0.938827 0)
(210.228 1.11891 0)
(210.637 1.29788 0)
(211.078 1.50109 0)
(211.511 1.73788 0)
(211.879 2.00942 0)
(212.109 2.31325 0)
(212.18 2.64895 0)
(212.155 2.98643 0)
(211.92 3.37493 0)
(211.633 3.78487 0)
(211.474 4.19335 0)
(211.435 4.59764 0)
(211.44 5.00393 0)
(211.445 5.42234 0)
(211.441 5.85926 0)
(211.413 6.32437 0)
(211.377 6.81626 0)
(211.342 7.3325 0)
(211.304 7.87172 0)
(211.255 8.4326 0)
(211.188 9.01366 0)
(211.102 9.61333 0)
(210.997 10.2299 0)
(210.88 10.862 0)
(210.751 11.5093 0)
(210.612 12.1721 0)
(210.462 12.8514 0)
(210.299 13.548 0)
(210.121 14.2631 0)
(209.927 14.998 0)
(209.716 15.7536 0)
(209.486 16.5302 0)
(209.238 17.328 0)
(208.973 18.1471 0)
(208.688 18.9883 0)
(208.383 19.8518 0)
(208.057 20.7384 0)
(207.709 21.6484 0)
(207.339 22.5828 0)
(206.946 23.542 0)
(206.53 24.5267 0)
(206.092 25.537 0)
(205.633 26.5734 0)
(205.153 27.6368 0)
(204.65 28.7285 0)
(204.124 29.8496 0)
(203.577 31.0012 0)
(203.008 32.1841 0)
(202.419 33.3997 0)
(201.81 34.649 0)
(201.183 35.9335 0)
(200.538 37.2543 0)
(199.878 38.6133 0)
(199.203 40.0121 0)
(198.514 41.4527 0)
(197.813 42.9366 0)
(197.103 44.4662 0)
(196.385 46.0432 0)
(195.662 47.6704 0)
(194.935 49.3504 0)
(194.207 51.0868 0)
(193.482 52.8828 0)
(192.76 54.7417 0)
(192.051 56.6596 0)
(191.367 58.648 0)
(190.678 60.7159 0)
(190.036 62.8523 0)
(189.424 65.0716 0)
(188.844 67.3748 0)
(188.332 69.7742 0)
(187.848 72.2606 0)
(187.469 74.8552 0)
(187.134 77.544 0)
(186.921 80.3481 0)
(186.796 83.2591 0)
(186.817 86.2868 0)
(186.971 89.4275 0)
(187.316 92.6913 0)
(187.83 96.0777 0)
(188.598 99.5961 0)
(189.569 103.24 0)
(190.899 107.008 0)
(192.449 110.898 0)
(194.495 114.891 0)
(196.75 118.994 0)
(199.68 123.122 0)
(202.787 127.36 0)
(206.755 131.517 0)
(210.907 135.775 0)
(215.985 139.801 0)
(221.398 143.844 0)
(227.67 147.663 0)
(234.749 151.347 0)
(242.119 154.316 0)
(250.988 157.478 0)
(259.123 159.787 0)
(269.788 162.118 0)
(278.936 163.282 0)
(288.855 163.542 0)
(296.988 162.163 0)
(304.186 161.227 0)
(320.387 160.353 0)
(322.909 172.272 0)
(210 -2.47387e-12 0)
(210 -1.39048e-11 0)
(210 -6.3651e-12 0)
(210 -1.7567e-10 0)
(210 -2.07366e-08 0)
(210 -1.69219e-06 0)