/*--------------------------------*- C++ -*----------------------------------*\
| =========                 |                                                 |
| \\      /  F ield         | OpenFOAM: The Open Source CFD Toolbox           |
|  \\    /   O peration     | Version:  2412                                  |
|   \\  /    A nd           | Website:  www.openfoam.com                      |
|    \\/     M anipulation  |                                                 |
\*---------------------------------------------------------------------------*/
FoamFile
{
    version     2.0;
    format      ascii;
    arch        "LSB;label=32;scalar=64";
    class       volScalarField;
    location    "0.041";
    object      rho;
}
// * * * * * * * * * * * * * * * * * * * * * * * * * * * * * * * * * * * * * //

dimensions      [1 -3 0 0 0 0 0];

internalField   nonuniform List<scalar> 
9816
(
0.0437996
0.0437984
0.0437964
0.043793
0.0437884
0.0437825
0.0437754
0.0437672
0.0437581
0.043748
0.043737
0.0437254
0.043713
0.0437001
0.0436867
0.0436728
0.0436585
0.0436439
0.0436286
0.0436147
0.0435995
0.0435855
0.0435709
0.0435563
0.0435412
0.0435255
0.0435084
0.0434897
0.0434677
0.0434432
0.0434158
0.0433808
0.04333
0.0432588
0.0431655
0.0430529
0.0429231
0.0427819
0.0426286
0.042469
0.0423077
0.0421629
0.042974
0.0429607
0.0429474
0.0429342
0.0429209
0.0429076
0.0428944
0.0428813
0.0428683
0.0428555
0.0428428
0.0428304
0.0428181
0.0428061
0.0427944
0.0427832
0.0427723
0.042762
0.0427522
0.0427426
0.0427333
0.0427234
0.0427133
0.0427023
0.042691
0.0426789
0.0426623
0.0426389
0.0426038
0.0425542
0.0424863
0.0423992
0.0422945
0.0421737
0.0420453
0.0419124
0.0417827
0.0416665
0.0415865
0.0415036
0.0414501
0.0414478
0.0425692
0.0425596
0.04255
0.0425406
0.0425314
0.0425223
0.0425134
0.0425047
0.0424961
0.0424878
0.0424796
0.0424718
0.0424641
0.0424569
0.04245
0.0424435
0.0424374
0.0424317
0.042426
0.0424202
0.0424138
0.042407
0.0424
0.042392
0.0423822
0.042368
0.0423474
0.0423163
0.042272
0.0422102
0.0421296
0.0420297
0.0419136
0.0417866
0.0416566
0.0415306
0.0414269
0.0413677
0.0413129
0.0412619
0.0412567
0.0412709
0.0423088
0.0423019
0.0422952
0.0422887
0.0422825
0.0422765
0.0422708
0.0422654
0.0422603
0.0422554
0.0422507
0.0422463
0.0422421
0.0422382
0.0422347
0.0422315
0.0422285
0.0422255
0.0422222
0.0422188
0.0422145
0.0422102
0.0422052
0.0421992
0.0421909
0.0421786
0.0421598
0.0421314
0.0420896
0.0420309
0.0419527
0.041854
0.0417388
0.0416124
0.0414856
0.0413698
0.0412808
0.0412098
0.0411605
0.0411471
0.041148
0.0411349
0.042118
0.0421138
0.0421097
0.0421058
0.0421019
0.0420981
0.0420942
0.0420905
0.0420868
0.0420832
0.0420797
0.0420764
0.0420733
0.0420705
0.042068
0.0420657
0.0420637
0.0420615
0.0420592
0.0420566
0.0420539
0.042051
0.0420478
0.0420436
0.0420377
0.0420289
0.0420153
0.0419945
0.0419635
0.0419194
0.0418595
0.041783
0.0416913
0.0415881
0.0414795
0.0413731
0.0412755
0.0411936
0.041136
0.0410922
0.041058
0.0410484
0.0419743
0.041972
0.0419698
0.0419677
0.0419658
0.041964
0.0419623
0.0419608
0.0419594
0.041958
0.0419567
0.0419556
0.0419546
0.0419539
0.0419532
0.0419527
0.0419522
0.0419515
0.0419506
0.0419496
0.0419485
0.0419472
0.0419455
0.0419431
0.0419395
0.0419338
0.0419252
0.0419115
0.0418914
0.0418622
0.0418223
0.0417694
0.0417036
0.041625
0.0415369
0.0414428
0.0413496
0.0412614
0.0411822
0.0411199
0.0410731
0.0410308
0.041864
0.0418639
0.0418639
0.0418639
0.0418639
0.0418639
0.0418639
0.0418639
0.0418638
0.0418638
0.0418637
0.0418636
0.0418637
0.0418638
0.041864
0.0418642
0.0418643
0.0418643
0.0418642
0.0418641
0.0418638
0.0418634
0.0418627
0.0418615
0.0418595
0.0418564
0.0418511
0.041843
0.0418308
0.0418131
0.0417879
0.0417543
0.0417106
0.0416566
0.0415922
0.0415201
0.0414415
0.0413609
0.0412817
0.0412093
0.0411451
0.0410915
0.0417805
0.0417817
0.0417828
0.0417839
0.0417849
0.0417859
0.0417869
0.0417878
0.0417886
0.0417894
0.0417903
0.0417912
0.0417921
0.0417931
0.0417941
0.0417952
0.0417962
0.0417972
0.0417981
0.0417989
0.0417997
0.0418002
0.0418004
0.0418004
0.0418
0.0417988
0.0417964
0.0417927
0.0417864
0.0417766
0.041763
0.0417447
0.0417189
0.0416863
0.0416463
0.0415992
0.0415441
0.0414837
0.0414184
0.0413523
0.0412855
0.0412222
0.041714
0.0417167
0.0417193
0.041722
0.0417246
0.0417273
0.0417299
0.0417325
0.0417351
0.0417377
0.0417402
0.0417428
0.0417453
0.0417479
0.0417504
0.0417529
0.0417552
0.0417575
0.0417597
0.0417617
0.0417635
0.0417651
0.0417667
0.0417679
0.0417684
0.0417686
0.0417688
0.0417683
0.0417655
0.041762
0.0417578
0.0417494
0.0417367
0.0417213
0.0417011
0.0416759
0.0416455
0.0416091
0.0415673
0.0415201
0.0414684
0.0414122
0.0416736
0.0416789
0.041684
0.0416888
0.0416933
0.0416976
0.0417017
0.0417058
0.0417096
0.0417133
0.0417169
0.0417203
0.0417236
0.0417269
0.04173
0.0417331
0.0417361
0.041739
0.0417419
0.0417447
0.0417473
0.0417497
0.041752
0.0417541
0.0417558
0.0417575
0.0417588
0.0417595
0.0417596
0.0417595
0.0417589
0.0417571
0.0417532
0.0417483
0.0417408
0.041731
0.0417178
0.0417016
0.0416808
0.0416562
0.0416257
0.0415902
0.0416499
0.0416567
0.0416634
0.04167
0.0416765
0.0416828
0.0416889
0.0416947
0.0417003
0.0417057
0.0417109
0.0417158
0.0417206
0.0417252
0.0417297
0.041734
0.0417382
0.0417422
0.0417461
0.0417499
0.0417536
0.041757
0.0417602
0.0417632
0.0417661
0.0417689
0.0417713
0.0417731
0.0417748
0.0417762
0.0417775
0.0417781
0.0417783
0.0417779
0.0417769
0.0417752
0.0417721
0.0417676
0.0417612
0.0417522
0.0417392
0.0417225
0.0416486
0.0416576
0.0416664
0.0416749
0.0416832
0.0416912
0.041699
0.0417065
0.0417136
0.0417205
0.0417271
0.0417335
0.0417396
0.0417455
0.0417511
0.0417565
0.0417617
0.0417667
0.0417716
0.0417762
0.0417808
0.041785
0.041789
0.0417929
0.0417967
0.0418001
0.0418034
0.0418064
0.0418093
0.0418118
0.0418141
0.0418162
0.0418179
0.0418184
0.0418177
0.0418177
0.0418187
0.0418171
0.041812
0.04181
0.0418116
0.041809
0.041669
0.0416799
0.0416903
0.0417004
0.0417101
0.0417193
0.0417282
0.0417367
0.0417449
0.0417526
0.0417601
0.0417672
0.041774
0.0417805
0.0417868
0.0417928
0.0417986
0.0418041
0.0418094
0.0418145
0.0418194
0.0418241
0.0418286
0.0418329
0.0418369
0.0418406
0.0418445
0.0418483
0.0418515
0.0418541
0.0418571
0.0418608
0.0418633
0.0418642
0.0418643
0.0418653
0.0418686
0.0418698
0.0418681
0.041864
0.0418624
0.0418653
0.0417063
0.041718
0.0417292
0.0417399
0.0417501
0.0417598
0.0417691
0.041778
0.0417864
0.0417945
0.0418022
0.0418095
0.0418165
0.0418232
0.0418295
0.0418356
0.0418415
0.0418471
0.0418524
0.0418576
0.0418625
0.0418673
0.0418718
0.041876
0.0418801
0.0418842
0.041888
0.0418912
0.0418944
0.0418981
0.0419019
0.0419045
0.0419062
0.0419082
0.0419117
0.0419151
0.0419161
0.0419156
0.0419143
0.041914
0.0419172
0.0419198
0.0417497
0.0417617
0.0417733
0.0417842
0.0417947
0.0418047
0.0418142
0.0418232
0.0418318
0.04184
0.0418478
0.0418552
0.0418623
0.041869
0.0418754
0.0418816
0.0418874
0.041893
0.0418983
0.0419034
0.0419083
0.041913
0.0419174
0.0419217
0.0419257
0.0419295
0.041933
0.0419366
0.0419401
0.0419431
0.0419457
0.0419484
0.0419517
0.0419549
0.041957
0.0419583
0.0419592
0.041961
0.0419639
0.0419656
0.041966
0.0419652
0.0417945
0.0418067
0.0418183
0.0418293
0.0418397
0.0418497
0.0418591
0.041868
0.0418765
0.0418846
0.0418922
0.0418994
0.0419063
0.0419128
0.041919
0.0419249
0.0419305
0.0419359
0.041941
0.0419458
0.0419505
0.0419549
0.0419591
0.0419632
0.0419669
0.0419704
0.041974
0.0419775
0.0419806
0.0419831
0.0419858
0.0419892
0.0419923
0.0419943
0.0419956
0.0419971
0.0419998
0.0420032
0.0420053
0.0420063
0.0420062
0.0420061
0.0418369
0.0418488
0.04186
0.0418707
0.0418808
0.0418904
0.0418995
0.0419082
0.0419164
0.0419242
0.0419315
0.0419386
0.0419452
0.0419515
0.0419575
0.0419633
0.0419687
0.0419739
0.0419788
0.0419836
0.041988
0.0419922
0.0419964
0.0420004
0.0420041
0.0420072
0.0420105
0.0420143
0.0420178
0.0420202
0.042022
0.0420242
0.0420281
0.0420315
0.0420336
0.0420348
0.0420355
0.0420368
0.0420389
0.0420419
0.0420446
0.0420465
0.041876
0.0418875
0.0418984
0.0419088
0.0419186
0.0419279
0.0419367
0.0419451
0.0419531
0.0419606
0.0419677
0.0419745
0.041981
0.0419871
0.0419929
0.0419984
0.0420037
0.0420087
0.0420134
0.0420179
0.0420223
0.0420265
0.0420302
0.0420336
0.0420376
0.0420415
0.0420444
0.0420467
0.0420491
0.042053
0.042057
0.0420597
0.0420614
0.0420623
0.0420634
0.0420653
0.0420689
0.042072
0.0420742
0.0420757
0.0420765
0.042077
0.0419124
0.0419235
0.041934
0.0419439
0.0419534
0.0419623
0.0419708
0.0419788
0.0419865
0.0419937
0.0420006
0.0420071
0.0420132
0.0420191
0.0420246
0.0420299
0.042035
0.0420398
0.0420441
0.0420483
0.0420527
0.0420569
0.0420602
0.042063
0.0420663
0.042071
0.0420744
0.0420766
0.0420781
0.04208
0.0420842
0.0420888
0.0420916
0.0420931
0.0420938
0.0420941
0.0420948
0.0420966
0.0421002
0.0421036
0.0421062
0.0421082
0.0419454
0.0419559
0.041966
0.0419754
0.0419844
0.0419929
0.042001
0.0420087
0.0420159
0.0420228
0.0420294
0.0420355
0.0420414
0.042047
0.0420523
0.0420572
0.0420621
0.0420668
0.0420709
0.0420747
0.0420786
0.0420828
0.0420866
0.0420893
0.0420918
0.0420949
0.042099
0.0421026
0.042105
0.0421068
0.0421083
0.0421104
0.0421137
0.0421172
0.0421197
0.0421213
0.0421223
0.0421231
0.0421239
0.0421249
0.0421265
0.042129
0.0419746
0.0419847
0.0419942
0.0420032
0.0420117
0.0420198
0.0420274
0.0420347
0.0420416
0.0420481
0.0420543
0.0420602
0.0420657
0.0420711
0.0420761
0.0420808
0.0420852
0.0420896
0.0420939
0.0420976
0.0421008
0.0421043
0.0421083
0.0421119
0.0421145
0.0421166
0.0421189
0.0421223
0.0421262
0.0421291
0.042131
0.0421323
0.0421335
0.0421352
0.0421378
0.0421409
0.0421435
0.0421452
0.0421463
0.0421472
0.042148
0.0421488
0.0420003
0.0420098
0.0420188
0.0420273
0.0420354
0.0420431
0.0420503
0.0420572
0.0420638
0.0420699
0.0420758
0.0420814
0.0420866
0.0420916
0.0420964
0.0421009
0.0421051
0.0421091
0.0421131
0.0421168
0.0421201
0.0421232
0.0421263
0.0421297
0.0421328
0.0421354
0.0421376
0.0421399
0.0421427
0.0421455
0.0421481
0.0421502
0.0421519
0.0421534
0.0421549
0.0421566
0.0421585
0.0421604
0.0421621
0.0421637
0.042165
0.0421663
0.0420223
0.0420312
0.0420398
0.0420479
0.0420555
0.0420628
0.0420696
0.0420761
0.0420823
0.0420882
0.0420937
0.042099
0.042104
0.0421087
0.0421132
0.0421175
0.0421215
0.0421253
0.0421289
0.0421323
0.0421357
0.0421387
0.0421416
0.0421444
0.0421472
0.0421499
0.0421525
0.0421548
0.0421569
0.042159
0.0421613
0.0421635
0.0421655
0.0421673
0.0421689
0.0421703
0.0421717
0.042173
0.0421744
0.0421758
0.0421772
0.0421787
0.0420406
0.042049
0.0420571
0.0420647
0.0420718
0.0420787
0.0420851
0.0420912
0.042097
0.0421025
0.0421077
0.0421126
0.0421173
0.0421218
0.0421259
0.0421299
0.0421337
0.0421373
0.0421406
0.0421438
0.0421469
0.0421498
0.0421526
0.0421552
0.0421577
0.0421601
0.0421625
0.0421648
0.0421669
0.0421689
0.0421709
0.0421728
0.0421746
0.0421763
0.0421779
0.0421794
0.0421807
0.042182
0.0421832
0.0421844
0.0421856
0.0421868
0.0420555
0.0420635
0.042071
0.0420781
0.0420849
0.0420913
0.0420973
0.042103
0.0421085
0.0421136
0.0421185
0.0421231
0.0421275
0.0421317
0.0421356
0.0421393
0.0421429
0.0421462
0.0421494
0.0421524
0.0421553
0.042158
0.0421606
0.0421631
0.0421655
0.0421677
0.0421699
0.0421721
0.0421741
0.042176
0.0421779
0.0421796
0.0421813
0.0421829
0.0421844
0.0421858
0.0421871
0.0421883
0.0421895
0.0421906
0.0421917
0.0421928
0.0420677
0.0420751
0.0420822
0.0420889
0.0420953
0.0421013
0.042107
0.0421124
0.0421175
0.0421223
0.0421269
0.0421313
0.0421354
0.0421394
0.0421431
0.0421466
0.04215
0.0421531
0.0421561
0.042159
0.0421617
0.0421643
0.0421668
0.0421692
0.0421714
0.0421736
0.0421756
0.0421776
0.0421795
0.0421814
0.0421831
0.0421848
0.0421864
0.0421879
0.0421893
0.0421907
0.0421919
0.0421931
0.0421942
0.0421952
0.0421963
0.0421973
0.0420777
0.0420848
0.0420915
0.0420978
0.0421039
0.0421096
0.042115
0.0421201
0.042125
0.0421296
0.042134
0.0421381
0.0421421
0.0421458
0.0421494
0.0421527
0.0421559
0.042159
0.0421618
0.0421646
0.0421672
0.0421696
0.042172
0.0421742
0.0421764
0.0421784
0.0421804
0.0421823
0.0421841
0.0421858
0.0421875
0.0421891
0.0421906
0.042192
0.0421933
0.0421946
0.0421958
0.0421969
0.0421979
0.0421989
0.0421999
0.0422008
0.0420861
0.0420929
0.0420993
0.0421053
0.0421111
0.0421165
0.0421217
0.0421266
0.0421312
0.0421356
0.0421398
0.0421438
0.0421476
0.0421512
0.0421546
0.0421578
0.0421609
0.0421638
0.0421665
0.0421691
0.0421716
0.042174
0.0421763
0.0421784
0.0421805
0.0421824
0.0421843
0.0421861
0.0421878
0.0421894
0.042191
0.0421925
0.0421939
0.0421953
0.0421965
0.0421977
0.0421989
0.0421999
0.0422009
0.0422019
0.0422028
0.0422037
0.042093
0.0420994
0.0421055
0.0421113
0.0421168
0.042122
0.0421269
0.0421316
0.042136
0.0421402
0.0421442
0.042148
0.0421516
0.042155
0.0421582
0.0421613
0.0421642
0.042167
0.0421696
0.0421721
0.0421745
0.0421768
0.0421789
0.042181
0.0421829
0.0421848
0.0421866
0.0421883
0.0421899
0.0421914
0.0421929
0.0421943
0.0421957
0.042197
0.0421982
0.0421993
0.0422004
0.0422014
0.0422023
0.0422032
0.0422041
0.0422049
0.0420981
0.0421042
0.04211
0.0421155
0.0421207
0.0421256
0.0421303
0.0421347
0.0421389
0.0421429
0.0421467
0.0421503
0.0421537
0.042157
0.0421601
0.042163
0.0421658
0.0421685
0.042171
0.0421734
0.0421757
0.0421778
0.0421799
0.0421818
0.0421837
0.0421855
0.0421872
0.0421888
0.0421903
0.0421918
0.0421932
0.0421945
0.0421958
0.042197
0.0421981
0.0421992
0.0422002
0.0422012
0.042202
0.0422029
0.0422037
0.0422045
0.0421014
0.0421072
0.0421127
0.0421179
0.0421229
0.0421276
0.042132
0.0421362
0.0421403
0.0421441
0.0421477
0.0421511
0.0421544
0.0421575
0.0421605
0.0421633
0.042166
0.0421685
0.0421709
0.0421732
0.0421754
0.0421775
0.0421794
0.0421813
0.0421831
0.0421848
0.0421864
0.0421879
0.0421894
0.0421908
0.0421922
0.0421935
0.0421947
0.0421958
0.0421969
0.042198
0.0421989
0.0421998
0.0422007
0.0422015
0.0422023
0.042203
0.0421033
0.0421089
0.0421141
0.0421191
0.0421239
0.0421284
0.0421327
0.0421367
0.0421406
0.0421442
0.0421477
0.042151
0.0421541
0.0421571
0.04216
0.0421627
0.0421652
0.0421677
0.04217
0.0421722
0.0421743
0.0421763
0.0421781
0.04218
0.0421817
0.0421833
0.0421848
0.0421863
0.0421877
0.042189
0.0421903
0.0421916
0.0421927
0.0421939
0.0421949
0.0421959
0.0421968
0.0421977
0.0421985
0.0421993
0.0422
0.0422008
0.0421043
0.0421096
0.0421147
0.0421195
0.0421241
0.0421284
0.0421326
0.0421365
0.0421402
0.0421437
0.0421471
0.0421503
0.0421533
0.0421562
0.0421589
0.0421615
0.042164
0.0421664
0.0421686
0.0421707
0.0421727
0.0421746
0.0421765
0.0421782
0.0421799
0.0421814
0.0421829
0.0421843
0.0421857
0.042187
0.0421882
0.0421894
0.0421905
0.0421916
0.0421926
0.0421936
0.0421945
0.0421953
0.0421961
0.0421968
0.0421975
0.0421982
0.0421045
0.0421097
0.0421146
0.0421193
0.0421237
0.0421279
0.0421319
0.0421357
0.0421393
0.0421427
0.042146
0.0421491
0.042152
0.0421548
0.0421574
0.04216
0.0421624
0.0421647
0.0421669
0.0421689
0.0421709
0.0421727
0.0421745
0.0421762
0.0421778
0.0421793
0.0421808
0.0421821
0.0421835
0.0421847
0.0421859
0.0421871
0.0421882
0.0421892
0.0421902
0.0421911
0.042192
0.0421928
0.0421935
0.0421942
0.0421949
0.0421956
0.0421041
0.0421091
0.0421139
0.0421184
0.0421227
0.0421268
0.0421306
0.0421343
0.0421378
0.0421412
0.0421443
0.0421474
0.0421502
0.0421529
0.0421555
0.042158
0.0421603
0.0421626
0.0421647
0.0421667
0.0421686
0.0421704
0.0421721
0.0421738
0.0421753
0.0421768
0.0421783
0.0421796
0.0421809
0.0421821
0.0421833
0.0421844
0.0421855
0.0421865
0.0421875
0.0421884
0.0421892
0.04219
0.0421907
0.0421914
0.0421921
0.0421927
0.0421037
0.0421085
0.0421131
0.0421175
0.0421216
0.0421256
0.0421294
0.0421329
0.0421363
0.0421396
0.0421426
0.0421456
0.0421483
0.042151
0.0421535
0.0421559
0.0421581
0.0421603
0.0421623
0.0421643
0.0421661
0.0421679
0.0421696
0.0421712
0.0421727
0.0421741
0.0421755
0.0421768
0.0421781
0.0421793
0.0421804
0.0421815
0.0421825
0.0421835
0.0421845
0.0421853
0.0421861
0.0421869
0.0421876
0.0421883
0.042189
0.0421896
0.0421036
0.0421083
0.0421127
0.0421169
0.0421209
0.0421247
0.0421283
0.0421318
0.0421351
0.0421382
0.0421412
0.042144
0.0421467
0.0421493
0.0421518
0.0421541
0.0421563
0.0421584
0.0421604
0.0421623
0.0421641
0.0421658
0.0421674
0.0421689
0.0421704
0.0421718
0.0421731
0.0421744
0.0421756
0.0421768
0.0421779
0.042179
0.04218
0.0421809
0.0421818
0.0421826
0.0421834
0.0421841
0.0421848
0.0421855
0.0421861
0.0421867
0.0421045
0.042109
0.0421133
0.0421173
0.0421212
0.0421248
0.0421283
0.0421316
0.0421347
0.0421376
0.0421404
0.0421431
0.0421456
0.042148
0.0421503
0.0421525
0.0421546
0.0421566
0.0421585
0.0421603
0.042162
0.0421636
0.0421652
0.0421667
0.0421681
0.0421694
0.0421707
0.0421719
0.042173
0.0421741
0.0421752
0.0421762
0.0421771
0.042178
0.0421789
0.0421797
0.0421805
0.0421812
0.0421818
0.0421825
0.0421831
0.0421837
0.0421063
0.0421106
0.0421146
0.0421185
0.0421222
0.0421257
0.042129
0.0421321
0.0421351
0.0421379
0.0421406
0.0421431
0.0421455
0.0421479
0.04215
0.0421521
0.0421541
0.0421559
0.0421577
0.0421594
0.0421611
0.0421626
0.0421641
0.0421655
0.0421668
0.0421681
0.0421693
0.0421704
0.0421715
0.0421726
0.0421736
0.0421745
0.0421755
0.0421763
0.0421771
0.0421779
0.0421787
0.0421793
0.04218
0.0421806
0.0421812
0.0421818
0.0421094
0.0421134
0.0421173
0.042121
0.0421245
0.0421278
0.0421309
0.0421339
0.0421367
0.0421394
0.042142
0.0421444
0.0421467
0.0421489
0.042151
0.0421529
0.0421548
0.0421566
0.0421583
0.0421599
0.0421614
0.0421629
0.0421643
0.0421656
0.0421668
0.042168
0.0421692
0.0421702
0.0421713
0.0421723
0.0421732
0.0421741
0.0421749
0.0421757
0.0421765
0.0421772
0.0421779
0.0421785
0.0421791
0.0421797
0.0421803
0.0421808
0.0421132
0.0421171
0.0421207
0.0421242
0.0421275
0.0421306
0.0421335
0.0421363
0.042139
0.0421415
0.0421439
0.0421461
0.0421483
0.0421504
0.0421523
0.0421542
0.042156
0.0421576
0.0421593
0.0421608
0.0421622
0.0421636
0.0421649
0.0421661
0.0421673
0.0421684
0.0421695
0.0421706
0.0421715
0.0421725
0.0421734
0.0421742
0.042175
0.0421758
0.0421765
0.0421772
0.0421779
0.0421785
0.042179
0.0421796
0.0421801
0.0421807
0.0421169
0.0421203
0.0421236
0.0421267
0.0421296
0.0421324
0.0421351
0.0421376
0.04214
0.0421423
0.0421445
0.0421466
0.0421486
0.0421505
0.0421523
0.042154
0.0421557
0.0421573
0.0421588
0.0421603
0.0421617
0.042163
0.0421643
0.0421655
0.0421666
0.0421677
0.0421688
0.0421698
0.0421707
0.0421717
0.0421725
0.0421734
0.0421742
0.0421749
0.0421756
0.0421763
0.042177
0.0421776
0.0421781
0.0421787
0.0421792
0.0421797
0.0421181
0.0421214
0.0421245
0.0421275
0.0421304
0.0421332
0.0421358
0.0421384
0.0421408
0.0421431
0.0421453
0.0421473
0.0421493
0.0421512
0.042153
0.0421546
0.0421562
0.0421578
0.0421592
0.0421605
0.0421618
0.0421631
0.0421642
0.0421653
0.0421664
0.0421674
0.0421684
0.0421693
0.0421701
0.0421709
0.0421717
0.0421725
0.0421732
0.0421738
0.0421744
0.042175
0.0421756
0.0421762
0.0421767
0.0421772
0.0421777
0.0421781
0.0421202
0.0421232
0.042126
0.0421287
0.0421313
0.0421337
0.042136
0.0421382
0.0421403
0.0421423
0.0421441
0.0421459
0.0421476
0.0421492
0.0421507
0.0421521
0.0421534
0.0421546
0.0421558
0.0421569
0.042158
0.042159
0.0421599
0.0421608
0.0421617
0.0421625
0.0421632
0.042164
0.0421646
0.0421653
0.0421659
0.0421665
0.042167
0.0421675
0.0421681
0.0421685
0.042169
0.0421694
0.0421699
0.0421703
0.0421707
0.0421711
0.0421218
0.0421245
0.042127
0.0421294
0.0421316
0.0421337
0.0421357
0.0421376
0.0421393
0.042141
0.0421425
0.042144
0.0421454
0.0421467
0.0421479
0.042149
0.0421501
0.0421511
0.0421521
0.042153
0.0421539
0.0421547
0.0421555
0.0421562
0.0421569
0.0421576
0.0421582
0.0421588
0.0421594
0.0421599
0.0421604
0.0421609
0.0421614
0.0421618
0.0421623
0.0421627
0.042163
0.0421634
0.0421638
0.0421641
0.0421645
0.0421648
0.0421213
0.0421233
0.0421251
0.0421268
0.0421285
0.04213
0.0421315
0.0421329
0.0421342
0.0421354
0.0421366
0.0421377
0.0421388
0.0421398
0.0421408
0.0421418
0.0421427
0.0421436
0.0421444
0.0421452
0.0421459
0.0421466
0.0421473
0.0421479
0.0421485
0.0421491
0.0421496
0.0421501
0.0421506
0.0421511
0.0421515
0.0421519
0.0421524
0.0421527
0.0421531
0.0421535
0.0421538
0.0421541
0.0421544
0.0421547
0.042155
0.0421553
0.042122
0.0421237
0.0421253
0.0421268
0.0421282
0.0421296
0.0421309
0.0421322
0.0421334
0.0421345
0.0421355
0.0421365
0.0421374
0.0421383
0.0421391
0.0421399
0.0421406
0.0421413
0.0421419
0.0421425
0.0421431
0.0421437
0.0421442
0.0421446
0.0421451
0.0421455
0.0421459
0.0421463
0.0421466
0.042147
0.0421473
0.0421476
0.0421479
0.0421481
0.0421483
0.0421486
0.0421488
0.042149
0.0421492
0.0421494
0.0421495
0.0421497
0.0421256
0.0421271
0.0421285
0.0421298
0.042131
0.0421321
0.0421332
0.0421342
0.0421351
0.042136
0.0421368
0.0421375
0.0421381
0.0421386
0.0421391
0.0421396
0.04214
0.0421404
0.0421408
0.0421411
0.0421415
0.0421418
0.0421421
0.0421424
0.0421427
0.042143
0.0421432
0.0421434
0.0421436
0.0421438
0.042144
0.0421442
0.0421443
0.0421445
0.0421446
0.0421448
0.0421449
0.042145
0.0421451
0.0421453
0.0421454
0.0421455
0.0421318
0.0421329
0.0421339
0.0421349
0.0421357
0.0421365
0.0421372
0.0421379
0.0421386
0.0421391
0.0421397
0.0421401
0.0421405
0.0421408
0.0421411
0.0421414
0.0421417
0.042142
0.0421423
0.0421426
0.0421429
0.0421431
0.0421434
0.0421437
0.042144
0.0421442
0.0421444
0.0421446
0.0421448
0.0421449
0.0421451
0.0421453
0.0421454
0.0421455
0.0421457
0.0421458
0.0421459
0.042146
0.0421461
0.0421462
0.0421464
0.0421465
0.0421408
0.0421417
0.0421425
0.0421432
0.042144
0.0421447
0.0421454
0.042146
0.0421467
0.0421473
0.0421478
0.0421483
0.0421487
0.0421491
0.0421494
0.0421497
0.04215
0.0421503
0.0421505
0.0421508
0.042151
0.0421512
0.0421514
0.0421516
0.0421518
0.042152
0.0421521
0.0421522
0.0421523
0.0421524
0.0421525
0.0421526
0.0421527
0.0421527
0.0421528
0.0421528
0.0421529
0.0421529
0.042153
0.042153
0.0421531
0.0421531
0.0421547
0.0421556
0.0421563
0.0421571
0.0421577
0.0421584
0.042159
0.0421595
0.04216
0.0421605
0.0421609
0.0421613
0.0421616
0.0421618
0.0421621
0.0421623
0.0421624
0.0421626
0.0421627
0.0421628
0.0421629
0.042163
0.0421631
0.0421631
0.0421632
0.0421633
0.0421633
0.0421634
0.0421634
0.0421634
0.0421635
0.0421635
0.0421636
0.0421636
0.0421636
0.0421637
0.0421637
0.0421637
0.0421638
0.0421638
0.0421638
0.0421638
0.0421721
0.0421728
0.0421734
0.0421738
0.0421742
0.0421746
0.0421749
0.0421752
0.0421755
0.0421758
0.042176
0.0421762
0.0421765
0.0421767
0.0421769
0.0421771
0.0421774
0.0421776
0.0421778
0.042178
0.0421782
0.0421783
0.0421785
0.0421787
0.0421789
0.042179
0.0421792
0.0421794
0.0421795
0.0421797
0.0421798
0.04218
0.0421801
0.0421802
0.0421804
0.0421805
0.0421806
0.0421807
0.0421808
0.0421809
0.042181
0.0421811
0.0421901
0.0421907
0.0421912
0.0421916
0.042192
0.0421923
0.0421926
0.0421928
0.0421931
0.0421934
0.0421937
0.0421939
0.0421942
0.0421945
0.0421948
0.0421951
0.0421954
0.0421956
0.0421959
0.0421962
0.0421965
0.0421967
0.042197
0.0421972
0.0421974
0.0421977
0.0421979
0.0421981
0.0421983
0.0421985
0.0421987
0.0421988
0.042199
0.0421992
0.0421993
0.0421994
0.0421996
0.0421997
0.0421998
0.0421999
0.0422
0.0422001
0.0422081
0.0422088
0.0422094
0.04221
0.0422104
0.0422109
0.0422113
0.0422117
0.042212
0.0422124
0.0422127
0.042213
0.0422133
0.0422136
0.0422138
0.0422141
0.0422143
0.0422146
0.0422148
0.042215
0.0422153
0.0422155
0.0422157
0.0422159
0.042216
0.0422162
0.0422164
0.0422166
0.0422167
0.0422169
0.0422171
0.0422172
0.0422173
0.0422175
0.0422175
0.0422176
0.0422178
0.0422178
0.0422179
0.042218
0.0422181
0.0422182
0.0422256
0.0422263
0.042227
0.0422277
0.0422283
0.0422288
0.0422293
0.0422298
0.0422302
0.0422305
0.0422309
0.0422312
0.0422315
0.0422317
0.042232
0.0422322
0.0422324
0.0422326
0.0422328
0.0422329
0.0422331
0.0422332
0.0422334
0.0422335
0.0422337
0.0422338
0.0422339
0.042234
0.0422341
0.0422342
0.0422344
0.0422344
0.0422345
0.0422346
0.0422347
0.0422348
0.0422349
0.0422349
0.042235
0.0422351
0.0422351
0.0422352
0.0422422
0.0422429
0.0422435
0.0422441
0.0422447
0.0422452
0.0422456
0.0422461
0.0422465
0.0422468
0.0422471
0.0422474
0.0422477
0.0422479
0.0422482
0.0422484
0.0422486
0.0422487
0.0422489
0.0422491
0.0422492
0.0422493
0.0422494
0.0422496
0.0422497
0.0422498
0.0422499
0.04225
0.0422501
0.0422501
0.0422502
0.0422503
0.0422504
0.0422505
0.0422505
0.0422506
0.0422506
0.0422507
0.0422508
0.0422508
0.0422509
0.0422509
0.0422578
0.0422582
0.0422587
0.0422591
0.0422595
0.0422599
0.0422602
0.0422605
0.0422608
0.0422611
0.0422614
0.0422616
0.0422618
0.042262
0.0422622
0.0422624
0.0422625
0.0422627
0.0422628
0.0422629
0.042263
0.0422632
0.0422633
0.0422634
0.0422634
0.0422635
0.0422636
0.0422637
0.0422638
0.0422638
0.0422639
0.0422639
0.042264
0.0422641
0.0422641
0.0422642
0.0422642
0.0422643
0.0422643
0.0422643
0.0422644
0.0422644
0.0422719
0.0422722
0.0422724
0.0422727
0.0422729
0.0422731
0.0422733
0.0422734
0.0422736
0.0422737
0.0422739
0.042274
0.0422741
0.0422742
0.0422743
0.0422744
0.0422745
0.0422746
0.0422747
0.0422747
0.0422748
0.0422749
0.0422749
0.042275
0.042275
0.0422751
0.0422751
0.0422752
0.0422752
0.0422752
0.0422753
0.0422753
0.0422753
0.0422754
0.0422754
0.0422754
0.0422754
0.0422755
0.0422755
0.0422755
0.0422755
0.0422755
0.0422848
0.0422848
0.0422848
0.0422848
0.0422849
0.0422849
0.0422849
0.0422848
0.0422848
0.0422848
0.0422848
0.0422848
0.0422848
0.0422848
0.0422848
0.0422848
0.0422848
0.0422847
0.0422847
0.0422847
0.0422847
0.0422847
0.0422847
0.0422846
0.0422846
0.0422846
0.0422846
0.0422846
0.0422846
0.0422846
0.0422845
0.0422845
0.0422845
0.0422845
0.0422845
0.0422845
0.0422845
0.0422845
0.0422845
0.0422845
0.0422844
0.0422844
0.0422965
0.0422963
0.0422961
0.0422958
0.0422956
0.0422954
0.0422952
0.042295
0.0422948
0.0422946
0.0422944
0.0422943
0.0422941
0.0422939
0.0422938
0.0422937
0.0422935
0.0422934
0.0422933
0.0422932
0.042293
0.0422929
0.0422928
0.0422927
0.0422927
0.0422926
0.0422925
0.0422924
0.0422923
0.0422923
0.0422922
0.0422921
0.0422921
0.042292
0.042292
0.0422919
0.0422919
0.0422918
0.0422918
0.0422917
0.0422917
0.0422917
0.0423072
0.0423068
0.0423063
0.0423058
0.0423054
0.0423049
0.0423045
0.0423041
0.0423037
0.0423034
0.042303
0.0423027
0.0423024
0.0423021
0.0423018
0.0423015
0.0423013
0.042301
0.0423008
0.0423005
0.0423003
0.0423001
0.0422999
0.0422997
0.0422996
0.0422994
0.0422992
0.0422991
0.042299
0.0422988
0.0422987
0.0422986
0.0422984
0.0422983
0.0422982
0.0422981
0.042298
0.0422979
0.0422979
0.0422978
0.0422977
0.0422976
0.0423172
0.0423164
0.0423157
0.042315
0.0423143
0.0423137
0.042313
0.0423124
0.0423119
0.0423113
0.0423108
0.0423103
0.0423098
0.0423094
0.0423089
0.0423085
0.0423081
0.0423077
0.0423074
0.042307
0.0423067
0.0423064
0.0423061
0.0423058
0.0423056
0.0423053
0.0423051
0.0423049
0.0423046
0.0423044
0.0423042
0.0423041
0.0423039
0.0423037
0.0423036
0.0423034
0.0423033
0.0423031
0.042303
0.0423029
0.0423028
0.0423027
0.0423261
0.0423251
0.0423242
0.0423232
0.0423223
0.0423215
0.0423206
0.0423199
0.0423191
0.0423184
0.0423177
0.042317
0.0423164
0.0423158
0.0423152
0.0423147
0.0423142
0.0423137
0.0423132
0.0423128
0.0423123
0.0423119
0.0423116
0.0423112
0.0423108
0.0423105
0.0423102
0.0423099
0.0423096
0.0423093
0.0423091
0.0423088
0.0423086
0.0423084
0.0423082
0.042308
0.0423078
0.0423076
0.0423074
0.0423073
0.0423071
0.042307
0.042334
0.0423327
0.0423315
0.0423304
0.0423292
0.0423282
0.0423271
0.0423262
0.0423252
0.0423243
0.0423235
0.0423227
0.0423219
0.0423211
0.0423204
0.0423198
0.0423191
0.0423185
0.0423179
0.0423174
0.0423168
0.0423163
0.0423159
0.0423154
0.042315
0.0423146
0.0423142
0.0423138
0.0423135
0.0423131
0.0423128
0.0423125
0.0423122
0.0423119
0.0423117
0.0423114
0.0423112
0.042311
0.0423108
0.0423106
0.0423104
0.0423102
0.0423404
0.0423389
0.0423374
0.042336
0.0423347
0.0423334
0.0423322
0.042331
0.0423299
0.0423288
0.0423278
0.0423269
0.0423259
0.0423251
0.0423242
0.0423234
0.0423227
0.042322
0.0423213
0.0423206
0.04232
0.0423194
0.0423189
0.0423183
0.0423178
0.0423173
0.0423169
0.0423164
0.042316
0.0423156
0.0423152
0.0423149
0.0423145
0.0423142
0.0423139
0.0423136
0.0423133
0.0423131
0.0423128
0.0423126
0.0423123
0.0423121
0.0423456
0.0423438
0.0423421
0.0423405
0.042339
0.0423375
0.0423361
0.0423347
0.0423335
0.0423322
0.0423311
0.0423299
0.0423289
0.0423279
0.0423269
0.042326
0.0423251
0.0423243
0.0423235
0.0423227
0.042322
0.0423213
0.0423207
0.0423201
0.0423195
0.0423189
0.0423184
0.0423179
0.0423174
0.0423169
0.0423165
0.0423161
0.0423157
0.0423153
0.0423149
0.0423146
0.0423143
0.042314
0.0423137
0.0423134
0.0423131
0.0423129
0.0423501
0.0423481
0.0423462
0.0423443
0.0423426
0.0423409
0.0423393
0.0423378
0.0423363
0.0423349
0.0423336
0.0423323
0.0423311
0.04233
0.0423289
0.0423279
0.0423269
0.0423259
0.042325
0.0423242
0.0423234
0.0423226
0.0423219
0.0423212
0.0423205
0.0423199
0.0423193
0.0423187
0.0423182
0.0423177
0.0423172
0.0423167
0.0423163
0.0423158
0.0423154
0.0423151
0.0423147
0.0423143
0.042314
0.0423137
0.0423134
0.0423131
0.0423541
0.0423519
0.0423498
0.0423477
0.0423458
0.0423439
0.0423421
0.0423404
0.0423388
0.0423373
0.0423358
0.0423344
0.0423331
0.0423318
0.0423306
0.0423294
0.0423283
0.0423273
0.0423263
0.0423253
0.0423244
0.0423236
0.0423228
0.042322
0.0423213
0.0423205
0.0423199
0.0423192
0.0423186
0.0423181
0.0423175
0.042317
0.0423165
0.042316
0.0423156
0.0423152
0.0423148
0.0423144
0.042314
0.0423136
0.0423133
0.042313
0.0423573
0.0423549
0.0423525
0.0423503
0.0423482
0.0423461
0.0423442
0.0423423
0.0423405
0.0423389
0.0423372
0.0423357
0.0423343
0.0423329
0.0423316
0.0423303
0.0423291
0.042328
0.0423269
0.0423259
0.0423249
0.0423239
0.042323
0.0423222
0.0423214
0.0423206
0.0423199
0.0423192
0.0423185
0.0423179
0.0423173
0.0423168
0.0423162
0.0423157
0.0423152
0.0423147
0.0423143
0.0423139
0.0423135
0.0423131
0.0423127
0.0423123
0.0423591
0.0423564
0.0423539
0.0423515
0.0423492
0.042347
0.0423449
0.0423429
0.042341
0.0423392
0.0423375
0.0423358
0.0423343
0.0423328
0.0423313
0.04233
0.0423287
0.0423275
0.0423263
0.0423252
0.0423242
0.0423232
0.0423222
0.0423213
0.0423204
0.0423196
0.0423188
0.0423181
0.0423174
0.0423167
0.0423161
0.0423155
0.0423149
0.0423143
0.0423138
0.0423133
0.0423128
0.0423124
0.0423119
0.0423115
0.0423111
0.0423107
0.0423593