/*--------------------------------*- C++ -*----------------------------------*\
| =========                 |                                                 |
| \\      /  F ield         | OpenFOAM: The Open Source CFD Toolbox           |
|  \\    /   O peration     | Version:  2406                                  |
|   \\  /    A nd           | Website:  www.openfoam.com                      |
|    \\/     M anipulation  |                                                 |
\*---------------------------------------------------------------------------*/
FoamFile
{
    version     2.0;
    format      ascii;
    arch        "LSB;label=32;scalar=64";
    class       volScalarField;
    location    "0.054";
    object      p;
}
// * * * * * * * * * * * * * * * * * * * * * * * * * * * * * * * * * * * * * //

dimensions      [1 -1 -2 0 0 0 0];

internalField   nonuniform List<scalar> 
78650
(
3737.92
2880.34
2816.12
2802
2789.09
2780.73
2773.3
2768.05
2764.24
2761.52
2759.26
2757.27
2755.4
2753.33
2750.77
2747.56
2743.71
2739.56
2735.62
2732.4
2730.14
2728.79
2728.01
2727.42
2726.66
2725.65
2724.46
2723.03
2721.42
2719.71
2717.99
2716.27
2714.56
2712.84
2711.13
2709.44
2707.77
2706.13
2704.52
2702.92
2701.33
2699.75
2698.15
2696.53
2694.88
2693.17
2691.4
2689.55
2687.58
2685.48
2683.21
2680.73
2678.03
2675.06
2671.77
2668.11
2664.05
2659.54
2654.52
2648.92
2642.69
2635.74
2628.03
2619.5
2610.09
2599.71
2588.3
2575.76
2561.98
2546.91
2530.46
2512.57
2493.2
2472.22
2449.54
2425.15
2398.99
2371.05
2341.39
2309.97
2276.86
2242.13
2205.6
2167.43
2127.47
2085.96
2042.91
1999.07
1955.6
1910.74
1865.55
1820.19
1775.3
1731.65
1688.62
1645.86
1604.99
1565.64
1525.74
1486.15
1449.83
1415.86
1385.41
1358.38
1332.45
1306.12
1280.87
1257.38
1237.27
1218.37
1200.24
1182.72
1166.59
1152.18
1139.72
1128.73
1118.52
1108.62
1098.88
1090.43
1073.14
3715.25
2878.12
2819.92
2805.58
2791.62
2782.77
2775.62
2770.87
2767.53
2765.06
2762.91
2760.99
2759.15
2757.11
2754.6
2751.42
2747.52
2743.14
2738.72
2734.86
2732
2730.27
2729.44
2729.09
2728.75
2728.29
2727.67
2726.75
2725.51
2724.08
2722.57
2721.06
2719.56
2718.08
2716.62
2715.19
2713.8
2712.45
2711.15
2709.87
2708.62
2707.39
2706.15
2704.91
2703.65
2702.36
2701.03
2699.63
2698.14
2696.55
2694.81
2692.9
2690.8
2688.46
2685.85
2682.93
2679.64
2675.95
2671.81
2667.16
2661.93
2656.06
2649.5
2642.19
2634.07
2625.07
2615.12
2604.14
2592.02
2578.7
2564.07
2548.05
2530.62
2511.68
2491.19
2469.1
2445.23
2419.51
2391.95
2362.52
2331.29
2298.33
2263.53
2227.26
2189.49
2150.64
2110.71
2069.15
2026.21
1981.91
1936.16
1891.28
1846.52
1800.5
1756.09
1713.02
1670.35
1629.73
1591.55
1553.58
1517.04
1482.12
1446.95
1413.06
1381.89
1353.3
1328.3
1304.68
1282.39
1260.76
1240.33
1221.04
1202.91
1186.31
1171.23
1156.78
1142.67
1129.15
1117.23
1106.58
1086.4
3695.95
2872.72
2822.5
2808.56
2794.2
2785.14
2778.43
2774.2
2771.3
2768.95
2766.83
2764.86
2762.95
2760.89
2758.4
2755.25
2751.38
2746.91
2742.22
2737.86
2734.36
2732.09
2731
2730.71
2730.65
2730.67
2730.64
2730.33
2729.6
2728.55
2727.32
2726.04
2724.76
2723.5
2722.28
2721.11
2719.99
2718.93
2717.92
2716.97
2716.05
2715.15
2714.28
2713.42
2712.55
2711.68
2710.78
2709.83
2708.82
2707.72
2706.52
2705.17
2703.66
2701.95
2700.01
2697.79
2695.26
2692.37
2689.07
2685.33
2681.07
2676.24
2670.77
2664.61
2657.72
2650.01
2641.45
2631.92
2621.33
2609.63
2596.71
2582.51
2567.01
2550.06
2531.6
2511.53
2489.73
2466.2
2440.95
2413.95
2385.26
2354.85
2322.64
2288.76
2253.03
2215.77
2176.71
2136.32
2094.42
2051.81
2008.9
1964.46
1920.63
1874.83
1828.76
1783.88
1740.81
1697.21
1654.61
1613.6
1573.7
1536.11
1500.24
1465.56
1433.04
1401.55
1372.36
1344.15
1318.02
1293.3
1270.2
1248.71
1229.07
1211
1194.51
1179.7
1166.35
1154.37
1143.33
1133.25
1113.72
3677.98
2867.79
2822.43
2809.97
2796.61
2788.02
2781.83
2778.07
2775.47
2773.22
2771.05
2768.94
2766.87
2764.7
2762.18
2759.07
2755.26
2750.83
2746.04
2741.36
2737.33
2734.43
2732.88
2732.45
2732.51
2732.85
2733.34
2733.65
2733.54
2733.02
2732.19
2731.2
2730.15
2729.12
2728.14
2727.21
2726.35
2725.56
2724.85
2724.19
2723.59
2723.03
2722.51
2722.01
2721.52
2721.04
2720.56
2720.05
2719.5
2718.88
2718.19
2717.38
2716.44
2715.33
2714.03
2712.5
2710.69
2708.57
2706.1
2703.24
2699.92
2696.09
2691.69
2686.68
2680.99
2674.58
2667.38
2659.31
2650.28
2640.25
2629.09
2616.73
2603.1
2588.09
2571.68
2553.8
2534.33
2513.22
2490.4
2465.76
2439.34
2411.07
2380.88
2348.92
2315.17
2279.94
2243.07
2205.07
2165.55
2124.23
2081.86
2037.25
1991.43
1946.34
1901.01
1855.28
1810.56
1766.17
1722.09
1679.29
1637.16
1596.32
1556.65
1517.83
1482.11
1447.82
1415.8
1385.57
1356.61
1329.12
1303.97
1280.22
1257.94
1236.1
1214.73
1195.18
1177.98
1163.03
1150.2
1139.38
1116.54
3659.67
2863.83
2821.47
2810.9
2799.36
2791.73
2786.24
2782.78
2780.19
2777.86
2775.53
2773.16
2770.84
2768.52
2765.95
2762.86
2759.12
2754.78
2750.03
2745.25
2740.88
2737.44
2735.31
2734.55
2734.56
2735
2735.88
2736.82
2737.32
2737.39
2737.1
2736.52
2735.79
2735.02
2734.27
2733.58
2732.97
2732.44
2732.01
2731.65
2731.36
2731.13
2730.95
2730.81
2730.7
2730.62
2730.54
2730.46
2730.36
2730.23
2730.04
2729.76
2729.38
2728.87
2728.2
2727.33
2726.24
2724.88
2723.2
2721.19
2718.78
2715.92
2712.55
2708.63
2704.09
2698.9
2693
2686.3
2678.74
2670.25
2660.7
2650.05
2638.25
2625.18
2610.83
2595.08
2577.78
2558.89
2538.32
2516.03
2492.07
2466.39
2438.92
2409.7
2378.62
2345.74
2310.92
2274.52
2236.11
2196.43
2155.23
2113.31
2070.03
2025.44
1980.51
1933.92
1887.77
1841.49
1796.55
1752.98
1710.41
1667.96
1627.84
1586.89
1548.54
1511.16
1474.6
1440.14
1408.11
1378.59
1351.42
1325.8
1301.96
1278.86
1256.6
1235.32
1215.08
1196.11
1179.41
1164.23
1136.69
3637.02
2859.27
2820.86
2812.31
2802.99
2796.71
2791.74
2788.25
2785.38
2782.85
2780.28
2777.57
2774.89
2772.32
2769.65
2766.6
2762.97
2758.75
2754.13
2749.4
2744.94
2741.14
2738.47
2737.21
2737.01
2737.36
2738.35
2739.75
2740.91
2741.6
2741.89
2741.84
2741.55
2741.11
2740.63
2740.19
2739.82
2739.55
2739.39
2739.32
2739.33
2739.42
2739.57
2739.77
2740.03
2740.32
2740.65
2740.98
2741.33
2741.65
2741.94
2742.18
2742.33
2742.4
2742.34
2742.11
2741.71
2741.08
2740.17
2738.98
2737.45
2735.52
2733.16
2730.3
2726.9
2722.92
2718.3
2712.97
2706.87
2699.93
2692.04
2683.17
2673.22
2662.08
2649.7
2636
2620.87
2604.27
2586.12
2566.32
2544.86
2521.62
2496.53
2469.57
2440.71
2410.03
2377.58
2343.58
2307.76
2270.6
2231.59
2191.04
2149.14
2105.1
2060.62
2014.1
1968.29
1923.01
1877.06
1830.67
1785.67
1740.32
1697.33
1654.76
1612.84
1573.6
1535.1
1498.69
1463.9
1431.11
1400.95
1371.66
1344.2
1318
1293.8
1271.92
1251.62
1232.74
1216.08
1201.72
1173.52
3609.88
2853.76
2820.43
2814.28
2807.33
2802.14
2797.57
2793.96
2790.88
2788.17
2785.31
2782.18
2779.03
2776.07
2773.21
2770.17
2766.68
2762.66
2758.22
2753.65
2749.27
2745.39
2742.38
2740.61
2740.09
2740.24
2741.08
2742.66
2744.3
2745.63
2746.58
2747.12
2747.33
2747.33
2747.21
2747.06
2746.96
2746.94
2747.04
2747.25
2747.56
2747.95
2748.43
2748.97
2749.59
2750.25
2750.97
2751.72
2752.49
2753.27
2754.05
2754.79
2755.48
2756.1
2756.63
2757.04
2757.29
2757.37
2757.23
2756.83
2756.16
2755.14
2753.73
2751.9
2749.58
2746.74
2743.34
2739.29
2734.56
2729.07
2722.72
2715.47
2707.23
2697.9
2687.45
2675.81
2662.85
2648.54
2632.72
2615.29
2596.28
2575.6
2553.22
2529.1
2503.12
2475.27
2445.55
2413.94
2380.26
2344.9
2307.54
2268.92
2228.52
2186.96
2143.85
2099.54
2054.14
2008.27
1961.99
1914.35
1868.37
1822.31
1776.66
1732.52
1688.35
1646.48
1604.73
1564.87
1526.08
1488.67
1453.86
1420.15
1388.74
1359.21
1332.28
1307.33
1283.72
1261.48
1241.48
1224.73
1190.54
3580.23
2848.36
2820.06
2815.61
2810.43
2806.37
2802.34
2798.68
2795.87
2793.19
2790.23
2786.88
2783.36
2780
2776.85
2773.71
2770.33
2766.51
2762.3
2757.95
2753.77
2750
2746.91
2744.79
2743.88
2743.79
2744.34
2745.83
2747.68
2749.46
2751.01
2752.19
2753.02
2753.54
2753.85
2754.07
2754.28
2754.54
2754.9
2755.37
2755.96
2756.66
2757.45
2758.33
2759.29
2760.31
2761.41
2762.55
2763.74
2764.96
2766.19
2767.42
2768.62
2769.78
2770.89
2771.9
2772.8
2773.54
2774.12
2774.49
2774.63
2774.5
2774.03
2773.2
2771.94
2770.22
2768.01
2765.24
2761.86
2757.81
2753.01
2747.4
2740.9
2733.42
2724.92
2715.28
2704.42
2692.29
2678.75
2663.74
2647.25
2629.15
2609.36
2587.81
2564.36
2539.06
2511.95
2483.02
2452.19
2419.66
2385.16
2349.11
2311
2271.34
2229.68
2186.41
2142.12
2096.63
2050.95
2004.08
1957.13
1910.71
1863.99
1818.31
1771.63
1727.69
1684.66
1642.75
1602.5
1562.33
1524.78
1488.3
1453.77
1420.6
1389.59
1360.71
1333.48
1306.91
1281.29
1258.86
1215.55
3550.14
2843.28
2818.48
2815.46
2811.44
2808.23
2804.87
2801.85
2798.95
2796.28
2793.46
2790.31
2786.96
2783.66
2780.52
2777.36
2774.06
2770.42
2766.42
2762.27
2758.31
2754.76
2751.81
2749.6
2748.42
2748.09
2748.38
2749.58
2751.35
2753.33
2755.3
2757.06
2758.5
2759.62
2760.46
2761.13
2761.72
2762.31
2762.97
2763.72
2764.59
2765.58
2766.68
2767.88
2769.17
2770.55
2772.02
2773.55
2775.15
2776.8
2778.48
2780.18
2781.89
2783.58
2785.23
2786.84
2788.36
2789.78
2791.07
2792.18
2793.09
2793.78
2794.2
2794.33
2794.08
2793.45
2792.38
2790.79
2788.69
2785.98
2782.61
2778.52
2773.63
2767.87
2761.17
2753.45
2744.63
2734.67
2723.43
2710.82
2696.8
2681.23
2664.11
2645.37
2624.87
2602.59
2578.48
2552.44
2524.41
2494.42
2462.34
2428.49
2392.64
2355.21
2315.69
2274.85
2232.43
2188.8
2143.9
2097.82
2050.63
2003.69
1955.22
1908.11
1859.95
1811.75
1766.76
1721.59
1678.36
1635.17
1594.4
1555.6
1519.42
1485.23
1452.36
1421.15
1392.48
1365.59
1340.31
1316.93
1269.37
3520.58
2837.56
2817.26
2815.02
2811.31
2808.3
2805.17
2802.44
2799.97
2797.46
2794.72
2791.74
2788.77
2786.06
2783.53
2780.86
2777.99
2774.64
2770.83
2766.83
2763
2759.63
2756.89
2754.81
2753.55
2753.07
2753.19
2754.08
2755.61
2757.52
2759.66
2761.78
2763.74
2765.44
2766.87
2768.07
2769.13
2770.11
2771.11
2772.17
2773.34
2774.62
2776.01
2777.52
2779.14
2780.86
2782.68
2784.59
2786.57
2788.63
2790.74
2792.9
2795.08
2797.28
2799.47
2801.64
2803.76
2805.81
2807.77
2809.59
2811.27
2812.77
2814.05
2815.06
2815.78
2816.17
2816.24
2815.82
2814.99
2813.62
2811.65
2809.08
2805.79
2801.73
2796.85
2791.04
2784.23
2776.37
2767.32
2757.02
2745.4
2732.35
2717.87
2701.83
2684.07
2664.55
2643.23
2620.06
2595.05
2568.15
2539.23
2508.48
2475.73
2441.17
2404.35
2365.83
2325.14
2282.99
2239.35
2194.54
2148.76
2102
2054.43
2005.93
1958.71
1909.15
1862.03
1814.35
1768.97
1722.36
1676.75
1632.63
1590.21
1550.56
1511.74
1474.63
1440.38
1409.79
1383.83
1361.86
1317.06
3494.31
2835.19
2817.4
2814.49
2809.86
2806.7
2803.88
2801.49
2799.23
2796.89
2794.35
2791.62
2788.98
2786.69
2784.73
2783
2781.17
2778.7
2775.45
2771.72
2767.99
2764.69
2762.09
2760.21
2759.04
2758.56
2758.64
2759.36
2760.61
2762.32
2764.38
2766.63
2768.9
2771.06
2773.03
2774.79
2776.37
2777.83
2779.24
2780.67
2782.16
2783.75
2785.45
2787.27
2789.21
2791.26
2793.42
2795.69
2798.06
2800.52
2803.05
2805.65
2808.3
2810.99
2813.69
2816.41
2819.11
2821.78
2824.38
2826.9
2829.3
2831.57
2833.67
2835.56
2837.22
2838.58
2839.63
2840.34
2840.65
2840.57
2839.92
2838.76
2836.96
2834.49
2831.28
2827.24
2822.33
2816.47
2809.57
2801.57
2792.35
2781.81
2769.93
2756.6
2741.71
2725.19
2706.95
2686.93
2665.07
2641.24
2615.32
2587.49
2557.66
2525.92
2491.94
2456.09
2418.04
2378.55
2337.3
2294.59
2250.21
2204.32
2157.75
2109.93
2062.45
2013.14
1964.3
1915.56
1868.19
1821.28
1774.32
1728.41
1683.07
1641.16
1599.19
1558.93
1519.34
1480.55
1444.99
1413.37
1353.6
3472.41
2837.44
2818.39
2814.23
2807.75
2803.38
2800.14
2797.9
2796.12
2794.42
2792.46
2790.21
2787.98
2786.08
2784.62
2783.57
2782.61
2781.4
2779.38
2776.51
2773.18
2769.99
2767.44
2765.7
2764.68
2764.32
2764.48
2765.23
2766.31
2767.8
2769.67
2771.84
2774.19
2776.61
2778.98
2781.24
2783.34
2785.31
2787.19
2789.03
2790.9
2792.84
2794.86
2797
2799.25
2801.62
2804.12
2806.74
2809.47
2812.3
2815.23
2818.25
2821.35
2824.5
2827.7
2830.93
2834.18
2837.43
2840.65
2843.82
2846.91
2849.92
2852.79
2855.51
2858.05
2860.36
2862.43
2864.21
2865.64
2866.7
2867.35
2867.58
2867.26
2866.36
2864.82
2862.51
2859.47
2855.57
2850.73
2844.89
2837.94
2829.79
2820.43
2809.74
2797.61
2783.96
2768.64
2751.62
2732.87
2712.26
2689.72
2665.29
2638.85
2610.43
2579.81
2547.13
2512.09
2475.25
2436.28
2395.78
2353.35
2309.28
2263.43
2216.51
2168.65
2120.84
2070.66
2020.6
1969.74
1921.03
1872.21
1823.77
1775.28
1729.71
1686.24
1645.14
1606.72
1568.88
1534.06
1504.06
1445.63
3453.54
2843.84
2819.91
2814.38
2806.13
2799.69
2794.94
2792.19
2790.65
2789.45
2788.02
2786.38
2784.99
2784.03
2783.4
2783.04
2782.71
2782.28
2781.48
2780.04
2777.82
2775.2
2772.84
2771.2
2770.33
2770.14
2770.49
2771.37
2772.49
2773.9
2775.6
2777.59
2779.85
2782.32
2784.9
2787.49
2790.03
2792.49
2794.86
2797.18
2799.48
2801.81
2804.19
2806.67
2809.25
2811.95
2814.77
2817.73
2820.81
2824.02
2827.33
2830.76
2834.28
2837.88
2841.55
2845.28
2849.06
2852.86
2856.67
2860.47
2864.23
2867.93
2871.55
2875.06
2878.43
2881.63
2884.64
2887.41
2889.91
2892.11
2893.95
2895.39
2896.4
2896.91
2896.97
2896.28
2895
2892.94
2890.04
2886.3
2881.57
2875.79
2868.9
2860.78
2851.38
2840.59
2828.28
2814.38
2798.85
2781.53
2762.34
2741.2
2718.02
2692.91
2665.74
2636.44
2604.76
2571.16
2535.52
2498.21
2458.71
2417.24
2373.67
2328.72
2282.84
2235.79
2187.55
2137.2
2085.67
2034.95
1984.88
1935.09
1883.2
1831.89
1781.82
1733.71
1688.67
1645
1603.33
1566.47
1493.81
3435.01
2853.74
2821.8
2814.58
2805.47
2798.3
2792.84
2789.15
2786.73
2784.87
2783.06
2781.37
2780.34
2780.02
2780.27
2781
2781.66
2781.93
2781.92
2781.51
2780.75
2779.42
2777.8
2776.48
2775.85
2775.84
2776.45
2777.53
2778.84
2780.34
2782
2783.88
2786
2788.38
2790.98
2793.73
2796.56
2799.4
2802.21
2804.99
2807.74
2810.5
2813.28
2816.12
2819.05
2822.09
2825.24
2828.53
2831.95
2835.51
2839.2
2843
2846.92
2850.95
2855.07
2859.27
2863.54
2867.86
2872.23
2876.61
2880.99
2885.35
2889.67
2893.92
2898.08
2902.12
2906.01
2909.73
2913.25
2916.51
2919.5
2922.18
2924.5
2926.38
2927.81
2928.74
2929.12
2928.88
2927.87
2926.13
2923.48
2919.93
2915.35
2909.68
2902.89
2894.86
2885.44
2874.54
2862.1
2848.01
2832.2
2814.55
2794.98
2773.56
2750.12
2724.54
2696.65
2666.72
2634.49
2600.21
2563.58
2525.02
2484.33
2441.87
2397.55
2351.86
2304.65
2255.87
2205.9
2154.93
2104.85
2055.09
2004.48
1953.09
1901.81
1850.09
1802.59
1755.34
1710.22
1667.6
1584.21
3412.06
2862.25
2824.9
2815.98
2806.37
2798.99
2793.41
2789.17
2786.22
2783.85
2781.42
2778.84
2776.71
2775.83
2776.29
2777.53
2779.15
2780.51
2781.27
2781.6
2781.73
2781.74
2781.45
2780.99
2780.86
2781.25
2782.14
2783.49
2785.1
2786.84
2788.64
2790.53
2792.57
2794.84
2797.35
2800.1
2803.05
2806.13
2809.29
2812.47
2815.66
2818.85
2822.06
2825.31
2828.61
2832
2835.5
2839.12
2842.89
2846.79
2850.83
2855.01
2859.31
2863.74
2868.29
2872.93
2877.67
2882.5
2887.39
2892.33
2897.3
2902.28
2907.25
2912.2
2917.1
2921.93
2926.66
2931.26
2935.71
2939.98
2944.02
2947.82
2951.32
2954.49
2957.29
2959.66
2961.52
2962.85
2963.6
2963.78
2963.12
2961.74
2959.43
2956.11
2951.84
2946.43
2939.79
2931.84
2922.49
2911.63
2899.19
2885.02
2868.99
2851.12
2831.28
2809.42
2785.38
2759.17
2730.53
2699.78
2666.84
2632.03
2594.87
2555.43
2513.63
2470.32
2425.59
2379.39
2331.19
2281.26
2230.17
2178.67
2127.65
2074.94
2023.51
1968.44
1917.07
1866.48
1821.89
1782.78
1709.14
3382.51
2867.13
2828.26
2819.35
2811.35
2803.8
2797.03
2791.66
2787.71
2784.7
2781.88
2778.86
2775.9
2774.02
2773.56
2774.19
2775.85
2777.83
2779.51
2780.72
2781.55
2782.34
2783.22
2784.09
2784.89
2785.91
2787.3
2789.04
2791.03
2793.12
2795.21
2797.29
2799.4
2801.63
2804.06
2806.74
2809.68
2812.85
2816.2
2819.68
2823.23
2826.82
2830.45
2834.1
2837.8
2841.56
2845.42
2849.38
2853.48
2857.72
2862.11
2866.63
2871.31
2876.12
2881.06
2886.12
2891.3
2896.58
2901.96
2907.42
2912.93
2918.49
2924.08
2929.68
2935.26
2940.82
2946.32
2951.75
2957.08
2962.27
2967.31
2972.16
2976.79
2981.16
2985.23
2988.96
2992.31
2995.2
2997.58
2999.41
3000.64
3001.21
3001.12
2999.98
2998.1
2995.18
2991.21
2986.08
2979.67
2971.9
2962.69
2951.92
2939.44
2925.22
2909.15
2891.22
2871.24
2849.03
2824.44
2797.78
2768.98
2738.12
2704.69
2668.78
2630.43
2590.35
2548.56
2505.06
2459.09
2410.85
2360.65
2309.56
2258.11
2206.44
2153.04
2097.93
2041.52
1986.03
1931.17
1880.61
1789.62
3347.45
2865.09
2835.07
2827.81
2818.2
2810.5
2803.27
2797.16
2792.36
2788.46
2784.61
2780.55
2776.75
2774.08
2772.86
2772.85
2773.66
2775.21
2777.08
2778.84
2780.43
2781.91
2783.59
2785.52
2787.52
2789.48
2791.6
2793.93
2796.41
2798.95
2801.44
2803.85
2806.18
2808.51
2810.95
2813.58
2816.46
2819.63
2823.05
2826.7
2830.51
2834.43
2838.43
2842.48
2846.57
2850.72
2854.94
2859.27
2863.71
2868.29
2873.01
2877.88
2882.9
2888.08
2893.39
2898.85
2904.45
2910.17
2916
2921.94
2927.97
2934.07
2940.23
2946.43
2952.66
2958.89
2965.11
2971.3
2977.44
2983.49
2989.44
2995.25
3000.91
3006.37
3011.61
3016.58
3021.24
3025.54
3029.44
3032.9
3035.85
3038.2
3039.95
3040.99
3041.35
3040.81
3039.36
3036.92
3033.28
3028.48
3022.4
3014.92
3005.92
2995.28
2982.92
2968.79
2952.72
2934.55
2914.19
2891.81
2867.16
2840.26
2810.84
2779.15
2745.03
2708.76
2670.3
2629.9
2587.21
2542.39
2495.27
2446.69
2397.07
2346.9
2296.14
2244.22
2191.1
2139.07
2084.23
2036.92
1950.77
3308.75
2859.96
2837.63
2832.22
2825.25
2818.78
2812.13
2805.72
2799.94
2794.78
2789.97
2785.12
2780.21
2775.98
2773.53
2772.88
2773.17
2774.11
2775.46
2777.05
2778.89
2780.93
2783.2
2785.89
2788.85
2791.85
2794.87
2797.96
2801.08
2804.17
2807.17
2810.01
2812.69
2815.27
2817.84
2820.51
2823.38
2826.51
2829.93
2833.64
2837.6
2841.76
2846.06
2850.45
2854.91
2859.44
2864.03
2868.7
2873.49
2878.4
2883.45
2888.65
2894.01
2899.53
2905.2
2911.03
2917
2923.12
2929.38
2935.76
2942.26
2948.85
2955.53
2962.29
2969.1
2975.95
2982.83
2989.71
2996.58
3003.43
3010.21
3016.91
3023.51
3029.98
3036.29
3042.41
3048.29
3053.9
3059.2
3064.13
3068.67
3072.75
3076.32
3079.27
3081.59
3083.21
3084.07
3084.23
3083.19
3081.27
3078.14
3073.75
3068.08
3060.92
3052.19
3041.82
3029.69
3015.68
2999.67
2981.55
2961.08
2938.39
2913.43
2886.3
2856.56
2824.21
2789.25
2752.13
2712.95
2671.75
2628.03
2582.13
2533.9
2484.39
2433.37
2381.07
2327.02
2272.16
2213.41
2159.78
2068.73
3272.71
2849.53
2834.82
2831.77
2827.34
2824.43
2820.53
2815.47
2809.57
2803.5
2797.69
2791.92
2786.1
2780.68
2776.62
2774.5
2773.87
2774.15
2775.03
2776.3
2777.93
2779.96
2782.56
2785.71
2789.38
2793.29
2797.23
2801.15
2805.01
2808.74
2812.29
2815.63
2818.75
2821.68
2824.51
2827.33
2830.26
2833.4
2836.81
2840.53
2844.56
2848.86
2853.37
2858.04
2862.82
2867.69
2872.63
2877.66
2882.78
2888.03
2893.41
2898.93
2904.61
2910.46
2916.47
2922.64
2928.98
2935.47
2942.12
2948.91
2955.84
2962.89
2970.06
2977.32
2984.67
2992.09
2999.57
3007.09
3014.63
3022.19
3029.74
3037.24
3044.7
3052.07
3059.35
3066.5
3073.48
3080.27
3086.81
3093.08
3099.04
3104.65
3109.84
3114.57
3118.78
3122.42
3125.38
3127.67
3129.14
3129.79
3129.54
3128.04
3125.55
3121.68
3116.42
3109.67
3101.33
3091.31
3079.41
3065.48
3049.38
3031.27
3010.96
2988.44
2963.27
2935.58
2905.3
2872.82
2838.2
2801.3
2761.9
2720.03
2675.58
2629.36
2581.01
2531.72
2480.6
2428.74
2374.92
2320.98
2233.89
3246.59
2836.01
2825.57
2826.47
2825.44
2824.87
2824.44
2822.88
2818.81
2813.01
2806.68
2800.28
2793.89
2787.63
2782.16
2778.31
2776.27
2775.58
2775.69
2776.42
2777.71
2779.59
2782.19
2785.57
2789.65
2794.18
2798.87
2803.59
2808.21
2812.63
2816.79
2820.68
2824.27
2827.62
2830.79
2833.88
2836.97
2840.19
2843.64
2847.37
2851.42
2855.79
2860.44
2865.31
2870.35
2875.51
2880.77
2886.13
2891.58
2897.15
2902.84
2908.68
2914.67
2920.83
2927.15
2933.65
2940.32
2947.16
2954.16
2961.33
2968.65
2976.12
2983.71
2991.43
2999.26
3007.2
3015.21
3023.3
3031.45
3039.65
3047.88
3056.11
3064.33
3072.52
3080.66
3088.73
3096.71
3104.55
3112.23
3119.7
3126.95
3133.94
3140.61
3146.92
3152.82
3158.26
3163.2
3167.57
3171.28
3174.23
3176.41
3177.69
3178.13
3177.36
3175.42
3172.19
3167.48
3161.35
3153.52
3143.91
3132.37
3118.88
3103.18
3085.25
3064.88
3042.2
3016.85
2989.01
2958.52
2925.5
2890.03
2851.99
2811.54
2768.78
2723.69
2676.98
2627.71
2577.85
2524.02
2470.73
2389.59
3234.92
2824.16
2814.36
2818.5
2821.1
2823.69
2825.43
2826.09
2825.24
2821.48
2815.6
2808.98
2802.39
2795.89
2789.67
2784.42
2780.74
2778.61
2777.71
2777.69
2778.37
2779.86
2782.22
2785.58
2789.89
2794.82
2800.08
2805.47
2810.8
2815.9
2820.69
2825.14
2829.24
2833.05
2836.61
2840.02
2843.37
2846.76
2850.29
2854.07
2858.15
2862.57
2867.3
2872.31
2877.54
2882.94
2888.47
2894.12
2899.87
2905.75
2911.74
2917.88
2924.17
2930.62
2937.24
2944.04
2951.02
2958.17
2965.51
2973.02
2980.7
2988.54
2996.53
3004.66
3012.93
3021.32
3029.83
3038.43
3047.12
3055.9
3064.73
3073.61
3082.51
3091.43
3100.34
3109.24
3118.08
3126.86
3135.54
3144.08
3152.46
3160.66
3168.64
3176.35
3183.75
3190.8
3197.45
3203.66
3209.36
3214.49
3218.96
3222.69
3225.62
3227.67
3228.75
3228.93
3227.56
3225.12
3221.1
3215.47
3208.15
3198.93
3187.65
3174.33
3158.78
3140.99
3120.54
3097.56
3071.76
3043.46
3012.61
2979.14
2943.19
2904.41
2863.26
2819.44
2773.42
2725.39
2674.8
2620.23
2547.49
3232.18
2815.97
2801.44
2806.06
2812.16
2819.17
2824.03
2827.19
2828.47
2827.3
2823.11
2817.01
2810.56
2804.21
2797.88
2791.88
2786.9
2783.37
2781.22
2780.32
2780.32
2781.13
2783
2786.08
2790.38
2795.53
2801.15
2807.04
2812.96
2818.68
2824.07
2829.07
2833.69
2837.95
2841.93
2845.7
2849.35
2852.97
2856.68
2860.56
2864.7
2869.16
2873.95
2879.05
2884.42
2890
2895.76
2901.66
2907.69
2913.84
2920.12
2926.54
2933.11
2939.84
2946.74
2953.82
2961.08
2968.52
2976.16
2983.98
2991.98
3000.16
3008.51
3017.01
3025.66
3034.46
3043.4
3052.45
3061.62
3070.9
3080.27
3089.71
3099.21
3108.77
3118.36
3127.97
3137.58
3147.17
3156.72
3166.19
3175.57
3184.84
3193.95
3202.89
3211.61
3220.07
3228.24
3236.08
3243.53
3250.54
3257.05
3262.99
3268.3
3272.91
3276.66
3279.57
3281.44
3282.29
3282.03
3280.13
3277.03
3272.16
3265.57
3257.15
3246.7
3234.1
3219.07
3201.69
3181.55
3158.92
3133.45
3105.31
3074.41
3040.62
3004.31
2964.83
2922.92
2877.95
2830.33
2777.37
2707.49
3235.59
2810.07
2791.57
2794.44
2800.89
2810.91
2820.23
2825.99
2829.18
2830.02
2828.27
2823.62
2817.75
2811.8
2805.75
2799.59
2793.88
2789.29
2786.04
2784.13
2783.43
2783.6
2784.75
2787.28
2791.35
2796.53
2802.35
2808.56
2814.92
2821.14
2827.04
2832.55
2837.65
2842.36
2846.75
2850.89
2854.88
2858.78
2862.71
2866.74
2870.99
2875.51
2880.36
2885.54
2891.01
2896.74
2902.67
2908.78
2915.05
2921.45
2927.98
2934.66
2941.49
2948.48
2955.64
2962.97
2970.5
2978.21
2986.11
2994.21
3002.51
3010.99
3019.65
3028.48
3037.48
3046.64
3055.95
3065.4
3074.99
3084.71
3094.55
3104.49
3114.51
3124.62
3134.8
3145.03
3155.31
3165.61
3175.91
3186.19
3196.43
3206.61
3216.71
3226.71
3236.56
3246.24
3255.71
3264.95
3273.92
3282.57
3290.83
3298.67
3306.02
3312.83
3319.03
3324.53
3329.23
3333.02
3335.9
3337.65
3338.33
3337.57
3335.24
3331.31
3325.44
3317.63
3307.62
3295.36
3280.41
3262.94
3242.43
3219.2
3192.84
3163.67
3131.56
3096.14
3058
3016.39
2972.25
2922.55
2857.51
3241.63
2808.46
2786.15
2785.42
2788.96
2799.27
2812.35
2822.97
2828.68
2830.84
2831
2828.54
2823.73
2818.29
2812.67
2806.73
2800.8
2795.63
2791.62
2788.89
2787.46
2787.09
2787.56
2789.39
2793
2798.03
2803.86
2810.22
2816.87
2823.45
2829.76
2835.7
2841.23
2846.36
2851.13
2855.64
2859.95
2864.16
2868.33
2872.57
2876.97
2881.59
2886.52
2891.77
2897.33
2903.17
2909.25
2915.53
2921.99
2928.61
2935.37
2942.29
2949.35
2956.58
2963.97
2971.55
2979.31
2987.26
2995.41
3003.77
3012.32
3021.07
3030
3039.13
3048.43
3057.9
3067.55
3077.35
3087.3
3097.4
3107.64
3118.01
3128.49
3139.08
3149.75
3160.52
3171.36
3182.26
3193.21
3204.18
3215.15
3226.11
3237.04
3247.93
3258.74
3269.45
3280.04
3290.47
3300.72
3310.75
3320.52
3329.99
3339.1
3347.81
3356.07
3363.81
3370.97
3377.45
3383.16
3387.98
3391.84
3394.61
3396.2
3396.6
3395.17
3392.3
3387.56
3380.75
3371.72
3360.33
3346.17
3329.36
3309.31
3286.44
3260.08
3230.29
3196.83
3158.98
3117.89
3070.44
3008.62
3247.35
2809.47
2782.05
2778.61
2779.35
2787.02
2801.74
2816.95
2826.77
2831.04
2832.19
2831.58
2828.44
2823.76
2818.54
2812.86
2806.99
2801.64
2797.31
2794.09
2792.06
2791.23
2791.21
2792.31
2795.35
2800.09
2805.8
2812.16
2818.95
2825.76
2832.37
2838.64
2844.52
2850.01
2855.14
2859.98
2864.61
2869.11
2873.55
2878.01
2882.59
2887.35
2892.37
2897.7
2903.35
2909.28
2915.48
2921.9
2928.53
2935.34
2942.3
2949.42
2956.7
2964.14
2971.75
2979.54
2987.52
2995.7
3004.07
3012.65
3021.43
3030.42
3039.6
3048.98
3058.54
3068.3
3078.23
3088.33
3098.6
3109.03
3119.62
3130.36
3141.22
3152.22
3163.32
3174.55
3185.87
3197.28
3208.77
3220.31
3231.9
3243.52
3255.15
3266.79
3278.41
3289.98
3301.49
3312.92
3324.25
3335.44
3346.46
3357.28
3367.86
3378.16
3388.15
3397.76
3406.94
3415.64
3423.78
3431.29
3438.09
3444.09
3449.13
3453.21
3456.1
3457.72
3458.11
3456.4
3453.17
3447.65
3439.68
3429.23
3415.6
3399.1
3378.79
3355.19
3326.9
3293.8
3256.24
3211.75
3153.15
3251.55
2810.61
2779.11
2773.97
2772.56
2776.86
2790.21
2808.51
2822.96
2830.37
2832.74
2833.29
2831.79
2828.07
2823.29
2817.93
2812.28
2806.99
2802.6
2799.21
2796.85
2795.64
2795.31
2795.91
2798.37
2802.74
2808.22
2814.48
2821.28
2828.2
2834.97
2841.48
2847.63
2853.41
2858.84
2863.99
2868.91
2873.69
2878.39
2883.08
2887.85
2892.78
2897.93
2903.36
2909.09
2915.11
2921.41
2927.95
2934.72
2941.68
2948.82
2956.13
2963.6
2971.23
2979.03
2987.02
2995.19
3003.57
3012.14
3020.92
3029.91
3039.11
3048.51
3058.11
3067.91
3077.9
3088.09
3098.45
3109
3119.72
3130.6
3141.65
3152.85
3164.19
3175.67
3187.27
3199
3210.84
3222.79
3234.82
3246.93
3259.09
3271.31
3283.57
3295.85
3308.14
3320.42
3332.67
3344.88
3357.02
3369.07
3381
3392.78
3404.39
3415.8
3426.96
3437.83
3448.37
3458.52
3468.24
3477.45
3486.09
3494.07
3501.27
3507.61
3512.86
3517.09
3519.9
3521.43
3521.53
3519.13
3515.24
3508.62
3499.49
3487.12
3471.76
3451.35
3426.07
3393.62
3353.98
3299.25
3255.1
2811.36
2777.82
2771.05
2767.98
2769.63
2779.42
2798.3
2817.1
2828.41
2832.76
2834.11
2833.91
2831.48
2827.21
2822.04
2816.58
2811.45
2807.22
2803.9
2801.49
2800.08
2799.56
2799.9
2801.91
2805.91
2811.1
2817.18
2823.9
2830.82
2837.66
2844.29
2850.63
2856.63
2862.31
2867.7
2872.88
2877.91
2882.85
2887.78
2892.75
2897.85
2903.14
2908.69
2914.51
2920.63
2927.02
2933.68
2940.57
2947.67
2954.96
2962.43
2970.06
2977.87
2985.85
2994.01
3002.37
3010.92
3019.67
3028.64
3037.81
3047.2
3056.8
3066.6
3076.61
3086.82
3097.22
3107.82
3118.6
3129.57
3140.72
3152.04
3163.53
3175.17
3186.96
3198.89
3210.97
3223.18
3235.51
3247.96
3260.5
3273.12
3285.83
3298.61
3311.44
3324.32
3337.23
3350.15
3363.08
3376
3388.89
3401.72
3414.48
3427.14
3439.68
3452.08
3464.3
3476.31
3488.07
3499.54
3510.67
3521.4
3531.68
3541.46
3550.65
3559.19
3566.96
3573.88
3579.71
3584.53
3587.84
3589.73
3590.03
3587.58
3583.2
3575.95
3564.76
3549.49
3525.79
3497.07
3452.93
3256.92
2810.6
2776.85
2769.06
2764.78
2764.55
2770.44
2787.65
2809.62
2825.04
2832.25
2834.64
2835.33
2833.94
2830.25
2825.28
2820.02
2815.13
2811.15
2808.05
2805.76
2804.35
2803.76
2804.02
2805.8
2809.49
2814.38
2820.25
2826.83
2833.66
2840.48
2847.15
2853.58
2859.74
2865.61
2871.21
2876.61
2881.85
2887.02
2892.15
2897.32
2902.59
2908.04
2913.71
2919.64
2925.85
2932.33
2939.08
2946.08
2953.3
2960.73
2968.34
2976.13
2984.09
2992.23
3000.55
3009.07
3017.78
3026.7
3035.83
3045.18
3054.74
3064.51
3074.49
3084.69
3095.09
3105.69
3116.49
3127.49
3138.67
3150.05
3161.61
3173.35
3185.25
3197.32
3209.54
3221.91
3234.44
3247.1
3259.9
3272.81
3285.83
3298.95
3312.16
3325.46
3338.84
3352.27
3365.75
3379.28
3392.84
3406.41
3419.97
3433.51
3447.02
3460.48
3473.87
3487.15
3500.33
3513.35
3526.21
3538.85
3551.26
3563.39
3575.19
3586.61
3597.61
3608.09
3617.99
3627.21
3635.64
3643.16
3649.52
3654.87
3658.54
3660.81
3661.3
3659.04
3653.89
3642.34
3627.94
3601.31
3257.64
2808.52
2775.6
2767.63
2762.33
2760.7
2763.73
2777.73
2801.12
2820.72
2831.29
2835
2836.21
2835.52
2832.57
2827.87
2822.75
2818.1
2814.41
2811.63
2809.57
2808.33
2807.79
2808.09
2809.88
2813.33
2817.96
2823.61
2829.99
2836.67
2843.39
2850.03
2856.5
2862.74
2868.74
2874.51
2880.09
2885.53
2890.89
2896.22
2901.58
2907.03
2912.63
2918.43
2924.47
2930.78
2937.36
2944.2
2951.3
2958.64
2966.18
2973.92
2981.84
2989.94
2998.22
3006.69
3015.35
3024.22
3033.29
3042.58
3052.08
3061.8
3071.73
3081.88
3092.25
3102.82
3113.6
3124.59
3135.78
3147.17
3158.76
3170.53
3182.49
3194.63
3206.94
3219.41
3232.05
3244.86
3257.81
3270.91
3284.14
3297.49
3310.96
3324.55
3338.24
3352.03
3365.9
3379.85
3393.87
3407.95
3422.07
3436.23
3450.4
3464.59
3478.77
3492.93
3507.06
3521.13
3535.13
3549.03
3562.82
3576.46
3589.93
3603.2
3616.22
3628.97
3641.4
3653.46
3665.1
3676.27
3686.89
3696.85
3706.05
3714.34
3721.52
3727.57
3732.21
3734.96
3735.23
3731.67
3724.6
3256.15
2805.81
2773.59
2765.95
2760.12
2757.9
2759
2769.4
2792.64
2815.96
2829.78
2835.12
2836.72
2836.55
2834.22
2829.8
2824.83
2820.45
2817.11
2814.7
2812.95
2811.97
2811.6
2812.07
2814.01
2817.32
2821.75
2827.2
2833.36
2839.84
2846.41
2852.96
2859.4
2865.68
2871.77
2877.66
2883.38
2888.97
2894.5
2900
2905.54
2911.15
2916.9
2922.83
2928.99
2935.4
2942.07
2949.01
2956.21
2963.64
2971.29
2979.15
2987.19
2995.41
3003.82
3012.42
3021.22
3030.22
3039.43
3048.86
3058.5
3068.37
3078.45
3088.75
3099.27
3110
3120.95
3132.11
3143.47
3155.04
3166.82
3178.79
3190.95
3203.29
3215.82
3228.53
3241.41
3254.46
3267.67
3281.04
3294.55
3308.2
3321.98
3335.89
3349.92
3364.07
3378.31
3392.64
3407.06
3421.57
3436.15
3450.78
3465.45
3480.16
3494.9
3509.65
3524.4
3539.14
3553.84
3568.51
3583.1
3597.61
3612.01
3626.29
3640.41
3654.36
3668.09
3681.56
3694.72
3707.53
3719.93
3731.86
3743.22
3753.98
3763.9
3773
3781.01
3787.71
3793.12
3795.66
3798.9
3251.8
2802.56
2771.32
2764.2
2757.87
2755.22
2755.56
2762.88
2785.02
2811.28
2828
2835.07
2836.99
2837.1
2835.23
2831.15
2826.39
2822.32
2819.35
2817.33
2815.99
2815.27
2815.17
2815.97
2818.08
2821.31
2825.59
2830.86
2836.78
2843.04
2849.44
2855.87
2862.26
2868.54
2874.68
2880.66
2886.49
2892.22
2897.9
2903.55
2909.24
2915
2920.89
2926.95
2933.22
2939.73
2946.49
2953.52
2960.81
2968.34
2976.09
2984.05
2992.2
3000.54
3009.07
3017.79
3026.71
3035.84
3045.18
3054.73
3064.51
3074.51
3084.73
3095.17