/*--------------------------------*- C++ -*----------------------------------*\
| =========                 |                                                 |
| \\      /  F ield         | OpenFOAM: The Open Source CFD Toolbox           |
|  \\    /   O peration     | Version:  2406                                  |
|   \\  /    A nd           | Website:  www.openfoam.com                      |
|    \\/     M anipulation  |                                                 |
\*---------------------------------------------------------------------------*/
FoamFile
{
    version     2.0;
    format      ascii;
    arch        "LSB;label=32;scalar=64";
    class       volScalarField;
    location    "0.054";
    object      T;
}
// * * * * * * * * * * * * * * * * * * * * * * * * * * * * * * * * * * * * * //

dimensions      [0 0 0 1 0 0 0];

internalField   nonuniform List<scalar> 
78650
(
242.215
224.438
223.237
223.026
222.794
222.647
222.507
222.406
222.327
222.265
222.21
222.159
222.112
222.061
222.001
221.926
221.838
221.743
221.654
221.581
221.531
221.503
221.487
221.477
221.462
221.44
221.414
221.381
221.345
221.306
221.266
221.227
221.187
221.147
221.107
221.067
221.028
220.989
220.951
220.914
220.876
220.838
220.8
220.761
220.722
220.681
220.638
220.594
220.546
220.495
220.44
220.38
220.315
220.243
220.163
220.074
219.975
219.865
219.742
219.605
219.453
219.282
219.092
218.882
218.649
218.392
218.108
217.795
217.45
217.072
216.657
216.203
215.709
215.171
214.585
213.952
213.267
212.53
211.741
210.897
209.999
209.047
208.034
206.964
205.828
204.633
203.376
202.076
200.767
199.395
197.99
196.556
195.11
193.679
192.245
190.794
189.383
187.997
186.567
185.123
183.776
182.493
181.322
180.267
179.242
178.187
177.162
176.199
175.363
174.566
173.787
173.021
172.304
171.665
171.132
170.702
170.356
170.077
169.852
169.719
169.05
241.754
224.379
223.346
223.121
222.86
222.699
222.565
222.474
222.405
222.349
222.296
222.247
222.201
222.151
222.092
222.018
221.929
221.828
221.727
221.64
221.575
221.538
221.521
221.516
221.512
221.503
221.49
221.47
221.443
221.41
221.376
221.341
221.307
221.272
221.239
221.205
221.173
221.141
221.111
221.081
221.052
221.022
220.993
220.964
220.934
220.903
220.871
220.837
220.802
220.763
220.721
220.675
220.625
220.568
220.505
220.434
220.354
220.265
220.164
220.051
219.923
219.78
219.62
219.44
219.241
219.019
218.774
218.502
218.201
217.869
217.503
217.1
216.66
216.18
215.657
215.09
214.474
213.804
213.082
212.303
211.47
210.582
209.634
208.636
207.583
206.488
205.347
204.144
202.882
201.561
200.173
198.79
197.388
195.922
194.48
193.056
191.621
190.231
188.905
187.563
186.248
184.969
183.657
182.372
181.173
180.058
179.072
178.129
177.226
176.337
175.483
174.662
173.876
173.151
172.498
171.898
171.356
170.902
170.587
170.384
169.615
241.386
224.272
223.427
223.202
222.928
222.759
222.634
222.554
222.495
222.441
222.389
222.339
222.291
222.241
222.182
222.109
222.021
221.918
221.811
221.711
221.632
221.581
221.558
221.555
221.557
221.559
221.561
221.555
221.541
221.517
221.49
221.461
221.431
221.402
221.374
221.347
221.322
221.297
221.274
221.252
221.23
221.209
221.189
221.168
221.148
221.127
221.106
221.083
221.059
221.033
221.004
220.972
220.936
220.894
220.848
220.794
220.733
220.663
220.583
220.493
220.389
220.272
220.139
219.989
219.821
219.632
219.422
219.188
218.927
218.638
218.317
217.964
217.576
217.151
216.685
216.176
215.62
215.015
214.362
213.659
212.905
212.099
211.237
210.322
209.346
208.316
207.225
206.081
204.877
203.636
202.368
201.035
199.699
198.279
196.825
195.384
193.979
192.531
191.091
189.678
188.279
186.936
185.634
184.356
183.138
181.941
180.815
179.711
178.672
177.674
176.724
175.825
174.988
174.212
173.509
172.905
172.407
172.028
171.755
171.585
170.864
241.074
224.183
223.441
223.246
222.992
222.832
222.716
222.647
222.594
222.542
222.489
222.435
222.383
222.331
222.272
222.2
222.113
222.012
221.902
221.795
221.703
221.637
221.603
221.597
221.601
221.611
221.625
221.635
221.635
221.624
221.606
221.584
221.56
221.537
221.514
221.493
221.474
221.456
221.44
221.425
221.411
221.398
221.386
221.375
221.364
221.353
221.341
221.329
221.316
221.302
221.285
221.266
221.243
221.217
221.186
221.149
221.106
221.055
220.995
220.926
220.846
220.754
220.647
220.526
220.388
220.232
220.056
219.859
219.639
219.393
219.118
218.813
218.476
218.103
217.693
217.245
216.754
216.219
215.636
215.003
214.32
213.583
212.789
211.94
211.036
210.081
209.071
208.018
206.909
205.734
204.513
203.208
201.845
200.483
199.091
197.664
196.244
194.809
193.358
191.924
190.487
189.07
187.67
186.276
184.968
183.692
182.48
181.32
180.192
179.104
178.093
177.121
176.191
175.27
174.368
173.563
172.898
172.392
172.048
171.853
170.985
240.764
224.121
223.434
223.279
223.065
222.924
222.823
222.76
222.706
222.652
222.594
222.535
222.477
222.421
222.361
222.29
222.205
222.106
221.997
221.887
221.787
221.709
221.661
221.646
221.65
221.662
221.686
221.71
221.725
221.729
221.723
221.711
221.695
221.677
221.661
221.646
221.632
221.621
221.611
221.604
221.597
221.592
221.589
221.586
221.584
221.582
221.581
221.579
221.577
221.574
221.57
221.563
221.554
221.542
221.526
221.506
221.479
221.447
221.407
221.358
221.301
221.232
221.151
221.056
220.947
220.822
220.679
220.517
220.333
220.126
219.893
219.633
219.343
219.022
218.667
218.276
217.845
217.372
216.854
216.29
215.679
215.019
214.309
213.546
212.729
211.855
210.92
209.933
208.879
207.776
206.616
205.42
204.167
202.857
201.517
200.104
198.679
197.226
195.79
194.375
192.969
191.541
190.167
188.739
187.376
186.026
184.682
183.397
182.184
181.049
179.986
178.965
177.995
177.044
176.126
175.268
174.496
173.839
173.339
172.941
171.869
240.375
224.048
223.437
223.323
223.157
223.045
222.956
222.89
222.829
222.77
222.706
222.639
222.573
222.511
222.448
222.378
222.296
222.2
222.094
221.986
221.884
221.797
221.737
221.71
221.708
221.718
221.745
221.78
221.81
221.829
221.837
221.838
221.832
221.823
221.813
221.804
221.796
221.791
221.788
221.787
221.788
221.791
221.795
221.8
221.807
221.814
221.822
221.831
221.839
221.847
221.855
221.86
221.864
221.866
221.865
221.859
221.85
221.835
221.813
221.785
221.749
221.703
221.646
221.577
221.496
221.4
221.289
221.161
221.014
220.846
220.656
220.44
220.198
219.927
219.624
219.288
218.915
218.504
218.053
217.558
217.019
216.431
215.792
215.101
214.354
213.554
212.7
211.797
210.834
209.825
208.753
207.624
206.443
205.183
203.892
202.52
201.146
199.767
198.345
196.884
195.441
193.959
192.529
191.088
189.643
188.267
186.895
185.575
184.294
183.065
181.915
180.776
179.685
178.629
177.648
176.78
176.014
175.367
174.879
174.54
173.477
239.9
223.953
223.442
223.377
223.263
223.177
223.096
223.026
222.959
222.895
222.825
222.747
222.67
222.599
222.532
222.463
222.384
222.293
222.192
222.088
221.988
221.899
221.83
221.791
221.781
221.787
221.81
221.85
221.891
221.924
221.949
221.963
221.97
221.971
221.969
221.967
221.966
221.967
221.97
221.976
221.984
221.994
222.006
222.02
222.035
222.051
222.069
222.087
222.106
222.125
222.143
222.161
222.178
222.193
222.206
222.215
222.222
222.224
222.22
222.211
222.195
222.171
222.137
222.094
222.039
221.971
221.89
221.793
221.68
221.548
221.396
221.221
221.022
220.797
220.544
220.261
219.945
219.595
219.207
218.777
218.305
217.79
217.229
216.62
215.96
215.247
214.479
213.656
212.77
211.831
210.828
209.778
208.667
207.508
206.291
205.021
203.701
202.345
200.955
199.499
198.069
196.612
195.143
193.698
192.225
190.804
189.361
187.957
186.566
185.201
183.907
182.631
181.417
180.257
179.188
178.213
177.326
176.551
175.933
175.503
174.201
239.377
223.855
223.448
223.413
223.34
223.28
223.21
223.138
223.077
223.013
222.94
222.857
222.771
222.691
222.618
222.546
222.47
222.384
222.289
222.19
222.095
222.009
221.938
221.89
221.872
221.873
221.887
221.925
221.971
222.015
222.054
222.084
222.105
222.119
222.128
222.134
222.14
222.148
222.157
222.169
222.184
222.202
222.221
222.243
222.266
222.291
222.317
222.345
222.373
222.403
222.432
222.461
222.49
222.518
222.544
222.569
222.59
222.608
222.622
222.631
222.634
222.631
222.62
222.6
222.57
222.53
222.477
222.411
222.331
222.235
222.12
221.986
221.831
221.652
221.448
221.216
220.954
220.661
220.332
219.967
219.563
219.118
218.63
218.094
217.508
216.871
216.184
215.445
214.651
213.805
212.899
211.942
210.92
209.843
208.698
207.492
206.241
204.936
203.605
202.218
200.806
199.386
197.933
196.486
194.981
193.537
192.098
190.672
189.278
187.863
186.515
185.182
183.893
182.632
181.439
180.335
179.328
178.402
177.573
176.92
175.262
238.841
223.767
223.416
223.415
223.369
223.329
223.274
223.215
223.149
223.085
223.014
222.936
222.855
222.777
222.704
222.632
222.558
222.476
222.386
222.292
222.202
222.122
222.055
222.005
221.98
221.975
221.983
222.015
222.059
222.107
222.156
222.199
222.235
222.263
222.285
222.302
222.317
222.332
222.349
222.368
222.389
222.413
222.44
222.469
222.501
222.534
222.569
222.606
222.644
222.683
222.723
222.764
222.804
222.845
222.884
222.922
222.958
222.992
223.023
223.049
223.071
223.087
223.097
223.1
223.094
223.079
223.054
223.017
222.967
222.903
222.823
222.727
222.611
222.474
222.315
222.131
221.92
221.682
221.412
221.109
220.77
220.392
219.975
219.517
219.012
218.461
217.861
217.208
216.5
215.736
214.912
214.034
213.095
212.104
211.045
209.938
208.772
207.557
206.289
204.969
203.595
202.206
200.746
199.303
197.801
196.271
194.817
193.331
191.883
190.411
188.994
187.62
186.31
185.049
183.821
182.659
181.622
180.707
179.917
179.255
177.484
238.309
223.666
223.391
223.409
223.374
223.337
223.285
223.23
223.173
223.111
223.043
222.969
222.897
222.832
222.774
222.715
222.651
222.576
222.491
222.4
222.314
222.238
222.176
222.129
222.102
222.093
222.098
222.122
222.16
222.207
222.259
222.311
222.359
222.401
222.437
222.466
222.493
222.517
222.542
222.568
222.596
222.628
222.661
222.698
222.737
222.778
222.821
222.867
222.914
222.963
223.013
223.064
223.116
223.168
223.22
223.271
223.321
223.37
223.416
223.459
223.499
223.534
223.564
223.588
223.605
223.614
223.616
223.606
223.586
223.554
223.508
223.448
223.37
223.275
223.159
223.022
222.861
222.675
222.46
222.215
221.938
221.626
221.278
220.891
220.461
219.985
219.463
218.893
218.273
217.601
216.874
216.094
215.256
214.363
213.401
212.385
211.298
210.158
208.962
207.717
206.426
205.087
203.703
202.269
200.85
199.333
197.866
196.355
194.889
193.356
191.825
190.315
188.832
187.417
186.012
184.663
183.439
182.401
181.6
181.002
179.38
237.829
223.644
223.404
223.405
223.349
223.307
223.259
223.208
223.154
223.096
223.032
222.964
222.9
222.846
222.802
222.765
222.726
222.672
222.6
222.516
222.432
222.358
222.299
222.258
222.232
222.224
222.228
222.247
222.279
222.32
222.371
222.426
222.481
222.534
222.582
222.625
222.664
222.7
222.734
222.769
222.805
222.843
222.884
222.928
222.974
223.023
223.075
223.129
223.185
223.243
223.303
223.365
223.427
223.49
223.554
223.618
223.682
223.744
223.806
223.865
223.921
223.974
224.023
224.068
224.106
224.138
224.163
224.179
224.187
224.185
224.169
224.142
224.1
224.043
223.968
223.873
223.758
223.621
223.459
223.27
223.053
222.804
222.522
222.205
221.849
221.453
221.014
220.529
219.997
219.414
218.775
218.084
217.337
216.536
215.67
214.748
213.759
212.72
211.622
210.471
209.259
207.988
206.679
205.314
203.937
202.482
201.017
199.528
198.055
196.57
195.056
193.547
192.026
190.591
189.131
187.72
186.348
185.046
183.916
182.976
180.821
237.421
223.721
223.443
223.411
223.309
223.236
223.173
223.123
223.079
223.035
222.985
222.929
222.875
222.831
222.799
222.778
222.76
222.736
222.693
222.63
222.555
222.484
222.426
222.388
222.366
222.361
222.366
222.386
222.413
222.45
222.496
222.549
222.606
222.665
222.723
222.778
222.828
222.876
222.922
222.966
223.011
223.058
223.106
223.157
223.211
223.267
223.327
223.389
223.453
223.52
223.589
223.66
223.733
223.807
223.882
223.958
224.034
224.11
224.185
224.259
224.332
224.402
224.469
224.532
224.591
224.645
224.693
224.734
224.767
224.792
224.807
224.812
224.805
224.784
224.749
224.695
224.624
224.534
224.421
224.285
224.123
223.932
223.713
223.462
223.176
222.854
222.491
222.085
221.637
221.141
220.596
220.001
219.354
218.652
217.89
217.07
216.183
215.24
214.232
213.173
212.049
210.867
209.62
208.325
206.985
205.624
204.173
202.7
201.178
199.693
198.178
196.645
195.08
193.577
192.12
190.73
189.445
188.217
187.149
186.3
184.287
237.066
223.892
223.499
223.432
223.284
223.155
223.051
222.987
222.948
222.916
222.879
222.837
222.803
222.782
222.769
222.766
222.762
222.756
222.743
222.713
222.665
222.607
222.554
222.518
222.5
222.499
222.508
222.531
222.559
222.595
222.636
222.685
222.74
222.8
222.862
222.925
222.986
223.045
223.102
223.158
223.213
223.269
223.326
223.385
223.446
223.51
223.577
223.647
223.719
223.795
223.873
223.953
224.035
224.12
224.206
224.293
224.381
224.47
224.558
224.647
224.734
224.82
224.904
224.985
225.063
225.137
225.206
225.27
225.328
225.379
225.421
225.454
225.478
225.489
225.491
225.475
225.445
225.398
225.331
225.245
225.136
225.002
224.842
224.654
224.435
224.184
223.896
223.57
223.205
222.795
222.34
221.835
221.279
220.672
220.011
219.293
218.51
217.673
216.776
215.827
214.812
213.734
212.587
211.387
210.147
208.856
207.513
206.089
204.608
203.124
201.632
200.12
198.513
196.891
195.278
193.71
192.245
190.855
189.579
188.508
186.035
236.718
224.149
223.572
223.462
223.281
223.127
223.002
222.914
222.853
222.805
222.759
222.717
222.692
222.687
222.695
222.717
222.737
222.748
222.754
222.748
222.734
222.707
222.672
222.643
222.631
222.633
222.649
222.677
222.71
222.747
222.788
222.834
222.885
222.943
223.006
223.072
223.14
223.208
223.275
223.342
223.407
223.473
223.539
223.607
223.676
223.748
223.822
223.899
223.98
224.063
224.15
224.239
224.33
224.424
224.52
224.618
224.717
224.818
224.919
225.02
225.122
225.222
225.322
225.42
225.516
225.609
225.698
225.784
225.864
225.939
226.008
226.069
226.122
226.165
226.197
226.219
226.227
226.222
226.198
226.159
226.098
226.017
225.912
225.782
225.626
225.441
225.224
224.972
224.684
224.356
223.987
223.573
223.112
222.605
222.047
221.434
220.761
220.033
219.243
218.395
217.48
216.507
215.469
214.373
213.214
212.004
210.736
209.407
208.024
206.591
205.157
203.707
202.206
200.652
199.075
197.463
195.982
194.534
193.201
191.989
189.259
236.289
224.386
223.672
223.512
223.31
223.145
223.014
222.912
222.839
222.779
222.719
222.657
222.606
222.588
222.602
222.635
222.678
222.715
222.738
222.751
222.758
222.762
222.758
222.75
222.75
222.76
222.783
222.817
222.857
222.9
222.944
222.99
223.04
223.095
223.155
223.222
223.292
223.366
223.441
223.517
223.593
223.669
223.745
223.821
223.899
223.979
224.061
224.147
224.235
224.326
224.42
224.518
224.618
224.721
224.827
224.934
225.044
225.156
225.269
225.383
225.497
225.612
225.726
225.84
225.952
226.063
226.171
226.276
226.377
226.475
226.567
226.653
226.732
226.804
226.868
226.922
226.964
226.994
227.011
227.015
227
226.968
226.916
226.841
226.744
226.621
226.469
226.288
226.074
225.826
225.54
225.213
224.842
224.427
223.964
223.451
222.884
222.261
221.576
220.835
220.034
219.18
218.26
217.273
216.215
215.106
213.946
212.732
211.448
210.098
208.694
207.255
205.803
204.277
202.763
201.119
199.579
198.08
196.809
195.747
193.459
235.727
224.541
223.773
223.602
223.431
223.258
223.097
222.968
222.871
222.797
222.729
222.657
222.587
222.545
222.54
222.558
222.602
222.653
222.697
222.73
222.754
222.776
222.8
222.823
222.844
222.871
222.905
222.948
222.997
223.048
223.099
223.149
223.201
223.254
223.313
223.378
223.448
223.524
223.603
223.686
223.77
223.855
223.941
224.027
224.114
224.202
224.293
224.385
224.481
224.58
224.682
224.787
224.896
225.007
225.122
225.239
225.358
225.48
225.604
225.729
225.856
225.983
226.111
226.239
226.367
226.493
226.619
226.742
226.863
226.981
227.095
227.204
227.309
227.407
227.499
227.583
227.658
227.723
227.777
227.818
227.845
227.858
227.856
227.83
227.788
227.722
227.633
227.517
227.373
227.197
226.989
226.744
226.46
226.135
225.767
225.355
224.893
224.377
223.802
223.175
222.492
221.756
220.951
220.079
219.138
218.144
217.097
215.993
214.813
213.557
212.232
210.86
209.456
208.021
206.515
204.941
203.32
201.736
200.199
198.819
196.064
235.051
224.534
223.955
223.808
223.592
223.413
223.241
223.094
222.979
222.885
222.793
222.698
222.609
222.549
222.523
222.529
222.553
222.593
222.641
222.687
222.728
222.766
222.809
222.857
222.906
222.954
223.006
223.063
223.123
223.185
223.245
223.303
223.36
223.416
223.475
223.538
223.607
223.682
223.764
223.85
223.94
224.033
224.127
224.222
224.318
224.415
224.514
224.615
224.718
224.825
224.935
225.048
225.164
225.283
225.406
225.532
225.661
225.792
225.926
226.062
226.2
226.339
226.479
226.621
226.762
226.904
227.045
227.185
227.323
227.46
227.594
227.724
227.851
227.974
228.091
228.202
228.306
228.402
228.489
228.566
228.632
228.684
228.723
228.746
228.754
228.742
228.71
228.655
228.574
228.467
228.331
228.164
227.962
227.723
227.444
227.125
226.761
226.347
225.881
225.366
224.796
224.17
223.48
222.731
221.918
221.046
220.112
219.121
218.062
216.937
215.739
214.485
213.185
211.849
210.479
209.063
207.611
206.197
204.729
203.504
201.04
234.307
224.473
224.028
223.914
223.753
223.601
223.444
223.292
223.155
223.034
222.921
222.808
222.695
222.598
222.544
222.533
222.542
222.569
222.606
222.646
222.693
222.743
222.8
222.865
222.937
223.01
223.083
223.157
223.233
223.307
223.379
223.448
223.512
223.574
223.636
223.7
223.768
223.843
223.924
224.012
224.105
224.203
224.304
224.407
224.512
224.617
224.725
224.833
224.945
225.059
225.176
225.296
225.42
225.547
225.677
225.811
225.948
226.088
226.232
226.377
226.525
226.675
226.827
226.98
227.134
227.289
227.445
227.6
227.754
227.908
228.06
228.21
228.357
228.501
228.642
228.778
228.909
229.033
229.15
229.259
229.359
229.45
229.528
229.593
229.644
229.68
229.699
229.702
229.679
229.637
229.568
229.471
229.345
229.186
228.993
228.762
228.492
228.179
227.819
227.411
226.948
226.432
225.861
225.236
224.547
223.791
222.967
222.084
221.144
220.144
219.071
217.93
216.715
215.448
214.125
212.757
211.339
209.906
208.382
207.015
204.503
233.609
224.295
223.969
223.899
223.795
223.727
223.636
223.517
223.379
223.238
223.104
222.972
222.838
222.714
222.622
222.575
222.565
222.574
222.598
222.63
222.671
222.722
222.785
222.861
222.95
223.044
223.138
223.232
223.325
223.414
223.499
223.579
223.654
223.724
223.792
223.859
223.929
224.004
224.085
224.173
224.267
224.368
224.474
224.583
224.695
224.809
224.924
225.04
225.159
225.281
225.405
225.533
225.663
225.798
225.936
226.077
226.222
226.37
226.522
226.676
226.834
226.994
227.156
227.32
227.486
227.653
227.821
227.99
228.159
228.328
228.496
228.663
228.829
228.992
229.154
229.312
229.466
229.615
229.76
229.897
230.028
230.151
230.265
230.368
230.46
230.539
230.604
230.653
230.685
230.699
230.694
230.661
230.606
230.522
230.407
230.259
230.076
229.855
229.593
229.285
228.928
228.525
228.07
227.564
226.995
226.365
225.671
224.921
224.115
223.248
222.314
221.309
220.23
219.092
217.887
216.65
215.366
214.073
212.748
211.432
209.148
233.099
224.015
223.746
223.766
223.742
223.729
223.719
223.684
223.593
223.461
223.317
223.171
223.026
222.883
222.758
222.671
222.626
222.613
222.617
222.636
222.668
222.714
222.777
222.858
222.956
223.065
223.177
223.289
223.4
223.505
223.604
223.697
223.783
223.863
223.939
224.012
224.086
224.162
224.244
224.332
224.427
224.529
224.638
224.752
224.869
224.989
225.112
225.236
225.362
225.491
225.622
225.756
225.894
226.035
226.18
226.328
226.48
226.636
226.795
226.958
227.124
227.292
227.464
227.638
227.814
227.992
228.171
228.352
228.534
228.716
228.899
229.082
229.264
229.445
229.624
229.802
229.977
230.149
230.317
230.48
230.638
230.79
230.935
231.072
231.2
231.318
231.425
231.519
231.599
231.662
231.709
231.737
231.746
231.729
231.687
231.617
231.515
231.382
231.213
231.004
230.752
230.458
230.113
229.719
229.269
228.765
228.199
227.573
226.883
226.13
225.315
224.431
223.481
222.465
221.382
220.253
219.064
217.871
216.597
215.347
213.313
232.877
223.761
223.477
223.573
223.632
223.692
223.734
223.752
223.737
223.657
223.526
223.377
223.229
223.083
222.941
222.821
222.737
222.689
222.669
222.67
222.687
222.722
222.779
222.859
222.962
223.08
223.205
223.333
223.46
223.582
223.696
223.801
223.899
223.989
224.074
224.155
224.235
224.315
224.398
224.487
224.583
224.686
224.797
224.914
225.035
225.161
225.289
225.42
225.553
225.688
225.826
225.967
226.111
226.259
226.41
226.565
226.723
226.886
227.052
227.222
227.396
227.572
227.752
227.935
228.12
228.308
228.497
228.689
228.882
229.077
229.272
229.469
229.665
229.861
230.057
230.251
230.445
230.636
230.825
231.011
231.193
231.37
231.542
231.709
231.868
232.02
232.162
232.295
232.417
232.527
232.622
232.702
232.764
232.807
232.83
232.834
232.804
232.752
232.666
232.545
232.388
232.19
231.947
231.66
231.323
230.937
230.49
229.986
229.417
228.789
228.1
227.346
226.528
225.636
224.681
223.659
222.59
221.486
220.338
219.099
217.354
232.826
223.576
223.174
223.28
223.417
223.578
223.693
223.77
223.806
223.786
223.699
223.566
223.423
223.282
223.139
223.002
222.888
222.806
222.756
222.735
222.735
222.755
222.799
222.872
222.974
223.097
223.23
223.37
223.511
223.647
223.774
223.893
224.003
224.104
224.198
224.287
224.374
224.459
224.547
224.638
224.735
224.839
224.951
225.069
225.194
225.324
225.457
225.593
225.732
225.873
226.018
226.165
226.315
226.469
226.626
226.787
226.952
227.12
227.293
227.469
227.65
227.833
228.021
228.211
228.404
228.601
228.799
229
229.204
229.409
229.615
229.823
230.032
230.241
230.451
230.66
230.87
231.078
231.285
231.49
231.692
231.892
232.088
232.279
232.466
232.647
232.821
232.987
233.146
233.294
233.432
233.558
233.67
233.767
233.846
233.907
233.946
233.964
233.958
233.918
233.852
233.749
233.609
233.43
233.208
232.94
232.618
232.246
231.812
231.322
230.768
230.152
229.469
228.715
227.898
227.008
226.069
225.076
224.041
222.887
221.279
232.897
223.434
222.947
223.006
223.148
223.377
223.595
223.734
223.814
223.845
223.814
223.718
223.592
223.462
223.327
223.187
223.057
222.95
222.874
222.829
222.812
222.816
222.843
222.902
222.998
223.121
223.259
223.406
223.557
223.704
223.844
223.974
224.095
224.206
224.31
224.408
224.502
224.594
224.686
224.781
224.88
224.986
225.099
225.219
225.346
225.478
225.616
225.756
225.9
226.047
226.197
226.35
226.506
226.665
226.828
226.994
227.165
227.339
227.517
227.7
227.886
228.076
228.27
228.467
228.667
228.871
229.078
229.287
229.499
229.713
229.929
230.147
230.367
230.587
230.809
231.031
231.254
231.477
231.699
231.921
232.141
232.359
232.575
232.788
232.998
233.203
233.404
233.6
233.789
233.971
234.145
234.309
234.464
234.606
234.735
234.85
234.948
235.027
235.086
235.122
235.136
235.12
235.071
234.989
234.866
234.702
234.492
234.234
233.918
233.548
233.112
232.616
232.049
231.415
230.713
229.938
229.111
228.225
227.302
226.261
224.82
233.022
223.391
222.829
222.785
222.863
223.1
223.404
223.655
223.796
223.855
223.878
223.829
223.729
223.614
223.491
223.358
223.222
223.103
223.009
222.945
222.91
222.901
222.911
222.954
223.039
223.158
223.295
223.446
223.603
223.759
223.908
224.048
224.178
224.299
224.412
224.518
224.62
224.719
224.817
224.916
225.019
225.127
225.241
225.363
225.491
225.626
225.766
225.911
226.059
226.211
226.366
226.524
226.685
226.849
227.017
227.188
227.364
227.543
227.726
227.914
228.106
228.301
228.501
228.704
228.911
229.121
229.334
229.551
229.77
229.992
230.216
230.443
230.672
230.902
231.134
231.367
231.601
231.836
232.072
232.307
232.542
232.776
233.008
233.24
233.469
233.695
233.918
234.138
234.353
234.563
234.767
234.965
235.154
235.335
235.506
235.667
235.814
235.948
236.066
236.165
236.244
236.3
236.332
236.34
236.311
236.251
236.153
236.012
235.824
235.588
235.293
234.942
234.521
234.037
233.476
232.843
232.141
231.364
230.538
229.581
228.261
233.14
223.413
222.735
222.628
222.632
222.806
223.152
223.51
223.744
223.854
223.895
223.897
223.837
223.739
223.627
223.502
223.369
223.247
223.146
223.07
223.022
223.001
222.999
223.025
223.096
223.208
223.342
223.492
223.652
223.813
223.969
224.117
224.255
224.384
224.505
224.619
224.728
224.833
224.937
225.042
225.148
225.259
225.376
225.499
225.63
225.767
225.909
226.057
226.209
226.364
226.523
226.686
226.851
227.02
227.193
227.369
227.549
227.733
227.921
228.113
228.309
228.51
228.714
228.923
229.135
229.351
229.57
229.792
230.018
230.247
230.478
230.712
230.949
231.187
231.428
231.67
231.914
232.159
232.405
232.652
232.899
233.146
233.393
233.639
233.884
234.128
234.369
234.609
234.845
235.078
235.308
235.532
235.751
235.964
236.169
236.367
236.555
236.733
236.899
237.053
237.191
237.313
237.415
237.498
237.556
237.588
237.595
237.56
237.494
237.381
237.218
237.003
236.723
236.381
235.96
235.471
234.895
234.239
233.513
232.65
231.442
233.228
223.441
222.666
222.519
222.469
222.567
222.878
223.308
223.651
223.832
223.901
223.934
223.909
223.836
223.736
223.62
223.494
223.373
223.272
223.193
223.137
223.108
223.098
223.112
223.169
223.272
223.4
223.548
223.708
223.871
224.03
224.183
224.328
224.464
224.591
224.712
224.827
224.939
225.049
225.159
225.27
225.384
225.504
225.629
225.761
225.9
226.045
226.195
226.35
226.509
226.672
226.838
227.008
227.18
227.357
227.537
227.721
227.909
228.101
228.298
228.498
228.703
228.912
229.125
229.342
229.563
229.787
230.015
230.246
230.48
230.718
230.958
231.201
231.446
231.694
231.944
232.196
232.45
232.705
232.961
233.218
233.476
233.734
233.993
234.251
234.509
234.766
235.021
235.275
235.527
235.776
236.022
236.265
236.503
236.737
236.965
237.187
237.401
237.607
237.804
237.99
238.164
238.325
238.469
238.596
238.701
238.785
238.841
238.871
238.872
238.823
238.743
238.609
238.424
238.172
237.862
237.46
236.98
236.379
235.643
234.553
233.302
223.459
222.635
222.453
222.364
222.397
222.621
223.065
223.51
223.781
223.895
223.941
223.957
223.911
223.823
223.713
223.593
223.478
223.382
223.305
223.249
223.215
223.201
223.208
223.254
223.348
223.469
223.612
223.77
223.933
224.093
224.249
224.398
224.539
224.672
224.798
224.919
225.037
225.152
225.267
225.383
225.501
225.624
225.752
225.886
226.027
226.173
226.326
226.483
226.645
226.811
226.981
227.154
227.33
227.511
227.694
227.882
228.074
228.27
228.47
228.674
228.883
229.096
229.313
229.534
229.759
229.988
230.22
230.456
230.695
230.938
231.183
231.432
231.683
231.937
232.194
232.452
232.713
232.976
233.24
233.506
233.773
234.041
234.309
234.578
234.847
235.116
235.385
235.653
235.92
236.185
236.449
236.71
236.969
237.225
237.477
237.725
237.968
238.205
238.436
238.659
238.874
239.08
239.274
239.457
239.627
239.78
239.917
240.031
240.126
240.19
240.226
240.231
240.181
240.094
239.951
239.739
239.467
239.055
238.557
237.712
233.341
223.443
222.617
222.411
222.295
222.272
222.409
222.814
223.332
223.699
223.877
223.947
223.985
223.961
223.889
223.786
223.671
223.563
223.474
223.404
223.35
223.317
223.302
223.307
223.347
223.433
223.548
223.686
223.84
224
224.16
224.316
224.467
224.611
224.749
224.88
225.006
225.128
225.248
225.368
225.488
225.61
225.736
225.867
226.003
226.146
226.295
226.449
226.609
226.773
226.942
227.115
227.291
227.471
227.654
227.841
228.032
228.227
228.427
228.63
228.838
229.05
229.267
229.487
229.712
229.941
230.173
230.41
230.65
230.893
231.14
231.391
231.644
231.901
232.16
232.422
232.686
232.953
233.222
233.493
233.766
234.041
234.316
234.593
234.871
235.15
235.429
235.708
235.987
236.267
236.545
236.823
237.1
237.375
237.648
237.919
238.187
238.452
238.714
238.971
239.224
239.471
239.712
239.945
240.171
240.388
240.594
240.787
240.967
241.132
241.278
241.401
241.505
241.575
241.619
241.63
241.595
241.524
241.351
241.138
240.655
233.359
223.398
222.593
222.381
222.239
222.183
222.252
222.579
223.13
223.594
223.85
223.949
223.995
223.993
223.94
223.841
223.731
223.631
223.55
223.488
223.441
223.412
223.399
223.405
223.445
223.525
223.633
223.766
223.915
224.071
224.228
224.384
224.535
224.681
224.822
224.956
225.087
225.213
225.338
225.462
225.586
225.712
225.842
225.975
226.114
226.259
226.409
226.566
226.727
226.894
227.065
227.241
227.42
227.602
227.789
227.979
228.173
228.371
228.574
228.78
228.991
229.207
229.426
229.65
229.878
230.11
230.346
230.586
230.83
231.078
231.329
231.583
231.841
232.102
232.366
232.633
232.902
233.175
233.449
233.726
234.005
234.286
234.568
234.852
235.137
235.424
235.711
235.999
236.288
236.577
236.866
237.155
237.444
237.732
238.018
238.304
238.588
238.87
239.15
239.427
239.701
239.972
240.238
240.499
240.755
241.005
241.247
241.482
241.708
241.924
242.13
242.323
242.501
242.66
242.796
242.912
243.014
243.1
243.142
243.123
243.02
233.331
223.339
222.551
222.346
222.19
222.121
222.141
222.38
222.929
223.481
223.812
223.947
223.998
224.015
223.972
223.879
223.775
223.683
223.612
223.559
223.521
223.499
223.489
223.5
223.544
223.62
223.723
223.851
223.994
224.146
224.299
224.452
224.603
224.75
224.892
225.029
225.163
225.293
225.421
225.549
225.677
225.807
225.939
226.076
226.217
226.364
226.517
226.675
226.839
227.008
227.181
227.359
227.54
227.726
227.915
228.107
228.304
228.505
228.71
228.92
229.134
229.352
229.575
229.801
230.032
230.268
230.507
230.75
230.997
231.248
231.503
231.761
232.023
232.288
232.556
232.827
233.101
233.378
233.658
233.94
234.224
234.51
234.799
235.089
235.38
235.673
235.968
236.263
236.559
236.856
237.154
237.452
237.749
238.047
238.344
238.641
238.936
239.231
239.524
239.815
240.104
240.39
240.674
240.954
241.23
241.502
241.769
242.03
242.284
242.532
242.771
243.001
243.22
243.427
243.616
243.789
243.949
244.098
244.238
244.327
244.408
233.245
223.269
222.504
222.309
222.14
222.063
222.057
222.226
222.75
223.37
223.768
223.941
223.998
224.023
223.988
223.904
223.808
223.724
223.662
223.62
223.592
223.577
223.574
223.592
223.641
223.715
223.815
223.937
224.075
224.221
224.371
224.521
224.67
224.816
224.96
225.099
225.235
225.368
225.5
225.631
225.762
225.895
226.031
226.17
226.314
226.463
226.617
226.778
226.943
227.114
227.29
227.469
227.653
227.841
228.032
228.227
228.427
228.63