/*--------------------------------*- C++ -*----------------------------------*\
| =========                 |                                                 |
| \\      /  F ield         | OpenFOAM: The Open Source CFD Toolbox           |
|  \\    /   O peration     | Version:  2406                                  |
|   \\  /    A nd           | Website:  www.openfoam.com                      |
|    \\/     M anipulation  |                                                 |
\*---------------------------------------------------------------------------*/
FoamFile
{
    version     2.0;
    format      ascii;
    arch        "LSB;label=32;scalar=64";
    class       volVectorField;
    location    "0.054";
    object      U;
}
// * * * * * * * * * * * * * * * * * * * * * * * * * * * * * * * * * * * * * //

dimensions      [0 1 -1 0 0 0 0];

internalField   nonuniform List<vector> 
78650
(
(160.141 41.0771 0)
(195.654 -4.36501 0)
(203.348 -5.55817 0)
(205.07 -4.46876 0)
(206.645 -4.22674 0)
(207.787 -3.63251 0)
(208.953 -3.22897 0)
(210.002 -2.86644 0)
(210.922 -2.60854 0)
(211.658 -2.42153 0)
(212.227 -2.30938 0)
(212.68 -2.24934 0)
(213.082 -2.19934 0)
(213.484 -2.11515 0)
(213.915 -1.98207 0)
(214.379 -1.79792 0)
(214.863 -1.5636 0)
(215.345 -1.28202 0)
(215.788 -0.951877 0)
(216.162 -0.570263 0)
(216.449 -0.133367 0)
(216.666 0.359409 0)
(216.834 0.908015 0)
(216.985 1.50558 0)
(217.148 2.14137 0)
(217.314 2.8187 0)
(217.5 3.53687 0)
(217.699 4.28582 0)
(217.903 5.05682 0)
(218.102 5.84663 0)
(218.294 6.65486 0)
(218.478 7.48079 0)
(218.654 8.32566 0)
(218.819 9.19058 0)
(218.975 10.0776 0)
(219.12 10.9883 0)
(219.255 11.9242 0)
(219.38 12.8865 0)
(219.496 13.8761 0)
(219.601 14.8933 0)
(219.698 15.9388 0)
(219.788 17.013 0)
(219.871 18.1163 0)
(219.947 19.2493 0)
(220.019 20.4126 0)
(220.087 21.6066 0)
(220.152 22.8318 0)
(220.217 24.0887 0)
(220.284 25.3776 0)
(220.354 26.699 0)
(220.432 28.0531 0)
(220.519 29.4404 0)
(220.619 30.8616 0)
(220.736 32.3169 0)
(220.873 33.8061 0)
(221.033 35.3293 0)
(221.224 36.8872 0)
(221.452 38.4801 0)
(221.715 40.1075 0)
(222.024 41.7691 0)
(222.389 43.4644 0)
(222.81 45.1921 0)
(223.293 46.9525 0)
(223.856 48.7455 0)
(224.49 50.5692 0)
(225.207 52.4229 0)
(226.033 54.303 0)
(226.951 56.2053 0)
(227.983 58.1271 0)
(229.154 60.0627 0)
(230.437 62.0109 0)
(231.872 63.9659 0)
(233.465 65.9174 0)
(235.196 67.8592 0)
(237.118 69.7787 0)
(239.223 71.6669 0)
(241.499 73.5226 0)
(243.984 75.3334 0)
(246.676 77.0862 0)
(249.56 78.7825 0)
(252.675 80.4003 0)
(256.005 81.9169 0)
(259.533 83.3367 0)
(263.321 84.5875 0)
(267.307 85.7156 0)
(271.474 86.6912 0)
(275.703 87.5156 0)
(279.891 88.2198 0)
(284.502 88.7265 0)
(289.617 88.8511 0)
(295.08 88.8523 0)
(299.833 88.7911 0)
(304.187 88.6317 0)
(308.496 88.2631 0)
(313.942 87.4057 0)
(319.713 86.3196 0)
(324.754 85.4567 0)
(328.634 84.7463 0)
(331.59 83.9694 0)
(334.798 83.0482 0)
(339.355 81.8782 0)
(344.327 80.7178 0)
(349.18 79.5202 0)
(352.752 78.3124 0)
(355.529 77.0821 0)
(357.746 75.9818 0)
(359.937 74.551 0)
(361.848 73.7301 0)
(364.457 72.5701 0)
(366.704 71.9093 0)
(369.651 70.7887 0)
(371.962 70.0301 0)
(374.538 68.9382 0)
(376.021 68.3904 0)
(377.17 67.5193 0)
(377.812 67.0397 0)
(378.83 66.3842 0)
(380.366 66.0876 0)
(382.633 65.7123 0)
(385.758 65.2373 0)
(386.937 66.8397 0)
(161.229 41.3125 0)
(195.649 -3.2347 0)
(202.978 -5.16674 0)
(204.764 -4.19238 0)
(206.477 -4.03602 0)
(207.698 -3.49564 0)
(208.863 -3.13754 0)
(209.867 -2.80594 0)
(210.741 -2.57813 0)
(211.437 -2.4097 0)
(211.977 -2.31924 0)
(212.408 -2.2649 0)
(212.796 -2.20726 0)
(213.186 -2.10974 0)
(213.603 -1.96171 0)
(214.051 -1.76263 0)
(214.525 -1.51522 0)
(215.011 -1.22325 0)
(215.479 -0.885842 0)
(215.891 -0.500484 0)
(216.215 -0.063235 0)
(216.452 0.426398 0)
(216.614 0.97074 0)
(216.74 1.56023 0)
(216.86 2.18611 0)
(216.976 2.85046 0)
(217.111 3.55598 0)
(217.264 4.29451 0)
(217.432 5.05546 0)
(217.604 5.83563 0)
(217.773 6.63374 0)
(217.935 7.44952 0)
(218.087 8.28349 0)
(218.227 9.13678 0)
(218.356 10.0115 0)
(218.473 10.909 0)
(218.579 11.8308 0)
(218.673 12.7782 0)
(218.757 13.7524 0)
(218.829 14.7535 0)
(218.892 15.7823 0)
(218.945 16.8394 0)
(218.991 17.925 0)
(219.028 19.0397 0)
(219.059 20.1843 0)
(219.084 21.359 0)
(219.105 22.5645 0)
(219.123 23.8013 0)
(219.14 25.0699 0)
(219.159 26.3706 0)
(219.181 27.704 0)
(219.209 29.0705 0)
(219.247 30.471 0)
(219.298 31.9059 0)
(219.364 33.3752 0)
(219.449 34.8791 0)
(219.56 36.4187 0)
(219.701 37.9942 0)
(219.872 39.6056 0)
(220.081 41.2531 0)
(220.34 42.9368 0)
(220.646 44.6554 0)
(221.007 46.4094 0)
(221.439 48.1995 0)
(221.934 50.024 0)
(222.503 51.8832 0)
(223.171 53.7754 0)
(223.919 55.6968 0)
(224.771 57.6464 0)
(225.751 59.6192 0)
(226.835 61.6112 0)
(228.065 63.6173 0)
(229.443 65.6316 0)
(230.952 67.6536 0)
(232.641 69.6771 0)
(234.505 71.6917 0)
(236.535 73.6865 0)
(238.773 75.6429 0)
(241.21 77.548 0)
(243.825 79.4024 0)
(246.658 81.1861 0)
(249.681 82.8902 0)
(252.882 84.5172 0)
(256.297 86.0163 0)
(259.838 87.4466 0)
(263.594 88.7399 0)
(267.58 89.9162 0)
(271.851 90.8507 0)
(276.435 91.6555 0)
(280.961 92.2259 0)
(285.179 92.7013 0)
(289.452 93.0481 0)
(294.16 93.1239 0)
(299.42 92.871 0)
(305.213 92.6187 0)
(309.874 92.2145 0)
(313.551 91.8709 0)
(317.418 91.362 0)
(322.336 90.5151 0)
(327.779 89.323 0)
(333.264 88.028 0)
(337.614 86.8388 0)
(340.823 86.0245 0)
(343.721 85.0776 0)
(346.526 84.0664 0)
(349.495 83.2229 0)
(353.2 82.0824 0)
(356.431 81.1211 0)
(360.471 79.7426 0)
(363.26 78.7264 0)
(366.517 77.2883 0)
(368.814 76.3666 0)
(371.148 75.2561 0)
(372.815 74.5927 0)
(374.237 73.6653 0)
(374.935 73.1401 0)
(375.649 72.2807 0)
(376.692 71.9169 0)
(378.97 71.5264 0)
(382.728 71.1149 0)
(384.279 73.1922 0)
(161.855 40.764 0)
(196.281 -2.42947 0)
(202.873 -4.77327 0)
(204.616 -3.90836 0)
(206.334 -3.83022 0)
(207.592 -3.36189 0)
(208.741 -3.05296 0)
(209.714 -2.7676 0)
(210.538 -2.5645 0)
(211.194 -2.41929 0)
(211.707 -2.33402 0)
(212.127 -2.29055 0)
(212.508 -2.23358 0)
(212.888 -2.12692 0)
(213.289 -1.96415 0)
(213.716 -1.74928 0)
(214.171 -1.48832 0)
(214.648 -1.18556 0)
(215.125 -0.839781 0)
(215.566 -0.447963 0)
(215.932 -0.00630516 0)
(216.205 0.484551 0)
(216.378 1.02889 0)
(216.494 1.6158 0)
(216.583 2.23411 0)
(216.656 2.88736 0)
(216.739 3.58166 0)
(216.839 4.307 0)
(216.959 5.0564 0)
(217.096 5.82476 0)
(217.237 6.61252 0)
(217.375 7.41837 0)
(217.503 8.24185 0)
(217.618 9.08425 0)
(217.72 9.9475 0)
(217.81 10.8328 0)
(217.887 11.7417 0)
(217.951 12.6756 0)
(218.003 13.6358 0)
(218.042 14.6223 0)
(218.07 15.6361 0)
(218.088 16.6779 0)
(218.096 17.7478 0)
(218.094 18.8466 0)
(218.083 19.9749 0)
(218.065 21.1332 0)
(218.041 22.3222 0)
(218.012 23.5424 0)
(217.979 24.7942 0)
(217.945 26.0783 0)
(217.911 27.3949 0)
(217.881 28.7447 0)
(217.857 30.1285 0)
(217.842 31.5468 0)
(217.838 32.9997 0)
(217.849 34.4875 0)
(217.882 36.0112 0)
(217.939 37.5711 0)
(218.02 39.1673 0)
(218.135 40.8005 0)
(218.293 42.4708 0)
(218.49 44.177 0)
(218.737 45.9197 0)
(219.047 47.6999 0)
(219.41 49.5159 0)
(219.84 51.3688 0)
(220.36 53.2575 0)
(220.947 55.1779 0)
(221.631 57.1295 0)
(222.43 59.1082 0)
(223.32 61.1116 0)
(224.344 63.1394 0)
(225.499 65.1872 0)
(226.768 67.2517 0)
(228.208 69.3228 0)
(229.803 71.3889 0)
(231.548 73.444 0)
(233.491 75.4802 0)
(235.615 77.4937 0)
(237.915 79.4863 0)
(240.439 81.4387 0)
(243.153 83.3437 0)
(246.073 85.1908 0)
(249.239 86.9447 0)
(252.596 88.626 0)
(256.209 90.145 0)
(259.969 91.5895 0)
(263.913 92.8628 0)
(267.933 93.9802 0)
(272.107 94.969 0)
(276.491 95.7541 0)
(281.338 96.3003 0)
(286.709 96.7102 0)
(291.411 96.7909 0)
(295.767 96.8222 0)
(299.833 96.9091 0)
(304.646 96.6681 0)
(310.047 96.0929 0)
(315.917 95.3535 0)
(320.685 94.6326 0)
(324.731 94.0776 0)
(328.6 93.3241 0)
(332.38 92.3978 0)
(336.455 91.3094 0)
(341.042 89.9512 0)
(345.216 88.6398 0)
(349.661 87.1823 0)
(353.015 86.1995 0)
(356.621 84.9453 0)
(359.215 84.2169 0)
(361.973 83.117 0)
(364.189 82.538 0)
(366.88 81.4778 0)
(368.864 80.8157 0)
(370.9 79.6929 0)
(372.086 78.9406 0)
(373.3 77.9315 0)
(374.761 77.3128 0)
(377.299 76.7139 0)
(381.14 76.3974 0)
(382.761 78.5292 0)
(162.21 39.6732 0)
(196.994 -2.00503 0)
(202.935 -4.38708 0)
(204.568 -3.60316 0)
(206.212 -3.60395 0)
(207.474 -3.23259 0)
(208.596 -2.98242 0)
(209.535 -2.74646 0)
(210.308 -2.57073 0)
(210.925 -2.44331 0)
(211.416 -2.36801 0)
(211.827 -2.31538 0)
(212.207 -2.24492 0)
(212.584 -2.12246 0)
(212.972 -1.94175 0)
(213.38 -1.71033 0)
(213.814 -1.4367 0)
(214.275 -1.12538 0)
(214.747 -0.774956 0)
(215.202 -0.381289 0)
(215.6 0.0599712 0)
(215.914 0.547708 0)
(216.113 1.08763 0)
(216.232 1.66986 0)
(216.303 2.27709 0)
(216.346 2.91952 0)
(216.382 3.59732 0)
(216.427 4.30718 0)
(216.491 5.04777 0)
(216.582 5.79829 0)
(216.687 6.57231 0)
(216.797 7.36523 0)
(216.899 8.17612 0)
(216.99 9.00581 0)
(217.067 9.85574 0)
(217.131 10.727 0)
(217.181 11.6209 0)
(217.216 12.5392 0)
(217.238 13.483 0)
(217.246 14.4526 0)
(217.241 15.4488 0)
(217.225 16.4724 0)
(217.197 17.5237 0)
(217.158 18.6033 0)
(217.109 19.7117 0)
(217.05 20.8496 0)
(216.983 22.0176 0)
(216.91 23.2163 0)
(216.83 24.4461 0)
(216.747 25.7078 0)
(216.662 27.0016 0)
(216.576 28.3282 0)
(216.494 29.6886 0)
(216.417 31.0836 0)
(216.347 32.5132 0)
(216.288 33.9778 0)
(216.246 35.4788 0)
(216.222 37.0165 0)
(216.218 38.591 0)
(216.24 40.2037 0)
(216.299 41.8552 0)
(216.389 43.5442 0)
(216.522 45.2719 0)
(216.71 47.0396 0)
(216.941 48.8459 0)
(217.233 50.6929 0)
(217.603 52.58 0)
(218.03 54.5038 0)
(218.545 56.4657 0)
(219.162 58.4636 0)
(219.858 60.4947 0)
(220.681 62.5576 0)
(221.621 64.6452 0)
(222.671 66.7543 0)
(223.884 68.8822 0)
(225.238 71.024 0)
(226.734 73.1764 0)
(228.422 75.3286 0)
(230.279 77.4702 0)
(232.31 79.5949 0)
(234.559 81.6838 0)
(236.982 83.7312 0)
(239.601 85.7226 0)
(242.434 87.6396 0)
(245.439 89.4962 0)
(248.674 91.2493 0)
(252.046 92.9545 0)
(255.674 94.5047 0)
(259.504 95.9803 0)
(263.664 97.2385 0)
(268.076 98.3888 0)
(272.458 99.2542 0)
(276.809 100.035 0)
(281.224 100.721 0)
(285.858 101.155 0)
(291.075 101.323 0)
(296.753 101.317 0)
(301.783 101.14 0)
(306.262 100.961 0)
(310.34 100.615 0)
(314.234 100.254 0)
(318.836 99.6748 0)
(324.028 98.8371 0)
(329.014 97.9145 0)
(334.028 96.854 0)
(338.021 96.0182 0)
(341.883 94.9575 0)
(344.988 94.0658 0)
(348.029 92.8605 0)
(350.656 91.9741 0)
(353.659 90.7784 0)
(356.221 90.1266 0)
(359.48 89.045 0)
(361.94 88.2401 0)
(364.373 86.9761 0)
(366.03 86.0061 0)
(367.613 85.0095 0)
(369.419 84.6538 0)
(372.163 84.2954 0)
(376.099 83.8773 0)
(377.63 85.9595 0)
(162.615 38.2651 0)
(197.583 -1.65 0)
(203.004 -4.00712 0)
(204.597 -3.30098 0)
(206.135 -3.39322 0)
(207.349 -3.13352 0)
(208.428 -2.95293 0)
(209.326 -2.76229 0)
(210.056 -2.60641 0)
(210.636 -2.49203 0)
(211.106 -2.41492 0)
(211.518 -2.35658 0)
(211.904 -2.27413 0)
(212.276 -2.13533 0)
(212.646 -1.9363 0)
(213.031 -1.68847 0)
(213.442 -1.40195 0)
(213.883 -1.08184 0)
(214.341 -0.726935 0)
(214.795 -0.331999 0)
(215.21 0.108778 0)
(215.559 0.5949 0)
(215.796 1.13195 0)
(215.934 1.7121 0)
(216.002 2.31643 0)
(216.033 2.94794 0)
(216.035 3.61303 0)
(216.021 4.31359 0)
(216.033 5.03129 0)
(216.072 5.77312 0)
(216.129 6.53234 0)
(216.2 7.31003 0)
(216.271 8.10712 0)
(216.334 8.92367 0)
(216.386 9.76043 0)
(216.424 10.6181 0)
(216.446 11.4978 0)
(216.453 12.4011 0)
(216.445 13.3296 0)
(216.421 14.2835 0)
(216.384 15.263 0)
(216.332 16.2697 0)
(216.268 17.3036 0)
(216.191 18.3653 0)
(216.102 19.4556 0)
(216.002 20.575 0)
(215.892 21.7242 0)
(215.773 22.9038 0)
(215.646 24.1144 0)
(215.512 25.3567 0)
(215.374 26.631 0)
(215.233 27.9379 0)
(215.091 29.278 0)
(214.952 30.6528 0)
(214.816 32.0624 0)
(214.687 33.5067 0)
(214.57 34.9876 0)
(214.468 36.5054 0)
(214.38 38.0597 0)
(214.315 39.6525 0)
(214.278 41.2845 0)
(214.267 42.9543 0)
(214.293 44.6636 0)
(214.367 46.4134 0)
(214.475 48.2022 0)
(214.64 50.0329 0)
(214.871 51.9051 0)
(215.149 53.8157 0)
(215.509 55.7672 0)
(215.956 57.7569 0)
(216.471 59.7812 0)
(217.103 61.8412 0)
(217.837 63.9333 0)
(218.667 66.0579 0)
(219.647 68.2144 0)
(220.746 70.3942 0)
(221.974 72.5908 0)
(223.382 74.7953 0)
(224.941 77.0011 0)
(226.665 79.2078 0)
(228.596 81.4059 0)
(230.689 83.5946 0)
(232.987 85.7629 0)
(235.51 87.8946 0)
(238.231 89.9811 0)
(241.188 91.9906 0)
(244.336 93.9401 0)
(247.751 95.7394 0)
(251.273 97.4867 0)
(255.027 99.031 0)
(258.858 100.53 0)
(262.932 101.851 0)
(267.131 102.928 0)
(271.826 103.925 0)
(276.82 104.691 0)
(281.578 105.21 0)
(286.374 105.632 0)
(290.682 105.952 0)
(295.058 106.179 0)
(300.154 106.138 0)
(305.359 105.784 0)
(310.924 105.309 0)
(316.184 104.649 0)
(320.344 104.22 0)
(324.909 103.391 0)
(328.396 102.809 0)
(332.105 101.827 0)
(335.624 101.039 0)
(339.625 100.025 0)
(343.318 99.2514 0)
(347.519 98.2297 0)
(350.911 97.475 0)
(354.896 96.3373 0)
(357.635 95.4957 0)
(360.355 94.1325 0)
(362.018 93.0065 0)
(363.297 91.6132 0)
(364.433 90.962 0)
(367.038 90.5494 0)
(371.698 90.2658 0)
(373.391 93.1646 0)
(163.218 36.6456 0)
(198.126 -1.25676 0)
(203.177 -3.69363 0)
(204.704 -3.07882 0)
(206.068 -3.24999 0)
(207.196 -3.10253 0)
(208.211 -2.98085 0)
(209.068 -2.80974 0)
(209.76 -2.6629 0)
(210.309 -2.54699 0)
(210.768 -2.46199 0)
(211.19 -2.38896 0)
(211.589 -2.28659 0)
(211.959 -2.12414 0)
(212.315 -1.90484 0)
(212.68 -1.64168 0)
(213.068 -1.34418 0)
(213.486 -1.01757 0)
(213.925 -0.660766 0)
(214.365 -0.268208 0)
(214.78 0.167126 0)
(215.146 0.64643 0)
(215.419 1.17465 0)
(215.589 1.74677 0)
(215.663 2.34923 0)
(215.699 2.9678 0)
(215.685 3.61895 0)
(215.627 4.3067 0)
(215.584 5.01205 0)
(215.567 5.73322 0)
(215.576 6.47262 0)
(215.598 7.23748 0)
(215.628 8.01624 0)
(215.659 8.81611 0)
(215.683 9.63674 0)
(215.695 10.4782 0)
(215.691 11.3419 0)
(215.671 12.228 0)
(215.634 13.1389 0)
(215.58 14.0746 0)
(215.512 15.0339 0)
(215.427 16.0217 0)
(215.328 17.0356 0)
(215.216 18.0766 0)
(215.09 19.1454 0)
(214.951 20.2427 0)
(214.8 21.3691 0)
(214.638 22.5252 0)
(214.467 23.7117 0)
(214.286 24.9293 0)
(214.099 26.1783 0)
(213.906 27.4595 0)
(213.711 28.7734 0)
(213.512 30.1221 0)
(213.314 31.5056 0)
(213.12 32.9223 0)
(212.934 34.3755 0)
(212.755 35.8664 0)
(212.588 37.394 0)
(212.438 38.9606 0)
(212.309 40.5674 0)
(212.199 42.213 0)
(212.121 43.8994 0)
(212.08 45.6278 0)
(212.067 47.3967 0)
(212.104 49.2105 0)
(212.196 51.0686 0)
(212.324 52.9683 0)
(212.527 54.9139 0)
(212.803 56.9025 0)
(213.138 58.9322 0)
(213.581 61.0066 0)
(214.107 63.1202 0)
(214.724 65.272 0)
(215.481 67.4603 0)
(216.342 69.677 0)
(217.328 71.9212 0)
(218.481 74.1898 0)
(219.767 76.4772 0)
(221.214 78.7802 0)
(222.856 81.0864 0)
(224.647 83.3884 0)
(226.638 85.6726 0)
(228.832 87.9259 0)
(231.205 90.1421 0)
(233.788 92.3092 0)
(236.561 94.434 0)
(239.576 96.4808 0)
(242.745 98.5002 0)
(246.226 100.362 0)
(249.844 102.183 0)
(253.793 103.808 0)
(257.954 105.341 0)
(262.223 106.596 0)
(266.698 107.798 0)
(271.004 108.759 0)
(275.635 109.649 0)
(280.414 110.294 0)
(285.628 110.682 0)
(291.063 110.922 0)
(296.187 110.959 0)
(300.594 111.088 0)
(305.479 110.872 0)
(309.643 110.635 0)
(314.292 110.156 0)
(318.921 109.626 0)
(323.864 108.817 0)
(328.713 107.83 0)
(333.491 106.712 0)
(337.646 105.755 0)
(341.763 104.719 0)
(344.988 104.076 0)
(348.545 103.099 0)
(351.268 102.566 0)
(354.269 101.518 0)
(356.271 100.686 0)
(358.126 99.4253 0)
(359.962 98.6411 0)
(363.123 97.8634 0)
(368.069 97.4863 0)
(369.901 100.342 0)
(164.05 34.9182 0)
(198.7 -0.845692 0)
(203.393 -3.45536 0)
(204.849 -2.97641 0)
(206.027 -3.21971 0)
(207.038 -3.12073 0)
(207.985 -3.02222 0)
(208.793 -2.86739 0)
(209.444 -2.72701 0)
(209.957 -2.61057 0)
(210.408 -2.51971 0)
(210.844 -2.4282 0)
(211.257 -2.29828 0)
(211.631 -2.11057 0)
(211.978 -1.87402 0)
(212.325 -1.59958 0)
(212.689 -1.29446 0)
(213.081 -0.963455 0)
(213.495 -0.606489 0)
(213.915 -0.218668 0)
(214.317 0.208291 0)
(214.682 0.6785 0)
(214.976 1.19653 0)
(215.179 1.75988 0)
(215.27 2.3618 0)
(215.321 2.97235 0)
(215.308 3.61415 0)
(215.23 4.29233 0)
(215.145 4.9835 0)
(215.074 5.68855 0)
(215.024 6.41318 0)
(214.993 7.15575 0)
(214.977 7.91753 0)
(214.967 8.70179 0)
(214.956 9.505 0)
(214.937 10.3302 0)
(214.905 11.1777 0)
(214.858 12.046 0)
(214.792 12.9394 0)
(214.708 13.8574 0)
(214.607 14.8008 0)
(214.49 15.7689 0)
(214.356 16.7632 0)
(214.207 17.7842 0)
(214.043 18.8326 0)
(213.865 19.9091 0)
(213.673 21.0143 0)
(213.467 22.1488 0)
(213.25 23.3134 0)
(213.021 24.5085 0)
(212.783 25.7349 0)
(212.537 26.9933 0)
(212.285 28.2845 0)
(212.028 29.6089 0)
(211.769 30.9671 0)
(211.509 32.3601 0)
(211.253 33.7886 0)
(210.999 35.2564 0)
(210.753 36.7591 0)
(210.521 38.2989 0)
(210.303 39.8796 0)
(210.099 41.4997 0)
(209.922 43.1605 0)
(209.774 44.8638 0)
(209.648 46.6072 0)
(209.567 48.3961 0)
(209.529 50.2291 0)
(209.521 52.1039 0)
(209.582 54.0266 0)
(209.7 55.9934 0)
(209.869 58.0031 0)
(210.135 60.0599 0)
(210.468 62.1572 0)
(210.885 64.2969 0)
(211.427 66.4812 0)
(212.052 68.7038 0)
(212.791 70.9663 0)
(213.679 73.2647 0)
(214.68 75.5896 0)
(215.835 77.9389 0)
(217.169 80.306 0)
(218.635 82.6897 0)
(220.296 85.0859 0)
(222.151 87.4846 0)
(224.187 89.8752 0)
(226.442 92.2458 0)
(228.907 94.5864 0)
(231.595 96.8677 0)
(234.464 99.099 0)
(237.612 101.207 0)
(240.862 103.287 0)
(244.416 105.181 0)
(248.023 107.055 0)
(251.92 108.737 0)
(256.001 110.283 0)
(260.412 111.647 0)
(265.044 112.853 0)
(269.855 113.932 0)
(274.732 114.805 0)
(279.366 115.491 0)
(284.154 115.987 0)
(288.545 116.369 0)
(293.399 116.614 0)
(298.491 116.627 0)
(303.642 116.425 0)
(309.009 116.077 0)
(313.674 115.757 0)
(318.498 115.244 0)
(322.663 114.701 0)
(326.576 114.061 0)
(330.394 113.2 0)
(333.704 112.512 0)
(337.541 111.44 0)
(340.807 110.752 0)
(344.653 109.734 0)
(347.323 108.985 0)
(349.861 107.835 0)
(352.151 107.074 0)
(355.392 106.396 0)
(360.667 105.815 0)
(362.383 108.891 0)
(165.012 33.1207 0)
(199.316 -0.556533 0)
(203.697 -3.25981 0)
(205.052 -2.86266 0)
(206.077 -3.13152 0)
(206.984 -3.07806 0)
(207.849 -3.01117 0)
(208.578 -2.88862 0)
(209.162 -2.76958 0)
(209.631 -2.67337 0)
(210.062 -2.58472 0)
(210.489 -2.47875 0)
(210.896 -2.31804 0)
(211.274 -2.10133 0)
(211.627 -1.83831 0)
(211.967 -1.54437 0)
(212.312 -1.22731 0)
(212.677 -0.891283 0)
(213.065 -0.536686 0)
(213.46 -0.157377 0)
(213.841 0.256927 0)
(214.188 0.713411 0)
(214.484 1.21609 0)
(214.703 1.76509 0)
(214.821 2.35643 0)
(214.885 2.96439 0)
(214.884 3.59397 0)
(214.808 4.2612 0)
(214.703 4.94137 0)
(214.59 5.6319 0)
(214.486 6.33786 0)
(214.399 7.06087 0)
(214.329 7.80284 0)
(214.272 8.56481 0)
(214.221 9.34804 0)
(214.167 10.1531 0)
(214.104 10.9802 0)
(214.027 11.8306 0)
(213.933 12.7041 0)
(213.821 13.6016 0)
(213.69 14.5235 0)
(213.542 15.4704 0)
(213.375 16.4429 0)
(213.192 17.4413 0)
(212.992 18.4664 0)
(212.777 19.5188 0)
(212.545 20.5992 0)
(212.3 21.7082 0)
(212.04 22.8464 0)
(211.767 24.0145 0)
(211.482 25.2132 0)
(211.188 26.443 0)
(210.884 27.7047 0)
(210.572 28.9993 0)
(210.255 30.3277 0)
(209.934 31.6905 0)
(209.612 33.089 0)
(209.29 34.5229 0)
(208.972 35.9934 0)
(208.662 37.5019 0)
(208.358 39.0521 0)
(208.062 40.6424 0)
(207.79 42.2706 0)
(207.535 43.9434 0)
(207.298 45.6574 0)
(207.1 47.419 0)
(206.933 49.2265 0)
(206.789 51.0773 0)
(206.706 52.9799 0)
(206.665 54.9287 0)
(206.669 56.9245 0)
(206.758 58.9728 0)
(206.897 61.0662 0)
(207.115 63.2095 0)
(207.444 65.4038 0)
(207.84 67.6401 0)
(208.345 69.9216 0)
(208.985 72.245 0)
(209.722 74.6035 0)
(210.608 77.0003 0)
(211.651 79.4293 0)
(212.813 81.8851 0)
(214.163 84.362 0)
(215.688 86.8465 0)
(217.379 89.3285 0)
(219.273 91.8041 0)
(221.359 94.2691 0)
(223.644 96.7133 0)
(226.13 99.1372 0)
(228.88 101.503 0)
(231.783 103.851 0)
(235.015 106.077 0)
(238.366 108.283 0)
(242.066 110.278 0)
(245.901 112.216 0)
(249.995 113.929 0)
(254.234 115.567 0)
(258.578 117.012 0)
(263.11 118.357 0)
(267.574 119.418 0)
(272.643 120.464 0)
(277.648 121.142 0)
(282.895 121.697 0)
(288.272 122.063 0)
(293.095 122.295 0)
(298.407 122.34 0)
(302.807 122.373 0)
(307.589 122.151 0)
(311.993 121.81 0)
(316.304 121.339 0)
(320.934 120.66 0)
(325.053 120.144 0)
(330.06 119.366 0)
(334.09 118.784 0)
(338.339 117.858 0)
(341.123 117.138 0)
(343.303 115.952 0)
(344.977 115.119 0)
(347.849 114.569 0)
(353.716 113.977 0)
(355.403 117.909 0)
(165.948 31.2944 0)
(199.858 -0.289091 0)
(204.079 -2.98178 0)
(205.381 -2.69603 0)
(206.294 -3.00951 0)
(207.101 -2.9648 0)
(207.861 -2.90842 0)
(208.485 -2.82309 0)
(208.976 -2.73938 0)
(209.392 -2.65245 0)
(209.783 -2.55715 0)
(210.172 -2.44202 0)
(210.552 -2.28368 0)
(210.917 -2.07425 0)
(211.257 -1.80906 0)
(211.584 -1.5083 0)
(211.913 -1.18038 0)
(212.256 -0.835754 0)
(212.622 -0.480288 0)
(212.997 -0.108446 0)
(213.356 0.291694 0)
(213.679 0.73109 0)
(213.959 1.21468 0)
(214.175 1.74645 0)
(214.314 2.32268 0)
(214.386 2.92739 0)
(214.397 3.54727 0)
(214.341 4.20603 0)
(214.234 4.87877 0)
(214.1 5.55838 0)
(213.956 6.25003 0)
(213.817 6.9552 0)
(213.692 7.67698 0)
(213.582 8.41809 0)
(213.482 9.18027 0)
(213.386 9.96442 0)
(213.286 10.7711 0)
(213.176 11.6008 0)
(213.051 12.4541 0)
(212.908 13.3314 0)
(212.747 14.2331 0)
(212.566 15.1593 0)
(212.366 16.1104 0)
(212.148 17.0869 0)
(211.912 18.0894 0)
(211.659 19.1186 0)
(211.388 20.1753 0)
(211.101 21.2599 0)
(210.798 22.3733 0)
(210.48 23.516 0)
(210.148 24.6888 0)
(209.803 25.8923 0)
(209.446 27.1272 0)
(209.079 28.3943 0)
(208.703 29.6945 0)
(208.321 31.0285 0)
(207.933 32.3974 0)
(207.542 33.8021 0)
(207.151 35.2435 0)
(206.761 36.723 0)
(206.376 38.2405 0)
(205.998 39.7961 0)
(205.634 41.3927 0)
(205.277 43.0358 0)
(204.937 44.7168 0)
(204.629 46.4424 0)
(204.339 48.2159 0)
(204.075 50.0314 0)
(203.86 51.9004 0)
(203.674 53.8149 0)
(203.529 55.777 0)
(203.456 57.7932 0)
(203.419 59.8547 0)
(203.456 61.9692 0)
(203.585 64.1368 0)
(203.765 66.3494 0)
(204.048 68.6161 0)
(204.442 70.9345 0)
(204.914 73.298 0)
(205.527 75.7105 0)
(206.274 78.1639 0)
(207.126 80.6544 0)
(208.158 83.1853 0)
(209.342 85.7481 0)
(210.682 88.337 0)
(212.221 90.9472 0)
(213.947 93.5667 0)
(215.864 96.1825 0)
(217.994 98.7846 0)
(220.357 101.346 0)
(222.884 103.877 0)
(225.693 106.328 0)
(228.627 108.762 0)
(231.9 111.055 0)
(235.259 113.329 0)
(238.961 115.408 0)
(242.777 117.456 0)
(246.891 119.302 0)
(251.219 121.064 0)
(255.784 122.574 0)
(260.517 123.968 0)
(265.438 125.185 0)
(269.898 126.142 0)
(275.043 127.059 0)
(279.619 127.665 0)
(284.644 128.138 0)
(289.731 128.504 0)
(294.51 128.734 0)
(299.883 128.779 0)
(304.903 128.596 0)
(310.319 128.163 0)
(314.877 127.774 0)
(319.811 127.299 0)
(323.87 126.855 0)
(327.908 126.055 0)
(331.114 125.236 0)
(334.065 124.024 0)
(336.524 123.172 0)
(340.082 122.549 0)
(346.32 122.301 0)
(348.018 126.774 0)
(166.809 29.4492 0)
(200.44 -0.115713 0)
(204.575 -2.76991 0)
(205.723 -2.52719 0)
(206.563 -2.81466 0)
(207.319 -2.74172 0)
(208.01 -2.68847 0)
(208.542 -2.63192 0)
(208.958 -2.57478 0)
(209.317 -2.49845 0)
(209.655 -2.40494 0)
(209.994 -2.30315 0)
(210.326 -2.1727 0)
(210.638 -1.9892 0)
(210.923 -1.75158 0)
(211.202 -1.46928 0)
(211.492 -1.14287 0)
(211.809 -0.795137 0)
(212.156 -0.437237 0)
(212.517 -0.0686216 0)
(212.859 0.32172 0)
(213.162 0.745848 0)
(213.42 1.21043 0)
(213.616 1.72283 0)
(213.76 2.27905 0)
(213.83 2.8725 0)
(213.848 3.48145 0)
(213.814 4.13109 0)
(213.717 4.79499 0)
(213.581 5.46488 0)
(213.416 6.14421 0)
(213.242 6.8335 0)
(213.07 7.53611 0)
(212.908 8.25528 0)
(212.756 8.99382 0)
(212.612 9.75372 0)
(212.469 10.5363 0)
(212.321 11.3423 0)
(212.162 12.1723 0)
(211.988 13.0262 0)
(211.796 13.9044 0)
(211.585 14.8068 0)
(211.354 15.7338 0)
(211.103 16.6855 0)
(210.833 17.6626 0)
(210.545 18.6656 0)
(210.237 19.6952 0)
(209.912 20.752 0)
(209.569 21.8368 0)
(209.209 22.95 0)
(208.833 24.0923 0)
(208.442 25.2645 0)
(208.038 26.4673 0)
(207.62 27.7015 0)
(207.191 28.968 0)
(206.752 30.2677 0)
(206.304 31.6015 0)
(205.85 32.9702 0)
(205.391 34.3747 0)
(204.929 35.8163 0)
(204.467 37.2964 0)
(204.007 38.8162 0)
(203.551 40.377 0)
(203.103 41.978 0)
(202.668 43.6205 0)
(202.253 45.3082 0)
(201.838 47.0509 0)
(201.455 48.8279 0)
(201.106 50.6601 0)
(200.775 52.542 0)
(200.483 54.4734 0)
(200.246 56.4624 0)
(200.032 58.4985 0)
(199.89 60.593 0)
(199.819 62.7435 0)
(199.786 64.9427 0)
(199.852 67.2024 0)
(200.008 69.5162 0)
(200.232 71.8788 0)
(200.591 74.2977 0)
(201.057 76.7641 0)
(201.619 79.2776 0)
(202.349 81.8433 0)
(203.205 84.4483 0)
(204.206 87.0865 0)
(205.392 89.754 0)
(206.743 92.4423 0)
(208.268 95.1504 0)
(210 97.8746 0)
(211.938 100.598 0)
(214.06 103.32 0)
(216.453 106.015 0)
(219.007 108.704 0)
(221.879 111.309 0)
(224.882 113.896 0)
(228.264 116.32 0)
(231.738 118.719 0)
(235.548 120.909 0)
(239.469 123.065 0)
(243.616 125.039 0)
(247.938 126.918 0)
(252.476 128.623 0)
(257.083 130.043 0)
(261.82 131.354 0)
(267.043 132.571 0)
(271.762 133.371 0)
(277.458 134.241 0)
(282.11 134.824 0)
(287.68 135.318 0)
(292.214 135.634 0)
(297.381 135.595 0)
(301.794 135.516 0)
(306.258 135.331 0)
(310.808 135.16 0)
(315.564 134.803 0)
(319.915 134.257 0)
(323.848 133.365 0)
(326.839 132.681 0)
(330.379 132.207 0)
(336.287 131.959 0)
(337.927 135.817 0)
(167.374 27.5538 0)
(200.913 -0.253866 0)
(204.995 -2.64398 0)
(206.019 -2.32126 0)
(206.892 -2.5747 0)
(207.651 -2.49387 0)
(208.267 -2.4556 0)
(208.679 -2.4163 0)
(208.978 -2.36671 0)
(209.255 -2.30192 0)
(209.557 -2.21384 0)
(209.893 -2.10772 0)
(210.225 -1.97383 0)
(210.502 -1.80267 0)
(210.716 -1.60096 0)
(210.907 -1.36341 0)
(211.114 -1.08026 0)
(211.367 -0.762805 0)
(211.671 -0.419302 0)
(212.008 -0.058799 0)
(212.338 0.322894 0)
(212.63 0.73313 0)
(212.871 1.18026 0)
(213.045 1.67311 0)
(213.178 2.20846 0)
(213.235 2.786 0)
(213.256 3.3808 0)
(213.227 4.02183 0)
(213.143 4.67624 0)
(213.016 5.33909 0)
(212.848 6.00994 0)
(212.657 6.68784 0)
(212.453 7.37539 0)
(212.248 8.07582 0)
(212.047 8.79264 0)
(211.852 9.5289 0)
(211.661 10.2869 0)
(211.469 11.0683 0)
(211.27 11.8737 0)
(211.06 12.7034 0)
(210.833 13.5576 0)
(210.589 14.4361 0)
(210.325 15.3388 0)
(210.041 16.266 0)
(209.737 17.218 0)
(209.412 18.1954 0)
(209.068 19.1987 0)
(208.704 20.2286 0)
(208.32 21.2856 0)
(207.918 22.3705 0)
(207.498 23.4838 0)
(207.06 24.6263 0)
(206.607 25.7986 0)
(206.138 27.0016 0)
(205.655 28.2361 0)
(205.158 29.503 0)
(204.65 30.8032 0)
(204.132 32.1376 0)
(203.605 33.5072 0)
(203.072 34.9131 0)
(202.535 36.3562 0)
(201.995 37.8377 0)
(201.455 39.3588 0)
(200.918 40.921 0)
(200.387 42.5257 0)
(199.865 44.1749 0)
(199.353 45.8657 0)
(198.86 47.603 0)
(198.389 49.3897 0)
(197.919 51.2328 0)
(197.499 53.1151 0)
(197.111 55.0563 0)
(196.741 57.0455 0)
(196.438 59.096 0)
(196.183 61.2021 0)
(195.958 63.3577 0)
(195.825 65.579 0)
(195.756 67.8563 0)
(195.745 70.19 0)
(195.854 72.59 0)
(196.04 75.0438 0)
(196.318 77.5538 0)
(196.748 80.1268 0)
(197.277 82.7502 0)
(197.942 85.4261 0)
(198.775 88.1526 0)
(199.753 90.9198 0)
(200.898 93.727 0)
(202.242 96.5657 0)
(203.77 99.417 0)
(205.485 102.275 0)
(207.443 105.13 0)
(209.565 107.987 0)
(211.964 110.806 0)
(214.514 113.61 0)
(217.41 116.316 0)
(220.411 119.014 0)
(223.789 121.579 0)
(227.262 124.138 0)
(231.061 126.509 0)
(235.016 128.802 0)
(239.267 130.901 0)
(243.759 132.969 0)
(248.316 134.631 0)
(253.216 136.413 0)
(257.936 137.718 0)
(263.26 139.11 0)
(268.072 140.13 0)
(273.403 141.149 0)
(278.136 141.896 0)
(283.358 142.416 0)
(288.399 142.694 0)
(293.414 142.883 0)
(298.998 142.934 0)
(303.328 142.984 0)
(308.041 142.576 0)
(311.338 141.851 0)
(313.889 140.896 0)
(317.314 140.532 0)
(324.272 140.5 0)
(325.653 145.653 0)
(167.632 25.5175 0)
(201.347 -0.56715 0)
(205.307 -2.49319 0)
(206.246 -2.08123 0)
(207.287 -2.23722 0)
(208.108 -2.12776 0)
(208.64 -2.09255 0)
(208.926 -2.08673 0)
(209.138 -2.06006 0)
(209.363 -2.00277 0)
(209.628 -1.9305 0)
(209.91 -1.85376 0)
(210.167 -1.75456 0)
(210.381 -1.61132 0)
(210.563 -1.42131 0)
(210.727 -1.1937 0)
(210.864 -0.952821 0)
(211.021 -0.682168 0)
(211.233 -0.383102 0)
(211.504 -0.0489488 0)
(211.802 0.316567 0)
(212.082 0.713299 0)
(212.311 1.14571 0)
(212.471 1.61996 0)
(212.58 2.13637 0)
(212.618 2.69219 0)
(212.634 3.27075 0)
(212.592 3.89732 0)
(212.512 4.53839 0)
(212.393 5.19215 0)
(212.233 5.85383 0)
(212.041 6.52117 0)
(211.823 7.19514 0)
(211.591 7.87831 0)
(211.352 8.5743 0)
(211.112 9.28684 0)
(210.873 10.0192 0)
(210.634 10.7738 0)
(210.391 11.5521 0)
(210.141 12.3547 0)
(209.878 13.1818 0)
(209.599 14.0333 0)
(209.302 14.9089 0)
(208.985 15.8086 0)
(208.648 16.7325 0)
(208.291 17.6811 0)
(207.912 18.655 0)
(207.512 19.6545 0)
(207.091 20.6804 0)
(206.651 21.7331 0)
(206.19 22.8134 0)
(205.711 23.9219 0)
(205.213 25.0593 0)
(204.697 26.2263 0)
(204.165 27.4238 0)
(203.617 28.6527 0)
(203.054 29.914 0)
(202.478 31.2084 0)
(201.89 32.5371 0)
(201.292 33.901 0)
(200.686 35.3013 0)
(200.072 36.7393 0)
(199.454 38.2161 0)
(198.833 39.7328 0)
(198.212 41.2911 0)
(197.594 42.8927 0)
(196.98 44.5394 0)
(196.375 46.2326 0)
(195.78 47.974 0)
(195.2 49.761 0)
(194.645 51.6014 0)
(194.102 53.4999 0)
(193.577 55.4469 0)
(193.112 57.4531 0)
(192.669 59.5183 0)
(192.261 61.6345 0)
(191.93 63.8227 0)
(191.64 66.066 0)
(191.406 68.3701 0)
(191.277 70.7437 0)
(191.2 73.1706 0)
(191.215 75.6617 0)
(191.362 78.2223 0)
(191.58 80.8384 0)
(191.927 83.5179 0)
(192.419 86.2555 0)
(193.034 89.0416 0)
(193.807 91.8813 0)
(194.759 94.7702 0)
(195.865 97.6965 0)
(197.157 100.661 0)
(198.668 103.656 0)
(200.347 106.673 0)
(202.283 109.693 0)
(204.395 112.716 0)
(206.82 115.693 0)
(209.386 118.66 0)
(212.32 121.53 0)
(215.349 124.399 0)
(218.754 127.129 0)
(222.264 129.842 0)
(226.109 132.35 0)
(230.106 134.797 0)
(234.371 137.075 0)
(238.738 139.209 0)
(243.344 141.287 0)
(248.01 143.003 0)
(253.077 144.63 0)
(257.892 145.936 0)
(263.084 147.268 0)
(268.271 148.353 0)
(273.699 149.212 0)
(278.963 149.841 0)
(284.638 150.363 0)
(289.398 150.711 0)
(294.873 150.99 0)
(299.45 150.735 0)
(303.243 150.165 0)
(307.491 149.695 0)
(314.383 149.855 0)
(315.83 154.758 0)
(167.729 23.2549 0)
(201.664 -1.076 0)
(205.489 -2.32458 0)
(206.458 -1.79906 0)