/*--------------------------------*- C++ -*----------------------------------*\
| =========                 |                                                 |
| \\      /  F ield         | OpenFOAM: The Open Source CFD Toolbox           |
|  \\    /   O peration     | Version:  2412                                  |
|   \\  /    A nd           | Website:  www.openfoam.com                      |
|    \\/     M anipulation  |                                                 |
\*---------------------------------------------------------------------------*/
FoamFile
{
    version     2.0;
    format      ascii;
    arch        "LSB;label=32;scalar=64";
    class       volScalarField;
    location    "0.062";
    object      T;
}
// * * * * * * * * * * * * * * * * * * * * * * * * * * * * * * * * * * * * * //

dimensions      [0 0 0 1 0 0 0];

internalField   nonuniform List<scalar> 
9859
(
223.144
223.134
223.125
223.114
223.104
223.093
223.082
223.07
223.059
223.046
223.035
223.024
223.015
223.007
223
222.992
222.984
222.976
222.971
222.968
222.967
222.966
222.963
222.957
222.947
222.935
222.92
222.906
222.893
222.882
222.872
222.862
222.851
222.838
222.823
222.806
222.79
222.777
222.771
222.77
222.77
222.755
222.766
222.722
222.687
222.712
222.711
222.72
222.72
222.72
222.725
222.725
222.742
222.752
222.764
222.773
222.785
222.795
222.804
222.814
222.825
222.837
222.849
222.86
222.873
222.885
222.898
222.911
222.927
223.144
223.134
223.125
223.114
223.104
223.092
223.081
223.069
223.058
223.045
223.034
223.023
223.014
223.005
222.998
222.99
222.982
222.974
222.969
222.967
222.966
222.965
222.961
222.956
222.946
222.934
222.918
222.904
222.891
222.88
222.87
222.86
222.849
222.836
222.82
222.803
222.788
222.776
222.772
222.771
222.771
222.755
222.771
222.716
222.69
222.712
222.711
222.719
222.72
222.719
222.723
222.723
222.74
222.75
222.762
222.772
222.784
222.795
222.804
222.814
222.825
222.837
222.849
222.861
222.873
222.886
222.899
222.912
222.928
222.949
222.976
223.015
223.066
223.132
223.22
224.399
224.517
224.632
224.742
224.849
224.955
225.063
225.176
225.29
225.405
225.519
225.632
225.745
225.855
225.964
226.068
226.167
226.259
226.347
226.432
226.519
226.616
226.729
226.867
227.034
227.232
227.456
227.693
227.928
228.146
228.341
228.48
228.573
228.648
228.723
228.797
228.888
223.144
223.134
223.125
223.113
223.103
223.091
223.08
223.068
223.056
223.044
223.033
223.021
223.012
223.004
222.997
222.989
222.981
222.973
222.968
222.965
222.964
222.963
222.96
222.954
222.945
222.932
222.917
222.903
222.89
222.879
222.868
222.859
222.847
222.833
222.818
222.8
222.786
222.776
222.772
222.772
222.772
222.755
222.776
222.712
222.693
222.712
222.712
222.719
222.719
222.717
222.721
222.721
222.739
222.748
222.76
222.771
222.783
222.794
222.804
222.814
222.825
222.836
222.849
222.861
222.874
222.887
222.899
222.913
222.928
222.948
222.974
223.011
223.059
223.122
223.203
223.309
223.431
223.563
223.7
223.837
223.969
224.098
224.222
224.343
224.461
224.573
224.681
224.788
224.894
225.001
225.113
225.227
225.342
225.456
225.568
225.68
225.79
225.897
226
226.096
226.187
226.272
226.355
226.44
226.535
226.647
226.783
226.948
227.142
227.36
227.589
227.817
228.028
228.217
228.351
228.44
228.511
228.581
228.644
228.719
223.143
223.133
223.124
223.113
223.102
223.09
223.079
223.067
223.055
223.043
223.031
223.02
223.011
223.002
222.995
222.987
222.979
222.971
222.966
222.964
222.963
222.962
222.959
222.953
222.943
222.931
222.915
222.901
222.888
222.877
222.867
222.857
222.845
222.831
222.815
222.798
222.784
222.776
222.773
222.773
222.773
222.756
222.78
222.707
222.696
222.712
222.712
222.719
222.718
222.716
222.719
222.72
222.737
222.746
222.758
222.769
222.782
222.793
222.803
222.814
222.825
222.836
222.848
222.861
222.874
222.887
222.9
222.914
222.929
222.948
222.973
223.008
223.052
223.112
223.187
223.286
223.401
223.526
223.658
223.79
223.919
224.044
224.166
224.286
224.401
224.512
224.619
224.725
224.83
224.936
225.048
225.162
225.276
225.39
225.502
225.613
225.722
225.827
225.929
226.024
226.112
226.195
226.276
226.359
226.452
226.562
226.697
226.859
227.049
227.262
227.484
227.703
227.909
228.09
228.22
228.305
228.372
228.437
228.488
228.543
223.143
223.133
223.124
223.112
223.102
223.089
223.078
223.066
223.054
223.041
223.03
223.018
223.009
223.001
222.993
222.985
222.977
222.97
222.964
222.962
222.961
222.96
222.957
222.952
222.942
222.929
222.914
222.9
222.886
222.875
222.865
222.855
222.843
222.828
222.812
222.795
222.783
222.776
222.774
222.775
222.774
222.756
222.784
222.703
222.7
222.713
222.713
222.719
222.717
222.715
222.716
222.719
222.736
222.744
222.757
222.768
222.781
222.793
222.803
222.814
222.824
222.836
222.848
222.861
222.874
222.887
222.901
222.914
222.93
222.948
222.972
223.005
223.046
223.103
223.172
223.263
223.372
223.49
223.615
223.742
223.867
223.989
224.109
224.225
224.339
224.449
224.555
224.659
224.763
224.869
224.981
225.094
225.208
225.322
225.433
225.543
225.651
225.755
225.855
225.949
226.035
226.117
226.195
226.276
226.367
226.475
226.608
226.767
226.954
227.161
227.376
227.588
227.787
227.961
228.085
228.168
228.231
228.292
228.33
228.361
227.825
223.143
223.133
223.123
223.112
223.101
223.088
223.077
223.064
223.053
223.04
223.028
223.017
223.008
222.999
222.992
222.984
222.976
222.968
222.963
222.961
222.96
222.959
222.956
222.95
222.94
222.928
222.912
222.898
222.885
222.874
222.863
222.853
222.84
222.825
222.809
222.793
222.782
222.776
222.775
222.776
222.774
222.757
222.787
222.7
222.704
222.713
222.713
222.719
222.717
222.713
222.713
222.718
222.735
222.742
222.755
222.767
222.78
222.792
222.802
222.813
222.824
222.836
222.848
222.861
222.874
222.887
222.901
222.915
222.93
222.948
222.971
223.003
223.04
223.094
223.158
223.242
223.343
223.454
223.572
223.693
223.814
223.933
224.049
224.163
224.275
224.383
224.487
224.591
224.694
224.799
224.91
225.023
225.137
225.25
225.361
225.47
225.577
225.68
225.779
225.871
225.957
226.036
226.113
226.191
226.28
226.386
226.516
226.673
226.857
227.058
227.266
227.47
227.661
227.827
227.947
228.027
228.089
228.146
228.17
228.169
227.628
223.143
223.132
223.123
223.111
223.1
223.087
223.076
223.063
223.051
223.038
223.027
223.015
223.006
222.997
222.99
222.982
222.974
222.966
222.961
222.959
222.958
222.957
222.954
222.949
222.939
222.926
222.91
222.896
222.883
222.872
222.861
222.851
222.838
222.822
222.806
222.791
222.781
222.776
222.775
222.777
222.775
222.758
222.79
222.698
222.708
222.715
222.714
222.719
222.716
222.712
222.71
222.717
222.733
222.74
222.753
222.766
222.779
222.791
222.802
222.813
222.824
222.835
222.848
222.86
222.874
222.887
222.901
222.915
222.931
222.948
222.97
223
223.035
223.085
223.146
223.222
223.315
223.419
223.53
223.645
223.761
223.875
223.988
224.099
224.209
224.314
224.418
224.519
224.622
224.726
224.836
224.949
225.062
225.175
225.285
225.394
225.499
225.602
225.699
225.791
225.875
225.954
226.028
226.104
226.19
226.295
226.422
226.576
226.756
226.953
227.153
227.349
227.533
227.69
227.804
227.881
227.943
227.998
228.013
227.969
227.424
223.142
223.132
223.122
223.11
223.099
223.086
223.075
223.062
223.05
223.037
223.025
223.013
223.004
222.995
222.988
222.98
222.972
222.964
222.959
222.957
222.956
222.956
222.952
222.947
222.937
222.925
222.909
222.895
222.881
222.87
222.859
222.848
222.835
222.819
222.803
222.789
222.78
222.776
222.776
222.779
222.776
222.76
222.791
222.697
222.712
222.716
222.715
222.718
222.714
222.71
222.706
222.717
222.732
222.737
222.751
222.764
222.778
222.79
222.801
222.812
222.823
222.835
222.847
222.86
222.873
222.887
222.901
222.916
222.931
222.948
222.97
222.998
223.031
223.077
223.133
223.203
223.288
223.385
223.489
223.598
223.707
223.817
223.926
224.034
224.14
224.244
224.345
224.446
224.547
224.65
224.759
224.871
224.984
225.096
225.206
225.313
225.418
225.52
225.617
225.708
225.791
225.868
225.941
226.015
226.099
226.201
226.326
226.477
226.653
226.844
227.037
227.225
227.4
227.548
227.656
227.731
227.791
227.846
227.855
227.763
227.213
223.142
223.131
223.121
223.109
223.098
223.085
223.074
223.06
223.048
223.035
223.023
223.011
223.002
222.993
222.986
222.978
222.97
222.962
222.957
222.955
222.955
222.954
222.951
222.945
222.936
222.923
222.907
222.893
222.879
222.868
222.857
222.846
222.832
222.816
222.8
222.787
222.779
222.777
222.777
222.781
222.777
222.762
222.793
222.697
222.716
222.718
222.716
222.718
222.713
222.708
222.702
222.716
222.731
222.735
222.75
222.763
222.776
222.789
222.8
222.811
222.822
222.834
222.846
222.859
222.872
222.887
222.901
222.916
222.931
222.948
222.969
222.996
223.027
223.07
223.122
223.186
223.263
223.352
223.449
223.551
223.654
223.759
223.863
223.967
224.071
224.171
224.27
224.369
224.468
224.571
224.679
224.789
224.901
225.013
225.122
225.229
225.333
225.434
225.53
225.621
225.703
225.779
225.851
225.923
226.005
226.105
226.227
226.374
226.546
226.731
226.917
227.096
227.263
227.402
227.504
227.575
227.632
227.688
227.692
227.553
226.994
223.142
223.131
223.121
223.108
223.097
223.084
223.072
223.059
223.047
223.033
223.021
223.01
223
222.991
222.984
222.976
222.968
222.96
222.955
222.953
222.953
222.952
222.949
222.944
222.934
222.921
222.905
222.891
222.877
222.866
222.855
222.843
222.829
222.813
222.797
222.785
222.779
222.777
222.779
222.782
222.778
222.765
222.794
222.698
222.72
222.72
222.717
222.717
222.711
222.707
222.699
222.716
222.729
222.732
222.748
222.761
222.775
222.788
222.799
222.811
222.821
222.833
222.845
222.858
222.872
222.886
222.901
222.916
222.932
222.949
222.969
222.994
223.023
223.063
223.111
223.17
223.24
223.321
223.41
223.505
223.602
223.701
223.8
223.9
224
224.097
224.194
224.29
224.387
224.488
224.595
224.704
224.815
224.925
225.034
225.14
225.243
225.344
225.44
225.529
225.612
225.687
225.757
225.829
225.909
226.006
226.125
226.269
226.436
226.614
226.793
226.963
227.122
227.252
227.347
227.413
227.466
227.521
227.521
227.342
226.77
223.141
223.13
223.12
223.107
223.096
223.083
223.071
223.057
223.045
223.031
223.019
223.007
222.998
222.989
222.982
222.974
222.966
222.958
222.953
222.951
222.951
222.95
222.947
222.942
222.932
222.92
222.904
222.889
222.876
222.864
222.853
222.841
222.826
222.81
222.795
222.784
222.779
222.778
222.78
222.784
222.779
222.768
222.795
222.701
222.724
222.723
222.718
222.715
222.708
222.706
222.695
222.716
222.727
222.73
222.746
222.76
222.774
222.786
222.798
222.81
222.82
222.832
222.844
222.857
222.871
222.885
222.901
222.916
222.932
222.949
222.968
222.992
223.02
223.057
223.101
223.155
223.219
223.292
223.374
223.461
223.551
223.644
223.738
223.833
223.928
224.022
224.115
224.208
224.303
224.402
224.507
224.614
224.724
224.833
224.941
225.046
225.149
225.248
225.344
225.433
225.515
225.59
225.66
225.73
225.809
225.904
226.02
226.16
226.322
226.493
226.663
226.825
226.976
227.096
227.185
227.246
227.292
227.346
227.335
227.132
226.545
223.141
223.129
223.119
223.106
223.095
223.081
223.069
223.056
223.043
223.029
223.017
223.005
222.996
222.987
222.979
222.971
222.963
222.956
222.951
222.949
222.949
222.948
222.945
222.94
222.931
222.918
222.902
222.888
222.874
222.862
222.85
222.838
222.823
222.807
222.793
222.783
222.779
222.778
222.781
222.786
222.781
222.773
222.795
222.705
222.729
222.726
222.719
222.713
222.705
222.704
222.691
222.715
222.725
222.728
222.745
222.759
222.772
222.785
222.797
222.808
222.819
222.831
222.843
222.856
222.869
222.884
222.9
222.916
222.932
222.949
222.968
222.991
223.017
223.051
223.092
223.141
223.199
223.266
223.34
223.419
223.503
223.589
223.677
223.766
223.857
223.946
224.036
224.125
224.217
224.313
224.415
224.521
224.628
224.736
224.843
224.947
225.049
225.148
225.243
225.332
225.414
225.488
225.558
225.627
225.704
225.798
225.911
226.047
226.203
226.367
226.529
226.681
226.823
226.935
227.017
227.073
227.112
227.164
227.132
226.92
226.319
223.14
223.128
223.118
223.105
223.093
223.08
223.068
223.054
223.041
223.027
223.015
223.003
222.993
222.984
222.977
222.969
222.961
222.953
222.948
222.947
222.947
222.946
222.944
222.939
222.929
222.916
222.9
222.886
222.872
222.86
222.848
222.835
222.82
222.804
222.791
222.782
222.779
222.779
222.782
222.788
222.784
222.779
222.796
222.71
222.735
222.73
222.72
222.71
222.702
222.703
222.688
222.715
222.723
222.726
222.743
222.757
222.771
222.784
222.795
222.807
222.818
222.829
222.841
222.854
222.868
222.883
222.899
222.915
222.932
222.949
222.968
222.989
223.015
223.046
223.084
223.129
223.181
223.241
223.308
223.38
223.456
223.536
223.617
223.701
223.786
223.871
223.956
224.042
224.13
224.222
224.321
224.424
224.529
224.635
224.739
224.843
224.944
225.042
225.136
225.225
225.306
225.38
225.45
225.519
225.596
225.688
225.798
225.93
226.079
226.235
226.388
226.531
226.664
226.767
226.843
226.893
226.925
226.975
226.913
226.704
226.091
223.139
223.127
223.117
223.104
223.092
223.078
223.066
223.052
223.039
223.025
223.013
223.001
222.991
222.982
222.975
222.966
222.959
222.951
222.946
222.945
222.945
222.944
222.942
222.937
222.927
222.915
222.898
222.884
222.87
222.858
222.845
222.832
222.816
222.801
222.789
222.782
222.78
222.78
222.784
222.79
222.788
222.786
222.796
222.717
222.741
222.733
222.72
222.707
222.698
222.701
222.684
222.714
222.721
222.724
222.742
222.755
222.769
222.782
222.794
222.806
222.817
222.828
222.84
222.853
222.867
222.882
222.898
222.915
222.932
222.949
222.968
222.988
223.012
223.042
223.076
223.117
223.165
223.219
223.28
223.345
223.414
223.486
223.561
223.639
223.718
223.797
223.877
223.958
224.042
224.13
224.225
224.323
224.425
224.529
224.631
224.733
224.833
224.93
225.023
225.111
225.192
225.266
225.335
225.405
225.481
225.572
225.68
225.807
225.95
226.097
226.24
226.373
226.497
226.592
226.661
226.706
226.73
226.778
226.683
226.478
225.859
223.139
223.126
223.116
223.103
223.091
223.077
223.064
223.05
223.037
223.023
223.01
222.998
222.988
222.979
222.972
222.964
222.956
222.948
222.944
222.942
222.942
222.942
222.94
222.935
222.925
222.913
222.897
222.882
222.868
222.855
222.842
222.829
222.813
222.799
222.788
222.782
222.78
222.782
222.785
222.792
222.792
222.794
222.797
222.724
222.746
222.737
222.721
222.704
222.694
222.699
222.681
222.713
222.719
222.723
222.741
222.754
222.768
222.781
222.793
222.805
222.816
222.827
222.839
222.851
222.865
222.88
222.897
222.914
222.931
222.949
222.968
222.987
223.01
223.038
223.069
223.107
223.151
223.2
223.254
223.313
223.374
223.439
223.508
223.579
223.652
223.725
223.8
223.875
223.954
224.037
224.127
224.222
224.319
224.419
224.519
224.619
224.716
224.812
224.904
224.99
225.071
225.145
225.214
225.284
225.36
225.45
225.556
225.678
225.813
225.952
226.084
226.206
226.322
226.407
226.471
226.512
226.527
226.569
226.449
226.242
225.621
223.138
223.125
223.114
223.101
223.089
223.075
223.062
223.048
223.035
223.02
223.008
222.995
222.986
222.977
222.969
222.961
222.953
222.946
222.941
222.94
222.94
222.94
222.938
222.933
222.924
222.911
222.895
222.88
222.865
222.853
222.839
222.826
222.811
222.797
222.787
222.782
222.781
222.784
222.788
222.795
222.796
222.801
222.798
222.731
222.752
222.74
222.72
222.702
222.69
222.698
222.677
222.712
222.717
222.722
222.739
222.753
222.767
222.78
222.791
222.803
222.814
222.825
222.837
222.85
222.864
222.879
222.896
222.913
222.931
222.949
222.967
222.987
223.009
223.034
223.063
223.098
223.138
223.182
223.231
223.284
223.339
223.397
223.459
223.524
223.59
223.657
223.726
223.796
223.868
223.946
224.03
224.119
224.212
224.308
224.404
224.5
224.595
224.688
224.778
224.864
224.944
225.017
225.086
225.156
225.232
225.321
225.425
225.542
225.669
225.798
225.919
226.031
226.136
226.213
226.272
226.308
226.315
226.347
226.214
225.997
225.374
223.137
223.124
223.113
223.1
223.087
223.073
223.06
223.045
223.032
223.018
223.005
222.993
222.983
222.974
222.966
222.958
222.951
222.943
222.939
222.937
222.938
222.938
222.936
222.931
222.922
222.909
222.893
222.878
222.863
222.85
222.837
222.823
222.808
222.795
222.787
222.783
222.782
222.786
222.791
222.799
222.8
222.809
222.799
222.738
222.757
222.743
222.72
222.699
222.685
222.696
222.676
222.711
222.715
222.721
222.738
222.752
222.765
222.778
222.79
222.802
222.813
222.824
222.836
222.849
222.863
222.878
222.894
222.912
222.93
222.948
222.967
222.986
223.008
223.031
223.059
223.09
223.127
223.167
223.211
223.258
223.308
223.36
223.415
223.473
223.533
223.594
223.656
223.72
223.786
223.858
223.936
224.018
224.105
224.196
224.287
224.379
224.47
224.56
224.648
224.731
224.81
224.883
224.951
225.021
225.097
225.185
225.286
225.398
225.517
225.634
225.743
225.844
225.939
226.007
226.061
226.093
226.092
226.113
225.974
225.743
225.117
223.136
223.123
223.111
223.098
223.085
223.071
223.058
223.043
223.03
223.015
223.002
222.99
222.98
222.971
222.963
222.955
222.948
222.94
222.936
222.935
222.935
222.936
222.934
222.929
222.92
222.908
222.891
222.876
222.861
222.848
222.834
222.82
222.805
222.794
222.786
222.784
222.784
222.789
222.795
222.802
222.805
222.814
222.801
222.745
222.762
222.745
222.719
222.696
222.682
222.695
222.675
222.709
222.713
222.72
222.737
222.751
222.764
222.777
222.789
222.801
222.812
222.823
222.835
222.847
222.861
222.876
222.893
222.911
222.93
222.948
222.967
222.986
223.006
223.028
223.054
223.083
223.117
223.154
223.193
223.236
223.28
223.327
223.376
223.429
223.482
223.536
223.592
223.649
223.71
223.775
223.846
223.921
224.001
224.085
224.17
224.257
224.344
224.43
224.514
224.595
224.671
224.743
224.811
224.88
224.955
225.041
225.139
225.244
225.354
225.46
225.556
225.646
225.73
225.79
225.837
225.868
225.859
225.867
225.728
225.48
224.852
223.134
223.121
223.11
223.096
223.083
223.069
223.055
223.04
223.027
223.012
222.999
222.987
222.977
222.968
222.96
222.952
222.945
222.937
222.933
222.932
222.933
222.933
222.932
222.927
222.918
222.906
222.889
222.874
222.859
222.845
222.831
222.817
222.803
222.792
222.786
222.785
222.785
222.792
222.8
222.807
222.81
222.819
222.803
222.752
222.766
222.747
222.719
222.693
222.679
222.694
222.675
222.706
222.711
222.72
222.737
222.75
222.763
222.776
222.788
222.8
222.811
222.822
222.834
222.846
222.86
222.875
222.892
222.91
222.929
222.948
222.966
222.985
223.005
223.026
223.05
223.077
223.107
223.141
223.178
223.216
223.256
223.299
223.343
223.389
223.437
223.485
223.535
223.586
223.64
223.698
223.762
223.83
223.902
223.978
224.057
224.137
224.218
224.299
224.379
224.457
224.53
224.599
224.665
224.733
224.807
224.891
224.983
225.082
225.182
225.274
225.358
225.437
225.508
225.559
225.6
225.632
225.616
225.61
225.473
225.208
224.577
223.133
223.12
223.108
223.094
223.081
223.066
223.053
223.038
223.024
223.009
222.996
222.984
222.974
222.965
222.957
222.949
222.942
222.934
222.93
222.93
222.931
222.931
222.929
222.925
222.916
222.904
222.888
222.872
222.856
222.843
222.828
222.814
222.801
222.792
222.787
222.786
222.788
222.796
222.806
222.812
222.812
222.824
222.805
222.759
222.769
222.747
222.717
222.692
222.678
222.691
222.676
222.703
222.71
222.721
222.736
222.749
222.762
222.775
222.787
222.799
222.81
222.821
222.833
222.845
222.859
222.874
222.891
222.909
222.928
222.947
222.966
222.985
223.004
223.024
223.047
223.072
223.1
223.131
223.164
223.199
223.236
223.274
223.314
223.355
223.398
223.441
223.485
223.53
223.578
223.629
223.686
223.746
223.811
223.879
223.949
224.022
224.096
224.171
224.247
224.319
224.389
224.455
224.518
224.583
224.655
224.735
224.821
224.912
225
225.08
225.149
225.217
225.276
225.318
225.35
225.383
225.362
225.344
225.21
224.927
224.296
223.132
223.118
223.106
223.092
223.079
223.064
223.05
223.035
223.021
223.006
222.993
222.98
222.971
222.961
222.954
222.946
222.939
222.931
222.928
222.927
222.928
222.929
222.927
222.924
222.915
222.902
222.886
222.87
222.854
222.84
222.825
222.812
222.799
222.791
222.787
222.787
222.79
222.8
222.812
222.82
222.812
222.83
222.808
222.765
222.772
222.748
222.716
222.69
222.679
222.688
222.675
222.699
222.708
222.72
222.735
222.748
222.762
222.775
222.787
222.798
222.81
222.821
222.832
222.845
222.858
222.873
222.89
222.908
222.927
222.946
222.965
222.985
223.003
223.023
223.044
223.067
223.093
223.122
223.152
223.185
223.219
223.253
223.289
223.327
223.365
223.404
223.442
223.482
223.525
223.57
223.62
223.673
223.729
223.789
223.851
223.916
223.982
224.05
224.119
224.186
224.251
224.313
224.372
224.434
224.501
224.575
224.655
224.735
224.811
224.877
224.933
224.989
225.035
225.067
225.091
225.123
225.098
225.073
224.939
224.639
224.008
223.13
223.116
223.104
223.089
223.076
223.061
223.047
223.032
223.017
223.002
222.99
222.977
222.967
222.958
222.951
222.943
222.935
222.928
222.925
222.925
222.926
222.927
222.925
222.922
222.913
222.901
222.884
222.868
222.852
222.837
222.823
222.809
222.798
222.791
222.788
222.788
222.792
222.805
222.818
222.828
222.813
222.836
222.812
222.772
222.775
222.747
222.713
222.689
222.68
222.687
222.674
222.696
222.707
222.719
222.735
222.748
222.761
222.774
222.786
222.798
222.809
222.82
222.832
222.844
222.857
222.872
222.889
222.907
222.926
222.946
222.965
222.984
223.003
223.022
223.042
223.064
223.088
223.115
223.143
223.173
223.203
223.236
223.269
223.303
223.338
223.373
223.408
223.443
223.481
223.521
223.564
223.611
223.66
223.712
223.766
223.821
223.879
223.939
224.001
224.062
224.121
224.177
224.232
224.288
224.35
224.417
224.488
224.557
224.62
224.672
224.714
224.758
224.791
224.814
224.83
224.855
224.827
224.802
224.664
224.345
223.716
223.128
223.113
223.101
223.087
223.073
223.058
223.044
223.028
223.014
222.999
222.986
222.973
222.964
222.954
222.947
222.939
222.932
222.925
222.922
222.922
222.923
222.924
222.923
222.92
222.911
222.899
222.882
222.866
222.85
222.835
222.82
222.807
222.797
222.791
222.788
222.789
222.795
222.809
222.824
222.833
222.819
222.843
222.818
222.78
222.777
222.745
222.71
222.688
222.682
222.687
222.674
222.693
222.704
222.719
222.735
222.748
222.761
222.774
222.786
222.798
222.809
222.82
222.832
222.844
222.857
222.871
222.888
222.906
222.925
222.945
222.964
222.983
223.002
223.021
223.04
223.061
223.084
223.109
223.135
223.162
223.191
223.22
223.251
223.283
223.315
223.347
223.379
223.411
223.445
223.481
223.52
223.561
223.603
223.648
223.694
223.742
223.792
223.843
223.897
223.95
224.002
224.052
224.1
224.15
224.205
224.264
224.325
224.381
224.43
224.468
224.497
224.529
224.55
224.563
224.57
224.588
224.56
224.531
224.386
224.051
223.422
223.126
223.111
223.099
223.084
223.07
223.055
223.041
223.025
223.01
222.995
222.982
222.97
222.96
222.951
222.944
222.936
222.929
222.922
222.919
222.919
222.921
222.922
222.922
222.918
222.91
222.897
222.881
222.865
222.848
222.833
222.818
222.806
222.796
222.791
222.789
222.79
222.798
222.814
222.83
222.839
222.828
222.851
222.824
222.788
222.777
222.742
222.706
222.687
222.687
222.686
222.673
222.69
222.703
222.719
222.735
222.749
222.762
222.775
222.786
222.798
222.809
222.82
222.832
222.844
222.857
222.871
222.887
222.905
222.924
222.943
222.963
222.982
223.001
223.02
223.039
223.059
223.08
223.104
223.129
223.154
223.18
223.207
223.237
223.267
223.296
223.327
223.356
223.386
223.417
223.45
223.485
223.521
223.559
223.598
223.637
223.678
223.72
223.764
223.809
223.854
223.898
223.941
223.982
224.025
224.071
224.12
224.17
224.214
224.25
224.275
224.293
224.312
224.323
224.328
224.326
224.334
224.306
224.266
224.113
223.762
223.132
223.123
223.108
223.096
223.081
223.067
223.052
223.037
223.021
223.007
222.991
222.978
222.966
222.956
222.947
222.94
222.932
222.926
222.919
222.916
222.917
222.918
222.92
222.92
222.917
222.908
222.896
222.879
222.863
222.846
222.831
222.816
222.804
222.795
222.791
222.789
222.792
222.802
222.821
222.839
222.846
222.838
222.86
222.831
222.794
222.775
222.737
222.702
222.686
222.693
222.684
222.673
222.689
222.703
222.719
222.736
222.75
222.763
222.775
222.787
222.798
222.809
222.82
222.832
222.844
222.857
222.871
222.887
222.904
222.923
222.942
222.962
222.981
223
223.019
223.038
223.058
223.078
223.099
223.123
223.147
223.171
223.197
223.224
223.252
223.281
223.31
223.337
223.366
223.395
223.426
223.458
223.491
223.525
223.56
223.595
223.63
223.665
223.702
223.74
223.777
223.813
223.847
223.88
223.914
223.951
223.991
224.029
224.061
224.085
224.099
224.107
224.114
224.115
224.112
224.103
224.1
224.072
224.017
223.847
223.486
222.85
223.121
223.105
223.093
223.078
223.064
223.048
223.034
223.017
223.003
222.987
222.974
222.962
222.952
222.943
222.936
222.929
222.922
222.916
222.913
222.914
222.916
222.918
222.918
222.915
222.907
222.895
222.878
222.862
222.844
222.829
222.815
222.803
222.795
222.791
222.79
222.793
222.806
222.828
222.848
222.855
222.85
222.871
222.837
222.8
222.773
222.733
222.7
222.687
222.695
222.683
222.674
222.688
222.704
222.72
222.737
222.751
222.764
222.776
222.788
222.799
222.81
222.821
222.832
222.844
222.857
222.871
222.886
222.903
222.922
222.941
222.961
222.98
222.999
223.019
223.037
223.057
223.076
223.097
223.119
223.142
223.165
223.189
223.214
223.241
223.267
223.295
223.323
223.35
223.378
223.407
223.438
223.469
223.501
223.532
223.564
223.595
223.626
223.658
223.689
223.719
223.747
223.773
223.798
223.824
223.852
223.881
223.907
223.928
223.942
223.948
223.947
223.946
223.94
223.93
223.913
223.901
223.868
223.79
223.606
223.23
222.586
223.118
223.102
223.089
223.074
223.06
223.044
223.03
223.013
222.998
222.983
222.97
222.958
222.948
222.94
222.933
222.925
222.919
222.913
222.911
222.911
222.914
222.916
222.916
222.914
222.906
222.894
222.877
222.861
222.843
222.828
222.813
222.802
222.795
222.792
222.791
222.796
222.811
222.836
222.858
222.865
222.866
222.883
222.845
222.806
222.77
222.728
222.698
222.689
222.694
222.683
222.676
222.689
222.705
222.723
222.739
222.753
222.765
222.778
222.789
222.8
222.811
222.822
222.833
222.845
222.857
222.871
222.886
222.903
222.921
222.94
222.959
222.978
222.998
223.017
223.036
223.056
223.075
223.096
223.116
223.137
223.16
223.183
223.207
223.232
223.258
223.284
223.31
223.337
223.365
223.393
223.423
223.453
223.483
223.513
223.543
223.572
223.6
223.628
223.655
223.679
223.701
223.719
223.737
223.754
223.772
223.791
223.807
223.819
223.824
223.824
223.816
223.808
223.796
223.779
223.757
223.739
223.697
223.599
223.388
223.003
222.349
223.114
223.098
223.086
223.07
223.056
223.04
223.026
223.009
222.994
222.978
222.966
222.954
222.944
222.936
222.929
222.922
222.915
222.91
222.908
222.909
222.912
222.914
222.915
222.913
222.905
222.893
222.877
222.86
222.842
222.827
222.812
222.802
222.796
222.793
222.792
222.799
222.818
222.846
222.869
222.877
222.883
222.896
222.852
222.81
222.767
222.725
222.697
222.691
222.692
222.683
222.678
222.69
222.708
222.725
222.741
222.755
222.768
222.78
222.791
222.802
222.813
222.823
222.834
222.846
222.858
222.872
222.886
222.903
222.92
222.939
222.958
222.977
222.996
223.016
223.035
223.055
223.074
223.094
223.115
223.135
223.157
223.18
223.203
223.226
223.25
223.276
223.302
223.328
223.355
223.383
223.411
223.441
223.47
223.5
223.529
223.557
223.584
223.609
223.633
223.654
223.672
223.685
223.696
223.706
223.716
223.725
223.732
223.736
223.736
223.731
223.719
223.706
223.689
223.668
223.643
223.616
223.556
223.436
223.204
222.814
222.147
223.111
223.095
223.082
223.066
223.052
223.036
223.021
223.004
222.989
222.974
222.962
222.95
222.94
222.932
222.925
222.918
222.912
222.907
222.905
222.907
222.909
222.913
222.913
222.912
222.904
222.893
222.876
222.86
222.842
222.826
222.812
222.803
222.797
222.795
222.794
222.803
222.826
222.856
222.881
222.891
222.902
222.908
222.857
222.812
222.764
222.721
222.696
222.691
222.691
222.684
222.681
222.693
222.711
222.729
222.744
222.758
222.77
222.782
222.793
222.804
222.815
222.825
222.836
222.847
222.859
222.872
222.887
222.903
222.92
222.938
222.956
222.975
222.994
223.014
223.033
223.053
223.073
223.094
223.114
223.135
223.155
223.177
223.199
223.223
223.246
223.271
223.296
223.322
223.348
223.376
223.404
223.433
223.463
223.492
223.52
223.548
223.575
223.599
223.621
223.64
223.655
223.665
223.671
223.676
223.679
223.681
223.681
223.679
223.674
223.663
223.648
223.631
223.611
223.585
223.556
223.52
223.441
223.309
223.065
222.662
221.982
223.107
223.09
223.077
223.061
223.048
223.031
223.016
222.999
222.985
222.969
222.957
222.945
222.936
222.928
222.922
222.915
222.909
222.904
222.903
222.904
222.908
222.911
222.912
222.911
222.904
222.893
222.876
222.86
222.842
222.826
222.812
222.803
222.798
222.797
222.797
222.809
222.835
222.868
222.894
222.907
222.919
222.916
222.861
222.812
222.761
222.718
222.695
222.692
222.691
222.685
222.685
222.698
222.716
222.733
222.748
222.761
222.774
222.785
222.796
222.807
222.818
222.828
222.838
222.849
222.861
222.874
222.888
222.903
222.92
222.937
222.955
222.973
222.992
223.011
223.031
223.051
223.072
223.093
223.113
223.134
223.155
223.176
223.199
223.222
223.245
223.269
223.293
223.318
223.345
223.372
223.401
223.429
223.458
223.487
223.516
223.543
223.569
223.593
223.614
223.633
223.647
223.656
223.659
223.661
223.66
223.657
223.653
223.646
223.637
223.624
223.607
223.587
223.564
223.535
223.498
223.448
223.356
223.216
222.957
222.546
221.862
223.102
223.086
223.072
223.057
223.043
223.026
223.012
222.994
222.98
222.964
222.953
222.941
222.932
222.924
222.918
222.912
222.906
222.901
222.9
222.903
222.906
222.91
222.911
222.911
222.904
222.893
222.877
222.86
222.842
222.827
222.813
222.805
222.8
222.799
222.801
222.817
222.846
222.881
222.906
222.922
222.933
222.92
222.862
222.81
222.756
222.715
222.695
222.692
222.691
222.687
222.69
222.704
222.722
222.738
222.752
222.765
222.777
222.789
222.8
222.811
222.821
222.831
222.841
222.852
222.863
222.875
222.889
222.904
222.92
222.936
222.954
222.972
222.99
223.009
223.029
223.049
223.07
223.091
223.112
223.134
223.155
223.177
223.199
223.221
223.245
223.268
223.292
223.318
223.345
223.372
223.4
223.428
223.457
223.486
223.514
223.541
223.567
223.591
223.612
223.63
223.643
223.652
223.654
223.654
223.652
223.647
223.64
223.631
223.619
223.602
223.582
223.561
223.535
223.501
223.458
223.399
223.297
223.147
222.874
222.457
221.771
223.097
223.081
223.067