/*--------------------------------*- C++ -*----------------------------------*\
| =========                 |                                                 |
| \\      /  F ield         | OpenFOAM: The Open Source CFD Toolbox           |
|  \\    /   O peration     | Version:  2412                                  |
|   \\  /    A nd           | Website:  www.openfoam.com                      |
|    \\/     M anipulation  |                                                 |
\*---------------------------------------------------------------------------*/
FoamFile
{
    version     2.0;
    format      ascii;
    arch        "LSB;label=32;scalar=64";
    class       volScalarField;
    location    "0.049";
    object      p;
}
// * * * * * * * * * * * * * * * * * * * * * * * * * * * * * * * * * * * * * //

dimensions      [1 -1 -2 0 0 0 0];

internalField   nonuniform List<scalar> 
78650
(
2790
2790.01
2790.22
2792.4
2800.04
2810.31
2815.43
2816.57
2812.2
2799.54
2785.36
2774.3
2765.67
2757.71
2749.81
2743.87
2741.75
2742.2
2744.79
2747.97
2749.57
2749.8
2749.11
2747.49
2745.68
2743.99
2742.37
2740.74
2739.14
2737.59
2736.14
2734.77
2733.44
2732.03
2730.44
2728.61
2726.55
2724.31
2721.95
2719.52
2717.07
2714.65
2712.28
2709.99
2707.8
2705.72
2703.77
2701.96
2700.28
2698.71
2697.25
2695.9
2694.65
2693.49
2692.41
2691.38
2690.39
2689.41
2688.43
2687.4
2686.32
2685.15
2683.87
2682.45
2680.85
2679.03
2676.96
2674.57
2671.82
2668.63
2664.94
2660.7
2655.88
2650.39
2644.13
2636.98
2628.83
2619.62
2609.23
2597.57
2584.5
2569.89
2553.63
2535.54
2515.48
2493.24
2468.65
2441.48
2411.7
2379.04
2343.93
2305.87
2265.56
2221.45
2174.5
2123.7
2069.73
2013.24
1953.07
1890.62
1828.32
1766.27
1703.83
1642.2
1576.82
1512.68
1450.19
1387.35
1329.47
1276.12
1226.36
1181.49
1140.61
1104.51
1073.66
1044.01
1015.9
989.707
966.687
946.93
907.766
2790
2790
2790.12
2791.61
2798.1
2808.69
2815.34
2817.42
2814.55
2803.26
2788.91
2777.57
2769.02
2761.42
2753.63
2746.93
2743.7
2743.53
2745.32
2748.6
2750.84
2751.41
2751.04
2749.74
2748.03
2746.42
2744.93
2743.45
2741.97
2740.55
2739.24
2738.02
2736.85
2735.6
2734.18
2732.5
2730.59
2728.49
2726.28
2724
2721.71
2719.44
2717.23
2715.09
2713.05
2711.13
2709.34
2707.7
2706.2
2704.82
2703.57
2702.44
2701.42
2700.5
2699.67
2698.92
2698.22
2697.55
2696.89
2696.22
2695.51
2694.75
2693.89
2692.92
2691.82
2690.53
2689.02
2687.25
2685.16
2682.69
2679.78
2676.38
2672.45
2667.93
2662.73
2656.74
2649.86
2641.99
2633.06
2622.97
2611.59
2598.81
2584.47
2568.42
2550.54
2530.65
2508.61
2484.17
2457.28
2427.61
2395.33
2359.83
2321.57
2279.6
2235.47
2188.09
2138.08
2085.24
2027.57
1967.3
1904.41
1841.43
1776.79
1714.28
1651.2
1587.63
1527.27
1463.8
1402.06
1344.62
1288.84
1237.32
1190.57
1146.81
1108.88
1074.53
1045.25
1019.15
994.55
972.077
927.736
2790
2790
2790.06
2791.01
2796.25
2806.73
2814.98
2818.12
2816.22
2806.83
2792.71
2781.03
2772.44
2765.17
2757.68
2750.49
2746.04
2745.09
2746.13
2749.14
2751.94
2752.93
2752.84
2751.95
2750.46
2748.94
2747.56
2746.23
2744.89
2743.61
2742.43
2741.37
2740.35
2739.28
2738.01
2736.48
2734.71
2732.76
2730.7
2728.57
2726.43
2724.32
2722.26
2720.28
2718.39
2716.63
2715.01
2713.55
2712.23
2711.04
2710
2709.08
2708.29
2707.61
2707.04
2706.56
2706.15
2705.79
2705.46
2705.14
2704.81
2704.44
2704
2703.49
2702.86
2702.09
2701.14
2699.97
2698.53
2696.77
2694.61
2692.02
2688.96
2685.36
2681.18
2676.29
2670.59
2664
2656.43
2647.8
2637.99
2626.88
2614.34
2600.25
2584.47
2566.84
2547.17
2525.22
2500.91
2473.97
2444.49
2412.02
2376.85
2338.25
2297.06
2251.95
2204.27
2153.33
2099.66
2043.04
1981.92
1919.51
1853.97
1786.52
1722.63
1656.21
1592.33
1529.1
1465.14
1405.53
1347.18
1290.29
1236.89
1185.81
1139.03
1097.83
1063.04
1032.13
1006.6
985.85
942.572
2790
2790
2790.03
2790.59
2794.55
2804.45
2814.19
2818.49
2817.46
2810.34
2796.85
2784.76
2775.98
2768.97
2761.9
2754.51
2748.89
2746.95
2747.28
2749.57
2752.74
2754.38
2754.63
2754.15
2752.96
2751.56
2750.29
2749.11
2747.93
2746.79
2745.75
2744.83
2743.98
2743.07
2741.96
2740.58
2738.95
2737.15
2735.23
2733.26
2731.28
2729.32
2727.42
2725.6
2723.87
2722.26
2720.81
2719.51
2718.36
2717.37
2716.52
2715.81
2715.24
2714.8
2714.48
2714.26
2714.14
2714.07
2714.06
2714.08
2714.1
2714.11
2714.09
2714.01
2713.85
2713.58
2713.16
2712.57
2711.74
2710.65
2709.23
2707.41
2705.18
2702.49
2699.27
2695.44
2690.9
2685.56
2679.33
2672.14
2663.89
2654.48
2643.76
2631.62
2617.92
2602.47
2585.14
2565.72
2544.14
2520.09
2493.51
2463.86
2431.37
2395.57
2357.25
2315.74
2271.93
2224.44
2173.69
2119.7
2062.02
2000.51
1937.18
1869.54
1801.63
1733.81
1662.09
1596.97
1531.63
1468.52
1409.44
1351.03
1295.13
1242.68
1191.14
1143.44
1101.41
1062.4
1029.06
1000.78
943.747
2790
2790
2790.01
2790.32
2793.09
2801.91
2812.83
2818.55
2818.41
2813.66
2801.2
2788.71
2779.66
2772.81
2766.2
2758.89
2752.38
2749.13
2748.73
2750.14
2753.36
2755.76
2756.48
2756.33
2755.53
2754.33
2753.17
2752.14
2751.12
2750.12
2749.22
2748.45
2747.75
2747
2746.06
2744.83
2743.34
2741.67
2739.9
2738.09
2736.27
2734.47
2732.73
2731.07
2729.5
2728.06
2726.76
2725.63
2724.66
2723.86
2723.2
2722.7
2722.35
2722.14
2722.08
2722.12
2722.27
2722.5
2722.8
2723.15
2723.53
2723.92
2724.29
2724.64
2724.94
2725.15
2725.25
2725.22
2725
2724.57
2723.85
2722.79
2721.36
2719.53
2717.24
2714.43
2710.98
2706.82
2701.86
2696.03
2689.24
2681.39
2672.36
2662.01
2650.24
2636.88
2621.83
2604.88
2585.85
2564.44
2540.6
2514.05
2485.05
2453.13
2418.55
2380.38
2339.2
2294.16
2246.23
2194.77
2140.18
2081.93
2021.02
1957.15
1888.48
1821.33
1749.01
1676.67
1607.88
1535.82
1469.45
1406.71
1347.02
1293.02
1241.41
1193.56
1150.19
1109.24
1072.73
1040.91
978.031
2790
2790
2790
2790.15
2791.94
2799.28
2810.76
2818.33
2819.26
2816.56
2805.61
2792.93
2783.57
2776.73
2770.51
2763.46
2756.39
2751.77
2750.49
2751.12
2753.9
2756.96
2758.36
2758.54
2758.16
2757.25
2756.21
2755.32
2754.46
2753.61
2752.84
2752.21
2751.67
2751.08
2750.3
2749.21
2747.87
2746.34
2744.73
2743.07
2741.41
2739.78
2738.2
2736.7
2735.3
2734.02
2732.88
2731.91
2731.12
2730.5
2730.04
2729.75
2729.62
2729.63
2729.81
2730.11
2730.52
2731.04
2731.64
2732.32
2733.04
2733.79
2734.56
2735.32
2736.06
2736.74
2737.35
2737.85
2738.21
2738.38
2738.35
2738.02
2737.39
2736.38
2734.99
2733.14
2730.75
2727.74
2724.02
2719.53
2714.17
2707.87
2700.51
2691.98
2682.16
2670.9
2658.07
2643.47
2626.94
2608.26
2587.36
2563.92
2537.94
2508.94
2477.13
2441.9
2403.77
2361.91
2316.96
2268.25
2216.3
2161.03
2101.56
2040.08
1974.86
1907.17
1839.64
1767.42
1697.85
1622.79
1548.53
1477.74
1407.05
1342.79
1282.8
1228.31
1179.95
1135.19
1096.96
1065.56
1002.92
2790
2790
2790
2790.07
2791.1
2796.76
2808.12
2817.57
2820.01
2818.77
2809.96
2797.52
2787.73
2780.65
2774.66
2768.02
2760.78
2755.05
2752.71
2752.67
2754.58
2757.97
2760.24
2760.92
2760.85
2760.3
2759.45
2758.67
2757.96
2757.26
2756.63
2756.13
2755.73
2755.3
2754.67
2753.74
2752.54
2751.16
2749.69
2748.19
2746.7
2745.23
2743.82
2742.49
2741.25
2740.13
2739.16
2738.37
2737.75
2737.32
2737.05
2736.96
2737.05
2737.3
2737.7
2738.25
2738.93
2739.73
2740.64
2741.63
2742.7
2743.81
2744.96
2746.12
2747.29
2748.44
2749.54
2750.57
2751.49
2752.27
2752.86
2753.24
2753.36
2753.16
2752.64
2751.73
2750.33
2748.41
2745.86
2742.62
2738.6
2733.74
2727.94
2721.09
2713.06
2703.72
2692.97
2680.63
2666.56
2650.51
2632.36
2611.85
2589.02
2563.43
2535.09
2503.34
2468.5
2429.96
2388.3
2342.88
2293.96
2241.37
2185.08
2124.71
2061.07
1992.41
1924.81
1854.4
1782.41
1711.27
1638.58
1569.64
1497.16
1427.11
1359.11
1294.43
1235.02
1180.1
1131.99
1091.24
1010.08
2790
2790
2790
2790.02
2790.56
2794.53
2805.01
2816.16
2820.35
2820.35
2814.23
2802.48
2792.03
2784.48
2778.62
2772.51
2765.49
2759.08
2755.53
2754.74
2755.75
2758.95
2762.01
2763.41
2763.67
2763.46
2762.84
2762.18
2761.61
2761.06
2760.57
2760.19
2759.92
2759.64
2759.16
2758.38
2757.33
2756.09
2754.78
2753.44
2752.12
2750.82
2749.58
2748.42
2747.35
2746.4
2745.6
2744.97
2744.53
2744.28
2744.21
2744.33
2744.62
2745.07
2745.71
2746.51
2747.45
2748.53
2749.73
2751.03
2752.42
2753.88
2755.4
2756.96
2758.54
2760.13
2761.71
2763.24
2764.7
2766.06
2767.3
2768.34
2769.16
2769.73
2770.02
2770.02
2769.59
2768.74
2767.32
2765.3
2762.6
2759.15
2754.88
2749.69
2743.45
2736.04
2727.36
2717.24
2705.52
2692
2676.59
2659
2639.14
2616.55
2591.29
2562.95
2531.83
2497.33
2459.75
2418.46
2373.64
2324.87
2272.02
2215.31
2154.43
2089.48
2018.88
1946.09
1868.62
1794.3
1718.79
1644.25
1571.83
1500.27
1431.71
1365.1
1302.34
1245.13
1194.86
1151.27
1065.76
2790
2790
2790
2790.01
2790.25
2792.76
2801.67
2813.92
2820.22
2821.71
2818.04
2807.41
2796.29
2788.28
2782.5
2776.94
2770.43
2763.76
2759.08
2757.43
2757.69
2760.07
2763.59
2765.9
2766.66
2766.71
2766.39
2765.85
2765.39
2764.98
2764.62
2764.38
2764.24
2764.08
2763.75
2763.13
2762.22
2761.13
2759.97
2758.8
2757.65
2756.53
2755.46
2754.46
2753.57
2752.79
2752.15
2751.69
2751.43
2751.36
2751.5
2751.81
2752.3
2752.98
2753.85
2754.89
2756.1
2757.45
2758.93
2760.54
2762.25
2764.06
2765.94
2767.88
2769.86
2771.89
2773.92
2775.95
2777.94
2779.86
2781.69
2783.39
2784.91
2786.24
2787.3
2788.1
2788.59
2788.74
2788.4
2787.55
2786.09
2783.96
2781.11
2777.43
2772.84
2767.21
2760.44
2752.38
2742.92
2731.87
2719.07
2704.24
2687.33
2668.01
2646.35
2621.85
2594.59
2563.93
2530.08
2492.42
2451.18
2405.96
2356.72
2303.79
2246.73
2185.9
2120.86
2051.69
1977.43
1900.44
1821.68
1737.37
1656.84
1573.92
1496.63
1422.74
1352.92
1289.52
1233.6
1187.07
1091.62
2790
2790
2790
2790
2790.1
2791.5
2798.38
2810.9
2819.68
2822.92
2820.9
2811.99
2800.64
2792.28
2786.47
2781.37
2775.46
2768.91
2763.47
2760.76
2760.35
2761.67
2765.08
2768.25
2769.72
2770.05
2769.96
2769.59
2769.24
2768.97
2768.76
2768.64
2768.62
2768.59
2768.4
2767.94
2767.19
2766.25
2765.25
2764.24
2763.26
2762.32
2761.42
2760.6
2759.88
2759.27
2758.81
2758.51
2758.42
2758.55
2758.87
2759.37
2760.07
2760.97
2762.06
2763.34
2764.79
2766.41
2768.17
2770.07
2772.09
2774.23
2776.45
2778.76
2781.14
2783.58
2786.06
2788.55
2791.04
2793.5
2795.91
2798.23
2800.42
2802.44
2804.28
2805.91
2807.27
2808.31
2808.99
2809.25
2809.02
2808.2
2806.75
2804.56
2801.59
2797.7
2792.82
2786.79
2779.51
2770.78
2760.47
2748.34
2734.33
2718.11
2699.66
2678.52
2654.72
2627.67
2597.5
2563.58
2526.09
2484.59
2439.01
2389.32
2335.08
2277.1
2214.78
2147.96
2078.22
2004.34
1930.23
1848.68
1770.16
1687.1
1603.57
1523.31
1443.23
1370.27
1302.37
1244.32
1127.21
2790
2790
2790
2790
2790.03
2790.71
2795.48
2807.24
2818.51
2823.45
2822.69
2816.34
2805.32
2796.53
2790.52
2785.72
2780.45
2774.34
2768.56
2764.81
2763.6
2764.05
2766.64
2770.26
2772.61
2773.4
2773.5
2773.34
2773.1
2772.97
2772.92
2772.94
2773.05
2773.13
2773.07
2772.77
2772.19
2771.42
2770.58
2769.74
2768.93
2768.17
2767.45
2766.8
2766.25
2765.81
2765.52
2765.39
2765.48
2765.78
2766.29
2766.99
2767.9
2769.01
2770.33
2771.84
2773.54
2775.41
2777.45
2779.64
2781.97
2784.42
2786.99
2789.66
2792.42
2795.26
2798.16
2801.12
2804.09
2807.07
2810.03
2812.94
2815.76
2818.47
2821.04
2823.43
2825.62
2827.57
2829.22
2830.48
2831.33
2831.71
2831.59
2830.8
2829.35
2827.05
2823.89
2819.73
2814.48
2807.97
2800.08
2790.58
2779.38
2766.16
2750.91
2733.18
2712.95
2689.66
2663.41
2633.62
2600.46
2563.39
2522.3
2476.97
2427.03
2372.65
2312.87
2248.64
2179.94
2106.26
2027.91
1944.51
1861.21
1781.63
1697.16
1616.45
1532.9
1455.25
1383.52
1321.6
1202.53
2790
2790
2790
2790
2790.01
2790.3
2793.22
2803.25
2816.28
2823.43
2823.89
2820.28
2810.17
2800.86
2794.58
2790.03
2785.39
2779.87
2774.12
2769.57
2767.37
2767.06
2768.46
2771.94
2775.15
2776.65
2777
2776.99
2776.9
2776.91
2777.05
2777.25
2777.49
2777.7
2777.75
2777.6
2777.19
2776.6
2775.93
2775.26
2774.63
2774.04
2773.5
2773.02
2772.64
2772.38
2772.26
2772.31
2772.56
2773.03
2773.72
2774.62
2775.73
2777.05
2778.59
2780.33
2782.27
2784.39
2786.69
2789.15
2791.77
2794.53
2797.43
2800.44
2803.56
2806.79
2810.1
2813.48
2816.92
2820.39
2823.87
2827.35
2830.78
2834.13
2837.38
2840.51
2843.5
2846.29
2848.85
2851.13
2853.06
2854.56
2855.61
2856.16
2856.22
2855.5
2854.07
2851.72
2848.42
2844.02
2838.39
2831.34
2822.76
2812.38
2800.14
2785.66
2768.92
2749.44
2727.26
2701.81
2673.2
2640.79
2604.52
2564.11
2519.11
2469.47
2414.59
2355.68
2291.62
2222.13
2146.27
2066.2
1980.06
1892.59
1797.53
1705.32
1613.41
1526.59
1445.51
1375.23
1230.63
2790
2790
2790
2790
2790
2790.11
2791.68
2799.38
2812.96
2822.75
2824.93
2823.34
2814.79
2805.21
2798.75
2794.36
2790.23
2785.25
2779.7
2774.7
2771.49
2770.41
2770.85
2773.48
2777.19
2779.56
2780.4
2780.59
2780.64
2780.79
2781.12
2781.52
2781.9
2782.25
2782.44
2782.41
2782.19
2781.78
2781.29
2780.79
2780.33
2779.92
2779.55
2779.24
2779.03
2778.93
2778.99
2779.2
2779.62
2780.26
2781.13
2782.23
2783.53
2785.06
2786.81
2788.77
2790.95
2793.31
2795.87
2798.61
2801.51
2804.57
2807.79
2811.13
2814.61
2818.2
2821.91
2825.71
2829.59
2833.53
2837.51
2841.52
2845.53
2849.5
2853.41
2857.24
2860.96
2864.55
2867.97
2871.17
2874.09
2876.69
2878.91
2880.67
2881.95
2882.69
2882.86
2882.2
2880.75
2878.31
2874.82
2870.11
2864.07
2856.44
2847.15
2835.87
2822.56
2806.76
2788.46
2767.09
2742.67
2714.55
2682.74
2646.68
2605.94
2560.66
2510.56
2455.86
2394.83
2328.87
2258.27
2183.02
2103.83
2018.59
1929.02
1835.59
1743.1
1649.02
1558.87
1479.26
1320.96
2790
2790
2790
2790
2790
2790.03
2790.77
2796.06
2808.92
2821.25
2825.6
2825.26
2819.07
2809.76
2803.04
2798.6
2794.77
2790.22
2784.99
2779.91
2776.01
2774.1
2773.83
2775.27
2778.89
2782.15
2783.71
2784.19
2784.38
2784.65
2785.16
2785.76
2786.32
2786.8
2787.13
2787.24
2787.17
2786.94
2786.63
2786.3
2786.01
2785.76
2785.56
2785.42
2785.37
2785.45
2785.66
2786.04
2786.62
2787.43
2788.48
2789.76
2791.26
2792.99
2794.94
2797.13
2799.52
2802.13
2804.93
2807.93
2811.1
2814.45
2817.96
2821.63
2825.44
2829.38
2833.45
2837.65
2841.95
2846.33
2850.79
2855.3
2859.84
2864.39
2868.92
2873.41
2877.83
2882.17
2886.4
2890.47
2894.34
2897.95
2901.25
2904.22
2906.8
2908.89
2910.44
2911.4
2911.71
2911.18
2909.73
2907.22
2903.52
2898.44
2891.89
2883.6
2873.52
2861.2
2846.62
2829.19
2808.92
2785.2
2758.01
2726.69
2691.05
2651.06
2606.07
2555.75
2499.01
2437.36
2369.94
2296.64
2216.7
2128.96
2039.01
1940.94
1846.79
1750.8
1659.33
1578.73
1421.42
2790
2790
2790
2790
2790
2790.01
2790.31
2793.54
2804.62
2818.81
2825.54
2826.64
2822.94
2814.33
2807.14
2802.49
2798.9
2794.8
2789.98
2785.08
2780.89
2778.19
2777.28
2777.76
2780.58
2784.4
2786.83
2787.8
2788.19
2788.59
2789.23
2790.03
2790.77
2791.37
2791.83
2792.1
2792.16
2792.1
2791.94
2791.77
2791.64
2791.54
2791.51
2791.53
2791.65
2791.88
2792.25
2792.79
2793.53
2794.51
2795.73
2797.19
2798.88
2800.8
2802.96
2805.35
2807.97
2810.8
2813.85
2817.09
2820.53
2824.16
2827.96
2831.93
2836.06
2840.34
2844.77
2849.34
2854.04
2858.85
2863.75
2868.74
2873.79
2878.89
2884
2889.11
2894.19
2899.24
2904.21
2909.09
2913.84
2918.39
2922.7
2926.75
2930.47
2933.84
2936.77
2939.19
2941
2942.16
2942.61
2942.19
2940.73
2938.12
2934.18
2928.74
2921.7
2912.7
2901.67
2888.11
2872.01
2852.8
2830.44
2804.3
2774.3
2739.99
2700.57
2655.96
2605.84
2550.71
2488.5
2419.6
2344.09
2262.81
2175.01
2080.94
1981.09
1873.95
1766.71
1671.19
1486.06
2790
2790
2790
2790
2790
2790
2790.11
2791.87
2800.53
2815.48
2824.83
2827.96
2826.07
2818.43
2810.87
2806.08
2802.78
2799.17
2794.79
2790.16
2785.95
2782.73
2781.17
2780.99
2782.63
2786.47
2789.79
2791.45
2792.15
2792.67
2793.41
2794.36
2795.26
2795.99
2796.56
2796.97
2797.19
2797.26
2797.24
2797.21
2797.2
2797.25
2797.36
2797.53
2797.8
2798.19
2798.72
2799.42
2800.32
2801.45
2802.84
2804.47
2806.34
2808.45
2810.8
2813.4
2816.23
2819.28
2822.56
2826.04
2829.73
2833.62
2837.69
2841.95
2846.39
2850.99
2855.75
2860.67
2865.74
2870.95
2876.27
2881.7
2887.23
2892.83
2898.48
2904.17
2909.87
2915.57
2921.25
2926.88
2932.43
2937.86
2943.13
2948.19
2953.01
2957.55
2961.75
2965.56
2968.9
2971.68
2973.8
2975.2
2975.82
2975.53
2974.02
2971.27
2967.05
2961.17
2953.52
2943.68
2931.6
2916.7
2898.94
2877.66
2852.73
2823.42
2789.27
2750.3
2705.9
2655.68
2598.2
2534.63
2464.36
2387.99
2304.5
2214.27
2115.63
2015.3
1906.82
1813.2
1634.62
2790
2790
2790
2790
2790
2790
2790.04
2790.89
2797.05
2811.52
2823.75
2828.81
2827.98
2822.07
2814.49
2809.59
2806.54
2803.39
2799.4
2795.04
2790.96
2787.56
2785.43
2784.75
2785.45
2788.66
2792.63
2795.1
2796.22
2796.91
2797.73
2798.78
2799.82
2800.68
2801.35
2801.86
2802.21
2802.4
2802.5
2802.57
2802.68
2802.85
2803.09
2803.4
2803.81
2804.35
2805.03
2805.88
2806.94
2808.22
2809.77
2811.58
2813.63
2815.92
2818.46
2821.25
2824.28
2827.55
2831.04
2834.76
2838.69
2842.83
2847.16
2851.7
2856.42
2861.32
2866.4
2871.66
2877.08
2882.66
2888.38
2894.23
2900.21
2906.28
2912.44
2918.67
2924.95
2931.26
2937.59
2943.91
2950.21
2956.45
2962.58
2968.57
2974.39
2980
2985.36
2990.42
2995.11
2999.36
3003.11
3006.27
3008.7
3010.35
3011.12
3010.97
3009.42
3006.54
3002
2995.63
2987.27
2976.4
2962.98
2946.31
2926.28
2902.15
2873.77
2840.8
2802.34
2757.9
2706.7
2649.65
2585.28
2513.61
2432.41
2343.95
2247.16
2145.3
2029.06
1921.6
1726.99
2790
2790
2790
2790
2790
2790
2790.01
2790.39
2794.42
2807.38
2822.06
2829.08
2829.2
2825.29
2818
2812.99
2810.12
2807.36
2803.75
2799.67
2795.82
2792.5
2790.05
2788.98
2789.08
2791.24
2795.37
2798.67
2800.36
2801.29
2802.17
2803.28
2804.42
2805.38
2806.15
2806.76
2807.22
2807.51
2807.7
2807.85
2808.04
2808.31
2808.67
2809.12
2809.66
2810.34
2811.17
2812.17
2813.37
2814.81
2816.51
2818.48
2820.7
2823.17
2825.89
2828.86
2832.09
2835.56
2839.27
2843.2
2847.36
2851.73
2856.32
2861.11
2866.11
2871.29
2876.67
2882.24
2887.99
2893.91
2900
2906.24
2912.62
2919.13
2925.76
2932.48
2939.29
2946.16
2953.09
2960.05
2967.03
2974.01
2980.94
2987.79
2994.53
3001.13
3007.56
3013.78
3019.72
3025.34
3030.56
3035.31
3039.52
3043.09
3045.85
3047.76
3048.72
3048.71
3047.07
3044
3039.06
3032.03
3022.77
3010.68
2995.68
2977.06
2954.68
2927.82
2895.72
2858.1
2814.3
2764.27
2706.26
2640.71
2565.97
2483.53
2392.45
2294.24
2187.73
2082.98
1894.57
2790
2790
2790
2790
2790
2790
2790
2790.17
2792.63
2803.52
2819.59
2828.88
2830.17
2827.98
2821.28
2816.14
2813.37
2811.01
2807.85
2804.09
2800.52
2797.42
2794.89
2793.46
2793.15
2794.33
2798.09
2802.05
2804.39
2805.61
2806.58
2807.71
2808.93
2810.01
2810.88
2811.59
2812.13
2812.51
2812.76
2812.97
2813.23
2813.59
2814.06
2814.63
2815.3
2816.12
2817.09
2818.23
2819.58
2821.16
2823.01
2825.14
2827.53
2830.17
2833.07
2836.22
2839.64
2843.3
2847.21
2851.35
2855.72
2860.33
2865.15
2870.18
2875.43
2880.89
2886.55
2892.4
2898.46
2904.71
2911.14
2917.75
2924.51
2931.43
2938.49
2945.67
2952.97
2960.36
2967.84
2975.39
2983.01
2990.65
2998.31
3005.94
3013.51
3021.01
3028.41
3035.66
3042.74
3049.57
3056.12
3062.3
3068.07
3073.34
3078.02
3082.03
3085.14
3087.36
3088.48
3088.56
3086.83
3083.49
3078.09
3070.31
3059.99
3046.43
3029.43
3008.14
2982.1
2950.93
2913.68
2869.77
2817.82
2758.52
2690.6
2614.4
2527.27
2431.44
2325.46
2214.48
2033.23
2790
2790
2790
2790
2790
2790
2790
2790.07
2791.52
2800.24
2816.71
2828.28
2831.11
2830.06
2824.08
2818.94
2816.34
2814.44
2811.78
2808.35
2805
2802.13
2799.67
2797.96
2797.34
2797.84
2800.82
2805.14
2808.15
2809.74
2810.84
2812
2813.28
2814.46
2815.44
2816.24
2816.86
2817.3
2817.61
2817.88
2818.2
2818.65
2819.22
2819.9
2820.71
2821.66
2822.77
2824.05
2825.55
2827.27
2829.28
2831.56
2834.11
2836.92
2839.98
2843.31
2846.9
2850.76
2854.86
2859.2
2863.77
2868.59
2873.63
2878.9
2884.39
2890.09
2896.01
2902.14
2908.48
2915.03
2921.78
2928.71
2935.83
2943.12
2950.57
2958.17
2965.91
2973.78
2981.76
2989.84
2998.02
3006.28
3014.59
3022.92
3031.26
3039.56
3047.83
3056.03
3064.12
3072.07
3079.81
3087.31
3094.5
3101.31
3107.69
3113.51
3118.72
3123.2
3126.7
3129.22
3130.53
3130.66
3128.82
3125.11
3119.04
3110.19
3098.33
3082.69
3063.02
3038.6
3008.43
2971.93
2928.15
2877.25
2817.46
2747.98
2666.51
2576.23
2472.34
2365.38
2193.36
2790
2790
2790
2790
2790
2790
2790
2790.03
2790.88
2797.68
2813.82
2827.41
2831.95
2831.43
2826.42
2821.5
2819.15
2817.69
2815.51
2812.37
2809.15
2806.45
2804.14
2802.31
2801.47
2801.57
2803.66
2807.99
2811.61
2813.63
2814.89
2816.08
2817.38
2818.64
2819.71
2820.58
2821.28
2821.78
2822.15
2822.48
2822.88
2823.41
2824.1
2824.91
2825.85
2826.93
2828.18
2829.61
2831.24
2833.12
2835.27
2837.7
2840.41
2843.38
2846.61
2850.11
2853.87
2857.9
2862.19
2866.72
2871.49
2876.5
2881.75
2887.24
2892.95
2898.89
2905.05
2911.44
2918.04
2924.87
2931.91
2939.15
2946.59
2954.22
2962.03
2970.02
2978.16
2986.46
2994.9
3003.48
3012.17
3020.98
3029.88
3038.86
3047.87
3056.91
3065.96
3075
3084
3092.93
3101.75
3110.4
3118.85
3127.04
3134.91
3142.37
3149.38
3155.81
3161.57
3166.56
3170.45
3173.27
3174.74
3174.89
3172.81
3168.59
3161.69
3151.66
3138.14
3120.19
3097.06
3068.18
3032.38
2989.17
2936.89
2874.87
2801.63
2716.87
2618.5
2511.45
2352.97
2790
2790
2790
2790
2790
2790
2790
2790.01
2790.52
2795.82
2811.21
2826.52
2832.49
2832.39
2828.41
2823.89
2821.82
2820.73
2818.95
2816.05
2812.93
2810.38
2808.27
2806.49
2805.51
2805.36
2806.76
2810.81
2814.89
2817.34
2818.76
2819.95
2821.23
2822.5
2823.61
2824.54
2825.29
2825.86
2826.29
2826.7
2827.2
2827.85
2828.66
2829.61
2830.69
2831.91
2833.3
2834.88
2836.66
2838.68
2840.98
2843.56
2846.43
2849.56
2852.95
2856.61
2860.54
2864.75
2869.2
2873.91
2878.87
2884.07
2889.52
2895.21
2901.13
2907.29
2913.68
2920.3
2927.15
2934.23
2941.54
2949.06
2956.79
2964.73
2972.88
2981.21
2989.72
2998.41
3007.26
3016.27
3025.43
3034.73
3044.16
3053.7
3063.32
3073.01
3082.75
3092.54
3102.35
3112.15
3121.91
3131.6
3141.17
3150.57
3159.77
3168.7
3177.31
3185.49
3193.2
3200.28
3206.64
3212.15
3216.47
3219.62
3221.27
3221.41
3219
3214.11
3206
3194.1
3177.79
3156.29
3128.31
3093.12
3048.99
2995.3
2930
2850.78
2758.58
2649.53
2503.68
2790
2790
2790
2790
2790
2790
2790
2790.01
2790.34
2794.56
2809.11
2825.68
2832.81
2833.18
2830.12
2826.12
2824.32
2823.5
2822.06
2819.39
2816.38
2814
2812.11
2810.5
2809.51
2809.21
2810.16
2813.78
2818.12
2820.91
2822.45
2823.61
2824.8
2826.01
2827.11
2828.06
2828.84
2829.47
2829.99
2830.5
2831.12
2831.91
2832.87
2833.97
2835.2
2836.58
2838.12
2839.85
2841.78
2843.95
2846.4
2849.13
2852.16
2855.44
2858.99
2862.81
2866.91
2871.27
2875.9
2880.78
2885.91
2891.29
2896.93
2902.8
2908.92
2915.28
2921.88
2928.72
2935.79
2943.11
2950.66
2958.45
2966.45
2974.67
2983.11
2991.76
3000.61
3009.64
3018.87
3028.27
3037.85
3047.59
3057.49
3067.53
3077.7
3087.97
3098.33
3108.78
3119.3
3129.87
3140.47
3151.06
3161.6
3172.08
3182.44
3192.64
3202.64
3212.36
3221.76
3230.72
3239.16
3246.95
3253.95
3260.05
3264.81
3268.26
3270.03
3270.08
3267.11
3261.37
3251.79
3237.83
3218.25
3192.33
3158.25
3115.34
3060.15
2990.29
2905.84
2800.86
2660.68
2790
2790
2790
2790
2790
2790
2790
2790.01
2790.25
2793.78
2807.61
2825.02
2832.98
2833.92
2831.62
2828.12
2826.6
2826.01
2824.86
2822.44
2819.58
2817.37
2815.74
2814.36
2813.44
2813.09
2813.78
2816.96
2821.34
2824.36
2825.97
2827.04
2828.09
2829.19
2830.22
2831.14
2831.94
2832.63
2833.24
2833.87
2834.64
2835.58
2836.71
2837.98
2839.38
2840.92
2842.62
2844.51
2846.6
2848.92
2851.52
2854.41
2857.59
2861.03
2864.73
2868.71
2872.97
2877.5
2882.28
2887.33
2892.63
2898.18
2903.98
2910.04
2916.34
2922.89
2929.69
2936.73
2944.01
2951.55
2959.33
2967.34
2975.59
2984.07
2992.78
3001.72
3010.86
3020.22
3029.78
3039.53
3049.48
3059.62
3069.93
3080.42
3091.06
3101.84
3112.75
3123.78
3134.93
3146.17
3157.5
3168.87
3180.27
3191.68
3203.05
3214.36
3225.56
3236.62
3247.48
3258.07
3268.33
3278.11
3287.37
3295.94
3303.66
3310.41
3315.67
3319.5
3321.43
3321.4
3317.68
3310.6
3298.62
3281.21
3256.4
3223.27
3177.31
3116.49
3038.36
2938.53
2804.54
2790
2790
2790
2790
2790
2790
2790
2790
2790.21
2793.4
2806.75
2824.72
2833.18
2834.67
2832.9
2829.85
2828.66
2828.29
2827.42
2825.26
2822.57
2820.57
2819.18
2818.04
2817.27
2816.93
2817.49
2820.31
2824.56
2827.67
2829.28
2830.22
2831.08
2832.02
2832.96
2833.83
2834.63
2835.37
2836.07
2836.84
2837.76
2838.87
2840.18
2841.63
2843.22
2844.93
2846.81
2848.86
2851.11
2853.59
2856.34
2859.39
2862.72
2866.32
2870.18
2874.31
2878.73
2883.41
2888.35
2893.55
2899.01
2904.72
2910.69
2916.92
2923.39
2930.12
2937.1
2944.33
2951.8
2959.54
2967.52
2975.75
2984.23
2992.94
3001.9
3011.09
3020.5
3030.14
3040
3050.07
3060.35
3070.84
3081.53
3092.41
3103.47
3114.7
3126.09
3137.64
3149.33
3161.16
3173.12
3185.18
3197.32
3209.53
3221.78
3234.05
3246.29
3258.5
3270.62
3282.6
3294.4
3305.92
3317.11
3327.83
3338.01
3347.46
3355.99
3363.46
3369.27
3373.48
3375.45
3374.88
3370.11
3361.18
3346.13
3324.54
3291.98
3245.75
3177.72
3085.51
2956.04
2790
2790
2790
2790
2790
2790
2790
2790
2790.21
2793.33
2806.57
2824.75
2833.56
2835.41
2833.97
2831.38
2830.56
2830.39
2829.79
2827.89
2825.39
2823.6
2822.46
2821.53
2820.94
2820.65
2821.15
2823.72
2827.71
2830.8
2832.32
2833.11
2833.78
2834.55
2835.37
2836.19
2836.99
2837.78
2838.57
2839.46
2840.53
2841.82
2843.32
2844.96
2846.73
2848.63
2850.68
2852.91
2855.32
2857.96
2860.88
2864.09
2867.58
2871.33
2875.34
2879.63
2884.2
2889.03
2894.13
2899.48
2905.09
2910.96
2917.08
2923.47
2930.11
2937
2944.15
2951.56
2959.21
2967.13
2975.31
2983.74
2992.43
3001.36
3010.54
3019.96
3029.62
3039.52
3049.65
3060.01
3070.59
3081.39
3092.41
3103.65
3115.09
3126.72
3138.53
3150.53
3162.7
3175.05
3187.56
3200.22
3213.01
3225.92
3238.92
3252.01
3265.16
3278.35
3291.54
3304.72
3317.84
3330.83
3343.65
3356.21
3368.46
3380.24
3391.45
3401.91
3411.42
3419.77
3426.34
3431.09
3433.32
3432.55
3426.59
3415.55
3395.75
3364.26
3309.07
3232.11
3106.9
2790
2790
2790
2790
2790
2790
2790
2790
2790.22
2793.44
2806.97
2825.25
2834.11
2836.12
2834.86
2832.77
2832.35
2832.37
2831.98
2830.32
2828.04
2826.49
2825.56
2824.83
2824.4
2824.2
2824.68
2827.07
2830.74
2833.67
2835.06
2835.68
2836.17
2836.8
2837.53
2838.3
2839.11
2839.94
2840.81
2841.81
2843.03
2844.49
2846.16
2847.99
2849.94
2852.02
2854.26
2856.65
2859.24
2862.05
2865.13
2868.5
2872.14
2876.05
2880.22
2884.66
2889.38
2894.36
2899.61
2905.1
2910.86
2916.88
2923.15
2929.69
2936.48
2943.54
2950.85
2958.42
2966.24
2974.33
2982.69
2991.31
3000.18
3009.31
3018.7
3028.34
3038.23
3048.36
3058.74
3069.35
3080.21
3091.29
3102.62
3114.17
3125.95
3137.94
3150.13
3162.53
3175.14
3187.94
3200.94
3214.13
3227.48
3241
3254.67
3268.47
3282.39
3296.43
3310.55
3324.75
3338.99
3353.23
3367.43
3381.55
3395.53
3409.29
3422.75
3435.75
3448.22
3459.92
3470.62
3479.98
3487.28
3492.32
3494.24
3492.05
3484.07
3467.62
3431.33
3379.94
3275.39
2790
2790
2790
2790
2790
2790
2790
2790.01
2790.26
2793.87
2808.04
2826.24
2834.79
2836.74
2835.69
2834.11
2834.05
2834.3
2833.99
2832.55
2830.53
2829.22
2828.5
2827.95
2827.67
2827.55
2828.03
2830.25
2833.57
2836.25
2837.47
2837.92
2838.27
2838.79
2839.46
2840.22
2841.04
2841.91
2842.85
2843.95
2845.29
2846.91
2848.75
2850.76
2852.89
2855.15
2857.56
2860.13
2862.88
2865.86
2869.11
2872.64
2876.45
2880.52
2884.84
2889.43
2894.3
2899.43
2904.82
2910.46
2916.35
2922.52
2928.94
2935.62
2942.56
2949.77
2957.23
2964.96
2972.95
2981.2
2989.73
2998.52
3007.58
3016.9
3026.48
3036.32
3046.42
3056.77
3067.37
3078.22
3089.33
3100.68
3112.28
3124.12
3136.2
3148.52
3161.05
3173.82
3186.81
3200.03
3213.47
3227.12
3240.98
3255.04
3269.28
3283.72
3298.32
3313.09
3328.02
3343.09
3358.3
3373.61
3388.99
3404.42
3419.86
3435.27
3450.59
3465.73
3480.61
3495.07
3509.02
3522.2
3534.41
3545.18
3553.89
3559.97
3562.68
3559.19
3542.42
3513.71
3448.89
2790
2790
2790
2790
2790
2790
2790
2790.01
2790.35
2794.64
2809.69
2827.59
2835.55
2837.3
2836.54
2835.45
2835.65
2836.16
2835.87
2834.57
2832.83
2831.8
2831.26
2830.89
2830.72
2830.65
2831.14
2833.13
2836.1
2838.48
2839.5
2839.81
2840.06
2840.53
2841.2
2841.98
2842.83
2843.73
2844.72
2845.91
2847.38
2849.14
2851.14
2853.3
2855.6
2858.03
2860.6
2863.34
2866.27
2869.41
2872.83
2876.53
2880.5
2884.72
2889.19
2893.93
2898.95
2904.22
2909.75
2915.53
2921.56
2927.86
2934.43
2941.25
2948.34
2955.69
2963.3
2971.18
2979.32
2987.73
2996.42
3005.38
3014.61
3024.1
3033.87
3043.9
3054.2
3064.76
3075.58
3086.66
3098
3109.59
3121.45
3133.57
3145.94
3158.55
3171.41
3184.51
3197.86
3211.45
3225.29
3239.37
3253.69
3268.23
3283
3298
3313.21
3328.63
3344.26
3360.1
3376.14
3392.36
3408.75
3425.29
3441.96
3458.75
3475.6
3492.49
3509.34
3526.11
3542.71
3558.98
3574.79
3589.85
3603.84
3616.17
3626.36
3633.25
3635.26
3624.38
3603.54
2790
2790
2790
2790
2790
2790
2790
2790.01
2790.51
2795.79
2811.87
2829.2
2836.37
2837.83
2837.38
2836.77
2837.23
2837.95
2837.65
2836.45
2835
2834.23
2833.85
2833.6
2833.48
2833.41
2833.85
2835.59
2838.21
2840.26
2841.08
2841.28
2841.5
2841.99
2842.71
2843.55
2844.44
2845.38
2846.43
2847.71
2849.3
2851.2
2853.34
2855.65
2858.1
2860.69
2863.43
2866.33
2869.41
2872.73
2876.31
2880.18
2884.3
2888.68
2893.3
2898.19
2903.35
2908.76
2914.43
2920.34
2926.51
2932.95
2939.65
2946.61
2953.83
2961.32
2969.07
2977.09
2985.38
2993.95
3002.79
3011.91
3021.3
3030.96
3040.9
3051.11
3061.59
3072.35
3083.37
3094.66
3106.22
3118.05
3130.15
3142.51
3155.15
3168.04
3181.19
3194.61
3208.28
3222.22
3236.43
3250.89
3265.62
3280.6
3295.84
3311.34
3327.08
3343.08
3359.34
3375.85
3392.61
3409.62
3426.86
3444.35
3462.04
3479.97
3498.08
3516.38
3534.81
3553.37
3571.97
3590.57
3609.07
3627.32
3645.15
3662.32
3678.44
3692.65
3704.35
3709.02
3714.21
2790
2790
2790
2790
2790
2790
2790
2790.03
2790.79
2797.39
2814.49
2830.95
2837.19
2838.39
2838.18
2838.05
2838.89
2839.72
2839.38
2838.25
2837.06
2836.5
2836.21
2836
2835.84
2835.68
2836.02
2837.53
2839.83
2841.55
2842.18
2842.34
2842.59
2843.17
2844
2844.91
2845.86
2846.86
2847.98
2849.36
2851.07
2853.11
2855.38
2857.82
2860.41
2863.14
2866.03
2869.08
2872.33
2875.81
2879.56
2883.59
2887.87
2892.39
2897.16
2902.2
2907.49
2913.04
2918.84
2924.88
2931.19
2937.75
2944.58
2951.67
2959.03
2966.65
2974.55
2982.71
2991.14
2999.85
3008.84
3018.11
3027.66
3037.48
3047.59
3057.97
3068.64
3079.58
3090.79
3102.29
3114.06
3126.11
3138.43
3151.04
3163.93
3177.09
3190.52
3204.22
3218.2
3232.47
3247.01
3261.84
3276.95
3292.34
3308
3323.95
3340.18
3356.69
3373.49
3390.59
3407.98
3425.66
3443.63
3461.89
3480.44
3499.28
3518.39
3537.79
3557.42
3577.3
3597.36
3617.63
3637.97
3658.35
3678.56
3698.44
3717.51
3735.64
3751.21
3763.07