/*--------------------------------*- C++ -*----------------------------------*\
| =========                 |                                                 |
| \\      /  F ield         | OpenFOAM: The Open Source CFD Toolbox           |
|  \\    /   O peration     | Version:  2406                                  |
|   \\  /    A nd           | Website:  www.openfoam.com                      |
|    \\/     M anipulation  |                                                 |
\*---------------------------------------------------------------------------*/
FoamFile
{
    version     2.0;
    format      ascii;
    arch        "LSB;label=32;scalar=64";
    class       volScalarField;
    location    "0.049";
    object      rho;
}
// * * * * * * * * * * * * * * * * * * * * * * * * * * * * * * * * * * * * * //

dimensions      [1 -3 0 0 0 0 0];

internalField   nonuniform List<scalar> 
78650
(
0.0502121
0.0431794
0.0428084
0.0426989
0.0425637
0.0424438
0.0423237
0.0422169
0.0421263
0.042054
0.0419987
0.0419535
0.0419117
0.0418691
0.0418245
0.04178
0.0417372
0.0416974
0.0416604
0.0416251
0.0415898
0.041553
0.0415143
0.0414738
0.0414322
0.0413902
0.0413484
0.0413074
0.0412677
0.0412297
0.0411938
0.0411603
0.0411295
0.0411017
0.0410769
0.041055
0.0410358
0.041019
0.0410043
0.0409912
0.0409795
0.0409687
0.0409586
0.0409485
0.0409384
0.0409278
0.0409165
0.0409042
0.0408904
0.0408748
0.0408569
0.0408366
0.0408134
0.040787
0.0407569
0.0407224
0.0406831
0.0406384
0.0405879
0.0405311
0.0404674
0.0403961
0.0403162
0.0402268
0.0401271
0.0400164
0.0398938
0.0397587
0.0396104
0.0394479
0.03927
0.0390748
0.0388625
0.038633
0.0383856
0.0381202
0.0378346
0.0375274
0.0371977
0.0368452
0.036471
0.0360775
0.0356615
0.035225
0.0347657
0.0342831
0.0337819
0.0332658
0.0327438
0.0322098
0.0316727
0.0311262
0.0305853
0.0300462
0.0295136
0.0289897
0.0284785
0.0279862
0.0275119
0.0270509
0.0266103
0.0261946
0.0257918
0.0253993
0.0250166
0.024655
0.0243388
0.0240397
0.0237615
0.0234987
0.023265
0.0230538
0.0228607
0.0226717
0.0224863
0.0223062
0.0221282
0.0219514
0.021782
0.0216299
0.0213637
0.0499491
0.0431243
0.0427954
0.0426874
0.0425545
0.0424369
0.0423206
0.0422163
0.0421271
0.0420547
0.041999
0.0419542
0.0419136
0.041873
0.0418318
0.0417907
0.0417512
0.0417139
0.0416792
0.0416462
0.0416138
0.0415805
0.0415453
0.0415081
0.0414695
0.04143
0.0413906
0.0413519
0.0413145
0.0412788
0.0412453
0.0412142
0.0411859
0.0411606
0.0411383
0.0411191
0.0411027
0.0410888
0.0410771
0.0410673
0.0410589
0.0410517
0.0410453
0.0410392
0.0410332
0.0410269
0.0410202
0.0410127
0.0410041
0.040994
0.0409819
0.0409676
0.040951
0.0409315
0.0409087
0.0408822
0.0408513
0.0408156
0.0407747
0.0407281
0.0406753
0.0406157
0.0405484
0.0404725
0.0403873
0.0402919
0.0401857
0.0400682
0.0399382
0.0397947
0.0396366
0.0394631
0.0392747
0.0390705
0.0388487
0.0386077
0.0383445
0.0380585
0.0377509
0.0374221
0.0370729
0.0367038
0.0363121
0.0359015
0.0354693
0.0350191
0.0345489
0.034058
0.0335539
0.0330374
0.0325115
0.0319759
0.0314331
0.0308954
0.0303526
0.0298223
0.0292947
0.0287863
0.0282905
0.0278057
0.0273323
0.0268808
0.0264519
0.0260429
0.0256681
0.0253136
0.0249852
0.024658
0.0243456
0.0240495
0.0237772
0.0235229
0.0232861
0.0230635
0.0228577
0.0226642
0.0224777
0.0222887
0.022101
0.021916
0.0216083
0.0497105
0.043033
0.0427631
0.0426595
0.042531
0.0424198
0.0423105
0.0422114
0.042124
0.0420511
0.0419951
0.0419509
0.0419115
0.0418725
0.0418331
0.0417946
0.0417585
0.0417243
0.0416924
0.041662
0.0416328
0.0416033
0.0415723
0.0415392
0.0415042
0.041468
0.0414314
0.0413953
0.0413604
0.0413272
0.0412962
0.0412677
0.0412421
0.0412194
0.0411998
0.0411833
0.0411698
0.0411589
0.0411504
0.0411438
0.0411389
0.0411353
0.0411327
0.0411307
0.0411288
0.0411269
0.0411248
0.0411222
0.0411187
0.041114
0.0411077
0.0410995
0.0410892
0.0410765
0.0410609
0.0410421
0.0410195
0.0409925
0.0409609
0.0409241
0.0408818
0.0408333
0.0407779
0.0407148
0.0406432
0.0405622
0.0404713
0.0403698
0.0402567
0.0401313
0.0399928
0.0398402
0.0396732
0.0394902
0.0392896
0.0390705
0.0388314
0.0385728
0.0382956
0.0379997
0.0376849
0.0373502
0.0369931
0.0366151
0.0362138
0.035793
0.0353498
0.0348877
0.0344079
0.0339118
0.0334022
0.032879
0.032343
0.031809
0.0312653
0.0307214
0.0301724
0.0296332
0.0291039
0.0285896
0.0281009
0.0276197
0.027156
0.0267062
0.0262883
0.0258888
0.0255113
0.025143
0.0247965
0.0244729
0.0241771
0.0238967
0.0236295
0.0233773
0.023137
0.0229137
0.0227034
0.0225027
0.0223163
0.0221476
0.0218747
0.0494967
0.0429252
0.0427115
0.0426179
0.0424949
0.0423906
0.042289
0.0421961
0.0421124
0.042041
0.0419849
0.041941
0.0419035
0.0418678
0.0418314
0.0417949
0.0417605
0.0417293
0.0417005
0.0416731
0.041647
0.0416213
0.0415947
0.0415664
0.041536
0.0415039
0.0414708
0.0414377
0.0414057
0.0413752
0.0413469
0.0413212
0.0412982
0.0412782
0.0412614
0.0412477
0.041237
0.0412292
0.0412238
0.0412205
0.0412191
0.0412191
0.0412202
0.0412221
0.0412243
0.0412268
0.0412291
0.0412312
0.0412327
0.0412332
0.0412325
0.0412301
0.0412261
0.04122
0.0412113
0.0411999
0.0411852
0.0411667
0.0411441
0.0411168
0.0410845
0.0410469
0.0410031
0.0409525
0.0408942
0.0408275
0.0407518
0.0406664
0.0405705
0.0404635
0.0403444
0.0402121
0.0400658
0.0399043
0.039727
0.0395337
0.039323
0.0390943
0.0388472
0.03858
0.0382916
0.0379804
0.0376453
0.0372884
0.0369095
0.0365115
0.0360907
0.0356527
0.0351944
0.0347188
0.0342291
0.0337234
0.0332062
0.032677
0.032148
0.0316086
0.0310746
0.030531
0.0300079
0.029475
0.0289587
0.0284408
0.0279361
0.0274494
0.02699
0.0265467
0.0261206
0.0257152
0.0253379
0.0249828
0.02465
0.0243271
0.0240176
0.0237253
0.0234515
0.0231954
0.0229539
0.0227167
0.0224881
0.0222783
0.0219078
0.0492884
0.0428311
0.042658
0.0425786
0.0424516
0.0423459
0.0422477
0.0421624
0.0420873
0.0420215
0.0419668
0.0419228
0.0418868
0.0418548
0.0418231
0.041791
0.0417595
0.0417301
0.0417033
0.0416789
0.041656
0.0416342
0.0416122
0.0415892
0.0415641
0.041537
0.0415083
0.041479
0.0414502
0.0414228
0.0413974
0.0413746
0.0413545
0.0413374
0.0413235
0.0413128
0.0413052
0.0413005
0.0412984
0.0412985
0.0413006
0.0413042
0.0413091
0.0413149
0.0413214
0.0413281
0.041335
0.0413418
0.0413483
0.041354
0.0413588
0.0413623
0.0413642
0.0413646
0.0413628
0.0413587
0.0413519
0.0413415
0.0413276
0.0413096
0.041287
0.0412598
0.0412271
0.0411883
0.0411428
0.0410895
0.0410281
0.0409578
0.0408779
0.0407879
0.0406867
0.0405732
0.040447
0.0403071
0.0401531
0.0399842
0.0397986
0.0395951
0.0393726
0.0391295
0.0388658
0.0385809
0.0382746
0.0379479
0.0375997
0.0372308
0.0368388
0.0364273
0.0359913
0.0355388
0.0350672
0.0345758
0.0340684
0.0335389
0.0330104
0.0324673
0.0319339
0.0313818
0.0308471
0.0303094
0.0297786
0.0292544
0.028735
0.0282349
0.0277431
0.0272658
0.0268122
0.0263897
0.0260032
0.0256311
0.0252734
0.0249236
0.0245935
0.0242822
0.023993
0.0237182
0.0234571
0.0231991
0.0229518
0.0227175
0.0222713
0.0491198
0.0428054
0.0426084
0.0425425
0.0424115
0.0422966
0.0421971
0.0421188
0.0420523
0.0419925
0.0419405
0.0418972
0.0418622
0.0418331
0.0418066
0.0417802
0.0417536
0.0417275
0.041703
0.0416809
0.0416611
0.0416431
0.0416257
0.0416078
0.0415885
0.0415671
0.0415436
0.0415187
0.0414938
0.0414699
0.0414478
0.041428
0.041411
0.0413969
0.041386
0.0413784
0.0413739
0.0413724
0.0413736
0.0413773
0.0413827
0.04139
0.0413987
0.0414085
0.041419
0.0414301
0.0414414
0.0414529
0.0414642
0.041475
0.0414852
0.0414943
0.0415022
0.0415087
0.0415135
0.0415163
0.0415169
0.0415145
0.0415092
0.0415002
0.041487
0.0414698
0.0414479
0.0414206
0.0413874
0.0413474
0.0413001
0.0412448
0.0411809
0.0411078
0.0410246
0.0409305
0.0408247
0.0407062
0.0405744
0.0404284
0.0402663
0.0400875
0.0398909
0.0396755
0.0394416
0.0391886
0.0389157
0.0386228
0.0383086
0.0379729
0.0376149
0.0372364
0.0368335
0.0364127
0.0359683
0.0355064
0.0350241
0.0345198
0.0340014
0.0334704
0.0329316
0.032376
0.031816
0.0312754
0.0307186
0.0301845
0.0296438
0.0291217
0.0285967
0.0280854
0.0275936
0.0271297
0.0266942
0.0262775
0.0258802
0.0254968
0.0251389
0.0248044
0.0244994
0.0242082
0.0239244
0.0236474
0.0233904
0.0231595
0.0227902
0.0489948
0.0428289
0.0425579
0.0425035
0.0423837
0.0422714
0.0421723
0.0420921
0.0420259
0.0419697
0.0419214
0.0418792
0.0418431
0.0418133
0.0417882
0.0417653
0.0417429
0.0417208
0.0417001
0.0416812
0.0416643
0.0416496
0.0416362
0.0416231
0.0416091
0.0415937
0.0415759
0.0415563
0.041536
0.0415161
0.0414976
0.0414812
0.0414674
0.0414566
0.0414489
0.0414445
0.0414433
0.0414453
0.04145
0.041457
0.0414661
0.0414772
0.0414897
0.0415035
0.0415183
0.0415336
0.0415494
0.0415655
0.0415817
0.0415976
0.0416131
0.0416278
0.0416416
0.0416543
0.0416656
0.0416753
0.0416829
0.0416882
0.0416908
0.0416909
0.0416869
0.0416795
0.0416679
0.0416515
0.04163
0.0416024
0.0415684
0.0415272
0.0414782
0.0414209
0.0413544
0.0412781
0.0411912
0.0410926
0.0409817
0.0408579
0.0407195
0.0405663
0.0403969
0.0402105
0.040007
0.0397852
0.0395435
0.0392813
0.0389969
0.0386904
0.038362
0.0380114
0.037636
0.0372404
0.0368212
0.0363869
0.0359312
0.0354573
0.0349654
0.0344603
0.0339391
0.0334099
0.032864
0.0323241
0.03177
0.0312269
0.0306809
0.0301321
0.0295894
0.0290528
0.0285304
0.0280237
0.027529
0.0270489
0.0265908
0.0261508
0.0257386
0.0253446
0.0249801
0.0246328
0.0242957
0.023963
0.0236416
0.0233544
0.0228298
0.0488771
0.0428669
0.0425292
0.0424873
0.0423835
0.0422733
0.0421709
0.0420859
0.0420184
0.0419637
0.0419172
0.0418754
0.0418383
0.0418068
0.0417806
0.041758
0.0417372
0.0417173
0.0416987
0.0416819
0.0416673
0.0416554
0.0416453
0.0416362
0.0416272
0.0416173
0.0416055
0.0415915
0.0415764
0.0415612
0.0415468
0.0415341
0.0415238
0.0415163
0.041512
0.0415109
0.0415132
0.0415185
0.0415266
0.0415372
0.0415501
0.0415648
0.0415812
0.041599
0.0416179
0.0416375
0.0416577
0.0416784
0.0416993
0.0417202
0.0417408
0.041761
0.0417804
0.041799
0.0418166
0.0418329
0.0418477
0.0418605
0.0418708
0.0418787
0.0418838
0.0418857
0.0418842
0.0418785
0.0418685
0.041853
0.041832
0.0418047
0.0417704
0.0417287
0.041679
0.0416204
0.0415524
0.0414737
0.0413839
0.0412822
0.0411672
0.0410386
0.0408949
0.040735
0.0405585
0.0403636
0.0401493
0.039915
0.0396596
0.0393835
0.0390865
0.0387675
0.0384246
0.0380605
0.0376731
0.0372676
0.036837
0.0363873
0.0359132
0.0354204
0.0349136
0.0343904
0.0338501
0.0332946
0.0327434
0.0321859
0.0316494
0.0310901
0.0305511
0.0299979
0.0294629
0.0289321
0.0284243
0.0279427
0.027492
0.0270615
0.026655
0.0262477
0.0258569
0.0254731
0.0251106
0.0247587
0.0244187
0.0240951
0.0234872
0.0487354
0.0429067
0.0425542
0.0425033
0.0424055
0.0422982
0.0421903
0.0420962
0.0420238
0.0419682
0.0419226
0.0418812
0.0418429
0.0418095
0.0417817
0.0417582
0.0417374
0.041718
0.0416999
0.041684
0.0416711
0.0416614
0.0416542
0.0416486
0.0416437
0.0416388
0.0416325
0.0416242
0.0416146
0.0416045
0.0415947
0.0415862
0.0415797
0.0415758
0.041575
0.0415775
0.0415832
0.0415919
0.0416037
0.041618
0.0416346
0.0416532
0.0416736
0.0416954
0.0417185
0.0417424
0.0417671
0.0417923
0.0418179
0.0418437
0.0418695
0.041895
0.0419201
0.0419446
0.0419683
0.0419911
0.0420126
0.0420325
0.0420507
0.0420667
0.0420803
0.042091
0.0420988
0.0421032
0.0421041
0.0421002
0.0420916
0.0420774
0.0420567
0.0420296
0.0419952
0.0419531
0.0419024
0.0418423
0.0417722
0.0416913
0.0415986
0.0414935
0.0413745
0.0412406
0.0410914
0.0409253
0.0407417
0.0405401
0.0403192
0.0400787
0.0398179
0.039535
0.0392293
0.038902
0.0385517
0.0381808
0.037785
0.0373688
0.036926
0.0364646
0.0359829
0.0354845
0.0349725
0.0344306
0.0338928
0.0333374
0.0327945
0.0322227
0.0316639
0.0310958
0.0305238
0.0299525
0.0293902
0.0288437
0.0283197
0.0278194
0.0273523
0.0269046
0.0264794
0.0260677
0.0256798
0.0253181
0.0249886
0.0246892
0.0241519
0.0485512
0.0429539
0.0426069
0.0425472
0.0424556
0.0423547
0.0422431
0.0421381
0.0420547
0.0419939
0.0419475
0.041906
0.0418652
0.0418267
0.0417935
0.0417662
0.0417434
0.0417231
0.0417051
0.0416898
0.0416779
0.04167
0.0416652
0.0416624
0.0416608
0.04166
0.0416585
0.0416554
0.0416511
0.0416463
0.0416415
0.0416376
0.0416353
0.041635
0.0416381
0.041644
0.0416531
0.0416654
0.0416808
0.0416988
0.0417191
0.0417416
0.0417659
0.0417917
0.0418188
0.041847
0.041876
0.0419056
0.0419358
0.0419664
0.0419972
0.0420279
0.0420584
0.0420885
0.0421182
0.0421471
0.0421752
0.0422021
0.0422275
0.0422512
0.042273
0.0422925
0.0423095
0.0423235
0.0423343
0.0423415
0.0423446
0.0423434
0.0423363
0.0423238
0.0423045
0.0422786
0.0422451
0.0422033
0.0421527
0.0420922
0.0420212
0.0419388
0.0418437
0.0417351
0.0416125
0.0414745
0.0413206
0.0411498
0.0409604
0.0407519
0.0405232
0.0402734
0.0400025
0.0397102
0.0393943
0.0390562
0.0386937
0.0383093
0.0378972
0.0374659
0.0370122
0.0365438
0.0360556
0.0355491
0.0350214
0.0344825
0.0339312
0.033382
0.0328185
0.0322638
0.0316876
0.0311241
0.0305633
0.0300074
0.0294619
0.0289167
0.0283866
0.0278682
0.027375
0.0268933
0.0264251
0.0259731
0.0255533
0.0251714
0.0244625
0.0483072
0.0430159
0.0426799
0.0426064
0.0425199
0.0424289
0.0423231
0.0422142
0.0421192
0.0420482
0.0419969
0.0419547
0.0419132
0.0418708
0.0418305
0.0417956
0.0417664
0.0417418
0.0417211
0.0417044
0.041692
0.0416848
0.0416816
0.0416807
0.0416814
0.0416837
0.0416858
0.0416868
0.0416871
0.0416872
0.0416873
0.041688
0.0416901
0.0416942
0.0417008
0.0417103
0.041723
0.0417389
0.0417578
0.0417795
0.0418037
0.0418299
0.0418581
0.041888
0.0419192
0.0419516
0.041985
0.0420191
0.0420538
0.0420891
0.0421248
0.0421607
0.0421965
0.0422321
0.0422675
0.0423025
0.0423369
0.0423705
0.042403
0.0424342
0.0424638
0.0424915
0.0425173
0.0425406
0.0425614
0.042579
0.0425929
0.0426029
0.0426085
0.0426096
0.0426046
0.0425938
0.0425764
0.0425513
0.0425187
0.0424772
0.0424266
0.0423658
0.0422938
0.04221
0.0421134
0.0420028
0.0418775
0.0417364
0.0415777
0.0414009
0.0412051
0.0409896
0.0407543
0.0404977
0.0402173
0.0399144
0.0395879
0.0392391
0.0388646
0.03847
0.0380516
0.0376148
0.0371527
0.0366687
0.0361608
0.0356304
0.0350849
0.0345392
0.0339739
0.0334171
0.0328341
0.0322599
0.0316715
0.0310995
0.0305363
0.029987
0.0294482
0.028931
0.0284425
0.0279635
0.0275105
0.0270646
0.0266386
0.0262503
0.0255606
0.0479901
0.0430731
0.0427644
0.0426834
0.0425941
0.0425089
0.042415
0.0423135
0.0422138
0.0421317
0.0420711
0.0420248
0.0419827
0.041939
0.041894
0.0418513
0.0418136
0.0417816
0.0417555
0.0417349
0.0417199
0.0417113
0.0417079
0.0417077
0.0417095
0.0417132
0.0417176
0.0417215
0.041725
0.0417289
0.0417333
0.0417384
0.0417448
0.0417529
0.0417634
0.0417766
0.0417929
0.0418123
0.0418347
0.0418599
0.0418877
0.0419177
0.0419497
0.0419835
0.0420187
0.0420552
0.0420927
0.0421311
0.0421703
0.0422102
0.0422505
0.0422913
0.0423322
0.0423731
0.042414
0.0424547
0.0424951
0.0425351
0.0425743
0.0426125
0.0426496
0.0426852
0.0427193
0.0427515
0.0427816
0.0428091
0.0428338
0.0428553
0.0428728
0.0428861
0.0428949
0.0428987
0.0428973
0.0428888
0.0428739
0.042851
0.0428201
0.0427801
0.0427301
0.0426696
0.0425974
0.0425124
0.0424143
0.0423017
0.0421733
0.0420286
0.0418665
0.0416865
0.041488
0.0412688
0.041027
0.0407635
0.0404779
0.0401708
0.0398397
0.0394859
0.0391053
0.0387027
0.0382745
0.0378256
0.0373505
0.0368541
0.0363405
0.0358117
0.0352777
0.034722
0.0341686
0.0335995
0.0330136
0.0324166
0.0318097
0.0312167
0.0306247
0.0300374
0.0294631
0.0289101
0.0283768
0.0278592
0.0273562
0.0269021
0.0260411
0.0475856
0.0431043
0.0428618
0.0427724
0.0426804
0.0425921
0.0425077
0.0424184
0.0423241
0.0422367
0.0421658
0.042112
0.0420676
0.0420247
0.0419792
0.0419317
0.0418856
0.0418444
0.0418102
0.0417835
0.0417641
0.0417522
0.0417469
0.0417461
0.0417476
0.0417513
0.0417565
0.0417618
0.0417672
0.0417735
0.041781
0.0417897
0.0417999
0.0418119
0.0418261
0.0418429
0.0418627
0.0418855
0.0419113
0.04194
0.0419713
0.042005
0.0420407
0.0420782
0.0421173
0.0421578
0.0421995
0.0422421
0.0422856
0.0423299
0.0423749
0.0424204
0.0424662
0.0425123
0.0425585
0.0426048
0.0426511
0.0426971
0.0427427
0.0427878
0.0428319
0.0428751
0.0429171
0.0429576
0.0429965
0.0430335
0.043068
0.0431
0.0431289
0.0431543
0.0431757
0.0431926
0.0432046
0.0432115
0.0432132
0.0432075
0.0431953
0.043175
0.0431456
0.0431073
0.0430585
0.0429986
0.0429272
0.0428429
0.0427445
0.0426313
0.0425018
0.0423552
0.0421905
0.042006
0.0418007
0.0415751
0.0413283
0.04106
0.0407679
0.0404506
0.040105
0.0397365
0.0393442
0.038932
0.0384932
0.0380327
0.0375489
0.0370468
0.0365244
0.0359876
0.0354366
0.0348687
0.0342982
0.0336903
0.0331054
0.0325213
0.0319517
0.0313718
0.0307857
0.0302034
0.0296433
0.0291008
0.0285759
0.02808
0.0271166
0.047104
0.0430605
0.0428998
0.0428514
0.0427713
0.0426781
0.0425946
0.0425127
0.0424286
0.0423449
0.04227
0.0422094
0.0421614
0.0421194
0.0420766
0.0420288
0.0419775
0.0419277
0.0418844
0.0418502
0.0418252
0.0418088
0.0418
0.0417973
0.0417976
0.0418
0.0418045
0.0418099
0.0418158
0.0418231
0.0418322
0.0418433
0.0418563
0.0418715
0.0418891
0.0419094
0.0419324
0.0419585
0.0419876
0.0420196
0.0420542
0.0420913
0.0421305
0.0421716
0.0422145
0.0422588
0.0423043
0.042351
0.0423986
0.0424471
0.0424964
0.0425464
0.042597
0.0426479
0.0426991
0.0427507
0.0428024
0.0428541
0.0429058
0.0429571
0.043008
0.0430582
0.0431076
0.0431561
0.0432033
0.043249
0.043293
0.0433349
0.0433744
0.0434111
0.0434446
0.0434745
0.0435005
0.0435217
0.043538
0.043549
0.043554
0.0435533
0.0435435
0.0435265
0.0434999
0.0434636
0.0434169
0.0433586
0.043288
0.0432038
0.0431048
0.0429902
0.042859
0.0427103
0.0425437
0.0423583
0.0421521
0.0419245
0.0416735
0.0413978
0.0410962
0.040773
0.0404271
0.0400605
0.0396677
0.0392508
0.0388055
0.0383376
0.0378451
0.0373322
0.0367993
0.0362506
0.0356839
0.035108
0.0345307
0.0339204
0.0333209
0.0327223
0.0321285
0.0315188
0.0309094
0.0303304
0.0297828
0.0292844
0.0283924
0.0466174
0.0429229
0.0428885
0.0428645
0.0428012
0.0427325
0.0426622
0.0425914
0.0425191
0.0424437
0.04237
0.0423055
0.0422546
0.0422144
0.0421767
0.0421334
0.042082
0.0420266
0.0419746
0.041932
0.0419006
0.0418793
0.0418664
0.0418605
0.0418591
0.0418596
0.0418624
0.0418667
0.041872
0.0418789
0.0418884
0.0419004
0.0419152
0.0419327
0.041953
0.0419762
0.0420023
0.0420314
0.0420636
0.0420986
0.0421364
0.0421767
0.0422193
0.0422638
0.0423101
0.042358
0.0424073
0.0424578
0.0425094
0.0425619
0.0426154
0.0426697
0.0427248
0.0427803
0.0428364
0.0428929
0.0429499
0.0430071
0.0430645
0.0431218
0.0431791
0.0432359
0.0432924
0.0433482
0.0434032
0.0434572
0.0435098
0.043561
0.0436103
0.0436575
0.0437021
0.0437437
0.0437821
0.0438168
0.0438475
0.0438735
0.0438942
0.0439094
0.0439185
0.0439213
0.0439157
0.043902
0.043879
0.0438452
0.0438014
0.0437454
0.0436765
0.0435938
0.0434964
0.0433832
0.0432537
0.0431059
0.0429378
0.042749
0.0425383
0.0423053
0.0420493
0.0417716
0.0414696
0.0411449
0.0407932
0.0404153
0.0400071
0.0395748
0.0391174
0.0386383
0.0381353
0.0376158
0.0370827
0.0365334
0.0359596
0.0353634
0.0347472
0.0341431
0.033537
0.0329582
0.03227
0.0316229
0.0309918
0.0304097
0.029354
0.0462462
0.0427428
0.0427919
0.0428301
0.0428037
0.0427446
0.0426785
0.0426315
0.0425836
0.0425249
0.0424611
0.0423979
0.0423445
0.0423039
0.0422703
0.042234
0.0421879
0.0421324
0.0420749
0.0420248
0.0419868
0.0419606
0.0419437
0.0419342
0.04193
0.0419288
0.0419293
0.0419316
0.0419355
0.0419412
0.04195
0.0419619
0.0419772
0.041996
0.0420182
0.0420437
0.0420723
0.0421042
0.0421391
0.042177
0.0422178
0.0422611
0.0423066
0.0423543
0.0424039
0.0424552
0.0425079
0.042562
0.0426172
0.0426735
0.0427309
0.0427893
0.0428484
0.0429083
0.0429689
0.0430301
0.0430918
0.0431541
0.0432168
0.0432797
0.0433428
0.0434058
0.0434687
0.0435313
0.0435936
0.0436552
0.043716
0.0437757
0.0438341
0.043891
0.0439459
0.0439987
0.0440488
0.044096
0.0441399
0.0441801
0.0442162
0.0442477
0.0442737
0.0442939
0.0443076
0.0443143
0.0443146
0.0443037
0.0442853
0.0442558
0.0442149
0.0441619
0.0440954
0.0440147
0.0439188
0.0438059
0.0436748
0.0435251
0.043356
0.0431672
0.0429574
0.0427247
0.042466
0.0421832
0.0418743
0.0415406
0.0411787
0.0407927
0.0403816
0.0399485
0.0394901
0.0390106
0.0385094
0.03799
0.037446
0.0368771
0.0362908
0.0356956
0.0351017
0.0344983
0.0339066
0.0332728
0.0326455
0.0320659
0.0309929
0.0460318
0.0425671
0.0426186
0.0427178
0.0427379
0.0427205
0.0426772
0.0426394
0.042607
0.0425758
0.0425333
0.0424815
0.0424296
0.0423874
0.0423551
0.0423247
0.0422865
0.0422359
0.0421778
0.0421225
0.0420784
0.0420475
0.0420271
0.0420144
0.0420074
0.0420041
0.0420029
0.042003
0.0420049
0.0420091
0.0420167
0.0420277
0.0420427
0.0420618
0.042085
0.042112
0.0421427
0.0421769
0.0422143
0.0422548
0.0422982
0.0423442
0.0423926
0.0424432
0.0424958
0.0425501
0.0426061
0.0426635
0.0427221
0.042782
0.042843
0.0429051
0.0429682
0.0430321
0.0430969
0.0431624
0.0432287
0.0432957
0.0433634
0.0434315
0.0435001
0.0435689
0.0436378
0.0437068
0.0437758
0.0438445
0.0439127
0.0439803
0.0440471
0.0441129
0.0441773
0.0442401
0.0443009
0.0443594
0.0444154
0.0444684
0.0445181
0.044564
0.0446058
0.0446428
0.0446745
0.0446998
0.0447188
0.0447307
0.0447352
0.0447307
0.044716
0.044691
0.0446535
0.044604
0.0445409
0.0444633
0.0443701
0.0442607
0.0441336
0.0439881
0.0438217
0.0436318
0.0434167
0.0431789
0.0429176
0.0426341
0.0423248
0.0419906
0.0416297
0.0412444
0.0408318
0.0403918
0.0399227
0.0394314
0.0389174
0.0383845
0.0378249
0.037244
0.0366464
0.0360464
0.0354311
0.034823
0.0341476
0.0335293
0.0324486
0.0459637
0.0424768
0.0424865
0.0425658
0.0426127
0.0426358
0.0426301
0.0426154
0.0426027
0.0425913
0.0425761
0.0425495
0.0425092
0.0424667
0.0424323
0.0424042
0.0423728
0.0423303
0.0422766
0.0422202
0.0421718
0.0421367
0.0421132
0.0420981
0.0420888
0.0420834
0.0420804
0.042079
0.0420787
0.0420813
0.0420874
0.0420972
0.0421113
0.0421301
0.0421535
0.0421814
0.0422135
0.0422495
0.0422889
0.0423317
0.0423775
0.042426
0.042477
0.0425302
0.0425855
0.0426426
0.0427015
0.0427619
0.0428237
0.0428867
0.0429511
0.0430166
0.0430833
0.043151
0.0432196
0.0432891
0.0433596
0.0434309
0.0435031
0.043576
0.0436495
0.0437236
0.043798
0.0438728
0.0439478
0.0440229
0.044098
0.0441728
0.0442472
0.044321
0.044394
0.044466
0.0445366
0.0446055
0.0446726
0.0447374
0.0447996
0.044859
0.044915
0.0449673
0.0450153
0.0450584
0.0450961
0.0451276
0.0451524
0.04517
0.0451795
0.0451815
0.0451714
0.045152
0.0451202
0.0450752
0.045017
0.0449437
0.0448538
0.0447462
0.044619
0.0444709
0.0443015
0.0441118
0.0438999
0.0436662
0.043407
0.0431219
0.042808
0.0424681
0.0421001
0.0417041
0.0412799
0.0408328
0.0403642
0.0398781
0.0393635
0.0388248
0.0382548
0.0376715
0.0370691
0.03647
0.0358137
0.0351815
0.0341074
0.0459868
0.042522
0.0424044
0.042426
0.0424478
0.0424918
0.0425269
0.0425526
0.0425701
0.0425822
0.042586
0.0425865
0.0425729
0.0425408
0.0425059
0.042476
0.0424472
0.0424115
0.0423652
0.0423119
0.0422621
0.0422236
0.0421974
0.0421806
0.0421697
0.0421628
0.0421584
0.0421557
0.0421542
0.0421549
0.04216
0.0421686
0.0421818
0.0422
0.0422232
0.0422514
0.0422843
0.0423216
0.0423627
0.0424075
0.0424554
0.0425061
0.0425595
0.0426151
0.0426728
0.0427325
0.0427941
0.0428572
0.0429218
0.0429878
0.0430552
0.0431239
0.0431939
0.0432649
0.0433371
0.0434103
0.0434846
0.0435599
0.0436363
0.0437135
0.0437916
0.0438705
0.04395
0.04403
0.0441106
0.0441916
0.0442729
0.0443543
0.0444356
0.0445167
0.0445975
0.0446778
0.0447572
0.0448355
0.0449124
0.0449878
0.0450613
0.0451326
0.0452014
0.0452674
0.04533
0.0453887
0.0454431
0.0454926
0.0455369
0.0455751
0.0456063
0.0456303
0.045646
0.045653
0.0456508
0.0456352
0.0456096
0.0455698
0.0455158
0.0454463
0.0453602
0.0452571
0.0451358
0.0449946
0.0448312
0.0446454
0.0444346
0.0441985
0.043934
0.0436439
0.0433268
0.0429844
0.0426158
0.0422204
0.0417992
0.0413535
0.0408816
0.0403873
0.0398631
0.0393201
0.0387482
0.0381688
0.037557
0.0369507
0.0359821
0.0460211
0.0425696
0.0423951
0.0423647
0.0423198
0.0423268
0.0423693
0.0424294
0.0424928
0.0425463
0.0425742
0.0425964
0.0426063
0.0425991
0.0425726
0.0425421
0.0425125
0.0424809
0.042442
0.0423951
0.0423472
0.0423071
0.0422786
0.0422599
0.0422479
0.04224
0.0422349
0.0422314
0.0422291
0.0422288
0.042233
0.0422409
0.0422533
0.042271
0.0422938
0.0423221
0.0423554
0.0423936
0.042436
0.0424824
0.0425321
0.0425849
0.0426403
0.0426981
0.042758
0.04282
0.0428839
0.0429495
0.0430166
0.0430853
0.0431554
0.0432269
0.0432998
0.0433739
0.0434492
0.0435258
0.0436035
0.0436824
0.0437624
0.0438436
0.0439258
0.0440089
0.0440929
0.0441777
0.0442633
0.0443495
0.0444363
0.0445236
0.0446111
0.0446987
0.0447864
0.044874
0.0449612
0.0450479
0.0451337
0.0452185
0.0453021
0.0453841
0.0454644
0.0455426
0.0456183
0.0456911
0.0457605
0.0458261
0.0458875
0.0459441
0.0459954
0.0460407
0.0460791
0.0461097
0.0461323
0.0461458
0.0461505
0.0461429
0.0461236
0.0460912
0.0460436
0.0459815
0.0459018
0.0458026
0.0456822
0.0455405
0.0453758
0.0451884
0.0449756
0.0447385
0.0444746
0.0441859
0.0438689
0.0435222
0.0431467
0.042743
0.0423154
0.0418621
0.0413783
0.0408679
0.0403192
0.0397582
0.0391467
0.0385337
0.0376345
0.0460516
0.0425987
0.0424093
0.0423498
0.0422464
0.0422027
0.0422089
0.0422662
0.0423609
0.0424603
0.0425389
0.0425847
0.0426158
0.0426302
0.0426252
0.0426014
0.0425715
0.0425411
0.042508
0.0424685
0.0424251
0.042385
0.0423546
0.0423342
0.0423212
0.0423128
0.0423074
0.0423037
0.0423012
0.0423005
0.0423042
0.042312
0.0423241
0.0423414
0.0423641
0.0423923
0.0424259
0.0424646
0.0425081
0.0425557
0.042607
0.0426615
0.0427188
0.0427785
0.0428405
0.0429045
0.0429705
0.0430383
0.0431077
0.0431787
0.0432512
0.0433253
0.0434008
0.0434776
0.0435558
0.0436353
0.0437161
0.0437982
0.0438816
0.0439663
0.0440521
0.0441392
0.0442272
0.0443163
0.0444063
0.0444972
0.044589
0.0446814
0.0447745
0.044868
0.0449618
0.0450559
0.0451501
0.0452441
0.0453378
0.045431
0.0455234
0.0456149
0.0457052
0.0457941
0.0458814
0.0459665
0.0460491
0.0461289
0.0462054
0.0462782
0.0463469
0.0464109
0.0464696
0.0465223
0.0465684
0.0466067
0.0466369
0.0466577
0.0466689
0.0466707
0.0466567
0.0466317
0.0465903
0.0465317
0.0464563
0.0463623
0.0462488
0.0461153
0.0459591
0.0457794
0.0455725
0.0453402
0.0450788
0.0447896
0.0444714
0.0441244
0.0437525
0.0433529
0.0429298
0.0424765
0.0419918
0.0414766
0.0409179
0.0403179
0.0394909
0.0460885
0.0426371
0.04243
0.042351
0.0422182
0.0421277
0.0420903
0.0421101
0.0421944
0.0423248
0.0424558
0.0425503
0.0426074
0.0426412
0.0426538
0.0426467
0.0426228
0.042594
0.0425646
0.0425319
0.042495
0.042457
0.0424253
0.0424029
0.0423887
0.04238
0.0423746
0.0423712
0.042369
0.0423686
0.0423722
0.0423803
0.0423926
0.0424101
0.0424329
0.0424612
0.0424951
0.0425344
0.0425787
0.0426275
0.0426801
0.0427362
0.0427952
0.0428566
0.0429204
0.0429863
0.0430542
0.0431239
0.0431953
0.0432684
0.0433431
0.0434193
0.0434972
0.0435764
0.0436572
0.0437393
0.0438228
0.0439077
0.0439941
0.0440819
0.044171
0.0442614
0.044353
0.0444458
0.0445397
0.0446348
0.0447308
0.0448279
0.0449257
0.0450243
0.0451235
0.0452233
0.0453235
0.0454239
0.0455244
0.0456249
0.045725
0.0458247
0.0459238
0.046022
0.0461192
0.0462151
0.0463092
0.0464013
0.0464911
0.0465781
0.0466621
0.0467425
0.0468188
0.0468905
0.046957
0.0470176
0.0470717
0.0471185
0.0471568
0.0471865
0.0472058
0.0472148
0.0472127
0.0471938
0.0471632
0.0471149
0.0470492
0.0469639
0.046857
0.0467268
0.0465707
0.0463894
0.0461794
0.0459433
0.0456769
0.0453818
0.045057
0.0447018
0.0443197
0.0439025
0.0434557
0.0429716
0.0424539
0.0418764
0.0411225
0.0461322
0.0426671
0.0424577
0.0423622
0.0422169
0.042097
0.0420179
0.0419985
0.0420394
0.0421585
0.0423252
0.0424778
0.0425789
0.0426366
0.0426644
0.0426718
0.0426624
0.0426394
0.0426138
0.042587
0.0425569
0.0425228
0.0424913
0.0424669
0.0424513
0.042442
0.0424367
0.0424335
0.042432
0.0424326
0.0424365
0.0424454
0.0424583
0.0424765
0.0424999
0.0425287
0.0425631
0.042603
0.0426481
0.0426978
0.0427517
0.0428091
0.0428695
0.0429325
0.0429979
0.0430654
0.0431349
0.0432064
0.0432795
0.0433544
0.043431
0.0435091
0.043589
0.0436703
0.0437532
0.0438376
0.0439235
0.0440109
0.0440999
0.0441903
0.0442822
0.0443756
0.0444703
0.0445664
0.0446637
0.0447624
0.0448622
0.0449632
0.0450653
0.0451683
0.0452722
0.0453769
0.0454823
0.0455883
0.0456947
0.0458014
0.0459082
0.0460149
0.0461215
0.0462278
0.0463336
0.0464386
0.0465426
0.0466453
0.0467464
0.0468456
0.0469426
0.0470371
0.0471286
0.0472167
0.0473008
0.0473805
0.0474552
0.0475244
0.0475873
0.0476431
0.0476907
0.047729
0.047758
0.0477757
0.0477825
0.0477741
0.0477497
0.0477086
0.0476482
0.0475685
0.047467
0.0473429
0.0471927
0.0470177
0.0468124
0.0465791
0.0463137
0.0460192
0.0456945
0.0453342
0.044942
0.0445058
0.0440334
0.0434939
0.0427954
0.046175
0.0426883
0.0424821
0.0423686
0.0422144
0.0420834
0.0419815
0.0419315
0.0419346
0.0420055
0.0421659
0.0423626
0.0425214
0.0426143
0.0426615
0.0426816
0.0426854
0.0426752
0.0426556
0.0426345
0.0426113
0.0425825
0.0425522
0.042526
0.0425087
0.0424985
0.0424931
0.0424904
0.0424896
0.0424915
0.042496
0.042506
0.0425201
0.0425394
0.0425638
0.0425935
0.0426287
0.0426693
0.0427152
0.0427659
0.0428208
0.0428795
0.0429412
0.0430056
0.0430724
0.0431414
0.0432124
0.0432853
0.04336
0.0434364
0.0435146
0.0435945
0.043676
0.0437592
0.043844
0.0439304
0.0440184
0.0441079
0.0441991
0.0442919
0.0443863
0.0444822
0.0445797
0.0446786
0.0447789
0.0448806
0.0449837
0.0450882
0.0451938
0.0453007
0.0454086
0.0455175
0.0456274
0.0457381
0.0458495
0.0459615
0.046074
0.0461868
0.0462998
0.0464128
0.0465259
0.0466386
0.0467509
0.0468625
0.0469731
0.0470826
0.0471906
0.047297
0.0474013
0.0475032
0.0476024
0.0476982
0.0477905
0.0478785
0.0479619
0.0480399
0.0481119
0.0481771
0.0482347
0.0482833
0.0483222
0.0483502
0.0483665
0.0483712
0.0483582
0.0483313
0.0482858
0.0482193
0.0481304
0.0480173
0.0478755
0.047706
0.0475026
0.0472692
0.0469985
0.0466907
0.0463416
0.0459428
0.0455051
0.044999
0.0443465
0.0462247
0.0426936
0.0424912
0.0423674
0.0422096
0.0420741
0.0419639
0.0418969
0.0418746
0.0418997
0.0420157
0.0422198
0.0424297
0.0425731
0.0426483
0.0426818
0.0426961
0.0426981
0.0426897
0.0426754
0.0426587
0.0426358
0.0426078
0.0425805
0.0425615
0.0425503
0.0425447
0.0425425
0.0425425
0.042546
0.0425514
0.0425629
0.0425784
0.0425992
0.042625
0.0426559
0.0426922
0.0427338