/*--------------------------------*- C++ -*----------------------------------*\
| =========                 |                                                 |
| \\      /  F ield         | OpenFOAM: The Open Source CFD Toolbox           |
|  \\    /   O peration     | Version:  2412                                  |
|   \\  /    A nd           | Website:  www.openfoam.com                      |
|    \\/     M anipulation  |                                                 |
\*---------------------------------------------------------------------------*/
FoamFile
{
    version     2.0;
    format      ascii;
    arch        "LSB;label=32;scalar=64";
    class       volScalarField;
    location    "0.049";
    object      rho;
}
// * * * * * * * * * * * * * * * * * * * * * * * * * * * * * * * * * * * * * //

dimensions      [1 -3 0 0 0 0 0];

internalField   nonuniform List<scalar> 
78650
(
0.042133
0.0421331
0.0421354
0.0421586
0.0422398
0.0423489
0.0424032
0.0424153
0.0423689
0.0422344
0.0420835
0.0419658
0.0418738
0.0417888
0.0417045
0.041641
0.0416183
0.0416231
0.0416508
0.0416847
0.0417018
0.0417043
0.0416969
0.0416796
0.0416602
0.0416421
0.0416248
0.0416075
0.0415903
0.0415739
0.0415583
0.0415437
0.0415293
0.0415142
0.0414973
0.0414777
0.0414556
0.0414316
0.0414062
0.0413801
0.0413538
0.0413279
0.0413025
0.041278
0.0412545
0.0412322
0.0412114
0.0411919
0.0411737
0.0411568
0.0411411
0.0411265
0.0411131
0.0411007
0.0410891
0.0410781
0.0410675
0.0410569
0.0410463
0.0410353
0.0410237
0.0410113
0.0409976
0.0409824
0.0409652
0.0409454
0.0409228
0.0408968
0.0408671
0.0408329
0.0407934
0.0407478
0.0406957
0.0406362
0.0405684
0.0404913
0.0404035
0.0403038
0.0401908
0.0400636
0.039921
0.0397616
0.0395839
0.039386
0.0391661
0.0389219
0.0386514
0.0383521
0.0380244
0.0376644
0.0372738
0.0368453
0.0363895
0.0358904
0.035354
0.0347649
0.0341273
0.0334579
0.0327541
0.0320242
0.0312696
0.0304898
0.0296949
0.0289408
0.0281788
0.0273772
0.0265699
0.0257996
0.0250615
0.0243643
0.0237002
0.0230709
0.0224999
0.0219739
0.021513
0.0210823
0.0206694
0.0202725
0.0199143
0.0195746
0.0189586
0.042133
0.0421331
0.0421343
0.0421501
0.0422192
0.0423317
0.0424022
0.0424243
0.0423938
0.0422739
0.0421214
0.0420006
0.0419095
0.0418285
0.0417452
0.0416736
0.0416392
0.0416373
0.0416564
0.0416915
0.0417154
0.0417215
0.0417176
0.0417036
0.0416854
0.0416681
0.0416522
0.0416364
0.0416206
0.0416055
0.0415915
0.0415785
0.0415659
0.0415525
0.0415373
0.0415194
0.0414989
0.0414764
0.0414526
0.0414282
0.0414036
0.0413793
0.0413556
0.0413327
0.0413108
0.0412902
0.0412711
0.0412535
0.0412374
0.0412225
0.041209
0.0411968
0.0411858
0.041176
0.0411672
0.0411591
0.0411516
0.0411444
0.0411373
0.0411301
0.0411225
0.0411144
0.0411053
0.0410951
0.0410832
0.0410692
0.0410527
0.0410333
0.0410107
0.0409843
0.0409532
0.0409168
0.0408745
0.0408255
0.0407693
0.0407048
0.0406308
0.040546
0.0404491
0.0403394
0.0402156
0.0400766
0.0399206
0.0397456
0.03955
0.0393318
0.0390899
0.0388221
0.0385275
0.0382012
0.0378437
0.0374486
0.0370219
0.0365514
0.0360524
0.0355111
0.0349341
0.0343115
0.0336434
0.0329439
0.032221
0.0314733
0.0306649
0.0298397
0.0290623
0.0283008
0.0275242
0.0267476
0.02596
0.0251852
0.0244695
0.0237919
0.0231523
0.0225558
0.0220011
0.0214912
0.021038
0.0205944
0.020192
0.0198206
0.0192089
0.042133
0.0421331
0.0421337
0.0421438
0.0421995
0.0423109
0.0423985
0.0424318
0.0424116
0.0423119
0.0421618
0.0420375
0.0419459
0.0418685
0.0417885
0.0417117
0.0416641
0.041654
0.0416651
0.0416972
0.0417272
0.0417377
0.0417368
0.0417273
0.0417113
0.041695
0.0416803
0.0416661
0.0416519
0.0416382
0.0416256
0.0416143
0.0416034
0.0415918
0.0415783
0.041562
0.041543
0.0415221
0.0414999
0.0414771
0.0414542
0.0414315
0.0414095
0.0413883
0.0413682
0.0413493
0.041332
0.0413162
0.041302
0.0412893
0.041278
0.0412681
0.0412596
0.0412524
0.0412463
0.0412412
0.0412369
0.041233
0.0412294
0.0412259
0.0412224
0.0412185
0.041214
0.0412085
0.0412019
0.0411935
0.0411831
0.0411702
0.0411545
0.0411356
0.0411127
0.041085
0.0410522
0.0410134
0.0409681
0.0409155
0.0408543
0.0407836
0.0407019
0.0406083
0.0405018
0.0403813
0.0402452
0.0400919
0.0399199
0.0397273
0.0395126
0.0392732
0.0390074
0.0387114
0.0383861
0.0380278
0.0376409
0.0372157
0.0367582
0.036253
0.0357138
0.0351301
0.0344993
0.0338253
0.0331034
0.0323601
0.0316057
0.0308022
0.0299572
0.0291292
0.0282995
0.0275012
0.0267344
0.0259405
0.0251744
0.0244401
0.0237219
0.0230666
0.022463
0.0218955
0.0213737
0.0208457
0.0203555
0.01992
0.0191912
0.042133
0.042133
0.0421333
0.0421393
0.0421814
0.0422866
0.0423901
0.0424356
0.0424247
0.0423492
0.0422058
0.0420772
0.0419837
0.0419089
0.0418335
0.0417546
0.0416947
0.0416739
0.0416774
0.0417019
0.0417358
0.0417532
0.0417559
0.0417508
0.041738
0.0417231
0.0417095
0.041697
0.0416844
0.0416722
0.0416611
0.0416513
0.0416422
0.0416324
0.0416206
0.0416059
0.0415884
0.041569
0.0415485
0.0415273
0.0415061
0.0414851
0.0414648
0.0414453
0.0414268
0.0414097
0.0413941
0.0413801
0.0413679
0.0413572
0.041348
0.0413403
0.0413342
0.0413295
0.0413261
0.0413238
0.0413225
0.0413219
0.0413217
0.0413218
0.0413221
0.0413223
0.0413221
0.0413214
0.0413197
0.0413168
0.0413122
0.0413056
0.0412965
0.0412847
0.0412696
0.0412503
0.0412266
0.0411975
0.0411628
0.0411216
0.0410729
0.0410158
0.0409489
0.0408713
0.0407818
0.0406798
0.0405638
0.0404324
0.0402836
0.0401157
0.0399268
0.0397151
0.0394794
0.0392169
0.0389271
0.038605
0.0382508
0.0378567
0.0374302
0.0369631
0.0364657
0.0359225
0.0353391
0.0347109
0.0340363
0.0333117
0.0325612
0.0318029
0.0309846
0.030157
0.0292951
0.0284144
0.0275797
0.0267637
0.02597
0.0252342
0.0244879
0.0237873
0.0231241
0.0225019
0.0219417
0.0214041
0.0208813
0.0203797
0.019516
0.042133
0.042133
0.0421332
0.0421364
0.0421659
0.0422597
0.0423756
0.0424363
0.0424348
0.0423844
0.042252
0.0421192
0.0420229
0.0419499
0.0418795
0.0418014
0.0417319
0.0416972
0.0416929
0.0417079
0.0417424
0.041768
0.0417756
0.041774
0.0417655
0.0417527
0.0417403
0.0417293
0.0417184
0.0417077
0.0416982
0.0416899
0.0416825
0.0416745
0.0416644
0.0416512
0.0416353
0.0416175
0.0415985
0.041579
0.0415594
0.0415402
0.0415216
0.0415039
0.0414871
0.0414717
0.0414579
0.0414457
0.0414354
0.0414267
0.0414197
0.0414142
0.0414104
0.0414082
0.0414076
0.0414081
0.0414097
0.0414122
0.0414154
0.0414191
0.0414232
0.0414274
0.0414315
0.0414354
0.0414386
0.0414409
0.0414419
0.0414413
0.0414387
0.0414339
0.0414264
0.0414152
0.0414001
0.0413805
0.0413558
0.0413254
0.0412885
0.0412442
0.0411911
0.0411285
0.0410551
0.0409702
0.0408726
0.0407609
0.0406335
0.0404887
0.0403252
0.040141
0.0399346
0.0397026
0.039444
0.039155
0.0388373
0.0384855
0.0381033
0.0376801
0.0372202
0.0367114
0.0361655
0.0355752
0.0349418
0.034269
0.0335374
0.0327844
0.0319988
0.0311876
0.0303862
0.029524
0.0286484
0.0277882
0.0269079
0.0260786
0.0252771
0.0245199
0.0238028
0.0231101
0.0224648
0.0218489
0.0213083
0.020815
0.0199682
0.042133
0.042133
0.0421331
0.0421347
0.0421536
0.0422317
0.0423536
0.0424339
0.0424439
0.0424152
0.0422989
0.0421642
0.0420646
0.0419917
0.0419254
0.0418503
0.0417747
0.0417254
0.0417117
0.0417184
0.0417482
0.0417808
0.0417957
0.0417977
0.0417936
0.0417838
0.0417728
0.0417632
0.0417541
0.041745
0.0417369
0.0417302
0.0417243
0.041718
0.0417096
0.0416981
0.0416838
0.0416675
0.0416501
0.0416323
0.0416145
0.041597
0.0415801
0.0415642
0.0415492
0.0415355
0.0415234
0.0415131
0.0415046
0.0414979
0.041493
0.0414897
0.0414883
0.0414884
0.0414904
0.0414936
0.0414981
0.0415037
0.0415101
0.0415173
0.041525
0.0415331
0.0415414
0.0415497
0.0415576
0.041565
0.0415714
0.0415766
0.0415802
0.0415819
0.0415816
0.0415782
0.0415716
0.041561
0.041546
0.041526
0.0415003
0.0414683
0.0414288
0.0413808
0.0413231
0.0412551
0.0411757
0.0410838
0.0409779
0.0408564
0.0407176
0.0405594
0.0403804
0.0401783
0.0399525
0.0396983
0.0394152
0.0390976
0.0387484
0.0383601
0.0379367
0.0374691
0.0369652
0.0364153
0.0358211
0.0351802
0.0344942
0.0337466
0.0329724
0.0321382
0.0313109
0.0304646
0.0295887
0.0287344
0.0278388
0.0269468
0.0260843
0.0252507
0.0244492
0.0236875
0.0229794
0.022292
0.0216585
0.0210821
0.0200351
0.042133
0.042133
0.0421331
0.0421337
0.0421448
0.0422049
0.0423256
0.0424259
0.0424518
0.0424387
0.0423452
0.042213
0.0421089
0.0420335
0.0419696
0.0418989
0.0418216
0.0417604
0.0417355
0.041735
0.0417554
0.0417916
0.0418158
0.041823
0.0418223
0.0418165
0.0418073
0.041799
0.0417914
0.041784
0.0417773
0.041772
0.0417677
0.0417631
0.0417564
0.0417464
0.0417336
0.0417189
0.0417032
0.0416871
0.041671
0.0416553
0.0416402
0.041626
0.0416129
0.041601
0.0415906
0.0415821
0.0415756
0.0415709
0.041568
0.041567
0.0415678
0.0415705
0.0415748
0.0415807
0.0415881
0.0415967
0.0416064
0.041617
0.0416283
0.0416403
0.0416526
0.0416652
0.0416778
0.0416901
0.0417018
0.0417126
0.0417223
0.0417304
0.0417367
0.0417409
0.0417423
0.0417404
0.0417348
0.0417249
0.0417097
0.0416893
0.0416623
0.0416279
0.041585
0.0415327
0.0414701
0.0413964
0.0413101
0.0412097
0.0410937
0.0409604
0.0408087
0.0406359
0.0404405
0.0402187
0.0399712
0.039694
0.039388
0.0390448
0.0386665
0.0382461
0.0377892
0.0372871
0.0367423
0.0361507
0.0355104
0.0348219
0.0340876
0.0332872
0.0324336
0.0315787
0.0306745
0.0297824
0.0288916
0.0279841
0.0271015
0.026232
0.0253661
0.02455
0.0237814
0.0230416
0.0223499
0.021709
0.0205124
0.042133
0.042133
0.042133
0.0421333
0.042139
0.0421812
0.0422926
0.042411
0.0424554
0.0424554
0.0423904
0.0422657
0.0421546
0.0420743
0.0420118
0.0419467
0.0418719
0.0418035
0.0417655
0.0417571
0.0417679
0.041802
0.0418347
0.0418497
0.0418524
0.0418502
0.0418435
0.0418364
0.0418304
0.0418245
0.0418193
0.0418154
0.0418125
0.0418094
0.0418043
0.041796
0.0417848
0.0417716
0.0417575
0.0417432
0.041729
0.0417151
0.0417018
0.0416894
0.0416781
0.041668
0.0416594
0.0416527
0.041648
0.0416453
0.0416446
0.0416457
0.0416488
0.0416537
0.0416605
0.041669
0.0416792
0.0416908
0.0417036
0.0417174
0.0417323
0.0417479
0.0417641
0.0417809
0.0417979
0.0418149
0.0418317
0.0418479
0.0418633
0.0418777
0.0418908
0.041902
0.0419109
0.0419171
0.0419202
0.0419201
0.0419154
0.0419062
0.0418913
0.0418701
0.0418414
0.0418045
0.0417585
0.0417026
0.0416357
0.0415563
0.0414631
0.0413541
0.0412281
0.0410828
0.0409172
0.0407281
0.0405149
0.0402721
0.0399999
0.0396923
0.039353
0.0389754
0.0385616
0.0381015
0.0375973
0.0370453
0.0364444
0.035797
0.0350994
0.0343676
0.0335751
0.0327519
0.0318781
0.0309536
0.0300464
0.0290926
0.0281486
0.0272206
0.0262902
0.0254088
0.0245689
0.0237604
0.0230076
0.0223311
0.0211316
0.042133
0.042133
0.042133
0.0421331
0.0421357
0.0421624
0.0422571
0.0423872
0.042454
0.0424698
0.0424309
0.0423181
0.0421998
0.0421147
0.0420531
0.0419939
0.0419245
0.0418534
0.0418034
0.0417859
0.0417886
0.0418141
0.0418515
0.0418762
0.0418843
0.0418848
0.0418813
0.0418756
0.0418707
0.0418663
0.0418626
0.04186
0.0418585
0.0418568
0.0418533
0.0418466
0.041837
0.0418254
0.041813
0.0418005
0.0417881
0.041776
0.0417646
0.041754
0.0417445
0.0417362
0.0417295
0.0417246
0.0417218
0.041721
0.0417225
0.0417257
0.0417309
0.0417382
0.0417475
0.0417586
0.0417715
0.041786
0.0418018
0.041819
0.0418372
0.0418565
0.0418766
0.0418974
0.0419187
0.0419403
0.041962
0.0419835
0.0420045
0.0420248
0.0420442
0.0420623
0.0420787
0.0420929
0.0421043
0.0421127
0.0421179
0.0421193
0.0421158
0.042107
0.0420918
0.0420691
0.0420384
0.0419989
0.0419497
0.0418895
0.0418171
0.0417306
0.0416291
0.0415105
0.0413735
0.041215
0.0410342
0.0408269
0.0405934
0.0403284
0.0400332
0.0397003
0.0393297
0.0389135
0.0384547
0.0379496
0.037397
0.036798
0.0361439
0.0354352
0.0346805
0.0338437
0.0329869
0.0320589
0.0311315
0.0301694
0.0291815
0.0282177
0.0272399
0.0262889
0.0253492
0.0244359
0.0235624
0.0227758
0.0212659
0.042133
0.042133
0.042133
0.0421331
0.0421341
0.042149
0.0422221
0.0423551
0.0424483
0.0424826
0.0424612
0.0423667
0.0422461
0.0421572
0.0420955
0.0420411
0.0419782
0.0419084
0.0418503
0.0418214
0.041817
0.0418311
0.0418675
0.0419013
0.041917
0.0419204
0.0419195
0.0419155
0.0419118
0.0419089
0.0419067
0.0419055
0.0419053
0.0419049
0.0419029
0.0418979
0.04189
0.04188
0.0418693
0.0418585
0.041848
0.0418378
0.0418283
0.0418195
0.0418119
0.0418054
0.0418005
0.0417974
0.0417964
0.0417978
0.0418012
0.0418065
0.041814
0.0418235
0.0418351
0.0418488
0.0418643
0.0418816
0.0419004
0.0419207
0.0419422
0.0419649
0.0419887
0.0420134
0.0420388
0.0420649
0.0420913
0.0421178
0.0421441
0.0421701
0.0421956
0.0422202
0.0422435
0.0422652
0.0422848
0.0423021
0.0423164
0.0423274
0.0423346
0.0423375
0.0423354
0.0423269
0.0423114
0.0422878
0.0422558
0.0422143
0.0421622
0.0420978
0.0420198
0.0419264
0.0418165
0.0416874
0.0415383
0.0413652
0.0411676
0.0409409
0.0406859
0.0403955
0.0400699
0.0397027
0.0392968
0.0388457
0.0383473
0.0378012
0.037201
0.036549
0.0358369
0.0350726
0.0342622
0.0333884
0.0324508
0.0315203
0.030515
0.0295183
0.0285249
0.0275286
0.0265237
0.0255614
0.0246389
0.0237991
0.02219
0.042133
0.042133
0.042133
0.042133
0.0421334
0.0421406
0.0421913
0.0423163
0.0424359
0.0424883
0.0424802
0.0424129
0.0422959
0.0422024
0.0421385
0.0420874
0.0420313
0.0419662
0.0419046
0.0418646
0.0418517
0.0418565
0.0418842
0.0419227
0.0419478
0.0419562
0.0419572
0.0419555
0.0419529
0.0419515
0.0419511
0.0419513
0.0419525
0.0419534
0.0419527
0.0419495
0.0419433
0.0419351
0.0419262
0.0419172
0.0419085
0.0419002
0.0418925
0.0418857
0.0418798
0.0418752
0.0418721
0.0418708
0.0418718
0.041875
0.0418804
0.0418878
0.0418975
0.0419093
0.0419233
0.0419394
0.0419576
0.0419776
0.0419993
0.0420226
0.0420474
0.0420735
0.0421009
0.0421294
0.0421588
0.0421891
0.04222
0.0422514
0.0422829
0.0423143
0.0423456
0.0423764
0.0424065
0.0424353
0.0424627
0.042488
0.0425112
0.0425318
0.0425492
0.0425627
0.0425718
0.042576
0.0425749
0.0425663
0.0425506
0.0425259
0.0424923
0.042448
0.042392
0.0423225
0.0422385
0.0421375
0.0420185
0.041878
0.0417157
0.0415269
0.0413113
0.0410619
0.0407797
0.0404592
0.0401017
0.0396999
0.0392524
0.0387554
0.0382012
0.0375945
0.0369268
0.0362027
0.0354158
0.0345832
0.0336668
0.0327105
0.0317184
0.0306876
0.0296575
0.0286198
0.0275404
0.0265025
0.0254995
0.0246147
0.0229745
0.042133
0.042133
0.042133
0.042133
0.0421331
0.0421362
0.0421673
0.0422739
0.0424122
0.042488
0.0424929
0.0424546
0.0423474
0.0422485
0.0421817
0.0421333
0.0420839
0.0420251
0.0419639
0.0419153
0.0418919
0.0418886
0.0419035
0.0419406
0.0419748
0.0419907
0.0419944
0.0419944
0.0419934
0.0419935
0.0419951
0.0419973
0.0419998
0.042002
0.0420025
0.0420009
0.0419966
0.0419904
0.0419832
0.0419761
0.0419693
0.0419629
0.0419571
0.041952
0.041948
0.0419452
0.0419439
0.0419445
0.0419473
0.0419523
0.0419596
0.0419692
0.041981
0.041995
0.0420113
0.0420299
0.0420505
0.0420732
0.0420977
0.0421239
0.0421518
0.0421811
0.0422119
0.042244
0.0422773
0.0423116
0.0423468
0.0423827
0.0424191
0.0424558
0.0424925
0.0425292
0.0425656
0.0426012
0.0426359
0.0426691
0.0427005
0.04273
0.0427569
0.0427811
0.0428017
0.0428178
0.042829
0.0428347
0.0428352
0.0428272
0.0428119
0.0427869
0.0427518
0.0427049
0.0426451
0.0425703
0.0424796
0.0423699
0.0422405
0.0420869
0.0419088
0.0417009
0.0414645
0.0411936
0.0408871
0.0405368
0.0401414
0.0396966
0.0391981
0.0386488
0.0380408
0.0373799
0.0366532
0.0358614
0.0350221
0.0340783
0.0331087
0.0320486
0.0309513
0.0298879
0.0287476
0.0276535
0.026539
0.0255045
0.0234973
0.042133
0.042133
0.042133
0.042133
0.0421331
0.0421342
0.0421509
0.0422327
0.042377
0.0424808
0.042504
0.0424871
0.0423963
0.0422947
0.042226
0.0421794
0.0421354
0.0420824
0.0420233
0.04197
0.0419359
0.0419243
0.041929
0.0419571
0.0419965
0.0420218
0.0420308
0.0420327
0.0420333
0.0420349
0.0420384
0.0420427
0.0420468
0.0420505
0.0420525
0.0420522
0.0420498
0.0420455
0.0420403
0.042035
0.04203
0.0420255
0.0420215
0.0420182
0.042016
0.042015
0.0420156
0.042018
0.0420224
0.0420293
0.0420386
0.0420502
0.0420641
0.0420803
0.0420989
0.0421198
0.0421429
0.0421681
0.0421954
0.0422245
0.0422553
0.0422878
0.0423219
0.0423575
0.0423945
0.0424327
0.0424721
0.0425124
0.0425535
0.0425951
0.0426371
0.0426794
0.0427217
0.0427638
0.0428053
0.0428459
0.0428852
0.042923
0.0429589
0.0429927
0.0430236
0.0430513
0.0430749
0.0430934
0.0431067
0.0431142
0.0431158
0.0431087
0.0430932
0.0430673
0.0430302
0.0429803
0.0429166
0.0428363
0.0427385
0.0426195
0.0424788
0.0423118
0.0421183
0.0418915
0.0416304
0.0413284
0.040986
0.0405978
0.0401603
0.0396726
0.0391259
0.0385224
0.0378487
0.0371113
0.0363042
0.0354368
0.0344889
0.0334789
0.0324101
0.0313193
0.0301967
0.0290586
0.0279312
0.0268759
0.0248806
0.042133
0.042133
0.042133
0.042133
0.042133
0.0421334
0.0421413
0.0421975
0.0423341
0.042465
0.042511
0.0425074
0.0424418
0.042343
0.0422716
0.0422244
0.0421837
0.0421353
0.0420796
0.0420255
0.041984
0.0419636
0.0419608
0.0419761
0.0420147
0.0420494
0.042066
0.0420711
0.0420731
0.042076
0.0420814
0.0420879
0.0420939
0.042099
0.0421025
0.0421036
0.0421028
0.0421004
0.0420971
0.0420937
0.0420905
0.0420878
0.0420855
0.042084
0.0420835
0.0420844
0.0420867
0.0420908
0.042097
0.0421056
0.0421168
0.0421304
0.0421463
0.0421647
0.0421854
0.0422086
0.0422341
0.0422618
0.0422917
0.0423235
0.0423572
0.0423927
0.04243
0.0424688
0.0425093
0.0425512
0.0425944
0.0426389
0.0426844
0.0427307
0.0427776
0.0428251
0.0428731
0.0429211
0.0429691
0.0430165
0.0430632
0.0431089
0.0431533
0.0431961
0.0432368
0.0432751
0.0433101
0.0433414
0.0433684
0.04339
0.0434061
0.043416
0.0434192
0.0434135
0.0433981
0.0433714
0.0433323
0.0432791
0.0432105
0.0431235
0.0430174
0.0428876
0.0427337
0.0425491
0.0423339
0.0420819
0.0417933
0.0414613
0.0410833
0.0406552
0.0401674
0.03962
0.0390023
0.0383237
0.0375692
0.0367425
0.0358423
0.034864
0.0337983
0.0326338
0.0314707
0.0301943
0.0289527
0.0278095
0.0255711
0.042133
0.042133
0.042133
0.042133
0.042133
0.0421331
0.0421364
0.0421707
0.0422885
0.0424391
0.0425104
0.042522
0.0424828
0.0423915
0.0423151
0.0422657
0.0422276
0.042184
0.0421327
0.0420806
0.0420359
0.0420073
0.0419976
0.0420026
0.0420327
0.0420734
0.0420992
0.0421094
0.0421136
0.0421179
0.0421247
0.0421333
0.0421412
0.0421476
0.0421525
0.0421553
0.042156
0.0421553
0.0421537
0.0421519
0.0421504
0.0421493
0.0421489
0.0421491
0.0421503
0.0421528
0.0421568
0.0421626
0.0421705
0.0421809
0.0421939
0.0422094
0.0422273
0.0422477
0.0422706
0.042296
0.0423238
0.0423539
0.0423863
0.0424208
0.0424572
0.0424956
0.0425359
0.042578
0.0426218
0.0426672
0.0427142
0.0427625
0.0428122
0.042863
0.0429147
0.0429671
0.0430203
0.043074
0.043128
0.043182
0.0432356
0.0432886
0.0433409
0.043392
0.0434418
0.0434897
0.0435354
0.043578
0.043617
0.0436521
0.0436826
0.0437076
0.0437265
0.0437386
0.0437431
0.0437386
0.0437231
0.0436957
0.0436546
0.0435978
0.0435241
0.0434298
0.043314
0.0431714
0.0430022
0.0428006
0.0425661
0.0422911
0.0419731
0.041605
0.0411798
0.040698
0.0401518
0.0395453
0.0388629
0.0381096
0.0372767
0.0363642
0.0353876
0.034316
0.0331697
0.0319718
0.030686
0.029454
0.0270698
0.042133
0.042133
0.042133
0.042133
0.042133
0.0421331
0.0421342
0.0421529
0.042245
0.0424037
0.0425029
0.0425361
0.042516
0.042435
0.0423548
0.0423039
0.0422689
0.0422305
0.0421839
0.0421347
0.0420898
0.0420556
0.0420389
0.042037
0.0420545
0.0420954
0.0421307
0.0421483
0.0421557
0.0421613
0.0421692
0.0421793
0.042189
0.0421968
0.0422028
0.0422071
0.0422094
0.0422102
0.04221
0.0422097
0.0422096
0.0422101
0.0422111
0.0422129
0.0422157
0.0422199
0.0422256
0.042233
0.0422426
0.0422547
0.0422695
0.0422868
0.0423067
0.042329
0.042354
0.0423815
0.0424115
0.0424439
0.0424787
0.0425157
0.0425548
0.0425959
0.0426391
0.0426841
0.0427311
0.0427798
0.0428302
0.0428823
0.0429358
0.0429907
0.0430468
0.0431039
0.043162
0.0432209
0.0432804
0.0433404
0.0434004
0.0434603
0.0435198
0.0435788
0.0436369
0.0436939
0.0437493
0.0438026
0.0438531
0.0439005
0.0439442
0.0439837
0.0440185
0.0440474
0.0440694
0.044084
0.0440902
0.0440871
0.0440714
0.0440429
0.043999
0.0439379
0.0438581
0.0437553
0.0436293
0.0434732
0.0432863
0.0430609
0.0427953
0.0424824
0.0421185
0.0417021
0.0412241
0.0406838
0.0400663
0.0393767
0.0385986
0.0377387
0.0367841
0.0357439
0.0345681
0.0333863
0.0320422
0.0308614
0.028662
0.042133
0.042133
0.042133
0.042133
0.042133
0.042133
0.0421334
0.0421425
0.042208
0.0423617
0.0424915
0.0425451
0.0425363
0.0424736
0.0423932
0.0423412
0.0423088
0.0422753
0.042233
0.0421866
0.0421432
0.042107
0.0420844
0.0420771
0.0420845
0.0421187
0.0421609
0.0421871
0.0421991
0.0422064
0.0422151
0.0422263
0.0422374
0.0422465
0.0422536
0.0422591
0.0422628
0.0422649
0.0422659
0.0422667
0.0422678
0.0422696
0.042272
0.0422753
0.0422797
0.0422854
0.0422927
0.0423017
0.0423129
0.0423266
0.0423431
0.0423623
0.042384
0.0424083
0.0424352
0.0424647
0.0424969
0.0425315
0.0425686
0.042608
0.0426496
0.0426934
0.0427393
0.0427872
0.0428371
0.042889
0.0429427
0.0429982
0.0430554
0.0431142
0.0431744
0.0432359
0.0432986
0.0433624
0.0434272
0.0434927
0.0435587
0.0436249
0.0436912
0.0437574
0.0438232
0.0438884
0.0439527
0.0440156
0.0440766
0.0441351
0.0441908
0.0442433
0.0442919
0.0443361
0.0443751
0.0444078
0.044433
0.0444501
0.0444582
0.0444567
0.0444408
0.0444109
0.0443638
0.0442974
0.0442101
0.0440963
0.0439554
0.0437807
0.0435717
0.0433215
0.0430272
0.0426827
0.0422786
0.0418123
0.041272
0.0406603
0.0399602
0.0391779
0.0382957
0.0373279
0.0362662
0.0350747
0.0337286
0.0323971
0.0299517
0.042133
0.042133
0.042133
0.042133
0.042133
0.042133
0.0421332
0.0421372
0.04218
0.0423178
0.0424735
0.0425479
0.0425491
0.0425077
0.0424305
0.0423773
0.0423468
0.0423175
0.0422792
0.0422358
0.0421949
0.0421596
0.0421335
0.0421221
0.0421232
0.0421462
0.0421901
0.0422251
0.042243
0.0422529
0.0422623
0.0422741
0.0422863
0.0422965
0.0423047
0.0423112
0.042316
0.0423191
0.0423211
0.0423228
0.0423248
0.0423276
0.0423314
0.042336
0.0423418
0.042349
0.0423578
0.0423685
0.0423812
0.0423965
0.0424146
0.0424355
0.0424591
0.0424852
0.042514
0.0425455
0.0425797
0.0426164
0.0426557
0.0426974
0.0427414
0.0427876
0.0428361
0.0428867
0.0429394
0.0429942
0.043051
0.0431097
0.0431703
0.0432327
0.0432967
0.0433622
0.0434292
0.0434974
0.043567
0.0436376
0.043709
0.043781
0.0438535
0.0439263
0.0439992
0.0440719
0.0441443
0.044216
0.0442865
0.0443554
0.0444222
0.0444866
0.0445482
0.0446063
0.0446604
0.0447097
0.0447533
0.0447903
0.0448189
0.0448388
0.0448487
0.0448487
0.0448318
0.0448002
0.0447491
0.0446763
0.0445804
0.0444555
0.0443008
0.0441084
0.0438749
0.0435919
0.0432522
0.0428525
0.042382
0.0418402
0.0412126
0.0405034
0.0396924
0.0387883
0.0377721
0.0366418
0.035389
0.0341588
0.0320127
0.042133
0.042133
0.042133
0.042133
0.042133
0.042133
0.0421331
0.0421348
0.042161
0.0422768
0.0424474
0.0425458
0.0425595
0.0425363
0.0424652
0.0424107
0.0423813
0.0423563
0.0423227
0.0422828
0.0422448
0.0422119
0.042185
0.0421698
0.0421665
0.042179
0.042219
0.042261
0.0422859
0.0422989
0.0423092
0.0423212
0.0423342
0.0423456
0.0423549
0.0423624
0.0423682
0.0423721
0.0423748
0.0423771
0.0423799
0.0423837
0.0423886
0.0423945
0.0424017
0.0424103
0.0424206
0.0424328
0.0424471
0.0424639
0.0424836
0.0425062
0.0425315
0.0425594
0.0425901
0.0426234
0.0426596
0.0426984
0.0427397
0.0427835
0.0428298
0.0428784
0.0429293
0.0429824
0.0430378
0.0430954
0.0431551
0.0432168
0.0432806
0.0433463
0.0434139
0.0434832
0.043554
0.0436265
0.0437004
0.0437757
0.0438522
0.0439296
0.0440078
0.0440866
0.0441659
0.0442456
0.0443253
0.044405
0.0444841
0.0445622
0.044639
0.0447141
0.0447872
0.0448579
0.0449255
0.0449895
0.0450492
0.0451037
0.0451521
0.0451935
0.0452257
0.0452487
0.0452604
0.0452613
0.0452436
0.0452091
0.0451532
0.0450725
0.0449653
0.0448237
0.0446456
0.0444223
0.0441498
0.0438227
0.0434311
0.0429718
0.0424304
0.0418073
0.0410833
0.0402597
0.0393013
0.0382163
0.0370049
0.0356484
0.0334636
0.042133
0.042133
0.042133
0.042133
0.042133
0.042133
0.0421331
0.0421338
0.0421492
0.042242
0.0424168
0.0425394
0.0425694
0.0425583
0.042495
0.0424404
0.0424129
0.0423927
0.0423644
0.042328
0.0422924
0.0422619
0.0422358
0.0422177
0.042211
0.0422164
0.0422481
0.0422939
0.0423258
0.0423427
0.0423544
0.0423667
0.0423803
0.0423929
0.0424033
0.0424117
0.0424183
0.042423
0.0424263
0.0424292
0.0424326
0.0424373
0.0424433
0.0424505
0.042459
0.0424691
0.0424808
0.0424945
0.0425104
0.0425287
0.0425499
0.0425742
0.0426012
0.0426309
0.0426633
0.0426985
0.0427365
0.0427772
0.0428205
0.0428664
0.0429148
0.0429656
0.0430188
0.0430743
0.0431322
0.0431923
0.0432547
0.0433192
0.0433859
0.0434547
0.0435255
0.0435982
0.0436727
0.043749
0.0438269
0.0439065
0.0439875
0.0440697
0.0441531
0.0442374
0.0443225
0.0444083
0.0444947
0.0445815
0.0446683
0.0447548
0.0448406
0.0449254
0.0450089
0.0450908
0.0451707
0.0452481
0.0453223
0.0453926
0.0454583
0.0455183
0.045572
0.0456181
0.0456542
0.0456801
0.0456937
0.0456951
0.045676
0.0456375
0.045575
0.0454842
0.045363
0.0452037
0.0450026
0.0447519
0.0444423
0.0440681
0.0436151
0.0430807
0.042446
0.0417056
0.0408354
0.039864
0.038721
0.0375103
0.0355405
0.042133
0.042133
0.042133
0.042133
0.042133
0.042133
0.042133
0.0421334
0.0421424
0.0422147
0.0423861
0.0425302
0.0425783
0.0425728
0.0425198
0.0424675
0.0424426
0.0424271
0.042404
0.0423707
0.0423365
0.0423079
0.0422833
0.0422639
0.0422549
0.042256
0.0422782
0.0423242
0.0423625
0.042384
0.0423974
0.04241
0.0424239
0.0424372
0.0424486
0.0424579
0.0424652
0.0424705
0.0424744
0.042478
0.0424822
0.0424879
0.0424951
0.0425036
0.0425135
0.0425249
0.0425382
0.0425534
0.0425707
0.0425906
0.0426134
0.0426392
0.0426679
0.0426993
0.0427334
0.0427704
0.0428102
0.0428527
0.042898
0.0429458
0.0429962
0.0430491
0.0431044
0.0431622
0.0432223
0.0432849
0.0433497
0.0434169
0.0434863
0.043558
0.0436318
0.0437077
0.0437855
0.0438652
0.0439469
0.0440303
0.0441154
0.0442021
0.0442901
0.0443794
0.0444698
0.0445613
0.0446536
0.0447468
0.0448405
0.0449345
0.0450283
0.0451218
0.0452145
0.0453065
0.0453972
0.0454863
0.0455733
0.0456576
0.0457385
0.0458153
0.0458873
0.0459533
0.0460124
0.0460635
0.0461035
0.0461325
0.0461477
0.0461491
0.0461279
0.046085
0.0460149
0.0459121
0.0457723
0.0455864
0.0453469
0.0450454
0.0446683
0.044212
0.0436607
0.0430052
0.0422234
0.0413018
0.0402023
0.0389758
0.0371756
0.042133
0.042133
0.042133
0.042133
0.042133
0.042133
0.042133
0.0421332
0.0421386
0.0421949
0.0423585
0.0425208
0.0425841
0.042583
0.0425408
0.0424929
0.042471
0.0424594
0.0424405
0.0424098
0.0423766
0.0423496
0.0423271
0.0423083
0.0422979
0.0422963
0.0423111
0.0423541
0.0423974
0.0424233
0.0424384
0.0424511
0.0424646
0.0424781
0.0424899
0.0424998
0.0425077
0.0425137
0.0425184
0.0425227
0.042528
0.0425349
0.0425434
0.0425534
0.0425648
0.0425777
0.0425925
0.0426092
0.0426281
0.0426495
0.0426738
0.0427012
0.0427316
0.0427646
0.0428005
0.0428391
0.0428807
0.042925
0.042972
0.0430217
0.043074
0.0431289
0.0431863
0.0432461
0.0433084
0.0433732
0.0434404
0.04351
0.0435819
0.0436561
0.0437327
0.0438114
0.0438923
0.0439752
0.0440602
0.0441471
0.044236
0.0443266
0.0444188
0.0445125
0.0446077
0.0447041
0.0448018
0.0449006
0.0450005
0.045101
0.045202
0.045303
0.045404
0.0455048
0.045605
0.0457045
0.0458028
0.0458994
0.0459938
0.0460854
0.0461736
0.0462574
0.0463362
0.0464087
0.0464737
0.0465301
0.0465741
0.046606
0.0466227
0.0466241
0.0465996
0.0465497
0.0464665
0.0463449
0.046178
0.0459574
0.045671
0.0453126
0.0448626
0.0443103
0.0436297
0.0427907
0.041797
0.0405949
0.0389726
0.042133
0.042133
0.042133
0.042133
0.042133
0.042133
0.042133
0.0421331
0.0421366
0.0421815
0.0423361
0.0425119
0.0425875
0.0425913
0.0425589
0.0425165
0.0424975
0.0424888
0.0424734
0.0424452
0.0424133
0.0423879
0.042368
0.0423509
0.0423403
0.0423372
0.0423472
0.0423856
0.0424317
0.0424612
0.0424776
0.0424899
0.0425025
0.0425154
0.0425271
0.0425371
0.0425454
0.042552
0.0425575
0.042563
0.0425696
0.0425779
0.042588
0.0425996
0.0426126
0.0426271
0.0426435
0.0426619
0.0426823
0.0427053
0.0427312
0.0427602
0.0427921
0.0428268
0.0428643
0.0429046
0.0429478
0.0429939
0.0430427
0.0430941
0.0431482
0.043205
0.0432642
0.043326
0.0433903
0.0434572
0.0435265
0.0435983
0.0436726
0.0437492
0.0438283
0.0439096
0.0439932
0.0440791
0.044167
0.0442571
0.0443493
0.0444435
0.0445395
0.0446372
0.0447366
0.0448375
0.04494
0.0450438
0.0451491
0.0452554
0.0453627
0.0454705
0.0455787
0.0456872
0.0457959
0.0459045
0.0460126
0.0461199
0.046226
0.0463305
0.0464327
0.046532
0.0466279
0.0467192
0.0468052
0.0468845
0.0469557
0.0470177
0.047066
0.0471013
0.0471194
0.0471202
0.0470902
0.0470318
0.0469343
0.0467925
0.0465939
0.0463309
0.0459827
0.0455405
0.044965
0.0442248
0.0433147
0.042169
0.0406377
0.042133
0.042133
0.042133
0.042133
0.042133
0.042133
0.042133
0.0421331
0.0421357
0.0421732
0.0423202
0.0425049
0.0425892
0.0425992
0.0425748
0.0425377
0.0425216
0.0425154
0.0425032
0.0424775
0.0424472
0.0424238
0.0424065
0.0423918
0.0423821
0.0423784
0.0423857
0.0424194
0.0424659
0.0424979
0.0425149
0.0425263
0.0425373
0.042549
0.04256
0.0425698
0.0425782
0.0425855
0.0425919
0.0425987
0.0426068
0.0426168
0.0426287
0.0426421
0.0426568
0.0426731
0.0426912
0.0427112
0.0427333
0.0427579
0.0427853
0.0428159
0.0428495
0.0428858
0.0429249
0.0429669
0.0430118
0.0430595
0.04311
0.0431631
0.0432189
0.0432774
0.0433385
0.0434021
0.0434683
0.043537
0.0436084
0.0436823
0.0437586
0.0438375
0.0439188
0.0440026
0.0440887
0.0441772
0.0442679
0.0443609
0.0444561
0.0445534
0.0446528
0.0447541
0.0448572
0.0449621
0.0450688
0.0451771
0.0452871
0.0453985
0.0455113
0.045625
0.0457395
0.0458548
0.0459708
0.0460872
0.0462039
0.0463205
0.0464368
0.0465523
0.0466666
0.0467793
0.0468899
0.0469976
0.0471018
0.0472012
0.0472951
0.0473819
0.04746
0.0475282
0.0475814
0.0476203
0.0476398
0.0476391
0.0476018
0.0475308
0.0474098
0.0472334
0.0469806
0.0466418
0.046169
0.0455359
0.0447096
0.0436391
0.0422029
0.042133
0.042133
0.042133
0.042133
0.042133
0.042133
0.042133
0.0421331
0.0421353
0.0421692
0.042311
0.0425017
0.0425914
0.0426071
0.0425884
0.0425561
0.0425435
0.0425395
0.0425304
0.0425075
0.042479
0.0424577
0.042443
0.0424308
0.0424227
0.0424191
0.042425
0.0424549
0.0424999
0.0425329
0.0425499
0.0425599
0.0425691
0.0425791
0.042589
0.0425982
0.0426067
0.0426145
0.042622
0.0426301
0.0426398
0.0426517
0.0426654
0.0426808
0.0426974
0.0427156