/*--------------------------------*- C++ -*----------------------------------*\
| =========                 |                                                 |
| \\      /  F ield         | OpenFOAM: The Open Source CFD Toolbox           |
|  \\    /   O peration     | Version:  2412                                  |
|   \\  /    A nd           | Website:  www.openfoam.com                      |
|    \\/     M anipulation  |                                                 |
\*---------------------------------------------------------------------------*/
FoamFile
{
    version     2.0;
    format      ascii;
    arch        "LSB;label=32;scalar=64";
    class       volScalarField;
    location    "0.049";
    object      T;
}
// * * * * * * * * * * * * * * * * * * * * * * * * * * * * * * * * * * * * * //

dimensions      [0 0 0 1 0 0 0];

internalField   nonuniform List<scalar> 
78650
(
223
223
223.005
223.057
223.237
223.478
223.599
223.625
223.523
223.225
222.891
222.629
222.424
222.235
222.046
221.905
221.854
221.865
221.927
222.002
222.041
222.046
222.03
221.991
221.948
221.907
221.869
221.83
221.792
221.755
221.72
221.687
221.655
221.621
221.583
221.54
221.49
221.436
221.379
221.321
221.262
221.204
221.147
221.092
221.039
220.989
220.942
220.898
220.857
220.819
220.784
220.751
220.721
220.693
220.667
220.642
220.618
220.594
220.57
220.546
220.52
220.491
220.461
220.426
220.387
220.343
220.292
220.233
220.166
220.089
219.999
219.896
219.778
219.643
219.49
219.315
219.115
218.888
218.63
218.34
218.013
217.648
217.239
216.783
216.274
215.707
215.077
214.377
213.606
212.756
211.827
210.802
209.704
208.493
207.18
205.725
204.134
202.445
200.647
198.758
196.78
194.706
192.56
190.493
188.374
186.11
183.793
181.546
179.359
177.256
175.218
173.241
171.398
169.652
168.117
166.762
165.643
164.829
164.403
164.278
162.664
223
223
223.003
223.038
223.191
223.44
223.597
223.645
223.578
223.313
222.975
222.706
222.503
222.323
222.137
221.978
221.901
221.896
221.939
222.018
222.071
222.085
222.076
222.045
222.004
221.965
221.93
221.895
221.859
221.826
221.794
221.765
221.737
221.707
221.673
221.633
221.587
221.537
221.483
221.429
221.374
221.319
221.266
221.214
221.165
221.119
221.076
221.037
221
220.967
220.937
220.909
220.885
220.863
220.843
220.825
220.808
220.791
220.775
220.759
220.742
220.724
220.703
220.68
220.653
220.622
220.585
220.541
220.49
220.431
220.36
220.278
220.183
220.072
219.945
219.799
219.631
219.439
219.219
218.969
218.687
218.369
218.012
217.611
217.161
216.657
216.097
215.475
214.787
214.022
213.18
212.243
211.225
210.095
208.886
207.565
206.143
204.594
202.913
201.132
199.269
197.317
195.174
192.952
190.827
188.718
186.534
184.315
182.026
179.734
177.575
175.488
173.464
171.525
169.699
168.066
166.759
165.735
165.165
164.992
163.476
223
223
223.001
223.024
223.147
223.394
223.588
223.662
223.617
223.397
223.064
222.788
222.585
222.412
222.234
222.063
221.956
221.934
221.959
222.03
222.097
222.121
222.119
222.097
222.062
222.026
221.993
221.961
221.929
221.899
221.871
221.845
221.821
221.795
221.765
221.728
221.686
221.639
221.589
221.538
221.487
221.436
221.387
221.339
221.294
221.252
221.213
221.178
221.146
221.117
221.092
221.07
221.05
221.034
221.021
221.009
220.999
220.991
220.983
220.975
220.967
220.958
220.948
220.936
220.921
220.902
220.878
220.849
220.814
220.771
220.72
220.658
220.584
220.496
220.394
220.275
220.137
219.977
219.792
219.58
219.338
219.064
218.754
218.404
218.01
217.569
217.075
216.522
215.906
215.217
214.456
213.614
212.699
211.688
210.592
209.373
208.061
206.628
205.064
203.374
201.542
199.631
197.665
195.542
193.273
191.015
188.717
186.468
184.273
181.96
179.685
177.463
175.235
173.145
171.194
169.399
167.887
166.608
165.759
165.332
163.388
223
223
223.001
223.014
223.107
223.341
223.57
223.671
223.646
223.479
223.162
222.877
222.669
222.502
222.334
222.158
222.025
221.978
221.986
222.041
222.116
222.155
222.161
222.15
222.122
222.088
222.058
222.03
222.002
221.975
221.95
221.928
221.908
221.886
221.859
221.826
221.787
221.744
221.698
221.651
221.603
221.556
221.511
221.467
221.426
221.387
221.352
221.321
221.294
221.27
221.249
221.232
221.218
221.207
221.2
221.195
221.192
221.19
221.19
221.19
221.191
221.191
221.191
221.189
221.185
221.179
221.169
221.154
221.133
221.107
221.073
221.029
220.976
220.911
220.833
220.74
220.63
220.501
220.35
220.175
219.973
219.742
219.479
219.18
218.841
218.458
218.026
217.54
216.998
216.391
215.719
214.968
214.138
213.209
212.198
211.083
209.886
208.569
207.141
205.589
203.903
202.07
200.147
198.179
196.022
193.807
191.464
189.029
186.683
184.355
182.048
179.869
177.606
175.418
173.312
171.358
169.729
168.412
167.44
166.795
164.444
223
223
223
223.007
223.073
223.281
223.538
223.672
223.669
223.557
223.264
222.97
222.756
222.593
222.437
222.263
222.108
222.03
222.021
222.054
222.131
222.188
222.205
222.202
222.183
222.154
222.127
222.102
222.078
222.054
222.033
222.014
221.998
221.98
221.957
221.928
221.892
221.852
221.81
221.766
221.723
221.68
221.638
221.598
221.561
221.526
221.495
221.468
221.445
221.425
221.41
221.398
221.389
221.384
221.383
221.384
221.387
221.393
221.4
221.408
221.418
221.427
221.436
221.445
221.452
221.457
221.459
221.458
221.452
221.442
221.425
221.399
221.366
221.322
221.266
221.198
221.115
221.015
220.896
220.755
220.59
220.398
220.178
219.925
219.637
219.308
218.936
218.516
218.044
217.511
216.915
216.247
215.509
214.688
213.791
212.791
211.697
210.478
209.159
207.72
206.161
204.487
202.645
200.723
198.691
196.563
194.43
192.101
189.695
187.292
184.789
182.378
179.996
177.678
175.443
173.289
171.397
169.834
168.813
168.205
165.946
223
223
223
223.004
223.046
223.219
223.489
223.667
223.689
223.625
223.368
223.07
222.848
222.686
222.539
222.372
222.203
222.093
222.063
222.078
222.144
222.217
222.25
222.255
222.245
222.224
222.199
222.178
222.157
222.137
222.119
222.104
222.091
222.077
222.058
222.033
222
221.964
221.925
221.886
221.846
221.807
221.769
221.733
221.7
221.669
221.642
221.619
221.6
221.585
221.574
221.567
221.563
221.564
221.568
221.575
221.585
221.598
221.612
221.628
221.646
221.664
221.682
221.701
221.719
221.735
221.749
221.761
221.769
221.773
221.772
221.765
221.75
221.726
221.692
221.648
221.59
221.518
221.43
221.322
221.193
221.04
220.861
220.654
220.415
220.141
219.827
219.468
219.061
218.601
218.084
217.501
216.848
216.114
215.301
214.394
213.397
212.29
211.087
209.764
208.321
206.749
205.048
203.172
201.204
199.053
196.888
194.641
192.277
189.931
187.429
184.883
182.366
179.865
177.413
175.076
173.01
171.232
169.922
169.05
166.132
223
223
223
223.002
223.026
223.159
223.427
223.649
223.706
223.677
223.471
223.178
222.947
222.779
222.637
222.48
222.308
222.171
222.116
222.115
222.16
222.241
222.295
222.311
222.309
222.296
222.276
222.257
222.241
222.224
222.209
222.198
222.188
222.178
222.163
222.14
222.112
222.079
222.044
222.008
221.972
221.937
221.903
221.872
221.842
221.816
221.792
221.773
221.759
221.748
221.742
221.74
221.741
221.747
221.757
221.77
221.787
221.806
221.828
221.851
221.877
221.903
221.931
221.959
221.987
222.015
222.041
222.065
222.087
222.105
222.119
222.128
222.131
222.127
222.114
222.092
222.058
222.013
221.952
221.875
221.779
221.662
221.522
221.357
221.163
220.937
220.676
220.376
220.033
219.641
219.197
218.692
218.127
217.49
216.785
215.99
215.11
214.125
213.048
211.855
210.551
209.121
207.56
205.862
204.03
202.006
199.815
197.589
195.196
192.796
190.362
187.834
185.32
182.78
180.195
177.737
175.513
173.585
172.1
171.046
167.72
223
223
223
223.001
223.013
223.107
223.354
223.616
223.714
223.714
223.571
223.295
223.048
222.87
222.731
222.586
222.42
222.267
222.183
222.164
222.188
222.264
222.337
222.37
222.376
222.372
222.357
222.341
222.328
222.315
222.303
222.294
222.288
222.281
222.27
222.251
222.226
222.197
222.165
222.133
222.101
222.07
222.041
222.013
221.988
221.965
221.946
221.931
221.921
221.915
221.913
221.916
221.922
221.933
221.949
221.968
221.99
222.016
222.045
222.076
222.109
222.144
222.18
222.217
222.255
222.293
222.331
222.367
222.401
222.433
222.462
222.487
222.507
222.521
222.528
222.527
222.517
222.496
222.463
222.416
222.352
222.27
222.167
222.042
221.893
221.715
221.506
221.262
220.978
220.651
220.277
219.85
219.366
218.814
218.191
217.486
216.703
215.828
214.864
213.784
212.592
211.277
209.832
208.26
206.548
204.731
202.739
200.641
198.38
195.951
193.526
190.93
188.302
185.658
182.94
180.333
177.92
175.795
174.132
172.974
169.707
223
223
223
223
223.006
223.065
223.275
223.563
223.711
223.746
223.66
223.411
223.149
222.96
222.823
222.691
222.537
222.379
222.267
222.228
222.234
222.291
222.375
222.43
222.448
222.449
222.441
222.428
222.417
222.408
222.399
222.394
222.39
222.387
222.379
222.364
222.342
222.317
222.289
222.261
222.233
222.206
222.181
222.157
222.136
222.118
222.103
222.092
222.085
222.084
222.087
222.094
222.106
222.122
222.143
222.168
222.196
222.229
222.264
222.302
222.343
222.386
222.431
222.477
222.524
222.573
222.621
222.669
222.715
222.761
222.804
222.844
222.88
222.912
222.937
222.956
222.967
222.97
222.962
222.943
222.909
222.859
222.79
222.702
222.593
222.459
222.297
222.104
221.877
221.612
221.305
220.949
220.541
220.073
219.544
218.941
218.267
217.503
216.649
215.684
214.613
213.425
212.115
210.683
209.104
207.374
205.51
203.416
201.24
198.845
196.41
193.841
191.144
188.453
185.656
182.895
180.223
177.802
175.787
174.316
170.096
223
223
223
223
223.002
223.035
223.198
223.492
223.698
223.774
223.727
223.518
223.251
223.054
222.917
222.796
222.656
222.501
222.372
222.307
222.298
222.329
222.41
222.485
222.52
222.528
222.526
222.517
222.509
222.503
222.498
222.495
222.494
222.494
222.489
222.478
222.46
222.438
222.414
222.39
222.367
222.344
222.323
222.304
222.286
222.272
222.261
222.254
222.252
222.255
222.263
222.275
222.291
222.312
222.338
222.369
222.403
222.442
222.484
222.529
222.577
222.627
222.68
222.735
222.792
222.85
222.908
222.967
223.025
223.083
223.14
223.194
223.246
223.294
223.337
223.376
223.407
223.431
223.447
223.454
223.449
223.43
223.396
223.343
223.273
223.18
223.065
222.922
222.748
222.54
222.295
222.007
221.673
221.285
220.841
220.33
219.753
219.093
218.35
217.508
216.572
215.525
214.36
213.073
211.647
210.082
208.355
206.48
204.467
202.264
199.863
197.442
194.774
192.068
189.309
186.496
183.688
181.152
179.015
177.409
173.012
223
223
223
223
223.001
223.017
223.129
223.406
223.671
223.787
223.769
223.62
223.362
223.154
223.013
222.899
222.774
222.63
222.493
222.404
222.375
222.386
222.447
222.533
222.589
222.608
222.61
222.606
222.6
222.597
222.596
222.597
222.6
222.601
222.6
222.593
222.579
222.561
222.541
222.521
222.502
222.483
222.466
222.451
222.438
222.428
222.421
222.418
222.42
222.427
222.439
222.456
222.477
222.504
222.535
222.571
222.611
222.656
222.704
222.756
222.811
222.869
222.93
222.993
223.058
223.125
223.194
223.263
223.333
223.403
223.472
223.54
223.607
223.67
223.731
223.787
223.838
223.883
223.922
223.951
223.972
223.981
223.978
223.959
223.924
223.87
223.796
223.698
223.574
223.42
223.234
223.009
222.745
222.432
222.07
221.647
221.164
220.602
219.965
219.237
218.422
217.501
216.468
215.313
214.016
212.582
210.99
209.245
207.326
205.27
202.972
200.536
197.96
195.226
192.432
189.567
186.599
183.877
181.529
179.798
175.393
223
223
223
223
223
223.007
223.076
223.312
223.619
223.786
223.797
223.713
223.475
223.257
223.109
223.001
222.891
222.761
222.625
222.517
222.464
222.457
222.49
222.573
222.649
222.684
222.693
222.693
222.69
222.691
222.694
222.699
222.705
222.71
222.711
222.707
222.698
222.684
222.668
222.652
222.637
222.623
222.61
222.599
222.59
222.583
222.581
222.582
222.588
222.599
222.616
222.637
222.663
222.694
222.731
222.772
222.818
222.868
222.922
222.981
223.042
223.108
223.176
223.247
223.321
223.397
223.475
223.554
223.635
223.716
223.797
223.878
223.958
224.037
224.113
224.186
224.255
224.32
224.38
224.433
224.478
224.513
224.538
224.55
224.551
224.534
224.5
224.445
224.368
224.264
224.132
223.967
223.767
223.524
223.237
222.896
222.5
222.036
221.507
220.898
220.207
219.413
218.512
217.492
216.341
215.063
213.637
212.071
210.332
208.415
206.355
204.003
201.545
198.804
195.901
193.036
189.964
187.127
184.49
182.355
176.944
223
223
223
223
223
223.003
223.04
223.221
223.541
223.77
223.822
223.784
223.584
223.359
223.207
223.103
223.006
222.888
222.757
222.638
222.562
222.537
222.547
222.61
222.697
222.754
222.773
222.778
222.779
222.783
222.791
222.8
222.809
222.818
222.822
222.821
222.816
222.806
222.795
222.783
222.772
222.762
222.753
222.746
222.741
222.739
222.74
222.745
222.755
222.771
222.791
222.817
222.848
222.884
222.925
222.971
223.023
223.079
223.139
223.204
223.272
223.344
223.42
223.498
223.58
223.665
223.752
223.841
223.931
224.023
224.116
224.209
224.302
224.395
224.486
224.575
224.662
224.745
224.824
224.897
224.965
225.026
225.078
225.118
225.147
225.164
225.167
225.151
225.117
225.06
224.979
224.87
224.729
224.553
224.337
224.075
223.764
223.395
222.965
222.46
221.877
221.2
220.429
219.55
218.554
217.435
216.172
214.766
213.183
211.43
209.49
207.377
205.033
202.491
199.746
196.893
193.94
191.033
188.388
186.204
180.977
223
223
223
223
223
223.001
223.018
223.143
223.446
223.735
223.837
223.829
223.684
223.466
223.308
223.203
223.113
223.006
222.882
222.762
222.669
222.624
222.618
222.652
222.738
222.815
222.852
222.863
222.868
222.874
222.886
222.9
222.914
222.925
222.933
222.935
222.934
222.928
222.921
222.913
222.906
222.9
222.895
222.892
222.891
222.893
222.898
222.907
222.921
222.94
222.965
222.995
223.03
223.071
223.117
223.169
223.225
223.287
223.353
223.423
223.498
223.576
223.659
223.745
223.834
223.926
224.022
224.12
224.22
224.322
224.425
224.53
224.635
224.741
224.846
224.95
225.052
225.152
225.25
225.343
225.432
225.516
225.592
225.661
225.719
225.767
225.802
225.823
225.83
225.817
225.784
225.725
225.64
225.523
225.373
225.183
224.95
224.665
224.326
223.919
223.443
222.883
222.24
221.498
220.648
219.679
218.569
217.313
215.885
214.301
212.521
210.546
208.365
205.955
203.282
200.305
197.304
194.068
191.133
188.707
182.863
223
223
223
223
223
223
223.007
223.084
223.345
223.678
223.836
223.861
223.775
223.573
223.404
223.295
223.21
223.114
223
222.884
222.785
222.721
222.7
222.711
222.778
222.868
222.926
222.948
222.958
222.967
222.982
223.001
223.019
223.033
223.044
223.05
223.052
223.05
223.047
223.043
223.039
223.037
223.036
223.037
223.039
223.045
223.054
223.066
223.084
223.107
223.136
223.17
223.21
223.255
223.306
223.362
223.424
223.491
223.562
223.638
223.719
223.804
223.893
223.986
224.082
224.182
224.286
224.392
224.501
224.613
224.727
224.842
224.958
225.076
225.194
225.312
225.43
225.546
225.66
225.771
225.88
225.984
226.084
226.176
226.261
226.337
226.404
226.458
226.499
226.525
226.535
226.525
226.491
226.432
226.342
226.218
226.058
225.852
225.599
225.287
224.916
224.473
223.955
223.347
222.64
221.818
220.863
219.775
218.531
217.139
215.559
213.795
211.82
209.625
207.24
204.584
201.721
198.768
195.766
193.148
187.096
223
223
223
223
223
223
223.003
223.044
223.249
223.6
223.819
223.893
223.848
223.669
223.492
223.379
223.302
223.217
223.113
223.004
222.905
222.829
222.792
222.787
222.826
222.917
222.996
223.035
223.051
223.063
223.081
223.104
223.125
223.142
223.156
223.165
223.17
223.172
223.172
223.171
223.171
223.172
223.174
223.178
223.184
223.194
223.206
223.223
223.244
223.271
223.303
223.342
223.386
223.435
223.491
223.551
223.618
223.69
223.766
223.848
223.934
224.025
224.12
224.22
224.323
224.43
224.541
224.655
224.773
224.893
225.016
225.142
225.269
225.398
225.528
225.659
225.79
225.92
226.05
226.178
226.305
226.429
226.549
226.665
226.774
226.877
226.971
227.057
227.132
227.195
227.242
227.273
227.287
227.28
227.246
227.184
227.089
226.956
226.783
226.56
226.286
225.946
225.537
225.043
224.459
223.769
222.962
222.034
220.962
219.741
218.336
216.75
214.94
212.913
210.634
208.118
205.254
202.4
199.275
196.784
191.354
223
223
223
223
223
223
223.001
223.021
223.166
223.507
223.794
223.912
223.893
223.755
223.577
223.462
223.39
223.316
223.222
223.119
223.023
222.943
222.893
222.876
222.893
222.969
223.063
223.121
223.147
223.164
223.183
223.208
223.232
223.253
223.268
223.28
223.289
223.293
223.295
223.297
223.3
223.304
223.309
223.316
223.326
223.339
223.355
223.375
223.4
223.43
223.467
223.509
223.557
223.611
223.67
223.736
223.807
223.883
223.965
224.052
224.144
224.24
224.341
224.446
224.556
224.67
224.788
224.91
225.035
225.164
225.296
225.431
225.568
225.707
225.848
225.991
226.135
226.279
226.423
226.567
226.709
226.851
226.99
227.126
227.258
227.385
227.505
227.618
227.723
227.818
227.902
227.972
228.026
228.063
228.08
228.077
228.043
227.978
227.876
227.733
227.545
227.298
226.993
226.614
226.159
225.613
224.968
224.21
223.316
222.279
221.069
219.687
218.089
216.282
214.219
211.932
209.413
206.608
203.543
200.691
194.747
223
223
223
223
223
223
223
223.009
223.104
223.41
223.754
223.919
223.921
223.83
223.659
223.542
223.474
223.409
223.325
223.228
223.138
223.06
223.002
222.976
222.979
223.03
223.127
223.205
223.245
223.267
223.287
223.313
223.341
223.363
223.381
223.396
223.406
223.413
223.418
223.421
223.426
223.432
223.441
223.451
223.464
223.48
223.499
223.523
223.551
223.585
223.625
223.671
223.723
223.781
223.844
223.914
223.989
224.07
224.157
224.249
224.346
224.447
224.554
224.665
224.781
224.901
225.026
225.154
225.287
225.424
225.563
225.707
225.853
226.001
226.153
226.306
226.462
226.618
226.775
226.933
227.091
227.248
227.405
227.559
227.711
227.86
228.004
228.142
228.274
228.399
228.515
228.621
228.714
228.794
228.855
228.897
228.918
228.918
228.882
228.814
228.704
228.548
228.342
228.073
227.739
227.323
226.817
226.202
225.46
224.582
223.544
222.339
220.932
219.322
217.463
215.369
213.014
210.422
207.639
205.054
200.006
223
223
223
223
223
223
223
223.004
223.062
223.319
223.696
223.914
223.944
223.893
223.736
223.616
223.551
223.495
223.421
223.332
223.248
223.176
223.116
223.082
223.075
223.103
223.191
223.285
223.34
223.368
223.391
223.418
223.447
223.472
223.493
223.509
223.522
223.531
223.537
223.542
223.548
223.556
223.567
223.58
223.596
223.615
223.638
223.665
223.696
223.734
223.777
223.827
223.883
223.945
224.012
224.086
224.166
224.251
224.342
224.438
224.54
224.647
224.759
224.875
224.997
225.123
225.254
225.389
225.528
225.672
225.819
225.97
226.125
226.282
226.443
226.607
226.772
226.94
227.11
227.28
227.451
227.623
227.795
227.967
228.137
228.305
228.47
228.631
228.787
228.939
229.083
229.22
229.347
229.464
229.567
229.655
229.723
229.772
229.797
229.799
229.761
229.687
229.568
229.395
229.166
228.863
228.48
228
227.411
226.702
225.85
224.844
223.65
222.261
220.632
218.764
216.593
214.16
211.519
208.639
203.586
223
223
223
223
223
223
223
223.002
223.036
223.242
223.629
223.9
223.966
223.942
223.802
223.681
223.62
223.576
223.513
223.433
223.354
223.286
223.228
223.188
223.174
223.186
223.256
223.357
223.428
223.465
223.491
223.519
223.549
223.576
223.6
223.618
223.633
223.643
223.65
223.657
223.664
223.675
223.688
223.704
223.723
223.745
223.771
223.801
223.836
223.877
223.924
223.977
224.037
224.102
224.174
224.251
224.335
224.424
224.52
224.621
224.727
224.839
224.955
225.077
225.204
225.335
225.472
225.613
225.758
225.908
226.063
226.221
226.383
226.549
226.718
226.89
227.066
227.244
227.424
227.606
227.789
227.974
228.16
228.346
228.533
228.718
228.902
229.083
229.262
229.437
229.607
229.772
229.93
230.079
230.218
230.346
230.459
230.557
230.633
230.688
230.717
230.719
230.679
230.597
230.464
230.271
230.014
229.674
229.244
228.707
228.042
227.233
226.249
225.077
223.673
222.025
220.094
217.968
215.536
213.048
208.632
223
223
223
223
223
223
223
223.001
223.021
223.181
223.561
223.88
223.986
223.974
223.857
223.741
223.686
223.652
223.601
223.527
223.452
223.388
223.334
223.291
223.271
223.273
223.323
223.424
223.509
223.557
223.586
223.614
223.645
223.675
223.7
223.72
223.736
223.748
223.757
223.765
223.774
223.787
223.802
223.821
223.843
223.868
223.898
223.931
223.97
224.013
224.064
224.121
224.184
224.253
224.328
224.409
224.497
224.591
224.69
224.795
224.906
225.022
225.143
225.269
225.401
225.538
225.679
225.826
225.977
226.133
226.294
226.459
226.628
226.801
226.978
227.158
227.342
227.53
227.719
227.912
228.107
228.303
228.501
228.701
228.902
229.103
229.303
229.503
229.7
229.896
230.089
230.278
230.463
230.641
230.813
230.975
231.127
231.266
231.391
231.498
231.583
231.643
231.675
231.678
231.633
231.542
231.394
231.177
230.881
230.487
229.978
229.334
228.526
227.54
226.338
224.903
223.2
221.225
218.926
216.423
212.476
223
223
223
223
223
223
223
223
223.012
223.137
223.5
223.859
223.998
223.996
223.903
223.797
223.749
223.723
223.682
223.614
223.54
223.481
223.431
223.389
223.366
223.363
223.395
223.491
223.586
223.644
223.677
223.705
223.735
223.765
223.791
223.813
223.83
223.844
223.854
223.864
223.875
223.89
223.909
223.931
223.956
223.985
224.018
224.054
224.096
224.143
224.197
224.257
224.324
224.397
224.476
224.561
224.652
224.749
224.853
224.962
225.076
225.197
225.322
225.453
225.589
225.731
225.877
226.029
226.185
226.347
226.513
226.684
226.86
227.039
227.223
227.411
227.603
227.798
227.997
228.198
228.403
228.61
228.819
229.031
229.244
229.459
229.674
229.889
230.104
230.318
230.53
230.741
230.949
231.153
231.352
231.545
231.731
231.907
232.072
232.224
232.361
232.479
232.571
232.637
232.672
232.674
232.623
232.518
232.344
232.088
231.736
231.271
230.664
229.901
228.934
227.744
226.288
224.531
222.505
220.089
216.624
223
223
223
223
223
223
223
223
223.008
223.108
223.45
223.839
224.006
224.014
223.943
223.849
223.807
223.788
223.754
223.692
223.621
223.565
223.521
223.483
223.46
223.453
223.475
223.56
223.662
223.728
223.764
223.791
223.819
223.847
223.873
223.895
223.914
223.928
223.94
223.952
223.967
223.985
224.008
224.033
224.062
224.094
224.13
224.17
224.216
224.266
224.323
224.387
224.457
224.534
224.616
224.705
224.8
224.901
225.008
225.12
225.239
225.363
225.493
225.628
225.768
225.914
226.065
226.221
226.383
226.549
226.721
226.897
227.078
227.264
227.454
227.648
227.847
228.05
228.256
228.466
228.679
228.896
229.115
229.337
229.561
229.788
230.016
230.245
230.475
230.705
230.934
231.164
231.392
231.618
231.841
232.061
232.275
232.483
232.684
232.875
233.054
233.22
233.368
233.497
233.597
233.67
233.708
233.709
233.646
233.524
233.321
233.025
232.609
232.055
231.318
230.377
229.166
227.646
225.831
223.573
220.371
223
223
223
223
223
223
223
223
223.006
223.089
223.415
223.824
224.01
224.032
223.978
223.896
223.861
223.847
223.82
223.763
223.696
223.645
223.606
223.574
223.552
223.544
223.56
223.635
223.738
223.808
223.846
223.871
223.896
223.922
223.946
223.967
223.986
224.002
224.016
224.031
224.049
224.071
224.097
224.127
224.159
224.195
224.235
224.279
224.328
224.382
224.442
224.51
224.583
224.663
224.749
224.841
224.94
225.044
225.155
225.271
225.394
225.521
225.655
225.794
225.938
226.088
226.243
226.404
226.57
226.741
226.917
227.099
227.285
227.476
227.672
227.872
228.077
228.286
228.5
228.717
228.938
229.162
229.39
229.621
229.855
230.092
230.332
230.573
230.815
231.059
231.304
231.549
231.795
232.04
232.284
232.526
232.765
233.001
233.231
233.456
233.673
233.879
234.074
234.254
234.415
234.557
234.666
234.746
234.786
234.784
234.707
234.56
234.309
233.942
233.412
232.699
231.717
230.441
228.83
226.762
223.819
223
223
223
223
223
223
223
223
223.005
223.08
223.395
223.817
224.015
224.049
224.008
223.937
223.909
223.9
223.88
223.829
223.767
223.72
223.687
223.66
223.642
223.634
223.647
223.714
223.813
223.886
223.923
223.945
223.966
223.988
224.01
224.03
224.049
224.066
224.082
224.1
224.122
224.148
224.178
224.212
224.249
224.289
224.333
224.38
224.433
224.49
224.555
224.625
224.703
224.786
224.875
224.971
225.073
225.181
225.295
225.415
225.54
225.672
225.809
225.951
226.099
226.253
226.412
226.577
226.747
226.922
227.103
227.289
227.48
227.676
227.876
228.082
228.293
228.508
228.727
228.951
229.179
229.41
229.646
229.885
230.127
230.374
230.623
230.874
231.128
231.384
231.642
231.901
232.162
232.423
232.685
232.946
233.206
233.465
233.721
233.974
234.222
234.464
234.698
234.921
235.133
235.329
235.506
235.661
235.782
235.869
235.91
235.9
235.799
235.613
235.3
234.848
234.173
233.236
231.879
230.024
227.262
223
223
223
223
223
223
223
223
223.005
223.079
223.391
223.817
224.023
224.067
224.033
223.972
223.953
223.949
223.935
223.891
223.833
223.791
223.764
223.742
223.728
223.722
223.733
223.794
223.887
223.959
223.995
224.013
224.029
224.047
224.066
224.085
224.104
224.122
224.141
224.162
224.187
224.217
224.251
224.29
224.331
224.375
224.423
224.474
224.531
224.592
224.66
224.734
224.815
224.902
224.995
225.094
225.199
225.311
225.428
225.551
225.68
225.815
225.955
226.101
226.253
226.41
226.573
226.741
226.915
227.094
227.279
227.469
227.664
227.864
228.07
228.281
228.496
228.717
228.942
229.171
229.405
229.643
229.885
230.131
230.382
230.636
230.893
231.154
231.418
231.684
231.953
232.224
232.498
232.773
233.05
233.328
233.606
233.885
234.162
234.439
234.713
234.984
235.251
235.512
235.765
236.008
236.239
236.454
236.649
236.819
236.952
237.047
237.09
237.07
236.95
236.721
236.314
235.69
234.631
233.151
230.575
223
223
223
223
223
223
223
223
223.005
223.081
223.4
223.829
224.036
224.083
224.054
224.005
223.995
223.996
223.987
223.948
223.895
223.858
223.836
223.819
223.809
223.805
223.816
223.872
223.958
224.026
224.059
224.073
224.085
224.099
224.116
224.135
224.153
224.173
224.193
224.216
224.245
224.279
224.318
224.36
224.405
224.454
224.506
224.562
224.622
224.687
224.758
224.836
224.921
225.011
225.108
225.21
225.319
225.433
225.554
225.68
225.812
225.95
226.094
226.243
226.398
226.558
226.725
226.896
227.074
227.257
227.445
227.639
227.838
228.043
228.253
228.468
228.688
228.913
229.143
229.378
229.617
229.861
230.109
230.362
230.619
230.88
231.145
231.414
231.686
231.962
232.24
232.522
232.807
233.094
233.384
233.676
233.97
234.265
234.561
234.858
235.154
235.45
235.744
236.036
236.323
236.605
236.881
237.146
237.4
237.637
237.854
238.044
238.194
238.297
238.337
238.292
238.125
237.809
237.14
236.21
234.13
223
223
223
223
223
223
223
223
223.006
223.091
223.425
223.852
224.052
224.098
224.073
224.036
224.035
224.041
224.034
224
223.953
223.922
223.905
223.892
223.886
223.883
223.894
223.946
224.024
224.086
224.115
224.125
224.134
224.146
224.162
224.179
224.198
224.219
224.24
224.266
224.298
224.335
224.378
224.425
224.474
224.527
224.582
224.642
224.706
224.775
224.851
224.932
225.021
225.114
225.214
225.32
225.432
225.55
225.674
225.803
225.938
226.079
226.226
226.378
226.536
226.7
226.869
227.045
227.225
227.412
227.604
227.801
228.004
228.212
228.426
228.645
228.87
229.099
229.334
229.573
229.818
230.067
230.321
230.579
230.842
231.11
231.382
231.658
231.938
232.221
232.509
232.799
233.094
233.392
233.693
233.998
234.305
234.614
234.926
235.24
235.555
235.872
236.189
236.506
236.822
237.137
237.448
237.756
238.057
238.349
238.63
238.894
239.137
239.349
239.516
239.631
239.682
239.629
239.349
238.874
237.644
223
223
223
223
223
223
223
223
223.008
223.109
223.464
223.884
224.07
224.111
224.093
224.068
224.072
224.084
224.077
224.047
224.006
223.982
223.97
223.961
223.957
223.956
223.967
224.014
224.083
224.138
224.162
224.169
224.175
224.186
224.202
224.22
224.24
224.261
224.284
224.312
224.346
224.387
224.434
224.484
224.537
224.593
224.653
224.717
224.785
224.857
224.937
225.022
225.114
225.211
225.315
225.424
225.539
225.66
225.787
225.919
226.057
226.201
226.351
226.507
226.668
226.834
227.007
227.185
227.369
227.559
227.754
227.955
228.161
228.373
228.591
228.814
229.042
229.276
229.515
229.759
230.008
230.262
230.521
230.785
231.053
231.327
231.605
231.888
232.175
232.466
232.761
233.06
233.364
233.671
233.983
234.298
234.617
234.939
235.264
235.593
235.925
236.259
236.595
236.934
237.274
237.615
237.956
238.297
238.636
238.972
239.303
239.626
239.939
240.237
240.513
240.751
240.951
241.109
241.187
241.029
240.669
223
223
223
223
223
223
223
223
223.012
223.137
223.515
223.921
224.089
224.123
224.113
224.098
224.109
224.126
224.119
224.091
224.057
224.039
224.03
224.025
224.022
224.02
224.03
224.071
224.132
224.18
224.199
224.204
224.209
224.22
224.237
224.257
224.278
224.3
224.324
224.354
224.391
224.435
224.485
224.538
224.595
224.655
224.719
224.786
224.857
224.934
225.017
225.107
225.202
225.303
225.409
225.522
225.64
225.764
225.894
226.029
226.171
226.317
226.47
226.628
226.792
226.962
227.138
227.319
227.506
227.698
227.897
228.101
228.311
228.526
228.747
228.974
229.206
229.444
229.687
229.935
230.188
230.447
230.711
230.979
231.253
231.532
231.816
232.105
232.398
232.696
232.998
233.305
233.616
233.932
234.253
234.578
234.907
235.24
235.577
235.919
236.264
236.613
236.966
237.323
237.682
238.045
238.41
238.777
239.146
239.516
239.886
240.254
240.619
240.977
241.325
241.656
241.968
242.254
242.515
242.654
242.781
223
223
223
223
223
223
223
223.001
223.019
223.174
223.577
223.962
224.108
224.136
224.131
224.128
224.148
224.167
224.159
224.133
224.105
224.092
224.085
224.081
224.077
224.073
224.081
224.116
224.17
224.21
224.225
224.228
224.234
224.248
224.267
224.289
224.311
224.334
224.36
224.392
224.432
224.479
224.532
224.589
224.649
224.712
224.779
224.85
224.925
225.006
225.092
225.185
225.284
225.388
225.498
225.614
225.735
225.862
225.995
226.133
226.277
226.427
226.582
226.743
226.91
227.083
227.261
227.445
227.635
227.831
228.032
228.24
228.453
228.671
228.896
229.126
229.362
229.603
229.85
230.102
230.36
230.623
230.891
231.164
231.443
231.727
232.017
232.311
232.61
232.914
233.223
233.537
233.856
234.179
234.508
234.841
235.18
235.523
235.87
236.223
236.58
236.942
237.308
237.679
238.055
238.434
238.818
239.206
239.597
239.992
240.389
240.788
241.186
241.583
241.976
242.361
242.731
243.092
243.418
243.676
243.937
223
223
223
223
223
223
223
223.001
223.03
223.224
223.645
224.004
224.126
224.149
224.15
224.158
224.188
224.208
224.199
224.175
224.152
224.141
224.134
224.126
224.119
224.112
224.117