/*--------------------------------*- C++ -*----------------------------------*\
| =========                 |                                                 |
| \\      /  F ield         | OpenFOAM: The Open Source CFD Toolbox           |
|  \\    /   O peration     | Version:  2406                                  |
|   \\  /    A nd           | Website:  www.openfoam.com                      |
|    \\/     M anipulation  |                                                 |
\*---------------------------------------------------------------------------*/
FoamFile
{
    version     2.0;
    format      ascii;
    arch        "LSB;label=32;scalar=64";
    class       volVectorField;
    location    "0.049";
    object      U;
}
// * * * * * * * * * * * * * * * * * * * * * * * * * * * * * * * * * * * * * //

dimensions      [0 1 -1 0 0 0 0];

internalField   nonuniform List<vector> 
78650
(
(168.403 33.8996 0)
(196.863 -2.08566 0)
(201.74 -4.01933 0)
(203.061 -3.60617 0)
(204.46 -3.91642 0)
(206.081 -3.73943 0)
(207.761 -3.61842 0)
(209.031 -3.48706 0)
(209.897 -3.37497 0)
(210.527 -3.2134 0)
(211.039 -2.99589 0)
(211.517 -2.73994 0)
(212.003 -2.4644 0)
(212.512 -2.18106 0)
(213.038 -1.88067 0)
(213.565 -1.54836 0)
(214.072 -1.17702 0)
(214.55 -0.766776 0)
(214.993 -0.322572 0)
(215.404 0.152223 0)
(215.795 0.653212 0)
(216.172 1.17839 0)
(216.549 1.72461 0)
(216.922 2.29162 0)
(217.29 2.8787 0)
(217.652 3.48462 0)
(218.001 4.11116 0)
(218.334 4.75937 0)
(218.651 5.43145 0)
(218.951 6.13013 0)
(219.231 6.85786 0)
(219.487 7.61697 0)
(219.72 8.40924 0)
(219.926 9.23631 0)
(220.107 10.099 0)
(220.262 10.9975 0)
(220.391 11.9318 0)
(220.497 12.9006 0)
(220.584 13.903 0)
(220.656 14.9383 0)
(220.711 16.0058 0)
(220.752 17.1047 0)
(220.783 18.2343 0)
(220.805 19.394 0)
(220.82 20.5835 0)
(220.832 21.803 0)
(220.841 23.0528 0)
(220.849 24.3328 0)
(220.861 25.6428 0)
(220.881 26.9827 0)
(220.91 28.3529 0)
(220.95 29.7538 0)
(221.009 31.1868 0)
(221.087 32.6519 0)
(221.185 34.149 0)
(221.313 35.6787 0)
(221.477 37.2408 0)
(221.672 38.8354 0)
(221.913 40.4641 0)
(222.203 42.1265 0)
(222.535 43.8227 0)
(222.936 45.5526 0)
(223.4 47.3138 0)
(223.933 49.105 0)
(224.562 50.9246 0)
(225.266 52.7714 0)
(226.073 54.6436 0)
(226.995 56.5381 0)
(228.014 58.4553 0)
(229.175 60.3906 0)
(230.46 62.3348 0)
(231.871 64.2801 0)
(233.46 66.2157 0)
(235.19 68.1456 0)
(237.098 70.068 0)
(239.209 71.9704 0)
(241.481 73.8504 0)
(243.966 75.6791 0)
(246.648 77.4355 0)
(249.516 79.1129 0)
(252.6 80.7113 0)
(255.926 82.1978 0)
(259.446 83.6012 0)
(263.223 84.8319 0)
(267.19 85.9361 0)
(271.375 86.8441 0)
(275.775 87.6013 0)
(280.266 88.1702 0)
(284.967 88.6069 0)
(289.615 88.8669 0)
(294.502 88.9325 0)
(299.172 88.8336 0)
(304.318 88.4591 0)
(309.048 87.9755 0)
(314.22 87.2535 0)
(318.848 86.4949 0)
(323.85 85.4255 0)
(328.559 84.3621 0)
(333.503 83.1306 0)
(337.736 82.0998 0)
(341.955 80.976 0)
(345.469 80.0784 0)
(348.654 79.1428 0)
(351.508 78.1254 0)
(354.138 76.9492 0)
(356.606 76.0147 0)
(359.355 74.9052 0)
(361.699 74.2407 0)
(364.555 73.0323 0)
(366.78 72.28 0)
(369.459 71.2362 0)
(371.533 70.7484 0)
(373.971 69.8527 0)
(375.56 69.2422 0)
(377.046 68.2456 0)
(378.043 67.5625 0)
(379.311 66.7067 0)
(380.946 66.2648 0)
(383.399 65.7908 0)
(386.801 65.3248 0)
(388.104 67.1195 0)
(169.932 34.0013 0)
(197.175 -1.2896 0)
(201.88 -3.67668 0)
(203.204 -3.34772 0)
(204.622 -3.63734 0)
(206.241 -3.44905 0)
(207.846 -3.32637 0)
(209.036 -3.23006 0)
(209.865 -3.1484 0)
(210.485 -3.0111 0)
(210.99 -2.80923 0)
(211.461 -2.56414 0)
(211.94 -2.29827 0)
(212.431 -2.02309 0)
(212.928 -1.72964 0)
(213.422 -1.40705 0)
(213.901 -1.04523 0)
(214.353 -0.643838 0)
(214.773 -0.208291 0)
(215.158 0.257552 0)
(215.517 0.749805 0)
(215.861 1.26664 0)
(216.204 1.80422 0)
(216.546 2.36272 0)
(216.888 2.94064 0)
(217.226 3.53717 0)
(217.552 4.15374 0)
(217.863 4.79092 0)
(218.158 5.4511 0)
(218.434 6.13705 0)
(218.691 6.85124 0)
(218.923 7.59599 0)
(219.13 8.37309 0)
(219.311 9.18423 0)
(219.466 10.0303 0)
(219.594 10.9117 0)
(219.695 11.8284 0)
(219.772 12.7792 0)
(219.83 13.7633 0)
(219.871 14.7801 0)
(219.894 15.8292 0)
(219.901 16.9091 0)
(219.895 18.0199 0)
(219.88 19.1607 0)
(219.856 20.3311 0)
(219.826 21.5311 0)
(219.791 22.761 0)
(219.754 24.0209 0)
(219.718 25.3107 0)
(219.686 26.6307 0)
(219.66 27.9809 0)
(219.643 29.3614 0)
(219.64 30.7744 0)
(219.652 32.2199 0)
(219.679 33.6978 0)
(219.732 35.2094 0)
(219.815 36.7542 0)
(219.923 38.3324 0)
(220.072 39.946 0)
(220.263 41.5947 0)
(220.489 43.2788 0)
(220.776 44.9996 0)
(221.116 46.7551 0)
(221.519 48.5446 0)
(222.007 50.3668 0)
(222.561 52.22 0)
(223.21 54.1055 0)
(223.962 56.0217 0)
(224.801 57.9663 0)
(225.772 59.9329 0)
(226.857 61.9154 0)
(228.065 63.9145 0)
(229.445 65.9283 0)
(230.953 67.9584 0)
(232.629 69.9937 0)
(234.49 72.0106 0)
(236.499 73.9966 0)
(238.716 75.9312 0)
(241.129 77.811 0)
(243.724 79.6397 0)
(246.534 81.4091 0)
(249.554 83.0953 0)
(252.734 84.7158 0)
(256.146 86.1993 0)
(259.693 87.6134 0)
(263.479 88.8671 0)
(267.455 89.9881 0)
(271.62 90.9387 0)
(275.995 91.7728 0)
(280.404 92.4189 0)
(285.025 92.8943 0)
(289.621 93.1674 0)
(294.561 93.2578 0)
(299.29 93.1763 0)
(304.147 92.9211 0)
(309.014 92.5072 0)
(313.96 91.9283 0)
(318.683 91.2792 0)
(323.307 90.4854 0)
(327.463 89.6306 0)
(331.56 88.6231 0)
(335.388 87.6238 0)
(339.216 86.506 0)
(342.884 85.438 0)
(346.809 84.209 0)
(350.272 83.222 0)
(354.155 81.9063 0)
(357.15 80.8873 0)
(360.671 79.4317 0)
(363.29 78.4844 0)
(366.355 77.2051 0)
(368.69 76.4569 0)
(371.456 75.304 0)
(373.304 74.6145 0)
(375.081 73.5117 0)
(375.986 72.8952 0)
(376.9 71.9115 0)
(377.967 71.5551 0)
(380.226 71.18 0)
(383.939 70.8582 0)
(385.416 73.1342 0)
(170.793 33.4562 0)
(198.175 -0.781247 0)
(202.221 -3.33392 0)
(203.361 -3.01829 0)
(204.76 -3.25474 0)
(206.394 -3.06504 0)
(207.953 -2.99429 0)
(209.071 -2.96058 0)
(209.853 -2.91081 0)
(210.454 -2.79154 0)
(210.96 -2.60473 0)
(211.43 -2.37437 0)
(211.896 -2.12027 0)
(212.367 -1.84932 0)
(212.846 -1.55914 0)
(213.313 -1.24549 0)
(213.762 -0.89504 0)
(214.184 -0.5072 0)
(214.576 -0.0838117 0)
(214.933 0.369118 0)
(215.261 0.847879 0)
(215.57 1.35177 0)
(215.876 1.87734 0)
(216.183 2.42491 0)
(216.493 2.99184 0)
(216.803 3.57759 0)
(217.104 4.183 0)
(217.392 4.80835 0)
(217.665 5.45634 0)
(217.918 6.12976 0)
(218.15 6.83107 0)
(218.358 7.56257 0)
(218.54 8.32606 0)
(218.695 9.12324 0)
(218.823 9.95503 0)
(218.923 10.822 0)
(218.995 11.7239 0)
(219.044 12.6598 0)
(219.071 13.6286 0)
(219.08 14.6298 0)
(219.068 15.6638 0)
(219.04 16.7279 0)
(218.997 17.8231 0)
(218.942 18.9482 0)
(218.878 20.1028 0)
(218.805 21.2869 0)
(218.726 22.5008 0)
(218.641 23.7447 0)
(218.555 25.0183 0)
(218.47 26.3221 0)
(218.389 27.6565 0)
(218.314 29.0206 0)
(218.249 30.4175 0)
(218.195 31.8472 0)
(218.153 33.3091 0)
(218.133 34.805 0)
(218.136 36.3346 0)
(218.16 37.8978 0)
(218.221 39.4971 0)
(218.316 41.1318 0)
(218.442 42.8024 0)
(218.622 44.5111 0)
(218.847 46.2557 0)
(219.128 48.0357 0)
(219.484 49.8505 0)
(219.897 51.6983 0)
(220.399 53.581 0)
(220.991 55.4962 0)
(221.659 57.4417 0)
(222.451 59.4152 0)
(223.341 61.4142 0)
(224.345 63.4397 0)
(225.503 65.4862 0)
(226.767 67.5479 0)
(228.186 69.6124 0)
(229.774 71.6653 0)
(231.501 73.7053 0)
(233.438 75.7267 0)
(235.563 77.7324 0)
(237.866 79.7268 0)
(240.386 81.6955 0)
(243.115 83.6159 0)
(246.036 85.4805 0)
(249.214 87.2369 0)
(252.569 88.92 0)
(256.173 90.4313 0)
(259.934 91.8655 0)
(263.946 93.1118 0)
(268.119 94.2196 0)
(272.44 95.1429 0)
(276.92 95.9234 0)
(281.506 96.489 0)
(286.136 96.9187 0)
(290.902 97.1744 0)
(295.499 97.2991 0)
(300.473 97.1728 0)
(305.074 96.9659 0)
(309.797 96.539 0)
(314.189 96.081 0)
(318.744 95.4518 0)
(323.406 94.6863 0)
(327.949 93.7766 0)
(332.72 92.5913 0)
(337.033 91.4248 0)
(341.532 90.0917 0)
(345.228 89.0509 0)
(349.232 87.6787 0)
(352.315 86.6581 0)
(355.747 85.2712 0)
(358.372 84.4853 0)
(361.424 83.3452 0)
(363.768 82.7607 0)
(366.532 81.6837 0)
(368.484 80.9724 0)
(370.352 79.8486 0)
(371.56 79.1104 0)
(372.902 78.1631 0)
(374.496 77.7364 0)
(377.107 77.255 0)
(380.846 76.9266 0)
(382.433 78.805 0)
(171.499 32.6394 0)
(199.171 -0.329194 0)
(202.538 -2.90255 0)
(203.658 -2.61353 0)
(205.151 -2.8453 0)
(206.817 -2.69691 0)
(208.256 -2.67554 0)
(209.204 -2.66976 0)
(209.877 -2.63566 0)
(210.445 -2.53555 0)
(210.953 -2.37022 0)
(211.424 -2.15958 0)
(211.875 -1.91989 0)
(212.324 -1.65673 0)
(212.778 -1.37076 0)
(213.232 -1.05734 0)
(213.664 -0.714982 0)
(214.058 -0.339409 0)
(214.418 0.069816 0)
(214.743 0.508997 0)
(215.039 0.974881 0)
(215.312 1.46608 0)
(215.58 1.97851 0)
(215.845 2.51252 0)
(216.117 3.06538 0)
(216.392 3.63762 0)
(216.662 4.22934 0)
(216.924 4.84057 0)
(217.171 5.47414 0)
(217.399 6.13268 0)
(217.605 6.81855 0)
(217.787 7.53395 0)
(217.943 8.2806 0)
(218.071 9.06023 0)
(218.172 9.87391 0)
(218.245 10.7222 0)
(218.289 11.605 0)
(218.31 12.5212 0)
(218.308 13.4707 0)
(218.286 14.4515 0)
(218.24 15.4656 0)
(218.18 16.5076 0)
(218.102 17.5832 0)
(218.01 18.6881 0)
(217.907 19.8218 0)
(217.794 20.9846 0)
(217.672 22.1768 0)
(217.544 23.3986 0)
(217.412 24.6498 0)
(217.278 25.9318 0)
(217.144 27.244 0)
(217.015 28.5848 0)
(216.893 29.9579 0)
(216.776 31.3651 0)
(216.669 32.8039 0)
(216.578 34.2774 0)
(216.505 35.7854 0)
(216.448 37.327 0)
(216.423 38.9057 0)
(216.424 40.5205 0)
(216.452 42.1719 0)
(216.526 43.8635 0)
(216.636 45.5929 0)
(216.795 47.361 0)
(217.02 49.1675 0)
(217.291 51.0104 0)
(217.644 52.8925 0)
(218.074 54.812 0)
(218.573 56.7681 0)
(219.185 58.761 0)
(219.88 60.787 0)
(220.682 62.845 0)
(221.627 64.9288 0)
(222.668 67.0336 0)
(223.864 69.1563 0)
(225.217 71.2923 0)
(226.702 73.4422 0)
(228.392 75.5973 0)
(230.254 77.7507 0)
(232.284 79.8929 0)
(234.522 81.9994 0)
(236.943 84.0503 0)
(239.544 86.0394 0)
(242.375 87.9432 0)
(245.377 89.7875 0)
(248.629 91.5136 0)
(252.033 93.1814 0)
(255.701 94.6685 0)
(259.537 96.0919 0)
(263.632 97.334 0)
(267.934 98.4787 0)
(272.397 99.4084 0)
(277.009 100.145 0)
(281.772 100.709 0)
(286.652 101.079 0)
(291.54 101.271 0)
(296.426 101.285 0)
(301.272 101.148 0)
(306.491 100.76 0)
(311.269 100.322 0)
(316.554 99.6493 0)
(321.164 98.9723 0)
(325.991 98.0398 0)
(330.18 97.3184 0)
(334.427 96.381 0)
(337.968 95.6764 0)
(341.675 94.5965 0)
(344.8 93.8258 0)
(348.183 92.7502 0)
(351.016 92.1387 0)
(354.27 91.1009 0)
(356.916 90.4558 0)
(359.973 89.3283 0)
(362.256 88.5585 0)
(364.496 87.3624 0)
(365.862 86.5523 0)
(367.233 85.4019 0)
(368.686 84.7969 0)
(371.276 84.1575 0)
(375.614 83.5168 0)
(377.278 85.869 0)
(171.966 31.6587 0)
(200.189 -0.135881 0)
(203.026 -2.53624 0)
(203.999 -2.20399 0)
(205.582 -2.39213 0)
(207.246 -2.23883 0)
(208.525 -2.24755 0)
(209.328 -2.29908 0)
(209.948 -2.30489 0)
(210.51 -2.23041 0)
(211.027 -2.08692 0)
(211.496 -1.89462 0)
(211.926 -1.67198 0)
(212.335 -1.42588 0)
(212.742 -1.15535 0)
(213.157 -0.856057 0)
(213.564 -0.523149 0)
(213.944 -0.155711 0)
(214.278 0.238237 0)
(214.572 0.662611 0)
(214.837 1.11205 0)
(215.075 1.5858 0)
(215.303 2.08107 0)
(215.526 2.59831 0)
(215.756 3.13468 0)
(215.989 3.69124 0)
(216.224 4.26715 0)
(216.455 4.8625 0)
(216.674 5.48031 0)
(216.875 6.1231 0)
(217.055 6.79305 0)
(217.21 7.49226 0)
(217.339 8.22226 0)
(217.439 8.98489 0)
(217.512 9.78141 0)
(217.555 10.6123 0)
(217.571 11.4774 0)
(217.562 12.3763 0)
(217.528 13.3084 0)
(217.473 14.2679 0)
(217.394 15.2647 0)
(217.296 16.2922 0)
(217.181 17.3489 0)
(217.051 18.435 0)
(216.907 19.5503 0)
(216.752 20.6946 0)
(216.586 21.8681 0)
(216.412 23.0711 0)
(216.231 24.304 0)
(216.047 25.5665 0)
(215.861 26.8582 0)
(215.676 28.1805 0)
(215.494 29.5339 0)
(215.313 30.9237 0)
(215.141 32.3418 0)
(214.981 33.794 0)
(214.831 35.2826 0)
(214.695 36.8041 0)
(214.587 38.3634 0)
(214.498 39.9594 0)
(214.432 41.5912 0)
(214.407 43.264 0)
(214.409 44.9748 0)
(214.455 46.7252 0)
(214.556 48.5152 0)
(214.697 50.3423 0)
(214.913 52.2105 0)
(215.194 54.1175 0)
(215.536 56.0631 0)
(215.98 58.0483 0)
(216.492 60.0685 0)
(217.105 62.1243 0)
(217.843 64.213 0)
(218.665 66.3325 0)
(219.632 68.4841 0)
(220.732 70.6624 0)
(221.947 72.8623 0)
(223.349 75.0725 0)
(224.898 77.2834 0)
(226.605 79.4868 0)
(228.515 81.6694 0)
(230.601 83.8255 0)
(232.879 85.956 0)
(235.394 88.0454 0)
(238.093 90.097 0)
(241.03 92.0759 0)
(244.147 94.0098 0)
(247.543 95.7976 0)
(251.051 97.5392 0)
(254.822 99.0879 0)
(258.714 100.571 0)
(262.83 101.852 0)
(267.19 102.998 0)
(271.583 103.904 0)
(276.351 104.737 0)
(280.844 105.332 0)
(285.974 105.781 0)
(290.559 106.004 0)
(296.012 106.127 0)
(300.527 106.152 0)
(305.604 105.948 0)
(310.116 105.651 0)
(314.87 105.074 0)
(319.232 104.509 0)
(323.655 103.684 0)
(327.713 102.862 0)
(331.987 101.799 0)
(335.718 101.043 0)
(339.961 100.035 0)
(343.374 99.3259 0)
(347.378 98.1827 0)
(350.493 97.3617 0)
(354.087 96.1722 0)
(356.803 95.4327 0)
(359.667 94.3117 0)
(361.518 93.5531 0)
(363.269 92.446 0)
(364.966 91.9868 0)
(367.874 91.4823 0)
(372.603 91.0373 0)
(374.252 94.151 0)
(172.069 30.5077 0)
(200.77 -0.526702 0)
(203.323 -2.16699 0)
(204.277 -1.72896 0)
(206.015 -1.87705 0)
(207.707 -1.74117 0)
(208.896 -1.79999 0)
(209.612 -1.89496 0)
(210.156 -1.94111 0)
(210.658 -1.88976 0)
(211.142 -1.76324 0)
(211.601 -1.58791 0)
(212.019 -1.38395 0)
(212.401 -1.15625 0)
(212.77 -0.902898 0)
(213.141 -0.619325 0)
(213.507 -0.301581 0)
(213.851 0.0498627 0)
(214.161 0.432333 0)
(214.43 0.840656 0)
(214.663 1.27283 0)
(214.868 1.7282 0)
(215.055 2.2053 0)
(215.234 2.70398 0)
(215.418 3.22194 0)
(215.604 3.76061 0)
(215.796 4.31841 0)
(215.99 4.89569 0)
(216.176 5.49551 0)
(216.347 6.12032 0)
(216.497 6.77206 0)
(216.624 7.45261 0)
(216.725 8.16324 0)
(216.796 8.90594 0)
(216.841 9.68215 0)
(216.855 10.4925 0)
(216.841 11.3363 0)
(216.803 12.2116 0)
(216.74 13.1183 0)
(216.649 14.0627 0)
(216.538 15.0359 0)
(216.407 16.0392 0)
(216.257 17.0728 0)
(216.09 18.136 0)
(215.908 19.228 0)
(215.713 20.3487 0)
(215.506 21.4982 0)
(215.289 22.6766 0)
(215.064 23.8843 0)
(214.833 25.1215 0)
(214.597 26.3884 0)
(214.359 27.6855 0)
(214.121 29.0142 0)
(213.884 30.3737 0)
(213.65 31.7662 0)
(213.425 33.1918 0)
(213.201 34.657 0)
(212.991 36.1511 0)
(212.802 37.6821 0)
(212.624 39.2535 0)
(212.469 40.8593 0)
(212.345 42.5081 0)
(212.241 44.196 0)
(212.176 45.9253 0)
(212.154 47.6963 0)
(212.164 49.5069 0)
(212.241 51.3622 0)
(212.371 53.2593 0)
(212.555 55.1992 0)
(212.829 57.1841 0)
(213.158 59.2094 0)
(213.583 61.2782 0)
(214.117 63.3881 0)
(214.724 65.5356 0)
(215.469 67.7217 0)
(216.329 69.9388 0)
(217.296 72.182 0)
(218.442 74.4448 0)
(219.72 76.72 0)
(221.156 79.0051 0)
(222.789 81.2942 0)
(224.583 83.584 0)
(226.567 85.8702 0)
(228.773 88.1352 0)
(231.153 90.3729 0)
(233.754 92.5594 0)
(236.546 94.7002 0)
(239.593 96.7445 0)
(242.792 98.751 0)
(246.307 100.581 0)
(249.926 102.378 0)
(253.828 103.974 0)
(257.885 105.483 0)
(262.166 106.763 0)
(266.63 107.947 0)
(271.07 108.932 0)
(275.919 109.833 0)
(280.463 110.466 0)
(285.294 110.968 0)
(290.094 111.308 0)
(294.686 111.491 0)
(299.811 111.482 0)
(304.491 111.353 0)
(309.634 110.982 0)
(314.451 110.431 0)
(319.528 109.626 0)
(324.358 108.775 0)
(328.98 107.897 0)
(333.533 106.955 0)
(337.393 106.07 0)
(341.423 104.952 0)
(344.75 104.041 0)
(348.484 102.87 0)
(351.421 102.113 0)
(354.608 100.994 0)
(356.632 100.203 0)
(358.54 98.974 0)
(360.304 98.2727 0)
(363.202 97.7119 0)
(367.805 97.3935 0)
(369.463 99.9462 0)
(171.872 29.132 0)
(201.042 -0.953698 0)
(203.675 -1.79239 0)
(204.72 -1.24493 0)
(206.479 -1.40413 0)
(208.037 -1.36559 0)
(209.074 -1.46532 0)
(209.721 -1.57497 0)
(210.245 -1.62286 0)
(210.733 -1.57648 0)
(211.208 -1.46272 0)
(211.663 -1.30203 0)
(212.081 -1.10913 0)
(212.458 -0.887986 0)
(212.809 -0.640924 0)
(213.146 -0.366139 0)
(213.471 -0.0620334 0)
(213.772 0.272256 0)
(214.046 0.633335 0)
(214.282 1.01773 0)
(214.486 1.42859 0)
(214.661 1.86496 0)
(214.814 2.32435 0)
(214.955 2.80485 0)
(215.094 3.30458 0)
(215.233 3.82473 0)
(215.38 4.36333 0)
(215.532 4.92104 0)
(215.68 5.50118 0)
(215.816 6.10643 0)
(215.935 6.73866 0)
(216.033 7.39952 0)
(216.104 8.09007 0)
(216.146 8.81244 0)
(216.16 9.56854 0)
(216.144 10.3581 0)
(216.103 11.1773 0)
(216.033 12.032 0)
(215.933 12.9231 0)
(215.81 13.8434 0)
(215.664 14.7953 0)
(215.497 15.778 0)
(215.309 16.7909 0)
(215.103 17.8332 0)
(214.88 18.9041 0)
(214.643 20.0034 0)
(214.393 21.1312 0)
(214.131 22.2877 0)
(213.859 23.4734 0)
(213.578 24.6883 0)
(213.291 25.9325 0)
(212.999 27.2065 0)
(212.705 28.5113 0)
(212.408 29.8483 0)
(212.11 31.2179 0)
(211.815 32.6216 0)
(211.525 34.0577 0)
(211.243 35.5279 0)
(210.976 37.0335 0)
(210.707 38.5861 0)
(210.468 40.1633 0)
(210.248 41.785 0)
(210.044 43.4473 0)
(209.875 45.1511 0)
(209.738 46.8977 0)
(209.628 48.6835 0)
(209.578 50.5152 0)
(209.568 52.3883 0)
(209.609 54.3052 0)
(209.728 56.2685 0)
(209.889 58.2733 0)
(210.139 60.3251 0)
(210.48 62.4209 0)
(210.884 64.5574 0)
(211.415 66.7386 0)
(212.038 68.9577 0)
(212.762 71.2138 0)
(213.649 73.5058 0)
(214.647 75.827 0)
(215.794 78.1779 0)
(217.121 80.5544 0)
(218.588 82.9508 0)
(220.24 85.3594 0)
(222.101 87.7615 0)
(224.13 90.1482 0)
(226.38 92.5061 0)
(228.835 94.8329 0)
(231.524 97.0974 0)
(234.394 99.3162 0)
(237.563 101.408 0)
(240.84 103.481 0)
(244.436 105.373 0)
(248.138 107.243 0)
(252.141 108.897 0)
(256.32 110.453 0)
(260.711 111.808 0)
(265.24 113.02 0)
(269.968 114.015 0)
(274.676 114.797 0)
(279.898 115.478 0)
(284.547 115.891 0)
(289.962 116.239 0)
(294.647 116.44 0)
(299.985 116.406 0)
(304.766 116.278 0)
(309.799 115.897 0)
(314.251 115.579 0)
(318.818 114.989 0)
(322.654 114.527 0)
(326.587 113.84 0)
(330.208 113.174 0)
(333.736 112.542 0)
(337.455 111.743 0)
(340.771 111.154 0)
(344.287 110.194 0)
(346.757 109.432 0)
(349.056 108.193 0)
(351.076 107.229 0)
(354.125 106.366 0)
(359.735 105.535 0)
(361.601 108.766 0)
(171.628 27.4984 0)
(201.053 -1.3168 0)
(203.895 -1.48542 0)
(205.157 -0.943657 0)
(206.814 -1.12968 0)
(208.124 -1.12534 0)
(209.029 -1.23973 0)
(209.683 -1.35158 0)
(210.233 -1.38937 0)
(210.725 -1.34675 0)
(211.187 -1.24117 0)
(211.622 -1.0867 0)
(212.03 -0.897134 0)
(212.408 -0.674003 0)
(212.763 -0.422307 0)
(213.093 -0.144988 0)
(213.398 0.15509 0)
(213.675 0.478031 0)
(213.923 0.823699 0)
(214.138 1.19564 0)
(214.317 1.59145 0)
(214.465 2.01039 0)
(214.585 2.45188 0)
(214.691 2.91375 0)
(214.787 3.39482 0)
(214.879 3.89565 0)
(214.979 4.41438 0)
(215.084 4.95124 0)
(215.19 5.50983 0)
(215.288 6.09336 0)
(215.372 6.70379 0)
(215.437 7.34277 0)
(215.477 8.01121 0)
(215.488 8.71145 0)
(215.471 9.44456 0)
(215.428 10.2063 0)
(215.355 11.0043 0)
(215.25 11.838 0)
(215.119 12.7022 0)
(214.964 13.5986 0)
(214.784 14.5261 0)
(214.581 15.4839 0)
(214.357 16.4715 0)
(214.114 17.488 0)
(213.854 18.5329 0)
(213.578 19.6059 0)
(213.287 20.7069 0)
(212.984 21.8361 0)
(212.668 22.994 0)
(212.342 24.1807 0)
(212.007 25.3965 0)
(211.665 26.6419 0)
(211.318 27.9174 0)
(210.966 29.2241 0)
(210.61 30.5629 0)
(210.253 31.9348 0)
(209.897 33.3409 0)
(209.544 34.7819 0)
(209.196 36.2596 0)
(208.859 37.7707 0)
(208.534 39.3205 0)
(208.22 40.9124 0)
(207.917 42.5462 0)
(207.646 44.2175 0)
(207.394 45.9351 0)
(207.167 47.6929 0)
(206.99 49.4999 0)
(206.839 51.3504 0)
(206.737 53.2474 0)
(206.696 55.194 0)
(206.688 57.1851 0)
(206.764 59.2289 0)
(206.911 61.3209 0)
(207.114 63.459 0)
(207.436 65.6484 0)
(207.83 67.8809 0)
(208.322 70.1589 0)
(208.961 72.4823 0)
(209.691 74.8416 0)
(210.565 77.2375 0)
(211.598 79.6637 0)
(212.754 82.1114 0)
(214.088 84.5756 0)
(215.611 87.0435 0)
(217.289 89.5108 0)
(219.177 91.9734 0)
(221.258 94.4272 0)
(223.547 96.8521 0)
(226.032 99.2479 0)
(228.788 101.576 0)
(231.681 103.892 0)
(234.903 106.095 0)
(238.225 108.285 0)
(241.891 110.27 0)
(245.665 112.216 0)
(249.702 113.948 0)
(253.915 115.591 0)
(258.359 117.083 0)
(262.953 118.351 0)
(267.753 119.457 0)
(272.488 120.356 0)
(277.261 121.175 0)
(282.33 121.886 0)
(287.081 122.358 0)
(292.267 122.646 0)
(296.925 122.793 0)
(302.161 122.67 0)
(306.857 122.407 0)
(311.798 121.933 0)
(316.659 121.349 0)
(321.338 120.647 0)
(325.705 119.93 0)
(330.191 119.084 0)
(334.021 118.395 0)
(338.258 117.378 0)
(341.186 116.565 0)
(343.744 115.404 0)
(345.81 114.768 0)
(349.035 114.291 0)
(354.859 113.971 0)
(356.536 118.223 0)
(171.545 25.6377 0)
(200.896 -1.53431 0)
(204.155 -1.41158 0)
(205.567 -0.838581 0)
(206.945 -0.93299 0)
(208.019 -0.963659 0)
(208.874 -1.05203 0)
(209.567 -1.15867 0)
(210.147 -1.19145 0)
(210.651 -1.15153 0)
(211.104 -1.04595 0)
(211.529 -0.889389 0)
(211.939 -0.699137 0)
(212.325 -0.478291 0)
(212.68 -0.230275 0)
(213 0.0457337 0)
(213.29 0.345636 0)
(213.55 0.665363 0)
(213.779 1.00246 0)
(213.973 1.35925 0)
(214.13 1.73793 0)
(214.254 2.14014 0)
(214.347 2.56514 0)
(214.422 3.01006 0)
(214.482 3.47352 0)
(214.534 3.95606 0)
(214.589 4.45572 0)
(214.649 4.97159 0)
(214.709 5.50789 0)
(214.765 6.06844 0)
(214.811 6.65547 0)
(214.841 7.27101 0)
(214.847 7.91713 0)
(214.827 8.59353 0)
(214.782 9.29818 0)
(214.706 10.0395 0)
(214.599 10.8152 0)
(214.462 11.6228 0)
(214.298 12.4634 0)
(214.107 13.3359 0)
(213.891 14.2394 0)
(213.652 15.1731 0)
(213.39 16.1364 0)
(213.108 17.1287 0)
(212.808 18.1493 0)
(212.49 19.1977 0)
(212.157 20.2739 0)
(211.81 21.378 0)
(211.449 22.5104 0)
(211.075 23.6713 0)
(210.691 24.8611 0)
(210.297 26.0799 0)
(209.894 27.3285 0)
(209.485 28.6078 0)
(209.069 29.919 0)
(208.649 31.2627 0)
(208.226 32.6397 0)
(207.803 34.0508 0)
(207.382 35.497 0)
(206.966 36.9803 0)
(206.555 38.5013 0)
(206.155 40.0606 0)
(205.767 41.6577 0)
(205.399 43.2969 0)
(205.035 44.9866 0)
(204.701 46.7092 0)
(204.404 48.4803 0)
(204.124 50.2972 0)
(203.892 52.1601 0)
(203.706 54.0734 0)
(203.548 56.0306 0)
(203.465 58.0427 0)
(203.434 60.1031 0)
(203.455 62.2121 0)
(203.579 64.3767 0)
(203.755 66.5875 0)
(204.025 68.8516 0)
(204.42 71.1687 0)
(204.884 73.5282 0)
(205.487 75.9354 0)
(206.226 78.3846 0)
(207.073 80.8703 0)
(208.095 83.3944 0)
(209.286 85.9484 0)
(210.622 88.5287 0)
(212.162 91.1316 0)
(213.885 93.7458 0)
(215.805 96.355 0)
(217.933 98.9536 0)
(220.305 101.518 0)
(222.841 104.066 0)
(225.674 106.537 0)
(228.635 108.986 0)
(231.941 111.279 0)
(235.336 113.545 0)
(239.078 115.606 0)
(242.931 117.626 0)
(247.025 119.464 0)
(251.328 121.224 0)
(255.734 122.67 0)
(260.508 124.124 0)
(264.964 125.227 0)
(270.126 126.41 0)
(274.595 127.248 0)
(279.948 128.007 0)
(284.587 128.492 0)
(290.15 128.725 0)
(294.939 128.827 0)
(300.351 128.683 0)
(305.198 128.546 0)
(310.268 128.255 0)
(314.884 128.001 0)
(319.643 127.537 0)
(323.69 127.154 0)
(328.349 126.319 0)
(331.652 125.435 0)
(334.587 124.164 0)
(336.946 123.334 0)
(340.256 122.784 0)
(345.826 122.557 0)
(347.547 126.133 0)
(171.746 23.5395 0)
(200.643 -1.65884 0)
(204.354 -1.50064 0)
(205.718 -0.825948 0)
(206.794 -0.867041 0)
(207.661 -0.900248 0)
(208.472 -0.982809 0)
(209.255 -1.04858 0)
(209.926 -1.06653 0)
(210.465 -1.02604 0)
(210.912 -0.917657 0)
(211.322 -0.753703 0)
(211.736 -0.553198 0)
(212.144 -0.321887 0)
(212.521 -0.0641258 0)
(212.849 0.218896 0)
(213.136 0.520597 0)
(213.388 0.837821 0)
(213.609 1.16826 0)
(213.79 1.51311 0)
(213.93 1.87623 0)
(214.031 2.26179 0)
(214.097 2.67032 0)
(214.144 3.09837 0)
(214.173 3.54339 0)
(214.189 4.00772 0)
(214.204 4.48856 0)
(214.222 4.98349 0)
(214.239 5.4972 0)
(214.251 6.03412 0)
(214.256 6.59672 0)
(214.247 7.18752 0)
(214.216 7.80917 0)
(214.168 8.45494 0)
(214.087 9.14037 0)
(213.978 9.8566 0)
(213.84 10.6054 0)
(213.671 11.3874 0)
(213.473 12.2018 0)
(213.248 13.0479 0)
(212.996 13.9247 0)
(212.721 14.8314 0)
(212.424 15.7672 0)
(212.105 16.7316 0)
(211.767 17.7239 0)
(211.411 18.7435 0)
(211.038 19.7903 0)
(210.65 20.8645 0)
(210.247 21.9664 0)
(209.83 23.0963 0)
(209.4 24.2544 0)
(208.958 25.4411 0)
(208.506 26.657 0)
(208.044 27.9029 0)
(207.574 29.1797 0)
(207.096 30.4885 0)
(206.612 31.8301 0)
(206.124 33.2055 0)
(205.634 34.6155 0)
(205.144 36.0612 0)
(204.657 37.5439 0)
(204.173 39.0654 0)
(203.697 40.6274 0)
(203.228 42.2316 0)
(202.773 43.8757 0)
(202.335 45.563 0)
(201.918 47.2974 0)
(201.506 49.0843 0)
(201.146 50.9098 0)
(200.811 52.7901 0)
(200.503 54.7161 0)
(200.26 56.7017 0)
(200.05 58.7372 0)
(199.89 60.8255 0)
(199.816 62.9735 0)
(199.778 65.1696 0)
(199.833 67.4255 0)
(199.991 69.7379 0)
(200.206 72.0965 0)
(200.555 74.5116 0)
(201.015 76.976 0)
(201.572 79.4869 0)
(202.293 82.0497 0)
(203.154 84.6535 0)
(204.145 87.2933 0)
(205.326 89.9651 0)
(206.67 92.6579 0)
(208.195 95.3664 0)
(209.925 98.0898 0)
(211.874 100.812 0)
(214.003 103.53 0)
(216.408 106.211 0)
(218.97 108.878 0)
(221.853 111.455 0)
(224.864 114.012 0)
(228.25 116.408 0)
(231.715 118.812 0)
(235.516 121.035 0)
(239.449 123.229 0)
(243.709 125.226 0)
(248.142 127.086 0)
(252.745 128.667 0)
(257.493 130.156 0)
(262.347 131.426 0)
(267.257 132.539 0)
(272.418 133.484 0)
(277.448 134.199 0)
(282.654 134.799 0)
(287.846 135.143 0)
(292.478 135.41 0)
(297.533 135.404 0)
(301.841 135.443 0)
(306.427 135.195 0)
(310.409 135.195 0)
(314.998 134.828 0)
(318.615 134.335 0)
(321.914 133.325 0)
(324.618 132.441 0)
(328.256 131.853 0)
(334.954 131.574 0)
(336.635 136.092 0)
(172.404 21.1753 0)
(200.642 -1.75003 0)
(204.441 -1.46634 0)
(205.653 -0.826827 0)
(206.483 -0.900198 0)
(207.185 -0.938379 0)
(207.941 -1.03109 0)
(208.751 -1.08025 0)
(209.486 -1.08183 0)
(210.076 -1.02512 0)
(210.541 -0.907037 0)
(210.945 -0.73211 0)
(211.354 -0.513932 0)
(211.778 -0.259105 0)
(212.19 0.0245852 0)
(212.558 0.329134 0)
(212.875 0.643046 0)
(213.141 0.961987 0)
(213.364 1.2856 0)
(213.541 1.61913 0)
(213.671 1.96915 0)
(213.759 2.3412 0)
(213.805 2.73693 0)
(213.831 3.15037 0)
(213.838 3.57984 0)
(213.826 4.02982 0)
(213.81 4.49369 0)
(213.792 4.97076 0)
(213.771 5.46427 0)
(213.743 5.97872 0)
(213.707 6.51729 0)
(213.659 7.08253 0)
(213.593 7.67659 0)
(213.506 8.30318 0)
(213.393 8.96032 0)
(213.251 9.65038 0)
(213.08 10.3734 0)
(212.878 11.1293 0)
(212.646 11.9176 0)
(212.385 12.7373 0)
(212.099 13.5874 0)
(211.787 14.4672 0)
(211.453 15.3759 0)
(211.096 16.3129 0)
(210.719 17.2775 0)
(210.323 18.2694 0)
(209.91 19.2881 0)
(209.479 20.3339 0)
(209.032 21.407 0)
(208.569 22.5077 0)
(208.092 23.6361 0)
(207.6 24.7928 0)
(207.096 25.9779 0)
(206.581 27.1925 0)
(206.054 28.4373 0)
(205.517 29.7133 0)
(204.971 31.0215 0)
(204.417 32.3626 0)
(203.858 33.7377 0)
(203.296 35.1479 0)
(202.732 36.5942 0)
(202.169 38.0781 0)
(201.607 39.601 0)
(201.049 41.1643 0)
(200.498 42.7699 0)
(199.957 44.419 0)
(199.429 46.1125 0)
(198.918 47.8472 0)
(198.437 49.6312 0)
(197.959 51.4733 0)
(197.52 53.3518 0)
(197.129 55.2892 0)
(196.757 57.2782 0)
(196.438 59.3214 0)
(196.182 61.4259 0)
(195.951 63.5786 0)
(195.808 65.797 0)
(195.741 68.074 0)
(195.718 70.4033 0)
(195.82 72.7998 0)
(196.003 75.2518 0)
(196.272 77.7605 0)
(196.693 80.3323 0)
(197.222 82.9533 0)
(197.876 85.6215 0)
(198.71 88.3361 0)
(199.686 91.0869 0)
(200.833 93.8751 0)
(202.174 96.6983 0)
(203.704 99.5381 0)
(205.413 102.386 0)
(207.373 105.225 0)
(209.492 108.065 0)
(211.897 110.865 0)
(214.45 113.657 0)
(217.354 116.365 0)
(220.352 119.089 0)
(223.728 121.672 0)
(227.183 124.229 0)
(230.971 126.571 0)
(234.925 128.849 0)
(239.148 130.924 0)
(243.522 132.806 0)
(248.148 134.716 0)
(252.63 136.256 0)
(257.667 137.888 0)
(262.203 139.105 0)
(267.614 140.415 0)
(272.41 141.286 0)
(277.602 141.985 0)
(283.022 142.52 0)
(288.138 142.821 0)
(293.723 142.907 0)
(298.677 142.852 0)
(304.929 142.828 0)
(309.386 142.435 0)
(313.608 141.554 0)
(316.832 140.757 0)
(320.676 140.215 0)
(327.206 140.27 0)
(328.782 144.886 0)
(173.714 18.6455 0)
(200.79 -1.65795 0)
(204.42 -1.41354 0)
(205.394 -0.938474 0)
(206.083 -1.00994 0)
(206.709 -1.06224 0)
(207.389 -1.1634 0)
(208.143 -1.21004 0)
(208.895 -1.21924 0)
(209.544 -1.16053 0)
(210.053 -1.03041 0)
(210.466 -0.837997 0)
(210.856 -0.596682 0)
(211.265 -0.315765 0)
(211.686 -0.00506108 0)
(212.088 0.324079 0)
(212.447 0.657323 0)
(212.751 0.988292 0)
(212.999 1.31716 0)
(213.19 1.65091 0)
(213.328 1.99742 0)
(213.415 2.36319 0)
(213.452 2.75083 0)
(213.466 3.15397 0)
(213.458 3.57523 0)
(213.43 4.01215 0)
(213.391 4.46301 0)
(213.346 4.92517 0)
(213.296 5.40064 0)
(213.234 5.89493 0)
(213.161 6.4119 0)
(213.075 6.95422 0)
(212.972 7.52448 0)
(212.848 8.12443 0)
(212.7 8.75641 0)
(212.525 9.42089 0)
(212.32 10.1179 0)
(212.085 10.8473 0)
(211.82 11.6085 0)
(211.526 12.4007 0)
(211.205 13.2229 0)
(210.859 14.0741 0)
(210.489 14.9536 0)
(210.096 15.8608 0)
(209.683 16.7951 0)
(209.25 17.7561 0)
(208.798 18.7434 0)
(208.328 19.7571 0)
(207.84 20.7974 0)
(207.336 21.8645 0)
(206.815 22.9587 0)
(206.278 24.0803 0)
(205.727 25.2297 0)
(205.163 26.4076 0)
(204.585 27.6148 0)
(203.994 28.8523 0)
(203.392 30.121 0)
(202.78 31.4219 0)
(202.159 32.7558 0)
(201.53 34.1239 0)
(200.896 35.5273 0)
(200.258 36.9675 0)
(199.617 38.4461 0)
(198.974 39.9643 0)
(198.334 41.5235 0)
(197.696 43.1254 0)
(197.065 44.7717 0)
(196.444 46.4643 0)
(195.835 48.205 0)
(195.241 49.9911 0)
(194.673 51.8277 0)
(194.131 53.7199 0)
(193.592 55.6716 0)
(193.116 57.6698 0)
(192.674 59.7328 0)
(192.255 61.8457 0)
(191.918 64.0307 0)
(191.629 66.2736 0)
(191.382 68.5722 0)
(191.248 70.943 0)
(191.167 73.3678 0)
(191.172 75.8555 0)
(191.313 78.4122 0)
(191.532 81.0228 0)
(191.872 83.6934 0)
(192.37 86.4255 0)
(192.983 89.2099 0)
(193.755 92.0531 0)
(194.7 94.9499 0)
(195.805 97.8823 0)
(197.091 100.845 0)
(198.609 103.832 0)
(200.293 106.845 0)
(202.24 109.865 0)
(204.363 112.898 0)
(206.802 115.889 0)
(209.375 118.871 0)
(212.314 121.751 0)
(215.35 124.626 0)
(218.768 127.348 0)
(222.312 130.028 0)
(226.197 132.523 0)
(230.255 134.958 0)
(234.521 137.211 0)
(239.008 139.452 0)
(243.582 141.366 0)
(248.349 143.173 0)
(253.313 144.777 0)
(258.298 146.087 0)
(263.753 147.188 0)
(268.517 148.148 0)
(274.076 149.07 0)
(278.921 149.71 0)
(283.998 150.216 0)
(289.698 150.689 0)
(294.363 150.964 0)
(298.377 150.769 0)
(301.508 150.349 0)
(304.946 150.079 0)
(311.658 149.909 0)
(312.664 154.964 0)
(175.847 16.1895 0)
(201.24 -1.25246 0)
(204.164 -1.53963 0)