/*--------------------------------*- C++ -*----------------------------------*\
| =========                 |                                                 |
| \\      /  F ield         | OpenFOAM: The Open Source CFD Toolbox           |
|  \\    /   O peration     | Version:  2412                                  |
|   \\  /    A nd           | Website:  www.openfoam.com                      |
|    \\/     M anipulation  |                                                 |
\*---------------------------------------------------------------------------*/
FoamFile
{
    version     2.0;
    format      ascii;
    arch        "LSB;label=32;scalar=64";
    class       volScalarField;
    location    "0.032";
    object      rho;
}
// * * * * * * * * * * * * * * * * * * * * * * * * * * * * * * * * * * * * * //

dimensions      [1 -3 0 0 0 0 0];

internalField   nonuniform List<scalar> 
9816
(
0.0441968
0.0441934
0.044189
0.0441834
0.0441767
0.044169
0.0441602
0.0441504
0.0441397
0.0441283
0.0441161
0.0441032
0.0440897
0.0440756
0.0440611
0.044046
0.0440307
0.0440148
0.0439989
0.0439825
0.0439665
0.0439505
0.0439343
0.0439181
0.0439017
0.043885
0.0438675
0.043849
0.0438283
0.0438052
0.0437802
0.0437528
0.0437209
0.0436754
0.0436147
0.043535
0.0434365
0.0433234
0.0432002
0.0430744
0.0429488
0.042839
0.0434038
0.0433861
0.0433684
0.0433508
0.0433332
0.0433158
0.0432986
0.0432817
0.043265
0.0432486
0.0432326
0.0432169
0.0432017
0.0431868
0.0431725
0.0431586
0.0431455
0.0431329
0.0431212
0.0431101
0.0430995
0.0430894
0.0430791
0.0430687
0.0430573
0.0430455
0.0430334
0.0430199
0.0430012
0.0429741
0.0429346
0.0428792
0.0428071
0.0427181
0.0426198
0.0425119
0.0424117
0.0423215
0.0422478
0.0421831
0.0421644
0.0421511
0.0430347
0.0430203
0.0430065
0.042993
0.04298
0.0429674
0.0429553
0.0429436
0.0429323
0.0429214
0.0429109
0.0429008
0.042891
0.0428817
0.0428729
0.0428645
0.0428567
0.0428493
0.0428421
0.0428351
0.0428278
0.04282
0.0428117
0.0428033
0.0427942
0.0427832
0.0427686
0.0427483
0.0427197
0.0426803
0.0426281
0.0425617
0.0424821
0.0423934
0.0422991
0.0422081
0.0421343
0.0420744
0.042025
0.0420129
0.042019
0.0420116
0.0428266
0.0428155
0.0428047
0.0427943
0.0427842
0.0427745
0.042765
0.0427559
0.0427471
0.0427386
0.0427305
0.0427227
0.0427153
0.0427084
0.0427018
0.0426958
0.0426901
0.0426846
0.0426791
0.0426734
0.0426673
0.0426608
0.0426542
0.0426471
0.0426388
0.0426281
0.0426135
0.0425929
0.0425636
0.0425239
0.0424711
0.0424051
0.0423267
0.0422427
0.0421559
0.0420761
0.042014
0.04197
0.0419327
0.041919
0.0419239
0.0419238
0.0426864
0.0426773
0.0426686
0.0426602
0.0426522
0.0426445
0.0426372
0.0426302
0.0426234
0.042617
0.0426109
0.0426051
0.0425996
0.0425945
0.0425898
0.0425853
0.0425811
0.0425769
0.0425726
0.0425679
0.0425629
0.0425576
0.0425523
0.0425465
0.0425398
0.0425313
0.0425199
0.0425039
0.0424816
0.0424511
0.0424108
0.0423604
0.0423007
0.0422337
0.0421631
0.0420938
0.0420311
0.0419758
0.041932
0.0419029
0.0418809
0.0418632
0.0425887
0.0425816
0.0425747
0.042568
0.0425615
0.0425553
0.0425492
0.0425433
0.0425376
0.0425321
0.0425267
0.0425215
0.0425167
0.042512
0.0425078
0.0425037
0.0424999
0.0424961
0.0424923
0.0424882
0.0424838
0.0424792
0.0424745
0.0424699
0.0424648
0.042459
0.0424515
0.0424419
0.0424287
0.0424112
0.0423876
0.0423575
0.0423197
0.0422751
0.0422245
0.0421697
0.0421133
0.0420578
0.0420069
0.0419616
0.0419242
0.0418926
0.0425108
0.0425046
0.0424985
0.0424926
0.042487
0.0424816
0.0424764
0.0424715
0.0424668
0.0424623
0.042458
0.0424541
0.0424504
0.042447
0.0424439
0.0424409
0.0424385
0.0424361
0.0424337
0.0424311
0.0424283
0.0424253
0.0424223
0.0424193
0.0424161
0.0424126
0.0424084
0.0424033
0.0423966
0.0423877
0.0423761
0.0423609
0.0423415
0.0423173
0.042288
0.0422535
0.0422145
0.0421718
0.0421269
0.042081
0.0420359
0.041993
0.0424499
0.0424454
0.0424412
0.0424371
0.0424332
0.0424295
0.0424259
0.0424225
0.0424192
0.042416
0.0424129
0.04241
0.0424072
0.0424046
0.0424021
0.0423999
0.0423978
0.0423958
0.0423939
0.042392
0.0423899
0.0423876
0.0423852
0.0423827
0.0423801
0.0423775
0.0423748
0.0423716
0.0423679
0.0423634
0.0423576
0.0423501
0.0423406
0.0423286
0.0423138
0.0422955
0.0422737
0.0422479
0.0422185
0.0421851
0.0421486
0.0421091
0.0424015
0.0423979
0.0423945
0.0423911
0.0423878
0.0423847
0.0423816
0.0423787
0.0423758
0.042373
0.0423703
0.0423677
0.0423652
0.0423629
0.0423607
0.0423587
0.0423569
0.0423552
0.0423536
0.0423521
0.0423505
0.0423489
0.0423471
0.0423451
0.0423431
0.0423411
0.0423391
0.042337
0.0423348
0.0423322
0.0423293
0.0423256
0.042321
0.042315
0.0423075
0.0422983
0.0422871
0.0422737
0.0422578
0.0422388
0.0422165
0.0421902
0.0423547
0.0423518
0.042349
0.0423463
0.0423436
0.0423411
0.0423386
0.0423362
0.0423339
0.0423317
0.0423295
0.0423274
0.0423254
0.0423236
0.0423219
0.0423203
0.042319
0.0423177
0.0423166
0.0423156
0.0423146
0.0423136
0.0423125
0.0423112
0.0423099
0.0423085
0.0423072
0.0423058
0.0423043
0.0423028
0.0423011
0.0422991
0.0422967
0.0422938
0.0422902
0.0422858
0.0422804
0.0422738
0.0422662
0.042257
0.0422459
0.0422323
0.0423095
0.0423075
0.0423056
0.0423037
0.0423019
0.0423002
0.0422985
0.0422969
0.0422954
0.0422939
0.0422925
0.0422911
0.0422898
0.0422885
0.0422874
0.0422863
0.0422853
0.0422844
0.0422836
0.0422829
0.0422822
0.0422815
0.0422808
0.04228
0.042279
0.0422781
0.042277
0.0422759
0.0422749
0.0422738
0.0422726
0.0422714
0.0422701
0.0422687
0.042267
0.042265
0.0422627
0.0422599
0.0422565
0.0422523
0.0422473
0.0422412
0.0422688
0.0422676
0.0422664
0.0422653
0.0422641
0.0422629
0.0422617
0.0422606
0.0422594
0.0422583
0.0422572
0.042256
0.0422549
0.0422539
0.0422529
0.0422519
0.0422511
0.0422503
0.0422496
0.0422489
0.0422484
0.0422479
0.0422474
0.042247
0.0422464
0.0422458
0.0422452
0.0422444
0.0422437
0.0422429
0.0422422
0.0422414
0.0422406
0.0422398
0.042239
0.0422381
0.0422371
0.042236
0.0422347
0.0422331
0.0422312
0.0422288
0.0422259
0.0422251
0.0422244
0.0422237
0.0422229
0.0422222
0.0422214
0.0422207
0.04222
0.0422193
0.0422186
0.0422179
0.0422173
0.0422166
0.0422161
0.0422155
0.042215
0.0422146
0.0422142
0.0422139
0.0422136
0.0422133
0.0422132
0.0422131
0.0422129
0.0422127
0.0422125
0.0422122
0.0422118
0.0422114
0.042211
0.0422106
0.0422101
0.0422096
0.0422092
0.0422087
0.0422083
0.0422078
0.0422073
0.0422067
0.0422061
0.0422053
0.042184
0.0421842
0.0421844
0.0421846
0.0421847
0.0421847
0.0421847
0.0421846
0.0421845
0.0421844
0.0421842
0.042184
0.0421838
0.0421836
0.0421834
0.0421831
0.0421829
0.0421826
0.0421824
0.0421823
0.0421821
0.042182
0.0421819
0.0421818
0.0421818
0.0421817
0.0421817
0.0421816
0.0421815
0.0421813
0.0421811
0.0421809
0.0421807
0.0421805
0.0421801
0.0421797
0.0421793
0.042179
0.0421789
0.0421787
0.0421785
0.0421781
0.0421424
0.0421434
0.0421442
0.042145
0.0421457
0.0421463
0.0421468
0.0421472
0.0421476
0.0421479
0.0421481
0.0421482
0.0421483
0.0421484
0.0421484
0.0421484
0.0421484
0.0421484
0.0421484
0.0421483
0.0421483
0.0421483
0.0421483
0.0421484
0.0421484
0.0421485
0.0421486
0.0421486
0.0421486
0.0421488
0.0421491
0.042149
0.0421485
0.042148
0.0421482
0.0421487
0.0421491
0.0421488
0.0421481
0.0421472
0.0421467
0.0421468
0.0420945
0.0420961
0.0420976
0.042099
0.0421003
0.0421015
0.0421026
0.0421036
0.0421045
0.0421054
0.0421061
0.0421068
0.0421075
0.042108
0.0421085
0.042109
0.0421095
0.0421099
0.0421102
0.0421106
0.042111
0.0421113
0.0421117
0.0421121
0.0421126
0.0421128
0.0421129
0.0421133
0.042114
0.0421145
0.0421146
0.0421147
0.0421148
0.0421152
0.0421157
0.0421162
0.0421163
0.0421161
0.042116
0.0421159
0.0421161
0.0421165
0.0420461
0.0420485
0.0420508
0.0420529
0.0420549
0.0420568
0.0420586
0.0420602
0.0420618
0.0420633
0.0420646
0.0420659
0.0420671
0.0420682
0.0420691
0.0420701
0.0420711
0.0420719
0.0420724
0.0420731
0.0420742
0.0420751
0.0420752
0.0420753
0.042076
0.0420773
0.0420784
0.0420787
0.0420781
0.0420778
0.0420783
0.0420792
0.0420806
0.0420818
0.0420823
0.042082
0.0420812
0.0420807
0.0420806
0.0420808
0.0420814
0.0420822
0.0419957
0.0419985
0.0420012
0.0420038
0.0420062
0.0420084
0.0420105
0.0420125
0.0420144
0.0420162
0.0420179
0.0420195
0.042021
0.0420225
0.0420238
0.0420249
0.042026
0.0420275
0.0420287
0.0420292
0.0420297
0.0420309
0.0420324
0.0420337
0.0420339
0.0420339
0.0420342
0.0420351
0.0420364
0.0420379
0.042039
0.0420392
0.042039
0.0420387
0.0420386
0.042039
0.0420398
0.0420409
0.0420423
0.0420435
0.0420444
0.0420448
0.0419449
0.0419483
0.0419514
0.0419544
0.0419572
0.0419599
0.0419625
0.0419649
0.0419672
0.0419693
0.0419713
0.0419732
0.0419752
0.041977
0.0419785
0.0419797
0.0419815
0.0419835
0.0419849
0.0419851
0.0419858
0.0419873
0.0419895
0.0419914
0.0419918
0.0419914
0.0419912
0.0419921
0.0419935
0.0419956
0.0419974
0.0419986
0.0419986
0.0419983
0.0419977
0.0419974
0.0419976
0.0419983
0.0419992
0.0420004
0.0420019
0.0420033
0.0418945
0.0418981
0.0419016
0.0419049
0.041908
0.041911
0.0419138
0.0419164
0.041919
0.0419213
0.0419234
0.0419257
0.041928
0.0419298
0.0419311
0.0419326
0.0419351
0.0419376
0.0419386
0.0419383
0.0419391
0.0419409
0.0419439
0.0419462
0.0419473
0.0419468
0.0419462
0.0419462
0.041947
0.0419485
0.0419509
0.0419533
0.0419548
0.0419556
0.0419555
0.0419553
0.0419548
0.0419546
0.0419545
0.0419548
0.0419553
0.041956
0.0418429
0.0418469
0.0418507
0.0418543
0.0418577
0.0418609
0.0418639
0.0418667
0.0418695
0.0418723
0.0418747
0.0418767
0.0418788
0.0418815
0.041884
0.0418856
0.0418866
0.0418881
0.0418902
0.0418925
0.0418945
0.0418958
0.0418966
0.0418971
0.0418978
0.0418988
0.0419002
0.0419022
0.0419043
0.0419058
0.0419068
0.0419071
0.0419072
0.0419073
0.0419073
0.0419075
0.0419079
0.0419084
0.0419092
0.0419103
0.041912
0.0419135
0.041791
0.0417953
0.0417995
0.0418033
0.041807
0.0418105
0.041814
0.0418171
0.0418199
0.0418228
0.041826
0.0418289
0.0418308
0.0418324
0.0418349
0.0418381
0.0418408
0.0418423
0.0418432
0.0418442
0.0418458
0.0418479
0.0418501
0.0418523
0.041854
0.041855
0.0418556
0.0418562
0.0418569
0.0418577
0.0418585
0.0418595
0.0418608
0.0418624
0.041864
0.0418653
0.0418664
0.0418672
0.0418678
0.0418682
0.0418685
0.0418687
0.0417402
0.0417449
0.0417494
0.0417537
0.0417577
0.0417615
0.0417651
0.0417689
0.0417723
0.0417752
0.0417778
0.0417811
0.0417845
0.0417871
0.0417888
0.0417908
0.0417932
0.0417959
0.0417983
0.0418003
0.0418019
0.0418033
0.0418047
0.0418062
0.0418077
0.0418092
0.0418108
0.0418123
0.0418139
0.0418152
0.0418164
0.0418175
0.0418184
0.0418192
0.04182
0.0418206
0.0418213
0.0418219
0.0418225
0.0418232
0.0418239
0.0418247
0.0416896
0.0416947
0.0416996
0.0417042
0.0417086
0.0417128
0.0417167
0.0417205
0.0417244
0.0417279
0.0417308
0.0417337
0.041737
0.0417403
0.0417429
0.0417449
0.0417472
0.0417498
0.0417524
0.0417547
0.0417565
0.0417582
0.0417598
0.0417614
0.0417632
0.041765
0.0417668
0.0417684
0.0417698
0.041771
0.0417721
0.0417731
0.041774
0.041775
0.0417759
0.0417768
0.0417778
0.0417787
0.0417797
0.0417807
0.0417816
0.0417826
0.041638
0.0416435
0.0416487
0.0416536
0.0416583
0.041663
0.0416673
0.041671
0.0416747
0.0416789
0.041683
0.041686
0.0416885
0.0416912
0.0416946
0.0416981
0.0417012
0.0417037
0.0417056
0.0417072
0.0417089
0.0417109
0.0417131
0.0417157
0.0417181
0.0417203
0.041722
0.0417234
0.0417246
0.0417255
0.0417264
0.0417272
0.0417282
0.0417292
0.0417303
0.0417314
0.0417327
0.041734
0.0417352
0.0417365
0.0417376
0.0417387
0.0415864
0.0415921
0.0415975
0.0416025
0.0416074
0.0416124
0.041617
0.0416209
0.0416245
0.0416288
0.0416334
0.041637
0.0416396
0.041642
0.0416451
0.0416487
0.0416523
0.0416552
0.0416574
0.0416593
0.0416611
0.041663
0.0416651
0.0416674
0.0416696
0.0416718
0.0416737
0.0416753
0.0416768
0.0416782
0.0416794
0.0416805
0.0416817
0.0416828
0.0416839
0.041685
0.041686
0.0416871
0.0416882
0.0416892
0.0416901
0.0416911
0.0415328
0.0415388
0.0415446
0.0415501
0.0415554
0.0415606
0.0415656
0.04157
0.0415742
0.0415785
0.0415829
0.0415869
0.0415903
0.0415933
0.0415964
0.0415997
0.041603
0.0416061
0.0416088
0.0416112
0.0416135
0.0416156
0.0416177
0.0416198
0.0416219
0.0416239
0.0416258
0.0416276
0.0416293
0.0416309
0.0416324
0.0416338
0.0416351
0.0416364
0.0416376
0.0416387
0.0416397
0.0416408
0.0416417
0.0416427
0.0416436
0.0416446
0.0414816
0.041488
0.0414941
0.0414999
0.0415054
0.0415107
0.0415157
0.0415203
0.0415247
0.041529
0.0415331
0.041537
0.0415406
0.041544
0.0415473
0.0415504
0.0415535
0.0415564
0.0415592
0.0415617
0.0415642
0.0415665
0.0415687
0.0415708
0.0415728
0.0415747
0.0415766
0.0415784
0.04158
0.0415816
0.0415832
0.0415846
0.041586
0.0415872
0.0415885
0.0415896
0.0415908
0.0415918
0.0415928
0.0415938
0.0415948
0.0415957
0.0414304
0.0414368
0.0414429
0.0414487
0.0414542
0.0414595
0.0414645
0.0414692
0.0414737
0.0414781
0.0414822
0.0414862
0.0414899
0.0414935
0.0414969
0.0415002
0.0415033
0.0415063
0.0415091
0.0415118
0.0415144
0.0415169
0.0415192
0.0415215
0.0415236
0.0415256
0.0415276
0.0415294
0.0415312
0.0415329
0.0415345
0.0415361
0.0415375
0.0415389
0.0415402
0.0415415
0.0415427
0.0415439
0.041545
0.041546
0.0415471
0.0415481
0.0413786
0.0413852
0.0413914
0.0413975
0.0414032
0.0414087
0.0414139
0.0414189
0.0414236
0.0414282
0.0414325
0.0414366
0.0414405
0.0414443
0.0414478
0.0414512
0.0414545
0.0414576
0.0414605
0.0414634
0.0414661
0.0414686
0.0414711
0.0414734
0.0414756
0.0414777
0.0414798
0.0414817
0.0414835
0.0414853
0.041487
0.0414886
0.0414901
0.0414916
0.0414929
0.0414943
0.0414955
0.0414967
0.0414979
0.041499
0.0415001
0.0415011
0.0413284
0.041335
0.0413414
0.0413474
0.0413532
0.0413587
0.041364
0.041369
0.0413738
0.0413783
0.0413827
0.0413868
0.0413907
0.0413945
0.0413981
0.0414015
0.0414048
0.0414079
0.0414109
0.0414138
0.0414165
0.0414191
0.0414216
0.041424
0.0414263
0.0414285
0.0414306
0.0414326
0.0414345
0.0414363
0.041438
0.0414397
0.0414412
0.0414427
0.0414442
0.0414455
0.0414469
0.0414481
0.0414493
0.0414504
0.0414516
0.0414527
0.0412768
0.0412833
0.0412895
0.0412955
0.0413012
0.0413067
0.0413121
0.0413172
0.041322
0.0413267
0.0413312
0.0413355
0.0413396
0.0413435
0.0413473
0.0413509
0.0413544
0.0413577
0.0413609
0.0413639
0.0413668
0.0413695
0.0413722
0.0413747
0.0413771
0.0413794
0.0413816
0.0413837
0.0413857
0.0413876
0.0413894
0.0413912
0.0413928
0.0413944
0.0413959
0.0413974
0.0413987
0.0414
0.0414013
0.0414025
0.0414036
0.0414048
0.0412249
0.0412315
0.0412377
0.0412438
0.0412497
0.0412553
0.0412608
0.041266
0.041271
0.0412758
0.0412805
0.0412849
0.0412891
0.0412932
0.041297
0.0413007
0.0413043
0.0413076
0.0413108
0.0413139
0.0413168
0.0413196
0.0413223
0.0413248
0.0413272
0.0413295
0.0413317
0.0413337
0.0413357
0.0413376
0.0413394
0.0413411
0.0413427
0.0413443
0.0413458
0.0413472
0.0413485
0.0413498
0.041351
0.0413522
0.0413533
0.0413545
0.041173
0.0411796
0.0411861
0.0411923
0.0411982
0.0412039
0.0412094
0.0412147
0.0412197
0.0412245
0.0412291
0.0412335
0.0412377
0.0412416
0.0412454
0.041249
0.0412525
0.0412558
0.0412589
0.0412619
0.0412647
0.0412674
0.04127
0.0412725
0.0412748
0.0412771
0.0412792
0.0412813
0.0412832
0.0412851
0.0412868
0.0412885
0.0412901
0.0412916
0.0412931
0.0412945
0.0412958
0.0412971
0.0412983
0.0412994
0.0413006
0.0413017
0.0411231
0.0411299
0.0411364
0.0411427
0.0411487
0.0411544
0.0411599
0.041165
0.04117
0.0411746
0.0411791
0.0411833
0.0411873
0.0411912
0.0411948
0.0411983
0.0412016
0.0412047
0.0412077
0.0412105
0.0412133
0.0412158
0.0412183
0.0412206
0.0412228
0.0412249
0.0412269
0.0412288
0.0412307
0.0412324
0.0412341
0.0412357
0.0412372
0.0412387
0.04124
0.0412414
0.0412427
0.0412439
0.041245
0.0412462
0.0412473
0.0412484
0.0410756
0.0410824
0.0410888
0.0410949
0.0411007
0.0411063
0.0411116
0.0411166
0.0411213
0.0411258
0.0411301
0.0411341
0.041138
0.0411418
0.0411453
0.0411488
0.041152
0.0411551
0.0411581
0.0411609
0.0411635
0.0411661
0.0411685
0.0411708
0.0411731
0.0411752
0.0411772
0.0411792
0.041181
0.0411828
0.0411846
0.0411862
0.0411878
0.0411894
0.0411909
0.0411923
0.0411936
0.0411949
0.0411962
0.0411974
0.0411986
0.0411997
0.0410314
0.0410379
0.0410441
0.04105
0.0410557
0.0410611
0.0410663
0.0410712
0.0410758
0.0410802
0.0410844
0.0410885
0.0410923
0.0410961
0.0410997
0.0411032
0.0411065
0.0411096
0.0411126
0.0411155
0.0411183
0.0411209
0.0411235
0.0411259
0.0411282
0.0411305
0.0411326
0.0411347
0.0411367
0.0411386
0.0411405
0.0411423
0.041144
0.0411456
0.0411472
0.0411487
0.0411502
0.0411515
0.0411529
0.0411541
0.0411554
0.0411566
0.0409914
0.0409978
0.0410038
0.0410097
0.0410153
0.0410207
0.0410258
0.0410307
0.0410354
0.0410398
0.0410441
0.0410482
0.0410522
0.041056
0.0410597
0.0410633
0.0410667
0.0410699
0.041073
0.041076
0.0410789
0.0410817
0.0410843
0.0410869
0.0410894
0.0410917
0.041094
0.0410962
0.0410983
0.0411003
0.0411022
0.0411041
0.0411059
0.0411075
0.0411092
0.0411107
0.0411122
0.0411136
0.0411149
0.0411162
0.0411174
0.0411187
0.0409549
0.0409613
0.0409675
0.0409734
0.0409792
0.0409847
0.04099
0.040995
0.0409999
0.0410045
0.041009
0.0410133
0.0410174
0.0410214
0.0410253
0.041029
0.0410325
0.0410359
0.0410392
0.0410423
0.0410453
0.0410482
0.041051
0.0410537
0.0410562
0.0410587
0.041061
0.0410633
0.0410654
0.0410675
0.0410694
0.0410713
0.0410731
0.0410748
0.0410764
0.041078
0.0410794
0.0410808
0.0410822
0.0410835
0.0410847
0.041086
0.0409209
0.0409277
0.0409343
0.0409406
0.0409467
0.0409526
0.0409582
0.0409636
0.0409688
0.0409737
0.0409785
0.040983
0.0409874
0.0409915
0.0409955
0.0409993
0.041003
0.0410065
0.0410098
0.041013
0.041016
0.041019
0.0410218
0.0410244
0.041027
0.0410294
0.0410317
0.041034
0.0410361
0.0410381
0.0410401
0.0410419
0.0410437
0.0410453
0.0410469
0.0410485
0.0410499
0.0410513
0.0410527
0.041054
0.0410552
0.0410565
0.0408896
0.0408968
0.0409037
0.0409104
0.0409168
0.040923
0.0409289
0.0409345
0.0409399
0.040945
0.0409499
0.0409546
0.0409591
0.0409633
0.0409673
0.0409712
0.0409749
0.0409784
0.0409818
0.040985
0.0409881
0.040991
0.0409938
0.0409965
0.0409991
0.0410016
0.041004
0.0410062
0.0410084
0.0410105
0.0410125
0.0410144
0.0410162
0.0410179
0.0410196
0.0410212
0.0410227
0.0410242
0.0410256
0.041027
0.0410283
0.0410296
0.0408595
0.0408669
0.0408739
0.0408807
0.0408873
0.0408936
0.0408996
0.0409053
0.0409109
0.0409161
0.0409212
0.040926
0.0409307
0.0409351
0.0409393
0.0409434
0.0409473
0.040951
0.0409546
0.040958
0.0409613
0.0409645
0.0409675
0.0409704
0.0409732
0.0409758
0.0409784
0.0409808
0.0409832
0.0409855
0.0409876
0.0409897
0.0409917
0.0409936
0.0409954
0.0409972
0.0409988
0.0410004
0.041002
0.0410035
0.0410049
0.0410064
0.0408295
0.040837
0.0408441
0.040851
0.0408577
0.040864
0.0408702
0.0408761
0.0408818
0.0408873
0.0408926
0.0408977
0.0409026
0.0409073
0.0409118
0.0409161
0.0409203
0.0409243
0.0409282
0.0409319
0.0409355
0.0409389
0.0409422
0.0409453
0.0409483
0.0409512
0.040954
0.0409567
0.0409592
0.0409617
0.040964
0.0409663
0.0409684
0.0409705
0.0409725
0.0409744
0.0409762
0.0409779
0.0409796
0.0409812
0.0409827
0.0409843
0.0407993
0.0408069
0.0408142
0.0408213
0.0408281
0.0408347
0.040841
0.0408471
0.040853
0.0408587
0.0408642
0.0408695
0.0408746
0.0408796
0.0408843
0.0408889
0.0408933
0.0408976
0.0409016
0.0409056
0.0409093
0.040913
0.0409164
0.0409198
0.040923
0.0409261
0.040929
0.0409319
0.0409346
0.0409372
0.0409397
0.0409421
0.0409443
0.0409465
0.0409486
0.0409506
0.0409526
0.0409544
0.0409561
0.0409579
0.0409595
0.0409612
0.0407683
0.0407762
0.0407838
0.0407911
0.0407981
0.0408049
0.0408114
0.0408178
0.0408239
0.0408298
0.0408355
0.0408409
0.0408462
0.0408514
0.0408563
0.040861
0.0408656
0.04087
0.0408742
0.0408783
0.0408822
0.040886
0.0408896
0.0408931
0.0408964
0.0408996
0.0409027
0.0409056
0.0409084
0.0409112
0.0409138
0.0409162
0.0409186
0.0409209
0.0409231
0.0409252
0.0409272
0.0409291
0.040931
0.0409328
0.0409345
0.0409363
0.0407365
0.0407446
0.0407524
0.0407599
0.0407672
0.0407742
0.0407809
0.0407874
0.0407937
0.0407998
0.0408056
0.0408113
0.0408167
0.040822
0.040827
0.0408319
0.0408365
0.0408411
0.0408454
0.0408496
0.0408536
0.0408575
0.0408612
0.0408648
0.0408682
0.0408715
0.0408747
0.0408778
0.0408807
0.0408835
0.0408862
0.0408888
0.0408913
0.0408937
0.040896
0.0408982
0.0409003
0.0409023
0.0409043
0.0409061
0.040908
0.0409098
0.040704
0.0407123
0.0407203
0.040728
0.0407354
0.0407425
0.0407494
0.040756
0.0407624
0.0407686
0.0407745
0.0407802
0.0407857
0.0407911
0.0407962
0.0408012
0.0408059
0.0408106
0.040815
0.0408193
0.0408235
0.0408275
0.0408313
0.0408351
0.0408387
0.0408421
0.0408455
0.0408487
0.0408518
0.0408547
0.0408576
0.0408604
0.040863
0.0408655
0.040868
0.0408703
0.0408726
0.0408747
0.0408768
0.0408788
0.0408808
0.0408827
0.0406708
0.0406793
0.0406874
0.0406952
0.0407027
0.0407099
0.0407169
0.0407236
0.04073
0.0407362
0.0407422
0.040748
0.0407536
0.0407591
0.0407643
0.0407694
0.0407744
0.0407792
0.0407838
0.0407883
0.0407926
0.0407968
0.0408009
0.0408048
0.0408086
0.0408123
0.0408158
0.0408192
0.0408225
0.0408257
0.0408287
0.0408317
0.0408345
0.0408372
0.0408398
0.0408423
0.0408447
0.040847
0.0408492
0.0408514
0.0408535
0.0408556
0.040637
0.0406456
0.0406538
0.0406617
0.0406692
0.0406765
0.0406835
0.0406903
0.0406968
0.0407031
0.0407093
0.0407152
0.040721
0.0407266
0.0407321
0.0407374
0.0407425
0.0407476
0.0407524
0.0407571
0.0407617
0.0407661
0.0407704
0.0407746
0.0407786
0.0407825
0.0407862
0.0407898
0.0407933
0.0407966
0.0407999
0.040803
0.040806
0.0408088
0.0408116
0.0408142
0.0408168
0.0408192
0.0408216
0.0408238
0.0408261
0.0408283
0.0406024
0.040611
0.0406192
0.0406272
0.0406348
0.0406422
0.0406493
0.0406562
0.0406629
0.0406694
0.0406757
0.0406819
0.0406879
0.0406938
0.0406994
0.040705
0.0407104
0.0407156
0.0407207
0.0407257
0.0407305
0.0407351
0.0407396
0.040744
0.0407482
0.0407523
0.0407562
0.04076
0.0407637
0.0407672
0.0407706
0.0407738
0.040777
0.04078
0.0407829
0.0407857
0.0407883
0.0407909
0.0407934
0.0407957
0.0407981
0.0408004
0.040567
0.0405756
0.0405839
0.0405919
0.0405996
0.0406071
0.0406144
0.0406215
0.0406283
0.0406351
0.0406416
0.040648
0.0406542
0.0406603
0.0406662
0.040672
0.0406776
0.0406831
0.0406884
0.0406936
0.0406986
0.0407034
0.0407081
0.0407127
0.0407171
0.0407213
0.0407254
0.0407294
0.0407332
0.0407368
0.0407404
0.0407438
0.040747
0.0407502
0.0407532
0.0407561
0.0407589
0.0407616
0.0407642
0.0407667
0.0407691
0.0407716
0.0405316
0.0405403
0.0405486
0.0405567
0.0405645
0.0405721
0.0405795
0.0405868
0.0405938
0.0406008
0.0406075
0.0406141
0.0406205
0.0406268
0.0406329
0.0406389
0.0406447
0.0406504
0.0406559
0.0406612
0.0406664
0.0406714
0.0406763
0.040681
0.0406855
0.0406899
0.0406942
0.0406983
0.0407022
0.0407061
0.0407097
0.0407133
0.0407167
0.0407199
0.0407231
0.0407261
0.040729
0.0407318
0.0407345
0.0407371
0.0407396
0.0407422
0.0404968
0.0405055
0.040514
0.0405222
0.0405301
0.0405379
0.0405454
0.0405528
0.0405601
0.0405671
0.040574
0.0405808
0.0405874
0.0405939
0.0406002
0.0406063
0.0406123
0.0406181
0.0406238
0.0406293
0.0406346
0.0406398
0.0406448
0.0406497
0.0406544
0.040659
0.0406634
0.0406676
0.0406717
0.0406756
0.0406795
0.0406831
0.0406867
0.0406901
0.0406933
0.0406965
0.0406995
0.0407024
0.0407052
0.0407079
0.0407105
0.0407132
0.0404628
0.0404716
0.0404802
0.0404885
0.0404966
0.0405045
0.0405122
0.0405197
0.0405271
0.0405343
0.0405414
0.0405483
0.0405551
0.0405617
0.0405681
0.0405744
0.0405806
0.0405866
0.0405924
0.040598
0.0406035
0.0406089
0.0406141
0.0406191
0.0406239
0.0406286
0.0406332
0.0406376
0.0406418
0.0406459
0.0406498
0.0406536
0.0406573
0.0406608
0.0406642
0.0406674
0.0406706
0.0406736
0.0406765
0.0406793
0.0406821
0.0406848
0.0404292
0.0404381
0.0404468
0.0404553
0.0404635
0.0404715
0.0404794
0.0404871
0.0404946
0.0405019
0.0405092
0.0405162
0.0405231
0.0405299
0.0405365
0.0405429
0.0405492
0.0405553
0.0405613
0.0405671
0.0405727
0.0405782
0.0405835
0.0405887
0.0405937
0.0405985
0.0406032
0.0406077
0.0406121
0.0406163
0.0406203
0.0406243
0.040628
0.0406317
0.0406352
0.0406386
0.0406418
0.0406449
0.0406479
0.0406508
0.0406537
0.0406566
0.0403956
0.0404047
0.0404135
0.0404221
0.0404304
0.0404386
0.0404466
0.0404544
0.040462
0.0404695
0.0404768
0.040484
0.040491
0.0404979
0.0405046
0.0405112
0.0405176
0.0405238
0.0405299
0.0405358
0.0405416
0.0405472
0.0405526
0.0405579
0.040563
0.040568
0.0405728
0.0405774
0.0405819
0.0405862
0.0405904
0.0405944
0.0405983
0.0406021
0.0406057
0.0406091
0.0406125
0.0406157
0.0406188
0.0406218
0.0406248
0.0406277
0.0403622
0.0403714
0.0403804
0.040389
0.0403975
0.0404057
0.0404138
0.0404217
0.0404294
0.040437
0.0404444
0.0404517
0.0404588
0.0404658
0.0404726
0.0404792
0.0404857
0.0404921
0.0404983
0.0405043
0.0405102
0.0405159
0.0405214
0.0405268
0.040532
0.040537
0.0405419
0.0405467
0.0405512
0.0405556
0.0405599
0.040564
0.040568
0.0405718
0.0405755
0.0405791
0.0405825
0.0405858
0.040589
0.0405921
0.0405951
0.0405981
0.0403298
0.0403391
0.0403482
0.0403569
0.0403655
0.0403738
0.0403819
0.0403899
0.0403977
0.0404053
0.0404128
0.0404201
0.0404273
0.0404344
0.0404412
0.040448
0.0404545
0.040461
0.0404672
0.0404733
0.0404793
0.040485
0.0404906
0.0404961
0.0405014
0.0405065
0.0405115
0.0405163
0.0405209
0.0405254
0.0405297
0.0405339
0.040538
0.0405419
0.0405456
0.0405493
0.0405527
0.0405561
0.0405593
0.0405625
0.0405656
0.0405687
0.0402993
0.0403087
0.0403179
0.0403267
0.0403353
0.0403437
0.0403519
0.04036
0.0403678
0.0403755
0.040383
0.0403904
0.0403977
0.0404047
0.0404117
0.0404185
0.0404251
0.0404316
0.0404379
0.040444
0.04045
0.0404558
0.0404615
0.040467
0.0404724
0.0404775
0.0404826
0.0404874
0.0404921
0.0404967
0.0405011
0.0405053
0.0405094
0.0405134
0.0405172
0.0405209
0.0405244
0.0405278
0.0405311
0.0405343
0.0405374
0.0405406
0.0402705
0.0402801
0.0402894
0.0402984
0.0403071
0.0403156
0.0403239
0.040332
0.0403399
0.0403476
0.0403552
0.0403627
0.04037
0.0403771
0.0403841
0.0403909
0.0403976
0.0404041
0.0404105
0.0404167
0.0404227
0.0404286
0.0404343
0.0404399
0.0404453
0.0404505
0.0404556
0.0404605
0.0404652
0.0404698
0.0404743
0.0404786
0.0404827
0.0404867
0.0404906
0.0404943
0.0404978
0.0405013
0.0405046
0.0405078
0.040511
0.0405142
0.0402427
0.0402525
0.0402619
0.040271
0.0402798
0.0402884
0.0402968
0.040305
0.040313
0.0403209
0.0403285
0.040336
0.0403434
0.0403506
0.0403576
0.0403645
0.0403713
0.0403778
0.0403842
0.0403905
0.0403966
0.0404025
0.0404083
0.0404139
0.0404193
0.0404246
0.0404297
0.0404346
0.0404394
0.040444
0.0404485
0.0404528
0.040457
0.040461
0.0404649
0.0404687
0.0404723
0.0404757
0.0404791
0.0404824
0.0404856
0.0404888
0.040215
0.0402249
0.0402345
0.0402438
0.0402527
0.0402615
0.04027
0.0402782
0.0402863
0.0402942
0.040302
0.0403095
0.040317
0.0403242
0.0403313
0.0403382
0.040345
0.0403516
0.0403581
0.0403644
0.0403705
0.0403764
0.0403822
0.0403878
0.0403933
0.0403986
0.0404037
0.0404087
0.0404135
0.0404182
0.0404227
0.040427
0.0404312
0.0404353
0.0404392
0.040443
0.0404466
0.0404501
0.0404534
0.0404567
0.0404599
0.0404632
0.0401874
0.0401975
0.0402072
0.0402166
0.0402257
0.0402346
0.0402431
0.0402515
0.0402597
0.0402676
0.0402754
0.040283
0.0402905
0.0402978
0.0403049
0.0403119
0.0403187
0.0403253
0.0403318
0.0403381
0.0403442
0.0403502
0.040356
0.0403616
0.0403671
0.0403724
0.0403776
0.0403826
0.0403874
0.0403921
0.0403966
0.0404009
0.0404051
0.0404092
0.0404131
0.0404169
0.0404205
0.040424
0.0404274
0.0404307
0.0404339
0.0404372
0.0401609
0.0401712
0.0401811
0.0401906
0.0401998
0.0402087
0.0402174
0.0402258
0.040234
0.040242
0.0402499
0.0402575
0.040265
0.0402723
0.0402794
0.0402864
0.0402932
0.0402999
0.0403063
0.0403126
0.0403188
0.0403248
0.0403306
0.0403362
0.0403417
0.040347
0.0403521
0.0403571
0.0403619
0.0403666
0.0403711
0.0403755
0.0403797
0.0403837
0.0403877
0.0403914
0.0403951
0.0403986
0.0404019
0.0404052
0.0404085
0.0404117
0.0401367
0.0401471
0.0401572
0.0401668
0.0401762
0.0401852
0.040194
0.0402025
0.0402108
0.0402188
0.0402267
0.0402344
0.0402419
0.0402492
0.0402564
0.0402633
0.0402701
0.0402768
0.0402832
0.0402895
0.0402957
0.0403016
0.0403074
0.0403131
0.0403185
0.0403238
0.040329
0.0403339
0.0403387
0.0403434
0.0403479
0.0403522
0.0403564
0.0403605
0.0403644
0.0403681
0.0403718
0.0403752
0.0403786
0.0403819
0.0403851
0.0403883
0.040115
0.0401257
0.0401359
0.0401458
0.0401553
0.0401644
0.0401733
0.0401819
0.0401903
0.0401984
0.0402064
0.0402141
0.0402216
0.040229
0.0402362
0.0402431
0.04025
0.0402566
0.0402631
0.0402694
0.0402755
0.0402814
0.0402872
0.0402928
0.0402983
0.0403036
0.0403087
0.0403137
0.0403184
0.0403231
0.0403276
0.0403319
0.0403361
0.0403401
0.040344
0.0403477
0.0403514
0.0403548
0.0403582
0.0403614
0.0403647
0.0403679
0.0400952
0.0401061
0.0401166
0.0401266
0.0401363
0.0401457
0.0401547
0.0401634
0.0401719
0.0401801
0.0401881
0.0401959
0.0402035
0.0402109
0.0402181
0.0402251
0.040232
0.0402386
0.0402451
0.0402514
0.0402575
0.0402635
0.0402693
0.0402749
0.0402803
0.0402856
0.0402907
0.0402957
0.0403005
0.0403051
0.0403096
0.0403139
0.040318
0.0403221
0.0403259
0.0403297
0.0403333
0.0403367
0.0403401
0.0403433
0.0403465
0.0403497
0.0400765
0.0400876
0.0400983
0.0401086
0.0401184
0.0401279
0.0401371
0.040146
0.0401546
0.0401629
0.040171
0.0401789
0.0401865
0.040194
0.0402012
0.0402083
0.0402151
0.0402218
0.0402283
0.0402346
0.0402408
0.0402467
0.0402525
0.0402581
0.0402636
0.0402688
0.0402739
0.0402789
0.0402837
0.0402883
0.0402927
0.040297
0.0403012
0.0403052
0.0403091
0.0403128
0.0403164
0.0403198
0.0403232
0.0403264
0.0403296
0.0403328
0.0400583
0.0400697
0.0400806
0.040091
0.0401011
0.0401107
0.04012
0.040129
0.0401377
0.0401462
0.0401543
0.0401623
0.04017
0.0401775
0.0401848
0.0401919
0.0401988
0.0402055
0.040212
0.0402184
0.0402245
0.0402305
0.0402363
0.0402419
0.0402474
0.0402526
0.0402577
0.0402627
0.0402674
0.0402721
0.0402765
0.0402808
0.040285
0.040289
0.0402928
0.0402965
0.0403001
0.0403036
0.0403069
0.0403101
0.0403133
0.0403165
0.0400415
0.0400531
0.0400641
0.0400747
0.0400849
0.0400947
0.0401042
0.0401133
0.0401221
0.0401306
0.0401389
0.0401469
0.0401547
0.0401623
0.0401696
0.0401767
0.0401837
0.0401904
0.0401969
0.0402033
0.0402095
0.0402155
0.0402213
0.0402269
0.0402323
0.0402376
0.0402427
0.0402477
0.0402524
0.040257
0.0402615
0.0402658
0.0402699
0.0402739
0.0402778
0.0402815
0.040285
0.0402885
0.0402918
0.040295
0.0402982
0.0403014
0.040028