/*--------------------------------*- C++ -*----------------------------------*\
| =========                 |                                                 |
| \\      /  F ield         | OpenFOAM: The Open Source CFD Toolbox           |
|  \\    /   O peration     | Version:  2412                                  |
|   \\  /    A nd           | Website:  www.openfoam.com                      |
|    \\/     M anipulation  |                                                 |
\*---------------------------------------------------------------------------*/
FoamFile
{
    version     2.0;
    format      ascii;
    arch        "LSB;label=32;scalar=64";
    class       volScalarField;
    location    "0.087";
    object      p;
}
// * * * * * * * * * * * * * * * * * * * * * * * * * * * * * * * * * * * * * //

dimensions      [1 -1 -2 0 0 0 0];

internalField   nonuniform List<scalar> 
9857
(
2833.27
2772.23
2762.52
2826.08
2768.92
2759.14
2748.96
2741.67
2735.44
2730.46
2726.17
2722.2
2718.37
2714.53
2710.59
2706.78
2703.89
2702.71
2703.14
2709.91
2729.31
2753.14
2770.92
2781.51
2787.76
2792.03
2795.63
2799.2
2819.16
2765.43
2755.79
2746.03
2739.08
2733.06
2728.27
2724.09
2720.21
2716.48
2712.74
2708.93
2705.3
2702.64
2701.63
2702.28
2709.97
2730.2
2754.02
2771.38
2781.65
2787.76
2792
2795.64
2799.3
2810.49
2760.56
2751.71
2742.69
2736.09
2730.31
2725.69
2721.62
2717.86
2714.27
2710.67
2707.02
2703.61
2701.24
2700.4
2701.39
2710.22
2731.42
2755.13
2771.96
2781.83
2787.74
2791.94
2795.64
2799.4
2797.22
2754.29
2746.88
2738.94
2732.64
2727.14
2722.72
2718.82
2715.23
2711.79
2708.34
2704.87
2701.74
2699.68
2699.05
2700.53
2710.79
2732.95
2756.39
2772.58
2782
2787.7
2791.87
2795.62
2799.5
2783.68
2748.08
2742.44
2735.28
2729.28
2724
2719.72
2715.97
2712.55
2709.3
2706.02
2702.76
2699.93
2698.18
2697.77
2699.88
2711.73
2734.79
2757.81
2773.27
2782.2
2787.68
2791.79
2795.62
2799.61
2766.16
2743.7
2738.43
2731.29
2725.59
2720.73
2716.74
2713.21
2709.96
2706.86
2703.74
2700.7
2698.16
2696.73
2696.56
2699.51
2713.04
2736.82
2759.24
2773.9
2782.34
2787.63
2791.71
2795.61
2799.72
2744.47
2741.1
2735.29
2727.69
2722.08
2717.51
2713.73
2710.42
2707.39
2704.47
2701.55
2698.73
2696.48
2695.35
2695.45
2699.47
2714.71
2738.97
2760.62
2774.45
2782.41
2787.53
2791.61
2795.59
2799.82
2804.21
2724.94
2737.23
2731.14
2723.74
2718.55
2714.35
2710.85
2707.76
2704.9
2702.14
2699.39
2696.81
2694.86
2693.98
2694.4
2699.71
2716.67
2741.19
2761.93
2774.91
2782.41
2787.39
2791.48
2795.57
2799.92
2804.38
2705.7
2732.81
2725.95
2719.59
2714.99
2711.12
2707.92
2705.09
2702.45
2699.87
2697.32
2695
2693.33
2692.64
2693.45
2700.26
2718.86
2743.39
2763.13
2775.26
2782.35
2787.19
2791.32
2795.52
2800
2804.54
2808.84
2685.01
2727.85
2721.23
2715.93
2711.78
2708.14
2705.18
2702.56
2700.1
2697.69
2695.32
2693.24
2691.83
2691.32
2692.64
2701.1
2721.2
2745.5
2764.19
2775.49
2782.23
2786.97
2791.15
2795.48
2800.07
2804.68
2809
2663.59
2722.69
2716.88
2712.32
2708.54
2705.2
2702.5
2700.12
2697.85
2695.6
2693.41
2691.53
2690.34
2690.04
2692.01
2702.25
2723.6
2747.46
2765.06
2775.6
2782.03
2786.7
2790.97
2795.43
2800.14
2804.8
2809.14
2813.1
2641.19
2717.47
2712.78
2708.87
2705.42
2702.4
2699.93
2697.75
2695.64
2693.54
2691.51
2689.82
2688.85
2688.79
2691.62
2703.69
2726.02
2749.23
2765.75
2775.61
2781.77
2786.42
2790.79
2795.39
2800.2
2804.9
2809.26
2813.26
2617.88
2712.18
2708.94
2705.52
2702.37
2699.7
2697.48
2695.48
2693.51
2691.54
2689.65
2688.12
2687.32
2687.56
2691.53
2705.41
2728.41
2750.8
2766.27
2775.53
2781.47
2786.12
2790.61
2795.35
2800.25
2805
2809.38
2813.43
2817.32
2821.23
2825.26
2829.35
2833.4
2837.37
2841.31
2845.33
2849.59
2854.15
2859.01
2864.12
2869.37
2874.68
2879.99
2885.29
2890.57
2895.84
2901.1
2906.37
2911.65
2916.95
2922.29
2927.68
2933.15
2938.71
2944.4
2950.23
2956.23
2962.39
2968.73
2975.25
2593.6
2707.28
2705.23
2702.12
2699.32
2697.05
2695.09
2693.27
2691.42
2689.55
2687.79
2686.42
2685.75
2686.33
2691.67
2707.35
2730.74
2752.2
2766.66
2775.39
2781.15
2785.84
2790.45
2795.33
2800.32
2805.09
2809.5
2813.6
2817.59
2821.62
2825.73
2829.86
2833.92
2837.88
2841.83
2845.91
2850.23
2854.86
2859.79
2864.93
2870.19
2875.48
2880.78
2886.06
2891.33
2896.58
2901.83
2907.07
2912.33
2917.61
2922.92
2928.29
2933.74
2939.28
2944.95
2950.76
2956.73
2962.86
2969.16
2975.64
2568.33
2702.78
2701.41
2698.86
2696.46
2694.53
2692.8
2691.11
2689.36
2687.57
2685.91
2684.7
2684.17
2685.22
2692.08
2709.42
2732.95
2753.4
2766.92
2775.17
2780.81
2785.56
2790.32
2795.33
2800.39
2805.19
2809.63
2813.8
2817.88
2822.01
2826.2
2830.35
2834.41
2838.38
2842.35
2846.48
2850.87
2855.58
2860.55
2865.72
2870.97
2876.25
2881.53
2886.8
2892.05
2897.28
2902.51
2907.73
2912.96
2918.21
2923.5
2928.85
2934.28
2939.8
2945.45
2951.24
2957.17
2963.27
2969.53
2975.96
2542.24
2698.28
2698
2695.87
2693.77
2692.12
2690.59
2688.99
2687.3
2685.56
2684
2682.95
2682.61
2684.27
2692.77
2711.56
2735.01
2754.44
2767.08
2774.94
2780.49
2785.32
2790.22
2795.35
2800.47
2805.3
2809.77
2814.01
2818.19
2822.41
2826.65
2830.83
2834.88
2838.85
2842.86
2847.04
2851.51
2856.28
2861.3
2866.47
2871.72
2876.99
2882.25
2887.5
2892.73
2897.94
2903.13
2908.33
2913.54
2918.77
2924.03
2929.36
2934.76
2940.26
2945.88
2951.64
2957.55
2963.61
2969.82
2976.2
2515.37
2694.02
2694.9
2692.88
2691.1
2689.74
2688.39
2686.87
2685.21
2683.53
2682.05
2681.16
2681.08
2683.54
2693.77
2713.76
2736.89
2755.3
2767.16
2774.68
2780.19
2785.12
2790.17
2795.4
2800.56
2805.42
2809.93
2814.25
2818.52
2822.82
2827.11
2831.29
2835.34
2839.32
2843.36
2847.61
2852.15
2856.97
2862.02
2867.2
2872.43
2877.68
2882.93
2888.16
2893.36
2898.55
2903.72
2908.89
2914.07
2919.27
2924.51
2929.81
2935.19
2940.67
2946.27
2951.99
2957.86
2963.88
2970.04
2976.36
2488.05
2689.35
2691.95
2690.11
2688.6
2687.44
2686.21
2684.73
2683.1
2681.45
2680.08
2679.35
2679.58
2683.1
2695.07
2716
2738.64
2756.03
2767.2
2774.44
2779.93
2784.97
2790.16
2795.48
2800.68
2805.56
2810.12
2814.51
2818.87
2823.24
2827.55
2831.73
2835.77
2839.77
2843.86
2848.17
2852.78
2857.65
2862.72
2867.89
2873.11
2878.35
2883.58
2888.78
2893.96
2899.12
2904.26
2909.4
2914.56
2919.73
2924.95
2930.22
2935.58
2941.03
2946.59
2952.28
2958.11
2964.08
2970.19
2976.45
2460.59
2684.33
2689.67
2687.55
2686.19
2685.16
2684.01
2682.56
2680.93
2679.34
2678.12
2677.52
2678.14
2682.97
2696.63
2718.25
2740.24
2756.65
2767.2
2774.21
2779.72
2784.88
2790.19
2795.59
2800.82
2805.72
2810.33
2814.8
2819.24
2823.65
2827.97
2832.15
2836.19
2840.21
2844.36
2848.74
2853.41
2858.32
2863.39
2868.56
2873.76
2878.98
2884.19
2889.37
2894.52
2899.64
2904.76
2909.88
2915
2920.15
2925.34
2930.59
2935.92
2941.34
2946.87
2952.52
2958.3
2964.22
2970.27
2976.48
2432.88
2679.98
2686.78
2684.72
2683.74
2682.88
2681.79
2680.35
2678.72
2677.22
2676.17
2675.74
2676.86
2683.11
2698.38
2720.47
2741.73
2757.2
2767.19
2774.03
2779.57
2784.86
2790.27
2795.73
2800.98
2805.91
2810.57
2815.12
2819.62
2824.06
2828.39
2832.56
2836.6
2840.66
2844.85
2849.31
2854.03
2858.97
2864.04
2869.2
2874.39
2879.58
2884.77
2889.92
2895.04
2900.13
2905.22
2910.31
2915.41
2920.53
2925.69
2930.91
2936.21
2941.6
2947.09
2952.7
2958.44
2964.3
2970.3
2976.42
2405.2
2675.4
2683.72
2682.23
2681.43
2680.62
2679.55
2678.1
2676.49
2675.08
2674.22
2674.05
2675.82
2683.56
2700.29
2722.62
2743.09
2757.68
2767.19
2773.89
2779.48
2784.88
2790.4
2795.91
2801.18
2806.13
2810.84
2815.45
2820
2824.47
2828.79
2832.95
2837.01
2841.1
2845.36
2849.87
2854.64
2859.59
2864.67
2869.81
2874.98
2880.16
2885.31
2890.43
2895.52
2900.59
2905.65
2910.71
2915.78
2920.87
2926
2931.2
2936.46
2941.82
2947.27
2952.84
2958.52
2964.34
2970.25
2976.3
2377.42
2670.31
2681.05
2679.86
2679.21
2678.42
2677.32
2675.84
2674.27
2672.98
2672.31
2672.44
2675.07
2684.37
2702.36
2724.72
2744.35
2758.13
2767.22
2773.82
2779.47
2784.97
2790.57
2796.12
2801.4
2806.37
2811.14
2815.8
2820.39
2824.87
2829.18
2833.33
2837.41
2841.54
2845.86
2850.43
2855.23
2860.2
2865.27
2870.4
2875.55
2880.7
2885.83
2890.91
2895.97
2901.01
2906.04
2911.07
2916.11
2921.18
2926.28
2931.44
2936.67
2941.99
2947.41
2952.92
2958.56
2964.3
2970.14
2976.11
2349.57
2665.09
2678.64
2677.5
2677.02
2676.26
2675.11
2673.59
2672.08
2670.97
2670.46
2670.95
2674.67
2685.53
2704.56
2726.75
2745.52
2758.55
2767.28
2773.8
2779.5
2785.12
2790.79
2796.36
2801.65
2806.65
2811.46
2816.16
2820.78
2825.26
2829.57
2833.71
2837.8
2841.98
2846.36
2850.98
2855.81
2860.79
2865.85
2870.96
2876.1
2881.22
2886.31
2891.36
2896.39
2901.4
2906.4
2911.4
2916.41
2921.45
2926.52
2931.65
2936.85
2942.13
2947.5
2952.97
2958.54
2964.21
2969.98
2975.86
2321.69
2659.91
2676.32
2675.34
2674.93
2674.12
2672.91
2671.37
2669.95
2669.04
2668.73
2669.66
2674.6
2686.97
2706.85
2728.72
2746.62
2758.96
2767.38
2773.83
2779.61
2785.32
2791.05
2796.63
2801.92
2806.95
2811.79
2816.54
2821.17
2825.65
2829.94
2834.08
2838.2
2842.43
2846.86
2851.53
2856.38
2861.36
2866.41
2871.51
2876.62
2881.71
2886.76
2891.78
2896.78
2901.75
2906.73
2911.7
2916.68
2921.69
2926.74
2931.83
2936.99
2942.23
2947.55
2952.97
2958.47
2964.07
2969.76
2975.55
2293.75
2654.76
2674.03
2673.32
2672.9
2672.02
2670.74
2669.21
2667.92
2667.22
2667.14
2668.66
2674.82
2688.64
2709.18
2730.61
2747.64
2759.37
2767.52
2773.95
2779.8
2785.58
2791.35
2796.93
2802.22
2807.26
2812.15
2816.92
2821.56
2826.03
2830.3
2834.45
2838.6
2842.87
2847.36
2852.06
2856.93
2861.9
2866.95
2872.03
2877.11
2882.17
2887.19
2892.17
2897.14
2902.09
2907.03
2911.97
2916.93
2921.9
2926.92
2931.98
2937.1
2942.29
2947.57
2952.92
2958.36
2963.88
2969.48
2975.18
2265.81
2649.61
2671.68
2671.37
2670.9
2669.92
2668.6
2667.14
2666.02
2665.5
2665.7
2667.95
2675.41
2690.53
2711.53
2732.43
2748.63
2759.79
2767.71
2774.12
2780.03
2785.88
2791.68
2797.25
2802.55
2807.6
2812.51
2817.31
2821.95
2826.4
2830.66
2834.82
2839
2843.32
2847.85
2852.59
2857.46
2862.43
2867.47
2872.53
2877.58
2882.6
2887.59
2892.54
2897.47
2902.39
2907.31
2912.22
2917.15
2922.09
2927.07
2932.09
2937.17
2942.32
2947.54
2952.83
2958.19
2963.63
2969.16
2974.76
2237.95
2644.4
2669.34
2669.45
2668.92
2667.83
2666.53
2665.18
2664.28
2663.92
2664.44
2667.6
2676.35
2692.61
2713.87
2734.15
2749.56
2760.22
2767.96
2774.35
2780.33
2786.23
2792.03
2797.6
2802.88
2807.96
2812.89
2817.7
2822.34
2826.77
2831.02
2835.18
2839.39
2843.77
2848.34
2853.1
2857.98
2862.95
2867.97
2873.01
2878.03
2883.01
2887.96
2892.88
2897.78
2902.68
2907.56
2912.45
2917.34
2922.25
2927.2
2932.18
2937.22
2942.32
2947.48
2952.7
2957.99
2963.35
2968.78
2974.29
2210.27
2639.21
2667.03
2667.51
2666.94
2665.79
2664.55
2663.37
2662.67
2662.51
2663.42
2667.54
2677.56
2694.85
2716.2
2735.8
2750.46
2760.67
2768.24
2774.64
2780.66
2786.6
2792.4
2797.95
2803.24
2808.32
2813.28
2818.09
2822.72
2827.13
2831.37
2835.55
2839.79
2844.21
2848.82
2853.59
2858.48
2863.44
2868.45
2873.46
2878.45
2883.4
2888.31
2893.2
2898.07
2902.94
2907.79
2912.65
2917.51
2922.39
2927.3
2932.25
2937.24
2942.28
2947.38
2952.53
2957.74
2963.02
2968.36
2973.77
2182.84
2634.1
2664.81
2665.5
2664.94
2663.8
2662.69
2661.7
2661.19
2661.25
2662.67
2667.72
2679.02
2697.2
2718.49
2737.37
2751.32
2761.14
2768.58
2774.98
2781.04
2786.99
2792.78
2798.32
2803.6
2808.7
2813.67
2818.48
2823.09
2827.48
2831.72
2835.91
2840.19
2844.65
2849.29
2854.08
2858.96
2863.92
2868.91
2873.9
2878.85
2883.77
2888.64
2893.5
2898.34
2903.18
2908.01
2912.83
2917.66
2922.51
2927.38
2932.28
2937.23
2942.21
2947.25
2952.33
2957.46
2962.65
2967.89
2973.2
2155.7
2629.09
2662.71
2663.49
2662.97
2661.92
2660.98
2660.21
2659.85
2660.13
2662.17
2668.22
2680.7
2699.62
2720.72
2738.87
2752.16
2761.63
2768.95
2775.35
2781.44
2787.4
2793.18
2798.7
2803.98
2809.09
2814.06
2818.87
2823.46
2827.83
2832.06
2836.27
2840.59
2845.09
2849.75
2854.55
2859.44
2864.38
2869.36
2874.32
2879.23
2884.11
2888.95
2893.78
2898.6
2903.4
2908.2
2913
2917.8
2922.61
2927.44
2932.3
2937.19
2942.11
2947.08
2952.08
2957.14
2962.23
2967.38
2972.59
2977.85
2983.16
2988.52
2993.94
2999.4
3004.91
3010.45
3016.01
3021.59
3027.18
3032.76
3038.3
3043.8
3049.23
3054.57
3059.79
3064.88
3069.8
3074.53
3079.04
3083.3
3087.3
3091
3094.37
3097.41
3100.09
3102.4
3104.31
3105.82
3106.93
3107.63
3107.95
3107.89
3107.38
3106.51
3105.28
3103.72
3101.84
3099.65
2128.8
2624.12
2660.75
2661.55
2661.08
2660.14
2659.41
2658.84
2658.63
2659.19
2661.93
2669
2682.58
2702.07
2722.88
2740.29
2752.98
2762.14
2769.37
2775.76
2781.87
2787.83
2793.58
2799.08
2804.36
2809.48
2814.46
2819.25
2823.82
2828.17
2832.4
2836.64
2840.99
2845.52
2850.2
2855
2859.89
2864.83
2869.78
2874.71
2879.59
2884.44
2889.25
2894.05
2898.84
2903.61
2908.38
2913.14
2917.91
2922.69
2927.47
2932.29
2937.13
2941.99
2946.88
2951.81
2956.78
2961.79
2966.84
2971.94
2977.08
2982.28
2987.51
2992.79
2998.1
3003.45
3008.82
3014.21
3019.6
3024.98
3030.34
3035.66
3040.92
3046.09
3051.16
3056.11
3060.9
3065.52
3069.94
3074.13
3078.06
3081.72
3085.08
3088.11
3090.8
3093.14
3095.1
3096.67
3097.85
3098.64
3099.05
3099.1
3098.72
3097.96
3096.86
3095.41
3093.65
3091.6
3089.26
3086.7
3083.86
3080.9
3077.67
3074.41
3070.95
3067.46
3063.89
3060.22
3056.58
2102.19
2619.19
2658.89
2659.71
2659.31
2658.51
2657.97
2657.58
2657.55
2658.45
2661.9
2669.99
2684.62
2704.54
2724.95
2741.65
2753.78
2762.66
2769.8
2776.19
2782.31
2788.26
2793.99
2799.48
2804.75
2809.88
2814.85
2819.62
2824.17
2828.5
2832.74
2837
2841.39
2845.94
2850.64
2855.45
2860.33
2865.26
2870.19
2875.09
2879.94
2884.74
2889.53
2894.3
2899.06
2903.81
2908.55
2913.28
2918.01
2922.75
2927.49
2932.26
2937.03
2941.83
2946.66
2951.51
2956.39
2961.3
2966.26
2971.25
2976.28
2981.35
2986.45
2991.59
2996.75
3001.94
3007.14
3012.34
3017.54
3022.72
3027.86
3032.95
3037.96
3042.88
3047.68
3052.35
3056.85
3061.17
3065.27
3069.14
3072.75
3076.07
3079.09
3081.78
3084.13
3086.13
3087.75
3089
3089.86
3090.36
3090.5
3090.24
3089.59
3088.6
3087.27
3085.63
3083.69
3081.48
3079
3076.32
3073.38
3070.34
3067.05
3063.75
3060.28
3056.78
3053.21
3049.56
3045.94
3042.27
3038.62
3035.01
3031.42
3027.88
3024.38
3020.95
3017.6
3014.33
3011.08
3007.67
3003.19
2075.85
2614.25
2657.15
2658
2657.67
2657.02
2656.66
2656.41
2656.57
2657.9
2662.05
2671.18
2686.78
2706.98
2726.93
2742.93
2754.56
2763.2
2770.26
2776.64
2782.76
2788.7
2794.4
2799.87
2805.15
2810.27
2815.24
2819.99
2824.51
2828.83
2833.07
2837.36
2841.78
2846.35
2851.06
2855.88
2860.76
2865.68
2870.58
2875.45
2880.26
2885.04
2889.79
2894.54
2899.27
2903.99
2908.7
2913.4
2918.09
2922.79
2927.5
2932.21
2936.92
2941.66
2946.4
2951.17
2955.97
2960.79
2965.64
2970.53
2975.44
2980.39
2985.36
2990.35
2995.37
3000.39
3005.42
3010.43
3015.43
3020.4
3025.32
3030.18
3034.95
3039.61
3044.15
3048.53
3052.75
3056.76
3060.56
3064.11
3067.4
3070.39
3073.08
3075.44
3077.46
3079.12
3080.43
3081.36
3081.92
3082.14
3081.99
3081.44
3080.55
3079.33
3077.79
3075.96
3073.85
3071.49
3068.87
3066.09
3063.05
3059.94
3056.6
3053.26
3049.77
3046.26
3042.7
3039.05
3035.45
3031.82
3028.21
3024.64
3021.1
3017.61
3014.18
3010.82
3007.53
3004.32
3001.14
2997.81
2993.43
2049.77
2609.32
2655.51
2656.42
2656.18
2655.67
2655.47
2655.34
2655.7
2657.5
2662.4
2672.55
2689.02
2709.38
2728.81
2744.14
2755.32
2763.74
2770.73
2777.1
2783.22
2789.13
2794.82
2800.27
2805.54
2810.67
2815.62
2820.35
2824.84
2829.16
2833.41
2837.72
2842.17
2846.76
2851.48
2856.3
2861.18
2866.08
2870.96
2875.79
2880.57
2885.32
2890.05
2894.76
2899.47
2904.16
2908.83
2913.5
2918.16
2922.82
2927.47
2932.13
2936.79
2941.45
2946.12
2950.81
2955.52
2960.24
2965
2969.77
2974.57
2979.39
2984.22
2989.07
2993.93
2998.79
3003.64
3008.47
3013.27
3018.03
3022.73
3027.35
3031.88
3036.28
3040.55
3044.65
3048.58
3052.3
3055.78
3059.02
3061.98
3064.66
3067.02
3069.05
3070.75
3072.09
3073.08
3073.7
3073.99
3073.94
3073.48
3072.69
3071.57
3070.13
3068.4
3066.38
3064.11
3061.62
3058.88
3055.99
3052.87
3049.69
3046.3
3042.93
3039.42
3035.89
3032.34
3028.71
3025.13
3021.53
3017.95
3014.43
3010.94
3007.5
3004.12
3000.81
2997.58
2994.44
2991.32
2988.05
2983.79
2024
2604.36
2653.96
2654.99
2654.86
2654.46
2654.38
2654.38
2654.97
2657.24
2662.92
2674.07
2691.31
2711.7
2730.58
2745.28
2756.05
2764.27
2771.2
2777.57
2783.67
2789.57
2795.23
2800.66
2805.93
2811.06
2815.99
2820.7
2825.17
2829.48
2833.74
2838.08
2842.55
2847.15
2851.88
2856.7
2861.58
2866.46
2871.31
2876.11
2880.86
2885.58
2890.29
2894.98
2899.65
2904.31
2908.96
2913.59
2918.22
2922.83
2927.44
2932.04
2936.63
2941.22
2945.82
2950.42
2955.04
2959.67
2964.32
2968.99
2973.67
2978.36
2983.06
2987.76
2992.46
2997.16
3001.83
3006.47
3011.07
3015.62
3020.1
3024.48
3028.76
3032.91
3036.91
3040.74
3044.37
3047.79
3050.98
3053.9
3056.55
3058.91
3060.95
3062.67
3064.05
3065.08
3065.76
3066.11
3066.14
3065.77
3065.06
3064.02
3062.68
3061.04
3059.11
3056.93
3054.5
3051.88
3049.02
3046.04
3042.83
3039.6
3036.17
3032.75
3029.24
3025.69
3022.14
3018.51
3014.94
3011.37
3007.82
3004.34
3000.88
2997.49
2994.16
2990.9
2987.72
2984.62
2981.55
2978.34
2974.15
1998.55
2599.4
2652.52
2653.67
2653.67
2653.37
2653.38
2653.53
2654.37
2657.13
2663.59
2675.72
2693.61
2713.94
2732.24
2746.35
2756.75
2764.8
2771.68
2778.03
2784.13
2790
2795.63
2801.06
2806.33
2811.44
2816.36
2821.04
2825.49
2829.79
2834.07
2838.43
2842.92
2847.54
2852.28
2857.1
2861.96
2866.83
2871.65
2876.42
2881.15
2885.84
2890.52
2895.18
2899.83
2904.46
2909.07
2913.67
2918.26
2922.83
2927.38
2931.92
2936.45
2940.97
2945.49
2950.01
2954.54
2959.08
2963.62
2968.18
2972.74
2977.3
2981.86
2986.41
2990.96
2995.48
2999.98
3004.43
3008.83
3013.16
3017.42
3021.57
3025.59
3029.48
3033.21
3036.76
3040.11
3043.24
3046.12
3048.74
3051.08
3053.12
3054.85
3056.26
3057.33
3058.06
3058.46
3058.55
3058.27
3057.63
3056.68
3055.42
3053.86
3052.02
3049.93
3047.59
3045.02
3042.27
3039.3
3036.23
3032.95
3029.65
3026.18
3022.73
3019.2
3015.64
3012.09
3008.47
3004.91
3001.37
2997.85
2994.39
2990.98
2987.62
2984.33
2981.11
2977.98
2974.92
2971.89
2968.71
2964.56
1973.41
2594.43
2651.18
2652.45
2652.6
2652.38
2652.48
2652.76
2653.89
2657.14
2664.4
2677.46
2695.89
2716.06
2733.79
2747.36
2757.41
2765.32
2772.15
2778.5
2784.58
2790.42
2796.04
2801.45
2806.71
2811.82
2816.71
2821.37
2825.8
2830.11
2834.4
2838.78
2843.29
2847.92
2852.66
2857.48
2862.34
2867.18
2871.98
2876.72
2881.42
2886.09
2890.74
2895.37
2899.99
2904.59
2909.18
2913.74
2918.29
2922.81
2927.31
2931.79
2936.25
2940.7
2945.14
2949.58
2954.02
2958.46
2962.9
2967.34
2971.78
2976.21
2980.64
2985.04
2989.43
2993.78
2998.1
3002.36
3006.55
3010.67
3014.7
3018.61
3022.4
3026.03
3029.49
3032.77
3035.83
3038.66
3041.25
3043.57
3045.6
3047.34
3048.76
3049.86
3050.64
3051.08
3051.22
3051.02
3050.45
3049.58
3048.39
3046.91
3045.15
3043.13
3040.86
3038.37
3035.66
3032.79
3029.72
3026.57
3023.21
3019.86
3016.36
3012.87
3009.33
3005.74
3002.19
2998.58
2995.02
2991.5
2988
2984.57
2981.18
2977.85
2974.6
2971.41
2968.31
2965.29
2962.29
2959.16
2955.08
1948.72
2589.49
2649.95
2651.32
2651.61
2651.49
2651.66
2652.09
2653.48
2657.24
2665.33
2679.28
2698.14
2718.08
2735.23
2748.28
2758.05
2765.83
2772.62
2778.96
2785.02
2790.84
2796.43
2801.84
2807.09
2812.18
2817.06
2821.69
2826.11
2830.41
2834.72
2839.12
2843.64
2848.29
2853.03
2857.85
2862.69
2867.52
2872.29
2877.01
2881.68
2886.32
2890.95
2895.56
2900.15
2904.72
2909.27
2913.8
2918.3
2922.78
2927.22
2931.64
2936.03
2940.41
2944.77
2949.13
2953.48
2957.82
2962.16
2966.48
2970.8
2975.1
2979.38
2983.64
2987.86
2992.05
2996.18
3000.25
3004.24
3008.14
3011.94
3015.62
3019.16
3022.53
3025.73
3028.73
3031.51
3034.05
3036.34
3038.36
3040.1
3041.53
3042.66
3043.46
3043.95
3044.13
3043.99
3043.5
3042.69
3041.57
3040.17
3038.48
3036.53
3034.33
3031.9
3029.26
3026.43
3023.45
3020.28
3017.05
3013.62
3010.22
3006.68
3003.16
2999.6
2996
2992.44
2988.84
2985.29
2981.78
2978.3
2974.89
2971.53
2968.23
2965.01
2961.86
2958.78
2955.8
2952.83
2949.73
2945.69
1924.29
2584.57
2648.79
2650.29
2650.72
2650.69
2650.93
2651.49
2653.15
2657.44
2666.36
2681.13
2700.32
2719.96
2736.55
2749.14
2758.64
2766.32
2773.08
2779.4
2785.45
2791.25
2796.82
2802.22
2807.46
2812.54
2817.39
2822
2826.41
2830.72
2835.04
2839.46
2843.99
2848.65
2853.4
2858.21
2863.04
2867.84
2872.59
2877.28
2881.93
2886.55
2891.15
2895.74
2900.3
2904.84
2909.36
2913.85
2918.31
2922.73
2927.12
2931.48
2935.8
2940.1
2944.39
2948.66
2952.92
2957.16
2961.4
2965.61
2969.8
2973.97
2978.11
2982.22
2986.28
2990.29
2994.24
2998.11
3001.9
3005.59
3009.17
3012.61
3015.89
3019.01
3021.95
3024.67
3027.17
3029.44
3031.44
3033.17
3034.61
3035.75
3036.58
3037.1
3037.32
3037.24
3036.8
3036.05
3035
3033.66
3032.04
3030.15
3028.02
3025.65
3023.06
3020.29
3017.33
3014.25
3010.98
3007.68
3004.19
3000.74
2997.17
2993.61
2990.03
2986.41
2982.84
2979.25
2975.7
2972.2
2968.73
2965.34
2962
2958.72
2955.52
2952.39
2949.35
2946.39
2943.44
2940.36
2936.35
1900.4
2579.71
2647.74
2649.34
2649.89
2649.96
2650.26
2650.94
2652.88
2657.72
2667.47
2682.99
2702.42
2721.72
2737.77
2749.93
2759.2
2766.78
2773.52
2779.84
2785.87
2791.65
2797.21
2802.59
2807.83
2812.89
2817.71
2822.3
2826.7
2831.01
2835.36
2839.79
2844.34
2849
2853.75
2858.56
2863.37
2868.15
2872.88
2877.54
2882.17
2886.77
2891.35
2895.91
2900.44
2904.95
2909.44
2913.89
2918.3
2922.67
2927
2931.29
2935.55
2939.78
2943.99
2948.18
2952.35
2956.49
2960.62
2964.72
2968.79
2972.82
2976.82
2980.77
2984.67
2988.51
2992.27
2995.95
2999.54
3003.01
3006.36
3009.56
3012.6
3015.46
3018.13
3020.59
3022.81
3024.79
3026.51
3027.95
3029.1
3029.95
3030.5
3030.75
3030.72
3030.34
3029.64
3028.65
3027.37
3025.81
3023.99
3021.91
3019.6
3017.07
3014.34
3011.45
3008.37
3005.19
3001.83
2998.45
2994.91
2991.4
2987.8
2984.21
2980.61
2976.97
2973.4
2969.81
2966.26
2962.78
2959.32
2955.94
2952.62
2949.37
2946.19
2943.08
2940.06
2937.12
2934.2
2931.16
2927.21
1876.9
2574.93
2646.77
2648.5
2649.15
2649.29
2649.63
2650.41
2652.64
2658.07
2668.64
2684.85
2704.41
2723.35
2738.87
2750.65
2759.72
2767.23
2773.95
2780.26
2786.27
2792.03
2797.58
2802.95
2808.18
2813.22
2818.03
2822.59
2826.99
2831.31
2835.66
2840.11
2844.67
2849.34
2854.09
2858.89
2863.69
2868.45
2873.15
2877.8
2882.4
2886.98
2891.54
2896.07
2900.58
2905.06
2909.51
2913.92
2918.28
2922.6
2926.87
2931.1
2935.29
2939.45
2943.58
2947.68
2951.76
2955.81
2959.83
2963.81
2967.76
2971.66
2975.51
2979.31
2983.05
2986.71
2990.29
2993.77
2997.15
3000.41
3003.53
3006.5
3009.3
3011.91
3014.32
3016.5
3018.46
3020.16
3021.59
3022.75
3023.62
3024.19
3024.47
3024.49
3024.15
3023.5
3022.56
3021.34
3019.84
3018.07
3016.04
3013.78
3011.3
3008.62
3005.75
3002.73
2999.54
2996.27
2992.82
2989.38
2985.78
2982.23
2978.6
2974.97
2971.36
2967.7
2964.11
2960.52
2956.97
2953.49
2950.04
2946.68
2943.37
2940.13
2936.97
2933.89
2930.89
2927.97
2925.07
2922.05
2918.11
1853.66
2570.17
2645.89
2647.75
2648.47
2648.64
2649.01
2649.89
2652.42
2658.47
2669.85
2686.68
2706.3
2724.84
2739.87
2751.31
2760.21
2767.66
2774.36
2780.66
2786.66
2792.41
2797.94
2803.31
2808.52
2813.54
2818.33
2822.88
2827.27
2831.6
2835.96
2840.43
2845
2849.67
2854.42
2859.21
2864
2868.74
2873.42
2878.05
2882.63
2887.19
2891.72
2896.22
2900.71
2905.16
2909.57
2913.93
2918.25
2922.52
2926.73
2930.89
2935.01
2939.1
2943.15
2947.17
2951.16
2955.11
2959.02
2962.89
2966.71
2970.48
2974.19
2977.83
2981.4
2984.89
2988.29
2991.57
2994.75
2997.79
3000.68
3003.41
3005.97
3008.33
3010.48
3012.4
3014.08
3015.51
3016.67
3017.55
3018.13
3018.44
3018.49
3018.2
3017.59
3016.7
3015.53
3014.08
3012.36
3010.39
3008.18
3005.75
3003.11
3000.28
2997.29
2994.15
2990.85
2987.5
2983.97
2980.46
2976.81
2973.21
2969.54
2965.88
2962.25
2958.58
2954.98
2951.39
2947.84
2944.37
2940.94
2937.58
2934.29
2931.06
2927.92
2924.85
2921.87
2918.96
2916.08
2913.07
2909.14
1831.31
2565.55
2645.08
2647.07
2647.85
2648.01
2648.38
2649.35
2652.22
2658.91
2671.09
2688.45
2708.07
2726.19
2740.77
2751.91
2760.66
2768.06
2774.76
2781.05
2787.04
2792.77
2798.29
2803.65
2808.85
2813.86
2818.62
2823.15
2827.54
2831.88
2836.26
2840.73
2845.32
2849.99
2854.74
2859.53
2864.29
2869.02
2873.68
2878.28
2882.85
2887.38
2891.89
2896.38
2900.83
2905.25
2909.62
2913.95
2918.21
2922.42
2926.57
2930.67
2934.73
2938.74
2942.72
2946.65
2950.55
2954.4
2958.21
2961.96
2965.65
2969.29
2972.85
2976.34
2979.75
2983.06
2986.27
2989.36
2992.33
2995.16
2997.83
3000.33
3002.64
3004.75
3006.64
3008.3
3009.72
3010.88
3011.76
3012.37
3012.7
3012.77
3012.52
3011.96
3011.12
3009.99
3008.59
3006.92
3005
3002.83
3000.44
2997.84
2995.05
2992.08
2988.95
2985.71
2982.3
2978.86
2975.26
2971.69
2968
2964.35
2960.66
2956.97
2953.32
2949.63
2946.01
2942.42
2938.87
2935.4
2931.97
2928.62
2925.34
2922.13
2919
2915.95
2912.98
2910.09
2907.23
2904.25
2900.37
1808.81
2560.99
2644.36
2646.46
2647.28
2647.38
2647.73
2648.79
2652.01
2659.38
2672.34
2690.17
2709.71
2727.42
2741.58
2752.44
2761.08
2768.45
2775.14
2781.42
2787.4
2793.12
2798.63
2803.98
2809.17
2814.16
2818.9
2823.42
2827.81
2832.15
2836.55
2841.04
2845.63
2850.31
2855.05
2859.83
2864.58
2869.28
2873.93
2878.51
2883.06
2887.58
2892.06
2896.52
2900.95
2905.33
2909.67
2913.95
2918.16
2922.31
2926.4
2930.44
2934.43
2938.38
2942.28
2946.13
2949.93
2953.69
2957.38
2961.02
2964.59
2968.08
2971.5
2974.84
2978.08
2981.22
2984.24
2987.14
2989.9
2992.51
2994.96
2997.22
2999.29
3001.16
3002.8
3004.2
3005.35
3006.24
3006.86
3007.21
3007.3
3007.09
3006.56
3005.76
3004.68
3003.33
3001.7
2999.82
2997.7
2995.35
2992.79
2990.03
2987.09
2984
2980.75
2977.41
2973.91
2970.39
2966.71
2963.08
2959.35
2955.65
2951.93
2948.2
2944.53
2940.83
2937.21
2933.62
2930.07
2926.6
2923.19
2919.85
2916.58
2913.38
2910.27
2907.24
2904.29
2901.42
2898.57
2895.6
2891.73
1787.24
2556.48
2643.7
2645.89
2646.72
2646.74
2647.06
2648.21
2651.81
2659.87
2673.58
2691.8
2711.22
2728.53
2742.3
2752.93
2761.47
2768.81
2775.49
2781.77
2787.74
2793.45
2798.95
2804.3
2809.48
2814.45
2819.17
2823.68
2828.07
2832.42
2836.83
2841.33
2845.93
2850.61
2855.36
2860.12
2864.86
2869.54
2874.17
2878.74
2883.27
2887.76
2892.23
2896.66
2901.06
2905.41
2909.7
2913.93
2918.1
2922.19
2926.23
2930.21
2934.13
2938
2941.83
2945.6
2949.31
2952.96
2956.55
2960.07
2963.51
2966.87
2970.15
2973.33
2976.41
2979.37
2982.21
2984.91
2987.47
2989.86
2992.09
2994.12
2995.96
2997.58
2998.97
3000.11
3001.01
3001.64
3002
3002.11
3001.93
3001.45
3000.68
2999.64
2998.33
2996.75
2994.91
2992.83
2990.52
2988
2985.27
2982.36
2979.28
2976.06
2972.69
2969.25
2965.65
2962.05
2958.32
2954.63
2950.85
2947.12
2943.37
2939.62
2935.93
2932.22
2928.58
2924.99
2921.43
2917.97
2914.56
2911.22
2907.96
2904.78
2901.68
2898.66
2895.73
2892.88
2890.05
2887.1
2883.27
1766.32
2552.15
2643.06
2645.33
2646.15
2646.11
2646.39
2647.64
2651.64
2660.4
2674.81
2693.35
2712.6
2729.51
2742.94
2753.38
2761.83
2769.14
2775.83
2782.11
2788.07
2793.77
2799.27
2804.61
2809.77
2814.72
2819.43
2823.94
2828.32
2832.69
2837.11
2841.62
2846.22
2850.91
2855.65
2860.4
2865.12
2869.79
2874.4
2878.95
2883.47
2887.94
2892.39
2896.79
2901.16
2905.47
2909.73
2913.91
2918.03
2922.07
2926.04
2929.96
2933.82
2937.63
2941.37
2945.06
2948.68
2952.23
2955.72
2959.12
2962.43
2965.66
2968.79
2971.81
2974.72
2977.51
2980.16
2982.67
2985.02
2987.21
2989.21
2991.02
2992.61
2993.99
2995.13
2996.03
2996.67
2997.04
2997.17
2997.02
2996.57
2995.84
2994.84
2993.57
2992.03
2990.24
2988.2
2985.92
2983.43
2980.73
2977.84
2974.79
2971.58
2968.24
2964.77
2961.24
2957.55
2953.89
2950.09
2946.34
2942.53
2938.75
2934.97
2931.19
2927.48
2923.76
2920.11
2916.52
2912.97
2909.51
2906.12
2902.79
2899.55
2896.38
2893.29
2890.29
2887.38
2884.55
2881.74
2878.82
2875.04
1744.95
2547.83
2642.47
2644.75
2645.57
2645.46
2645.72
2647.08
2651.52
2660.98
2676.03
2694.8
2713.86
2730.4
2743.51
2753.77
2762.15
2769.45
2776.14
2782.42
2788.38
2794.07
2799.57
2804.9
2810.06
2814.99
2819.68
2824.18
2828.57
2832.94
2837.37
2841.89
2846.51
2851.2
2855.93
2860.67
2865.38
2870.03
2874.63
2879.16
2883.66
2888.12
2892.54
2896.92
2901.26
2905.54
2909.74
2913.88
2917.95
2921.93
2925.86
2929.71
2933.51
2937.24
2940.92
2944.52
2948.05
2951.5
2954.87
2958.16
2961.35
2964.44
2967.42
2970.29
2973.04
2975.65
2978.12
2980.43
2982.58
2984.56
2986.34
2987.92
2989.29
2990.43
2991.32
2991.97
2992.36
2992.51
2992.39
2991.97
2991.28
2990.31
2989.08
2987.58
2985.82
2983.82
2981.58
2979.12
2976.45
2973.59
2970.56
2967.36
2964.03
2960.58
2956.99
2953.37
2949.6
2945.86
2942.01
2938.21
2934.36
2930.55
2926.75
2922.95
2919.22
2915.49
2911.83
2908.24
2904.69
2901.23
2897.84
2894.52
2891.29
2888.13
2885.06
2882.08
2879.18
2876.37
2873.57
2870.66
2866.86
1725.38
2543.59
2641.88
2644.14
2644.96
2644.79
2645.03
2646.54
2651.46
2661.61
2677.24
2696.17
2715.01
2731.19
2744.02
2754.13
2762.45
2769.74
2776.43
2782.72
2788.67
2794.36
2799.85
2805.18
2810.33
2815.25
2819.93
2824.42
2828.81
2833.19
2837.64
2842.17
2846.78
2851.48
2856.21
2860.94
2865.63
2870.27
2874.85
2879.37
2883.85
2888.29
2892.69
2897.05
2901.35
2905.59
2909.75
2913.85
2917.86
2921.79
2925.66
2929.46
2933.19
2936.86
2940.46
2943.98
2947.41
2950.77
2954.03
2957.2
2960.26
2963.21
2966.05
2968.76
2971.34
2973.78
2976.07
2978.19
2980.14
2981.9
2983.47
2984.83
2985.96
2986.86
2987.52
2987.92
2988.09
2987.99
2987.61
2986.94
2986.01
2984.82
2983.36
2981.64
2979.68
2977.48
2975.05
2972.41
2969.57
2966.55
2963.37
2960.05
2956.59
2953.04
2949.36
2945.66
2941.81
2938.01
2934.1
2930.26
2926.37
2922.52
2918.69
2914.86
2911.11
2907.39
2903.72
2900.13
2896.59
2893.14
2889.76
2886.46
2883.24
2880.1
2877.05
2874.08
2871.2
2868.4
2865.63
2862.76
2859.02
1705.48
2539.57
2641.28
2643.52
2644.31
2644.05
2644.29
2646
2651.45
2662.29
2678.42
2697.46
2716.05
2731.89
2744.47
2754.44
2762.71
2770
2776.7
2782.99
2788.94
2794.63
2800.12
2805.45
2810.59
2815.49
2820.16
2824.65
2829.04
2833.44
2837.89
2842.43
2847.06
2851.75
2856.47
2861.19
2865.87
2870.49
2875.06
2879.57
2884.03
2888.45
2892.83
2897.16
2901.43
2905.64
2909.76
2913.8
2917.76
2921.65
2925.46
2929.2
2932.87
2936.47
2939.99
2943.43
2946.78
2950.03
2953.19
2956.23
2959.17
2961.99
2964.68
2967.24
2969.66
2971.92
2974.02
2975.96
2977.71
2979.27
2980.62
2981.75
2982.66
2983.33
2983.75
2983.93
2983.87
2983.51
2982.88
2981.99
2980.83
2979.41
2977.73
2975.8
2973.63
2971.24
2968.63
2965.81
2962.82
2959.65
2956.34
2952.89
2949.31
2945.66