/*--------------------------------*- C++ -*----------------------------------*\
| =========                 |                                                 |
| \\      /  F ield         | OpenFOAM: The Open Source CFD Toolbox           |
|  \\    /   O peration     | Version:  2412                                  |
|   \\  /    A nd           | Website:  www.openfoam.com                      |
|    \\/     M anipulation  |                                                 |
\*---------------------------------------------------------------------------*/
FoamFile
{
    version     2.0;
    format      ascii;
    arch        "LSB;label=32;scalar=64";
    class       volScalarField;
    location    "0.103";
    object      T;
}
// * * * * * * * * * * * * * * * * * * * * * * * * * * * * * * * * * * * * * //

dimensions      [0 0 0 1 0 0 0];

internalField   nonuniform List<scalar> 
9857
(
221.662
221.512
221.397
221.267
221.475
221.364
221.179
221.001
220.852
220.772
220.769
220.924
221.4
221.932
222.262
222.43
222.54
222.648
222.773
222.904
223.027
223.139
223.24
223.333
223.415
223.48
223.526
223.556
220.951
221.409
221.282
221.108
220.941
220.803
220.732
220.734
220.909
221.404
221.93
222.249
222.412
222.52
222.63
222.759
222.894
223.024
223.141
223.249
223.347
223.432
223.5
223.546
223.576
220.516
221.331
221.188
221.025
220.874
220.748
220.686
220.694
220.895
221.41
221.928
222.234
222.391
222.5
222.614
222.746
222.887
223.022
223.146
223.261
223.365
223.453
223.522
223.569
223.598
219.917
221.223
221.083
220.942
220.803
220.685
220.632
220.65
220.885
221.42
221.926
222.217
222.369
222.481
222.598
222.736
222.883
223.023
223.155
223.276
223.384
223.476
223.546
223.593
223.621
219.307
221.108
220.982
220.862
220.736
220.627
220.578
220.606
220.88
221.434
221.925
222.202
222.351
222.466
222.589
222.732
222.883
223.03
223.168
223.294
223.405
223.499
223.569
223.615
223.642
218.663
220.985
220.883
220.779
220.665
220.565
220.523
220.568
220.883
221.453
221.927
222.19
222.337
222.456
222.585
222.732
222.887
223.04
223.182
223.311
223.425
223.52
223.591
223.635
223.661
217.991
220.861
220.788
220.702
220.596
220.504
220.469
220.533
220.893
221.474
221.931
222.183
222.328
222.451
222.584
222.736
222.896
223.052
223.197
223.328
223.444
223.54
223.61
223.653
223.678
223.696
217.283
220.736
220.699
220.625
220.526
220.444
220.418
220.507
220.911
221.5
221.939
222.18
222.324
222.45
222.588
222.745
222.907
223.064
223.211
223.345
223.462
223.558
223.626
223.668
223.693
223.712
216.537
220.629
220.604
220.538
220.451
220.383
220.369
220.488
220.936
221.528
221.95
222.181
222.325
222.454
222.597
222.755
222.918
223.077
223.225
223.36
223.478
223.573
223.64
223.681
223.705
223.725
223.75
215.756
220.512
220.508
220.456
220.381
220.324
220.324
220.481
220.971
221.56
221.963
222.186
222.33
222.463
222.608
222.766
222.929
223.088
223.238
223.374
223.492
223.586
223.652
223.692
223.716
223.736
223.763
214.946
220.383
220.427
220.376
220.31
220.264
220.282
220.485
221.014
221.595
221.979
222.195
222.34
222.474
222.62
222.778
222.94
223.098
223.249
223.386
223.504
223.597
223.662
223.701
223.725
223.747
223.775
223.816
214.105
220.247
220.361
220.297
220.239
220.205
220.244
220.5
221.065
221.634
221.997
222.206
222.35
222.486
222.631
222.788
222.949
223.107
223.257
223.395
223.513
223.605
223.669
223.708
223.733
223.755
223.785
223.827
213.245
220.084
220.297
220.223
220.173
220.151
220.212
220.526
221.123
221.676
222.019
222.219
222.362
222.498
222.642
222.797
222.955
223.112
223.264
223.403
223.521
223.612
223.675
223.713
223.739
223.763
223.795
223.838
223.894
223.961
224.038
224.123
224.215
224.311
224.409
224.507
224.606
224.704
224.803
224.903
225.005
225.109
225.215
225.324
225.434
225.545
225.658
225.773
225.889
226.008
226.131
226.256
226.384
226.516
226.65
226.788
226.929
227.073
227.221
227.373
212.363
219.924
220.231
220.148
220.109
220.104
220.192
220.565
221.186
221.721
222.043
222.233
222.373
222.508
222.65
222.802
222.958
223.116
223.269
223.409
223.527
223.617
223.679
223.718
223.744
223.77
223.803
223.848
223.905
223.973
224.051
224.138
224.23
224.327
224.425
224.523
224.621
224.72
224.82
224.92
225.022
225.127
225.234
225.342
225.452
225.564
225.677
225.791
225.907
226.027
226.149
226.273
226.401
226.532
226.666
226.803
226.943
227.087
227.234
227.384
211.446
219.76
220.157
220.075
220.049
220.061
220.185
220.616
221.252
221.766
222.067
222.247
222.384
222.516
222.656
222.804
222.96
223.119
223.273
223.414
223.532
223.621
223.682
223.721
223.748
223.775
223.81
223.856
223.915
223.984
224.064
224.151
224.245
224.341
224.439
224.537
224.636
224.735
224.835
224.936
225.039
225.144
225.251
225.36
225.47
225.581
225.694
225.808
225.924
226.043
226.165
226.29
226.417
226.547
226.681
226.817
226.956
227.098
227.244
227.393
210.512
219.613
220.087
220.011
219.995
220.025
220.193
220.678
221.321
221.809
222.09
222.26
222.392
222.521
222.658
222.805
222.961
223.121
223.277
223.418
223.535
223.624
223.684
223.723
223.751
223.779
223.816
223.864
223.924
223.995
224.075
224.164
224.258
224.355
224.453
224.551
224.65
224.749
224.85
224.951
225.055
225.16
225.268
225.376
225.486
225.597
225.71
225.824
225.94
226.059
226.18
226.305
226.431
226.561
226.693
226.829
226.967
227.108
227.252
227.4
209.568
219.397
220.023
219.957
219.949
219.996
220.216
220.751
221.389
221.848
222.109
222.269
222.397
222.523
222.658
222.805
222.962
223.123
223.28
223.421
223.538
223.625
223.685
223.724
223.753
223.783
223.821
223.871
223.932
224.005
224.087
224.176
224.271
224.368
224.466
224.564
224.663
224.763
224.863
224.965
225.07
225.175
225.283
225.392
225.501
225.612
225.725
225.839
225.955
226.073
226.195
226.318
226.444
226.573
226.705
226.839
226.976
227.116
227.259
227.405
208.607
219.18
219.962
219.904
219.909
219.977
220.252
220.832
221.457
221.883
222.124
222.275
222.399
222.524
222.658
222.805
222.962
223.124
223.282
223.423
223.539
223.625
223.685
223.724
223.754
223.786
223.826
223.877
223.94
224.014
224.097
224.188
224.283
224.38
224.478
224.577
224.676
224.776
224.876
224.979
225.084
225.19
225.298
225.406
225.516
225.626
225.739
225.853
225.969
226.087
226.207
226.33
226.456
226.584
226.714
226.848
226.984
227.123
227.264
227.409
207.62
218.973
219.924
219.857
219.871
219.97
220.301
220.917
221.522
221.914
222.135
222.278
222.4
222.524
222.658
222.804
222.961
223.125
223.283
223.424
223.539
223.625
223.684
223.724
223.755
223.788
223.83
223.882
223.947
224.023
224.107
224.198
224.294
224.391
224.489
224.588
224.687
224.788
224.889
224.992
225.097
225.204
225.311
225.419
225.529
225.639
225.752
225.865
225.981
226.099
226.219
226.341
226.466
226.593
226.723
226.855
226.99
227.127
227.267
227.41
206.598
218.787
219.856
219.803
219.836
219.973
220.361
221.002
221.581
221.94
222.143
222.279
222.4
222.523
222.656
222.801
222.959
223.124
223.284
223.425
223.539
223.624
223.683
223.723
223.756
223.79
223.833
223.887
223.954
224.031
224.116
224.208
224.304
224.401
224.5
224.599
224.698
224.799
224.901
225.004
225.11
225.216
225.324
225.432
225.541
225.652
225.764
225.877
225.993
226.11
226.23
226.351
226.475
226.601
226.73
226.861
226.995
227.131
227.269
227.411
205.565
218.587
219.781
219.759
219.807
219.987
220.43
221.084
221.633
221.961
222.147
222.279
222.399
222.521
222.652
222.797
222.956
223.123
223.284
223.425
223.538
223.622
223.681
223.721
223.755
223.791
223.836
223.892
223.96
224.038
224.125
224.217
224.313
224.411
224.51
224.609
224.709
224.809
224.912
225.016
225.122
225.228
225.335
225.444
225.553
225.663
225.775
225.888
226.003
226.12
226.239
226.36
226.483
226.608
226.736
226.866
226.998
227.133
227.27
227.409
204.523
218.363
219.726
219.721
219.788
220.011
220.505
221.161
221.676
221.975
222.148
222.276
222.394
222.515
222.645
222.791
222.952
223.121
223.283
223.424
223.537
223.62
223.678
223.719
223.754
223.791
223.838
223.895
223.965
224.045
224.133
224.226
224.322
224.42
224.519
224.618
224.718
224.819
224.922
225.027
225.133
225.239
225.346
225.454
225.563
225.674
225.785
225.898
226.013
226.129
226.247
226.368
226.49
226.614
226.741
226.869
227
227.133
227.269
227.406
203.471
218.132
219.678
219.689
219.779
220.045
220.583
221.231
221.709
221.983
222.147
222.27
222.387
222.507
222.638
222.785
222.949
223.119
223.282
223.423
223.534
223.617
223.674
223.716
223.752
223.791
223.839
223.899
223.97
224.051
224.14
224.234
224.33
224.429
224.527
224.627
224.727
224.829
224.932
225.037
225.143
225.249
225.356
225.464
225.573
225.684
225.795
225.908
226.022
226.137
226.255
226.374
226.496
226.619
226.744
226.872
227.001
227.132
227.266
227.402
202.407
217.901
219.63
219.664
219.78
220.089
220.661
221.292
221.733
221.985
222.14
222.262
222.378
222.499
222.63
222.779
222.945
223.117
223.28
223.42
223.531
223.613
223.671
223.713
223.75
223.791
223.84
223.901
223.974
224.057
224.147
224.241
224.338
224.436
224.535
224.635
224.736
224.838
224.942
225.047
225.153
225.259
225.366
225.474
225.583
225.693
225.804
225.916
226.03
226.145
226.261
226.38
226.5
226.623
226.747
226.873
227.001
227.13
227.262
227.396
201.331
217.672
219.581
219.644
219.789
220.139
220.735
221.342
221.749
221.983
222.131
222.251
222.368
222.489
222.622
222.772
222.94
223.114
223.278
223.418
223.528
223.609
223.666
223.709
223.747
223.79
223.841
223.904
223.978
224.062
224.153
224.248
224.345
224.444
224.543
224.643
224.744
224.846
224.95
225.056
225.161
225.268
225.375
225.483
225.591
225.701
225.812
225.924
226.037
226.151
226.267
226.385
226.504
226.625
226.748
226.873
226.999
227.127
227.257
227.389
200.242
217.443
219.532
219.627
219.807
220.195
220.805
221.384
221.759
221.976
222.119
222.239
222.357
222.479
222.612
222.765
222.935
223.111
223.275
223.415
223.524
223.604
223.661
223.705
223.744
223.788
223.841
223.906
223.981
224.067
224.158
224.254
224.352
224.45
224.549
224.65
224.751
224.854
224.959
225.064
225.17
225.276
225.383
225.491
225.6
225.709
225.819
225.931
226.043
226.157
226.272
226.389
226.507
226.627
226.749
226.871
226.996
227.122
227.25
227.38
199.144
217.213
219.482
219.616
219.832
220.254
220.868
221.417
221.764
221.967
222.107
222.227
222.345
222.468
222.603
222.758
222.931
223.108
223.273
223.411
223.519
223.599
223.656
223.7
223.741
223.786
223.841
223.907
223.985
224.071
224.164
224.26
224.358
224.456
224.556
224.656
224.758
224.861
224.966
225.072
225.177
225.284
225.391
225.498
225.607
225.716
225.826
225.937
226.048
226.162
226.276
226.392
226.509
226.628
226.748
226.869
226.992
227.117
227.243
227.37
198.033
216.982
219.433
219.609
219.864
220.315
220.926
221.444
221.765
221.958
222.094
222.214
222.334
222.457
222.594
222.751
222.926
223.105
223.269
223.407
223.514
223.593
223.65
223.695
223.737
223.784
223.84
223.908
223.987
224.075
224.168
224.265
224.363
224.462
224.561
224.662
224.765
224.868
224.973
225.079
225.185
225.291
225.398
225.506
225.614
225.723
225.832
225.942
226.053
226.166
226.279
226.394
226.51
226.628
226.746
226.866
226.987
227.11
227.234
227.36
196.911
216.748
219.388
219.607
219.899
220.377
220.979
221.467
221.765
221.948
222.082
222.203
222.322
222.446
222.584
222.743
222.921
223.101
223.265
223.402
223.509
223.587
223.644
223.69
223.733
223.781
223.839
223.909
223.99
224.079
224.173
224.27
224.368
224.467
224.567
224.668
224.771
224.875
224.98
225.085
225.191
225.298
225.404
225.512
225.62
225.729
225.838
225.947
226.058
226.169
226.282
226.396
226.511
226.627
226.744
226.862
226.982
227.102
227.224
227.348
195.785
216.513
219.346
219.61
219.939
220.438
221.028
221.486
221.764
221.938
222.071
222.191
222.311
222.435
222.575
222.736
222.916
223.097
223.261
223.397
223.503
223.581
223.638
223.684
223.729
223.778
223.838
223.91
223.992
224.082
224.176
224.274
224.372
224.471
224.572
224.673
224.776
224.881
224.986
225.092
225.197
225.304
225.411
225.518
225.626
225.734
225.842
225.951
226.061
226.172
226.284
226.397
226.511
226.625
226.741
226.857
226.975
227.094
227.214
227.335
227.458
227.581
227.706
227.832
227.959
228.087
228.216
228.345
228.474
228.602
228.731
228.858
228.984
229.109
229.231
229.35
229.467
229.579
229.687
229.79
229.887
229.979
230.064
230.142
230.212
230.274
230.328
230.373
230.409
230.437
230.455
230.465
230.467
230.459
230.442
230.418
230.386
230.348
230.302
194.646
216.276
219.308
219.618
219.983
220.499
221.072
221.502
221.762
221.929
222.06
222.18
222.3
222.425
222.566
222.729
222.911
223.093
223.257
223.392
223.496
223.574
223.631
223.678
223.724
223.775
223.837
223.91
223.993
224.084
224.18
224.277
224.376
224.476
224.576
224.678
224.782
224.886
224.992
225.097
225.203
225.31
225.417
225.524
225.631
225.739
225.847
225.955
226.064
226.175
226.285
226.397
226.51
226.623
226.737
226.852
226.968
227.084
227.202
227.322
227.442
227.563
227.685
227.808
227.932
228.056
228.181
228.306
228.43
228.555
228.678
228.801
228.922
229.041
229.157
229.271
229.38
229.486
229.587
229.683
229.774
229.858
229.935
230.006
230.068
230.123
230.169
230.207
230.236
230.257
230.268
230.272
230.267
230.254
230.232
230.203
230.167
230.124
230.076
230.022
229.962
229.898
229.829
229.759
229.684
229.609
229.532
229.453
229.373
193.512
216.039
219.274
219.629
220.029
220.559
221.113
221.516
221.76
221.92
222.05
222.17
222.29
222.415
222.557
222.723
222.907
223.09
223.252
223.386
223.489
223.566
223.624
223.672
223.719
223.772
223.835
223.91
223.995
224.087
224.183
224.281
224.38
224.479
224.58
224.683
224.787
224.891
224.997
225.103
225.209
225.315
225.422
225.529
225.636
225.743
225.851
225.958
226.067
226.176
226.286
226.397
226.508
226.62
226.732
226.845
226.959
227.074
227.19
227.307
227.425
227.543
227.662
227.782
227.903
228.023
228.144
228.265
228.386
228.506
228.625
228.742
228.858
228.971
229.081
229.189
229.292
229.391
229.486
229.575
229.658
229.735
229.805
229.868
229.923
229.97
230.009
230.04
230.062
230.076
230.082
230.08
230.068
230.049
230.023
229.989
229.949
229.903
229.851
229.794
229.732
229.666
229.596
229.525
229.449
229.374
229.296
229.217
229.138
229.057
228.977
228.897
228.817
228.739
228.664
228.592
228.524
228.461
228.398
228.331
228.235
192.372
215.804
219.243
219.643
220.078
220.616
221.149
221.526
221.756
221.912
222.04
222.161
222.28
222.406
222.549
222.718
222.903
223.086
223.248
223.38
223.482
223.559
223.616
223.665
223.713
223.768
223.833
223.91
223.996
224.089
224.186
224.284
224.383
224.483
224.584
224.687
224.791
224.896
225.002
225.108
225.214
225.32
225.427
225.534
225.641
225.747
225.854
225.961
226.069
226.177
226.286
226.396
226.506
226.616
226.727
226.838
226.951
227.064
227.177
227.292
227.407
227.522
227.639
227.756
227.873
227.99
228.107
228.224
228.34
228.455
228.569
228.682
228.792
228.9
229.005
229.106
229.203
229.296
229.383
229.465
229.542
229.611
229.674
229.73
229.778
229.818
229.85
229.873
229.889
229.896
229.897
229.887
229.871
229.846
229.815
229.777
229.733
229.684
229.628
229.569
229.504
229.437
229.365
229.293
229.217
229.141
229.064
228.984
228.905
228.825
228.745
228.666
228.587
228.51
228.436
228.366
228.299
228.237
228.175
228.109
228.016
191.228
215.568
219.216
219.661
220.127
220.67
221.181
221.535
221.752
221.904
222.031
222.151
222.271
222.397
222.542
222.713
222.9
223.082
223.243
223.373
223.475
223.551
223.609
223.658
223.708
223.764
223.831
223.909
223.997
224.091
224.188
224.286
224.386
224.486
224.588
224.691
224.795
224.901
225.006
225.112
225.218
225.325
225.431
225.538
225.645
225.751
225.857
225.964
226.071
226.178
226.286
226.394
226.503
226.611
226.721
226.831
226.941
227.052
227.164
227.276
227.388
227.501
227.614
227.728
227.842
227.955
228.069
228.181
228.293
228.404
228.513
228.62
228.725
228.827
228.926
229.021
229.112
229.198
229.279
229.354
229.423
229.486
229.542
229.59
229.631
229.664
229.689
229.706
229.715
229.717
229.711
229.696
229.674
229.645
229.609
229.567
229.519
229.466
229.408
229.347
229.28
229.211
229.138
229.064
228.988
228.911
228.834
228.754
228.676
228.596
228.517
228.438
228.36
228.284
228.211
228.142
228.077
228.015
227.955
227.89
227.799
190.099
215.334
219.191
219.68
220.178
220.721
221.208
221.541
221.748
221.896
222.023
222.143
222.262
222.389
222.536
222.709
222.897
223.078
223.237
223.367
223.467
223.542
223.601
223.651
223.702
223.76
223.829
223.909
223.998
224.092
224.19
224.288
224.388
224.489
224.591
224.694
224.799
224.905
225.011
225.117
225.223
225.329
225.436
225.542
225.648
225.754
225.86
225.966
226.072
226.178
226.285
226.392
226.499
226.607
226.714
226.822
226.931
227.04
227.149
227.259
227.369
227.479
227.589
227.7
227.81
227.92
228.029
228.138
228.245
228.351
228.456
228.558
228.657
228.754
228.846
228.935
229.02
229.1
229.174
229.242
229.305
229.36
229.409
229.451
229.485
229.511
229.529
229.54
229.543
229.539
229.526
229.506
229.479
229.445
229.405
229.359
229.308
229.252
229.191
229.127
229.058
228.988
228.913
228.839
228.762
228.685
228.607
228.527
228.449
228.37
228.29
228.212
228.135
228.06
227.988
227.92
227.855
227.795
227.735
227.671
227.581
188.954
215.102
219.169
219.702
220.229
220.769
221.233
221.545
221.743
221.888
222.015
222.134
222.253
222.381
222.53
222.705
222.893
223.075
223.232
223.36
223.459
223.534
223.592
223.644
223.696
223.756
223.827
223.908
223.998
224.094
224.191
224.29
224.39
224.491
224.594
224.698
224.803
224.909
225.015
225.121
225.227
225.333
225.44
225.546
225.651
225.757
225.862
225.967
226.073
226.178
226.284
226.389
226.495
226.601
226.707
226.814
226.92
227.027
227.134
227.241
227.349
227.456
227.563
227.67
227.777
227.883
227.989
228.093
228.196
228.298
228.397
228.494
228.588
228.679
228.766
228.849
228.927
229
229.068
229.129
229.185
229.234
229.276
229.31
229.337
229.357
229.369
229.373
229.371
229.36
229.341
229.316
229.285
229.246
229.202
229.153
229.098
229.039
228.976
228.909
228.838
228.767
228.691
228.616
228.539
228.461
228.383
228.303
228.224
228.146
228.067
227.989
227.913
227.839
227.767
227.7
227.636
227.576
227.517
227.453
227.364
187.823
214.87
219.15
219.726
220.28
220.815
221.254
221.546
221.736
221.88
222.006
222.124
222.244
222.373
222.524
222.701
222.89
223.071
223.227
223.353
223.451
223.526
223.584
223.637
223.691
223.752
223.824
223.907
223.999
224.094
224.193
224.292
224.392
224.494
224.596
224.701
224.806
224.912
225.018
225.125
225.231
225.337
225.443
225.549
225.654
225.759
225.864
225.968
226.073
226.177
226.282
226.386
226.491
226.595
226.7
226.804
226.909
227.014
227.119
227.224
227.328
227.433
227.537
227.641
227.744
227.846
227.948
228.048
228.147
228.243
228.337
228.429
228.518
228.603
228.684
228.761
228.833
228.9
228.961
229.016
229.065
229.107
229.142
229.17
229.19
229.203
229.209
229.208
229.199
229.182
229.159
229.129
229.092
229.05
229.002
228.949
228.891
228.829
228.763
228.695
228.622
228.549
228.472
228.396
228.318
228.24
228.161
228.082
228.003
227.924
227.846
227.769
227.693
227.619
227.548
227.481
227.418
227.359
227.3
227.237
227.149
186.699
214.64
219.133
219.754
220.331
220.857
221.272
221.546
221.728
221.87
221.995
222.114
222.234
222.365
222.518
222.697
222.887
223.066
223.221
223.346
223.443
223.517
223.576
223.629
223.685
223.748
223.822
223.906
223.999
224.095
224.194
224.293
224.394
224.496
224.599
224.703
224.809
224.915
225.022
225.128
225.234
225.34
225.446
225.552
225.657
225.761
225.865
225.969
226.073
226.176
226.28
226.383
226.486
226.589
226.692
226.795
226.898
227
227.103
227.205
227.307
227.408
227.51
227.61
227.71
227.809
227.906
228.002
228.096
228.188
228.277
228.364
228.447
228.526
228.601
228.672
228.738
228.798
228.853
228.902
228.944
228.979
229.008
229.029
229.043
229.05
229.051
229.043
229.027
229.006
228.977
228.942
228.902
228.855
228.804
228.747
228.686
228.622
228.553
228.483
228.409
228.334
228.256
228.179
228.101
228.021
227.943
227.863
227.784
227.706
227.628
227.551
227.475
227.402
227.332
227.265
227.203
227.144
227.086
227.023
226.935
185.566
214.413
219.121
219.784
220.382
220.896
221.287
221.544
221.719
221.858
221.984
222.103
222.224
222.356
222.513
222.693
222.883
223.062
223.215
223.338
223.435
223.508
223.567
223.622
223.679
223.744
223.819
223.905
223.998
224.095
224.194
224.294
224.395
224.497
224.601
224.706
224.812
224.919
225.025
225.131
225.237
225.343
225.449
225.555
225.659
225.763
225.866
225.969
226.072
226.175
226.277
226.379
226.481
226.582
226.684
226.785
226.886
226.986
227.086
227.186
227.285
227.384
227.482
227.579
227.675
227.77
227.864
227.955
228.045
228.132
228.216
228.297
228.375
228.449
228.518
228.583
228.643
228.697
228.745
228.787
228.823
228.852
228.874
228.889
228.897
228.898
228.892
228.878
228.858
228.831
228.798
228.758
228.713
228.663
228.607
228.548
228.484
228.417
228.346
228.274
228.198
228.122
228.044
227.965
227.886
227.806
227.727
227.647
227.568
227.49
227.412
227.335
227.26
227.187
227.117
227.051
226.989
226.93
226.872
226.81
226.723
184.439
214.184
219.112
219.816
220.431
220.932
221.299
221.54
221.707
221.845
221.97
222.091
222.213
222.348
222.507
222.689
222.88
223.057
223.209
223.331
223.426
223.499
223.559
223.614
223.672
223.739
223.817
223.904
223.998
224.096
224.195
224.295
224.396
224.499
224.603
224.708
224.815
224.921
225.028
225.134
225.24
225.346
225.452
225.557
225.661
225.764
225.867
225.969
226.071
226.173
226.274
226.375
226.475
226.575
226.675
226.774
226.873
226.972
227.069
227.167
227.263
227.359
227.454
227.548
227.64
227.731
227.82
227.908
227.993
228.075
228.154
228.23
228.303
228.371
228.434
228.493
228.547
228.595
228.637
228.672
228.702
228.724
228.74
228.749
228.751
228.746
228.734
228.714
228.689
228.657
228.619
228.575
228.526
228.472
228.413
228.351
228.284
228.215
228.142
228.068
227.99
227.913
227.833
227.754
227.675
227.594
227.515
227.435
227.355
227.277
227.199
227.122
227.047
226.975
226.905
226.84
226.778
226.72
226.662
226.6
226.514
183.337
213.96
219.104
219.849
220.479
220.963
221.306
221.532
221.694
221.831
221.956
222.078
222.202
222.339
222.501
222.685
222.876
223.053
223.203
223.323
223.418
223.49
223.55
223.607
223.666
223.735
223.814
223.902
223.997
224.096
224.195
224.296
224.397
224.5
224.605
224.711
224.817
224.924
225.03
225.137
225.243
225.349
225.455
225.559
225.663
225.765
225.868
225.969
226.07
226.171
226.271
226.37
226.469
226.568
226.666
226.764
226.86
226.957
227.052
227.147
227.241
227.333
227.425
227.516
227.604
227.692
227.777
227.86
227.94
228.018
228.092
228.163
228.23
228.292
228.35
228.403
228.451
228.492
228.528
228.558
228.581
228.597
228.606
228.61
228.606
228.595
228.577
228.552
228.522
228.485
228.442
228.394
228.341
228.284
228.222
228.156
228.087
228.016
227.94
227.865
227.785
227.707
227.627
227.546
227.466
227.385
227.305
227.225
227.145
227.067
226.989
226.912
226.837
226.765
226.696
226.631
226.569
226.511
226.453
226.392
226.306
182.213
213.74
219.099
219.883
220.525
220.991
221.31
221.522
221.679
221.815
221.942
222.065
222.191
222.33
222.495
222.681
222.872
223.048
223.196
223.316
223.409
223.481
223.542
223.599
223.66
223.731
223.811
223.901
223.997
224.095
224.195
224.296
224.398
224.501
224.606
224.713
224.819
224.926
225.033
225.139
225.246
225.352
225.457
225.561
225.664
225.766
225.868
225.969
226.069
226.168
226.267
226.365
226.463
226.56
226.657
226.753
226.847
226.941
227.035
227.127
227.218
227.308
227.396
227.483
227.568
227.652
227.733
227.811
227.887
227.96
228.029
228.095
228.156
228.213
228.266
228.313
228.354
228.39
228.419
228.443
228.459
228.469
228.473
228.471
228.461
228.444
228.421
228.391
228.356
228.314
228.267
228.215
228.159
228.098
228.033
227.964
227.893
227.819
227.741
227.664
227.584
227.504
227.423
227.341
227.261
227.179
227.098
227.018
226.938
226.86
226.782
226.705
226.631
226.559
226.49
226.425
226.364
226.305
226.248
226.186
226.1
181.096
213.515
219.097
219.917
220.568
221.015
221.313
221.511
221.664
221.8
221.927
222.051
222.179
222.322
222.489
222.677
222.868
223.043
223.19
223.308
223.4
223.472
223.533
223.592
223.654
223.726
223.808
223.899
223.996
224.095
224.195
224.296
224.398
224.502
224.608
224.715
224.822
224.928
225.035
225.142
225.248
225.354
225.459
225.563
225.665
225.767
225.868
225.968
226.067
226.165
226.263
226.36
226.457
226.552
226.647
226.741
226.834
226.926
227.017
227.106
227.195
227.281
227.367
227.45
227.532
227.611
227.688
227.763
227.834
227.902
227.966
228.027
228.083
228.134
228.181
228.222
228.258
228.287
228.311
228.328
228.339
228.343
228.342
228.332
228.317
228.295
228.266
228.232
228.191
228.146
228.095
228.039
227.978
227.914
227.846
227.775
227.701
227.625
227.546
227.467
227.385
227.304
227.222
227.14
227.058
226.976
226.895
226.815
226.734
226.656
226.578
226.501
226.427
226.355
226.286
226.221
226.16
226.102
226.045
225.984
225.898
180.022
213.295
219.094
219.95
220.607
221.036
221.313
221.5
221.649
221.784
221.913
222.038
222.168
222.313
222.482
222.672
222.864
223.037
223.183
223.3
223.391
223.463
223.525
223.584
223.648
223.722
223.805
223.898
223.995
224.094
224.195
224.296
224.399
224.503
224.609
224.716
224.823
224.93
225.037
225.144
225.25
225.356
225.461
225.564
225.666
225.767
225.867
225.966
226.065
226.162
226.259
226.355
226.45
226.544
226.638
226.73
226.821
226.91
226.999
227.086
227.171
227.255
227.337
227.417
227.495
227.571
227.644
227.714
227.78
227.844
227.903
227.958
228.009
228.055
228.096
228.131
228.161
228.185
228.202
228.213
228.218
228.218
228.209
228.195
228.174
228.146
228.113
228.074
228.029
227.978
227.924
227.864
227.8
227.733
227.662
227.589
227.512
227.434
227.353
227.272
227.189
227.107
227.024
226.941
226.859
226.776
226.695
226.614
226.534
226.455
226.377
226.301
226.226
226.155
226.086
226.022
225.961
225.903
225.846
225.785
225.699
178.92
213.081
219.093
219.982
220.643
221.053
221.312
221.488
221.634
221.769
221.899
222.026
222.157
222.304
222.476
222.667
222.859
223.032
223.176
223.292
223.383
223.454
223.516
223.577
223.643
223.718
223.803
223.896
223.994
224.093
224.194
224.296
224.399
224.504
224.611
224.718
224.825
224.932
225.039
225.146
225.252
225.358
225.462
225.565
225.667
225.767
225.867
225.965
226.062
226.159
226.255
226.35
226.443
226.536
226.628
226.718
226.807
226.894
226.98
227.065
227.147
227.228
227.307
227.384
227.458
227.53
227.599
227.664
227.727
227.785
227.84
227.89
227.935
227.976
228.011
228.041
228.064
228.082
228.094
228.1
228.1
228.092
228.078
228.058
228.032
228
227.961
227.917
227.868
227.814
227.755
227.692
227.625
227.554
227.481
227.405
227.326
227.246
227.163
227.081
226.997
226.914
226.83
226.746
226.663
226.58
226.498
226.417
226.337
226.258
226.18
226.103
226.029
225.958
225.889
225.825
225.764
225.707
225.65
225.589
225.504
177.828
212.865
219.092
220.013
220.677
221.069
221.309
221.476
221.619
221.755
221.885
222.013
222.146
222.295
222.47
222.663
222.854
223.026
223.169
223.284
223.374
223.445
223.508
223.57
223.637
223.713
223.8
223.894
223.992
224.092
224.193
224.296
224.4
224.505
224.612
224.719
224.826
224.934
225.041
225.148
225.254
225.36
225.464
225.566
225.667
225.767
225.866
225.963
226.06
226.156
226.25
226.344
226.437
226.528
226.618
226.706
226.793
226.878
226.962
227.044
227.124
227.201
227.277
227.35
227.421
227.489
227.554
227.615
227.673
227.726
227.776
227.821
227.861
227.896
227.926
227.95
227.968
227.98
227.986
227.987
227.98
227.967
227.948
227.923
227.891
227.854
227.811
227.763
227.709
227.651
227.588
227.522
227.452
227.378
227.302
227.224
227.143
227.061
226.977
226.893
226.808
226.724
226.639
226.554
226.471
226.387
226.305
226.224
226.143
226.064
225.986
225.91
225.836
225.765
225.697
225.633
225.572
225.515
225.458
225.397
225.313
176.774
212.651
219.092
220.042
220.708
221.081
221.306
221.465
221.606
221.741
221.872
222.001
222.135
222.287
222.464
222.658
222.849
223.02
223.162
223.276
223.365
223.436
223.499
223.562
223.631
223.709
223.797
223.892
223.991
224.091
224.193
224.295
224.4
224.506
224.613
224.72
224.828
224.935
225.043
225.15
225.256
225.361
225.465
225.567
225.668
225.767
225.865
225.962
226.057
226.152
226.246
226.338
226.429
226.519
226.607
226.694
226.779
226.862
226.943
227.023
227.1
227.175
227.247
227.317
227.384
227.448
227.508
227.565
227.619
227.668
227.712
227.752
227.787
227.817
227.841
227.86
227.872
227.879
227.88
227.874
227.862
227.844
227.819
227.789
227.752
227.71
227.663
227.61
227.552
227.49
227.424
227.354
227.281
227.205
227.126
227.046
226.963
226.879
226.793
226.709
226.622
226.537
226.452
226.366
226.282
226.198
226.116
226.034
225.953
225.874
225.796
225.72
225.646
225.575
225.507
225.443
225.383
225.326
225.269
225.208
225.123
175.725
212.442
219.092
220.07
220.737
221.092
221.303
221.454
221.593
221.728
221.859
221.989
222.124
222.279
222.458
222.653
222.844
223.014
223.155
223.268
223.356
223.428
223.491
223.555
223.625
223.705
223.794
223.89
223.989
224.09
224.192
224.295
224.4
224.506
224.613
224.721
224.829
224.937
225.045
225.152
225.258
225.363
225.466
225.568
225.668
225.766
225.864
225.96
226.055
226.148
226.241
226.332
226.422
226.511
226.597
226.682
226.765
226.846
226.925
227.001
227.076
227.147
227.217
227.283
227.346
227.407
227.463
227.516
227.564
227.609
227.648
227.683
227.713
227.738
227.756
227.769
227.777
227.778
227.774
227.762
227.745
227.721
227.691
227.656
227.615
227.568
227.516
227.459
227.398
227.332
227.262
227.189
227.113
227.035
226.953
226.871
226.786
226.701
226.614
226.528
226.44
226.354
226.268
226.181
226.097
226.013
225.929
225.848
225.767
225.688
225.61
225.534
225.46
225.389
225.322
225.258
225.198
225.141
225.085
225.025
224.941
174.65
212.239
219.095
220.098
220.763
221.102
221.299
221.444
221.581
221.716
221.847
221.977
222.114
222.271
222.452
222.648
222.839
223.008
223.148
223.26
223.347
223.419
223.483
223.548
223.62
223.701
223.791
223.887
223.987
224.088
224.191
224.295
224.4
224.507
224.614
224.722
224.83
224.938
225.046
225.153
225.259
225.364
225.467
225.568
225.668
225.766
225.862
225.957
226.052
226.145
226.236
226.326
226.415
226.502
226.587
226.67
226.751
226.829
226.906
226.98
227.051
227.12
227.186
227.249
227.309
227.365
227.418
227.466
227.51
227.55
227.585
227.615
227.64
227.659
227.672
227.68
227.682
227.678
227.668
227.651
227.629
227.6
227.565
227.525
227.479