/*--------------------------------*- C++ -*----------------------------------*\
| =========                 |                                                 |
| \\      /  F ield         | OpenFOAM: The Open Source CFD Toolbox           |
|  \\    /   O peration     | Version:  2412                                  |
|   \\  /    A nd           | Website:  www.openfoam.com                      |
|    \\/     M anipulation  |                                                 |
\*---------------------------------------------------------------------------*/
FoamFile
{
    version     2.0;
    format      ascii;
    arch        "LSB;label=32;scalar=64";
    class       volScalarField;
    location    "0.005";
    object      rho;
}
// * * * * * * * * * * * * * * * * * * * * * * * * * * * * * * * * * * * * * //

dimensions      [1 -3 0 0 0 0 0];

internalField   nonuniform List<scalar> 
9771
(
0.0387881
0.0406987
0.0414723
0.0418972
0.0420874
0.0421304
0.0421331
0.042133
0.042133
0.042133
0.0387618
0.0406967
0.0414692
0.0418952
0.0420867
0.0421303
0.0421331
0.042133
0.042133
0.042133
0.0387358
0.0406949
0.0414662
0.0418932
0.0420861
0.0421303
0.0421331
0.042133
0.042133
0.042133
0.03871
0.0406933
0.0414632
0.0418913
0.0420854
0.0421302
0.0421331
0.042133
0.042133
0.042133
0.0386846
0.0406917
0.0414602
0.0418893
0.0420847
0.0421302
0.0421331
0.042133
0.042133
0.042133
0.0386592
0.0406901
0.0414572
0.0418873
0.042084
0.0421301
0.0421331
0.042133
0.042133
0.042133
0.0386341
0.0406887
0.0414542
0.0418853
0.0420833
0.0421301
0.0421331
0.042133
0.042133
0.042133
0.042133
0.042133
0.042133
0.042133
0.042133
0.042133
0.042133
0.042133
0.042133
0.042133
0.042133
0.042133
0.042133
0.042133
0.042133
0.042133
0.042133
0.042133
0.042133
0.042133
0.042133
0.042133
0.038609
0.0406874
0.0414512
0.0418833
0.0420826
0.04213
0.0421331
0.042133
0.042133
0.042133
0.042133
0.042133
0.042133
0.042133
0.042133
0.042133
0.042133
0.042133
0.042133
0.042133
0.042133
0.042133
0.042133
0.042133
0.042133
0.042133
0.042133
0.042133
0.042133
0.042133
0.042133
0.042133
0.042133
0.042133
0.0421337
0.0421615
0.0424128
0.0430108
0.0385838
0.0406861
0.0414482
0.0418813
0.0420819
0.04213
0.0421331
0.042133
0.042133
0.042133
0.042133
0.042133
0.042133
0.042133
0.042133
0.042133
0.042133
0.042133
0.042133
0.042133
0.042133
0.042133
0.042133
0.042133
0.042133
0.042133
0.042133
0.042133
0.042133
0.042133
0.042133
0.042133
0.042133
0.042133
0.0421337
0.0421609
0.0424093
0.0430043
0.0434673
0.0385615
0.0406849
0.0414452
0.0418792
0.0420812
0.0421299
0.0421331
0.042133
0.042133
0.042133
0.042133
0.042133
0.042133
0.042133
0.042133
0.042133
0.042133
0.042133
0.042133
0.042133
0.042133
0.042133
0.042133
0.042133
0.042133
0.042133
0.042133
0.042133
0.042133
0.042133
0.042133
0.042133
0.042133
0.042133
0.0421337
0.0421604
0.042406
0.0429982
0.0434588
0.0385416
0.0406841
0.0414422
0.0418772
0.0420804
0.0421298
0.0421331
0.042133
0.042133
0.042133
0.042133
0.042133
0.042133
0.042133
0.042133
0.042133
0.042133
0.042133
0.042133
0.042133
0.042133
0.042133
0.042133
0.042133
0.042133
0.042133
0.042133
0.042133
0.042133
0.042133
0.042133
0.042133
0.042133
0.042133
0.0421337
0.0421597
0.0424025
0.0429914
0.0434492
0.0385012
0.0406525
0.0413452
0.041808
0.0420518
0.0421244
0.0421328
0.042133
0.042133
0.042133
0.042133
0.042133
0.042133
0.042133
0.042133
0.042133
0.042133
0.042133
0.042133
0.042133
0.042133
0.042133
0.042133
0.042133
0.042133
0.042133
0.042133
0.042133
0.042133
0.042133
0.042133
0.042133
0.042133
0.042133
0.0421335
0.0421538
0.0423585
0.0429008
0.0433957
0.0435947
0.0436338
0.0436423
0.043674
0.0437689
0.0438267
0.043795
0.0437123
0.0436525
0.0436093
0.0435862
0.0435674
0.0435504
0.0435399
0.0435368
0.0435453
0.0435655
0.0435892
0.0436122
0.0436337
0.0436537
0.0436715
0.0436873
0.0437038
0.0437229
0.0437431
0.0437615
0.0437769
0.0437914
0.0438066
0.0438218
0.0438346
0.0438438
0.0438496
0.0438533
0.0438559
0.0438579
0.043859
0.0438595
0.043859
0.0385723
0.0406548
0.0411862
0.0416882
0.0420016
0.042115
0.0421324
0.042133
0.042133
0.042133
0.042133
0.042133
0.042133
0.042133
0.042133
0.042133
0.042133
0.042133
0.042133
0.042133
0.042133
0.042133
0.042133
0.042133
0.042133
0.042133
0.042133
0.042133
0.042133
0.042133
0.042133
0.042133
0.042133
0.042133
0.0421333
0.0421435
0.0422707
0.0427221
0.0433111
0.0436948
0.0438455
0.0438989
0.0438816
0.0437948
0.0436742
0.0435696
0.0434909
0.0434333
0.04339
0.0433582
0.043334
0.0433184
0.0433104
0.0433059
0.0433039
0.0433036
0.043303
0.0433
0.0432958
0.0432914
0.0432851
0.0432764
0.0432675
0.0432594
0.0432524
0.0432457
0.0432381
0.0432296
0.04322
0.0432084
0.0431939
0.0431762
0.043156
0.0431341
0.0431115
0.0430886
0.0430657
0.0430432
0.0430209
0.0386182
0.0405829
0.0410251
0.0415621
0.0419404
0.0421005
0.0421314
0.042133
0.042133
0.042133
0.042133
0.042133
0.042133
0.042133
0.042133
0.042133
0.042133
0.042133
0.042133
0.042133
0.042133
0.042133
0.042133
0.042133
0.042133
0.042133
0.042133
0.042133
0.042133
0.042133
0.042133
0.042133
0.042133
0.042133
0.0421331
0.0421361
0.042195
0.042533
0.0431991
0.0437666
0.0440278
0.0440437
0.0439488
0.0437
0.0434949
0.04337
0.0432883
0.0432301
0.0431791
0.0431331
0.0430977
0.0430838
0.0430816
0.0430798
0.0430724
0.0430613
0.0430488
0.0430361
0.0430254
0.0430153
0.0430039
0.0429898
0.0429744
0.0429591
0.0429443
0.0429297
0.0429148
0.0428994
0.0428825
0.0428629
0.0428399
0.0428138
0.042786
0.0427578
0.0427303
0.0427042
0.0426798
0.0426568
0.0426352
0.0386701
0.0405052
0.0408864
0.0414439
0.0418761
0.0420826
0.0421297
0.042133
0.042133
0.042133
0.042133
0.042133
0.042133
0.042133
0.042133
0.042133
0.042133
0.042133
0.042133
0.042133
0.042133
0.042133
0.042133
0.042133
0.042133
0.042133
0.042133
0.042133
0.042133
0.042133
0.042133
0.042133
0.042133
0.042133
0.042133
0.0421335
0.0421532
0.0423655
0.0430145
0.0436877
0.044003
0.0439911
0.0438699
0.0436024
0.0434081
0.0432576
0.0431516
0.0430881
0.0430369
0.0429809
0.042924
0.042892
0.0428823
0.0428841
0.0428809
0.0428676
0.0428468
0.0428241
0.0428057
0.0427926
0.0427825
0.0427709
0.0427559
0.0427379
0.0427182
0.0426973
0.0426751
0.0426531
0.0426333
0.042615
0.0425957
0.0425734
0.0425482
0.0425215
0.042495
0.0424701
0.0424472
0.0424263
0.0424068
0.0387151
0.0404175
0.0407583
0.0413317
0.0418103
0.0420619
0.0421275
0.042133
0.042133
0.042133
0.042133
0.042133
0.042133
0.042133
0.042133
0.042133
0.042133
0.042133
0.042133
0.042133
0.042133
0.042133
0.042133
0.042133
0.042133
0.042133
0.042133
0.042133
0.042133
0.042133
0.042133
0.042133
0.042133
0.042133
0.042133
0.0421331
0.0421393
0.0422555
0.0427799
0.0434685
0.0438401
0.0438114
0.0436861
0.0434987
0.0433686
0.0432283
0.043122
0.043052
0.0429996
0.0429409
0.0428729
0.0428125
0.0427789
0.0427668
0.042763
0.0427499
0.0427248
0.0426944
0.0426679
0.0426504
0.0426414
0.0426353
0.0426261
0.0426111
0.0425913
0.0425683
0.042542
0.0425141
0.0424895
0.0424718
0.0424587
0.0424452
0.0424287
0.0424094
0.0423888
0.0423686
0.0423498
0.0423324
0.0423163
0.0387466
0.0403279
0.0406408
0.0412266
0.0417452
0.0420398
0.0421247
0.0421329
0.042133
0.042133
0.042133
0.042133
0.042133
0.042133
0.042133
0.042133
0.042133
0.042133
0.042133
0.042133
0.042133
0.042133
0.042133
0.042133
0.042133
0.042133
0.042133
0.042133
0.042133
0.042133
0.042133
0.042133
0.042133
0.042133
0.042133
0.0421331
0.042136
0.0422022
0.0425669
0.0431478
0.0435303
0.0435287
0.0434625
0.0433909
0.0432907
0.0431788
0.0430951
0.0430369
0.0429912
0.0429357
0.0428692
0.0428035
0.0427589
0.0427341
0.0427214
0.042706
0.0426828
0.0426524
0.0426229
0.0426007
0.0425872
0.0425793
0.0425701
0.0425563
0.0425401
0.0425216
0.042499
0.0424726
0.0424482
0.0424311
0.0424211
0.0424139
0.0424052
0.0423929
0.0423776
0.0423617
0.0423471
0.0423346
0.0423236
0.0387573
0.0402371
0.0405317
0.041128
0.041682
0.0420175
0.0421217
0.0421328
0.042133
0.042133
0.042133
0.042133
0.042133
0.042133
0.042133
0.042133
0.042133
0.042133
0.042133
0.042133
0.042133
0.042133
0.042133
0.042133
0.042133
0.042133
0.042133
0.042133
0.042133
0.042133
0.042133
0.042133
0.042133
0.042133
0.042133
0.0421331
0.0421352
0.042179
0.0424179
0.0428262
0.0431471
0.0431898
0.0432058
0.043199
0.0431469
0.0430867
0.0430332
0.043
0.0429582
0.0429135
0.0428581
0.0428019
0.0427599
0.0427296
0.0427102
0.0426913
0.0426698
0.0426435
0.0426176
0.0425955
0.0425788
0.0425656
0.042552
0.0425378
0.0425254
0.0425136
0.0424988
0.0424796
0.0424593
0.0424432
0.0424322
0.0424244
0.0424163
0.042406
0.0423933
0.0423806
0.0423694
0.0423608
0.0423542
0.0387464
0.0401461
0.0404295
0.0410355
0.0416218
0.0419959
0.0421188
0.0421328
0.042133
0.042133
0.042133
0.042133
0.042133
0.042133
0.042133
0.042133
0.042133
0.042133
0.042133
0.042133
0.042133
0.042133
0.042133
0.042133
0.042133
0.042133
0.042133
0.042133
0.042133
0.042133
0.042133
0.042133
0.042133
0.042133
0.042133
0.0421331
0.0421346
0.0421643
0.0423203
0.0425868
0.0428123
0.0428653
0.042909
0.0429338
0.0429208
0.0429095
0.0428986
0.0428983
0.0428824
0.0428556
0.0428145
0.0427752
0.0427406
0.0427153
0.042696
0.0426777
0.0426572
0.0426345
0.0426131
0.0425937
0.0425779
0.0425647
0.0425527
0.0425418
0.0425322
0.0425226
0.0425107
0.0424957
0.0424794
0.0424657
0.0424561
0.04245
0.0424452
0.0424399
0.0424333
0.0424255
0.0424177
0.0424102
0.0424033
0.0387164
0.0400552
0.040333
0.0409492
0.0415654
0.0419762
0.0421162
0.0421327
0.042133
0.042133
0.042133
0.042133
0.042133
0.042133
0.042133
0.042133
0.042133
0.042133
0.042133
0.042133
0.042133
0.042133
0.042133
0.042133
0.042133
0.042133
0.042133
0.042133
0.042133
0.042133
0.042133
0.042133
0.042133
0.042133
0.042133
0.0421331
0.0421338
0.04215
0.0422447
0.0424258
0.0425898
0.0426326
0.0426641
0.0426786
0.0426631
0.0426564
0.0426714
0.0426981
0.0427114
0.0427091
0.0426939
0.0426796
0.042663
0.042652
0.0426377
0.0426252
0.0426083
0.0425922
0.0425764
0.0425625
0.0425511
0.0425421
0.0425338
0.0425256
0.0425162
0.0425064
0.0424963
0.0424859
0.0424758
0.0424671
0.0424605
0.0424558
0.0424519
0.042448
0.0424433
0.0424382
0.0424324
0.0424271
0.0424218
0.0386701
0.0399641
0.0402411
0.0408687
0.0415135
0.041959
0.0421142
0.0421326
0.042133
0.042133
0.042133
0.042133
0.042133
0.042133
0.042133
0.042133
0.042133
0.042133
0.042133
0.042133
0.042133
0.042133
0.042133
0.042133
0.042133
0.042133
0.042133
0.042133
0.042133
0.042133
0.042133
0.042133
0.042133
0.042133
0.042133
0.042133
0.0421332
0.0421387
0.0421836
0.0423016
0.0424356
0.0424909
0.0425229
0.042523
0.042473
0.0424434
0.0424433
0.0424547
0.0424665
0.0424731
0.0424773
0.0424829
0.0424861
0.0424888
0.042486
0.0424825
0.0424745
0.042468
0.0424602
0.0424546
0.0424484
0.0424442
0.042438
0.0424322
0.0424241
0.0424167
0.0424104
0.0424046
0.0423993
0.0423938
0.0423887
0.0423844
0.0423805
0.0423773
0.0423737
0.0423702
0.0423662
0.0423621
0.0423578
0.038609
0.0398718
0.0401518
0.0407933
0.0414663
0.0419448
0.0421128
0.0421326
0.042133
0.042133
0.042133
0.042133
0.042133
0.042133
0.042133
0.042133
0.042133
0.042133
0.042133
0.042133
0.042133
0.042133
0.042133
0.042133
0.042133
0.042133
0.042133
0.042133
0.042133
0.042133
0.042133
0.042133
0.042133
0.042133
0.042133
0.042133
0.0421331
0.0421339
0.0421466
0.0422044
0.0423055
0.0423829
0.042426
0.0424293
0.0423983
0.0423575
0.042328
0.0423099
0.0422936
0.0422785
0.0422688
0.0422631
0.0422616
0.0422605
0.042259
0.0422571
0.0422544
0.0422525
0.0422494
0.0422481
0.0422442
0.042242
0.042237
0.0422328
0.0422277
0.0422232
0.0422195
0.0422154
0.0422116
0.0422073
0.0422028
0.0421985
0.0421944
0.0421907
0.042187
0.0421832
0.0421793
0.0421753
0.0421711
0.0385326
0.0397761
0.0400626
0.040722
0.0414244
0.0419342
0.0421124
0.0421327
0.042133
0.042133
0.042133
0.042133
0.042133
0.042133
0.042133
0.042133
0.042133
0.042133
0.042133
0.042133
0.042133
0.042133
0.042133
0.042133
0.042133
0.042133
0.042133
0.042133
0.042133
0.042133
0.042133
0.042133
0.042133
0.042133
0.042133
0.042133
0.042133
0.0421331
0.0421346
0.0421498
0.0422013
0.0422741
0.0423315
0.0423526
0.0423525
0.0423316
0.0422978
0.0422721
0.0422481
0.0422259
0.0422032
0.0421807
0.0421589
0.042139
0.0421215
0.042106
0.0420927
0.0420813
0.0420708
0.0420619
0.0420531
0.0420453
0.0420373
0.04203
0.0420233
0.0420169
0.0420109
0.0420049
0.041999
0.0419933
0.0419876
0.0419822
0.0419769
0.0419719
0.041967
0.0419622
0.0419576
0.041953
0.0419487
0.0384387
0.0396741
0.0399713
0.0406548
0.0413895
0.0419282
0.0421127
0.0421327
0.042133
0.042133
0.042133
0.042133
0.042133
0.042133
0.042133
0.042133
0.042133
0.042133
0.042133
0.042133
0.042133
0.042133
0.042133
0.042133
0.042133
0.042133
0.042133
0.042133
0.042133
0.042133
0.042133
0.042133
0.042133
0.042133
0.042133
0.042133
0.042133
0.042133
0.0421331
0.0421346
0.0421468
0.0421834
0.0422341
0.0422737
0.042293
0.042296
0.042281
0.0422609
0.042242
0.0422251
0.0422072
0.0421893
0.0421697
0.042149
0.0421284
0.0421087
0.0420902
0.0420727
0.0420564
0.0420412
0.0420271
0.0420139
0.0420017
0.0419903
0.0419799
0.0419701
0.0419607
0.0419519
0.0419434
0.0419355
0.0419282
0.0419212
0.0419146
0.0419082
0.0419022
0.0418965
0.0418911
0.041886
0.0418812
0.0383257
0.0395641
0.0398782
0.0405946
0.0413645
0.0419269
0.0421133
0.0421327
0.042133
0.042133
0.042133
0.042133
0.042133
0.042133
0.042133
0.042133
0.042133
0.042133
0.042133
0.042133
0.042133
0.042133
0.042133
0.042133
0.042133
0.042133
0.042133
0.042133
0.042133
0.042133
0.042133
0.042133
0.042133
0.042133
0.042133
0.042133
0.042133
0.042133
0.042133
0.0421331
0.042134
0.0421411
0.0421623
0.0421936
0.0422223
0.04224
0.0422452
0.0422416
0.0422321
0.0422213
0.0422092
0.0421978
0.0421859
0.0421737
0.0421605
0.0421459
0.0421304
0.0421143
0.0420984
0.0420831
0.0420684
0.0420546
0.0420416
0.0420294
0.0420181
0.0420074
0.0419973
0.0419877
0.0419786
0.0419702
0.0419622
0.0419547
0.0419475
0.0419407
0.0419342
0.041928
0.0419222
0.0419168
0.0419116
0.0381981
0.0394505
0.0397891
0.0405473
0.0413518
0.0419278
0.042114
0.0421328
0.042133
0.042133
0.042133
0.042133
0.042133
0.042133
0.042133
0.042133
0.042133
0.042133
0.042133
0.042133
0.042133
0.042133
0.042133
0.042133
0.042133
0.042133
0.042133
0.042133
0.042133
0.042133
0.042133
0.042133
0.042133
0.042133
0.042133
0.042133
0.042133
0.042133
0.042133
0.042133
0.0421331
0.0421334
0.0421363
0.0421457
0.0421617
0.0421796
0.0421941
0.0422024
0.0422047
0.0422035
0.0421991
0.042193
0.0421861
0.0421794
0.0421726
0.042166
0.0421591
0.0421517
0.0421433
0.0421339
0.0421238
0.0421133
0.0421026
0.0420921
0.0420818
0.0420719
0.0420623
0.0420533
0.0420447
0.0420366
0.0420289
0.0420216
0.0420147
0.0420081
0.0420019
0.041996
0.0419904
0.0419851
0.0419801
0.0380749
0.0393485
0.039717
0.0405191
0.0413491
0.0419296
0.0421145
0.0421328
0.042133
0.042133
0.042133
0.042133
0.042133
0.042133
0.042133
0.042133
0.042133
0.042133
0.042133
0.042133
0.042133
0.042133
0.042133
0.042133
0.042133
0.042133
0.042133
0.042133
0.042133
0.042133
0.042133
0.042133
0.042133
0.042133
0.042133
0.042133
0.042133
0.042133
0.042133
0.042133
0.042133
0.042133
0.0421331
0.0421339
0.0421367
0.0421427
0.0421511
0.0421597
0.0421669
0.0421717
0.0421741
0.0421745
0.0421733
0.0421709
0.0421678
0.0421643
0.0421607
0.0421572
0.042154
0.0421508
0.0421477
0.0421444
0.0421407
0.0421366
0.0421321
0.0421273
0.0421222
0.0421169
0.0421117
0.0421065
0.0421013
0.0420963
0.0420915
0.0420868
0.0420823
0.042078
0.0420739
0.0420699
0.0420661
0.0379889
0.0392818
0.0396759
0.0405092
0.0413495
0.041931
0.0421147
0.0421328
0.042133
0.042133
0.042133
0.042133
0.042133
0.042133
0.042133
0.042133
0.042133
0.042133
0.042133
0.042133
0.042133
0.042133
0.042133
0.042133
0.042133
0.042133
0.042133
0.042133
0.042133
0.042133
0.042133
0.042133
0.042133
0.042133
0.042133
0.042133
0.042133
0.042133
0.042133
0.042133
0.042133
0.042133
0.042133
0.0421331
0.0421332
0.0421337
0.042135
0.0421375
0.0421407
0.0421442
0.0421475
0.0421502
0.0421521
0.0421531
0.0421533
0.042153
0.0421522
0.042151
0.0421496
0.0421482
0.0421466
0.0421451
0.0421437
0.0421424
0.0421412
0.0421401
0.042139
0.0421379
0.0421367
0.0421354
0.042134
0.0421326
0.042131
0.0421295
0.0421279
0.0421263
0.0421247
0.0421232
0.0421216
0.0379555
0.0392575
0.0396634
0.0405079
0.0413503
0.0419317
0.0421148
0.0421328
0.042133
0.042133
0.042133
0.042133
0.042133
0.042133
0.042133
0.042133
0.042133
0.042133
0.042133
0.042133
0.042133
0.042133
0.042133
0.042133
0.042133
0.042133
0.042133
0.042133
0.042133
0.042133
0.042133
0.042133
0.042133
0.042133
0.042133
0.042133
0.042133
0.042133
0.042133
0.042133
0.042133
0.042133
0.042133
0.042133
0.042133
0.042133
0.0421331
0.0421332
0.0421336
0.0421342
0.0421351
0.0421361
0.0421372
0.0421383
0.0421392
0.0421399
0.0421404
0.0421407
0.0421407
0.0421407
0.0421404
0.0421401
0.0421397
0.0421392
0.0421388
0.0421383
0.0421378
0.0421373
0.0421369
0.0421365
0.0421361
0.0421358
0.0421355
0.0421352
0.042135
0.0421347
0.0421345
0.0421343
0.042134
0.0379503
0.0392539
0.039662
0.0405079
0.041351
0.0419319
0.0421148
0.0421328
0.042133
0.042133
0.042133
0.042133
0.042133
0.042133
0.042133
0.042133
0.042133
0.042133
0.042133
0.042133
0.042133
0.042133
0.042133
0.042133
0.042133
0.042133
0.042133
0.042133
0.042133
0.042133
0.042133
0.042133
0.042133
0.042133
0.042133
0.042133
0.042133
0.042133
0.042133
0.042133
0.042133
0.042133
0.042133
0.042133
0.042133
0.042133
0.042133
0.042133
0.042133
0.0421331
0.0421331
0.0421332
0.0421333
0.0421335
0.0421337
0.0421339
0.0421342
0.0421344
0.0421346
0.0421347
0.0421349
0.042135
0.042135
0.0421351
0.0421351
0.042135
0.042135
0.0421349
0.0421348
0.0421347
0.0421346
0.0421345
0.0421344
0.0421343
0.0421342
0.0421341
0.042134
0.042134
0.0421339
0.0379501
0.0392538
0.0396619
0.040508
0.0413512
0.0419319
0.0421148
0.0421328
0.042133
0.042133
0.042133
0.042133
0.042133
0.042133
0.042133
0.042133
0.042133
0.042133
0.042133
0.042133
0.042133
0.042133
0.042133
0.042133
0.042133
0.042133
0.042133
0.042133
0.042133
0.042133
0.042133
0.042133
0.042133
0.042133
0.042133
0.042133
0.042133
0.042133
0.042133
0.042133
0.042133
0.042133
0.042133
0.042133
0.042133
0.042133
0.042133
0.042133
0.042133
0.042133
0.042133
0.042133
0.042133
0.042133
0.0421331
0.0421331
0.0421331
0.0421331
0.0421331
0.0421332
0.0421332
0.0421332
0.0421332
0.0421333
0.0421333
0.0421333
0.0421333
0.0421333
0.0421334
0.0421334
0.0421334
0.0421334
0.0421334
0.0421334
0.0421334
0.0421334
0.0421333
0.0421333
0.0421333
0.0379501
0.0392538
0.0396619
0.0405081
0.0413512
0.0419319
0.0421148
0.0421328
0.042133
0.042133
0.042133
0.042133
0.042133
0.042133
0.042133
0.042133
0.042133
0.042133
0.042133
0.042133
0.042133
0.042133
0.042133
0.042133
0.042133
0.042133
0.042133
0.042133
0.042133
0.042133
0.042133
0.042133
0.042133
0.042133
0.042133
0.042133
0.042133
0.042133
0.042133
0.042133
0.042133
0.042133
0.042133
0.042133
0.042133
0.042133
0.042133
0.042133
0.042133
0.042133
0.042133
0.042133
0.042133
0.042133
0.042133
0.042133
0.042133
0.042133
0.042133
0.042133
0.042133
0.042133
0.042133
0.042133
0.042133
0.042133
0.0421331
0.0421331
0.0421331
0.0421331
0.0421331
0.0421331
0.0421331
0.0421331
0.0421331
0.0421331
0.0421331
0.0421331
0.0421331
0.0379501
0.0392538
0.039662
0.0405082
0.0413512
0.0419319
0.0421148
0.0421328
0.042133
0.042133
0.042133
0.042133
0.042133
0.042133
0.042133
0.042133
0.042133
0.042133
0.042133
0.042133
0.042133
0.042133
0.042133
0.042133
0.042133
0.042133
0.042133
0.042133
0.042133
0.042133
0.042133
0.042133
0.042133
0.042133
0.042133
0.042133
0.042133
0.042133
0.042133
0.042133
0.042133
0.042133
0.042133
0.042133
0.042133
0.042133
0.042133
0.042133
0.042133
0.042133
0.042133
0.042133
0.042133
0.042133
0.042133
0.042133
0.042133
0.042133
0.042133
0.042133
0.042133
0.042133
0.042133
0.042133
0.042133
0.042133
0.042133
0.042133
0.042133
0.042133
0.042133
0.042133
0.042133
0.042133
0.042133
0.042133
0.042133
0.042133
0.042133
0.0379501
0.0392538
0.039662
0.0405082
0.0413512
0.0419319
0.0421148
0.0421328
0.042133
0.042133
0.042133
0.042133
0.042133
0.042133
0.042133
0.042133
0.042133
0.042133
0.042133
0.042133
0.042133
0.042133
0.042133
0.042133
0.042133
0.042133
0.042133
0.042133
0.042133
0.042133
0.042133
0.042133
0.042133
0.042133
0.042133
0.042133
0.042133
0.042133
0.042133
0.042133
0.042133
0.042133
0.042133
0.042133
0.042133
0.042133
0.042133
0.042133
0.042133
0.042133
0.042133
0.042133
0.042133
0.042133
0.042133
0.042133
0.042133
0.042133
0.042133
0.042133
0.042133
0.042133
0.042133
0.042133
0.042133
0.042133
0.042133
0.042133
0.042133
0.042133
0.042133
0.042133
0.042133
0.042133
0.042133
0.042133
0.042133
0.042133
0.042133
0.0379501
0.0392538
0.039662
0.0405082
0.0413512
0.0419319
0.0421148
0.0421328
0.042133
0.042133
0.042133
0.042133
0.042133
0.042133
0.042133
0.042133
0.042133
0.042133
0.042133
0.042133
0.042133
0.042133
0.042133
0.042133
0.042133
0.042133
0.042133
0.042133
0.042133
0.042133
0.042133
0.042133
0.042133
0.042133
0.042133
0.042133
0.042133
0.042133
0.042133
0.042133
0.042133
0.042133
0.042133
0.042133
0.042133
0.042133
0.042133
0.042133
0.042133
0.042133
0.042133
0.042133
0.042133
0.042133
0.042133
0.042133
0.042133
0.042133
0.042133
0.042133
0.042133
0.042133
0.042133
0.042133
0.042133
0.042133
0.042133
0.042133
0.042133
0.042133
0.042133
0.042133
0.042133
0.042133
0.042133
0.042133
0.042133
0.042133
0.042133
0.0379501
0.0392538
0.039662
0.0405082
0.0413512
0.0419319
0.0421148
0.0421328
0.042133
0.042133
0.042133
0.042133
0.042133
0.042133
0.042133
0.042133
0.042133
0.042133
0.042133
0.042133
0.042133
0.042133
0.042133
0.042133
0.042133
0.042133
0.042133
0.042133
0.042133
0.042133
0.042133
0.042133
0.042133
0.042133
0.042133
0.042133
0.042133
0.042133
0.042133
0.042133
0.042133
0.042133
0.042133
0.042133
0.042133
0.042133
0.042133
0.042133
0.042133
0.042133
0.042133
0.042133
0.042133
0.042133
0.042133
0.042133
0.042133
0.042133
0.042133
0.042133
0.042133
0.042133
0.042133
0.042133
0.042133
0.042133
0.042133
0.042133
0.042133
0.042133
0.042133
0.042133
0.042133
0.042133
0.042133
0.042133
0.042133
0.042133
0.042133
0.0379501
0.0392538
0.039662
0.0405082
0.0413512
0.0419319
0.0421148
0.0421328
0.042133
0.042133
0.042133
0.042133
0.042133
0.042133
0.042133
0.042133
0.042133
0.042133
0.042133
0.042133
0.042133
0.042133
0.042133
0.042133
0.042133
0.042133
0.042133
0.042133
0.042133
0.042133
0.042133
0.042133
0.042133
0.042133
0.042133
0.042133
0.042133
0.042133
0.042133
0.042133
0.042133
0.042133
0.042133
0.042133
0.042133
0.042133
0.042133
0.042133
0.042133
0.042133
0.042133
0.042133
0.042133
0.042133
0.042133
0.042133
0.042133
0.042133
0.042133
0.042133
0.042133
0.042133
0.042133
0.042133
0.042133
0.042133
0.042133
0.042133
0.042133
0.042133
0.042133
0.042133
0.042133
0.042133
0.042133
0.042133
0.042133
0.042133
0.042133
0.0379501
0.0392538
0.039662
0.0405082
0.0413512
0.0419319
0.0421148
0.0421328
0.042133
0.042133
0.042133
0.042133
0.042133
0.042133
0.042133
0.042133
0.042133
0.042133
0.042133
0.042133
0.042133
0.042133
0.042133
0.042133
0.042133
0.042133
0.042133
0.042133
0.042133
0.042133
0.042133
0.042133
0.042133
0.042133
0.042133
0.042133
0.042133
0.042133
0.042133
0.042133
0.042133
0.042133
0.042133
0.042133
0.042133
0.042133
0.042133
0.042133
0.042133
0.042133
0.042133
0.042133
0.042133
0.042133
0.042133
0.042133
0.042133
0.042133
0.042133
0.042133
0.042133
0.042133
0.042133
0.042133
0.042133
0.042133
0.042133
0.042133
0.042133
0.042133
0.042133
0.042133
0.042133
0.042133
0.042133
0.042133
0.042133
0.042133
0.042133
0.0379501
0.0392538
0.039662
0.0405082
0.0413512
0.0419319
0.0421148
0.0421328
0.042133
0.042133
0.042133
0.042133
0.042133
0.042133
0.042133
0.042133
0.042133
0.042133
0.042133
0.042133
0.042133
0.042133
0.042133
0.042133
0.042133
0.042133
0.042133
0.042133
0.042133
0.042133
0.042133
0.042133
0.042133
0.042133
0.042133
0.042133
0.042133
0.042133
0.042133
0.042133
0.042133
0.042133
0.042133
0.042133
0.042133
0.042133
0.042133
0.042133
0.042133
0.042133
0.042133
0.042133
0.042133
0.042133
0.042133
0.042133
0.042133
0.042133
0.042133
0.042133
0.042133
0.042133
0.042133
0.042133
0.042133
0.042133
0.042133
0.042133
0.042133
0.042133
0.042133
0.042133
0.042133
0.042133
0.042133
0.042133
0.042133
0.042133
0.042133
0.0379501
0.0392538
0.039662
0.0405082
0.0413512
0.0419319
0.0421148
0.0421328
0.042133
0.042133
0.042133
0.042133
0.042133
0.042133
0.042133
0.042133
0.042133
0.042133
0.042133
0.042133
0.042133
0.042133
0.042133
0.042133
0.042133
0.042133
0.042133
0.042133
0.042133
0.042133
0.042133
0.042133
0.042133
0.042133
0.042133
0.042133
0.042133
0.042133
0.042133
0.042133
0.042133
0.042133
0.042133
0.042133
0.042133
0.042133
0.042133
0.042133
0.042133
0.042133
0.042133
0.042133
0.042133
0.042133
0.042133
0.042133
0.042133
0.042133
0.042133
0.042133
0.042133
0.042133
0.042133
0.042133
0.042133
0.042133
0.042133
0.042133
0.042133
0.042133
0.042133
0.042133
0.042133
0.042133
0.042133
0.042133
0.042133
0.042133
0.042133
0.0379501
0.0392538
0.039662
0.0405082
0.0413512
0.0419319
0.0421148
0.0421328
0.042133
0.042133
0.042133
0.042133
0.042133
0.042133
0.042133
0.042133
0.042133
0.042133
0.042133
0.042133
0.042133
0.042133
0.042133
0.042133
0.042133
0.042133
0.042133
0.042133
0.042133
0.042133
0.042133
0.042133
0.042133
0.042133
0.042133
0.042133
0.042133
0.042133
0.042133
0.042133
0.042133
0.042133
0.042133
0.042133
0.042133
0.042133
0.042133
0.042133
0.042133
0.042133
0.042133
0.042133
0.042133
0.042133
0.042133
0.042133
0.042133
0.042133
0.042133
0.042133
0.042133
0.042133
0.042133
0.042133
0.042133
0.042133
0.042133
0.042133
0.042133
0.042133
0.042133
0.042133
0.042133
0.042133
0.042133
0.042133
0.042133
0.042133
0.042133
0.0379501
0.0392538
0.039662
0.0405082
0.0413512
0.0419319
0.0421148
0.0421328
0.042133
0.042133
0.042133
0.042133
0.042133
0.042133
0.042133
0.042133
0.042133
0.042133
0.042133
0.042133
0.042133
0.042133
0.042133
0.042133
0.042133
0.042133
0.042133
0.042133
0.042133
0.042133
0.042133
0.042133
0.042133
0.042133
0.042133
0.042133
0.042133
0.042133
0.042133
0.042133
0.042133
0.042133
0.042133
0.042133
0.042133
0.042133
0.042133
0.042133
0.042133
0.042133
0.042133
0.042133
0.042133
0.042133
0.042133
0.042133
0.042133
0.042133
0.042133
0.042133
0.042133
0.042133
0.042133
0.042133
0.042133
0.042133
0.042133
0.042133
0.042133
0.042133
0.042133
0.042133
0.042133
0.042133
0.042133
0.042133
0.042133
0.042133
0.042133
0.0379501
0.0392538
0.039662
0.0405082
0.0413512
0.0419319
0.0421148
0.0421328
0.042133
0.042133
0.042133
0.042133
0.042133
0.042133
0.042133
0.042133
0.042133
0.042133
0.042133
0.042133
0.042133
0.042133
0.042133
0.042133
0.042133
0.042133
0.042133
0.042133
0.042133
0.042133
0.042133
0.042133
0.042133
0.042133
0.042133
0.042133
0.042133
0.042133
0.042133
0.042133
0.042133
0.042133
0.042133
0.042133
0.042133
0.042133
0.042133
0.042133
0.042133
0.042133
0.042133
0.042133
0.042133
0.042133
0.042133
0.042133
0.042133
0.042133
0.042133
0.042133
0.042133
0.042133
0.042133
0.042133
0.042133
0.042133
0.042133
0.042133
0.042133
0.042133
0.042133
0.042133
0.042133
0.042133
0.042133
0.042133
0.042133
0.042133
0.042133
0.0379501
0.0392538
0.039662
0.0405082
0.0413512
0.0419319
0.0421148
0.0421328
0.042133
0.042133
0.042133
0.042133
0.042133
0.042133
0.042133
0.042133
0.042133
0.042133
0.042133
0.042133
0.042133
0.042133
0.042133
0.042133
0.042133
0.042133
0.042133
0.042133
0.042133
0.042133
0.042133
0.042133
0.042133
0.042133
0.042133
0.042133
0.042133
0.042133
0.042133
0.042133
0.042133
0.042133
0.042133
0.042133
0.042133
0.042133
0.042133
0.042133
0.042133
0.042133
0.042133
0.042133
0.042133
0.042133
0.042133
0.042133
0.042133
0.042133
0.042133
0.042133
0.042133
0.042133
0.042133
0.042133
0.042133
0.042133
0.042133
0.042133
0.042133
0.042133
0.042133
0.042133
0.042133
0.042133
0.042133
0.042133
0.042133
0.042133
0.042133
0.0379501
0.0392538
0.039662
0.0405082
0.0413512
0.0419319
0.0421148
0.0421328
0.042133
0.042133
0.042133
0.042133
0.042133
0.042133
0.042133
0.042133
0.042133
0.042133
0.042133
0.042133
0.042133
0.042133
0.042133
0.042133
0.042133
0.042133
0.042133
0.042133
0.042133
0.042133
0.042133
0.042133
0.042133
0.042133
0.042133
0.042133
0.042133
0.042133
0.042133
0.042133
0.042133
0.042133
0.042133
0.042133
0.042133
0.042133
0.042133
0.042133
0.042133
0.042133
0.042133
0.042133
0.042133
0.042133
0.042133
0.042133
0.042133
0.042133
0.042133
0.042133
0.042133
0.042133
0.042133
0.042133
0.042133
0.042133
0.042133
0.042133
0.042133
0.042133
0.042133
0.042133
0.042133
0.042133
0.042133
0.042133
0.042133
0.042133
0.042133
0.0379501
0.0392538
0.039662
0.0405082
0.0413512
0.0419319
0.0421148
0.0421328
0.042133
0.042133
0.042133
0.042133
0.042133
0.042133
0.042133
0.042133
0.042133
0.042133
0.042133
0.042133
0.042133
0.042133
0.042133
0.042133
0.042133
0.042133
0.042133
0.042133
0.042133
0.042133
0.042133
0.042133
0.042133
0.042133
0.042133
0.042133
0.042133
0.042133
0.042133
0.042133
0.042133
0.042133
0.042133
0.042133
0.042133
0.042133
0.042133
0.042133
0.042133
0.042133
0.042133
0.042133
0.042133
0.042133
0.042133
0.042133
0.042133
0.042133
0.042133
0.042133
0.042133
0.042133
0.042133
0.042133
0.042133
0.042133
0.042133
0.042133
0.042133
0.042133
0.042133
0.042133
0.042133
0.042133
0.042133
0.042133
0.042133
0.042133
0.042133
0.0379501
0.0392538
0.039662
0.0405082
0.0413512
0.0419319
0.0421148
0.0421328
0.042133
0.042133
0.042133
0.042133
0.042133
0.042133
0.042133
0.042133
0.042133
0.042133
0.042133
0.042133
0.042133
0.042133
0.042133
0.042133
0.042133
0.042133
0.042133
0.042133
0.042133
0.042133
0.042133
0.042133
0.042133
0.042133
0.042133
0.042133
0.042133
0.042133
0.042133
0.042133
0.042133
0.042133
0.042133
0.042133
0.042133
0.042133
0.042133
0.042133
0.042133
0.042133
0.042133
0.042133
0.042133
0.042133
0.042133
0.042133
0.042133
0.042133
0.042133
0.042133
0.042133
0.042133
0.042133
0.042133
0.042133
0.042133
0.042133
0.042133
0.042133
0.042133
0.042133
0.042133
0.042133
0.042133
0.042133
0.042133
0.042133
0.042133
0.042133
0.0379501
0.0392538
0.039662
0.0405082
0.0413512
0.0419319
0.0421148
0.0421328
0.042133
0.042133
0.042133
0.042133
0.042133
0.042133
0.042133
0.042133
0.042133
0.042133
0.042133
0.042133
0.042133
0.042133
0.042133