/*--------------------------------*- C++ -*----------------------------------*\
| =========                 |                                                 |
| \\      /  F ield         | OpenFOAM: The Open Source CFD Toolbox           |
|  \\    /   O peration     | Version:  2412                                  |
|   \\  /    A nd           | Website:  www.openfoam.com                      |
|    \\/     M anipulation  |                                                 |
\*---------------------------------------------------------------------------*/
FoamFile
{
    version     2.0;
    format      ascii;
    arch        "LSB;label=32;scalar=64";
    class       volScalarField;
    location    "0.044";
    object      p;
}
// * * * * * * * * * * * * * * * * * * * * * * * * * * * * * * * * * * * * * //

dimensions      [1 -1 -2 0 0 0 0];

internalField   nonuniform List<scalar> 
9831
(
1754.99
2496.48
1749.47
2494.6
2592.83
2609.91
2624.76
2636.3
2645.88
2654.52
2663.03
2671.65
2680.29
2688.72
2696.88
2704.81
2712.51
2719.94
2727.08
2733.9
2740.43
2746.71
2752.87
2759.06
2765.42
2771.96
2778.52
2784.86
2791
2797.21
2803.71
2810.45
2817.22
2823.89
2830.48
2837.02
2843.56
2850.07
2856.51
2862.8
2868.9
2874.81
2880.57
2886.19
2891.67
2896.98
2902.13
2907.1
2911.9
2916.53
2920.96
2925.19
1744.06
2492.74
2591.59
2608.79
2623.85
2635.56
2645.24
2653.95
2662.51
2671.18
2679.83
2688.29
2696.47
2704.42
2712.15
2719.6
2726.77
2733.61
2740.14
2746.44
2752.61
2758.82
2765.19
2771.74
2778.28
2784.62
2790.76
2796.97
2803.48
2810.21
2816.97
2823.64
2830.23
2836.77
2843.3
2849.8
2856.23
2862.51
2868.6
2874.51
2880.26
2885.87
2891.33
2896.64
2901.77
2906.73
2911.51
2916.13
2920.56
2924.77
2928.74
2932.45
1738.87
2490.88
2590.34
2607.69
2622.97
2634.84
2644.62
2653.4
2662.01
2670.71
2679.39
2687.86
2696.07
2704.04
2711.8
2719.27
2726.46
2733.31
2739.86
2746.17
2752.36
2758.58
2764.96
2771.51
2778.06
2784.39
2790.52
2796.74
2803.24
2809.97
2816.73
2823.4
2829.98
2836.51
2843.03
2849.53
2855.95
2862.22
2868.3
2874.2
2879.95
2885.55
2891
2896.28
2901.4
2906.35
2911.13
2915.73
2920.15
2924.35
2928.31
2932.01
2935.42
2938.53
1733.78
2489.04
2589.09
2606.59
2622.1
2634.15
2644.02
2652.86
2661.52
2670.26
2678.96
2687.45
2695.68
2703.67
2711.45
2718.95
2726.16
2733.03
2739.59
2745.91
2752.11
2758.35
2764.74
2771.29
2777.83
2784.16
2790.29
2796.5
2803.01
2809.74
2816.49
2823.15
2829.73
2836.26
2842.77
2849.26
2855.67
2861.93
2868
2873.9
2879.63
2885.22
2890.66
2895.93
2901.04
2905.97
2910.74
2915.34
2919.75
2923.94
2927.88
2931.56
2934.96
2938.06
2940.86
2943.34
2945.51
2947.35
2948.87
2950.05
2950.93
2951.44
2951.7
2951.57
2951.14
2950.41
2949.39
2948.1
2946.55
2944.75
2942.71
2940.47
2938.02
2935.37
2932.57
2929.65
2926.59
2923.42
2920.16
2916.83
2913.43
2909.99
2906.51
2903.03
2899.53
2896.05
2892.57
2889.13
2885.71
2882.34
2879.02
2875.76
2872.55
2869.41
2866.33
2863.33
2860.4
2857.54
2854.77
2852.07
2849.45
2846.91
2844.46
2842.08
2839.78
2837.56
2835.41
2833.35
2831.35
2829.44
2827.59
2825.81
2824.1
2822.46
2820.89
2819.38
2817.92
2816.66
2815.28
1728.91
2487.21
2587.83
2605.51
2621.26
2633.46
2643.43
2652.34
2661.05
2669.82
2678.54
2687.05
2695.29
2703.31
2711.11
2718.63
2725.86
2732.74
2739.32
2745.65
2751.86
2758.11
2764.52
2771.07
2777.61
2783.92
2790.05
2796.27
2802.78
2809.5
2816.25
2822.91
2829.48
2836
2842.51
2848.99
2855.39
2861.64
2867.71
2873.59
2879.32
2884.9
2890.32
2895.58
2900.67
2905.59
2910.35
2914.95
2919.35
2923.52
2927.46
2931.13
2934.51
2937.6
2940.39
2942.86
2945.02
2946.86
2948.38
2949.56
2950.45
2951
2951.25
2951.15
2950.73
2950.03
2949.05
2947.8
2946.3
2944.54
2942.57
2940.38
2937.98
2935.43
2932.72
2929.86
2926.88
2923.8
2920.63
2917.39
2914.08
2910.75
2907.37
2903.99
2900.6
2897.22
2893.85
2890.51
2887.21
2883.94
2880.73
2877.57
2874.46
2871.42
2868.45
2865.55
2862.72
2859.96
2857.28
2854.67
2852.15
2849.7
2847.33
2845.03
2842.82
2840.68
2838.61
2836.62
2834.7
2832.85
2831.08
2829.37
2827.72
2826.14
2824.63
2823.18
2821.78
2820.57
2819.25
2818.42
2815.94
1724.12
2485.4
2586.58
2604.44
2620.43
2632.8
2642.86
2651.83
2660.58
2669.39
2678.13
2686.65
2694.91
2702.95
2710.78
2718.32
2725.56
2732.46
2739.05
2745.39
2751.62
2757.88
2764.3
2770.86
2777.39
2783.7
2789.82
2796.04
2802.55
2809.27
2816.01
2822.67
2829.23
2835.75
2842.24
2848.71
2855.11
2861.35
2867.41
2873.29
2879.01
2884.57
2889.98
2895.22
2900.3
2905.22
2909.97
2914.55
2918.94
2923.11
2927.04
2930.69
2934.07
2937.15
2939.93
2942.4
2944.55
2946.39
2947.91
2949.1
2949.99
2950.59
2950.85
2950.76
2950.37
2949.71
2948.77
2947.57
2946.11
2944.42
2942.5
2940.36
2938.06
2935.58
2932.94
2930.18
2927.29
2924.3
2921.23
2918.09
2914.89
2911.65
2908.39
2905.11
2901.83
2898.56
2895.3
2892.07
2888.87
2885.72
2882.61
2879.56
2876.56
2873.63
2870.76
2867.96
2865.23
2862.58
2859.99
2857.48
2855.05
2852.69
2850.41
2848.2
2846.07
2844.01
2842.02
2840.11
2838.27
2836.49
2834.78
2833.14
2831.57
2830.05
2828.6
2827.2
2825.86
2824.73
2823.46
2822.69
2820.27
1719.56
2483.59
2585.31
2603.39
2619.62
2632.15
2642.3
2651.33
2660.13
2668.97
2677.73
2686.26
2694.54
2702.61
2710.45
2718.01
2725.27
2732.19
2738.79
2745.14
2751.38
2757.65
2764.08
2770.64
2777.17
2783.47
2789.59
2795.82
2802.32
2809.04
2815.78
2822.43
2828.98
2835.49
2841.98
2848.44
2854.83
2861.06
2867.11
2872.99
2878.69
2884.25
2889.64
2894.87
2899.93
2904.84
2909.58
2914.16
2918.54
2922.7
2926.62
2930.26
2933.63
2936.7
2939.47
2941.94
2944.09
2945.93
2947.46
2948.67
2949.56
2950.2
2950.47
2950.42
2950.07
2949.45
2948.55
2947.4
2946
2944.36
2942.5
2940.47
2938.24
2935.84
2933.29
2930.61
2927.82
2924.93
2921.96
2918.93
2915.83
2912.71
2909.56
2906.39
2903.22
2900.07
2896.92
2893.81
2890.73
2887.69
2884.69
2881.75
2878.86
2876.04
2873.28
2870.58
2867.95
2865.4
2862.91
2860.5
2858.16
2855.89
2853.7
2851.57
2849.52
2847.55
2845.64
2843.8
2842.03
2840.32
2838.68
2837.11
2835.6
2834.14
2832.75
2831.41
2830.12
2829.06
2827.84
2827.13
2824.79
1715.06
2481.8
2584.05
2602.34
2618.83
2631.52
2641.76
2650.85
2659.7
2668.56
2677.34
2685.89
2694.18
2702.26
2710.13
2717.71
2724.99
2731.92
2738.52
2744.89
2751.14
2757.43
2763.86
2770.43
2776.95
2783.24
2789.36
2795.59
2802.1
2808.81
2815.54
2822.18
2828.74
2835.24
2841.72
2848.17
2854.55
2860.77
2866.82
2872.68
2878.38
2883.92
2889.29
2894.51
2899.56
2904.46
2909.2
2913.77
2918.15
2922.3
2926.2
2929.83
2933.19
2936.26
2939.03
2941.49
2943.65
2945.5
2947.04
2948.27
2949.18
2949.83
2950.13
2950.12
2949.82
2949.23
2948.39
2947.3
2945.96
2944.39
2942.62
2940.65
2938.5
2936.19
2933.74
2931.16
2928.47
2925.69
2922.82
2919.9
2916.92
2913.91
2910.87
2907.83
2904.77
2901.74
2898.71
2895.72
2892.75
2889.83
2886.95
2884.12
2881.34
2878.63
2875.98
2873.39
2870.86
2868.41
2866.02
2863.71
2861.46
2859.29
2857.18
2855.15
2853.18
2851.28
2849.46
2847.69
2845.99
2844.36
2842.79
2841.28
2839.83
2838.44
2837.1
2835.82
2834.57
2833.6
2832.4
2831.75
2829.45
1710.79
2480.02
2582.77
2601.31
2618.06
2630.91
2641.23
2650.38
2659.27
2668.16
2676.95
2685.52
2693.83
2701.93
2709.81
2717.42
2724.71
2731.65
2738.27
2744.64
2750.9
2757.21
2763.65
2770.22
2776.73
2783.02
2789.14
2795.37
2801.87
2808.58
2815.31
2821.94
2828.49
2834.98
2841.46
2847.9
2854.27
2860.49
2866.52
2872.38
2878.06
2883.59
2888.95
2894.15
2899.19
2904.08
2908.82
2913.38
2917.75
2921.89
2925.78
2929.41
2932.76
2935.82
2938.59
2941.06
2943.23
2945.08
2946.64
2947.88
2948.82
2949.49
2949.83
2949.87
2949.6
2949.07
2948.29
2947.25
2945.98
2944.5
2942.8
2940.92
2938.86
2936.65
2934.29
2931.82
2929.24
2926.56
2923.81
2921.01
2918.15
2915.26
2912.34
2909.42
2906.49
2903.57
2900.67
2897.8
2894.95
2892.15
2889.39
2886.67
2884.01
2881.41
2878.87
2876.39
2873.97
2871.62
2869.33
2867.11
2864.96
2862.87
2860.86
2858.91
2857.03
2855.21
2853.46
2851.77
2850.14
2848.58
2847.08
2845.63
2844.24
2842.91
2841.63
2840.41
2839.21
2838.3
2837.13
2836.54
2834.29
1706.57
2478.25
2581.5
2600.3
2617.3
2630.31
2640.72
2649.92
2658.85
2667.77
2676.58
2685.16
2693.48
2701.6
2709.5
2717.12
2724.43
2731.38
2738.01
2744.39
2750.67
2756.99
2763.44
2770.01
2776.52
2782.8
2788.92
2795.14
2801.65
2808.36
2815.07
2821.7
2828.24
2834.73
2841.2
2847.63
2853.99
2860.2
2866.23
2872.07
2877.74
2883.25
2888.6
2893.78
2898.82
2903.7
2908.43
2912.99
2917.35
2921.49
2925.37
2928.99
2932.34
2935.4
2938.17
2940.64
2942.81
2944.69
2946.26
2947.53
2948.5
2949.19
2949.57
2949.65
2949.44
2948.97
2948.25
2947.27
2946.09
2944.68
2943.07
2941.28
2939.32
2937.21
2934.96
2932.59
2930.12
2927.57
2924.94
2922.25
2919.51
2916.75
2913.95
2911.16
2908.35
2905.56
2902.78
2900.04
2897.31
2894.63
2891.99
2889.4
2886.85
2884.37
2881.93
2879.56
2877.25
2875
2872.82
2870.7
2868.64
2866.65
2864.73
2862.87
2861.07
2859.33
2857.66
2856.05
2854.49
2853
2851.56
2850.18
2848.86
2847.58
2846.37
2845.23
2844.07
2843.19
2842.07
2841.56
2839.36
1702.57
2476.48
2580.22
2599.3
2616.56
2629.72
2640.21
2649.48
2658.45
2667.39
2676.22
2684.8
2693.14
2701.28
2709.2
2716.84
2724.16
2731.12
2737.76
2744.15
2750.44
2756.77
2763.23
2769.8
2776.3
2782.58
2788.69
2794.92
2801.43
2808.13
2814.84
2821.46
2828
2834.48
2840.94
2847.37
2853.71
2859.91
2865.93
2871.76
2877.42
2882.91
2888.24
2893.42
2898.45
2903.33
2908.05
2912.61
2916.96
2921.08
2924.96
2928.58
2931.92
2934.98
2937.75
2940.23
2942.42
2944.31
2945.9
2947.2
2948.2
2948.92
2949.35
2949.48
2949.33
2948.92
2948.25
2947.37
2946.25
2944.93
2943.42
2941.72
2939.86
2937.86
2935.72
2933.47
2931.12
2928.69
2926.18
2923.62
2921.01
2918.38
2915.72
2913.05
2910.38
2907.72
2905.07
2902.45
2899.85
2897.3
2894.78
2892.3
2889.88
2887.51
2885.19
2882.93
2880.72
2878.58
2876.5
2874.47
2872.51
2870.62
2868.78
2867
2865.29
2863.63
2862.04
2860.5
2859.02
2857.59
2856.22
2854.9
2853.63
2852.42
2851.26
2850.2
2849.08
2848.23
2847.17
2846.72
2844.57
1698.62
2474.73
2578.94
2598.31
2615.84
2629.15
2639.72
2649.04
2658.06
2667.02
2675.86
2684.46
2692.81
2700.96
2708.9
2716.55
2723.89
2730.86
2737.51
2743.91
2750.22
2756.55
2763.02
2769.6
2776.09
2782.36
2788.47
2794.71
2801.21
2807.9
2814.61
2821.22
2827.75
2834.22
2840.68
2847.1
2853.44
2859.62
2865.63
2871.45
2877.1
2882.57
2887.89
2893.05
2898.07
2902.95
2907.67
2912.22
2916.57
2920.68
2924.55
2928.17
2931.5
2934.57
2937.34
2939.83
2942.04
2943.95
2945.56
2946.9
2947.93
2948.69
2949.16
2949.35
2949.26
2948.91
2948.34
2947.52
2946.5
2945.27
2943.85
2942.26
2940.51
2938.61
2936.6
2934.47
2932.24
2929.93
2927.55
2925.12
2922.65
2920.14
2917.62
2915.08
2912.54
2910.02
2907.5
2905.01
2902.54
2900.11
2897.72
2895.37
2893.07
2890.81
2888.61
2886.46
2884.37
2882.33
2880.35
2878.43
2876.57
2874.76
2873.02
2871.33
2869.7
2868.12
2866.61
2865.14
2863.73
2862.38
2861.07
2859.82
2858.62
2857.46
2856.36
2855.37
2854.29
2853.47
2852.47
2852.08
2849.98
1694.89
2472.98
2577.66
2597.33
2615.14
2628.6
2639.25
2648.62
2657.67
2666.66
2675.51
2684.12
2692.48
2700.65
2708.61
2716.28
2723.62
2730.61
2737.27
2743.68
2749.99
2756.34
2762.82
2769.39
2775.88
2782.15
2788.26
2794.49
2800.99
2807.68
2814.37
2820.98
2827.5
2833.97
2840.42
2846.83
2853.16
2859.33
2865.33
2871.14
2876.77
2882.23
2887.53
2892.69
2897.7
2902.57
2907.29
2911.83
2916.17
2920.28
2924.15
2927.76
2931.1
2934.16
2936.95
2939.45
2941.67
2943.6
2945.25
2946.61
2947.69
2948.49
2949.01
2949.27
2949.24
2948.96
2948.46
2947.74
2946.8
2945.67
2944.35
2942.87
2941.23
2939.46
2937.56
2935.56
2933.46
2931.29
2929.05
2926.75
2924.42
2922.05
2919.66
2917.27
2914.87
2912.48
2910.1
2907.74
2905.41
2903.11
2900.84
2898.62
2896.43
2894.3
2892.21
2890.17
2888.19
2886.26
2884.38
2882.56
2880.79
2879.08
2877.43
2875.82
2874.28
2872.78
2871.34
2869.95
2868.61
2867.33
2866.09
2864.9
2863.75
2862.65
2861.6
2860.67
2859.65
2858.86
2857.92
2857.59
2855.54
1691.19
2471.24
2576.38
2596.37
2614.45
2628.05
2638.78
2648.21
2657.3
2666.31
2675.17
2683.79
2692.17
2700.35
2708.32
2716
2723.36
2730.36
2737.02
2743.45
2749.77
2756.13
2762.62
2769.19
2775.68
2781.93
2788.04
2794.27
2800.78
2807.46
2814.14
2820.74
2827.26
2833.72
2840.16
2846.56
2852.88
2859.04
2865.02
2870.82
2876.44
2881.89
2887.17
2892.32
2897.33
2902.2
2906.91
2911.45
2915.78
2919.89
2923.75
2927.35
2930.69
2933.76
2936.56
2939.08
2941.32
2943.28
2944.96
2946.36
2947.48
2948.32
2948.9
2949.23
2949.28
2949.07
2948.65
2948.02
2947.18
2946.15
2944.94
2943.57
2942.06
2940.41
2938.64
2936.77
2934.8
2932.77
2930.66
2928.51
2926.31
2924.09
2921.84
2919.59
2917.33
2915.07
2912.83
2910.61
2908.41
2906.25
2904.11
2902.01
2899.95
2897.94
2895.97
2894.05
2892.18
2890.36
2888.58
2886.86
2885.2
2883.58
2882.02
2880.5
2879.04
2877.63
2876.27
2874.96
2873.69
2872.47
2871.3
2870.17
2869.09
2868.06
2867.05
2866.19
2865.21
2864.47
2863.59
2863.31
2861.32
1687.71
2469.51
2575.09
2595.42
2613.78
2627.52
2638.33
2647.8
2656.93
2665.97
2674.84
2683.46
2691.85
2700.05
2708.04
2715.73
2723.11
2730.11
2736.78
2743.22
2749.55
2755.93
2762.42
2768.99
2775.47
2781.72
2787.83
2794.06
2800.56
2807.23
2813.91
2820.51
2827.02
2833.47
2839.9
2846.3
2852.6
2858.75
2864.72
2870.5
2876.1
2881.54
2886.81
2891.95
2896.95
2901.82
2906.53
2911.06
2915.39
2919.49
2923.35
2926.95
2930.3
2933.37
2936.18
2938.72
2940.98
2942.97
2944.69
2946.13
2947.29
2948.19
2948.83
2949.22
2949.35
2949.22
2948.89
2948.35
2947.62
2946.7
2945.6
2944.35
2942.96
2941.44
2939.8
2938.07
2936.25
2934.35
2932.4
2930.39
2928.34
2926.26
2924.16
2922.05
2919.94
2917.83
2915.73
2913.65
2911.59
2909.56
2907.55
2905.58
2903.65
2901.76
2899.91
2898.1
2896.34
2894.63
2892.96
2891.34
2889.77
2888.25
2886.78
2885.35
2883.97
2882.64
2881.35
2880.12
2878.92
2877.77
2876.66
2875.6
2874.58
2873.6
2872.65
2871.84
2870.91
2870.21
2869.38
2869.16
2867.21
1684.26
2467.78
2573.8
2594.48
2613.12
2627.01
2637.89
2647.41
2656.58
2665.63
2674.51
2683.15
2691.55
2699.76
2707.76
2715.47
2722.85
2729.86
2736.55
2742.99
2749.34
2755.72
2762.22
2768.79
2775.26
2781.51
2787.61
2793.85
2800.34
2807.01
2813.68
2820.27
2826.77
2833.22
2839.65
2846.03
2852.32
2858.46
2864.41
2870.18
2875.77
2881.19
2886.45
2891.58
2896.58
2901.45
2906.15
2910.68
2915
2919.1
2922.95
2926.56
2929.9
2932.99
2935.82
2938.37
2940.67
2942.69
2944.44
2945.92
2947.14
2948.09
2948.79
2949.26
2949.48
2949.43
2949.2
2948.76
2948.13
2947.32
2946.35
2945.22
2943.96
2942.57
2941.08
2939.48
2937.8
2936.05
2934.24
2932.38
2930.48
2928.55
2926.6
2924.64
2922.68
2920.71
2918.76
2916.82
2914.9
2913
2911.13
2909.3
2907.49
2905.72
2904
2902.31
2900.66
2899.06
2897.5
2895.98
2894.51
2893.09
2891.71
2890.37
2889.08
2887.83
2886.63
2885.47
2884.35
2883.27
2882.23
2881.23
2880.27
2879.35
2878.46
2877.71
2876.84
2876.18
2875.41
2875.24
2873.35
1681.01
2466.06
2572.5
2593.56
2612.48
2626.5
2637.46
2647.03
2656.23
2665.3
2674.19
2682.83
2691.24
2699.47
2707.48
2715.2
2722.6
2729.62
2736.31
2742.76
2749.12
2755.52
2762.02
2768.59
2775.06
2781.3
2787.4
2793.63
2800.13
2806.79
2813.45
2820.03
2826.53
2832.98
2839.39
2845.76
2852.04
2858.16
2864.1
2869.85
2875.43
2880.83
2886.09
2891.21
2896.21
2901.07
2905.78
2910.3
2914.61
2918.7
2922.56
2926.16
2929.52
2932.62
2935.46
2938.04
2940.36
2942.42
2944.21
2945.74
2947.01
2948.02
2948.78
2949.33
2949.64
2949.7
2949.54
2949.21
2948.69
2948
2947.16
2946.16
2945.03
2943.79
2942.43
2940.99
2939.46
2937.86
2936.21
2934.5
2932.76
2930.98
2929.19
2927.38
2925.57
2923.75
2921.95
2920.15
2918.37
2916.62
2914.88
2913.18
2911.5
2909.86
2908.25
2906.68
2905.15
2903.66
2902.21
2900.79
2899.42
2898.09
2896.81
2895.56
2894.35
2893.18
2892.06
2890.97
2889.92
2888.91
2887.94
2887
2886.11
2885.24
2884.4
2883.71
2882.88
2882.27
2881.54
2881.39
2879.58
1677.79
2464.34
2571.21
2592.65
2611.86
2626.01
2637.03
2646.66
2655.89
2664.98
2673.88
2682.53
2690.95
2699.18
2707.21
2714.95
2722.35
2729.38
2736.08
2742.54
2748.91
2755.32
2761.83
2768.4
2774.86
2781.09
2787.19
2793.42
2799.91
2806.57
2813.22
2819.8
2826.29
2832.73
2839.13
2845.49
2851.75
2857.86
2863.79
2869.53
2875.08
2880.48
2885.73
2890.84
2895.84
2900.7
2905.4
2909.91
2914.22
2918.31
2922.16
2925.77
2929.14
2932.25
2935.11
2937.72
2940.07
2942.17
2944
2945.58
2946.91
2947.99
2948.83
2949.45
2949.85
2950.01
2949.96
2949.73
2949.33
2948.77
2948.05
2947.19
2946.2
2945.1
2943.89
2942.6
2941.22
2939.78
2938.28
2936.73
2935.14
2933.53
2931.89
2930.23
2928.57
2926.91
2925.25
2923.61
2921.97
2920.36
2918.76
2917.19
2915.65
2914.14
2912.65
2911.21
2909.79
2908.41
2907.07
2905.76
2904.49
2903.26
2902.07
2900.91
2899.8
2898.71
2897.67
2896.66
2895.69
2894.75
2893.85
2892.98
2892.15
2891.34
2890.55
2889.93
2889.16
2888.6
2887.91
2887.79
2886.08
1674.77
2462.63
2569.91
2591.75
2611.25
2625.53
2636.62
2646.29
2655.56
2664.67
2673.58
2682.23
2690.66
2698.91
2706.95
2714.69
2722.11
2729.15
2735.85
2742.32
2748.7
2755.12
2761.63
2768.2
2774.66
2780.88
2786.98
2793.21
2799.7
2806.35
2812.99
2819.56
2826.05
2832.48
2838.87
2845.22
2851.46
2857.56
2863.47
2869.19
2874.74
2880.12
2885.36
2890.48
2895.47
2900.32
2905.02
2909.53
2913.83
2917.92
2921.77
2925.39
2928.76
2931.89
2934.77
2937.41
2939.8
2941.93
2943.81
2945.45
2946.83
2947.98
2948.9
2949.6
2950.09
2950.36
2950.42
2950.3
2950.02
2949.58
2949
2948.28
2947.44
2946.48
2945.43
2944.29
2943.08
2941.8
2940.46
2939.08
2937.65
2936.2
2934.72
2933.23
2931.73
2930.22
2928.72
2927.22
2925.73
2924.26
2922.81
2921.37
2919.96
2918.58
2917.22
2915.89
2914.59
2913.33
2912.09
2910.89
2909.73
2908.59
2907.49
2906.43
2905.4
2904.4
2903.43
2902.5
2901.6
2900.73
2899.89
2899.09
2898.32
2897.57
2896.84
2896.28
2895.55
2895.04
2894.4
2894.3
2892.69
1671.78
2460.91
2568.61
2590.87
2610.65
2625.06
2636.22
2645.94
2655.23
2664.36
2673.28
2681.94
2690.37
2698.63
2706.68
2714.44
2721.87
2728.91
2735.62
2742.1
2748.49
2754.92
2761.44
2768.01
2774.46
2780.68
2786.77
2793
2799.49
2806.13
2812.76
2819.33
2825.81
2832.23
2838.61
2844.94
2851.18
2857.26
2863.15
2868.86
2874.39
2879.76
2885
2890.11
2895.1
2899.95
2904.64
2909.15
2913.45
2917.53
2921.38
2925
2928.39
2931.53
2934.44
2937.11
2939.53
2941.71
2943.64
2945.34
2946.79
2948.01
2949.01
2949.8
2950.38
2950.76
2950.94
2950.94
2950.78
2950.48
2950.03
2949.46
2948.77
2947.97
2947.07
2946.09
2945.04
2943.92
2942.75
2941.53
2940.27
2938.98
2937.66
2936.33
2934.99
2933.64
2932.29
2930.95
2929.61
2928.29
2926.97
2925.68
2924.4
2923.15
2921.92
2920.72
2919.54
2918.39
2917.27
2916.17
2915.11
2914.08
2913.08
2912.1
2911.16
2910.25
2909.37
2908.52
2907.69
2906.9
2906.13
2905.4
2904.7
2904.01
2903.35
2902.85
2902.17
2901.71
2901.12
2901.04
2899.55
1668.97
2459.2
2567.31
2590
2610.07
2624.6
2635.83
2645.59
2654.92
2664.06
2672.99
2681.65
2690.09
2698.36
2706.43
2714.19
2721.63
2728.68
2735.4
2741.88
2748.29
2754.72
2761.25
2767.82
2774.26
2780.47
2786.56
2792.79
2799.27
2805.9
2812.54
2819.09
2825.57
2831.98
2838.35
2844.67
2850.88
2856.95
2862.83
2868.52
2874.04
2879.4
2884.63
2889.74
2894.73
2899.58
2904.26
2908.76
2913.06
2917.14
2920.99
2924.62
2928.02
2931.19
2934.12
2936.82
2939.29
2941.51
2943.49
2945.25
2946.77
2948.06
2949.14
2950.03
2950.71
2951.19
2951.5
2951.63
2951.59
2951.42
2951.12
2950.69
2950.16
2949.52
2948.78
2947.97
2947.08
2946.14
2945.14
2944.09
2943
2941.88
2940.74
2939.58
2938.4
2937.21
2936.02
2934.83
2933.65
2932.47
2931.3
2930.15
2929.01
2927.89
2926.78
2925.7
2924.64
2923.61
2922.6
2921.61
2920.65
2919.72
2918.81
2917.93
2917.08
2916.25
2915.45
2914.68
2913.93
2913.2
2912.51
2911.84
2911.19
2910.58
2909.97
2909.53
2908.88
2908.47
2907.92
2907.86
2906.46
1666.19
2457.48
2566.01
2589.15
2609.5
2624.15
2635.44
2645.25
2654.61
2663.77
2672.7
2681.37
2689.82
2698.1
2706.17
2713.95
2721.39
2728.45
2735.18
2741.67
2748.08
2754.53
2761.06
2767.62
2774.06
2780.27
2786.36
2792.59
2799.06
2805.68
2812.31
2818.86
2825.33
2831.74
2838.09
2844.39
2850.59
2856.64
2862.5
2868.19
2873.69
2879.04
2884.26
2889.37
2894.36
2899.2
2903.88
2908.38
2912.67
2916.75
2920.61
2924.25
2927.66
2930.85
2933.81
2936.55
2939.05
2941.32
2943.36
2945.18
2946.77
2948.14
2949.32
2950.3
2951.08
2951.67
2952.1
2952.37
2952.48
2952.44
2952.28
2952.02
2951.64
2951.16
2950.59
2949.95
2949.23
2948.46
2947.63
2946.75
2945.83
2944.88
2943.91
2942.91
2941.9
2940.88
2939.85
2938.82
2937.78
2936.76
2935.74
2934.73
2933.73
2932.74
2931.77
2930.82
2929.88
2928.96
2928.07
2927.19
2926.34
2925.51
2924.7
2923.92
2923.15
2922.41
2921.7
2921
2920.33
2919.69
2919.06
2918.46
2917.88
2917.35
2916.79
2916.4
2915.8
2915.45
2914.95
2914.9
2913.62
1663.59
2455.76
2564.7
2588.31
2608.94
2623.71
2635.07
2644.92
2654.31
2663.48
2672.42
2681.09
2689.55
2697.84
2705.92
2713.71
2721.16
2728.22
2734.95
2741.46
2747.88
2754.33
2760.87
2767.43
2773.86
2780.07
2786.15
2792.38
2798.85
2805.46
2812.08
2818.63
2825.09
2831.49
2837.83
2844.11
2850.29
2856.33
2862.18
2867.85
2873.34
2878.68
2883.9
2889
2893.99
2898.83
2903.5
2907.99
2912.28
2916.35
2920.22
2923.87
2927.3
2930.52
2933.51
2936.28
2938.83
2941.15
2943.25
2945.13
2946.8
2948.25
2949.51
2950.6
2951.48
2952.19
2952.74
2953.14
2953.4
2953.51
2953.5
2953.39
2953.17
2952.86
2952.47
2952
2951.46
2950.86
2950.21
2949.51
2948.78
2948.01
2947.21
2946.39
2945.54
2944.69
2943.82
2942.95
2942.08
2941.2
2940.33
2939.46
2938.6
2937.75
2936.91
2936.08
2935.27
2934.47
2933.69
2932.92
2932.18
2931.45
2930.74
2930.05
2929.38
2928.72
2928.09
2927.48
2926.88
2926.31
2925.75
2925.22
2924.7
2924.25
2923.74
2923.39
2922.85
2922.55
2922.09
2922.07
2920.89
1661
2454.03
2563.4
2587.48
2608.4
2623.28
2634.7
2644.6
2654.02
2663.2
2672.14
2680.82
2689.29
2697.58
2705.68
2713.47
2720.93
2728
2734.74
2741.25
2747.68
2754.14
2760.68
2767.24
2773.67
2779.86
2785.95
2792.17
2798.64
2805.25
2811.86
2818.4
2824.85
2831.23
2837.56
2843.83
2849.99
2856.01
2861.85
2867.5
2872.98
2878.32
2883.53
2888.63
2893.61
2898.45
2903.12
2907.6
2911.88
2915.96
2919.84
2923.5
2926.95
2930.19
2933.22
2936.03
2938.62
2941
2943.16
2945.11
2946.85
2948.39
2949.75
2950.93
2951.93
2952.76
2953.44
2953.98
2954.37
2954.65
2954.8
2954.85
2954.8
2954.66
2954.44
2954.15
2953.79
2953.36
2952.89
2952.37
2951.81
2951.21
2950.59
2949.94
2949.27
2948.58
2947.88
2947.17
2946.46
2945.74
2945.01
2944.3
2943.58
2942.87
2942.16
2941.47
2940.78
2940.1
2939.44
2938.79
2938.15
2937.52
2936.91
2936.32
2935.74
2935.18
2934.63
2934.1
2933.58
2933.08
2932.6
2932.14
2931.69
2931.32
2930.86
2930.56
2930.09
2929.84
2929.42
2929.42
2928.36
1658.59
2452.3
2562.09
2586.67
2607.87
2622.86
2634.34
2644.28
2653.73
2662.93
2671.87
2680.56
2689.03
2697.33
2705.43
2713.24
2720.7
2727.77
2734.52
2741.04
2747.48
2753.95
2760.49
2767.05
2773.47
2779.66
2785.74
2791.96
2798.42
2805.03
2811.63
2818.16
2824.61
2830.98
2837.29
2843.54
2849.69
2855.69
2861.52
2867.16
2872.63
2877.96
2883.16
2888.26
2893.24
2898.07
2902.73
2907.21
2911.49
2915.57
2919.45
2923.13
2926.61
2929.87
2932.93
2935.79
2938.42
2940.85
2943.08
2945.1
2946.92
2948.55
2950
2951.29
2952.41
2953.36
2954.17
2954.85
2955.4
2955.82
2956.14
2956.35
2956.47
2956.51
2956.47
2956.35
2956.17
2955.94
2955.66
2955.32
2954.95
2954.54
2954.1
2953.63
2953.13
2952.62
2952.09
2951.54
2950.99
2950.42
2949.85
2949.28
2948.71
2948.13
2947.56
2946.99
2946.43
2945.88
2945.33
2944.79
2944.26
2943.74
2943.23
2942.73
2942.25
2941.77
2941.31
2940.86
2940.42
2940
2939.59
2939.19
2938.81
2938.52
2938.11
2937.84
2937.44
2937.25
2936.87
2936.88
2935.94
1656.19
2450.56
2560.79
2585.88
2607.35
2622.44
2633.99
2643.97
2653.45
2662.66
2671.61
2680.29
2688.77
2697.08
2705.19
2713
2720.47
2727.55
2734.3
2740.83
2747.28
2753.76
2760.31
2766.86
2773.28
2779.46
2785.54
2791.76
2798.21
2804.81
2811.4
2817.93
2824.37
2830.73
2837.02
2843.26
2849.39
2855.37
2861.18
2866.81
2872.27
2877.59
2882.8
2887.89
2892.87
2897.69
2902.35
2906.82
2911.1
2915.18
2919.07
2922.77
2926.26
2929.56
2932.66
2935.55
2938.24
2940.73
2943.01
2945.1
2947.01
2948.73
2950.29
2951.69
2952.93
2954
2954.96
2955.78
2956.48
2957.06
2957.54
2957.93
2958.23
2958.45
2958.58
2958.65
2958.66
2958.61
2958.51
2958.36
2958.16
2957.94
2957.67
2957.38
2957.06
2956.72
2956.36
2955.98
2955.59
2955.18
2954.77
2954.35
2953.92
2953.49
2953.06
2952.63
2952.19
2951.76
2951.34
2950.91
2950.49
2950.08
2949.67
2949.27
2948.88
2948.5
2948.12
2947.76
2947.4
2947.05
2946.72
2946.39
2946.07
2945.86
2945.5
2945.28
2944.95
2944.81
2944.48
2944.5
2943.68
1653.96
2448.81
2559.48
2585.09
2606.85
2622.04
2633.65
2643.67
2653.17
2662.4
2671.35
2680.04
2688.52
2696.84
2704.96
2712.78
2720.25
2727.34
2734.09
2740.62
2747.08
2753.57
2760.12
2766.68
2773.08
2779.26
2785.33
2791.55
2798
2804.59
2811.18
2817.7
2824.13
2830.47
2836.75
2842.97
2849.08
2855.05
2860.85
2866.46
2871.91
2877.23
2882.43
2887.52
2892.49
2897.31
2901.96
2906.42
2910.7
2914.79
2918.69
2922.4
2925.92
2929.25
2932.39
2935.32
2938.06
2940.61
2942.96
2945.13
2947.12
2948.93
2950.59
2952.11
2953.47
2954.68
2955.77
2956.74
2957.59
2958.34
2958.99
2959.55
2960.02
2960.42
2960.74
2961.01
2961.2
2961.34
2961.43
2961.48
2961.48
2961.44
2961.37
2961.26
2961.12
2960.96
2960.77
2960.56
2960.33
2960.09
2959.83
2959.56
2959.28
2958.99
2958.7
2958.4
2958.09
2957.78
2957.48
2957.17
2956.86
2956.55
2956.25
2955.95
2955.65
2955.36
2955.07
2954.79
2954.51
2954.24
2953.98
2953.72
2953.47
2953.33
2953.03
2952.86
2952.59
2952.48
2952.21
2952.26
2951.54
1651.75
2447.05
2558.18
2584.32
2606.35
2621.64
2633.31
2643.38
2652.9
2662.14
2671.1
2679.78
2688.27
2696.6
2704.72
2712.55
2720.03
2727.12
2733.88
2740.42
2746.89
2753.38
2759.94
2766.49
2772.89
2779.06
2785.13
2791.34
2797.79
2804.37
2810.95
2817.47
2823.88
2830.21
2836.48
2842.67
2848.77
2854.73
2860.51
2866.11
2871.55
2876.86
2882.06
2887.15
2892.11
2896.92
2901.56
2906.02
2910.3
2914.4
2918.31
2922.04
2925.59
2928.95
2932.12
2935.1
2937.9
2940.5
2942.93
2945.17
2947.25
2949.16
2950.93
2952.56
2954.05
2955.39
2956.63
2957.75
2958.76
2959.68
2960.5
2961.24
2961.9
2962.48
2962.99
2963.44
2963.83
2964.16
2964.44
2964.67
2964.86
2965
2965.11
2965.19
2965.23
2965.24
2965.23
2965.19
2965.13
2965.05
2964.96
2964.84
2964.71
2964.57
2964.42
2964.26
2964.08
2963.91
2963.72
2963.53
2963.34
2963.14
2962.94
2962.74
2962.54
2962.34
2962.14
2961.95
2961.75
2961.56
2961.37
2961.18
2961
2960.92
2960.68
2960.56
2960.35
2960.28
2960.07
2960.16
2959.54
1649.68
2445.27
2556.88
2583.57
2605.87
2621.26
2632.98
2643.09
2652.64
2661.89
2670.85
2679.54
2688.03
2696.36
2704.49
2712.32
2719.81
2726.9
2733.67
2740.22
2746.7
2753.2
2759.75
2766.3
2772.69
2778.86
2784.92
2791.14
2797.58
2804.15
2810.73
2817.23
2823.64
2829.95
2836.2
2842.38
2848.46
2854.4
2860.17
2865.76
2871.19
2876.49
2881.69
2886.77
2891.73
2896.53
2901.17
2905.62
2909.9
2914
2917.93
2921.68
2925.26
2928.65
2931.86
2934.89
2937.74
2940.41
2942.9
2945.23
2947.39
2949.41
2951.28
2953.03
2954.64
2956.13
2957.51
2958.79
2959.96
2961.05
2962.04
2962.96
2963.8
2964.57
2965.27
2965.91
2966.5
2967.03
2967.51
2967.94
2968.33
2968.67
2968.97
2969.24
2969.47
2969.67
2969.83
2969.97
2970.08
2970.16
2970.22
2970.26
2970.28
2970.29
2970.27
2970.25
2970.21
2970.15
2970.09
2970.02
2969.94
2969.85
2969.76
2969.66
2969.55
2969.45
2969.34
2969.23
2969.11
2969
2968.89
2968.78
2968.67
2968.66
2968.48
2968.43
2968.26
2968.23
2968.1
2968.22
2967.71
1647.62
2443.48
2555.58
2582.83
2605.39
2620.88
2632.66
2642.81
2652.38
2661.64
2670.6
2679.29
2687.79
2696.13
2704.26
2712.1
2719.59
2726.69
2733.46
2740.02
2746.5
2753.01
2759.57
2766.11
2772.5
2778.66
2784.72
2790.93
2797.37
2803.93
2810.5
2817
2823.39
2829.69
2835.92
2842.08
2848.15
2854.07
2859.82
2865.4
2870.83
2876.12
2881.32
2886.4
2891.35
2896.14
2900.77
2905.22
2909.5
2913.61
2917.55
2921.32
2924.93
2928.36
2931.61
2934.69
2937.59
2940.32
2942.89
2945.3
2947.56
2949.67
2951.66
2953.53
2955.28
2956.9
2958.43
2959.87
2961.21
2962.47
2963.64
2964.74
2965.77
2966.74
2967.63
2968.47
2969.25
2969.97
2970.65
2971.27
2971.85
2972.38
2972.87
2973.32
2973.73
2974.11
2974.46
2974.77
2975.05
2975.31
2975.53
2975.73
2975.91
2976.07
2976.2
2976.31
2976.41
2976.49
2976.55
2976.6
2976.64
2976.67
2976.68
2976.69
2976.69
2976.67
2976.66
2976.63
2976.6
2976.57
2976.53
2976.5
2976.45
2976.49
2976.38
2976.39
2976.27
2976.27
2976.22
2976.36
2975.97
1645.71
2441.68
2554.28
2582.1
2604.93
2620.5
2632.34
2642.53
2652.12
2661.39
2670.36
2679.05
2687.55
2695.89
2704.04
2711.88
2719.38
2726.48
2733.25
2739.82
2746.31
2752.83
2759.39
2765.93
2772.31
2778.46
2784.52
2790.72
2797.16
2803.72
2810.27
2816.76
2823.14
2829.43
2835.64
2841.78
2847.83
2853.74
2859.48
2865.05
2870.46
2875.75
2880.94
2886.02
2890.96
2895.74
2900.36
2904.81
2909.09
2913.21
2917.17
2920.97
2924.6
2928.06
2931.36
2934.49
2937.44
2940.24
2942.88
2945.38
2947.73
2949.95
2952.05
2954.05
2955.93
2957.69
2959.38
2960.97
2962.48
2963.91
2965.27
2966.55
2967.76
2968.92
2970.01
2971.04
2972.03
2972.95
2973.83
2974.66
2975.44
2976.18
2976.87
2977.52
2978.12
2978.69
2979.22
2979.71
2980.17
2980.59
2980.98
2981.34
2981.67
2981.97
2982.25
2982.5
2982.73
2982.94
2983.13
2983.3
2983.46
2983.59
2983.72
2983.82
2983.92
2984.01
2984.08
2984.15
2984.2
2984.25
2984.3
2984.35
2984.37
2984.49
2984.43
2984.49
2984.43
2984.48
2984.5
2984.66
2984.4
1643.83
2439.85
2552.99
2581.39
2604.47
2620.14
2632.03
2642.26
2651.87
2661.15
2670.12
2678.82
2687.32
2695.67
2703.82
2711.67
2719.16
2726.27
2733.05
2739.62
2746.12
2752.64
2759.21
2765.74
2772.11
2778.26
2784.31
2790.52
2796.95
2803.5
2810.05
2816.52
2822.89
2829.16
2835.35
2841.48
2847.51
2853.41
2859.13
2864.69
2870.1
2875.38
2880.56
2885.63
2890.57
2895.34
2899.95
2904.4
2908.69
2912.82
2916.79
2920.61
2924.28
2927.78
2931.11
2934.29
2937.31
2940.17
2942.89
2945.47
2947.92
2950.24
2952.46
2954.59
2956.61
2958.52
2960.36
2962.12
2963.8
2965.4
2966.94
2968.41
2969.82
2971.17
2972.46
2973.7
2974.88
2976.01
2977.08
2978.1
2979.08
2980
2980.89
2981.72
2982.52
2983.27
2983.98
2984.65
2985.29
2985.88
2986.44
2986.97
2987.46
2987.92
2988.35
2988.75
2989.12
2989.47
2989.79
2990.09
2990.37
2990.62
2990.86
2991.08
2991.28
2991.46
2991.63
2991.78
2991.92
2992.05
2992.17
2992.31
2992.4
2992.58
2992.58
2992.7
2992.7
2992.77
2992.86
2993.03
2992.89
1642.04
2438
2551.69
2580.69
2604.03
2619.78
2631.73
2641.99
2651.63
2660.92
2669.89
2678.58
2687.09
2695.44
2703.6
2711.45
2718.95
2726.06
2732.84
2739.42
2745.93
2752.46
2759.02
2765.56
2771.92
2778.06
2784.11
2790.31
2796.74