/*--------------------------------*- C++ -*----------------------------------*\
| =========                 |                                                 |
| \\      /  F ield         | OpenFOAM: The Open Source CFD Toolbox           |
|  \\    /   O peration     | Version:  2412                                  |
|   \\  /    A nd           | Website:  www.openfoam.com                      |
|    \\/     M anipulation  |                                                 |
\*---------------------------------------------------------------------------*/
FoamFile
{
    version     2.0;
    format      ascii;
    arch        "LSB;label=32;scalar=64";
    class       volScalarField;
    location    "0.044";
    object      T;
}
// * * * * * * * * * * * * * * * * * * * * * * * * * * * * * * * * * * * * * //

dimensions      [0 0 0 1 0 0 0];

internalField   nonuniform List<scalar> 
9831
(
191.37
214.806
191.144
214.745
218.155
218.667
219.033
219.305
219.534
219.744
219.952
220.163
220.373
220.577
220.775
220.966
221.152
221.331
221.503
221.666
221.823
221.973
222.12
222.267
222.419
222.574
222.729
222.88
223.025
223.171
223.324
223.483
223.642
223.798
223.952
224.105
224.258
224.409
224.559
224.705
224.846
224.983
225.116
225.246
225.372
225.494
225.613
225.727
225.837
225.943
226.044
226.141
190.922
214.684
218.123
218.639
219.011
219.287
219.518
219.73
219.939
220.151
220.362
220.567
220.765
220.957
221.144
221.323
221.495
221.659
221.816
221.966
222.114
222.262
222.413
222.569
222.724
222.874
223.019
223.166
223.319
223.477
223.636
223.792
223.946
224.099
224.251
224.403
224.552
224.698
224.839
224.976
225.109
225.238
225.364
225.486
225.604
225.718
225.828
225.934
226.035
226.131
226.222
226.307
190.707
214.624
218.091
218.612
218.99
219.269
219.503
219.717
219.927
220.14
220.351
220.556
220.755
220.948
221.135
221.315
221.488
221.652
221.809
221.96
222.108
222.256
222.408
222.563
222.719
222.868
223.013
223.16
223.313
223.472
223.63
223.787
223.941
224.093
224.245
224.397
224.546
224.691
224.832
224.969
225.102
225.231
225.357
225.478
225.596
225.71
225.819
225.925
226.026
226.122
226.212
226.296
226.374
226.445
190.496
214.565
218.059
218.585
218.969
219.252
219.488
219.703
219.915
220.128
220.34
220.546
220.746
220.939
221.127
221.307
221.481
221.645
221.803
221.954
222.102
222.25
222.402
222.558
222.713
222.863
223.008
223.155
223.308
223.466
223.625
223.781
223.935
224.087
224.239
224.39
224.539
224.685
224.826
224.962
225.095
225.224
225.349
225.47
225.588
225.701
225.81
225.916
226.016
226.112
226.202
226.286
226.364
226.434
226.498
226.555
226.604
226.646
226.68
226.707
226.727
226.739
226.745
226.742
226.732
226.715
226.692
226.663
226.628
226.587
226.54
226.489
226.433
226.373
226.309
226.243
226.173
226.101
226.026
225.95
225.872
225.793
225.713
225.634
225.553
225.473
225.393
225.314
225.235
225.157
225.081
225.005
224.931
224.858
224.787
224.718
224.65
224.583
224.519
224.456
224.395
224.337
224.279
224.224
224.17
224.118
224.068
224.019
223.973
223.928
223.885
223.844
223.805
223.768
223.732
223.699
223.667
223.64
223.611
190.294
214.506
218.027
218.558
218.948
219.235
219.474
219.69
219.904
220.118
220.33
220.537
220.736
220.93
221.119
221.3
221.473
221.639
221.796
221.947
222.096
222.245
222.397
222.553
222.708
222.857
223.002
223.149
223.302
223.461
223.619
223.775
223.929
224.081
224.233
224.384
224.533
224.678
224.819
224.955
225.087
225.216
225.341
225.462
225.579
225.692
225.801
225.907
226.007
226.103
226.193
226.276
226.354
226.424
226.487
226.544
226.593
226.635
226.669
226.696
226.716
226.729
226.734
226.732
226.722
226.707
226.684
226.656
226.622
226.582
226.537
226.487
226.433
226.375
226.313
226.248
226.18
226.109
226.037
225.963
225.887
225.811
225.733
225.656
225.578
225.5
225.423
225.346
225.27
225.194
225.12
225.047
224.975
224.905
224.836
224.769
224.703
224.639
224.577
224.517
224.458
224.401
224.346
224.293
224.241
224.191
224.143
224.096
224.051
224.008
223.966
223.927
223.889
223.854
223.82
223.788
223.757
223.731
223.704
223.691
223.636
190.094
214.448
217.995
218.532
218.928
219.219
219.46
219.678
219.892
220.107
220.32
220.527
220.727
220.922
221.111
221.292
221.466
221.632
221.79
221.941
222.09
222.239
222.392
222.548
222.703
222.852
222.997
223.144
223.297
223.455
223.613
223.769
223.923
224.075
224.227
224.378
224.526
224.671
224.812
224.948
225.08
225.209
225.333
225.454
225.571
225.684
225.793
225.898
225.998
226.093
226.183
226.266
226.343
226.414
226.477
226.533
226.582
226.624
226.659
226.686
226.706
226.719
226.725
226.723
226.714
226.699
226.678
226.651
226.618
226.579
226.535
226.487
226.434
226.378
226.318
226.255
226.189
226.121
226.05
225.979
225.905
225.831
225.756
225.681
225.606
225.531
225.456
225.382
225.308
225.235
225.164
225.093
225.024
224.956
224.89
224.825
224.762
224.7
224.64
224.582
224.526
224.471
224.418
224.367
224.317
224.269
224.222
224.177
224.134
224.093
224.053
224.015
223.979
223.945
223.913
223.882
223.852
223.828
223.802
223.791
223.739
189.902
214.39
217.962
218.506
218.908
219.203
219.446
219.666
219.881
220.097
220.31
220.518
220.718
220.913
221.103
221.285
221.459
221.625
221.783
221.935
222.084
222.234
222.387
222.543
222.697
222.847
222.991
223.138
223.292
223.45
223.608
223.764
223.917
224.069
224.221
224.371
224.52
224.665
224.805
224.941
225.073
225.201
225.325
225.446
225.562
225.675
225.784
225.889
225.989
226.084
226.173
226.257
226.333
226.403
226.467
226.523
226.572
226.614
226.648
226.676
226.696
226.71
226.717
226.715
226.708
226.693
226.673
226.647
226.615
226.578
226.536
226.489
226.439
226.384
226.326
226.265
226.201
226.135
226.067
225.998
225.927
225.856
225.783
225.711
225.638
225.566
225.493
225.422
225.351
225.281
225.212
225.144
225.077
225.012
224.948
224.886
224.825
224.766
224.708
224.652
224.598
224.545
224.494
224.445
224.397
224.351
224.306
224.263
224.222
224.182
224.144
224.108
224.073
224.041
224.01
223.98
223.951
223.928
223.904
223.897
223.847
189.713
214.333
217.93
218.48
218.889
219.188
219.433
219.654
219.871
220.087
220.301
220.509
220.71
220.905
221.095
221.278
221.452
221.619
221.777
221.929
222.079
222.229
222.382
222.538
222.692
222.841
222.986
223.133
223.286
223.444
223.602
223.758
223.912
224.063
224.215
224.365
224.513
224.658
224.798
224.934
225.066
225.193
225.317
225.437
225.554
225.666
225.775
225.88
225.98
226.075
226.164
226.247
226.323
226.393
226.456
226.513
226.562
226.604
226.639
226.667
226.687
226.702
226.709
226.709
226.702
226.689
226.669
226.645
226.614
226.579
226.538
226.493
226.445
226.392
226.336
226.277
226.216
226.152
226.087
226.02
225.952
225.883
225.813
225.744
225.674
225.604
225.534
225.465
225.397
225.33
225.264
225.198
225.134
225.072
225.01
224.951
224.892
224.835
224.78
224.727
224.675
224.624
224.575
224.528
224.482
224.438
224.395
224.354
224.314
224.276
224.24
224.205
224.172
224.141
224.111
224.082
224.052
224.029
224.008
224.009
223.963
189.532
214.277
217.897
218.455
218.87
219.173
219.42
219.642
219.86
220.077
220.292
220.5
220.701
220.897
221.087
221.27
221.446
221.612
221.771
221.923
222.073
222.223
222.377
222.533
222.687
222.836
222.981
223.128
223.281
223.439
223.597
223.753
223.906
224.058
224.209
224.359
224.507
224.651
224.791
224.927
225.058
225.186
225.309
225.429
225.545
225.657
225.766
225.871
225.971
226.066
226.154
226.237
226.314
226.384
226.447
226.503
226.552
226.594
226.63
226.658
226.679
226.694
226.702
226.703
226.697
226.685
226.667
226.644
226.615
226.581
226.542
226.5
226.453
226.402
226.349
226.292
226.233
226.172
226.11
226.045
225.98
225.914
225.847
225.78
225.713
225.646
225.579
225.513
225.448
225.383
225.32
225.257
225.196
225.136
225.077
225.02
224.964
224.91
224.857
224.805
224.756
224.707
224.661
224.616
224.572
224.529
224.488
224.449
224.411
224.374
224.34
224.307
224.275
224.246
224.217
224.187
224.158
224.137
224.119
224.123
224.081
189.354
214.22
217.865
218.43
218.851
219.158
219.407
219.631
219.85
220.068
220.282
220.491
220.693
220.889
221.08
221.263
221.439
221.606
221.765
221.917
222.067
222.218
222.372
222.528
222.682
222.831
222.975
223.123
223.276
223.434
223.591
223.747
223.9
224.052
224.203
224.353
224.5
224.645
224.784
224.92
225.051
225.178
225.301
225.421
225.537
225.649
225.757
225.862
225.962
226.056
226.145
226.228
226.304
226.374
226.437
226.493
226.543
226.585
226.621
226.65
226.672
226.688
226.696
226.698
226.693
226.683
226.666
226.644
226.617
226.585
226.549
226.508
226.463
226.415
226.364
226.31
226.254
226.195
226.135
226.074
226.011
225.948
225.884
225.82
225.756
225.692
225.628
225.565
225.502
225.441
225.38
225.32
225.261
225.204
225.148
225.093
225.04
224.988
224.938
224.889
224.841
224.795
224.75
224.707
224.666
224.625
224.586
224.548
224.512
224.477
224.444
224.413
224.383
224.354
224.326
224.298
224.27
224.251
224.236
224.242
224.201
189.183
214.165
217.832
218.405
218.833
219.144
219.395
219.62
219.84
220.059
220.274
220.482
220.684
220.881
221.072
221.256
221.433
221.6
221.759
221.912
222.062
222.213
222.367
222.523
222.677
222.826
222.97
223.117
223.271
223.428
223.586
223.741
223.894
224.046
224.196
224.346
224.494
224.638
224.777
224.913
225.043
225.17
225.293
225.412
225.528
225.64
225.749
225.853
225.953
226.047
226.136
226.218
226.294
226.364
226.427
226.484
226.534
226.577
226.613
226.642
226.665
226.681
226.691
226.694
226.691
226.681
226.666
226.646
226.621
226.591
226.556
226.518
226.476
226.43
226.381
226.33
226.276
226.221
226.164
226.105
226.046
225.985
225.924
225.863
225.802
225.741
225.68
225.62
225.561
225.502
225.444
225.387
225.331
225.277
225.223
225.171
225.12
225.071
225.023
224.976
224.931
224.887
224.844
224.803
224.763
224.725
224.687
224.651
224.617
224.584
224.553
224.523
224.494
224.466
224.439
224.412
224.386
224.37
224.356
224.363
224.322
189.015
214.109
217.799
218.381
218.816
219.13
219.383
219.61
219.83
220.05
220.265
220.474
220.676
220.874
221.065
221.25
221.426
221.594
221.753
221.906
222.057
222.208
222.362
222.518
222.672
222.82
222.965
223.112
223.266
223.423
223.58
223.736
223.888
224.04
224.19
224.34
224.487
224.631
224.771
224.905
225.036
225.162
225.285
225.404
225.519
225.631
225.74
225.844
225.944
226.038
226.126
226.209
226.285
226.355
226.418
226.475
226.525
226.568
226.605
226.635
226.659
226.676
226.687
226.691
226.689
226.681
226.668
226.65
226.626
226.598
226.566
226.53
226.49
226.447
226.401
226.353
226.302
226.249
226.195
226.14
226.083
226.026
225.968
225.91
225.852
225.794
225.736
225.679
225.622
225.567
225.512
225.458
225.405
225.353
225.302
225.252
225.204
225.157
225.112
225.067
225.024
224.983
224.942
224.903
224.865
224.829
224.793
224.759
224.726
224.695
224.665
224.637
224.61
224.583
224.556
224.532
224.508
224.493
224.481
224.488
224.448
188.854
214.054
217.766
218.357
218.798
219.116
219.371
219.599
219.821
220.041
220.256
220.466
220.668
220.866
221.058
221.243
221.42
221.587
221.747
221.9
222.051
222.203
222.357
222.513
222.667
222.815
222.96
223.107
223.26
223.418
223.575
223.73
223.883
224.034
224.184
224.334
224.481
224.625
224.764
224.898
225.028
225.155
225.277
225.396
225.511
225.623
225.731
225.835
225.935
226.029
226.117
226.2
226.276
226.346
226.409
226.466
226.517
226.561
226.598
226.629
226.654
226.672
226.684
226.689
226.689
226.682
226.671
226.655
226.633
226.608
226.578
226.544
226.507
226.466
226.423
226.378
226.33
226.28
226.229
226.177
226.123
226.069
226.015
225.96
225.905
225.85
225.796
225.742
225.688
225.635
225.583
225.532
225.482
225.433
225.385
225.338
225.292
225.248
225.205
225.163
225.122
225.083
225.044
225.007
224.971
224.937
224.903
224.871
224.84
224.81
224.782
224.755
224.729
224.703
224.677
224.654
224.633
224.62
224.609
224.615
224.576
188.696
213.999
217.733
218.333
218.782
219.103
219.36
219.589
219.812
220.032
220.248
220.458
220.661
220.859
221.051
221.236
221.413
221.581
221.741
221.895
222.046
222.198
222.352
222.508
222.662
222.81
222.955
223.102
223.255
223.413
223.57
223.724
223.877
224.028
224.178
224.328
224.475
224.618
224.757
224.891
225.021
225.147
225.269
225.387
225.502
225.614
225.722
225.827
225.926
226.02
226.108
226.19
226.267
226.337
226.4
226.458
226.509
226.553
226.591
226.623
226.649
226.668
226.681
226.688
226.69
226.685
226.675
226.661
226.642
226.619
226.591
226.56
226.525
226.488
226.448
226.405
226.36
226.314
226.266
226.217
226.167
226.116
226.065
226.013
225.961
225.91
225.858
225.808
225.757
225.707
225.658
225.61
225.563
225.517
225.471
225.427
225.384
225.342
225.302
225.262
225.224
225.186
225.15
225.115
225.082
225.049
225.017
224.986
224.957
224.929
224.903
224.877
224.852
224.827
224.803
224.782
224.763
224.752
224.741
224.748
224.709
188.545
213.945
217.7
218.309
218.765
219.09
219.348
219.579
219.803
220.024
220.24
220.45
220.653
220.852
221.044
221.23
221.407
221.575
221.735
221.889
222.041
222.193
222.347
222.503
222.657
222.805
222.95
223.097
223.25
223.407
223.564
223.719
223.871
224.022
224.172
224.321
224.468
224.611
224.749
224.883
225.013
225.138
225.26
225.379
225.494
225.606
225.714
225.818
225.917
226.011
226.099
226.181
226.257
226.328
226.392
226.449
226.501
226.546
226.585
226.618
226.644
226.665
226.679
226.688
226.691
226.688
226.681
226.669
226.652
226.631
226.606
226.578
226.546
226.511
226.474
226.435
226.393
226.35
226.305
226.26
226.213
226.166
226.118
226.069
226.021
225.973
225.925
225.877
225.83
225.783
225.737
225.692
225.648
225.605
225.562
225.521
225.48
225.441
225.402
225.365
225.329
225.294
225.26
225.227
225.195
225.164
225.134
225.106
225.078
225.052
225.027
225.003
224.979
224.955
224.932
224.913
224.896
224.886
224.877
224.883
224.844
188.396
213.891
217.667
218.286
218.749
219.077
219.338
219.57
219.794
220.016
220.232
220.442
220.646
220.844
221.038
221.224
221.401
221.57
221.73
221.884
222.036
222.188
222.343
222.499
222.652
222.8
222.945
223.092
223.245
223.402
223.559
223.713
223.866
224.016
224.166
224.315
224.462
224.604
224.742
224.876
225.005
225.13
225.252
225.37
225.485
225.597
225.705
225.809
225.908
226.002
226.09
226.172
226.249
226.319
226.383
226.442
226.494
226.54
226.58
226.613
226.641
226.663
226.679
226.689
226.694
226.693
226.688
226.678
226.663
226.645
226.623
226.597
226.569
226.537
226.503
226.467
226.429
226.389
226.348
226.305
226.262
226.218
226.173
226.129
226.084
226.039
225.994
225.95
225.906
225.862
225.82
225.777
225.736
225.696
225.656
225.617
225.579
225.543
225.507
225.472
225.438
225.406
225.374
225.343
225.313
225.284
225.256
225.229
225.203
225.179
225.155
225.132
225.11
225.087
225.066
225.05
225.034
225.026
225.017
225.023
224.984
188.254
213.838
217.634
218.264
218.733
219.065
219.327
219.56
219.786
220.008
220.224
220.434
220.638
220.837
221.031
221.217
221.395
221.564
221.724
221.879
222.03
222.183
222.338
222.494
222.648
222.795
222.94
223.087
223.24
223.397
223.553
223.708
223.86
224.011
224.16
224.309
224.455
224.597
224.735
224.868
224.997
225.122
225.244
225.362
225.477
225.588
225.696
225.8
225.899
225.993
226.081
226.163
226.24
226.31
226.375
226.434
226.487
226.534
226.574
226.609
226.638
226.661
226.678
226.691
226.698
226.699
226.696
226.688
226.676
226.661
226.641
226.619
226.593
226.565
226.534
226.501
226.466
226.43
226.392
226.354
226.314
226.273
226.232
226.191
226.15
226.108
226.067
226.026
225.985
225.945
225.905
225.866
225.828
225.79
225.754
225.718
225.682
225.648
225.615
225.583
225.551
225.521
225.491
225.462
225.434
225.407
225.381
225.356
225.332
225.309
225.287
225.265
225.244
225.223
225.203
225.189
225.175
225.168
225.159
225.164
225.127
188.114
213.784
217.601
218.241
218.718
219.053
219.317
219.551
219.777
220
220.217
220.427
220.631
220.831
221.025
221.211
221.389
221.558
221.719
221.873
222.025
222.178
222.333
222.489
222.643
222.79
222.935
223.082
223.235
223.392
223.548
223.702
223.854
224.005
224.154
224.303
224.448
224.59
224.728
224.861
224.989
225.114
225.235
225.353
225.468
225.58
225.688
225.791
225.89
225.984
226.072
226.154
226.231
226.302
226.367
226.427
226.48
226.528
226.57
226.606
226.636
226.66
226.679
226.694
226.703
226.706
226.705
226.7
226.691
226.678
226.662
226.642
226.62
226.595
226.567
226.538
226.507
226.474
226.44
226.404
226.368
226.331
226.294
226.256
226.218
226.18
226.143
226.105
226.068
226.031
225.994
225.958
225.923
225.888
225.854
225.821
225.789
225.757
225.727
225.697
225.668
225.64
225.612
225.586
225.56
225.535
225.51
225.487
225.465
225.444
225.423
225.403
225.383
225.363
225.345
225.333
225.32
225.315
225.307
225.311
225.276
187.981
213.731
217.568
218.219
218.703
219.041
219.307
219.542
219.769
219.992
220.209
220.42
220.624
220.824
221.018
221.205
221.383
221.552
221.713
221.868
222.02
222.173
222.329
222.485
222.638
222.786
222.93
223.077
223.23
223.386
223.543
223.697
223.849
223.999
224.148
224.296
224.442
224.583
224.721
224.853
224.981
225.106
225.227
225.345
225.46
225.571
225.679
225.783
225.881
225.975
226.063
226.145
226.222
226.294
226.36
226.42
226.474
226.523
226.565
226.603
226.634
226.66
226.681
226.697
226.708
226.714
226.716
226.713
226.706
226.697
226.683
226.667
226.648
226.626
226.602
226.576
226.549
226.52
226.489
226.458
226.425
226.392
226.359
226.325
226.29
226.256
226.222
226.188
226.154
226.12
226.087
226.054
226.022
225.99
225.959
225.929
225.899
225.87
225.842
225.814
225.788
225.762
225.737
225.712
225.688
225.665
225.643
225.621
225.601
225.581
225.562
225.543
225.524
225.506
225.49
225.48
225.468
225.464
225.457
225.461
225.427
187.85
213.678
217.535
218.197
218.689
219.029
219.297
219.534
219.761
219.985
220.202
220.413
220.617
220.817
221.012
221.199
221.377
221.547
221.708
221.863
222.015
222.169
222.324
222.48
222.633
222.781
222.925
223.072
223.225
223.381
223.537
223.691
223.843
223.993
224.142
224.29
224.435
224.576
224.713
224.845
224.973
225.098
225.218
225.336
225.451
225.563
225.67
225.774
225.872
225.966
226.054
226.137
226.214
226.286
226.352
226.413
226.468
226.518
226.562
226.6
226.633
226.661
226.683
226.701
226.715
226.723
226.727
226.727
226.724
226.717
226.707
226.694
226.678
226.66
226.64
226.617
226.593
226.568
226.541
226.513
226.485
226.455
226.426
226.395
226.365
226.334
226.303
226.273
226.242
226.212
226.182
226.152
226.123
226.095
226.067
226.039
226.012
225.986
225.96
225.935
225.911
225.888
225.865
225.842
225.82
225.799
225.779
225.76
225.741
225.723
225.705
225.687
225.67
225.654
225.64
225.631
225.621
225.619
225.612
225.615
225.584
187.726
213.626
217.501
218.176
218.674
219.018
219.287
219.525
219.754
219.977
220.195
220.406
220.611
220.811
221.006
221.193
221.372
221.541
221.702
221.857
222.01
222.164
222.319
222.476
222.629
222.776
222.92
223.067
223.22
223.376
223.532
223.686
223.838
223.988
224.136
224.283
224.428
224.569
224.706
224.838
224.965
225.089
225.21
225.328
225.443
225.554
225.662
225.765
225.863
225.957
226.045
226.128
226.206
226.278
226.345
226.406
226.462
226.513
226.558
226.598
226.633
226.662
226.687
226.707
226.722
226.733
226.74
226.743
226.742
226.738
226.731
226.722
226.71
226.695
226.678
226.66
226.64
226.618
226.596
226.572
226.547
226.522
226.496
226.469
226.442
226.415
226.388
226.361
226.334
226.307
226.281
226.254
226.228
226.203
226.178
226.153
226.129
226.105
226.082
226.06
226.038
226.017
225.996
225.976
225.956
225.937
225.919
225.901
225.884
225.867
225.851
225.835
225.819
225.805
225.791
225.784
225.775
225.776
225.769
225.772
225.742
187.603
213.573
217.468
218.155
218.66
219.007
219.278
219.517
219.746
219.97
220.188
220.399
220.604
220.804
220.999
221.187
221.366
221.536
221.697
221.852
222.006
222.159
222.315
222.471
222.624
222.771
222.915
223.062
223.215
223.371
223.527
223.68
223.832
223.982
224.13
224.277
224.421
224.562
224.698
224.83
224.957
225.081
225.201
225.319
225.434
225.545
225.653
225.756
225.854
225.948
226.036
226.119
226.197
226.27
226.338
226.4
226.457
226.509
226.555
226.596
226.632
226.664
226.69
226.713
226.731
226.744
226.754
226.76
226.762
226.761
226.758
226.752
226.743
226.732
226.72
226.705
226.689
226.671
226.652
226.632
226.611
226.59
226.568
226.545
226.522
226.499
226.475
226.452
226.428
226.405
226.382
226.359
226.336
226.314
226.291
226.27
226.248
226.228
226.207
226.187
226.168
226.149
226.131
226.112
226.095
226.078
226.061
226.046
226.03
226.016
226.001
225.986
225.972
225.959
225.947
225.942
225.935
225.936
225.931
225.933
225.905
187.487
213.521
217.435
218.134
218.647
218.996
219.268
219.509
219.739
219.963
220.181
220.392
220.597
220.798
220.993
221.181
221.36
221.53
221.692
221.847
222.001
222.155
222.31
222.466
222.619
222.766
222.91
223.057
223.21
223.366
223.521
223.675
223.826
223.976
224.124
224.271
224.414
224.555
224.691
224.822
224.949
225.073
225.193
225.311
225.425
225.537
225.644
225.747
225.845
225.939
226.027
226.111
226.189
226.263
226.331
226.394
226.452
226.505
226.553
226.595
226.633
226.666
226.695
226.72
226.74
226.756
226.768
226.777
226.783
226.786
226.786
226.783
226.778
226.771
226.762
226.751
226.739
226.726
226.711
226.695
226.678
226.661
226.643
226.624
226.605
226.586
226.566
226.546
226.526
226.506
226.486
226.467
226.447
226.428
226.409
226.39
226.371
226.353
226.335
226.318
226.301
226.285
226.268
226.252
226.237
226.222
226.208
226.194
226.18
226.167
226.154
226.14
226.128
226.117
226.107
226.103
226.097
226.099
226.094
226.096
226.071
187.372
213.468
217.401
218.114
218.633
218.985
219.259
219.501
219.732
219.956
220.175
220.386
220.591
220.792
220.987
221.175
221.355
221.525
221.686
221.842
221.996
222.15
222.306
222.462
222.614
222.761
222.905
223.052
223.205
223.361
223.516
223.669
223.821
223.97
224.118
224.264
224.407
224.547
224.683
224.814
224.941
225.064
225.185
225.302
225.417
225.528
225.635
225.738
225.837
225.93
226.019
226.102
226.181
226.255
226.324
226.388
226.447
226.501
226.55
226.595
226.634
226.669
226.7
226.727
226.75
226.769
226.784
226.796
226.805
226.812
226.815
226.816
226.815
226.812
226.807
226.8
226.792
226.782
226.772
226.76
226.747
226.734
226.72
226.705
226.69
226.674
226.658
226.642
226.626
226.609
226.593
226.577
226.56
226.544
226.528
226.512
226.497
226.481
226.466
226.452
226.437
226.423
226.409
226.395
226.382
226.369
226.357
226.345
226.333
226.321
226.31
226.298
226.287
226.278
226.27
226.268
226.264
226.266
226.262
226.263
226.24
187.264
213.416
217.368
218.094
218.62
218.975
219.25
219.493
219.725
219.95
220.168
220.379
220.585
220.786
220.982
221.17
221.349
221.519
221.681
221.837
221.991
222.146
222.301
222.457
222.61
222.757
222.9
223.047
223.2
223.355
223.511
223.664
223.815
223.964
224.112
224.257
224.4
224.54
224.675
224.806
224.933
225.056
225.176
225.294
225.408
225.519
225.627
225.729
225.828
225.921
226.01
226.094
226.173
226.248
226.318
226.383
226.443
226.498
226.549
226.595
226.636
226.673
226.706
226.735
226.761
226.782
226.801
226.816
226.828
226.838
226.845
226.85
226.853
226.854
226.853
226.85
226.846
226.841
226.834
226.827
226.818
226.809
226.799
226.788
226.777
226.766
226.754
226.741
226.729
226.716
226.703
226.69
226.677
226.664
226.651
226.638
226.625
226.613
226.6
226.588
226.576
226.564
226.553
226.541
226.53
226.519
226.509
226.499
226.489
226.479
226.469
226.458
226.448
226.441
226.435
226.436
226.434
226.436
226.431
226.433
226.412
187.157
213.363
217.334
218.074
218.608
218.965
219.242
219.485
219.718
219.943
220.162
220.373
220.578
220.78
220.976
221.164
221.344
221.514
221.676
221.832
221.986
222.141
222.297
222.453
222.605
222.752
222.896
223.043
223.195
223.35
223.505
223.659
223.809
223.958
224.105
224.251
224.393
224.533
224.667
224.798
224.924
225.047
225.168
225.285
225.4
225.511
225.618
225.72
225.818
225.912
226.001
226.086
226.165
226.241
226.311
226.377
226.439
226.495
226.547
226.595
226.638
226.677
226.713
226.744
226.772
226.797
226.818
226.837
226.853
226.866
226.877
226.886
226.893
226.898
226.901
226.902
226.903
226.901
226.899
226.896
226.891
226.886
226.88
226.874
226.866
226.859
226.85
226.842
226.833
226.824
226.815
226.805
226.795
226.786
226.776
226.766
226.756
226.746
226.737
226.727
226.718
226.709
226.699
226.69
226.681
226.672
226.664
226.656
226.647
226.639
226.63
226.621
226.613
226.609
226.605
226.606
226.605
226.608
226.604
226.605
226.587
187.056
213.31
217.301
218.055
218.595
218.955
219.233
219.478
219.711
219.937
220.155
220.367
220.572
220.774
220.97
221.159
221.339
221.509
221.671
221.827
221.982
222.137
222.293
222.449
222.601
222.747
222.891
223.038
223.19
223.345
223.5
223.653
223.804
223.952
224.099
224.244
224.386
224.525
224.66
224.79
224.916
225.039
225.159
225.277
225.391
225.502
225.609
225.711
225.809
225.903
225.992
226.077
226.158
226.234
226.305
226.372
226.435
226.492
226.546
226.595
226.641
226.682
226.719
226.754
226.785
226.812
226.837
226.859
226.878
226.895
226.91
226.923
226.933
226.942
226.95
226.956
226.96
226.963
226.965
226.966
226.966
226.966
226.964
226.961
226.958
226.955
226.95
226.946
226.941
226.935
226.929
226.923
226.917
226.91
226.904
226.897
226.89
226.883
226.876
226.869
226.862
226.855
226.848
226.842
226.835
226.828
226.822
226.815
226.809
226.802
226.795
226.787
226.782
226.78
226.777
226.78
226.779
226.782
226.778
226.78
226.764
186.956
213.257
217.268
218.036
218.583
218.945
219.225
219.471
219.704
219.93
220.149
220.36
220.566
220.768
220.964
221.153
221.333
221.504
221.666
221.823
221.977
222.132
222.288
222.444
222.596
222.742
222.886
223.033
223.185
223.34
223.495
223.648
223.798
223.946
224.092
224.237
224.379
224.518
224.652
224.782
224.908
225.031
225.151
225.268
225.382
225.493
225.6
225.702
225.8
225.894
225.984
226.069
226.15
226.227
226.299
226.367
226.431
226.49
226.545
226.596
226.643
226.687
226.727
226.764
226.798
226.828
226.856
226.882
226.905
226.926
226.944
226.961
226.976
226.989
227.001
227.011
227.02
227.027
227.033
227.039
227.043
227.046
227.049
227.05
227.051
227.052
227.051
227.051
227.049
227.048
227.045
227.043
227.04
227.037
227.033
227.03
227.026
227.022
227.018
227.013
227.009
227.005
227
226.995
226.991
226.986
226.982
226.977
226.973
226.967
226.962
226.956
226.953
226.954
226.953
226.955
226.955
226.958
226.956
226.958
226.944
186.862
213.205
217.234
218.017
218.571
218.936
219.217
219.464
219.698
219.924
220.143
220.354
220.56
220.762
220.959
221.148
221.328
221.499
221.661
221.818
221.973
222.128
222.284
222.44
222.591
222.738
222.881
223.028
223.18
223.335
223.489
223.642
223.792
223.94
224.086
224.23
224.372
224.51
224.644
224.774
224.899
225.022
225.142
225.259
225.374
225.484
225.591
225.693
225.791
225.885
225.975
226.061
226.142
226.22
226.293
226.362
226.427
226.488
226.545
226.598
226.647
226.692
226.735
226.775
226.811
226.845
226.876
226.905
226.932
226.957
226.979
227
227.019
227.036
227.052
227.067
227.08
227.092
227.103
227.113
227.121
227.129
227.136
227.142
227.147
227.152
227.155
227.159
227.161
227.163
227.164
227.165
227.166
227.166
227.166
227.165
227.164
227.163
227.162
227.16
227.158
227.156
227.154
227.152
227.15
227.147
227.145
227.142
227.139
227.135
227.132
227.129
227.128
227.13
227.13
227.133
227.134
227.137
227.136
227.139
227.128
186.769
213.151
217.201
217.999
218.56
218.926
219.209
219.457
219.692
219.918
220.137
220.348
220.555
220.757
220.953
221.143
221.323
221.493
221.656
221.813
221.968
222.123
222.28
222.435
222.587
222.733
222.876
223.023
223.175
223.33
223.484
223.637
223.787
223.934
224.079
224.223
224.365
224.502
224.636
224.765
224.891
225.014
225.133
225.251
225.365
225.475
225.581
225.684
225.782
225.876
225.966
226.053
226.135
226.213
226.287
226.358
226.424
226.486
226.544
226.599
226.65
226.698
226.744
226.786
226.826
226.863
226.897
226.93
226.96
226.989
227.015
227.04
227.064
227.085
227.106
227.125
227.142
227.159
227.174
227.188
227.201
227.213
227.224
227.234
227.244
227.252
227.26
227.267
227.273
227.279
227.284
227.289
227.293
227.296
227.299
227.302
227.304
227.306
227.308
227.309
227.31
227.31
227.311
227.311
227.311
227.31
227.31
227.309
227.308
227.306
227.305
227.305
227.306
227.308
227.308
227.312
227.314
227.318
227.319
227.323
227.314
186.681
213.098
217.168
217.981
218.548
218.917
219.201
219.45
219.685
219.912
220.131
220.343
220.549
220.751
220.948
221.137
221.318
221.488
221.651
221.808
221.963
222.119
222.275
222.431
222.582
222.728
222.872
223.018
223.17
223.325
223.479
223.631
223.781
223.928
224.073
224.216
224.357
224.495
224.628
224.757
224.883
225.005
225.125
225.242
225.356
225.466
225.572
225.674
225.773
225.867
225.958
226.044
226.127
226.207
226.282
226.353
226.42
226.484
226.544
226.601
226.654
226.705
226.753
226.798
226.84
226.881
226.919
226.955
226.989
227.021
227.052
227.081
227.109
227.135
227.159
227.183
227.205
227.226
227.246
227.264
227.282
227.299
227.314
227.329
227.343
227.355
227.367
227.378
227.389
227.398
227.407
227.415
227.423
227.43
227.436
227.442
227.447
227.452
227.456
227.46
227.463
227.466
227.469
227.472
227.474
227.476
227.477
227.478
227.479
227.479
227.48
227.483
227.486
227.49
227.49
227.494
227.496
227.501
227.505
227.51
227.504
186.595
213.044
217.135
217.963
218.537
218.908
219.194
219.443
219.679
219.906
220.125
220.337
220.543
220.746
220.943
221.132
221.313
221.483
221.646
221.803
221.959
222.114
222.271
222.426
222.578
222.723
222.867
223.013
223.165
223.319
223.473
223.625
223.775
223.922
224.066
224.209
224.35
224.487
224.62
224.749
224.874
224.996
225.116
225.233
225.347
225.457
225.563
225.665
225.763
225.858
225.949
226.036
226.12
226.2
226.276
226.349
226.417
226.483
226.544
226.603
226.659
226.712
226.762
226.81
226.856
226.899
226.941
226.981
227.019
227.055
227.09
227.123
227.155
227.186
227.215
227.243
227.269
227.295
227.319
227.342
227.364
227.385
227.405
227.424
227.442
227.459
227.475
227.49
227.504
227.518
227.53
227.542
227.553
227.564
227.573
227.582
227.591
227.599
227.606
227.613
227.619
227.625
227.63
227.635
227.639
227.643
227.647
227.65
227.652
227.655
227.658
227.662
227.667
227.672
227.674
227.679
227.682
227.687
227.692
227.698
227.695
186.513
212.989
217.101
217.946
218.526
218.899
219.186
219.437
219.673
219.901
220.12
220.331
220.538
220.74
220.937
221.127
221.307
221.478
221.641
221.799
221.954
222.11