/*--------------------------------*- C++ -*----------------------------------*\
| =========                 |                                                 |
| \\      /  F ield         | OpenFOAM: The Open Source CFD Toolbox           |
|  \\    /   O peration     | Version:  2412                                  |
|   \\  /    A nd           | Website:  www.openfoam.com                      |
|    \\/     M anipulation  |                                                 |
\*---------------------------------------------------------------------------*/
FoamFile
{
    version     2.0;
    format      ascii;
    arch        "LSB;label=32;scalar=64";
    class       volScalarField;
    location    "0.047";
    object      T;
}
// * * * * * * * * * * * * * * * * * * * * * * * * * * * * * * * * * * * * * //

dimensions      [0 0 0 1 0 0 0];

internalField   nonuniform List<scalar> 
9763
(
231.109
232.24
231.149
232.451
231.176
232.525
231.16
232.452
231.104
232.338
231.003
232.208
230.888
232.074
230.783
231.922
230.664
231.739
230.535
231.562
230.426
231.41
230.337
231.267
230.256
231.129
230.181
231.005
230.111
230.889
230.043
230.777
229.973
230.664
229.9
230.547
229.822
230.425
229.739
230.298
229.651
230.164
229.559
230.025
229.463
229.881
229.364
229.732
229.262
229.579
229.16
229.427
229.055
229.275
228.947
229.127
228.833
228.985
228.715
228.845
228.592
228.703
228.464
228.558
228.332
228.404
228.198
228.242
228.063
228.068
227.933
227.883
227.807
227.69
227.683
227.493
227.557
227.297
227.427
227.103
226.909
226.713
226.513
243.754
225.01
226.466
226.902
226.759
226.663
226.588
226.476
226.313
226.128
225.947
225.782
225.639
225.509
225.383
225.252
225.11
224.955
224.789
224.615
224.436
224.257
224.077
223.895
223.71
223.523
223.335
223.147
222.958
222.766
222.571
222.375
222.18
221.987
221.799
221.615
221.436
221.263
221.099
220.947
220.807
220.683
220.576
220.485
220.407
220.342
220.289
220.251
220.233
220.236
220.247
220.289
220.334
220.445
220.605
220.816
221.052
221.295
221.548
221.794
222.042
222.277
222.504
222.73
222.963
223.195
223.424
223.645
223.857
224.067
224.282
224.506
224.743
224.987
225.232
225.471
225.699
225.913
226.115
226.307
226.494
226.682
226.872
227.07
227.272
227.478
227.683
227.885
228.082
228.273
228.457
228.633
228.8
228.964
229.128
229.29
229.446
229.594
229.734
229.864
229.984
230.095
230.197
230.293
230.385
230.474
230.568
230.673
230.793
230.931
231.082
231.248
231.425
231.594
231.733
231.832
231.893
231.915
231.869
231.809
231.585
243.662
225.015
226.454
226.894
226.753
226.659
226.584
226.471
226.308
226.123
225.942
225.778
225.635
225.505
225.378
225.247
225.105
224.95
224.783
224.608
224.429
224.248
224.067
223.884
223.697
223.509
223.32
223.13
222.938
222.745
222.548
222.35
222.151
221.956
221.764
221.576
221.394
221.217
221.049
220.892
220.748
220.619
220.508
220.412
220.332
220.263
220.207
220.164
220.143
220.144
220.157
220.197
220.237
220.341
220.498
220.708
220.945
221.183
221.428
221.665
221.908
222.147
222.379
222.608
222.843
223.081
223.317
223.549
223.768
223.981
224.195
224.417
224.648
224.887
225.123
225.353
225.568
225.768
225.956
226.137
226.316
226.5
226.688
226.883
227.083
227.287
227.493
227.698
227.9
228.099
228.294
228.485
228.67
228.849
229.02
229.183
229.338
229.484
229.62
229.745
229.859
229.963
230.06
230.152
230.244
230.336
230.432
230.546
230.68
230.844
231.034
231.243
231.452
231.65
231.821
231.954
232.045
232.098
232.123
232.132
232.126
243.633
225.012
226.444
226.89
226.748
226.655
226.58
226.467
226.304
226.119
225.938
225.774
225.631
225.501
225.374
225.243
225.1
224.945
224.778
224.602
224.421
224.24
224.058
223.873
223.685
223.495
223.304
223.112
222.919
222.723
222.524
222.323
222.122
221.923
221.728
221.536
221.35
221.169
220.997
220.835
220.685
220.551
220.435
220.335
220.25
220.178
220.119
220.072
220.047
220.046
220.058
220.095
220.131
220.228
220.381
220.589
220.824
221.06
221.301
221.536
221.777
222.02
222.259
222.493
222.728
222.968
223.206
223.445
223.671
223.888
224.098
224.311
224.527
224.746
224.961
225.167
225.362
225.545
225.722
225.9
226.081
226.271
226.468
226.671
226.876
227.083
227.287
227.488
227.684
227.874
228.06
228.24
228.416
228.586
228.751
228.908
229.058
229.2
229.332
229.454
229.565
229.667
229.76
229.848
229.935
230.022
230.115
230.222
230.35
230.505
230.687
230.892
231.107
231.32
231.515
231.68
231.807
231.897
231.955
231.992
232.013
243.636
225.009
226.434
226.885
226.743
226.65
226.576
226.463
226.299
226.114
225.934
225.77
225.627
225.497
225.37
225.239
225.096
224.941
224.773
224.596
224.415
224.232
224.049
223.863
223.674
223.482
223.29
223.096
222.9
222.703
222.502
222.298
222.094
221.892
221.693
221.498
221.307
221.122
220.945
220.779
220.624
220.485
220.363
220.259
220.17
220.095
220.032
219.983
219.954
219.95
219.961
219.996
220.028
220.121
220.27
220.474
220.704
220.941
221.184
221.423
221.668
221.915
222.159
222.397
222.634
222.872
223.105
223.338
223.56
223.773
223.975
224.176
224.381
224.588
224.791
224.985
225.166
225.34
225.51
225.685
225.868
226.062
226.263
226.47
226.677
226.881
227.081
227.274
227.46
227.639
227.813
227.981
228.145
228.304
228.459
228.61
228.754
228.891
229.02
229.139
229.248
229.346
229.437
229.522
229.606
229.69
229.781
229.884
230.007
230.153
230.326
230.524
230.739
230.959
231.167
231.348
231.491
231.594
231.662
231.704
231.728
243.604
225.005
226.425
226.88
226.738
226.646
226.572
226.458
226.295
226.11
225.929
225.766
225.624
225.494
225.367
225.235
225.092
224.936
224.767
224.59
224.408
224.225
224.04
223.853
223.663
223.47
223.276
223.08
222.883
222.683
222.48
222.274
222.067
221.862
221.659
221.461
221.266
221.077
220.895
220.724
220.565
220.42
220.293
220.184
220.091
220.013
219.947
219.894
219.862
219.855
219.865
219.898
219.927
220.015
220.158
220.361
220.592
220.83
221.078
221.317
221.562
221.815
222.066
222.309
222.545
222.775
222.997
223.213
223.415
223.61
223.798
223.992
224.194
224.401
224.606
224.804
224.992
225.17
225.345
225.523
225.706
225.898
226.095
226.296
226.495
226.691
226.88
227.064
227.242
227.413
227.58
227.741
227.898
228.051
228.2
228.343
228.481
228.612
228.735
228.848
228.952
229.045
229.13
229.21
229.288
229.367
229.453
229.552
229.67
229.812
229.982
230.178
230.394
230.616
230.828
231.012
231.157
231.26
231.325
231.365
231.389
243.599
225.001
226.416
226.875
226.733
226.642
226.568
226.454
226.29
226.105
225.925
225.762
225.62
225.49
225.363
225.231
225.088
224.931
224.762
224.584
224.402
224.217
224.032
223.843
223.652
223.458
223.262
223.064
222.865
222.663
222.459
222.25
222.041
221.832
221.626
221.424
221.225
221.032
220.846
220.67
220.505
220.356
220.224
220.11
220.013
219.931
219.862
219.806
219.77
219.76
219.769
219.797
219.823
219.909
220.052
220.256
220.488
220.73
220.978
221.219
221.467
221.721
221.971
222.214
222.443
222.659
222.862
223.058
223.242
223.423
223.605
223.799
224.006
224.221
224.437
224.647
224.847
225.035
225.216
225.395
225.575
225.76
225.946
226.135
226.321
226.506
226.686
226.861
227.031
227.197
227.358
227.514
227.667
227.815
227.959
228.099
228.233
228.361
228.481
228.591
228.691
228.782
228.864
228.94
229.013
229.088
229.168
229.261
229.372
229.507
229.671
229.861
230.073
230.293
230.504
230.687
230.83
230.931
230.994
231.027
231.034
243.595
224.997
226.406
226.87
226.728
226.638
226.564
226.45
226.286
226.101
225.921
225.758
225.616
225.486
225.359
225.227
225.084
224.927
224.757
224.579
224.395
224.21
224.023
223.834
223.641
223.446
223.248
223.049
222.848
222.644
222.437
222.227
222.014
221.802
221.593
221.386
221.184
220.986
220.796
220.615
220.445
220.291
220.153
220.034
219.932
219.847
219.774
219.716
219.677
219.663
219.67
219.695
219.718
219.803
219.945
220.153
220.386
220.63
220.882
221.126
221.374
221.621
221.859
222.088
222.301
222.504
222.695
222.881
223.059
223.239
223.423
223.623
223.836
224.059
224.285
224.505
224.716
224.913
225.099
225.277
225.45
225.623
225.796
225.97
226.144
226.318
226.49
226.661
226.828
226.992
227.151
227.306
227.455
227.602
227.743
227.881
228.012
228.138
228.255
228.364
228.463
228.552
228.633
228.708
228.78
228.853
228.931
229.022
229.13
229.263
229.423
229.612
229.823
230.043
230.255
230.44
230.584
230.684
230.748
230.787
230.81
243.58
224.993
226.396
226.865
226.723
226.634
226.56
226.446
226.282
226.097
225.917
225.754
225.613
225.483
225.356
225.223
225.079
224.922
224.752
224.573
224.389
224.202
224.015
223.824
223.63
223.433
223.234
223.033
222.83
222.624
222.415
222.202
221.987
221.772
221.559
221.348
221.142
220.94
220.745
220.558
220.384
220.224
220.081
219.956
219.85
219.76
219.685
219.623
219.58
219.564
219.568
219.59
219.61
219.694
219.834
220.043
220.28
220.53
220.786
221.03
221.27
221.502
221.723
221.937
222.137
222.332
222.519
222.707
222.89
223.077
223.271
223.48
223.699
223.926
224.155
224.379
224.593
224.792
224.976
225.147
225.309
225.468
225.625
225.786
225.949
226.115
226.282
226.449
226.615
226.778
226.936
227.09
227.24
227.384
227.525
227.66
227.79
227.914
228.031
228.139
228.237
228.325
228.406
228.48
228.551
228.623
228.7
228.788
228.895
229.024
229.182
229.368
229.578
229.798
230.012
230.2
230.345
230.444
230.504
230.541
230.574
243.562
224.988
226.386
226.86
226.718
226.629
226.555
226.441
226.277
226.092
225.913
225.75
225.609
225.479
225.352
225.219
225.075
224.918
224.747
224.567
224.382
224.195
224.006
223.815
223.619
223.421
223.22
223.017
222.812
222.604
222.393
222.178
221.96
221.741
221.524
221.31
221.099
220.892
220.692
220.501
220.321
220.155
220.006
219.876
219.765
219.671
219.592
219.526
219.481
219.461
219.464
219.481
219.499
219.581
219.719
219.928
220.166
220.421
220.676
220.917
221.146
221.362
221.571
221.773
221.965
222.16
222.353
222.552
222.749
222.949
223.154
223.369
223.591
223.816
224.039
224.256
224.461
224.649
224.821
224.979
225.128
225.274
225.422
225.575
225.733
225.896
226.063
226.231
226.397
226.56
226.718
226.871
227.018
227.161
227.298
227.431
227.558
227.679
227.792
227.896
227.991
228.077
228.155
228.227
228.295
228.363
228.437
228.52
228.622
228.746
228.899
229.081
229.288
229.506
229.721
229.91
230.059
230.16
230.217
230.241
230.245
243.548
224.983
226.375
226.855
226.712
226.625
226.551
226.437
226.273
226.088
225.909
225.746
225.605
225.475
225.348
225.215
225.071
224.913
224.742
224.562
224.376
224.187
223.997
223.805
223.608
223.409
223.206
223.001
222.794
222.584
222.371
222.153
221.932
221.71
221.489
221.27
221.055
220.844
220.639
220.442
220.257
220.085
219.93
219.794
219.677
219.579
219.496
219.427
219.378
219.356
219.355
219.369
219.385
219.466
219.601
219.807
220.041
220.295
220.547
220.784
221.003
221.21
221.411
221.613
221.813
222.018
222.222
222.433
222.639
222.847
223.058
223.275
223.495
223.714
223.926
224.126
224.311
224.477
224.629
224.771
224.908
225.048
225.193
225.346
225.506
225.671
225.838
226.007
226.173
226.335
226.491
226.642
226.788
226.929
227.065
227.195
227.32
227.438
227.548
227.65
227.742
227.825
227.9
227.968
228.033
228.098
228.168
228.248
228.346
228.467
228.617
228.797
229.003
229.224
229.441
229.635
229.788
229.892
229.95
229.973
229.977
243.542
224.978
226.364
226.85
226.707
226.62
226.547
226.432
226.268
226.083
225.904
225.742
225.601
225.472
225.344
225.211
225.066
224.908
224.737
224.556
224.369
224.18
223.989
223.795
223.597
223.396
223.192
222.985
222.776
222.564
222.348
222.128
221.904
221.678
221.453
221.23
221.01
220.794
220.584
220.382
220.191
220.013
219.852
219.71
219.588
219.484
219.397
219.325
219.273
219.246
219.244
219.255
219.269
219.349
219.48
219.679
219.905
220.152
220.399
220.633
220.849
221.057
221.264
221.476
221.692
221.913
222.128
222.342
222.549
222.754
222.962
223.175
223.388
223.599
223.795
223.974
224.134
224.274
224.404
224.531
224.663
224.804
224.955
225.115
225.281
225.45
225.62
225.788
225.951
226.11
226.263
226.412
226.556
226.695
226.83
226.959
227.083
227.2
227.309
227.408
227.498
227.578
227.65
227.716
227.778
227.84
227.908
227.986
228.081
228.2
228.35
228.53
228.739
228.964
229.187
229.388
229.547
229.656
229.718
229.742
229.747
243.533
224.973
226.353
226.844
226.702
226.616
226.542
226.428
226.263
226.079
225.9
225.738
225.597
225.468
225.341
225.207
225.062
224.904
224.732
224.55
224.362
224.172
223.98
223.785
223.586
223.384
223.178
222.969
222.758
222.543
222.325
222.102
221.876
221.646
221.417
221.19
220.965
220.744
220.528
220.321
220.124
219.94
219.773
219.624
219.496
219.387
219.295
219.22
219.165
219.135
219.129
219.138
219.149
219.229
219.357
219.551
219.765
220.002
220.243
220.48
220.703
220.921
221.139
221.366
221.598
221.833
222.054
222.264
222.461
222.652
222.846
223.048
223.253
223.454
223.636
223.796
223.933
224.051
224.164
224.284
224.417
224.564
224.724
224.893
225.065
225.238
225.406
225.57
225.728
225.882
226.031
226.177
226.319
226.458
226.592
226.722
226.847
226.964
227.074
227.173
227.262
227.341
227.411
227.475
227.535
227.595
227.66
227.735
227.828
227.946
228.095
228.278
228.49
228.721
228.952
229.16
229.327
229.443
229.508
229.536
229.542
243.519
224.967
226.342
226.838
226.696
226.611
226.538
226.423
226.258
226.074
225.896
225.734
225.594
225.464
225.337
225.203
225.058
224.899
224.727
224.544
224.356
224.164
223.971
223.775
223.575
223.371
223.164
222.953
222.74
222.523
222.302
222.077
221.847
221.614
221.381
221.149
220.92
220.693
220.472
220.259
220.055
219.866
219.692
219.537
219.403
219.288
219.192
219.113
219.054
219.021
219.011
219.018
219.027
219.106
219.232
219.422
219.628
219.857
220.095
220.338
220.574
220.805
221.033
221.272
221.513
221.753
221.974
222.174
222.353
222.519
222.69
222.875
223.069
223.259
223.433
223.582
223.709
223.82
223.931
224.055
224.195
224.35
224.517
224.693
224.867
225.037
225.2
225.357
225.508
225.657
225.802
225.944
226.084
226.221
226.355
226.485
226.611
226.73
226.841
226.942
227.032
227.111
227.181
227.243
227.301
227.359
227.422
227.495
227.586
227.702
227.851
228.035
228.251
228.487
228.725
228.942
229.117
229.239
229.309
229.339
229.348
243.509
224.962
226.331
226.833
226.691
226.606
226.533
226.419
226.254
226.069
225.891
225.73
225.59
225.461
225.333
225.199
225.053
224.894
224.721
224.538
224.349
224.157
223.963
223.765
223.564
223.359
223.15
222.937
222.721
222.502
222.279
222.052
221.819
221.582
221.345
221.108
220.874
220.642
220.416
220.196
219.987
219.791
219.61
219.449
219.308
219.187
219.086
219.003
218.941
218.904
218.891
218.896
218.902
218.98
219.103
219.292
219.497
219.725
219.964
220.213
220.462
220.704
220.937
221.176
221.413
221.645
221.855
222.038
222.197
222.342
222.494
222.664
222.847
223.029
223.199
223.348
223.48
223.599
223.723
223.858
224.006
224.167
224.337
224.509
224.677
224.838
224.993
225.143
225.29
225.434
225.576
225.716
225.853
225.988
226.12
226.249
226.375
226.496
226.609
226.713
226.805
226.886
226.956
227.018
227.075
227.132
227.192
227.263
227.351
227.465
227.612
227.797
228.015
228.257
228.501
228.725
228.907
229.034
229.109
229.143
229.153
243.499
224.957
226.32
226.827
226.685
226.602
226.529
226.414
226.249
226.065
225.887
225.726
225.586
225.457
225.329
225.195
225.049
224.889
224.716
224.532
224.342
224.149
223.954
223.756
223.553
223.346
223.135
222.921
222.703
222.482
222.257
222.026
221.79
221.55
221.308
221.067
220.827
220.591
220.358
220.133
219.917
219.714
219.527
219.359
219.211
219.085
218.978
218.891
218.826
218.785
218.769
218.771
218.775
218.849
218.971
219.161
219.37
219.604
219.847
220.1
220.355
220.602
220.831
221.055
221.272
221.482
221.674
221.841
221.989
222.128
222.274
222.439
222.613
222.787
222.956
223.11
223.255
223.394
223.538
223.688
223.844
224.005
224.169
224.329
224.486
224.637
224.785
224.931
225.076
225.219
225.36
225.497
225.631
225.762
225.891
226.017
226.141
226.262
226.376
226.482
226.577
226.66
226.732
226.796
226.853
226.909
226.968
227.037
227.122
227.233
227.377
227.56
227.779
228.024
228.273
228.502
228.689
228.822
228.901
228.938
228.951
243.49
224.952
226.308
226.821
226.68
226.597
226.524
226.409
226.244
226.06
225.882
225.722
225.582
225.453
225.325
225.191
225.045
224.885
224.711
224.527
224.336
224.142
223.945
223.746
223.542
223.334
223.122
222.905
222.685
222.462
222.234
222.001
221.762
221.518
221.272
221.026
220.781
220.539
220.301
220.069
219.847
219.637
219.444
219.268
219.114
218.981
218.869
218.777
218.708
218.664
218.644
218.644
218.645
218.716
218.834
219.026
219.24
219.482
219.728
219.981
220.233
220.473
220.69
220.894
221.085
221.269
221.444
221.603
221.754
221.902
222.06
222.23
222.402
222.571
222.738
222.898
223.056
223.215
223.376
223.536
223.693
223.847
223.995
224.141
224.284
224.428
224.573
224.72
224.866
225.012
225.152
225.288
225.419
225.545
225.669
225.79
225.91
226.027
226.14
226.247
226.344
226.431
226.506
226.572
226.631
226.688
226.747
226.814
226.896
227.004
227.144
227.324
227.542
227.787
228.039
228.273
228.465
228.601
228.682
228.722
228.738
243.482
224.946
226.297
226.815
226.674
226.592
226.52
226.405
226.239
226.055
225.878
225.718
225.578
225.449
225.322
225.187
225.04
224.88
224.706
224.521
224.329
224.134
223.937
223.736
223.531
223.322
223.108
222.89
222.667
222.442
222.211
221.975
221.733
221.486
221.235
220.984
220.734
220.486
220.242
220.005
219.776
219.56
219.359
219.176
219.015
218.875
218.757
218.661
218.587
218.54
218.517
218.514
218.514
218.582
218.696
218.883
219.099
219.344
219.59
219.837
220.077
220.302
220.507
220.694
220.869
221.034
221.201
221.363
221.529
221.697
221.875
222.056
222.23
222.398
222.562
222.724
222.89
223.058
223.224
223.383
223.531
223.669
223.802
223.934
224.07
224.212
224.36
224.512
224.664
224.812
224.954
225.089
225.216
225.338
225.455
225.57
225.683
225.796
225.905
226.01
226.108
226.196
226.274
226.343
226.405
226.464
226.524
226.59
226.672
226.776
226.913
227.089
227.304
227.549
227.802
228.039
228.233
228.372
228.456
228.497
228.514
243.474
224.941
226.286
226.809
226.668
226.587
226.515
226.4
226.234
226.051
225.874
225.714
225.575
225.446
225.318
225.183
225.036
224.875
224.701
224.515
224.323
224.127
223.928
223.727
223.52
223.31
223.094
222.874
222.65
222.421
222.189
221.95
221.705
221.454
221.199
220.943
220.687
220.434
220.184
219.94
219.704
219.481
219.273
219.083
218.914
218.768
218.644
218.542
218.464
218.414
218.388
218.382
218.38
218.446
218.556
218.736
218.945
219.182
219.42
219.655
219.881
220.095
220.293
220.479
220.655
220.82
220.99
221.16
221.342
221.53
221.727
221.921
222.1
222.269
222.43
222.589
222.751
222.912
223.068
223.212
223.343
223.464
223.584
223.711
223.847
223.996
224.152
224.311
224.468
224.618
224.76
224.893
225.018
225.135
225.247
225.356
225.463
225.568
225.672
225.773
225.868
225.957
226.037
226.108
226.173
226.234
226.296
226.364
226.445
226.548
226.682
226.855
227.067
227.31
227.564
227.803
228
228.141
228.226
228.269
228.286
243.467
224.935
226.274
226.803
226.662
226.582
226.51
226.395
226.23
226.046
225.869
225.71
225.571
225.442
225.314
225.179
225.032
224.87
224.695
224.509
224.316
224.119
223.92
223.717
223.51
223.297
223.08
222.858
222.632
222.401
222.166
221.925
221.676
221.422
221.163
220.901
220.641
220.381
220.125
219.874
219.632
219.402
219.186
218.989
218.813
218.659
218.529
218.421
218.339
218.285
218.256
218.247
218.245
218.31
218.417
218.59
218.784
219.002
219.223
219.444
219.665
219.877
220.082
220.282
220.474
220.654
220.837
221.015
221.207
221.402
221.608
221.811
221.998
222.17
222.33
222.481
222.627
222.767
222.897
223.015
223.124
223.233
223.35
223.482
223.629
223.788
223.954
224.118
224.277
224.428
224.569
224.7
224.822
224.936
225.044
225.148
225.249
225.348
225.445
225.54
225.63
225.716
225.795
225.867
225.934
225.998
226.062
226.132
226.214
226.317
226.45
226.621
226.831
227.073
227.327
227.568
227.768
227.911
227.997
228.039
228.056
243.459
224.93
226.263
226.796
226.657
226.577
226.506
226.39
226.225
226.041
225.865
225.706
225.567
225.438
225.31
225.175
225.027
224.866
224.69
224.503
224.31
224.112
223.912
223.708
223.499
223.286
223.067
222.843
222.615
222.382
222.144
221.9
221.648
221.39
221.126
220.86
220.594
220.328
220.066
219.809
219.559
219.322
219.099
218.894
218.71
218.549
218.411
218.298
218.211
218.153
218.121
218.11
218.106
218.17
218.277
218.443
218.625
218.824
219.028
219.238
219.46
219.681
219.902
220.122
220.338
220.541
220.739
220.922
221.112
221.301
221.505
221.71
221.904
222.083
222.242
222.38
222.502
222.61
222.707
222.797
222.889
222.993
223.117
223.262
223.424
223.595
223.766
223.932
224.089
224.236
224.374
224.502
224.622
224.734
224.84
224.941
225.038
225.132
225.223
225.311
225.396
225.477
225.552
225.623
225.689
225.754
225.82
225.892
225.976
226.081
226.215
226.386
226.595
226.838
227.094
227.337
227.539
227.685
227.771
227.813
227.829
243.455
224.924
226.251
226.79
226.651
226.572
226.501
226.385
226.22
226.036
225.86
225.702
225.563
225.435
225.306
225.171
225.023
224.861
224.685
224.498
224.303
224.105
223.903
223.698
223.489
223.274
223.053
222.828
222.597
222.362
222.121
221.874
221.62
221.358
221.09
220.819
220.546
220.275
220.006
219.742
219.486
219.241
219.01
218.797
218.605
218.436
218.292
218.172
218.08
218.018
217.983
217.97
217.965
218.027
218.135
218.301
218.478
218.669
218.862
219.069
219.298
219.53
219.768
220.006
220.241
220.464
220.675
220.858
221.037
221.209
221.398
221.598
221.796
221.982
222.139
222.261
222.355
222.431
222.499
222.568
222.652
222.762
222.902
223.064
223.239
223.416
223.587
223.749
223.901
224.043
224.176
224.3
224.417
224.528
224.633
224.733
224.827
224.918
225.005
225.088
225.167
225.241
225.311
225.378
225.441
225.504
225.57
225.642
225.728
225.834
225.97
226.143
226.355
226.601
226.86
227.108
227.314
227.462
227.549
227.591
227.606
243.447
224.918
226.239
226.783
226.645
226.567
226.496
226.38
226.215
226.032
225.856
225.698
225.559
225.431
225.302
225.167
225.018
224.856
224.68
224.492
224.297
224.097
223.895
223.689
223.478
223.262
223.04
222.813
222.58
222.342
222.099
221.849
221.592
221.326
221.054
220.777
220.499
220.222
219.946
219.675
219.412
219.159
218.92
218.699
218.499
218.322
218.17
218.044
217.946
217.879
217.842
217.827
217.819
217.878
217.989
218.159
218.345
218.543
218.739
218.95
219.186
219.426
219.673
219.92
220.165
220.401
220.619
220.797
220.957
221.105
221.27
221.456
221.655
221.845
221.998
222.104
222.174
222.229
222.281
222.343
222.432
222.557
222.713
222.889
223.069
223.246
223.412
223.566
223.71
223.845
223.972
224.093
224.207
224.316
224.42
224.519
224.613
224.703
224.788
224.867
224.941
225.01
225.074
225.134
225.192
225.251
225.313
225.384
225.469
225.576
225.713
225.889
226.105
226.355
226.621
226.875
227.087
227.238
227.326
227.368
227.383
243.447
224.912
226.227
226.776
226.638
226.562
226.491
226.375
226.21
226.027
225.852
225.694
225.556
225.427
225.299
225.163
225.014
224.851
224.675
224.486
224.29
224.09
223.887
223.68
223.468
223.25
223.027
222.798
222.563
222.322
222.077
221.824
221.564
221.294
221.017
220.735
220.452
220.168
219.886
219.608
219.337
219.076
218.829
218.6
218.391
218.206
218.047
217.913
217.809
217.738
217.698
217.68
217.671
217.726
217.836
218.011
218.215
218.434
218.647
218.869
219.11
219.35
219.599
219.842
220.085
220.322
220.539
220.707
220.846
220.969
221.11
221.278
221.467
221.653
221.798
221.894
221.955
222.005
222.059
222.132
222.24
222.383
222.551
222.73
222.908
223.077
223.234
223.38
223.516
223.644
223.765
223.881
223.991
224.097
224.2
224.299
224.393
224.484
224.568
224.646
224.717
224.781
224.839
224.894
224.945
224.998
225.055
225.121
225.202
225.307
225.443
225.62
225.84
226.096
226.371
226.633
226.853
227.009
227.1
227.141
227.155
243.437
224.906
226.215
226.77
226.632
226.556
226.486
226.37
226.205
226.022
225.847
225.689
225.552
225.423
225.295
225.159
225.01
224.847
224.67
224.481
224.284
224.083
223.879
223.671
223.457
223.238
223.014
222.783
222.546
222.303
222.055
221.799
221.536
221.262
220.981
220.694
220.404
220.114
219.825
219.54
219.261
218.992
218.737
218.499
218.282
218.088
217.921
217.78
217.669
217.593
217.55
217.53
217.519
217.57
217.678
217.856
218.076
218.322
218.56
218.798
219.042
219.275
219.516
219.746
219.975
220.197
220.402
220.558
220.683
220.794
220.919
221.072
221.244
221.415
221.549
221.642
221.71
221.774
221.849
221.947
222.077
222.233
222.405
222.579
222.748
222.906
223.053
223.19
223.318
223.44
223.556
223.666
223.772
223.875
223.975
224.072
224.167
224.257
224.342
224.42
224.49
224.552
224.606
224.655
224.701
224.747
224.797
224.856
224.931
225.03
225.163
225.338
225.56
225.822
226.105
226.378
226.608
226.771
226.864
226.905
226.919
243.438
224.9
226.203
226.763
226.626
226.551
226.481
226.365
226.2
226.017
225.843
225.685
225.548
225.42
225.291
225.155
225.005
224.842
224.664
224.475
224.278
224.076
223.871
223.662
223.447
223.227
223.001
222.768
222.529
222.284
222.033
221.775
221.507
221.231
220.945
220.652
220.356
220.06
219.764
219.471
219.185
218.908
218.644
218.397
218.171
217.968
217.792
217.643
217.525
217.444
217.397
217.377
217.364
217.412
217.517
217.692
217.919
218.181
218.444
218.698
218.944
219.167
219.395
219.606
219.811
220.01
220.197
220.346
220.471
220.586
220.714
220.86
221.012
221.16
221.281
221.376
221.462
221.553
221.659
221.786
221.934
222.097
222.263
222.426
222.582
222.729
222.867
222.997
223.119
223.235
223.345
223.45
223.551
223.65
223.746
223.842
223.935
224.026
224.111
224.189
224.259
224.32
224.372
224.417
224.458
224.498
224.541
224.592
224.659
224.75
224.876
225.047
225.267
225.532
225.824
226.109
226.351
226.523
226.621
226.662
226.672
243.43
224.894
226.191
226.755
226.619
226.546
226.476
226.36
226.195
226.012
225.838
225.681
225.544
225.416
225.287
225.151
225.001
224.837
224.659
224.469
224.271
224.069
223.863
223.652
223.437
223.215
222.988
222.753
222.512
222.264
222.011
221.75
221.479
221.199
220.908
220.611
220.309
220.005
219.702
219.402
219.108
218.822
218.55
218.293
218.058
217.846
217.661
217.504
217.379
217.291
217.241
217.219
217.206
217.252
217.355
217.524
217.744
218.002
218.271
218.535
218.781
218.996
219.216
219.412
219.598
219.776
219.95
220.097
220.235
220.369
220.516
220.666
220.804
220.928
221.034
221.133
221.24
221.36
221.495
221.645
221.803
221.964
222.12
222.27
222.414
222.551
222.682
222.805
222.921
223.031
223.135
223.235
223.331
223.425
223.518
223.61
223.701
223.79
223.875
223.954
224.024
224.084
224.135
224.177
224.215
224.25
224.287
224.331
224.389
224.47
224.586
224.749
224.965
225.231
225.528
225.824
226.079
226.263
226.367
226.41
226.412
243.431
224.889
226.178
226.748
226.613
226.54
226.471
226.355
226.189
226.007
225.834
225.677
225.541
225.413
225.284
225.147
224.997
224.833
224.654
224.464
224.265
224.062
223.855
223.643
223.427
223.204
222.975
222.738
222.495
222.245
221.989
221.725
221.451
221.167
220.872
220.569
220.261
219.95
219.64
219.332
219.029
218.735
218.454
218.188
217.942
217.721
217.527
217.362
217.229
217.134
217.08
217.057
217.043
217.09
217.195
217.358
217.56
217.795
218.047
218.308
218.554
218.77
218.99
219.183
219.365
219.536
219.706
219.857
220.011
220.173
220.347
220.507
220.637
220.744
220.84
220.941
221.063
221.202
221.356
221.516
221.673
221.825
221.97
222.11
222.245
222.376
222.501
222.618
222.727
222.83
222.928
223.022
223.113
223.202
223.29
223.379
223.466
223.553
223.637
223.716
223.786
223.845
223.895
223.936
223.97
224.002
224.033
224.071
224.12
224.192
224.297
224.45
224.658
224.921
225.221
225.525
225.792
225.987
226.099
226.147
226.143
243.425
224.883
226.166
226.741
226.606
226.535
226.466
226.35
226.184
226.002
225.829
225.673
225.537
225.409
225.28
225.143
224.992
224.828
224.649
224.458
224.259
224.054
223.847
223.634
223.417
223.193
222.962
222.724
222.478
222.226
221.967
221.7
221.423
221.135
220.836
220.527
220.213
219.895
219.578
219.262
218.951
218.647
218.356
218.081
217.825
217.594
217.39
217.217
217.076
216.974
216.915
216.889
216.876
216.924
217.035
217.196
217.383
217.591
217.814
218.061
218.305
218.526
218.754
218.956
219.147
219.329
219.505
219.665
219.832
220.017
220.214
220.386
220.516
220.618
220.71
220.813
220.939
221.08
221.234
221.389
221.537
221.678
221.813
221.947
222.079
222.207
222.327
222.437
222.539
222.635
222.725
222.813
222.897
222.982
223.065
223.149
223.233
223.318
223.4
223.478
223.547
223.606
223.654
223.693
223.724
223.752
223.78
223.812
223.853
223.915
224.009
224.15
224.349
224.606
224.907
225.218
225.495
225.701
225.823
225.876
225.867
243.427
224.877
226.153
226.733
226.599
226.529
226.461
226.345
226.179
225.998
225.825
225.669
225.533
225.405
225.276
225.139
224.988
224.823
224.644
224.453
224.252
224.047
223.839
223.625
223.406
223.181
222.949
222.709
222.462
222.207
221.945
221.675
221.395
221.103
220.799
220.486
220.165
219.84
219.515
219.191
218.871
218.558
218.257
217.972
217.706
217.464
217.25
217.067
216.919
216.81
216.746
216.717
216.703
216.753
216.871
217.04
217.225
217.418
217.618
217.85
218.089
218.315
218.553
218.768
218.974
219.175
219.365
219.536
219.71
219.906
220.113
220.293
220.432
220.539
220.634
220.737
220.855
220.983
221.12
221.256
221.389
221.519
221.65
221.783
221.916
222.043
222.159
222.263
222.357
222.445
222.527
222.606
222.684
222.762
222.841
222.92
223.002
223.084
223.166
223.243
223.311
223.369
223.415
223.452
223.48
223.505
223.528
223.554
223.589
223.641
223.724
223.852
224.039
224.289
224.589
224.905
225.193
225.411
225.541
225.6
225.587
243.423
224.872
226.141
226.725
226.592
226.523
226.455
226.34
226.174
225.993
225.82
225.665
225.529
225.402
225.272
225.135
224.984
224.818
224.639
224.447
224.246
224.04
223.831
223.616
223.396
223.17
222.936
222.695
222.445
222.188
221.924
221.651
221.367
221.071
220.763
220.444
220.116
219.785
219.451
219.119
218.79
218.468
218.157
217.861
217.584
217.332
217.108
216.915
216.758
216.642
216.572
216.54
216.525
216.575
216.699
216.881
217.083
217.284
217.48
217.706
217.94
218.167
218.412
218.636
218.855
219.074
219.28
219.46
219.635
219.828
220.033
220.217
220.367
220.489
220.592
220.693
220.794
220.896
221.003
221.112
221.227
221.351
221.485
221.625
221.761
221.886
221.998
222.096
222.181
222.26
222.333
222.404
222.474
222.545
222.618
222.694
222.773
222.854
222.935