/*--------------------------------*- C++ -*----------------------------------*\
| =========                 |                                                 |
| \\      /  F ield         | OpenFOAM: The Open Source CFD Toolbox           |
|  \\    /   O peration     | Version:  2412                                  |
|   \\  /    A nd           | Website:  www.openfoam.com                      |
|    \\/     M anipulation  |                                                 |
\*---------------------------------------------------------------------------*/
FoamFile
{
    version     2.0;
    format      ascii;
    arch        "LSB;label=32;scalar=64";
    class       volScalarField;
    location    "0.087";
    object      T;
}
// * * * * * * * * * * * * * * * * * * * * * * * * * * * * * * * * * * * * * //

dimensions      [0 0 0 1 0 0 0];

internalField   nonuniform List<scalar> 
78650
(
233.051
226.067
225.818
225.677
225.516
225.326
225.096
224.83
224.56
224.307
224.081
223.89
223.733
223.609
223.51
223.426
223.35
223.272
223.187
223.093
222.993
222.893
222.801
222.721
222.658
222.615
222.586
222.568
222.553
222.538
222.52
222.499
222.472
222.44
222.402
222.357
222.305
222.248
222.188
222.126
222.066
222.006
221.95
221.896
221.846
221.799
221.755
221.715
221.677
221.642
221.61
221.581
221.555
221.532
221.511
221.492
221.475
221.46
221.445
221.432
221.419
221.406
221.392
221.377
221.359
221.338
221.312
221.281
221.245
221.202
221.15
221.089
221.015
220.928
220.827
220.708
220.57
220.41
220.226
220.014
219.771
219.494
219.179
218.823
218.422
217.97
217.463
216.897
216.266
215.566
214.794
213.944
213.007
211.988
210.868
209.673
208.376
206.985
205.501
203.901
202.214
200.419
198.552
196.662
194.695
192.742
190.867
188.919
186.949
185.142
183.442
181.864
180.328
178.782
177.325
176.028
175.026
174.292
173.82
173.581
172.212
232.305
225.943
225.778
225.67
225.524
225.341
225.112
224.842
224.564
224.307
224.077
223.881
223.721
223.594
223.494
223.414
223.343
223.273
223.194
223.105
223.01
222.914
222.824
222.744
222.68
222.634
222.605
222.588
222.575
222.563
222.55
222.532
222.511
222.485
222.454
222.416
222.371
222.319
222.264
222.208
222.151
222.096
222.043
221.993
221.947
221.904
221.864
221.827
221.794
221.764
221.736
221.713
221.692
221.674
221.658
221.645
221.634
221.626
221.618
221.612
221.607
221.602
221.597
221.591
221.584
221.574
221.56
221.543
221.52
221.492
221.457
221.413
221.36
221.294
221.216
221.122
221.012
220.882
220.731
220.555
220.352
220.118
219.85
219.545
219.198
218.806
218.362
217.865
217.307
216.686
215.994
215.226
214.371
213.433
212.397
211.284
210.062
208.754
207.343
205.832
204.234
202.552
200.752
198.91
197.07
195.122
193.14
191.197
189.209
187.331
185.543
183.815
182.2
180.582
179.002
177.545
176.336
175.407
174.797
174.44
172.911
231.555
225.834
225.729
225.653
225.529
225.356
225.13
224.858
224.575
224.312
224.077
223.877
223.715
223.587
223.488
223.409
223.342
223.275
223.203
223.12
223.031
222.939
222.85
222.771
222.706
222.658
222.628
222.61
222.599
222.59
222.58
222.567
222.55
222.53
222.505
222.475
222.436
222.391
222.342
222.29
222.237
222.186
222.137
222.091
222.049
222.01
221.974
221.942
221.913
221.887
221.865
221.846
221.83
221.818
221.808
221.8
221.796
221.793
221.793
221.794
221.796
221.8
221.804
221.808
221.81
221.811
221.81
221.805
221.796
221.782
221.763
221.737
221.702
221.657
221.601
221.531
221.447
221.345
221.225
221.082
220.915
220.721
220.496
220.237
219.94
219.601
219.217
218.783
218.294
217.744
217.128
216.44
215.675
214.835
213.91
212.904
211.79
210.589
209.267
207.846
206.324
204.695
202.994
201.195
199.355
197.447
195.404
193.428
191.406
189.336
187.431
185.517
183.722
182.023
180.389
178.87
177.532
176.365
175.575
175.117
173.471
230.821
225.702
225.662
225.627
225.535
225.375
225.154
224.882
224.597
224.328
224.086
223.882
223.717
223.587
223.487
223.41
223.345
223.282
223.215
223.139
223.056
222.968
222.882
222.804
222.738
222.688
222.655
222.637
222.627
222.62
222.613
222.603
222.591
222.576
222.557
222.533
222.502
222.464
222.421
222.374
222.326
222.279
222.234
222.192
222.153
222.118
222.087
222.059
222.034
222.013
221.995
221.981
221.97
221.963
221.958
221.957
221.958
221.962
221.968
221.976
221.986
221.997
222.009
222.022
222.035
222.046
222.056
222.063
222.067
222.067
222.063
222.053
222.037
222.011
221.976
221.929
221.869
221.795
221.704
221.594
221.462
221.306
221.123
220.91
220.663
220.378
220.052
219.68
219.257
218.779
218.241
217.637
216.963
216.215
215.383
214.465
213.444
212.338
211.12
209.819
208.409
206.885
205.269
203.521
201.643
199.785
197.832
195.758
193.804
191.687
189.692
187.667
185.667
183.785
181.949
180.25
178.761
177.514
176.559
175.918
173.862
230.026
225.571
225.586
225.59
225.535
225.401
225.191
224.922
224.637
224.364
224.118
223.907
223.735
223.599
223.496
223.419
223.355
223.297
223.236
223.166
223.088
223.004
222.92
222.843
222.777
222.725
222.689
222.669
222.658
222.653
222.648
222.641
222.633
222.622
222.61
222.593
222.569
222.538
222.501
222.46
222.417
222.375
222.333
222.295
222.26
222.23
222.202
222.179
222.158
222.141
222.128
222.119
222.113
222.111
222.111
222.116
222.123
222.133
222.145
222.16
222.177
222.196
222.217
222.238
222.26
222.282
222.302
222.321
222.338
222.351
222.362
222.367
222.368
222.361
222.346
222.32
222.284
222.235
222.172
222.092
221.992
221.872
221.727
221.555
221.354
221.118
220.845
220.53
220.171
219.761
219.297
218.771
218.179
217.515
216.77
215.942
215.019
214.013
212.898
211.696
210.374
208.953
207.421
205.798
204.068
202.199
200.353
198.255
196.219
194.118
191.998
190.016
187.991
186.065
184.144
182.331
180.643
179.255
178.235
177.488
175.204
229.212
225.419
225.504
225.549
225.53
225.438
225.252
224.989
224.703
224.428
224.18
223.966
223.787
223.643
223.532
223.45
223.384
223.327
223.269
223.204
223.13
223.049
222.968
222.892
222.826
222.771
222.732
222.708
222.696
222.69
222.687
222.683
222.678
222.671
222.663
222.653
222.636
222.613
222.583
222.549
222.511
222.473
222.436
222.402
222.371
222.344
222.321
222.301
222.285
222.273
222.264
222.259
222.258
222.261
222.267
222.277
222.29
222.305
222.324
222.346
222.37
222.397
222.425
222.455
222.486
222.517
222.548
222.578
222.606
222.633
222.657
222.678
222.694
222.704
222.708
222.704
222.69
222.666
222.628
222.577
222.509
222.422
222.315
222.184
222.027
221.84
221.619
221.362
221.063
220.719
220.324
219.874
219.361
218.781
218.127
217.397
216.58
215.681
214.679
213.588
212.378
211.078
209.654
208.108
206.473
204.687
202.851
200.841
198.716
196.662
194.402
192.261
190.054
187.936
185.812
183.799
181.955
180.338
179.209
178.523
176.322
228.386
225.212
225.415
225.507
225.522
225.474
225.33
225.086
224.8
224.519
224.268
224.049
223.864
223.712
223.592
223.5
223.43
223.371
223.316
223.255
223.184
223.106
223.026
222.951
222.884
222.827
222.784
222.755
222.74
222.733
222.731
222.728
222.726
222.722
222.719
222.714
222.705
222.689
222.666
222.639
222.607
222.574
222.542
222.512
222.485
222.462
222.443
222.427
222.416
222.408
222.403
222.403
222.407
222.415
222.426
222.441
222.459
222.481
222.506
222.534
222.565
222.599
222.635
222.673
222.713
222.753
222.795
222.835
222.875
222.914
222.951
222.986
223.018
223.045
223.066
223.081
223.088
223.087
223.075
223.051
223.011
222.956
222.883
222.789
222.672
222.529
222.356
222.15
221.907
221.624
221.296
220.919
220.486
219.993
219.432
218.8
218.087
217.293
216.398
215.412
214.309
213.109
211.775
210.337
208.781
207.13
205.32
203.451
201.427
199.386
197.192
194.994
192.853
190.643
188.44
186.277
184.217
182.379
180.823
179.708
176.864
227.578
224.962
225.278
225.449
225.511
225.498
225.404
225.194
224.915
224.631
224.375
224.153
223.964
223.806
223.677
223.577
223.498
223.436
223.379
223.318
223.25
223.174
223.096
223.022
222.954
222.895
222.847
222.813
222.794
222.784
222.78
222.779
222.778
222.777
222.777
222.777
222.774
222.765
222.75
222.73
222.705
222.678
222.651
222.625
222.602
222.583
222.568
222.557
222.549
222.545
222.545
222.55
222.558
222.571
222.587
222.607
222.631
222.659
222.69
222.724
222.762
222.802
222.846
222.892
222.94
222.989
223.04
223.091
223.142
223.192
223.242
223.291
223.337
223.379
223.418
223.452
223.478
223.498
223.509
223.511
223.5
223.475
223.435
223.377
223.299
223.198
223.072
222.917
222.729
222.505
222.241
221.933
221.574
221.158
220.68
220.135
219.514
218.815
218.024
217.145
216.159
215.077
213.87
212.565
211.126
209.567
207.895
206.068
204.144
201.999
199.896
197.582
195.347
193.064
190.797
188.675
186.561
184.711
183.188
181.991
178.97
226.789
224.642
225.05
225.34
225.486
225.506
225.453
225.289
225.032
224.752
224.495
224.271
224.08
223.917
223.782
223.673
223.587
223.517
223.456
223.394
223.327
223.254
223.177
223.104
223.035
222.974
222.922
222.883
222.857
222.843
222.837
222.835
222.834
222.835
222.838
222.842
222.844
222.842
222.835
222.822
222.804
222.783
222.761
222.74
222.721
222.706
222.695
222.688
222.685
222.685
222.69
222.699
222.711
222.729
222.75
222.776
222.805
222.838
222.875
222.915
222.959
223.007
223.057
223.111
223.167
223.225
223.285
223.346
223.408
223.469
223.531
223.592
223.652
223.71
223.765
223.815
223.861
223.901
223.934
223.958
223.973
223.977
223.967
223.942
223.9
223.838
223.753
223.644
223.506
223.336
223.132
222.887
222.598
222.26
221.866
221.413
220.891
220.296
219.617
218.853
217.987
217.025
215.942
214.754
213.432
211.998
210.428
208.729
206.918
204.916
202.864
200.593
198.232
195.801
193.358
190.932
188.624
186.433
184.653
183.364
179.852
226.06
224.233
224.682
225.126
225.409
225.486
225.471
225.354
225.132
224.866
224.612
224.388
224.197
224.034
223.897
223.784
223.69
223.613
223.546
223.482
223.416
223.344
223.269
223.195
223.127
223.064
223.009
222.965
222.932
222.912
222.902
222.898
222.897
222.898
222.902
222.909
222.916
222.919
222.918
222.913
222.903
222.888
222.872
222.856
222.842
222.832
222.825
222.822
222.823
222.828
222.836
222.849
222.867
222.888
222.915
222.945
222.98
223.018
223.061
223.107
223.157
223.211
223.269
223.329
223.393
223.46
223.528
223.599
223.67
223.742
223.815
223.889
223.962
224.034
224.103
224.171
224.234
224.293
224.347
224.394
224.432
224.461
224.48
224.487
224.479
224.455
224.412
224.346
224.256
224.139
223.99
223.807
223.585
223.319
223.003
222.632
222.198
221.696
221.118
220.461
219.71
218.871
217.92
216.865
215.678
214.376
212.928
211.347
209.628
207.783
205.754
203.651
201.347
199.035
196.697
194.234
191.846
189.602
187.515
185.865
182.003
225.462
223.759
224.168
224.735
225.21
225.427
225.457
225.389
225.199
224.949
224.703
224.484
224.296
224.139
224.007
223.895
223.8
223.717
223.646
223.58
223.513
223.442
223.368
223.296
223.227
223.164
223.106
223.057
223.018
222.991
222.975
222.967
222.965
222.965
222.969
222.979
222.989
222.997
223.002
223.004
223.001
222.993
222.984
222.973
222.964
222.958
222.955
222.956
222.962
222.971
222.984
223.001
223.023
223.049
223.08
223.115
223.155
223.199
223.247
223.299
223.355
223.415
223.479
223.547
223.618
223.692
223.77
223.849
223.93
224.013
224.096
224.181
224.266
224.352
224.436
224.518
224.598
224.675
224.748
224.816
224.877
224.931
224.976
225.01
225.032
225.042
225.036
225.011
224.966
224.895
224.798
224.671
224.511
224.312
224.071
223.78
223.434
223.028
222.553
222.006
221.374
220.654
219.827
218.895
217.832
216.652
215.331
213.886
212.28
210.523
208.628
206.557
204.282
201.847
199.349
196.79
194.243
191.958
189.861
188.183
183.975
225.086
223.349
223.636
224.18
224.821
225.247
225.394
225.376
225.231
225.002
224.76
224.541
224.358
224.207
224.083
223.98
223.892
223.815
223.746
223.68
223.613
223.544
223.473
223.402
223.333
223.269
223.21
223.157
223.112
223.078
223.056
223.043
223.037
223.036
223.039
223.05
223.063
223.076
223.086
223.093
223.097
223.097
223.094
223.09
223.086
223.084
223.086
223.092
223.101
223.114
223.132
223.153
223.179
223.21
223.245
223.285
223.33
223.379
223.432
223.49
223.551
223.618
223.688
223.762
223.84
223.922
224.007
224.095
224.185
224.277
224.371
224.467
224.563
224.661
224.759
224.855
224.951
225.044
225.135
225.222
225.305
225.382
225.451
225.513
225.565
225.605
225.633
225.646
225.644
225.619
225.572
225.497
225.394
225.258
225.084
224.867
224.602
224.284
223.904
223.457
222.931
222.324
221.621
220.82
219.902
218.875
217.713
216.423
214.979
213.39
211.63
209.702
207.634
205.328
202.883
200.334
197.691
195.219
192.864
190.887
186.192
224.907
223.184
223.292
223.61
224.226
224.85
225.202
225.278
225.212
225.015
224.779
224.564
224.383
224.235
224.113
224.018
223.941
223.877
223.821
223.763
223.704
223.643
223.577
223.509
223.441
223.376
223.315
223.259
223.21
223.171
223.142
223.123
223.113
223.11
223.111
223.122
223.138
223.154
223.169
223.181
223.191
223.198
223.202
223.204
223.206
223.21
223.216
223.226
223.24
223.257
223.279
223.305
223.335
223.37
223.41
223.454
223.504
223.557
223.616
223.679
223.746
223.818
223.894
223.975
224.06
224.149
224.241
224.337
224.436
224.537
224.64
224.746
224.854
224.963
225.073
225.183
225.293
225.402
225.51
225.615
225.717
225.815
225.907
225.993
226.072
226.141
226.201
226.247
226.279
226.295
226.295
226.269
226.22
226.141
226.032
225.885
225.697
225.462
225.172
224.823
224.405
223.913
223.334
222.664
221.888
221.003
219.985
218.84
217.54
216.095
214.474
212.69
210.723
208.568
206.199
203.671
201.011
198.409
195.956
193.976
189.48
224.84
223.193
223.162
223.227
223.596
224.227
224.799
225.061
225.086
224.975
224.765
224.552
224.373
224.23
224.117
224.027
223.954
223.893
223.839
223.794
223.752
223.708
223.658
223.601
223.539
223.477
223.416
223.357
223.305
223.262
223.228
223.205
223.191
223.185
223.185
223.194
223.212
223.231
223.25
223.268
223.283
223.296
223.306
223.315
223.323
223.333
223.344
223.359
223.377
223.399
223.425
223.455
223.489
223.528
223.572
223.621
223.675
223.734
223.797
223.865
223.938
224.015
224.097
224.184
224.275
224.37
224.47
224.573
224.68
224.789
224.902
225.017
225.135
225.255
225.377
225.499
225.623
225.746
225.869
225.991
226.111
226.228
226.341
226.45
226.553
226.65
226.738
226.817
226.885
226.938
226.976
226.996
226.999
226.974
226.923
226.839
226.721
226.561
226.355
226.097
225.778
225.393
224.93
224.386
223.744
222.999
222.13
221.14
219.999
218.708
217.245
215.629
213.817
211.798
209.572
207.129
204.636
201.884
199.198
196.872
191.74
224.809
223.244
223.14
223.085
223.199
223.6
224.198
224.661
224.834
224.824
224.697
224.513
224.338
224.2
224.092
224.007
223.939
223.884
223.838
223.8
223.766
223.734
223.701
223.663
223.617
223.565
223.508
223.45
223.396
223.351
223.314
223.286
223.268
223.26
223.258
223.265
223.284
223.306
223.329
223.351
223.372
223.39
223.407
223.422
223.437
223.452
223.469
223.489
223.512
223.538
223.568
223.602
223.641
223.684
223.732
223.786
223.844
223.907
223.975
224.048
224.126
224.208
224.296
224.388
224.485
224.587
224.693
224.803
224.917
225.035
225.156
225.28
225.408
225.538
225.67
225.804
225.94
226.077
226.214
226.351
226.487
226.622
226.755
226.884
227.01
227.131
227.246
227.353
227.451
227.539
227.615
227.675
227.718
227.743
227.748
227.724
227.672
227.583
227.455
227.282
227.056
226.774
226.422
225.998
225.483
224.874
224.151
223.311
222.331
221.213
219.931
218.485
216.833
214.99
212.926
210.643
208.128
205.656
202.858
200.655
196.045
224.755
223.329
223.186
223.068
223.063
223.2
223.593
224.096
224.437
224.551
224.526
224.411
224.263
224.137
224.04
223.966
223.907
223.86
223.821
223.79
223.763
223.738
223.713
223.688
223.659
223.623
223.578
223.527
223.476
223.431
223.393
223.364
223.343
223.332
223.328
223.334
223.353
223.378
223.404
223.431
223.457
223.481
223.503
223.525
223.546
223.567
223.59
223.615
223.643
223.674
223.709
223.747
223.79
223.837
223.889
223.947
224.009
224.077
224.149
224.227
224.309
224.397
224.489
224.587
224.69
224.797
224.91
225.026
225.148
225.273
225.402
225.534
225.67
225.809
225.951
226.096
226.243
226.392
226.542
226.693
226.845
226.996
227.146
227.294
227.441
227.584
227.722
227.856
227.983
228.102
228.212
228.31
228.395
228.463
228.513
228.543
228.55
228.527
228.47
228.375
228.235
228.046
227.796
227.481
227.087
226.61
226.031
225.346
224.535
223.593
222.49
221.223
219.76
218.112
216.224
214.111
211.752
209.339
206.517
203.909
198.788
224.663
223.42
223.279
223.105
223.043
223.054
223.2
223.536
223.916
224.159
224.254
224.236
224.143
224.039
223.952
223.889
223.841
223.805
223.775
223.754
223.738
223.724
223.71
223.695
223.677
223.656
223.625
223.586
223.542
223.5
223.464
223.435
223.414
223.401
223.396
223.4
223.42
223.446
223.476
223.507
223.537
223.566
223.594
223.622
223.649
223.676
223.705
223.736
223.769
223.805
223.844
223.887
223.934
223.986
224.042
224.104
224.17
224.242
224.319
224.401
224.488
224.58
224.677
224.78
224.888
225.001
225.119
225.242
225.37
225.502
225.638
225.778
225.922
226.07
226.221
226.376
226.533
226.693
226.855
227.019
227.184
227.35
227.516
227.682
227.846
228.009
228.17
228.327
228.479
228.626
228.766
228.897
229.018
229.127
229.222
229.298
229.356
229.39
229.401
229.377
229.317
229.213
229.059
228.849
228.571
228.221
227.782
227.248
226.597
225.821
224.892
223.809
222.543
221.093
219.408
217.5
215.347
213.011
210.532
208.131
203.543
224.538
223.487
223.381
223.185
223.069
223.034
223.046
223.156
223.404
223.686
223.892
223.978
223.97
223.914
223.842
223.79
223.752
223.727
223.71
223.701
223.7
223.701
223.698
223.692
223.68
223.665
223.646
223.621
223.588
223.553
223.522
223.496
223.477
223.464
223.459
223.463
223.482
223.509
223.543
223.578
223.613
223.647
223.681
223.714
223.747
223.78
223.815
223.851
223.89
223.931
223.976
224.023
224.074
224.13
224.19
224.256
224.327
224.402
224.483
224.569
224.661
224.757
224.859
224.967
225.08
225.198
225.321
225.45
225.584
225.722
225.865
226.012
226.163
226.319
226.478
226.642
226.809
226.979
227.152
227.327
227.504
227.684
227.864
228.045
228.226
228.407
228.587
228.765
228.94
229.112
229.28
229.441
229.594
229.739
229.872
229.993
230.098
230.184
230.248
230.288
230.3
230.276
230.21
230.096
229.924
229.689
229.375
228.976
228.471
227.849
227.09
226.186
225.106
223.84
222.351
220.642
218.651
216.452
213.961
211.409
206.935
224.408
223.525
223.465
223.289
223.137
223.053
223.016
222.989
223.039
223.221
223.46
223.65
223.744
223.752
223.717
223.678
223.645
223.626
223.621
223.624
223.636
223.652
223.661
223.667
223.666
223.66
223.649
223.634
223.614
223.59
223.566
223.546
223.531
223.52
223.516
223.521
223.539
223.569
223.605
223.645
223.684
223.723
223.762
223.8
223.838
223.877
223.918
223.961
224.005
224.052
224.101
224.153
224.209
224.268
224.333
224.402
224.477
224.557
224.642
224.732
224.827
224.928
225.035
225.147
225.264
225.387
225.516
225.65
225.789
225.933
226.082
226.235
226.394
226.556
226.723
226.895
227.071
227.25
227.432
227.618
227.806
227.998
228.191
228.386
228.582
228.778
228.976
229.172
229.368
229.562
229.753
229.941
230.123
230.299
230.467
230.626
230.773
230.905
231.022
231.118
231.19
231.234
231.249
231.222
231.147
231.018
230.82
230.552
230.191
229.733
229.154
228.443
227.57
226.524
225.273
223.799
222.065
220.124
217.875
215.533
211.557
224.29
223.546
223.526
223.389
223.229
223.106
223.024
222.916
222.843
222.87
223.029
223.259
223.46
223.554
223.573
223.564
223.538
223.522
223.521
223.534
223.559
223.591
223.616
223.633
223.643
223.647
223.643
223.633
223.62
223.606
223.594
223.583
223.574
223.567
223.566
223.573
223.591
223.622
223.662
223.706
223.75
223.794
223.837
223.88
223.924
223.969
224.015
224.064
224.114
224.166
224.221
224.278
224.338
224.402
224.47
224.543
224.622
224.706
224.795
224.889
224.988
225.093
225.203
225.319
225.441
225.569
225.702
225.841
225.985
226.134
226.289
226.449
226.613
226.782
226.956
227.135
227.318
227.506
227.697
227.892
228.09
228.292
228.496
228.703
228.913
229.123
229.336
229.549
229.763
229.976
230.188
230.399
230.607
230.81
231.009
231.201
231.385
231.558
231.72
231.866
231.994
232.1
232.179
232.228
232.244
232.213
232.126
231.979
231.754
231.444
231.026
230.487
229.798
228.948
227.902
226.638
225.129
223.353
221.302
218.977
215.455
224.193
223.561
223.567
223.471
223.321
223.176
223.045
222.891
222.737
222.654
222.686
222.858
223.109
223.31
223.406
223.44
223.438
223.427
223.426
223.445
223.477
223.519
223.556
223.583
223.602
223.613
223.619
223.618
223.613
223.608
223.606
223.605
223.605
223.605
223.608
223.618
223.638
223.671
223.714
223.761
223.811
223.859
223.907
223.955
224.004
224.054
224.106
224.16
224.216
224.274
224.334
224.396
224.461
224.529
224.601
224.679
224.761
224.849
224.941
225.039
225.142
225.251
225.365
225.485
225.611
225.743
225.88
226.023
226.172
226.326
226.486
226.651
226.821
226.996
227.176
227.362
227.552
227.747
227.945
228.149
228.356
228.567
228.782
229
229.22
229.444
229.669
229.897
230.126
230.357
230.588
230.818
231.048
231.275
231.5
231.721
231.937
232.146
232.346
232.536
232.712
232.873
233.014
233.13
233.217
233.27
233.285
233.246
233.143
232.967
232.696
232.322
231.815
231.161
230.32
229.275
227.993
226.442
224.652
222.48
219.395
224.115
223.576
223.599
223.534
223.399
223.242
223.073
222.881
222.684
222.522
222.457
222.519
222.735
223.007
223.2
223.305
223.344
223.343
223.344
223.363
223.401
223.449
223.493
223.527
223.552
223.572
223.586
223.596
223.6
223.603
223.607
223.614
223.624
223.632
223.641
223.655
223.679
223.714
223.76
223.812
223.866
223.92
223.973
224.026
224.079
224.134
224.191
224.251
224.313
224.376
224.441
224.508
224.577
224.65
224.726
224.808
224.894
224.985
225.081
225.183
225.29
225.402
225.52
225.643
225.773
225.909
226.05
226.198
226.351
226.51
226.674
226.844
227.019
227.199
227.385
227.576
227.772
227.974
228.179
228.39
228.605
228.824
229.048
229.275
229.506
229.74
229.977
230.218
230.46
230.705
230.952
231.2
231.448
231.697
231.944
232.19
232.433
232.672
232.906
233.133
233.351
233.558
233.751
233.927
234.082
234.209
234.303
234.359
234.372
234.32
234.194
233.978
233.653
233.199
232.581
231.784
230.748
229.443
227.87
225.89
223.098
224.054
223.591
223.627
223.583
223.461
223.291
223.093
222.874
222.649
222.445
222.312
222.285
222.4
222.668
222.949
223.141
223.24
223.268
223.279
223.301
223.339
223.386
223.43
223.466
223.494
223.52
223.543
223.561
223.576
223.588
223.6
223.615
223.634
223.65
223.666
223.685
223.713
223.753
223.802
223.859
223.917
223.975
224.033
224.091
224.149
224.209
224.271
224.336
224.404
224.472
224.543
224.614
224.688
224.765
224.845
224.93
225.02
225.115
225.215
225.32
225.43
225.546
225.667
225.794
225.928
226.067
226.212
226.363
226.52
226.683
226.852
227.026
227.206
227.391
227.582
227.778
227.98
228.187
228.399
228.615
228.837
229.064
229.295
229.53
229.77
230.014
230.261
230.512
230.766
231.024
231.284
231.547
231.811
232.077
232.344
232.611
232.877
233.142
233.404
233.663
233.916
234.163
234.4
234.626
234.837
235.029
235.199
235.335
235.437
235.494
235.502
235.427
235.269
234.991
234.577
233.995
233.181
232.116
230.762
229.017
226.539
224.011
223.606
223.652
223.621
223.504
223.319
223.099
222.859
222.619
222.395
222.221
222.133
222.158
222.344
222.655
222.94
223.12
223.193
223.225
223.256
223.292
223.332
223.372
223.405
223.435
223.465
223.496
223.523
223.547
223.569
223.591
223.614
223.638
223.662
223.684
223.709
223.743
223.786
223.84
223.901
223.964
224.027
224.089
224.152
224.215
224.279
224.346
224.416
224.489
224.563
224.638
224.715
224.793
224.874
224.959
225.047
225.141
225.239
225.343
225.451
225.565
225.684
225.808
225.939
226.075
226.218
226.367
226.521
226.682
226.849
227.021
227.199
227.383
227.572
227.768
227.968
228.175
228.387
228.605
228.827
229.055
229.288
229.525
229.768
230.015
230.267
230.523
230.783
231.048
231.316
231.587
231.862
232.141
232.421
232.704
232.989
233.274
233.561
233.847
234.132
234.415
234.694
234.968
235.236
235.494
235.741
235.971
236.181
236.367
236.515
236.625
236.681
236.684
236.572
236.364
236.004
235.451
234.67
233.547
232.04
229.779
223.995
223.623
223.675
223.65
223.529
223.326
223.086
222.829
222.583
222.357
222.159
222.031
221.993
222.085
222.359
222.705
222.972
223.11
223.175
223.22
223.258
223.294
223.328
223.358
223.387
223.419
223.454
223.487
223.518
223.548
223.577
223.608
223.638
223.668
223.697
223.729
223.767
223.816
223.874
223.939
224.007
224.075
224.142
224.209
224.276
224.345
224.417
224.492
224.569
224.649
224.729
224.81
224.892
224.977
225.066
225.158
225.256
225.357
225.464
225.576
225.692
225.814
225.942
226.076
226.215
226.361
226.513
226.671
226.835
227.005
227.181
227.363
227.551
227.744
227.943
228.148
228.359
228.575
228.798
229.025
229.258
229.496
229.74
229.989
230.242
230.501
230.764
231.032
231.305
231.582
231.864
232.149
232.439
232.732
233.028
233.328
233.629
233.934
234.239
234.546
234.853
235.16
235.464
235.767
236.064
236.355
236.636
236.905
237.157
237.387
237.59
237.747
237.862
237.909
237.883
237.725
237.427
236.921
236.06
234.882
232.872
224.001
223.641
223.695
223.669
223.535
223.313
223.047
222.779
222.534
222.314
222.112
221.956
221.882
221.907
222.096
222.45
222.795
223.009
223.12
223.182
223.221
223.253
223.284
223.313
223.344
223.379
223.418
223.457
223.494
223.529
223.565
223.602
223.638
223.673
223.707
223.745
223.789
223.843
223.906
223.976
224.048
224.12
224.192
224.263
224.334
224.408
224.484
224.564
224.646
224.73
224.815
224.9
224.987
225.076
225.168
225.264
225.365
225.47
225.58
225.694
225.814
225.939
226.07
226.207
226.349
226.498
226.653
226.814
226.981
227.154
227.333
227.519
227.71
227.906
228.109
228.318
228.533
228.753
228.979
229.211
229.449
229.692
229.94
230.194
230.454
230.718
230.988
231.263
231.543
231.828
232.118
232.412
232.711
233.015
233.322
233.634
233.949
234.268
234.59
234.915
235.241
235.57
235.9
236.229
236.558
236.885
237.207
237.524
237.831
238.126
238.403
238.658
238.882
239.054
239.17
239.206
239.154
238.916
238.356
237.568
235.856
224.028
223.659
223.71
223.676
223.525
223.273
222.984
222.709
222.471
222.262
222.067
221.899
221.803
221.789
221.895
222.205
222.595
222.886
223.052
223.137
223.182
223.215
223.246
223.277
223.311
223.349
223.391
223.433
223.474
223.514
223.555
223.596
223.637
223.677
223.716
223.759
223.809
223.868
223.937
224.011
224.087
224.163
224.239
224.314
224.389
224.467
224.548
224.632
224.719
224.807
224.896
224.985
225.076
225.169
225.265
225.364
225.468
225.577
225.69
225.807
225.93
226.058
226.192
226.331
226.477
226.628
226.786
226.95
227.12
227.296
227.478
227.666
227.861
228.061
228.267
228.479
228.697
228.921
229.151
229.387
229.629
229.876
230.129
230.388
230.652
230.922
231.197
231.478
231.764
232.056
232.353
232.655
232.962
233.274
233.591
233.913
234.24
234.571
234.906
235.245
235.588
235.935
236.284
236.637
236.991
237.346
237.701
238.055
238.406
238.752
239.088
239.414
239.721
240
240.233
240.406
240.538
240.58
240.349
239.979
238.812
224.084
223.677
223.72
223.672
223.491
223.207
222.901
222.626
222.397
222.203
222.023
221.857
221.748
221.711
221.757
221.991
222.386
222.742
222.966
223.081
223.139
223.178
223.214
223.249
223.286
223.327
223.372
223.417
223.461
223.504
223.549
223.594
223.639
223.682
223.726
223.774
223.829
223.893
223.966
224.044
224.125
224.205
224.284
224.363
224.442
224.524
224.609
224.697
224.788
224.881
224.973
225.067
225.161
225.257
225.357
225.46
225.567
225.679
225.794
225.915
226.04
226.171
226.307
226.45
226.598
226.752
226.913
227.079
227.252
227.431
227.616
227.807
228.004
228.207
228.416
228.632
228.853
229.081
229.314
229.553
229.799
230.05
230.307
230.57
230.839
231.113
231.393
231.679
231.971
232.268
232.571
232.88
233.194
233.514
233.839
234.17
234.506
234.847
235.193
235.545
235.901
236.262
236.628
236.998
237.373
237.751
238.131
238.515
238.899
239.284
239.666
240.045
240.416
240.777
241.112
241.418
241.678
241.899
242.017
241.927
241.471
224.16
223.691
223.723
223.649
223.431
223.12
222.806
222.537
222.322
222.144
221.982
221.825
221.711
221.656
221.666
221.82
222.183
222.583
222.864
223.016
223.093
223.144
223.187
223.227
223.268
223.312
223.359
223.407
223.453
223.5
223.547
223.595
223.643
223.69
223.737
223.789
223.849
223.918
223.995
224.077
224.161
224.244
224.326
224.409
224.492
224.578
224.667
224.759
224.854
224.951
225.047
225.144
225.242
225.342
225.444
225.551
225.661
225.775
225.894
226.017
226.145
226.279
226.418
226.563
226.714
226.871
227.034
227.203
227.378
227.56
227.748
227.941
228.141
228.347
228.559
228.777
229.002
229.233
229.469
229.712
229.961
230.215
230.476
230.743
231.016
231.295
231.58
231.87
232.167
232.47
232.778
233.093
233.413
233.74
234.072
234.41
234.754
235.104
235.46
235.822
236.189
236.562
236.941
237.325
237.715
238.111
238.512
238.917
239.327
239.74
240.156
240.574
240.991
241.405
241.811
242.203
242.569
242.919
243.236
243.414
243.51
224.253
223.697
223.716
223.603
223.344
223.017
222.706
222.45
222.25
222.089
221.944
221.8
221.683
221.613
221.603
221.69
221.998
222.417
222.751
222.944
223.047
223.113
223.165
223.21
223.255
223.302
223.352
223.401
223.45
223.499
223.55
223.601
223.65
223.699
223.75
223.806
223.87
223.944
224.025
224.11
224.196
224.282
224.368
224.453
224.54
224.63
224.723
224.819
224.918
225.018
225.117
225.217
225.318
225.421
225.527
225.637
225.75
225.867
225.989
226.114
226.245
226.381
226.523
226.67
226.823
226.983
227.149
227.32
227.498
227.682
227.873
228.069
228.272
228.48
228.695
228.916
229.143
229.377
229.616
229.862
230.114
230.372
230.637
230.907
231.184
231.467
231.755
232.05
232.352
232.659
232.973
233.292
233.618
233.951
234.289
234.634
234.985
235.342
235.706
236.076
236.453
236.835
237.225
237.621
238.023
238.432
238.846
239.268
239.695
240.128
240.565
241.008
241.454
241.901
242.346
242.785
243.209
243.631
244.021
244.333
244.641
224.357
223.692
223.691
223.527
223.232
222.9
222.603
222.366
222.184
222.038
221.907
221.777
221.658
221.576
221.549
221.592
221.837
222.256
222.633
222.87
223.003
223.086
223.147
223.198
223.246
223.296
223.348
223.399
223.451
223.503
223.556
223.609
223.66
223.711
223.764
223.824
223.892
223.97
224.054
224.141
224.23
224.319
224.407
224.496
224.586
224.68
224.777
224.877
224.979
225.081
225.184
225.287
225.391
225.497
225.606
225.718
225.834
225.954
226.078