/*--------------------------------*- C++ -*----------------------------------*\
| =========                 |                                                 |
| \\      /  F ield         | OpenFOAM: The Open Source CFD Toolbox           |
|  \\    /   O peration     | Version:  2412                                  |
|   \\  /    A nd           | Website:  www.openfoam.com                      |
|    \\/     M anipulation  |                                                 |
\*---------------------------------------------------------------------------*/
FoamFile
{
    version     2.0;
    format      ascii;
    arch        "LSB;label=32;scalar=64";
    class       volScalarField;
    location    "0.069";
    object      rho;
}
// * * * * * * * * * * * * * * * * * * * * * * * * * * * * * * * * * * * * * //

dimensions      [1 -3 0 0 0 0 0];

internalField   nonuniform List<scalar> 
9922
(
0.0582336
0.0435865
0.0433861
0.0435142
0.0435262
0.0435466
0.0435136
0.0434496
0.0433652
0.0432609
0.0431445
0.0430219
0.0428966
0.0427723
0.0426524
0.04254
0.0424389
0.0423501
0.0422731
0.042206
0.0421456
0.0420887
0.0420318
0.0419721
0.0419072
0.0418356
0.0417564
0.0416693
0.0415744
0.0414719
0.0413622
0.0412453
0.0411214
0.0409903
0.0408518
0.0407058
0.0405522
0.0403907
0.0402208
0.0400422
0.0398545
0.0396574
0.0394502
0.0392323
0.039003
0.0387617
0.0385076
0.03824
0.037958
0.0376602
0.037344
0.0370057
0.0366445
0.0362593
0.0358092
0.0351183
0.0337648
0.032062
0.0306175
0.0296427
0.0289696
0.0284287
0.0279589
0.0275253
0.0271349
0.0267841
0.0264689
0.0261854
0.0259286
0.0256947
0.0254788
0.0252779
0.0250895
0.0249144
0.0247498
0.0245966
0.0244522
0.0243154
0.0241866
0.0240651
0.0239502
0.0238405
0.023737
0.0236378
0.0235429
0.023451
0.0233646
0.0232826
0.0232047
0.0231287
0.0230558
0.022986
0.0229199
0.0228567
0.0227964
0.0227387
0.0226834
0.02263
0.0225783
0.0225288
0.022481
0.0224346
0.0223893
0.0223457
0.0223038
0.0222642
0.0222272
0.0221934
0.022162
0.0221325
0.0221018
0.0220688
0.0220315
0.021992
0.0219517
0.021909
0.0218637
0.0218187
0.0217774
0.0217413
0.0217029
0.0582528
0.0435781
0.043369
0.0435011
0.0435155
0.0435385
0.0435076
0.0434451
0.0433618
0.0432585
0.0431429
0.0430208
0.042896
0.0427719
0.0426523
0.0425401
0.0424391
0.0423502
0.0422731
0.0422058
0.0421451
0.0420879
0.0420307
0.0419706
0.0419052
0.041833
0.0417531
0.0416653
0.0415696
0.0414664
0.041356
0.0412386
0.0411141
0.0409825
0.0408436
0.040697
0.0405427
0.0403802
0.0402091
0.040029
0.0398393
0.0396397
0.0394294
0.0392077
0.0389738
0.0387268
0.0384656
0.0381892
0.0378961
0.0375839
0.0372485
0.0368862
0.0364957
0.0360603
0.0354857
0.034516
0.0331045
0.031628
0.0304567
0.0296275
0.029005
0.0284854
0.0280163
0.0275896
0.0271937
0.0268291
0.0265029
0.0262123
0.0259502
0.0257119
0.0254937
0.0252939
0.0251078
0.0249341
0.0247699
0.0246143
0.0244684
0.024332
0.0242052
0.0240846
0.0239691
0.0238586
0.0237541
0.0236537
0.0235578
0.023466
0.0233803
0.0232988
0.0232201
0.0231429
0.0230683
0.0229965
0.0229277
0.0228618
0.022799
0.0227388
0.0226809
0.022625
0.0225718
0.0225212
0.0224728
0.0224263
0.0223815
0.0223386
0.0222977
0.0222591
0.0222231
0.0221905
0.0221604
0.0221323
0.0221031
0.0220717
0.0220358
0.0219982
0.0219596
0.0219184
0.0218748
0.0218313
0.0217905
0.0217545
0.0217165
0.0582719
0.0435702
0.0433516
0.0434878
0.0435046
0.0435302
0.0435014
0.0434405
0.0433583
0.043256
0.0431413
0.0430198
0.0428953
0.0427716
0.0426522
0.0425402
0.0424393
0.0423504
0.0422732
0.0422056
0.0421447
0.0420872
0.0420296
0.0419691
0.0419031
0.0418303
0.0417498
0.0416612
0.0415648
0.0414608
0.0413498
0.0412318
0.0411068
0.0409747
0.0408353
0.0406882
0.0405331
0.0403697
0.0401975
0.0400158
0.0398242
0.0396221
0.0394088
0.0391834
0.0389449
0.0386921
0.0384239
0.0381387
0.0378343
0.0375073
0.0371526
0.0367659
0.0363399
0.0358366
0.0351342
0.0340027
0.0326461
0.0313716
0.0303852
0.0296486
0.0290545
0.0285372
0.0280751
0.0276488
0.0272559
0.0268961
0.026563
0.0262592
0.0259842
0.0257366
0.0255109
0.0253038
0.0251145
0.0249413
0.0247802
0.0246287
0.0244842
0.0243456
0.0242134
0.0240873
0.0239693
0.0238583
0.0237535
0.0236519
0.023555
0.0234631
0.0233775
0.0232957
0.0232166
0.02314
0.0230673
0.0229981
0.0229324
0.0228695
0.0228091
0.0227507
0.0226937
0.0226383
0.0225852
0.0225342
0.0224849
0.0224372
0.0223912
0.022347
0.0223048
0.0222648
0.0222276
0.0221937
0.0221628
0.0221338
0.0221036
0.022071
0.022034
0.021995
0.0219548
0.0219123
0.0218674
0.0218232
0.0217819
0.0217456
0.0217067
0.0582909
0.0435628
0.043334
0.0434744
0.0434937
0.0435216
0.043495
0.0434357
0.0433546
0.0432535
0.0431396
0.0430187
0.0428947
0.0427712
0.0426522
0.0425404
0.0424396
0.0423506
0.0422732
0.0422054
0.0421443
0.0420864
0.0420285
0.0419675
0.0419011
0.0418276
0.0417464
0.0416571
0.0415599
0.0414552
0.0413435
0.0412249
0.0410994
0.0409669
0.0408269
0.0406793
0.0405235
0.0403592
0.0401858
0.0400027
0.0398093
0.0396048
0.0393885
0.0391594
0.0389163
0.0386578
0.0383825
0.0380885
0.0377727
0.0374308
0.037057
0.0366449
0.0361778
0.0355944
0.0347482
0.0335945
0.0323384
0.0312274
0.0303618
0.0296858
0.0291149
0.028604
0.0281314
0.0277017
0.0273072
0.0269454
0.0266147
0.0263121
0.0260361
0.0257831
0.0255508
0.025337
0.0251378
0.0249542
0.0247845
0.0246277
0.0244817
0.024343
0.0242113
0.0240869
0.0239706
0.0238593
0.0237535
0.0236519
0.0235568
0.0234673
0.0233825
0.0232995
0.0232184
0.0231399
0.0230654
0.0229941
0.0229265
0.0228621
0.0228009
0.0227421
0.0226856
0.0226318
0.0225805
0.0225312
0.0224834
0.0224374
0.0223931
0.0223505
0.0223096
0.0222708
0.0222348
0.0222021
0.0221723
0.0221444
0.0221154
0.022084
0.0220479
0.0220094
0.0219694
0.0219268
0.0218814
0.0218368
0.0217951
0.0217589
0.0217198
0.0583098
0.043556
0.0433161
0.0434607
0.0434826
0.0435129
0.0434883
0.0434307
0.0433509
0.0432508
0.0431379
0.0430176
0.0428939
0.0427709
0.0426522
0.0425406
0.0424399
0.0423509
0.0422733
0.0422053
0.0421439
0.0420857
0.0420274
0.041966
0.041899
0.0418249
0.041743
0.0416529
0.041555
0.0414496
0.0413372
0.041218
0.041092
0.040959
0.0408185
0.0406703
0.0405139
0.0403488
0.0401742
0.0399897
0.0397944
0.0395876
0.0393683
0.0391356
0.0388879
0.0386239
0.0383415
0.0380385
0.0377111
0.0373542
0.0369613
0.0365233
0.0360149
0.0353572
0.0344076
0.0332763
0.0321298
0.0311467
0.0303668
0.0297337
0.0291839
0.02868
0.0282119
0.0277698
0.0273625
0.0269892
0.0266511
0.0263451
0.0260675
0.0258149
0.0255834
0.0253703
0.0251719
0.0249863
0.0248115
0.024648
0.024495
0.0243539
0.0242262
0.0241053
0.0239894
0.0238773
0.0237703
0.023668
0.0235725
0.0234819
0.0233951
0.0233101
0.0232283
0.0231501
0.0230761
0.0230056
0.0229381
0.0228731
0.0228103
0.0227496
0.0226915
0.0226362
0.0225831
0.0225319
0.0224825
0.022435
0.0223894
0.0223455
0.0223033
0.0222635
0.0222267
0.0221934
0.0221632
0.0221351
0.0221061
0.022075
0.0220393
0.0220016
0.0219628
0.0219212
0.0218767
0.0218326
0.0217914
0.0217559
0.0217183
0.0583286
0.0435496
0.043298
0.0434469
0.0434713
0.0435039
0.0434814
0.0434255
0.043347
0.0432482
0.0431361
0.0430164
0.0428932
0.0427706
0.0426522
0.0425409
0.0424403
0.0423512
0.0422735
0.0422052
0.0421435
0.042085
0.0420263
0.0419644
0.0418969
0.0418222
0.0417395
0.0416487
0.04155
0.0414439
0.0413309
0.0412111
0.0410845
0.040951
0.0408101
0.0406613
0.0405042
0.0403383
0.0401626
0.0399767
0.0397796
0.0395705
0.0393484
0.0391121
0.0388601
0.0385904
0.038301
0.037989
0.0376501
0.0372781
0.0368651
0.0363979
0.0358434
0.035113
0.0341354
0.0330427
0.0319968
0.0311133
0.0303908
0.0297819
0.0292415
0.0287477
0.0282874
0.0278562
0.0274475
0.0270643
0.0267105
0.0263892
0.0260992
0.0258375
0.0255998
0.0253832
0.0251848
0.0250027
0.0248323
0.0246723
0.0245204
0.0243751
0.0242368
0.0241074
0.0239878
0.0238738
0.0237662
0.0236639
0.023568
0.0234762
0.0233873
0.0233007
0.0232185
0.0231406
0.0230675
0.022998
0.0229322
0.0228692
0.0228085
0.0227504
0.0226947
0.0226413
0.0225895
0.0225396
0.0224915
0.0224453
0.0224006
0.0223571
0.0223151
0.0222752
0.0222381
0.0222044
0.0221735
0.0221447
0.0221149
0.0220829
0.0220461
0.0220072
0.0219672
0.0219247
0.0218791
0.021834
0.0217918
0.0217561
0.0217191
0.0583471
0.0435438
0.0432796
0.0434329
0.0434599
0.0434947
0.0434742
0.0434201
0.0433431
0.0432454
0.0431343
0.0430151
0.0428924
0.0427702
0.0426522
0.0425412
0.0424407
0.0423516
0.0422737
0.0422052
0.0421431
0.0420843
0.0420252
0.0419629
0.0418948
0.0418194
0.041736
0.0416445
0.041545
0.0414382
0.0413245
0.0412041
0.041077
0.040943
0.0408016
0.0406523
0.0404946
0.0403277
0.0401511
0.0399637
0.0397649
0.0395536
0.0393288
0.039089
0.0388325
0.0385574
0.0382611
0.0379402
0.0375896
0.0372025
0.0367692
0.0362734
0.0356727
0.0348763
0.0339036
0.0328688
0.0319129
0.0311053
0.0304338
0.0298454
0.0293082
0.0288119
0.0283516
0.027921
0.0275185
0.027141
0.0267874
0.0264601
0.0261607
0.0258883
0.0256404
0.0254137
0.0252052
0.025014
0.0248378
0.0246761
0.0245256
0.0243831
0.0242466
0.0241179
0.023998
0.0238833
0.0237759
0.0236747
0.0235795
0.0234871
0.023397
0.0233096
0.023227
0.0231488
0.0230747
0.0230038
0.0229357
0.0228701
0.0228073
0.0227474
0.0226901
0.0226348
0.0225816
0.022531
0.0224827
0.0224366
0.0223921
0.0223492
0.0223079
0.0222689
0.0222328
0.0222
0.0221701
0.0221423
0.0221136
0.022083
0.0220476
0.0220102
0.0219713
0.0219296
0.0218844
0.0218397
0.0217974
0.0217615
0.0217244
0.0583655
0.0435386
0.0432611
0.0434188
0.0434483
0.0434852
0.0434668
0.0434147
0.0433391
0.0432427
0.0431324
0.0430138
0.0428917
0.0427699
0.0426523
0.0425415
0.0424411
0.042352
0.0422739
0.0422051
0.0421428
0.0420836
0.0420241
0.0419613
0.0418926
0.0418166
0.0417325
0.0416402
0.04154
0.0414325
0.0413181
0.0411971
0.0410695
0.0409349
0.040793
0.0406432
0.0404848
0.0403172
0.0401395
0.0399509
0.0397504
0.0395369
0.0393094
0.0390662
0.0388055
0.038525
0.0382218
0.0378921
0.03753
0.0371277
0.0366749
0.0361525
0.0355096
0.0346718
0.033717
0.0327477
0.031869
0.0311212
0.0304851
0.0299199
0.0293954
0.0288996
0.0284287
0.0279877
0.0275768
0.027195
0.0268422
0.0265163
0.0262164
0.0259419
0.025691
0.0254612
0.0252491
0.0250523
0.0248678
0.024696
0.0245367
0.0243909
0.0242593
0.0241324
0.0240123
0.0238979
0.0237904
0.0236871
0.023588
0.0234915
0.0233992
0.0233114
0.0232293
0.023152
0.0230791
0.0230096
0.0229427
0.0228784
0.0228169
0.022758
0.0227006
0.0226449
0.0225911
0.0225397
0.0224906
0.0224433
0.0223976
0.0223534
0.022311
0.022271
0.022234
0.0222003
0.0221694
0.0221405
0.0221108
0.0220792
0.0220428
0.0220041
0.0219638
0.021921
0.021875
0.0218297
0.0217867
0.0217504
0.0217131
0.0583837
0.0435339
0.0432423
0.0434046
0.0434366
0.0434755
0.0434593
0.0434092
0.0433351
0.0432398
0.0431304
0.0430125
0.0428909
0.0427696
0.0426524
0.0425419
0.0424416
0.0423524
0.0422742
0.0422052
0.0421425
0.0420829
0.042023
0.0419597
0.0418904
0.0418138
0.0417289
0.0416359
0.041535
0.0414268
0.0413117
0.0411901
0.0410619
0.0409268
0.0407844
0.0406341
0.0404751
0.0403067
0.040128
0.0399381
0.0397359
0.0395204
0.0392902
0.0390437
0.0387788
0.0384931
0.0381832
0.0378447
0.0374712
0.0370544
0.0365836
0.0360355
0.0353526
0.0345043
0.0335745
0.0326626
0.0318483
0.0311474
0.0305384
0.0299872
0.0294748
0.0289896
0.0285285
0.0280856
0.0276639
0.0272666
0.0268982
0.0265605
0.0262528
0.0259731
0.0257184
0.0254863
0.0252738
0.0250789
0.0248975
0.0247282
0.0245676
0.0244136
0.0242674
0.0241333
0.0240108
0.0238952
0.0237866
0.0236819
0.0235818
0.0234858
0.0233954
0.0233096
0.0232283
0.0231502
0.0230756
0.0230037
0.0229348
0.0228693
0.0228075
0.0227483
0.0226909
0.0226359
0.0225836
0.0225338
0.022486
0.02244
0.0223956
0.0223527
0.0223115
0.0222726
0.0222366
0.0222039
0.022174
0.0221463
0.0221178
0.0220873
0.0220516
0.0220134
0.0219733
0.0219304
0.0218839
0.0218386
0.0217951
0.0217587
0.0217208
0.0584016
0.0435299
0.0432233
0.0433902
0.0434248
0.0434656
0.0434515
0.0434036
0.043331
0.0432369
0.0431283
0.0430111
0.0428901
0.0427693
0.0426525
0.0425423
0.0424422
0.0423529
0.0422746
0.0422052
0.0421422
0.0420823
0.0420219
0.041958
0.0418882
0.0418109
0.0417254
0.0416316
0.0415299
0.041421
0.0413052
0.041183
0.0410542
0.0409187
0.0407758
0.0406249
0.0404653
0.0402962
0.0401165
0.0399253
0.0397215
0.039504
0.0392713
0.0390215
0.0387526
0.0384617
0.0381452
0.0377981
0.0374136
0.0369835
0.0364957
0.0359205
0.0352027
0.0343573
0.0334646
0.032612
0.0318519
0.0311886
0.0305967
0.030052
0.0295414
0.0290611
0.0286058
0.0281733
0.0277586
0.0273624
0.0269873
0.0266374
0.0263155
0.0260222
0.0257561
0.0255143
0.0252934
0.0250917
0.0249062
0.0247368
0.0245796
0.0244325
0.0242929
0.0241588
0.0240341
0.0239159
0.0238048
0.0236982
0.023598
0.0235026
0.0234123
0.0233257
0.0232428
0.0231633
0.0230873
0.023014
0.0229436
0.0228764
0.0228124
0.0227507
0.0226915
0.0226354
0.022582
0.0225308
0.0224815
0.0224341
0.0223883
0.0223441
0.0223018
0.0222617
0.0222247
0.0221912
0.0221608
0.0221327
0.0221043
0.0220741
0.022039
0.0220015
0.0219623
0.0219197
0.0218731
0.0218273
0.0217835
0.0217467
0.0217086
0.0584193
0.0435265
0.0432041
0.0433756
0.0434128
0.0434554
0.0434437
0.043398
0.0433269
0.0432339
0.0431262
0.0430097
0.0428893
0.0427691
0.0426527
0.0425428
0.0424427
0.0423535
0.042275
0.0422054
0.042142
0.0420816
0.0420208
0.0419564
0.041886
0.041808
0.0417217
0.0416272
0.0415248
0.0414151
0.0412988
0.0411759
0.0410466
0.0409105
0.0407671
0.0406157
0.0404555
0.0402857
0.0401051
0.0399126
0.0397073
0.0394878
0.0392526
0.0389997
0.0387268
0.0384309
0.0381079
0.0377524
0.0373575
0.0369152
0.0364106
0.0358086
0.0350708
0.0342399
0.0333881
0.0325884
0.031875
0.0312461
0.0306764
0.0301419
0.0296319
0.0291449
0.0286817
0.0282428
0.0278289
0.0274372
0.0270665
0.0267176
0.026393
0.0260941
0.025821
0.0255719
0.0253435
0.0251332
0.0249377
0.0247574
0.0245902
0.0244365
0.0242951
0.0241623
0.0240379
0.0239195
0.0238082
0.0237011
0.0235998
0.0235026
0.02341
0.0233207
0.0232359
0.023155
0.0230784
0.0230054
0.0229365
0.0228711
0.0228083
0.022748
0.0226907
0.0226365
0.0225845
0.0225344
0.022486
0.0224396
0.0223945
0.0223508
0.0223086
0.0222683
0.0222309
0.0221968
0.0221656
0.0221369
0.0221075
0.0220764
0.0220403
0.0220018
0.0219616
0.0219184
0.0218712
0.0218249
0.0217809
0.021745
0.0217085
0.0584366
0.0435238
0.0431847
0.0433609
0.0434006
0.0434451
0.0434357
0.0433924
0.0433228
0.0432309
0.043124
0.0430083
0.0428885
0.0427688
0.0426529
0.0425432
0.0424434
0.0423541
0.0422754
0.0422055
0.0421418
0.042081
0.0420197
0.0419547
0.0418837
0.041805
0.0417181
0.0416228
0.0415197
0.0414093
0.0412923
0.0411688
0.0410389
0.0409023
0.0407584
0.0406065
0.0404457
0.0402752
0.0400936
0.0399001
0.0396932
0.0394718
0.0392341
0.0389782
0.0387014
0.0384006
0.0380712
0.0377077
0.0373034
0.0368494
0.0363276
0.0357024
0.0349581
0.034146
0.0333349
0.0325813
0.0319053
0.0313003
0.030747
0.0302281
0.0297319
0.0292527
0.0287889
0.0283414
0.0279126
0.0275066
0.0271267
0.0267732
0.0264457
0.0261436
0.0258667
0.0256138
0.0253827
0.0251714
0.0249761
0.0247958
0.0246261
0.0244665
0.0243166
0.0241771
0.0240484
0.0239267
0.0238131
0.0237052
0.0236044
0.0235078
0.0234154
0.023326
0.0232409
0.0231595
0.0230814
0.0230066
0.0229359
0.0228684
0.0228034
0.0227411
0.0226824
0.0226267
0.0225731
0.0225217
0.0224726
0.0224257
0.0223807
0.0223372
0.0222954
0.0222556
0.0222186
0.0221848
0.0221543
0.0221264
0.0220984
0.0220688
0.0220342
0.0219972
0.0219581
0.0219156
0.0218688
0.0218221
0.0217778
0.0217403
0.0217014
0.0584536
0.0435217
0.0431651
0.043346
0.0433884
0.0434346
0.0434277
0.0433868
0.0433186
0.0432278
0.0431218
0.0430069
0.0428878
0.0427687
0.0426531
0.0425438
0.0424441
0.0423548
0.0422759
0.0422058
0.0421416
0.0420804
0.0420186
0.041953
0.0418814
0.0418021
0.0417144
0.0416183
0.0415145
0.0414035
0.0412857
0.0411616
0.0410312
0.0408941
0.0407497
0.0405972
0.0404359
0.0402647
0.0400823
0.0398875
0.0396793
0.0394559
0.0392159
0.038957
0.0386765
0.0383708
0.0380353
0.0376643
0.0372511
0.0367858
0.0362472
0.0356046
0.034863
0.0340749
0.0333019
0.0325869
0.031942
0.0313571
0.0308148
0.0303013
0.0298098
0.0293394
0.0288872
0.0284489
0.0280232
0.0276121
0.027219
0.0268494
0.0265069
0.0261925
0.0259054
0.0256439
0.0254056
0.0251887
0.02499
0.024809
0.0246412
0.0244857
0.0243392
0.0242005
0.0240707
0.0239477
0.023833
0.0237235
0.0236197
0.0235189
0.0234229
0.0233318
0.0232466
0.0231656
0.0230882
0.0230143
0.0229442
0.0228771
0.0228127
0.0227511
0.0226924
0.0226359
0.022581
0.0225284
0.0224781
0.0224298
0.0223832
0.0223382
0.0222948
0.0222537
0.0222151
0.0221796
0.0221474
0.0221179
0.0220883
0.0220569
0.0220206
0.0219818
0.0219416
0.0218987
0.0218517
0.0218052
0.0217609
0.0217239
0.0216867
0.0584702
0.0435202
0.0431453
0.043331
0.0433761
0.0434239
0.0434195
0.0433811
0.0433143
0.0432245
0.0431196
0.0430055
0.0428871
0.0427685
0.0426534
0.0425444
0.0424448
0.0423556
0.0422765
0.042206
0.0421415
0.0420798
0.0420174
0.0419513
0.0418791
0.041799
0.0417106
0.0416139
0.0415093
0.0413976
0.0412792
0.0411545
0.0410235
0.0408858
0.0407409
0.040588
0.0404261
0.0402542
0.0400709
0.0398751
0.0396654
0.0394403
0.039198
0.0389362
0.0386519
0.0383416
0.0380002
0.0376222
0.0372008
0.0367244
0.0361703
0.0355163
0.0347814
0.0340193
0.0332848
0.0326083
0.0319939
0.0314286
0.0308957
0.0303864
0.0298952
0.0294213
0.0289656
0.0285295
0.0281112
0.0277077
0.0273194
0.0269491
0.0266006
0.0262769
0.0259792
0.0257073
0.0254591
0.0252323
0.0250235
0.024832
0.0246549
0.0244928
0.0243422
0.0242011
0.0240692
0.0239448
0.0238291
0.0237186
0.0236135
0.0235119
0.0234168
0.0233275
0.0232435
0.0231621
0.0230839
0.0230088
0.0229373
0.0228687
0.0228038
0.0227423
0.0226835
0.0226268
0.0225723
0.0225207
0.0224715
0.0224243
0.0223788
0.0223349
0.0222928
0.0222529
0.0222153
0.0221807
0.0221492
0.0221206
0.0220916
0.0220606
0.0220244
0.0219857
0.0219455
0.0219024
0.0218551
0.0218081
0.0217635
0.0217258
0.0216867
0.0584864
0.0435191
0.0431253
0.0433158
0.0433637
0.0434129
0.0434112
0.0433754
0.0433098
0.0432211
0.0431173
0.0430041
0.0428864
0.0427684
0.0426537
0.042545
0.0424457
0.0423564
0.0422771
0.0422063
0.0421414
0.0420792
0.0420163
0.0419496
0.0418767
0.041796
0.0417068
0.0416094
0.0415041
0.0413917
0.0412727
0.0411473
0.0410157
0.0408775
0.0407321
0.0405787
0.0404163
0.0402437
0.0400596
0.0398628
0.0396517
0.0394249
0.0391803
0.0389157
0.0386279
0.038313
0.037966
0.0375816
0.0371525
0.0366653
0.0360973
0.0354373
0.034716
0.0339853
0.0332881
0.0326452
0.0320552
0.0315071
0.0309899
0.0304921
0.030007
0.0295337
0.0290726
0.0286246
0.0281934
0.0277822
0.027392
0.0270228
0.0266747
0.0263491
0.0260474
0.0257701
0.0255165
0.0252849
0.0250723
0.0248774
0.0246961
0.0245288
0.0243729
0.0242272
0.0240919
0.0239648
0.0238469
0.0237345
0.0236288
0.0235283
0.0234352
0.0233463
0.0232605
0.0231768
0.0230966
0.0230197
0.0229459
0.0228749
0.0228078
0.0227442
0.0226833
0.0226249
0.0225692
0.0225162
0.0224653
0.0224163
0.0223689
0.0223233
0.0222797
0.0222383
0.0221994
0.0221637
0.0221316
0.0221027
0.0220738
0.0220431
0.0220074
0.0219692
0.021929
0.0218853
0.0218373
0.0217896
0.0217443
0.0217064
0.0216675
0.0585021
0.043519
0.043105
0.0433004
0.0433511
0.0434018
0.0434027
0.0433694
0.0433051
0.0432176
0.0431149
0.0430027
0.0428857
0.0427682
0.042654
0.0425458
0.0424466
0.0423573
0.0422778
0.0422067
0.0421414
0.0420787
0.0420152
0.0419479
0.0418743
0.0417929
0.041703
0.0416048
0.0414989
0.0413858
0.0412661
0.0411402
0.041008
0.0408693
0.0407234
0.0405694
0.0404065
0.0402332
0.0400484
0.0398505
0.0396382
0.0394097
0.039163
0.0388956
0.0386043
0.0382851
0.037933
0.0375426
0.037106
0.036608
0.0360288
0.03537
0.0346675
0.0339673
0.0333027
0.0326859
0.0321137
0.0315773
0.0310668
0.0305766
0.0301015
0.0296391
0.0291876
0.0287454
0.028312
0.0278895
0.0274834
0.0270989
0.026739
0.0264043
0.026095
0.0258106
0.0255503
0.0253129
0.0250959
0.0248986
0.024717
0.0245507
0.0243954
0.0242495
0.0241128
0.023983
0.0238612
0.0237451
0.0236363
0.0235334
0.0234372
0.0233445
0.0232553
0.0231692
0.0230881
0.0230112
0.0229383
0.022869
0.0228035
0.0227412
0.0226818
0.0226252
0.0225712
0.0225196
0.0224698
0.0224216
0.0223748
0.0223296
0.0222858
0.0222438
0.0222041
0.0221675
0.0221345
0.0221046
0.0220747
0.0220434
0.0220072
0.0219681
0.0219269
0.0218828
0.0218345
0.021787
0.0217414
0.0217041
0.0216657
0.0585173
0.0435196
0.0430845
0.0432848
0.0433384
0.0433905
0.0433941
0.043363
0.0433002
0.043214
0.0431125
0.0430013
0.042885
0.0427681
0.0426544
0.0425465
0.0424476
0.0423583
0.0422786
0.0422072
0.0421414
0.0420781
0.0420141
0.0419461
0.0418719
0.0417898
0.0416992
0.0416003
0.0414936
0.0413798
0.0412596
0.041133
0.0410003
0.040861
0.0407146
0.0405601
0.0403966
0.0402228
0.0400372
0.0398384
0.0396248
0.0393946
0.0391458
0.0388758
0.0385812
0.0382579
0.037901
0.0375052
0.0370611
0.0365529
0.0359669
0.0353151
0.0346343
0.0339622
0.0333232
0.0327272
0.0321712
0.0316472
0.0311458
0.0306601
0.030186
0.0297243
0.0292765
0.0288417
0.0284178
0.0280033
0.0275997
0.0272106
0.0268408
0.0264936
0.0261713
0.0258749
0.025604
0.025357
0.0251312
0.024925
0.0247354
0.0245624
0.0244022
0.0242527
0.0241133
0.0239809
0.0238584
0.023743
0.0236368
0.0235358
0.0234395
0.0233454
0.0232555
0.0231697
0.0230888
0.0230115
0.0229379
0.0228678
0.022801
0.022737
0.0226757
0.0226174
0.022562
0.022509
0.0224581
0.0224093
0.0223624
0.0223176
0.0222742
0.0222326
0.0221935
0.0221578
0.0221258
0.022097
0.0220685
0.0220384
0.0220026
0.0219635
0.0219222
0.021878
0.0218291
0.0217805
0.0217339
0.0216955
0.0216568
0.058532
0.0435209
0.0430639
0.0432691
0.0433254
0.0433791
0.0433853
0.0433563
0.0432951
0.0432103
0.04311
0.0429998
0.0428842
0.042768
0.0426548
0.0425474
0.0424486
0.0423594
0.0422795
0.0422077
0.0421414
0.0420776
0.0420129
0.0419444
0.0418694
0.0417866
0.0416953
0.0415957
0.0414883
0.0413739
0.041253
0.0411259
0.0409926
0.0408528
0.0407058
0.0405509
0.0403868
0.0402124
0.040026
0.0398263
0.0396115
0.0393798
0.039129
0.0388565
0.0385587
0.0382315
0.0378703
0.0374691
0.0370176
0.0365009
0.0359131
0.035272
0.0346111
0.0339636
0.0333519
0.0327818
0.0322481
0.0317403
0.0312489
0.0307696
0.0302984
0.0298344
0.0293791
0.0289351
0.0285049
0.0280897
0.0276897
0.027305
0.0269372
0.0265888
0.0262621
0.025959
0.0256803
0.0254255
0.0251926
0.0249802
0.0247845
0.0246048
0.0244379
0.0242825
0.0241385
0.0240038
0.0238816
0.0237668
0.0236582
0.0235521
0.0234505
0.0233536
0.0232636
0.0231791
0.0230991
0.0230221
0.0229487
0.0228789
0.022812
0.0227476
0.0226858
0.0226269
0.0225706
0.0225165
0.022464
0.0224134
0.0223648
0.0223182
0.022273
0.0222296
0.022189
0.022152
0.0221189
0.0220888
0.0220593
0.0220281
0.0219915
0.0219518
0.0219105
0.0218667
0.0218181
0.0217699
0.0217234
0.0216856
0.0216483
0.0585459
0.0435229
0.0430431
0.0432533
0.0433122
0.0433674
0.0433762
0.0433493
0.0432898
0.0432065
0.0431075
0.0429982
0.0428834
0.0427678
0.0426553
0.0425483
0.0424498
0.0423606
0.0422805
0.0422084
0.0421416
0.0420772
0.0420118
0.0419426
0.0418669
0.0417834
0.0416914
0.041591
0.041483
0.0413679
0.0412464
0.0411187
0.0409849
0.0408445
0.0406971
0.0405416
0.040377
0.040202
0.0400149
0.0398143
0.0395983
0.0393651
0.0391124
0.0388374
0.0385367
0.038206
0.0378407
0.0374343
0.0369758
0.0364536
0.0358676
0.0352385
0.034599
0.0339793
0.0333953
0.032846
0.032325
0.0318253
0.0313421
0.0308717
0.0304097
0.0299544
0.0295053
0.0290613
0.0286232
0.0281945
0.0277803
0.0273849
0.0270104
0.0266574
0.0263265
0.0260183
0.0257331
0.025471
0.0252313
0.0250137
0.0248146
0.0246333
0.0244654
0.0243095
0.0241646
0.0240266
0.0238974
0.0237734
0.0236567
0.0235454
0.0234432
0.0233482
0.0232606
0.023177
0.023096
0.0230172
0.0229421
0.0228706
0.0228024
0.022737
0.0226747
0.0226158
0.0225598
0.0225064
0.022455
0.022406
0.0223592
0.0223141
0.0222701
0.0222281
0.0221888
0.0221529
0.0221207
0.0220914
0.0220625
0.0220319
0.0219961
0.021957
0.0219159
0.0218717
0.0218225
0.0217736
0.0217263
0.0216873
0.0216482
0.0585593
0.0435256
0.0430222
0.0432374
0.0432988
0.0433556
0.043367
0.0433421
0.0432844
0.0432026
0.0431049
0.0429966
0.0428826
0.0427677
0.0426558
0.0425493
0.0424511
0.0423619
0.0422817
0.0422091
0.0421418
0.0420767
0.0420107
0.0419408
0.0418644
0.0417802
0.0416874
0.0415863
0.0414776
0.041362
0.0412399
0.0411116
0.0409772
0.0408363
0.0406884
0.0405324
0.0403673
0.0401916
0.0400039
0.0398023
0.0395852
0.0393506
0.0390961
0.0388188
0.0385152
0.0381813
0.0378121
0.0374006
0.0369362
0.0364104
0.0358286
0.0352146
0.0345994
0.034006
0.033442
0.032906
0.0323937
0.0319012
0.0314237
0.0309576
0.0304998
0.0300498
0.0296084
0.0291746
0.0287462
0.0283228
0.0279066
0.0275021
0.0271144
0.0267472
0.026403
0.0260831
0.0257878
0.025517
0.0252697
0.0250447
0.0248385
0.0246505
0.0244772
0.0243178
0.0241703
0.0240297
0.0238983
0.0237742
0.0236623
0.0235578
0.0234609
0.0233678
0.023278
0.0231907
0.0231061
0.0230247
0.0229471
0.0228732
0.0228032
0.0227366
0.0226732
0.0226132
0.0225556
0.0225002
0.0224469
0.0223962
0.0223478
0.0223009
0.0222553
0.0222119
0.0221715
0.0221346
0.0221016
0.0220717
0.0220424
0.0220119
0.0219765
0.0219375
0.021896
0.0218515
0.0218017
0.0217524
0.021704
0.0216645
0.0216254
0.0585718
0.0435292
0.0430014
0.0432215
0.0432853
0.0433436
0.0433577
0.0433348
0.043279
0.0431986
0.0431022
0.042995
0.0428818
0.0427676
0.0426563
0.0425503
0.0424524
0.0423633
0.0422829
0.04221
0.0421421
0.0420764
0.0420096
0.041939
0.0418619
0.0417769
0.0416834
0.0415816
0.0414722
0.041356
0.0412333
0.0411045
0.0409696
0.0408282
0.0406797
0.0405232
0.0403576
0.0401813
0.0399929
0.0397905
0.0395723
0.0393363
0.03908
0.0388005
0.0384943
0.0381573
0.0377845
0.0373684
0.0368993
0.0363726
0.035798
0.0352008
0.0346093
0.0340371
0.0334876
0.0329653
0.0324678
0.0319899
0.0315232
0.0310633
0.0306072
0.0301547
0.0297083
0.0292703
0.0288421
0.0284236
0.0280146
0.027616
0.0272305
0.0268613
0.0265113
0.026183
0.0258785
0.0255987
0.025343
0.0251101
0.0248964
0.024701
0.0245206
0.0243547
0.0242015
0.0240571
0.023925
0.0238004
0.0236847
0.0235735
0.0234688
0.023369
0.0232738
0.0231821
0.0230958
0.0230148
0.0229387
0.0228666
0.0227981
0.0227332
0.0226713
0.0226122
0.0225553
0.0225008
0.0224487
0.0223992
0.0223512
0.0223045
0.0222588
0.0222152
0.0221742
0.0221363
0.0221018
0.0220703
0.0220399
0.0220086
0.0219727
0.0219331
0.0218914
0.021847
0.0217971
0.0217477
0.0216989
0.0216599
0.0216211
0.0585837
0.0435335
0.0429805
0.0432054
0.0432716
0.0433316
0.0433484
0.0433275
0.0432735
0.0431946
0.0430995
0.0429933
0.0428811
0.0427677
0.042657
0.0425515
0.0424539
0.0423648
0.0422843
0.0422109
0.0421424
0.042076
0.0420086
0.0419371
0.0418593
0.0417735
0.0416793
0.0415769
0.0414668
0.04135
0.0412267
0.0410974
0.040962
0.0408201
0.0406711
0.0405141
0.0403479
0.0401711
0.0399819
0.0397787
0.0395595
0.0393221
0.0390641
0.0387826
0.038474
0.0381342
0.0377579
0.0373376
0.0368653
0.0363405
0.0357773
0.0351997
0.0346264
0.03407
0.0335406
0.0330391
0.0325584
0.0320913
0.031632
0.031179
0.0307301
0.0302833
0.0298386
0.0293965
0.0289583
0.0285275
0.0281086
0.0277046
0.0273174
0.0269477
0.0265964
0.0262647
0.0259542
0.0256662
0.0254013
0.0251595
0.0249386
0.0247388
0.0245557
0.0243883
0.0242329
0.0240848
0.023946
0.0238128
0.0236891
0.0235731
0.0234682
0.023369
0.0232739
0.0231826
0.0230971
0.023017
0.022941
0.0228682
0.0227982
0.0227312
0.0226666
0.0226041
0.0225438
0.0224867
0.0224334
0.022383
0.0223344
0.0222874
0.0222424
0.0221998
0.0221597
0.0221224
0.0220884
0.0220574
0.0220274
0.0219964
0.0219604
0.0219203
0.021878
0.0218329
0.021782
0.0217313
0.0216809
0.0216402
0.0215999
0.0585945
0.0435387
0.0429597
0.0431892
0.0432577
0.0433195
0.043339
0.0433201
0.0432679
0.0431905
0.0430967
0.0429916
0.0428803
0.0427677
0.0426577
0.0425527
0.0424554
0.0423664
0.0422857
0.0422119
0.0421429
0.0420757
0.0420075
0.0419352
0.0418566
0.0417701
0.0416752
0.041572
0.0414614
0.041344
0.0412202
0.0410903
0.0409544
0.040812
0.0406625
0.040505
0.0403383
0.0401609
0.0399711
0.039767
0.0395468
0.0393081
0.0390486
0.0387651
0.0384543
0.0381119
0.0377325
0.0373087
0.0368349
0.0363143
0.0357632
0.0352026
0.0346478
0.034113
0.0336053
0.0331161
0.0326414
0.0321773
0.0317218
0.0312739
0.0308312
0.030392
0.0299568
0.0295245
0.0290936
0.0286644
0.0282394
0.0278235
0.027422
0.0270388
0.026676
0.0263346
0.0260155
0.0257193
0.0254463
0.0251966
0.0249686
0.0247624
0.0245736
0.0244014
0.0242417
0.0240911
0.0239511
0.0238214
0.0237064
0.023595
0.0234883
0.0233842
0.0232859
0.0231946
0.0231104
0.0230304
0.0229533
0.022879
0.0228079
0.0227401
0.0226744
0.022611
0.0225501
0.0224923
0.0224374
0.0223844
0.0223329
0.0222836
0.0222368
0.0221924
0.0221503
0.022111
0.0220755
0.0220433
0.0220126
0.0219811
0.0219448
0.0219047
0.0218628
0.0218181
0.0217676
0.0217172
0.0216672
0.021628
0.0215904
0.0586048
0.0435447
0.0429388
0.0431729
0.0432436
0.0433073
0.0433296
0.0433125
0.0432623
0.0431863
0.0430938
0.04299
0.0428797
0.0427679
0.0426585
0.042554
0.042457
0.0423682
0.0422873
0.0422131
0.0421433
0.0420754
0.0420064
0.0419334
0.0418539
0.0417667
0.041671
0.0415672
0.041456
0.0413379
0.0412137
0.0410833
0.0409469
0.040804
0.040654
0.040496
0.0403288
0.0401508
0.0399603
0.0397554
0.0395342
0.0392943
0.0390333
0.038748
0.0384352
0.0380904
0.0377082
0.037282
0.0368089
0.0362953
0.0357571
0.0352123
0.0346776
0.0341641
0.0336678
0.0331849
0.0327169
0.0322622
0.0318163
0.0313743
0.0309341
0.0304947
0.0300584
0.0296274
0.0292018
0.0287809
0.0283644
0.0279542
0.0275536
0.0271663
0.0267955
0.0264441
0.0261148
0.0258092
0.025528
0.0252707
0.0250356
0.0248219
0.0246253
0.0244448
0.0242776
0.0241232
0.0239825
0.0238497
0.0237246
0.0236035
0.0234888
0.0233805
0.0232834
0.0231939
0.0231093
0.0230269
0.0229465
0.0228692
0.0227959
0.0227261
0.0226589
0.0225952
0.022536
0.0224809
0.0224271
0.0223745
0.022324
0.0222765
0.0222311
0.0221877
0.0221463
0.0221078
0.0220728
0.0220414
0.0220115
0.0219807
0.0219448
0.0219045
0.0218615
0.0218153
0.0217627
0.0217101
0.021658
0.0216159
0.0215742
0.0586137
0.0435516
0.0429178
0.0431563
0.0432295
0.0432951
0.04332
0.0433048
0.0432564
0.0431819
0.0430908
0.0429883
0.042879
0.0427681
0.0426594
0.0425554
0.0424587
0.0423699
0.0422889
0.0422142
0.0421439
0.0420752
0.0420053
0.0419315
0.0418512
0.0417632
0.0416668
0.0415623
0.0414505
0.0413319
0.0412071
0.0410763
0.0409395
0.0407961
0.0406456
0.0404871
0.0403193