/*--------------------------------*- C++ -*----------------------------------*\
| =========                 |                                                 |
| \\      /  F ield         | OpenFOAM: The Open Source CFD Toolbox           |
|  \\    /   O peration     | Version:  2412                                  |
|   \\  /    A nd           | Website:  www.openfoam.com                      |
|    \\/     M anipulation  |                                                 |
\*---------------------------------------------------------------------------*/
FoamFile
{
    version     2.0;
    format      ascii;
    arch        "LSB;label=32;scalar=64";
    class       volScalarField;
    location    "0.015";
    object      T;
}
// * * * * * * * * * * * * * * * * * * * * * * * * * * * * * * * * * * * * * //

dimensions      [0 0 0 1 0 0 0];

internalField   nonuniform List<scalar> 
9763
(
225.689
227.392
225.66
227.406
225.62
227.339
225.566
227.242
225.501
227.118
225.43
226.994
225.36
226.871
225.294
226.757
225.234
226.646
225.179
226.541
225.128
226.438
225.08
226.338
225.035
226.24
224.992
226.144
224.951
226.049
224.911
225.956
224.872
225.862
224.831
225.767
224.789
225.669
224.745
225.569
224.699
225.465
224.651
225.358
224.601
225.247
224.55
225.132
224.498
225.012
224.446
224.891
224.394
224.765
224.341
224.639
224.286
224.51
224.226
224.382
224.164
224.254
224.096
224.125
224.027
223.994
223.96
223.858
223.897
223.72
223.833
223.582
223.769
223.445
223.703
223.311
223.634
223.179
223.564
223.049
222.919
222.79
222.662
236.187
227.648
227.695
227.473
226.79
225.967
225.051
224.177
223.515
223.146
223.019
223.001
223.005
223.05
223.143
223.208
223.215
222.873
221.898
220.81
220.06
219.72
219.623
219.682
219.849
219.963
219.982
219.926
219.803
219.666
219.539
219.425
219.321
219.234
219.174
219.139
219.111
219.069
219
218.919
218.851
218.803
218.77
218.745
218.725
218.715
218.718
218.735
218.765
218.804
218.848
218.898
218.957
219.024
219.1
219.184
219.277
219.376
219.481
219.592
219.707
219.824
219.945
220.069
220.197
220.33
220.463
220.595
220.727
220.86
220.995
221.132
221.271
221.41
221.55
221.69
221.83
221.969
222.108
222.246
222.385
222.525
222.664
222.81
222.955
223.102
223.251
223.399
223.549
223.696
223.842
223.986
224.128
224.271
224.409
224.546
224.676
224.801
224.918
225.027
225.128
225.221
225.308
225.391
225.47
225.547
225.623
225.704
225.786
225.871
225.954
226.038
226.124
226.203
226.271
226.318
226.342
226.345
226.324
226.329
226.148
236.146
227.646
227.691
227.469
226.785
225.959
225.042
224.169
223.509
223.144
223.018
223.001
223.004
223.049
223.143
223.21
223.215
222.896
221.935
220.84
220.073
219.723
219.609
219.663
219.825
219.946
219.969
219.916
219.795
219.656
219.527
219.409
219.302
219.212
219.149
219.11
219.081
219.037
218.966
218.882
218.809
218.757
218.72
218.69
218.666
218.652
218.652
218.664
218.691
218.725
218.765
218.811
218.865
218.929
219.002
219.084
219.173
219.27
219.373
219.482
219.593
219.707
219.825
219.947
220.074
220.203
220.331
220.459
220.587
220.719
220.854
220.991
221.128
221.266
221.403
221.539
221.676
221.812
221.948
222.083
222.221
222.358
222.497
222.64
222.782
222.927
223.074
223.219
223.366
223.51
223.653
223.793
223.931
224.066
224.198
224.327
224.45
224.566
224.674
224.774
224.865
224.949
225.026
225.099
225.168
225.237
225.309
225.385
225.466
225.555
225.651
225.749
225.853
225.958
226.059
226.147
226.218
226.269
226.304
226.327
226.337
236.133
227.644
227.688
227.465
226.78
225.952
225.033
224.161
223.503
223.141
223.018
223.001
223.004
223.048
223.144
223.212
223.215
222.917
221.973
220.872
220.09
219.723
219.595
219.645
219.801
219.927
219.956
219.906
219.787
219.646
219.514
219.393
219.283
219.19
219.123
219.082
219.05
219.005
218.931
218.843
218.766
218.71
218.669
218.634
218.605
218.587
218.582
218.59
218.612
218.642
218.678
218.72
218.769
218.829
218.898
218.977
219.063
219.157
219.257
219.362
219.47
219.581
219.696
219.815
219.937
220.06
220.183
220.306
220.433
220.563
220.696
220.829
220.961
221.092
221.222
221.352
221.482
221.612
221.741
221.869
221.999
222.127
222.258
222.393
222.527
222.664
222.804
222.941
223.08
223.215
223.35
223.482
223.612
223.739
223.864
223.986
224.101
224.211
224.312
224.405
224.49
224.567
224.638
224.704
224.766
224.828
224.892
224.959
225.032
225.114
225.202
225.293
225.394
225.496
225.596
225.684
225.756
225.81
225.852
225.885
225.91
236.119
227.642
227.684
227.461
226.775
225.945
225.025
224.154
223.498
223.139
223.017
223.001
223.004
223.047
223.144
223.214
223.215
222.937
222.011
220.904
220.107
219.723
219.582
219.63
219.777
219.908
219.944
219.897
219.779
219.637
219.501
219.378
219.265
219.169
219.099
219.055
219.021
218.974
218.898
218.807
218.726
218.665
218.619
218.581
218.547
218.523
218.515
218.519
218.535
218.561
218.592
218.63
218.676
218.732
218.798
218.873
218.956
219.047
219.143
219.244
219.348
219.455
219.566
219.681
219.798
219.915
220.032
220.153
220.277
220.405
220.533
220.66
220.785
220.909
221.032
221.155
221.279
221.402
221.525
221.647
221.769
221.891
222.014
222.14
222.267
222.396
222.526
222.654
222.781
222.904
223.025
223.142
223.258
223.372
223.485
223.595
223.701
223.802
223.895
223.981
224.059
224.131
224.196
224.257
224.315
224.374
224.436
224.5
224.57
224.65
224.737
224.831
224.933
225.039
225.143
225.236
225.312
225.371
225.417
225.452
225.477
236.116
227.64
227.681
227.457
226.771
225.938
225.017
224.147
223.493
223.137
223.017
223.001
223.004
223.046
223.145
223.216
223.215
222.954
222.047
220.936
220.124
219.722
219.571
219.616
219.753
219.889
219.931
219.887
219.772
219.628
219.49
219.364
219.248
219.149
219.076
219.028
218.993
218.945
218.866
218.772
218.686
218.621
218.571
218.528
218.49
218.462
218.449
218.449
218.459
218.48
218.508
218.542
218.584
218.636
218.698
218.77
218.851
218.938
219.031
219.128
219.228
219.331
219.439
219.55
219.661
219.773
219.886
220.004
220.126
220.25
220.373
220.494
220.613
220.73
220.847
220.965
221.082
221.2
221.315
221.431
221.544
221.659
221.773
221.892
222.009
222.13
222.252
222.372
222.491
222.607
222.72
222.83
222.937
223.043
223.146
223.246
223.342
223.435
223.519
223.597
223.667
223.729
223.786
223.839
223.889
223.939
223.993
224.049
224.113
224.186
224.265
224.352
224.452
224.557
224.66
224.753
224.83
224.889
224.934
224.965
224.989
236.093
227.637
227.677
227.453
226.766
225.931
225.009
224.139
223.488
223.134
223.016
223.001
223.004
223.045
223.145
223.218
223.216
222.971
222.082
220.968
220.142
219.718
219.561
219.602
219.73
219.869
219.919
219.877
219.765
219.62
219.479
219.35
219.232
219.13
219.053
219.002
218.965
218.915
218.835
218.737
218.647
218.578
218.524
218.477
218.435
218.402
218.385
218.38
218.385
218.401
218.424
218.454
218.492
218.541
218.6
218.669
218.746
218.831
218.92
219.012
219.108
219.207
219.311
219.417
219.523
219.63
219.74
219.855
219.974
220.093
220.21
220.325
220.437
220.549
220.661
220.774
220.887
220.999
221.109
221.22
221.327
221.437
221.544
221.656
221.767
221.881
221.996
222.109
222.22
222.329
222.434
222.536
222.635
222.731
222.825
222.917
223.005
223.089
223.167
223.239
223.303
223.361
223.413
223.46
223.505
223.551
223.598
223.649
223.708
223.773
223.844
223.928
224.022
224.124
224.224
224.315
224.389
224.446
224.487
224.511
224.51
236.075
227.635
227.674
227.448
226.761
225.924
225.001
224.132
223.483
223.132
223.016
223.001
223.004
223.044
223.145
223.219
223.217
222.987
222.117
221.002
220.159
219.714
219.552
219.587
219.705
219.848
219.906
219.867
219.758
219.612
219.468
219.336
219.215
219.11
219.03
218.976
218.937
218.886
218.804
218.702
218.608
218.535
218.476
218.425
218.378
218.341
218.319
218.311
218.312
218.321
218.338
218.364
218.398
218.443
218.499
218.565
218.639
218.72
218.805
218.894
218.985
219.081
219.181
219.282
219.384
219.486
219.594
219.705
219.819
219.932
220.043
220.152
220.259
220.367
220.475
220.584
220.692
220.798
220.903
221.007
221.108
221.213
221.312
221.42
221.524
221.633
221.743
221.852
221.961
222.068
222.172
222.271
222.365
222.456
222.544
222.629
222.71
222.789
222.862
222.931
222.991
223.047
223.096
223.142
223.185
223.228
223.272
223.32
223.376
223.436
223.504
223.586
223.679
223.779
223.879
223.969
224.043
224.097
224.138
224.172
224.192
236.052
227.632
227.67
227.444
226.756
225.916
224.993
224.125
223.478
223.13
223.016
223.001
223.003
223.043
223.144
223.22
223.219
223.003
222.152
221.036
220.176
219.71
219.545
219.572
219.679
219.827
219.892
219.857
219.751
219.604
219.457
219.323
219.199
219.09
219.007
218.95
218.908
218.856
218.772
218.667
218.569
218.491
218.428
218.372
218.321
218.279
218.253
218.241
218.238
218.24
218.252
218.273
218.303
218.344
218.396
218.458
218.529
218.606
218.687
218.771
218.859
218.951
219.046
219.142
219.238
219.337
219.441
219.548
219.656
219.762
219.867
219.97
220.073
220.177
220.282
220.386
220.489
220.59
220.69
220.788
220.883
220.983
221.076
221.178
221.275
221.378
221.482
221.587
221.691
221.794
221.894
221.989
222.079
222.165
222.248
222.327
222.404
222.478
222.547
222.613
222.672
222.727
222.776
222.821
222.864
222.906
222.95
222.996
223.049
223.106
223.173
223.252
223.343
223.441
223.539
223.628
223.7
223.752
223.788
223.818
223.854
236.041
227.628
227.666
227.44
226.751
225.909
224.985
224.117
223.473
223.128
223.015
223.001
223.003
223.042
223.143
223.221
223.221
223.018
222.187
221.071
220.195
219.709
219.539
219.555
219.653
219.805
219.878
219.846
219.744
219.596
219.446
219.309
219.182
219.071
218.984
218.924
218.88
218.825
218.739
218.631
218.528
218.446
218.379
218.318
218.262
218.216
218.185
218.169
218.161
218.158
218.163
218.179
218.205
218.241
218.289
218.348
218.415
218.488
218.565
218.644
218.727
218.815
218.905
218.996
219.088
219.184
219.284
219.386
219.486
219.585
219.683
219.782
219.882
219.982
220.083
220.183
220.28
220.374
220.467
220.558
220.648
220.74
220.826
220.923
221.013
221.11
221.209
221.309
221.409
221.509
221.605
221.696
221.781
221.862
221.939
222.012
222.082
222.15
222.213
222.274
222.328
222.378
222.422
222.462
222.5
222.538
222.577
222.619
222.663
222.713
222.775
222.848
222.932
223.023
223.115
223.2
223.27
223.32
223.348
223.361
223.361
236.029
227.625
227.662
227.435
226.746
225.901
224.976
224.11
223.468
223.126
223.015
223.001
223.003
223.041
223.142
223.221
223.223
223.033
222.222
221.107
220.215
219.71
219.532
219.536
219.628
219.784
219.862
219.835
219.737
219.588
219.435
219.295
219.166
219.051
218.96
218.898
218.851
218.794
218.706
218.595
218.487
218.401
218.329
218.264
218.203
218.152
218.117
218.096
218.082
218.074
218.074
218.084
218.106
218.138
218.181
218.236
218.298
218.367
218.438
218.512
218.591
218.673
218.758
218.843
218.931
219.024
219.119
219.214
219.308
219.4
219.492
219.586
219.682
219.779
219.875
219.969
220.061
220.149
220.236
220.32
220.404
220.489
220.57
220.66
220.743
220.834
220.925
221.018
221.111
221.204
221.294
221.378
221.458
221.534
221.606
221.675
221.741
221.805
221.864
221.92
221.97
222.016
222.055
222.092
222.125
222.159
222.194
222.23
222.27
222.317
222.376
222.445
222.525
222.612
222.701
222.784
222.853
222.902
222.93
222.94
222.939
236.012
227.621
227.658
227.431
226.74
225.894
224.968
224.102
223.463
223.124
223.015
223.001
223.003
223.039
223.14
223.221
223.225
223.047
222.257
221.144
220.238
219.714
219.525
219.515
219.604
219.763
219.846
219.824
219.73
219.58
219.424
219.282
219.149
219.031
218.937
218.871
218.821
218.763
218.673
218.558
218.446
218.355
218.279
218.209
218.143
218.088
218.048
218.021
218.002
217.989
217.983
217.987
218.004
218.032
218.071
218.121
218.179
218.242
218.308
218.377
218.45
218.527
218.606
218.687
218.771
218.859
218.949
219.037
219.124
219.21
219.298
219.388
219.479
219.571
219.661
219.748
219.833
219.916
219.996
220.074
220.151
220.228
220.304
220.387
220.465
220.55
220.636
220.723
220.811
220.898
220.981
221.061
221.137
221.208
221.277
221.343
221.407
221.467
221.523
221.575
221.621
221.662
221.696
221.728
221.758
221.789
221.819
221.852
221.889
221.934
221.99
222.058
222.137
222.222
222.31
222.392
222.462
222.513
222.543
222.555
222.554
235.99
227.618
227.654
227.426
226.735
225.886
224.959
224.094
223.458
223.121
223.014
223.001
223.003
223.038
223.139
223.221
223.227
223.06
222.291
221.182
220.262
219.723
219.518
219.494
219.581
219.742
219.829
219.813
219.723
219.572
219.414
219.268
219.133
219.011
218.914
218.844
218.792
218.731
218.64
218.522
218.405
218.309
218.229
218.154
218.084
218.023
217.978
217.946
217.922
217.902
217.891
217.89
217.901
217.924
217.959
218.005
218.058
218.116
218.176
218.24
218.307
218.378
218.451
218.526
218.605
218.688
218.772
218.853
218.933
219.014
219.098
219.184
219.27
219.355
219.438
219.518
219.597
219.674
219.749
219.821
219.893
219.963
220.035
220.112
220.184
220.263
220.343
220.424
220.506
220.587
220.667
220.743
220.816
220.886
220.954
221.018
221.079
221.138
221.192
221.241
221.284
221.322
221.354
221.383
221.409
221.438
221.466
221.498
221.535
221.579
221.634
221.702
221.781
221.868
221.958
222.043
222.115
222.169
222.203
222.218
222.221
235.974
227.614
227.65
227.421
226.729
225.878
224.95
224.086
223.453
223.119
223.014
223.001
223.003
223.037
223.137
223.221
223.23
223.073
222.324
221.22
220.288
219.733
219.51
219.474
219.56
219.72
219.811
219.801
219.715
219.564
219.404
219.255
219.117
218.991
218.89
218.817
218.762
218.7
218.606
218.485
218.365
218.263
218.178
218.098
218.023
217.958
217.908
217.87
217.84
217.815
217.798
217.792
217.797
217.815
217.845
217.886
217.934
217.987
218.042
218.1
218.161
218.226
218.293
218.363
218.437
218.514
218.591
218.666
218.741
218.818
218.897
218.977
219.057
219.134
219.21
219.283
219.355
219.426
219.495
219.562
219.629
219.694
219.762
219.833
219.901
219.975
220.051
220.127
220.206
220.285
220.364
220.44
220.513
220.582
220.648
220.71
220.769
220.824
220.875
220.921
220.961
220.996
221.025
221.052
221.077
221.104
221.129
221.161
221.198
221.241
221.297
221.365
221.446
221.535
221.628
221.715
221.791
221.848
221.886
221.905
221.912
235.96
227.61
227.646
227.416
226.723
225.87
224.941
224.078
223.448
223.117
223.013
223.001
223.003
223.036
223.135
223.222
223.232
223.084
222.356
221.258
220.315
219.743
219.502
219.455
219.539
219.698
219.792
219.789
219.707
219.556
219.394
219.242
219.101
218.972
218.867
218.79
218.732
218.668
218.573
218.449
218.324
218.218
218.127
218.043
217.963
217.894
217.838
217.795
217.758
217.727
217.704
217.693
217.693
217.705
217.73
217.766
217.81
217.857
217.906
217.958
218.014
218.072
218.132
218.197
218.266
218.336
218.406
218.475
218.545
218.617
218.691
218.765
218.837
218.907
218.976
219.043
219.109
219.174
219.238
219.301
219.364
219.424
219.488
219.552
219.618
219.686
219.757
219.829
219.905
219.983
220.062
220.14
220.214
220.283
220.349
220.409
220.465
220.516
220.564
220.607
220.645
220.679
220.707
220.734
220.758
220.784
220.81
220.843
220.881
220.925
220.981
221.051
221.134
221.227
221.324
221.415
221.495
221.556
221.598
221.622
221.634
235.945
227.606
227.642
227.411
226.718
225.862
224.932
224.071
223.443
223.115
223.013
223.001
223.003
223.035
223.134
223.222
223.235
223.095
222.388
221.297
220.343
219.752
219.493
219.438
219.519
219.673
219.773
219.777
219.699
219.549
219.384
219.23
219.085
218.953
218.844
218.763
218.702
218.637
218.54
218.413
218.284
218.172
218.077
217.987
217.903
217.828
217.768
217.718
217.676
217.639
217.61
217.593
217.588
217.594
217.614
217.645
217.683
217.724
217.768
217.815
217.864
217.916
217.97
218.03
218.093
218.157
218.22
218.283
218.348
218.416
218.484
218.551
218.615
218.677
218.74
218.801
218.862
218.921
218.98
219.038
219.095
219.151
219.212
219.269
219.334
219.396
219.465
219.533
219.606
219.682
219.76
219.838
219.913
219.983
220.048
220.107
220.161
220.211
220.256
220.296
220.332
220.365
220.393
220.42
220.444
220.471
220.498
220.531
220.57
220.615
220.673
220.744
220.83
220.927
221.028
221.123
221.206
221.271
221.316
221.344
221.359
235.927
227.602
227.638
227.406
226.712
225.854
224.923
224.063
223.437
223.113
223.013
223.001
223.002
223.034
223.133
223.223
223.238
223.105
222.418
221.336
220.372
219.76
219.484
219.421
219.499
219.648
219.752
219.765
219.69
219.541
219.375
219.217
219.069
218.934
218.821
218.737
218.673
218.605
218.507
218.378
218.244
218.127
218.026
217.932
217.842
217.763
217.697
217.642
217.593
217.55
217.515
217.493
217.483
217.485
217.497
217.522
217.555
217.591
217.629
217.67
217.713
217.758
217.806
217.86
217.916
217.973
218.03
218.088
218.149
218.211
218.272
218.331
218.388
218.444
218.5
218.557
218.613
218.668
218.722
218.774
218.826
218.877
218.933
218.984
219.047
219.103
219.17
219.233
219.302
219.373
219.446
219.52
219.592
219.661
219.727
219.787
219.843
219.893
219.939
219.98
220.017
220.049
220.078
220.105
220.13
220.158
220.187
220.222
220.262
220.309
220.369
220.443
220.532
220.633
220.738
220.838
220.925
220.993
221.04
221.071
221.088
235.909
227.598
227.634
227.401
226.706
225.846
224.914
224.055
223.432
223.111
223.012
223.001
223.002
223.033
223.131
223.225
223.241
223.115
222.449
221.375
220.401
219.769
219.476
219.405
219.479
219.621
219.731
219.752
219.681
219.534
219.366
219.205
219.054
218.915
218.799
218.71
218.643
218.573
218.474
218.342
218.204
218.082
217.976
217.876
217.781
217.697
217.626
217.565
217.51
217.461
217.42
217.392
217.377
217.374
217.38
217.398
217.424
217.455
217.488
217.523
217.56
217.599
217.641
217.689
217.738
217.789
217.84
217.893
217.948
218.004
218.058
218.109
218.16
218.21
218.261
218.312
218.364
218.413
218.462
218.509
218.555
218.601
218.651
218.696
218.755
218.807
218.873
218.932
218.996
219.06
219.125
219.192
219.259
219.324
219.388
219.45
219.509
219.562
219.612
219.655
219.694
219.727
219.757
219.784
219.81
219.838
219.867
219.904
219.945
219.994
220.055
220.131
220.223
220.327
220.436
220.54
220.629
220.7
220.749
220.781
220.8
235.891
227.594
227.63
227.395
226.7
225.837
224.905
224.046
223.427
223.109
223.012
223.001
223.002
223.032
223.13
223.226
223.245
223.125
222.478
221.415
220.43
219.778
219.469
219.391
219.458
219.594
219.709
219.738
219.671
219.527
219.357
219.193
219.039
218.897
218.777
218.684
218.614
218.542
218.44
218.306
218.164
218.037
217.926
217.821
217.721
217.631
217.555
217.489
217.428
217.372
217.326
217.291
217.27
217.262
217.264
217.274
217.294
217.318
217.345
217.374
217.405
217.438
217.475
217.515
217.558
217.602
217.647
217.695
217.745
217.793
217.84
217.884
217.929
217.975
218.021
218.068
218.113
218.157
218.2
218.242
218.281
218.321
218.364
218.405
218.458
218.506
218.568
218.624
218.683
218.742
218.799
218.859
218.918
218.977
219.039
219.101
219.161
219.219
219.272
219.32
219.361
219.396
219.427
219.455
219.481
219.508
219.537
219.575
219.617
219.667
219.729
219.808
219.902
220.009
220.12
220.227
220.32
220.392
220.443
220.476
220.496
235.875
227.59
227.625
227.39
226.693
225.829
224.895
224.038
223.422
223.107
223.012
223
223.002
223.031
223.129
223.228
223.248
223.134
222.507
221.454
220.461
219.789
219.463
219.377
219.437
219.566
219.686
219.725
219.661
219.52
219.349
219.182
219.024
218.879
218.755
218.659
218.585
218.51
218.407
218.27
218.124
217.993
217.876
217.766
217.66
217.565
217.484
217.411
217.344
217.282
217.23
217.19
217.163
217.149
217.146
217.15
217.161
217.18
217.201
217.225
217.249
217.277
217.307
217.342
217.377
217.415
217.454
217.497
217.54
217.581
217.62
217.658
217.699
217.74
217.782
217.822
217.861
217.899
217.934
217.969
218.003
218.037
218.073
218.111
218.157
218.202
218.26
218.312
218.368
218.424
218.477
218.532
218.586
218.641
218.698
218.757
218.816
218.874
218.929
218.978
219.022
219.059
219.09
219.118
219.143
219.169
219.197
219.234
219.275
219.324
219.386
219.464
219.559
219.666
219.779
219.888
219.982
220.055
220.106
220.139
220.159
235.857
227.586
227.621
227.384
226.687
225.82
224.886
224.03
223.417
223.105
223.011
223
223.002
223.031
223.128
223.229
223.251
223.143
222.536
221.494
220.492
219.802
219.46
219.365
219.416
219.537
219.664
219.71
219.651
219.513
219.341
219.17
219.01
218.862
218.733
218.633
218.556
218.479
218.374
218.234
218.084
217.949
217.827
217.711
217.6
217.499
217.412
217.334
217.26
217.192
217.134
217.088
217.056
217.036
217.027
217.025
217.029
217.04
217.056
217.073
217.092
217.114
217.138
217.166
217.195
217.226
217.26
217.297
217.333
217.366
217.399
217.432
217.468
217.505
217.541
217.575
217.608
217.638
217.666
217.694
217.72
217.749
217.779
217.813
217.854
217.894
217.945
217.994
218.048
218.102
218.156
218.21
218.263
218.316
218.369
218.423
218.478
218.532
218.585
218.634
218.677
218.715
218.747
218.775
218.8
218.825
218.852
218.886
218.925
218.972
219.033
219.109
219.202
219.309
219.421
219.53
219.625
219.698
219.749
219.782
219.801
235.841
227.581
227.617
227.379
226.68
225.811
224.876
224.022
223.411
223.103
223.011
223
223.002
223.03
223.127
223.23
223.253
223.152
222.564
221.533
220.525
219.818
219.459
219.353
219.395
219.509
219.642
219.695
219.64
219.507
219.333
219.159
218.996
218.844
218.712
218.608
218.527
218.447
218.34
218.198
218.045
217.905
217.779
217.658
217.541
217.434
217.34
217.255
217.175
217.101
217.037
216.986
216.947
216.921
216.907
216.899
216.897
216.9
216.908
216.92
216.934
216.949
216.968
216.989
217.012
217.037
217.066
217.096
217.124
217.151
217.178
217.207
217.237
217.268
217.297
217.325
217.35
217.373
217.395
217.416
217.436
217.459
217.483
217.513
217.549
217.586
217.631
217.676
217.726
217.78
217.835
217.89
217.945
217.998
218.049
218.098
218.147
218.196
218.243
218.288
218.328
218.365
218.396
218.424
218.448
218.472
218.498
218.529
218.566
218.611
218.669
218.743
218.832
218.937
219.048
219.156
219.251
219.324
219.374
219.406
219.424
235.825
227.577
227.612
227.373
226.674
225.802
224.867
224.014
223.406
223.101
223.011
223
223.002
223.029
223.126
223.23
223.256
223.161
222.592
221.572
220.558
219.835
219.458
219.341
219.373
219.481
219.62
219.678
219.629
219.5
219.326
219.149
218.982
218.827
218.691
218.583
218.499
218.416
218.307
218.162
218.005
217.861
217.731
217.605
217.482
217.369
217.269
217.177
217.09
217.01
216.939
216.882
216.838
216.806
216.785
216.772
216.763
216.759
216.76
216.766
216.774
216.784
216.797
216.812
216.828
216.848
216.87
216.894
216.915
216.935
216.957
216.981
217.007
217.03
217.051
217.071
217.089
217.106
217.122
217.137
217.152
217.169
217.187
217.212
217.242
217.275
217.313
217.354
217.4
217.452
217.504
217.56
217.615
217.668
217.719
217.767
217.813
217.857
217.9
217.939
217.976
218.009
218.038
218.064
218.087
218.11
218.135
218.164
218.198
218.241
218.297
218.368
218.455
218.556
218.666
218.774
218.869
218.942
218.992
219.022
219.039
235.806
227.572
227.608
227.367
226.667
225.793
224.857
224.006
223.401
223.099
223.011
223
223.002
223.028
223.124
223.231
223.258
223.169
222.619
221.61
220.593
219.855
219.458
219.328
219.351
219.453
219.598
219.661
219.618
219.494
219.318
219.138
218.969
218.81
218.671
218.558
218.47
218.385
218.274
218.127
217.966
217.818
217.683
217.552
217.424
217.305
217.198
217.099
217.005
216.917
216.84
216.777
216.728
216.69
216.662
216.642
216.627
216.616
216.611
216.61
216.612
216.616
216.624
216.633
216.644
216.658
216.675
216.691
216.706
216.72
216.737
216.756
216.774
216.791
216.804
216.815
216.826
216.836
216.847
216.858
216.868
216.881
216.893
216.911
216.934
216.963
216.994
217.033
217.072
217.119
217.165
217.215
217.266
217.318
217.369
217.418
217.464
217.507
217.548
217.585
217.618
217.647
217.672
217.695
217.716
217.736
217.759
217.785
217.817
217.859
217.912
217.98
218.064
218.163
218.271
218.379
218.475
218.548
218.596
218.626
218.641
235.79
227.567
227.604
227.361
226.66
225.784
224.847
223.997
223.396
223.097
223.01
223
223.002
223.027
223.123
223.231
223.259
223.176
222.645
221.649
220.627
219.875
219.459
219.315
219.329
219.426
219.575
219.642
219.606
219.487
219.311
219.128
218.955
218.794
218.65
218.534
218.442
218.354
218.241
218.092
217.927
217.774
217.635
217.499
217.366
217.241
217.128
217.022
216.92
216.825
216.742
216.672
216.616
216.572
216.537
216.51
216.488
216.471
216.459
216.452
216.448
216.447
216.448
216.451
216.457
216.466
216.477
216.487
216.497
216.507
216.518
216.53
216.541
216.549
216.555
216.56
216.563
216.567
216.572
216.578
216.584
216.592
216.598
216.61
216.625
216.648
216.672
216.708
216.74
216.779
216.815
216.854
216.897
216.942
216.991
217.041
217.091
217.137
217.179
217.215
217.247
217.273
217.295
217.314
217.332
217.35
217.37
217.394
217.424
217.464
217.515
217.58
217.661
217.757
217.864
217.972
218.068
218.142
218.189
218.216
218.229
235.773
227.562
227.599
227.355
226.653
225.775
224.837
223.989
223.391
223.095
223.01
223
223.002
223.026
223.121
223.231
223.261
223.184
222.67
221.686
220.663
219.896
219.46
219.302
219.306
219.4
219.551
219.623
219.593
219.481
219.304
219.118
218.942
218.778
218.631
218.51
218.415
218.324
218.208
218.056
217.888
217.731
217.586
217.446
217.308
217.178
217.058
216.944
216.835
216.733
216.643
216.566
216.504
216.453
216.411
216.376
216.347
216.324
216.305
216.291
216.281
216.275
216.27
216.268
216.269
216.272
216.277
216.282
216.287
216.293
216.299
216.303
216.305
216.306
216.306
216.305
216.304
216.302
216.3
216.3
216.301
216.303
216.303
216.309
216.318
216.333
216.35
216.38
216.405
216.435
216.462
216.49
216.521
216.557
216.6
216.647
216.698
216.747
216.791
216.83
216.861
216.885
216.904
216.919
216.933
216.947
216.965
216.985
217.012
217.05
217.098
217.16
217.237
217.329
217.433
217.541
217.639
217.713
217.759
217.782
217.793
235.755
227.557
227.595
227.349
226.646
225.766
224.827
223.98
223.386
223.093
223.01
223
223.001
223.025
223.119
223.23
223.263
223.191
222.694
221.724
220.699
219.917
219.461
219.289
219.284
219.375
219.527
219.602
219.581
219.475
219.297
219.109
218.93
218.762
218.611
218.486
218.387
218.293
218.176
218.021
217.849
217.687
217.538
217.393
217.25
217.114
216.988
216.868
216.751
216.642
216.545
216.461
216.391
216.333
216.284
216.241
216.204
216.173
216.148
216.128
216.112
216.099
216.089
216.081
216.076
216.074
216.074
216.075
216.076
216.078
216.078
216.075
216.069
216.062
216.057
216.052
216.046
216.039
216.032
216.025
216.019
216.012
216.006
216.004
216.007
216.015
216.027
216.049
216.067
216.09
216.111
216.13
216.152
216.178
216.211
216.251
216.297
216.344
216.389
216.428
216.459
216.481
216.497
216.509
216.519
216.529
216.542
216.558
216.581
216.616
216.661
216.72
216.792
216.88
216.98
217.086
217.186
217.262
217.309
217.331
217.335
235.739
227.552
227.59
227.342
226.638
225.756
224.817
223.972
223.38
223.091
223.01
223
223.001
223.025
223.118
223.23
223.265
223.198
222.718
221.761
220.735
219.939
219.464
219.276
219.262
219.349
219.501
219.581
219.568
219.468
219.29
219.099
218.918
218.747
218.592
218.463
218.36
218.263
218.144
217.986
217.81
217.643
217.489
217.339
217.191
217.05
216.918
216.791
216.667
216.551
216.447
216.356
216.279
216.213
216.156
216.106
216.06
216.021
215.988
215.961
215.939
215.92
215.904
215.89
215.879
215.872
215.867
215.863
215.861
215.858
215.853
215.843
215.831
215.819
215.808
215.798
215.788
215.777
215.765
215.752
215.739
215.723
215.708
215.697
215.695
215.695
215.702
215.717
215.731
215.75
215.767
215.783
215.799
215.817
215.839
215.867
215.901
215.94
215.979
216.015
216.044
216.065
216.079
216.086
216.091
216.096
216.105
216.114
216.133
216.164
216.205
216.26
216.327
216.409
216.504
216.607
216.705
216.783
216.832
216.855
216.85
235.719
227.547
227.585
227.336
226.631
225.746
224.807
223.963
223.375
223.089
223.009
223
223.001
223.024
223.116
223.23
223.267
223.205
222.741
221.798
220.772
219.962
219.468
219.265
219.241
219.324
219.474
219.56
219.555
219.46
219.284
219.091
218.906
218.732
218.574
218.441
218.334
218.233
218.111
217.951
217.771
217.599
217.441
217.286
217.133
216.987
216.848
216.714
216.583
216.46
216.349
216.252
216.168
216.094
216.029
215.97
215.916
215.868
215.827
215.793
215.764
215.739
215.716
215.696
215.679
215.666
215.656
215.648
215.641
215.634
215.622
215.607
215.591
215.576
215.56
215.544
215.527
215.511
215.495
215.477
215.457
215.433
215.409
215.389
215.377
215.37
215.372
215.382
215.393
215.41
215.427
215.442
215.455
215.467
215.478
215.492
215.511
215.536
215.565
215.594
215.62
215.639
215.649
215.652
215.652
215.652
215.654
215.658
215.673
215.699
215.736
215.786
215.848
215.925
216.015
216.114
216.21
216.289
216.341
216.366
216.355
235.704
227.542
227.581
227.329
226.623
225.736
224.796
223.955
223.37
223.088
223.009
223
223.001
223.023
223.114
223.23
223.27
223.212
222.764
221.834
220.81
219.987
219.474
219.255
219.221
219.3
219.446
219.539
219.542
219.452
219.277
219.082
218.894
218.717
218.555
218.418
218.307
218.204
218.079
217.916
217.732
217.556
217.393
217.233
217.075
216.922
216.778
216.636
216.498
216.368
216.251
216.148
216.056
215.975
215.902
215.835
215.772
215.715
215.665
215.624
215.588
215.556
215.526
215.499
215.476
215.457
215.442
215.429
215.418
215.404
215.387
215.367
215.348
215.331
215.312
215.291
215.267
215.243
215.219
215.196
215.169
215.141
215.11
215.082
215.062
215.045
215.041
215.044
215.053
215.068
215.084
215.1
215.112
215.12
215.122
215.123
215.127
215.137
215.152
215.172
215.191
215.206
215.213
215.213
215.208
215.199
215.195
215.193
215.202
215.223
215.254
215.298
215.355
215.426
215.511
215.605
215.698
215.778
215.831
215.859
215.841
235.685
227.536
227.576
227.322
226.615
225.726
224.786
223.946
223.365
223.086
223.009
223
223.001
223.022
223.113
223.23
223.273
223.218
222.787
221.871
220.847
220.013
219.481
219.247
219.202
219.275
219.417
219.517
219.528
219.443
219.271
219.074
218.883
218.702
218.537
218.396
218.281
218.174
218.047
217.881
217.693
217.512
217.345
217.18
217.017
216.859
216.707
216.559
216.414
216.277
216.153
216.043
215.944
215.856
215.775
215.699
215.628
215.562
215.504
215.454
215.411
215.372
215.335
215.302
215.272
215.246
215.225
215.208
215.192
215.172
215.149
215.125
215.102
215.081
215.059
215.034
215.005
214.974
214.941
214.909
214.876
214.842
214.807
214.774
214.747
214.721
214.707
214.703
214.706
214.716
214.73
214.743
214.753
214.757
214.754
214.745
214.738
214.735