/*--------------------------------*- C++ -*----------------------------------*\
| =========                 |                                                 |
| \\      /  F ield         | OpenFOAM: The Open Source CFD Toolbox           |
|  \\    /   O peration     | Version:  2412                                  |
|   \\  /    A nd           | Website:  www.openfoam.com                      |
|    \\/     M anipulation  |                                                 |
\*---------------------------------------------------------------------------*/
FoamFile
{
    version     2.0;
    format      ascii;
    arch        "LSB;label=32;scalar=64";
    class       volScalarField;
    location    "0.088";
    object      rho;
}
// * * * * * * * * * * * * * * * * * * * * * * * * * * * * * * * * * * * * * //

dimensions      [1 -3 0 0 0 0 0];

internalField   nonuniform List<scalar> 
9857
(
0.042572
0.0419091
0.041806
0.0424898
0.041874
0.041771
0.0416656
0.0415907
0.0415262
0.0414741
0.0414284
0.0413854
0.0413431
0.0413002
0.041256
0.0412173
0.0411955
0.0411917
0.0412245
0.0413819
0.0416387
0.0418602
0.0419974
0.0420753
0.0421246
0.0421637
0.0422011
0.0422402
0.0424113
0.0418365
0.0417359
0.0416357
0.0415639
0.0415013
0.0414508
0.0414061
0.0413642
0.0413231
0.0412813
0.0412388
0.0412025
0.0411831
0.0411809
0.04122
0.0413886
0.0416488
0.0418668
0.0419999
0.0420755
0.0421242
0.0421634
0.0422014
0.0422415
0.0423137
0.0417835
0.0416923
0.0416013
0.0415328
0.0414726
0.0414237
0.04138
0.0413392
0.0412996
0.0412593
0.0412188
0.0411857
0.0411691
0.041169
0.0412171
0.0413986
0.0416617
0.0418746
0.0420028
0.0420756
0.0421234
0.0421628
0.0422019
0.042243
0.0421665
0.0417152
0.0416415
0.0415614
0.0414964
0.0414392
0.0413922
0.0413503
0.0413113
0.0412733
0.0412346
0.0411966
0.041167
0.0411535
0.0411562
0.0412166
0.0414126
0.0416768
0.0418828
0.0420051
0.0420751
0.0421221
0.042162
0.0422021
0.0422445
0.0420148
0.041649
0.0415938
0.0415212
0.04146
0.041406
0.0413607
0.0413204
0.041283
0.0412468
0.0412101
0.0411749
0.041149
0.0411383
0.0411447
0.0412195
0.0414307
0.0416943
0.0418918
0.0420075
0.0420744
0.0421206
0.042161
0.0422024
0.0422459
0.041806
0.0416122
0.0415571
0.0414805
0.0414208
0.0413705
0.0413285
0.0412909
0.0412557
0.0412212
0.0411863
0.041154
0.0411316
0.0411234
0.0411344
0.0412259
0.0414516
0.0417126
0.0419005
0.0420091
0.0420731
0.0421186
0.0421597
0.0422025
0.0422471
0.0415656
0.0415877
0.041525
0.0414431
0.0413838
0.0413364
0.0412967
0.0412613
0.0412281
0.0411957
0.0411632
0.041134
0.041115
0.0411091
0.0411263
0.041236
0.0414745
0.0417308
0.0419084
0.0420099
0.042071
0.0421162
0.0421581
0.0422021
0.042248
0.0422924
0.0413636
0.0415405
0.0414741
0.0413992
0.0413463
0.0413028
0.041266
0.041233
0.0412019
0.0411711
0.0411408
0.0411146
0.0410987
0.0410952
0.0411203
0.0412494
0.0414986
0.0417481
0.0419151
0.0420101
0.0420685
0.0421134
0.0421564
0.0422018
0.0422486
0.0422935
0.0411492
0.0414926
0.0414216
0.0413566
0.0413095
0.0412691
0.0412352
0.0412049
0.0411759
0.0411473
0.0411194
0.041096
0.041083
0.0410821
0.0411173
0.0412662
0.0415229
0.0417638
0.0419201
0.0420092
0.0420654
0.0421103
0.0421544
0.0422013
0.042249
0.0422943
0.0423355
0.040922
0.04144
0.0413721
0.0413179
0.0412755
0.0412377
0.0412063
0.0411783
0.0411513
0.0411244
0.0410985
0.0410777
0.0410673
0.0410694
0.0411175
0.041286
0.0415472
0.0417776
0.0419236
0.0420074
0.0420619
0.042107
0.0421525
0.0422008
0.0422494
0.042295
0.0423365
0.040686
0.0413853
0.0413262
0.0412798
0.0412415
0.041207
0.0411783
0.0411525
0.0411273
0.0411021
0.0410782
0.0410599
0.0410513
0.0410572
0.0411206
0.0413084
0.0415709
0.0417897
0.0419254
0.0420045
0.0420578
0.0421036
0.0421506
0.0422002
0.0422496
0.0422956
0.0423376
0.0423771
0.0404392
0.04133
0.0412833
0.0412435
0.0412085
0.0411773
0.0411511
0.0411274
0.0411038
0.0410802
0.0410582
0.0410421
0.0410351
0.0410458
0.0411267
0.0413322
0.0415934
0.0418001
0.0419262
0.0420011
0.0420536
0.0421004
0.0421489
0.0421998
0.0422498
0.0422962
0.0423388
0.0423793
0.0401822
0.0412742
0.0412433
0.0412083
0.041176
0.0411486
0.0411251
0.0411032
0.0410809
0.0410586
0.0410383
0.0410241
0.041019
0.0410361
0.041136
0.0413568
0.0416142
0.0418086
0.041926
0.0419973
0.0420493
0.0420973
0.0421475
0.0421996
0.0422502
0.042297
0.0423402
0.0423817
0.0424236
0.0424665
0.0425099
0.0425528
0.042595
0.0426377
0.0426824
0.0427305
0.0427822
0.0428365
0.0428923
0.0429484
0.0430042
0.0430593
0.0431137
0.0431675
0.0432207
0.0432733
0.0433256
0.0433778
0.0434301
0.043483
0.0435368
0.0435919
0.0436483
0.0437062
0.0437657
0.0438267
0.0438892
0.0439532
0.0440187
0.0440859
0.0399141
0.0412235
0.0412047
0.0411726
0.041144
0.0411207
0.0410999
0.0410795
0.0410584
0.0410371
0.0410181
0.0410059
0.041003
0.0410284
0.0411483
0.0413815
0.0416328
0.0418153
0.0419251
0.0419934
0.0420454
0.0420947
0.0421464
0.0421996
0.0422507
0.0422979
0.0423418
0.0423845
0.0424275
0.0424713
0.042515
0.0425579
0.0426002
0.0426433
0.0426889
0.0427379
0.0427903
0.0428451
0.0429009
0.0429569
0.0430125
0.0430674
0.0431216
0.0431751
0.0432281
0.0432805
0.0433327
0.0433847
0.0434371
0.04349
0.0435438
0.0435988
0.0436552
0.043713
0.0437723
0.0438329
0.043895
0.0439586
0.0440236
0.0440902
0.039635
0.0411796
0.0411667
0.0411395
0.0411143
0.0410939
0.0410753
0.041056
0.0410357
0.0410152
0.0409975
0.0409873
0.0409874
0.0410238
0.0411638
0.041406
0.0416493
0.0418203
0.0419235
0.0419895
0.0420418
0.0420925
0.0421458
0.0421999
0.0422515
0.0422991
0.0423438
0.0423875
0.0424316
0.0424761
0.04252
0.0425629
0.0426054
0.042649
0.0426954
0.0427453
0.0427983
0.0428534
0.0429093
0.0429651
0.0430205
0.0430751
0.0431291
0.0431824
0.0432351
0.0432874
0.0433394
0.0433913
0.0434436
0.0434965
0.0435503
0.0436053
0.0436616
0.0437192
0.0437782
0.0438386
0.0439002
0.0439632
0.0440277
0.0440937
0.0393475
0.0411322
0.0411311
0.0411087
0.041086
0.0410682
0.0410513
0.0410328
0.0410129
0.0409931
0.0409766
0.0409682
0.0409722
0.0410228
0.0411823
0.0414303
0.0416641
0.0418243
0.0419215
0.0419859
0.0420388
0.042091
0.0421457
0.0422005
0.0422525
0.0423006
0.0423462
0.042391
0.042436
0.0424809
0.0425249
0.0425678
0.0426105
0.0426548
0.042702
0.0427527
0.0428063
0.0428615
0.0429174
0.042973
0.0430281
0.0430826
0.0431363
0.0431893
0.0432418
0.0432938
0.0433457
0.0433975
0.0434497
0.0435026
0.0435564
0.0436113
0.0436674
0.0437248
0.0437835
0.0438434
0.0439046
0.043967
0.0440309
0.0440962
0.0390532
0.0410858
0.0410993
0.0410775
0.041058
0.0410427
0.0410272
0.0410093
0.0409897
0.0409705
0.0409557
0.0409488
0.0409576
0.0410246
0.041203
0.0414539
0.0416774
0.0418273
0.0419194
0.0419826
0.0420364
0.0420902
0.0421461
0.0422016
0.0422539
0.0423025
0.0423489
0.0423947
0.0424404
0.0424857
0.0425297
0.0425726
0.0426157
0.0426606
0.0427087
0.0427601
0.0428141
0.0428695
0.0429252
0.0429806
0.0430355
0.0430897
0.0431431
0.0431959
0.0432481
0.0432999
0.0433516
0.0434034
0.0434555
0.0435083
0.043562
0.0436168
0.0436727
0.0437299
0.0437882
0.0438476
0.0439082
0.0439701
0.0440333
0.0440979
0.0387538
0.0410468
0.04107
0.0410491
0.0410313
0.0410172
0.0410028
0.0409854
0.040966
0.0409477
0.0409348
0.0409298
0.0409448
0.0410297
0.0412252
0.0414765
0.0416894
0.0418298
0.0419175
0.04198
0.0420347
0.0420901
0.042147
0.042203
0.0422557
0.0423048
0.042352
0.0423987
0.042445
0.0424904
0.0425344
0.0425774
0.0426209
0.0426665
0.0427154
0.0427675
0.0428218
0.0428771
0.0429327
0.042988
0.0430426
0.0430965
0.0431496
0.0432021
0.043254
0.0433057
0.0433572
0.0434088
0.0434609
0.0435136
0.0435672
0.0436218
0.0436775
0.0437343
0.0437922
0.0438511
0.0439111
0.0439724
0.0440349
0.0440989
0.0384547
0.040994
0.0410413
0.0410218
0.0410058
0.0409925
0.0409784
0.040961
0.0409418
0.0409245
0.0409138
0.0409116
0.0409349
0.0410385
0.0412484
0.0414978
0.0417
0.041832
0.041916
0.041978
0.0420339
0.0420905
0.0421485
0.0422049
0.0422579
0.0423076
0.0423555
0.0424028
0.0424496
0.0424951
0.0425391
0.0425822
0.0426262
0.0426726
0.0427222
0.0427747
0.0428292
0.0428846
0.04294
0.0429951
0.0430494
0.043103
0.0431558
0.0432079
0.0432597
0.0433111
0.0433625
0.043414
0.043466
0.0435186
0.043572
0.0436264
0.0436818
0.0437382
0.0437956
0.043854
0.0439134
0.0439739
0.0440358
0.0440993
0.0381519
0.0409414
0.041018
0.0409944
0.0409802
0.0409679
0.0409538
0.0409363
0.0409174
0.0409015
0.040893
0.0408943
0.0409286
0.0410513
0.0412728
0.041518
0.0417097
0.041834
0.0419151
0.0419769
0.0420339
0.0420917
0.0421504
0.0422072
0.0422605
0.0423107
0.0423593
0.0424072
0.0424542
0.0424997
0.0425437
0.042587
0.0426315
0.0426786
0.0427289
0.0427819
0.0428365
0.0428918
0.0429471
0.0430019
0.0430559
0.0431091
0.0431616
0.0432135
0.043265
0.0433163
0.0433675
0.0434189
0.0434707
0.0435232
0.0435764
0.0436306
0.0436856
0.0437416
0.0437984
0.0438562
0.0439149
0.0439749
0.0440362
0.0440986
0.0378479
0.0408999
0.0409866
0.040966
0.0409552
0.0409436
0.0409293
0.0409115
0.0408932
0.0408791
0.0408726
0.0408782
0.0409266
0.0410679
0.041298
0.0415372
0.0417185
0.0418361
0.0419147
0.0419766
0.0420345
0.0420935
0.0421529
0.04221
0.0422634
0.0423141
0.0423633
0.0424117
0.0424588
0.0425043
0.0425482
0.0425919
0.0426369
0.0426848
0.0427356
0.0427889
0.0428436
0.0428988
0.0429539
0.0430084
0.0430621
0.043115
0.0431672
0.0432188
0.0432701
0.0433212
0.0433722
0.0434235
0.0434751
0.0435274
0.0435805
0.0436343
0.0436889
0.0437444
0.0438006
0.0438578
0.0439159
0.0439753
0.0440357
0.0440973
0.0375444
0.0408527
0.0409548
0.0409408
0.0409315
0.0409199
0.040905
0.0408869
0.0408695
0.0408576
0.0408531
0.0408641
0.0409279
0.0410874
0.0413236
0.0415556
0.0417269
0.0418383
0.0419148
0.0419769
0.042036
0.0420961
0.0421559
0.0422131
0.0422668
0.0423179
0.0423676
0.0424163
0.0424635
0.0425088
0.0425528
0.0425968
0.0426424
0.0426909
0.0427422
0.0427958
0.0428505
0.0429055
0.0429604
0.0430146
0.043068
0.0431206
0.0431725
0.0432239
0.0432749
0.0433258
0.0433767
0.0434278
0.0434793
0.0435314
0.0435841
0.0436376
0.0436918
0.0437467
0.0438023
0.0438588
0.0439164
0.043975
0.0440345
0.0440954
0.0372391
0.040803
0.0409272
0.0409167
0.0409088
0.0408967
0.0408811
0.0408629
0.0408467
0.0408372
0.0408353
0.0408532
0.040933
0.0411089
0.041349
0.041573
0.0417348
0.0418409
0.0419157
0.0419782
0.0420383
0.0420992
0.0421593
0.0422165
0.0422704
0.0423219
0.042372
0.0424209
0.042468
0.0425133
0.0425574
0.0426017
0.0426479
0.042697
0.0427488
0.0428024
0.0428571
0.042912
0.0429667
0.0430206
0.0430737
0.0431259
0.0431775
0.0432287
0.0432795
0.0433302
0.0433809
0.0434318
0.0434831
0.043535
0.0435874
0.0436405
0.0436941
0.0437485
0.0438035
0.0438594
0.0439163
0.043974
0.0440328
0.0440928
0.0369334
0.0407533
0.040901
0.0408931
0.0408865
0.0408739
0.0408575
0.0408394
0.0408248
0.0408177
0.0408191
0.0408462
0.0409426
0.0411327
0.041374
0.0415895
0.0417425
0.0418438
0.0419174
0.0419803
0.0420414
0.0421028
0.042163
0.0422202
0.0422742
0.0423261
0.0423765
0.0424255
0.0424726
0.0425177
0.0425619
0.0426067
0.0426535
0.0427031
0.0427552
0.0428089
0.0428635
0.0429183
0.0429727
0.0430263
0.043079
0.0431309
0.0431823
0.0432332
0.0432839
0.0433344
0.0433849
0.0434356
0.0434867
0.0435383
0.0435903
0.0436429
0.043696
0.0437498
0.0438042
0.0438595
0.0439155
0.0439724
0.0440305
0.0440896
0.0366275
0.0407038
0.040876
0.0408704
0.0408644
0.0408511
0.0408342
0.040817
0.0408047
0.0407995
0.0408046
0.0408436
0.0409565
0.0411583
0.0413985
0.0416051
0.0417499
0.0418472
0.0419197
0.0419831
0.042045
0.0421068
0.042167
0.0422242
0.0422783
0.0423304
0.0423811
0.0424301
0.042477
0.0425221
0.0425665
0.0426117
0.0426591
0.0427091
0.0427614
0.0428153
0.0428698
0.0429243
0.0429784
0.0430317
0.0430841
0.0431357
0.0431869
0.0432376
0.0432881
0.0433384
0.0433887
0.0434392
0.04349
0.0435412
0.0435929
0.0436449
0.0436975
0.0437506
0.0438045
0.043859
0.0439143
0.0439705
0.0440276
0.0440858
0.0363217
0.0406544
0.0408518
0.0408487
0.0408427
0.0408284
0.0408117
0.0407959
0.0407862
0.0407831
0.0407929
0.0408443
0.0409735
0.0411852
0.0414227
0.04162
0.0417572
0.041851
0.0419227
0.0419865
0.042049
0.0421111
0.0421713
0.0422283
0.0422826
0.0423349
0.0423857
0.0424347
0.0424814
0.0425265
0.042571
0.0426167
0.0426646
0.0427151
0.0427676
0.0428214
0.0428758
0.0429301
0.0429839
0.0430369
0.043089
0.0431403
0.0431912
0.0432418
0.043292
0.0433421
0.0433922
0.0434425
0.043493
0.0435439
0.043595
0.0436466
0.0436986
0.0437511
0.0438043
0.043858
0.0439125
0.0439679
0.0440243
0.0440815
0.0360161
0.0406052
0.0408285
0.0408276
0.0408211
0.040806
0.0407902
0.0407764
0.0407691
0.0407686
0.0407844
0.0408484
0.0409931
0.0412126
0.041446
0.0416342
0.0417646
0.0418552
0.0419263
0.0419906
0.0420535
0.0421157
0.0421757
0.0422326
0.042287
0.0423395
0.0423904
0.0424392
0.0424858
0.0425308
0.0425756
0.0426217
0.0426701
0.0427209
0.0427736
0.0428273
0.0428816
0.0429357
0.0429892
0.0430418
0.0430936
0.0431447
0.0431954
0.0432457
0.0432958
0.0433457
0.0433956
0.0434456
0.0434958
0.0435462
0.0435969
0.0436479
0.0436992
0.0437512
0.0438036
0.0438566
0.0439104
0.043965
0.0440204
0.0440767
0.0357119
0.0405568
0.0408059
0.0408067
0.0407998
0.0407844
0.0407702
0.0407588
0.0407535
0.0407558
0.0407794
0.0408565
0.0410152
0.0412403
0.0414685
0.0416478
0.0417719
0.0418598
0.0419305
0.0419951
0.0420583
0.0421205
0.0421803
0.0422371
0.0422915
0.0423442
0.042395
0.0424436
0.04249
0.0425351
0.0425802
0.0426268
0.0426756
0.0427266
0.0427794
0.0428331
0.0428872
0.042941
0.0429942
0.0430465
0.043098
0.0431489
0.0431994
0.0432496
0.0432994
0.0433491
0.0433987
0.0434484
0.0434983
0.0435482
0.0435984
0.0436488
0.0436996
0.0437508
0.0438026
0.0438549
0.0439079
0.0439616
0.0440161
0.0440715
0.0354096
0.0405093
0.0407842
0.040786
0.0407791
0.0407641
0.0407517
0.0407428
0.0407392
0.0407447
0.0407777
0.0408683
0.0410394
0.0412679
0.04149
0.0416607
0.0417792
0.0418649
0.0419351
0.0419999
0.0420633
0.0421254
0.0421849
0.0422416
0.0422961
0.0423488
0.0423996
0.042448
0.0424942
0.0425393
0.0425847
0.0426318
0.042681
0.0427323
0.042785
0.0428387
0.0428926
0.0429461
0.0429989
0.0430509
0.0431022
0.043153
0.0432033
0.0432532
0.0433028
0.0433523
0.0434017
0.0434511
0.0435005
0.0435499
0.0435996
0.0436494
0.0436996
0.0437502
0.0438012
0.0438528
0.043905
0.0439578
0.0440114
0.0440657
0.0351098
0.0404625
0.0407637
0.0407655
0.0407592
0.0407453
0.0407348
0.0407282
0.0407266
0.0407361
0.0407784
0.0408826
0.0410651
0.0412954
0.0415105
0.0416731
0.0417865
0.0418702
0.04194
0.042005
0.0420685
0.0421303
0.0421896
0.0422462
0.0423008
0.0423535
0.0424041
0.0424522
0.0424983
0.0425435
0.0425893
0.0426367
0.0426863
0.0427377
0.0427905
0.0428441
0.0428977
0.042951
0.0430035
0.0430552
0.0431063
0.0431568
0.043207
0.0432567
0.0433061
0.0433553
0.0434044
0.0434534
0.0435024
0.0435514
0.0436004
0.0436497
0.0436992
0.0437491
0.0437995
0.0438503
0.0439017
0.0439537
0.0440063
0.0440596
0.0441136
0.0441682
0.0442235
0.0442793
0.0443357
0.0443925
0.0444497
0.0445072
0.0445649
0.0446225
0.0446801
0.0447373
0.044794
0.0448499
0.0449049
0.0449587
0.0450111
0.0450617
0.0451103
0.0451567
0.0452005
0.0452415
0.0452795
0.0453141
0.0453453
0.0453727
0.0453962
0.0454158
0.0454312
0.0454425
0.0454495
0.0454526
0.0454519
0.0454465
0.0454373
0.0454245
0.0454082
0.0453887
0.045366
0.0348126
0.040416
0.0407445
0.040746
0.0407404
0.0407281
0.0407195
0.0407146
0.0407153
0.0407299
0.0407819
0.0408991
0.0410917
0.0413221
0.0415299
0.0416849
0.0417938
0.0418757
0.0419452
0.0420103
0.0420737
0.0421353
0.0421944
0.0422509
0.0423054
0.0423581
0.0424085
0.0424564
0.0425024
0.0425477
0.0425938
0.0426416
0.0426915
0.0427431
0.0427958
0.0428493
0.0429027
0.0429556
0.0430078
0.0430593
0.0431102
0.0431606
0.0432105
0.04326
0.0433092
0.0433582
0.043407
0.0434556
0.0435041
0.0435525
0.043601
0.0436497
0.0436986
0.0437479
0.0437975
0.0438476
0.0438981
0.0439492
0.0440008
0.044053
0.0441058
0.0441592
0.0442131
0.0442675
0.0443224
0.0443776
0.044433
0.0444886
0.0445443
0.0445998
0.0446551
0.04471
0.0447642
0.0448175
0.0448697
0.0449207
0.04497
0.0450175
0.045063
0.045106
0.0451464
0.0451839
0.0452184
0.0452495
0.0452771
0.0453009
0.0453209
0.045337
0.045349
0.045357
0.0453611
0.0453615
0.0453573
0.0453493
0.0453378
0.0453227
0.0453044
0.0452831
0.0452588
0.0452323
0.0452028
0.0451721
0.0451385
0.0451047
0.0450688
0.0450327
0.0449956
0.0449576
0.0449198
0.0345186
0.0403699
0.0407268
0.0407278
0.0407231
0.0407124
0.0407057
0.0407021
0.0407052
0.0407259
0.0407881
0.0409178
0.0411188
0.041348
0.0415483
0.0416961
0.041801
0.0418813
0.0419505
0.0420156
0.042079
0.0421404
0.0421991
0.0422556
0.0423101
0.0423626
0.0424128
0.0424604
0.0425064
0.0425519
0.0425983
0.0426465
0.0426966
0.0427483
0.042801
0.0428543
0.0429075
0.0429601
0.043012
0.0430633
0.0431139
0.0431641
0.0432139
0.0432632
0.0433122
0.0433609
0.0434093
0.0434575
0.0435055
0.0435534
0.0436013
0.0436494
0.0436977
0.0437463
0.0437952
0.0438445
0.0438942
0.0439444
0.043995
0.0440461
0.0440977
0.0441498
0.0442024
0.0442553
0.0443086
0.0443621
0.0444157
0.0444694
0.0445231
0.0445765
0.0446295
0.0446819
0.0447336
0.0447843
0.0448338
0.0448818
0.0449281
0.0449725
0.0450147
0.0450545
0.0450915
0.0451256
0.0451565
0.0451842
0.0452082
0.0452286
0.0452452
0.0452579
0.0452666
0.0452715
0.0452729
0.04527
0.0452631
0.0452527
0.0452389
0.0452217
0.0452015
0.0451786
0.0451528
0.045125
0.0450944
0.0450629
0.0450288
0.0449945
0.0449584
0.0449221
0.0448851
0.0448472
0.0448096
0.0447715
0.0447337
0.0446964
0.0446592
0.0446224
0.0445857
0.0445493
0.044513
0.0444772
0.0444415
0.0444043
0.0443569
0.0342276
0.0403243
0.0407104
0.0407111
0.0407074
0.0406982
0.0406932
0.0406909
0.0406967
0.0407241
0.0407965
0.0409382
0.041146
0.0413728
0.0415655
0.0417067
0.041808
0.0418869
0.0419559
0.042021
0.0420843
0.0421453
0.0422039
0.0422602
0.0423146
0.042367
0.0424169
0.0424644
0.0425103
0.042556
0.0426027
0.0426512
0.0427015
0.0427533
0.042806
0.0428591
0.042912
0.0429644
0.043016
0.043067
0.0431175
0.0431676
0.0432171
0.0432663
0.043315
0.0433634
0.0434115
0.0434592
0.0435067
0.043554
0.0436014
0.0436489
0.0436966
0.0437445
0.0437927
0.0438412
0.04389
0.0439392
0.0439888
0.0440388
0.0440892
0.0441401
0.0441912
0.0442426
0.0442943
0.0443461
0.0443979
0.0444497
0.0445013
0.0445525
0.0446033
0.0446533
0.0447025
0.0447505
0.0447972
0.0448423
0.0448857
0.044927
0.044966
0.0450025
0.0450362
0.0450669
0.0450944
0.0451186
0.0451393
0.0451563
0.0451695
0.0451789
0.0451845
0.0451866
0.045185
0.0451791
0.0451697
0.045157
0.0451409
0.0451218
0.0450998
0.0450753
0.0450481
0.0450192
0.0449876
0.0449553
0.0449206
0.0448859
0.0448496
0.0448131
0.0447761
0.0447382
0.0447008
0.0446631
0.0446257
0.0445888
0.0445521
0.0445158
0.0444797
0.0444438
0.0444082
0.0443731
0.0443381
0.0443017
0.0442554
0.0339405
0.0402792
0.0406953
0.0406959
0.0406931
0.0406853
0.0406818
0.0406811
0.0406899
0.0407241
0.0408069
0.0409598
0.041173
0.0413963
0.0415815
0.0417166
0.0418148
0.0418925
0.0419612
0.0420264
0.0420894
0.0421502
0.0422086
0.0422648
0.0423192
0.0423714
0.042421
0.0424683
0.0425142
0.04256
0.0426071
0.0426559
0.0427064
0.0427582
0.0428109
0.0428638
0.0429164
0.0429684
0.0430198
0.0430707
0.043121
0.0431709
0.0432202
0.0432692
0.0433177
0.0433657
0.0434134
0.0434607
0.0435076
0.0435544
0.0436013
0.0436482
0.0436952
0.0437425
0.0437899
0.0438376
0.0438856
0.0439338
0.0439824
0.0440312
0.0440804
0.0441299
0.0441796
0.0442295
0.0442796
0.0443296
0.0443796
0.0444295
0.044479
0.044528
0.0445764
0.044624
0.0446706
0.044716
0.0447599
0.0448022
0.0448425
0.0448807
0.0449166
0.0449498
0.0449802
0.0450076
0.0450317
0.0450526
0.0450699
0.0450836
0.0450936
0.0450998
0.0451026
0.0451019
0.045097
0.0450886
0.0450769
0.0450618
0.0450438
0.0450228
0.0449991
0.0449731
0.0449446
0.0449146
0.0448821
0.0448491
0.0448139
0.0447788
0.0447423
0.0447056
0.0446686
0.0446308
0.0445936
0.0445562
0.0445191
0.0444826
0.0444464
0.0444106
0.044375
0.0443397
0.0443047
0.0442702
0.0442359
0.0442002
0.044155
0.0336565
0.0402346
0.0406812
0.0406818
0.0406801
0.0406737
0.0406713
0.0406724
0.0406847
0.0407255
0.0408189
0.0409824
0.0411994
0.0414183
0.0415963
0.0417259
0.0418212
0.0418981
0.0419666
0.0420317
0.0420945
0.042155
0.0422132
0.0422694
0.0423236
0.0423756
0.0424249
0.042472
0.042518
0.0425641
0.0426114
0.0426605
0.0427111
0.042763
0.0428155
0.0428682
0.0429206
0.0429724
0.0430235
0.0430742
0.0431243
0.043174
0.0432232
0.043272
0.0433202
0.0433679
0.0434151
0.0434619
0.0435084
0.0435546
0.0436009
0.0436473
0.0436937
0.0437402
0.043787
0.0438338
0.0438809
0.0439281
0.0439756
0.0440233
0.0440713
0.0441194
0.0441677
0.0442161
0.0442645
0.0443128
0.0443609
0.0444088
0.0444562
0.0445031
0.0445492
0.0445943
0.0446384
0.044681
0.0447222
0.0447616
0.0447989
0.0448341
0.0448668
0.0448968
0.044924
0.0449481
0.044969
0.0449865
0.0450006
0.045011
0.0450178
0.0450213
0.0450214
0.0450174
0.0450098
0.044999
0.0449849
0.0449677
0.0449477
0.0449249
0.0448996
0.0448723
0.0448425
0.0448115
0.0447781
0.0447444
0.0447088
0.0446732
0.0446366
0.0445996
0.0445627
0.0445249
0.0444877
0.0444506
0.0444138
0.0443776
0.0443417
0.0443063
0.0442712
0.0442364
0.0442019
0.0441679
0.0441341
0.0440989
0.0440544
0.0333761
0.0401905
0.0406682
0.0406687
0.0406682
0.0406631
0.0406619
0.0406647
0.0406809
0.0407286
0.0408323
0.0410054
0.041225
0.041439
0.0416099
0.0417345
0.0418274
0.0419034
0.0419718
0.0420368
0.0420995
0.0421598
0.0422178
0.0422738
0.0423279
0.0423796
0.0424287
0.0424757
0.0425217
0.042568
0.0426156
0.0426649
0.0427157
0.0427676
0.04282
0.0428725
0.0429246
0.0429761
0.0430271
0.0430776
0.0431276
0.0431771
0.0432261
0.0432746
0.0433225
0.0433699
0.0434166
0.0434629
0.0435089
0.0435547
0.0436004
0.0436461
0.0436919
0.0437378
0.0437838
0.0438298
0.0438759
0.0439222
0.0439686
0.0440151
0.0440618
0.0441086
0.0441554
0.0442022
0.044249
0.0442955
0.0443418
0.0443876
0.0444329
0.0444776
0.0445213
0.044564
0.0446055
0.0446455
0.0446839
0.0447204
0.0447548
0.0447869
0.0448164
0.0448433
0.0448672
0.0448881
0.0449058
0.0449201
0.044931
0.0449383
0.0449423
0.044943
0.0449399
0.044933
0.0449231
0.0449099
0.0448936
0.0448744
0.0448525
0.0448281
0.0448013
0.0447726
0.0447417
0.0447097
0.0446755
0.0446412
0.0446051
0.0445691
0.0445324
0.0444952
0.0444581
0.0444205
0.0443834
0.0443465
0.0443099
0.0442741
0.0442385
0.0442035
0.0441687
0.0441343
0.0441002
0.0440666
0.0440332
0.0439984
0.0439543
0.0331002
0.0401471
0.0406562
0.0406564
0.0406573
0.0406534
0.0406535
0.0406581
0.0406782
0.0407331
0.040847
0.0410286
0.0412495
0.041458
0.0416223
0.0417424
0.0418332
0.0419086
0.0419769
0.0420418
0.0421043
0.0421644
0.0422222
0.0422782
0.0423321
0.0423835
0.0424324
0.0424793
0.0425253
0.0425719
0.0426198
0.0426693
0.0427202
0.042772
0.0428244
0.0428766
0.0429285
0.0429798
0.0430305
0.0430808
0.0431307
0.04318
0.0432289
0.0432771
0.0433247
0.0433717
0.043418
0.0434638
0.0435092
0.0435545
0.0435997
0.0436449
0.0436901
0.0437352
0.0437804
0.0438256
0.0438708
0.043916
0.0439613
0.0440066
0.0440521
0.0440975
0.0441428
0.0441881
0.0442331
0.0442779
0.0443223
0.0443661
0.0444093
0.0444517
0.0444932
0.0445334
0.0445723
0.0446097
0.0446452
0.0446789
0.0447104
0.0447394
0.0447659
0.0447897
0.0448105
0.0448282
0.0448427
0.0448539
0.0448616
0.0448661
0.0448673
0.0448649
0.0448589
0.0448496
0.0448372
0.0448217
0.0448033
0.0447821
0.0447584
0.0447324
0.0447042
0.0446743
0.0446422
0.0446094
0.0445744
0.0445394
0.044503
0.0444666
0.0444296
0.0443922
0.0443551
0.0443175
0.0442804
0.0442437
0.0442073
0.0441716
0.0441363
0.0441016
0.0440671
0.044033
0.0439993
0.043966
0.0439329
0.0438987
0.0438553
0.0328262
0.0401038
0.0406454
0.0406451
0.0406473
0.0406445
0.0406457
0.0406523
0.0406764
0.0407386
0.0408626
0.0410517
0.0412727
0.0414756
0.0416336
0.0417497
0.0418387
0.0419135
0.0419818
0.0420466
0.0421089
0.0421688
0.0422266
0.0422824
0.0423361
0.0423873
0.042436
0.0424828
0.0425289
0.0425757
0.0426238
0.0426735
0.0427245
0.0427764
0.0428286
0.0428806
0.0429322
0.0429833
0.0430338
0.043084
0.0431337
0.0431829
0.0432315
0.0432795
0.0433267
0.0433733
0.0434191
0.0434645
0.0435094
0.0435542
0.0435989
0.0436435
0.043688
0.0437325
0.0437769
0.0438212
0.0438654
0.0439096
0.0439538
0.0439979
0.0440421
0.0440861
0.04413
0.0441736
0.044217
0.0442599
0.0443024
0.0443442
0.0443853
0.0444255
0.0444645
0.0445023
0.0445387
0.0445733
0.0446061
0.0446369
0.0446655
0.0446916
0.044715
0.0447357
0.0447534
0.044768
0.0447794
0.0447875
0.0447923
0.044794
0.0447923
0.0447869
0.0447783
0.0447666
0.0447518
0.0447342
0.0447138
0.0446908
0.0446654
0.0446379
0.0446083
0.0445773
0.0445441
0.0445104
0.0444747
0.0444391
0.0444023
0.0443655
0.0443283
0.0442907
0.0442535
0.0442159
0.0441789
0.0441423
0.0441061
0.0440706
0.0440356
0.0440011
0.0439669
0.0439331
0.0438996
0.0438668
0.043834
0.0438
0.0437571
0.0325587
0.0400612
0.0406355
0.0406345
0.0406381
0.0406365
0.0406387
0.0406471
0.0406752
0.0407451
0.0408788
0.0410743
0.0412944
0.0414915
0.0416437
0.0417562
0.0418437
0.0419182
0.0419864
0.0420512
0.0421134
0.0421731
0.0422308
0.0422865
0.04234
0.042391
0.0424395
0.0424862
0.0425325
0.0425794
0.0426278
0.0426776
0.0427287
0.0427805
0.0428326
0.0428844
0.0429358
0.0429866
0.043037
0.043087
0.0431366
0.0431856
0.043234
0.0432817
0.0433286
0.0433747
0.0434201
0.043465
0.0435095
0.0435538
0.0435979
0.043642
0.0436859
0.0437296
0.0437732
0.0438166
0.0438599
0.043903
0.0439461
0.043989
0.0440318
0.0440745
0.0441168
0.0441589
0.0442005
0.0442417
0.0442823
0.0443221
0.044361
0.0443989
0.0444356
0.044471
0.0445048
0.0445368
0.0445669
0.0445948
0.0446205
0.0446436
0.0446641
0.0446817
0.0446963
0.0447079
0.0447163
0.0447214
0.0447235
0.0447224
0.0447177
0.0447097
0.0446986
0.0446845
0.0446675
0.0446477
0.0446253
0.0446006
0.0445736
0.0445447
0.0445137
0.0444816
0.0444474
0.0444129
0.0443765
0.0443404
0.0443031
0.044266
0.0442286
0.0441907
0.0441534
0.0441158
0.0440787
0.0440423
0.0440061
0.0439708
0.0439359
0.0439016
0.0438676
0.0438341
0.0438009
0.0437682
0.0437357
0.043702
0.0436593
0.0322939
0.0400191
0.0406266
0.040625
0.0406297
0.040629
0.040632
0.0406421
0.0406744
0.0407522
0.0408953
0.0410963
0.0413146
0.0415059
0.0416527
0.0417622
0.0418485
0.0419226
0.0419909
0.0420556
0.0421177
0.0421773
0.0422348
0.0422904
0.0423437
0.0423945
0.0424428
0.0424895
0.0425359
0.0425831
0.0426317
0.0426817
0.0427328
0.0427846
0.0428365
0.0428881
0.0429393
0.0429899
0.0430401
0.04309
0.0431394
0.0431882
0.0432364
0.0432838
0.0433303
0.043376
0.043421
0.0434654
0.0435094
0.0435533
0.0435969
0.0436403
0.0436836
0.0437266
0.0437694
0.0438119
0.0438542
0.0438963
0.0439382
0.0439799
0.0440214
0.0440626
0.0441035
0.0441439
0.0441839
0.0442232
0.0442618
0.0442996
0.0443364
0.044372
0.0444064
0.0444393
0.0444705
0.0444999
0.0445272
0.0445523
0.0445751
0.0445953
0.0446128
0.0446275
0.0446391
0.0446477
0.0446531
0.0446555
0.044655
0.0446507
0.0446433
0.0446328
0.0446193
0.0446029
0.0445837
0.044562
0.0445378
0.0445114
0.0444829
0.0444526
0.0444204
0.0443872
0.0443521
0.0443168
0.0442798
0.0442431
0.0442055
0.0441679
0.0441303
0.0440922
0.0440548
0.0440172
0.0439801
0.0439437
0.0439077
0.0438725
0.0438378
0.0438037
0.0437699
0.0437365
0.0437036
0.0436711
0.0436389
0.0436056
0.0435635
0.032032
0.0399773
0.040619
0.0406164
0.0406219
0.0406219
0.0406254
0.0406371
0.040674
0.0407599
0.040912
0.0411172
0.0413332
0.0415188
0.0416607
0.0417675
0.0418528
0.0419268
0.0419951
0.0420598
0.0421218
0.0421813
0.0422387
0.0422942
0.0423473
0.0423979
0.042446
0.0424927
0.0425393
0.0425867
0.0426354
0.0426856
0.0427367
0.0427885
0.0428403
0.0428917
0.0429426
0.0429931
0.0430431
0.0430928
0.0431421
0.0431907
0.0432386
0.0432857
0.0433318
0.0433771
0.0434216
0.0434656
0.0435093
0.0435526
0.0435957
0.0436386
0.0436812
0.0437234
0.0437654
0.043807
0.0438483
0.0438894
0.0439301
0.0439706
0.0440108
0.0440505
0.0440899
0.0441287
0.044167
0.0442045
0.0442412
0.0442769
0.0443116
0.044345
0.044377
0.0444074
0.0444361
0.0444628
0.0444875
0.0445098
0.0445298
0.0445471
0.0445617
0.0445734
0.0445822
0.0445878
0.0445905
0.0445904
0.0445866
0.0445796
0.0445697
0.0445568
0.0445409
0.0445223
0.0445011
0.0444774
0.0444515
0.0444234
0.0443934
0.0443619
0.0443285
0.0442943
0.0442582
0.0442222
0.0441846
0.0441474
0.0441094
0.0440715
0.0440336
0.0439953
0.0439577
0.0439201
0.0438829
0.0438466
0.0438106
0.0437755
0.0437409
0.0437069
0.0436732
0.04364
0.0436073
0.0435751
0.0435431
0.0435099
0.043468
0.0317805
0.0399367
0.0406122
0.0406087
0.0406147
0.0406149
0.0406186
0.040632
0.0406737
0.0407679
0.0409285
0.0411372
0.0413502
0.0415302
0.0416678
0.0417722
0.0418568
0.0419307
0.041999
0.0420638
0.0421256
0.0421851
0.0422425
0.0422978
0.0423508
0.0424011
0.0424491
0.0424959
0.0425426
0.0425902
0.0426391
0.0426893
0.0427406
0.0427923
0.0428439
0.0428951
0.0429459
0.0429961
0.043046
0.0430956
0.0431447
0.0431931
0.0432408
0.0432875
0.0433332
0.0433781
0.0434222
0.0434658
0.043509
0.0435519
0.0435945
0.0436367
0.0436786
0.0437202
0.0437613
0.043802
0.0438423
0.0438823
0.0439219
0.0439611
0.0439999
0.0440383
0.0440761
0.0441134
0.0441498
0.0441855
0.0442203
0.044254
0.0442865
0.0443177
0.0443473
0.0443753
0.0444014
0.0444255
0.0444475
0.0444671
0.0444842
0.0444987
0.0445104
0.0445193
0.044525
0.044528
0.0445282
0.0445249
0.0445184
0.0445089
0.0444965
0.0444812
0.0444632
0.0444425
0.0444193
0.0443937
0.0443661
0.0443366
0.0443052
0.0442724
0.0442379
0.0442028
0.0441658
0.0441291
0.0440909
0.0440532
0.0440148
0.0439765
0.0439384
0.0438999
0.0438621
0.0438245
0.0437873
0.043751
0.0437152
0.0436801
0.0436457
0.0436117
0.0435782
0.0435452
0.0435126
0.0434806
0.0434486
0.0434156
0.0433738
0.0315268
0.0398972
0.0406063
0.0406018
0.0406079
0.0406079
0.0406117
0.0406268
0.0406737
0.0407763
0.0409447
0.0411558
0.0413655
0.0415403
0.0416739
0.0417765
0.0418604
0.0419343
0.0420027
0.0420675
0.0421293
0.0421887
0.042246
0.0423012
0.042354
0.0424042
0.0424522
0.0424989
0.0425458
0.0425936
0.0426427
0.042693
0.0427443
0.0427959
0.0428474
0.0428985
0.042949
0.0429991
0.0430489
0.0430983
0.0431472
0.0431954
0.0432427
0.0432891
0.0433345
0.0433789
0.0434227
0.0434659
0.0435087
0.0435511
0.0435932
0.0436348
0.043676
0.0437168
0.0437571
0.0437968
0.0438362
0.0438751
0.0439135
0.0439515
0.043989
0.0440259
0.0440622
0.0440978
0.0441326
0.0441664
0.0441993
0.0442309