/*--------------------------------*- C++ -*----------------------------------*\
| =========                 |                                                 |
| \\      /  F ield         | OpenFOAM: The Open Source CFD Toolbox           |
|  \\    /   O peration     | Version:  2412                                  |
|   \\  /    A nd           | Website:  www.openfoam.com                      |
|    \\/     M anipulation  |                                                 |
\*---------------------------------------------------------------------------*/
FoamFile
{
    version     2.0;
    format      ascii;
    arch        "LSB;label=32;scalar=64";
    class       volVectorField;
    location    "0.019";
    object      U;
}
// * * * * * * * * * * * * * * * * * * * * * * * * * * * * * * * * * * * * * //

dimensions      [0 1 -1 0 0 0 0];

internalField   nonuniform List<vector> 
9922
(
(176.121 40.7927 0)
(184.613 1.03716 0)
(194.37 -3.8796 0)
(196.858 -5.21918 0)
(197.882 -5.65597 0)
(199.569 -5.28439 0)
(201.903 -4.43346 0)
(204.446 -3.25099 0)
(206.778 -2.00703 0)
(208.496 -0.910382 0)
(209.331 -0.0484132 0)
(209.544 0.379623 0)
(209.627 0.893641 0)
(209.73 1.05675 0)
(210.059 0.864174 0)
(211.132 -0.360327 0)
(212.815 -2.36663 0)
(214.761 -4.35802 0)
(216.657 -6.00441 0)
(218.201 -7.2031 0)
(219.173 -7.91171 0)
(219.642 -8.19871 0)
(219.819 -8.29367 0)
(219.85 -8.22481 0)
(219.838 -8.1111 0)
(219.999 -8.088 0)
(220.39 -8.15135 0)
(221.04 -8.32969 0)
(221.855 -8.55996 0)
(222.744 -8.77963 0)
(223.679 -9.08498 0)
(224.682 -9.4911 0)
(225.739 -9.94664 0)
(226.854 -10.3709 0)
(228.024 -10.767 0)
(229.264 -11.1645 0)
(230.579 -11.5975 0)
(231.975 -12.0734 0)
(233.461 -12.5958 0)
(235.043 -13.1599 0)
(236.72 -13.7568 0)
(238.495 -14.3893 0)
(240.373 -15.0672 0)
(242.354 -15.7947 0)
(244.439 -16.5639 0)
(246.624 -17.3785 0)
(248.905 -18.2456 0)
(251.279 -19.1738 0)
(253.754 -20.1558 0)
(256.335 -21.1894 0)
(259.019 -22.2699 0)
(261.801 -23.3895 0)
(264.676 -24.5414 0)
(267.639 -25.7226 0)
(270.673 -26.9324 0)
(273.742 -28.1623 0)
(276.77 -29.397 0)
(279.708 -30.615 0)
(282.563 -31.8009 0)
(285.3 -32.9813 0)
(287.774 -34.1193 0)
(289.958 -35.2046 0)
(291.886 -36.2587 0)
(293.688 -37.3167 0)
(295.294 -38.2994 0)
(297.035 -39.0598 0)
(299.275 -39.463 0)
(302.158 -39.5298 0)
(305.38 -39.3865 0)
(308.249 -39.2507 0)
(310.211 -39.3273 0)
(311.312 -39.5721 0)
(311.881 -39.9809 0)
(311.978 -40.4106 0)
(311.956 -40.9155 0)
(311.707 -41.4223 0)
(311.475 -41.8763 0)
(311.141 -42.2486 0)
(310.81 -42.5867 0)
(310.453 -42.8829 0)
(310.113 -43.1741 0)
(309.699 -43.3759 0)
(309.284 -43.534 0)
(308.8 -43.6952 0)
(308.327 -43.7851 0)
(307.922 -43.9336 0)
(307.447 -44.0408 0)
(306.955 -44.0954 0)
(306.473 -44.0646 0)
(306.13 -43.9852 0)
(305.836 -44.0288 0)
(305.686 -44.0212 0)
(305.681 -44.1511 0)
(305.844 -44.279 0)
(306.228 -44.4195 0)
(306.845 -44.4394 0)
(307.664 -44.5091 0)
(308.747 -44.5458 0)
(309.95 -44.6175 0)
(311.195 -44.63 0)
(312.44 -44.6449 0)
(313.791 -44.5568 0)
(315.167 -44.4597 0)
(316.544 -44.3432 0)
(317.869 -44.2632 0)
(319.167 -44.1546 0)
(320.465 -44.0402 0)
(321.758 -43.901 0)
(322.892 -43.813 0)
(323.974 -43.671 0)
(324.86 -43.538 0)
(325.602 -43.3651 0)
(326.192 -43.2086 0)
(326.696 -43.0962 0)
(327.221 -42.9933 0)
(327.83 -42.9166 0)
(328.56 -42.8457 0)
(329.397 -42.7587 0)
(330.382 -42.6355 0)
(331.47 -42.5507 0)
(332.02 -41.9362 0)
(176.192 40.5062 0)
(184.738 0.955537 0)
(194.417 -3.90305 0)
(196.881 -5.20951 0)
(197.932 -5.61965 0)
(199.64 -5.23402 0)
(201.986 -4.3721 0)
(204.532 -3.18881 0)
(206.852 -1.95501 0)
(208.544 -0.878228 0)
(209.357 -0.0410914 0)
(209.554 0.377835 0)
(209.623 0.896126 0)
(209.718 1.06308 0)
(210.03 0.893069 0)
(211.075 -0.288159 0)
(212.736 -2.26844 0)
(214.674 -4.25284 0)
(216.573 -5.9087 0)
(218.16 -7.13448 0)
(219.19 -7.87875 0)
(219.705 -8.19496 0)
(219.902 -8.29722 0)
(219.942 -8.2407 0)
(219.922 -8.1203 0)
(220.068 -8.08429 0)
(220.433 -8.12806 0)
(221.057 -8.28502 0)
(221.869 -8.50531 0)
(222.765 -8.72108 0)
(223.709 -9.02109 0)
(224.717 -9.41924 0)
(225.778 -9.86746 0)
(226.899 -10.2854 0)
(228.076 -10.6745 0)
(229.325 -11.0627 0)
(230.648 -11.4845 0)
(232.054 -11.9481 0)
(233.55 -12.4565 0)
(235.142 -13.0064 0)
(236.831 -13.5874 0)
(238.619 -14.2026 0)
(240.513 -14.8609 0)
(242.512 -15.5675 0)
(244.618 -16.3144 0)
(246.828 -17.1071 0)
(249.137 -17.9509 0)
(251.545 -18.8535 0)
(254.062 -19.8089 0)
(256.692 -20.8144 0)
(259.436 -21.8667 0)
(262.286 -22.9575 0)
(265.239 -24.0799 0)
(268.285 -25.2307 0)
(271.399 -26.4123 0)
(274.529 -27.623 0)
(277.591 -28.8468 0)
(280.558 -30.0648 0)
(283.457 -31.2664 0)
(286.202 -32.4534 0)
(288.753 -33.634 0)
(290.994 -34.7848 0)
(292.854 -35.8595 0)
(294.584 -36.9231 0)
(296.4 -37.8512 0)
(298.632 -38.5149 0)
(301.549 -38.8059 0)
(304.86 -38.8044 0)
(307.998 -38.6912 0)
(310.326 -38.7429 0)
(311.739 -39.0436 0)
(312.459 -39.4576 0)
(312.797 -39.9841 0)
(312.734 -40.4865 0)
(312.613 -41.0891 0)
(312.33 -41.5887 0)
(312.039 -42.0725 0)
(311.709 -42.4518 0)
(311.348 -42.8434 0)
(310.975 -43.1502 0)
(310.598 -43.4409 0)
(310.224 -43.6613 0)
(309.915 -43.8652 0)
(309.677 -44.0451 0)
(309.561 -44.2041 0)
(309.859 -44.4577 0)
(310.583 -44.7441 0)
(311.837 -45.0129 0)
(313.606 -45.3789 0)
(315.841 -45.857 0)
(318.598 -46.2906 0)
(321.748 -46.4666 0)
(325.031 -46.5502 0)
(328.432 -46.4052 0)
(331.736 -46.2988 0)
(334.956 -46.1359 0)
(337.904 -46.0361 0)
(340.628 -45.8707 0)
(343.063 -45.7552 0)
(345.241 -45.6534 0)
(347.096 -45.6405 0)
(348.716 -45.5968 0)
(350.103 -45.6071 0)
(351.337 -45.5724 0)
(352.407 -45.5688 0)
(353.355 -45.5344 0)
(354.165 -45.5235 0)
(354.873 -45.4825 0)
(355.462 -45.4519 0)
(355.95 -45.4039 0)
(356.316 -45.3596 0)
(356.555 -45.3125 0)
(356.682 -45.2367 0)
(356.74 -45.1798 0)
(356.82 -45.1165 0)
(357.002 -45.0785 0)
(357.354 -45.0337 0)
(357.838 -45.0441 0)
(358.394 -45.0319 0)
(358.946 -45.0346 0)
(359.222 -44.8177 0)
(176.26 40.2104 0)
(184.853 0.873117 0)
(194.465 -3.92637 0)
(196.905 -5.19886 0)
(197.98 -5.5798 0)
(199.709 -5.1808 0)
(202.07 -4.30818 0)
(204.618 -3.12458 0)
(206.925 -1.90182 0)
(208.592 -0.845863 0)
(209.382 -0.0344691 0)
(209.563 0.376581 0)
(209.619 0.897649 0)
(209.706 1.06921 0)
(210.002 0.920922 0)
(211.015 -0.216494 0)
(212.649 -2.16954 0)
(214.574 -4.14589 0)
(216.496 -5.81039 0)
(218.126 -7.0637 0)
(219.21 -7.84525 0)
(219.766 -8.18907 0)
(219.985 -8.3009 0)
(220.036 -8.25754 0)
(220.01 -8.13237 0)
(220.142 -8.08241 0)
(220.481 -8.10858 0)
(221.078 -8.24275 0)
(221.887 -8.45121 0)
(222.793 -8.66331 0)
(223.743 -8.95838 0)
(224.756 -9.34897 0)
(225.824 -9.79018 0)
(226.951 -10.2021 0)
(228.136 -10.5841 0)
(229.394 -10.9629 0)
(230.726 -11.3738 0)
(232.142 -11.826 0)
(233.65 -12.3209 0)
(235.254 -12.8569 0)
(236.956 -13.4222 0)
(238.76 -14.0206 0)
(240.67 -14.66 0)
(242.689 -15.3463 0)
(244.818 -16.0713 0)
(247.054 -16.8422 0)
(249.394 -17.663 0)
(251.839 -18.5401 0)
(254.399 -19.4691 0)
(257.082 -20.4462 0)
(259.884 -21.4695 0)
(262.803 -22.5301 0)
(265.828 -23.6212 0)
(268.945 -24.7418 0)
(272.114 -25.8989 0)
(275.276 -27.0924 0)
(278.362 -28.3056 0)
(281.335 -29.514 0)
(284.274 -30.7258 0)
(287.035 -31.9211 0)
(289.589 -33.1158 0)
(291.903 -34.3455 0)
(293.914 -35.5288 0)
(295.719 -36.5736 0)
(297.858 -37.4202 0)
(300.718 -37.9061 0)
(304.21 -38.0383 0)
(307.675 -38.0287 0)
(310.391 -38.1003 0)
(312.137 -38.3796 0)
(313.145 -38.8641 0)
(313.592 -39.4252 0)
(313.764 -40.0605 0)
(313.62 -40.6559 0)
(313.464 -41.2853 0)
(313.178 -41.7991 0)
(312.933 -42.3124 0)
(312.723 -42.7116 0)
(312.614 -43.1566 0)
(312.719 -43.5251 0)
(313.17 -43.9624 0)
(314.199 -44.3977 0)
(315.812 -45.0595 0)
(318.334 -45.4405 0)
(321.653 -45.9243 0)
(325.519 -45.9249 0)
(329.628 -45.8933 0)
(333.877 -45.6843 0)
(337.801 -45.58 0)
(341.37 -45.327 0)
(344.35 -45.1824 0)
(346.831 -45.0474 0)
(348.808 -45.0236 0)
(350.418 -44.967 0)
(351.702 -44.9801 0)
(352.776 -44.9528 0)
(353.661 -44.9838 0)
(354.443 -44.9673 0)
(355.11 -45.0028 0)
(355.722 -44.9751 0)
(356.256 -44.9845 0)
(356.755 -44.9489 0)
(357.198 -44.9553 0)
(357.624 -44.918 0)
(358.016 -44.9177 0)
(358.405 -44.8835 0)
(358.76 -44.8846 0)
(359.097 -44.8602 0)
(359.379 -44.8588 0)
(359.613 -44.8308 0)
(359.768 -44.8115 0)
(359.834 -44.7811 0)
(359.821 -44.7238 0)
(359.761 -44.7144 0)
(359.756 -44.6444 0)
(359.864 -44.6367 0)
(360.156 -44.6093 0)
(360.595 -44.6357 0)
(361.126 -44.6352 0)
(361.627 -44.6654 0)
(361.89 -44.4404 0)
(176.319 39.9056 0)
(184.968 0.790048 0)
(194.518 -3.95001 0)
(196.932 -5.18878 0)
(198.031 -5.5393 0)
(199.784 -5.12681 0)
(202.159 -4.24332 0)
(204.71 -3.05966 0)
(207.001 -1.8483 0)
(208.642 -0.813536 0)
(209.407 -0.0285847 0)
(209.573 0.374856 0)
(209.615 0.898942 0)
(209.695 1.07531 0)
(209.975 0.947869 0)
(210.96 -0.145764 0)
(212.571 -2.07092 0)
(214.483 -4.03793 0)
(216.403 -5.70858 0)
(218.071 -6.98631 0)
(219.219 -7.80465 0)
(219.825 -8.18032 0)
(220.068 -8.3035 0)
(220.132 -8.27311 0)
(220.103 -8.14486 0)
(220.219 -8.07997 0)
(220.531 -8.09125 0)
(221.097 -8.20033 0)
(221.9 -8.39403 0)
(222.811 -8.60158 0)
(223.769 -8.89207 0)
(224.788 -9.27533 0)
(225.86 -9.70911 0)
(226.993 -10.1144 0)
(228.184 -10.4886 0)
(229.449 -10.857 0)
(230.79 -11.2571 0)
(232.216 -11.6977 0)
(233.733 -12.1787 0)
(235.348 -12.6999 0)
(237.062 -13.2487 0)
(238.879 -13.8294 0)
(240.805 -14.4491 0)
(242.84 -15.114 0)
(244.99 -15.8159 0)
(247.25 -16.563 0)
(249.618 -17.3595 0)
(252.096 -18.2091 0)
(254.696 -19.109 0)
(257.424 -20.0549 0)
(260.28 -21.0458 0)
(263.257 -22.0729 0)
(266.341 -23.1308 0)
(269.507 -24.2216 0)
(272.71 -25.3543 0)
(275.9 -26.5274 0)
(279.028 -27.7269 0)
(282.043 -28.9299 0)
(285.014 -30.1397 0)
(287.841 -31.3609 0)
(290.358 -32.5885 0)
(292.695 -33.8251 0)
(294.948 -35.0911 0)
(297.218 -36.1498 0)
(299.972 -36.868 0)
(303.425 -37.1932 0)
(307.076 -37.2748 0)
(310.229 -37.3535 0)
(312.449 -37.6416 0)
(313.817 -38.1363 0)
(314.589 -38.7845 0)
(314.896 -39.4728 0)
(315.032 -40.2196 0)
(314.987 -40.8797 0)
(315.079 -41.5669 0)
(315.259 -42.1393 0)
(315.832 -42.7937 0)
(316.882 -43.4355 0)
(318.686 -44.0835 0)
(321.379 -44.3605 0)
(324.896 -44.6448 0)
(329.101 -44.5919 0)
(333.427 -44.5573 0)
(337.523 -44.4234 0)
(341.015 -44.4132 0)
(343.934 -44.3478 0)
(346.176 -44.4023 0)
(347.95 -44.3556 0)
(349.33 -44.3923 0)
(350.488 -44.3469 0)
(351.437 -44.3878 0)
(352.294 -44.34 0)
(353.031 -44.3677 0)
(353.729 -44.3104 0)
(354.352 -44.3242 0)
(354.975 -44.2656 0)
(355.549 -44.2765 0)
(356.118 -44.2334 0)
(356.624 -44.248 0)
(357.11 -44.2119 0)
(357.541 -44.2317 0)
(357.959 -44.202 0)
(358.34 -44.213 0)
(358.718 -44.1772 0)
(359.069 -44.1819 0)
(359.424 -44.1515 0)
(359.752 -44.1548 0)
(360.066 -44.1275 0)
(360.327 -44.122 0)
(360.545 -44.0897 0)
(360.685 -44.0698 0)
(360.738 -44.0378 0)
(360.711 -43.9869 0)
(360.643 -43.9756 0)
(360.628 -43.9215 0)
(360.734 -43.9221 0)
(361.023 -43.9089 0)
(361.461 -43.9554 0)
(361.994 -43.9877 0)
(362.534 -44.0455 0)
(362.823 -43.8033 0)
(176.351 39.5941 0)
(185.098 0.701437 0)
(194.579 -3.97469 0)
(196.959 -5.17785 0)
(198.08 -5.49535 0)
(199.859 -5.06971 0)
(202.25 -4.17572 0)
(204.802 -2.99265 0)
(207.077 -1.79366 0)
(208.69 -0.78102 0)
(209.431 -0.0234583 0)
(209.583 0.373621 0)
(209.612 0.899026 0)
(209.683 1.08122 0)
(209.948 0.973818 0)
(210.902 -0.0755394 0)
(212.485 -1.97156 0)
(214.38 -3.92835 0)
(216.314 -5.60404 0)
(218.024 -6.906 0)
(219.228 -7.76252 0)
(219.883 -8.16983 0)
(220.15 -8.30595 0)
(220.23 -8.2894 0)
(220.201 -8.16075 0)
(220.3 -8.07945 0)
(220.585 -8.07787 0)
(221.123 -8.16018 0)
(221.918 -8.33765 0)
(222.833 -8.54025 0)
(223.799 -8.82663 0)
(224.824 -9.20299 0)
(225.902 -9.62973 0)
(227.041 -10.0286 0)
(228.24 -10.3948 0)
(229.513 -10.7532 0)
(230.863 -11.143 0)
(232.299 -11.5723 0)
(233.827 -12.0398 0)
(235.454 -12.5461 0)
(237.182 -13.0788 0)
(239.014 -13.6425 0)
(240.956 -14.2431 0)
(243.01 -14.8871 0)
(245.182 -15.5664 0)
(247.468 -16.2895 0)
(249.865 -17.062 0)
(252.378 -17.8843 0)
(255.018 -18.7553 0)
(257.793 -19.6697 0)
(260.698 -20.6274 0)
(263.727 -21.6205 0)
(266.858 -22.6456 0)
(270.06 -23.706 0)
(273.298 -24.81 0)
(276.536 -25.9568 0)
(279.719 -27.1377 0)
(282.813 -28.3371 0)
(285.827 -29.5423 0)
(288.722 -30.7991 0)
(291.265 -32.0667 0)
(293.603 -33.332 0)
(296.041 -34.521 0)
(298.944 -35.5155 0)
(302.428 -36.1368 0)
(306.276 -36.3848 0)
(309.83 -36.5228 0)
(312.58 -36.8146 0)
(314.474 -37.3381 0)
(315.692 -38.0259 0)
(316.48 -38.8177 0)
(316.971 -39.6412 0)
(317.511 -40.5383 0)
(318.25 -41.3276 0)
(319.453 -42.0983 0)
(321.36 -42.5312 0)
(324.117 -43.0601 0)
(327.716 -43.1487 0)
(331.632 -43.3512 0)
(335.533 -43.3965 0)
(338.913 -43.5565 0)
(341.719 -43.556 0)
(343.906 -43.6557 0)
(345.683 -43.6268 0)
(347.096 -43.7024 0)
(348.317 -43.6568 0)
(349.354 -43.6964 0)
(350.329 -43.6327 0)
(351.196 -43.6751 0)
(352.037 -43.6222 0)
(352.774 -43.6684 0)
(353.48 -43.636 0)
(354.109 -43.6885 0)
(354.72 -43.6642 0)
(355.278 -43.708 0)
(355.818 -43.6882 0)
(356.305 -43.7299 0)
(356.78 -43.7079 0)
(357.226 -43.7277 0)
(357.673 -43.6926 0)
(358.081 -43.7098 0)
(358.48 -43.6742 0)
(358.846 -43.6788 0)
(359.213 -43.6387 0)
(359.556 -43.642 0)
(359.907 -43.6096 0)
(360.233 -43.6109 0)
(360.548 -43.582 0)
(360.811 -43.5749 0)
(361.032 -43.5427 0)
(361.176 -43.5218 0)
(361.234 -43.4864 0)
(361.21 -43.4355 0)
(361.141 -43.4206 0)
(361.124 -43.3648 0)
(361.234 -43.3587 0)
(361.542 -43.3413 0)
(362.013 -43.3795 0)
(362.578 -43.3981 0)
(363.131 -43.443 0)
(363.432 -43.2022 0)
(176.401 39.2673 0)
(185.247 0.613618 0)
(194.651 -4.00004 0)
(196.99 -5.1676 0)
(198.133 -5.45071 0)
(199.941 -5.01171 0)
(202.347 -4.10709 0)
(204.899 -2.92495 0)
(207.155 -1.73872 0)
(208.74 -0.748592 0)
(209.455 -0.0191288 0)
(209.593 0.372043 0)
(209.609 0.898903 0)
(209.672 1.08716 0)
(209.922 0.998958 0)
(210.847 -0.00619029 0)
(212.405 -1.87244 0)
(214.284 -3.81784 0)
(216.213 -5.49649 0)
(217.955 -6.81944 0)
(219.224 -7.71267 0)
(219.938 -8.15532 0)
(220.231 -8.30757 0)
(220.33 -8.30355 0)
(220.307 -8.17734 0)
(220.381 -8.07814 0)
(220.641 -8.06613 0)
(221.151 -8.12037 0)
(221.931 -8.27932 0)
(222.847 -8.47604 0)
(223.822 -8.75793 0)
(224.853 -9.12746 0)
(225.936 -9.54678 0)
(227.079 -9.93848 0)
(228.283 -10.296 0)
(229.564 -10.6445 0)
(230.922 -11.0236 0)
(232.366 -11.4408 0)
(233.904 -11.8942 0)
(235.541 -12.3848 0)
(237.281 -12.9007 0)
(239.126 -13.4465 0)
(241.082 -14.0271 0)
(243.153 -14.649 0)
(245.344 -15.3048 0)
(247.652 -16.0022 0)
(250.074 -16.7491 0)
(252.618 -17.5423 0)
(255.291 -18.3819 0)
(258.104 -19.2621 0)
(261.051 -20.1841 0)
(264.119 -21.1414 0)
(267.285 -22.1322 0)
(270.522 -23.1603 0)
(273.803 -24.234 0)
(277.092 -25.3583 0)
(280.321 -26.5276 0)
(283.476 -27.7294 0)
(286.561 -28.9543 0)
(289.489 -30.2343 0)
(292.215 -31.5549 0)
(294.775 -32.8264 0)
(297.477 -33.9484 0)
(300.854 -34.7831 0)
(304.863 -35.246 0)
(308.892 -35.5206 0)
(312.326 -35.8517 0)
(314.914 -36.386 0)
(316.786 -37.1154 0)
(318.195 -37.9718 0)
(319.421 -38.8888 0)
(320.623 -39.7272 0)
(322.214 -40.5464 0)
(324.411 -41.1261 0)
(327.293 -41.7022 0)
(330.621 -42.0098 0)
(333.939 -42.3569 0)
(336.956 -42.5011 0)
(339.518 -42.7076 0)
(341.696 -42.7066 0)
(343.48 -42.8022 0)
(345.043 -42.7437 0)
(346.368 -42.8362 0)
(347.598 -42.8025 0)
(348.647 -42.9107 0)
(349.621 -42.8999 0)
(350.481 -43.0051 0)
(351.298 -42.9996 0)
(352.028 -43.0926 0)
(352.727 -43.0817 0)
(353.383 -43.1486 0)
(354.037 -43.1283 0)
(354.648 -43.1779 0)
(355.258 -43.1468 0)
(355.827 -43.1743 0)
(356.403 -43.1276 0)
(356.948 -43.136 0)
(357.502 -43.0904 0)
(357.998 -43.1036 0)
(358.476 -43.0638 0)
(358.901 -43.0721 0)
(359.313 -43.0293 0)
(359.684 -43.0334 0)
(360.051 -42.9959 0)
(360.397 -43.0002 0)
(360.749 -42.9691 0)
(361.081 -42.9704 0)
(361.401 -42.9434 0)
(361.671 -42.9393 0)
(361.897 -42.9112 0)
(362.045 -42.8945 0)
(362.105 -42.8615 0)
(362.078 -42.8145 0)
(362.003 -42.799 0)
(361.973 -42.7478 0)
(362.065 -42.7423 0)
(362.345 -42.7294 0)
(362.786 -42.7716 0)
(363.327 -42.7952 0)
(363.865 -42.8457 0)
(364.156 -42.6087 0)
(176.43 38.9337 0)
(185.404 0.517784 0)
(194.729 -4.02728 0)
(197.021 -5.15632 0)
(198.186 -5.40264 0)
(200.022 -4.95039 0)
(202.445 -4.03558 0)
(204.996 -2.85513 0)
(207.234 -1.6827 0)
(208.79 -0.715968 0)
(209.48 -0.0157729 0)
(209.603 0.371008 0)
(209.605 0.897421 0)
(209.66 1.09298 0)
(209.897 1.02319 0)
(210.789 0.0626329 0)
(212.317 -1.77266 0)
(214.177 -3.70599 0)
(216.115 -5.38626 0)
(217.895 -6.72954 0)
(219.221 -7.66054 0)
(219.991 -8.13956 0)
(220.312 -8.30802 0)
(220.432 -8.31691 0)
(220.417 -8.19698 0)
(220.465 -8.08029 0)
(220.7 -8.05659 0)
(221.188 -8.0836 0)
(221.949 -8.22288 0)
(222.866 -8.41252 0)
(223.849 -8.68999 0)
(224.888 -9.05305 0)
(225.976 -9.4653 0)
(227.124 -9.84994 0)
(228.334 -10.1992 0)
(229.622 -10.5385 0)
(230.989 -10.9069 0)
(232.443 -11.3116 0)
(233.991 -11.7513 0)
(235.64 -12.2263 0)
(237.393 -12.726 0)
(239.252 -13.2544 0)
(241.223 -13.8154 0)
(243.312 -14.4156 0)
(245.524 -15.0482 0)
(247.856 -15.7202 0)
(250.303 -16.4414 0)
(252.877 -17.2058 0)
(255.584 -18.0137 0)
(258.433 -18.8597 0)
(261.417 -19.7458 0)
(264.519 -20.6671 0)
(267.718 -21.6227 0)
(270.99 -22.6176 0)
(274.306 -23.664 0)
(277.621 -24.7703 0)
(280.876 -25.9271 0)
(284.037 -27.113 0)
(287.172 -28.3529 0)
(290.13 -29.6333 0)
(293.042 -30.9659 0)
(295.997 -32.2704 0)
(299.266 -33.3298 0)
(303.122 -34.0056 0)
(307.414 -34.4034 0)
(311.469 -34.7479 0)
(314.812 -35.2434 0)
(317.418 -35.9515 0)
(319.516 -36.8425 0)
(321.345 -37.81 0)
(323.105 -38.7412 0)
(325.184 -39.5762 0)
(327.717 -40.3181 0)
(330.507 -40.7836 0)
(333.323 -41.2133 0)
(335.964 -41.3625 0)
(338.308 -41.5786 0)
(340.394 -41.6002 0)
(342.178 -41.7869 0)
(343.771 -41.8111 0)
(345.131 -41.9933 0)
(346.364 -42.0222 0)
(347.439 -42.1978 0)
(348.42 -42.2303 0)
(349.331 -42.3603 0)
(350.228 -42.3515 0)
(351.065 -42.4473 0)
(351.899 -42.4298 0)
(352.687 -42.5037 0)
(353.479 -42.4769 0)
(354.193 -42.5378 0)
(354.887 -42.5118 0)
(355.517 -42.5624 0)
(356.131 -42.5362 0)
(356.692 -42.5697 0)
(357.239 -42.5357 0)
(357.726 -42.5656 0)
(358.191 -42.5376 0)
(358.62 -42.5494 0)
(359.052 -42.5029 0)
(359.451 -42.5097 0)
(359.845 -42.4717 0)
(360.208 -42.4787 0)
(360.573 -42.4449 0)
(360.921 -42.4493 0)
(361.275 -42.4214 0)
(361.607 -42.4257 0)
(361.927 -42.4027 0)
(362.196 -42.4001 0)
(362.423 -42.3699 0)
(362.574 -42.349 0)
(362.64 -42.3088 0)
(362.62 -42.2559 0)
(362.555 -42.2336 0)
(362.543 -42.1764 0)
(362.659 -42.1674 0)
(362.971 -42.1511 0)
(363.441 -42.1885 0)
(364.004 -42.2073 0)
(364.558 -42.2544 0)
(364.855 -42.0108 0)
(176.516 38.578 0)
(185.581 0.42711 0)
(194.809 -4.05386 0)
(197.055 -5.14564 0)
(198.244 -5.35379 0)
(200.112 -4.88805 0)
(202.55 -3.96298 0)
(205.099 -2.78462 0)
(207.315 -1.62644 0)
(208.839 -0.683491 0)
(209.505 -0.0126731 0)
(209.614 0.368541 0)
(209.601 0.89618 0)
(209.649 1.09889 0)
(209.872 1.04668 0)
(210.734 0.130543 0)
(212.237 -1.67314 0)
(214.078 -3.59341 0)
(216.007 -5.27353 0)
(217.812 -6.63381 0)
(219.201 -7.60006 0)
(220.037 -8.11774 0)
(220.392 -8.30778 0)
(220.535 -8.32701 0)
(220.531 -8.21623 0)
(220.553 -8.08436 0)
(220.766 -8.04669 0)
(221.227 -8.04841 0)
(221.962 -8.16562 0)
(222.875 -8.34589 0)
(223.866 -8.61833 0)
(224.915 -8.97533 0)
(226.008 -9.38029 0)
(227.159 -9.75737 0)
(228.373 -10.0982 0)
(229.667 -10.4282 0)
(231.041 -10.7849 0)
(232.503 -11.1763 0)
(234.06 -11.6017 0)
(235.718 -12.0605 0)
(237.483 -12.5432 0)
(239.353 -13.0534 0)
(241.338 -13.5937 0)
(243.442 -14.1712 0)
(245.671 -14.7795 0)
(248.021 -15.4251 0)
(250.49 -16.1188 0)
(253.087 -16.8526 0)
(255.822 -17.6268 0)
(258.699 -18.4368 0)
(261.71 -19.285 0)
(264.839 -20.1691 0)
(268.064 -21.089 0)
(271.36 -22.052 0)
(274.694 -23.0718 0)
(278.028 -24.1547 0)
(281.322 -25.2925 0)
(284.519 -26.4698 0)
(287.69 -27.7076 0)
(290.754 -28.9949 0)
(293.796 -30.2886 0)
(297.135 -31.4963 0)
(301.026 -32.4447 0)
(305.505 -33.0348 0)
(309.993 -33.4526 0)
(313.978 -33.915 0)
(317.243 -34.5862 0)
(319.899 -35.4682 0)
(322.167 -36.4514 0)
(324.265 -37.4276 0)
(326.515 -38.3443 0)
(328.979 -39.0445 0)
(331.54 -39.6197 0)
(334.042 -39.9371 0)
(336.368 -40.2963 0)
(338.461 -40.449 0)
(340.285 -40.7595 0)
(341.9 -40.876 0)
(343.333 -41.1401 0)
(344.65 -41.2079 0)
(345.868 -41.4036 0)
(347.036 -41.4318 0)
(348.124 -41.5917 0)
(349.204 -41.5908 0)
(350.183 -41.7186 0)
(351.11 -41.7199 0)
(351.943 -41.8372 0)
(352.741 -41.84 0)
(353.458 -41.9396 0)
(354.147 -41.9331 0)
(354.806 -41.9847 0)
(355.468 -41.9557 0)
(356.08 -42.0104 0)
(356.684 -41.9858 0)
(357.24 -42.0166 0)
(357.789 -41.9737 0)
(358.301 -41.9815 0)
(358.828 -41.9226 0)
(359.31 -41.9226 0)
(359.776 -41.8835 0)
(360.19 -41.8943 0)
(360.593 -41.8541 0)
(360.962 -41.8572 0)
(361.333 -41.8211 0)
(361.686 -41.8242 0)
(362.045 -41.7968 0)
(362.382 -41.8013 0)
(362.705 -41.7771 0)
(362.977 -41.7748 0)
(363.204 -41.7449 0)
(363.352 -41.7294 0)
(363.412 -41.6922 0)
(363.383 -41.6502 0)
(363.304 -41.6274 0)
(363.264 -41.5818 0)
(363.345 -41.5703 0)
(363.618 -41.5551 0)
(364.061 -41.5928 0)
(364.614 -41.6126 0)
(365.169 -41.6606 0)
(365.468 -41.4169 0)
(176.582 38.2147 0)
(185.761 0.325526 0)
(194.887 -4.08148 0)
(197.09 -5.13379 0)
(198.301 -5.30135 0)
(200.202 -4.82206 0)
(202.656 -3.88735 0)
(205.202 -2.712 0)
(207.396 -1.56923 0)
(208.887 -0.651051 0)
(209.53 -0.00984446 0)
(209.626 0.365817 0)
(209.597 0.893727 0)
(209.636 1.10452 0)
(209.846 1.06931 0)
(210.676 0.197693 0)
(212.149 -1.57319 0)
(213.97 -3.47983 0)
(215.901 -5.15833 0)
(217.738 -6.53438 0)
(219.183 -7.53639 0)
(220.082 -8.09459 0)
(220.472 -8.30641 0)
(220.64 -8.33613 0)
(220.647 -8.23757 0)
(220.646 -8.09231 0)
(220.839 -8.03892 0)
(221.273 -8.01777 0)
(221.98 -8.11104 0)
(222.889 -8.27985 0)
(223.89 -8.54731 0)
(224.948 -8.89861 0)
(226.047 -9.29665 0)
(227.201 -9.66647 0)
(228.42 -9.99945 0)
(229.719 -10.3201 0)
(231.102 -10.6648 0)
(232.572 -11.043 0)
(234.138 -11.4543 0)
(235.808 -11.8973 0)
(237.584 -12.3636 0)
(239.467 -12.8557 0)
(241.466 -13.3756 0)
(243.586 -13.9306 0)
(245.833 -14.515 0)
(248.202 -15.1347 0)
(250.694 -15.8003 0)
(253.316 -16.5039 0)
(256.077 -17.2445 0)
(258.98 -18.0188 0)
(262.015 -18.8294 0)
(265.167 -19.6767 0)
(268.411 -20.5617 0)
(271.722 -21.493 0)
(275.075 -22.4817 0)
(278.451 -23.5319 0)
(281.805 -24.6421 0)
(285.083 -25.8108 0)
(288.306 -27.0338 0)
(291.55 -28.3259 0)
(294.752 -29.6011 0)
(298.408 -30.7047 0)
(302.789 -31.4718 0)
(307.641 -31.9553 0)
(312.257 -32.4221 0)
(316.163 -33.0636 0)
(319.316 -33.9201 0)
(321.908 -34.9129 0)
(324.223 -35.9457 0)
(326.548 -36.8832 0)
(328.99 -37.67 0)
(331.415 -38.3011 0)
(333.739 -38.8542 0)
(335.881 -39.1991 0)
(337.845 -39.5977 0)
(339.629 -39.7781 0)
(341.278 -40.0996 0)
(342.803 -40.2062 0)
(344.229 -40.467 0)
(345.566 -40.5347 0)
(346.769 -40.7554 0)
(347.903 -40.7945 0)
(348.932 -40.9732 0)
(349.898 -40.997 0)
(350.794 -41.1446 0)
(351.67 -41.1584 0)
(352.492 -41.2797 0)
(353.304 -41.2707 0)
(354.079 -41.3366 0)
(354.866 -41.2969 0)
(355.569 -41.3579 0)
(356.241 -41.3403 0)
(356.85 -41.3998 0)
(357.442 -41.376 0)
(357.982 -41.4161 0)
(358.507 -41.3833 0)
(358.98 -41.4107 0)
(359.433 -41.3809 0)
(359.846 -41.409 0)
(360.266 -41.3727 0)
(360.666 -41.3695 0)
(361.07 -41.3185 0)
(361.442 -41.3147 0)
(361.815 -41.2758 0)
(362.166 -41.2824 0)
(362.52 -41.2589 0)
(362.85 -41.2673 0)
(363.167 -41.2439 0)
(363.433 -41.2431 0)
(363.658 -41.2117 0)
(363.805 -41.1965 0)
(363.869 -41.1544 0)
(363.846 -41.112 0)
(363.779 -41.0781 0)
(363.758 -41.0273 0)
(363.867 -41.0002 0)
(364.172 -40.9791 0)
(364.644 -41.01 0)
(365.216 -41.0257 0)
(365.778 -41.0686 0)
(366.08 -40.824 0)
(176.712 37.8302 0)
(185.95 0.231639 0)
(194.964 -4.10776 0)
(197.129 -5.12251 0)
(198.364 -5.24798 0)
(200.3 -4.7549 0)
(202.77 -3.81059 0)
(205.31 -2.63872 0)
(207.479 -1.51187 0)
(208.936 -0.618893 0)
(209.555 -0.00727126 0)
(209.638 0.362086 0)
(209.593 0.891468 0)
(209.624 1.11006 0)
(209.822 1.09122 0)
(210.621 0.26374 0)
(212.07 -1.47363 0)
(213.871 -3.36577 0)
(215.787 -5.04102 0)
(217.64 -6.42967 0)
(219.144 -7.46412 0)
(220.115 -8.06286 0)
(220.553 -8.30487 0)
(220.747 -8.34246 0)
(220.765 -8.25827 0)
(220.744 -8.1012 0)
(220.919 -8.03136 0)
(221.321 -7.99007 0)
(221.991 -8.05639 0)
(222.892 -8.21061 0)
(223.904 -8.47226 0)
(224.972 -8.8181 0)
(226.077 -9.20948 0)
(227.234 -9.572 0)
(228.455 -9.89683 0)
(229.759 -10.207 0)
(231.147 -10.539 0)
(232.624 -10.9038 0)
(234.198 -11.3003 0)
(235.877 -11.7272 0)
(237.662 -12.1763 0)
(239.555 -12.6496 0)
(241.566 -13.1479 0)
(243.699 -13.6794 0)
(245.959 -14.2389 0)
(248.344 -14.8322 0)
(250.853 -15.4678 0)
(253.493 -16.1402 0)
(256.273 -16.8453 0)
(259.193 -17.5827 0)
(262.245 -18.3546 0)
(265.41 -19.1645 0)
(268.666 -20.0141 0)
(271.994 -20.9111 0)
(275.385 -21.8639 0)
(278.821 -22.8817 0)
(282.225 -23.974 0)
(285.572 -25.1436 0)
(288.901 -26.365 0)
(292.311 -27.6488 0)
(295.905 -28.8635 0)
(300.015 -29.8196 0)
(304.766 -30.4519 0)
(309.667 -30.912 0)
(314.128 -31.4564 0)
(317.834 -32.255 0)
(320.823 -33.2365 0)
(323.387 -34.2869 0)
(325.828 -35.2658 0)
(328.255 -36.1609 0)
(330.602 -36.9575 0)
(332.858 -37.5821 0)
(335.038 -38.106 0)
(337.086 -38.4452 0)
(338.987 -38.8557 0)
(340.692 -39.0635 0)
(342.242 -39.4232 0)
(343.651 -39.5483 0)
(344.946 -39.8479 0)
(346.166 -39.9357 0)
(347.33 -40.1644 0)
(348.461 -40.1963 0)
(349.53 -40.3624 0)
(350.582 -40.3737 0)
(351.529 -40.5312 0)
(352.425 -40.5439 0)
(353.248 -40.6636 0)
(354.047 -40.6542 0)
(354.768 -40.7469 0)
(355.451 -40.7337 0)
(356.08 -40.8097 0)
(356.71 -40.7878 0)
(357.304 -40.8407 0)
(357.894 -40.8128 0)
(358.439 -40.8561 0)
(358.976 -40.8191 0)
(359.476 -40.8333 0)
(359.986 -40.778 0)
(360.465 -40.7819 0)
(360.944 -40.7339 0)
(361.371 -40.7378 0)
(361.786 -40.6957 0)
(362.161 -40.7055 0)
(362.531 -40.6773 0)
(362.879 -40.6949 0)
(363.229 -40.6743 0)
(363.556 -40.6836 0)
(363.87 -40.6574 0)
(364.132 -40.6552 0)
(364.353 -40.6201 0)
(364.493 -40.6039 0)
(364.547 -40.5583 0)
(364.509 -40.5161 0)
(364.42 -40.4832 0)
(364.372 -40.4359 0)
(364.459 -40.4124 0)
(364.752 -40.395 0)
(365.222 -40.4269 0)
(365.795 -40.44 0)
(366.357 -40.4803 0)
(366.656 -40.2351 0)
(176.8 37.439 0)
(186.132 0.126087 0)
(195.038 -4.13468 0)
(197.169 -5.10998 0)
(198.427 -5.19093 0)
(200.399 -4.68374 0)
(202.885 -3.73068 0)
(205.419 -2.56335 0)
(207.562 -1.45371 0)
(208.984 -0.586874 0)
(209.58 -0.00485888 0)
(209.649 0.357919 0)
(209.59 0.887854 0)
(209.611 1.11533 0)
(209.797 1.11212 0)
(210.565 0.328825 0)
(211.985 -1.37372 0)
(213.762 -3.25089 0)
(215.673 -4.9215 0)
(217.552 -6.32094 0)
(219.108 -7.388 0)
(220.146 -8.02953 0)
(220.634 -8.30222 0)
(220.856 -8.34806 0)
(220.883 -8.2809 0)
(220.849 -8.11351 0)
(221.006 -8.02661 0)
(221.376 -7.96766 0)
(222.008 -8.00474 0)
(222.9 -8.14162 0)
(223.923 -8.397 0)
(225 -8.73772 0)
(226.113 -9.12368 0)
(227.273 -9.47933 0)
(228.498 -9.7958 0)
(229.806 -10.0948 0)
(231.201 -10.4145 0)
(232.685 -10.7666 0)
(234.267 -11.1483 0)
(235.955 -11.5595 0)
(237.751 -11.9919 0)
(239.655 -12.4466 0)
(241.678 -12.9233 0)
(243.825 -13.4313 0)
(246.099 -13.9663 0)
(248.5 -14.5334 0)
(251.026 -15.1388 0)
(253.684 -15.7803 0)
(256.482 -16.4507 0)
(259.419 -17.1519 0)
(262.486 -17.886 0)
(265.663 -18.6586 0)
(268.934 -19.4715 0)
(272.286 -20.3308 0)
(275.712 -21.2475 0)
(279.171 -22.2402 0)
(282.58 -23.3162 0)
(285.927 -24.4604 0)
(289.358 -25.67 0)
(292.912 -26.8785 0)
(296.93 -27.9767 0)
(301.567 -28.7907 0)
(306.624 -29.3235 0)
(311.48 -29.8288 0)
(315.648 -30.5274 0)
(319.082 -31.4456 0)
(321.985 -32.4656 0)
(324.609 -33.4937 0)
(327.095 -34.5195 0)
(329.464 -35.4527 0)
(331.75 -36.2155 0)
(333.966 -36.8173 0)
(336.065 -37.3414 0)
(337.987 -37.7223 0)
(339.745 -38.1659 0)
(341.348 -38.3981 0)
(342.874 -38.7668 0)
(344.295 -38.8927 0)
(345.654 -39.1985 0)
(346.927 -39.2866 0)
(348.095 -39.5333 0)
(349.194 -39.5769 0)
(350.186 -39.776 0)
(351.112 -39.8126 0)
(351.992 -39.9757 0)
(352.87 -39.975 0)
(353.7 -40.0847 0)
(354.519 -40.0667 0)
(355.282 -40.1603 0)
(356.043 -40.1426 0)
(356.733 -40.2194 0)
(357.394 -40.1863 0)
(357.994 -40.2286 0)
(358.583 -40.1905 0)
(359.121 -40.234 0)
(359.65 -40.1998 0)
(360.13 -40.2348 0)
(360.595 -40.2065 0)
(361.012 -40.2395 0)
(361.424 -40.206 0)
(361.812 -40.2185 0)
(362.203 -40.1855 0)
(362.567 -40.2096 0)
(362.931 -40.195 0)
(363.279 -40.2207 0)
(363.629 -40.2001 0)
(363.958 -40.2061 0)
(364.276 -40.1717 0)
(364.543 -40.1611 0)
(364.774 -40.111 0)
(364.922 -40.0824 0)
(364.991 -40.0185 0)
(364.971 -39.9622 0)
(364.908 -39.9161 0)
(364.892 -39.8574 0)
(365.005 -39.8302 0)
(365.318 -39.8078 0)
(365.797 -39.8356 0)
(366.378 -39.8442 0)
(366.948 -39.8832 0)
(367.25 -39.6318 0)
(176.95 37.0275 0)
(186.324 0.029248 0)
(195.112 -4.15952 0)
(197.213 -5.09794 0)
(198.499 -5.13296 0)
(200.507 -4.61127 0)
(203.007 -3.64959 0)
(205.533 -2.48736 0)
(207.647 -1.39551 0)
(209.033 -0.555214 0)
(209.605 -0.00270968 0)
(209.661 0.352829 0)
(209.586 0.884319 0)
(209.598 1.12055 0)
(209.775 1.13222 0)
(210.511 0.392772 0)
(211.906 -1.27418 0)
(213.662 -3.13571 0)
(215.554 -4.80025 0)
(217.439 -6.20759 0)
(219.05 -7.30374 0)
(220.162 -7.98657 0)
(220.712 -8.29541 0)
(220.965 -8.35217 0)
(221.005 -8.3023 0)
(220.962 -8.12679 0)
(221.097 -8.02213 0)
(221.434 -7.94835 0)
(222.024 -7.95392 0)
(222.902 -8.07014 0)
(223.932 -8.31776 0)
(225.021 -8.65397 0)
(226.14 -9.03421 0)
(227.303 -9.38308 0)
(228.529 -9.69038 0)
(229.84 -9.97733 0)
(231.239 -10.2848 0)
(232.728 -10.6241 0)
(234.318 -10.9901 0)
(236.013 -11.3854 0)
(237.816 -11.8004 0)
(239.728 -12.2357 0)
(241.76 -12.6899 0)
(243.917 -13.1733 0)
(246.201 -13.6829 0)
(248.613 -14.2229 0)
(251.152 -14.7974 0)
(253.822 -15.4073 0)
(256.632 -16.0416 0)
(259.577 -16.7053 0)
(262.651 -17.4005 0)
(265.836 -18.1349 0)
(269.12 -18.9094 0)
(272.493 -19.7311 0)
(275.936 -20.615 0)
(279.395 -21.5809 0)
(282.814 -22.6331 0)
(286.185 -23.7498 0)
(289.707 -24.9129 0)
(293.47 -26.041 0)
(297.81 -26.9678 0)
(302.796 -27.6171 0)
(307.969 -28.1017 0)
(312.711 -28.7026 0)
(316.709 -29.5321 0)
(320.019 -30.532 0)
(322.899 -31.6461 0)
(325.486 -32.7935 0)
(327.894 -33.8276 0)