/*--------------------------------*- C++ -*----------------------------------*\
| =========                 |                                                 |
| \\      /  F ield         | OpenFOAM: The Open Source CFD Toolbox           |
|  \\    /   O peration     | Version:  2412                                  |
|   \\  /    A nd           | Website:  www.openfoam.com                      |
|    \\/     M anipulation  |                                                 |
\*---------------------------------------------------------------------------*/
FoamFile
{
    version     2.0;
    format      ascii;
    arch        "LSB;label=32;scalar=64";
    class       volScalarField;
    location    "0.076";
    object      p;
}
// * * * * * * * * * * * * * * * * * * * * * * * * * * * * * * * * * * * * * //

dimensions      [1 -1 -2 0 0 0 0];

internalField   nonuniform List<scalar> 
78650
(
3007.39
2894.01
2894.24
2896.6
2900.6
2903.81
2905.47
2905.59
2904.38
2901.46
2896.93
2890.69
2882.59
2873.52
2864.36
2855.59
2847.36
2839.66
2832.5
2825.89
2819.88
2814.45
2809.55
2805.12
2801.08
2797.29
2793.57
2789.8
2785.92
2781.95
2777.95
2774.01
2770.16
2766.4
2762.74
2759.17
2755.72
2752.42
2749.28
2746.32
2743.54
2740.97
2738.6
2736.43
2734.45
2732.66
2731.03
2729.56
2728.23
2727.01
2725.9
2724.89
2723.97
2723.14
2722.39
2721.71
2721.07
2720.47
2719.88
2719.29
2718.69
2718.06
2717.37
2716.59
2715.67
2714.6
2713.35
2711.85
2710.04
2707.86
2705.26
2702.22
2698.67
2694.56
2689.8
2684.29
2677.94
2670.66
2662.35
2652.88
2642.1
2629.9
2616.16
2600.74
2583.52
2564.3
2542.95
2519.24
2492.96
2464.03
2432.57
2398.38
2361.38
2321.04
2278.17
2231.93
2182.98
2131.53
2075.2
2015.56
1955.91
1897.5
1840.27
1781.76
1719.64
1658.93
1596.75
1535.97
1480.52
1428.45
1381.62
1339.75
1300.71
1265.39
1232.92
1202.12
1174.43
1148.7
1127.3
1109.42
1074.15
2977.66
2884.78
2889.19
2892.99
2897.89
2902.22
2904.83
2905.39
2904.44
2901.71
2897.24
2891.01
2882.92
2873.82
2864.46
2855.57
2847.23
2839.5
2832.3
2825.68
2819.68
2814.29
2809.47
2805.16
2801.27
2797.68
2794.2
2790.71
2787.1
2783.39
2779.62
2775.88
2772.22
2768.65
2765.17
2761.77
2758.49
2755.34
2752.35
2749.54
2746.92
2744.51
2742.3
2740.29
2738.48
2736.85
2735.4
2734.1
2732.96
2731.94
2731.04
2730.25
2729.56
2728.97
2728.47
2728.06
2727.71
2727.4
2727.13
2726.87
2726.63
2726.37
2726.08
2725.73
2725.28
2724.69
2723.97
2723.04
2721.85
2720.34
2718.47
2716.2
2713.48
2710.28
2706.49
2702.05
2696.86
2690.84
2683.89
2675.9
2666.73
2656.27
2644.4
2630.98
2615.88
2598.91
2579.93
2558.74
2535.2
2509.23
2480.77
2449.48
2415.25
2377.83
2337.84
2294.49
2248.45
2198.86
2146.52
2090.98
2032.15
1971.87
1909.86
1851.14
1790.55
1731.92
1673.19
1611.87
1553.92
1497.49
1442.99
1393.73
1348.15
1306.58
1269.77
1235.8
1205.33
1176.72
1151
1128.82
1087.18
2947.32
2871.81
2880.89
2887.03
2893.33
2899.08
2902.96
2904.27
2903.87
2901.63
2897.33
2891.11
2883.04
2873.92
2864.43
2855.39
2846.94
2839.15
2831.94
2825.34
2819.38
2814.05
2809.33
2805.15
2801.42
2798.02
2794.79
2791.57
2788.26
2784.81
2781.29
2777.76
2774.3
2770.92
2767.63
2764.41
2761.3
2758.31
2755.48
2752.82
2750.36
2748.11
2746.06
2744.22
2742.58
2741.13
2739.85
2738.75
2737.79
2736.98
2736.29
2735.71
2735.26
2734.9
2734.65
2734.51
2734.44
2734.44
2734.48
2734.56
2734.66
2734.78
2734.88
2734.95
2734.96
2734.86
2734.65
2734.29
2733.71
2732.85
2731.69
2730.17
2728.25
2725.91
2723.07
2719.65
2715.55
2710.71
2705.04
2698.42
2690.75
2681.89
2671.74
2660.15
2647.03
2632.18
2615.49
2596.76
2575.83
2552.54
2526.7
2498.06
2466.62
2432.27
2395.2
2354.57
2311.07
2264.13
2214.83
2162.92
2107.56
2049.65
1986.86
1923.3
1861.1
1797.47
1739.31
1678.15
1618.31
1561.6
1503.5
1448.81
1397.27
1349.31
1306.08
1267.59
1233.65
1201.37
1173.02
1148.38
1100.81
2918.45
2855.13
2867.83
2877.51
2886.51
2893.9
2899.32
2902
2902.37
2900.89
2897.08
2890.95
2882.97
2873.83
2864.24
2855.06
2846.5
2838.65
2831.45
2824.89
2819.01
2813.78
2809.17
2805.14
2801.56
2798.35
2795.36
2792.42
2789.41
2786.25
2782.99
2779.7
2776.44
2773.26
2770.16
2767.14
2764.2
2761.38
2758.71
2756.21
2753.9
2751.81
2749.92
2748.25
2746.79
2745.51
2744.41
2743.49
2742.72
2742.1
2741.62
2741.26
2741.02
2740.92
2740.91
2741.02
2741.22
2741.51
2741.85
2742.25
2742.69
2743.17
2743.66
2744.13
2744.57
2744.95
2745.23
2745.38
2745.39
2745.16
2744.68
2743.9
2742.75
2741.24
2739.29
2736.85
2733.82
2730.12
2725.69
2720.43
2714.23
2706.97
2698.53
2688.81
2677.69
2664.99
2650.59
2634.27
2615.87
2595.22
2572.15
2546.49
2518.21
2487.11
2453.12
2415.67
2375.39
2331.67
2285.4
2235.59
2182.64
2126.41
2067.01
2003.21
1940.89
1875.01
1808.78
1746.66
1682.51
1623.44
1564.39
1507.41
1452.58
1399.94
1349.25
1303.42
1264.57
1230.35
1200.75
1174.43
1120.52
2891.16
2835.23
2849.72
2863.29
2875.92
2886.05
2893.48
2897.75
2899.25
2898.7
2895.9
2890.2
2882.43
2873.34
2863.76
2854.48
2845.85
2837.99
2830.82
2824.36
2818.59
2813.48
2809
2805.11
2801.69
2798.67
2795.92
2793.26
2790.55
2787.7
2784.72
2781.67
2778.64
2775.66
2772.76
2769.94
2767.19
2764.55
2762.04
2759.7
2757.55
2755.61
2753.9
2752.4
2751.11
2750.01
2749.1
2748.37
2747.8
2747.38
2747.1
2746.96
2746.94
2747.06
2747.31
2747.66
2748.13
2748.7
2749.35
2750.07
2750.84
2751.67
2752.53
2753.41
2754.27
2755.1
2755.87
2756.55
2757.1
2757.48
2757.64
2757.56
2757.17
2756.47
2755.38
2753.87
2751.85
2749.24
2745.98
2741.99
2737.16
2731.38
2724.54
2716.53
2707.24
2696.52
2684.23
2670.19
2654.28
2636.31
2616.1
2593.46
2568.31
2540.39
2509.51
2475.31
2438.27
2397.87
2354.52
2306.99
2256.11
2201.86
2144.79
2085.08
2022.16
1959.03
1890.85
1825.68
1758.25
1691.18
1629.02
1567.98
1511.29
1456.8
1403.97
1352.74
1304.5
1259.99
1224.13
1195.17
1136.39
2869.78
2816.09
2827.82
2842.67
2860.15
2874.87
2885.41
2891.68
2894.61
2894.98
2893.34
2888.57
2881.26
2872.36
2862.95
2853.7
2845.08
2837.25
2830.15
2823.8
2818.17
2813.2
2808.86
2805.13
2801.86
2799.02
2796.49
2794.1
2791.7
2789.17
2786.49
2783.7
2780.9
2778.14
2775.45
2772.83
2770.28
2767.83
2765.5
2763.33
2761.34
2759.56
2758
2756.68
2755.56
2754.65
2753.93
2753.38
2753
2752.78
2752.72
2752.79
2753
2753.34
2753.82
2754.42
2755.16
2756
2756.94
2757.97
2759.06
2760.23
2761.45
2762.72
2763.99
2765.26
2766.49
2767.68
2768.77
2769.73
2770.51
2771.08
2771.41
2771.48
2771.22
2770.62
2769.58
2768.02
2765.9
2763.12
2759.64
2755.31
2750.06
2743.75
2736.3
2727.56
2717.42
2705.71
2692.25
2676.86
2659.34
2639.51
2617.22
2592.22
2564.4
2533.6
2500
2462.9
2422.47
2377.91
2330.23
2279.02
2224.69
2167.46
2105.8
2043.77
1978.1
1909.5
1843.29
1771.35
1704.2
1636.24
1571.75
1511.82
1455.39
1405.56
1357.21
1310.14
1264.13
1224.71
1150.57
2857.58
2804.48
2809.97
2819.88
2837.84
2857.36
2873.4
2883.52
2888.73
2890.24
2889.52
2885.98
2879.34
2870.76
2861.64
2852.57
2844.1
2836.39
2829.41
2823.22
2817.75
2812.93
2808.77
2805.18
2802.07
2799.41
2797.09
2794.96
2792.85
2790.63
2788.26
2785.76
2783.21
2780.67
2778.19
2775.78
2773.44
2771.19
2769.06
2767.06
2765.24
2763.62
2762.23
2761.07
2760.14
2759.41
2758.88
2758.53
2758.35
2758.34
2758.49
2758.77
2759.2
2759.77
2760.48
2761.34
2762.33
2763.44
2764.67
2766
2767.41
2768.91
2770.49
2772.13
2773.81
2775.5
2777.19
2778.86
2780.47
2781.99
2783.38
2784.61
2785.62
2786.41
2786.94
2787.18
2787.08
2786.53
2785.51
2783.87
2781.63
2778.65
2774.86
2770.13
2764.37
2757.47
2749.3
2739.69
2728.51
2715.57
2700.71
2683.77
2664.58
2642.91
2618.65
2591.52
2561.4
2527.64
2490.49
2449.55
2405.72
2358.27
2307.11
2252
2193.5
2130.44
2066.74
1998.31
1931.77
1860.72
1789.36
1720.81
1648.6
1581.71
1514.94
1454.88
1401.3
1355.34
1313.75
1275.28
1195.29
2851.89
2802.91
2801.07
2801.22
2812.54
2833.03
2854.98
2871.49
2880.96
2884.64
2884.72
2882.4
2876.64
2868.61
2859.87
2851.14
2842.94
2835.44
2828.61
2822.62
2817.34
2812.71
2808.73
2805.3
2802.36
2799.86
2797.73
2795.84
2794
2792.1
2790.04
2787.84
2785.55
2783.26
2781.01
2778.81
2776.69
2774.64
2772.71
2770.9
2769.26
2767.81
2766.58
2765.59
2764.83
2764.28
2763.95
2763.8
2763.82
2764.02
2764.37
2764.87
2765.51
2766.31
2767.26
2768.35
2769.6
2770.98
2772.49
2774.11
2775.83
2777.65
2779.57
2781.57
2783.63
2785.74
2787.86
2790
2792.11
2794.17
2796.14
2797.97
2799.65
2801.16
2802.46
2803.5
2804.24
2804.64
2804.68
2804.18
2803.17
2801.51
2799.14
2795.95
2791.87
2786.77
2780.56
2773.07
2764.16
2753.68
2741.46
2727.3
2711.01
2692.35
2671.18
2647.24
2620.38
2590.15
2556.88
2520.19
2480.44
2436.63
2388.76
2336.45
2280.09
2220.51
2157.29
2091.62
2020.43
1951.79
1877.66
1808.18
1735.26
1663.98
1594.11
1523.37
1456.59
1395
1345.09
1306.22
1227.2
2849.06
2804.32
2798.74
2792.51
2794.92
2807.54
2829.81
2853.27
2869.63
2877.52
2879.35
2878.35
2873.81
2866.44
2857.89
2849.38
2841.45
2834.2
2827.62
2821.89
2816.88
2812.51
2808.75
2805.51
2802.73
2800.38
2798.43
2796.74
2795.16
2793.54
2791.79
2789.89
2787.88
2785.85
2783.84
2781.88
2779.97
2778.14
2776.41
2774.81
2773.36
2772.09
2771.03
2770.21
2769.62
2769.26
2769.11
2769.16
2769.4
2769.8
2770.36
2771.07
2771.94
2772.97
2774.15
2775.48
2776.98
2778.62
2780.4
2782.31
2784.34
2786.48
2788.73
2791.08
2793.52
2796.02
2798.57
2801.16
2803.75
2806.33
2808.85
2811.29
2813.61
2815.79
2817.81
2819.63
2821.24
2822.53
2823.47
2824.04
2824.18
2823.75
2822.72
2820.97
2818.42
2814.99
2810.56
2805.02
2798.23
2790.03
2780.26
2768.74
2755.29
2739.72
2721.87
2701.46
2678.31
2652.07
2622.9
2590.24
2554.07
2513.4
2468.61
2419.7
2366.93
2310.4
2249.66
2185.23
2116.87
2046.72
1973.03
1895.88
1823.62
1748.37
1676.75
1609.06
1540.43
1475.09
1409.71
1354.02
1249.43
2845.53
2806.8
2800.44
2791.31
2787.02
2790.6
2804.59
2828.28
2852.12
2867.99
2873.99
2874.24
2871.06
2864.65
2856.33
2847.92
2840.12
2832.97
2826.64
2821.19
2816.47
2812.36
2808.82
2805.78
2803.17
2800.97
2799.18
2797.68
2796.32
2794.97
2793.52
2791.91
2790.2
2788.44
2786.69
2784.97
2783.3
2781.69
2780.17
2778.78
2777.53
2776.45
2775.57
2774.92
2774.5
2774.32
2774.35
2774.62
2775.04
2775.65
2776.42
2777.36
2778.45
2779.69
2781.1
2782.67
2784.41
2786.31
2788.35
2790.54
2792.86
2795.31
2797.88
2800.57
2803.37
2806.25
2809.21
2812.22
2815.28
2818.35
2821.4
2824.4
2827.33
2830.16
2832.87
2835.44
2837.83
2839.99
2841.9
2843.45
2844.62
2845.37
2845.63
2845.3
2844.28
2842.49
2839.82
2836.17
2831.43
2825.45
2818.07
2809.13
2798.45
2785.83
2771.09
2753.95
2734.26
2711.74
2686.35
2657.44
2624.92
2588.17
2547.83
2503.7
2455.5
2402.76
2345.09
2283.6
2218.51
2147.42
2075.58
1996.19
1917.23
1837.48
1757.87
1681.54
1608.73
1543.79
1484.68
1431.77
1324.44
2840.48
2809.1
2803.87
2793.38
2786.15
2783.93
2788.14
2803.31
2827.88
2851.28
2864.98
2869.14
2868.16
2863.33
2855.53
2847.19
2839.38
2832.15
2825.9
2820.58
2816.08
2812.23
2808.93
2806.09
2803.66
2801.61
2799.96
2798.62
2797.47
2796.36
2795.18
2793.87
2792.43
2790.96
2789.48
2788.03
2786.6
2785.22
2783.93
2782.75
2781.71
2780.84
2780.15
2779.67
2779.43
2779.42
2779.67
2780.1
2780.73
2781.55
2782.53
2783.68
2785
2786.47
2788.11
2789.91
2791.89
2794.04
2796.35
2798.81
2801.42
2804.16
2807.04
2810.06
2813.21
2816.46
2819.81
2823.24
2826.74
2830.28
2833.84
2837.39
2840.89
2844.34
2847.71
2850.98
2854.13
2857.11
2859.88
2862.39
2864.6
2866.43
2867.82
2868.73
2869.1
2868.84
2867.81
2865.95
2863.08
2859.16
2854.02
2847.52
2839.49
2829.73
2818.06
2804.24
2788.11
2769.35
2747.79
2722.82
2694.51
2662.47
2627.14
2587.78
2543.93
2495.29
2441.65
2383.71
2321
2254.19
2182.64
2107.86
2028.14
1946.35
1864.42
1774.98
1691.66
1609.68
1536.31
1476.61
1358.58
2834.27
2810.32
2807.67
2798.26
2788.27
2783.16
2782.08
2787
2803.01
2827.57
2849.47
2860.79
2863.21
2860.86
2854.56
2846.81
2839.23
2831.88
2825.62
2820.25
2815.76
2812.08
2809
2806.39
2804.17
2802.29
2800.77
2799.59
2798.63
2797.74
2796.81
2795.76
2794.61
2793.41
2792.22
2791.04
2789.88
2788.75
2787.68
2786.72
2785.9
2785.23
2784.74
2784.46
2784.4
2784.58
2784.99
2785.62
2786.45
2787.46
2788.66
2790.03
2791.56
2793.25
2795.11
2797.15
2799.36
2801.75
2804.31
2807.04
2809.92
2812.96
2816.14
2819.47
2822.95
2826.55
2830.27
2834.1
2838.01
2842
2846.04
2850.1
2854.16
2858.19
2862.18
2866.12
2869.98
2873.73
2877.33
2880.73
2883.9
2886.78
2889.33
2891.47
2893.12
2894.23
2894.76
2894.67
2893.66
2891.77
2888.73
2884.55
2878.99
2871.93
2863.14
2852.44
2839.62
2824.4
2806.57
2785.71
2761.88
2734.64
2703.97
2668.86
2629.15
2584.66
2535.28
2481.34
2421.91
2357.94
2289.31
2215.94
2138.37
2057.48
1977.41
1892.31
1804.38
1723.37
1638.22
1563.3
1419.62
2827.94
2810.69
2810.35
2803.83
2792.96
2784.66
2781.34
2781.34
2786.91
2803.13
2826.28
2845.7
2854.83
2856.14
2853
2846.5
2839.23
2832
2825.66
2820.16
2815.55
2811.93
2809.04
2806.66
2804.65
2802.94
2801.57
2800.54
2799.75
2799.06
2798.36
2797.57
2796.68
2795.75
2794.83
2793.94
2793.06
2792.2
2791.37
2790.64
2790.03
2789.57
2789.29
2789.21
2789.35
2789.72
2790.31
2791.13
2792.15
2793.37
2794.77
2796.35
2798.09
2800.01
2802.09
2804.36
2806.8
2809.43
2812.23
2815.22
2818.37
2821.69
2825.16
2828.79
2832.59
2836.54
2840.62
2844.82
2849.13
2853.55
2858.05
2862.6
2867.17
2871.76
2876.35
2880.91
2885.44
2889.91
2894.29
2898.53
2902.59
2906.44
2910.02
2913.29
2916.18
2918.64
2920.55
2921.88
2922.55
2922.58
2921.54
2919.57
2916.35
2911.86
2905.86
2898.2
2888.64
2876.95
2862.9
2846.15
2826.63
2803.74
2777.26
2746.38
2711.36
2671.92
2627.77
2578.69
2523.96
2464.21
2398.5
2327.45
2251.14
2169.52
2081.73
1997.19
1899.95
1815.25
1733.78
1663.35
1521.78
2821.97
2810.8
2811.69
2808.01
2798.56
2788.48
2782.67
2781
2781.97
2787.95
2803.12
2823.29
2839.48
2846.63
2847.46
2844.65
2838.63
2832.02
2825.77
2820.28
2815.57
2811.94
2809.1
2806.88
2805.05
2803.54
2802.33
2801.47
2800.85
2800.35
2799.87
2799.32
2798.66
2797.99
2797.34
2796.72
2796.13
2795.55
2794.99
2794.5
2794.11
2793.86
2793.79
2793.91
2794.25
2794.82
2795.6
2796.61
2797.82
2799.23
2800.84
2802.62
2804.58
2806.7
2809.01
2811.49
2814.16
2817.02
2820.07
2823.3
2826.71
2830.29
2834.04
2837.96
2842.06
2846.33
2850.74
2855.3
2859.99
2864.81
2869.74
2874.74
2879.81
2884.92
2890.06
2895.21
2900.37
2905.51
2910.61
2915.63
2920.54
2925.3
2929.87
2934.2
2938.24
2941.93
2945.23
2948.06
2950.29
2951.89
2952.78
2952.93
2951.93
2949.88
2946.45
2941.59
2935.06
2926.65
2916.16
2903.27
2887.8
2869.16
2847.2
2821.38
2791.97
2758.34
2720.01
2676.53
2627.4
2573.12
2512.47
2446.09
2373.2
2294.98
2212.25
2122.96
2027.21
1925.03
1826.38
1738.25
1573.93
2815.99
2810.43
2812.35
2810.74
2803.76
2793.9
2786.14
2782.53
2782.1
2783.78
2789.32
2801.76
2817.6
2830.45
2836.82
2838.34
2835.67
2830.63
2825.44
2820.33
2815.63
2811.96
2809.1
2806.98
2805.36
2804.05
2802.99
2802.28
2801.83
2801.53
2801.29
2800.97
2800.54
2800.09
2799.69
2799.35
2799.04
2798.76
2798.47
2798.23
2798.08
2798.04
2798.19
2798.52
2799.06
2799.82
2800.81
2802.01
2803.42
2805.03
2806.83
2808.81
2810.97
2813.31
2815.83
2818.53
2821.42
2824.5
2827.77
2831.25
2834.9
2838.75
2842.76
2846.97
2851.35
2855.92
2860.66
2865.56
2870.61
2875.81
2881.14
2886.58
2892.11
2897.71
2903.37
2909.08
2914.83
2920.6
2926.37
2932.12
2937.81
2943.41
2948.88
2954.18
2959.27
2964.11
2968.63
2972.78
2976.49
2979.7
2982.26
2984.12
2985.2
2985.46
2984.51
2982.36
2978.73
2973.49
2966.4
2957.21
2945.67
2931.31
2914.07
2893.41
2869.36
2840.96
2807.92
2769.76
2726.01
2676.66
2620.79
2559.39
2491.21
2416.77
2336.1
2249.73
2161.59
2066.16
1965.53
1874.71
1699.52
2809.66
2809.86
2812.96
2812.61
2808.13
2799.54
2791.21
2785.79
2783.81
2784.02
2785.77
2789.75
2797.98
2808.89
2819.12
2826.07
2828.94
2827.82
2824.26
2819.84
2815.52
2811.88
2809.04
2807.03
2805.61
2804.49
2803.59
2803.02
2802.71
2802.61
2802.6
2802.52
2802.31
2802.09
2801.91
2801.82
2801.79
2801.8
2801.81
2801.83
2801.93
2802.13
2802.48
2803.01
2803.75
2804.71
2805.91
2807.31
2808.92
2810.72
2812.71
2814.89
2817.25
2819.79
2822.52
2825.43
2828.53
2831.83
2835.33
2839.03
2842.93
2847.01
2851.29
2855.75
2860.41
2865.27
2870.31
2875.53
2880.92
2886.47
2892.17
2898.01
2903.97
2910.02
2916.17
2922.39
2928.69
2935.03
2941.43
2947.85
2954.26
2960.64
2966.94
2973.15
2979.22
2985.11
2990.78
2996.18
3001.25
3005.91
3010.1
3013.74
3016.67
3018.85
3020.15
3020.53
3019.61
3017.32
3013.41
3007.65
2999.87
2989.67
2976.95
2961.08
2941.89
2918.45
2890.74
2858.14
2820.25
2776.8
2726.95
2670.95
2607.46
2537.34
2459.23
2373.89
2281.4
2185.63
2078.09
1988.07
1822.23
2804.01
2809.21
2813.44
2813.91
2811.45
2804.48
2796.42
2790.15
2786.7
2785.65
2785.91
2786.67
2788.19
2791.54
2798.22
2807.26
2815.37
2819.26
2819.35
2817.08
2814.19
2811.3
2808.86
2807.03
2805.67
2804.72
2804.05
2803.62
2803.45
2803.52
2803.76
2803.92
2803.96
2803.95
2803.97
2804.11
2804.36
2804.65
2804.94
2805.25
2805.6
2806.04
2806.61
2807.35
2808.29
2809.46
2810.86
2812.47
2814.28
2816.29
2818.47
2820.85
2823.4
2826.13
2829.05
2832.17
2835.48
2838.98
2842.7
2846.62
2850.74
2855.07
2859.58
2864.3
2869.22
2874.35
2879.68
2885.2
2890.9
2896.78
2902.84
2909.06
2915.41
2921.9
2928.49
2935.2
2942
2948.89
2955.86
2962.9
2969.97
2977.06
2984.13
2991.16
2998.12
3004.98
3011.68
3018.2
3024.49
3030.47
3036.1
3041.3
3045.98
3050.07
3053.4
3055.9
3057.44
3057.95
3057.08
3054.63
3050.41
3044.09
3035.52
3024.1
3009.68
2991.51
2969.67
2943.34
2912.21
2875.7
2833.01
2784.06
2727.6
2664.12
2592.33
2512.72
2424.12
2326.89
2220.79
2114.49
1931.66
2799.91
2807.86
2813.33
2815.01
2813.79
2808.45
2800.96
2794.61
2790.36
2788.24
2787.34
2786.62
2785.71
2783.26
2783.02
2787.43
2796.11
2804.92
2810.49
2812.46
2811.94
2810.07
2808.22
2806.74
2805.54
2804.79
2804.38
2804.12
2804.06
2804.29
2804.73
2805.15
2805.44
2805.66
2805.89
2806.24
2806.73
2807.29
2807.88
2808.47
2809.09
2809.79
2810.59
2811.54
2812.69
2814.05
2815.65
2817.46
2819.48
2821.69
2824.08
2826.64
2829.38
2832.31
2835.42
2838.73
2842.24
2845.95
2849.87
2854
2858.34
2862.89
2867.64
2872.59
2877.76
2883.14
2888.73
2894.54
2900.54
2906.73
2913.11
2919.67
2926.39
2933.27
2940.28
2947.42
2954.69
2962.07
2969.56
2977.16
2984.84
2992.58
3000.35
3008.13
3015.9
3023.63
3031.28
3038.83
3046.23
3053.43
3060.39
3067.02
3073.27
3079.06
3084.3
3088.89
3092.66
3095.5
3097.27
3097.91
3097.03
3094.35
3089.7
3082.58
3072.94
3060.1
3044.03
3023.72
2998.93
2968.78
2932.6
2890.07
2840.17
2783.11
2717.45
2643.56
2560.2
2470.3
2370.57
2269.33
2097.45
2796.92
2805.89
2812.97
2815.82
2815.36
2811.58
2804.87
2798.75
2794.27
2791.42
2789.62
2787.67
2785.46
2780.86
2775.7
2774.18
2777.75
2786.21
2795.75
2802.65
2806.12
2806.62
2806.01
2805.59
2805.12
2804.79
2804.55
2804.46
2804.61
2804.98
2805.57
2806.22
2806.77
2807.21
2807.65
2808.2
2808.91
2809.74
2810.6
2811.48
2812.37
2813.32
2814.37
2815.54
2816.9
2818.46
2820.26
2822.28
2824.5
2826.91
2829.5
2832.26
2835.19
2838.3
2841.6
2845.09
2848.79
2852.69
2856.81
2861.14
2865.69
2870.45
2875.42
2880.6
2885.99
2891.61
2897.46
2903.52
2909.8
2916.28
2922.96
2929.84
2936.91
2944.14
2951.53
2959.08
2966.78
2974.62
2982.59
2990.7
2998.93
3007.26
3015.67
3024.13
3032.63
3041.15
3049.66
3058.13
3066.52
3074.81
3082.94
3090.86
3098.51
3105.83
3112.74
3119.16
3124.99
3130.12
3134.35
3137.56
3139.59
3140.34
3139.42
3136.41
3131.26
3123.25
3112.35
3097.5
3078.6
3054.64
3025.2
2989.62
2946.86
2896.79
2838.16
2770.69
2692.27
2604.89
2502.87
2398.15
2233.03
2794.74
2803.71
2812.44
2816.34
2816.46
2814.09
2808.34
2802.55
2798.06
2794.74
2792.2
2789.41
2785.82
2780.13
2773.31
2767.61
2765.97
2769.39
2778.03
2788.16
2796.52
2801.29
2803.16
2804.1
2804.19
2804.39
2804.44
2804.57
2804.98
2805.59
2806.32
2807.15
2807.93
2808.6
2809.24
2809.98
2810.91
2811.98
2813.13
2814.28
2815.45
2816.67
2817.96
2819.37
2820.93
2822.7
2824.69
2826.9
2829.33
2831.95
2834.74
2837.69
2840.81
2844.1
2847.58
2851.26
2855.13
2859.22
2863.52
2868.04
2872.79
2877.75
2882.92
2888.31
2893.93
2899.77
2905.85
2912.16
2918.69
2925.43
2932.4
2939.57
2946.95
2954.51
2962.25
2970.17
2978.25
2986.5
2994.91
3003.48
3012.21
3021.07
3030.04
3039.12
3048.27
3057.49
3066.76
3076.05
3085.34
3094.6
3103.78
3112.85
3121.76
3130.46
3138.88
3146.94
3154.59
3161.7
3168.17
3173.87
3178.6
3182.18
3184.47
3185.32
3184.32
3180.84
3174.86
3165.44
3152.69
3135.46
3113.5
3085.8
3051.47
3010.05
2960.15
2900.87
2830.9
2749.8
2656.09
2552.15
2400.12
2793.22
2801.67
2811.64
2816.67
2817.47
2816.09
2811.4
2806.02
2801.59
2797.89
2794.63
2791.16
2786.4
2780.08
2772.44
2765.03
2759.97
2758.82
2762.65
2771.79
2782.83
2791.98
2797.65
2800.71
2802.25
2803.14
2803.93
2804.45
2805.17
2806.1
2807.03
2807.99
2808.94
2809.82
2810.66
2811.6
2812.74
2814.05
2815.45
2816.88
2818.32
2819.79
2821.33
2822.98
2824.77
2826.74
2828.93
2831.34
2833.97
2836.79
2839.78
2842.93
2846.24
2849.71
2853.36
2857.21
2861.26
2865.52
2870
2874.7
2879.63
2884.78
2890.15
2895.74
2901.56
2907.61
2913.9
2920.44
2927.2
2934.19
2941.41
2948.85
2956.51
2964.37
2972.43
2980.68
2989.12
2997.74
3006.55
3015.53
3024.7
3034.04
3043.53
3053.15
3062.89
3072.74
3082.69
3092.71
3102.79
3112.9
3123.02
3133.1
3143.11
3153.01
3162.75
3172.27
3181.51
3190.39
3198.81
3206.67
3213.82
3220.15
3225.4
3229.38
3231.92
3232.8
3231.54
3227.42
3220.53
3209.64
3194.67
3174.28
3147.7
3114.14
3072.24
3021.41
2960.01
2885.66
2799.09
2695.6
2556.23
2792.23
2799.93
2810.69
2816.87
2818.42
2817.68
2814.06
2809.19
2804.83
2800.77
2796.7
2792.36
2786.85
2780.05
2772.12
2763.95
2757.15
2753.31
2753.04
2757.72
2767.73
2779.5
2789.27
2795.92
2799.52
2801.48
2802.95
2804.06
2805.17
2806.42
2807.66
2808.75
2809.83
2810.89
2811.94
2813.09
2814.44
2815.99
2817.65
2819.33
2821.03
2822.75
2824.53
2826.41
2828.42
2830.6
2832.99
2835.6
2838.41
2841.43
2844.61
2847.95
2851.44
2855.09
2858.92
2862.93
2867.15
2871.57
2876.22
2881.09
2886.2
2891.52
2897.07
2902.85
2908.86
2915.11
2921.6
2928.35
2935.33
2942.55
2950
2957.69
2965.61
2973.74
2982.08
2990.63
2999.39
3008.35
3017.51
3026.87
3036.44
3046.19
3056.13
3066.24
3076.5
3086.9
3097.45
3108.11
3118.89
3129.75
3140.68
3151.64
3162.63
3173.58
3184.48
3195.27
3205.9
3216.32
3226.45
3236.2
3245.47
3254.13
3262.03
3269.05
3274.86
3279.26
3282.05
3282.94
3281.33
3276.27
3267.71
3254.25
3235.53
3210.26
3176.92
3134.76
3081.19
3014.53
2935.48
2838.22
2708.44
2791.61
2798.56
2809.76
2817.08
2819.27
2818.99
2816.36
2812.08
2807.77
2803.27
2798.29
2792.83
2786.73
2779.58
2771.59
2763.38
2755.85
2750.33
2747.83
2748.71
2754.74
2765.85
2778.32
2788.46
2795.03
2798.87
2801.34
2803.3
2804.92
2806.55
2808.11
2809.4
2810.6
2811.84
2813.11
2814.48
2816.04
2817.8
2819.69
2821.62
2823.56
2825.52
2827.54
2829.65
2831.89
2834.29
2836.88
2839.68
2842.69
2845.9
2849.27
2852.79
2856.47
2860.29
2864.28
2868.45
2872.83
2877.41
2882.22
2887.25
2892.51
2898.01
2903.73
2909.68
2915.86
2922.29
2928.97
2935.91
2943.09
2950.51
2958.18
2966.09
2974.24
2982.62
2991.22
3000.04
3009.08
3018.35
3027.82
3037.51
3047.43
3057.56
3067.9
3078.43
3089.15
3100.04
3111.1
3122.33
3133.71
3145.23
3156.86
3168.6
3180.42
3192.29
3204.18
3216.07
3227.91
3239.65
3251.25
3262.64
3273.73
3284.42
3294.6
3304.16
3312.89
3320.67
3327.07
3331.89
3334.84
3335.57
3333.21
3326.86
3316.14
3299.71
3276.44
3245.49
3203.1
3147.22
3075.79
2984.38
2862.2
2791.25
2797.59
2809
2817.32
2820.07
2820.2
2818.4
2814.64
2810.31
2805.21
2799.12
2792.65
2785.8
2778.43
2770.63
2762.71
2755.17
2748.79
2744.86
2743.71
2745.9
2753.75
2766.21
2779.04
2788.82
2795.21
2799.32
2802.16
2804.4
2806.44
2808.37
2809.99
2811.38
2812.79
2814.27
2815.84
2817.6
2819.56
2821.65
2823.8
2825.95
2828.14
2830.38
2832.71
2835.17
2837.79
2840.58
2843.58
2846.78
2850.17
2853.72
2857.43
2861.27
2865.26
2869.41
2873.75
2878.28
2883.02
2887.97
2893.16
2898.58
2904.23
2910.11
2916.22
2922.57
2929.17
2936.03
2943.14
2950.5
2958.12
2965.98
2974.1
2982.46
2991.06
2999.89
3008.96
3018.25
3027.78
3037.54
3047.52
3057.75
3068.21
3078.9
3089.81
3100.92
3112.24
3123.76
3135.47
3147.38
3159.46
3171.71
3184.11
3196.64
3209.29
3222.04
3234.86
3247.73
3260.6
3273.46
3286.23
3298.87
3311.3
3323.44
3335.18
3346.39
3356.94
3366.59
3375.2
3382.23
3387.53
3390.68
3391.27
3387.97
3380.01
3365.87
3344.7
3312.39
3267.37
3204.28
3121.31
3006.78
2791.08
2797
2808.54
2817.6
2820.86
2821.41
2820.2
2816.86
2812.29
2806.38
2799.15
2791.6
2784.09
2776.68
2769.19
2761.68
2754.47
2747.96
2743.16
2740.83
2740.94
2744.93
2754.95
2768.5
2781.1
2790.37
2796.38
2800.36
2803.41
2806.08
2808.5
2810.52
2812.15
2813.72
2815.38
2817.14
2819.08
2821.22
2823.51
2825.85
2828.22
2830.62
2833.08
2835.63
2838.31
2841.14
2844.14
2847.33
2850.72
2854.29
2858.01
2861.89
2865.9
2870.04
2874.35
2878.83
2883.51
2888.39
2893.49
2898.81
2904.38
2910.18
2916.2
2922.47
2928.97
2935.73
2942.74
2950.02
2957.55
2965.34
2973.39
2981.68
2990.24
2999.04
3008.08
3017.36
3026.88
3036.65
3046.66
3056.91
3067.41
3078.16
3089.16
3100.39
3111.86
3123.55
3135.46
3147.6
3159.95
3172.52
3185.3
3198.26
3211.41
3224.73
3238.21
3251.82
3265.56
3279.39
3293.3
3307.25
3321.19
3335.07
3348.85
3362.42
3375.73
3388.64
3401
3412.69
3423.4
3433.01
3440.74
3446.48
3449.56
3449.54
3443.88
3433.3
3413.55
3382.91
3331.22
3260.51
3152.33
2791.03
2796.81
2808.46
2818.06
2821.73
2822.6
2821.77
2818.64
2813.53
2806.58
2798.29
2789.68
2781.72
2774.38
2767.28
2760.28
2753.55
2747.36
2742.22
2738.98
2738.2
2739.55
2746.1
2758.28
2772.36
2784.3
2792.61
2798.14
2802.17
2805.57
2808.53
2810.97
2812.9
2814.67
2816.49
2818.43
2820.55
2822.86
2825.31
2827.84
2830.4
2832.99
2835.65
2838.42
2841.31
2844.35
2847.55
2850.94
2854.51
2858.25
2862.15
2866.18
2870.35
2874.65
2879.1
2883.72
2888.54
2893.56
2898.8
2904.26
2909.96
2915.9
2922.06
2928.47
2935.12
2942.02
2949.18
2956.61
2964.3
2972.25
2980.46
2988.93
2997.65
3006.63
3015.87
3025.34
3035.07
3045.05
3055.28
3065.77
3076.51
3087.52
3098.79
3110.32
3122.09
3134.1
3146.36
3158.86
3171.62
3184.61
3197.83
3211.29
3224.96
3238.85
3252.95
3267.24
3281.71
3296.35
3311.15
3326.07
3341.1
3356.2
3371.33
3386.44
3401.47
3416.35
3430.97
3445.22
3458.93
3471.93
3483.84
3494.54
3503.03
3509.35
3512.48
3511.97
3503.95
3487.23
3449.58
3397.42
3299.25
2791.05
2796.9
2808.79
2818.8
2822.69
2823.72
2823.04
2819.8
2813.84
2805.89
2796.28
2786.94
2778.81
2771.67
2765.01
2758.57
2752.4
2746.69
2741.53
2737.91
2736.35
2736.64
2740.07
2749.54
2763.5
2777.42
2788.07
2795.4
2800.65
2804.89
2808.44
2811.35
2813.63
2815.6
2817.59
2819.7
2821.99
2824.46
2827.09
2829.78
2832.51
2835.29
2838.14
2841.1
2844.19
2847.43
2850.83
2854.4
2858.15
2862.06
2866.11
2870.29
2874.6
2879.05
2883.64
2888.4
2893.35
2898.51
2903.87
2909.47
2915.3
2921.36
2927.66
2934.2
2940.98
2948.02
2955.33
2962.9
2970.74
2978.84
2987.2
2995.83
3004.71
3013.86
3023.27
3032.92
3042.84
3053.02
3063.45
3074.15
3085.11
3096.36
3107.87
3119.65
3131.7
3144
3156.57
3169.4
3182.49
3195.86
3209.48
3223.36
3237.49
3251.87
3266.5
3281.36
3296.46
3311.78
3327.33
3343.07
3359.01
3375.12
3391.37
3407.74
3424.19
3440.66
3457.12
3473.46
3489.6
3505.38
3520.66
3535.25
3548.71
3560.7
3570.09
3576.78
3579.59
3575.82
3556.08
3525.65
3452.71
2791.15
2797.37
2809.59
2819.81
2823.72
2824.69
2823.89
2820.1
2813.31
2803.83
2793.26
2783.6
2775.55
2768.74
2762.52
2756.64
2751.06
2745.85
2740.95
2737.15
2735.08
2734.68
2736.38
2742.93
2755.45
2770.29
2783.03
2792.27
2798.95
2804.15
2808.38
2811.73
2814.36
2816.55
2818.7
2820.98
2823.43
2826.07
2828.84
2831.69
2834.58
2837.53
2840.56
2843.71
2846.99
2850.42
2854.02
2857.77
2861.68
2865.75
2869.95
2874.27
2878.72
2883.29
2888.01
2892.9
2897.98
2903.26
2908.75
2914.47
2920.42
2926.61
2933.03
2939.69
2946.6
2953.77
2961.21
2968.92
2976.9
2985.14
2993.64
3002.41
3011.45
3020.75
3030.32
3040.14
3050.23
3060.58
3071.2
3082.09
3093.26
3104.71
3116.45
3128.47
3140.76
3153.32
3166.16
3179.28
3192.69
3206.38
3220.35
3234.6
3249.13
3263.94
3279.03
3294.39
3310.03
3325.93
3342.11
3358.56
3375.26
3392.21
3409.4
3426.8
3444.42
3462.2
3480.13
3498.16
3516.25
3534.3
3552.21
3569.83
3586.97
3603.36
3618.55
3631.94
3642.75
3649.46
3649.31
3635.09
3599.64
2791.4
2798.23
2810.84
2821.03
2824.8
2825.39
2824.18
2819.62
2811.29
2800.53
2789.47
2779.89
2772.15
2765.74
2759.96
2754.59
2749.58
2744.84
2740.28
2736.5
2734.08
2733.31
2733.94
2738.27
2748.73
2763.53
2777.83
2788.93
2797.14
2803.38
2808.29
2812.11
2815.06
2817.49
2819.81
2822.26
2824.88
2827.67
2830.58
2833.57
2836.61
2839.71
2842.91
2846.23
2849.69
2853.3
2857.07
2861
2865.07
2869.29
2873.63
2878.08
2882.65
2887.35
2892.2
2897.21
2902.41
2907.81
2913.42
2919.26
2925.33
2931.63
2938.17
2944.95
2951.99
2959.29
2966.85
2974.69
2982.8
2991.17
2999.81
3008.72
3017.9
3027.35
3037.07
3047.04
3057.29
3067.82
3078.61
3089.69
3101.05
3112.7
3124.64
3136.88
3149.4
3162.2
3175.3
3188.69
3202.37
3216.36
3230.65
3245.24
3260.13
3275.33
3290.83
3306.63
3322.74
3339.15
3355.88
3372.92
3390.27
3407.93
3425.89
3444.15
3462.71
3481.54
3500.65
3520.01
3539.6
3559.37
3579.28
3599.24
3619.14
3638.88
3658.12
3676.63
3693.89
3708.44
3719.85
3722.05
3719.55
2791.81
2799.5
2812.54
2822.31
2825.78
2825.75
2823.79
2817.77
2807.87
2796.23
2785.18
2776.01
2768.74
2762.77
2757.42
2752.48
2748
2743.67
2739.48
2735.82
2733.23
2732.23
2732.25
2735.05
2743.55
2757.58
2772.81
2785.6
2795.33
2802.64
2808.24
2812.5
2815.77
2818.42
2820.92
2823.54
2826.33
2829.27
2832.31
2835.43
2838.61
2841.86
2845.22
2848.7
2852.33
2856.12
2860.05
2864.14
2868.36
2872.71
2877.17
2881.74
2886.42
2891.24
2896.2
2901.33
2906.65
2912.16
2917.88
2923.83
2930.01
2936.43
2943.08
2949.97
2957.12
2964.54
2972.23
2980.19
2988.42
2996.92
3005.69
3014.73
3024.05
3033.63
3043.49
3053.61
3064.01
3074.69
3085.65
3096.9
3108.43
3120.27
3132.41
3144.84
3157.58
3170.6
3183.93
3197.56
3211.51
3225.77
3240.35
3255.24
3270.46
3286
3301.86
3318.05
3334.58
3351.44
3368.64
3386.19
3404.09
3422.33
3440.94
3459.89
3479.21
3498.87
3518.9
3539.25
3559.97
3580.99
3602.32
3623.89
3645.65
3667.55
3689.28
3710.84
3731.56
3751.43
3768.47
3779.96
3792.82
2792.46
2801.23
2814.59
2823.45
2826.3
2825.76
2822.38
2814.5
2803.25
2791.26
2780.62
2772.09
2765.37
2759.86
2754.91
2750.35
2746.32
2742.37
2738.54
2735.07
2732.46
2731.28
2731.06
2732.77
2739.72
2752.72
2768.33
2782.49
2793.65
2802.01
2808.27
2812.94
2816.49
2819.36
2822.04
2824.82
2827.77
2830.85
2834.01
2837.24
2840.54
2843.94
2847.44
2851.08
2854.87
2858.82
2862.92
2867.16
2871.52
2875.99
2880.57
2885.25
2890.04
2894.95
2900.02
2905.26
2910.69
2916.3
2922.13
2928.19
2934.48
2941
2947.76
2954.76