/*--------------------------------*- C++ -*----------------------------------*\
| =========                 |                                                 |
| \\      /  F ield         | OpenFOAM: The Open Source CFD Toolbox           |
|  \\    /   O peration     | Version:  2412                                  |
|   \\  /    A nd           | Website:  www.openfoam.com                      |
|    \\/     M anipulation  |                                                 |
\*---------------------------------------------------------------------------*/
FoamFile
{
    version     2.0;
    format      ascii;
    arch        "LSB;label=32;scalar=64";
    class       volScalarField;
    location    "0.076";
    object      T;
}
// * * * * * * * * * * * * * * * * * * * * * * * * * * * * * * * * * * * * * //

dimensions      [0 0 0 1 0 0 0];

internalField   nonuniform List<scalar> 
78650
(
227.958
225.408
225.42
225.481
225.576
225.651
225.689
225.692
225.664
225.597
225.493
225.349
225.163
224.953
224.741
224.537
224.346
224.167
223.999
223.845
223.704
223.576
223.461
223.357
223.262
223.173
223.085
222.996
222.904
222.81
222.716
222.622
222.531
222.442
222.354
222.27
222.187
222.109
222.034
221.963
221.897
221.835
221.779
221.727
221.679
221.636
221.597
221.562
221.53
221.501
221.474
221.45
221.428
221.408
221.39
221.374
221.358
221.344
221.33
221.315
221.301
221.286
221.269
221.25
221.228
221.203
221.172
221.136
221.092
221.04
220.977
220.904
220.818
220.719
220.603
220.47
220.315
220.138
219.936
219.704
219.44
219.14
218.801
218.419
217.991
217.51
216.973
216.373
215.704
214.961
214.146
213.252
212.274
211.196
210.035
208.767
207.403
205.946
204.323
202.569
200.779
198.989
197.197
195.322
193.284
191.242
189.096
186.94
184.922
182.977
181.182
179.534
177.953
176.482
175.114
173.844
172.793
171.973
171.486
171.249
169.921
227.299
225.198
225.306
225.398
225.514
225.615
225.674
225.687
225.665
225.603
225.5
225.357
225.17
224.96
224.743
224.537
224.343
224.163
223.995
223.84
223.699
223.573
223.459
223.358
223.266
223.182
223.1
223.017
222.932
222.844
222.755
222.666
222.58
222.495
222.412
222.331
222.253
222.178
222.107
222.04
221.978
221.92
221.867
221.819
221.776
221.737
221.702
221.671
221.643
221.619
221.598
221.579
221.562
221.548
221.536
221.526
221.518
221.51
221.504
221.498
221.492
221.485
221.478
221.47
221.459
221.445
221.428
221.405
221.377
221.34
221.296
221.241
221.175
221.098
221.007
220.9
220.774
220.628
220.46
220.266
220.042
219.787
219.496
219.166
218.794
218.373
217.901
217.37
216.777
216.119
215.391
214.585
213.694
212.71
211.646
210.479
209.222
207.847
206.373
204.78
203.06
201.261
199.369
197.537
195.604
193.688
191.724
189.62
187.579
185.542
183.521
181.642
179.852
178.168
176.646
175.25
174.07
173.1
172.418
172.025
170.47
226.62
224.901
225.116
225.262
225.409
225.542
225.632
225.661
225.652
225.601
225.502
225.359
225.173
224.962
224.742
224.533
224.336
224.155
223.986
223.832
223.692
223.567
223.456
223.358
223.27
223.19
223.114
223.038
222.959
222.878
222.795
222.711
222.629
222.549
222.471
222.394
222.32
222.249
222.182
222.118
222.06
222.006
221.957
221.913
221.874
221.839
221.809
221.782
221.759
221.74
221.723
221.709
221.698
221.69
221.684
221.681
221.679
221.679
221.68
221.682
221.684
221.687
221.69
221.691
221.691
221.689
221.684
221.675
221.661
221.641
221.613
221.576
221.53
221.474
221.406
221.324
221.225
221.108
220.972
220.812
220.626
220.411
220.164
219.882
219.56
219.196
218.784
218.32
217.798
217.214
216.562
215.834
215.027
214.138
213.168
212.093
210.927
209.652
208.292
206.837
205.259
203.576
201.713
199.784
197.852
195.829
193.934
191.894
189.847
187.857
185.766
183.739
181.769
179.877
178.132
176.579
175.277
174.17
173.386
172.894
171.098
225.969
224.517
224.815
225.043
225.252
225.423
225.548
225.609
225.618
225.584
225.496
225.355
225.171
224.96
224.738
224.525
224.326
224.143
223.975
223.821
223.683
223.561
223.452
223.358
223.273
223.198
223.127
223.058
222.987
222.912
222.835
222.757
222.68
222.604
222.531
222.459
222.389
222.322
222.259
222.199
222.144
222.094
222.049
222.009
221.974
221.944
221.918
221.895
221.877
221.862
221.851
221.842
221.836
221.834
221.834
221.836
221.841
221.848
221.856
221.866
221.876
221.888
221.899
221.911
221.921
221.93
221.937
221.941
221.941
221.935
221.924
221.905
221.878
221.841
221.795
221.736
221.664
221.575
221.469
221.342
221.193
221.018
220.814
220.579
220.309
220
219.648
219.247
218.793
218.281
217.706
217.062
216.346
215.553
214.678
213.704
212.645
211.48
210.231
208.866
207.392
205.799
204.083
202.2
200.321
198.287
196.19
194.175
192.04
190.024
187.957
185.904
183.869
181.852
179.858
178.037
176.55
175.372
174.547
174.007
171.975
225.347
224.055
224.396
224.714
225.008
225.243
225.414
225.512
225.546
225.534
225.469
225.338
225.159
224.949
224.727
224.512
224.311
224.127
223.96
223.809
223.674
223.554
223.448
223.357
223.276
223.205
223.14
223.078
223.014
222.946
222.876
222.804
222.732
222.661
222.593
222.525
222.46
222.397
222.338
222.282
222.231
222.185
222.144
222.108
222.077
222.051
222.03
222.012
221.998
221.988
221.982
221.978
221.978
221.981
221.987
221.995
222.006
222.02
222.035
222.052
222.071
222.091
222.111
222.132
222.153
222.172
222.191
222.207
222.22
222.229
222.233
222.231
222.222
222.205
222.179
222.143
222.095
222.032
221.955
221.859
221.744
221.605
221.441
221.248
221.025
220.765
220.468
220.126
219.738
219.297
218.799
218.237
217.61
216.908
216.125
215.25
214.293
213.237
212.09
210.816
209.431
207.93
206.322
204.608
202.764
200.873
198.781
196.73
194.556
192.332
190.217
188.08
186.035
184.009
181.988
180.001
178.164
176.588
175.523
174.882
172.657
224.856
223.608
223.885
224.235
224.643
224.984
225.228
225.372
225.44
225.448
225.41
225.3
225.132
224.926
224.708
224.493
224.293
224.11
223.944
223.796
223.664
223.547
223.445
223.357
223.28
223.213
223.154
223.098
223.041
222.981
222.918
222.852
222.785
222.72
222.656
222.594
222.534
222.475
222.42
222.368
222.321
222.279
222.242
222.21
222.184
222.162
222.145
222.132
222.123
222.117
222.116
222.117
222.122
222.131
222.142
222.156
222.174
222.194
222.216
222.241
222.267
222.295
222.324
222.354
222.384
222.414
222.443
222.472
222.498
222.52
222.539
222.552
222.56
222.562
222.556
222.541
222.517
222.48
222.429
222.363
222.28
222.177
222.052
221.901
221.723
221.513
221.27
220.987
220.662
220.288
219.861
219.375
218.826
218.206
217.511
216.735
215.882
214.93
213.881
212.71
211.44
210.057
208.564
206.964
205.207
203.402
201.448
199.358
197.291
194.984
192.77
190.465
188.207
186.043
183.942
182.056
180.261
178.62
177.168
176.104
173.258
224.575
223.336
223.468
223.703
224.124
224.578
224.95
225.184
225.304
225.339
225.322
225.241
225.088
224.889
224.678
224.467
224.27
224.09
223.927
223.782
223.654
223.541
223.443
223.358
223.285
223.223
223.168
223.118
223.068
223.016
222.959
222.9
222.84
222.78
222.721
222.664
222.609
222.555
222.505
222.457
222.414
222.375
222.342
222.315
222.292
222.275
222.263
222.254
222.25
222.25
222.253
222.26
222.27
222.284
222.301
222.321
222.345
222.371
222.4
222.432
222.465
222.501
222.538
222.577
222.617
222.657
222.697
222.737
222.775
222.811
222.844
222.873
222.897
222.915
222.928
222.933
222.931
222.918
222.894
222.855
222.802
222.732
222.642
222.529
222.393
222.228
222.033
221.804
221.536
221.225
220.866
220.456
219.989
219.458
218.861
218.188
217.435
216.584
215.638
214.584
213.442
212.189
210.818
209.317
207.695
205.912
204.074
202.054
200.042
197.84
195.566
193.322
190.883
188.546
186.138
183.92
181.963
180.393
179.145
178.171
175.191
224.443
223.298
223.259
223.265
223.531
224.012
224.523
224.906
225.125
225.21
225.212
225.158
225.025
224.839
224.637
224.434
224.243
224.068
223.908
223.768
223.644
223.535
223.442
223.361
223.292
223.233
223.183
223.138
223.095
223.05
223.002
222.949
222.895
222.841
222.788
222.736
222.686
222.637
222.591
222.548
222.509
222.475
222.446
222.422
222.404
222.391
222.383
222.38
222.38
222.385
222.393
222.405
222.42
222.439
222.462
222.488
222.517
222.55
222.586
222.624
222.665
222.708
222.754
222.801
222.85
222.9
222.95
223
223.05
223.099
223.145
223.188
223.228
223.263
223.294
223.318
223.336
223.345
223.346
223.334
223.311
223.271
223.215
223.14
223.044
222.923
222.776
222.599
222.387
222.138
221.846
221.506
221.114
220.664
220.149
219.564
218.903
218.154
217.321
216.395
215.38
214.248
212.995
211.606
210.084
208.447
206.675
204.796
202.711
200.653
198.37
196.171
193.795
191.395
188.967
186.44
184.044
181.909
180.365
179.389
176.495
224.378
223.333
223.205
223.059
223.117
223.414
223.936
224.483
224.863
225.046
225.088
225.065
224.96
224.789
224.591
224.393
224.208
224.039
223.885
223.751
223.633
223.531
223.442
223.366
223.301
223.246
223.2
223.16
223.122
223.084
223.043
222.998
222.951
222.902
222.855
222.808
222.763
222.72
222.679
222.641
222.607
222.577
222.551
222.532
222.518
222.509
222.506
222.507
222.513
222.522
222.535
222.552
222.573
222.597
222.625
222.657
222.692
222.731
222.773
222.819
222.866
222.917
222.97
223.026
223.083
223.142
223.202
223.263
223.324
223.385
223.444
223.502
223.556
223.607
223.654
223.697
223.735
223.765
223.787
223.8
223.804
223.794
223.77
223.729
223.669
223.588
223.484
223.354
223.194
223
222.769
222.496
222.176
221.804
221.376
220.884
220.322
219.682
218.965
218.155
217.25
216.221
215.075
213.806
212.417
210.905
209.251
207.462
205.523
203.488
201.295
198.935
196.662
194.219
191.818
189.488
187.111
184.909
182.834
181.244
177.399
224.297
223.392
223.245
223.031
222.93
223.015
223.344
223.9
224.457
224.825
224.964
224.97
224.896
224.747
224.555
224.359
224.177
224.01
223.862
223.735
223.624
223.527
223.444
223.373
223.311
223.259
223.217
223.182
223.15
223.118
223.084
223.046
223.005
222.964
222.922
222.882
222.842
222.804
222.768
222.735
222.706
222.68
222.659
222.644
222.634
222.629
222.63
222.636
222.646
222.661
222.679
222.701
222.727
222.757
222.79
222.827
222.868
222.913
222.961
223.013
223.068
223.126
223.186
223.25
223.315
223.383
223.453
223.524
223.595
223.667
223.739
223.809
223.878
223.944
224.007
224.067
224.123
224.173
224.218
224.254
224.281
224.298
224.305
224.297
224.273
224.231
224.169
224.084
223.973
223.833
223.66
223.45
223.198
222.901
222.551
222.143
221.673
221.131
220.517
219.813
219.014
218.103
217.092
215.974
214.736
213.362
211.835
210.179
208.391
206.396
204.332
201.991
199.594
197.098
194.523
191.979
189.523
187.39
185.598
184.172
180.387
224.18
223.447
223.326
223.08
222.909
222.857
222.956
223.314
223.891
224.437
224.755
224.852
224.829
224.717
224.536
224.342
224.16
223.991
223.845
223.72
223.615
223.524
223.447
223.38
223.323
223.275
223.236
223.204
223.177
223.151
223.123
223.092
223.058
223.023
222.988
222.954
222.92
222.888
222.857
222.829
222.804
222.784
222.767
222.756
222.751
222.75
222.756
222.766
222.781
222.801
222.824
222.851
222.882
222.917
222.956
222.998
223.045
223.096
223.15
223.208
223.27
223.334
223.402
223.473
223.547
223.623
223.702
223.782
223.864
223.947
224.03
224.113
224.194
224.275
224.353
224.429
224.502
224.572
224.636
224.694
224.745
224.788
224.82
224.841
224.85
224.844
224.82
224.776
224.71
224.619
224.499
224.348
224.161
223.933
223.659
223.334
222.954
222.509
221.996
221.397
220.714
219.935
219.068
218.092
216.993
215.758
214.376
212.859
211.189
209.375
207.389
205.264
202.936
200.477
197.935
195.07
192.345
189.683
187.428
185.777
181.655
224.037
223.477
223.416
223.195
222.959
222.839
222.813
222.929
223.307
223.884
224.395
224.658
224.714
224.66
224.513
224.333
224.156
223.985
223.838
223.712
223.607
223.521
223.448
223.387
223.335
223.29
223.255
223.227
223.204
223.183
223.161
223.136
223.109
223.081
223.053
223.025
222.998
222.971
222.946
222.923
222.903
222.888
222.876
222.869
222.868
222.872
222.882
222.897
222.916
222.94
222.969
223.001
223.037
223.077
223.121
223.169
223.221
223.277
223.338
223.402
223.47
223.541
223.616
223.694
223.775
223.86
223.947
224.036
224.127
224.22
224.314
224.409
224.503
224.597
224.69
224.781
224.87
224.957
225.04
225.119
225.192
225.258
225.317
225.366
225.404
225.43
225.442
225.44
225.416
225.373
225.303
225.206
225.078
224.914
224.711
224.462
224.163
223.807
223.389
222.896
222.331
221.68
220.942
220.09
219.116
218.013
216.774
215.399
213.862
212.176
210.332
208.317
206.134
203.795
201.411
198.804
196.051
193.525
190.96
188.857
183.979
223.889
223.486
223.479
223.326
223.07
222.874
222.796
222.795
222.927
223.31
223.854
224.307
224.519
224.55
224.477
224.326
224.156
223.987
223.839
223.71
223.602
223.517
223.449
223.393
223.346
223.306
223.273
223.249
223.231
223.214
223.198
223.179
223.158
223.136
223.115
223.093
223.073
223.052
223.033
223.016
223.001
222.99
222.984
222.982
222.985
222.994
223.008
223.027
223.051
223.08
223.113
223.15
223.191
223.236
223.286
223.339
223.396
223.458
223.524
223.594
223.668
223.746
223.827
223.912
224.001
224.093
224.188
224.286
224.386
224.489
224.594
224.699
224.805
224.911
225.018
225.123
225.227
225.33
225.431
225.529
225.622
225.71
225.792
225.867
225.934
225.99
226.033
226.064
226.079
226.08
226.056
226.011
225.937
225.834
225.696
225.52
225.3
225.03
224.704
224.315
223.859
223.321
222.695
221.961
221.12
220.164
219.082
217.864
216.486
214.959
213.249
211.362
209.289
207.014
204.499
202.007
199.07
196.508
194.138
192.248
187.653
223.75
223.489
223.511
223.424
223.202
222.964
222.827
222.787
222.81
222.952
223.31
223.783
224.162
224.329
224.348
224.283
224.142
223.988
223.842
223.713
223.603
223.517
223.451
223.399
223.355
223.32
223.291
223.271
223.256
223.245
223.233
223.22
223.205
223.189
223.174
223.159
223.145
223.132
223.118
223.107
223.097
223.092
223.09
223.093
223.101
223.114
223.133
223.156
223.185
223.218
223.256
223.298
223.344
223.394
223.448
223.507
223.569
223.636
223.708
223.783
223.863
223.947
224.035
224.126
224.222
224.321
224.424
224.53
224.639
224.751
224.865
224.98
225.097
225.215
225.334
225.453
225.571
225.689
225.806
225.921
226.033
226.142
226.246
226.345
226.437
226.521
226.596
226.66
226.711
226.747
226.767
226.771
226.748
226.701
226.623
226.513
226.364
226.172
225.932
225.636
225.28
224.849
224.339
223.735
223.043
222.245
221.327
220.275
219.072
217.723
216.194
214.489
212.579
210.48
208.205
205.685
202.918
199.928
197.091
194.659
189.408
223.611
223.481
223.526
223.489
223.325
223.092
222.909
222.824
222.813
222.853
222.984
223.278
223.65
223.951
224.1
224.135
224.073
223.955
223.834
223.714
223.604
223.518
223.451
223.401
223.363
223.332
223.307
223.29
223.279
223.272
223.267
223.259
223.249
223.239
223.229
223.221
223.214
223.207
223.2
223.195
223.191
223.19
223.194
223.201
223.214
223.232
223.255
223.284
223.317
223.355
223.397
223.444
223.494
223.549
223.608
223.672
223.739
223.811
223.888
223.969
224.055
224.144
224.238
224.336
224.438
224.544
224.654
224.768
224.885
225.005
225.128
225.254
225.381
225.51
225.64
225.771
225.903
226.035
226.167
226.298
226.427
226.555
226.679
226.799
226.915
227.024
227.127
227.22
227.304
227.376
227.434
227.476
227.5
227.506
227.484
227.436
227.354
227.235
227.075
226.867
226.605
226.277
225.883
225.408
224.853
224.192
223.418
222.516
221.47
220.277
218.907
217.378
215.648
213.719
211.581
209.24
206.803
204.14
201.366
198.971
193.654
223.462
223.468
223.541
223.533
223.427
223.225
223.029
222.901
222.854
222.859
222.9
222.994
223.188
223.445
223.686
223.849
223.916
223.89
223.806
223.703
223.601
223.516
223.449
223.402
223.368
223.342
223.321
223.307
223.3
223.298
223.298
223.296
223.291
223.285
223.281
223.279
223.279
223.279
223.279
223.279
223.282
223.286
223.295
223.307
223.325
223.347
223.375
223.408
223.446
223.488
223.535
223.586
223.642
223.701
223.765
223.833
223.906
223.983
224.065
224.151
224.242
224.337
224.437
224.54
224.649
224.761
224.878
224.999
225.123
225.251
225.383
225.517
225.654
225.793
225.934
226.076
226.22
226.364
226.51
226.656
226.801
226.946
227.089
227.229
227.366
227.498
227.626
227.747
227.861
227.965
228.059
228.141
228.206
228.255
228.284
228.292
228.271
228.22
228.132
228.003
227.829
227.6
227.313
226.954
226.518
225.982
225.346
224.591
223.706
222.682
221.492
220.137
218.576
216.818
214.819
212.588
210.127
207.554
204.669
202.352
197.53
223.33
223.453
223.552
223.563
223.505
223.341
223.152
223.004
222.922
222.897
222.903
222.922
222.957
223.037
223.194
223.407
223.598
223.689
223.691
223.638
223.57
223.502
223.445
223.402
223.37
223.347
223.332
223.322
223.318
223.319
223.325
223.329
223.33
223.329
223.33
223.333
223.339
223.346
223.353
223.36
223.368
223.378
223.392
223.409
223.431
223.459
223.492
223.529
223.572
223.619
223.67
223.726
223.786
223.85
223.918
223.991
224.068
224.15
224.237
224.328
224.424
224.524
224.629
224.739
224.853
224.971
225.094
225.222
225.353
225.489
225.628
225.771
225.916
226.065
226.215
226.368
226.523
226.68
226.838
226.997
227.157
227.317
227.477
227.635
227.791
227.945
228.095
228.241
228.381
228.514
228.64
228.755
228.859
228.95
229.023
229.079
229.113
229.124
229.104
229.05
228.956
228.816
228.625
228.37
228.048
227.64
227.147
226.55
225.838
224.997
224.004
222.853
221.506
219.966
218.192
216.189
213.926
211.42
208.691
205.989
200.859
223.234
223.421
223.55
223.589
223.56
223.435
223.259
223.109
223.009
222.958
222.937
222.92
222.899
222.841
222.835
222.94
223.145
223.352
223.483
223.529
223.517
223.473
223.43
223.395
223.367
223.349
223.339
223.333
223.332
223.337
223.348
223.358
223.364
223.369
223.375
223.383
223.395
223.408
223.422
223.436
223.45
223.466
223.485
223.508
223.535
223.567
223.604
223.647
223.694
223.746
223.802
223.862
223.926
223.994
224.067
224.144
224.226
224.312
224.404
224.5
224.601
224.706
224.816
224.931
225.05
225.174
225.303
225.437
225.575
225.717
225.863
226.014
226.167
226.324
226.484
226.646
226.811
226.978
227.148
227.319
227.493
227.667
227.841
228.016
228.189
228.362
228.533
228.7
228.865
229.024
229.178
229.325
229.463
229.591
229.706
229.807
229.889
229.952
229.99
230.004
229.985
229.926
229.824
229.667
229.454
229.17
228.813
228.361
227.805
227.126
226.304
225.328
224.17
222.825
221.253
219.456
217.403
215.177
212.723
210.261
205.678
223.163
223.374
223.541
223.608
223.597
223.508
223.351
223.206
223.101
223.034
222.991
222.945
222.893
222.784
222.662
222.626
222.71
222.911
223.136
223.299
223.38
223.392
223.378
223.368
223.357
223.349
223.344
223.341
223.345
223.354
223.367
223.383
223.396
223.406
223.416
223.429
223.446
223.465
223.486
223.506
223.527
223.55
223.574
223.602
223.633
223.67
223.712
223.76
223.812
223.868
223.929
223.993
224.062
224.134
224.211
224.292
224.379
224.469
224.565
224.666
224.771
224.881
224.996
225.116
225.24
225.37
225.504
225.644
225.788
225.936
226.089
226.246
226.407
226.572
226.74
226.911
227.085
227.262
227.442
227.624
227.809
227.996
228.184
228.373
228.563
228.752
228.941
229.129
229.314
229.497
229.676
229.85
230.018
230.179
230.33
230.47
230.597
230.709
230.801
230.87
230.914
230.93
230.91
230.845
230.732
230.558
230.319
229.994
229.578
229.048
228.393
227.595
226.627
225.479
224.115
222.525
220.659
218.573
216.141
213.655
209.419
223.112
223.323
223.529
223.62
223.623
223.567
223.432
223.296
223.19
223.112
223.052
222.986
222.901
222.767
222.605
222.47
222.431
222.512
222.717
222.957
223.154
223.267
223.311
223.333
223.335
223.34
223.341
223.344
223.354
223.368
223.385
223.404
223.423
223.439
223.454
223.471
223.493
223.518
223.545
223.572
223.6
223.628
223.658
223.691
223.728
223.769
223.816
223.868
223.925
223.986
224.051
224.12
224.193
224.269
224.35
224.436
224.526
224.621
224.721
224.825
224.935
225.05
225.169
225.294
225.423
225.558
225.697
225.842
225.991
226.145
226.304
226.468
226.636
226.807
226.983
227.162
227.344
227.53
227.719
227.912
228.107
228.305
228.505
228.707
228.91
229.115
229.32
229.525
229.729
229.933
230.134
230.332
230.527
230.716
230.899
231.075
231.24
231.394
231.534
231.657
231.758
231.835
231.885
231.902
231.881
231.806
231.677
231.473
231.197
230.822
230.343
229.735
228.976
228.051
226.922
225.567
223.957
222.094
219.949
217.571
213.848
223.076
223.275
223.51
223.628
223.647
223.614
223.504
223.378
223.273
223.186
223.109
223.028
222.915
222.766
222.584
222.409
222.288
222.261
222.352
222.569
222.831
223.047
223.181
223.253
223.289
223.31
223.329
223.341
223.358
223.38
223.402
223.424
223.447
223.467
223.487
223.509
223.536
223.567
223.6
223.633
223.667
223.701
223.737
223.776
223.818
223.864
223.915
223.972
224.033
224.099
224.169
224.242
224.319
224.4
224.485
224.574
224.668
224.767
224.871
224.98
225.093
225.212
225.336
225.465
225.599
225.737
225.882
226.031
226.186
226.345
226.51
226.679
226.853
227.031
227.213
227.399
227.589
227.783
227.98
228.181
228.386
228.594
228.805
229.018
229.234
229.452
229.671
229.891
230.112
230.334
230.554
230.774
230.992
231.206
231.417
231.623
231.822
232.012
232.193
232.361
232.514
232.649
232.761
232.846
232.9
232.918
232.891
232.803
232.656
232.423
232.102
231.663
231.087
230.354
229.43
228.298
226.927
225.275
223.365
221.073
217.797
223.053
223.234
223.487
223.633
223.669
223.652
223.567
223.452
223.35
223.254
223.158
223.056
222.926
222.765
222.577
222.383
222.221
222.13
222.123
222.235
222.473
222.752
222.983
223.14
223.225
223.271
223.306
223.332
223.358
223.387
223.416
223.442
223.468
223.492
223.517
223.544
223.576
223.612
223.651
223.691
223.73
223.771
223.812
223.856
223.903
223.954
224.01
224.071
224.137
224.207
224.281
224.359
224.44
224.525
224.614
224.707
224.805
224.907
225.015
225.127
225.245
225.368
225.496
225.628
225.766
225.909
226.058
226.212
226.371
226.536
226.705
226.879
227.059
227.242
227.431
227.623
227.82
228.021
228.226
228.434
228.647
228.864
229.085
229.308
229.535
229.764
229.995
230.229
230.464
230.701
230.939
231.177
231.414
231.651
231.886
232.117
232.345
232.568
232.784
232.992
233.188
233.372
233.539
233.687
233.81
233.903
233.961
233.979
233.945
233.838
233.657
233.372
232.974
232.434
231.714
230.797
229.633
228.197
226.514
224.436
221.499
223.038
223.202
223.466
223.637
223.689
223.682
223.621
223.52
223.419
223.313
223.196
223.067
222.923
222.754
222.564
222.369
222.19
222.059
221.999
222.02
222.164
222.428
222.724
222.964
223.119
223.21
223.268
223.314
223.352
223.391
223.427
223.457
223.486
223.515
223.545
223.577
223.613
223.655
223.699
223.744
223.789
223.835
223.883
223.932
223.984
224.04
224.101
224.166
224.236
224.311
224.39
224.472
224.557
224.646
224.738
224.835
224.936
225.042
225.153
225.269
225.391
225.517
225.648
225.785
225.927
226.074
226.226
226.384
226.548
226.717
226.89
227.07
227.254
227.443
227.636
227.834
228.037
228.244
228.456
228.671
228.892
229.116
229.345
229.577
229.813
230.052
230.294
230.54
230.788
231.038
231.29
231.544
231.798
232.054
232.309
232.563
232.815
233.065
233.312
233.552
233.787
234.012
234.226
234.426
234.609
234.771
234.905
235.005
235.066
235.081
235.032
234.899
234.675
234.33
233.838
233.179
232.281
231.114
229.647
227.764
225.1
223.03
223.179
223.448
223.643
223.707
223.71
223.669
223.58
223.478
223.359
223.215
223.063
222.901
222.727
222.542
222.353
222.174
222.022
221.928
221.9
221.953
222.14
222.437
222.741
222.973
223.123
223.22
223.287
223.34
223.388
223.433
223.471
223.504
223.537
223.572
223.609
223.65
223.696
223.745
223.795
223.846
223.897
223.949
224.004
224.061
224.122
224.187
224.257
224.332
224.411
224.493
224.579
224.669
224.761
224.857
224.958
225.062
225.172
225.286
225.405
225.53
225.66
225.795
225.935
226.08
226.231
226.387
226.549
226.716
226.889
227.067
227.25
227.439
227.633
227.831
228.034
228.242
228.455
228.672
228.894
229.121
229.352
229.588
229.828
230.072
230.319
230.571
230.826
231.084
231.346
231.611
231.878
232.147
232.418
232.691
232.964
233.237
233.51
233.781
234.05
234.316
234.576
234.83
235.074
235.307
235.526
235.726
235.904
236.048
236.157
236.222
236.234
236.166
236.001
235.706
235.264
234.593
233.678
232.427
230.779
228.367
223.026
223.165
223.437
223.65
223.726
223.739
223.711
223.632
223.525
223.386
223.216
223.038
222.861
222.685
222.507
222.329
222.157
222.002
221.887
221.832
221.834
221.93
222.169
222.491
222.79
223.009
223.151
223.245
223.317
223.379
223.436
223.484
223.522
223.559
223.598
223.639
223.685
223.735
223.788
223.843
223.899
223.955
224.012
224.072
224.134
224.2
224.27
224.345
224.423
224.506
224.593
224.683
224.776
224.872
224.971
225.075
225.183
225.296
225.413
225.536
225.663
225.796
225.934
226.078
226.226
226.38
226.54
226.705
226.876
227.053
227.234
227.422
227.614
227.812
228.015
228.222
228.435
228.652
228.875
229.102
229.334
229.571
229.813
230.06
230.311
230.566
230.826
231.089
231.357
231.628
231.904
232.182
232.464
232.748
233.035
233.324
233.615
233.906
234.199
234.492
234.783
235.072
235.359
235.64
235.915
236.181
236.435
236.675
236.893
237.089
237.247
237.363
237.426
237.425
237.308
237.088
236.684
236.079
235.092
233.747
231.546
223.024
223.161
223.435
223.66
223.746
223.767
223.747
223.674
223.554
223.391
223.196
222.993
222.804
222.63
222.462
222.296
222.135
221.988
221.865
221.787
221.769
221.801
221.958
222.248
222.583
222.866
223.062
223.192
223.287
223.367
223.437
223.494
223.54
223.581
223.624
223.669
223.719
223.773
223.831
223.89
223.95
224.01
224.072
224.137
224.204
224.275
224.35
224.428
224.511
224.598
224.689
224.782
224.879
224.978
225.081
225.188
225.299
225.415
225.535
225.661
225.791
225.927
226.068
226.215
226.366
226.524
226.686
226.855
227.029
227.209
227.394
227.585
227.781
227.982
228.189
228.4
228.617
228.839
229.066
229.298
229.535
229.777
230.025
230.277
230.534
230.796
231.063
231.333
231.609
231.889
232.173
232.461
232.753
233.049
233.348
233.65
233.955
234.263
234.573
234.885
235.198
235.512
235.825
236.136
236.445
236.75
237.049
237.339
237.617
237.88
238.121
238.336
238.507
238.633
238.694
238.68
238.514
238.195
237.506
236.573
234.642
223.025
223.163
223.443
223.678
223.769
223.793
223.777
223.701
223.562
223.375
223.148
222.928
222.735
222.566
222.408
222.255
222.108
221.972
221.849
221.762
221.725
221.732
221.813
222.04
222.372
222.703
222.955
223.128
223.251
223.351
223.435
223.503
223.557
223.603
223.65
223.699
223.753
223.811
223.872
223.935
223.999
224.064
224.13
224.199
224.272
224.347
224.426
224.509
224.596
224.687
224.781
224.878
224.977
225.08
225.186
225.296
225.41
225.528
225.652
225.78
225.914
226.053
226.196
226.345
226.5
226.66
226.826
226.997
227.175
227.358
227.546
227.74
227.939
228.144
228.354
228.569
228.79
229.016
229.247
229.483
229.725
229.972
230.224
230.481
230.744
231.011
231.284
231.561
231.843
232.131
232.422
232.719
233.02
233.325
233.635
233.948
234.266
234.587
234.911
235.239
235.57
235.903
236.238
236.574
236.911
237.247
237.581
237.912
238.238
238.555
238.861
239.153
239.422
239.66
239.844
239.968
240.018
239.959
239.628
239.138
237.758
223.027
223.174
223.462
223.702
223.793
223.816
223.797
223.708
223.549
223.326
223.077
222.849
222.658
222.497
222.349
222.209
222.076
221.952
221.834
221.744
221.694
221.685
221.725
221.882
222.181
222.534
222.835
223.054
223.211
223.334
223.433
223.512
223.574
223.625
223.676
223.729
223.787
223.848
223.913
223.98
224.047
224.116
224.187
224.26
224.337
224.417
224.5
224.587
224.678
224.772
224.87
224.97
225.072
225.178
225.287
225.4
225.516
225.638
225.764
225.895
226.031
226.172
226.319
226.471
226.628
226.791
226.959
227.134
227.314
227.499
227.691
227.888
228.09
228.298
228.511
228.73
228.954
229.183
229.418
229.658
229.904
230.155
230.412
230.674
230.941
231.214
231.491
231.774
232.063
232.356
232.655
232.958
233.267
233.581
233.899
234.222
234.55
234.883
235.219
235.561
235.906
236.255
236.608
236.964
237.323
237.684
238.047
238.411
238.774
239.135
239.492
239.842
240.181
240.505
240.8
241.053
241.256
241.408
241.461
241.27
240.634
223.033
223.194
223.491
223.73
223.818
223.832
223.804
223.697
223.502
223.249
222.988
222.761
222.578
222.426
222.288
222.16
222.041
221.928
221.819
221.728
221.67
221.652
221.667
221.77
222.02
222.373
222.712
222.975
223.169
223.316
223.431
223.521
223.59
223.647
223.702
223.759
223.821
223.886
223.954
224.024
224.095
224.167
224.242
224.319
224.399
224.483
224.571
224.662
224.757
224.854
224.955
225.058
225.163
225.272
225.383
225.499
225.618
225.742
225.871
226.004
226.143
226.287
226.436
226.59
226.75
226.916
227.087
227.264
227.447
227.635
227.829
228.029
228.234
228.445
228.662
228.883
229.111
229.343
229.581
229.825
230.074
230.329
230.59
230.857
231.129
231.406
231.688
231.977
232.27
232.57
232.874
233.185
233.5
233.821
234.148
234.479
234.816
235.158
235.505
235.858
236.216
236.578
236.946
237.318
237.695
238.076
238.461
238.85
239.241
239.635
240.029
240.423
240.815
241.202
241.575
241.929
242.257
242.55
242.828
242.938
242.912
223.043
223.224
223.531
223.76
223.841
223.841
223.795
223.654
223.421
223.147
222.886
222.669
222.497
222.355
222.227
222.11
222.003
221.9
221.799
221.712
221.65
221.626
221.626
221.693
221.897
222.231
222.593
222.896
223.126
223.298
223.43
223.53
223.607
223.669
223.728
223.789
223.854
223.923
223.994
224.067
224.141
224.217
224.295
224.376
224.461
224.549
224.64
224.735
224.833
224.933
225.037
225.142
225.25
225.361
225.475
225.593
225.715
225.842
225.973
226.109
226.25
226.396
226.548
226.704
226.867
227.035
227.208
227.388
227.573
227.764
227.961
228.163
228.372
228.585
228.804
229.029
229.259
229.495
229.736
229.983
230.236
230.495
230.759
231.03
231.306
231.587
231.874
232.167
232.466
232.771
233.081
233.397
233.719
234.046
234.379
234.718
235.063
235.413
235.77
236.132
236.5
236.873
237.253
237.638
238.029
238.426
238.828
239.235
239.647
240.064
240.485
240.909
241.335
241.762
242.182
242.596
242.994
243.387
243.75
244.018
244.287
223.058
223.265
223.579
223.787
223.853
223.841
223.762
223.577
223.312
223.03
222.778
222.576
222.417
222.286
222.168
222.059
221.963
221.868
221.777
221.694
221.631
221.603
221.598
221.639
221.805
222.116
222.487
222.823
223.086
223.283
223.431
223.54
223.624
223.691
223.754
223.819
223.888
223.96
224.034
224.109
224.186
224.265
224.347
224.432
224.52
224.612
224.707
224.805
224.906
225.009
225.115
225.223
225.333
225.447
225.563
225.684
225.808
225.937
226.07
226.208
226.352
226.5