/*--------------------------------*- C++ -*----------------------------------*\
| =========                 |                                                 |
| \\      /  F ield         | OpenFOAM: The Open Source CFD Toolbox           |
|  \\    /   O peration     | Version:  2412                                  |
|   \\  /    A nd           | Website:  www.openfoam.com                      |
|    \\/     M anipulation  |                                                 |
\*---------------------------------------------------------------------------*/
FoamFile
{
    version     2.0;
    format      ascii;
    arch        "LSB;label=32;scalar=64";
    class       volVectorField;
    location    "0.076";
    object      U;
}
// * * * * * * * * * * * * * * * * * * * * * * * * * * * * * * * * * * * * * //

dimensions      [0 1 -1 0 0 0 0];

internalField   nonuniform List<vector> 
78650
(
(194.337 4.65431 0)
(200.634 -2.53403 0)
(201.898 -2.71942 0)
(202.042 -2.99164 0)
(201.934 -3.08935 0)
(201.882 -3.11018 0)
(201.946 -3.12341 0)
(202.098 -3.11321 0)
(202.321 -3.11756 0)
(202.645 -3.12943 0)
(203.066 -3.18589 0)
(203.587 -3.30267 0)
(204.208 -3.48997 0)
(204.883 -3.71499 0)
(205.563 -3.92686 0)
(206.206 -4.11579 0)
(206.808 -4.26011 0)
(207.378 -4.3591 0)
(207.915 -4.41881 0)
(208.418 -4.43024 0)
(208.88 -4.40803 0)
(209.301 -4.35227 0)
(209.687 -4.25816 0)
(210.052 -4.12565 0)
(210.398 -3.95651 0)
(210.732 -3.75602 0)
(211.068 -3.53241 0)
(211.412 -3.28918 0)
(211.765 -3.02582 0)
(212.127 -2.74164 0)
(212.493 -2.43516 0)
(212.857 -2.10434 0)
(213.214 -1.74772 0)
(213.561 -1.3658 0)
(213.899 -0.959119 0)
(214.226 -0.527638 0)
(214.541 -0.0702568 0)
(214.842 0.41426 0)
(215.129 0.927434 0)
(215.4 1.4702 0)
(215.654 2.044 0)
(215.89 2.64978 0)
(216.108 3.2879 0)
(216.305 3.95872 0)
(216.482 4.662 0)
(216.642 5.3971 0)
(216.783 6.16382 0)
(216.901 6.96224 0)
(217 7.79177 0)
(217.086 8.65178 0)
(217.157 9.54209 0)
(217.211 10.4629 0)
(217.25 11.4149 0)
(217.273 12.3984 0)
(217.281 13.4139 0)
(217.276 14.4619 0)
(217.258 15.5423 0)
(217.23 16.6554 0)
(217.191 17.8021 0)
(217.144 18.983 0)
(217.089 20.1992 0)
(217.028 21.4514 0)
(216.963 22.7402 0)
(216.899 24.0664 0)
(216.836 25.4312 0)
(216.777 26.8349 0)
(216.725 28.2795 0)
(216.689 29.7656 0)
(216.668 31.2933 0)
(216.668 32.8626 0)
(216.7 34.477 0)
(216.76 36.1373 0)
(216.857 37.8457 0)
(217 39.6037 0)
(217.186 41.4112 0)
(217.441 43.2695 0)
(217.755 45.1777 0)
(218.154 47.1381 0)
(218.639 49.1498 0)
(219.221 51.2115 0)
(219.923 53.321 0)
(220.745 55.4773 0)
(221.721 57.6779 0)
(222.837 59.9226 0)
(224.148 62.2031 0)
(225.623 64.5178 0)
(227.335 66.8507 0)
(229.253 69.1931 0)
(231.441 71.5167 0)
(233.884 73.8209 0)
(236.634 76.0952 0)
(239.659 78.3488 0)
(243.052 80.4996 0)
(246.702 82.6075 0)
(250.824 84.5048 0)
(255.171 86.3792 0)
(259.988 87.9805 0)
(265.199 89.4131 0)
(270.772 90.4311 0)
(276.677 91.2459 0)
(283.003 91.8119 0)
(289.685 91.9956 0)
(296.765 91.6974 0)
(303.649 91.0171 0)
(310.098 90.3987 0)
(316.783 89.4964 0)
(322.729 88.5278 0)
(328.823 87.0876 0)
(334.799 85.347 0)
(340.712 83.3275 0)
(346.5 81.2968 0)
(352.292 79.0576 0)
(357.383 77.0521 0)
(362.646 74.811 0)
(366.543 72.6627 0)
(369.101 70.7466 0)
(371.053 68.7201 0)
(373.23 67.7346 0)
(377.484 66.8719 0)
(384.138 65.891 0)
(386.65 69.4167 0)
(196.708 4.12875 0)
(201.679 -2.24845 0)
(202.359 -2.52318 0)
(202.319 -2.86577 0)
(202.162 -3.01655 0)
(202.046 -3.08387 0)
(202.032 -3.07827 0)
(202.123 -3.05374 0)
(202.298 -3.02707 0)
(202.602 -3.03175 0)
(203.023 -3.07184 0)
(203.544 -3.17569 0)
(204.164 -3.35332 0)
(204.849 -3.56801 0)
(205.54 -3.77879 0)
(206.186 -3.96366 0)
(206.785 -4.11193 0)
(207.354 -4.20923 0)
(207.89 -4.27254 0)
(208.389 -4.28727 0)
(208.846 -4.26738 0)
(209.261 -4.21661 0)
(209.642 -4.13236 0)
(209.995 -4.00789 0)
(210.325 -3.8463 0)
(210.64 -3.6522 0)
(210.954 -3.43408 0)
(211.274 -3.1956 0)
(211.603 -2.93739 0)
(211.943 -2.65948 0)
(212.289 -2.36022 0)
(212.635 -2.0371 0)
(212.973 -1.68835 0)
(213.301 -1.31426 0)
(213.62 -0.915295 0)
(213.929 -0.49153 0)
(214.227 -0.0420924 0)
(214.512 0.434087 0)
(214.781 0.938346 0)
(215.035 1.47155 0)
(215.271 2.03514 0)
(215.49 2.62998 0)
(215.689 3.25661 0)
(215.868 3.91544 0)
(216.026 4.60621 0)
(216.168 5.32838 0)
(216.289 6.08188 0)
(216.386 6.86664 0)
(216.465 7.68199 0)
(216.53 8.52745 0)
(216.579 9.40279 0)
(216.61 10.3081 0)
(216.624 11.2439 0)
(216.622 12.2107 0)
(216.604 13.2084 0)
(216.571 14.2384 0)
(216.524 15.3005 0)
(216.465 16.3942 0)
(216.394 17.521 0)
(216.312 18.6812 0)
(216.222 19.876 0)
(216.122 21.1062 0)
(216.017 22.3723 0)
(215.909 23.675 0)
(215.798 25.0165 0)
(215.69 26.3958 0)
(215.585 27.8156 0)
(215.489 29.2771 0)
(215.404 30.7807 0)
(215.336 32.3252 0)
(215.294 33.9153 0)
(215.273 35.5511 0)
(215.284 37.2352 0)
(215.331 38.9699 0)
(215.415 40.7554 0)
(215.557 42.5938 0)
(215.749 44.4842 0)
(216.015 46.4296 0)
(216.355 48.4301 0)
(216.779 50.4855 0)
(217.31 52.5953 0)
(217.946 54.7589 0)
(218.72 56.9761 0)
(219.62 59.2459 0)
(220.699 61.5623 0)
(221.927 63.9225 0)
(223.38 66.315 0)
(225.025 68.7356 0)
(226.929 71.1716 0)
(229.076 73.6267 0)
(231.516 76.0814 0)
(234.227 78.52 0)
(237.285 80.8814 0)
(240.61 83.2049 0)
(244.378 85.3771 0)
(248.35 87.5354 0)
(252.815 89.3906 0)
(257.473 91.1436 0)
(262.601 92.5777 0)
(268.066 93.8046 0)
(273.8 94.8164 0)
(279.906 95.5768 0)
(286.25 96.0147 0)
(293.444 96.0586 0)
(299.947 95.6483 0)
(307.462 94.9579 0)
(314.346 93.9592 0)
(320.836 92.934 0)
(327.586 91.5599 0)
(333.632 90.0738 0)
(339.441 88.4142 0)
(345.462 86.3655 0)
(350.777 84.4795 0)
(356.458 82.2758 0)
(361.169 80.1287 0)
(364.747 77.8943 0)
(367.223 75.4923 0)
(369.115 73.7786 0)
(372.906 72.6172 0)
(380.416 71.3919 0)
(383.365 75.5782 0)
(198.891 3.43635 0)
(203.019 -2.05535 0)
(203.046 -2.30953 0)
(202.785 -2.6905 0)
(202.526 -2.89213 0)
(202.28 -2.97221 0)
(202.127 -2.96192 0)
(202.154 -2.95677 0)
(202.311 -2.92514 0)
(202.596 -2.91553 0)
(202.999 -2.94067 0)
(203.511 -3.03718 0)
(204.125 -3.2086 0)
(204.807 -3.41246 0)
(205.487 -3.62578 0)
(206.133 -3.80965 0)
(206.735 -3.96106 0)
(207.308 -4.05756 0)
(207.845 -4.12347 0)
(208.344 -4.14184 0)
(208.799 -4.12572 0)
(209.211 -4.08067 0)
(209.586 -4.0075 0)
(209.928 -3.89261 0)
(210.243 -3.74019 0)
(210.54 -3.55439 0)
(210.833 -3.34333 0)
(211.129 -3.11102 0)
(211.434 -2.85934 0)
(211.751 -2.58902 0)
(212.076 -2.29819 0)
(212.402 -1.984 0)
(212.722 -1.64436 0)
(213.033 -1.27924 0)
(213.334 -0.888978 0)
(213.625 -0.473687 0)
(213.905 -0.0326796 0)
(214.173 0.434985 0)
(214.426 0.930462 0)
(214.664 1.45452 0)
(214.883 2.00851 0)
(215.084 2.59319 0)
(215.266 3.20926 0)
(215.425 3.85718 0)
(215.566 4.53662 0)
(215.689 5.24713 0)
(215.789 5.98876 0)
(215.866 6.76132 0)
(215.925 7.56406 0)
(215.969 8.39649 0)
(215.995 9.2584 0)
(216.002 10.1497 0)
(215.992 11.0708 0)
(215.964 12.0231 0)
(215.92 13.0049 0)
(215.858 14.0187 0)
(215.781 15.0641 0)
(215.691 16.1401 0)
(215.587 17.2494 0)
(215.471 18.3915 0)
(215.344 19.5674 0)
(215.206 20.7782 0)
(215.059 22.0245 0)
(214.907 23.3067 0)
(214.748 24.6284 0)
(214.59 25.986 0)
(214.432 27.3835 0)
(214.278 28.8218 0)
(214.13 30.3035 0)
(213.995 31.8247 0)
(213.881 33.3915 0)
(213.782 35.0039 0)
(213.711 36.6636 0)
(213.668 38.3739 0)
(213.656 40.1347 0)
(213.693 41.9491 0)
(213.77 43.8157 0)
(213.914 45.7379 0)
(214.12 47.716 0)
(214.4 49.7504 0)
(214.772 51.8414 0)
(215.237 53.9881 0)
(215.825 56.1911 0)
(216.523 58.4496 0)
(217.382 60.7613 0)
(218.372 63.1249 0)
(219.564 65.5348 0)
(220.923 67.9885 0)
(222.512 70.476 0)
(224.319 72.9923 0)
(226.392 75.5154 0)
(228.719 78.0329 0)
(231.369 80.5179 0)
(234.286 82.9984 0)
(237.616 85.3999 0)
(241.183 87.7869 0)
(245.27 89.9456 0)
(249.556 92.1089 0)
(254.39 94.0119 0)
(259.58 95.8007 0)
(265.213 97.2318 0)
(271.303 98.3965 0)
(277.223 99.1544 0)
(283.903 99.716 0)
(290.393 99.8373 0)
(297.21 99.7403 0)
(304.981 99.1684 0)
(311.46 98.3186 0)
(318.892 97.1674 0)
(325.8 95.7679 0)
(331.867 94.3986 0)
(338.261 92.6825 0)
(343.965 91.0673 0)
(349.74 89.0832 0)
(354.619 87.2296 0)
(358.901 84.9151 0)
(361.881 82.4617 0)
(364.416 80.5685 0)
(369.07 79.0705 0)
(377.559 77.7531 0)
(380.886 82.4204 0)
(201.145 3.04673 0)
(204.529 -1.62104 0)
(204.041 -1.9747 0)
(203.563 -2.49631 0)
(203.06 -2.74118 0)
(202.629 -2.81027 0)
(202.391 -2.81888 0)
(202.342 -2.81876 0)
(202.428 -2.80487 0)
(202.614 -2.78701 0)
(202.975 -2.79666 0)
(203.488 -2.88372 0)
(204.104 -3.04295 0)
(204.783 -3.23721 0)
(205.469 -3.4463 0)
(206.122 -3.62871 0)
(206.728 -3.78416 0)
(207.301 -3.88373 0)
(207.83 -3.9551 0)
(208.32 -3.98086 0)
(208.769 -3.97232 0)
(209.174 -3.93466 0)
(209.542 -3.8728 0)
(209.87 -3.76823 0)
(210.169 -3.62658 0)
(210.448 -3.45052 0)
(210.72 -3.24687 0)
(210.991 -3.02033 0)
(211.27 -2.7744 0)
(211.562 -2.51059 0)
(211.865 -2.22712 0)
(212.17 -1.92109 0)
(212.47 -1.59019 0)
(212.761 -1.23398 0)
(213.043 -0.85257 0)
(213.314 -0.446084 0)
(213.576 -0.0139787 0)
(213.826 0.444589 0)
(214.061 0.930603 0)
(214.282 1.44475 0)
(214.483 1.98821 0)
(214.666 2.56164 0)
(214.829 3.16584 0)
(214.97 3.80126 0)
(215.093 4.46759 0)
(215.196 5.16457 0)
(215.275 5.89234 0)
(215.332 6.65056 0)
(215.372 7.43841 0)
(215.396 8.25554 0)
(215.4 9.10176 0)
(215.384 9.97726 0)
(215.351 10.8816 0)
(215.298 11.8167 0)
(215.229 12.779 0)
(215.141 13.7749 0)
(215.037 14.8009 0)
(214.917 15.8583 0)
(214.782 16.9468 0)
(214.634 18.0674 0)
(214.473 19.2211 0)
(214.299 20.409 0)
(214.114 21.6318 0)
(213.92 22.8908 0)
(213.72 24.1855 0)
(213.515 25.5183 0)
(213.307 26.8899 0)
(213.101 28.3007 0)
(212.892 29.7582 0)
(212.696 31.2504 0)
(212.513 32.788 0)
(212.34 34.3725 0)
(212.191 36.0034 0)
(212.062 37.6858 0)
(211.957 39.4183 0)
(211.891 41.2055 0)
(211.858 43.0459 0)
(211.881 44.9435 0)
(211.955 46.8989 0)
(212.091 48.9139 0)
(212.306 50.9899 0)
(212.6 53.1263 0)
(213.002 55.3252 0)
(213.501 57.5867 0)
(214.142 59.9116 0)
(214.898 62.298 0)
(215.838 64.7426 0)
(216.928 67.2403 0)
(218.235 69.7827 0)
(219.747 72.365 0)
(221.509 74.9739 0)
(223.515 77.6057 0)
(225.822 80.2453 0)
(228.392 82.8981 0)
(231.337 85.4975 0)
(234.519 88.0749 0)
(238.192 90.499 0)
(242.059 92.9387 0)
(246.48 95.1307 0)
(251.13 97.2766 0)
(256.309 99.1262 0)
(261.884 100.741 0)
(267.963 101.943 0)
(274.052 102.874 0)
(281.014 103.638 0)
(287.287 103.967 0)
(294.576 104.107 0)
(301.811 103.735 0)
(308.754 103.111 0)
(316.834 101.981 0)
(323.51 100.71 0)
(330.74 99.0533 0)
(337.153 97.5543 0)
(343.556 95.666 0)
(348.906 94.1521 0)
(354.232 91.9353 0)
(357.59 89.7134 0)
(360.309 87.5144 0)
(364.714 85.7003 0)
(373.466 84.1423 0)
(376.64 89.2794 0)
(203.185 2.84515 0)
(206.141 -1.06885 0)
(205.458 -1.51847 0)
(204.599 -2.0971 0)
(203.748 -2.41227 0)
(203.175 -2.57758 0)
(202.826 -2.64722 0)
(202.64 -2.6443 0)
(202.637 -2.63707 0)
(202.75 -2.61075 0)
(203.032 -2.61026 0)
(203.494 -2.69643 0)
(204.086 -2.84728 0)
(204.752 -3.04009 0)
(205.43 -3.25053 0)
(206.084 -3.43852 0)
(206.693 -3.60026 0)
(207.267 -3.70606 0)
(207.792 -3.78489 0)
(208.277 -3.81948 0)
(208.722 -3.82103 0)
(209.122 -3.79131 0)
(209.483 -3.73977 0)
(209.798 -3.64715 0)
(210.083 -3.51739 0)
(210.347 -3.35258 0)
(210.598 -3.15806 0)
(210.844 -2.93906 0)
(211.097 -2.70027 0)
(211.364 -2.44393 0)
(211.643 -2.16864 0)
(211.926 -1.87173 0)
(212.206 -1.55062 0)
(212.478 -1.20437 0)
(212.74 -0.832787 0)
(212.992 -0.435981 0)
(213.235 -0.0135271 0)
(213.466 0.435364 0)
(213.684 0.911554 0)
(213.887 1.41567 0)
(214.072 1.94869 0)
(214.238 2.51112 0)
(214.382 3.10383 0)
(214.505 3.7272 0)
(214.609 4.38096 0)
(214.691 5.06504 0)
(214.749 5.77965 0)
(214.786 6.52427 0)
(214.806 7.29805 0)
(214.808 8.1008 0)
(214.79 8.93257 0)
(214.75 9.79313 0)
(214.693 10.68 0)
(214.616 11.5982 0)
(214.519 12.5468 0)
(214.405 13.5244 0)
(214.273 14.5322 0)
(214.123 15.5704 0)
(213.957 16.6396 0)
(213.776 17.7404 0)
(213.579 18.8736 0)
(213.369 20.0404 0)
(213.145 21.2415 0)
(212.91 22.4776 0)
(212.665 23.7499 0)
(212.412 25.0591 0)
(212.154 26.4066 0)
(211.892 27.7949 0)
(211.63 29.2214 0)
(211.372 30.6896 0)
(211.121 32.2014 0)
(210.874 33.7608 0)
(210.649 35.3613 0)
(210.436 37.0147 0)
(210.244 38.7173 0)
(210.083 40.475 0)
(209.945 42.2861 0)
(209.857 44.1538 0)
(209.809 46.0791 0)
(209.815 48.0637 0)
(209.887 50.1103 0)
(210.026 52.2182 0)
(210.259 54.3902 0)
(210.576 56.6262 0)
(211.017 58.9287 0)
(211.556 61.2952 0)
(212.259 63.7262 0)
(213.091 66.2185 0)
(214.117 68.7713 0)
(215.321 71.3826 0)
(216.746 74.0445 0)
(218.391 76.7534 0)
(220.307 79.4979 0)
(222.476 82.2715 0)
(224.996 85.0276 0)
(227.777 87.7855 0)
(231.027 90.4727 0)
(234.496 93.1956 0)
(238.539 95.7258 0)
(242.782 98.2135 0)
(247.562 100.386 0)
(252.674 102.468 0)
(258.292 104.261 0)
(264.304 105.729 0)
(270.801 106.983 0)
(277.644 107.76 0)
(283.925 108.305 0)
(291.711 108.596 0)
(298.277 108.44 0)
(306.009 107.896 0)
(313.245 107.08 0)
(320.674 105.887 0)
(328.005 104.41 0)
(335.066 102.637 0)
(341.29 100.859 0)
(346.659 98.8483 0)
(350.297 96.7383 0)
(353.32 95.1451 0)
(358.365 93.7469 0)
(367.647 92.1023 0)
(370.982 97.3003 0)
(204.738 2.88537 0)
(207.581 -0.406424 0)
(207.091 -0.889328 0)
(206.125 -1.58273 0)
(204.977 -2.06655 0)
(204.032 -2.31004 0)
(203.374 -2.38676 0)
(202.984 -2.37478 0)
(202.869 -2.3709 0)
(202.912 -2.37188 0)
(203.105 -2.37764 0)
(203.52 -2.46307 0)
(204.106 -2.6105 0)
(204.766 -2.81049 0)
(205.442 -3.02303 0)
(206.095 -3.22202 0)
(206.703 -3.3927 0)
(207.271 -3.50948 0)
(207.782 -3.60074 0)
(208.256 -3.64676 0)
(208.69 -3.66186 0)
(209.08 -3.64217 0)
(209.429 -3.60023 0)
(209.731 -3.51951 0)
(210.002 -3.40246 0)
(210.25 -3.24996 0)
(210.48 -3.06515 0)
(210.701 -2.85377 0)
(210.929 -2.62162 0)
(211.169 -2.37169 0)
(211.422 -2.10341 0)
(211.681 -1.8147 0)
(211.938 -1.50283 0)
(212.189 -1.16634 0)
(212.43 -0.804662 0)
(212.662 -0.417856 0)
(212.884 -0.00557869 0)
(213.095 0.432952 0)
(213.294 0.898549 0)
(213.478 1.39185 0)
(213.645 1.9136 0)
(213.793 2.46419 0)
(213.918 3.04445 0)
(214.022 3.65461 0)
(214.107 4.29447 0)
(214.168 4.96419 0)
(214.205 5.66399 0)
(214.222 6.39308 0)
(214.222 7.15103 0)
(214.203 7.93728 0)
(214.162 8.75138 0)
(214.101 9.5927 0)
(214.019 10.465 0)
(213.918 11.3647 0)
(213.799 12.2927 0)
(213.659 13.2501 0)
(213.5 14.2373 0)
(213.322 15.2545 0)
(213.126 16.302 0)
(212.914 17.3802 0)
(212.686 18.4899 0)
(212.441 19.6322 0)
(212.182 20.8081 0)
(211.908 22.0184 0)
(211.623 23.2638 0)
(211.327 24.5452 0)
(211.022 25.8643 0)
(210.711 27.2222 0)
(210.395 28.6205 0)
(210.078 30.0597 0)
(209.763 31.5412 0)
(209.456 33.0644 0)
(209.158 34.6337 0)
(208.863 36.2576 0)
(208.587 37.9258 0)
(208.333 39.6482 0)
(208.095 41.4265 0)
(207.898 43.2616 0)
(207.73 45.1564 0)
(207.608 47.111 0)
(207.537 49.1303 0)
(207.523 51.2135 0)
(207.587 53.365 0)
(207.721 55.5845 0)
(207.962 57.8767 0)
(208.287 60.2395 0)
(208.758 62.6771 0)
(209.338 65.1858 0)
(210.094 67.7666 0)
(211.007 70.4138 0)
(212.124 73.1203 0)
(213.446 75.8825 0)
(215.019 78.6899 0)
(216.832 81.5339 0)
(218.961 84.3917 0)
(221.336 87.2851 0)
(224.127 90.1651 0)
(227.134 93.0671 0)
(230.676 95.8236 0)
(234.409 98.5664 0)
(238.748 101.089 0)
(243.354 103.574 0)
(248.499 105.86 0)
(254.148 107.987 0)
(260.14 109.683 0)
(266.859 111.311 0)
(273.515 112.258 0)
(280.753 113.067 0)
(288.354 113.388 0)
(295.013 113.45 0)
(303.27 113.037 0)
(310.07 112.516 0)
(318.398 111.389 0)
(325.514 110.185 0)
(332.988 108.576 0)
(340.266 106.166 0)
(344.833 103.655 0)
(347.927 101.537 0)
(352.305 100.75 0)
(362.467 99.3148 0)
(365.677 105.922 0)
(205.542 2.83638 0)
(208.46 0.0243301 0)
(208.477 -0.369158 0)
(207.837 -0.983709 0)
(206.575 -1.46983 0)
(205.234 -1.82829 0)
(204.177 -2.02741 0)
(203.509 -2.06539 0)
(203.244 -2.08158 0)
(203.237 -2.10291 0)
(203.361 -2.11265 0)
(203.683 -2.18948 0)
(204.194 -2.34354 0)
(204.805 -2.55639 0)
(205.454 -2.77849 0)
(206.089 -2.9959 0)
(206.685 -3.18098 0)
(207.245 -3.31273 0)
(207.748 -3.42234 0)
(208.216 -3.47979 0)
(208.641 -3.50898 0)
(209.02 -3.50042 0)
(209.356 -3.467 0)
(209.648 -3.39874 0)
(209.909 -3.29471 0)
(210.141 -3.1553 0)
(210.351 -2.982 0)
(210.55 -2.78025 0)
(210.753 -2.55616 0)
(210.967 -2.3134 0)
(211.193 -2.05267 0)
(211.426 -1.77271 0)
(211.66 -1.47073 0)
(211.889 -1.1447 0)
(212.109 -0.793637 0)
(212.32 -0.417537 0)
(212.522 -0.016134 0)
(212.713 0.411341 0)
(212.892 0.865699 0)
(213.058 1.34765 0)
(213.206 1.85775 0)
(213.336 2.39633 0)
(213.443 2.96411 0)
(213.529 3.56112 0)
(213.595 4.18728 0)
(213.634 4.84289 0)
(213.649 5.52805 0)
(213.646 6.2424 0)
(213.626 6.98478 0)
(213.586 7.75234 0)
(213.52 8.5517 0)
(213.434 9.37861 0)
(213.33 10.2321 0)
(213.206 11.1135 0)
(213.06 12.0234 0)
(212.894 12.962 0)
(212.708 13.9296 0)
(212.501 14.9266 0)
(212.275 15.9531 0)
(212.031 17.0097 0)
(211.769 18.0971 0)
(211.49 19.2164 0)
(211.193 20.3685 0)
(210.881 21.5543 0)
(210.553 22.7746 0)
(210.213 24.0303 0)
(209.862 25.3228 0)
(209.5 26.6534 0)
(209.13 28.0229 0)
(208.756 29.4324 0)
(208.381 30.8832 0)
(208.006 32.3779 0)
(207.633 33.9186 0)
(207.269 35.5042 0)
(206.914 37.1392 0)
(206.572 38.8271 0)
(206.236 40.5734 0)
(205.939 42.3686 0)
(205.658 44.2265 0)
(205.42 46.1423 0)
(205.22 48.124 0)
(205.068 50.1687 0)
(204.98 52.2818 0)
(204.95 54.4627 0)
(205.012 56.7174 0)
(205.143 59.044 0)
(205.401 61.4492 0)
(205.748 63.928 0)
(206.25 66.4852 0)
(206.885 69.1167 0)
(207.699 71.823 0)
(208.693 74.604 0)
(209.909 77.4564 0)
(211.339 80.3774 0)
(213.052 83.3562 0)
(215.007 86.3949 0)
(217.345 89.447 0)
(219.917 92.5199 0)
(223.004 95.5142 0)
(226.3 98.5376 0)
(230.206 101.447 0)
(234.376 104.369 0)
(239.104 107.061 0)
(244.182 109.605 0)
(249.799 111.901 0)
(255.81 113.861 0)
(262.548 115.645 0)
(269.016 116.872 0)
(276.865 118.032 0)
(283.843 118.5 0)
(291.945 118.724 0)
(299.667 118.566 0)
(307.087 118.045 0)
(314.841 117.169 0)
(321.709 116.321 0)
(330.241 114.489 0)
(335.55 112.502 0)
(340.746 109.483 0)
(346.274 107.393 0)
(357.095 105.918 0)
(360.209 113.474 0)
(205.776 2.63314 0)
(208.736 0.0191851 0)
(209.109 0.00838436 0)
(209.153 -0.352437 0)
(208.416 -0.765577 0)
(207.011 -1.21976 0)
(205.491 -1.55689 0)
(204.364 -1.71659 0)
(203.776 -1.78971 0)
(203.6 -1.8232 0)
(203.621 -1.8379 0)
(203.831 -1.89664 0)
(204.276 -2.05225 0)
(204.872 -2.27351 0)
(205.515 -2.51051 0)
(206.133 -2.74863 0)
(206.711 -2.95207 0)
(207.262 -3.1006 0)
(207.75 -3.23244 0)
(208.203 -3.30378 0)
(208.608 -3.35013 0)
(208.97 -3.35621 0)
(209.289 -3.33216 0)
(209.57 -3.27577 0)
(209.817 -3.18464 0)
(210.033 -3.05819 0)
(210.224 -2.89654 0)
(210.402 -2.70456 0)
(210.581 -2.48828 0)
(210.768 -2.25211 0)
(210.965 -1.99815 0)
(211.171 -1.72606 0)
(211.38 -1.43326 0)
(211.585 -1.11723 0)
(211.782 -0.776613 0)
(211.971 -0.411341 0)
(212.151 -0.0211529 0)
(212.32 0.394706 0)
(212.479 0.837093 0)
(212.623 1.30686 0)
(212.752 1.80445 0)
(212.863 2.33022 0)
(212.952 2.88468 0)
(213.02 3.4677 0)
(213.064 4.07936 0)
(213.081 4.71997 0)
(213.076 5.38952 0)
(213.054 6.08691 0)
(213.015 6.80798 0)
(212.947 7.56331 0)
(212.86 8.34374 0)
(212.753 9.15076 0)
(212.626 9.98496 0)
(212.478 10.8466 0)
(212.308 11.7358 0)
(212.117 12.6529 0)
(211.905 13.5982 0)
(211.672 14.5723 0)
(211.418 15.5753 0)
(211.144 16.6076 0)
(210.852 17.67 0)
(210.54 18.7632 0)
(210.21 19.8883 0)
(209.861 21.0463 0)
(209.496 22.2378 0)
(209.116 23.4638 0)
(208.721 24.7254 0)
(208.314 26.0242 0)
(207.895 27.3614 0)
(207.468 28.7379 0)
(207.035 30.155 0)
(206.599 31.6139 0)
(206.162 33.1169 0)
(205.726 34.667 0)
(205.292 36.2664 0)
(204.865 37.9172 0)
(204.45 39.6181 0)
(204.056 41.3742 0)
(203.658 43.2001 0)
(203.308 45.0727 0)
(202.979 47.015 0)
(202.691 49.0221 0)
(202.451 51.1007 0)
(202.258 53.2496 0)
(202.14 55.4753 0)
(202.077 57.7763 0)
(202.123 60.1612 0)
(202.241 62.6247 0)
(202.497 65.1751 0)
(202.865 67.8083 0)
(203.392 70.5274 0)
(204.075 73.3305 0)
(204.957 76.2139 0)
(206.036 79.1718 0)
(207.368 82.1971 0)
(208.925 85.2877 0)
(210.822 88.4168 0)
(212.945 91.5923 0)
(215.536 94.7713 0)
(218.332 98.0245 0)
(221.711 101.228 0)
(225.32 104.453 0)
(229.543 107.505 0)
(234.135 110.445 0)
(239.239 113.163 0)
(244.858 115.752 0)
(250.913 118.111 0)
(257.576 120.088 0)
(264.47 121.627 0)
(272.333 122.978 0)
(279.367 123.73 0)
(288.36 124.313 0)
(295.673 124.423 0)
(304.346 124.033 0)
(312.198 123.475 0)
(319.921 122.228 0)
(325.796 120.755 0)
(330.794 118.942 0)
(336.677 117.471 0)
(347.693 115.727 0)
(351.012 122.341 0)
(205.884 2.33672 0)
(208.752 0.0835739 0)
(209.271 0.185832 0)
(209.758 0.0434643 0)
(209.756 -0.259998 0)
(208.867 -0.554765 0)
(207.28 -0.926868 0)
(205.648 -1.25261 0)
(204.45 -1.38448 0)
(203.946 -1.48174 0)
(203.9 -1.53698 0)
(204.037 -1.59571 0)
(204.409 -1.75764 0)
(204.963 -1.98539 0)
(205.576 -2.2408 0)
(206.169 -2.49667 0)
(206.727 -2.72064 0)
(207.267 -2.88903 0)
(207.739 -3.04492 0)
(208.176 -3.13308 0)
(208.56 -3.19892 0)
(208.904 -3.2235 0)
(209.208 -3.21027 0)
(209.478 -3.16547 0)
(209.711 -3.08593 0)
(209.912 -2.9721 0)
(210.086 -2.82318 0)
(210.246 -2.64257 0)
(210.403 -2.43553 0)
(210.564 -2.20709 0)
(210.734 -1.96063 0)
(210.912 -1.69675 0)
(211.094 -1.41334 0)
(211.274 -1.10752 0)
(211.448 -0.777666 0)
(211.615 -0.423602 0)
(211.773 -0.0450478 0)
(211.921 0.358691 0)
(212.058 0.788506 0)
(212.182 1.2454 0)
(212.291 1.72982 0)
(212.382 2.24221 0)
(212.452 2.78291 0)
(212.502 3.35169 0)
(212.525 3.9488 0)
(212.521 4.575 0)
(212.498 5.22757 0)
(212.459 5.90459 0)
(212.391 6.61509 0)
(212.302 7.35024 0)
(212.193 8.11246 0)
(212.063 8.90131 0)
(211.912 9.71673 0)
(211.739 10.5588 0)
(211.545 11.4278 0)
(211.329 12.3242 0)
(211.09 13.2482 0)
(210.829 14.2003 0)
(210.546 15.1807 0)
(210.242 16.1897 0)
(209.918 17.2279 0)
(209.573 18.2961 0)
(209.208 19.3955 0)
(208.823 20.5268 0)
(208.419 21.6909 0)
(207.997 22.8887 0)
(207.558 24.1213 0)
(207.104 25.39 0)
(206.636 26.696 0)
(206.156 28.0404 0)
(205.666 29.4243 0)
(205.17 30.8493 0)
(204.668 32.3175 0)
(204.162 33.8306 0)
(203.656 35.3909 0)
(203.15 37.0014 0)
(202.649 38.6649 0)
(202.154 40.3844 0)
(201.675 42.1552 0)
(201.218 43.9862 0)
(200.766 45.8876 0)
(200.355 47.8458 0)
(199.978 49.8738 0)
(199.64 51.9729 0)
(199.364 54.1483 0)
(199.129 56.3992 0)
(198.987 58.7347 0)
(198.899 61.1497 0)
(198.93 63.6555 0)
(199.048 66.2481 0)
(199.302 68.9335 0)
(199.687 71.7106 0)
(200.243 74.5812 0)
(200.97 77.5453 0)
(201.917 80.6036 0)
(203.069 83.7529 0)
(204.522 86.9793 0)
(206.197 90.2875 0)
(208.295 93.6552 0)
(210.599 97.1057 0)
(213.451 100.531 0)
(216.513 103.965 0)
(220.186 107.278 0)
(224.186 110.574 0)
(228.752 113.77 0)
(233.805 116.821 0)
(239.36 119.714 0)
(245.479 122.322 0)
(251.971 124.511 0)
(259.268 126.687 0)
(266.649 128.06 0)
(274.544 129.222 0)
(283.246 130.062 0)
(291.395 130.263 0)
(300.602 130.234 0)
(309.397 129.414 0)
(316.274 127.979 0)
(321.695 125.929 0)
(326.805 125.208 0)
(338.963 123.817 0)
(341.948 132.441 0)
(206.042 1.9788 0)
(208.608 0.146162 0)
(209.169 0.337191 0)
(209.861 0.165276 0)
(210.256 0.12828 0)
(210.129 -0.0909717 0)
(209.136 -0.337737 0)
(207.423 -0.66535 0)
(205.734 -0.957019 0)
(204.679 -1.15706 0)
(204.266 -1.26173 0)
(204.265 -1.34025 0)
(204.522 -1.49708 0)
(205.007 -1.72125 0)
(205.598 -1.99982 0)
(206.2 -2.2677 0)
(206.768 -2.50019 0)
(207.308 -2.68373 0)
(207.76 -2.85708 0)
(208.173 -2.9658 0)
(208.53 -3.05117 0)
(208.852 -3.09527 0)
(209.138 -3.09236 0)
(209.39 -3.05717 0)
(209.606 -2.98759 0)
(209.792 -2.88499 0)
(209.952 -2.74793 0)
(210.094 -2.57841 0)
(210.229 -2.3808 0)
(210.365 -2.16062 0)
(210.507 -1.92185 0)
(210.657 -1.66597 0)
(210.811 -1.39147 0)
(210.964 -1.09538 0)
(211.112 -0.775935 0)
(211.254 -0.432898 0)
(211.389 -0.0659397 0)
(211.515 0.325529 0)
(211.63 0.74242 0)
(211.731 1.18588 0)
(211.819 1.65642 0)
(211.889 2.15464 0)
(211.94 2.68076 0)
(211.97 3.23468 0)
(211.97 3.81727 0)
(211.947 4.42686 0)
(211.911 5.05799 0)
(211.843 5.72412 0)
(211.753 6.41405 0)
(211.643 7.13073 0)
(211.511 7.87358 0)
(211.358 8.64241 0)
(211.184 9.43709 0)
(210.989 10.2578 0)
(210.771 11.1047 0)
(210.53 11.9782 0)
(210.266 12.8786 0)
(209.979 13.8063 0)
(209.67 14.7615 0)
(209.338 15.7446 0)
(208.984 16.756 0)
(208.609 17.7965 0)
(208.212 18.867 0)
(207.794 19.9686 0)
(207.354 21.102 0)
(206.895 22.2681 0)
(206.417 23.4677 0)
(205.921 24.7024 0)
(205.408 25.9733 0)
(204.88 27.2816 0)
(204.339 28.6284 0)
(203.787 30.0152 0)
(203.225 31.4436 0)
(202.657 32.916 0)
(202.081 34.4346 0)
(201.502 36.0019 0)
(200.92 37.6201 0)
(200.341 39.292 0)
(199.766 41.0207 0)
(199.199 42.8089 0)
(198.647 44.6553 0)
(198.119 46.566 0)
(197.604 48.5499 0)
(197.118 50.6041 0)
(196.681 52.7306 0)
(196.275 54.937 0)
(195.946 57.2305 0)
(195.652 59.6072 0)
(195.463 62.0781 0)
(195.34 64.6382 0)
(195.335 67.2961 0)
(195.439 70.0514 0)
(195.692 72.9086 0)
(196.091 75.8672 0)
(196.683 78.9284 0)
(197.458 82.0883 0)
(198.492 85.3443 0)
(199.728 88.6999 0)
(201.329 92.1428 0)
(203.124 95.6684 0)
(205.423 99.2128 0)
(207.921 102.808 0)
(211.031 106.396 0)
(214.427 110.055 0)
(218.424 113.679 0)
(222.916 117.211 0)
(227.903 120.594 0)
(233.47 123.811 0)
(239.596 126.861 0)
(246.2 129.411 0)
(253.7 131.795 0)
(260.79 133.448 0)
(269.497 135.278 0)
(277.828 136.224 0)
(286.011 136.751 0)
(296.08 137.078 0)
(303.992 136.419 0)
(312.073 134.162 0)
(318.747 132.208 0)
(331.247 131.058 0)
(334.325 140.176 0)
(206.345 1.61418 0)
(208.454 0.20455 0)
(208.892 0.427408 0)
(209.731 0.332447 0)
(210.333 0.213895 0)
(210.578 0.217378 0)
(210.336 0.0995909 0)
(209.258 -0.113138 0)
(207.475 -0.412169 0)
(205.777 -0.700615 0)
(204.825 -0.919512 0)
(204.658 -1.12555 0)
(204.721 -1.28445 0)
(205.067 -1.51286 0)
(205.61 -1.81522 0)
(206.199 -2.09146 0)
(206.769 -2.31699 0)
(207.297 -2.51445 0)
(207.745 -2.69676 0)
(208.151 -2.82257 0)
(208.494 -2.923 0)
(208.794 -2.98451 0)
(209.057 -2.99307 0)
(209.288 -2.96605 0)
(209.489 -2.90526 0)
(209.663 -2.81256 0)
(209.81 -2.68678 0)
(209.936 -2.52856 0)
(210.051 -2.34136 0)
(210.164 -2.13079 0)
(210.28 -1.90067 0)
(210.402 -1.65331 0)
(210.529 -1.38787 0)
(210.655 -1.10149 0)
(210.777 -0.792478 0)
(210.894 -0.460553 0)
(211.004 -0.105366 0)
(211.107 0.273536 0)
(211.2 0.677061 0)
(211.28 1.10649 0)
(211.346 1.56244 0)
(211.395 2.04571 0)
(211.426 2.55651 0)
(211.433 3.09539 0)
(211.413 3.66244 0)
(211.379 4.2496 0)
(211.314 4.87178 0)
(211.226 5.51754 0)
(211.116 6.18956 0)
(210.983 6.88733 0)
(210.829 7.61075 0)
(210.653 8.35959 0)
(210.456 9.13373 0)
(210.236 9.93325 0)
(209.994 10.7584 0)
(209.728 11.6094 0)
(209.439 12.4867 0)
(209.126 13.3905 0)
(208.789 14.3213 0)
(208.428 15.2792 0)
(208.045 16.2646 0)
(207.639 17.2783 0)
(207.209 18.3211 0)
(206.757 19.3939 0)
(206.281 20.4977 0)
(205.784 21.6332 0)
(205.265 22.8014 0)
(204.727 24.0034 0)
(204.168 25.2405 0)
(203.592 26.514 0)
(202.999 27.8248 0)
(202.392 29.1743 0)
(201.772 30.5642 0)
(201.14 31.9965 0)
(200.498 33.4734 0)
(199.848 34.9973 0)
(199.19 36.5705 0)
(198.529 38.1957 0)
(197.865 39.8749 0)
(197.206 41.611 0)
(196.552 43.4075 0)
(195.908 45.268 0)
(195.278 47.1923 0)
(194.676 49.1839 0)
(194.094 51.2525 0)
(193.531 53.4015 0)
(193.037 55.6264 0)
(192.561 57.9386 0)
(192.18 60.3448 0)
(191.837 62.8431 0)
(191.597 65.4418 0)
(191.438 68.143 0)
(191.402 70.9531 0)
(191.484 73.8735 0)
(191.726 76.9098 0)
(192.126 80.0616 0)
(192.745 83.3333 0)
(193.546 86.7229 0)
(194.665 90.2234 0)
(195.974 93.8205 0)
(197.745 97.4957 0)
(199.702 101.278 0)
(202.242 105.136 0)
(205.022 109.087 0)
(208.41 113.012 0)
(212.223 116.908 0)
(216.58 120.759 0)
(221.561 124.466 0)
(227.016 128.061 0)
(233.161 131.45 0)
(239.822 134.491 0)
(247.278 137.137 0)
(255.216 139.441 0)
(263.362 141.432 0)
(272.543 142.885 0)
(280.502 143.706 0)
(289.76 144.041 0)
(297.222 143.358 0)
(303.58 142.776 0)
(315.905 141.74 0)
(318.081 150.726 0)
(206.752 1.2846 0)
(208.371 0.269036 0)
(208.604 0.452013 0)
(209.36 0.406424 0)
(210.176 0.340442 0)
(210.612 0.303278 0)
(210.75 0.361892 0)
(210.427 0.319728 0)
(209.279 0.141902 0)
(207.499 -0.161633 0)
(205.936 -0.48624 0)
(205.119 -0.781129 0)
(204.979 -1.06276 0)
(205.153 -1.33031 0)
(205.621 -1.64426 0)
(206.154 -1.94023 0)
(206.706 -2.17527 0)
(207.243 -2.39318 0)
(207.715 -2.57548 0)
(208.14 -2.70248 0)
(208.478 -2.80693 0)
(208.749 -2.87852 0)
(208.986 -2.89878 0)
(209.197 -2.87894 0)
(209.382 -2.82589 0)
(209.54 -2.74121 0)
(209.671 -2.62522 0)
(209.781 -2.47708 0)
(209.877 -2.30016 0)
(209.968 -2.09977 0)
(210.058 -1.87916 0)
(210.153 -1.64114 0)
(210.252 -1.38534 0)
(210.351 -1.10899 0)
(210.446 -0.810414 0)
(210.535 -0.489379 0)
(210.62 -0.145592 0)
(210.698 0.221128 0)
(210.767 0.611603 0)
(210.825 1.02715 0)
(210.869 1.46846 0)
(210.895 1.93648 0)
(210.904 2.43183 0)
(210.888 2.95502 0)
(210.854 3.50079 0)
(210.795 4.07747 0)
(210.71 4.67962 0)
(210.601 5.30752 0)
(210.469 5.96068 0)
(210.314 6.63893 0)
(210.138 7.34205 0)
(209.939 8.06987 0)
(209.719 8.82226 0)
(209.476 9.59929 0)
(209.21 10.4012 0)
(208.921 11.2282 0)
(208.607 12.0806 0)
(208.269 12.9587 0)
(207.907 13.8629 0)
(207.52 14.7934 0)
(207.109 15.7506 0)
(206.674 16.735 0)
(206.215 17.7474 0)
(205.731 18.7888 0)
(205.223 19.8601 0)
(204.692 20.962 0)
(204.137 22.0954 0)
(203.56 23.2614 0)
(202.962 24.4612 0)
(202.342 25.696 0)
(201.703 26.967 0)
(201.046 28.2754 0)
(200.373 29.6227 0)
(199.685 31.0109 0)
(198.982 32.4421 0)
(198.267 33.9186 0)
(197.54 35.4429 0)
(196.802 37.0176 0)
(196.057 38.6449 0)
(195.308 40.3277 0)
(194.557 42.0686 0)
(193.808 43.8714 0)
(193.065 45.7396 0)
(192.332 47.6778 0)
(191.612 49.6872 0)
(190.919 51.7696 0)
(190.259 53.935 0)
(189.591 56.1978 0)
(189.021 58.5387 0)
(188.459 60.9795 0)
(187.997 63.521 0)
(187.586 66.1684 0)
(187.282 68.9262 0)
(187.07 71.7969 0)
(186.994 74.7876 0)
(187.049 77.8995 0)
(187.288 81.1396 0)
(187.686 84.5055 0)
(188.352 88.0013 0)
(189.189 91.6198 0)
(190.423 95.3736 0)
(191.82 99.2684 0)
(193.747 103.277 0)
(195.873 107.38 0)
(198.611 111.507 0)
(201.707 115.679 0)
(205.371 119.875 0)
(209.651 124.036 0)
(214.43 128.162 0)
(219.925 132.078 0)
(225.996 135.922 0)
(232.846 139.47 0)
(240.388 142.612 0)
(248.579 145.413 0)