/*--------------------------------*- C++ -*----------------------------------*\
| =========                 |                                                 |
| \\      /  F ield         | OpenFOAM: The Open Source CFD Toolbox           |
|  \\    /   O peration     | Version:  2412                                  |
|   \\  /    A nd           | Website:  www.openfoam.com                      |
|    \\/     M anipulation  |                                                 |
\*---------------------------------------------------------------------------*/
FoamFile
{
    version     2.0;
    format      ascii;
    arch        "LSB;label=32;scalar=64";
    class       volScalarField;
    location    "0.044";
    object      rho;
}
// * * * * * * * * * * * * * * * * * * * * * * * * * * * * * * * * * * * * * //

dimensions      [1 -3 0 0 0 0 0];

internalField   nonuniform List<scalar> 
78650
(
0.042133
0.042133
0.042133
0.0421331
0.0421346
0.0421539
0.0422347
0.0423621
0.04244
0.0424647
0.0424315
0.0423006
0.0421368
0.0420118
0.041925
0.041857
0.0417866
0.0417049
0.0416259
0.0415768
0.0415641
0.0415742
0.0416077
0.0416421
0.0416561
0.0416559
0.0416461
0.0416295
0.0416131
0.0415987
0.0415845
0.0415694
0.0415542
0.0415398
0.041526
0.0415126
0.0414997
0.0414875
0.0414764
0.0414662
0.0414567
0.0414476
0.0414386
0.0414296
0.0414206
0.0414116
0.0414028
0.0413942
0.041386
0.0413781
0.0413704
0.0413628
0.0413551
0.0413473
0.0413395
0.0413313
0.0413229
0.0413139
0.0413043
0.0412938
0.0412824
0.0412697
0.0412553
0.0412387
0.0412195
0.0411974
0.0411723
0.0411437
0.0411109
0.0410732
0.0410297
0.0409801
0.0409236
0.0408597
0.0407872
0.0407049
0.0406114
0.0405056
0.0403865
0.0402528
0.0401037
0.0399377
0.039753
0.0395475
0.0393188
0.0390652
0.0387847
0.0384771
0.038139
0.0377692
0.0373636
0.0369247
0.0364456
0.0359349
0.0353814
0.0347947
0.0341701
0.0335016
0.0327836
0.0320445
0.0312792
0.0304577
0.0296053
0.028778
0.0279771
0.0271964
0.0264635
0.0257101
0.0249677
0.0242588
0.0235455
0.0228816
0.0222796
0.0217233
0.0212168
0.0207548
0.0203561
0.0199712
0.0196036
0.0192849
0.0187667
0.042133
0.042133
0.042133
0.0421331
0.0421339
0.0421464
0.0422126
0.0423399
0.0424365
0.0424725
0.0424503
0.0423403
0.0421778
0.0420476
0.0419583
0.0418918
0.0418267
0.0417501
0.0416689
0.0416077
0.0415844
0.041586
0.0416104
0.0416485
0.041671
0.0416755
0.0416705
0.041657
0.0416415
0.0416281
0.0416158
0.0416027
0.0415894
0.0415764
0.0415641
0.0415523
0.0415409
0.0415302
0.0415206
0.041512
0.0415042
0.041497
0.0414898
0.0414828
0.0414758
0.0414689
0.0414622
0.0414558
0.0414498
0.0414443
0.0414391
0.041434
0.041429
0.0414241
0.0414192
0.0414142
0.041409
0.0414035
0.0413975
0.041391
0.0413837
0.0413754
0.0413658
0.0413543
0.0413406
0.0413244
0.0413055
0.0412836
0.0412581
0.0412283
0.0411935
0.041153
0.0411065
0.0410533
0.0409926
0.0409231
0.0408436
0.040753
0.0406502
0.0405342
0.0404039
0.0402581
0.0400949
0.0399126
0.0397094
0.0394839
0.0392338
0.0389575
0.0386509
0.0383122
0.0379384
0.0375316
0.0370894
0.0366187
0.0361068
0.0355609
0.0349706
0.0343304
0.0336493
0.032937
0.0322086
0.0314491
0.0306453
0.0298231
0.0289897
0.0281506
0.0273414
0.0265747
0.025795
0.0250699
0.0243504
0.0236567
0.0230077
0.0224024
0.0218473
0.0213223
0.02084
0.0203648
0.0199161
0.0194918
0.0187902
0.042133
0.042133
0.042133
0.042133
0.0421334
0.0421412
0.0421924
0.0423141
0.0424283
0.042477
0.042464
0.0423785
0.0422218
0.042086
0.0419931
0.0419269
0.0418661
0.041795
0.0417146
0.0416446
0.041608
0.0416013
0.0416157
0.0416529
0.0416844
0.0416951
0.0416941
0.0416852
0.0416714
0.0416587
0.0416479
0.0416369
0.0416255
0.0416141
0.0416034
0.041593
0.0415831
0.0415739
0.0415657
0.0415587
0.0415527
0.0415473
0.0415421
0.041537
0.0415321
0.0415272
0.0415226
0.0415184
0.0415147
0.0415115
0.0415088
0.0415064
0.0415041
0.041502
0.0415001
0.0414982
0.0414963
0.0414942
0.041492
0.0414893
0.0414861
0.0414822
0.0414772
0.0414708
0.0414625
0.0414521
0.0414393
0.0414239
0.0414056
0.0413835
0.0413569
0.0413254
0.0412884
0.0412455
0.0411958
0.0411384
0.0410721
0.0409956
0.0409081
0.0408084
0.0406956
0.0405685
0.0404256
0.0402655
0.0400862
0.0398861
0.0396623
0.0394132
0.0391356
0.0388293
0.038493
0.0381269
0.0377266
0.0372913
0.0368101
0.0362945
0.0357335
0.0351404
0.0345128
0.033822
0.0330955
0.0323544
0.0315821
0.0307746
0.0299588
0.0291069
0.0282355
0.0274217
0.0265894
0.0257835
0.0250377
0.0242977
0.0235924
0.0229412
0.0223505
0.0217936
0.0212805
0.0207765
0.0203089
0.0198685
0.019099
0.042133
0.042133
0.042133
0.042133
0.0421332
0.0421376
0.0421748
0.0422853
0.0424138
0.0424781
0.0424747
0.0424153
0.0422686
0.0421272
0.04203
0.0419629
0.0419054
0.0418394
0.0417618
0.0416866
0.0416367
0.0416205
0.041626
0.0416565
0.0416945
0.0417143
0.0417179
0.0417138
0.0417029
0.041691
0.0416813
0.0416723
0.0416628
0.0416532
0.0416439
0.041635
0.0416265
0.0416187
0.041612
0.0416066
0.0416023
0.0415986
0.0415954
0.0415923
0.0415894
0.0415866
0.0415842
0.0415821
0.0415806
0.0415798
0.0415795
0.0415796
0.04158
0.0415807
0.0415816
0.0415828
0.0415841
0.0415854
0.0415866
0.0415877
0.0415885
0.0415888
0.0415883
0.0415867
0.0415837
0.0415789
0.0415719
0.0415627
0.0415512
0.0415364
0.0415179
0.0414949
0.0414671
0.041434
0.041395
0.0413492
0.0412956
0.041233
0.0411605
0.0410769
0.0409814
0.0408731
0.0407504
0.040612
0.0404559
0.0402805
0.0400834
0.0398633
0.0396177
0.0393456
0.0390439
0.038711
0.0383427
0.0379388
0.0374944
0.0370184
0.0364965
0.0359413
0.0353387
0.0346984
0.0340104
0.0332753
0.032526
0.0317208
0.0309119
0.0300835
0.029221
0.0283422
0.0275079
0.0266419
0.0258423
0.0250562
0.0242789
0.02355
0.0228595
0.0222222
0.0216461
0.0210907
0.0205895
0.0201393
0.0193887
0.042133
0.042133
0.042133
0.042133
0.0421331
0.0421354
0.0421604
0.0422549
0.0423921
0.0424764
0.0424842
0.042448
0.0423161
0.0421713
0.0420695
0.0420003
0.0419445
0.0418828
0.041809
0.0417321
0.0416719
0.0416444
0.0416423
0.041662
0.0417023
0.0417326
0.041743
0.0417428
0.0417362
0.0417255
0.0417165
0.041709
0.0417015
0.0416937
0.0416861
0.0416786
0.0416715
0.0416651
0.0416598
0.0416559
0.0416534
0.0416516
0.0416503
0.0416492
0.0416483
0.0416476
0.0416473
0.0416475
0.0416482
0.0416497
0.0416518
0.0416545
0.0416576
0.041661
0.0416649
0.0416691
0.0416735
0.0416782
0.0416829
0.0416877
0.0416924
0.0416968
0.0417008
0.0417039
0.0417059
0.0417065
0.0417053
0.0417023
0.0416973
0.0416897
0.0416788
0.0416641
0.0416451
0.0416215
0.0415927
0.0415579
0.0415163
0.0414667
0.0414082
0.0413397
0.0412604
0.0411693
0.0410652
0.0409468
0.0408124
0.0406607
0.0404894
0.0402968
0.0400802
0.0398386
0.0395699
0.0392723
0.0389415
0.0385755
0.0381702
0.0377311
0.0372509
0.0367416
0.0361844
0.0355887
0.0349506
0.0342514
0.0335198
0.0327353
0.0319196
0.0310898
0.03025
0.02936
0.0284986
0.0276203
0.0267353
0.0259159
0.0251066
0.0243654
0.0236282
0.0229092
0.022224
0.0215544
0.0209343
0.0203724
0.019392
0.042133
0.042133
0.042133
0.042133
0.0421331
0.0421341
0.0421495
0.0422249
0.0423633
0.0424698
0.0424925
0.0424742
0.0423639
0.0422197
0.0421123
0.0420389
0.041983
0.0419248
0.0418557
0.0417805
0.0417143
0.0416747
0.0416641
0.0416737
0.0417097
0.0417485
0.0417685
0.0417728
0.0417702
0.041762
0.0417535
0.0417472
0.0417416
0.0417357
0.0417298
0.0417238
0.0417181
0.041713
0.0417092
0.0417068
0.041706
0.0417061
0.0417068
0.0417076
0.0417088
0.0417103
0.0417122
0.0417145
0.0417174
0.0417212
0.0417257
0.0417309
0.0417367
0.0417429
0.0417495
0.0417567
0.0417643
0.0417721
0.0417803
0.0417887
0.0417971
0.0418056
0.0418138
0.0418216
0.0418285
0.0418342
0.0418386
0.0418414
0.0418426
0.0418418
0.0418384
0.0418317
0.0418212
0.0418067
0.0417876
0.0417634
0.0417333
0.0416964
0.0416516
0.0415979
0.0415345
0.0414604
0.0413748
0.0412764
0.0411637
0.0410352
0.0408886
0.0407225
0.0405347
0.0403241
0.0400874
0.039822
0.0395245
0.0391955
0.0388335
0.0384403
0.0380074
0.0375385
0.0370185
0.0364634
0.0358557
0.035208
0.0345082
0.0337646
0.0329629
0.0321388
0.0312801
0.0304076
0.0295094
0.0286175
0.0276786
0.0267832
0.0259032
0.0250763
0.0243087
0.0235895
0.0229335
0.0222933
0.0216674
0.0210651
0.0199908
0.042133
0.042133
0.042133
0.042133
0.042133
0.0421335
0.042142
0.0421975
0.0423289
0.042456
0.0424976
0.0424936
0.0424116
0.0422724
0.0421571
0.0420775
0.0420204
0.0419654
0.0419016
0.0418306
0.0417626
0.0417128
0.0416928
0.0416941
0.0417192
0.0417617
0.041793
0.0418043
0.0418051
0.0418005
0.0417928
0.0417872
0.0417829
0.0417789
0.0417749
0.0417705
0.0417661
0.0417625
0.0417601
0.0417593
0.0417602
0.0417623
0.0417649
0.0417678
0.041771
0.0417747
0.0417787
0.0417832
0.0417885
0.0417945
0.0418015
0.0418092
0.0418176
0.0418265
0.041836
0.0418461
0.0418568
0.0418679
0.0418794
0.0418913
0.0419035
0.0419159
0.0419284
0.0419406
0.0419523
0.0419631
0.0419729
0.0419815
0.0419888
0.0419944
0.041998
0.041999
0.0419968
0.0419911
0.0419815
0.0419672
0.041948
0.0419228
0.0418909
0.041851
0.0418024
0.0417443
0.0416757
0.0415956
0.0415026
0.0413954
0.0412722
0.0411316
0.0409711
0.0407892
0.0405832
0.0403521
0.0400937
0.0398067
0.0394864
0.0391313
0.0387349
0.0383009
0.0378194
0.037303
0.0367329
0.0361271
0.0354741
0.0347713
0.0340227
0.0332222
0.0323876
0.0315097
0.0306223
0.0297213
0.0287876
0.0278585
0.0269238
0.0259597
0.0250381
0.0241612
0.0233744
0.0226479
0.0220023
0.0214379
0.020372
0.042133
0.042133
0.042133
0.042133
0.042133
0.0421332
0.0421373
0.0421745
0.0422905
0.0424333
0.0424982
0.0425097
0.0424565
0.0423266
0.042202
0.042116
0.0420579
0.0420064
0.0419481
0.0418823
0.041816
0.0417602
0.041729
0.0417223
0.0417352
0.0417742
0.0418147
0.0418358
0.0418409
0.0418396
0.0418337
0.0418286
0.0418253
0.041823
0.0418209
0.0418182
0.0418154
0.0418132
0.0418124
0.0418131
0.0418159
0.0418198
0.0418244
0.0418294
0.0418348
0.0418406
0.0418468
0.0418536
0.041861
0.0418694
0.0418787
0.0418889
0.0418999
0.0419115
0.0419238
0.0419368
0.0419504
0.0419647
0.0419795
0.0419949
0.0420107
0.0420269
0.0420434
0.0420599
0.0420763
0.042092
0.042107
0.0421211
0.0421342
0.0421462
0.0421565
0.0421646
0.0421702
0.0421728
0.0421724
0.0421678
0.0421593
0.0421453
0.0421257
0.0420992
0.0420651
0.0420226
0.0419707
0.0419088
0.0418354
0.0417494
0.0416491
0.0415329
0.0413987
0.0412451
0.0410698
0.040871
0.040646
0.040393
0.0401087
0.0397915
0.0394364
0.0390447
0.0386091
0.0381372
0.0376147
0.037055
0.0364378
0.0357766
0.0350707
0.0342939
0.0334967
0.0326201
0.031725
0.0308211
0.0298993
0.0289613
0.0280551
0.0271211
0.0261976
0.0253004
0.0243924
0.023504
0.0226473
0.0218894
0.0205065
0.042133
0.042133
0.042133
0.042133
0.042133
0.0421331
0.0421349
0.0421571
0.0422511
0.0424017
0.0424939
0.0425238
0.042494
0.0423785
0.0422472
0.0421562
0.0420968
0.0420483
0.041995
0.0419346
0.041872
0.0418143
0.0417731
0.0417574
0.0417608
0.0417883
0.0418321
0.0418649
0.0418774
0.0418789
0.0418759
0.0418713
0.0418686
0.0418676
0.0418675
0.0418668
0.0418657
0.0418651
0.0418658
0.0418683
0.0418727
0.0418786
0.0418853
0.0418924
0.0418999
0.0419079
0.0419163
0.0419253
0.041935
0.0419457
0.0419574
0.0419701
0.0419836
0.0419979
0.0420129
0.0420288
0.0420454
0.0420628
0.0420809
0.0420997
0.042119
0.042139
0.0421594
0.0421802
0.042201
0.0422216
0.0422416
0.0422611
0.0422799
0.0422979
0.0423147
0.04233
0.0423431
0.0423536
0.0423614
0.0423661
0.0423675
0.0423643
0.0423564
0.0423425
0.0423219
0.0422937
0.0422573
0.042212
0.0421565
0.0420899
0.0420106
0.0419173
0.0418081
0.0416814
0.0415348
0.0413672
0.0411765
0.0409607
0.0407155
0.0404384
0.0401255
0.039778
0.0393905
0.0389668
0.0384959
0.0379863
0.0374181
0.036807
0.0361386
0.0354243
0.0346457
0.0338138
0.0329096
0.0319744
0.0310345
0.0300273
0.0290306
0.0280465
0.0270829
0.0262008
0.0253115
0.0244578
0.0236286
0.0228513
0.0214134
0.042133
0.042133
0.042133
0.042133
0.042133
0.0421331
0.0421337
0.0421454
0.0422144
0.0423615
0.0424839
0.0425331
0.0425179
0.0424284
0.0422966
0.0421999
0.0421376
0.0420911
0.0420426
0.0419874
0.0419295
0.0418735
0.0418263
0.0417999
0.0417947
0.0418081
0.0418474
0.0418893
0.0419122
0.0419182
0.0419177
0.0419146
0.0419125
0.0419125
0.0419143
0.0419157
0.0419166
0.0419179
0.0419203
0.0419244
0.0419306
0.0419385
0.0419472
0.0419565
0.0419662
0.0419763
0.041987
0.0419982
0.0420102
0.0420231
0.0420371
0.0420522
0.0420682
0.0420851
0.0421029
0.0421215
0.042141
0.0421614
0.0421827
0.0422047
0.0422275
0.0422511
0.0422753
0.0423001
0.0423252
0.0423504
0.0423754
0.0423999
0.0424241
0.0424479
0.0424709
0.0424928
0.0425131
0.0425314
0.0425475
0.0425609
0.0425713
0.0425783
0.0425813
0.0425797
0.0425723
0.0425586
0.042537
0.0425079
0.04247
0.0424224
0.0423637
0.0422926
0.0422072
0.0421061
0.0419874
0.0418496
0.0416901
0.0415069
0.0412966
0.0410583
0.0407888
0.0404878
0.0401494
0.0397744
0.039353
0.0388899
0.0383706
0.0378098
0.0371877
0.03652
0.035799
0.0350191
0.0341873
0.0332831
0.0323633
0.0313499
0.0303118
0.0292717
0.0281856
0.027123
0.0260669
0.025069
0.0241733
0.0233994
0.0218961
0.042133
0.042133
0.042133
0.042133
0.042133
0.042133
0.0421333
0.0421386
0.0421838
0.0423155
0.0424636
0.0425352
0.0425337
0.0424757
0.0423497
0.0422456
0.0421793
0.0421343
0.0420909
0.0420408
0.0419873
0.0419341
0.0418849
0.0418486
0.0418342
0.0418369
0.041863
0.0419073
0.0419421
0.0419564
0.041959
0.0419579
0.0419566
0.0419574
0.0419608
0.0419646
0.0419678
0.0419711
0.0419754
0.0419815
0.0419895
0.0419992
0.0420101
0.0420216
0.0420334
0.0420457
0.0420585
0.042072
0.0420862
0.0421013
0.0421176
0.0421351
0.0421536
0.0421731
0.0421935
0.0422149
0.0422372
0.0422606
0.0422849
0.0423102
0.0423364
0.0423635
0.0423914
0.0424201
0.0424494
0.0424791
0.0425088
0.0425383
0.0425677
0.042597
0.042626
0.0426543
0.0426814
0.042707
0.0427308
0.0427526
0.0427721
0.0427887
0.0428017
0.0428108
0.0428153
0.0428152
0.0428077
0.0427939
0.0427719
0.0427416
0.0427016
0.0426509
0.0425878
0.0425112
0.0424188
0.0423092
0.0421804
0.0420307
0.0418576
0.0416593
0.0414315
0.0411726
0.0408769
0.0405445
0.0401677
0.0397495
0.0392788
0.0387655
0.0381924
0.0375726
0.0368895
0.0361532
0.0353649
0.0345126
0.0336049
0.0326598
0.0316655
0.0306785
0.0296157
0.0285632
0.0274663
0.0263837
0.025289
0.0242934
0.0224294
0.042133
0.042133
0.042133
0.042133
0.042133
0.042133
0.0421331
0.0421352
0.0421614
0.0422681
0.0424295
0.0425311
0.0425459
0.0425163
0.042403
0.0422921
0.0422224
0.0421786
0.04214
0.0420946
0.0420439
0.0419931
0.0419445
0.0419026
0.041878
0.0418722
0.0418839
0.0419223
0.0419659
0.0419916
0.042
0.0420011
0.0420011
0.0420027
0.0420073
0.0420133
0.0420191
0.0420248
0.0420313
0.0420392
0.042049
0.0420607
0.0420736
0.0420872
0.0421012
0.0421157
0.0421307
0.0421463
0.0421627
0.04218
0.0421985
0.0422183
0.0422392
0.0422612
0.0422842
0.0423082
0.0423333
0.0423595
0.0423868
0.0424152
0.0424446
0.0424751
0.0425065
0.0425389
0.0425722
0.0426061
0.0426403
0.0426746
0.042709
0.0427435
0.042778
0.0428123
0.042846
0.0428785
0.0429098
0.0429395
0.0429674
0.042993
0.0430161
0.0430359
0.0430517
0.043063
0.0430693
0.0430705
0.0430642
0.043051
0.0430292
0.0429981
0.0429563
0.0429025
0.0428348
0.0427519
0.0426519
0.042533
0.0423929
0.0422298
0.0420401
0.0418216
0.0415697
0.0412837
0.0409574
0.0405925
0.0401798
0.0397233
0.0392086
0.0386466
0.0380177
0.0373328
0.0365774
0.0357586
0.0348606
0.0339114
0.032888
0.0318307
0.0307444
0.0296476
0.0285748
0.027524
0.0264873
0.0255202
0.0236759
0.042133
0.042133
0.042133
0.042133
0.042133
0.042133
0.0421331
0.0421338
0.042147
0.0422247
0.0423849
0.0425178
0.0425561
0.0425449
0.0424536
0.0423405
0.0422675
0.0422231
0.0421878
0.0421458
0.0420972
0.0420482
0.0420017
0.0419587
0.0419263
0.0419125
0.041914
0.0419384
0.041984
0.0420218
0.0420397
0.0420449
0.0420464
0.0420486
0.0420541
0.0420621
0.0420705
0.0420789
0.0420877
0.0420976
0.0421093
0.0421228
0.0421376
0.0421533
0.0421695
0.0421861
0.0422032
0.0422209
0.0422394
0.0422589
0.0422795
0.0423015
0.0423247
0.0423492
0.0423747
0.0424013
0.042429
0.042458
0.0424882
0.0425196
0.0425522
0.0425859
0.0426208
0.0426568
0.0426939
0.0427318
0.0427704
0.0428093
0.0428485
0.042888
0.0429279
0.0429679
0.0430077
0.0430468
0.0430851
0.0431222
0.0431581
0.0431923
0.0432244
0.043254
0.0432806
0.0433037
0.0433221
0.0433356
0.0433438
0.0433463
0.0433412
0.0433284
0.0433063
0.0432737
0.0432293
0.0431717
0.0430991
0.04301
0.0429023
0.0427741
0.0426219
0.0424436
0.0422352
0.0419957
0.04172
0.0414087
0.0410529
0.0406538
0.0402002
0.0396997
0.0391343
0.0385143
0.0378227
0.0370707
0.0362543
0.0353604
0.0344163
0.0333372
0.0322442
0.0310211
0.0298381
0.0286076
0.0273892
0.0262992
0.0241497
0.042133
0.042133
0.042133
0.042133
0.042133
0.042133
0.042133
0.0421333
0.0421391
0.0421895
0.0423342
0.0424941
0.0425593
0.0425631
0.042502
0.042392
0.0423125
0.0422649
0.0422315
0.0421933
0.0421476
0.0421006
0.0420568
0.0420157
0.0419799
0.041958
0.0419521
0.0419624
0.042001
0.0420474
0.0420771
0.042089
0.042093
0.0420962
0.0421021
0.0421116
0.0421225
0.0421334
0.0421446
0.0421567
0.0421702
0.0421854
0.0422021
0.0422198
0.0422379
0.0422566
0.0422757
0.0422955
0.042316
0.0423375
0.0423602
0.0423843
0.0424097
0.0424365
0.0424644
0.0424934
0.0425238
0.0425554
0.0425884
0.0426226
0.0426582
0.042695
0.0427331
0.0427726
0.0428132
0.042855
0.0428976
0.0429409
0.0429846
0.0430289
0.0430737
0.043119
0.0431646
0.0432099
0.0432548
0.0432989
0.0433423
0.0433845
0.0434252
0.0434641
0.0435008
0.0435345
0.0435649
0.0435913
0.043613
0.0436294
0.04364
0.0436444
0.0436413
0.043629
0.0436067
0.0435724
0.0435252
0.0434634
0.0433854
0.0432891
0.0431719
0.0430319
0.0428654
0.042671
0.0424434
0.0421816
0.0418773
0.0415309
0.0411322
0.0406848
0.0401748
0.0396117
0.0389763
0.0382781
0.0375081
0.0366747
0.0357696
0.0347866
0.0337492
0.0326441
0.0314754
0.0303097
0.0290393
0.0278286
0.0254845
0.042133
0.042133
0.042133
0.042133
0.042133
0.042133
0.042133
0.0421331
0.0421353
0.0421643
0.042283
0.0424587
0.042554
0.0425783
0.0425444
0.0424425
0.0423544
0.0423028
0.0422715
0.0422385
0.042197
0.0421521
0.0421102
0.0420718
0.0420362
0.0420087
0.0419965
0.0419975
0.0420218
0.0420695
0.0421111
0.0421328
0.0421413
0.042146
0.0421522
0.0421624
0.0421752
0.0421887
0.0422022
0.0422163
0.0422316
0.0422485
0.0422669
0.0422864
0.0423065
0.042327
0.0423481
0.0423698
0.0423922
0.0424156
0.0424403
0.0424663
0.0424939
0.0425228
0.042553
0.0425845
0.0426173
0.0426515
0.0426871
0.0427241
0.0427625
0.0428024
0.0428436
0.0428863
0.0429304
0.0429758
0.0430223
0.0430697
0.0431178
0.0431666
0.0432162
0.0432665
0.0433175
0.0433687
0.0434197
0.0434705
0.0435208
0.0435705
0.0436193
0.0436667
0.0437126
0.0437563
0.0437974
0.0438353
0.0438695
0.0438995
0.0439246
0.0439439
0.0439569
0.0439631
0.0439617
0.0439494
0.0439267
0.0438905
0.0438406
0.0437747
0.0436909
0.043587
0.0434597
0.0433069
0.0431236
0.0429082
0.0426541
0.0423612
0.0420203
0.0416332
0.0411891
0.040692
0.0401229
0.0394903
0.0387784
0.0379975
0.0371308
0.0361771
0.0351238
0.0340236
0.032752
0.0315165
0.0302667
0.029165
0.0270247
0.042133
0.042133
0.042133
0.042133
0.042133
0.042133
0.042133
0.0421331
0.0421338
0.0421486
0.0422366
0.0424137
0.0425429
0.0425918
0.0425741
0.0424869
0.0423941
0.0423395
0.0423103
0.0422826
0.0422459
0.0422029
0.0421621
0.0421263
0.0420931
0.042064
0.0420464
0.0420417
0.0420526
0.0420929
0.0421426
0.0421757
0.0421908
0.0421979
0.0422048
0.0422152
0.0422294
0.0422449
0.0422605
0.0422765
0.0422935
0.0423118
0.0423318
0.0423529
0.0423748
0.0423972
0.04242
0.0424435
0.0424678
0.042493
0.0425194
0.0425473
0.0425768
0.0426078
0.0426402
0.0426739
0.0427091
0.0427457
0.0427838
0.0428234
0.0428645
0.0429071
0.0429514
0.0429971
0.0430444
0.0430932
0.0431434
0.0431946
0.0432468
0.0432998
0.0433538
0.0434088
0.0434648
0.0435213
0.0435781
0.043635
0.0436919
0.0437485
0.0438047
0.0438601
0.0439145
0.0439675
0.0440186
0.0440674
0.0441132
0.0441557
0.0441943
0.0442286
0.0442578
0.0442805
0.0442963
0.0443044
0.0443049
0.0442924
0.044269
0.0442309
0.0441778
0.0441071
0.0440162
0.0439028
0.0437625
0.0435939
0.0433915
0.0431545
0.0428746
0.0425525
0.0421771
0.0417492
0.0412538
0.0406987
0.040064
0.039358
0.0385655
0.0376974
0.0367412
0.0356664
0.0345364
0.0332154
0.0318235
0.0304797
0.0279757
0.042133
0.042133
0.042133
0.042133
0.042133
0.042133
0.042133
0.042133
0.0421333
0.0421401
0.0421993
0.0423634
0.042526
0.042597
0.0425921
0.0425279
0.0424339
0.0423762
0.042348
0.0423247
0.0422927
0.0422522
0.0422125
0.0421789
0.0421493
0.0421218
0.042101
0.0420924
0.0420949
0.0421214
0.0421721
0.0422159
0.0422398
0.042251
0.0422592
0.0422697
0.0422845
0.0423015
0.042319
0.0423367
0.0423552
0.0423751
0.0423965
0.0424192
0.0424427
0.0424667
0.0424912
0.0425163
0.0425422
0.0425691
0.0425972
0.0426268
0.0426581
0.0426911
0.0427255
0.0427614
0.0427988
0.0428377
0.0428782
0.0429203
0.042964
0.0430093
0.0430563
0.043105
0.0431554
0.0432074
0.0432609
0.0433158
0.0433718
0.0434289
0.0434871
0.0435465
0.0436071
0.0436686
0.0437309
0.0437935
0.0438564
0.0439194
0.0439825
0.0440453
0.0441076
0.044169
0.0442292
0.0442878
0.0443442
0.0443981
0.0444489
0.0444963
0.0445397
0.0445783
0.0446114
0.0446373
0.044656
0.0446662
0.0446679
0.044656
0.0446318
0.0445918
0.0445346
0.0444579
0.0443584
0.0442341
0.0440802
0.0438949
0.0436704
0.0434055
0.0430893
0.0427227
0.0422931
0.0418024
0.0412315
0.0405915
0.0398673
0.0390618
0.0381576
0.0371563
0.0360574
0.03491
0.033585
0.0323635
0.0300649
0.042133
0.042133
0.042133
0.042133
0.042133
0.042133
0.042133
0.042133
0.0421331
0.042136
0.0421727
0.0423135
0.0424989
0.0425965
0.0426045
0.0425642
0.0424728
0.0424114
0.042383
0.0423636
0.0423369
0.0423002
0.0422622
0.0422306
0.0422043
0.0421799
0.0421587
0.0421467
0.0421443
0.0421575
0.0422014
0.0422528
0.0422866
0.0423035
0.0423138
0.0423249
0.04234
0.0423581
0.0423772
0.0423966
0.0424166
0.042438
0.0424608
0.042485
0.04251
0.0425355
0.0425615
0.0425881
0.0426155
0.0426439
0.0426735
0.0427047
0.0427377
0.0427724
0.0428088
0.0428466
0.0428861
0.0429272
0.0429699
0.0430143
0.0430604
0.0431083
0.0431579
0.0432093
0.0432625
0.0433175
0.0433742
0.0434325
0.0434921
0.0435529
0.0436149
0.0436784
0.0437432
0.0438094
0.0438765
0.0439444
0.0440128
0.0440818
0.0441512
0.0442207
0.0442902
0.0443594
0.0444279
0.0444955
0.0445617
0.044626
0.0446882
0.0447478
0.0448043
0.0448572
0.0449056
0.0449489
0.0449863
0.0450159
0.0450376
0.04505
0.0450528
0.0450413
0.0450159
0.0449733
0.0449115
0.0448281
0.0447186
0.0445809
0.0444079
0.0441982
0.0439423
0.0436407
0.0432813
0.0428638
0.0423724
0.0418122
0.0411643
0.0404318
0.0395967
0.038658
0.0376021
0.0364249
0.0350815
0.0337409
0.0313896
0.042133
0.042133
0.042133
0.042133
0.042133
0.042133
0.042133
0.042133
0.0421331
0.0421342
0.0421555
0.042269
0.0424639
0.0425907
0.0426152
0.0425938
0.0425084
0.0424436
0.042415
0.0423996
0.0423789
0.0423472
0.0423113
0.0422809
0.042257
0.0422353
0.0422152
0.0422009
0.0421953
0.0422
0.0422319
0.0422854
0.0423286
0.0423528
0.0423667
0.042379
0.0423945
0.0424136
0.0424342
0.0424551
0.0424768
0.0424997
0.042524
0.0425496
0.0425761
0.042603
0.0426304
0.0426583
0.042687
0.0427168
0.0427478
0.0427805
0.042815
0.0428514
0.0428895
0.0429293
0.0429707
0.0430138
0.0430587
0.0431053
0.0431537
0.0432039
0.043256
0.04331
0.0433659
0.0434237
0.0434833
0.0435447
0.0436076
0.0436719
0.0437377
0.0438049
0.0438737
0.0439441
0.0440158
0.0440885
0.0441621
0.0442365
0.0443117
0.0443874
0.0444635
0.0445397
0.0446158
0.0446916
0.0447665
0.0448404
0.0449127
0.0449832
0.0450515
0.0451171
0.0451794
0.0452378
0.0452914
0.0453395
0.0453812
0.0454147
0.0454395
0.0454541
0.0454581
0.0454469
0.0454199
0.0453737
0.0453052
0.0452126
0.04509
0.044936
0.0447422
0.0445078
0.0442203
0.0438793
0.0434704
0.0429932
0.0424288
0.0417823
0.0410378
0.0401918
0.0392196
0.0381246
0.0369118
0.0356121
0.0334028
0.042133
0.042133
0.042133
0.042133
0.042133
0.042133
0.042133
0.042133
0.042133
0.0421335
0.0421454
0.0422327
0.0424258
0.0425797
0.0426251
0.0426147
0.0425386
0.042473
0.0424451
0.0424337
0.042419
0.0423924
0.0423584
0.0423284
0.0423056
0.0422861
0.0422678
0.042253
0.0422454
0.0422454
0.0422651
0.042315
0.0423658
0.042398
0.0424165
0.0424307
0.0424469
0.0424668
0.0424889
0.0425116
0.042535
0.0425596
0.0425856
0.0426127
0.0426406
0.0426689
0.0426975
0.0427266
0.0427566
0.0427876
0.04282
0.042854
0.04289
0.0429279
0.0429677
0.0430092
0.0430525
0.0430975
0.0431444
0.043193
0.0432436
0.043296
0.0433504
0.0434068
0.0434652
0.0435256
0.0435879
0.0436522
0.0437182
0.0437857
0.0438547
0.0439254
0.0439979
0.0440721
0.0441479
0.044225
0.0443033
0.0443826
0.044463
0.0445444
0.0446264
0.044709
0.0447919
0.044875
0.0449578
0.0450402
0.0451217
0.0452021
0.0452811
0.0453583
0.0454332
0.0455052
0.0455736
0.0456379
0.0456971
0.0457504
0.0457968
0.0458343
0.0458624
0.0458792
0.0458844
0.0458731
0.0458435
0.0457931
0.0457174
0.0456147
0.0454769
0.0453021
0.0450785
0.0448054
0.0444672
0.0440626
0.0435748
0.0430072
0.0423406
0.0415693
0.0406635
0.0396476
0.0384534
0.0372061
0.0351963
0.042133
0.042133
0.042133
0.042133
0.042133
0.042133
0.042133
0.042133
0.042133
0.0421332
0.0421399
0.0422054
0.0423891
0.0425666
0.0426321
0.0426279
0.0425647
0.0425007
0.042474
0.042466
0.0424561
0.0424342
0.0424018
0.042372
0.0423501
0.0423325
0.0423164
0.0423026
0.042294
0.0422914
0.0423024
0.0423443
0.042399
0.0424388
0.0424624
0.0424791
0.0424963
0.0425172
0.0425409
0.0425655
0.0425909
0.0426173
0.0426449
0.0426736
0.0427029
0.0427324
0.0427622
0.0427926
0.0428237
0.042856
0.0428896
0.0429249
0.0429622
0.0430016
0.0430429
0.0430861
0.0431311
0.043178
0.0432267
0.0432773
0.0433299
0.0433844
0.0434409
0.0434995
0.0435602
0.0436231
0.043688
0.0437549
0.0438236
0.0438941
0.0439663
0.0440402
0.044116
0.0441937
0.0442733
0.0443544
0.044437
0.0445208
0.044606
0.0446924
0.0447799
0.0448682
0.0449573
0.0450469
0.0451369
0.0452269
0.0453167
0.0454059
0.0454943
0.0455818
0.0456677
0.0457518
0.0458334
0.045912
0.0459868
0.0460572
0.0461223
0.046181
0.0462323
0.046274
0.0463054
0.0463245
0.0463307
0.0463188
0.0462858
0.046229
0.0461421
0.0460236
0.0458632
0.0456597
0.0453986
0.0450793
0.0446836
0.0442099
0.0436365
0.042953
0.0421371
0.0411858
0.0400476
0.0388061
0.0369429
0.042133
0.042133
0.042133
0.042133
0.042133
0.042133
0.042133
0.042133
0.042133
0.0421331
0.042137
0.0421863
0.0423572
0.0425527
0.0426355
0.0426379
0.0425873
0.0425268
0.0425014
0.0424957
0.0424895
0.0424718
0.0424414
0.0424125
0.0423918
0.042376
0.0423621
0.0423501
0.0423417
0.0423377
0.0423432
0.0423759
0.0424302
0.042476
0.0425048
0.0425242
0.0425428
0.0425648
0.0425901
0.0426167
0.042644
0.0426723
0.0427016
0.0427318
0.0427625
0.0427933
0.0428243
0.0428558
0.0428881
0.0429215
0.0429563
0.0429929
0.0430316
0.0430724
0.0431152
0.04316
0.0432067
0.0432552
0.0433057
0.0433582
0.0434126
0.043469
0.0435276
0.0435883
0.0436511
0.0437162
0.0437835
0.0438528
0.0439242
0.0439974
0.0440724
0.0441492
0.044228
0.0443089
0.0443919
0.0444766
0.044563
0.0446509
0.0447404
0.0448313
0.0449236
0.0450171
0.0451116
0.0452071
0.0453034
0.0454002
0.0454972
0.0455942
0.0456911
0.0457876
0.0458834
0.0459781
0.0460713
0.0461626
0.0462512
0.0463369
0.0464186
0.0464956
0.0465669
0.0466314
0.046688
0.0467343
0.0467692
0.0467907
0.0467974
0.0467836
0.0467457
0.0466817
0.0465829
0.0464477
0.0462624
0.0460251
0.045716
0.0453336
0.0448556
0.0442751
0.0435681
0.0427043
0.0416772
0.0404663
0.0387592
0.042133
0.042133
0.042133
0.042133
0.042133
0.042133
0.042133
0.042133
0.042133
0.0421331
0.0421355
0.0421738
0.0423321
0.0425397
0.0426367
0.0426466
0.0426066
0.0425509
0.0425264
0.0425223
0.0425192
0.0425059
0.0424782
0.042451
0.0424317
0.0424178
0.0424061
0.0423961
0.0423885
0.042384
0.0423863
0.0424108
0.0424612
0.0425109
0.0425446
0.042567
0.0425871
0.0426104
0.0426371
0.0426655
0.0426945
0.0427244
0.0427553
0.042787
0.042819
0.042851
0.0428832
0.0429158
0.0429493
0.0429839
0.04302
0.0430578
0.0430978
0.0431401
0.0431844
0.0432306
0.0432789
0.0433291
0.0433812
0.0434354
0.0434916
0.0435498
0.0436102
0.0436729
0.0437378
0.0438049
0.0438743
0.0439459
0.0440196
0.0440953
0.0441729
0.0442524
0.044334
0.0444178
0.0445038
0.0445918
0.0446817
0.0447732
0.0448665
0.0449615
0.0450582
0.0451562
0.0452557
0.0453564
0.0454582
0.045561
0.0456645
0.0457685
0.0458728
0.0459772
0.0460817
0.0461857
0.0462891
0.0463914
0.0464921
0.0465908
0.0466871
0.0467801
0.046869
0.0469529
0.0470309
0.0471016
0.0471639
0.047215
0.0472537
0.0472774
0.0472847
0.0472691
0.0472251
0.0471491
0.0470301
0.0468659
0.0466378
0.0463448
0.0459608
0.0454792
0.0448596
0.0440704
0.0431134
0.0419266
0.0403431
0.042133
0.042133
0.042133
0.042133
0.042133
0.042133
0.042133
0.042133
0.042133
0.0421331
0.0421349
0.0421663
0.0423145
0.0425295
0.0426372
0.0426544
0.0426231
0.042572
0.0425489
0.0425463
0.0425464
0.0425372
0.0425127
0.0424877
0.0424703
0.0424583
0.0424487
0.0424406
0.0424341
0.0424298
0.0424304
0.0424488
0.0424936
0.0425453
0.0425833
0.0426087
0.0426306
0.0426549
0.0426829
0.0427125
0.0427428
0.042774
0.0428061
0.042839
0.0428722
0.0429055
0.0429388
0.0429726
0.0430073
0.0430431
0.0430804
0.0431196
0.0431609
0.0432046
0.0432503
0.0432981
0.0433478
0.0433996
0.0434534
0.0435092
0.043567
0.0436269
0.0436891
0.0437536
0.0438203
0.0438894
0.0439608
0.0440345
0.0441103
0.0441883
0.0442682
0.0443502
0.0444343
0.0445208
0.0446095
0.0447005
0.0447935
0.0448883
0.044985
0.0450837
0.0451841
0.0452863
0.0453901
0.0454954
0.0456021
0.0457102
0.0458193
0.0459294
0.0460402
0.0461516
0.0462635
0.0463758
0.046488
0.0465998
0.046711
0.0468212
0.0469299
0.0470367
0.0471409
0.0472418
0.0473384
0.04743
0.0475154
0.0475931
0.0476619
0.0477181
0.0477607
0.0477865
0.0477935
0.047773
0.0477194
0.0476288
0.0474862
0.0472891
0.0470124
0.0466519
0.0461564
0.045496
0.0446391
0.0435188
0.0420164
0.042133
0.042133
0.042133
0.042133
0.042133
0.042133
0.042133
0.042133
0.042133
0.0421331
0.0421346
0.0421628
0.0423047
0.0425244
0.0426385
0.0426617
0.0426362
0.0425896
0.0425698
0.042569
0.0425722
0.0425657
0.0425447
0.0425224
0.0425071
0.042497
0.0424893
0.042483
0.0424779
0.0424744
0.0424746
0.0424893
0.0425288
0.0425808
0.0426224
0.0426507
0.0426742
0.0426994
0.0427281
0.0427584
0.0427893
0.0428212
0.0428542
0.042888
0.0429223
0.0429566
0.0429911
0.043026
0.0430618
0.0430989
0.0431375
0.043178