/*--------------------------------*- C++ -*----------------------------------*\
| =========                 |                                                 |
| \\      /  F ield         | OpenFOAM: The Open Source CFD Toolbox           |
|  \\    /   O peration     | Version:  2406                                  |
|   \\  /    A nd           | Website:  www.openfoam.com                      |
|    \\/     M anipulation  |                                                 |
\*---------------------------------------------------------------------------*/
FoamFile
{
    version     2.0;
    format      ascii;
    arch        "LSB;label=32;scalar=64";
    class       volScalarField;
    location    "0.044";
    object      rho;
}
// * * * * * * * * * * * * * * * * * * * * * * * * * * * * * * * * * * * * * //

dimensions      [1 -3 0 0 0 0 0];

internalField   nonuniform List<scalar> 
78650
(
0.0487208
0.0429095
0.0424855
0.0424463
0.04243
0.042395
0.0423223
0.0422177
0.0421084
0.042017
0.0419411
0.0418683
0.0417923
0.0417152
0.0416443
0.0415867
0.0415435
0.0415113
0.0414844
0.0414582
0.04143
0.041399
0.0413663
0.0413339
0.0413031
0.0412747
0.0412488
0.0412255
0.0412047
0.0411867
0.0411712
0.0411581
0.0411469
0.041137
0.0411284
0.0411205
0.041113
0.0411059
0.041099
0.0410919
0.0410846
0.041077
0.0410689
0.0410602
0.0410508
0.0410406
0.0410294
0.041017
0.0410031
0.0409873
0.0409693
0.0409488
0.0409256
0.0408992
0.0408692
0.0408351
0.0407964
0.0407526
0.0407034
0.0406479
0.0405856
0.0405157
0.0404376
0.0403502
0.0402529
0.0401447
0.0400248
0.0398928
0.0397474
0.0395878
0.0394135
0.0392233
0.0390166
0.0387922
0.0385485
0.0382851
0.0380011
0.0376956
0.0373696
0.0370221
0.0366529
0.0362623
0.0358498
0.0354173
0.0349641
0.0344895
0.033998
0.0334881
0.0329685
0.0324535
0.0319225
0.031393
0.0308719
0.0303414
0.0298138
0.0292503
0.0286992
0.0281928
0.0277194
0.0272891
0.0268837
0.0264887
0.0261157
0.0257473
0.0254008
0.0250564
0.0247177
0.0243929
0.0240922
0.0238268
0.0236104
0.0234112
0.0232088
0.0230094
0.0228241
0.0226445
0.0224725
0.0223006
0.0221389
0.0219905
0.0217464
0.0485849
0.0429151
0.0425028
0.0424717
0.0424611
0.0424339
0.0423709
0.042271
0.0421568
0.0420598
0.0419828
0.0419143
0.0418456
0.0417744
0.0417051
0.0416449
0.0415977
0.0415624
0.0415342
0.0415082
0.0414808
0.0414509
0.0414192
0.0413875
0.0413576
0.0413303
0.0413056
0.0412837
0.0412644
0.0412481
0.0412342
0.0412229
0.0412135
0.0412057
0.0411992
0.0411934
0.0411883
0.0411837
0.0411794
0.0411751
0.0411708
0.0411662
0.0411614
0.0411562
0.0411505
0.0411442
0.0411372
0.0411292
0.0411201
0.0411093
0.0410967
0.041082
0.0410649
0.0410451
0.0410221
0.0409955
0.0409649
0.0409299
0.0408899
0.0408444
0.0407927
0.0407343
0.0406685
0.0405943
0.0405112
0.0404182
0.0403144
0.0401993
0.0400719
0.0399317
0.0397782
0.0396098
0.0394254
0.0392234
0.0390022
0.0387619
0.0385022
0.0382225
0.0379238
0.0376048
0.0372649
0.036904
0.0365221
0.0361208
0.035699
0.0352591
0.0347996
0.0343184
0.0338264
0.033314
0.0327862
0.0322526
0.0317333
0.0312096
0.0307014
0.0301828
0.0296639
0.029141
0.02862
0.0281181
0.0276279
0.0271687
0.0267376
0.0263244
0.0259349
0.0255639
0.0252242
0.0249066
0.0246068
0.024318
0.0240401
0.0237813
0.0235504
0.0233325
0.0231265
0.022931
0.0227427
0.0225565
0.0223798
0.0222104
0.0219305
0.0484636
0.0429045
0.0425359
0.0425073
0.0425027
0.0424793
0.0424282
0.0423372
0.0422211
0.0421164
0.0420339
0.0419658
0.0419025
0.0418378
0.0417721
0.041711
0.0416597
0.0416202
0.0415893
0.0415623
0.0415353
0.0415063
0.0414755
0.0414444
0.0414152
0.0413886
0.041365
0.0413443
0.0413264
0.0413114
0.0412992
0.0412897
0.041282
0.0412762
0.0412718
0.0412683
0.0412655
0.0412633
0.0412616
0.0412601
0.0412586
0.0412572
0.0412556
0.0412538
0.0412518
0.0412493
0.0412464
0.0412428
0.0412384
0.0412326
0.0412253
0.0412163
0.0412052
0.0411918
0.0411757
0.0411565
0.0411337
0.041107
0.0410759
0.04104
0.0409985
0.040951
0.0408968
0.0408352
0.0407653
0.0406864
0.0405977
0.0404986
0.0403881
0.0402659
0.0401308
0.0399817
0.0398177
0.0396378
0.0394409
0.0392268
0.0389945
0.038743
0.0384723
0.0381806
0.0378674
0.0375326
0.0371761
0.0367985
0.0363988
0.0359803
0.0355405
0.0350837
0.0346094
0.0341055
0.0336014
0.033081
0.0325562
0.0320243
0.0314867
0.0309688
0.0304581
0.0299648
0.0294725
0.0289893
0.028504
0.0280152
0.0275486
0.0270919
0.0266685
0.0262624
0.0258782
0.0255102
0.0251616
0.0248291
0.0245194
0.0242314
0.0239594
0.0237087
0.0234713
0.0232425
0.0230204
0.0228071
0.0226097
0.0224306
0.0221296
0.048362
0.042947
0.0425687
0.0425517
0.0425443
0.0425287
0.0424909
0.0424134
0.0423013
0.0421896
0.0420978
0.0420256
0.0419643
0.0419049
0.0418442
0.0417842
0.0417299
0.0416855
0.0416505
0.0416212
0.0415937
0.0415653
0.0415353
0.041505
0.0414763
0.0414504
0.0414275
0.0414077
0.0413909
0.0413772
0.0413664
0.0413584
0.0413524
0.0413486
0.0413462
0.0413447
0.0413443
0.0413445
0.0413452
0.0413463
0.0413477
0.0413492
0.0413508
0.0413523
0.0413538
0.041355
0.041356
0.0413566
0.0413566
0.0413555
0.0413534
0.0413498
0.0413445
0.0413372
0.0413276
0.0413155
0.0413002
0.0412815
0.0412591
0.0412323
0.0412008
0.0411639
0.041121
0.0410714
0.0410147
0.0409497
0.040876
0.0407928
0.0406993
0.0405947
0.0404785
0.0403496
0.0402075
0.0400508
0.0398779
0.0396881
0.0394797
0.0392522
0.0390057
0.0387389
0.0384519
0.0381448
0.0378173
0.0374692
0.0371004
0.0367114
0.0362991
0.0358693
0.0354188
0.034952
0.0344634
0.0339578
0.0334361
0.0329115
0.0323606
0.0318156
0.0312615
0.0307167
0.030184
0.0296614
0.0291647
0.0286741
0.0282082
0.0277526
0.0273177
0.0269004
0.0265022
0.0261134
0.0257396
0.0253765
0.0250316
0.0247052
0.0244065
0.0241276
0.0238709
0.0236323
0.0234011
0.0231752
0.0229576
0.0227503
0.0224047
0.0482457
0.0429863
0.0426278
0.0426077
0.0425961
0.0425829
0.0425559
0.0424939
0.0423925
0.0422774
0.0421748
0.0420944
0.0420307
0.0419741
0.0419183
0.0418616
0.0418066
0.0417582
0.0417184
0.0416856
0.0416565
0.041628
0.0415988
0.0415693
0.0415412
0.0415158
0.0414935
0.0414745
0.0414586
0.0414459
0.0414364
0.0414298
0.0414254
0.0414237
0.0414232
0.0414238
0.0414256
0.0414282
0.0414314
0.0414351
0.0414392
0.0414437
0.0414483
0.0414531
0.041458
0.0414629
0.0414678
0.0414724
0.0414767
0.0414805
0.0414833
0.0414849
0.0414853
0.041484
0.0414809
0.0414757
0.0414678
0.0414568
0.0414427
0.0414248
0.0414027
0.0413759
0.0413439
0.0413059
0.0412615
0.0412097
0.0411501
0.0410818
0.041004
0.0409162
0.0408177
0.0407076
0.0405853
0.0404492
0.0402979
0.040131
0.0399474
0.0397468
0.039529
0.0392925
0.0390373
0.0387628
0.0384676
0.03815
0.0378097
0.0374473
0.0370631
0.0366607
0.0362326
0.0357864
0.0353206
0.0348399
0.0343454
0.033839
0.0333239
0.0328024
0.0322766
0.0317252
0.0311821
0.0306231
0.0300818
0.0295369
0.0290089
0.0285003
0.028006
0.0275398
0.0270881
0.0266589
0.0262519
0.0258637
0.0254977
0.0251508
0.0248253
0.0245166
0.0242289
0.0239585
0.0237024
0.0234543
0.0232182
0.0230076
0.0226132
0.0480853
0.0430374
0.0427216
0.042676
0.0426516
0.0426383
0.0426181
0.0425711
0.0424863
0.0423747
0.0422637
0.0421723
0.0421015
0.0420438
0.0419918
0.0419401
0.0418875
0.0418375
0.0417934
0.0417561
0.041724
0.0416945
0.0416655
0.0416368
0.0416096
0.0415849
0.0415632
0.0415448
0.0415297
0.0415177
0.0415094
0.0415039
0.0415012
0.0415011
0.0415026
0.0415053
0.0415092
0.041514
0.0415196
0.0415259
0.0415327
0.04154
0.0415476
0.0415556
0.0415638
0.0415722
0.0415808
0.0415894
0.0415979
0.0416061
0.0416137
0.0416204
0.0416261
0.0416306
0.0416336
0.0416349
0.0416341
0.0416307
0.0416246
0.0416153
0.0416023
0.0415853
0.0415637
0.0415369
0.0415045
0.0414657
0.0414198
0.0413663
0.0413042
0.0412333
0.0411525
0.0410611
0.0409585
0.0408435
0.0407149
0.0405723
0.0404142
0.0402397
0.0400481
0.0398376
0.0396082
0.0393588
0.0390884
0.0387966
0.0384839
0.0381497
0.0377937
0.0374179
0.0370185
0.0366016
0.0361594
0.0356994
0.0352208
0.0347197
0.0342143
0.0336894
0.0331737
0.0326391
0.0321206
0.0315959
0.0310817
0.0305623
0.0300438
0.0295355
0.0290275
0.0285365
0.0280507
0.0275775
0.0271301
0.0267001
0.0262924
0.025903
0.0255363
0.0251835
0.0248515
0.0245364
0.0242373
0.0239497
0.0236786
0.0234253
0.0229861
0.0478578
0.0431073
0.0428123
0.0427474
0.0427061
0.0426875
0.0426692
0.0426349
0.0425702
0.0424707
0.0423581
0.0422569
0.0421759
0.0421133
0.0420624
0.0420155
0.0419681
0.0419202
0.0418742
0.0418328
0.0417968
0.0417651
0.0417356
0.0417075
0.0416811
0.0416573
0.0416364
0.0416185
0.0416041
0.0415927
0.0415855
0.0415809
0.0415796
0.0415813
0.0415846
0.0415893
0.0415953
0.0416024
0.0416104
0.0416192
0.0416287
0.0416388
0.0416494
0.0416604
0.0416719
0.0416838
0.041696
0.0417085
0.0417212
0.0417338
0.041746
0.0417578
0.0417688
0.041779
0.041788
0.0417955
0.0418014
0.0418053
0.0418069
0.0418059
0.0418017
0.0417943
0.0417827
0.0417666
0.0417455
0.0417187
0.0416859
0.0416461
0.0415988
0.0415434
0.0414791
0.0414051
0.0413211
0.0412259
0.0411185
0.0409981
0.0408631
0.0407126
0.0405461
0.0403624
0.0401617
0.039943
0.0397051
0.0394474
0.0391695
0.03887
0.0385491
0.0382071
0.0378415
0.0374552
0.0370418
0.0366107
0.0361563
0.035686
0.0351949
0.0346848
0.0341544
0.0336053
0.0330487
0.0325017
0.0319445
0.031401
0.0308497
0.0303133
0.0297871
0.0292798
0.0287886
0.02831
0.0278501
0.0274106
0.0269867
0.0265777
0.0261889
0.0258071
0.0254487
0.0251049
0.0247756
0.0244612
0.0241744
0.0239126
0.0234453
0.0475365
0.0431653
0.042906
0.0428204
0.0427634
0.0427324
0.0427092
0.0426817
0.0426349
0.0425545
0.0424504
0.0423444
0.0422534
0.0421832
0.0421299
0.0420859
0.0420446
0.0420024
0.0419586
0.0419155
0.0418759
0.0418409
0.0418096
0.0417812
0.0417555
0.0417326
0.0417126
0.0416955
0.0416817
0.041671
0.0416645
0.0416608
0.0416607
0.041664
0.0416689
0.0416755
0.0416835
0.0416927
0.041703
0.0417143
0.0417264
0.0417392
0.0417526
0.0417667
0.0417814
0.0417966
0.0418123
0.0418285
0.0418451
0.0418619
0.0418787
0.0418952
0.0419113
0.0419268
0.0419415
0.0419553
0.0419677
0.0419786
0.0419875
0.0419942
0.0419985
0.042
0.0419981
0.0419925
0.0419826
0.0419675
0.0419473
0.0419211
0.0418882
0.0418482
0.0418003
0.0417439
0.0416784
0.0416028
0.0415162
0.0414176
0.0413056
0.0411799
0.0410396
0.0408836
0.0407114
0.0405214
0.0403127
0.040085
0.0398374
0.0395682
0.0392776
0.0389659
0.0386323
0.0382778
0.0378979
0.0374995
0.0370783
0.0366421
0.0361834
0.0357056
0.035211
0.0347051
0.0341861
0.0336606
0.0331113
0.0325527
0.0319848
0.0314126
0.0308452
0.0302865
0.0297515
0.0292182
0.0287021
0.0282034
0.027727
0.0272723
0.0268468
0.0264294
0.0260383
0.0256575
0.0252915
0.0249372
0.0246022
0.0243005
0.023718
0.0471077
0.0431718
0.042985
0.0429092
0.0428405
0.0427896
0.0427511
0.0427195
0.0426807
0.04262
0.0425329
0.0424308
0.0423335
0.0422546
0.0421955
0.0421514
0.0421151
0.0420802
0.0420425
0.0420018
0.0419608
0.0419226
0.0418885
0.0418585
0.0418325
0.0418103
0.0417913
0.0417751
0.0417621
0.0417521
0.0417462
0.0417435
0.0417443
0.0417491
0.0417555
0.0417639
0.0417739
0.0417852
0.0417977
0.0418114
0.0418261
0.0418415
0.0418578
0.0418748
0.0418926
0.0419111
0.0419303
0.0419501
0.0419706
0.0419915
0.0420127
0.0420339
0.0420549
0.0420757
0.042096
0.0421156
0.0421344
0.0421519
0.042168
0.0421825
0.0421948
0.0422047
0.0422119
0.0422159
0.0422167
0.0422129
0.0422047
0.0421913
0.0421717
0.0421461
0.0421133
0.0420731
0.0420246
0.0419671
0.0418999
0.041822
0.0417324
0.0416304
0.041515
0.0413847
0.0412392
0.0410772
0.0408978
0.0407008
0.0404849
0.0402482
0.039991
0.0397125
0.0394117
0.0390883
0.0387394
0.0383694
0.037976
0.0375641
0.0371244
0.0366669
0.0361909
0.0357032
0.0352042
0.0346792
0.0341446
0.033597
0.0330652
0.0325226
0.03199
0.0314505
0.0309309
0.030403
0.0298784
0.0293545
0.0288422
0.0283454
0.027879
0.027417
0.0269778
0.0265526
0.0261456
0.025756
0.0253936
0.0250618
0.0244918
0.0465896
0.0430909
0.0430131
0.042969
0.0429183
0.042858
0.042803
0.0427583
0.0427177
0.0426689
0.0425996
0.0425089
0.0424125
0.0423271
0.0422608
0.0422135
0.0421797
0.0421516
0.0421222
0.0420882
0.0420502
0.0420109
0.0419738
0.0419409
0.0419132
0.0418907
0.0418723
0.0418572
0.041845
0.0418359
0.0418304
0.0418285
0.0418303
0.0418363
0.041844
0.0418541
0.0418658
0.0418791
0.0418937
0.0419097
0.0419267
0.0419448
0.0419637
0.0419836
0.0420044
0.042026
0.0420485
0.0420718
0.042096
0.0421208
0.0421461
0.0421718
0.0421975
0.0422233
0.0422489
0.0422742
0.0422989
0.0423229
0.0423458
0.0423674
0.0423875
0.0424057
0.0424218
0.0424352
0.0424455
0.0424525
0.0424557
0.0424549
0.0424485
0.0424371
0.0424193
0.042395
0.0423634
0.0423239
0.0422759
0.0422184
0.0421503
0.0420709
0.0419791
0.0418737
0.0417545
0.0416202
0.0414701
0.0413035
0.0411188
0.0409146
0.0406908
0.0404463
0.0401808
0.0398944
0.0395851
0.0392542
0.0388988
0.0385217
0.0381175
0.0376943
0.0372474
0.0367836
0.0362951
0.035783
0.0352495
0.0347009
0.0341517
0.0335922
0.0330222
0.0324336
0.0318641
0.0313082
0.0307603
0.0302124
0.0296753
0.0291528
0.0286614
0.0281795
0.0277163
0.0272626
0.0268206
0.0263937
0.0259887
0.0256238
0.0249257
0.0460613
0.042915
0.0429526
0.0429654
0.0429487
0.0429128
0.0428644
0.0428083
0.042758
0.0427096
0.0426522
0.0425764
0.0424882
0.0424006
0.0423272
0.0422745
0.0422401
0.0422163
0.0421948
0.0421701
0.0421392
0.0421031
0.042065
0.042029
0.0419981
0.0419738
0.0419551
0.0419407
0.0419296
0.0419214
0.0419166
0.0419154
0.0419183
0.0419253
0.0419342
0.0419458
0.0419593
0.0419744
0.0419911
0.0420092
0.0420285
0.0420491
0.0420707
0.0420933
0.042117
0.0421417
0.0421674
0.0421941
0.0422218
0.0422504
0.0422798
0.0423098
0.0423401
0.0423707
0.0424014
0.0424322
0.0424627
0.0424928
0.0425223
0.0425508
0.0425783
0.0426044
0.0426287
0.0426511
0.0426711
0.0426883
0.042702
0.042712
0.042718
0.0427198
0.042716
0.0427066
0.0426909
0.0426676
0.0426374
0.0425985
0.0425505
0.0424926
0.0424238
0.0423431
0.04225
0.0421431
0.0420218
0.0418849
0.0417312
0.0415597
0.0413702
0.0411608
0.0409314
0.040682
0.0404105
0.040116
0.0397967
0.0394564
0.0390932
0.0387104
0.0383002
0.0378698
0.0374162
0.0369461
0.0364566
0.0359509
0.0354327
0.0349032
0.0343556
0.0337783
0.0331985
0.0326277
0.0320554
0.031489
0.0309063
0.030334
0.0297768
0.0292472
0.0287388
0.0282549
0.0277794
0.0273164
0.0268682
0.0264515
0.0256344
0.0456517
0.042652
0.0427826
0.0428942
0.0429261
0.0429201
0.0428904
0.0428448
0.0427947
0.0427458
0.0426949
0.0426355
0.0425607
0.0424765
0.0423986
0.042339
0.0423007
0.0422776
0.0422612
0.042245
0.0422239
0.0421954
0.0421607
0.0421238
0.0420895
0.0420618
0.0420411
0.0420263
0.0420158
0.0420085
0.0420044
0.0420038
0.0420077
0.0420157
0.0420257
0.0420386
0.0420536
0.0420704
0.0420889
0.042109
0.0421305
0.0421534
0.0421774
0.0422027
0.0422291
0.0422567
0.0422855
0.0423154
0.0423465
0.0423787
0.0424119
0.0424459
0.0424806
0.0425157
0.0425513
0.0425872
0.0426231
0.0426591
0.0426947
0.0427299
0.0427643
0.0427978
0.0428301
0.0428609
0.0428899
0.0429167
0.0429408
0.0429621
0.0429797
0.0429935
0.043003
0.0430076
0.0430079
0.0430008
0.0429881
0.0429676
0.0429391
0.0429019
0.0428548
0.0427974
0.0427286
0.0426471
0.0425525
0.0424439
0.04232
0.0421803
0.0420237
0.041848
0.0416533
0.0414392
0.0412034
0.0409444
0.0406615
0.0403579
0.0400314
0.039681
0.0392994
0.0388961
0.0384725
0.0380339
0.0375698
0.0370817
0.0365717
0.0360486
0.0355135
0.0349601
0.0343858
0.0338159
0.0332555
0.0327108
0.0321489
0.0315895
0.0310244
0.0304666
0.0299161
0.0293996
0.0288934
0.0284006
0.0279308
0.0274951
0.0267252
0.0454142
0.0424135
0.0425297
0.0427128
0.0428359
0.0428895
0.0428887
0.0428589
0.0428101
0.0427602
0.042718
0.0426783
0.0426231
0.0425523
0.0424766
0.0424119
0.0423673
0.0423403
0.0423246
0.0423135
0.042301
0.0422824
0.0422556
0.042222
0.0421861
0.0421544
0.0421301
0.0421134
0.0421025
0.0420958
0.0420925
0.0420924
0.0420974
0.0421066
0.0421177
0.0421318
0.0421483
0.0421667
0.042187
0.042209
0.0422326
0.0422576
0.0422841
0.0423118
0.0423409
0.0423713
0.042403
0.042436
0.0424703
0.042506
0.0425428
0.0425808
0.0426196
0.0426592
0.0426994
0.0427402
0.0427814
0.0428228
0.0428644
0.0429058
0.0429469
0.0429874
0.0430272
0.043066
0.0431035
0.0431393
0.043173
0.0432044
0.043233
0.0432586
0.0432805
0.0432981
0.0433113
0.0433197
0.0433227
0.0433194
0.0433091
0.0432914
0.0432647
0.0432293
0.0431837
0.0431272
0.0430593
0.0429788
0.0428845
0.0427757
0.042651
0.0425086
0.0423486
0.0421697
0.0419706
0.041751
0.0415098
0.0412481
0.0409631
0.0406536
0.0403161
0.0399586
0.0395811
0.0391836
0.0387544
0.0382965
0.0378121
0.0373137
0.0368018
0.036271
0.0357168
0.0351377
0.0345495
0.033965
0.0333848
0.0327904
0.0321965
0.0315907
0.0309904
0.0304177
0.0298481
0.0293067
0.0287854
0.0283015
0.0273532
0.0453341
0.0423475
0.0423681
0.0424806
0.0426265
0.0427551
0.0428175
0.0428242
0.0427949
0.0427524
0.0427179
0.0426859
0.042653
0.0426101
0.042552
0.0424915
0.0424421
0.0424079
0.0423886
0.0423786
0.0423714
0.0423614
0.0423449
0.0423193
0.0422863
0.0422525
0.0422242
0.0422039
0.0421912
0.0421842
0.0421812
0.0421814
0.0421872
0.0421976
0.0422099
0.0422252
0.042243
0.0422629
0.0422847
0.0423084
0.0423339
0.042361
0.0423896
0.0424196
0.0424512
0.0424841
0.0425186
0.0425545
0.0425919
0.0426307
0.042671
0.0427126
0.0427553
0.042799
0.0428435
0.0428889
0.042935
0.0429816
0.0430287
0.0430759
0.0431232
0.0431703
0.0432171
0.0432634
0.0433088
0.0433531
0.043396
0.043437
0.0434759
0.0435124
0.043546
0.0435764
0.0436032
0.0436257
0.0436435
0.043656
0.0436629
0.0436642
0.043657
0.0436427
0.0436194
0.043586
0.0435427
0.0434879
0.0434209
0.043341
0.043247
0.0431375
0.0430123
0.0428696
0.0427089
0.0425299
0.0423302
0.0421086
0.0418638
0.0415967
0.0413055
0.0409932
0.0406559
0.0402946
0.0399032
0.0394865
0.0390451
0.0385881
0.0381155
0.0376252
0.0371095
0.0365669
0.0360055
0.035435
0.0348753
0.0343051
0.0337325
0.0331356
0.032538
0.0319453
0.0313336
0.0307517
0.0302021
0.0296967
0.0288206
0.0453432
0.0423864
0.0423082
0.0423334
0.0424067
0.0425322
0.0426515
0.0427168
0.0427328
0.0427224
0.0426988
0.0426761
0.0426561
0.0426325
0.0426029
0.0425634
0.0425187
0.0424796
0.0424546
0.0424419
0.0424357
0.0424305
0.0424229
0.0424079
0.0423825
0.0423509
0.0423204
0.0422961
0.0422804
0.0422718
0.0422687
0.0422689
0.0422751
0.042287
0.0423006
0.0423171
0.0423364
0.0423577
0.0423812
0.0424066
0.0424339
0.0424629
0.0424936
0.0425259
0.0425598
0.0425952
0.0426323
0.042671
0.0427112
0.0427531
0.0427966
0.0428417
0.042888
0.0429356
0.0429844
0.0430341
0.0430848
0.0431363
0.0431886
0.0432414
0.0432945
0.0433478
0.0434012
0.0434544
0.0435073
0.0435595
0.0436108
0.0436608
0.0437092
0.0437558
0.0438002
0.0438421
0.043881
0.0439166
0.0439484
0.0439759
0.0439983
0.0440154
0.0440266
0.0440314
0.0440294
0.0440179
0.0439984
0.0439684
0.043928
0.0438762
0.0438119
0.0437341
0.0436418
0.0435331
0.0434077
0.0432648
0.0431019
0.0429175
0.0427119
0.0424862
0.0422381
0.041966
0.0416654
0.041341
0.0409926
0.0406222
0.0402245
0.0398031
0.0393577
0.0388923
0.0384008
0.0378822
0.0373351
0.0367686
0.0361925
0.0356176
0.0350307
0.0344364
0.033829
0.0332009
0.0325794
0.0319472
0.0313329
0.0307593
0.0297153
0.045333
0.0424322
0.042313
0.0423082
0.04231
0.0423527
0.0424375
0.0425259
0.042588
0.0426191
0.0426287
0.0426315
0.0426291
0.042626
0.0426167
0.0426033
0.042579
0.0425476
0.0425212
0.0425042
0.0424959
0.0424923
0.04249
0.042485
0.0424706
0.0424466
0.0424181
0.0423918
0.0423726
0.0423614
0.0423571
0.0423568
0.0423627
0.0423757
0.0423907
0.0424085
0.0424291
0.0424518
0.0424766
0.0425035
0.0425323
0.0425631
0.0425956
0.0426299
0.0426659
0.0427036
0.042743
0.0427843
0.0428272
0.0428719
0.0429184
0.0429666
0.0430164
0.0430676
0.0431201
0.0431739
0.0432289
0.0432849
0.043342
0.0433998
0.0434584
0.0435175
0.0435769
0.0436366
0.0436963
0.0437558
0.0438148
0.0438731
0.0439304
0.0439864
0.0440409
0.0440935
0.0441439
0.0441917
0.0442365
0.0442778
0.0443153
0.0443484
0.0443765
0.0443988
0.0444149
0.0444243
0.044427
0.0444201
0.0444048
0.0443792
0.0443419
0.0442934
0.0442318
0.0441556
0.0440646
0.0439577
0.0438331
0.0436898
0.0435277
0.0433466
0.0431441
0.0429173
0.0426636
0.0423892
0.0420945
0.041778
0.0414305
0.0410529
0.040647
0.0402204
0.0397717
0.0393003
0.0388008
0.0382786
0.037736
0.037181
0.0366177
0.0360449
0.0354619
0.0348591
0.0342629
0.0336163
0.032991
0.0324088
0.0313501
0.0453019
0.0424764
0.0423464
0.0423223
0.0423031
0.0422921
0.0423031
0.0423373
0.0423862
0.0424407
0.0424916
0.0425364
0.0425759
0.0426005
0.0426097
0.0426119
0.0426075
0.0425969
0.0425794
0.0425618
0.0425504
0.0425464
0.0425463
0.0425479
0.0425441
0.0425308
0.0425094
0.042485
0.0424642
0.0424503
0.0424443
0.0424429
0.0424476
0.0424611
0.0424773
0.0424965
0.0425185
0.0425427
0.0425691
0.0425975
0.0426281
0.0426606
0.042695
0.0427313
0.0427693
0.0428091
0.0428508
0.0428944
0.0429399
0.0429872
0.0430365
0.0430877
0.0431406
0.0431952
0.0432513
0.0433089
0.0433678
0.0434281
0.0434896
0.0435522
0.0436158
0.0436802
0.0437453
0.043811
0.043877
0.0439433
0.0440095
0.0440755
0.0441409
0.0442055
0.0442691
0.0443315
0.0443922
0.0444511
0.0445076
0.0445615
0.0446124
0.0446597
0.0447031
0.044742
0.0447759
0.0448038
0.0448255
0.0448402
0.0448473
0.0448476
0.0448354
0.0448152
0.0447829
0.044738
0.0446804
0.0446082
0.0445207
0.0444169
0.0442953
0.0441546
0.0439932
0.0438098
0.0436031
0.0433761
0.0431264
0.0428524
0.0425475
0.0422139
0.0418527
0.0414704
0.0410673
0.0406416
0.0401873
0.0397055
0.0391941
0.0386642
0.0381154
0.0375568
0.0369812
0.0363905
0.0357754
0.0351567
0.0344913
0.0338756
0.0328087
0.0452519
0.0425215
0.0423965
0.042365
0.0423275
0.0422955
0.0422672
0.0422422
0.0422302
0.0422476
0.042296
0.0423659
0.0424449
0.0425165
0.0425654
0.0425898
0.0426102
0.0426192
0.0426178
0.0426087
0.042599
0.0425953
0.0425961
0.042601
0.042604
0.042601
0.04259
0.0425724
0.0425536
0.0425387
0.042531
0.0425285
0.0425317
0.0425447
0.042562
0.0425824
0.0426059
0.0426316
0.0426594
0.0426893
0.0427213
0.0427553
0.0427914
0.0428293
0.0428692
0.0429109
0.0429547
0.0430004
0.0430482
0.043098
0.0431498
0.0432037
0.0432595
0.0433172
0.0433766
0.0434377
0.0435003
0.0435644
0.04363
0.0436969
0.0437651
0.0438344
0.0439046
0.0439757
0.0440475
0.0441199
0.0441926
0.0442655
0.0443382
0.0444107
0.0444827
0.0445539
0.0446242
0.0446931
0.0447605
0.044826
0.0448892
0.0449497
0.0450071
0.045061
0.0451109
0.0451562
0.0451964
0.0452308
0.0452584
0.0452792
0.0452922
0.0452973
0.0452928
0.045277
0.0452503
0.0452099
0.0451566
0.0450883
0.0450037
0.0449012
0.0447805
0.0446413
0.0444817
0.0443004
0.0440939
0.0438642
0.0436095
0.0433313
0.0430258
0.0426958
0.0423405
0.04196
0.0415516
0.0411143
0.0406463
0.0401545
0.0396373
0.0391067
0.0385553
0.0379948
0.0374103
0.0368146
0.0361689
0.0355519
0.0345022
0.0451906
0.0425602
0.0424483
0.0424207
0.0423794
0.0423296
0.0422786
0.0422244
0.0421643
0.0421236
0.0421233
0.0421673
0.042256
0.0423678
0.0424731
0.0425511
0.042596
0.0426187
0.0426298
0.0426351
0.0426364
0.0426361
0.0426375
0.0426438
0.0426518
0.0426564
0.0426557
0.0426483
0.0426358
0.042623
0.0426147
0.0426113
0.0426131
0.0426247
0.0426422
0.0426637
0.0426886
0.042716
0.0427454
0.0427769
0.0428105
0.0428462
0.0428839
0.0429236
0.0429652
0.0430088
0.0430544
0.0431022
0.0431521
0.0432042
0.0432584
0.0433148
0.0433733
0.0434339
0.0434963
0.0435605
0.0436265
0.0436943
0.0437636
0.0438345
0.0439069
0.0439806
0.0440555
0.0441316
0.0442087
0.0442867
0.0443653
0.0444445
0.044524
0.0446036
0.0446831
0.0447623
0.0448411
0.0449192
0.0449962
0.045072
0.0451462
0.0452184
0.0452884
0.0453557
0.0454199
0.0454805
0.0455372
0.0455892
0.0456361
0.0456773
0.0457119
0.0457392
0.0457587
0.0457695
0.0457721
0.0457615
0.0457409
0.0457071
0.0456585
0.0455953
0.0455162
0.0454207
0.0453064
0.0451707
0.0450116
0.0448323
0.0446317
0.0444088
0.0441571
0.0438777
0.0435691
0.0432349
0.0428751
0.0424881
0.0420736
0.0416315
0.0411627
0.0406731
0.0401571
0.0396252
0.0390623
0.0384872
0.0378733
0.0372581
0.0362891
0.0451277
0.0425912
0.0424916
0.0424735
0.0424399
0.0423846
0.0423151
0.0422401
0.0421603
0.0420788
0.0420269
0.0420216
0.0420678
0.042174
0.0423151
0.0424478
0.0425389
0.0425888
0.0426217
0.0426444
0.0426586
0.0426676
0.0426735
0.0426808
0.0426912
0.0427019
0.0427089
0.0427107
0.0427074
0.0427002
0.042694
0.0426911
0.0426923
0.0427025
0.0427195
0.0427418
0.0427681
0.0427971
0.0428282
0.0428612
0.0428963
0.0429335
0.0429727
0.043014
0.0430572
0.0431025
0.0431499
0.0431995
0.0432514
0.0433055
0.0433619
0.0434206
0.0434816
0.0435447
0.0436099
0.043677
0.0437461
0.043817
0.0438897
0.0439642
0.0440404
0.0441181
0.0441972
0.0442777
0.0443595
0.0444425
0.0445264
0.0446112
0.0446967
0.0447826
0.0448688
0.0449552
0.0450415
0.0451277
0.0452133
0.0452983
0.0453823
0.0454651
0.0455463
0.0456256
0.0457027
0.0457771
0.0458485
0.0459164
0.0459802
0.0460394
0.0460936
0.0461421
0.0461842
0.0462188
0.0462456
0.0462634
0.0462721
0.0462717
0.0462556
0.0462292
0.0461872
0.0461299
0.0460558
0.0459629
0.04585
0.045718
0.0455642
0.0453875
0.0451834
0.0449536
0.0446957
0.0444137
0.0441061
0.0437723
0.0434113
0.0430202
0.0426017
0.042155
0.0416802
0.0411829
0.0406522
0.0401094
0.0395166
0.0389157
0.0380384
0.0450702
0.0426151
0.0425249
0.0425154
0.0424932
0.042443
0.0423644
0.0422692
0.042172
0.0420771
0.0419948
0.0419479
0.0419467
0.0420003
0.0421252
0.0422901
0.0424377
0.0425412
0.0426011
0.0426388
0.0426649
0.0426854
0.0427013
0.0427125
0.042724
0.0427377
0.0427511
0.0427612
0.0427664
0.0427672
0.0427656
0.0427646
0.0427668
0.0427757
0.0427922
0.042815
0.0428425
0.042873
0.0429057
0.0429405
0.0429772
0.0430159
0.0430566
0.0430994
0.0431442
0.0431911
0.0432402
0.0432916
0.0433453
0.0434013
0.0434597
0.0435206
0.0435838
0.0436493
0.043717
0.0437868
0.0438586
0.0439325
0.0440083
0.044086
0.0441656
0.0442469
0.0443299
0.0444145
0.0445005
0.0445879
0.0446766
0.0447665
0.0448572
0.0449488
0.045041
0.0451337
0.0452268
0.0453202
0.0454135
0.0455065
0.0455992
0.0456912
0.0457823
0.0458722
0.0459605
0.046047
0.0461313
0.046213
0.0462917
0.046367
0.0464383
0.0465052
0.046567
0.0466233
0.0466732
0.0467159
0.04675
0.0467758
0.0467916
0.0467976
0.0467908
0.04677
0.046736
0.0466857
0.0466192
0.0465337
0.0464276
0.0463005
0.046151
0.045979
0.0457801
0.0455566
0.0453045
0.0450259
0.0447188
0.0443829
0.0440203
0.0436278
0.0432105
0.0427625
0.0422845
0.0417757
0.0412265
0.0406312
0.0398213
0.0450234
0.0426355
0.0425518
0.0425483
0.0425344
0.0424903
0.0424082
0.042304
0.0421929
0.0420864
0.0419914
0.0419216
0.0418888
0.0418965
0.0419646
0.0421104
0.0422921
0.0424488
0.0425521
0.0426134
0.0426578
0.0426931
0.0427207
0.0427384
0.0427523
0.0427673
0.042784
0.0428002
0.0428135
0.0428227
0.042828
0.0428315
0.0428362
0.0428454
0.0428616
0.0428846
0.0429129
0.0429448
0.0429792
0.0430156
0.0430538
0.0430941
0.0431363
0.0431806
0.0432269
0.0432754
0.043326
0.043379
0.0434344
0.0434923
0.0435525
0.0436153
0.0436805
0.0437482
0.0438182
0.0438904
0.0439647
0.0440412
0.0441198
0.0442004
0.044283
0.0443676
0.0444539
0.044542
0.0446318
0.0447231
0.044816
0.0449102
0.0450056
0.0451021
0.0451995
0.0452978
0.0453967
0.0454962
0.0455962
0.0456963
0.0457964
0.0458964
0.0459961
0.0460951
0.0461932
0.0462901
0.0463857
0.0464795
0.0465712
0.0466604
0.0467467
0.0468297
0.0469089
0.0469837
0.0470537
0.0471182
0.0471763
0.0472276
0.0472707
0.0473049
0.0473295
0.0473433
0.0473473
0.0473353
0.0473107
0.0472685
0.0472073
0.0471287
0.0470294
0.0469087
0.0467621
0.0465907
0.0463899
0.0461629
0.0459054
0.04562
0.0453047
0.0449591
0.0445866
0.0441796
0.0437448
0.0432742
0.0427717
0.0422084
0.0414753
0.0449936
0.0426565
0.0425769
0.0425762
0.042566
0.0425234
0.0424368
0.0423311
0.042215
0.0420993
0.0419974
0.0419148
0.0418675
0.0418497
0.0418681
0.0419593
0.0421295
0.0423223
0.0424758
0.0425767
0.0426442
0.0426939
0.0427316
0.0427591
0.042777
0.0427927
0.0428106
0.0428307
0.0428505
0.0428677
0.0428807
0.0428901
0.0428986
0.0429094
0.0429259
0.0429492
0.0429782
0.0430113
0.0430472
0.0430852
0.0431252
0.043167
0.0432107
0.0432565
0.0433043
0.0433542
0.0434064
0.0434609
0.043518
0.0435774
0.0436394
0.043704
0.0437711
0.0438407
0.0439127
0.0439871
0.0440637
0.0441425
0.0442236
0.0443068
0.0443921
0.0444795
0.0445688
0.04466
0.0447531
0.0448479
0.0449444
0.0450425
0.045142
0.0452427
0.0453447
0.0454478
0.0455518
0.0456568
0.0457624
0.0458686
0.0459752
0.0460822
0.0461892
0.046296
0.0464025
0.0465085
0.0466136
0.0467178
0.0468205
0.0469216
0.0470207
0.0471175
0.0472116
0.0473025
0.0473898
0.0474729
0.0475513
0.0476243
0.0476914
0.0477515
0.0478039
0.0478471
0.0478811
0.0479039
0.0479155
0.0479164
0.0478971
0.0478665
0.0478158
0.0477461
0.0476553
0.0475421
0.0474032
0.0472398
0.0470466
0.0468269
0.0465749
0.046294
0.0459817
0.0456322
0.0452486
0.0448196
0.0443542
0.0438227
0.0431345
0.0449836
0.0426757
0.042602
0.0426025
0.0425915
0.0425437
0.0424507
0.0423443
0.0422292
0.0421122
0.0420056
0.0419191
0.0418591
0.0418313
0.0418279
0.0418652
0.0419884
0.0421834
0.0423769
0.0425211
0.0426168
0.0426838
0.0427346
0.0427724
0.0427965
0.0428138
0.0428323
0.0428544
0.042879
0.0429031
0.0429239
0.0429403
0.0429537
0.0429675
0.0429853
0.0430092
0.0430389
0.0430732
0.0431105
0.0431501
0.0431917
0.0432351
0.0432804
0.0433277
0.043377
0.0434283
0.043482
0.043538
0.0435965
0.0436576
0.0437212
0.0437874
0.0438562
0.0439276
0.0440015
0.0440778
0.0441565
0.0442374
0.0443207
0.0444062
0.0444939
0.0445838
0.0446758
0.0447697
0.0448657
0.0449635
0.0450632
0.0451646
0.0452676
0.0453721
0.0454779
0.0455851
0.0456935
0.045803
0.0459136
0.0460249
0.046137
0.0462498
0.046363
0.0464765
0.0465901
0.0467035
0.0468168
0.0469296
0.0470416
0.0471527
0.0472626
0.047371
0.0474775
0.047582
0.0476839
0.0477828
0.0478784
0.0479699
0.048057
0.048139
0.0482153
0.0482851
0.0483474
0.0484016
0.0484459
0.0484812
0.0485039
0.048515
0.0485122
0.048489
0.048451
0.0483917
0.0483097
0.0482042
0.0480698
0.0479085
0.0477132
0.0474895
0.0472299
0.046935
0.0466001
0.0462167
0.0457943
0.0453036
0.044671
0.0449904
0.042691
0.0426243
0.0426264
0.0426122
0.0425523
0.0424535
0.042344
0.0422304
0.0421186
0.0420144
0.0419259
0.041861
0.0418242
0.0418152
0.0418225
0.0418933
0.0420591
0.0422688
0.0424497
0.0425781
0.0426674
0.0427328
0.0427807
0.0428122
0.0428323
0.0428509
0.0428737
0.0429012
0.0429308
0.0429587
0.0429822
0.0430013
0.0430191