/*--------------------------------*- C++ -*----------------------------------*\
| =========                 |                                                 |
| \\      /  F ield         | OpenFOAM: The Open Source CFD Toolbox           |
|  \\    /   O peration     | Version:  2406                                  |
|   \\  /    A nd           | Website:  www.openfoam.com                      |
|    \\/     M anipulation  |                                                 |
\*---------------------------------------------------------------------------*/
FoamFile
{
    version     2.0;
    format      ascii;
    arch        "LSB;label=32;scalar=64";
    class       volVectorField;
    location    "0.044";
    object      U;
}
// * * * * * * * * * * * * * * * * * * * * * * * * * * * * * * * * * * * * * //

dimensions      [0 1 -1 0 0 0 0];

internalField   nonuniform List<vector> 
78650
(
(174.448 28.3632 0)
(199.986 -2.95548 0)
(202.988 -2.47584 0)
(205.118 -1.79577 0)
(206.688 -1.48048 0)
(207.403 -1.22111 0)
(208.085 -1.09825 0)
(208.968 -1.08382 0)
(209.912 -1.10478 0)
(210.775 -1.07939 0)
(211.542 -0.989038 0)
(212.27 -0.882236 0)
(213.007 -0.777656 0)
(213.741 -0.643827 0)
(214.423 -0.472718 0)
(214.992 -0.239241 0)
(215.434 0.0540464 0)
(215.79 0.391491 0)
(216.113 0.758274 0)
(216.424 1.14486 0)
(216.733 1.54474 0)
(217.046 1.95462 0)
(217.365 2.37681 0)
(217.68 2.81814 0)
(217.979 3.28629 0)
(218.26 3.78586 0)
(218.523 4.31964 0)
(218.771 4.88848 0)
(218.997 5.49524 0)
(219.206 6.14111 0)
(219.396 6.82555 0)
(219.564 7.55105 0)
(219.722 8.31116 0)
(219.862 9.10773 0)
(219.983 9.94051 0)
(220.093 10.805 0)
(220.194 11.6998 0)
(220.284 12.6254 0)
(220.361 13.5816 0)
(220.427 14.5673 0)
(220.484 15.5821 0)
(220.534 16.6259 0)
(220.576 17.699 0)
(220.612 18.8016 0)
(220.643 19.934 0)
(220.67 21.0968 0)
(220.695 22.2908 0)
(220.72 23.5164 0)
(220.748 24.7736 0)
(220.781 26.0622 0)
(220.823 27.3831 0)
(220.877 28.7371 0)
(220.946 30.1247 0)
(221.03 31.546 0)
(221.136 33.0016 0)
(221.271 34.4917 0)
(221.434 36.0163 0)
(221.63 37.5761 0)
(221.869 39.1716 0)
(222.152 40.8021 0)
(222.483 42.4674 0)
(222.879 44.1674 0)
(223.332 45.9004 0)
(223.857 47.6657 0)
(224.473 49.4611 0)
(225.163 51.2844 0)
(225.953 53.1357 0)
(226.858 55.0121 0)
(227.854 56.9107 0)
(228.986 58.825 0)
(230.245 60.7491 0)
(231.628 62.6833 0)
(233.19 64.6189 0)
(234.897 66.5517 0)
(236.77 68.4708 0)
(238.835 70.3602 0)
(241.079 72.2069 0)
(243.503 74.0089 0)
(246.156 75.7404 0)
(248.975 77.4156 0)
(252.017 79.0043 0)
(255.263 80.4994 0)
(258.705 81.893 0)
(262.353 83.1545 0)
(266.191 84.298 0)
(270.249 85.2775 0)
(274.568 86.1278 0)
(279.044 86.7876 0)
(283.327 87.3233 0)
(288.044 87.6721 0)
(293.117 87.7827 0)
(298.004 87.7027 0)
(302.718 87.4588 0)
(307.716 86.9959 0)
(312.8 86.3456 0)
(316.902 85.8699 0)
(321.105 85.1185 0)
(325.207 84.4152 0)
(330.006 83.3785 0)
(334.445 82.1969 0)
(339.191 80.6912 0)
(343.01 79.3659 0)
(347.045 77.9306 0)
(350.179 77.0746 0)
(353.794 75.8125 0)
(356.359 75.1099 0)
(359.119 73.8708 0)
(361.132 73.0564 0)
(363.147 71.8089 0)
(364.717 71.2995 0)
(366.804 70.4723 0)
(368.746 70.0587 0)
(371.523 69.107 0)
(373.589 68.2403 0)
(375.529 67.066 0)
(376.46 66.4246 0)
(377.384 65.6471 0)
(378.682 65.4588 0)
(380.965 65.1443 0)
(384.073 64.8296 0)
(385.339 66.4639 0)
(175.034 28.2525 0)
(199.717 -2.43823 0)
(203.014 -2.20338 0)
(205.249 -1.66314 0)
(206.585 -1.44381 0)
(207.123 -1.18826 0)
(207.723 -1.06741 0)
(208.586 -1.03354 0)
(209.571 -1.06595 0)
(210.473 -1.0476 0)
(211.24 -0.97231 0)
(211.931 -0.875909 0)
(212.613 -0.780227 0)
(213.3 -0.65577 0)
(213.961 -0.488651 0)
(214.534 -0.258137 0)
(214.996 0.0294782 0)
(215.372 0.36098 0)
(215.699 0.72423 0)
(216.001 1.11005 0)
(216.295 1.5106 0)
(216.593 1.92127 0)
(216.9 2.34333 0)
(217.204 2.78325 0)
(217.491 3.24877 0)
(217.759 3.74448 0)
(218.007 4.27336 0)
(218.239 4.83577 0)
(218.446 5.43505 0)
(218.638 6.0715 0)
(218.806 6.74656 0)
(218.955 7.46104 0)
(219.092 8.20948 0)
(219.206 8.99576 0)
(219.304 9.81674 0)
(219.391 10.6683 0)
(219.467 11.5505 0)
(219.529 12.4632 0)
(219.578 13.4059 0)
(219.614 14.3776 0)
(219.641 15.3778 0)
(219.658 16.4066 0)
(219.667 17.4641 0)
(219.668 18.5507 0)
(219.662 19.6666 0)
(219.65 20.8124 0)
(219.634 21.9887 0)
(219.615 23.1962 0)
(219.596 24.4353 0)
(219.58 25.7052 0)
(219.569 27.0072 0)
(219.568 28.3421 0)
(219.577 29.7106 0)
(219.597 31.1128 0)
(219.635 32.5499 0)
(219.696 34.0222 0)
(219.781 35.5296 0)
(219.892 37.0731 0)
(220.041 38.6538 0)
(220.226 40.2709 0)
(220.453 41.9248 0)
(220.737 43.6161 0)
(221.069 45.343 0)
(221.466 47.1061 0)
(221.943 48.9043 0)
(222.484 50.735 0)
(223.117 52.5987 0)
(223.854 54.4923 0)
(224.673 56.4142 0)
(225.623 58.3634 0)
(226.685 60.3372 0)
(227.861 62.3333 0)
(229.204 64.3397 0)
(230.682 66.3461 0)
(232.321 68.3421 0)
(234.148 70.3198 0)
(236.145 72.2765 0)
(238.319 74.2148 0)
(240.714 76.1151 0)
(243.268 77.9824 0)
(246.042 79.7833 0)
(249.015 81.5104 0)
(252.186 83.1494 0)
(255.562 84.6762 0)
(259.12 86.1021 0)
(262.897 87.3658 0)
(266.822 88.5002 0)
(270.887 89.4321 0)
(275.279 90.2326 0)
(279.9 90.8033 0)
(284.35 91.2157 0)
(288.82 91.5501 0)
(293.937 91.7404 0)
(298.55 91.7094 0)
(303.517 91.439 0)
(307.925 91.0936 0)
(312.572 90.5427 0)
(316.912 90.0247 0)
(321.28 89.4166 0)
(325.489 88.7342 0)
(329.502 87.9302 0)
(333.409 87.0702 0)
(337.349 85.9243 0)
(340.741 84.9538 0)
(344.518 83.6007 0)
(347.49 82.6948 0)
(350.891 81.4498 0)
(353.679 80.7186 0)
(357.203 79.5298 0)
(360.125 78.5272 0)
(363.559 77.1832 0)
(366.173 76.2721 0)
(369.304 75.0637 0)
(371.098 74.3506 0)
(372.591 73.2951 0)
(373.294 72.5662 0)
(373.917 71.5861 0)
(374.811 71.1634 0)
(376.885 70.7061 0)
(380.324 70.2945 0)
(381.746 72.1827 0)
(174.87 27.8695 0)
(199.627 -2.17619 0)
(203.32 -2.15436 0)
(205.346 -1.63652 0)
(206.402 -1.45747 0)
(206.804 -1.23517 0)
(207.318 -1.09686 0)
(208.125 -1.04609 0)
(209.128 -1.08065 0)
(210.081 -1.06303 0)
(210.881 -0.996641 0)
(211.564 -0.911899 0)
(212.203 -0.821596 0)
(212.836 -0.70577 0)
(213.457 -0.5414 0)
(214.025 -0.313677 0)
(214.51 -0.0295206 0)
(214.912 0.300192 0)
(215.253 0.663931 0)
(215.552 1.05117 0)
(215.833 1.4531 0)
(216.118 1.86475 0)
(216.413 2.28688 0)
(216.706 2.72587 0)
(216.984 3.18961 0)
(217.241 3.68274 0)
(217.476 4.20816 0)
(217.693 4.76584 0)
(217.883 5.3593 0)
(218.058 5.98818 0)
(218.205 6.65577 0)
(218.335 7.3606 0)
(218.45 8.09979 0)
(218.538 8.87751 0)
(218.613 9.68795 0)
(218.676 10.5285 0)
(218.726 11.4006 0)
(218.76 12.3021 0)
(218.78 13.2333 0)
(218.787 14.193 0)
(218.783 15.1809 0)
(218.768 16.197 0)
(218.742 17.2415 0)
(218.707 18.3146 0)
(218.664 19.4168 0)
(218.612 20.5485 0)
(218.554 21.7104 0)
(218.491 22.903 0)
(218.425 24.1279 0)
(218.359 25.3831 0)
(218.295 26.6704 0)
(218.238 27.9904 0)
(218.186 29.3442 0)
(218.143 30.7314 0)
(218.114 32.1536 0)
(218.103 33.6112 0)
(218.111 35.104 0)
(218.141 36.633 0)
(218.203 38.1997 0)
(218.295 39.8033 0)
(218.423 41.4445 0)
(218.601 43.124 0)
(218.82 44.8402 0)
(219.097 46.5942 0)
(219.444 48.3849 0)
(219.846 50.2098 0)
(220.333 52.07 0)
(220.912 53.9637 0)
(221.564 55.8899 0)
(222.335 57.8479 0)
(223.203 59.8328 0)
(224.175 61.8413 0)
(225.302 63.8663 0)
(226.547 65.9034 0)
(227.942 67.9503 0)
(229.51 70.0028 0)
(231.228 72.0567 0)
(233.116 74.1068 0)
(235.213 76.1309 0)
(237.461 78.1277 0)
(239.934 80.0689 0)
(242.6 81.9524 0)
(245.473 83.7659 0)
(248.562 85.5021 0)
(251.856 87.1573 0)
(255.363 88.6716 0)
(259.034 90.1111 0)
(262.999 91.3812 0)
(267.116 92.5078 0)
(271.228 93.3916 0)
(275.741 94.2166 0)
(280.146 94.7705 0)
(284.918 95.274 0)
(289.357 95.5879 0)
(294.145 95.7237 0)
(298.956 95.6392 0)
(304.173 95.3155 0)
(309.143 94.7311 0)
(313.956 94.0313 0)
(318.606 93.2486 0)
(322.894 92.5138 0)
(327.141 91.7071 0)
(331.263 90.8383 0)
(334.964 90.0899 0)
(338.972 89.0505 0)
(342.379 88.2734 0)
(346.379 87.0713 0)
(349.645 86.1828 0)
(353.418 84.8916 0)
(356.275 84.0734 0)
(359.495 82.8609 0)
(361.885 82.1267 0)
(364.261 81.166 0)
(366.035 80.5268 0)
(367.632 79.5415 0)
(368.734 78.7866 0)
(370.061 77.8104 0)
(371.743 77.3312 0)
(374.385 76.8843 0)
(378.178 76.5261 0)
(379.706 78.5797 0)
(174.932 26.6669 0)
(199.863 -2.08387 0)
(203.448 -2.00775 0)
(205.281 -1.57892 0)
(206.146 -1.50859 0)
(206.471 -1.31715 0)
(206.893 -1.17182 0)
(207.609 -1.10601 0)
(208.587 -1.12342 0)
(209.588 -1.10799 0)
(210.445 -1.05286 0)
(211.151 -0.975526 0)
(211.768 -0.886093 0)
(212.349 -0.770558 0)
(212.918 -0.603616 0)
(213.465 -0.376125 0)
(213.965 -0.0943258 0)
(214.397 0.234893 0)
(214.759 0.600742 0)
(215.062 0.990648 0)
(215.338 1.39451 0)
(215.613 1.80728 0)
(215.897 2.22935 0)
(216.179 2.66704 0)
(216.447 3.12829 0)
(216.695 3.61798 0)
(216.919 4.13888 0)
(217.122 4.69086 0)
(217.297 5.27712 0)
(217.456 5.89713 0)
(217.584 6.55545 0)
(217.698 7.24817 0)
(217.789 7.97675 0)
(217.854 8.74296 0)
(217.907 9.54013 0)
(217.948 10.3675 0)
(217.971 11.2263 0)
(217.979 12.1131 0)
(217.972 13.0304 0)
(217.951 13.9753 0)
(217.918 14.9478 0)
(217.872 15.9478 0)
(217.814 16.9756 0)
(217.746 18.0315 0)
(217.667 19.1159 0)
(217.579 20.2293 0)
(217.482 21.3722 0)
(217.379 22.5451 0)
(217.268 23.7508 0)
(217.156 24.9851 0)
(217.043 26.251 0)
(216.933 27.5491 0)
(216.825 28.8815 0)
(216.723 30.2467 0)
(216.631 31.6469 0)
(216.552 33.083 0)
(216.485 34.5545 0)
(216.438 36.0624 0)
(216.416 37.6087 0)
(216.417 39.1927 0)
(216.449 40.8155 0)
(216.522 42.4785 0)
(216.629 44.1799 0)
(216.786 45.9218 0)
(217.003 47.7037 0)
(217.266 49.5232 0)
(217.606 51.3832 0)
(218.025 53.2817 0)
(218.508 55.2175 0)
(219.102 57.1908 0)
(219.779 59.1976 0)
(220.555 61.2382 0)
(221.474 63.3103 0)
(222.496 65.4087 0)
(223.659 67.5278 0)
(224.983 69.6574 0)
(226.446 71.7887 0)
(228.08 73.9164 0)
(229.912 76.0264 0)
(231.886 78.121 0)
(234.076 80.1841 0)
(236.448 82.2178 0)
(239.016 84.2084 0)
(241.779 86.1467 0)
(244.746 88.0148 0)
(247.931 89.7854 0)
(251.288 91.4877 0)
(254.882 93.0114 0)
(258.604 94.4859 0)
(262.658 95.7789 0)
(266.893 96.9041 0)
(271.259 97.8257 0)
(275.73 98.6251 0)
(280.412 99.2413 0)
(284.894 99.6652 0)
(289.757 99.9721 0)
(294.322 100.186 0)
(299.153 100.212 0)
(303.855 100.015 0)
(308.471 99.6822 0)
(313.546 99.0684 0)
(318.18 98.325 0)
(323.2 97.3171 0)
(327.438 96.3749 0)
(332.031 95.2585 0)
(335.882 94.3436 0)
(340.043 93.2188 0)
(343.415 92.4379 0)
(347.186 91.2859 0)
(350.151 90.5293 0)
(353.439 89.4016 0)
(356.098 88.7759 0)
(359.231 87.7252 0)
(361.547 87.1571 0)
(363.998 86.0927 0)
(365.375 85.3628 0)
(366.472 84.2453 0)
(367.516 83.5784 0)
(369.761 83.0056 0)
(373.794 82.559 0)
(375.333 84.9793 0)
(174.797 25.1545 0)
(199.935 -2.18281 0)
(203.422 -1.90542 0)
(205.179 -1.58231 0)
(205.87 -1.59749 0)
(206.122 -1.43211 0)
(206.465 -1.28575 0)
(207.073 -1.20962 0)
(207.982 -1.20628 0)
(209.004 -1.18887 0)
(209.934 -1.15018 0)
(210.696 -1.08255 0)
(211.314 -0.989841 0)
(211.854 -0.867387 0)
(212.369 -0.695372 0)
(212.881 -0.468351 0)
(213.38 -0.18931 0)
(213.835 0.13953 0)
(214.22 0.507857 0)
(214.537 0.900982 0)
(214.815 1.30749 0)
(215.084 1.72227 0)
(215.357 2.14525 0)
(215.628 2.58261 0)
(215.886 3.04223 0)
(216.123 3.52937 0)
(216.337 4.04656 0)
(216.527 4.5938 0)
(216.69 5.17363 0)
(216.832 5.78605 0)
(216.943 6.4358 0)
(217.041 7.11768 0)
(217.106 7.83811 0)
(217.149 8.59273 0)
(217.181 9.37733 0)
(217.196 10.1929 0)
(217.192 11.0403 0)
(217.172 11.9165 0)
(217.138 12.8202 0)
(217.088 13.7515 0)
(217.024 14.7102 0)
(216.947 15.696 0)
(216.856 16.709 0)
(216.753 17.7497 0)
(216.638 18.8185 0)
(216.512 19.9157 0)
(216.375 21.0423 0)
(216.228 22.1992 0)
(216.074 23.3858 0)
(215.914 24.6036 0)
(215.751 25.8523 0)
(215.588 27.1327 0)
(215.422 28.4486 0)
(215.261 29.7951 0)
(215.105 31.176 0)
(214.957 32.5928 0)
(214.818 34.0459 0)
(214.695 35.5345 0)
(214.592 37.0622 0)
(214.506 38.6275 0)
(214.446 40.2316 0)
(214.42 41.8763 0)
(214.421 43.5597 0)
(214.467 45.2844 0)
(214.563 47.0499 0)
(214.697 48.854 0)
(214.902 50.7002 0)
(215.173 52.586 0)
(215.502 54.5105 0)
(215.931 56.4759 0)
(216.428 58.4784 0)
(217.017 60.5198 0)
(217.732 62.5975 0)
(218.531 64.7039 0)
(219.462 66.8354 0)
(220.539 68.9866 0)
(221.74 71.1554 0)
(223.105 73.3433 0)
(224.648 75.5419 0)
(226.322 77.7519 0)
(228.206 79.9598 0)
(230.264 82.1614 0)
(232.52 84.3367 0)
(234.985 86.4696 0)
(237.674 88.5331 0)
(240.559 90.5252 0)
(243.646 92.4627 0)
(247.009 94.2695 0)
(250.506 96.0201 0)
(254.264 97.5504 0)
(258.149 99.0403 0)
(262.271 100.337 0)
(266.53 101.447 0)
(271.097 102.459 0)
(275.698 103.222 0)
(280.443 103.846 0)
(285.099 104.327 0)
(289.703 104.628 0)
(294.475 104.754 0)
(298.844 104.822 0)
(303.78 104.667 0)
(308.122 104.505 0)
(312.82 104.065 0)
(317.074 103.652 0)
(321.353 103.081 0)
(325.481 102.455 0)
(329.466 101.636 0)
(333.166 100.837 0)
(337.034 99.7646 0)
(340.334 98.8893 0)
(344.003 97.7384 0)
(347.098 96.9058 0)
(350.613 95.7999 0)
(353.386 95.0341 0)
(356.294 93.9041 0)
(358.215 93.0743 0)
(360.083 91.9914 0)
(362.021 91.3665 0)
(364.99 90.7272 0)
(369.508 90.1653 0)
(371.17 92.6287 0)
(175.162 23.2646 0)
(199.767 -2.2546 0)
(203.598 -2.0344 0)
(205.039 -1.67687 0)
(205.55 -1.68756 0)
(205.781 -1.55273 0)
(206.074 -1.41519 0)
(206.576 -1.33721 0)
(207.372 -1.30639 0)
(208.367 -1.28988 0)
(209.347 -1.25935 0)
(210.168 -1.18833 0)
(210.813 -1.08655 0)
(211.345 -0.961539 0)
(211.825 -0.792398 0)
(212.292 -0.567101 0)
(212.764 -0.287127 0)
(213.217 0.0477797 0)
(213.617 0.423924 0)
(213.955 0.822931 0)
(214.248 1.23219 0)
(214.52 1.64718 0)
(214.787 2.06837 0)
(215.046 2.50251 0)
(215.293 2.95777 0)
(215.519 3.44005 0)
(215.723 3.95155 0)
(215.901 4.49253 0)
(216.053 5.06439 0)
(216.179 5.6682 0)
(216.277 6.30739 0)
(216.357 6.97793 0)
(216.396 7.6877 0)
(216.424 8.42516 0)
(216.432 9.19811 0)
(216.421 10.0015 0)
(216.393 10.8334 0)
(216.348 11.6932 0)
(216.287 12.5809 0)
(216.21 13.4958 0)
(216.117 14.4375 0)
(216.01 15.4056 0)
(215.888 16.4003 0)
(215.753 17.422 0)
(215.604 18.4711 0)
(215.442 19.5481 0)
(215.268 20.6536 0)
(215.083 21.7884 0)
(214.887 22.9532 0)
(214.684 24.1481 0)
(214.474 25.3737 0)
(214.26 26.6311 0)
(214.044 27.9198 0)
(213.827 29.2419 0)
(213.612 30.5977 0)
(213.401 31.9895 0)
(213.192 33.4188 0)
(212.997 34.8806 0)
(212.815 36.382 0)
(212.645 37.9224 0)
(212.497 39.5018 0)
(212.374 41.1231 0)
(212.271 42.7841 0)
(212.208 44.4881 0)
(212.183 46.2346 0)
(212.189 48.0219 0)
(212.258 49.855 0)
(212.38 51.7308 0)
(212.552 53.6498 0)
(212.813 55.6152 0)
(213.13 57.622 0)
(213.532 59.6734 0)
(214.047 61.7674 0)
(214.634 63.8976 0)
(215.347 66.0657 0)
(216.189 68.2679 0)
(217.142 70.5008 0)
(218.252 72.762 0)
(219.521 75.0391 0)
(220.912 77.3274 0)
(222.508 79.6153 0)
(224.261 81.8959 0)
(226.199 84.1558 0)
(228.329 86.3905 0)
(230.665 88.5868 0)
(233.182 90.7468 0)
(235.919 92.8561 0)
(238.882 94.8808 0)
(241.983 96.8718 0)
(245.403 98.7029 0)
(248.931 100.503 0)
(252.779 102.103 0)
(256.785 103.661 0)
(260.966 104.962 0)
(265.437 106.288 0)
(269.831 107.265 0)
(274.733 108.241 0)
(279.359 108.755 0)
(284.708 109.232 0)
(289.397 109.379 0)
(294.689 109.502 0)
(299.317 109.444 0)
(304.35 109.161 0)
(309.005 108.76 0)
(313.574 108.307 0)
(318.255 107.701 0)
(322.423 107.149 0)
(326.669 106.462 0)
(330.701 105.754 0)
(334.473 105.047 0)
(338.378 104.182 0)
(341.918 103.442 0)
(345.781 102.451 0)
(348.943 101.738 0)
(352.336 100.623 0)
(354.546 99.7539 0)
(356.378 98.5628 0)
(357.921 97.9397 0)
(360.566 97.4953 0)
(365.237 97.1221 0)
(366.821 100.189 0)
(175.899 21.1115 0)
(199.789 -2.23657 0)
(203.613 -2.10859 0)
(204.753 -1.76162 0)
(205.227 -1.74464 0)
(205.492 -1.63058 0)
(205.767 -1.51452 0)
(206.185 -1.44857 0)
(206.843 -1.40177 0)
(207.744 -1.39118 0)
(208.722 -1.36815 0)
(209.598 -1.3041 0)
(210.297 -1.2031 0)
(210.852 -1.07644 0)
(211.313 -0.907347 0)
(211.734 -0.685249 0)
(212.157 -0.408357 0)
(212.58 -0.0742564 0)
(212.979 0.302371 0)
(213.338 0.70345 0)
(213.653 1.11612 0)
(213.935 1.53465 0)
(214.199 1.95803 0)
(214.447 2.39233 0)
(214.681 2.84543 0)
(214.895 3.32401 0)
(215.087 3.83024 0)
(215.253 4.36502 0)
(215.394 4.92882 0)
(215.505 5.52422 0)
(215.591 6.1529 0)
(215.649 6.81406 0)
(215.67 7.50732 0)
(215.678 8.23714 0)
(215.66 8.99786 0)
(215.625 9.78686 0)
(215.572 10.6051 0)
(215.5 11.4513 0)
(215.411 12.325 0)
(215.304 13.225 0)
(215.182 14.1511 0)
(215.044 15.1031 0)
(214.89 16.0812 0)
(214.721 17.0858 0)
(214.537 18.1172 0)
(214.338 19.1759 0)
(214.126 20.2627 0)
(213.9 21.3781 0)
(213.661 22.523 0)
(213.412 23.6978 0)
(213.155 24.9029 0)
(212.89 26.1389 0)
(212.62 27.4069 0)
(212.346 28.7076 0)
(212.07 30.0422 0)
(211.794 31.4113 0)
(211.522 32.8143 0)
(211.255 34.2536 0)
(210.996 35.7317 0)
(210.742 37.2501 0)
(210.509 38.8031 0)
(210.293 40.399 0)
(210.092 42.0349 0)
(209.926 43.7142 0)
(209.789 45.4365 0)
(209.677 47.199 0)
(209.622 49.0086 0)
(209.606 50.8606 0)
(209.636 52.7567 0)
(209.744 54.7006 0)
(209.894 56.6863 0)
(210.126 58.7196 0)
(210.453 60.7996 0)
(210.838 62.9208 0)
(211.338 65.0874 0)
(211.945 67.2936 0)
(212.648 69.5344 0)
(213.498 71.8095 0)
(214.487 74.1107 0)
(215.59 76.4379 0)
(216.888 78.7891 0)
(218.326 81.16 0)
(219.942 83.5428 0)
(221.749 85.9317 0)
(223.755 88.3108 0)
(225.941 90.677 0)
(228.366 93.0101 0)
(231.003 95.2952 0)
(233.824 97.5405 0)
(236.937 99.663 0)
(240.159 101.747 0)
(243.702 103.617 0)
(247.287 105.476 0)
(251.166 107.131 0)
(255.169 108.686 0)
(259.396 110.046 0)
(263.812 111.276 0)
(268.219 112.295 0)
(272.928 113.246 0)
(277.551 114.07 0)
(282.238 114.717 0)
(287.06 115.174 0)
(292.041 115.378 0)
(297.119 115.36 0)
(302.085 115.203 0)
(307.195 114.884 0)
(311.94 114.406 0)
(316.703 113.778 0)
(321.183 113.128 0)
(325.506 112.392 0)
(329.51 111.709 0)
(333.405 111.004 0)
(337.264 110.215 0)
(340.643 109.606 0)
(344.23 108.647 0)
(346.667 107.812 0)
(348.665 106.611 0)
(350.419 105.823 0)
(353.378 105.134 0)
(358.47 104.683 0)
(360.191 107.863 0)
(177.482 18.758 0)
(200.123 -2.1219 0)
(203.424 -2.16633 0)
(204.322 -1.81463 0)
(204.869 -1.75177 0)
(205.234 -1.66097 0)
(205.552 -1.58129 0)
(205.932 -1.52817 0)
(206.454 -1.47656 0)
(207.201 -1.46978 0)
(208.099 -1.44589 0)
(208.99 -1.38967 0)
(209.75 -1.30315 0)
(210.349 -1.17803 0)
(210.812 -1.00364 0)
(211.197 -0.779759 0)
(211.561 -0.502305 0)
(211.927 -0.170195 0)
(212.299 0.20301 0)
(212.663 0.601885 0)
(213 1.01444 0)
(213.303 1.43353 0)
(213.575 1.85631 0)
(213.819 2.28789 0)
(214.043 2.73603 0)
(214.243 3.20832 0)
(214.422 3.70714 0)
(214.574 4.23404 0)
(214.704 4.78862 0)
(214.8 5.37443 0)
(214.875 5.99165 0)
(214.912 6.64252 0)
(214.92 7.31658 0)
(214.904 8.03789 0)
(214.866 8.78383 0)
(214.807 9.55784 0)
(214.729 10.3594 0)
(214.632 11.1882 0)
(214.517 12.0439 0)
(214.383 12.9256 0)
(214.233 13.8329 0)
(214.066 14.7653 0)
(213.882 15.7231 0)
(213.682 16.7065 0)
(213.465 17.716 0)
(213.232 18.7522 0)
(212.984 19.8156 0)
(212.721 20.907 0)
(212.444 22.027 0)
(212.153 23.1764 0)
(211.852 24.3554 0)
(211.541 25.5648 0)
(211.222 26.805 0)
(210.896 28.0772 0)
(210.565 29.3825 0)
(210.23 30.722 0)
(209.894 32.0967 0)
(209.558 33.5075 0)
(209.226 34.9551 0)
(208.901 36.4392 0)
(208.586 37.9628 0)
(208.278 39.53 0)
(207.983 41.1371 0)
(207.715 42.7849 0)
(207.465 44.4789 0)
(207.239 46.2136 0)
(207.058 47.9986 0)
(206.905 49.8279 0)
(206.793 51.7037 0)
(206.745 53.6307 0)
(206.728 55.6023 0)
(206.788 57.6273 0)
(206.925 59.7031 0)
(207.109 61.8245 0)
(207.402 63.9976 0)
(207.782 66.2148 0)
(208.252 68.4741 0)
(208.861 70.779 0)
(209.587 73.1229 0)
(210.42 75.5059 0)
(211.434 77.9249 0)
(212.568 80.3696 0)
(213.87 82.834 0)
(215.351 85.3138 0)
(217.009 87.7962 0)
(218.838 90.2769 0)
(220.899 92.7386 0)
(223.139 95.1797 0)
(225.575 97.5997 0)
(228.273 99.9574 0)
(231.131 102.287 0)
(234.334 104.491 0)
(237.648 106.707 0)
(241.323 108.727 0)
(245.101 110.72 0)
(249.157 112.453 0)
(253.349 114.086 0)
(257.733 115.524 0)
(262.182 116.822 0)
(266.94 118.022 0)
(271.553 118.924 0)
(276.444 119.677 0)
(281.095 120.32 0)
(285.969 120.722 0)
(290.488 121.055 0)
(295.143 121.251 0)
(299.756 121.356 0)
(304.26 121.273 0)
(308.753 121.073 0)
(313.183 120.671 0)
(317.285 120.25 0)
(321.441 119.746 0)
(325.605 119.093 0)
(329.338 118.554 0)
(333.606 117.659 0)
(336.608 116.87 0)
(339.453 115.684 0)
(341.906 114.85 0)
(345.244 114.151 0)
(350.98 113.553 0)
(352.661 117.172 0)
(179.907 16.4415 0)
(200.891 -1.72495 0)
(203.129 -2.16679 0)
(203.786 -1.92749 0)
(204.42 -1.86468 0)
(204.951 -1.75053 0)
(205.383 -1.65942 0)
(205.774 -1.58933 0)
(206.203 -1.54224 0)
(206.777 -1.52035 0)
(207.539 -1.50048 0)
(208.392 -1.46618 0)
(209.189 -1.39954 0)
(209.838 -1.28058 0)
(210.327 -1.10738 0)
(210.699 -0.88515 0)
(211.01 -0.611026 0)
(211.31 -0.286981 0)
(211.629 0.0766304 0)
(211.971 0.468557 0)
(212.315 0.878666 0)
(212.635 1.29863 0)
(212.922 1.72315 0)
(213.172 2.15473 0)
(213.391 2.59972 0)
(213.579 3.06614 0)
(213.743 3.55702 0)
(213.88 4.07479 0)
(213.998 4.61898 0)
(214.08 5.19369 0)
(214.143 5.79882 0)
(214.16 6.43623 0)
(214.155 7.09688 0)
(214.117 7.80443 0)
(214.057 8.53667 0)
(213.975 9.29739 0)
(213.872 10.0845 0)
(213.749 10.8972 0)
(213.606 11.736 0)
(213.445 12.6005 0)
(213.265 13.4904 0)
(213.067 14.4051 0)
(212.852 15.3447 0)
(212.619 16.309 0)
(212.368 17.2987 0)
(212.1 18.3142 0)
(211.814 19.3563 0)
(211.513 20.4257 0)
(211.195 21.5232 0)
(210.861 22.6494 0)
(210.514 23.8049 0)
(210.155 24.99 0)
(209.785 26.2055 0)
(209.406 27.4524 0)
(209.018 28.7318 0)
(208.623 30.0444 0)
(208.224 31.3912 0)
(207.822 32.7731 0)
(207.419 34.1915 0)
(207.017 35.6477 0)
(206.62 37.1431 0)
(206.229 38.6772 0)
(205.848 40.2505 0)
(205.486 41.8662 0)
(205.126 43.5329 0)
(204.795 45.2327 0)
(204.498 46.982 0)
(204.217 48.7782 0)
(203.978 50.6198 0)
(203.788 52.5139 0)
(203.62 54.4519 0)
(203.525 56.4454 0)
(203.488 58.489 0)
(203.49 60.5797 0)
(203.59 62.7271 0)
(203.758 64.9229 0)
(204.003 67.1691 0)
(204.372 69.4702 0)
(204.831 71.8169 0)
(205.39 74.2093 0)
(206.113 76.6474 0)
(206.935 79.1215 0)
(207.919 81.6339 0)
(209.068 84.1804 0)
(210.374 86.7493 0)
(211.847 89.337 0)
(213.544 91.9305 0)
(215.404 94.5262 0)
(217.475 97.1128 0)
(219.781 99.6615 0)
(222.259 102.176 0)
(225.027 104.612 0)
(227.906 107.044 0)
(231.14 109.335 0)
(234.434 111.613 0)
(238.109 113.68 0)
(241.886 115.76 0)
(245.951 117.672 0)
(250.215 119.543 0)
(254.717 121.117 0)
(259.508 122.53 0)
(264.183 123.608 0)
(269.218 124.719 0)
(274.076 125.485 0)
(279.314 126.062 0)
(284.187 126.418 0)
(289.55 126.713 0)
(294.299 126.818 0)
(299.566 126.747 0)
(304.404 126.514 0)
(309.138 126.155 0)
(313.703 125.83 0)
(318.382 125.361 0)
(322.459 125.05 0)
(327.192 124.396 0)
(330.554 123.767 0)
(333.46 122.69 0)
(335.747 121.963 0)
(339.033 121.463 0)
(344.8 121.298 0)
(346.515 125.227 0)
(183.137 14.5568 0)
(202.105 -1.1588 0)
(203.023 -1.98349 0)
(203.44 -2.03344 0)
(203.966 -1.93298 0)
(204.543 -1.83504 0)
(205.087 -1.73778 0)
(205.55 -1.6558 0)
(205.974 -1.5885 0)
(206.46 -1.54843 0)
(207.09 -1.52809 0)
(207.845 -1.50984 0)
(208.621 -1.45639 0)
(209.296 -1.34392 0)
(209.82 -1.1783 0)
(210.204 -0.962015 0)
(210.489 -0.696398 0)
(210.733 -0.386504 0)
(210.986 -0.039031 0)
(211.275 0.339503 0)
(211.593 0.741826 0)
(211.915 1.1593 0)
(212.217 1.58468 0)
(212.483 2.01677 0)
(212.707 2.45961 0)
(212.89 2.92086 0)
(213.04 3.40442 0)
(213.163 3.91336 0)
(213.265 4.44759 0)
(213.332 5.011 0)
(213.381 5.604 0)
(213.382 6.22495 0)
(213.361 6.87522 0)
(213.303 7.56688 0)
(213.224 8.28264 0)
(213.119 9.02708 0)
(212.993 9.79719 0)
(212.846 10.592 0)
(212.678 11.4115 0)
(212.491 12.2556 0)
(212.284 13.1241 0)
(212.059 14.0167 0)
(211.815 14.9335 0)
(211.551 15.8745 0)
(211.269 16.8403 0)
(210.969 17.8311 0)
(210.65 18.8476 0)
(210.313 19.8905 0)
(209.958 20.9605 0)
(209.586 22.0584 0)
(209.198 23.1848 0)
(208.796 24.3401 0)
(208.38 25.5249 0)
(207.952 26.7403 0)
(207.513 27.9872 0)
(207.064 29.2667 0)
(206.607 30.5799 0)
(206.143 31.9275 0)
(205.674 33.3108 0)
(205.202 34.7307 0)
(204.73 36.1888 0)
(204.259 37.6864 0)
(203.792 39.225 0)
(203.332 40.8063 0)
(202.883 42.428 0)
(202.449 44.0936 0)
(202.036 45.8058 0)
(201.625 47.5728 0)
(201.261 49.3772 0)
(200.925 51.2377 0)
(200.608 53.1444 0)
(200.356 55.1112 0)
(200.143 57.1298 0)
(199.964 59.1985 0)
(199.872 61.3297 0)
(199.827 63.5115 0)
(199.856 65.7491 0)
(199.994 68.0451 0)
(200.2 70.3885 0)
(200.506 72.7846 0)
(200.958 75.2352 0)
(201.49 77.73 0)
(202.177 80.276 0)
(203.007 82.8664 0)
(203.972 85.4909 0)
(205.099 88.148 0)
(206.432 90.8273 0)
(207.909 93.5231 0)
(209.597 96.2303 0)
(211.493 98.9385 0)
(213.574 101.647 0)
(215.925 104.328 0)
(218.437 106.999 0)
(221.266 109.576 0)
(224.184 112.14 0)
(227.49 114.544 0)
(230.841 116.961 0)
(234.537 119.179 0)
(238.294 121.346 0)
(242.327 123.275 0)
(246.557 125.052 0)
(250.908 126.657 0)
(255.462 128.299 0)
(260.04 129.695 0)
(265.131 130.967 0)
(269.793 131.904 0)
(275.083 132.858 0)
(279.72 133.563 0)
(285.043 134.145 0)
(289.775 134.426 0)
(294.799 134.424 0)
(299.391 134.369 0)
(304.4 134.145 0)
(308.563 134.083 0)
(313.582 133.751 0)
(317.225 133.342 0)
(320.495 132.378 0)
(323.159 131.521 0)
(326.627 130.839 0)
(332.944 130.398 0)
(334.432 134.693 0)
(186.487 13.3972 0)
(203.752 -0.667452 0)
(203.318 -1.6743 0)
(203.492 -1.74905 0)
(203.819 -1.83736 0)
(204.237 -1.90686 0)
(204.735 -1.80806 0)
(205.266 -1.74157 0)
(205.76 -1.66905 0)
(206.238 -1.6245 0)
(206.755 -1.59341 0)
(207.374 -1.56591 0)
(208.065 -1.49676 0)
(208.735 -1.38757 0)
(209.3 -1.23955 0)
(209.718 -1.04097 0)
(210.003 -0.790559 0)
(210.212 -0.496849 0)
(210.402 -0.166368 0)
(210.618 0.196759 0)
(210.877 0.587555 0)
(211.17 0.99831 0)
(211.473 1.42188 0)
(211.755 1.85353 0)
(211.996 2.29389 0)
(212.186 2.7491 0)
(212.331 3.22373 0)
(212.441 3.72132 0)
(212.528 4.24287 0)
(212.581 4.79214 0)
(212.614 5.37041 0)
(212.603 5.97293 0)
(212.564 6.61105 0)
(212.488 7.28698 0)
(212.389 7.98651 0)
(212.263 8.71467 0)
(212.113 9.46837 0)
(211.941 10.2463 0)
(211.748 11.0485 0)
(211.534 11.8744 0)
(211.299 12.7238 0)
(211.045 13.5964 0)
(210.77 14.4924 0)
(210.476 15.4119 0)
(210.161 16.3553 0)
(209.827 17.3232 0)
(209.472 18.3162 0)
(209.099 19.3347 0)
(208.705 20.3796 0)
(208.293 21.4515 0)
(207.862 22.5512 0)
(207.415 23.6789 0)
(206.952 24.8354 0)
(206.474 26.0216 0)
(205.983 27.2384 0)
(205.478 28.487 0)
(204.962 29.7682 0)
(204.436 31.0831 0)
(203.901 32.4326 0)
(203.36 33.818 0)
(202.815 35.2405 0)
(202.266 36.7012 0)
(201.717 38.2015 0)
(201.169 39.7427 0)
(200.627 41.3267 0)
(200.093 42.9542 0)
(199.569 44.6269 0)
(199.061 46.3414 0)
(198.579 48.1055 0)
(198.105 49.9255 0)
(197.656 51.787 0)
(197.262 53.7055 0)
(196.886 55.6784 0)
(196.55 57.7005 0)
(196.283 59.7884 0)
(196.045 61.9263 0)
(195.877 64.1248 0)
(195.797 66.3854 0)
(195.763 68.6982 0)
(195.825 71.0746 0)
(196.007 73.5146 0)
(196.248 76.0068 0)
(196.637 78.563 0)
(197.143 81.172 0)
(197.768 83.8286 0)
(198.552 86.5377 0)
(199.516 89.2916 0)
(200.609 92.0824 0)
(201.913 94.9084 0)
(203.395 97.7621 0)
(205.061 100.634 0)
(206.968 103.498 0)
(209.055 106.353 0)
(211.422 109.176 0)
(213.925 112.015 0)
(216.805 114.768 0)
(219.781 117.513 0)
(223.155 120.079 0)
(226.602 122.638 0)
(230.392 124.999 0)
(234.331 127.322 0)
(238.568 129.438 0)
(242.948 131.473 0)
(247.505 133.326 0)
(252.225 134.944 0)
(256.956 136.217 0)
(261.92 137.423 0)
(266.649 138.472 0)
(271.311 139.462 0)
(276.188 140.327 0)
(280.934 140.896 0)
(285.775 141.293 0)
(290.613 141.435 0)
(295.142 141.634 0)
(300.501 141.765 0)
(304.921 141.71 0)
(308.969 141.179 0)
(312.273 140.573 0)
(315.993 140.16 0)
(322.723 139.981 0)
(324.032 145.091 0)
(188.978 12.8449 0)
(205.546 -0.04722 0)
(204.753 -1.17735 0)
(204.011 -1.41705 0)
(203.929 -1.61969 0)
(204.146 -1.66025 0)
(204.529 -1.74572 0)
(205.046 -1.75429 0)
(205.573 -1.71372 0)
(206.052 -1.68548 0)
(206.486 -1.6773 0)
(206.96 -1.64177 0)
(207.528 -1.55901 0)
(208.164 -1.45645 0)
(208.756 -1.31677 0)
(209.219 -1.13133 0)
(209.527 -0.89263 0)
(209.726 -0.614516 0)
(209.872 -0.303583 0)
(210.022 0.0387763 0)
(210.204 0.411099 0)
(210.436 0.808331 0)
(210.705 1.22669 0)
(210.987 1.65927 0)
(211.244 2.10226 0)
(211.448 2.55814 0)
(211.596 3.03078 0)
(211.699 3.52294 0)
(211.77 4.03672 0)
(211.807 4.57552 0)
(211.822 5.1416 0)
(211.797 5.7273 0)
(211.74 6.35274 0)
(211.645 7.0128 0)
(211.528 7.69532 0)
(211.381 8.40531 0)
(211.21 9.13996 0)
(211.016 9.89789 0)
(210.8 10.6791 0)
(210.562 11.4832 0)
(210.303 12.3098 0)
(210.022 13.1588 0)
(209.72 14.0302 0)
(209.397 14.9242 0)
(209.054 15.8411 0)
(208.689 16.7817 0)
(208.304 17.7464 0)
(207.898 18.7358 0)
(207.47 19.7507 0)
(207.022 20.7917 0)
(206.554 21.8596 0)
(206.066 22.9548 0)
(205.561 24.0779 0)
(205.039 25.2295 0)
(204.5 26.4108 0)
(203.946 27.6226 0)
(203.378 28.8661 0)
(202.796 30.1423 0)
(202.202 31.4521 0)
(201.598 32.7967 0)
(200.985 34.1773 0)
(200.364 35.5954 0)
(199.738 37.0524 0)
(199.109 38.5493 0)
(198.479 40.0877 0)
(197.85 41.669 0)
(197.227 43.2949 0)
(196.611 44.9673 0)
(196.005 46.688 0)
(195.413 48.4557 0)
(194.84 50.2725 0)
(194.303 52.1445 0)
(193.753 54.0841 0)
(193.266 56.059 0)
(192.819 58.1044 0)
(192.391 60.2024 0)
(192.032 62.3666 0)
(191.736 64.5946 0)
(191.473 66.8758 0)
(191.304 69.2269 0)
(191.227 71.6414 0)
(191.199 74.1104 0)
(191.312 76.6508 0)
(191.513 79.248 0)
(191.82 81.9045 0)
(192.274 84.6272 0)
(192.873 87.4045 0)
(193.585 90.2276 0)
(194.497 93.1018 0)
(195.556 96.0181 0)
(196.795 98.9676 0)
(198.256 101.933 0)
(199.901 104.911 0)
(201.791 107.901 0)
(203.838 110.914 0)
(206.213 113.874 0)
(208.702 116.805 0)
(211.576 119.635 0)
(214.509 122.507 0)
(217.828 125.288 0)
(221.262 128.059 0)
(225.066 130.602 0)
(228.994 133.074 0)
(233.149 135.346 0)
(237.494 137.584 0)
(242.17 139.602 0)
(246.999 141.312 0)
(252.085 142.953 0)
(257.092 144.326 0)
(262.499 145.773 0)
(267.498 146.675 0)
(273.076 147.498 0)
(278.319 147.953 0)
(283.65 148.263 0)
(289.031 148.716 0)
(294.24 148.908 0)
(298.142 148.743 0)
(301.362 148.399 0)
(304.999 148.333 0)
(311.358 148.659 0)
(312.555 153.608 0)
(190.208 12.4424 0)
(206.933 0.695524 0)
(206.586 -0.527055 0)