/*--------------------------------*- C++ -*----------------------------------*\
| =========                 |                                                 |
| \\      /  F ield         | OpenFOAM: The Open Source CFD Toolbox           |
|  \\    /   O peration     | Version:  2412                                  |
|   \\  /    A nd           | Website:  www.openfoam.com                      |
|    \\/     M anipulation  |                                                 |
\*---------------------------------------------------------------------------*/
FoamFile
{
    version     2.0;
    format      ascii;
    arch        "LSB;label=32;scalar=64";
    class       volScalarField;
    location    "0.094";
    object      T;
}
// * * * * * * * * * * * * * * * * * * * * * * * * * * * * * * * * * * * * * //

dimensions      [0 0 0 1 0 0 0];

internalField   nonuniform List<scalar> 
9857
(
223.418
222.047
221.838
223.185
221.967
221.767
221.593
221.455
221.333
221.222
221.108
220.99
220.885
220.829
220.83
220.965
221.429
222.017
222.428
222.644
222.757
222.833
222.904
222.978
223.057
223.135
223.215
223.3
222.977
221.872
221.698
221.535
221.401
221.28
221.171
221.059
220.945
220.845
220.797
220.803
220.957
221.444
222.031
222.431
222.639
222.749
222.824
222.895
222.971
223.05
223.128
223.209
223.297
222.698
221.747
221.616
221.468
221.337
221.219
221.111
221.002
220.893
220.801
220.761
220.772
220.953
221.465
222.048
222.433
222.632
222.738
222.813
222.885
222.962
223.042
223.121
223.204
223.294
222.185
221.662
221.542
221.387
221.259
221.147
221.042
220.938
220.835
220.752
220.72
220.739
220.955
221.492
222.066
222.432
222.62
222.723
222.8
222.874
222.953
223.033
223.114
223.199
223.293
221.588
221.617
221.486
221.312
221.182
221.074
220.975
220.876
220.779
220.705
220.68
220.709
220.963
221.526
222.085
222.431
222.607
222.708
222.786
222.863
222.945
223.027
223.11
223.197
223.293
221.074
221.519
221.391
221.225
221.104
221.002
220.908
220.813
220.723
220.658
220.64
220.683
220.979
221.562
222.103
222.427
222.593
222.691
222.772
222.854
222.939
223.023
223.108
223.197
223.297
220.554
221.42
221.271
221.128
221.022
220.929
220.841
220.751
220.668
220.613
220.6
220.661
221.002
221.6
222.119
222.421
222.577
222.675
222.759
222.845
222.934
223.021
223.108
223.2
223.303
223.416
219.992
221.3
221.16
221.044
220.95
220.861
220.776
220.691
220.614
220.567
220.56
220.645
221.031
221.637
222.133
222.413
222.561
222.66
222.748
222.839
222.932
223.021
223.111
223.206
223.311
223.426
219.405
221.173
221.057
220.962
220.88
220.796
220.714
220.633
220.562
220.522
220.521
220.635
221.066
221.674
222.143
222.405
222.547
222.646
222.74
222.836
222.931
223.024
223.116
223.214
223.322
223.438
223.56
218.789
221.041
220.959
220.885
220.811
220.733
220.654
220.576
220.51
220.476
220.482
220.632
221.105
221.709
222.151
222.396
222.534
222.636
222.735
222.835
222.933
223.029
223.124
223.225
223.333
223.45
223.574
218.14
220.916
220.865
220.807
220.741
220.668
220.592
220.518
220.457
220.429
220.445
220.638
221.15
221.743
222.157
222.387
222.522
222.629
222.732
222.836
222.938
223.036
223.134
223.236
223.346
223.464
223.589
223.722
217.458
220.795
220.773
220.732
220.674
220.606
220.532
220.459
220.403
220.381
220.41
220.652
221.198
221.776
222.163
222.379
222.514
222.624
222.732
222.84
222.945
223.045
223.145
223.249
223.361
223.479
223.605
223.739
216.742
220.68
220.689
220.658
220.607
220.543
220.472
220.401
220.35
220.334
220.38
220.674
221.248
221.808
222.169
222.374
222.508
222.623
222.735
222.847
222.954
223.057
223.158
223.264
223.375
223.494
223.622
223.758
223.899
224.039
224.17
224.289
224.395
224.489
224.576
224.657
224.736
224.814
224.891
224.969
225.048
225.129
225.213
225.299
225.388
225.48
225.575
225.675
225.779
225.888
226.001
226.119
226.241
226.368
226.499
226.634
226.773
226.915
227.06
227.21
215.995
220.564
220.615
220.582
220.538
220.479
220.411
220.343
220.298
220.288
220.359
220.706
221.301
221.838
222.176
222.371
222.505
222.623
222.741
222.856
222.966
223.069
223.172
223.279
223.391
223.511
223.639
223.777
223.919
224.059
224.19
224.308
224.413
224.507
224.595
224.677
224.756
224.834
224.912
224.99
225.07
225.151
225.234
225.32
225.409
225.501
225.596
225.696
225.8
225.909
226.022
226.139
226.261
226.388
226.518
226.652
226.789
226.93
227.074
227.222
215.224
220.44
220.548
220.514
220.472
220.416
220.35
220.286
220.247
220.245
220.348
220.748
221.355
221.868
222.183
222.371
222.506
222.628
222.75
222.868
222.978
223.083
223.187
223.294
223.407
223.527
223.657
223.796
223.94
224.079
224.209
224.326
224.43
224.525
224.613
224.696
224.776
224.854
224.932
225.01
225.09
225.171
225.255
225.34
225.429
225.521
225.616
225.716
225.82
225.928
226.041
226.158
226.28
226.406
226.535
226.668
226.804
226.944
227.087
227.233
214.442
220.291
220.497
220.449
220.406
220.354
220.29
220.23
220.198
220.206
220.35
220.799
221.41
221.897
222.193
222.374
222.51
222.636
222.761
222.881
222.992
223.098
223.203
223.31
223.423
223.544
223.675
223.816
223.96
224.099
224.227
224.343
224.447
224.542
224.63
224.714
224.794
224.873
224.951
225.03
225.11
225.191
225.274
225.359
225.448
225.539
225.635
225.735
225.838
225.947
226.059
226.176
226.297
226.422
226.551
226.682
226.817
226.956
227.097
227.242
213.636
220.145
220.429
220.378
220.341
220.291
220.231
220.176
220.151
220.172
220.363
220.859
221.466
221.926
222.203
222.379
222.517
222.647
222.774
222.895
223.007
223.114
223.219
223.326
223.439
223.561
223.694
223.836
223.98
224.118
224.245
224.36
224.464
224.559
224.648
224.731
224.812
224.891
224.97
225.048
225.128
225.209
225.292
225.377
225.465
225.557
225.653
225.752
225.856
225.964
226.076
226.193
226.313
226.437
226.565
226.695
226.829
226.966
227.106
227.249
212.811
220.022
220.356
220.311
220.276
220.229
220.173
220.125
220.106
220.145
220.388
220.925
221.522
221.955
222.215
222.387
222.526
222.659
222.789
222.91
223.023
223.129
223.234
223.342
223.455
223.578
223.712
223.855
223.999
224.136
224.262
224.377
224.48
224.576
224.664
224.748
224.829
224.909
224.987
225.066
225.145
225.226
225.309
225.394
225.482
225.574
225.669
225.769
225.872
225.98
226.092
226.208
226.328
226.451
226.577
226.706
226.839
226.974
227.112
227.254
211.978
219.858
220.286
220.249
220.215
220.169
220.117
220.077
220.067
220.129
220.427
220.995
221.577
221.983
222.229
222.397
222.538
222.673
222.804
222.926
223.038
223.145
223.25
223.358
223.472
223.595
223.731
223.874
224.018
224.154
224.279
224.393
224.496
224.591
224.68
224.765
224.846
224.925
225.004
225.083
225.162
225.242
225.325
225.41
225.498
225.59
225.685
225.784
225.888
225.995
226.107
226.222
226.341
226.463
226.588
226.716
226.847
226.98
227.117
227.257
211.127
219.686
220.222
220.189
220.156
220.11
220.063
220.032
220.033
220.125
220.477
221.069
221.631
222.011
222.244
222.409
222.551
222.688
222.82
222.942
223.054
223.161
223.266
223.373
223.487
223.613
223.749
223.893
224.036
224.171
224.295
224.408
224.511
224.607
224.696
224.78
224.861
224.941
225.02
225.098
225.177
225.258
225.34
225.425
225.513
225.604
225.7
225.799
225.902
226.009
226.12
226.235
226.353
226.474
226.597
226.724
226.853
226.985
227.12
227.259
210.262
219.514
220.158
220.127
220.097
220.053
220.013
219.99
220.003
220.133
220.537
221.143
221.682
222.037
222.259
222.422
222.565
222.703
222.835
222.957
223.069
223.176
223.281
223.388
223.503
223.63
223.767
223.911
224.053
224.187
224.311
224.423
224.526
224.621
224.711
224.795
224.876
224.956
225.035
225.113
225.192
225.272
225.354
225.439
225.527
225.618
225.714
225.813
225.915
226.022
226.132
226.246
226.363
226.483
226.605
226.731
226.858
226.989
227.122
227.259
209.378
219.34
220.095
220.069
220.041
219.999
219.967
219.951
219.979
220.152
220.606
221.217
221.73
222.063
222.275
222.435
222.58
222.719
222.851
222.972
223.084
223.19
223.295
223.403
223.519
223.646
223.785
223.929
224.07
224.203
224.325
224.438
224.54
224.636
224.725
224.809
224.891
224.97
225.049
225.127
225.206
225.285
225.367
225.452
225.54
225.632
225.727
225.825
225.928
226.034
226.144
226.257
226.372
226.491
226.612
226.736
226.862
226.991
227.123
227.257
208.477
219.164
220.032
220.013
219.987
219.949
219.925
219.918
219.963
220.183
220.68
221.289
221.775
222.087
222.291
222.449
222.594
222.733
222.865
222.986
223.098
223.204
223.308
223.417
223.534
223.662
223.802
223.946
224.086
224.218
224.34
224.451
224.554
224.649
224.738
224.823
224.904
224.984
225.062
225.14
225.218
225.298
225.38
225.465
225.553
225.644
225.739
225.837
225.939
226.045
226.154
226.266
226.381
226.498
226.618
226.74
226.865
226.992
227.122
227.254
207.562
218.984
219.971
219.96
219.937
219.903
219.886
219.89
219.959
220.226
220.758
221.357
221.816
222.11
222.306
222.462
222.607
222.747
222.879
222.999
223.11
223.216
223.321
223.43
223.548
223.678
223.818
223.962
224.101
224.233
224.354
224.465
224.567
224.662
224.751
224.836
224.917
224.997
225.075
225.152
225.231
225.31
225.392
225.477
225.564
225.656
225.75
225.848
225.95
226.055
226.163
226.274
226.388
226.504
226.622
226.743
226.866
226.992
227.119
227.25
206.639
218.802
219.913
219.911
219.892
219.862
219.851
219.866
219.963
220.279
220.837
221.422
221.854
222.131
222.32
222.475
222.62
222.76
222.891
223.011
223.122
223.228
223.333
223.443
223.562
223.694
223.834
223.977
224.116
224.246
224.367
224.478
224.58
224.674
224.763
224.848
224.929
225.009
225.087
225.164
225.242
225.322
225.403
225.488
225.575
225.666
225.761
225.859
225.96
226.064
226.171
226.281
226.394
226.508
226.625
226.744
226.866
226.99
227.116
227.244
205.708
218.618
219.856
219.865
219.85
219.827
219.821
219.846
219.977
220.34
220.916
221.482
221.888
222.149
222.332
222.486
222.632
222.772
222.903
223.022
223.133
223.239
223.344
223.455
223.576
223.708
223.849
223.992
224.13
224.26
224.379
224.49
224.592
224.686
224.775
224.859
224.941
225.02
225.098
225.175
225.253
225.332
225.414
225.498
225.586
225.677
225.771
225.868
225.969
226.072
226.179
226.287
226.399
226.512
226.627
226.745
226.865
226.987
227.111
227.237
204.77
218.433
219.802
219.822
219.811
219.795
219.796
219.834
220
220.406
220.993
221.537
221.918
222.165
222.343
222.496
222.642
222.782
222.913
223.032
223.143
223.249
223.355
223.467
223.589
223.722
223.864
224.006
224.143
224.272
224.392
224.502
224.603
224.697
224.786
224.87
224.952
225.031
225.108
225.185
225.263
225.342
225.424
225.508
225.596
225.686
225.78
225.877
225.977
226.08
226.185
226.293
226.403
226.515
226.629
226.745
226.863
226.983
227.105
227.229
203.825
218.246
219.75
219.782
219.776
219.767
219.774
219.83
220.032
220.476
221.065
221.586
221.944
222.179
222.352
222.505
222.651
222.791
222.921
223.041
223.151
223.258
223.364
223.478
223.601
223.736
223.877
224.019
224.156
224.284
224.403
224.513
224.614
224.708
224.796
224.881
224.962
225.041
225.118
225.195
225.272
225.352
225.433
225.518
225.605
225.695
225.789
225.885
225.984
226.086
226.191
226.297
226.406
226.516
226.629
226.743
226.859
226.977
227.097
227.219
202.869
218.056
219.7
219.746
219.743
219.74
219.756
219.832
220.072
220.547
221.133
221.629
221.966
222.19
222.36
222.512
222.658
222.799
222.929
223.048
223.159
223.265
223.373
223.488
223.613
223.748
223.89
224.032
224.168
224.296
224.414
224.523
224.624
224.718
224.806
224.89
224.971
225.05
225.127
225.204
225.281
225.361
225.442
225.526
225.613
225.704
225.797
225.892
225.991
226.092
226.195
226.301
226.408
226.517
226.629
226.741
226.855
226.971
227.089
227.209
201.905
217.862
219.651
219.712
219.715
219.717
219.741
219.84
220.117
220.617
221.195
221.666
221.983
222.198
222.365
222.517
222.664
222.805
222.935
223.054
223.165
223.272
223.381
223.497
223.624
223.761
223.903
224.044
224.18
224.307
224.424
224.533
224.633
224.727
224.815
224.9
224.98
225.059
225.135
225.212
225.29
225.369
225.45
225.535
225.621
225.711
225.804
225.899
225.997
226.097
226.199
226.304
226.41
226.518
226.627
226.738
226.85
226.964
227.08
227.197
227.316
227.437
227.559
227.682
227.807
227.932
228.059
228.185
228.313
228.44
228.566
228.692
228.816
228.939
229.06
229.177
229.292
229.403
229.509
229.611
229.706
229.796
229.88
229.956
230.024
230.085
230.137
230.181
230.216
230.241
230.258
230.267
230.267
230.257
230.239
230.214
230.181
230.141
230.094
200.933
217.665
219.603
219.682
219.69
219.696
219.731
219.853
220.165
220.684
221.25
221.697
221.997
222.204
222.369
222.522
222.669
222.81
222.94
223.059
223.171
223.279
223.389
223.506
223.634
223.772
223.914
224.055
224.19
224.317
224.434
224.542
224.643
224.736
224.824
224.908
224.989
225.067
225.143
225.22
225.298
225.377
225.458
225.542
225.629
225.718
225.811
225.905
226.002
226.101
226.203
226.306
226.411
226.517
226.625
226.734
226.844
226.956
227.07
227.185
227.301
227.419
227.538
227.659
227.78
227.902
228.024
228.147
228.27
228.392
228.514
228.635
228.754
228.871
228.986
229.098
229.206
229.31
229.409
229.504
229.592
229.675
229.751
229.819
229.88
229.933
229.978
230.014
230.042
230.061
230.071
230.074
230.067
230.052
230.029
229.998
229.961
229.917
229.867
229.811
229.75
229.686
229.615
229.544
229.469
229.392
229.314
229.234
229.153
199.955
217.466
219.558
219.654
219.668
219.678
219.724
219.87
220.215
220.748
221.299
221.723
222.007
222.207
222.371
222.524
222.673
222.814
222.944
223.063
223.175
223.284
223.396
223.515
223.644
223.783
223.926
224.066
224.201
224.327
224.443
224.551
224.651
224.744
224.832
224.916
224.996
225.074
225.151
225.227
225.305
225.384
225.466
225.549
225.636
225.725
225.817
225.911
226.007
226.105
226.205
226.307
226.411
226.516
226.622
226.729
226.838
226.948
227.059
227.172
227.286
227.401
227.517
227.634
227.752
227.87
227.989
228.108
228.226
228.344
228.461
228.576
228.69
228.802
228.91
229.016
229.118
229.215
229.308
229.395
229.477
229.552
229.62
229.681
229.735
229.78
229.818
229.847
229.868
229.88
229.884
229.88
229.867
229.847
229.819
229.784
229.742
229.695
229.641
229.583
229.52
229.453
229.382
229.309
229.233
229.156
229.078
228.998
228.918
228.836
228.755
228.674
228.594
228.515
228.439
228.367
228.299
228.235
228.172
228.104
228.008
198.978
217.268
219.514
219.629
219.647
219.663
219.722
219.891
220.266
220.808
221.343
221.744
222.015
222.209
222.372
222.526
222.675
222.816
222.947
223.067
223.179
223.289
223.402
223.523
223.654
223.793
223.936
224.076
224.21
224.336
224.452
224.559
224.659
224.752
224.84
224.924
225.004
225.081
225.158
225.234
225.312
225.391
225.472
225.556
225.642
225.731
225.822
225.915
226.011
226.108
226.208
226.308
226.41
226.514
226.618
226.724
226.83
226.938
227.047
227.158
227.269
227.381
227.494
227.608
227.723
227.837
227.952
228.067
228.181
228.294
228.406
228.516
228.625
228.731
228.833
228.933
229.028
229.119
229.205
229.285
229.36
229.428
229.489
229.543
229.589
229.627
229.658
229.68
229.694
229.7
229.698
229.687
229.669
229.644
229.611
229.572
229.526
229.475
229.419
229.358
229.292
229.224
229.151
229.077
229.001
228.923
228.845
228.765
228.685
228.604
228.523
228.443
228.363
228.286
228.211
228.14
228.074
228.011
227.949
227.882
227.788
197.992
217.068
219.474
219.606
219.628
219.649
219.723
219.916
220.318
220.865
221.381
221.762
222.02
222.21
222.372
222.527
222.676
222.818
222.948
223.069
223.182
223.293
223.407
223.53
223.663
223.803
223.946
224.086
224.219
224.344
224.46
224.567
224.666
224.759
224.847
224.93
225.01
225.088
225.164
225.241
225.319
225.398
225.479
225.562
225.648
225.737
225.827
225.92
226.014
226.111
226.209
226.309
226.409
226.511
226.614
226.717
226.822
226.928
227.035
227.143
227.251
227.361
227.471
227.582
227.692
227.804
227.914
228.025
228.134
228.243
228.35
228.455
228.558
228.658
228.755
228.848
228.937
229.021
229.101
229.174
229.241
229.302
229.356
229.403
229.442
229.473
229.497
229.512
229.52
229.52
229.512
229.495
229.472
229.441
229.404
229.361
229.312
229.258
229.198
229.135
229.067
228.997
228.923
228.848
228.771
228.693
228.615
228.535
228.455
228.375
228.294
228.215
228.136
228.06
227.986
227.916
227.851
227.789
227.728
227.663
227.571
197.018
216.87
219.435
219.584
219.611
219.637
219.725
219.943
220.369
220.917
221.415
221.777
222.024
222.21
222.372
222.527
222.677
222.818
222.949
223.07
223.184
223.297
223.413
223.537
223.671
223.812
223.955
224.095
224.228
224.352
224.468
224.574
224.673
224.766
224.854
224.937
225.017
225.094
225.171
225.247
225.325
225.404
225.485
225.568
225.654
225.742
225.832
225.923
226.017
226.113
226.21
226.308
226.408
226.508
226.609
226.711
226.814
226.917
227.022
227.127
227.233
227.34
227.447
227.554
227.662
227.769
227.876
227.982
228.087
228.191
228.293
228.393
228.49
228.584
228.675
228.762
228.845
228.923
228.995
229.062
229.122
229.176
229.223
229.263
229.295
229.319
229.336
229.345
229.347
229.341
229.326
229.305
229.276
229.241
229.2
229.152
229.1
229.042
228.98
228.915
228.845
228.773
228.698
228.623
228.545
228.466
228.388
228.307
228.228
228.148
228.068
227.989
227.911
227.835
227.763
227.694
227.629
227.568
227.508
227.444
227.353
196.032
216.672
219.398
219.564
219.595
219.627
219.729
219.971
220.42
220.966
221.444
221.788
222.025
222.209
222.371
222.527
222.677
222.818
222.95
223.071
223.186
223.3
223.417
223.544
223.679
223.821
223.964
224.103
224.236
224.36
224.475
224.581
224.68
224.773
224.86
224.943
225.022
225.1
225.176
225.253
225.33
225.409
225.49
225.573
225.659
225.746
225.836
225.927
226.02
226.114
226.21
226.307
226.405
226.504
226.603
226.703
226.804
226.906
227.008
227.111
227.214
227.318
227.422
227.526
227.63
227.733
227.836
227.938
228.038
228.137
228.234
228.329
228.421
228.51
228.595
228.675
228.752
228.823
228.889
228.949
229.002
229.049
229.089
229.122
229.147
229.165
229.175
229.179
229.174
229.161
229.142
229.115
229.082
229.042
228.997
228.946
228.89
228.83
228.765
228.697
228.625
228.552
228.476
228.399
228.321
228.242
228.163
228.083
228.003
227.924
227.844
227.766
227.689
227.614
227.542
227.474
227.41
227.349
227.29
227.226
227.136
195.056
216.475
219.363
219.543
219.579
219.617
219.733
220
220.468
221.009
221.469
221.796
222.026
222.207
222.369
222.526
222.676
222.818
222.95
223.071
223.187
223.302
223.422
223.55
223.686
223.829
223.972
224.111
224.243
224.367
224.481
224.588
224.686
224.778
224.866
224.948
225.028
225.105
225.182
225.258
225.336
225.415
225.495
225.578
225.663
225.75
225.839
225.93
226.022
226.116
226.211
226.306
226.403
226.5
226.597
226.696
226.795
226.894
226.994
227.094
227.195
227.295
227.396
227.497
227.597
227.697
227.795
227.893
227.989
228.083
228.175
228.265
228.351
228.434
228.513
228.588
228.658
228.723
228.782
228.835
228.882
228.922
228.955
228.981
229
229.011
229.016
229.013
229.002
228.984
228.959
228.927
228.889
228.845
228.796
228.741
228.682
228.619
228.552
228.482
228.408
228.334
228.257
228.179
228.1
228.021
227.942
227.861
227.781
227.702
227.623
227.545
227.468
227.394
227.322
227.255
227.192
227.132
227.073
227.01
226.921
194.087
216.28
219.328
219.523
219.563
219.606
219.736
220.028
220.512
221.047
221.489
221.802
222.025
222.204
222.367
222.524
222.675
222.818
222.949
223.071
223.188
223.304
223.425
223.555
223.693
223.837
223.98
224.118
224.25
224.373
224.488
224.593
224.692
224.784
224.871
224.953
225.033
225.11
225.186
225.263
225.341
225.419
225.5
225.583
225.668
225.754
225.842
225.932
226.024
226.116
226.21
226.304
226.399
226.495
226.591
226.687
226.784
226.881
226.979
227.077
227.175
227.272
227.37
227.467
227.564
227.659
227.754
227.847
227.939
228.028
228.115
228.199
228.28
228.357
228.43
228.499
228.563
228.621
228.674
228.72
228.761
228.794
228.821
228.84
228.852
228.858
228.856
228.847
228.83
228.807
228.776
228.74
228.698
228.65
228.597
228.539
228.477
228.411
228.341
228.27
228.194
228.119
228.04
227.962
227.883
227.802
227.723
227.642
227.563
227.483
227.404
227.327
227.25
227.176
227.106
227.039
226.976
226.917
226.858
226.795
226.707
193.102
216.083
219.295
219.503
219.547
219.594
219.739
220.055
220.553
221.08
221.504
221.805
222.023
222.201
222.364
222.522
222.673
222.816
222.948
223.071
223.188
223.306
223.429
223.561
223.7
223.844
223.987
224.125
224.257
224.379
224.493
224.599
224.697
224.789
224.876
224.958
225.037
225.115
225.191
225.268
225.345
225.424
225.505
225.587
225.672
225.758
225.845
225.934
226.025
226.117
226.209
226.302
226.396
226.49
226.584
226.679
226.774
226.869
226.964
227.059
227.154
227.249
227.343
227.437
227.53
227.622
227.712
227.801
227.888
227.972
228.054
228.133
228.208
228.28
228.347
228.41
228.467
228.519
228.566
228.606
228.639
228.666
228.687
228.699
228.706
228.706
228.697
228.682
228.66
228.631
228.596
228.555
228.509
228.457
228.4
228.339
228.274
228.206
228.134
228.061
227.983
227.906
227.827
227.748
227.668
227.587
227.507
227.426
227.346
227.267
227.188
227.111
227.035
226.961
226.891
226.825
226.762
226.703
226.645
226.582
226.494
192.151
215.889
219.265
219.484
219.53
219.582
219.743
220.081
220.591
221.108
221.516
221.805
222.019
222.197
222.361
222.519
222.671
222.814
222.947
223.07
223.189
223.308
223.432
223.566
223.706
223.85
223.994
224.132
224.263
224.385
224.499
224.604
224.702
224.794
224.88
224.962
225.041
225.119
225.195
225.272
225.349
225.428
225.509
225.591
225.675
225.761
225.848
225.936
226.026
226.116
226.208
226.3
226.392
226.484
226.577
226.67
226.762
226.855
226.948
227.041
227.133
227.224
227.316
227.406
227.495
227.583
227.669
227.754
227.836
227.916
227.993
228.066
228.136
228.202
228.263
228.32
228.371
228.417
228.457
228.49
228.518
228.538
228.552
228.559
228.56
228.553
228.538
228.518
228.49
228.457
228.417
228.372
228.321
228.266
228.206
228.142
228.074
228.004
227.929
227.854
227.775
227.697
227.616
227.536
227.456
227.374
227.294
227.213
227.133
227.054
226.975
226.898
226.822
226.749
226.679
226.613
226.551
226.492
226.434
226.372
226.285
191.171
215.694
219.236
219.467
219.514
219.571
219.748
220.109
220.626
221.131
221.524
221.804
222.015
222.193
222.357
222.516
222.669
222.812
222.945
223.069
223.189
223.309
223.435
223.57
223.712
223.857
224
224.138
224.268
224.39
224.504
224.609
224.706
224.798
224.884
224.966
225.045
225.123
225.199
225.276
225.353
225.432
225.512
225.595
225.678
225.763
225.85
225.937
226.026
226.116
226.206
226.297
226.388
226.478
226.569
226.66
226.751
226.842
226.932
227.022
227.111
227.2
227.288
227.375
227.46
227.544
227.626
227.706
227.784
227.859
227.931
227.999
228.063
228.123
228.179
228.23
228.275
228.314
228.348
228.375
228.396
228.411
228.418
228.42
228.414
228.401
228.381
228.355
228.323
228.284
228.24
228.191
228.136
228.077
228.014
227.947
227.876
227.804
227.727
227.65
227.57
227.491
227.409
227.328
227.247
227.165
227.084
227.003
226.923
226.843
226.765
226.687
226.612
226.539
226.469
226.404
226.342
226.283
226.225
226.163
226.077
190.224
215.501
219.211
219.449
219.497
219.561
219.755
220.138
220.659
221.151
221.53
221.802
222.01
222.188
222.353
222.513
222.666
222.81
222.943
223.068
223.188
223.31
223.438
223.575
223.718
223.863
224.006
224.143
224.273
224.395
224.508
224.613
224.71
224.802
224.888
224.97
225.049
225.126
225.203
225.279
225.357
225.436
225.516
225.598
225.681
225.766
225.851
225.938
226.026
226.115
226.204
226.294
226.383
226.472
226.561
226.65
226.739
226.827
226.915
227.003
227.089
227.175
227.259
227.343
227.425
227.505
227.583
227.658
227.731
227.801
227.868
227.931
227.99
228.044
228.094
228.139
228.178
228.211
228.239
228.26
228.275
228.283
228.285
228.28
228.268
228.25
228.225
228.194
228.156
228.113
228.065
228.011
227.953
227.891
227.824
227.755
227.681
227.607
227.528
227.449
227.368
227.287
227.205
227.123
227.041
226.958
226.877
226.796
226.715
226.636
226.558
226.48
226.405
226.332
226.263
226.197
226.136
226.077
226.019
225.957
225.871
189.264
215.309
219.187
219.432
219.48
219.553
219.766
220.167
220.689
221.168
221.533
221.799
222.005
222.183
222.349
222.51
222.663
222.807
222.941
223.066
223.187
223.311
223.441
223.579
223.723
223.868
224.011
224.148
224.278
224.4
224.512
224.617
224.714
224.805
224.891
224.973
225.052
225.129
225.206
225.283
225.36
225.439
225.519
225.601
225.684
225.768
225.853
225.939
226.026
226.114
226.202
226.29
226.378
226.466
226.553
226.64
226.727
226.813
226.899
226.983
227.067
227.149
227.231
227.311
227.389
227.465
227.539
227.61
227.678
227.743
227.805
227.863
227.916
227.965
228.009
228.048
228.081
228.109
228.13
228.145
228.154
228.157
228.153
228.142
228.124
228.1
228.07
228.034
227.992
227.944
227.892
227.834
227.772
227.707
227.637
227.565
227.489
227.412
227.332
227.252
227.169
227.087
227.004
226.921
226.838
226.755
226.673
226.592
226.511
226.432
226.353
226.276
226.201
226.128
226.059
225.994
225.932
225.874
225.816
225.755
225.669
188.317
215.119
219.165
219.413
219.464
219.548
219.78
220.196
220.716
221.182
221.535
221.795
221.999
222.177
222.345
222.506
222.66
222.804
222.938
223.064
223.186
223.312
223.444
223.583
223.728
223.873
224.016
224.153
224.283
224.404
224.516
224.62
224.718
224.809
224.895
224.976
225.055
225.132
225.209
225.286
225.363
225.442
225.522
225.603
225.686
225.769
225.854
225.94
226.026
226.113
226.2
226.286
226.373
226.459
226.545
226.63
226.715
226.798
226.881
226.963
227.044
227.124
227.202
227.278
227.352
227.424
227.494
227.561
227.625
227.685
227.742
227.794
227.842
227.886
227.924
227.957
227.984
228.006
228.021
228.03
228.034
228.03
228.02
228.003
227.981
227.951
227.916
227.875
227.829
227.777
227.72
227.659
227.594
227.525
227.453
227.378
227.3
227.221
227.139
227.057
226.973
226.89
226.806
226.722
226.639
226.555
226.473
226.392
226.311
226.231
226.153
226.075
226
225.928
225.859
225.794
225.733
225.675
225.617
225.555
225.469
187.392
214.931
219.139
219.394
219.449
219.545
219.795
220.225
220.741
221.193
221.535
221.79
221.993
222.171
222.34
222.502
222.656
222.801
222.935
223.061
223.185
223.312
223.446
223.587
223.732
223.878
224.021
224.158
224.287
224.407
224.52
224.624
224.721
224.812
224.897
224.979
225.058
225.135
225.212
225.289
225.366
225.445
225.525
225.606
225.688
225.771
225.855
225.94
226.025
226.111
226.197
226.282
226.368
226.452
226.536
226.62
226.702
226.784
226.864
226.943
227.021
227.098
227.172
227.245
227.316
227.384
227.449
227.512
227.571
227.627
227.678
227.726
227.768
227.806
227.839
227.866
227.888
227.903
227.913
227.917
227.914
227.905
227.889
227.867
227.839
227.804
227.764
227.719
227.668
227.612
227.551
227.487
227.418
227.346
227.271
227.194
227.114
227.033
226.949
226.866
226.781
226.696
226.612
226.527
226.443
226.359
226.276
226.194
226.113
226.034
225.955
225.878
225.803
225.731
225.662
225.597
225.536
225.478
225.421
225.359
225.274
186.438
214.743
219.115
219.373
219.435
219.544
219.812
220.254
220.764
221.203
221.535
221.784
221.986
222.165
222.335
222.498
222.653
222.797
222.932
223.059
223.184
223.313
223.448
223.59
223.736
223.882
224.025
224.162
224.291
224.411
224.523
224.627
224.724
224.814
224.9
224.981
225.06
225.138
225.214
225.291
225.369
225.447
225.527
225.608
225.69
225.772
225.856
225.94
226.024
226.109
226.194
226.278
226.362
226.445
226.527
226.609
226.689
226.768
226.846
226.923
226.998
227.072
227.143
227.212
227.279
227.343
227.405
227.463
227.517
227.568
227.614
227.657
227.694
227.727
227.754
227.775
227.791
227.801
227.805
227.803
227.795
227.779
227.758
227.731
227.698
227.658
227.614
227.563
227.508
227.448
227.384
227.316
227.245
227.17
227.092
227.013
226.93
226.848
226.762
226.678
226.591
226.506
226.42
226.334
226.25
226.166
226.083
226.001
225.919
225.84
225.761
225.684
225.609
225.537
225.469
225.404
225.344
225.286
225.229
225.168
225.083
185.546
214.558
219.089
219.352
219.423
219.545
219.83
220.281
220.785
221.211
221.533
221.778
221.979
222.16
222.33
222.494
222.649
222.794
222.928
223.057
223.183
223.314
223.45
223.594
223.74
223.887
224.029
224.165
224.294
224.414
224.526
224.63
224.726
224.817
224.902
224.984
225.062
225.14
225.217
225.293
225.371
225.45
225.529
225.61
225.691
225.773
225.856
225.939
226.023
226.107
226.191
226.274
226.356
226.438
226.518
226.598
226.676
226.753
226.829
226.903
226.975
227.045
227.113
227.179
227.242
227.302
227.36
227.413
227.463
227.509
227.551
227.588
227.62
227.647
227.669
227.685
227.695
227.7
227.699
227.691
227.676
227.656
227.629
227.597
227.558
227.514
227.465
227.411
227.351
227.288
227.22
227.149
227.074
226.997
226.916
226.835
226.75
226.666
226.578
226.493
226.405
226.319
226.233
226.146
226.061
225.977
225.893
225.811
225.729
225.649
225.571
225.494
225.419
225.347
225.279
225.215
225.154
225.097
225.04
224.979
224.893
184.625
214.377
219.063
219.331
219.411
219.547
219.849
220.308
220.804
221.217
221.53
221.771
221.972
222.154
222.325
222.49
222.645
222.79
222.925
223.054
223.182
223.314
223.452
223.597
223.744
223.89
224.033
224.169
224.297
224.417
224.528
224.632
224.729
224.819
224.904
224.985
225.064
225.142
225.219
225.296
225.373
225.452
225.531
225.611
225.692
225.774
225.856
225.939
226.022
226.105
226.188
226.269
226.35
226.43
226.509
226.587
226.663
226.738
226.811
226.882
226.951
227.019
227.083
227.146
227.205
227.261
227.314
227.364
227.409
227.45
227.487
227.519
227.546
227.568
227.584
227.595
227.6
227.599
227.592
227.578
227.558
227.533
227.501
227.463
227.42
227.372
227.318
227.259
227.196
227.129
227.058
226.983
226.906
226.826
226.743
226.66
226.573
226.487
226.398
226.311
226.223
226.135
226.048
225.961
225.876
225.791
225.707
225.625
225.543
225.463
225.385
225.308
225.233
225.162
225.094
225.03
224.97
224.912
224.855
224.795
224.711
183.715
214.195
219.04
219.31
219.401
219.551
219.869
220.333
220.82
221.221
221.527
221.764
221.965
222.148
222.32
222.485
222.64
222.786
222.922
223.052
223.181
223.314
223.454
223.6
223.747
223.894
224.036
224.172
224.3
224.42
224.531
224.634
224.731
224.821
224.906
224.987
225.066
225.143
225.22
225.297
225.375
225.453
225.533
225.613
225.693
225.775
225.856
225.938
226.021
226.103
226.184
226.265
226.344
226.423
226.5
226.576
226.65
226.722
226.793
226.861
226.928
226.992
227.054
227.112
227.168
227.22
227.269
227.314
227.355
227.392
227.424
227.451
227.473
227.489
227.5
227.505
227.505
227.499
227.486
227.467
227.442
227.411
227.375
227.332
227.284
227.231
227.173
227.111