/*--------------------------------*- C++ -*----------------------------------*\
| =========                 |                                                 |
| \\      /  F ield         | OpenFOAM: The Open Source CFD Toolbox           |
|  \\    /   O peration     | Version:  2412                                  |
|   \\  /    A nd           | Website:  www.openfoam.com                      |
|    \\/     M anipulation  |                                                 |
\*---------------------------------------------------------------------------*/
FoamFile
{
    version     2.0;
    format      ascii;
    arch        "LSB;label=32;scalar=64";
    class       volVectorField;
    location    "0.054";
    object      U;
}
// * * * * * * * * * * * * * * * * * * * * * * * * * * * * * * * * * * * * * //

dimensions      [0 1 -1 0 0 0 0];

internalField   nonuniform List<vector> 
9771
(
(292.85 107.865 0)
(277.339 -0.166967 0)
(255.686 -6.86431 0)
(240.485 -8.148 0)
(232.766 -9.85508 0)
(229.483 -10.9504 0)
(227.7 -11.6897 0)
(226.259 -12.1524 0)
(224.887 -12.3845 0)
(223.589 -12.4958 0)
(293.306 107.851 0)
(277.864 -0.195727 0)
(255.789 -6.89715 0)
(240.522 -8.1695 0)
(232.792 -9.87187 0)
(229.502 -10.9662 0)
(227.718 -11.7064 0)
(226.277 -12.17 0)
(224.905 -12.403 0)
(223.606 -12.515 0)
(293.742 107.837 0)
(278.358 -0.276958 0)
(255.881 -6.93789 0)
(240.558 -8.19019 0)
(232.818 -9.88731 0)
(229.523 -10.981 0)
(227.736 -11.7225 0)
(226.295 -12.1873 0)
(224.923 -12.4211 0)
(223.623 -12.5337 0)
(294.133 107.832 0)
(278.934 -0.312014 0)
(255.978 -6.96885 0)
(240.593 -8.2111 0)
(232.843 -9.90362 0)
(229.542 -10.9964 0)
(227.754 -11.7387 0)
(226.312 -12.2046 0)
(224.94 -12.4392 0)
(223.641 -12.5525 0)
(294.458 107.834 0)
(279.475 -0.406544 0)
(256.064 -7.00961 0)
(240.629 -8.2313 0)
(232.87 -9.91879 0)
(229.563 -11.011 0)
(227.772 -11.7548 0)
(226.33 -12.2219 0)
(224.958 -12.4574 0)
(223.658 -12.5713 0)
(294.758 107.843 0)
(280.132 -0.461323 0)
(256.155 -7.03943 0)
(240.664 -8.25209 0)
(232.895 -9.93509 0)
(229.582 -11.0266 0)
(227.79 -11.7712 0)
(226.348 -12.2394 0)
(224.976 -12.4758 0)
(223.676 -12.5905 0)
(295.033 107.845 0)
(280.763 -0.566096 0)
(256.231 -7.08275 0)
(240.7 -8.27206 0)
(232.922 -9.95025 0)
(229.603 -11.0413 0)
(227.808 -11.7874 0)
(226.366 -12.257 0)
(224.994 -12.4943 0)
(223.694 -12.6098 0)
(222.48 -12.668 0)
(221.357 -12.7148 0)
(220.323 -12.7771 0)
(219.37 -12.8545 0)
(218.487 -12.9485 0)
(217.66 -13.0482 0)
(216.878 -13.1568 0)
(216.135 -13.257 0)
(215.428 -13.3533 0)
(214.754 -13.4294 0)
(214.111 -13.4835 0)
(213.489 -13.5104 0)
(212.882 -13.5312 0)
(212.286 -13.5613 0)
(211.701 -13.6047 0)
(211.127 -13.6496 0)
(210.558 -13.6949 0)
(209.989 -13.7465 0)
(209.417 -13.814 0)
(208.842 -13.9018 0)
(208.263 -14.0125 0)
(207.677 -14.1439 0)
(295.327 107.846 0)
(281.525 -0.649032 0)
(256.316 -7.11212 0)
(240.735 -8.29282 0)
(232.947 -9.96661 0)
(229.623 -11.057 0)
(227.826 -11.804 0)
(226.384 -12.2747 0)
(225.013 -12.5131 0)
(223.712 -12.6294 0)
(222.498 -12.688 0)
(221.374 -12.735 0)
(220.339 -12.7973 0)
(219.386 -12.8747 0)
(218.503 -12.969 0)
(217.675 -13.069 0)
(216.894 -13.1781 0)
(216.151 -13.2789 0)
(215.446 -13.3759 0)
(214.773 -13.4528 0)
(214.131 -13.5081 0)
(213.511 -13.5362 0)
(212.906 -13.5583 0)
(212.311 -13.5898 0)
(211.728 -13.6345 0)
(211.156 -13.681 0)
(210.588 -13.7283 0)
(210.02 -13.7819 0)
(209.45 -13.8516 0)
(208.876 -13.9418 0)
(208.298 -14.055 0)
(207.712 -14.1894 0)
(207.112 -14.3461 0)
(206.491 -14.5273 0)
(205.844 -14.7362 0)
(205.171 -14.9715 0)
(204.475 -15.2292 0)
(203.759 -15.5035 0)
(295.581 107.828 0)
(282.277 -0.776017 0)
(256.378 -7.15828 0)
(240.771 -8.31249 0)
(232.974 -9.98175 0)
(229.644 -11.0718 0)
(227.845 -11.8204 0)
(226.403 -12.2925 0)
(225.031 -12.5319 0)
(223.73 -12.6491 0)
(222.516 -12.7081 0)
(221.391 -12.7552 0)
(220.356 -12.8176 0)
(219.402 -12.8951 0)
(218.519 -12.9896 0)
(217.691 -13.09 0)
(216.911 -13.1996 0)
(216.168 -13.301 0)
(215.464 -13.3988 0)
(214.792 -13.4765 0)
(214.152 -13.5329 0)
(213.533 -13.5622 0)
(212.929 -13.5858 0)
(212.336 -13.6186 0)
(211.755 -13.6649 0)
(211.184 -13.7129 0)
(210.618 -13.7621 0)
(210.052 -13.8178 0)
(209.484 -13.8896 0)
(208.912 -13.9819 0)
(208.335 -14.0973 0)
(207.75 -14.2345 0)
(207.151 -14.3945 0)
(206.53 -14.5797 0)
(205.882 -14.7932 0)
(205.208 -15.0333 0)
(204.51 -15.296 0)
(203.793 -15.5752 0)
(203.062 -15.8658 0)
(295.845 107.854 0)
(283.124 -0.874243 0)
(256.453 -7.18614 0)
(240.805 -8.33336 0)
(232.999 -9.99823 0)
(229.663 -11.0876 0)
(227.863 -11.8371 0)
(226.421 -12.3104 0)
(225.05 -12.5508 0)
(223.749 -12.6689 0)
(222.533 -12.7284 0)
(221.408 -12.7758 0)
(220.372 -12.8382 0)
(219.418 -12.9157 0)
(218.534 -13.0103 0)
(217.707 -13.1111 0)
(216.927 -13.2213 0)
(216.185 -13.3232 0)
(215.482 -13.4217 0)
(214.812 -13.5002 0)
(214.173 -13.5577 0)
(213.555 -13.5882 0)
(212.953 -13.6132 0)
(212.362 -13.6473 0)
(211.782 -13.695 0)
(211.213 -13.7447 0)
(210.649 -13.7958 0)
(210.084 -13.8537 0)
(209.517 -13.9277 0)
(208.947 -14.0223 0)
(208.371 -14.1405 0)
(207.786 -14.2809 0)
(207.186 -14.4447 0)
(206.564 -14.6342 0)
(205.915 -14.8524 0)
(205.239 -15.0973 0)
(204.54 -15.3648 0)
(203.822 -15.6487 0)
(203.092 -15.9437 0)
(296.061 107.918 0)
(283.722 -1.02854 0)
(256.487 -7.25209 0)
(240.838 -8.35185 0)
(233.025 -10.0128 0)
(229.683 -11.1018 0)
(227.88 -11.8534 0)
(226.439 -12.3281 0)
(225.068 -12.5695 0)
(223.767 -12.6883 0)
(222.551 -12.7482 0)
(221.425 -12.7957 0)
(220.389 -12.8583 0)
(219.434 -12.9359 0)
(218.551 -13.0308 0)
(217.723 -13.1321 0)
(216.943 -13.243 0)
(216.202 -13.3457 0)
(215.5 -13.445 0)
(214.831 -13.5244 0)
(214.193 -13.5832 0)
(213.577 -13.6151 0)
(212.977 -13.6416 0)
(212.387 -13.6771 0)
(211.809 -13.7263 0)
(211.242 -13.7775 0)
(210.679 -13.8306 0)
(210.116 -13.8904 0)
(209.551 -13.9663 0)
(208.982 -14.0627 0)
(208.408 -14.1827 0)
(207.824 -14.3252 0)
(207.225 -14.4919 0)
(206.602 -14.685 0)
(205.952 -14.9075 0)
(205.275 -15.1574 0)
(204.575 -15.4302 0)
(203.855 -15.7195 0)
(203.124 -16.02 0)
(319.667 87.5766 0)
(284.97 -7.86238 0)
(256.649 -8.58771 0)
(241.653 -8.86909 0)
(233.65 -10.4519 0)
(230.095 -11.4936 0)
(228.224 -12.2343 0)
(226.769 -12.7043 0)
(225.394 -12.9421 0)
(224.084 -13.0573 0)
(222.851 -13.1069 0)
(221.706 -13.1424 0)
(220.651 -13.1914 0)
(219.68 -13.2566 0)
(218.784 -13.3423 0)
(217.949 -13.4377 0)
(217.166 -13.5451 0)
(216.427 -13.646 0)
(215.731 -13.7458 0)
(215.07 -13.827 0)
(214.441 -13.8916 0)
(213.837 -13.9307 0)
(213.249 -13.9672 0)
(212.673 -14.012 0)
(212.109 -14.0721 0)
(211.554 -14.1358 0)
(211.003 -14.2055 0)
(210.45 -14.284 0)
(209.893 -14.38 0)
(209.328 -14.4977 0)
(208.753 -14.6423 0)
(208.162 -14.8141 0)
(207.55 -15.0159 0)
(206.911 -15.249 0)
(206.244 -15.5145 0)
(205.553 -15.8079 0)
(204.842 -16.1232 0)
(204.118 -16.453 0)
(203.389 -16.7917 0)
(202.659 -17.1343 0)
(201.936 -17.4774 0)
(201.224 -17.8183 0)
(200.525 -18.1552 0)
(199.841 -18.4867 0)
(199.173 -18.8124 0)
(198.521 -19.1325 0)
(197.885 -19.4477 0)
(197.263 -19.7592 0)
(196.656 -20.0679 0)
(196.061 -20.3748 0)
(195.477 -20.6811 0)
(194.904 -20.9883 0)
(194.339 -21.2981 0)
(193.782 -21.6118 0)
(193.233 -21.9308 0)
(192.691 -22.2556 0)
(192.158 -22.5864 0)
(191.637 -22.923 0)
(191.128 -23.2648 0)
(190.634 -23.6112 0)
(190.156 -23.9612 0)
(189.694 -24.3136 0)
(189.248 -24.6675 0)
(188.821 -25.0218 0)
(188.413 -25.3752 0)
(188.028 -25.7268 0)
(187.668 -26.0762 0)
(187.331 -26.4248 0)
(187.018 -26.7748 0)
(186.726 -27.1285 0)
(186.456 -27.4858 0)
(186.205 -27.8448 0)
(185.972 -28.2033 0)
(185.758 -28.5594 0)
(185.565 -28.9123 0)
(185.39 -29.2607 0)
(185.233 -29.6046 0)
(185.094 -29.9441 0)
(184.971 -30.2793 0)
(274.616 58.4514 0)
(265.609 -12.975 0)
(255.007 -10.2692 0)
(242.758 -9.98727 0)
(234.591 -11.4448 0)
(230.782 -12.3219 0)
(228.836 -12.9976 0)
(227.372 -13.4459 0)
(225.989 -13.6791 0)
(224.656 -13.791 0)
(223.39 -13.8227 0)
(222.208 -13.8345 0)
(221.12 -13.8544 0)
(220.123 -13.8923 0)
(219.208 -13.9552 0)
(218.362 -14.0341 0)
(217.578 -14.1289 0)
(216.848 -14.2209 0)
(216.166 -14.3163 0)
(215.524 -14.3976 0)
(214.918 -14.4693 0)
(214.337 -14.5194 0)
(213.775 -14.5721 0)
(213.226 -14.6325 0)
(212.691 -14.7114 0)
(212.163 -14.7978 0)
(211.636 -14.8985 0)
(211.105 -15.0127 0)
(210.566 -15.1495 0)
(210.013 -15.3125 0)
(209.44 -15.5116 0)
(208.84 -15.7489 0)
(208.209 -16.0267 0)
(207.545 -16.3423 0)
(206.853 -16.6911 0)
(206.138 -17.0636 0)
(205.414 -17.4513 0)
(204.688 -17.8459 0)
(203.968 -18.2421 0)
(203.26 -18.6356 0)
(202.568 -19.0243 0)
(201.897 -19.4065 0)
(201.247 -19.7818 0)
(200.621 -20.1501 0)
(200.019 -20.5118 0)
(199.441 -20.8673 0)
(198.888 -21.2168 0)
(198.36 -21.5601 0)
(197.859 -21.8972 0)
(197.385 -22.2284 0)
(196.937 -22.5551 0)
(196.514 -22.8787 0)
(196.115 -23.2006 0)
(195.738 -23.5219 0)
(195.383 -23.8431 0)
(195.047 -24.1645 0)
(194.73 -24.4862 0)
(194.433 -24.8076 0)
(194.155 -25.1279 0)
(193.896 -25.4462 0)
(193.654 -25.7622 0)
(193.429 -26.0761 0)
(193.218 -26.3875 0)
(193.023 -26.6948 0)
(192.844 -26.9953 0)
(192.682 -27.2876 0)
(192.536 -27.5722 0)
(192.406 -27.8522 0)
(192.292 -28.1303 0)
(192.192 -28.4072 0)
(192.108 -28.681 0)
(192.039 -28.9487 0)
(191.989 -29.2084 0)
(191.94 -29.4611 0)
(191.899 -29.702 0)
(191.875 -29.935 0)
(191.859 -30.1582 0)
(191.849 -30.3728 0)
(191.845 -30.5787 0)
(240.639 33.9697 0)
(254.212 -14.8158 0)
(252.782 -10.9103 0)
(243.621 -10.4397 0)
(235.223 -12.3814 0)
(231.183 -13.1203 0)
(229.253 -13.7305 0)
(227.841 -14.1606 0)
(226.5 -14.4035 0)
(225.185 -14.5243 0)
(223.912 -14.5486 0)
(222.711 -14.5431 0)
(221.6 -14.5356 0)
(220.581 -14.5451 0)
(219.648 -14.5817 0)
(218.791 -14.6392 0)
(218.005 -14.715 0)
(217.28 -14.7926 0)
(216.611 -14.8782 0)
(215.986 -14.9559 0)
(215.4 -15.0302 0)
(214.842 -15.0877 0)
(214.307 -15.1528 0)
(213.785 -15.2274 0)
(213.276 -15.3247 0)
(212.771 -15.4345 0)
(212.265 -15.5677 0)
(211.748 -15.7217 0)
(211.216 -15.9071 0)
(210.655 -16.1281 0)
(210.062 -16.3973 0)
(209.428 -16.7147 0)
(208.756 -17.0782 0)
(208.052 -17.4777 0)
(207.328 -17.9028 0)
(206.597 -18.3406 0)
(205.871 -18.7817 0)
(205.159 -19.2188 0)
(204.469 -19.6481 0)
(203.806 -20.0664 0)
(203.173 -20.4729 0)
(202.572 -20.8673 0)
(202.003 -21.2506 0)
(201.465 -21.6241 0)
(200.957 -21.9892 0)
(200.477 -22.3469 0)
(200.025 -22.6977 0)
(199.598 -23.0415 0)
(199.196 -23.3786 0)
(198.818 -23.7095 0)
(198.465 -24.0354 0)
(198.137 -24.3568 0)
(197.833 -24.6733 0)
(197.552 -24.9841 0)
(197.295 -25.2887 0)
(197.061 -25.5871 0)
(196.85 -25.8788 0)
(196.66 -26.1633 0)
(196.491 -26.4394 0)
(196.342 -26.7065 0)
(196.209 -26.9648 0)
(196.092 -27.2158 0)
(195.986 -27.4603 0)
(195.892 -27.6981 0)
(195.807 -27.9281 0)
(195.733 -28.1498 0)
(195.668 -28.3634 0)
(195.615 -28.5715 0)
(195.571 -28.7731 0)
(195.529 -28.9683 0)
(195.497 -29.1594 0)
(195.473 -29.3443 0)
(195.461 -29.5238 0)
(195.455 -29.6978 0)
(195.444 -29.8657 0)
(195.432 -30.0271 0)
(195.446 -30.1845 0)
(195.449 -30.3352 0)
(195.463 -30.4803 0)
(230.332 14.1165 0)
(250.507 -19.3341 0)
(251.403 -12.3339 0)
(244.203 -11.056 0)
(235.675 -13.1752 0)
(231.378 -13.8445 0)
(229.503 -14.4204 0)
(228.175 -14.837 0)
(226.902 -15.0991 0)
(225.632 -15.2397 0)
(224.381 -15.27 0)
(223.185 -15.2566 0)
(222.067 -15.2276 0)
(221.037 -15.2107 0)
(220.093 -15.2197 0)
(219.229 -15.2518 0)
(218.444 -15.3034 0)
(217.726 -15.3614 0)
(217.067 -15.4323 0)
(216.458 -15.5023 0)
(215.892 -15.574 0)
(215.357 -15.6351 0)
(214.846 -15.7089 0)
(214.35 -15.7963 0)
(213.864 -15.9114 0)
(213.377 -16.046 0)
(212.885 -16.2144 0)
(212.372 -16.4154 0)
(211.831 -16.662 0)
(211.244 -16.9577 0)
(210.611 -17.3128 0)
(209.929 -17.7188 0)
(209.213 -18.1653 0)
(208.476 -18.6344 0)
(207.742 -19.1145 0)
(207.02 -19.5934 0)
(206.322 -20.0633 0)
(205.652 -20.5183 0)
(205.015 -20.9565 0)
(204.412 -21.3771 0)
(203.848 -21.7808 0)
(203.321 -22.1684 0)
(202.83 -22.5417 0)
(202.373 -22.902 0)
(201.951 -23.2505 0)
(201.56 -23.5878 0)
(201.2 -23.9147 0)
(200.867 -24.2317 0)
(200.56 -24.5402 0)
(200.275 -24.8422 0)
(200.011 -25.1395 0)
(199.766 -25.4328 0)
(199.54 -25.7217 0)
(199.333 -26.005 0)
(199.143 -26.282 0)
(198.971 -26.5521 0)
(198.816 -26.8151 0)
(198.68 -27.0702 0)
(198.56 -27.3163 0)
(198.456 -27.5529 0)
(198.367 -27.7798 0)
(198.29 -27.9975 0)
(198.222 -28.2069 0)
(198.164 -28.4087 0)
(198.115 -28.6034 0)
(198.074 -28.7907 0)
(198.044 -28.9722 0)
(198.02 -29.1461 0)
(198.002 -29.3117 0)
(197.993 -29.4713 0)
(197.984 -29.6248 0)
(197.983 -29.7731 0)
(197.987 -29.9171 0)
(198.008 -30.057 0)
(198.022 -30.1921 0)
(198.028 -30.3229 0)
(198.056 -30.4499 0)
(198.085 -30.5725 0)
(198.115 -30.6919 0)
(219.954 -0.16044 0)
(246.066 -24.2313 0)
(250.309 -13.67 0)
(244.487 -11.9171 0)
(236.228 -13.858 0)
(231.59 -14.4819 0)
(229.672 -15.0658 0)
(228.403 -15.4724 0)
(227.207 -15.7556 0)
(225.998 -15.9214 0)
(224.791 -15.9711 0)
(223.621 -15.9615 0)
(222.515 -15.9201 0)
(221.487 -15.8818 0)
(220.541 -15.8644 0)
(219.676 -15.8694 0)
(218.893 -15.8932 0)
(218.182 -15.9276 0)
(217.534 -15.9793 0)
(216.94 -16.0371 0)
(216.393 -16.1012 0)
(215.879 -16.1623 0)
(215.39 -16.2421 0)
(214.912 -16.3423 0)
(214.443 -16.4765 0)
(213.967 -16.6396 0)
(213.475 -16.8501 0)
(212.947 -17.111 0)
(212.374 -17.4364 0)
(211.737 -17.8244 0)
(211.047 -18.2734 0)
(210.313 -18.7603 0)
(209.573 -19.2704 0)
(208.838 -19.7857 0)
(208.12 -20.2947 0)
(207.429 -20.7883 0)
(206.774 -21.262 0)
(206.159 -21.7117 0)
(205.589 -22.1376 0)
(205.06 -22.5406 0)
(204.569 -22.9231 0)
(204.114 -23.2876 0)
(203.693 -23.6368 0)
(203.306 -23.9722 0)
(202.949 -24.295 0)
(202.622 -24.6057 0)
(202.323 -24.9044 0)
(202.052 -25.1915 0)
(201.806 -25.4679 0)
(201.584 -25.7351 0)
(201.383 -25.9948 0)
(201.201 -26.2483 0)
(201.036 -26.496 0)
(200.886 -26.7379 0)
(200.75 -26.9737 0)
(200.626 -27.2033 0)
(200.515 -27.4268 0)
(200.415 -27.644 0)
(200.328 -27.8544 0)
(200.253 -28.0575 0)
(200.187 -28.2528 0)
(200.131 -28.4398 0)
(200.082 -28.6188 0)
(200.04 -28.7903 0)
(200.005 -28.9548 0)
(199.977 -29.1133 0)
(199.957 -29.2655 0)
(199.95 -29.413 0)
(199.937 -29.552 0)
(199.94 -29.6852 0)
(199.941 -29.812 0)
(199.95 -29.9333 0)
(199.958 -30.0503 0)
(199.988 -30.1617 0)
(200.009 -30.2692 0)
(200.035 -30.3708 0)
(200.049 -30.47 0)
(200.088 -30.5621 0)
(200.123 -30.6525 0)
(212.334 -10.1013 0)
(241.596 -28.4196 0)
(249.912 -15.6148 0)
(245.06 -13.1278 0)
(236.896 -14.6582 0)
(231.862 -15.1045 0)
(229.8 -15.6858 0)
(228.55 -16.0755 0)
(227.421 -16.3714 0)
(226.281 -16.5604 0)
(225.134 -16.6389 0)
(224.009 -16.6436 0)
(222.934 -16.6011 0)
(221.923 -16.5491 0)
(220.985 -16.5096 0)
(220.127 -16.488 0)
(219.349 -16.4827 0)
(218.647 -16.4907 0)
(218.01 -16.5194 0)
(217.431 -16.5608 0)
(216.9 -16.6134 0)
(216.404 -16.672 0)
(215.931 -16.7562 0)
(215.467 -16.8703 0)
(215.005 -17.0266 0)
(214.526 -17.2258 0)
(214.014 -17.4918 0)
(213.445 -17.8321 0)
(212.813 -18.2543 0)
(212.109 -18.7383 0)
(211.377 -19.267 0)
(210.635 -19.8147 0)
(209.896 -20.3638 0)
(209.173 -20.9005 0)
(208.487 -21.4167 0)
(207.84 -21.9043 0)
(207.24 -22.3641 0)
(206.68 -22.7956 0)
(206.163 -23.2007 0)
(205.69 -23.5805 0)
(205.259 -23.9374 0)
(204.866 -24.2739 0)
(204.507 -24.5933 0)
(204.18 -24.8977 0)
(203.881 -25.1888 0)
(203.61 -25.4676 0)
(203.362 -25.7348 0)
(203.137 -25.9911 0)
(202.933 -26.237 0)
(202.749 -26.4731 0)
(202.584 -26.7002 0)
(202.437 -26.9193 0)
(202.306 -27.1309 0)
(202.19 -27.3353 0)
(202.086 -27.5325 0)
(201.993 -27.7226 0)
(201.911 -27.9059 0)
(201.837 -28.0827 0)
(201.773 -28.2534 0)
(201.717 -28.4181 0)
(201.668 -28.5767 0)
(201.625 -28.7288 0)
(201.587 -28.874 0)
(201.553 -29.0127 0)
(201.523 -29.1451 0)
(201.5 -29.2724 0)
(201.478 -29.3938 0)
(201.473 -29.5106 0)
(201.463 -29.6216 0)
(201.461 -29.7277 0)
(201.461 -29.8276 0)
(201.466 -29.9224 0)
(201.469 -30.013 0)
(201.489 -30.0982 0)
(201.499 -30.1796 0)
(201.519 -30.2548 0)
(201.516 -30.3268 0)
(201.538 -30.3934 0)
(201.554 -30.4568 0)
(207.169 -16.7889 0)
(237.149 -31.231 0)
(248.861 -17.5216 0)
(244.911 -14.5369 0)
(237.46 -15.4987 0)
(232.195 -15.7395 0)
(229.921 -16.3082 0)
(228.643 -16.6598 0)
(227.567 -16.952 0)
(226.491 -17.1558 0)
(225.408 -17.2657 0)
(224.342 -17.292 0)
(223.311 -17.2589 0)
(222.333 -17.2019 0)
(221.416 -17.1471 0)
(220.573 -17.102 0)
(219.807 -17.0685 0)
(219.116 -17.049 0)
(218.492 -17.0524 0)
(217.927 -17.0745 0)
(217.41 -17.1132 0)
(216.927 -17.1679 0)
(216.464 -17.2569 0)
(216.004 -17.388 0)
(215.536 -17.5746 0)
(215.032 -17.8251 0)
(214.472 -18.1674 0)
(213.835 -18.6041 0)
(213.133 -19.1195 0)
(212.401 -19.6817 0)
(211.653 -20.2675 0)
(210.901 -20.8533 0)
(210.179 -21.4229 0)
(209.49 -21.9606 0)
(208.849 -22.4644 0)
(208.255 -22.9308 0)
(207.713 -23.3623 0)
(207.218 -23.7613 0)
(206.764 -24.1332 0)
(206.347 -24.4808 0)
(205.966 -24.8072 0)
(205.618 -25.1145 0)
(205.303 -25.4058 0)
(205.016 -25.6829 0)
(204.757 -25.9475 0)
(204.521 -26.2001 0)
(204.309 -26.4415 0)
(204.116 -26.6726 0)
(203.941 -26.894 0)
(203.782 -27.106 0)
(203.639 -27.3091 0)
(203.51 -27.5037 0)
(203.395 -27.6904 0)
(203.293 -27.8694 0)
(203.202 -28.0407 0)
(203.121 -28.2043 0)
(203.05 -28.3605 0)
(202.988 -28.5098 0)
(202.934 -28.6527 0)
(202.888 -28.7899 0)
(202.848 -28.9216 0)
(202.813 -29.0477 0)
(202.78 -29.1681 0)
(202.751 -29.2829 0)
(202.723 -29.392 0)
(202.702 -29.4966 0)
(202.679 -29.5958 0)
(202.669 -29.6916 0)
(202.658 -29.7821 0)
(202.651 -29.8683 0)
(202.646 -29.95 0)
(202.643 -30.0273 0)
(202.639 -30.1005 0)
(202.641 -30.1692 0)
(202.639 -30.2335 0)
(202.639 -30.2934 0)
(202.625 -30.3476 0)
(202.622 -30.3993 0)
(202.618 -30.4466 0)
(203.563 -21.2632 0)
(232.98 -32.5323 0)
(248.172 -20.016 0)
(244.425 -16.0778 0)
(237.976 -16.315 0)
(232.572 -16.4054 0)
(230.033 -16.9433 0)
(228.701 -17.2314 0)
(227.664 -17.5032 0)
(226.647 -17.7117 0)
(225.626 -17.8494 0)
(224.619 -17.9001 0)
(223.642 -17.8842 0)
(222.708 -17.8306 0)
(221.825 -17.768 0)
(221.006 -17.7045 0)
(220.259 -17.6459 0)
(219.584 -17.5996 0)
(218.975 -17.5772 0)
(218.423 -17.5789 0)
(217.918 -17.6036 0)
(217.442 -17.6548 0)
(216.981 -17.7507 0)
(216.514 -17.9059 0)
(216.018 -18.1382 0)
(215.462 -18.4631 0)
(214.829 -18.8983 0)
(214.122 -19.4253 0)
(213.393 -20.0162 0)
(212.627 -20.6358 0)
(211.87 -21.2607 0)
(211.132 -21.8615 0)
(210.438 -22.4279 0)
(209.789 -22.9506 0)
(209.194 -23.4302 0)
(208.65 -23.8683 0)
(208.155 -24.2692 0)
(207.708 -24.6362 0)
(207.306 -24.9743 0)
(206.943 -25.2872 0)
(206.614 -25.579 0)
(206.314 -25.8525 0)
(206.042 -26.1111 0)
(205.796 -26.3571 0)
(205.571 -26.5921 0)
(205.367 -26.817 0)
(205.182 -27.0324 0)
(205.013 -27.239 0)
(204.86 -27.4373 0)
(204.721 -27.6276 0)
(204.594 -27.8101 0)
(204.478 -27.9854 0)
(204.373 -28.1539 0)
(204.277 -28.3156 0)
(204.19 -28.4707 0)
(204.111 -28.6187 0)
(204.041 -28.7598 0)
(203.98 -28.894 0)
(203.926 -29.0217 0)
(203.88 -29.1435 0)
(203.84 -29.2597 0)
(203.806 -29.3706 0)
(203.774 -29.4761 0)
(203.745 -29.5765 0)
(203.716 -29.6718 0)
(203.693 -29.7626 0)
(203.669 -29.8486 0)
(203.654 -29.931 0)
(203.638 -30.0085 0)
(203.626 -30.0823 0)
(203.612 -30.1517 0)
(203.602 -30.2173 0)
(203.589 -30.2788 0)
(203.576 -30.3363 0)
(203.561 -30.3899 0)
(203.543 -30.4397 0)
(203.518 -30.4847 0)
(203.498 -30.5278 0)
(203.478 -30.5686 0)
(201.517 -24.1451 0)
(229.004 -32.8393 0)
(246.292 -21.8942 0)
(243.747 -17.5916 0)
(238.47 -17.1609 0)
(232.887 -17.1436 0)
(230.099 -17.5881 0)
(228.716 -17.7878 0)
(227.721 -18.0313 0)
(226.757 -18.2354 0)
(225.794 -18.3935 0)
(224.847 -18.4669 0)
(223.927 -18.4716 0)
(223.043 -18.4277 0)
(222.202 -18.3642 0)
(221.418 -18.288 0)
(220.698 -18.209 0)
(220.045 -18.1388 0)
(219.453 -18.0924 0)
(218.914 -18.0749 0)
(218.416 -18.0875 0)
(217.943 -18.138 0)
(217.473 -18.2471 0)
(216.979 -18.4408 0)
(216.431 -18.7415 0)
(215.801 -19.1579 0)
(215.095 -19.6821 0)
(214.352 -20.2848 0)
(213.574 -20.935 0)
(212.792 -21.5943 0)
(212.037 -22.2325 0)
(211.323 -22.8275 0)
(210.666 -23.3721 0)
(210.065 -23.864 0)
(209.524 -24.3083 0)
(209.034 -24.7101 0)
(208.592 -25.0762 0)
(208.191 -25.4108 0)
(207.831 -25.7187 0)
(207.506 -26.003 0)
(207.214 -26.2669 0)
(206.949 -26.513 0)
(206.709 -26.7441 0)
(206.492 -26.962 0)
(206.296 -27.1689 0)
(206.119 -27.3657 0)
(205.957 -27.5537 0)
(205.81 -27.7337 0)
(205.675 -27.9062 0)
(205.553 -28.0714 0)
(205.441 -28.2296 0)
(205.339 -28.3813 0)
(205.245 -28.5272 0)
(205.159 -28.6677 0)
(205.08 -28.803 0)
(205.006 -28.9333 0)
(204.939 -29.0583 0)
(204.878 -29.1781 0)
(204.824 -29.2929 0)
(204.776 -29.4028 0)
(204.734 -29.5078 0)
(204.697 -29.6082 0)
(204.662 -29.7037 0)
(204.629 -29.7945 0)
(204.597 -29.8804 0)
(204.568 -29.962 0)
(204.54 -30.039 0)
(204.519 -30.1124 0)
(204.495 -30.181 0)
(204.477 -30.2466 0)
(204.455 -30.3075 0)
(204.437 -30.3658 0)
(204.416 -30.42 0)
(204.393 -30.471 0)
(204.369 -30.519 0)
(204.341 -30.5637 0)
(204.311 -30.6053 0)
(204.285 -30.646 0)
(204.258 -30.6838 0)
(200.463 -25.9419 0)
(225.611 -32.6643 0)
(244.005 -23.4151 0)
(243.329 -19.1272 0)
(238.613 -18.0692 0)
(233.108 -17.9125 0)
(230.132 -18.2177 0)
(228.708 -18.3267 0)
(227.739 -18.5375 0)
(226.832 -18.7306 0)
(225.927 -18.9011 0)
(225.035 -18.9936 0)
(224.17 -19.0196 0)
(223.338 -18.9891 0)
(222.545 -18.9294 0)
(221.802 -18.846 0)
(221.116 -18.7519 0)
(220.489 -18.6623 0)
(219.917 -18.5956 0)
(219.391 -18.5624 0)
(218.898 -18.5672 0)
(218.42 -18.6236 0)
(217.926 -18.7594 0)
(217.384 -19.0127 0)
(216.763 -19.401 0)
(216.055 -19.9095 0)
(215.302 -20.5128 0)
(214.498 -21.1796 0)
(213.691 -21.8703 0)
(212.905 -22.543 0)
(212.169 -23.1711 0)
(211.49 -23.7395 0)
(210.88 -24.2475 0)
(210.331 -24.699 0)
(209.842 -25.1043 0)
(209.4 -25.4688 0)
(209.005 -25.801 0)
(208.648 -26.1047 0)
(208.326 -26.385 0)
(208.034 -26.6441 0)
(207.77 -26.8852 0)
(207.531 -27.1098 0)
(207.314 -27.3197 0)
(207.116 -27.5165 0)
(206.937 -27.7017 0)
(206.775 -27.8767 0)
(206.628 -28.0426 0)
(206.494 -28.2003 0)
(206.372 -28.3505 0)
(206.261 -28.4933 0)
(206.159 -28.6292 0)
(206.067 -28.7585 0)
(205.983 -28.8818 0)
(205.906 -28.9997 0)
(205.835 -29.1125 0)
(205.77 -29.2206 0)
(205.709 -29.3243 0)
(205.654 -29.4238 0)
(205.604 -29.5194 0)
(205.56 -29.6111 0)
(205.519 -29.6992 0)
(205.482 -29.7836 0)
(205.446 -29.8643 0)
(205.412 -29.9412 0)
(205.377 -30.0143 0)
(205.345 -30.0838 0)
(205.314 -30.1497 0)
(205.288 -30.213 0)
(205.259 -30.2724 0)
(205.237 -30.33 0)
(205.21 -30.3835 0)
(205.189 -30.4356 0)
(205.164 -30.484 0)
(205.141 -30.531 0)
(205.114 -30.5751 0)
(205.089 -30.6179 0)
(205.064 -30.6591 0)
(205.042 -30.6986 0)
(205.027 -30.7394 0)
(200.125 -27.0388 0)
(222.742 -32.1798 0)
(241.346 -24.5329 0)
(242.306 -20.3618 0)
(238.335 -18.9147 0)
(233.129 -18.6689 0)
(230.098 -18.8154 0)
(228.654 -18.8405 0)
(227.729 -19.0212 0)
(226.876 -19.1978 0)
(226.027 -19.3749 0)
(225.188 -19.4835 0)
(224.377 -19.5296 0)
(223.597 -19.5138 0)
(222.853 -19.4603 0)
(222.154 -19.3737 0)
(221.506 -19.2694 0)
(220.91 -19.1658 0)
(220.36 -19.0845 0)
(219.847 -19.041 0)
(219.356 -19.0454 0)
(218.862 -19.1201 0)
(218.326 -19.304 0)
(217.715 -19.6387 0)
(217.009 -20.1194 0)
(216.247 -20.7147 0)
(215.421 -21.3896 0)
(214.578 -22.1025 0)
(213.758 -22.8072 0)
(212.986 -23.4662 0)
(212.285 -24.0611 0)
(211.655 -24.5857 0)
(211.099 -25.0473 0)
(210.604 -25.4548 0)
(210.163 -25.8203 0)
(209.768 -26.1504 0)
(209.413 -26.4517 0)
(209.09 -26.7285 0)
(208.797 -26.9847 0)
(208.529 -27.2223 0)
(208.287 -27.4442 0)
(208.065 -27.6512 0)
(207.863 -27.8449 0)
(207.678 -28.026 0)
(207.509 -28.1962 0)
(207.355 -28.3563 0)
(207.214 -28.5073 0)
(207.086 -28.6499 0)
(206.969 -28.7847 0)
(206.863 -28.912 0)
(206.766 -29.0323 0)
(206.678 -29.1461 0)
(206.597 -29.2539 0)
(206.523 -29.3561 0)
(206.455 -29.453 0)
(206.393 -29.5447 0)
(206.336 -29.6317 0)
(206.284 -29.7143 0)
(206.238 -29.7928 0)
(206.197 -29.8677 0)
(206.159 -29.939 0)
(206.126 -30.007 0)
(206.092 -30.0717 0)
(206.059 -30.1332 0)
(206.027 -30.1918 0)
(205.995 -30.2477 0)
(205.965 -30.3007 0)
(205.94 -30.3525 0)
(205.911 -30.4008 0)
(205.892 -30.4488 0)
(205.866 -30.4932 0)
(205.85 -30.5378 0)
(205.827 -30.5796 0)
(205.81 -30.6205 0)
(205.794 -30.6607 0)
(205.773 -30.6993 0)
(205.77 -30.7388 0)
(205.753 -30.7784 0)
(205.761 -30.816 0)
(200.231 -27.6359 0)
(220.363 -31.6832 0)
(238.858 -25.3695 0)
(241.286 -21.4876 0)
(237.953 -19.7333 0)
(233.081 -19.4043 0)
(230.016 -19.378 0)
(228.554 -19.323 0)
(227.673 -19.4757 0)
(226.877 -19.6347 0)
(226.095 -19.8154 0)
(225.314 -19.9377 0)
(224.555 -20.0027 0)
(223.825 -20.0024 0)
(223.129 -19.9562 0)
(222.475 -19.869 0)
(221.867 -19.7586 0)
(221.302 -19.6466 0)
(220.775 -19.5571 0)
(220.275 -19.5105 0)
(219.781 -19.5255 0)
(219.257 -19.6388 0)
(218.66 -19.8964 0)
(217.963 -20.3236 0)
(217.193 -20.8977 0)
(216.349 -21.5748 0)
(215.472 -22.305 0)
(214.61 -23.0357 0)
(213.799 -23.7242 0)
(213.064 -24.3445 0)
(212.412 -24.8892 0)
(211.837 -25.3626 0)
(211.331 -25.777 0)
(210.88 -26.1437 0)
(210.478 -26.4735 0)
(210.116 -26.7729 0)
(209.79 -27.0471 0)
(209.494 -27.2995 0)
(209.226 -27.5335 0)
(208.981 -27.7511 0)
(208.757 -27.9549 0)
(208.551 -28.1459 0)
(208.362 -28.3255 0)
(208.187 -28.4941 0)
(208.026 -28.6528 0)
(207.877 -28.8023 0)
(207.74 -28.9435 0)
(207.614 -29.0768 0)
(207.498 -29.2026 0)
(207.391 -29.3212 0)
(207.294 -29.4331 0)
(207.204 -29.5385 0)
(207.122 -29.6378 0)
(207.046 -29.7314 0)
(206.977 -29.8194 0)
(206.912 -29.9021 0)
(206.853 -29.9798 0)
(206.8 -30.053 0)
(206.752 -30.122 0)
(206.71 -30.1873 0)
(206.672 -30.249 0)
(206.637 -30.3073 0)
(206.604 -30.3624 0)
(206.572 -30.4145 0)
(206.541 -30.4638 0)
(206.514 -30.5113 0)
(206.484 -30.5559 0)
(206.466 -30.6001 0)
(206.438 -30.6409 0)
(206.426 -30.6817 0)
(206.405 -30.7202 0)
(206.394 -30.7579 0)
(206.385 -30.7942 0)
(206.366 -30.8302 0)
(206.369 -30.8642 0)
(206.357 -30.9011 0)
(206.369 -30.9341 0)
(206.378 -30.9721 0)
(206.4 -31.0067 0)
(200.595 -27.9744 0)
(218.466 -30.9735 0)
(236.556 -26.0889 0)
(240.132 -22.4842 0)
(237.371 -20.4794 0)
(232.887 -20.0944 0)
(229.869 -19.8974 0)
(228.408 -19.773 0)
(227.573 -19.8945 0)
(226.854 -20.0399 0)
(226.132 -20.2203 0)
(225.409 -20.355 0)
(224.704 -20.4398 0)
(224.024 -20.456 0)
(223.376 -20.4178 0)
(222.767 -20.3319 0)
(222.197 -20.2186 0)
(221.662 -20.1035 0)
(221.157 -20.0123 0)
(220.666 -19.9715 0)
(220.16 -20.0137 0)
(219.59 -20.193 0)
(218.915 -20.5447 0)
(218.143 -21.072 0)
(217.285 -21.7363 0)
(216.38 -22.4813 0)
(215.473 -23.2373 0)
(214.619 -23.9538 0)
(213.844 -24.5999 0)
(213.159 -25.1654 0)
(212.559 -25.6546 0)
(212.032 -26.0781 0)
(211.567 -26.4492 0)
(211.152 -26.7788 0)
(210.781 -27.0765 0)
(210.446 -27.3476 0)
(210.144 -27.597 0)
(209.87 -27.8271 0)
(209.621 -28.0412 0)
(209.392 -28.2408 0)
(209.183 -28.4282 0)
(208.99 -28.6043 0)
(208.813 -28.7706 0)
(208.648 -28.9275 0)
(208.495 -29.0756 0)
(208.352 -29.2157 0)
(208.219 -29.3485 0)
(208.096 -29.4743 0)
(207.981 -29.5935 0)
(207.874 -29.7064 0)
(207.775 -29.813 0)
(207.684 -29.9138 0)
(207.599 -30.0089 0)
(207.521 -30.0985 0)
(207.447 -30.1829 0)
(207.379 -30.2623 0)
(207.315 -30.3368 0)
(207.257 -30.4071 0)
(207.203 -30.4732 0)
(207.155 -30.5356 0)
(207.112 -30.5943 0)
(207.073 -30.6495 0)
(207.036 -30.7013 0)
(207.003 -30.7503 0)
(206.97 -30.7963 0)
(206.945 -30.8406 0)
(206.917 -30.8822 0)
(206.898 -30.9225 0)
(206.88 -30.9609 0)
(206.864 -30.9983 0)
(206.857 -31.0335 0)
(206.841 -31.0687 0)
(206.842 -31.1002 0)
(206.828 -31.1345 0)
(206.838 -31.1651 0)
(206.849 -31.198 0)
(206.868 -31.2288 0)
(206.89 -31.2594 0)
(206.914 -31.2882 0)
(201.137 -28.0917 0)
(216.933 -30.2642 0)
(234.445 -26.6807 0)
(238.899 -23.3369 0)
(236.692 -21.176 0)
(232.625 -20.7311 0)
(229.686 -20.3751 0)
(228.228 -20.1909 0)
(227.434 -20.2762 0)
(226.783 -20.407 0)
(226.131 -20.5879 0)
(225.472 -20.7344 0)
(224.826 -20.8399 0)
(224.198 -20.8743 0)
(223.597 -20.846 0)
(223.029 -20.7636 0)
(222.495 -20.6508 0)
(221.989 -20.5372 0)
(221.502 -20.4512 0)
(221.015 -20.427 0)
(220.48 -20.5211 0)
(219.847 -20.7935 0)
(219.087 -21.2535 0)
(218.236 -21.8823 0)
(217.301 -22.6283 0)
(216.357 -23.4118 0)
(215.453 -24.1601 0)
(214.634 -24.8345 0)
(213.908 -25.422 0)
(213.276 -25.9281 0)
(212.722 -26.3639 0)
(212.235 -26.7422 0)
(211.803 -27.0746 0)
(211.417 -27.371 0)
(211.07 -27.6396 0)
(210.756 -27.885 0)
(210.473 -28.1117 0)
(210.215 -28.3219 0)
(209.981 -28.5181 0)
(209.766 -28.7017 0)
(209.568 -28.8743 0)
(209.386 -29.0368 0)
(209.217 -29.1906 0)
(209.061 -29.336 0)
(208.915 -29.4738 0)
(208.78 -29.6043 0)
(208.653 -29.7283 0)
(208.534 -29.8461 0)
(208.423 -29.958 0)
(208.319 -30.0642 0)
(208.222 -30.1652 0)
(208.131 -30.2611 0)
(208.046 -30.352 0)
(207.966 -30.4381 0)
(207.892 -30.5196 0)
(207.822 -30.5967 0)
(207.757 -30.6699 0)
(207.695 -30.7393 0)
(207.639 -30.8053 0)
(207.587 -30.8681 0)
(207.539 -30.9275 0)
(207.496 -30.9839 0)
(207.454 -31.0368 0)
(207.418 -31.0873 0)
(207.382 -31.1345 0)
(207.353 -31.1796 0)
(207.326 -31.2223 0)
(207.298 -31.2622 0)
(207.284 -31.3009 0)
(207.261 -31.337 0)
(207.254 -31.371 0)
(207.233 -31.4039 0)
(207.233 -31.4336 0)
(207.226 -31.4642 0)
(207.231 -31.4918 0)
(207.24 -31.5178 0)
(207.249 -31.5412 0)
(207.255 -31.5615 0)
(207.257 -31.5784 0)
(201.75 -28.1169 0)
(215.748 -29.4861 0)
(232.556 -27.2578 0)
(237.707 -24.1286 0)
(235.965 -21.833 0)
(232.309 -21.3105 0)
(229.492 -20.8172 0)
(228.041 -20.584 0)
(227.274 -20.6253 0)
(226.681 -20.7375 0)
(226.102 -20.919 0)
(225.504 -21.0736 0)
(224.917 -21.2003 0)
(224.345 -21.2558 0)
(223.793 -21.2411 0)
(223.266 -21.1655 0)
(222.764 -21.0571 0)
(222.282 -20.9499 0)
(221.809 -20.8762 0)
(221.313 -20.8853 0)
(220.729 -21.0609 0)
(220.013 -21.446 0)
(219.184 -22.0223 0)
(218.242 -22.7509 0)
(217.258 -23.5528 0)
(216.309 -24.3391 0)
(215.436 -25.049 0)
(214.667 -25.6647 0)
(213.993 -26.1897 0)
(213.408 -26.6391 0)
(212.893 -27.0263 0)
(212.44 -27.3638 0)
(212.036 -27.6617 0)
(211.672 -27.9281 0)
(211.345 -28.1702 0)
(211.049 -28.3925 0)
(210.78 -28.599 0)
(210.534 -28.7914 0)
(210.31 -28.9719 0)
(210.105 -29.1412 0)
(209.916 -29.3008 0)
(209.742 -29.4512 0)
(209.58 -29.5935 0)
(209.431 -29.7282 0)
(209.292 -29.8559 0)
(209.162 -29.9769 0)
(209.042 -30.0917 0)