/*--------------------------------*- C++ -*----------------------------------*\
| =========                 |                                                 |
| \\      /  F ield         | OpenFOAM: The Open Source CFD Toolbox           |
|  \\    /   O peration     | Version:  2412                                  |
|   \\  /    A nd           | Website:  www.openfoam.com                      |
|    \\/     M anipulation  |                                                 |
\*---------------------------------------------------------------------------*/
FoamFile
{
    version     2.0;
    format      ascii;
    arch        "LSB;label=32;scalar=64";
    class       volScalarField;
    location    "0.097";
    object      rho;
}
// * * * * * * * * * * * * * * * * * * * * * * * * * * * * * * * * * * * * * //

dimensions      [1 -3 0 0 0 0 0];

internalField   nonuniform List<scalar> 
9763
(
0.0424099
0.0431343
0.0424167
0.0431003
0.0424262
0.0430715
0.042435
0.0430628
0.0424444
0.0430544
0.0424525
0.0430497
0.04246
0.0430429
0.0424656
0.0430344
0.0424699
0.0430232
0.0424731
0.0430101
0.0424752
0.0429946
0.042476
0.0429775
0.0424763
0.0429585
0.0424759
0.0429383
0.0424751
0.0429167
0.0424737
0.0428941
0.0424722
0.0428706
0.0424702
0.0428465
0.0424683
0.0428219
0.0424661
0.042797
0.042464
0.0427717
0.0424616
0.0427462
0.0424591
0.0427201
0.042456
0.0426935
0.0424528
0.0426658
0.0424489
0.0426371
0.0424448
0.042607
0.0424401
0.0425753
0.0424352
0.0425422
0.0424302
0.0425074
0.0424252
0.0424715
0.0424211
0.0424345
0.0424181
0.042397
0.0424159
0.04236
0.0424128
0.042324
0.0424072
0.0422899
0.0423985
0.0422566
0.0423876
0.0422235
0.042375
0.0421892
0.0423612
0.0421541
0.042118
0.0420815
0.0420445
0.0589617
0.0435092
0.0432463
0.0430921
0.0429575
0.0428823
0.0428075
0.0427584
0.0427074
0.0426606
0.0426086
0.042551
0.0424843
0.0424114
0.0423328
0.042251
0.0421673
0.0420827
0.0419974
0.0419117
0.041826
0.0417404
0.0416553
0.0415712
0.0414886
0.0414081
0.0413299
0.0412547
0.0411826
0.041114
0.041049
0.0409878
0.0409307
0.0408779
0.0408294
0.0407853
0.0407457
0.0407108
0.0406805
0.0406552
0.0406355
0.0406211
0.0406117
0.0406068
0.0406064
0.0406109
0.0406207
0.0406346
0.0406523
0.0406735
0.0406982
0.0407261
0.040757
0.0407903
0.040826
0.0408638
0.0409035
0.0409446
0.0409865
0.0410291
0.0410733
0.0411147
0.0411605
0.0411979
0.0412395
0.041279
0.0413169
0.0413571
0.0413971
0.0414372
0.0414781
0.0415184
0.0415587
0.041599
0.0416395
0.0416808
0.0417229
0.0417656
0.0418086
0.041851
0.0418926
0.0419327
0.0419715
0.0420094
0.042047
0.0420856
0.0421257
0.0421681
0.0422113
0.0422559
0.0422967
0.0423322
0.0423646
0.0423933
0.0424195
0.0424439
0.0424677
0.0424912
0.0425151
0.0425393
0.0425639
0.0425881
0.0426116
0.0426337
0.0426534
0.0426706
0.042684
0.0426927
0.0426968
0.0426969
0.042692
0.042682
0.0426669
0.0426471
0.0426245
0.0425996
0.0425742
0.0425463
0.0425185
0.0425118
0.0424303
0.0589945
0.0435013
0.0432408
0.0430882
0.0429544
0.0428799
0.0428058
0.0427569
0.0427062
0.0426594
0.0426073
0.0425497
0.042483
0.04241
0.0423315
0.0422498
0.0421662
0.0420816
0.0419964
0.0419108
0.0418251
0.0417394
0.041654
0.0415696
0.0414867
0.0414056
0.0413268
0.0412508
0.0411779
0.0411084
0.0410424
0.0409801
0.0409218
0.0408677
0.0408178
0.0407723
0.0407313
0.0406948
0.040663
0.0406362
0.0406149
0.0405989
0.0405879
0.0405817
0.0405799
0.0405828
0.0405911
0.0406038
0.0406203
0.0406404
0.0406638
0.0406906
0.0407202
0.0407525
0.040787
0.0408236
0.0408622
0.0409025
0.0409437
0.0409855
0.0410289
0.0410698
0.041114
0.0411517
0.0411928
0.0412328
0.0412703
0.0413093
0.041348
0.0413865
0.0414262
0.0414655
0.0415049
0.0415443
0.0415839
0.0416242
0.0416653
0.0417069
0.0417484
0.0417894
0.0418297
0.0418693
0.0419083
0.0419468
0.0419855
0.0420245
0.0420641
0.0421038
0.042143
0.0421814
0.0422168
0.0422485
0.0422777
0.0423032
0.0423264
0.0423475
0.0423682
0.0423886
0.04241
0.0424317
0.0424545
0.042477
0.0424993
0.0425201
0.0425392
0.0425563
0.0425705
0.0425814
0.0425879
0.042591
0.0425905
0.0425856
0.0425781
0.0425674
0.0425563
0.0425457
0.0425366
0.0425292
0.0425242
0.0425229
0.0425224
0.0589966
0.0434968
0.0432368
0.0430853
0.0429521
0.0428782
0.0428044
0.0427557
0.042705
0.0426583
0.0426061
0.0425484
0.0424817
0.0424088
0.0423303
0.0422486
0.0421651
0.0420806
0.0419954
0.0419099
0.0418242
0.0417384
0.0416529
0.0415682
0.0414849
0.0414033
0.0413239
0.0412471
0.0411733
0.0411028
0.0410357
0.0409723
0.0409127
0.0408573
0.040806
0.040759
0.0407165
0.0406784
0.040645
0.0406165
0.0405935
0.0405758
0.0405632
0.0405555
0.0405524
0.0405536
0.0405603
0.0405717
0.0405869
0.0406056
0.0406278
0.0406531
0.0406815
0.0407124
0.0407456
0.0407809
0.0408182
0.0408572
0.0408969
0.0409375
0.0409791
0.0410191
0.041061
0.0410978
0.0411378
0.0411769
0.0412136
0.0412511
0.0412876
0.041324
0.0413619
0.0413992
0.041437
0.0414746
0.0415123
0.0415506
0.0415896
0.0416289
0.0416675
0.0417054
0.0417421
0.0417782
0.0418136
0.0418491
0.0418846
0.0419207
0.0419573
0.0419936
0.0420293
0.0420639
0.0420951
0.0421229
0.0421483
0.0421703
0.0421906
0.0422094
0.0422279
0.0422462
0.0422654
0.0422848
0.0423051
0.042325
0.0423447
0.0423629
0.0423796
0.0423943
0.0424064
0.0424152
0.0424204
0.0424221
0.04242
0.042414
0.0424048
0.0423927
0.0423803
0.0423691
0.0423608
0.0423557
0.0423534
0.0423533
0.0423584
0.0589966
0.0434924
0.0432329
0.0430821
0.0429496
0.0428763
0.0428031
0.0427544
0.0427038
0.0426571
0.0426049
0.0425472
0.0424805
0.0424075
0.0423291
0.0422475
0.0421641
0.0420796
0.0419946
0.0419091
0.0418234
0.0417376
0.0416519
0.0415669
0.0414832
0.0414011
0.0413211
0.0412436
0.041169
0.0410976
0.0410295
0.0409649
0.0409041
0.0408474
0.0407948
0.0407464
0.0407023
0.0406628
0.0406277
0.0405976
0.0405729
0.0405536
0.0405394
0.0405302
0.0405257
0.0405256
0.0405303
0.0405404
0.0405544
0.0405719
0.0405927
0.0406168
0.0406437
0.0406733
0.0407051
0.0407392
0.0407751
0.040813
0.0408513
0.0408907
0.0409303
0.0409694
0.0410093
0.0410457
0.0410841
0.0411217
0.0411568
0.0411924
0.0412267
0.0412611
0.0412969
0.0413321
0.0413677
0.0414032
0.0414386
0.0414745
0.0415109
0.0415472
0.0415827
0.0416173
0.0416509
0.041684
0.0417165
0.0417489
0.0417808
0.0418129
0.0418446
0.0418755
0.0419052
0.0419339
0.0419592
0.0419821
0.0420026
0.0420202
0.0420365
0.0420516
0.0420668
0.042082
0.0420982
0.0421148
0.0421323
0.0421496
0.0421668
0.0421827
0.0421973
0.0422105
0.0422213
0.0422295
0.0422349
0.0422371
0.0422357
0.0422306
0.0422221
0.042211
0.0421996
0.0421897
0.0421831
0.04218
0.0421792
0.0421813
0.0421874
0.0590013
0.0434887
0.0432292
0.043079
0.0429471
0.0428746
0.0428017
0.0427532
0.0427027
0.042656
0.0426038
0.0425461
0.0424793
0.0424064
0.0423279
0.0422464
0.0421631
0.0420787
0.0419938
0.0419084
0.0418227
0.0417367
0.0416509
0.0415657
0.0414816
0.0413991
0.0413185
0.0412403
0.0411649
0.0410926
0.0410235
0.0409579
0.0408959
0.0408379
0.0407839
0.0407342
0.0406887
0.0406476
0.040611
0.0405793
0.040553
0.040532
0.0405162
0.0405054
0.0404997
0.0404981
0.040501
0.0405097
0.0405225
0.0405388
0.0405584
0.040581
0.0406066
0.0406349
0.0406654
0.0406982
0.0407328
0.0407694
0.0408064
0.0408446
0.0408823
0.0409205
0.040958
0.0409941
0.0410307
0.0410667
0.0411002
0.041134
0.0411663
0.041199
0.041233
0.0412663
0.0413
0.0413335
0.041367
0.0414008
0.041435
0.0414685
0.041501
0.0415322
0.0415623
0.0415918
0.0416206
0.0416496
0.0416782
0.0417074
0.041736
0.041764
0.0417903
0.0418151
0.0418364
0.0418553
0.0418716
0.0418854
0.0418979
0.0419095
0.0419212
0.0419331
0.0419459
0.041959
0.041973
0.0419868
0.0420004
0.0420128
0.0420241
0.042034
0.0420415
0.042047
0.0420504
0.0420505
0.042047
0.0420406
0.0420301
0.0420179
0.0420051
0.0419945
0.0419872
0.0419839
0.0419833
0.0419857
0.0419922
0.0590052
0.0434849
0.0432254
0.0430759
0.0429446
0.0428728
0.0428004
0.042752
0.0427016
0.0426549
0.0426027
0.0425449
0.0424781
0.0424052
0.0423268
0.0422454
0.0421621
0.0420779
0.041993
0.0419076
0.0418219
0.0417359
0.04165
0.0415645
0.0414801
0.0413971
0.0413159
0.0412371
0.0411609
0.0410877
0.0410177
0.040951
0.0408879
0.0408287
0.0407734
0.0407222
0.0406753
0.0406327
0.0405946
0.0405613
0.0405333
0.0405107
0.0404934
0.0404811
0.0404739
0.0404708
0.0404724
0.0404793
0.0404909
0.0405061
0.0405245
0.0405458
0.0405701
0.040597
0.0406261
0.0406576
0.040691
0.0407264
0.0407621
0.0407992
0.040835
0.0408725
0.0409078
0.0409438
0.0409781
0.0410122
0.0410437
0.0410755
0.041106
0.0411371
0.0411695
0.0412011
0.0412332
0.0412647
0.0412962
0.0413279
0.0413595
0.0413904
0.0414201
0.0414488
0.0414764
0.0415034
0.0415297
0.0415559
0.0415816
0.0416075
0.0416326
0.0416571
0.0416796
0.0417008
0.0417185
0.0417342
0.0417472
0.0417581
0.0417678
0.041777
0.0417862
0.0417959
0.0418063
0.0418171
0.0418288
0.0418401
0.0418513
0.0418613
0.0418702
0.0418774
0.0418823
0.0418864
0.0418872
0.0418851
0.0418801
0.0418709
0.0418586
0.0418439
0.0418292
0.0418164
0.0418072
0.0418022
0.0418001
0.0418009
0.0417987
0.0590095
0.0434811
0.0432214
0.0430727
0.0429421
0.042871
0.042799
0.0427508
0.0427005
0.0426538
0.0426015
0.0425438
0.042477
0.042404
0.0423257
0.0422443
0.0421611
0.042077
0.0419921
0.0419069
0.0418212
0.0417352
0.0416491
0.0415634
0.0414786
0.0413952
0.0413135
0.0412339
0.041157
0.0410829
0.041012
0.0409442
0.04088
0.0408194
0.0407628
0.0407102
0.0406619
0.0406178
0.0405781
0.0405432
0.0405135
0.0404892
0.0404702
0.0404564
0.0404476
0.0404433
0.0404433
0.0404484
0.0404587
0.0404728
0.0404899
0.04051
0.0405328
0.0405583
0.0405861
0.0406162
0.0406483
0.0406825
0.0407169
0.0407527
0.0407867
0.0408233
0.040856
0.0408917
0.0409235
0.0409555
0.040985
0.0410148
0.0410436
0.0410732
0.0411041
0.0411341
0.0411647
0.0411945
0.0412242
0.0412538
0.0412831
0.0413114
0.0413385
0.0413645
0.0413895
0.0414139
0.0414379
0.0414618
0.0414855
0.0415097
0.0415331
0.0415561
0.0415766
0.0415958
0.0416115
0.0416252
0.0416361
0.0416453
0.0416534
0.0416612
0.0416691
0.0416775
0.0416866
0.0416961
0.0417065
0.0417164
0.0417261
0.0417347
0.0417424
0.0417478
0.0417519
0.0417546
0.0417545
0.0417515
0.0417455
0.0417353
0.0417221
0.0417064
0.0416907
0.0416768
0.041667
0.0416618
0.0416603
0.0416626
0.0416673
0.0590133
0.0434772
0.0432173
0.0430695
0.0429395
0.0428691
0.0427977
0.0427495
0.0426993
0.0426526
0.0426004
0.0425426
0.0424758
0.0424028
0.0423245
0.0422432
0.0421602
0.0420761
0.0419913
0.0419061
0.0418205
0.0417344
0.0416481
0.0415622
0.0414771
0.0413932
0.041311
0.0412308
0.0411531
0.0410781
0.0410062
0.0409374
0.040872
0.0408102
0.0407522
0.0406982
0.0406483
0.0406027
0.0405615
0.0405249
0.0404935
0.0404675
0.0404468
0.0404314
0.0404209
0.0404153
0.0404138
0.040417
0.0404259
0.0404388
0.0404548
0.0404736
0.0404951
0.040519
0.0405453
0.040574
0.0406048
0.0406377
0.0406709
0.0407053
0.0407378
0.0407734
0.0408037
0.0408389
0.0408678
0.0408975
0.0409247
0.0409522
0.040979
0.0410071
0.0410363
0.0410649
0.0410938
0.0411218
0.0411493
0.0411764
0.0412031
0.0412287
0.0412533
0.0412768
0.0412997
0.041322
0.0413439
0.0413656
0.0413871
0.0414088
0.0414298
0.0414503
0.0414682
0.0414849
0.0414985
0.0415102
0.0415194
0.0415273
0.0415344
0.0415414
0.0415487
0.0415565
0.0415651
0.0415741
0.0415838
0.041593
0.041602
0.04161
0.0416171
0.041622
0.0416258
0.0416277
0.0416271
0.0416237
0.0416166
0.0416058
0.0415915
0.0415751
0.041558
0.0415425
0.0415307
0.0415237
0.0415216
0.0415228
0.0415339
0.0590169
0.043473
0.0432131
0.0430661
0.0429369
0.0428672
0.0427963
0.0427483
0.0426982
0.0426515
0.0425992
0.0425414
0.0424746
0.0424016
0.0423234
0.0422422
0.0421591
0.0420751
0.0419905
0.0419054
0.0418197
0.0417336
0.0416472
0.0415611
0.0414757
0.0413913
0.0413085
0.0412276
0.0411491
0.0410733
0.0410004
0.0409305
0.0408639
0.0408008
0.0407414
0.040686
0.0406346
0.0405874
0.0405446
0.0405063
0.0404731
0.0404453
0.0404229
0.0404057
0.0403936
0.0403864
0.0403834
0.0403849
0.040392
0.0404036
0.0404184
0.040436
0.0404561
0.0404785
0.0405032
0.0405304
0.0405598
0.0405913
0.0406232
0.040656
0.040687
0.0407213
0.0407493
0.0407836
0.0408097
0.040837
0.040862
0.0408872
0.0409119
0.040938
0.0409651
0.0409919
0.041019
0.0410452
0.0410708
0.0410957
0.04112
0.0411429
0.0411649
0.0411857
0.0412058
0.0412255
0.0412451
0.0412647
0.0412844
0.0413042
0.0413234
0.0413421
0.0413578
0.0413719
0.0413836
0.0413931
0.0414003
0.0414064
0.0414118
0.0414173
0.0414231
0.0414295
0.0414365
0.0414439
0.0414519
0.0414593
0.0414663
0.0414723
0.0414772
0.0414804
0.0414825
0.0414825
0.0414799
0.0414747
0.0414652
0.0414523
0.0414357
0.0414171
0.0413975
0.0413792
0.0413641
0.0413537
0.0413486
0.0413488
0.0413451
0.0590209
0.0434685
0.0432088
0.0430627
0.0429343
0.0428653
0.0427949
0.042747
0.042697
0.0426503
0.042598
0.0425402
0.0424733
0.0424004
0.0423222
0.042241
0.0421581
0.0420742
0.0419897
0.0419046
0.041819
0.0417328
0.0416463
0.04156
0.0414742
0.0413894
0.0413061
0.0412245
0.0411452
0.0410686
0.0409946
0.0409237
0.0408558
0.0407914
0.0407307
0.0406737
0.0406208
0.040572
0.0405275
0.0404874
0.0404524
0.0404228
0.0403986
0.0403797
0.0403659
0.040357
0.0403526
0.0403525
0.0403575
0.0403677
0.0403813
0.0403976
0.0404163
0.0404373
0.0404604
0.040486
0.040514
0.040544
0.0405745
0.0406057
0.0406355
0.0406683
0.0406943
0.0407273
0.0407504
0.0407755
0.0407982
0.040821
0.0408433
0.0408673
0.040892
0.0409167
0.0409414
0.0409653
0.0409885
0.041011
0.0410329
0.0410535
0.0410731
0.0410916
0.0411095
0.0411267
0.0411439
0.041161
0.0411782
0.0411953
0.0412118
0.0412277
0.0412405
0.0412516
0.0412608
0.0412679
0.041273
0.0412774
0.0412814
0.0412858
0.0412906
0.0412961
0.0413021
0.0413084
0.0413152
0.0413212
0.0413271
0.0413317
0.0413353
0.0413374
0.0413382
0.0413374
0.0413339
0.0413275
0.0413172
0.0413032
0.0412858
0.041266
0.0412454
0.0412259
0.0412097
0.041198
0.0411912
0.0411881
0.0411849
0.059025
0.0434639
0.0432044
0.0430593
0.0429316
0.0428634
0.0427934
0.0427457
0.0426958
0.0426492
0.0425968
0.0425389
0.0424721
0.0423991
0.042321
0.0422399
0.0421571
0.0420733
0.0419888
0.0419038
0.0418182
0.041732
0.0416454
0.0415588
0.0414727
0.0413876
0.0413036
0.0412214
0.0411414
0.0410638
0.0409889
0.0409168
0.0408478
0.040782
0.0407198
0.0406613
0.0406068
0.0405564
0.0405101
0.0404684
0.0404315
0.0403999
0.0403738
0.0403531
0.0403376
0.0403269
0.0403211
0.0403193
0.0403223
0.0403308
0.0403431
0.0403581
0.0403755
0.0403949
0.0404165
0.0404405
0.0404669
0.0404952
0.0405242
0.0405538
0.0405824
0.0406136
0.0406377
0.0406691
0.0406895
0.0407125
0.0407332
0.0407537
0.0407736
0.0407951
0.0408171
0.0408392
0.0408613
0.0408827
0.0409034
0.0409238
0.0409435
0.040962
0.0409794
0.0409955
0.0410109
0.0410258
0.0410407
0.0410557
0.0410709
0.0410859
0.0411002
0.0411135
0.041124
0.0411325
0.0411393
0.0411441
0.0411473
0.0411501
0.0411528
0.0411561
0.0411599
0.0411644
0.0411695
0.0411747
0.0411804
0.0411853
0.0411902
0.0411938
0.0411967
0.0411979
0.0411983
0.041197
0.0411931
0.0411862
0.0411757
0.0411616
0.041144
0.041124
0.0411031
0.0410834
0.0410667
0.0410545
0.041047
0.0410432
0.0410407
0.0590295
0.0434591
0.0432
0.0430558
0.0429288
0.0428614
0.042792
0.0427444
0.0426945
0.042648
0.0425955
0.0425377
0.0424708
0.0423979
0.0423198
0.0422388
0.042156
0.0420723
0.0419879
0.041903
0.0418175
0.0417312
0.0416445
0.0415577
0.0414713
0.0413857
0.0413012
0.0412184
0.0411375
0.0410591
0.0409831
0.04091
0.0408397
0.0407726
0.040709
0.0406489
0.0405928
0.0405407
0.0404928
0.0404492
0.0404104
0.0403769
0.0403489
0.0403264
0.040309
0.0402967
0.0402891
0.0402857
0.040287
0.0402935
0.0403044
0.0403181
0.040334
0.040352
0.0403721
0.0403946
0.0404193
0.0404459
0.0404732
0.0405013
0.0405287
0.0405582
0.0405806
0.04061
0.040628
0.040649
0.0406677
0.0406859
0.0407034
0.0407224
0.0407416
0.0407609
0.0407799
0.0407984
0.0408163
0.0408342
0.0408518
0.0408685
0.040884
0.0408981
0.0409114
0.0409241
0.0409367
0.0409493
0.0409621
0.0409745
0.0409863
0.0409966
0.0410048
0.0410109
0.0410154
0.0410181
0.0410199
0.0410216
0.0410235
0.0410263
0.0410296
0.0410339
0.0410385
0.0410434
0.0410485
0.0410531
0.0410576
0.0410609
0.0410638
0.0410649
0.0410655
0.0410643
0.0410606
0.0410543
0.0410443
0.0410309
0.0410138
0.0409944
0.0409739
0.0409546
0.0409383
0.0409263
0.0409192
0.0409157
0.0409141
0.0590343
0.0434542
0.0431955
0.0430523
0.0429261
0.0428595
0.0427905
0.0427431
0.0426933
0.0426468
0.0425943
0.0425364
0.0424696
0.0423966
0.0423186
0.0422376
0.042155
0.0420714
0.0419871
0.0419023
0.0418167
0.0417305
0.0416436
0.0415566
0.0414699
0.0413839
0.0412989
0.0412154
0.0411337
0.0410544
0.0409775
0.0409032
0.0408317
0.0407633
0.0406982
0.0406366
0.0405788
0.040525
0.0404753
0.0404299
0.0403892
0.0403537
0.0403238
0.0402993
0.0402801
0.0402659
0.0402565
0.0402517
0.0402512
0.0402555
0.0402648
0.0402772
0.0402917
0.0403083
0.0403269
0.0403478
0.0403707
0.0403955
0.040421
0.0404475
0.0404737
0.0405013
0.0405223
0.0405496
0.0405653
0.0405844
0.0406012
0.0406171
0.040632
0.0406484
0.0406647
0.0406813
0.0406973
0.0407128
0.0407279
0.0407434
0.0407586
0.0407731
0.0407865
0.0407987
0.04081
0.0408208
0.0408315
0.0408423
0.0408533
0.0408637
0.0408735
0.0408814
0.0408879
0.040892
0.0408946
0.0408956
0.0408961
0.0408967
0.0408978
0.0409
0.0409028
0.0409067
0.0409107
0.040915
0.0409195
0.0409236
0.0409276
0.0409307
0.0409335
0.0409345
0.0409353
0.0409343
0.040931
0.0409253
0.040916
0.0409032
0.0408868
0.040868
0.0408481
0.0408293
0.0408135
0.0408019
0.0407951
0.0407921
0.0407915
0.0590393
0.0434492
0.043191
0.0430487
0.0429233
0.0428575
0.042789
0.0427418
0.0426921
0.0426456
0.0425931
0.0425351
0.0424683
0.0423953
0.0423173
0.0422365
0.0421539
0.0420704
0.0419862
0.0419015
0.041816
0.0417297
0.0416427
0.0415556
0.0414685
0.0413821
0.0412966
0.0412124
0.04113
0.0410498
0.0409719
0.0408965
0.0408238
0.040754
0.0406874
0.0406243
0.0405648
0.0405093
0.0404579
0.0404107
0.0403681
0.0403306
0.0402986
0.0402721
0.0402511
0.0402351
0.0402239
0.0402174
0.0402151
0.0402175
0.0402251
0.0402359
0.040249
0.0402641
0.0402814
0.0403008
0.040322
0.0403449
0.0403685
0.0403934
0.0404181
0.0404438
0.0404633
0.0404885
0.0405022
0.0405194
0.0405342
0.0405478
0.0405602
0.0405739
0.0405872
0.0406009
0.040614
0.0406268
0.040639
0.0406518
0.0406644
0.0406765
0.0406876
0.0406977
0.0407071
0.040716
0.040725
0.0407339
0.0407429
0.0407512
0.0407591
0.0407647
0.0407695
0.0407719
0.0407728
0.0407725
0.040772
0.0407719
0.0407726
0.0407745
0.040777
0.0407807
0.0407843
0.0407883
0.0407924
0.0407962
0.0407999
0.0408029
0.0408058
0.0408071
0.0408085
0.0408079
0.0408052
0.0408003
0.0407919
0.04078
0.0407644
0.0407463
0.0407271
0.040709
0.0406938
0.0406828
0.0406764
0.0406741
0.0406745
0.0590448
0.0434439
0.0431864
0.0430451
0.0429205
0.0428555
0.0427875
0.0427405
0.0426908
0.0426443
0.0425918
0.0425339
0.042467
0.0423941
0.0423161
0.0422353
0.0421529
0.0420694
0.0419854
0.0419007
0.0418152
0.0417289
0.0416419
0.0415545
0.0414672
0.0413803
0.0412943
0.0412095
0.0411263
0.0410452
0.0409663
0.0408898
0.0408159
0.0407448
0.0406768
0.040612
0.0405509
0.0404936
0.0404404
0.0403914
0.0403468
0.0403073
0.0402732
0.0402447
0.0402218
0.0402039
0.0401909
0.0401826
0.0401788
0.0401794
0.0401847
0.040194
0.0402056
0.0402193
0.0402352
0.0402531
0.0402726
0.0402935
0.0403151
0.0403383
0.0403614
0.040385
0.0404031
0.0404264
0.0404382
0.0404536
0.0404665
0.0404778
0.0404878
0.040499
0.0405093
0.0405202
0.0405306
0.0405408
0.0405504
0.0405605
0.0405701
0.0405793
0.0405877
0.0405955
0.0406028
0.0406102
0.0406177
0.0406251
0.0406326
0.0406393
0.0406455
0.0406492
0.0406523
0.0406533
0.0406528
0.0406511
0.0406498
0.0406491
0.0406492
0.0406506
0.0406527
0.040656
0.0406591
0.0406625
0.040666
0.0406694
0.0406727
0.0406756
0.0406782
0.0406797
0.0406814
0.0406811
0.0406789
0.0406747
0.0406668
0.0406556
0.0406406
0.040623
0.0406043
0.0405866
0.0405719
0.0405614
0.0405554
0.0405533
0.0405545
0.05905
0.0434385
0.0431817
0.0430415
0.0429176
0.0428534
0.042786
0.0427391
0.0426896
0.0426431
0.0425905
0.0425326
0.0424657
0.0423928
0.0423149
0.0422342
0.0421518
0.0420685
0.0419845
0.0418999
0.0418145
0.0417282
0.041641
0.0415535
0.0414659
0.0413786
0.0412921
0.0412066
0.0411227
0.0410407
0.0409609
0.0408833
0.0408081
0.0407357
0.0406662
0.0405999
0.0405371
0.0404781
0.0404231
0.0403722
0.0403257
0.0402841
0.0402479
0.0402174
0.0401924
0.0401727
0.0401578
0.0401476
0.0401423
0.0401411
0.0401443
0.0401519
0.040162
0.0401742
0.0401887
0.0402052
0.040223
0.040242
0.0402618
0.0402831
0.0403043
0.0403259
0.0403426
0.0403641
0.0403742
0.040388
0.0403989
0.0404081
0.040416
0.0404247
0.0404322
0.0404403
0.040448
0.0404556
0.0404626
0.0404702
0.0404768
0.0404829
0.0404881
0.040493
0.0404979
0.0405032
0.0405089
0.0405148
0.0405207
0.0405259
0.0405308
0.0405327
0.0405341
0.0405336
0.0405316
0.040529
0.0405266
0.0405254
0.0405251
0.0405261
0.040528
0.0405309
0.0405335
0.0405365
0.0405395
0.0405425
0.0405456
0.0405483
0.0405508
0.0405525
0.0405544
0.0405545
0.0405528
0.0405492
0.040542
0.0405314
0.0405169
0.0404998
0.0404813
0.040464
0.0404495
0.0404394
0.0404338
0.040432
0.0404339
0.0590559
0.043433
0.043177
0.0430378
0.0429147
0.0428514
0.0427845
0.0427378
0.0426883
0.0426419
0.0425893
0.0425313
0.0424644
0.0423915
0.0423137
0.0422331
0.0421508
0.0420675
0.0419836
0.0418991
0.0418138
0.0417274
0.0416402
0.0415525
0.0414646
0.041377
0.0412899
0.0412039
0.0411192
0.0410363
0.0409555
0.0408768
0.0408005
0.0407267
0.0406557
0.0405878
0.0405233
0.0404625
0.0404057
0.040353
0.0403045
0.0402609
0.0402225
0.0401899
0.0401629
0.0401412
0.0401244
0.0401124
0.0401052
0.0401024
0.0401037
0.0401093
0.0401179
0.0401286
0.0401416
0.0401567
0.0401729
0.0401901
0.040208
0.0402273
0.0402464
0.0402658
0.040281
0.0403009
0.0403095
0.0403217
0.0403306
0.0403378
0.0403439
0.0403506
0.0403555
0.040361
0.0403662
0.040371
0.0403755
0.0403804
0.0403841
0.0403873
0.0403895
0.0403914
0.0403936
0.0403965
0.0404002
0.0404043
0.0404087
0.0404126
0.0404162
0.0404164
0.0404161
0.0404143
0.0404111
0.0404073
0.040404
0.0404021
0.0404013
0.0404018
0.0404032
0.0404056
0.0404076
0.04041
0.0404123
0.0404147
0.0404172
0.0404197
0.0404219
0.0404238
0.0404255
0.0404258
0.0404244
0.040421
0.0404143
0.040404
0.0403898
0.0403728
0.0403544
0.040337
0.0403225
0.0403125
0.040307
0.0403053
0.0403074
0.0590625
0.0434273
0.0431722
0.0430341
0.0429118
0.0428494
0.042783
0.0427364
0.0426871
0.0426407
0.042588
0.04253
0.0424631
0.0423902
0.0423125
0.0422319
0.0421497
0.0420665
0.0419827
0.0418983
0.041813
0.0417267
0.0416394
0.0415515
0.0414634
0.0413753
0.0412878
0.0412011
0.0411157
0.041032
0.0409502
0.0408704
0.0407929
0.0407178
0.0406454
0.0405759
0.0405097
0.0404471
0.0403885
0.0403338
0.0402834
0.0402377
0.0401972
0.0401624
0.0401333
0.0401097
0.040091
0.040077
0.040068
0.0400637
0.0400632
0.0400666
0.0400735
0.0400827
0.0400943
0.0401079
0.0401227
0.0401383
0.0401544
0.0401718
0.0401886
0.0402057
0.0402193
0.0402376
0.0402447
0.0402551
0.0402618
0.040267
0.0402714
0.0402764
0.0402794
0.0402828
0.0402855
0.0402875
0.0402892
0.0402912
0.0402921
0.0402925
0.0402918
0.0402908
0.0402901
0.0402902
0.0402913
0.0402932
0.0402956
0.0402979
0.0403001
0.0402987
0.0402969
0.0402936
0.040289
0.0402841
0.0402801
0.0402774
0.0402762
0.0402762
0.0402771
0.0402789
0.0402803
0.040282
0.0402836
0.0402854
0.0402875
0.0402896
0.0402917
0.0402936
0.0402951
0.0402954
0.0402944
0.0402912
0.0402848
0.0402748
0.0402609
0.040244
0.0402256
0.040208
0.0401934
0.0401834
0.040178
0.0401765
0.0401788
0.0590692
0.0434214
0.0431674
0.0430304
0.0429089
0.0428473
0.0427814
0.0427351
0.0426858
0.0426394
0.0425867
0.0425287
0.0424618
0.042389
0.0423112
0.0422308
0.0421486
0.0420656
0.0419819
0.0418975
0.0418123
0.041726
0.0416386
0.0415505
0.0414621
0.0413738
0.0412857
0.0411985
0.0411124
0.0410278
0.040945
0.0408642
0.0407854
0.040709
0.0406351
0.0405641
0.0404961
0.0404318
0.0403713
0.0403147
0.0402624
0.0402145
0.0401719
0.0401348
0.0401036
0.0400779
0.0400572
0.0400413
0.0400304
0.0400244
0.0400223
0.0400237
0.0400287
0.0400363
0.0400464
0.0400585
0.0400719
0.0400859
0.0401004
0.0401159
0.0401303
0.0401451
0.040157
0.0401736
0.0401793
0.0401878
0.0401921
0.0401951
0.0401979
0.0402012
0.0402025
0.0402042
0.0402046
0.040204
0.040203
0.0402022
0.0402004
0.0401982
0.0401949
0.0401911
0.0401875
0.0401847
0.0401829
0.0401823
0.0401825
0.0401828
0.0401835
0.0401808
0.0401775
0.0401728
0.0401669
0.040161
0.0401561
0.0401526
0.0401507
0.0401501
0.0401503
0.0401513
0.0401519
0.0401527
0.0401534
0.0401545
0.0401558
0.0401575
0.0401592
0.0401608
0.0401619
0.0401621
0.040161
0.0401578
0.0401515
0.0401415
0.0401276
0.0401107
0.040092
0.040074
0.0400591
0.0400488
0.0400433
0.0400418
0.0400441
0.0590763
0.0434153
0.0431624
0.0430266
0.0429059
0.0428452
0.0427799
0.0427337
0.0426845
0.0426382
0.0425855
0.0425274
0.0424605
0.0423877
0.04231
0.0422296
0.0421476
0.0420646
0.041981
0.0418968
0.0418116
0.0417252
0.0416378
0.0415496
0.0414609
0.0413722
0.0412837
0.0411959
0.041109
0.0410237
0.0409399
0.040858
0.0407781
0.0407004
0.040625
0.0405524
0.0404827
0.0404166
0.0403542
0.0402957
0.0402414
0.0401915
0.0401466
0.0401073
0.0400739
0.0400461
0.0400234
0.0400055
0.0399927
0.0399849
0.0399813
0.039981
0.0399838
0.0399897
0.0399982
0.0400089
0.0400208
0.0400335
0.0400464
0.0400601
0.0400724
0.0400849
0.040095
0.0401099
0.0401142
0.0401206
0.0401224
0.0401228
0.0401233
0.0401245
0.0401239
0.0401241
0.0401225
0.0401195
0.0401158
0.0401121
0.0401078
0.0401034
0.0400978
0.0400919
0.0400857
0.04008
0.0400752
0.0400717
0.0400691
0.0400672
0.0400658
0.0400617
0.0400567
0.0400505
0.0400433
0.0400363
0.0400304
0.0400262
0.0400235
0.0400222
0.0400218
0.0400218
0.0400216
0.0400215
0.0400213
0.0400215
0.0400221
0.0400231
0.0400245
0.0400259
0.0400264
0.0400264
0.0400252
0.0400219
0.0400156
0.0400057
0.0399918
0.0399748
0.0399558
0.0399374
0.039922
0.0399114
0.0399059
0.0399043
0.0399065
0.0590837
0.0434091
0.0431574
0.0430227
0.0429029
0.0428431
0.0427784
0.0427323
0.0426832
0.0426369
0.0425842
0.0425261
0.0424592
0.0423864
0.0423088
0.0422285
0.0421465
0.0420636
0.0419801
0.041896
0.0418108
0.0417245
0.041637
0.0415487
0.0414598
0.0413707
0.0412817
0.0411933
0.0411058
0.0410196
0.0409349
0.0408519
0.0407708
0.0406918
0.040615
0.0405408
0.0404694
0.0404014
0.0403371
0.0402768
0.0402204
0.0401684
0.0401213
0.0400798
0.0400441
0.0400141
0.0399893
0.0399694
0.0399546
0.0399449
0.0399397
0.0399378
0.0399386
0.0399427
0.0399496
0.0399587
0.0399693
0.0399806
0.0399921
0.0400041
0.0400144
0.0400247
0.0400331
0.040046
0.0400485
0.0400527
0.0400519
0.0400498
0.0400474
0.0400461
0.0400433
0.0400414
0.0400379
0.0400331
0.0400274
0.0400212
0.0400145
0.0400077
0.04
0.039992
0.0399837
0.0399757
0.0399683
0.0399621
0.0399569
0.0399526
0.0399485
0.0399426
0.0399357
0.0399279
0.0399193
0.0399112
0.0399044
0.0398993
0.0398959
0.0398937
0.0398925
0.0398915
0.0398901
0.0398889
0.0398875
0.0398866
0.0398862
0.0398864
0.0398871
0.0398881
0.0398877
0.0398873
0.0398857
0.0398819
0.0398753
0.0398651
0.0398511
0.0398338
0.0398144
0.0397955
0.0397795
0.0397685
0.0397627
0.0397611
0.0397631
0.0590916
0.0434027
0.0431523
0.0430189
0.0428999
0.042841
0.0427768
0.0427309
0.0426819
0.0426357
0.0425829
0.0425248
0.0424579
0.0423851
0.0423075
0.0422273
0.0421454
0.0420627
0.0419792
0.0418952
0.0418101
0.0417238
0.0416362
0.0415477
0.0414586
0.0413692
0.0412798
0.0411908
0.0411026
0.0410156
0.04093
0.0408459
0.0407637
0.0406833
0.0406051
0.0405293
0.0404562
0.0403864
0.0403202
0.0402579
0.0401995
0.0401454
0.0400961
0.0400523
0.0400143
0.039982
0.0399551
0.0399331
0.0399163
0.0399047
0.0398978
0.0398943
0.0398935
0.0398956
0.0399008
0.0399084
0.0399175
0.0399275
0.0399377
0.0399481
0.0399565
0.0399648
0.0399716
0.0399824
0.0399828
0.0399851
0.0399819
0.0399774
0.0399724
0.039968
0.0399625
0.039958
0.0399523
0.0399456
0.0399379
0.0399294
0.0399204
0.0399111
0.0399012
0.0398911
0.0398808
0.0398707
0.0398612
0.0398527
0.039845
0.0398382
0.039831
0.0398231
0.0398138
0.0398039
0.0397937
0.0397843
0.0397765
0.0397705
0.0397663
0.0397632
0.039761
0.039759
0.0397565
0.0397541
0.0397515
0.0397495
0.039748
0.0397472
0.039747
0.0397474
0.0397463
0.0397452
0.0397429
0.0397385
0.0397314
0.0397209
0.0397067
0.0396889
0.039669
0.0396493
0.0396326
0.0396211
0.039615
0.0396133
0.0396151
0.0590995
0.0433963
0.0431472
0.043015
0.0428968
0.0428389
0.0427752
0.0427295
0.0426806
0.0426344
0.0425816
0.0425235
0.0424565
0.0423838
0.0423063
0.0422262
0.0421444
0.0420617
0.0419784
0.0418944
0.0418094
0.0417231
0.0416355
0.0415469
0.0414575
0.0413678
0.0412779
0.0411884
0.0410995
0.0410117
0.0409251
0.0408401
0.0407566
0.040675
0.0405954
0.040518
0.0404432
0.0403715
0.0403033
0.040239
0.0401786
0.0401224
0.0400709
0.0400247
0.0399844
0.0399498
0.0399207
0.0398966
0.0398777
0.0398641
0.0398554
0.0398503
0.039848
0.0398483
0.0398515
0.0398575
0.0398652
0.0398738
0.0398827
0.0398916
0.0398983
0.0399048
0.0399097
0.0399184
0.039917
0.0399177
0.0399125
0.0399056
0.0398981
0.0398908
0.0398825
0.0398752
0.0398671
0.0398584
0.0398488
0.0398381
0.0398267
0.0398148
0.0398024
0.03979
0.0397776
0.0397656
0.0397542
0.0397437
0.0397338
0.0397246
0.0397144
0.0397041
0.0396924
0.0396802
0.0396681
0.0396572
0.0396481
0.0396409
0.0396355
0.0396313
0.0396279
0.0396246
0.0396208
0.0396171
0.0396131
0.0396099
0.0396071
0.0396053
0.039604
0.0396035
0.0396013
0.0395994
0.0395961
0.0395909
0.039583
0.0395718
0.039557
0.0395386
0.0395179
0.0394972
0.0394795
0.0394671
0.0394606
0.0394587
0.0394603
0.0591079
0.0433896
0.0431419
0.043011
0.0428937
0.0428367
0.0427736
0.0427281
0.0426793
0.0426331
0.0425803
0.0425222
0.0424552
0.0423825
0.0423051
0.042225
0.0421433
0.0420607
0.0419775
0.0418936
0.0418086
0.0417224
0.0416347
0.041546
0.0414564
0.0413663
0.0412761
0.041186
0.0410964
0.0410078
0.0409204
0.0408343
0.0407497
0.0406668
0.0405857
0.0405067
0.0404302
0.0403567
0.0402866
0.0402203
0.0401578
0.0400995
0.0400457
0.0399972
0.0399545
0.0399177
0.0398862
0.0398599
0.0398389
0.0398233
0.0398127
0.0398059
0.0398022
0.0398008
0.0398021
0.0398064
0.0398126
0.0398198
0.0398273
0.0398347
0.0398399
0.0398449
0.0398482
0.0398548
0.0398515
0.0398504
0.039843
0.039834
0.0398244
0.0398146
0.0398036
0.0397933
0.0397824
0.0397713
0.0397595
0.039747