/*--------------------------------*- C++ -*----------------------------------*\
| =========                 |                                                 |
| \\      /  F ield         | OpenFOAM: The Open Source CFD Toolbox           |
|  \\    /   O peration     | Version:  2412                                  |
|   \\  /    A nd           | Website:  www.openfoam.com                      |
|    \\/     M anipulation  |                                                 |
\*---------------------------------------------------------------------------*/
FoamFile
{
    version     2.0;
    format      ascii;
    arch        "LSB;label=32;scalar=64";
    class       volScalarField;
    location    "0.075";
    object      p;
}
// * * * * * * * * * * * * * * * * * * * * * * * * * * * * * * * * * * * * * //

dimensions      [1 -1 -2 0 0 0 0];

internalField   nonuniform List<scalar> 
78650
(
2986.21
2890.27
2891.86
2893.99
2897.84
2902.04
2904.64
2905.23
2904.17
2901.46
2897.45
2892.01
2884.76
2875.83
2866.41
2857.07
2848.31
2840.03
2832.36
2825.25
2818.78
2813.01
2807.86
2803.23
2799.05
2795.26
2791.76
2788.36
2784.92
2781.37
2777.73
2774.06
2770.42
2766.87
2763.41
2760.04
2756.75
2753.55
2750.46
2747.49
2744.68
2742.02
2739.53
2737.23
2735.1
2733.16
2731.39
2729.78
2728.33
2727.02
2725.84
2724.79
2723.83
2722.97
2722.18
2721.45
2720.77
2720.14
2719.52
2718.92
2718.3
2717.64
2716.91
2716.09
2715.12
2713.98
2712.65
2711.09
2709.26
2707.1
2704.56
2701.56
2698.02
2693.88
2689.08
2683.55
2677.2
2669.93
2661.64
2652.16
2641.38
2629.15
2615.36
2599.87
2582.55
2563.21
2541.72
2517.87
2491.62
2462.93
2431.65
2397.23
2359.7
2318.85
2275.88
2229.9
2181.17
2129.09
2072.61
2014.84
1956.93
1900.19
1839.69
1777.86
1713.45
1649.66
1589.09
1530.42
1477.01
1427.88
1381.54
1339.74
1300.5
1265.02
1232.96
1202.01
1174.41
1149.22
1128.66
1111.24
1074.25
2956.59
2878.8
2884.81
2888.77
2893.66
2898.78
2902.55
2903.99
2903.43
2901.26
2897.35
2891.9
2884.72
2875.82
2866.34
2856.86
2847.99
2839.68
2832.03
2824.98
2818.59
2812.92
2807.88
2803.36
2799.33
2795.72
2792.43
2789.29
2786.11
2782.83
2779.44
2775.99
2772.54
2769.17
2765.89
2762.7
2759.59
2756.56
2753.63
2750.82
2748.16
2745.66
2743.33
2741.19
2739.24
2737.47
2735.89
2734.47
2733.21
2732.1
2731.13
2730.29
2729.57
2728.95
2728.41
2727.94
2727.55
2727.2
2726.89
2726.62
2726.35
2726.06
2725.73
2725.33
2724.82
2724.17
2723.36
2722.36
2721.13
2719.63
2717.81
2715.58
2712.88
2709.65
2705.83
2701.36
2696.16
2690.14
2683.21
2675.22
2666.05
2655.56
2643.65
2630.18
2615.04
2598.01
2578.92
2557.57
2533.91
2507.78
2478.96
2447.12
2412.49
2375.02
2335.2
2291.79
2245.54
2195.89
2143.49
2087.49
2028.5
1968.67
1909.13
1851.14
1792.25
1731.46
1671.67
1610.47
1551.15
1494.92
1440.57
1390.08
1344.55
1302.73
1265.52
1231.08
1200.48
1172.73
1149.08
1129.22
1088.54
2926.64
2863.12
2873.84
2880.66
2887.36
2893.72
2898.72
2901.26
2901.59
2900.26
2896.76
2891.43
2884.37
2875.55
2866.05
2856.48
2847.55
2839.24
2831.64
2824.68
2818.39
2812.83
2807.91
2803.52
2799.64
2796.2
2793.11
2790.2
2787.28
2784.27
2781.14
2777.92
2774.68
2771.49
2768.39
2765.38
2762.45
2759.6
2756.85
2754.21
2751.7
2749.36
2747.19
2745.22
2743.44
2741.85
2740.45
2739.22
2738.16
2737.26
2736.51
2735.89
2735.4
2735.02
2734.73
2734.53
2734.41
2734.36
2734.36
2734.41
2734.49
2734.57
2734.63
2734.65
2734.6
2734.43
2734.14
2733.7
2733.06
2732.19
2731.06
2729.58
2727.69
2725.34
2722.46
2719
2714.89
2710.05
2704.39
2697.78
2690.12
2681.24
2671.06
2659.43
2646.25
2631.31
2614.48
2595.59
2574.54
2551.16
2525.24
2496.61
2465.38
2431.34
2394.55
2354.14
2310.84
2263.73
2213.86
2161.19
2105.14
2044.91
1982.8
1918.9
1857
1795.46
1735.89
1677.52
1618.67
1561.68
1505.31
1451.26
1399.93
1352.69
1308.39
1267.47
1230.6
1196.11
1166.09
1140.41
1090.2
2899.14
2843.94
2857.55
2868.56
2878.6
2886.77
2893.04
2897.11
2898.47
2897.95
2895.38
2890.49
2883.57
2874.94
2865.51
2855.98
2847.03
2838.77
2831.25
2824.4
2818.23
2812.77
2807.96
2803.72
2799.98
2796.7
2793.8
2791.11
2788.45
2785.71
2782.86
2779.89
2776.87
2773.88
2770.96
2768.13
2765.39
2762.73
2760.15
2757.68
2755.34
2753.16
2751.15
2749.34
2747.72
2746.31
2745.09
2744.06
2743.2
2742.5
2741.95
2741.55
2741.29
2741.15
2741.11
2741.17
2741.32
2741.55
2741.86
2742.22
2742.63
2743.07
2743.51
2743.93
2744.31
2744.61
2744.81
2744.89
2744.82
2744.56
2744.09
2743.34
2742.22
2740.72
2738.74
2736.26
2733.2
2729.5
2725.08
2719.83
2713.63
2706.36
2697.91
2688.13
2676.95
2664.18
2649.71
2633.32
2614.87
2594.12
2570.9
2545.08
2516.71
2485.47
2451.23
2413.36
2372.69
2328.75
2282.6
2233.21
2180.76
2125.35
2066.32
2003.44
1937.95
1871.55
1803.67
1739
1675.84
1615.21
1558.16
1503.26
1450.28
1401
1353.65
1310.46
1272.53
1237.64
1205.45
1176.07
1119.28
2875.12
2823.68
2836.97
2850.73
2865.15
2877.02
2885.79
2891.47
2894.12
2894.49
2892.99
2888.83
2882.2
2873.88
2864.64
2855.29
2846.4
2838.23
2830.83
2824.12
2818.09
2812.76
2808.07
2803.97
2800.37
2797.26
2794.53
2792.04
2789.62
2787.16
2784.59
2781.88
2779.1
2776.31
2773.59
2770.95
2768.39
2765.92
2763.54
2761.25
2759.09
2757.07
2755.23
2753.57
2752.13
2750.89
2749.86
2749.01
2748.35
2747.86
2747.53
2747.34
2747.31
2747.41
2747.62
2747.94
2748.35
2748.87
2749.47
2750.14
2750.88
2751.67
2752.48
2753.31
2754.11
2754.87
2755.55
2756.14
2756.62
2756.95
2757.1
2757.04
2756.68
2755.99
2754.88
2753.33
2751.27
2748.65
2745.4
2741.41
2736.6
2730.82
2723.96
2715.91
2706.57
2695.79
2683.44
2669.33
2653.28
2635.1
2614.71
2591.98
2566.82
2538.78
2507.75
2473.48
2436.54
2396.19
2352.81
2305.34
2254.67
2200.74
2143.85
2085.09
2023.25
1960.61
1894.5
1826.27
1758.75
1689.68
1624.09
1559.87
1498.47
1441.81
1388.79
1340.87
1298.46
1259.28
1226.08
1199.09
1144.33
2859.26
2808.25
2816.57
2828.55
2846.01
2862.67
2875.59
2884.01
2888.44
2889.87
2889.21
2886.15
2880.2
2872.4
2863.48
2854.42
2845.68
2837.68
2830.42
2823.87
2817.99
2812.81
2808.24
2804.29
2800.84
2797.87
2795.29
2792.99
2790.81
2788.62
2786.33
2783.9
2781.36
2778.81
2776.29
2773.85
2771.49
2769.21
2767.02
2764.92
2762.95
2761.11
2759.43
2757.94
2756.66
2755.6
2754.74
2754.09
2753.63
2753.34
2753.22
2753.26
2753.46
2753.78
2754.23
2754.8
2755.49
2756.28
2757.17
2758.15
2759.21
2760.33
2761.5
2762.71
2763.92
2765.12
2766.27
2767.35
2768.36
2769.27
2770.02
2770.6
2770.95
2771.04
2770.77
2770.13
2769.05
2767.47
2765.35
2762.58
2759.1
2754.78
2749.52
2743.19
2735.69
2726.89
2716.68
2704.87
2691.31
2675.82
2658.28
2638.48
2616.21
2591.09
2563.09
2532.05
2498.19
2460.83
2420.27
2375.59
2327.62
2275.89
2220.81
2162.45
2101.04
2037.17
1972.9
1907.6
1843.56
1777.9
1711.9
1646.88
1580.95
1518.34
1457.31
1401.16
1349.51
1300.6
1256.67
1219.99
1147.88
2851.8
2803.71
2804.4
2807.75
2821.46
2841.42
2860.49
2873.85
2881.36
2884.51
2884.77
2882.83
2877.8
2870.52
2861.95
2853.25
2844.75
2836.96
2829.92
2823.57
2817.91
2812.9
2808.49
2804.68
2801.38
2798.54
2796.1
2793.97
2792
2790.08
2788.06
2785.91
2783.64
2781.33
2779.04
2776.81
2774.65
2772.56
2770.57
2768.67
2766.89
2765.24
2763.75
2762.43
2761.32
2760.43
2759.76
2759.29
2759.03
2758.95
2759.05
2759.31
2759.72
2760.28
2760.98
2761.81
2762.76
2763.82
2765
2766.28
2767.65
2769.11
2770.64
2772.22
2773.83
2775.45
2777.06
2778.63
2780.14
2781.59
2782.95
2784.17
2785.2
2786
2786.53
2786.74
2786.6
2786.03
2784.99
2783.35
2781.12
2778.15
2774.36
2769.61
2763.81
2756.84
2748.61
2738.94
2727.7
2714.7
2699.78
2682.72
2663.32
2641.36
2616.84
2589.59
2559.56
2526.01
2489.09
2448.21
2404.14
2356.28
2304.89
2249.77
2190.85
2127.58
2060.22
1990.28
1918.55
1848.75
1779.16
1713.08
1647.63
1584.01
1522.36
1464.07
1410.38
1360.32
1314.62
1274.3
1196.06
2848.3
2804.12
2799.59
2794.92
2800.28
2816.09
2838.3
2858.68
2872.38
2878.63
2880.18
2879.15
2875.24
2868.6
2860.37
2851.92
2843.66
2836.11
2829.34
2823.25
2817.85
2813.04
2808.79
2805.13
2801.98
2799.26
2796.95
2794.97
2793.21
2791.52
2789.78
2787.91
2785.92
2783.87
2781.82
2779.81
2777.87
2775.99
2774.2
2772.51
2770.93
2769.47
2768.17
2767.04
2766.1
2765.38
2764.89
2764.61
2764.54
2764.67
2764.98
2765.45
2766.09
2766.89
2767.83
2768.91
2770.11
2771.44
2772.9
2774.47
2776.16
2777.94
2779.8
2781.75
2783.74
2785.78
2787.82
2789.85
2791.87
2793.84
2795.76
2797.58
2799.27
2800.79
2802.08
2803.1
2803.81
2804.18
2804.2
2803.69
2802.69
2801.03
2798.67
2795.48
2791.37
2786.21
2779.93
2772.38
2763.41
2752.85
2740.53
2726.24
2709.83
2691.12
2670.01
2646.15
2619.33
2589.05
2555.65
2518.7
2478.67
2434.81
2387.32
2335.98
2280.78
2222.06
2159.52
2093.41
2022.98
1949.9
1875.14
1798.42
1725.29
1650.01
1580.18
1512.13
1449.82
1393.91
1345.62
1306.14
1225.65
2845.17
2806.11
2800.06
2791.61
2788.84
2795.28
2812.74
2836.71
2857.61
2870.26
2875.3
2875.5
2873
2867.13
2859.2
2850.78
2842.68
2835.35
2828.8
2822.94
2817.79
2813.18
2809.14
2805.64
2802.63
2800.04
2797.84
2796.01
2794.43
2792.96
2791.47
2789.87
2788.17
2786.39
2784.59
2782.83
2781.12
2779.46
2777.88
2776.38
2775.01
2773.76
2772.66
2771.72
2770.97
2770.43
2770.11
2770.02
2770.15
2770.49
2771
2771.7
2772.56
2773.59
2774.77
2776.1
2777.56
2779.16
2780.9
2782.76
2784.74
2786.84
2789.04
2791.34
2793.71
2796.15
2798.61
2801.1
2803.59
2806.08
2808.53
2810.94
2813.25
2815.44
2817.46
2819.28
2820.85
2822.1
2823.03
2823.58
2823.72
2823.3
2822.28
2820.54
2817.97
2814.49
2810
2804.38
2797.52
2789.26
2779.44
2767.86
2754.37
2738.74
2720.81
2700.25
2676.89
2650.38
2620.91
2587.9
2551.49
2510.84
2466.17
2417.24
2364.2
2307.49
2246.91
2182.71
2115.62
2045.22
1974.74
1900.95
1829.44
1754.12
1679.48
1606.65
1533.44
1467.52
1405.43
1352.44
1249.62
2840.82
2808.39
2802.75
2792.45
2785.96
2785.16
2792.35
2811.11
2836.14
2857.23
2868.17
2871.23
2870.34
2865.86
2858.7
2850.37
2842.33
2835.03
2828.47
2822.7
2817.72
2813.31
2809.48
2806.16
2803.31
2800.84
2798.76
2797.07
2795.66
2794.39
2793.13
2791.81
2790.38
2788.87
2787.34
2785.83
2784.37
2782.95
2781.59
2780.3
2779.13
2778.09
2777.19
2776.45
2775.9
2775.55
2775.42
2775.52
2775.85
2776.37
2777.09
2778
2779.09
2780.35
2781.77
2783.34
2785.06
2786.92
2788.92
2791.06
2793.34
2795.75
2798.27
2800.91
2803.64
2806.45
2809.33
2812.25
2815.2
2818.17
2821.14
2824.1
2827.01
2829.85
2832.56
2835.12
2837.48
2839.61
2841.49
2843.03
2844.19
2844.94
2845.21
2844.89
2843.86
2842.04
2839.31
2835.6
2830.79
2824.76
2817.33
2808.32
2797.55
2784.84
2769.98
2752.71
2732.86
2710.18
2684.68
2655.77
2623.45
2586.96
2546.56
2501.86
2452.89
2399.74
2341.85
2279.62
2212.97
2141.94
2066.69
1988.9
1909.34
1833.76
1756.9
1686.39
1612.75
1546.3
1484.83
1429.71
1322.36
2835.12
2809.9
2806.45
2796.44
2786.96
2782.53
2782.76
2790.81
2810.49
2835.82
2855.78
2865.28
2866.93
2864.46
2858.41
2850.54
2842.53
2835.13
2828.32
2822.55
2817.66
2813.4
2809.78
2806.66
2803.97
2801.65
2799.7
2798.14
2796.88
2795.79
2794.75
2793.68
2792.52
2791.28
2790.02
2788.77
2787.57
2786.4
2785.28
2784.22
2783.26
2782.42
2781.73
2781.2
2780.85
2780.7
2780.76
2781.07
2781.57
2782.3
2783.23
2784.35
2785.66
2787.15
2788.8
2790.61
2792.58
2794.7
2796.97
2799.39
2801.96
2804.66
2807.5
2810.47
2813.55
2816.74
2820.01
2823.35
2826.74
2830.18
2833.65
2837.13
2840.61
2844.06
2847.43
2850.7
2853.82
2856.77
2859.5
2861.99
2864.19
2866.02
2867.42
2868.34
2868.71
2868.45
2867.37
2865.44
2862.5
2858.52
2853.32
2846.77
2838.67
2828.86
2817.12
2803.21
2786.97
2768.13
2746.55
2721.65
2693.46
2661.39
2625.73
2585.95
2542
2493.73
2440.66
2383.32
2321.13
2254.35
2182.72
2106.85
2025.17
1942.53
1855.91
1770.52
1684.22
1604.74
1534.44
1474.71
1352.63
2828.92
2810.41
2809.49
2801.96
2790.84
2783.21
2780.39
2781.31
2790.18
2810.2
2834.72
2852.92
2860.38
2860.84
2857.22
2850.49
2842.91
2835.59
2828.59
2822.67
2817.69
2813.47
2810
2807.07
2804.58
2802.44
2800.63
2799.21
2798.1
2797.19
2796.36
2795.53
2794.62
2793.63
2792.63
2791.65
2790.71
2789.8
2788.94
2788.11
2787.37
2786.74
2786.26
2785.94
2785.79
2785.84
2786.13
2786.61
2787.32
2788.25
2789.38
2790.72
2792.24
2793.95
2795.83
2797.88
2800.09
2802.46
2804.98
2807.67
2810.52
2813.51
2816.65
2819.94
2823.35
2826.89
2830.54
2834.27
2838.09
2841.97
2845.91
2849.9
2853.92
2857.94
2861.93
2865.86
2869.7
2873.42
2876.99
2880.37
2883.52
2886.39
2888.94
2891.1
2892.76
2893.87
2894.37
2894.22
2893.13
2891.18
2888.1
2883.87
2878.27
2871.14
2862.28
2851.48
2838.58
2823.28
2805.38
2784.42
2760.42
2732.82
2701.74
2666.43
2626.82
2582.51
2533.19
2479.29
2420.1
2356.42
2287.95
2214.88
2138.72
2058.47
1975.61
1890.54
1806.11
1720.26
1636.33
1561.81
1419.06
2822.96
2810.6
2811.16
2806.65
2796.34
2786.23
2780.98
2779.69
2781.16
2790.58
2809.76
2831.98
2847.81
2853.91
2853.21
2848.87
2842.85
2835.95
2829.1
2823.02
2817.87
2813.59
2810.17
2807.4
2805.09
2803.14
2801.49
2800.21
2799.27
2798.53
2797.89
2797.29
2796.62
2795.87
2795.12
2794.39
2793.72
2793.09
2792.49
2791.93
2791.42
2791.01
2790.74
2790.63
2790.69
2790.96
2791.43
2792.12
2793.04
2794.17
2795.51
2797.05
2798.79
2800.71
2802.82
2805.1
2807.54
2810.16
2812.94
2815.89
2819.01
2822.28
2825.72
2829.31
2833.05
2836.93
2840.94
2845.06
2849.28
2853.59
2857.98
2862.44
2866.97
2871.54
2876.12
2880.68
2885.2
2889.64
2893.98
2898.19
2902.24
2906.08
2909.66
2912.93
2915.84
2918.3
2920.19
2921.48
2922.1
2922.05
2920.96
2918.94
2915.67
2911.13
2905.07
2897.34
2887.72
2875.93
2861.76
2844.82
2825.09
2802.01
2775.55
2744.91
2710.09
2670.56
2626.08
2576.69
2521.52
2461.33
2395.4
2324.3
2247.59
2164.82
2079.53
1987.57
1898.65
1809.36
1727.9
1658.43
1521.33
2817.05
2810.31
2811.93
2809.8
2801.86
2791.41
2783.75
2780.56
2780.43
2782.61
2791.53
2808.14
2826.7
2839.83
2845.14
2845.08
2841.57
2835.64
2829.23
2823.25
2818.15
2813.81
2810.39
2807.7
2805.52
2803.75
2802.28
2801.15
2800.37
2799.81
2799.39
2799.01
2798.56
2798.04
2797.52
2797.03
2796.62
2796.26
2795.94
2795.63
2795.38
2795.2
2795.14
2795.24
2795.51
2795.98
2796.66
2797.57
2798.7
2800.04
2801.59
2803.34
2805.29
2807.42
2809.75
2812.25
2814.93
2817.78
2820.81
2824.01
2827.38
2830.93
2834.64
2838.53
2842.57
2846.77
2851.12
2855.6
2860.2
2864.91
2869.73
2874.64
2879.65
2884.72
2889.85
2895
2900.15
2905.27
2910.34
2915.33
2920.22
2924.97
2929.53
2933.86
2937.91
2941.62
2944.91
2947.71
2949.88
2951.42
2952.25
2952.36
2951.32
2949.22
2945.74
2940.82
2934.23
2925.73
2915.13
2902.12
2886.57
2867.94
2846.13
2820.43
2790.9
2756.89
2718.22
2674.63
2625.46
2571.11
2510.48
2444.2
2371.74
2293.5
2209.71
2121.53
2028.66
1928.24
1827.33
1738.42
1571.62
2810.75
2809.71
2812.5
2811.91
2806.65
2797.32
2788.6
2783.23
2781.52
2782.13
2784.69
2791.89
2804.36
2818.54
2829.33
2834.68
2835.55
2832.53
2827.83
2822.97
2818.23
2813.93
2810.49
2807.84
2805.78
2804.25
2802.96
2801.97
2801.35
2800.97
2800.75
2800.6
2800.38
2800.07
2799.77
2799.51
2799.35
2799.26
2799.21
2799.19
2799.2
2799.27
2799.44
2799.76
2800.24
2800.91
2801.8
2802.91
2804.25
2805.81
2807.57
2809.53
2811.68
2814.03
2816.57
2819.29
2822.19
2825.27
2828.53
2831.97
2835.6
2839.41
2843.39
2847.56
2851.9
2856.41
2861.09
2865.91
2870.87
2875.97
2881.19
2886.53
2891.99
2897.54
2903.18
2908.89
2914.63
2920.38
2926.13
2931.85
2937.51
2943.1
2948.56
2953.86
2958.96
2963.81
2968.34
2972.46
2976.14
2979.28
2981.78
2983.6
2984.64
2984.86
2983.86
2981.66
2977.96
2972.64
2965.48
2956.2
2944.61
2930.2
2912.87
2891.99
2867.57
2838.83
2805.64
2767.46
2723.69
2674.38
2618.54
2556.83
2488.35
2414
2333.2
2246.74
2153.49
2061.08
1958.6
1873.03
1710.77
2804.71
2809.09
2813.08
2813.33
2810.37
2802.72
2794.09
2787.45
2784
2783.26
2784.31
2786.31
2790.71
2798.23
2807.79
2817.27
2823.84
2826.25
2825.06
2821.67
2817.62
2813.71
2810.43
2807.82
2805.95
2804.65
2803.55
2802.71
2802.21
2801.99
2801.98
2802.07
2802.08
2802
2801.91
2801.86
2801.93
2802.09
2802.32
2802.57
2802.85
2803.18
2803.59
2804.13
2804.83
2805.71
2806.8
2808.12
2809.67
2811.44
2813.42
2815.6
2817.97
2820.53
2823.27
2826.2
2829.32
2832.62
2836.11
2839.78
2843.65
2847.7
2851.95
2856.38
2861
2865.8
2870.78
2875.92
2881.22
2886.68
2892.27
2898.01
2903.89
2909.89
2916
2922.22
2928.5
2934.84
2941.22
2947.6
2953.99
2960.35
2966.64
2972.85
2978.92
2984.83
2990.51
2995.9
3000.93
3005.54
3009.67
3013.26
3016.16
3018.3
3019.56
3019.9
3018.91
3016.57
3012.6
3006.78
2998.91
2988.57
2975.66
2959.57
2940.25
2916.87
2889.33
2856.87
2819.04
2775.63
2725.75
2669.76
2606.36
2536.24
2457.85
2372.96
2280.4
2183.54
2074.35
1973.47
1791.78
2800.21
2807.81
2813.01
2814.47
2813
2807.12
2799.03
2792.09
2787.55
2785.6
2785.41
2786.11
2786.52
2787.18
2789.71
2796.31
2805.34
2812.94
2816.64
2816.73
2814.67
2812.18
2809.8
2807.65
2805.97
2804.77
2803.91
2803.31
2802.96
2802.87
2803.03
2803.36
2803.62
2803.77
2803.88
2804.04
2804.32
2804.72
2805.21
2805.74
2806.3
2806.9
2807.58
2808.36
2809.28
2810.37
2811.67
2813.19
2814.94
2816.92
2819.11
2821.5
2824.09
2826.85
2829.81
2832.95
2836.27
2839.78
2843.49
2847.39
2851.48
2855.77
2860.26
2864.94
2869.83
2874.91
2880.17
2885.62
2891.24
2897.03
2902.99
2909.1
2915.37
2921.79
2928.35
2935.03
2941.83
2948.71
2955.67
2962.68
2969.72
2976.79
2983.86
2990.88
2997.84
3004.7
3011.42
3017.95
3024.21
3030.16
3035.73
3040.87
3045.51
3049.57
3052.86
3055.32
3056.81
3057.28
3056.34
3053.82
3049.51
3043.07
3034.41
3022.95
3008.62
2990.57
2968.74
2942.29
2910.96
2874.18
2831.11
2781.81
2725.19
2661.6
2589.27
2509.61
2422.02
2327.65
2226.56
2127.09
1949.85
2796.96
2805.76
2812.58
2815.34
2814.73
2810.57
2803.26
2796.51
2791.6
2788.8
2787.57
2787.14
2786.18
2783.97
2780.67
2780.63
2785.46
2794.17
2802.76
2808.22
2810.13
2809.83
2808.55
2806.99
2805.67
2804.69
2804.11
2803.8
2803.62
2803.65
2803.94
2804.45
2804.96
2805.38
2805.72
2806.08
2806.55
2807.18
2807.92
2808.72
2809.55
2810.42
2811.35
2812.38
2813.53
2814.85
2816.35
2818.08
2820.04
2822.23
2824.63
2827.24
2830.03
2833.01
2836.17
2839.51
2843.04
2846.76
2850.67
2854.78
2859.09
2863.61
2868.32
2873.25
2878.38
2883.72
2889.25
2894.99
2900.91
2907.01
2913.29
2919.75
2926.38
2933.19
2940.15
2947.27
2954.53
2961.91
2969.39
2976.96
2984.61
2992.33
3000.09
3007.87
3015.63
3023.36
3031.03
3038.59
3045.98
3053.16
3060.06
3066.64
3072.85
3078.6
3083.81
3088.36
3092.08
3094.88
3096.6
3097.18
3096.23
3093.48
3088.78
3081.63
3071.91
3058.86
3042.46
3021.77
2996.63
2966.19
2929.79
2887.1
2836.94
2779.58
2713.76
2639.92
2555.37
2462.89
2360.14
2253.43
2077.89
2794.58
2803.38
2811.92
2815.84
2815.87
2813.31
2807.02
2800.61
2795.67
2792.37
2790.36
2788.91
2786.95
2783.42
2777.89
2772.86
2771.94
2775.98
2784.6
2793.9
2800.68
2804.08
2805.08
2804.8
2804.48
2804.29
2804.17
2804.12
2804.18
2804.4
2804.79
2805.42
2806.15
2806.82
2807.39
2807.96
2808.62
2809.45
2810.43
2811.5
2812.6
2813.73
2814.93
2816.22
2817.62
2819.16
2820.88
2822.81
2824.96
2827.35
2829.96
2832.77
2835.78
2838.96
2842.33
2845.87
2849.6
2853.51
2857.62
2861.93
2866.45
2871.18
2876.11
2881.27
2886.63
2892.21
2898
2904
2910.19
2916.59
2923.18
2929.96
2936.93
2944.09
2951.43
2958.94
2966.63
2974.46
2982.43
2990.52
2998.73
3007.03
3015.43
3023.89
3032.38
3040.9
3049.41
3057.9
3066.3
3074.57
3082.65
3090.52
3098.13
3105.41
3112.3
3118.69
3124.47
3129.55
3133.73
3136.89
3138.88
3139.57
3138.58
3135.47
3130.15
3121.95
3110.92
3096.06
3077.31
3053.63
3024.49
2989.26
2946.9
2897.3
2838.99
2771.42
2692.88
2606.61
2507.07
2404.8
2239.82
2792.94
2801.06
2810.91
2816.1
2816.88
2815.46
2810.33
2804.33
2799.48
2795.89
2793.27
2791.04
2788.28
2783.69
2777.13
2770.25
2765.14
2764.15
2768.05
2776.71
2786.8
2794.83
2799.81
2801.94
2802.88
2803.35
2803.83
2804.13
2804.46
2804.98
2805.57
2806.33
2807.23
2808.13
2808.94
2809.71
2810.56
2811.58
2812.78
2814.09
2815.45
2816.84
2818.29
2819.83
2821.48
2823.25
2825.2
2827.34
2829.69
2832.28
2835.09
2838.1
2841.31
2844.7
2848.26
2852.01
2855.93
2860.03
2864.33
2868.84
2873.55
2878.48
2883.62
2888.98
2894.57
2900.38
2906.4
2912.65
2919.1
2925.76
2932.63
2939.71
2946.99
2954.47
2962.16
2970.04
2978.1
2986.35
2994.76
3003.32
3012.02
3020.85
3029.81
3038.88
3048.04
3057.26
3066.53
3075.83
3085.13
3094.38
3103.54
3112.56
3121.42
3130.08
3138.47
3146.51
3154.12
3161.19
3167.61
3173.27
3177.94
3181.48
3183.7
3184.48
3183.37
3179.84
3173.89
3164.53
3151.79
3134.48
3112.27
3084.16
3049.25
3007.22
2956.79
2897.13
2826.96
2745.7
2651.37
2547.86
2395.28
2791.88
2799.02
2809.64
2816.14
2817.84
2817.12
2813.16
2807.71
2803.04
2799.23
2796.06
2793.05
2789.57
2784.19
2777.19
2769.31
2762.39
2758.05
2757.5
2761.71
2770.89
2781.73
2790.76
2796.47
2799.55
2801.34
2802.72
2803.76
2804.45
2805.31
2806.27
2807.23
2808.26
2809.34
2810.36
2811.32
2812.35
2813.56
2814.96
2816.5
2818.12
2819.77
2821.48
2823.26
2825.15
2827.17
2829.34
2831.69
2834.25
2837.03
2840.03
2843.24
2846.65
2850.23
2853.99
2857.92
2862.03
2866.32
2870.8
2875.49
2880.4
2885.52
2890.85
2896.41
2902.2
2908.22
2914.46
2920.93
2927.62
2934.53
2941.66
2949.01
2956.57
2964.35
2972.35
2980.56
2988.98
2997.59
3006.4
3015.38
3024.52
3033.84
3043.31
3052.92
3062.67
3072.52
3082.46
3092.5
3102.59
3112.71
3122.81
3132.85
3142.81
3152.67
3162.38
3171.88
3181.1
3189.93
3198.31
3206.12
3213.23
3219.51
3224.7
3228.63
3231.11
3231.93
3230.59
3226.32
3219.14
3207.88
3192.52
3171.76
3144.9
3111.16
3068.97
3017.64
2955.56
2880.62
2793.75
2690.42
2551.63
2791.23
2797.36
2808.33
2816.14
2818.65
2818.4
2815.56
2810.8
2806.35
2802.35
2798.54
2794.72
2790.3
2784.44
2777.2
2769.12
2761.27
2755.13
2751.89
2752.15
2757.13
2767.15
2778.67
2788.22
2794.88
2798.87
2801.17
2802.85
2804.12
2805.42
2806.82
2808.1
2809.28
2810.49
2811.69
2812.84
2814.05
2815.42
2817.02
2818.77
2820.62
2822.52
2824.47
2826.49
2828.62
2830.87
2833.27
2835.83
2838.6
2841.57
2844.76
2848.16
2851.76
2855.53
2859.48
2863.6
2867.89
2872.36
2877.02
2881.89
2886.97
2892.27
2897.78
2903.53
2909.51
2915.73
2922.18
2928.86
2935.77
2942.9
2950.27
2957.86
2965.69
2973.74
2982.02
2990.53
2999.26
3008.21
3017.37
3026.72
3036.27
3046.01
3055.93
3066.03
3076.29
3086.7
3097.24
3107.91
3118.7
3129.57
3140.49
3151.43
3162.36
3173.28
3184.14
3194.91
3205.53
3215.91
3226.01
3235.71
3244.93
3253.56
3261.41
3268.38
3274.12
3278.44
3281.13
3281.91
3280.15
3275.09
3266.65
3253.4
3234.92
3210.09
3177.38
3136.08
3083.41
3017.28
2938.06
2839.88
2708.78
2790.85
2796.12
2807.14
2816.1
2819.32
2819.52
2817.63
2813.59
2809.38
2805.15
2800.59
2795.76
2790.4
2784.12
2776.7
2768.67
2760.75
2753.76
2748.9
2746.89
2748.15
2754.45
2765.46
2777.63
2787.67
2794.42
2798.55
2801.25
2803.44
2805.26
2807.13
2808.84
2810.24
2811.55
2812.89
2814.23
2815.63
2817.19
2818.98
2820.95
2823.03
2825.16
2827.34
2829.6
2831.95
2834.43
2837.04
2839.82
2842.78
2845.95
2849.33
2852.91
2856.68
2860.64
2864.76
2869.06
2873.52
2878.16
2882.99
2888.02
2893.27
2898.74
2904.42
2910.34
2916.5
2922.9
2929.54
2936.41
2943.52
2950.87
2958.45
2966.27
2974.32
2982.62
2991.16
2999.93
3008.95
3018.19
3027.67
3037.36
3047.26
3057.38
3067.7
3078.22
3088.94
3099.84
3110.9
3122.13
3133.52
3145.06
3156.7
3168.41
3180.19
3192.02
3203.88
3215.75
3227.57
3239.29
3250.85
3262.19
3273.24
3283.9
3294.04
3303.55
3312.22
3319.93
3326.26
3331.04
3333.95
3334.64
3332.23
3325.74
3314.71
3297.88
3273.92
3241.82
3197.97
3140.86
3069.06
2978.17
2856.7
2790.63
2795.27
2806.21
2816.08
2819.96
2820.65
2819.42
2816.07
2812.04
2807.48
2802.02
2796.02
2789.8
2783.02
2775.61
2767.8
2760.12
2753.06
2747.29
2743.94
2743.23
2745.71
2753.68
2765.92
2778.52
2788.37
2794.9
2799.21
2802.33
2804.87
2807.23
2809.38
2811.12
2812.6
2814.08
2815.6
2817.18
2818.92
2820.89
2823.05
2825.33
2827.67
2830.06
2832.53
2835.1
2837.79
2840.62
2843.61
2846.78
2850.14
2853.7
2857.46
2861.41
2865.54
2869.83
2874.3
2878.93
2883.73
2888.72
2893.91
2899.33
2904.96
2910.8
2916.88
2923.21
2929.78
2936.59
2943.64
2950.94
2958.47
2966.25
2974.27
2982.54
2991.06
2999.83
3008.85
3018.12
3027.63
3037.39
3047.38
3057.59
3068.04
3078.71
3089.61
3100.73
3112.05
3123.57
3135.29
3147.2
3159.3
3171.56
3183.95
3196.45
3209.06
3221.77
3234.58
3247.43
3260.28
3273.1
3285.84
3298.44
3310.83
3322.93
3334.63
3345.79
3356.3
3365.89
3374.45
3381.39
3386.56
3389.54
3389.93
3386.2
3377.96
3363.75
3342.93
3311.33
3266.97
3204.04
3120.56
3005.82
2790.54
2794.77
2805.62
2816.14
2820.67
2821.78
2821.02
2818.24
2814.23
2809.14
2802.63
2795.61
2788.38
2781.2
2773.93
2766.51
2759.22
2752.43
2746.46
2742.24
2740.45
2740.82
2745.09
2755.04
2768.32
2780.8
2790.12
2796.36
2800.66
2804.05
2807
2809.68
2811.86
2813.59
2815.22
2816.91
2818.68
2820.61
2822.76
2825.1
2827.57
2830.11
2832.71
2835.38
2838.15
2841.04
2844.07
2847.25
2850.61
2854.15
2857.89
2861.82
2865.94
2870.23
2874.68
2879.3
2884.09
2889.05
2894.19
2899.54
2905.1
2910.88
2916.88
2923.11
2929.59
2936.32
2943.3
2950.51
2957.98
2965.69
2973.65
2981.86
2990.32
2999.04
3008.02
3017.25
3026.75
3036.5
3046.5
3056.76
3067.26
3077.99
3088.97
3100.2
3111.67
3123.37
3135.28
3147.42
3159.79
3172.37
3185.16
3198.12
3211.24
3224.53
3237.97
3251.56
3265.29
3279.1
3292.99
3306.9
3320.81
3334.65
3348.39
3361.93
3375.2
3388.06
3400.38
3412
3422.62
3432.13
3439.77
3445.5
3448.61
3448.81
3443.44
3432.89
3412.76
3381.33
3328.8
3257.53
3149.07
2790.52
2794.63
2805.47
2816.36
2821.49
2822.91
2822.44
2820.04
2815.78
2809.92
2802.42
2794.16
2786.18
2778.83
2771.81
2764.83
2758.03
2751.66
2745.91
2741.33
2738.62
2738.18
2739.83
2746.51
2758.46
2772.31
2784.18
2792.66
2798.51
2802.92
2806.63
2809.87
2812.48
2814.52
2816.34
2818.2
2820.15
2822.26
2824.58
2827.1
2829.74
2832.46
2835.25
2838.1
2841.06
2844.14
2847.36
2850.74
2854.29
2858.02
2861.93
2866.03
2870.3
2874.75
2879.36
2884.13
2889.07
2894.17
2899.46
2904.95
2910.66
2916.59
2922.73
2929.1
2935.73
2942.6
2949.73
2957.1
2964.71
2972.58
2980.71
2989.09
2997.73
3006.63
3015.8
3025.23
3034.93
3044.89
3055.12
3065.62
3076.36
3087.36
3098.61
3110.13
3121.9
3133.93
3146.2
3158.7
3171.46
3184.47
3197.71
3211.16
3224.82
3238.68
3252.74
3267.01
3281.47
3296.1
3310.87
3325.77
3340.77
3355.83
3370.93
3386.01
3401.01
3415.84
3430.42
3444.61
3458.26
3471.21
3483.09
3493.72
3502.05
3508.12
3510.85
3509.73
3501.52
3484.74
3447.14
3394.99
3296.55
2790.53
2794.69
2805.71
2816.94
2822.41
2824.07
2823.69
2821.39
2816.57
2809.76
2801
2791.75
2783.37
2776.05
2769.34
2762.84
2756.58
2750.73
2745.37
2740.7
2737.58
2736.49
2737.04
2740.74
2750.13
2763.79
2777.47
2788.18
2795.81
2801.43
2806.01
2809.82
2812.95
2815.36
2817.41
2819.45
2821.59
2823.89
2826.38
2829.07
2831.87
2834.76
2837.71
2840.73
2843.86
2847.12
2850.52
2854.08
2857.8
2861.7
2865.78
2870.04
2874.48
2879.07
2883.83
2888.74
2893.82
2899.06
2904.49
2910.12
2915.97
2922.03
2928.3
2934.82
2941.58
2948.6
2955.86
2963.37
2971.14
2979.16
2987.43
2995.97
3004.78
3013.85
3023.19
3032.8
3042.69
3052.85
3063.29
3073.99
3084.96
3096.19
3107.7
3119.47
3131.52
3143.84
3156.41
3169.25
3182.35
3195.72
3209.36
3223.25
3237.37
3251.72
3266.32
3281.16
3296.25
3311.56
3327.09
3342.81
3358.72
3374.79
3391.02
3407.36
3423.77
3440.21
3456.63
3472.93
3489.03
3504.76
3519.96
3534.43
3547.76
3559.65
3569.07
3575.84
3578.76
3574.96
3554.89
3523.95
3450.43
2790.58
2795.05
2806.44
2817.89
2823.38
2825.16
2824.73
2822.13
2816.51
2808.37
2798.36
2788.53
2780.1
2772.99
2766.65
2760.65
2754.93
2749.66
2744.72
2740.22
2736.92
2735.39
2735.25
2737.23
2743.86
2756.12
2770.58
2783.19
2792.67
2799.7
2805.26
2809.76
2813.36
2816.15
2818.46
2820.68
2823
2825.48
2828.14
2830.98
2833.94
2836.97
2840.07
2843.26
2846.56
2849.98
2853.56
2857.29
2861.2
2865.27
2869.51
2873.93
2878.51
2883.25
2888.14
2893.19
2898.39
2903.76
2909.32
2915.08
2921.06
2927.25
2933.65
2940.29
2947.18
2954.33
2961.73
2969.37
2977.27
2985.43
2993.85
3002.54
3011.49
3020.72
3030.23
3040.01
3050.07
3060.41
3071.03
3081.93
3093.11
3104.56
3116.28
3128.29
3140.59
3153.17
3166.02
3179.14
3192.55
3206.26
3220.24
3234.5
3249.03
3263.81
3278.87
3294.21
3309.84
3325.74
3341.91
3358.33
3375.01
3391.93
3409.09
3426.47
3444.05
3461.8
3479.71
3497.7
3515.74
3533.73
3551.59
3569.17
3586.27
3602.61
3617.71
3630.92
3641.55
3648.03
3647.66
3633.29
3597.56
2790.72
2795.73
2807.62
2819.19
2824.4
2826
2825.37
2822.11
2815.35
2805.61
2794.72
2784.74
2776.52
2769.78
2763.84
2758.34
2753.16
2748.47
2743.94
2739.75
2736.44
2734.56
2734.08
2734.93
2739.49
2749.79
2764.1
2778.07
2789.3
2797.82
2804.42
2809.62
2813.71
2816.89
2819.46
2821.88
2824.38
2827.04
2829.87
2832.85
2835.94
2839.1
2842.35
2845.68
2849.13
2852.72
2856.46
2860.36
2864.43
2868.67
2873.08
2877.65
2882.37
2887.25
2892.27
2897.44
2902.77
2908.26
2913.94
2919.83
2925.94
2932.24
2938.77
2945.53
2952.55
2959.83
2967.35
2975.12
2983.15
2991.44
3000
3008.83
3017.93
3027.3
3036.96
3046.9
3057.13
3067.64
3078.44
3089.52
3100.89
3112.54
3124.47
3136.7
3149.23
3162.05
3175.16
3188.55
3202.25
3216.25
3230.56
3245.16
3260.05
3275.22
3290.7
3306.48
3322.58
3338.99
3355.71
3372.73
3390.06
3407.69
3425.63
3443.86
3462.39
3481.2
3500.29
3519.61
3539.17
3558.9
3578.76
3598.69
3618.52
3638.15
3657.29
3675.72
3692.93
3707.42
3718.75
3720.83
3718.06
2790.97
2796.76
2809.26
2820.7
2825.45
2826.45
2825.45
2821.15
2812.71
2801.69
2790.41
2780.61
2772.83
2766.53
2761.03
2756.01
2751.34
2747.16
2743.03
2739.18
2735.96
2733.87
2733.21
2733.36
2736.47
2744.97
2758.44
2773.16
2785.93
2795.93
2803.59
2809.52
2814.07
2817.59
2820.43
2823.04
2825.73
2828.57
2831.57
2834.69
2837.9
2841.19
2844.57
2848.05
2851.64
2855.38
2859.28
2863.34
2867.57
2871.97
2876.52
2881.23
2886.09
2891.09
2896.23
2901.52
2906.96
2912.56
2918.36
2924.37
2930.59
2937.01
2943.65
2950.53
2957.67
2965.07
2972.71
2980.6
2988.75
2997.17
3005.85
3014.81
3024.05
3033.56
3043.37
3053.46
3063.84
3074.51
3085.48
3096.73
3108.28
3120.11
3132.24
3144.68
3157.42
3170.46
3183.8
3197.44
3211.4
3225.67
3240.27
3255.17
3270.39
3285.91
3301.75
3317.92
3334.44
3351.29
3368.49
3386.02
3403.9
3422.13
3440.71
3459.64
3478.94
3498.58
3518.58
3538.92
3559.6
3580.59
3601.88
3623.42
3645.13
3666.99
3688.66
3710.18
3730.84
3750.65
3767.61
3779.05
3791.85
2791.36
2798.2
2811.33
2822.23
2826.36
2826.54
2824.71
2818.74
2808.71
2796.89
2785.71
2776.42
2769.19
2763.41
2758.3
2753.7
2749.49
2745.71
2742
2738.48
2735.39
2733.25
2732.42
2732.31
2734.3
2741.44
2753.81
2768.78
2782.8
2794.17
2802.86
2809.48
2814.47
2818.3
2821.38
2824.19
2827.06
2830.08
2833.22
2836.47
2839.8
2843.2
2846.71
2850.32
2854.06
2857.94
2861.99
2866.21
2870.59
2875.14
2879.84
2884.68
2889.66
2894.77
2900.02
2905.41
2910.96