/*--------------------------------*- C++ -*----------------------------------*\
| =========                 |                                                 |
| \\      /  F ield         | OpenFOAM: The Open Source CFD Toolbox           |
|  \\    /   O peration     | Version:  2412                                  |
|   \\  /    A nd           | Website:  www.openfoam.com                      |
|    \\/     M anipulation  |                                                 |
\*---------------------------------------------------------------------------*/
FoamFile
{
    version     2.0;
    format      ascii;
    arch        "LSB;label=32;scalar=64";
    class       volScalarField;
    location    "0.035";
    object      p;
}
// * * * * * * * * * * * * * * * * * * * * * * * * * * * * * * * * * * * * * //

dimensions      [1 -1 -2 0 0 0 0];

internalField   nonuniform List<scalar> 
78650
(
2790
2790
2790
2790
2790
2790
2790
2790
2790.03
2790.63
2795.46
2808.95
2823.98
2831.36
2831.11
2825.19
2809.02
2792.89
2782.02
2775.1
2770.24
2765.42
2759.68
2753.5
2747.67
2742.47
2737.48
2732.21
2727.04
2723.44
2722.24
2723.13
2726.6
2731.16
2734.43
2735.66
2735.56
2734.46
2732.82
2731.38
2730.26
2729.29
2728.37
2727.5
2726.71
2726
2725.39
2724.84
2724.35
2723.93
2723.58
2723.29
2723.02
2722.76
2722.5
2722.24
2721.99
2721.71
2721.36
2720.91
2720.33
2719.62
2718.76
2717.72
2716.46
2714.92
2713.07
2710.89
2708.32
2705.32
2701.79
2697.66
2692.86
2687.34
2681.04
2673.87
2665.72
2656.5
2646.07
2634.33
2621.13
2606.36
2589.83
2571.42
2551.02
2528.5
2503.71
2476.46
2446.68
2414.07
2378.83
2340.36
2298.98
2253.47
2205.29
2154.32
2100.94
2043.04
1982.42
1921.3
1858.64
1797.04
1730.59
1663.49
1596.76
1529.35
1466.46
1406.92
1352.8
1302.32
1255.6
1212.21
1170.62
1131.76
1096.9
1064.55
1036.08
1010.55
989.5
972.986
936.251
2790
2790
2790
2790
2790
2790
2790
2790
2790.01
2790.36
2793.83
2805.79
2821.86
2831.26
2831.99
2828.23
2813.61
2797.13
2785.59
2778.23
2773.23
2768.55
2763.05
2756.99
2751.18
2746.07
2741.4
2736.64
2731.65
2727.38
2725.27
2725.19
2727.35
2731.7
2735.95
2738.27
2738.81
2738.33
2737.01
2735.6
2734.49
2733.63
2732.87
2732.17
2731.56
2731.04
2730.61
2730.26
2729.98
2729.77
2729.66
2729.61
2729.6
2729.61
2729.62
2729.65
2729.7
2729.74
2729.75
2729.66
2729.48
2729.18
2728.76
2728.19
2727.43
2726.44
2725.17
2723.6
2721.7
2719.42
2716.68
2713.41
2709.53
2704.99
2699.75
2693.73
2686.84
2678.96
2670
2659.84
2648.34
2635.4
2620.87
2604.63
2586.51
2566.33
2543.93
2519.11
2491.82
2461.83
2429.22
2393.43
2354.73
2312.52
2267.92
2219.83
2168.5
2114.54
2057.25
1997.29
1934.84
1871.79
1808.18
1742.02
1678.35
1611.39
1546
1482.23
1421.15
1362.8
1308.45
1259.96
1214.09
1171.52
1132.56
1095.95
1063.87
1034.15
1009.22
988.362
949.053
2790
2790
2790
2790
2790
2790
2790
2790
2790.01
2790.19
2792.54
2802.64
2819.14
2830.77
2832.78
2830.69
2818.16
2801.65
2789.33
2781.38
2776.15
2771.59
2766.37
2760.53
2754.81
2749.76
2745.32
2741.02
2736.47
2731.98
2728.94
2728
2728.95
2732.35
2736.99
2740.49
2741.91
2741.99
2741.23
2739.97
2738.86
2738.08
2737.46
2736.95
2736.52
2736.18
2735.94
2735.79
2735.73
2735.74
2735.85
2736.04
2736.29
2736.57
2736.86
2737.18
2737.54
2737.91
2738.25
2738.54
2738.74
2738.85
2738.87
2738.76
2738.5
2738.04
2737.34
2736.39
2735.14
2733.55
2731.58
2729.13
2726.14
2722.55
2718.33
2713.4
2707.68
2701.08
2693.48
2684.8
2674.89
2663.66
2650.96
2636.66
2620.57
2602.57
2582.53
2560.3
2535.78
2508.74
2479.18
2446.59
2411.02
2371.95
2330.24
2285.22
2237.33
2185.91
2131.1
2073.52
2012.7
1947.94
1884.9
1817.77
1751.54
1685.42
1618.18
1552.67
1487.49
1424.99
1364.19
1309.22
1256.79
1208.58
1166.33
1126.82
1091.1
1056.78
1026.25
1000.11
951.35
2790
2790
2790
2790
2790
2790
2790
2790
2790
2790.09
2791.57
2799.62
2815.85
2829.68
2833.42
2832.64
2822.78
2806.61
2793.3
2784.57
2779.01
2774.6
2769.76
2764.26
2758.7
2753.69
2749.37
2745.4
2741.35
2737.05
2733.33
2731.48
2731.43
2733.4
2737.67
2742.1
2744.75
2745.53
2745.32
2744.44
2743.43
2742.69
2742.19
2741.84
2741.6
2741.45
2741.4
2741.44
2741.59
2741.81
2742.14
2742.56
2743.06
2743.6
2744.17
2744.78
2745.43
2746.11
2746.79
2747.44
2748.02
2748.52
2748.95
2749.29
2749.5
2749.56
2749.41
2749.05
2748.44
2747.51
2746.27
2744.61
2742.47
2739.81
2736.56
2732.7
2728.12
2722.77
2716.52
2709.29
2700.96
2691.43
2680.55
2668.21
2654.26
2638.57
2620.98
2601.32
2579.42
2555.03
2528.09
2498.19
2465.59
2430.08
2391.88
2349.73
2304.08
2254.89
2202.88
2147.79
2090.15
2028.52
1964.23
1899.09
1828.85
1762.33
1693.06
1625.57
1558.23
1493.76
1429.51
1368.17
1310.62
1255.83
1206.33
1162.13
1124.11
1090.84
1060.52
1032.53
976.126
2790
2790
2790
2790
2790
2790
2790
2790
2790
2790.04
2790.9
2796.89
2812.07
2827.83
2833.67
2834.31
2827.25
2811.78
2797.36
2787.79
2781.88
2777.65
2773.25
2768.17
2762.84
2757.89
2753.61
2749.85
2746.21
2742.31
2738.4
2735.63
2734.69
2735.42
2738.52
2743.16
2747.06
2748.94
2749.31
2748.95
2748.17
2747.51
2747.1
2746.91
2746.84
2746.88
2747.03
2747.27
2747.61
2748.05
2748.6
2749.25
2750
2750.81
2751.65
2752.54
2753.48
2754.47
2755.49
2756.49
2757.44
2758.34
2759.18
2759.96
2760.64
2761.18
2761.57
2761.77
2761.78
2761.51
2760.98
2760.09
2758.78
2756.99
2754.69
2751.84
2748.35
2744.17
2739.19
2733.33
2726.46
2718.51
2709.34
2698.84
2686.86
2673.26
2657.89
2640.57
2621.17
2599.5
2575.51
2548.94
2519.84
2487.63
2452.23
2413.01
2370.67
2324.81
2275.74
2223.44
2167.85
2110
2046.59
1983.29
1914.81
1844.85
1776.14
1704.33
1635.23
1567.59
1501.17
1434.56
1373.15
1314.28
1258.34
1204.77
1156.63
1114.35
1080.82
1053.64
997.139
2790
2790
2790
2790
2790
2790
2790
2790
2790
2790.02
2790.46
2794.57
2807.94
2825.15
2833.6
2835.87
2831.28
2817.02
2801.6
2791.21
2784.95
2780.87
2776.93
2772.31
2767.25
2762.38
2758.12
2754.43
2751.05
2747.59
2743.88
2740.52
2738.66
2738.4
2739.96
2743.97
2748.66
2751.91
2753.22
2753.38
2753.02
2752.53
2752.23
2752.15
2752.27
2752.5
2752.83
2753.27
2753.81
2754.46
2755.23
2756.11
2757.1
2758.16
2759.28
2760.44
2761.67
2762.96
2764.3
2765.64
2766.96
2768.24
2769.48
2770.68
2771.81
2772.85
2773.76
2774.5
2775.06
2775.44
2775.58
2775.42
2774.92
2774.01
2772.61
2770.73
2768.3
2765.26
2761.51
2756.99
2751.57
2745.19
2737.71
2729.03
2719.02
2707.52
2694.4
2679.52
2662.73
2643.81
2622.62
2598.9
2572.67
2543.47
2511.24
2475.49
2436.68
2394.41
2348.85
2299.9
2247.28
2191.15
2132.19
2068.06
2003.08
1931.8
1862.67
1788.61
1715.84
1643.61
1574.01
1504.09
1438.21
1376
1315.96
1261.2
1209.01
1159.11
1113.95
1075.9
1002.29
2790
2790
2790
2790
2790
2790
2790
2790
2790
2790.01
2790.21
2792.78
2803.73
2821.61
2833.16
2837.2
2834.44
2822.08
2806.14
2794.95
2788.26
2784.25
2780.74
2776.6
2771.86
2767.11
2762.85
2759.16
2755.9
2752.75
2749.4
2745.96
2743.3
2742.19
2742.54
2745.12
2749.72
2754.16
2756.85
2757.82
2757.92
2757.72
2757.58
2757.61
2757.89
2758.3
2758.82
2759.46
2760.2
2761.06
2762.04
2763.15
2764.38
2765.7
2767.08
2768.52
2770.03
2771.62
2773.28
2774.96
2776.63
2778.29
2779.93
2781.55
2783.12
2784.63
2786.03
2787.32
2788.47
2789.46
2790.23
2790.77
2791.01
2790.94
2790.44
2789.52
2788.07
2786.11
2783.53
2780.26
2776.2
2771.27
2765.35
2758.36
2750.16
2740.63
2729.64
2717.02
2702.64
2686.27
2667.83
2647.14
2624.09
2598.13
2569.28
2537.29
2502.45
2464.05
2421.99
2376.08
2326.37
2273.24
2216.27
2155.91
2093.05
2025.75
1953.85
1882.62
1806.91
1732.27
1657.19
1583.19
1509.85
1441.4
1372.86
1312.77
1259.83
1211.17
1166.03
1125.6
1043.4
2790
2790
2790
2790
2790
2790
2790
2790
2790
2790
2790.09
2791.52
2799.76
2817.19
2831.98
2837.95
2836.57
2827.15
2811.33
2799.14
2791.88
2787.78
2784.65
2781.02
2776.66
2772.06
2767.79
2764.05
2760.77
2757.76
2754.77
2751.61
2748.61
2746.69
2746.18
2747.21
2750.8
2755.7
2759.77
2762.02
2762.85
2763.04
2763.11
2763.29
2763.68
2764.27
2764.99
2765.83
2766.77
2767.84
2769.02
2770.35
2771.82
2773.39
2775.03
2776.74
2778.52
2780.4
2782.36
2784.37
2786.4
2788.42
2790.44
2792.46
2794.46
2796.42
2798.32
2800.12
2801.82
2803.38
2804.8
2806.03
2806.99
2807.66
2808
2808.02
2807.56
2806.66
2805.19
2803.14
2800.4
2796.9
2792.53
2787.21
2780.82
2773.24
2764.32
2753.94
2741.94
2728.16
2712.46
2694.56
2674.36
2651.5
2626.11
2597.85
2566.62
2531.67
2493.12
2450.74
2404.51
2354.71
2300.85
2243.46
2181.92
2118.07
2047.89
1977.32
1902.38
1825.73
1749.53
1673.76
1595.92
1521.28
1446.72
1374.22
1308.14
1248.26
1198.72
1159.44
1078.65
2790
2790
2790
2790
2790
2790
2790
2790
2790
2790
2790.03
2790.74
2796.35
2812.1
2829.6
2838.09
2838.09
2832.03
2816.96
2803.63
2795.74
2791.43
2788.62
2785.5
2781.52
2777.06
2772.76
2768.95
2765.61
2762.64
2759.89
2757.13
2754.28
2751.86
2750.65
2750.65
2752.58
2756.97
2761.95
2765.67
2767.63
2768.45
2768.83
2769.19
2769.7
2770.43
2771.33
2772.36
2773.51
2774.78
2776.18
2777.72
2779.41
2781.23
2783.13
2785.1
2787.16
2789.32
2791.58
2793.92
2796.29
2798.67
2801.07
2803.48
2805.89
2808.3
2810.67
2812.98
2815.21
2817.35
2819.37
2821.24
2822.92
2824.36
2825.5
2826.31
2826.79
2826.9
2826.52
2825.63
2824.12
2821.94
2819
2815.21
2810.48
2804.69
2797.72
2789.43
2779.7
2768.36
2755.25
2740.17
2723.02
2703.5
2681.61
2656.86
2629.11
2597.76
2562.97
2524.46
2482.21
2436.23
2386.01
2332.22
2273.92
2211.38
2146.12
2073.93
2002.06
1923.2
1845.18
1768.21
1688.26
1609.76
1534.88
1462.44
1390.6
1321.52
1255.87
1200.63
1094.19
2790
2790
2790
2790
2790
2790
2790
2790
2790
2790
2790.01
2790.32
2793.73
2806.78
2825.78
2837.62
2839.37
2836.22
2822.74
2808.52
2799.97
2795.28
2792.65
2789.92
2786.28
2781.96
2777.66
2773.81
2770.45
2767.5
2764.88
2762.48
2760.05
2757.64
2755.87
2755.2
2755.76
2758.71
2763.65
2768.54
2771.94
2773.76
2774.67
2775.27
2775.92
2776.76
2777.82
2779.04
2780.39
2781.86
2783.46
2785.21
2787.12
2789.17
2791.33
2793.56
2795.89
2798.32
2800.87
2803.51
2806.21
2808.95
2811.7
2814.49
2817.31
2820.14
2822.96
2825.76
2828.5
2831.18
2833.78
2836.27
2838.62
2840.77
2842.7
2844.37
2845.72
2846.73
2847.37
2847.59
2847.31
2846.44
2844.91
2842.63
2839.52
2835.49
2830.43
2824.19
2816.65
2807.66
2797.09
2784.7
2770.38
2753.86
2735.09
2713.61
2689.33
2661.86
2631.3
2597.23
2559.53
2517.94
2471.99
2422.06
2367.26
2308.21
2244.45
2177.22
2106.02
2028.97
1947.26
1865.71
1782.62
1697.78
1616.14
1535.4
1459.81
1392.65
1331.71
1277.73
1168.12
2790
2790
2790
2790
2790
2790
2790
2790
2790
2790
2790
2790.12
2791.95
2801.75
2820.8
2836.17
2840.41
2839.22
2828.46
2813.95
2804.52
2799.18
2796.47
2794.02
2790.75
2786.68
2782.46
2778.64
2775.34
2772.44
2769.91
2767.74
2765.73
2763.67
2761.75
2760.59
2760.37
2761.65
2765.53
2770.84
2775.56
2778.69
2780.45
2781.5
2782.34
2783.28
2784.46
2785.84
2787.39
2789.06
2790.86
2792.81
2794.93
2797.21
2799.61
2802.11
2804.7
2807.4
2810.22
2813.17
2816.19
2819.27
2822.38
2825.54
2828.74
2831.99
2835.25
2838.51
2841.75
2844.95
2848.11
2851.2
2854.19
2857.03
2859.7
2862.14
2864.35
2866.28
2867.88
2869.1
2869.89
2870.23
2870.03
2869.16
2867.59
2865.15
2861.84
2857.49
2852.01
2845.25
2837.08
2827.3
2815.81
2802.34
2786.79
2768.75
2748.18
2724.7
2698.28
2668.35
2634.78
2597.3
2555.62
2509.67
2458.69
2403.82
2344.21
2280.09
2211.14
2139.36
2060.81
1977.24
1895.85
1807.47
1720.45
1629.14
1539.38
1455.79
1381.84
1321.71
1199.5
2790
2790
2790
2790
2790
2790
2790
2790
2790
2790
2790
2790.04
2790.9
2797.48
2814.97
2833.48
2840.7
2841.27
2834.07
2819.92
2809.12
2802.88
2799.96
2797.8
2795.03
2791.36
2787.31
2783.57
2780.37
2777.58
2775.12
2773.08
2771.36
2769.73
2768.05
2766.66
2765.99
2766.21
2768.39
2773.05
2778.5
2782.97
2785.91
2787.68
2788.87
2789.97
2791.23
2792.74
2794.46
2796.33
2798.33
2800.47
2802.8
2805.29
2807.93
2810.68
2813.52
2816.48
2819.57
2822.8
2826.13
2829.53
2832.99
2836.5
2840.07
2843.71
2847.39
2851.09
2854.8
2858.5
2862.19
2865.85
2869.44
2872.94
2876.31
2879.51
2882.51
2885.3
2887.82
2890.05
2891.93
2893.38
2894.37
2894.85
2894.8
2893.95
2892.38
2889.84
2886.34
2881.7
2875.82
2868.52
2859.67
2849.02
2836.45
2821.64
2804.58
2784.86
2762.35
2736.49
2707.18
2674.1
2636.91
2595.37
2549.05
2498.65
2442.97
2382.41
2316.3
2245.27
2171.35
2090.7
2007.35
1921.58
1831.51
1745.41
1655.3
1570.66
1484.45
1408.11
1258.39
2790
2790
2790
2790
2790
2790
2790
2790
2790
2790
2790
2790.01
2790.36
2794.28
2808.89
2829.37
2840.15
2843.05
2839.01
2825.9
2813.54
2806.45
2803.32
2801.46
2799.21
2796.02
2792.24
2788.61
2785.54
2782.91
2780.55
2778.58
2777.03
2775.74
2774.46
2773.19
2772.28
2772
2772.75
2775.95
2781.17
2786.53
2790.76
2793.58
2795.39
2796.77
2798.15
2799.74
2801.6
2803.65
2805.84
2808.18
2810.7
2813.4
2816.27
2819.25
2822.35
2825.56
2828.91
2832.41
2836.04
2839.76
2843.55
2847.4
2851.34
2855.35
2859.43
2863.56
2867.72
2871.9
2876.1
2880.29
2884.47
2888.59
2892.62
2896.53
2900.29
2903.88
2907.27
2910.42
2913.29
2915.84
2918
2919.68
2920.86
2921.47
2921.53
2920.7
2919.07
2916.41
2912.68
2907.72
2901.41
2893.52
2883.94
2872.37
2858.74
2842.64
2823.92
2802.08
2777.05
2748.43
2715.96
2679.42
2638.46
2593.06
2541.92
2485.88
2424.19
2357.46
2284.63
2207.07
2121.14
2034.19
1938.73
1844.59
1749.39
1660.16
1576.34
1503.52
1356.99
2790
2790
2790
2790
2790
2790
2790
2790
2790
2790
2790
2790
2790.12
2792.17
2803.16
2823.99
2838.94
2844.51
2842.41
2831.37
2818.07
2810.25
2806.78
2805.07
2803.27
2800.64
2797.25
2793.78
2790.86
2788.41
2786.21
2784.31
2782.85
2781.75
2780.82
2779.87
2779
2778.53
2778.56
2780.11
2784.19
2789.66
2794.89
2798.92
2801.64
2803.53
2805.13
2806.82
2808.76
2810.96
2813.34
2815.87
2818.57
2821.47
2824.55
2827.77
2831.1
2834.56
2838.16
2841.92
2845.83
2849.85
2853.95
2858.14
2862.41
2866.78
2871.24
2875.77
2880.36
2885
2889.67
2894.37
2899.08
2903.78
2908.44
2913.02
2917.5
2921.85
2926.06
2930.09
2933.9
2937.45
2940.7
2943.6
2946.08
2948.05
2949.48
2950.29
2950.47
2949.72
2948.06
2945.29
2941.34
2936.01
2929.19
2920.6
2910.17
2897.5
2882.5
2864.73
2844.1
2820.12
2792.61
2761.27
2725.58
2685.12
2639.15
2588.64
2532.36
2470.59
2402.23
2328.36
2249.57
2163.1
2073.15
1973.59
1873.96
1766.75
1665.04
1576.28
1402.24
2790
2790
2790
2790
2790
2790
2790
2790
2790
2790
2790
2790
2790.04
2790.98
2798.38
2817.77
2836.79
2845.01
2844.49
2836.61
2823.01
2814.26
2810.23
2808.51
2807.12
2805.16
2802.31
2799.09
2796.3
2794.02
2791.98
2790.14
2788.72
2787.69
2787
2786.36
2785.76
2785.31
2785.11
2785.61
2788.14
2792.83
2798.4
2803.48
2807.34
2810.02
2812.04
2813.91
2815.94
2818.25
2820.78
2823.5
2826.4
2829.48
2832.77
2836.21
2839.78
2843.47
2847.31
2851.32
2855.49
2859.8
2864.21
2868.71
2873.31
2878.03
2882.85
2887.76
2892.76
2897.82
2902.95
2908.13
2913.36
2918.61
2923.85
2929.06
2934.21
2939.28
2944.25
2949.1
2953.78
2958.27
2962.53
2966.51
2970.15
2973.4
2976.22
2978.48
2980.14
2981.13
2981.42
2980.73
2979.05
2976.18
2971.99
2966.28
2958.91
2949.57
2938.18
2924.32
2907.86
2888.3
2865.47
2838.91
2808.06
2772.6
2732.18
2687.04
2635.72
2578.76
2515.24
2445.76
2369.45
2287.21
2199.44
2105.25
2006.9
1908.46
1807.85
1715.1
1531.29
2790
2790
2790
2790
2790
2790
2790
2790
2790
2790
2790
2790
2790.01
2790.39
2794.87
2811.36
2833.1
2844.77
2845.97
2841.32
2828.12
2818.21
2813.53
2811.79
2810.85
2809.62
2807.43
2804.49
2801.77
2799.56
2797.63
2795.87
2794.47
2793.49
2792.92
2792.51
2792.23
2792
2791.87
2791.99
2793.25
2796.59
2801.73
2807.37
2812.31
2816.02
2818.72
2820.92
2823.09
2825.48
2828.15
2831.04
2834.11
2837.38
2840.86
2844.51
2848.3
2852.22
2856.3
2860.54
2864.97
2869.54
2874.24
2879.04
2883.95
2888.99
2894.14
2899.42
2904.8
2910.26
2915.81
2921.44
2927.14
2932.9
2938.69
2944.48
2950.26
2956
2961.68
2967.28
2972.78
2978.15
2983.35
2988.35
2993.09
2997.53
3001.62
3005.29
3008.49
3011.09
3013.04
3014.24
3014.67
3014.09
3012.36
3009.33
3004.81
2998.6
2990.61
2980.45
2967.97
2952.66
2934.35
2912.51
2886.76
2856.85
2822.34
2782.89
2737.38
2686.3
2628.47
2564.3
2492.49
2414.02
2327.87
2234.42
2130.71
2026.44
1914.94
1819.84
1641.57
2790
2790
2790
2790
2790
2790
2790
2790
2790
2790
2790
2790
2790
2790.14
2792.6
2805.46
2828.15
2843.73
2847.25
2845.03
2832.96
2821.96
2816.76
2815.05
2814.54
2813.96
2812.43
2809.72
2806.95
2804.74
2802.9
2801.26
2799.95
2799.04
2798.53
2798.28
2798.23
2798.32
2798.41
2798.57
2799.19
2801.23
2805.33
2810.87
2816.55
2821.33
2824.93
2827.68
2830.11
2832.62
2835.39
2838.42
2841.67
2845.13
2848.79
2852.65
2856.66
2860.8
2865.1
2869.57
2874.24
2879.07
2884.04
2889.12
2894.33
2899.67
2905.15
2910.77
2916.5
2922.35
2928.3
2934.35
2940.5
2946.73
2953.03
2959.37
2965.73
2972.09
2978.43
2984.74
2990.99
2997.17
3003.23
3009.16
3014.9
3020.42
3025.67
3030.6
3035.14
3039.24
3042.83
3045.77
3048.01
3049.45
3050.04
3049.57
3047.78
3044.56
3039.71
3032.99
3024.22
3012.96
2999.05
2981.99
2961.55
2937.33
2908.71
2875.25
2836.21
2791.73
2740.43
2682.73
2617.47
2545.4
2464.65
2376.74
2281.7
2178.67
2063.32
1954.3
1753.48
2790
2790
2790
2790
2790
2790
2790
2790
2790
2790
2790
2790
2790
2790.05
2791.28
2800.57
2822.55
2841.85
2848.25
2847.36
2837.39
2825.75
2820.09
2818.32
2818.12
2817.96
2816.94
2814.47
2811.71
2809.54
2807.84
2806.38
2805.19
2804.37
2803.91
2803.76
2803.84
2804.18
2804.55
2804.96
2805.48
2806.72
2809.61
2814.44
2820.31
2825.94
2830.53
2834.04
2836.9
2839.61
2842.49
2845.64
2849.05
2852.69
2856.54
2860.59
2864.81
2869.16
2873.67
2878.37
2883.26
2888.33
2893.55
2898.91
2904.4
2910.02
2915.8
2921.73
2927.79
2933.99
2940.31
2946.75
2953.31
2959.98
2966.75
2973.59
2980.48
2987.41
2994.36
3001.31
3008.26
3015.18
3022.04
3028.82
3035.48
3042
3048.33
3054.42
3060.23
3065.69
3070.75
3075.32
3079.34
3082.69
3085.25
3086.95
3087.68
3087.29
3085.38
3081.94
3076.66
3069.3
3059.64
3047.22
3031.8
3012.8
2989.63
2961.85
2928.86
2890.42
2845.27
2793.64
2734.14
2667.22
2591.37
2507.94
2415.7
2314.66
2205.85
2102.89
1922
2790
2790
2790
2790
2790
2790
2790
2790
2790
2790
2790
2790
2790
2790.02
2790.6
2796.89
2816.9
2839.27
2848.52
2848.92
2841.49
2829.65
2823.36
2821.39
2821.32
2821.37
2820.83
2818.81
2816.21
2814.16
2812.62
2811.33
2810.27
2809.53
2809.1
2809
2809.2
2809.67
2810.31
2811.04
2811.74
2812.7
2814.67
2818.46
2823.96
2830.03
2835.51
2839.89
2843.35
2846.37
2849.4
2852.67
2856.22
2860.02
2864.06
2868.3
2872.72
2877.28
2882
2886.9
2892.01
2897.3
2902.77
2908.38
2914.13
2920.03
2926.09
2932.31
2938.68
2945.21
2951.88
2958.68
2965.62
2972.7
2979.9
2987.2
2994.59
3002.04
3009.55
3017.1
3024.69
3032.28
3039.87
3047.42
3054.93
3062.34
3069.64
3076.78
3083.72
3090.41
3096.8
3102.82
3108.4
3113.48
3117.97
3121.75
3124.64
3126.59
3127.46
3127.13
3125.11
3121.4
3115.6
3107.43
3096.57
3082.46
3064.67
3042.81
3016.24
2984.5
2946.43
2901.99
2849.82
2790.23
2721.61
2644.14
2555.27
2456.5
2349.16
2232.54
2044.81
2790
2790
2790
2790
2790
2790
2790
2790
2790
2790
2790
2790
2790
2790.01
2790.28
2794.36
2811.73
2836.11
2848.17
2850.26
2845.11
2833.47
2826.35
2824.09
2824.05
2824.41
2824.34
2822.93
2820.61
2818.7
2817.28
2816.13
2815.18
2814.52
2814.16
2814.11
2814.42
2814.96
2815.8
2816.83
2817.84
2818.86
2820.35
2823.18
2827.88
2833.9
2839.99
2845.22
2849.39
2852.85
2856.11
2859.51
2863.18
2867.14
2871.34
2875.78
2880.39
2885.15
2890.06
2895.16
2900.47
2905.98
2911.67
2917.52
2923.51
2929.67
2935.98
2942.48
2949.14
2955.97
2962.95
2970.09
2977.38
2984.83
2992.43
3000.15
3007.98
3015.91
3023.92
3032.01
3040.17
3048.38
3056.62
3064.88
3073.14
3081.37
3089.54
3097.63
3105.59
3113.4
3121
3128.33
3135.35
3141.97
3148.15
3153.79
3158.79
3163
3166.24
3168.45
3169.48
3169.23
3167.01
3162.89
3156.37
3147.17
3134.88
3119.02
3098.91
3073.97
3043.22
3006.36
2961.96
2910.03
2848.89
2778.26
2696.52
2606.95
2503.91
2397.74
2224.64
2790
2790
2790
2790
2790
2790
2790
2790
2790
2790
2790
2790
2790
2790
2790.13
2792.75
2807.36
2832.68
2847.48
2851.48
2848.16
2836.73
2828.95
2826.46
2826.52
2827.38
2827.75
2826.85
2824.87
2823.08
2821.77
2820.72
2819.89
2819.32
2819.07
2819.15
2819.57
2820.2
2821.17
2822.45
2823.78
2825.02
2826.38
2828.54
2832.33
2837.86
2844.18
2850.1
2855
2859
2862.56
2866.12
2869.92
2874.01
2878.38
2882.99
2887.79
2892.74
2897.84
2903.13
2908.63
2914.34
2920.24
2926.31
2932.54
2938.92
2945.49
2952.23
2959.16
2966.27
2973.54
2980.99
2988.61
2996.39
3004.35
3012.45
3020.69
3029.06
3037.53
3046.12
3054.79
3063.56
3072.39
3081.29
3090.23
3099.19
3108.15
3117.08
3125.96
3134.75
3143.42
3151.92
3160.21
3168.22
3175.91
3183.19
3190
3196.21
3201.72
3206.4
3210
3212.49
3213.66
3213.41
3210.93
3206.36
3198.99
3188.5
3174.17
3155.46
3131.43
3101.55
3064.39
3019.84
2966.31
2903.06
2828.48
2741.93
2640.79
2530.73
2369.17
2790
2790
2790
2790
2790
2790
2790
2790
2790
2790
2790
2790
2790
2790
2790.07
2791.78
2803.95
2829.37
2846.74
2852.62
2850.33
2839.28
2831.28
2828.69
2828.93
2830.38
2831.14
2830.56
2828.9
2827.22
2826
2825.07
2824.38
2823.94
2823.83
2824.13
2824.69
2825.45
2826.54
2827.99
2829.59
2831.11
2832.55
2834.36
2837.36
2842.15
2848.32
2854.67
2860.24
2864.82
2868.75
2872.51
2876.43
2880.65
2885.17
2889.95
2894.92
2900.06
2905.34
2910.81
2916.5
2922.39
2928.49
2934.76
2941.2
2947.81
2954.6
2961.58
2968.75
2976.11
2983.65
2991.38
2999.29
3007.39
3015.66
3024.12
3032.73
3041.48
3050.37
3059.39
3068.53
3077.79
3087.16
3096.62
3106.16
3115.77
3125.43
3135.11
3144.8
3154.48
3164.1
3173.63
3183.04
3192.28
3201.3
3210.06
3218.48
3226.46
3233.93
3240.75
3246.84
3252.03
3256.04
3258.84
3260.16
3259.89
3256.98
3251.59
3242.86
3230.51
3213.62
3191.61
3163.02
3127.45
3082.91
3028.63
2962.61
2882.68
2790.1
2680.52
2532.38
2790
2790
2790
2790
2790
2790
2790
2790
2790
2790
2790
2790
2790
2790
2790.04
2791.23
2801.52
2826.56
2846.24
2853.46
2851.7
2841.41
2833.41
2830.81
2831.31
2833.35
2834.45
2834.04
2832.62
2831.05
2829.95
2829.17
2828.65
2828.39
2828.5
2829.04
2829.78
2830.7
2831.91
2833.49
2835.3
2837.07
2838.69
2840.4
2842.86
2846.88
2852.6
2859.09
2865.19
2870.33
2874.67
2878.67
2882.74
2887.07
2891.72
2896.65
2901.79
2907.1
2912.55
2918.19
2924.05
2930.12
2936.4
2942.86
2949.5
2956.31
2963.31
2970.5
2977.9
2985.49
2993.27
3001.25
3009.43
3017.81
3026.38
3035.14
3044.09
3053.19
3062.45
3071.87
3081.43
3091.13
3100.97
3110.94
3121.02
3131.2
3141.48
3151.83
3162.24
3172.69
3183.14
3193.58
3203.98
3214.29
3224.48
3234.52
3244.34
3253.88
3263.07
3271.78
3279.96
3287.47
3294.18
3299.92
3304.36
3307.45
3308.87
3308.42
3305.05
3298.88
3288.72
3274.17
3253.78
3227.07
3191.89
3147.68
3090.93
3019.23
2932.95
2826.41
2684.31
2790
2790
2790
2790
2790
2790
2790
2790
2790
2790
2790
2790
2790
2790
2790.03
2790.94
2799.95
2824.5
2845.92
2854.02
2852.68
2843.09
2835.31
2832.83
2833.62
2836.25
2837.6
2837.28
2836.04
2834.61
2833.68
2833.08
2832.74
2832.69
2833.05
2833.82
2834.77
2835.87
2837.21
2838.89
2840.85
2842.84
2844.68
2846.44
2848.61
2851.99
2857.13
2863.52
2869.96
2875.6
2880.36
2884.62
2888.84
2893.28
2898.06
2903.13
2908.43
2913.89
2919.5
2925.3
2931.31
2937.55
2944
2950.64
2957.45
2964.45
2971.64
2979.04
2986.64
2994.44
3002.44
3010.66
3019.08
3027.71
3036.55
3045.59
3054.83
3064.25
3073.84
3083.61
3093.54
3103.64
3113.9
3124.31
3134.87
3145.56
3156.38
3167.32
3178.35
3189.47
3200.66
3211.89
3223.15
3234.39
3245.6
3256.75
3267.79
3278.68
3289.35
3299.72
3309.73
3319.25
3328.23
3336.5
3343.92
3350.3
3355.24
3358.68
3360.22
3359.55
3355.31
3347.54
3334.77
3316.52
3290.57
3256.33
3209.24
3147.35
3068.3
2967.24
2831.73
2790
2790
2790
2790
2790
2790
2790
2790
2790
2790
2790
2790
2790
2790
2790.02
2790.83
2799.17
2823.37
2845.87
2854.52
2853.42
2844.34
2836.98
2834.73
2835.87
2839.04
2840.59
2840.3
2839.2
2837.96
2837.23
2836.81
2836.67
2836.86
2837.44
2838.4
2839.54
2840.8
2842.28
2844.06
2846.14
2848.32
2850.39
2852.31
2854.39
2857.35
2861.92
2868.04
2874.64
2880.67
2885.82
2890.36
2894.73
2899.29
2904.18
2909.38
2914.81
2920.42
2926.17
2932.12
2938.29
2944.68
2951.28
2958.08
2965.06
2972.23
2979.6
2987.17
2994.96
3002.95
3011.16
3019.58
3028.22
3037.08
3046.16
3055.45
3064.96
3074.66
3084.55
3094.63
3104.9
3115.35
3125.97
3136.78
3147.75
3158.9
3170.2
3181.64
3193.23
3204.94
3216.77
3228.69
3240.69
3252.74
3264.83
3276.94
3289.03
3301.07
3313.01
3324.8
3336.37
3347.65
3358.58
3369.02
3378.91
3388.04
3396.26
3403.32
3408.78
3412.55
3414.11
3412.91
3407.65
3398.16
3382.53
3360.41
3327
3279.5
3209.75
3115.38
2983.31
2790
2790
2790
2790
2790
2790
2790
2790
2790
2790
2790
2790
2790
2790
2790.02
2790.81
2799.05
2823.21
2846.09
2855.01
2853.97
2845.22
2838.41
2836.55
2838.11
2841.78
2843.42
2843.15
2842.18
2841.16
2840.62
2840.39
2840.48
2840.85
2841.59
2842.71
2843.99
2845.39
2846.99
2848.9
2851.1
2853.47
2855.77
2857.89
2860.04
2862.78
2866.9
2872.68
2879.31
2885.63
2891.12
2895.91
2900.45
2905.12
2910.12
2915.43
2920.99
2926.72
2932.61
2938.69
2944.99
2951.52
2958.27
2965.21
2972.35
2979.68
2987.21
2994.95
3002.91
3011.08
3019.47
3028.08
3036.92
3045.99
3055.29
3064.82
3074.56
3084.52
3094.67
3105.03
3115.6
3126.36
3137.32
3148.48
3159.83
3171.37
3183.09
3194.99
3207.06
3219.29
3231.67
3244.19
3256.84
3269.6
3282.46
3295.39
3308.38
3321.42
3334.45
3347.45
3360.35
3373.13
3385.71
3398.02
3409.99
3421.48
3432.4
3442.53
3451.71
3459.61
3465.8
3470.04
3471.77
3470.16
3463.42
3451.26
3430.12
3397.23
3340.65
3262.01
3134.83
2790
2790
2790
2790
2790
2790
2790
2790
2790
2790
2790
2790
2790
2790
2790.02
2790.85
2799.39
2824
2846.7
2855.5
2854.34
2845.75
2839.59
2838.28
2840.41
2844.51
2846.17
2845.89
2845.02
2844.2
2843.86
2843.83
2844.1
2844.62
2845.48
2846.71
2848.1
2849.62
2851.35
2853.38
2855.72
2858.25
2860.78
2863.15
2865.44
2868.12
2871.95
2877.42
2883.99
2890.51
2896.27
2901.29
2905.99
2910.77
2915.86
2921.28
2926.95
2932.79
2938.8
2945.01
2951.43
2958.09
2964.97
2972.05
2979.32
2986.8
2994.48
3002.38
3010.49
3018.83
3027.38
3036.17
3045.2
3054.46
3063.96
3073.69
3083.66
3093.84
3104.24
3114.86
3125.69
3136.74
3148
3159.47
3171.15
3183.04
3195.14
3207.45
3219.94
3232.63
3245.51
3258.56
3271.77
3285.15
3298.67
3312.32
3326.1
3339.98
3353.96
3367.98
3382.03
3396.06
3410.05
3423.93
3437.66
3451.15
3464.33
3477.04
3489.2
3500.55
3510.92
3519.79
3526.7
3531.2
3532.65
3529.73
3521.15
3503.84
3466.22
3412.79
3305.48
2790
2790
2790
2790
2790
2790
2790
2790
2790
2790
2790
2790
2790
2790
2790.03
2791
2800.45
2825.77
2847.73
2855.95
2854.54
2846.02
2840.6
2839.95
2842.82
2847.22
2848.84
2848.55
2847.78
2847.14
2846.97
2847.14
2847.57
2848.2
2849.18
2850.49
2851.97
2853.58
2855.43
2857.6
2860.06
2862.74
2865.47
2868.08
2870.57
2873.31
2876.99
2882.21
2888.69
2895.33
2901.29
2906.52
2911.36
2916.25
2921.43
2926.95
2932.71
2938.66
2944.77
2951.09
2957.63
2964.41
2971.41
2978.61
2986.02
2993.63
3001.45
3009.49
3017.75
3026.24
3034.95
3043.9
3053.1
3062.54
3072.23
3082.15
3092.32
3102.72
3113.34
3124.19
3135.27
3146.57
3158.1
3169.86
3181.85
3194.06
3206.5
3219.17
3232.05
3245.16
3258.47
3271.99
3285.71
3299.63
3313.73
3328.02
3342.48
3357.11
3371.89
3386.81
3401.83
3416.95
3432.13
3447.34
3462.55
3477.72
3492.79
3507.67
3522.27
3536.44
3550.06
3562.86
3574.68
3584.89
3593.15
3598.56
3600.65
3596.04
3578.17
3547.96
3480.95
2790
2790
2790
2790
2790
2790
2790
2790
2790
2790
2790
2790
2790
2790
2790.04
2791.33
2802.2
2828.35
2848.97
2856.24
2854.55
2846.19
2841.56
2841.57
2845.36
2849.86
2851.35
2851.08
2850.43
2849.96
2849.95
2850.34
2850.88
2851.62
2852.7
2854.11
2855.65
2857.34
2859.3
2861.58
2864.16
2866.97
2869.87
2872.7
2875.41
2878.27
2881.92
2886.99
2893.38
2900.08
2906.21
2911.58
2916.55
2921.54
2926.81
2932.42
2938.27
2944.3
2950.51
2956.93
2963.58
2970.47
2977.57
2984.89
2992.42
3000.16
3008.11
3016.28
3024.68
3033.31
3042.17
3051.28
3060.64
3070.25
3080.11
3090.22
3100.58
3111.17
3122
3133.07
3144.38
3155.93
3167.71
3179.74
3192.01
3204.52
3217.28
3230.28
3243.52
3257
3270.71
3284.66
3298.84
3313.25
3327.88
3342.73
3357.79
3373.08
3388.58
3404.27
3420.14
3436.19
3452.39
3468.74
3485.19
3501.76
3518.38
3535.03
3551.64
3568.14
3584.44
3600.39
3615.86
3630.52
3644.12
3655.88
3665.64
3671.77
3673.17
3660.98
3638.75
2790
2790
2790
2790
2790
2790
2790
2790
2790
2790
2790
2790
2790
2790
2790.07
2791.88
2804.7
2831.57
2850.35
2856.3
2854.32
2846.44
2842.56
2843.19
2847.98
2852.38
2853.64
2853.42
2852.9
2852.63
2852.79
2853.37
2854.02
2854.87
2856.09
2857.57
2859.18
2860.96
2863.01
2865.38
2868.06
2870.97
2874.03
2877.06
2879.97
2882.99
2886.69
2891.69
2898.01
2904.75
2910.98
2916.48
2921.55
2926.64
2932
2937.69
2943.63
2949.74
2956.03
2962.54
2969.29
2976.28
2983.49
2990.91
2998.55
3006.41
3014.48
3022.78
3031.3
3040.06
3049.07
3058.32
3067.83
3077.6
3087.62
3097.9
3108.44
3119.22
3130.25
3141.52
3153.04
3164.81
3176.83
3189.1
3201.64
3214.43
3227.47
3240.78
3254.34
3268.17
3282.25
3296.59
3311.18
3326.03
3341.13
3356.48
3372.09
3387.96
3404.08
3420.45
3437.05
3453.9
3470.97
3488.27
3505.78
3523.5
3541.4
3559.49
3577.71
3596.04
3614.42
3632.77
3650.98
3668.92
3686.42
3703.21
3718.97
3732.59
3743.89
3747.86
3752.35
2790
2790
2790
2790
2790
2790
2790
2790
2790
2790
2790
2790
2790
2790
2790.13
2792.75
2807.97
2835.2
2851.81
2856.19
2853.63
2846.76
2843.79
2845.1
2850.63
2854.72
2855.67
2855.51
2855.12
2855.06
2855.44
2856.17
2856.93
2857.92
2859.28
2860.84
2862.52
2864.38
2866.53
2869.01
2871.77
2874.79
2877.97
2881.17
2884.28
2887.46
2891.26
2896.27
2902.56
2909.32
2915.61
2921.19
2926.36
2931.54
2936.99
2942.75
2948.75
2954.93
2961.3
2967.9
2974.74
2981.82
2989.12
2996.65
3004.39
3012.36
3020.55
3028.96
3037.61
3046.5
3055.63
3065.03
3074.68
3084.6
3094.79
3105.23
3115.94
3126.89
3138.1
3149.57
3161.29
3173.28
3185.52
3198.03
3210.81
3223.86
3237.18
3250.78
3264.65
3278.8
3293.22
3307.92
3322.89
3338.15
3353.68
3369.49
3385.59
3401.98
3418.65
3435.61
3452.85
3470.38
3488.19
3506.29
3524.66
3543.32
3562.24
3581.45
3600.9
3620.59
3640.46
3660.5
3680.62
3700.77
3720.74
3740.37
3759.21
3777.09
3792.47
3804.08
3816.91
2790
2790
2790
2790
2790
2790
2790
2790
2790
2790
2790
2790
2790
2790
2790.24
2794.08
2811.99
2838.97
2853.23
2856.11
2852.62
2846.86
2845.14
2847.47
2853.4
2856.94
2857.53
2857.4
2857.12
2857.26
2857.88
2858.73
2859.61
2860.75
2862.24
2863.9
2865.67
2867.63
2869.89
2872.47
2875.32
2878.42
2881.71
2885.05
2888.33
2891.68
2895.6
2900.67
2906.97
2913.74
2920.07
2925.71
2930.95
2936.22
2941.75
2947.59
2953.65
2959.89
2966.33
2973.01
2979.93
2987.09
2994.49
3002.1
3009.95
3018.02
3026.31
3034.83
3043.59
3052.6
3061.86
3071.38
3081.17
3091.24
3101.57
3112.17
3123.03
3134.15
3145.54
3157.18