/*--------------------------------*- C++ -*----------------------------------*\
| =========                 |                                                 |
| \\      /  F ield         | OpenFOAM: The Open Source CFD Toolbox           |
|  \\    /   O peration     | Version:  2412                                  |
|   \\  /    A nd           | Website:  www.openfoam.com                      |
|    \\/     M anipulation  |                                                 |
\*---------------------------------------------------------------------------*/
FoamFile
{
    version     2.0;
    format      ascii;
    arch        "LSB;label=32;scalar=64";
    class       volScalarField;
    location    "0.035";
    object      rho;
}
// * * * * * * * * * * * * * * * * * * * * * * * * * * * * * * * * * * * * * //

dimensions      [1 -3 0 0 0 0 0];

internalField   nonuniform List<scalar> 
78650
(
0.042133
0.042133
0.042133
0.042133
0.042133
0.042133
0.042133
0.042133
0.0421333
0.0421398
0.0421911
0.0423344
0.0424938
0.042572
0.0425694
0.0425067
0.042335
0.0421637
0.042048
0.0419743
0.0419225
0.041871
0.0418098
0.0417438
0.0416815
0.0416259
0.0415725
0.0415161
0.0414608
0.0414222
0.0414093
0.0414188
0.041456
0.0415048
0.0415399
0.041553
0.041552
0.0415402
0.0415227
0.0415072
0.0414951
0.0414847
0.0414749
0.0414656
0.0414572
0.0414498
0.0414432
0.0414373
0.0414321
0.0414276
0.0414239
0.0414206
0.0414177
0.0414148
0.041412
0.0414093
0.0414066
0.0414036
0.0413999
0.0413952
0.0413891
0.0413816
0.0413724
0.0413611
0.0413473
0.0413305
0.0413104
0.0412868
0.0412592
0.041227
0.0411894
0.0411453
0.041094
0.0410347
0.0409668
0.0408896
0.0408017
0.0407018
0.0405885
0.0404609
0.0403175
0.0401569
0.0399773
0.0397776
0.0395559
0.0393102
0.0390386
0.0387396
0.0384127
0.0380522
0.0376569
0.037222
0.036757
0.0362513
0.0357135
0.035135
0.0345094
0.0338498
0.0331188
0.0323945
0.0316491
0.0308807
0.0300316
0.0291576
0.0283227
0.0275725
0.026873
0.0261728
0.0254341
0.0246803
0.0239596
0.0232959
0.0227124
0.0221892
0.0217244
0.021295
0.020919
0.0205455
0.0201816
0.0198448
0.0192477
0.042133
0.042133
0.042133
0.042133
0.042133
0.042133
0.042133
0.042133
0.0421332
0.0421368
0.0421737
0.0423008
0.0424714
0.042571
0.0425787
0.0425389
0.0423839
0.0422087
0.042086
0.0420076
0.0419544
0.0419045
0.0418457
0.041781
0.041719
0.0416644
0.0416145
0.0415635
0.0415102
0.0414644
0.0414418
0.0414409
0.041464
0.0415106
0.0415561
0.041581
0.0415868
0.0415817
0.0415675
0.0415523
0.0415404
0.0415312
0.0415231
0.0415157
0.0415092
0.0415037
0.0414991
0.0414954
0.0414925
0.0414902
0.041489
0.0414883
0.0414881
0.0414881
0.0414883
0.0414887
0.0414892
0.0414897
0.0414897
0.041489
0.0414871
0.0414841
0.0414796
0.0414733
0.0414649
0.041454
0.0414401
0.0414232
0.0414028
0.0413783
0.0413491
0.0413142
0.0412729
0.0412244
0.0411681
0.0411034
0.0410292
0.0409442
0.0408471
0.0407369
0.0406121
0.0404719
0.0403146
0.0401388
0.0399421
0.0397224
0.0394782
0.0392077
0.0389092
0.0385779
0.0382148
0.0378177
0.0373917
0.0369251
0.0364225
0.0358733
0.0352872
0.0346639
0.0340127
0.0333085
0.0325506
0.0318032
0.0310504
0.0302435
0.0293788
0.0285244
0.0277093
0.026968
0.02628
0.0255675
0.0248493
0.0241506
0.0234641
0.0228349
0.0222708
0.0217546
0.0212942
0.0208563
0.0204549
0.0200831
0.0194552
0.042133
0.042133
0.042133
0.042133
0.042133
0.042133
0.042133
0.042133
0.0421331
0.0421351
0.0421601
0.0422674
0.0424426
0.0425658
0.0425871
0.042565
0.0424321
0.0422568
0.0421258
0.0420412
0.0419854
0.0419368
0.0418812
0.0418189
0.0417578
0.0417038
0.0416564
0.0416104
0.0415617
0.0415137
0.0414811
0.041471
0.0414811
0.0415176
0.0415672
0.0416047
0.0416199
0.0416208
0.0416127
0.0415991
0.0415872
0.0415788
0.0415722
0.0415668
0.0415623
0.0415587
0.0415561
0.0415546
0.041554
0.0415541
0.0415552
0.0415572
0.0415597
0.0415626
0.0415658
0.0415693
0.0415731
0.041577
0.0415808
0.041584
0.0415863
0.0415875
0.0415878
0.0415864
0.0415835
0.0415783
0.0415706
0.0415601
0.0415467
0.0415297
0.0415086
0.0414826
0.0414509
0.0414127
0.0413674
0.0413146
0.0412532
0.0411822
0.0411001
0.0410061
0.0408989
0.0407774
0.0406401
0.0404855
0.0403116
0.0401168
0.0398997
0.0396583
0.0393909
0.0390941
0.0387685
0.0384104
0.0380197
0.0375864
0.0371171
0.0366076
0.036068
0.0354889
0.0348612
0.0341898
0.0334697
0.0327168
0.0319438
0.0311788
0.0303636
0.0295126
0.028639
0.0277631
0.0269651
0.0262334
0.0255198
0.0248433
0.0241599
0.023514
0.0229007
0.0223135
0.0217609
0.0212063
0.0206861
0.0202167
0.0194399
0.042133
0.042133
0.042133
0.042133
0.042133
0.042133
0.042133
0.042133
0.0421331
0.042134
0.0421498
0.0422353
0.0424076
0.0425542
0.0425938
0.0425856
0.0424811
0.0423095
0.042168
0.0420751
0.0420159
0.0419689
0.0419173
0.0418586
0.0417993
0.0417458
0.0416996
0.0416573
0.0416139
0.0415679
0.0415281
0.0415083
0.0415077
0.0415288
0.0415745
0.041622
0.0416503
0.0416586
0.0416564
0.0416469
0.0416361
0.0416282
0.0416228
0.0416191
0.0416166
0.041615
0.0416145
0.041615
0.0416166
0.0416191
0.0416225
0.041627
0.0416322
0.0416379
0.041644
0.0416505
0.0416575
0.0416648
0.0416721
0.0416791
0.0416854
0.0416909
0.0416956
0.0416991
0.0417012
0.0417015
0.0416997
0.0416956
0.0416889
0.041679
0.0416657
0.0416482
0.0416256
0.0415973
0.0415627
0.0415214
0.0414724
0.0414149
0.0413477
0.0412696
0.0411796
0.0410766
0.0409593
0.0408263
0.0406761
0.0405069
0.0403169
0.040104
0.039866
0.0396001
0.0393063
0.0389809
0.0386235
0.0382275
0.0377987
0.0373303
0.0368256
0.0362766
0.0356895
0.0350647
0.0343957
0.0336765
0.0328971
0.0321046
0.0313051
0.0304765
0.0296557
0.0287736
0.0278731
0.0270147
0.0261816
0.0254138
0.0246994
0.0240372
0.0234047
0.0228212
0.0222916
0.0217762
0.0212592
0.0207438
0.0198613
0.042133
0.042133
0.042133
0.042133
0.042133
0.042133
0.042133
0.042133
0.042133
0.0421335
0.0421426
0.0422063
0.0423675
0.0425347
0.0425965
0.0426033
0.0425285
0.0423643
0.0422112
0.0421093
0.0420465
0.0420014
0.0419545
0.0419004
0.0418435
0.0417906
0.041745
0.0417048
0.0416659
0.0416242
0.0415824
0.0415527
0.0415427
0.0415504
0.0415836
0.0416333
0.041675
0.041695
0.0416991
0.0416952
0.0416867
0.0416796
0.0416753
0.0416732
0.0416726
0.0416731
0.0416747
0.0416773
0.041681
0.0416857
0.0416916
0.0416986
0.0417064
0.0417149
0.0417239
0.0417334
0.0417435
0.0417541
0.041765
0.0417757
0.041786
0.0417957
0.0418048
0.0418131
0.0418201
0.0418258
0.0418297
0.0418315
0.0418315
0.0418285
0.0418229
0.0418135
0.0417997
0.0417809
0.0417565
0.041726
0.0416888
0.0416441
0.0415907
0.0415275
0.0414535
0.0413677
0.0412689
0.041156
0.0410273
0.0408811
0.0407157
0.0405289
0.0403192
0.0400849
0.0398254
0.0395361
0.0392149
0.038857
0.0384669
0.0380395
0.0375769
0.0370701
0.0365199
0.0359242
0.0352844
0.0346044
0.0338818
0.0331038
0.0323032
0.0314646
0.0306352
0.0298139
0.0289588
0.0281009
0.0272222
0.0263379
0.0254911
0.0246663
0.0238994
0.0231973
0.0225722
0.0219896
0.0214838
0.0210458
0.0202285
0.042133
0.042133
0.042133
0.042133
0.042133
0.042133
0.042133
0.042133
0.042133
0.0421332
0.042138
0.0421817
0.0423237
0.0425063
0.0425958
0.0426198
0.0425712
0.04242
0.0422563
0.0421457
0.0420791
0.0420357
0.0419938
0.0419445
0.0418906
0.0418386
0.0417931
0.0417537
0.0417176
0.0416806
0.0416409
0.041605
0.0415851
0.0415823
0.041599
0.0416418
0.041692
0.0417268
0.0417408
0.0417424
0.0417386
0.0417334
0.0417301
0.0417292
0.0417306
0.0417332
0.0417367
0.0417414
0.0417472
0.0417542
0.0417624
0.0417718
0.0417823
0.0417935
0.0418053
0.0418178
0.0418309
0.0418447
0.041859
0.0418734
0.0418875
0.0419013
0.0419147
0.0419274
0.0419394
0.0419502
0.0419597
0.0419674
0.0419733
0.0419771
0.0419786
0.041977
0.0419718
0.0419623
0.0419476
0.0419276
0.0419017
0.0418693
0.0418293
0.0417807
0.0417224
0.0416536
0.0415732
0.04148
0.0413726
0.0412494
0.0411088
0.040949
0.0407685
0.0405648
0.0403361
0.0400781
0.0397909
0.0394722
0.0391238
0.0387367
0.0383096
0.037837
0.0373253
0.0367755
0.0361831
0.0355459
0.0348622
0.0341147
0.0333198
0.0324941
0.03161
0.0307471
0.0298746
0.0290216
0.0282065
0.0273707
0.0265441
0.0257246
0.0248984
0.0241219
0.0233602
0.022612
0.0219045
0.0212884
0.0202135
0.042133
0.042133
0.042133
0.042133
0.042133
0.042133
0.042133
0.042133
0.042133
0.0421331
0.0421353
0.0421626
0.042279
0.0424688
0.0425911
0.0426339
0.0426047
0.0424736
0.0423045
0.0421855
0.0421144
0.0420717
0.0420343
0.0419902
0.0419397
0.0418891
0.0418436
0.0418042
0.0417694
0.0417357
0.0417
0.0416632
0.0416347
0.0416229
0.0416266
0.0416542
0.0417034
0.0417508
0.0417795
0.0417899
0.0417909
0.0417888
0.0417872
0.0417876
0.0417906
0.041795
0.0418007
0.0418075
0.0418155
0.0418247
0.0418351
0.041847
0.04186
0.041874
0.0418886
0.041904
0.0419201
0.0419371
0.0419547
0.0419727
0.0419907
0.0420085
0.042026
0.0420432
0.0420599
0.0420758
0.0420905
0.042104
0.0421161
0.0421264
0.0421346
0.0421403
0.0421431
0.0421426
0.0421374
0.0421277
0.0421123
0.0420915
0.042064
0.042029
0.0419853
0.0419323
0.0418687
0.0417938
0.0417061
0.0416043
0.0414867
0.0413518
0.0411976
0.0410222
0.0408242
0.0406006
0.0403509
0.0400708
0.0397593
0.0394094
0.0390239
0.0385997
0.0381384
0.0376341
0.0370822
0.0364858
0.0358412
0.0351557
0.0344103
0.0336302
0.0327747
0.0318752
0.0309557
0.0299905
0.0290654
0.0281464
0.0272539
0.0264422
0.0256217
0.024863
0.0241332
0.0234344
0.0227471
0.0220743
0.0208635
0.042133
0.042133
0.042133
0.042133
0.042133
0.042133
0.042133
0.042133
0.042133
0.0421331
0.042134
0.0421492
0.0422368
0.0424218
0.0425786
0.0426418
0.0426272
0.0425275
0.0423596
0.0422301
0.0421529
0.0421092
0.042076
0.0420373
0.0419909
0.0419418
0.0418963
0.0418564
0.0418214
0.0417893
0.0417573
0.0417236
0.0416915
0.041671
0.0416655
0.0416765
0.0417149
0.0417673
0.0418108
0.0418348
0.0418435
0.0418455
0.0418462
0.0418482
0.0418524
0.0418588
0.0418665
0.0418754
0.0418855
0.0418969
0.0419096
0.0419238
0.0419393
0.041956
0.0419734
0.0419915
0.0420106
0.0420306
0.0420515
0.0420729
0.0420946
0.0421163
0.0421379
0.0421593
0.0421806
0.0422013
0.0422213
0.0422402
0.042258
0.0422746
0.0422896
0.0423026
0.0423129
0.0423201
0.042324
0.0423242
0.0423194
0.0423099
0.0422944
0.0422725
0.0422431
0.0422054
0.0421585
0.0421016
0.0420333
0.0419524
0.0418574
0.0417467
0.0416188
0.0414717
0.0413036
0.0411114
0.0408944
0.040649
0.0403747
0.0400658
0.0397234
0.0393427
0.0389242
0.0384629
0.0379566
0.0374066
0.036805
0.0361574
0.035463
0.0347129
0.0339278
0.0330764
0.0322307
0.0313013
0.030356
0.0293871
0.0283832
0.0274093
0.0264425
0.0254926
0.0246244
0.0238211
0.0231265
0.0225321
0.0213696
0.042133
0.042133
0.042133
0.042133
0.042133
0.042133
0.042133
0.042133
0.042133
0.042133
0.0421334
0.0421409
0.0422006
0.0423679
0.0425534
0.0426433
0.0426433
0.0425791
0.0424194
0.0422778
0.042194
0.0421481
0.0421183
0.042085
0.0420426
0.0419951
0.0419493
0.0419086
0.041873
0.0418413
0.0418119
0.0417825
0.0417521
0.0417263
0.0417133
0.0417133
0.0417339
0.0417808
0.041834
0.0418737
0.0418946
0.0419032
0.0419073
0.041911
0.0419166
0.0419244
0.0419341
0.0419451
0.0419574
0.0419709
0.0419858
0.0420023
0.0420203
0.0420395
0.0420597
0.0420806
0.0421026
0.0421256
0.0421497
0.0421745
0.0421998
0.0422253
0.0422508
0.0422765
0.0423021
0.0423276
0.0423526
0.0423769
0.0424003
0.0424229
0.0424442
0.042464
0.0424818
0.0424973
0.0425095
0.0425183
0.0425234
0.0425247
0.0425206
0.0425111
0.042495
0.0424715
0.0424399
0.0423994
0.0423489
0.0422872
0.0422132
0.0421251
0.0420217
0.0419009
0.0417613
0.0416005
0.0414176
0.0412085
0.0409717
0.0407028
0.0404033
0.0400679
0.0396943
0.0392756
0.0388105
0.0383004
0.0377403
0.0371345
0.0364723
0.0357581
0.0349915
0.0341606
0.0332857
0.0323963
0.0314704
0.0305709
0.0296369
0.0286929
0.0277261
0.0267609
0.0257776
0.0248244
0.0238735
0.0230358
0.0215082
0.042133
0.042133
0.042133
0.042133
0.042133
0.042133
0.042133
0.042133
0.042133
0.042133
0.0421331
0.0421364
0.0421727
0.0423114
0.0425129
0.0426384
0.0426568
0.0426235
0.0424806
0.0423297
0.0422389
0.0421891
0.0421611
0.0421321
0.0420933
0.0420473
0.0420015
0.0419604
0.0419247
0.0418932
0.0418652
0.0418397
0.0418136
0.0417879
0.041769
0.0417619
0.0417678
0.0417994
0.0418521
0.0419043
0.0419405
0.0419599
0.0419695
0.0419759
0.0419828
0.0419918
0.0420032
0.0420162
0.0420306
0.0420463
0.0420634
0.042082
0.0421024
0.0421241
0.0421469
0.0421707
0.0421954
0.0422213
0.0422484
0.0422765
0.0423052
0.0423344
0.0423638
0.0423934
0.0424233
0.0424533
0.042483
0.0425124
0.0425413
0.0425695
0.042597
0.0426233
0.0426482
0.0426711
0.0426916
0.0427094
0.0427238
0.0427345
0.0427413
0.0427437
0.0427406
0.0427312
0.0427146
0.0426901
0.0426569
0.042614
0.0425603
0.0424942
0.0424144
0.0423192
0.0422071
0.0420756
0.0419233
0.0417468
0.0415455
0.0413159
0.0410575
0.0407635
0.0404326
0.0400607
0.0396486
0.0391945
0.0386923
0.0381437
0.0375364
0.0368767
0.0361567
0.0353859
0.0345201
0.0336158
0.0326259
0.0316312
0.0306346
0.0296243
0.0286395
0.0277043
0.0267617
0.0258708
0.0249856
0.0241356
0.022521
0.042133
0.042133
0.042133
0.042133
0.042133
0.042133
0.042133
0.042133
0.042133
0.042133
0.0421331
0.0421343
0.0421538
0.0422579
0.0424601
0.042623
0.0426679
0.0426553
0.0425413
0.0423874
0.0422872
0.0422306
0.0422017
0.0421756
0.0421409
0.0420976
0.0420526
0.0420119
0.0419767
0.0419459
0.0419188
0.0418958
0.0418743
0.0418523
0.0418318
0.0418194
0.0418171
0.0418307
0.0418722
0.0419288
0.0419791
0.0420124
0.0420311
0.0420422
0.0420512
0.0420613
0.0420739
0.0420887
0.0421051
0.0421229
0.0421421
0.0421629
0.0421855
0.0422097
0.0422351
0.0422615
0.042289
0.0423177
0.0423478
0.042379
0.0424111
0.0424438
0.042477
0.0425105
0.0425445
0.0425788
0.0426133
0.0426476
0.0426816
0.0427154
0.0427487
0.0427813
0.0428128
0.042843
0.0428713
0.0428972
0.0429206
0.042941
0.0429579
0.0429708
0.0429792
0.0429826
0.0429802
0.0429706
0.0429537
0.0429278
0.0428926
0.0428467
0.0427889
0.0427175
0.0426313
0.0425279
0.0424063
0.0422632
0.0420978
0.0419061
0.0416871
0.0414355
0.0411507
0.0408283
0.0404674
0.0400637
0.0396123
0.039114
0.0385605
0.0379589
0.0372958
0.0365784
0.0358089
0.0349692
0.0340709
0.0330949
0.0320923
0.0309871
0.0299108
0.0287775
0.0276563
0.0265671
0.0255831
0.0247593
0.0231477
0.042133
0.042133
0.042133
0.042133
0.042133
0.042133
0.042133
0.042133
0.042133
0.042133
0.042133
0.0421334
0.0421426
0.0422126
0.0423984
0.0425945
0.0426709
0.0426769
0.0426007
0.0424508
0.0423362
0.0422699
0.0422388
0.0422159
0.0421864
0.0421473
0.0421043
0.0420644
0.0420303
0.0420007
0.0419744
0.0419527
0.0419344
0.041917
0.0418991
0.0418842
0.0418771
0.0418794
0.0419027
0.0419524
0.0420104
0.042058
0.0420893
0.042108
0.0421207
0.0421324
0.0421459
0.0421621
0.0421804
0.0422003
0.0422215
0.0422444
0.0422691
0.0422956
0.0423235
0.0423525
0.0423827
0.0424141
0.0424469
0.0424812
0.0425165
0.0425527
0.0425894
0.0426267
0.0426645
0.042703
0.0427418
0.0427808
0.0428198
0.0428587
0.0428976
0.0429361
0.042974
0.0430109
0.0430465
0.0430804
0.0431122
0.0431415
0.0431681
0.0431917
0.0432114
0.0432266
0.0432368
0.0432416
0.0432406
0.0432315
0.0432148
0.043188
0.0431512
0.0431024
0.0430406
0.0429638
0.0428705
0.0427578
0.042625
0.0424686
0.0422877
0.0420771
0.0418364
0.0415609
0.0412489
0.0408948
0.0404943
0.0400452
0.0395405
0.0389865
0.0383712
0.037699
0.0369578
0.0361557
0.0353014
0.0343777
0.0334339
0.0324214
0.0313895
0.03034
0.029173
0.028052
0.0268424
0.025744
0.0237058
0.042133
0.042133
0.042133
0.042133
0.042133
0.042133
0.042133
0.042133
0.042133
0.042133
0.042133
0.0421332
0.0421368
0.0421785
0.0423337
0.042551
0.0426651
0.0426958
0.042653
0.0425141
0.042383
0.0423078
0.0422745
0.0422547
0.0422308
0.042197
0.0421567
0.042118
0.0420854
0.0420574
0.0420323
0.0420113
0.0419948
0.041981
0.0419674
0.0419538
0.0419442
0.0419412
0.0419491
0.0419832
0.0420389
0.0420959
0.0421409
0.0421709
0.0421901
0.0422048
0.0422195
0.0422365
0.0422563
0.042278
0.0423014
0.0423263
0.042353
0.0423817
0.042412
0.0424436
0.0424763
0.0425103
0.0425459
0.042583
0.0426215
0.0426609
0.0427011
0.042742
0.0427836
0.042826
0.0428691
0.0429126
0.0429563
0.0430002
0.0430443
0.0430885
0.0431324
0.0431758
0.0432183
0.0432596
0.0432993
0.0433371
0.0433728
0.0434059
0.0434361
0.0434628
0.0434853
0.0435027
0.0435148
0.043521
0.0435214
0.0435125
0.0434954
0.0434675
0.0434285
0.0433765
0.0433103
0.0432274
0.0431267
0.0430048
0.0428605
0.0426898
0.0424921
0.0422621
0.0419975
0.0416924
0.0413442
0.0409506
0.040507
0.0400143
0.0394595
0.0388473
0.0381627
0.0374114
0.036587
0.0356953
0.0347076
0.0336844
0.0325652
0.0314991
0.0303257
0.0292491
0.0281753
0.0271544
0.0251521
0.042133
0.042133
0.042133
0.042133
0.042133
0.042133
0.042133
0.042133
0.042133
0.042133
0.042133
0.0421331
0.0421344
0.0421562
0.0422729
0.042494
0.0426524
0.0427113
0.042689
0.0425721
0.0424311
0.0423481
0.0423112
0.0422931
0.0422739
0.042246
0.04221
0.0421731
0.042142
0.042116
0.0420925
0.0420723
0.0420567
0.042045
0.0420351
0.042025
0.0420157
0.0420107
0.042011
0.0420275
0.042071
0.0421293
0.0421848
0.0422276
0.0422565
0.0422766
0.0422936
0.0423117
0.0423324
0.0423557
0.0423809
0.0424078
0.0424366
0.0424673
0.0424999
0.0425339
0.0425691
0.0426057
0.0426439
0.0426837
0.042725
0.0427676
0.0428111
0.0428554
0.0429006
0.0429468
0.0429938
0.0430415
0.0430897
0.0431383
0.0431874
0.0432367
0.0432863
0.0433357
0.0433847
0.0434329
0.0434801
0.0435259
0.04357
0.0436123
0.0436523
0.0436896
0.0437235
0.0437536
0.0437794
0.0437997
0.0438144
0.0438228
0.0438247
0.0438168
0.0437995
0.0437707
0.0437295
0.0436737
0.0436022
0.0435121
0.0434024
0.0432695
0.0431124
0.0429256
0.0427074
0.0424527
0.0421597
0.041825
0.0414435
0.0410124
0.0405219
0.0399773
0.0393654
0.0386895
0.0379322
0.0371024
0.0362085
0.035241
0.03417
0.0329855
0.0318068
0.030476
0.0292065
0.0280575
0.0258624
0.042133
0.042133
0.042133
0.042133
0.042133
0.042133
0.042133
0.042133
0.042133
0.042133
0.042133
0.042133
0.0421334
0.0421435
0.0422221
0.042428
0.0426295
0.0427165
0.0427111
0.0426276
0.0424835
0.0423907
0.0423479
0.0423296
0.0423149
0.042294
0.0422638
0.0422295
0.0421999
0.0421756
0.0421539
0.0421344
0.0421192
0.0421083
0.0421009
0.0420941
0.0420877
0.0420829
0.0420807
0.0420861
0.0421131
0.042163
0.0422221
0.0422761
0.042317
0.0423455
0.042367
0.0423869
0.0424085
0.042433
0.0424599
0.0424888
0.0425195
0.0425523
0.042587
0.0426233
0.042661
0.0427
0.0427407
0.0427831
0.0428272
0.0428728
0.0429194
0.042967
0.0430157
0.0430654
0.0431162
0.0431679
0.0432203
0.0432734
0.0433272
0.0433815
0.0434364
0.0434915
0.0435465
0.0436013
0.0436554
0.0437086
0.0437607
0.0438114
0.0438605
0.0439075
0.043952
0.0439934
0.0440312
0.0440649
0.0440941
0.0441175
0.0441348
0.0441451
0.0441481
0.0441411
0.0441236
0.0440937
0.04405
0.0439903
0.0439135
0.043816
0.0436969
0.0435513
0.0433779
0.0431721
0.042932
0.0426521
0.0423267
0.0419525
0.0415227
0.0410383
0.0404841
0.0398651
0.0391704
0.0384076
0.0375648
0.0366401
0.0356562
0.0345827
0.0334875
0.0322601
0.030941
0.0296746
0.0272335
0.042133
0.042133
0.042133
0.042133
0.042133
0.042133
0.042133
0.042133
0.042133
0.042133
0.042133
0.042133
0.0421332
0.0421372
0.0421849
0.04236
0.0425904
0.042714
0.0427267
0.0426774
0.0425377
0.0424326
0.0423829
0.0423645
0.0423545
0.0423414
0.0423182
0.0422869
0.042258
0.0422345
0.042214
0.0421953
0.0421804
0.04217
0.0421638
0.0421595
0.0421565
0.0421541
0.0421527
0.042154
0.0421674
0.0422029
0.0422575
0.0423175
0.0423698
0.0424092
0.0424379
0.0424613
0.0424843
0.0425097
0.042538
0.0425686
0.0426012
0.0426359
0.0426727
0.0427112
0.0427512
0.0427926
0.0428357
0.0428806
0.0429273
0.0429756
0.0430252
0.0430759
0.0431278
0.0431809
0.0432352
0.0432906
0.043347
0.0434042
0.0434624
0.0435214
0.0435811
0.0436415
0.0437021
0.0437629
0.0438234
0.0438835
0.043943
0.0440016
0.0440591
0.0441151
0.0441694
0.0442214
0.0442706
0.0443167
0.044359
0.0443971
0.0444303
0.0444573
0.0444775
0.0444902
0.0444947
0.0444888
0.0444708
0.0444392
0.0443923
0.0443279
0.0442446
0.0441384
0.0440082
0.043849
0.0436583
0.0434299
0.0431595
0.0428435
0.0424762
0.0420551
0.041569
0.041021
0.0403967
0.0396988
0.0389101
0.038038
0.0370785
0.0360372
0.0348552
0.0336547
0.0323154
0.0311602
0.0289728
0.042133
0.042133
0.042133
0.042133
0.042133
0.042133
0.042133
0.042133
0.042133
0.042133
0.042133
0.042133
0.0421331
0.0421346
0.0421607
0.0422974
0.042538
0.042703
0.0427402
0.0427167
0.0425889
0.0424724
0.0424173
0.042399
0.0423936
0.0423875
0.0423712
0.0423424
0.0423131
0.0422896
0.04227
0.0422526
0.0422387
0.0422289
0.0422236
0.0422209
0.0422203
0.0422213
0.0422222
0.042224
0.0422306
0.0422523
0.0422958
0.0423546
0.0424148
0.0424655
0.0425037
0.0425329
0.0425587
0.0425853
0.0426147
0.0426468
0.0426812
0.0427178
0.0427566
0.0427973
0.0428395
0.0428832
0.0429286
0.0429759
0.0430251
0.043076
0.0431284
0.0431821
0.0432371
0.0432933
0.0433509
0.0434099
0.04347
0.0435312
0.0435935
0.0436568
0.0437212
0.0437864
0.0438523
0.0439186
0.0439852
0.0440517
0.0441179
0.0441838
0.044249
0.0443134
0.0443766
0.0444382
0.0444978
0.044555
0.0446093
0.0446603
0.0447073
0.0447498
0.0447869
0.0448176
0.0448408
0.0448559
0.044862
0.0448571
0.0448386
0.0448053
0.0447551
0.0446853
0.0445946
0.0444782
0.0443338
0.0441558
0.0439416
0.0436869
0.0433856
0.0430342
0.0426234
0.0421531
0.041608
0.0409905
0.040284
0.0394958
0.0386024
0.0376183
0.0365327
0.0353271
0.0339397
0.0325814
0.0301319
0.042133
0.042133
0.042133
0.042133
0.042133
0.042133
0.042133
0.042133
0.042133
0.042133
0.042133
0.042133
0.042133
0.0421336
0.0421467
0.0422454
0.0424787
0.0426831
0.0427507
0.0427414
0.0426358
0.0425126
0.0424525
0.0424337
0.0424316
0.0424299
0.0424191
0.0423929
0.0423636
0.0423406
0.0423225
0.042307
0.0422944
0.0422856
0.0422807
0.0422791
0.04228
0.0422835
0.0422875
0.0422918
0.0422975
0.0423106
0.0423413
0.0423925
0.0424547
0.0425144
0.0425631
0.0426003
0.0426307
0.0426593
0.0426898
0.0427232
0.0427593
0.0427977
0.0428385
0.0428813
0.0429256
0.0429715
0.0430191
0.0430686
0.0431202
0.0431736
0.0432286
0.0432851
0.0433429
0.0434021
0.0434628
0.043525
0.0435886
0.0436534
0.0437194
0.0437868
0.0438554
0.0439251
0.0439958
0.0440672
0.0441392
0.0442115
0.044284
0.0443565
0.0444288
0.0445008
0.0445721
0.0446426
0.0447117
0.0447791
0.0448445
0.0449074
0.0449674
0.0450239
0.0450761
0.0451235
0.0451651
0.0451998
0.0452263
0.0452438
0.0452513
0.0452473
0.0452277
0.0451923
0.0451381
0.045062
0.0449618
0.0448327
0.0446724
0.0444751
0.0442352
0.0439479
0.0436048
0.0432027
0.0427268
0.0421787
0.0415446
0.0408299
0.0400124
0.0391028
0.0380858
0.0369689
0.0357262
0.0344805
0.0322507
0.042133
0.042133
0.042133
0.042133
0.042133
0.042133
0.042133
0.042133
0.042133
0.042133
0.042133
0.042133
0.042133
0.0421332
0.0421394
0.0422063
0.0424188
0.0426559
0.0427536
0.0427578
0.0426792
0.0425539
0.0424873
0.0424663
0.0424655
0.0424661
0.0424604
0.0424389
0.0424113
0.0423896
0.0423732
0.0423596
0.0423482
0.0423405
0.0423359
0.0423348
0.0423369
0.0423418
0.0423487
0.0423564
0.0423639
0.0423741
0.042395
0.0424352
0.0424934
0.0425577
0.0426158
0.0426623
0.0426989
0.0427309
0.042763
0.0427975
0.0428351
0.0428753
0.0429179
0.0429627
0.0430092
0.0430572
0.0431069
0.0431585
0.0432123
0.0432681
0.0433256
0.0433846
0.0434452
0.0435072
0.0435708
0.043636
0.0437027
0.0437709
0.0438406
0.0439116
0.0439841
0.044058
0.0441331
0.0442093
0.0442863
0.044364
0.0444422
0.0445208
0.0445996
0.0446784
0.0447572
0.0448356
0.0449133
0.04499
0.0450653
0.0451389
0.0452105
0.0452795
0.0453453
0.0454074
0.045465
0.0455174
0.0455637
0.0456026
0.0456324
0.0456524
0.0456615
0.0456583
0.0456376
0.0455994
0.0455397
0.0454558
0.0453446
0.0452
0.0450174
0.0447913
0.0445141
0.0441811
0.0437805
0.0433121
0.0427607
0.0421268
0.0413905
0.0405557
0.0395897
0.0385045
0.0372769
0.0359334
0.0337592
0.042133
0.042133
0.042133
0.042133
0.042133
0.042133
0.042133
0.042133
0.042133
0.042133
0.042133
0.042133
0.042133
0.0421331
0.042136
0.0421794
0.0423639
0.0426223
0.04275
0.0427721
0.0427175
0.0425943
0.0425189
0.0424949
0.0424945
0.0424983
0.0424975
0.0424826
0.042458
0.0424377
0.0424227
0.0424105
0.0424004
0.0423934
0.0423895
0.042389
0.0423923
0.042398
0.0424069
0.0424179
0.0424286
0.0424394
0.0424552
0.0424852
0.042535
0.0425987
0.0426632
0.0427186
0.0427628
0.0427994
0.0428338
0.0428697
0.0429086
0.0429504
0.0429948
0.0430415
0.04309
0.0431401
0.0431918
0.0432455
0.0433014
0.0433593
0.0434191
0.0434806
0.0435437
0.0436083
0.0436746
0.0437426
0.0438123
0.0438836
0.0439564
0.0440309
0.0441069
0.0441846
0.0442638
0.0443442
0.0444257
0.0445083
0.0445916
0.0446757
0.0447603
0.0448454
0.0449308
0.0450164
0.0451018
0.0451868
0.045271
0.0453543
0.0454363
0.0455166
0.0455947
0.0456702
0.0457423
0.0458106
0.0458741
0.0459319
0.0459831
0.0460263
0.0460596
0.0460823
0.046093
0.0460905
0.0460679
0.0460261
0.0459594
0.0458647
0.0457375
0.0455728
0.045364
0.0451058
0.044788
0.0444073
0.043947
0.0434053
0.0427638
0.0420156
0.0411308
0.0401363
0.0389676
0.037732
0.035733
0.042133
0.042133
0.042133
0.042133
0.042133
0.042133
0.042133
0.042133
0.042133
0.042133
0.042133
0.042133
0.042133
0.0421331
0.0421344
0.0421623
0.0423175
0.042586
0.0427426
0.0427849
0.0427498
0.0426289
0.0425465
0.04252
0.0425207
0.0425298
0.0425337
0.0425242
0.0425032
0.0424843
0.0424703
0.0424592
0.0424504
0.0424443
0.0424417
0.0424424
0.0424469
0.0424536
0.0424639
0.0424775
0.0424916
0.0425047
0.0425192
0.042542
0.0425821
0.0426406
0.0427075
0.0427701
0.0428221
0.0428644
0.042902
0.0429396
0.0429796
0.0430228
0.043069
0.0431175
0.043168
0.04322
0.0432737
0.0433293
0.0433872
0.0434472
0.0435092
0.0435729
0.0436383
0.0437053
0.0437741
0.0438447
0.0439171
0.0439913
0.0440671
0.0441447
0.044224
0.0443051
0.0443879
0.0444723
0.0445579
0.0446449
0.0447329
0.044822
0.0449119
0.0450026
0.045094
0.045186
0.0452784
0.0453708
0.045463
0.0455549
0.0456461
0.0457364
0.0458254
0.0459126
0.0459976
0.0460798
0.0461587
0.0462332
0.0463028
0.0463663
0.0464226
0.0464706
0.0465075
0.046533
0.0465452
0.0465427
0.0465173
0.0464704
0.0463949
0.0462881
0.046143
0.0459538
0.0457101
0.0454052
0.0450226
0.0445609
0.044004
0.0433423
0.0425541
0.0416294
0.0405319
0.0393148
0.0375062
0.042133
0.042133
0.042133
0.042133
0.042133
0.042133
0.042133
0.042133
0.042133
0.042133
0.042133
0.042133
0.042133
0.0421331
0.0421337
0.042152
0.0422813
0.042551
0.0427348
0.042797
0.0427727
0.0426559
0.0425711
0.0425437
0.0425462
0.0425616
0.0425696
0.0425635
0.0425459
0.042528
0.0425151
0.0425053
0.042498
0.0424933
0.0424921
0.0424953
0.0425013
0.0425092
0.0425208
0.0425362
0.0425532
0.0425692
0.0425846
0.0426037
0.0426354
0.0426861
0.0427513
0.0428185
0.0428774
0.0429258
0.0429674
0.043007
0.0430484
0.0430929
0.0431405
0.0431908
0.0432432
0.043297
0.0433525
0.04341
0.0434698
0.0435317
0.0435957
0.0436615
0.0437291
0.0437983
0.0438694
0.0439424
0.0440173
0.0440941
0.0441726
0.044253
0.0443353
0.0444196
0.0445057
0.0445935
0.0446829
0.0447738
0.044866
0.0449595
0.0450541
0.0451498
0.0452466
0.0453443
0.0454427
0.0455417
0.045641
0.0457405
0.0458399
0.0459391
0.0460376
0.0461352
0.0462315
0.0463261
0.0464184
0.0465079
0.0465937
0.0466751
0.0467512
0.0468207
0.0468828
0.0469358
0.0469767
0.0470052
0.0470187
0.0470158
0.0469864
0.0469324
0.0468444
0.0467187
0.046545
0.0463173
0.0460211
0.0456532
0.0451922
0.0446274
0.043933
0.0430779
0.0420637
0.0408445
0.0392068
0.042133
0.042133
0.042133
0.042133
0.042133
0.042133
0.042133
0.042133
0.042133
0.042133
0.042133
0.042133
0.042133
0.042133
0.0421335
0.0421461
0.0422555
0.0425212
0.0427296
0.0428058
0.0427873
0.0426784
0.0425937
0.0425662
0.0425714
0.0425931
0.0426047
0.0426004
0.0425853
0.0425686
0.0425571
0.0425488
0.0425432
0.0425405
0.0425416
0.0425473
0.0425552
0.0425649
0.0425777
0.0425945
0.0426136
0.0426324
0.0426496
0.0426677
0.0426936
0.0427361
0.0427965
0.0428652
0.0429296
0.042984
0.0430298
0.043072
0.0431148
0.0431605
0.0432095
0.0432614
0.0433155
0.0433711
0.0434283
0.0434875
0.043549
0.0436128
0.0436786
0.0437464
0.0438159
0.0438873
0.0439605
0.0440357
0.0441128
0.0441919
0.044273
0.0443559
0.0444409
0.044528
0.0446171
0.0447081
0.0448008
0.0448952
0.0449911
0.0450886
0.0451874
0.0452876
0.0453891
0.0454919
0.0455957
0.0457005
0.0458061
0.0459123
0.0460189
0.0461258
0.0462328
0.0463395
0.0464456
0.046551
0.046655
0.0467573
0.0468573
0.0469542
0.0470475
0.0471361
0.0472192
0.0472954
0.0473635
0.0474219
0.0474669
0.0474983
0.0475127
0.0475083
0.0474738
0.0474102
0.0473063
0.0471587
0.046953
0.0466836
0.0463273
0.0458774
0.0452948
0.0445474
0.0436302
0.0424736
0.0409273
0.042133
0.042133
0.042133
0.042133
0.042133
0.042133
0.042133
0.042133
0.042133
0.042133
0.042133
0.042133
0.042133
0.042133
0.0421333
0.0421431
0.0422388
0.0424993
0.0427261
0.0428118
0.0427976
0.0426962
0.0426139
0.0425875
0.0425959
0.0426237
0.0426381
0.0426346
0.0426215
0.0426064
0.0425965
0.0425902
0.0425866
0.042586
0.0425899
0.042598
0.0426081
0.0426197
0.0426338
0.0426517
0.0426723
0.0426935
0.0427129
0.0427316
0.0427545
0.0427902
0.0428444
0.042912
0.04298
0.0430395
0.0430897
0.0431347
0.0431791
0.0432259
0.0432762
0.0433296
0.0433852
0.0434424
0.0435013
0.0435621
0.0436252
0.0436907
0.0437582
0.0438277
0.0438991
0.0439724
0.0440476
0.0441247
0.044204
0.0442852
0.0443685
0.0444538
0.0445412
0.0446309
0.0447226
0.0448164
0.0449121
0.0450097
0.045109
0.0452099
0.0453125
0.0454167
0.0455224
0.0456296
0.0457382
0.0458481
0.0459591
0.0460711
0.046184
0.0462977
0.046412
0.0465266
0.0466413
0.0467559
0.0468701
0.0469836
0.0470957
0.0472061
0.0473142
0.0474193
0.0475207
0.0476171
0.047708
0.0477917
0.0478667
0.047931
0.0479807
0.0480153
0.0480308
0.0480239
0.0479818
0.0479051
0.0477778
0.0475948
0.0473343
0.0469888
0.046507
0.0458615
0.0450204
0.0439323
0.0424731
0.042133
0.042133
0.042133
0.042133
0.042133
0.042133
0.042133
0.042133
0.042133
0.042133
0.042133
0.042133
0.042133
0.042133
0.0421333
0.0421419
0.0422305
0.0424874
0.0427256
0.0428171
0.0428054
0.0427094
0.0426315
0.0426077
0.0426198
0.0426533
0.0426697
0.0426666
0.042655
0.0426419
0.0426341
0.0426297
0.0426282
0.0426302
0.0426363
0.0426465
0.0426585
0.0426719
0.0426875
0.0427064
0.0427283
0.0427515
0.0427733
0.0427936
0.0428156
0.0428468
0.042895
0.0429596
0.0430294
0.043093
0.0431473
0.0431951
0.0432411
0.0432891
0.0433406
0.0433952
0.0434523
0.043511
0.0435713
0.0436337
0.0436983
0.0437653
0.0438344