/*--------------------------------*- C++ -*----------------------------------*\
| =========                 |                                                 |
| \\      /  F ield         | OpenFOAM: The Open Source CFD Toolbox           |
|  \\    /   O peration     | Version:  2412                                  |
|   \\  /    A nd           | Website:  www.openfoam.com                      |
|    \\/     M anipulation  |                                                 |
\*---------------------------------------------------------------------------*/
FoamFile
{
    version     2.0;
    format      ascii;
    arch        "LSB;label=32;scalar=64";
    class       volScalarField;
    location    "0.07";
    object      T;
}
// * * * * * * * * * * * * * * * * * * * * * * * * * * * * * * * * * * * * * //

dimensions      [0 0 0 1 0 0 0];

internalField   nonuniform List<scalar> 
78650
(
224.932
224.111
224.393
224.559
224.69
224.809
224.919
225.034
225.1
225.119
225.103
225.061
225.001
224.926
224.827
224.69
224.524
224.344
224.166
223.998
223.839
223.688
223.544
223.408
223.283
223.167
223.06
222.959
222.864
222.777
222.696
222.622
222.553
222.487
222.421
222.356
222.291
222.225
222.161
222.097
222.035
221.976
221.919
221.864
221.812
221.763
221.717
221.672
221.631
221.592
221.556
221.523
221.492
221.463
221.437
221.412
221.389
221.367
221.345
221.324
221.303
221.28
221.257
221.231
221.202
221.169
221.131
221.088
221.037
220.978
220.91
220.831
220.739
220.632
220.509
220.367
220.203
220.016
219.804
219.563
219.29
218.98
218.63
218.236
217.794
217.3
216.747
216.128
215.442
214.682
213.855
212.944
211.954
210.855
209.672
208.373
206.968
205.446
203.806
202.1
200.335
198.556
196.669
194.747
192.726
190.623
188.508
186.397
184.289
182.341
180.469
178.676
177.039
175.468
174.072
172.884
171.958
171.218
170.713
170.465
168.965
224.525
223.713
223.947
224.154
224.378
224.573
224.737
224.886
224.989
225.038
225.041
225.018
224.973
224.907
224.816
224.689
224.532
224.355
224.18
224.012
223.853
223.703
223.562
223.429
223.305
223.191
223.085
222.986
222.894
222.809
222.731
222.659
222.593
222.53
222.47
222.409
222.349
222.288
222.228
222.169
222.112
222.057
222.005
221.955
221.909
221.864
221.823
221.784
221.748
221.714
221.684
221.656
221.631
221.608
221.588
221.57
221.553
221.539
221.525
221.511
221.498
221.485
221.471
221.456
221.438
221.417
221.392
221.362
221.327
221.284
221.234
221.174
221.102
221.018
220.92
220.804
220.67
220.515
220.337
220.133
219.901
219.636
219.335
218.994
218.609
218.175
217.687
217.14
216.534
215.86
215.119
214.293
213.385
212.373
211.278
210.071
208.782
207.384
205.873
204.239
202.499
200.692
198.827
196.924
195.02
193.035
191.02
189.027
186.939
184.89
182.912
180.922
179.089
177.34
175.705
174.247
173.083
172.2
171.627
171.327
169.825
224.278
223.462
223.58
223.713
223.958
224.241
224.501
224.716
224.87
224.958
224.985
224.976
224.948
224.894
224.811
224.691
224.541
224.368
224.194
224.026
223.867
223.718
223.579
223.449
223.328
223.215
223.111
223.014
222.924
222.841
222.765
222.696
222.633
222.574
222.518
222.462
222.406
222.351
222.295
222.241
222.189
222.139
222.091
222.047
222.005
221.966
221.93
221.896
221.865
221.838
221.812
221.79
221.771
221.755
221.74
221.729
221.72
221.712
221.706
221.7
221.696
221.692
221.687
221.682
221.675
221.666
221.654
221.638
221.617
221.59
221.556
221.514
221.463
221.401
221.325
221.235
221.128
221.003
220.857
220.688
220.493
220.269
220.013
219.72
219.387
219.009
218.584
218.104
217.567
216.967
216.299
215.553
214.728
213.811
212.816
211.719
210.54
209.251
207.861
206.365
204.741
202.977
201.131
199.166
197.199
195.195
193.146
191.16
189.146
187.06
185.093
183.074
181.082
179.165
177.281
175.54
174.077
172.896
172.107
171.676
169.888
224.159
223.393
223.365
223.331
223.49
223.806
224.167
224.486
224.722
224.866
224.933
224.945
224.932
224.89
224.812
224.696
224.552
224.382
224.21
224.04
223.879
223.732
223.596
223.468
223.35
223.239
223.137
223.042
222.954
222.874
222.801
222.734
222.674
222.619
222.566
222.515
222.465
222.414
222.364
222.314
222.267
222.221
222.179
222.14
222.103
222.069
222.038
222.01
221.985
221.962
221.942
221.926
221.912
221.902
221.894
221.889
221.886
221.885
221.887
221.889
221.893
221.897
221.902
221.907
221.91
221.912
221.913
221.909
221.902
221.89
221.873
221.848
221.816
221.774
221.721
221.655
221.574
221.477
221.362
221.227
221.069
220.885
220.673
220.427
220.146
219.825
219.459
219.044
218.576
218.048
217.459
216.796
216.063
215.247
214.354
213.363
212.287
211.1
209.82
208.433
206.937
205.324
203.592
201.719
199.719
197.685
195.55
193.365
191.275
189.133
187.074
185.105
183.111
181.203
179.305
177.537
175.973
174.6
173.541
172.833
170.601
224.09
223.4
223.306
223.135
223.134
223.34
223.724
224.154
224.513
224.744
224.869
224.918
224.918
224.889
224.817
224.707
224.565
224.399
224.227
224.055
223.894
223.747
223.613
223.488
223.372
223.263
223.162
223.07
222.985
222.907
222.837
222.773
222.716
222.664
222.615
222.569
222.523
222.478
222.433
222.389
222.346
222.306
222.268
222.234
222.203
222.174
222.149
222.126
222.106
222.089
222.075
222.064
222.056
222.052
222.05
222.051
222.055
222.061
222.07
222.08
222.092
222.105
222.119
222.133
222.147
222.16
222.171
222.181
222.187
222.189
222.187
222.18
222.165
222.143
222.111
222.068
222.012
221.942
221.856
221.752
221.628
221.481
221.308
221.106
220.872
220.602
220.292
219.937
219.535
219.079
218.565
217.986
217.342
216.62
215.824
214.935
213.96
212.875
211.695
210.403
209.007
207.507
205.887
204.181
202.322
200.381
198.331
196.145
193.922
191.661
189.338
187.142
184.921
182.841
180.879
179.076
177.51
176.158
175.141
174.442
172.204
224.017
223.419
223.326
223.105
222.952
222.994
223.248
223.692
224.171
224.549
224.773
224.878
224.904
224.887
224.829
224.727
224.583
224.419
224.245
224.073
223.91
223.763
223.63
223.507
223.393
223.287
223.189
223.098
223.016
222.941
222.873
222.813
222.759
222.71
222.666
222.624
222.583
222.543
222.504
222.465
222.427
222.392
222.359
222.33
222.304
222.281
222.261
222.244
222.229
222.217
222.209
222.204
222.202
222.203
222.208
222.215
222.226
222.239
222.254
222.272
222.292
222.313
222.336
222.359
222.383
222.406
222.429
222.451
222.47
222.486
222.498
222.506
222.509
222.505
222.494
222.473
222.441
222.396
222.338
222.264
222.172
222.061
221.928
221.769
221.581
221.361
221.106
220.811
220.472
220.083
219.641
219.139
218.576
217.942
217.235
216.438
215.556
214.569
213.49
212.3
211.001
209.593
208.068
206.425
204.682
202.811
200.893
198.852
196.738
194.591
192.285
189.982
187.585
185.187
182.901
180.681
178.73
177.095
175.936
175.205
172.724
223.928
223.44
223.374
223.151
222.925
222.814
222.888
223.183
223.674
224.195
224.583
224.783
224.863
224.874
224.835
224.746
224.606
224.443
224.267
224.095
223.93
223.782
223.649
223.526
223.414
223.31
223.214
223.126
223.047
222.975
222.91
222.853
222.803
222.758
222.717
222.679
222.644
222.609
222.575
222.541
222.509
222.479
222.452
222.427
222.407
222.389
222.375
222.363
222.354
222.348
222.346
222.346
222.351
222.358
222.368
222.382
222.399
222.419
222.442
222.467
222.494
222.523
222.554
222.587
222.62
222.654
222.688
222.721
222.752
222.782
222.809
222.832
222.851
222.865
222.872
222.872
222.862
222.843
222.81
222.764
222.703
222.624
222.527
222.406
222.261
222.086
221.881
221.639
221.359
221.034
220.662
220.238
219.757
219.209
218.592
217.893
217.114
216.24
215.277
214.208
213.031
211.739
210.32
208.783
207.117
205.301
203.362
201.321
199.198
197.101
194.906
192.676
190.452
188.147
185.868
183.597
181.441
179.549
178.006
176.876
173.802
223.823
223.453
223.428
223.244
222.97
222.781
222.709
222.808
223.13
223.652
224.197
224.587
224.78
224.833
224.82
224.752
224.626
224.47
224.294
224.119
223.953
223.803
223.667
223.544
223.433
223.332
223.239
223.155
223.079
223.01
222.948
222.895
222.848
222.807
222.77
222.737
222.705
222.676
222.647
222.619
222.592
222.568
222.546
222.527
222.511
222.499
222.49
222.484
222.481
222.481
222.484
222.491
222.501
222.514
222.53
222.55
222.574
222.6
222.63
222.662
222.697
222.734
222.774
222.815
222.857
222.901
222.945
222.989
223.032
223.075
223.115
223.153
223.188
223.218
223.243
223.262
223.274
223.277
223.27
223.251
223.219
223.173
223.109
223.026
222.922
222.792
222.635
222.447
222.223
221.961
221.656
221.302
220.895
220.427
219.896
219.291
218.616
217.853
217.008
216.061
215.013
213.854
212.573
211.177
209.645
207.986
206.171
204.22
202.089
199.82
197.538
195.106
192.76
190.33
187.939
185.66
183.506
181.654
180.157
179.04
176.008
223.712
223.457
223.465
223.344
223.07
222.813
222.682
222.648
222.754
223.08
223.614
224.162
224.542
224.712
224.754
224.725
224.633
224.486
224.317
224.145
223.98
223.826
223.685
223.56
223.449
223.351
223.263
223.183
223.11
223.044
222.986
222.935
222.893
222.856
222.823
222.794
222.768
222.743
222.719
222.697
222.676
222.657
222.64
222.627
222.617
222.61
222.607
222.606
222.609
222.615
222.624
222.636
222.652
222.671
222.694
222.72
222.75
222.783
222.82
222.859
222.901
222.946
222.994
223.043
223.095
223.148
223.202
223.257
223.312
223.366
223.42
223.471
223.521
223.567
223.61
223.648
223.679
223.703
223.719
223.725
223.721
223.704
223.672
223.623
223.556
223.467
223.353
223.213
223.042
222.836
222.593
222.306
221.973
221.586
221.143
220.634
220.058
219.401
218.663
217.825
216.888
215.841
214.677
213.4
211.99
210.465
208.811
207.011
205.103
202.999
200.865
198.479
196.004
193.442
190.776
188.196
185.647
183.395
181.545
180.206
176.466
223.592
223.452
223.484
223.424
223.202
222.915
222.714
222.63
222.623
222.717
223.034
223.549
224.075
224.446
224.622
224.649
224.604
224.484
224.324
224.161
224.001
223.846
223.701
223.573
223.464
223.369
223.284
223.21
223.142
223.08
223.024
222.977
222.938
222.906
222.878
222.853
222.832
222.812
222.793
222.776
222.761
222.747
222.736
222.728
222.723
222.722
222.724
222.729
222.738
222.749
222.764
222.782
222.804
222.829
222.858
222.891
222.927
222.966
223.009
223.056
223.105
223.158
223.213
223.271
223.331
223.393
223.457
223.522
223.588
223.653
223.719
223.784
223.848
223.909
223.968
224.023
224.074
224.119
224.156
224.186
224.206
224.216
224.216
224.2
224.17
224.119
224.049
223.954
223.833
223.682
223.498
223.275
223.011
222.698
222.335
221.911
221.425
220.863
220.225
219.496
218.676
217.75
216.712
215.558
214.271
212.86
211.296
209.595
207.752
205.777
203.652
201.46
199.093
196.738
194.212
191.75
189.169
186.808
184.685
183.01
178.819
223.455
223.438
223.501
223.482
223.329
223.061
222.812
222.663
222.611
222.62
222.707
222.997
223.459
223.938
224.289
224.452
224.48
224.422
224.308
224.163
224.008
223.858
223.716
223.59
223.481
223.386
223.305
223.235
223.171
223.113
223.062
223.019
222.983
222.954
222.931
222.912
222.895
222.881
222.867
222.855
222.845
222.837
222.831
222.829
222.829
222.834
222.841
222.852
222.867
222.884
222.904
222.928
222.956
222.987
223.022
223.061
223.103
223.149
223.199
223.252
223.309
223.368
223.431
223.497
223.565
223.637
223.71
223.785
223.861
223.938
224.015
224.092
224.17
224.245
224.32
224.391
224.459
224.523
224.582
224.634
224.678
224.713
224.739
224.753
224.756
224.742
224.71
224.657
224.582
224.48
224.35
224.187
223.988
223.746
223.46
223.119
222.723
222.257
221.724
221.108
220.411
219.615
218.717
217.708
216.572
215.31
213.896
212.343
210.626
208.741
206.672
204.466
202.021
199.501
196.878
194.219
191.584
189.204
187.111
185.513
181.53
223.317
223.422
223.515
223.519
223.43
223.207
222.95
222.748
222.642
222.617
222.641
222.734
222.973
223.35
223.759
224.083
224.251
224.288
224.242
224.136
224
223.858
223.721
223.601
223.498
223.405
223.327
223.259
223.199
223.146
223.099
223.06
223.028
223.004
222.985
222.971
222.96
222.95
222.942
222.935
222.929
222.926
222.926
222.929
222.936
222.945
222.959
222.975
222.995
223.018
223.044
223.074
223.107
223.144
223.185
223.23
223.278
223.33
223.387
223.446
223.51
223.577
223.647
223.72
223.797
223.876
223.958
224.042
224.128
224.216
224.304
224.393
224.483
224.572
224.661
224.748
224.833
224.915
224.992
225.065
225.132
225.192
225.244
225.287
225.318
225.337
225.343
225.331
225.3
225.246
225.166
225.059
224.919
224.743
224.527
224.263
223.95
223.576
223.142
222.635
222.053
221.38
220.613
219.738
218.744
217.631
216.374
214.982
213.43
211.733
209.876
207.821
205.633
203.196
200.66
197.822
194.955
192.164
189.621
187.585
182.713
223.213
223.388
223.51
223.545
223.501
223.329
223.086
222.868
222.717
222.652
222.648
222.69
222.786
222.955
223.226
223.548
223.824
223.986
224.042
224.011
223.934
223.833
223.715
223.607
223.509
223.422
223.347
223.282
223.226
223.177
223.135
223.099
223.071
223.051
223.037
223.028
223.023
223.019
223.016
223.014
223.013
223.015
223.02
223.028
223.04
223.055
223.074
223.096
223.122
223.15
223.182
223.218
223.257
223.3
223.346
223.397
223.451
223.51
223.572
223.639
223.709
223.782
223.86
223.94
224.025
224.112
224.203
224.296
224.391
224.489
224.588
224.688
224.79
224.892
224.994
225.095
225.196
225.294
225.39
225.482
225.57
225.652
225.728
225.796
225.856
225.906
225.943
225.966
225.974
225.964
225.932
225.876
225.792
225.677
225.528
225.338
225.104
224.818
224.478
224.07
223.594
223.033
222.385
221.633
220.772
219.793
218.675
217.424
216.012
214.451
212.711
210.801
208.707
206.428
203.983
201.309
198.674
196.113
193.673
191.548
186.595
223.136
223.331
223.494
223.562
223.543
223.425
223.21
222.998
222.828
222.723
222.688
222.702
222.761
222.845
222.935
223.098
223.311
223.528
223.702
223.796
223.815
223.771
223.695
223.604
223.511
223.425
223.352
223.295
223.25
223.209
223.172
223.139
223.114
223.097
223.088
223.084
223.085
223.088
223.09
223.093
223.097
223.104
223.113
223.126
223.143
223.164
223.188
223.216
223.247
223.281
223.319
223.36
223.404
223.453
223.505
223.562
223.622
223.686
223.755
223.827
223.904
223.984
224.068
224.156
224.247
224.343
224.441
224.543
224.647
224.754
224.863
224.974
225.086
225.2
225.315
225.43
225.545
225.659
225.771
225.881
225.988
226.091
226.189
226.282
226.368
226.446
226.515
226.572
226.616
226.644
226.656
226.649
226.617
226.559
226.47
226.347
226.185
225.979
225.724
225.41
225.035
224.584
224.056
223.437
222.719
221.891
220.936
219.855
218.617
217.225
215.644
213.893
211.945
209.778
207.379
204.757
201.957
198.977
196.27
194.055
189.002
223.08
223.263
223.467
223.568
223.569
223.502
223.321
223.121
222.948
222.821
222.757
222.748
222.778
222.836
222.885
222.909
222.957
223.061
223.233
223.412
223.539
223.582
223.572
223.53
223.473
223.408
223.345
223.297
223.264
223.235
223.208
223.18
223.157
223.143
223.137
223.138
223.145
223.154
223.162
223.171
223.18
223.191
223.205
223.223
223.244
223.27
223.3
223.333
223.37
223.41
223.453
223.499
223.549
223.603
223.661
223.723
223.789
223.859
223.933
224.012
224.095
224.181
224.272
224.367
224.465
224.568
224.674
224.784
224.896
225.012
225.13
225.251
225.374
225.499
225.626
225.753
225.881
226.01
226.137
226.264
226.388
226.511
226.63
226.744
226.854
226.958
227.054
227.142
227.219
227.283
227.333
227.366
227.381
227.377
227.345
227.285
227.191
227.059
226.884
226.659
226.381
226.037
225.627
225.133
224.552
223.869
223.07
222.15
221.078
219.864
218.477
216.924
215.161
213.201
211.04
208.669
206.1
203.322
200.421
197.899
192.359
223.043
223.196
223.422
223.564
223.591
223.561
223.419
223.231
223.062
222.928
222.844
222.818
222.826
222.861
222.893
222.885
222.836
222.794
222.832
222.96
223.131
223.288
223.383
223.414
223.393
223.362
223.325
223.292
223.268
223.249
223.233
223.215
223.199
223.189
223.185
223.19
223.202
223.217
223.232
223.247
223.262
223.278
223.296
223.318
223.344
223.374
223.409
223.448
223.49
223.535
223.583
223.635
223.69
223.75
223.813
223.88
223.952
224.028
224.108
224.192
224.28
224.373
224.47
224.571
224.676
224.786
224.899
225.016
225.137
225.261
225.388
225.518
225.65
225.786
225.923
226.062
226.203
226.344
226.486
226.628
226.769
226.908
227.046
227.181
227.313
227.44
227.562
227.678
227.785
227.883
227.969
228.042
228.099
228.138
228.158
228.158
228.124
228.061
227.959
227.816
227.627
227.381
227.076
226.696
226.237
225.683
225.023
224.246
223.331
222.279
221.059
219.671
218.076
216.282
214.249
211.989
209.495
206.894
204.01
201.702
196.855
223.021
223.136
223.365
223.55
223.611
223.602
223.501
223.331
223.169
223.036
222.94
222.899
222.895
222.908
222.924
222.897
222.823
222.713
222.63
222.629
222.716
222.876
223.046
223.173
223.249
223.278
223.28
223.268
223.259
223.25
223.243
223.239
223.237
223.234
223.235
223.242
223.258
223.278
223.3
223.321
223.341
223.362
223.385
223.411
223.441
223.476
223.515
223.559
223.606
223.657
223.71
223.767
223.828
223.892
223.961
224.033
224.11
224.191
224.277
224.367
224.461
224.559
224.662
224.77
224.881
224.997
225.117
225.241
225.369
225.501
225.636
225.775
225.916
226.061
226.209
226.358
226.51
226.664
226.819
226.974
227.13
227.286
227.441
227.594
227.745
227.894
228.039
228.179
228.314
228.441
228.56
228.667
228.764
228.846
228.91
228.956
228.979
228.981
228.947
228.881
228.772
228.615
228.407
228.133
227.792
227.367
226.85
226.229
225.488
224.62
223.591
222.399
221.015
219.438
217.62
215.558
213.24
210.712
207.917
205.199
199.963
223.009
223.088
223.302
223.526
223.621
223.628
223.569
223.424
223.27
223.138
223.035
222.979
222.966
222.967
222.971
222.929
222.839
222.703
222.573
222.473
222.447
222.507
222.653
222.835
222.997
223.107
223.16
223.193
223.211
223.226
223.238
223.248
223.261
223.271
223.281
223.293
223.311
223.336
223.363
223.39
223.417
223.443
223.471
223.502
223.536
223.575
223.618
223.666
223.718
223.774
223.833
223.895
223.961
224.03
224.104
224.181
224.263
224.35
224.44
224.535
224.635
224.739
224.848
224.961
225.078
225.2
225.326
225.457
225.592
225.731
225.874
226.02
226.17
226.324
226.48
226.64
226.802
226.967
227.133
227.302
227.471
227.641
227.811
227.981
228.15
228.318
228.484
228.647
228.806
228.96
229.108
229.248
229.378
229.498
229.605
229.697
229.769
229.822
229.85
229.853
229.818
229.745
229.626
229.453
229.224
228.921
228.541
228.066
227.483
226.778
225.925
224.921
223.735
222.355
220.741
218.905
216.819
214.548
212.059
209.551
204.884
223.004
223.054
223.24
223.492
223.62
223.654
223.623
223.507
223.362
223.233
223.126
223.058
223.034
223.026
223.019
222.97
222.866
222.716
222.562
222.428
222.325
222.288
222.332
222.468
222.658
222.844
222.991
223.087
223.143
223.182
223.221
223.247
223.27
223.295
223.321
223.343
223.365
223.392
223.424
223.458
223.49
223.522
223.555
223.589
223.628
223.671
223.718
223.77
223.827
223.888
223.952
224.019
224.09
224.164
224.242
224.325
224.411
224.502
224.598
224.698
224.803
224.912
225.026
225.145
225.268
225.395
225.528
225.665
225.806
225.952
226.101
226.255
226.413
226.574
226.739
226.908
227.08
227.254
227.432
227.611
227.793
227.976
228.16
228.345
228.53
228.715
228.9
229.083
229.264
229.441
229.615
229.782
229.944
230.097
230.24
230.372
230.49
230.593
230.673
230.732
230.764
230.77
230.733
230.653
230.522
230.328
230.067
229.721
229.279
228.726
228.042
227.218
226.219
225.037
223.638
222.011
220.102
217.973
215.495
212.964
208.605
223.002
223.032
223.185
223.448
223.615
223.678
223.664
223.577
223.443
223.321
223.216
223.139
223.101
223.083
223.062
223.009
222.896
222.736
222.57
222.415
222.284
222.191
222.153
222.193
222.324
222.521
222.725
222.897
223.016
223.102
223.173
223.225
223.264
223.304
223.345
223.383
223.414
223.446
223.482
223.521
223.559
223.596
223.634
223.674
223.716
223.763
223.815
223.871
223.932
223.997
224.066
224.138
224.213
224.292
224.375
224.463
224.554
224.65
224.75
224.855
224.964
225.079
225.198
225.321
225.45
225.583
225.72
225.863
226.011
226.162
226.318
226.479
226.643
226.812
226.985
227.162
227.342
227.526
227.713
227.902
228.095
228.289
228.486
228.684
228.884
229.084
229.285
229.486
229.686
229.884
230.081
230.274
230.462
230.645
230.821
230.988
231.146
231.291
231.421
231.534
231.624
231.689
231.725
231.731
231.69
231.598
231.449
231.228
230.929
230.534
230.028
229.395
228.601
227.64
226.474
225.076
223.421
221.526
219.338
216.959
213.136
223.001
223.019
223.141
223.402
223.611
223.695
223.694
223.633
223.515
223.403
223.303
223.22
223.167
223.134
223.097
223.035
222.919
222.756
222.58
222.417
222.27
222.151
222.074
222.046
222.089
222.221
222.425
222.646
222.838
222.986
223.093
223.175
223.247
223.302
223.356
223.41
223.456
223.496
223.537
223.58
223.624
223.667
223.71
223.754
223.801
223.852
223.908
223.968
224.033
224.103
224.176
224.252
224.332
224.416
224.503
224.595
224.691
224.791
224.896
225.005
225.119
225.238
225.362
225.49
225.623
225.761
225.904
226.052
226.205
226.363
226.525
226.691
226.862
227.038
227.217
227.401
227.589
227.781
227.977
228.176
228.378
228.583
228.791
229.001
229.213
229.427
229.642
229.859
230.076
230.293
230.509
230.724
230.936
231.144
231.349
231.547
231.739
231.921
232.094
232.252
232.395
232.519
232.618
232.69
232.73
232.736
232.688
232.585
232.414
232.16
231.808
231.34
230.727
229.96
228.995
227.817
226.398
224.698
222.732
220.407
217.041
223
223.011
223.108
223.36
223.603
223.708
223.718
223.678
223.579
223.478
223.386
223.3
223.231
223.18
223.124
223.047
222.928
222.767
222.589
222.42
222.27
222.138
222.036
221.979
221.969
222.018
222.159
222.373
222.607
222.817
222.984
223.109
223.209
223.286
223.353
223.423
223.488
223.54
223.587
223.636
223.685
223.734
223.782
223.831
223.883
223.938
223.998
224.062
224.131
224.204
224.282
224.362
224.447
224.535
224.626
224.722
224.822
224.927
225.036
225.149
225.268
225.391
225.519
225.652
225.79
225.932
226.08
226.233
226.391
226.554
226.721
226.893
227.07
227.251
227.437
227.628
227.823
228.022
228.225
228.433
228.643
228.857
229.075
229.295
229.519
229.745
229.973
230.203
230.434
230.667
230.901
231.134
231.367
231.598
231.826
232.052
232.273
232.489
232.697
232.895
233.083
233.257
233.413
233.55
233.658
233.737
233.779
233.783
233.723
233.598
233.386
233.08
232.649
232.081
231.327
230.375
229.177
227.7
225.976
223.85
220.843
223
223.007
223.085
223.325
223.591
223.718
223.741
223.715
223.635
223.546
223.461
223.374
223.29
223.216
223.142
223.046
222.921
222.763
222.59
222.423
222.271
222.137
222.023
221.942
221.91
221.918
221.981
222.137
222.365
222.613
222.834
223.008
223.141
223.249
223.341
223.425
223.507
223.576
223.633
223.688
223.742
223.796
223.849
223.903
223.959
224.019
224.083
224.151
224.224
224.302
224.383
224.468
224.556
224.648
224.744
224.844
224.948
225.057
225.17
225.287
225.41
225.537
225.669
225.806
225.948
226.095
226.247
226.404
226.567
226.734
226.907
227.084
227.266
227.453
227.645
227.841
228.042
228.248
228.458
228.672
228.89
229.113
229.339
229.568
229.801
230.038
230.277
230.519
230.763
231.01
231.258
231.508
231.758
232.008
232.258
232.507
232.753
232.996
233.235
233.468
233.694
233.91
234.114
234.304
234.475
234.624
234.742
234.827
234.871
234.872
234.795
234.648
234.393
234.026
233.5
232.805
231.86
230.638
229.119
227.176
224.436
223
223.005
223.07
223.3
223.581
223.728
223.762
223.747
223.684
223.607
223.529
223.438
223.338
223.24
223.145
223.033
222.898
222.743
222.579
222.419
222.271
222.137
222.021
221.931
221.878
221.868
221.892
221.978
222.156
222.402
222.658
222.88
223.057
223.198
223.317
223.419
223.517
223.603
223.674
223.736
223.796
223.855
223.913
223.972
224.033
224.097
224.165
224.238
224.315
224.396
224.481
224.57
224.662
224.758
224.857
224.961
225.069
225.181
225.298
225.42
225.546
225.677
225.813
225.954
226.1
226.251
226.407
226.568
226.735
226.907
227.084
227.265
227.452
227.644
227.841
228.043
228.249
228.461
228.677
228.897
229.123
229.352
229.585
229.823
230.064
230.31
230.558
230.811
231.066
231.324
231.585
231.849
232.114
232.381
232.648
232.916
233.184
233.451
233.716
233.978
234.235
234.487
234.732
234.967
235.189
235.396
235.583
235.748
235.876
235.968
236.014
236.008
235.903
235.71
235.375
234.894
234.177
233.215
231.918
230.209
227.737
223
223.004
223.062
223.284
223.576
223.739
223.783
223.776
223.729
223.662
223.588
223.491
223.372
223.252
223.133
223.003
222.861
222.71
222.555
222.406
222.266
222.137
222.021
221.928
221.866
221.844
221.848
221.894
222.011
222.219
222.478
222.734
222.953
223.13
223.277
223.403
223.518
223.621
223.706
223.778
223.845
223.91
223.973
224.037
224.103
224.171
224.244
224.321
224.401
224.486
224.575
224.667
224.763
224.862
224.965
225.073
225.185
225.3
225.421
225.546
225.675
225.81
225.949
226.094
226.244
226.398
226.558
226.723
226.894
227.07
227.251
227.436
227.627
227.824
228.025
228.232
228.443
228.66
228.881
229.108
229.339
229.574
229.814
230.059
230.307
230.56
230.818
231.078
231.343
231.612
231.884
232.159
232.437
232.717
233
233.284
233.57
233.856
234.143
234.429
234.714
234.996
235.274
235.547
235.812
236.067
236.311
236.537
236.743
236.922
237.06
237.158
237.2
237.17
237.032
236.787
236.35
235.704
234.663
233.234
230.948
223
223.004
223.06
223.28
223.577
223.753
223.804
223.803
223.77
223.711
223.636
223.526
223.387
223.247
223.1
222.955
222.812
222.666
222.52
222.381
222.253
222.131
222.021
221.929
221.864
221.835
221.831
221.851
221.929
222.085
222.319
222.585
222.836
223.05
223.229
223.382
223.515
223.634
223.734
223.817
223.891
223.962
224.03
224.099
224.169
224.242
224.319
224.4
224.485
224.573
224.665
224.761
224.86
224.963
225.07
225.181
225.296
225.415
225.539
225.667
225.8
225.938
226.081
226.229
226.382
226.54
226.703
226.872
227.046
227.226
227.41
227.6
227.795
227.995
228.201
228.411
228.627
228.848
229.075
229.306
229.542
229.783
230.029
230.279
230.534
230.794
231.059
231.327
231.6
231.877
232.158
232.444
232.732
233.025
233.32
233.618
233.919
234.222
234.526
234.833
235.139
235.446
235.752
236.056
236.356
236.652
236.941
237.219
237.486
237.734
237.961
238.159
238.314
238.419
238.458
238.408
238.21
237.843
237.101
236.095
234.076
223
223.004
223.061
223.284
223.585
223.77
223.826
223.831
223.808
223.752
223.668
223.541
223.383
223.213
223.047
222.896
222.754
222.613
222.475
222.347
222.232
222.12
222.019
221.931
221.866
221.833
221.826
221.834
221.885
222.004
222.197
222.451
222.718
222.964
223.173
223.352
223.506
223.642
223.757
223.851
223.933
224.01
224.084
224.157
224.232
224.31
224.391
224.476
224.565
224.657
224.752
224.851
224.953
225.059
225.169
225.283
225.402
225.524
225.651
225.783
225.919
226.06
226.206
226.357
226.513
226.674
226.841
227.013
227.191
227.374
227.561
227.754
227.953
228.157
228.367
228.581
228.801
229.026
229.257
229.493
229.733
229.979
230.23
230.486
230.747
231.013
231.283
231.559
231.839
232.123
232.413
232.707
233.005
233.307
233.613
233.922
234.236
234.553
234.873
235.195
235.521
235.848
236.176
236.505
236.834
237.162
237.488
237.809
238.124
238.43
238.724
239
239.252
239.467
239.632
239.734
239.765
239.654
239.277
238.732
237.268
223
223.005
223.067
223.299
223.604
223.791
223.85
223.859
223.841
223.782
223.682
223.535
223.347
223.153
222.978
222.827
222.69
222.555
222.425
222.308
222.204
222.105
222.014
221.933
221.869
221.835
221.826
221.831
221.866
221.958
222.117
222.341
222.609
222.876
223.115
223.32
223.496
223.648
223.777
223.882
223.973
224.055
224.134
224.213
224.292
224.374
224.46
224.549
224.642
224.737
224.836
224.938
225.043
225.152
225.265
225.383
225.504
225.629
225.759
225.894
226.033
226.177
226.326
226.48
226.639
226.803
226.973
227.148
227.329
227.515
227.706
227.902
228.104
228.311
228.524
228.743
228.966
229.195
229.43
229.669
229.914
230.165
230.42
230.681
230.947
231.218
231.494
231.776
232.062
232.353
232.65
232.951
233.257
233.568
233.883
234.203
234.527
234.856
235.188
235.525
235.866
236.21
236.557
236.907
237.259
237.613
237.968
238.323
238.677
239.028
239.374
239.711
240.037
240.344
240.626
240.861
241.052
241.157
241.158
240.941
240.237
223
223.006
223.078
223.324
223.63
223.817
223.876
223.884
223.865
223.796
223.676
223.496
223.28
223.074
222.9
222.752
222.621
222.494
222.373
222.267
222.172
222.086
222.007
221.934
221.874
221.839
221.828
221.833
221.861
221.934
222.067
222.264
222.517
222.794
223.057
223.288
223.485
223.653
223.794
223.911
224.01
224.098
224.183
224.266
224.35
224.436
224.526
224.619
224.715
224.814
224.916
225.021
225.129
225.241
225.357
225.477
225.601
225.73
225.863
226
226.142
226.289
226.441
226.598
226.76
226.927
227.099
227.277
227.461
227.65
227.844
228.043
228.248
228.459
228.675
228.897
229.124
229.356
229.594
229.838
230.087
230.341
230.601
230.866
231.137
231.413
231.695
231.981
232.273
232.571
232.873
233.182
233.495
233.813
234.137
234.465
234.799
235.138
235.482
235.83
236.183
236.541
236.904
237.271
237.642
238.017
238.395
238.777
239.16
239.546
239.931
240.315
240.695
241.069
241.429
241.768
242.079
242.345
242.594
242.68
242.616
223
223.009
223.095
223.358
223.665
223.845
223.903
223.904
223.876
223.791
223.637
223.422
223.19
222.983
222.814
222.674
222.55
222.432
222.321
222.226
222.14
222.065
221.997
221.933
221.878
221.843
221.832
221.835
221.861
221.925
222.038
222.211
222.447
222.724
223.004
223.257
223.475
223.658
223.812
223.939
224.045
224.14
224.229
224.317
224.405
224.496
224.59
224.687
224.786
224.888
224.993
225.101
225.212
225.326
225.445
225.568
225.695
225.826
225.962
226.101
226.246
226.396
226.55
226.71
226.874
227.044
227.219
227.4
227.587
227.778
227.975
228.177
228.385
228.599
228.818
229.043
229.273
229.509
229.751
229.998
230.25
230.509
230.772
231.042
231.317
231.597
231.884
232.175
232.472
232.775
233.084
233.398
233.718
234.043
234.374
234.71
235.052
235.399
235.752
236.111
236.475
236.845
237.22
237.6
237.986
238.378
238.774
239.175
239.581
239.991
240.404
240.821
241.237
241.654
242.065
242.468
242.854
243.235
243.585
243.839
244.095
223
223.013
223.12
223.403
223.708
223.873
223.926
223.917
223.873
223.757
223.562
223.322
223.085
222.885
222.726
222.595
222.48
222.371
222.272
222.185
222.11
222.045
221.986
221.93
221.881
221.848
221.835
221.838
221.862
221.923
222.023
222.178
222.397
222.67
222.96
223.232
223.467
223.665
223.829
223.965
224.078
224.179
224.273
224.365
224.458
224.553
224.65
224.751
224.854
224.959
225.067
225.177
225.29
225.408
225.529
225.654
225.784
225.918
226.056
226.198
226.345
226.497
226.655
226.817
226.984