/*--------------------------------*- C++ -*----------------------------------*\
| =========                 |                                                 |
| \\      /  F ield         | OpenFOAM: The Open Source CFD Toolbox           |
|  \\    /   O peration     | Version:  2412                                  |
|   \\  /    A nd           | Website:  www.openfoam.com                      |
|    \\/     M anipulation  |                                                 |
\*---------------------------------------------------------------------------*/
FoamFile
{
    version     2.0;
    format      ascii;
    arch        "LSB;label=32;scalar=64";
    class       volScalarField;
    location    "0.071";
    object      T;
}
// * * * * * * * * * * * * * * * * * * * * * * * * * * * * * * * * * * * * * //

dimensions      [0 0 0 1 0 0 0];

internalField   nonuniform List<scalar> 
9922
(
248.25
223.254
225.146
226.147
226.114
226.099
225.965
225.771
225.545
225.289
225.019
224.744
224.471
224.209
223.961
223.729
223.516
223.323
223.151
223
222.867
222.747
222.634
222.524
222.411
222.29
222.156
222.003
221.827
221.625
221.398
221.144
220.866
220.564
220.24
219.895
219.531
219.148
218.745
218.322
217.879
217.414
216.927
216.416
215.881
215.32
214.73
214.11
213.458
212.772
212.05
211.286
210.469
209.596
208.662
207.581
205.999
202.871
198.852
195.207
192.486
190.461
188.83
187.416
186.195
185.104
184.127
183.258
182.478
181.757
181.088
180.469
179.892
179.358
178.861
178.402
177.973
177.564
177.177
176.805
176.452
176.116
175.799
175.492
175.198
174.917
174.65
174.394
174.146
173.905
173.675
173.453
173.24
173.034
172.835
172.642
172.457
172.28
172.113
171.957
171.809
171.67
171.536
171.41
171.286
171.162
171.032
170.896
170.754
170.621
170.507
170.432
170.395
170.389
170.406
170.453
170.53
170.614
170.682
170.715
170.649
248.3
223.255
225.126
226.121
226.09
226.083
225.954
225.764
225.539
225.285
225.016
224.742
224.469
224.208
223.96
223.727
223.514
223.321
223.149
222.998
222.865
222.745
222.632
222.521
222.408
222.286
222.151
221.997
221.821
221.619
221.39
221.136
220.856
220.553
220.227
219.881
219.514
219.128
218.722
218.295
217.848
217.377
216.883
216.364
215.818
215.245
214.639
214
213.324
212.607
211.844
211.027
210.143
209.18
208.083
206.65
204.382
201.098
197.635
194.678
192.348
190.469
188.894
187.54
186.312
185.21
184.218
183.326
182.516
181.79
181.129
180.519
179.952
179.421
178.914
178.434
177.981
177.563
177.173
176.8
176.445
176.103
175.779
175.471
175.178
174.9
174.638
174.385
174.141
173.905
173.678
173.461
173.253
173.054
172.863
172.679
172.499
172.323
172.151
171.985
171.827
171.678
171.537
171.405
171.277
171.149
171.017
170.877
170.733
170.597
170.481
170.404
170.368
170.363
170.383
170.433
170.514
170.603
170.674
170.712
170.65
248.351
223.258
225.105
226.094
226.065
226.066
225.944
225.756
225.534
225.281
225.013
224.74
224.467
224.206
223.958
223.725
223.512
223.318
223.147
222.996
222.862
222.742
222.629
222.518
222.404
222.282
222.147
221.992
221.815
221.612
221.383
221.127
220.846
220.542
220.215
219.866
219.498
219.109
218.699
218.269
217.817
217.341
216.84
216.312
215.756
215.17
214.549
213.89
213.189
212.44
211.636
210.764
209.808
208.737
207.448
205.689
203.037
199.967
196.978
194.414
192.298
190.52
188.992
187.637
186.441
185.349
184.351
183.441
182.612
181.856
181.165
180.543
179.971
179.448
178.957
178.492
178.046
177.618
177.215
176.834
176.474
176.132
175.809
175.501
175.208
174.925
174.654
174.392
174.141
173.9
173.67
173.448
173.236
173.032
172.838
172.653
172.478
172.312
172.152
171.998
171.85
171.709
171.574
171.446
171.321
171.196
171.064
170.925
170.779
170.641
170.521
170.44
170.399
170.391
170.408
170.457
170.536
170.624
170.694
170.731
170.671
248.403
223.262
225.085
226.066
226.04
226.049
225.932
225.748
225.528
225.276
225.01
224.738
224.466
224.204
223.956
223.723
223.509
223.316
223.144
222.993
222.86
222.74
222.626
222.515
222.401
222.278
222.142
221.987
221.809
221.605
221.375
221.119
220.837
220.531
220.202
219.852
219.481
219.089
218.677
218.243
217.786
217.305
216.798
216.262
215.695
215.096
214.46
213.782
213.055
212.274
211.426
210.498
209.464
208.267
206.769
204.735
202.083
199.247
196.584
194.267
192.301
190.599
189.098
187.764
186.548
185.456
184.473
183.569
182.74
181.973
181.266
180.613
180.013
179.467
178.967
178.506
178.072
177.66
177.267
176.889
176.529
176.181
175.854
175.542
175.247
174.961
174.688
174.425
174.174
173.935
173.707
173.486
173.274
173.069
172.87
172.677
172.492
172.314
172.143
171.979
171.824
171.679
171.545
171.418
171.296
171.173
171.044
170.909
170.768
170.633
170.516
170.439
170.403
170.399
170.419
170.473
170.557
170.65
170.723
170.761
170.702
248.454
223.267
225.064
226.038
226.015
226.031
225.92
225.74
225.522
225.272
225.007
224.735
224.464
224.203
223.954
223.721
223.507
223.313
223.142
222.991
222.858
222.737
222.624
222.512
222.397
222.274
222.137
221.981
221.802
221.598
221.367
221.11
220.827
220.52
220.19
219.838
219.465
219.07
218.655
218.217
217.756
217.27
216.756
216.212
215.635
215.023
214.371
213.673
212.922
212.108
211.218
210.233
209.117
207.794
206.125
203.924
201.386
198.777
196.345
194.203
192.335
190.716
189.261
187.918
186.693
185.575
184.556
183.641
182.814
182.06
181.364
180.716
180.111
179.548
179.018
178.529
178.076
177.658
177.264
176.883
176.517
176.164
175.834
175.52
175.223
174.935
174.66
174.395
174.145
173.908
173.682
173.464
173.255
173.056
172.865
172.683
172.509
172.341
172.175
172.014
171.858
171.711
171.573
171.443
171.316
171.19
171.057
170.919
170.775
170.636
170.515
170.432
170.39
170.382
170.398
170.45
170.533
170.626
170.698
170.734
170.674
248.505
223.274
225.042
226.009
225.99
226.013
225.908
225.731
225.515
225.268
225.004
224.733
224.462
224.201
223.952
223.719
223.505
223.311
223.139
222.988
222.855
222.735
222.621
222.509
222.394
222.27
222.132
221.975
221.796
221.591
221.359
221.101
220.817
220.509
220.177
219.823
219.448
219.052
218.633
218.192
217.727
217.235
216.715
216.163
215.576
214.952
214.284
213.566
212.79
211.943
211.012
209.97
208.773
207.346
205.566
203.318
200.893
198.465
196.205
194.186
192.417
190.839
189.415
188.113
186.892
185.757
184.713
183.757
182.891
182.11
181.405
180.762
180.169
179.62
179.099
178.606
178.135
177.69
177.276
176.888
176.525
176.177
175.853
175.545
175.252
174.964
174.687
174.422
174.173
173.934
173.704
173.481
173.267
173.059
172.859
172.668
172.487
172.314
172.149
171.993
171.844
171.704
171.571
171.445
171.322
171.2
171.072
170.938
170.797
170.661
170.541
170.46
170.419
170.412
170.43
170.483
170.567
170.664
170.737
170.775
170.713
248.557
223.282
225.021
225.98
225.965
225.995
225.895
225.722
225.509
225.263
225.001
224.731
224.46
224.199
223.95
223.717
223.502
223.308
223.137
222.986
222.853
222.732
222.618
222.506
222.39
222.265
222.127
221.969
221.789
221.584
221.351
221.092
220.807
220.498
220.165
219.809
219.432
219.033
218.612
218.167
217.697
217.201
216.674
216.115
215.519
214.882
214.198
213.461
212.659
211.781
210.809
209.709
208.433
206.916
205.058
202.867
200.544
198.26
196.143
194.233
192.514
190.968
189.561
188.262
187.067
185.95
184.909
183.945
183.057
182.24
181.494
180.816
180.2
179.641
179.127
178.652
178.201
177.766
177.35
176.959
176.594
176.245
175.915
175.595
175.286
174.985
174.701
174.434
174.185
173.947
173.718
173.499
173.288
173.085
172.89
172.701
172.518
172.338
172.164
172.001
171.846
171.699
171.56
171.428
171.3
171.174
171.044
170.908
170.765
170.626
170.504
170.42
170.377
170.37
170.39
170.446
170.534
170.635
170.713
170.753
170.693
248.609
223.292
224.999
225.95
225.939
225.976
225.882
225.712
225.502
225.258
224.998
224.729
224.459
224.197
223.948
223.715
223.5
223.306
223.134
222.983
222.85
222.73
222.616
222.503
222.387
222.261
222.122
221.963
221.782
221.576
221.343
221.083
220.797
220.487
220.152
219.795
219.416
219.015
218.591
218.143
217.669
217.167
216.635
216.067
215.462
214.813
214.115
213.358
212.532
211.624
210.61
209.454
208.112
206.529
204.624
202.499
200.29
198.137
196.132
194.306
192.661
191.144
189.738
188.43
187.208
186.082
185.044
184.087
183.206
182.393
181.644
180.95
180.304
179.709
179.159
178.662
178.204
177.779
177.375
176.986
176.617
176.259
175.915
175.579
175.261
174.959
174.681
174.42
174.172
173.931
173.697
173.473
173.258
173.052
172.857
172.672
172.495
172.324
172.161
172.007
171.859
171.717
171.581
171.452
171.326
171.201
171.072
170.935
170.791
170.649
170.523
170.435
170.388
170.378
170.395
170.45
170.537
170.639
170.717
170.759
170.702
248.66
223.303
224.977
225.919
225.914
225.957
225.868
225.702
225.495
225.253
224.995
224.726
224.457
224.196
223.946
223.712
223.497
223.303
223.131
222.981
222.848
222.727
222.613
222.5
222.383
222.257
222.117
221.957
221.776
221.568
221.335
221.074
220.788
220.476
220.14
219.782
219.401
218.997
218.57
218.119
217.641
217.134
216.596
216.021
215.407
214.746
214.033
213.258
212.41
211.471
210.418
209.216
207.829
206.209
204.294
202.228
200.114
198.057
196.137
194.392
192.803
191.346
189.973
188.666
187.429
186.267
185.186
184.196
183.296
182.478
181.732
181.047
180.413
179.823
179.265
178.742
178.248
177.792
177.37
176.975
176.603
176.247
175.907
175.586
175.287
175
174.729
174.467
174.213
173.965
173.728
173.502
173.283
173.073
172.871
172.678
172.49
172.31
172.14
171.979
171.826
171.68
171.541
171.412
171.288
171.167
171.042
170.909
170.767
170.626
170.501
170.415
170.372
170.366
170.387
170.446
170.536
170.639
170.72
170.762
170.705
248.712
223.316
224.955
225.888
225.888
225.937
225.853
225.692
225.487
225.248
224.991
224.724
224.455
224.194
223.945
223.71
223.495
223.3
223.129
222.978
222.846
222.725
222.611
222.497
222.379
222.252
222.111
221.951
221.769
221.561
221.326
221.065
220.778
220.465
220.128
219.768
219.385
218.98
218.55
218.095
217.614
217.102
216.558
215.976
215.353
214.682
213.955
213.162
212.291
211.325
210.237
208.999
207.579
205.928
204.033
202.023
199.992
198.035
196.199
194.506
192.953
191.511
190.166
188.895
187.68
186.522
185.429
184.406
183.459
182.594
181.811
181.102
180.457
179.869
179.324
178.82
178.336
177.874
177.436
177.03
176.655
176.299
175.959
175.629
175.314
175.011
174.728
174.454
174.191
173.939
173.704
173.481
173.269
173.065
172.871
172.685
172.505
172.332
172.167
172.007
171.85
171.7
171.557
171.423
171.296
171.172
171.044
170.907
170.761
170.615
170.486
170.396
170.348
170.337
170.355
170.41
170.501
170.605
170.685
170.728
170.672
248.764
223.331
224.932
225.856
225.862
225.917
225.838
225.682
225.48
225.243
224.988
224.722
224.453
224.192
223.943
223.708
223.492
223.298
223.126
222.976
222.843
222.723
222.608
222.494
222.376
222.248
222.106
221.945
221.761
221.553
221.318
221.056
220.767
220.454
220.116
219.755
219.37
218.962
218.53
218.073
217.587
217.071
216.521
215.933
215.301
214.619
213.878
213.07
212.178
211.186
210.069
208.802
207.355
205.684
203.824
201.877
199.929
198.05
196.292
194.658
193.128
191.695
190.345
189.066
187.86
186.718
185.639
184.625
183.676
182.796
181.986
181.242
180.559
179.934
179.359
178.84
178.358
177.914
177.49
177.087
176.706
176.339
175.984
175.63
175.305
175.01
174.733
174.46
174.198
173.947
173.712
173.485
173.266
173.054
172.85
172.653
172.468
172.296
172.134
171.977
171.824
171.679
171.542
171.413
171.291
171.17
171.045
170.912
170.768
170.626
170.5
170.411
170.364
170.356
170.375
170.432
170.523
170.63
170.711
170.752
170.692
248.816
223.347
224.91
225.823
225.835
225.896
225.823
225.671
225.473
225.238
224.985
224.719
224.451
224.19
223.941
223.706
223.49
223.295
223.124
222.974
222.841
222.72
222.606
222.491
222.372
222.244
222.101
221.938
221.754
221.545
221.309
221.046
220.757
220.443
220.104
219.741
219.355
218.945
218.511
218.05
217.561
217.041
216.485
215.89
215.25
214.558
213.805
212.981
212.07
211.056
209.915
208.624
207.155
205.483
203.666
201.784
199.912
198.106
196.408
194.829
193.353
191.947
190.599
189.305
188.066
186.893
185.794
184.772
183.824
182.947
182.139
181.395
180.71
180.076
179.479
178.924
178.404
177.932
177.492
177.083
176.694
176.326
175.979
175.657
175.356
175.059
174.768
174.483
174.217
173.965
173.73
173.503
173.287
173.078
172.875
172.676
172.489
172.313
172.142
171.975
171.814
171.664
171.522
171.388
171.261
171.136
171.007
170.87
170.724
170.58
170.451
170.359
170.311
170.303
170.322
170.379
170.471
170.578
170.66
170.702
170.642
248.868
223.365
224.887
225.79
225.809
225.875
225.807
225.66
225.465
225.233
224.981
224.717
224.449
224.189
223.939
223.704
223.487
223.293
223.121
222.971
222.839
222.718
222.603
222.488
222.368
222.239
222.095
221.932
221.747
221.536
221.3
221.037
220.747
220.432
220.092
219.728
219.341
218.929
218.492
218.029
217.536
217.012
216.451
215.849
215.201
214.499
213.735
212.896
211.969
210.935
209.774
208.467
206.99
205.332
203.553
201.723
199.906
198.158
196.515
194.982
193.54
192.176
190.864
189.592
188.36
187.172
186.038
184.969
183.977
183.066
182.235
181.477
180.787
180.156
179.572
179.031
178.514
178.029
177.566
177.135
176.734
176.363
176.013
175.682
175.36
175.043
174.741
174.455
174.193
173.946
173.71
173.479
173.258
173.045
172.843
172.652
172.475
172.304
172.137
171.976
171.823
171.677
171.538
171.407
171.28
171.155
171.026
170.888
170.742
170.595
170.462
170.366
170.315
170.303
170.32
170.375
170.465
170.574
170.657
170.703
170.647
248.919
223.385
224.864
225.757
225.782
225.853
225.791
225.65
225.458
225.228
224.977
224.714
224.447
224.187
223.938
223.702
223.485
223.29
223.119
222.969
222.837
222.716
222.6
222.485
222.365
222.235
222.089
221.925
221.739
221.528
221.291
221.027
220.737
220.421
220.08
219.715
219.326
218.913
218.474
218.008
217.512
216.983
216.418
215.81
215.154
214.443
213.668
212.817
211.874
210.824
209.648
208.331
206.851
205.209
203.465
201.685
199.928
198.244
196.653
195.152
193.727
192.365
191.063
189.812
188.603
187.438
186.317
185.247
184.235
183.289
182.415
181.616
180.888
180.224
179.616
179.066
178.556
178.086
177.636
177.211
176.808
176.43
176.07
175.713
175.378
175.064
174.774
174.502
174.246
173.995
173.751
173.512
173.282
173.06
172.849
172.65
172.462
172.277
172.099
171.93
171.774
171.625
171.486
171.355
171.23
171.107
170.981
170.849
170.708
170.563
170.431
170.333
170.281
170.269
170.287
170.345
170.438
170.548
170.631
170.676
170.619
248.971
223.407
224.84
225.723
225.755
225.831
225.775
225.639
225.45
225.223
224.974
224.712
224.446
224.186
223.936
223.7
223.483
223.288
223.117
222.967
222.835
222.714
222.598
222.482
222.361
222.23
222.084
221.919
221.731
221.519
221.281
221.017
220.726
220.41
220.068
219.702
219.312
218.897
218.456
217.988
217.489
216.956
216.386
215.773
215.11
214.391
213.605
212.742
211.787
210.724
209.539
208.216
206.734
205.11
203.406
201.682
199.995
198.379
196.846
195.383
193.976
192.62
191.307
190.034
188.808
187.635
186.518
185.458
184.456
183.513
182.634
181.822
181.075
180.388
179.75
179.16
178.612
178.112
177.646
177.215
176.809
176.429
176.072
175.737
175.414
175.101
174.805
174.521
174.251
173.986
173.733
173.491
173.264
173.048
172.846
172.655
172.471
172.288
172.112
171.944
171.784
171.63
171.486
171.35
171.222
171.095
170.967
170.832
170.686
170.537
170.399
170.295
170.235
170.219
170.235
170.291
170.384
170.495
170.58
170.627
170.575
249.023
223.432
224.817
225.688
225.727
225.809
225.758
225.628
225.443
225.217
224.97
224.709
224.444
224.185
223.935
223.698
223.481
223.286
223.115
222.965
222.832
222.711
222.595
222.479
222.357
222.225
222.078
221.912
221.723
221.51
221.272
221.007
220.715
220.398
220.056
219.689
219.298
218.882
218.439
217.968
217.466
216.93
216.356
215.737
215.068
214.341
213.547
212.674
211.708
210.635
209.443
208.113
206.635
205.04
203.383
201.716
200.081
198.508
197.01
195.59
194.23
192.908
191.616
190.35
189.109
187.905
186.749
185.653
184.625
183.666
182.776
181.955
181.202
180.512
179.877
179.293
178.741
178.225
177.734
177.28
176.856
176.466
176.097
175.743
175.409
175.093
174.799
174.516
174.244
173.977
173.724
173.481
173.251
173.029
172.821
172.62
172.427
172.242
172.072
171.912
171.756
171.604
171.463
171.331
171.207
171.086
170.963
170.83
170.686
170.538
170.4
170.295
170.236
170.221
170.237
170.293
170.385
170.497
170.582
170.627
170.567
249.075
223.457
224.793
225.652
225.699
225.786
225.741
225.617
225.435
225.212
224.966
224.707
224.442
224.183
223.933
223.697
223.48
223.284
223.113
222.963
222.83
222.709
222.593
222.476
222.354
222.221
222.072
221.905
221.715
221.501
221.262
220.996
220.704
220.387
220.044
219.677
219.284
218.867
218.422
217.949
217.445
216.906
216.327
215.703
215.028
214.295
213.493
212.611
211.636
210.557
209.359
208.027
206.565
205.003
203.386
201.759
200.165
198.633
197.174
195.777
194.43
193.129
191.863
190.625
189.412
188.225
187.07
185.955
184.891
183.888
182.956
182.097
181.31
180.593
179.939
179.346
178.798
178.295
177.815
177.365
176.937
176.539
176.165
175.812
175.475
175.154
174.85
174.555
174.274
174.005
173.753
173.513
173.285
173.066
172.855
172.648
172.445
172.254
172.078
171.907
171.74
171.58
171.433
171.294
171.164
171.037
170.908
170.771
170.623
170.471
170.328
170.219
170.158
170.141
170.157
170.213
170.307
170.423
170.513
170.561
170.503
249.127
223.484
224.768
225.616
225.671
225.763
225.724
225.605
225.427
225.206
224.962
224.704
224.44
224.182
223.932
223.696
223.478
223.283
223.111
222.961
222.828
222.707
222.59
222.473
222.35
222.216
222.066
221.898
221.707
221.492
221.252
220.986
220.693
220.376
220.032
219.664
219.271
218.852
218.406
217.931
217.424
216.882
216.3
215.671
214.991
214.252
213.443
212.554
211.572
210.487
209.286
207.96
206.515
204.978
203.392
201.807
200.263
198.787
197.373
196.005
194.674
193.37
192.097
190.853
189.643
188.468
187.332
186.234
185.18
184.174
183.227
182.343
181.527
180.777
180.088
179.456
178.871
178.337
177.839
177.379
176.945
176.539
176.16
175.806
175.473
175.149
174.837
174.534
174.25
173.984
173.736
173.497
173.268
173.048
172.836
172.628
172.435
172.254
172.082
171.913
171.749
171.596
171.452
171.314
171.181
171.052
170.92
170.779
170.628
170.472
170.325
170.212
170.145
170.125
170.139
170.195
170.291
170.411
170.505
170.557
170.5
249.178
223.512
224.743
225.579
225.643
225.739
225.706
225.594
225.419
225.2
224.958
224.701
224.439
224.181
223.931
223.695
223.477
223.282
223.11
222.96
222.827
222.705
222.588
222.47
222.346
222.211
222.061
221.891
221.699
221.483
221.242
220.975
220.682
220.364
220.02
219.652
219.257
218.838
218.39
217.914
217.405
216.859
216.274
215.642
214.957
214.212
213.397
212.502
211.516
210.428
209.228
207.911
206.481
204.969
203.422
201.892
200.41
198.985
197.611
196.274
194.967
193.683
192.416
191.164
189.931
188.727
187.563
186.449
185.388
184.382
183.433
182.543
181.717
180.956
180.257
179.618
179.023
178.472
177.95
177.466
177.013
176.597
176.211
175.849
175.506
175.177
174.865
174.57
174.295
174.032
173.78
173.533
173.296
173.064
172.838
172.622
172.422
172.234
172.049
171.868
171.702
171.549
171.405
171.264
171.131
171.003
170.874
170.738
170.592
170.44
170.296
170.182
170.112
170.09
170.103
170.158
170.252
170.37
170.464
170.512
170.452
249.23
223.543
224.718
225.541
225.614
225.714
225.688
225.582
225.41
225.194
224.954
224.699
224.437
224.18
223.93
223.694
223.476
223.281
223.108
222.958
222.825
222.703
222.585
222.467
222.343
222.207
222.055
221.883
221.69
221.473
221.231
220.964
220.671
220.352
220.008
219.639
219.244
218.824
218.375
217.897
217.386
216.838
216.249
215.614
214.925
214.175
213.356
212.457
211.467
210.379
209.183
207.872
206.457
204.978
203.481
202
200.555
199.155
197.802
196.489
195.21
193.954
192.716
191.49
190.276
189.076
187.898
186.752
185.65
184.604
183.62
182.702
181.851
181.067
180.349
179.697
179.1
178.557
178.043
177.564
177.107
176.68
176.28
175.905
175.553
175.218
174.903
174.602
174.316
174.039
173.774
173.521
173.283
173.054
172.836
172.63
172.439
172.253
172.065
171.883
171.717
171.56
171.407
171.259
171.121
170.99
170.859
170.72
170.572
170.417
170.269
170.149
170.076
170.053
170.066
170.121
170.217
170.339
170.438
170.493
170.439
249.282
223.574
224.692
225.503
225.585
225.689
225.669
225.569
225.401
225.188
224.95
224.696
224.435
224.179
223.93
223.693
223.476
223.28
223.107
222.956
222.823
222.701
222.583
222.464
222.339
222.202
222.049
221.876
221.681
221.463
221.221
220.953
220.659
220.341
219.996
219.627
219.232
218.81
218.36
217.881
217.368
216.818
216.227
215.588
214.896
214.142
213.319
212.417
211.426
210.339
209.146
207.844
206.453
205.011
203.552
202.1
200.685
199.32
198
196.71
195.441
194.191
192.958
191.744
190.548
189.373
188.218
187.088
185.989
184.93
183.922
182.971
182.085
181.266
180.512
179.823
179.191
178.618
178.084
177.593
177.128
176.692
176.282
175.898
175.544
175.21
174.897
174.594
174.306
174.024
173.758
173.506
173.266
173.032
172.81
172.603
172.408
172.215
172.03
171.859
171.7
171.543
171.389
171.246
171.115
170.991
170.865
170.732
170.588
170.434
170.284
170.164
170.092
170.068
170.079
170.129
170.22
170.338
170.434
170.487
170.429
249.334
223.608
224.665
225.464
225.556
225.663
225.649
225.556
225.392
225.181
224.946
224.693
224.434
224.178
223.929
223.693
223.475
223.279
223.106
222.955
222.821
222.699
222.581
222.461
222.335
222.197
222.042
221.868
221.673
221.453
221.21
220.941
220.647
220.329
219.984
219.614
219.219
218.797
218.346
217.865
217.351
216.799
216.205
215.564
214.869
214.113
213.287
212.383
211.393
210.308
209.119
207.831
206.467
205.054
203.621
202.209
200.846
199.535
198.259
196.996
195.745
194.502
193.268
192.041
190.826
189.633
188.469
187.341
186.25
185.2
184.194
183.24
182.342
181.505
180.733
180.025
179.374
178.78
178.222
177.706
177.221
176.771
176.356
175.973
175.621
175.283
174.96
174.643
174.341
174.054
173.79
173.541
173.303
173.071
172.853
172.644
172.437
172.231
172.038
171.864
171.695
171.525
171.362
171.215
171.081
170.953
170.825
170.689
170.542
170.386
170.233
170.111
170.036
170.011
170.021
170.072
170.165
170.287
170.385
170.437
170.379
249.386
223.643
224.638
225.424
225.527
225.636
225.629
225.543
225.382
225.174
224.941
224.69
224.432
224.177
223.929
223.693
223.475
223.278
223.105
222.954
222.82
222.697
222.578
222.458
222.331
222.192
222.036
221.861
221.664
221.443
221.199
220.93
220.636
220.316
219.972
219.602
219.206
218.784
218.332
217.851
217.335
216.782
216.186
215.543
214.845
214.087
213.259
212.355
211.366
210.283
209.103
207.832
206.49
205.101
203.708
202.352
201.037
199.756
198.499
197.258
196.032
194.816
193.606
192.399
191.192
189.991
188.802
187.638
186.512
185.433
184.406
183.434
182.519
181.664
180.872
180.146
179.483
178.884
178.327
177.813
177.324
176.867
176.438
176.034
175.657
175.295
174.955
174.627
174.322
174.039
173.78
173.531
173.291
173.059
172.841
172.629
172.417
172.217
172.036
171.867
171.698
171.532
171.376
171.236
171.104
170.974
170.843
170.705
170.555
170.396
170.242
170.118
170.043
170.02
170.033
170.087
170.183
170.306
170.405
170.458
170.396
249.439
223.68
224.611
225.384
225.497
225.609
225.609
225.53
225.373
225.168
224.936
224.687
224.43
224.176
223.928
223.693
223.475
223.278
223.104
222.952
222.818
222.695
222.576
222.456
222.328
222.187
222.03
221.853
221.655
221.433
221.187
220.918
220.623
220.304
219.96
219.59
219.194
218.771
218.319
217.836
217.32
216.765
216.168
215.523
214.824
214.064
213.236
212.333
211.345
210.267
209.096
207.841
206.519
205.164
203.823
202.509
201.217
199.952
198.711
197.486
196.272
195.069
193.875
192.689
191.509
190.335
189.168
188.014
186.881
185.779
184.719
183.711
182.76
181.872
181.046
180.288
179.594
178.967
178.387
177.857
177.358
176.894
176.457
176.047
175.663
175.304
174.975
174.663
174.372
174.094
173.828
173.566
173.314
173.072
172.841
172.613
172.392
172.189
172.003
171.822
171.642
171.471
171.319
171.184
171.054
170.924
170.795
170.662
170.517
170.362
170.21
170.085
170.008
169.984
169.994
170.043
170.133
170.253
170.351
170.406
170.343
249.491
223.718
224.583
225.343
225.465
225.582
225.59
225.517
225.363
225.161
224.932
224.684
224.428
224.175
223.928
223.693
223.475
223.277
223.104
222.951
222.817
222.693
222.574
222.453
222.324
222.182
222.024
221.845
221.645
221.422
221.176
220.906
220.611
220.292
219.947
219.577
219.181
218.758
218.306
217.823
217.306
216.75
216.152
215.506
214.806
214.046
213.218
212.315
211.331
210.259
209.099
207.858
206.562
205.25
203.945
202.647
201.381
200.152
198.95
197.756
196.56
195.365
194.17
192.977
191.789
190.613
189.453
188.314
187.197
186.108
185.052
184.039
183.076
182.167
181.319
180.535
179.814
179.159
178.553
178
177.481
177.005
176.56
176.144
175.754
175.384
175.04
174.712
174.405
174.109
173.825
173.55
173.294
173.053
172.823
172.6
172.393
172.201
172.018
171.833
171.647
171.475
171.322
171.179
171.037
170.899
170.764
170.626
170.478
170.319
170.163
170.034
169.953
169.926
169.936
169.983
170.073
170.194
170.293
170.35
170.291
249.545
223.757
224.554
225.301
225.433
225.555
225.571
225.503
225.354
225.154
224.927
224.681
224.426
224.174
223.928
223.693
223.475
223.277
223.103
222.95
222.815
222.691
222.572
222.45
222.32
222.177
222.017
221.838
221.636
221.412
221.164
220.893
220.598
220.279
219.935
219.565
219.169
218.746
218.294
217.81
217.292
216.736
216.138
215.491
214.79
214.03
213.203
212.302
211.322
210.257
209.108
207.886
206.622
205.342
204.059
202.8
201.587
200.404
199.234
198.06
196.883
195.707
194.529
193.346
192.157
190.965
189.78
188.612
187.472
186.366
185.302
184.281
183.308
182.386
181.521
180.715
179.972
179.297
178.677
178.117
177.591
177.104
176.643
176.206
175.793
175.4
175.038
174.705
174.397
174.099
173.811
173.532
173.276
173.032
172.796
172.568
172.361
172.17
171.984
171.797
171.62
171.458
171.304
171.154
171.009
170.872
170.739
170.602
170.452
170.292
170.132
169.996
169.909
169.877
169.883
169.928
170.018
170.142
170.241
170.295
170.232
249.597
223.798
224.525
225.258
225.401
225.529
225.552
225.489
225.344
225.146
224.922
224.678
224.425
224.174
223.928
223.693
223.475
223.278
223.103
222.95
222.814
222.689
222.569
222.447
222.316
222.172
222.011
221.83
221.627
221.401
221.153
220.881
220.586
220.266
219.922
219.553
219.157
218.734
218.282
217.798
217.28
216.724
216.125
215.478
214.777
214.017
213.192
212.295
211.319
210.262
209.124
207.926
206.69
205.435
204.19
202.985
201.805
200.636
199.472
198.308
197.147
195.99
194.834
193.676
192.514
191.348
190.178
189.011
187.855
186.72
185.62
184.563
183.557
182.605
181.712
180.878
180.108
179.405
178.762
178.181
177.641
177.144
176.675
176.233
175.824
175.444
175.1
174.773
174.458
174.147
173.853
173.576
173.322
173.077
172.84
172.614
172.404
172.2
171.997
171.798
171.616
171.445
171.276
171.109
170.954
170.813
170.679
170.542
170.392
170.23
170.067
169.927
169.834
169.799
169.806
169.856
169.953
170.088
170.197
170.261
170.208
249.652
223.839
224.494
225.215
225.369
225.502
225.533
225.475
225.334
225.139
224.916
224.675
224.423
224.173
223.929
223.694
223.476
223.278
223.103
222.949
222.813
222.688
222.567
222.444
222.312
222.167
222.004
221.822
221.617
221.39
221.141
220.868
220.573
220.253
219.91
219.54
219.145
218.722
218.27
217.787
217.268
216.712
216.113
215.467
214.767
214.008
213.185
212.291
211.322
210.273
209.151
207.974
206.762
205.542
204.346
203.172
202
200.845
199.703
198.565
197.421
196.273
195.121
193.965
192.808
191.653
190.501
189.357
188.221
187.101
186.003
184.939
183.916
182.942
182.024
181.164
180.367
179.635
178.965
178.358
177.796
177.281
176.8
176.352
175.936
175.542
175.168
174.805
174.464
174.14
173.849
173.578
173.322
173.069
172.831
172.605
172.389
172.179
171.978
171.79
171.615
171.445
171.277
171.113
170.961
170.824
170.693
170.555
170.405
170.24
170.073
169.929
169.834
169.798
169.804
169.852
169.948
170.083
170.191
170.252
170.193
249.706
223.882
224.463
225.17
225.336
225.476
225.513
225.46
225.323
225.131
224.911
224.671
224.422
224.173
223.929
223.695
223.477
223.279
223.103
222.949
222.812
222.686
222.565
222.441
222.309
222.162
221.998
221.814
221.608
221.379
221.129
220.856
220.56
220.24
219.897
219.528
219.133
218.711
218.259
217.776
217.258
216.702
216.103
215.458
214.759
214.002
213.182
212.293
211.329
210.29
209.184
208.029
206.846
205.667
204.503
203.339
202.198
201.085
199.984
198.878
197.755
196.623
195.483
194.331
193.168
191.997
190.826
189.664
188.518
187.394
186.298
185.234
184.209
183.226
182.293
181.413
180.591
179.831
179.133
178.501
177.918
177.381
176.88
176.411
175.98
175.569
175.189
174.831
174.502
174.191
173.901
173.62
173.346
173.079
172.829
172.593
172.364
172.142
171.933
171.739
171.557
171.378
171.204
171.043
170.9
170.769
170.638
170.499
170.346
170.18
170.01
169.862
169.762
169.722
169.724
169.768
169.864
170.001
170.112
170.175
170.116
249.762
223.924
224.43
225.125
225.304
225.449
225.493
225.444
225.311
225.123
224.906
224.668
224.42
224.173
223.93
223.696
223.478
223.28
223.103
222.949
222.811
222.685
222.563
222.438
222.305
222.157
221.991
221.806
221.598
221.368
221.117
220.843
220.546
220.227
219.884
219.515
219.121
218.699
218.248
217.766
217.248
216.693
216.095
215.45
214.753
213.999
213.182
212.298
211.341
210.313
209.225
208.093
206.944
205.797
204.652
203.524
202.433
201.349
200.262
199.165
198.054
196.94
195.823
194.695
193.556
192.404
191.242
190.073
188.907
187.753
186.623
185.528
184.474
183.467
182.511
181.608
180.76
179.975
179.252
178.597
177.993
177.439
176.928
176.454
176.025
175.62
175.252
174.894
174.548
174.217
173.907
173.61
173.328
173.062
172.814
172.579
172.354
172.14
171.937
171.746
171.561
171.378
171.201
171.04
170.894
170.755
170.616
170.47
170.316
170.152
169.985
169.837
169.735
169.694
169.696
169.742
169.839
169.977
170.09
170.153
170.089
249.817
223.967
224.396
225.08
225.271
225.421
225.473
225.427
225.299
225.115
224.9
224.665
224.419
224.173
223.931
223.698
223.48
223.281
223.104
222.949
222.81
222.684
222.561
222.436
222.301
222.152
221.985
221.797
221.588
221.357
221.104
220.83
220.533
220.214
219.871
219.503
219.109
218.688
218.238
217.756
217.24
216.685
216.089
215.445
214.75
213.998
213.186
212.306
211.358
210.343
209.272
208.167
207.049
205.927
204.815
203.736
202.665
201.584