/*--------------------------------*- C++ -*----------------------------------*\
| =========                 |                                                 |
| \\      /  F ield         | OpenFOAM: The Open Source CFD Toolbox           |
|  \\    /   O peration     | Version:  2412                                  |
|   \\  /    A nd           | Website:  www.openfoam.com                      |
|    \\/     M anipulation  |                                                 |
\*---------------------------------------------------------------------------*/
FoamFile
{
    version     2.0;
    format      ascii;
    arch        "LSB;label=32;scalar=64";
    class       volVectorField;
    location    "0.007";
    object      U;
}
// * * * * * * * * * * * * * * * * * * * * * * * * * * * * * * * * * * * * * //

dimensions      [0 1 -1 0 0 0 0];

internalField   nonuniform List<vector> 
9859
(
(210 -4.9941e-13 0)
(210 2.60438e-13 0)
(210 -1.31791e-12 0)
(210 -7.08615e-13 0)
(210 -2.18223e-12 0)
(210 -2.39595e-12 0)
(210 4.65068e-13 0)
(210 -2.48517e-12 0)
(210 -1.72167e-12 0)
(210 2.23903e-12 0)
(210 -1.64991e-13 0)
(210 -9.33534e-13 0)
(210 2.22281e-12 0)
(210 1.47963e-12 0)
(210 -7.29456e-14 0)
(210 -1.16569e-14 0)
(210 -2.32166e-12 0)
(210 -1.94665e-12 0)
(210 -2.89859e-12 0)
(210 -2.63523e-12 0)
(210 2.22474e-15 0)
(210 7.74999e-14 0)
(210 1.1402e-12 0)
(210 3.34722e-13 0)
(210 4.42691e-13 0)
(210 -1.00371e-12 0)
(210 -3.89621e-12 0)
(210 -6.0275e-12 0)
(210 -6.49631e-12 0)
(210 -4.83995e-12 0)
(210 -2.68714e-12 0)
(210 -2.69828e-12 0)
(210 -3.21982e-12 0)
(210 -2.21119e-12 0)
(210 -3.7036e-13 0)
(210 6.46986e-13 0)
(210 1.30392e-12 0)
(210 3.14579e-14 0)
(210 8.42975e-13 0)
(210 -1.46125e-13 0)
(210 -1.28929e-12 0)
(210 -8.01871e-13 0)
(210 -1.33452e-12 0)
(210 1.504e-13 0)
(210 1.30023e-12 0)
(210 1.01084e-12 0)
(210 -6.77054e-13 0)
(210 1.99957e-12 0)
(210 1.0125e-12 0)
(210 -6.31414e-13 0)
(210 -1.69357e-12 0)
(210 -1.4953e-13 0)
(210 -1.74254e-14 0)
(210 -6.24222e-13 0)
(210 -1.68683e-12 0)
(210 -3.13815e-13 0)
(210 -3.54483e-14 0)
(210 7.69248e-14 0)
(210 -2.08298e-12 0)
(210 -2.73449e-13 0)
(210 1.05185e-12 0)
(210 -6.37777e-14 0)
(210 -2.51732e-13 0)
(210 -1.93686e-12 0)
(210 -1.72118e-12 0)
(210 -2.04417e-12 0)
(210 -7.81305e-13 0)
(210 -2.1321e-12 0)
(210 -1.99718e-12 0)
(210 -7.04853e-13 0)
(210 -2.03981e-13 0)
(210 -3.57092e-13 0)
(210 -8.09155e-13 0)
(210 -1.92126e-12 0)
(210 -1.60734e-12 0)
(210 -3.65311e-14 0)
(210 -1.42332e-12 0)
(210 -1.4362e-12 0)
(210 2.09046e-12 0)
(210 -1.20457e-13 0)
(210 -2.21708e-12 0)
(210 1.74627e-12 0)
(210 1.23864e-12 0)
(210 -2.49775e-13 0)
(210 -2.53951e-13 0)
(210 -2.51647e-12 0)
(210 -1.04544e-12 0)
(210 -2.50884e-12 0)
(210 -2.45744e-12 0)
(210 3.76328e-14 0)
(210 7.62959e-13 0)
(210 -4.20409e-13 0)
(210 1.53845e-12 0)
(210 8.15736e-13 0)
(210 -8.87796e-13 0)
(210 -3.09266e-12 0)
(210 -5.62211e-12 0)
(210 -6.5409e-12 0)
(210 -5.56297e-12 0)
(210 -1.97311e-12 0)
(210 -2.28715e-12 0)
(210 -2.61084e-12 0)
(210 -2.31198e-12 0)
(210 3.85793e-13 0)
(210 1.41039e-12 0)
(210 2.20179e-12 0)
(210 9.70816e-13 0)
(210 1.05743e-12 0)
(210 -3.08771e-13 0)
(210 -2.21126e-12 0)
(210 -2.24268e-13 0)
(210 -2.28535e-12 0)
(210 1.5555e-13 0)
(210 2.29357e-12 0)
(210 5.16404e-13 0)
(210 3.14367e-13 0)
(210 1.05657e-12 0)
(210 -3.48414e-13 0)
(210 -6.3172e-13 0)
(210 -1.87956e-12 0)
(210 -5.02129e-13 0)
(210 7.70491e-13 0)
(210 -7.17349e-13 0)
(210 -1.65921e-12 0)
(210 2.38592e-13 0)
(210 1.3511e-12 0)
(210 6.49838e-13 0)
(210 -1.21946e-12 0)
(210 6.59999e-14 0)
(210 1.09858e-12 0)
(210 9.61236e-13 0)
(210 -3.99658e-13 0)
(210 -2.42546e-12 0)
(210 -2.54965e-12 0)
(210 -2.30324e-12 0)
(210 -9.57792e-13 0)
(210 -2.21322e-12 0)
(210 -2.37115e-12 0)
(210 -2.28468e-13 0)
(210 -1.55616e-12 0)
(210 -2.80971e-13 0)
(210 -2.05426e-12 0)
(210 -5.30467e-13 0)
(210 3.51248e-13 0)
(210 1.42544e-12 0)
(210 3.34752e-12 0)
(210 1.00553e-12 0)
(210 -3.45703e-12 0)
(210 -5.88164e-12 0)
(210 -1.43948e-11 0)
(210 -2.30506e-10 0)
(210 -2.98267e-08 0)
(210 -6.92328e-08 0)
(210 1.26383e-05 0)
(210 8.78043e-05 0)
(210 0.000188105 0)
(209.998 0.000952269 0)
(209.956 0.0136534 0)
(209.714 0.0906206 0)
(209.174 0.292293 0)
(208.543 0.611438 0)
(208.075 0.997273 0)
(207.851 1.3917 0)
(207.827 1.7945 0)
(208.418 2.35458 0)
(209.592 3.01884 0)
(210.571 3.79672 0)
(211.226 4.76479 0)
(211.773 6.15728 0)
(212.446 8.48104 0)
(213.654 11.6545 0)
(214.655 14.4035 0)
(214.098 15.7807 0)
(204.756 12.1496 0)
(188.234 1.33882 0)
(178.782 -10.4361 0)
(179.785 -18.2253 0)
(185.307 -21.4942 0)
(189.376 -22.7099 0)
(191.045 -24.5114 0)
(190.189 -29.0324 0)
(210 -9.09647e-13 0)
(210 -9.47069e-13 0)
(210 2.162e-13 0)
(210 -6.86209e-13 0)
(210 -1.39164e-12 0)
(210 -1.24676e-12 0)
(210 -7.00611e-14 0)
(210 -1.28933e-12 0)
(210 -9.34331e-13 0)
(210 1.92363e-12 0)
(210 -2.08575e-13 0)
(210 -1.76614e-12 0)
(210 8.82082e-13 0)
(210 1.09902e-12 0)
(210 4.52722e-13 0)
(210 -3.76367e-14 0)
(210 -2.92584e-12 0)
(210 -2.32602e-13 0)
(210 -1.67694e-12 0)
(210 -1.14989e-12 0)
(210 2.60967e-13 0)
(210 1.08899e-12 0)
(210 -8.96752e-13 0)
(210 1.58722e-12 0)
(210 1.56177e-12 0)
(210 -5.43155e-13 0)
(210 -2.41057e-12 0)
(210 -5.46288e-12 0)
(210 -6.40171e-12 0)
(210 -5.45844e-12 0)
(210 -2.25739e-12 0)
(210 -1.75645e-12 0)
(210 -1.99725e-12 0)
(210 -2.23988e-12 0)
(210 5.43525e-13 0)
(210 1.24423e-12 0)
(210 3.63654e-12 0)
(210 1.78556e-12 0)
(210 8.22833e-13 0)
(210 7.50003e-13 0)
(210 -1.8157e-12 0)
(210 -8.19045e-13 0)
(210 -2.4215e-12 0)
(210 -3.82711e-13 0)
(210 1.81205e-12 0)
(210 1.02114e-12 0)
(210 1.56948e-13 0)
(210 5.25353e-13 0)
(210 -1.75576e-12 0)
(210 -1.68469e-12 0)
(210 -1.06032e-12 0)
(210 2.47187e-13 0)
(210 3.39562e-13 0)
(210 -3.13771e-13 0)
(210 -2.21159e-12 0)
(210 -3.40826e-13 0)
(210 1.47087e-12 0)
(210 3.50969e-13 0)
(210 -6.15756e-13 0)
(210 3.4726e-13 0)
(210 1.55371e-12 0)
(210 8.62663e-13 0)
(210 -3.25045e-13 0)
(210 -3.04335e-12 0)
(210 -2.89896e-12 0)
(210 -2.22919e-12 0)
(210 -1.34295e-12 0)
(210 -1.13061e-12 0)
(210 -2.09223e-12 0)
(210 -7.08535e-14 0)
(210 -1.84435e-12 0)
(210 -7.15e-13 0)
(210 -2.39245e-12 0)
(210 -5.59136e-13 0)
(210 -6.1167e-15 0)
(210 -1.43702e-12 0)
(210 -2.05492e-12 0)
(210 -2.13694e-12 0)
(210 1.97802e-12 0)
(210 1.92823e-12 0)
(210 2.2614e-13 0)
(210 9.55906e-13 0)
(210 8.47954e-13 0)
(210 2.28356e-12 0)
(210 2.51042e-12 0)
(210 5.64092e-13 0)
(210 -3.06274e-12 0)
(210 -6.46286e-12 0)
(210 -1.4717e-11 0)
(210 -2.38119e-10 0)
(210 -2.85895e-08 0)
(210 1.95291e-08 0)
(210 1.29755e-05 0)
(210 8.50299e-05 0)
(210 0.000178615 0)
(209.998 0.000937081 0)
(209.955 0.0135883 0)
(209.709 0.0899856 0)
(209.162 0.289974 0)
(208.524 0.606903 0)
(208.051 0.991006 0)
(207.823 1.38469 0)
(207.793 1.78603 0)
(208.373 2.34549 0)
(209.54 3.01286 0)
(210.526 3.80315 0)
(211.186 4.78734 0)
(211.694 6.20808 0)
(212.218 8.5837 0)
(213.067 11.8005 0)
(213.736 14.5698 0)
(211.981 15.7339 0)
(201.034 11.6497 0)
(185.277 0.961138 0)
(177.764 -10.3049 0)
(179.969 -17.9697 0)
(185.637 -21.2171 0)
(189.56 -22.5714 0)
(191.221 -24.5035 0)
(190.562 -29.1014 0)
(210 -5.73447e-13 0)
(210 -1.12233e-12 0)
(210 3.63855e-13 0)
(210 8.09882e-13 0)
(210 -1.59093e-13 0)
(210 -1.11175e-12 0)
(210 9.15622e-13 0)
(210 -5.70437e-13 0)
(210 -8.04196e-13 0)
(210 1.66215e-12 0)
(210 7.38496e-13 0)
(210 -1.02913e-12 0)
(210 1.07445e-12 0)
(210 1.49178e-12 0)
(210 6.0395e-13 0)
(210 1.17392e-13 0)
(210 -2.3373e-12 0)
(210 -5.1283e-13 0)
(210 -8.61198e-13 0)
(210 -1.0458e-12 0)
(210 7.10148e-13 0)
(210 5.51279e-13 0)
(210 -3.4543e-13 0)
(210 5.78671e-13 0)
(210 3.11164e-12 0)
(210 4.61177e-13 0)
(210 -2.0794e-12 0)
(210 -4.87013e-12 0)
(210 -4.62919e-12 0)
(210 -4.63964e-12 0)
(210 -3.78324e-12 0)
(210 -2.14091e-12 0)
(210 -2.95898e-12 0)
(210 -2.1566e-12 0)
(210 7.13603e-13 0)
(210 3.32333e-13 0)
(210 3.68414e-12 0)
(210 2.71469e-12 0)
(210 1.7923e-12 0)
(210 3.85663e-13 0)
(210 -1.84506e-12 0)
(210 -4.21824e-13 0)
(210 -1.04937e-12 0)
(210 -1.18015e-12 0)
(210 1.4925e-12 0)
(210 1.83976e-12 0)
(210 -2.51983e-13 0)
(210 1.24116e-12 0)
(210 -2.15546e-12 0)
(210 -1.74842e-12 0)
(210 -9.13428e-13 0)
(210 3.22802e-13 0)
(210 3.69481e-13 0)
(210 -5.19873e-13 0)
(210 -1.78287e-12 0)
(210 -3.50435e-13 0)
(210 2.45585e-13 0)
(210 -3.08687e-13 0)
(210 -5.09747e-13 0)
(210 1.27863e-12 0)
(210 2.46409e-12 0)
(210 1.02733e-12 0)
(210 6.9007e-13 0)
(210 -2.60694e-12 0)
(210 -2.81317e-12 0)
(210 -1.85029e-12 0)
(210 -1.25621e-12 0)
(210 -1.37954e-12 0)
(210 -9.92133e-13 0)
(210 -2.25994e-13 0)
(210 -1.72145e-12 0)
(210 -7.51394e-13 0)
(210 -1.61889e-12 0)
(210 3.45312e-14 0)
(210 5.2024e-13 0)
(210 -3.78006e-13 0)
(210 -2.20909e-12 0)
(210 -1.80759e-12 0)
(210 9.50814e-13 0)
(210 1.27515e-12 0)
(210 6.47056e-13 0)
(210 8.18559e-13 0)
(210 1.43307e-12 0)
(210 2.60391e-12 0)
(210 1.94486e-12 0)
(210 1.21034e-12 0)
(210 -2.62985e-12 0)
(210 -5.97456e-12 0)
(210 -1.57319e-11 0)
(210 -2.45743e-10 0)
(210 -2.70583e-08 0)
(210 1.1062e-07 0)
(210 1.3252e-05 0)
(210 8.20367e-05 0)
(210 0.000169044 0)
(209.998 0.000920509 0)
(209.954 0.0135006 0)
(209.703 0.0892286 0)
(209.15 0.287336 0)
(208.505 0.601812 0)
(208.026 0.983983 0)
(207.792 1.37685 0)
(207.757 1.77669 0)
(208.325 2.33535 0)
(209.489 3.00586 0)
(210.48 3.80809 0)
(211.13 4.80479 0)
(211.559 6.25112 0)
(211.848 8.67604 0)
(212.242 11.9106 0)
(212.437 14.7342 0)
(209.133 15.719 0)
(197.018 11.1878 0)
(182.652 0.717482 0)
(177.214 -10.2529 0)
(180.283 -17.675 0)
(185.963 -20.9314 0)
(189.728 -22.4226 0)
(191.403 -24.4832 0)
(190.918 -29.1495 0)
(210 -2.94295e-13 0)
(210 -7.19057e-13 0)
(210 -9.76412e-13 0)
(210 6.89557e-13 0)
(210 3.25619e-13 0)
(210 -3.72977e-13 0)
(210 6.63381e-13 0)
(210 2.51909e-13 0)
(210 2.88455e-13 0)
(210 2.36456e-12 0)
(210 1.2863e-12 0)
(210 -1.43754e-12 0)
(210 1.73874e-12 0)
(210 7.43793e-13 0)
(210 4.03303e-13 0)
(210 3.15394e-13 0)
(210 -2.38222e-12 0)
(210 1.56794e-13 0)
(210 -9.46225e-13 0)
(210 -2.53331e-12 0)
(210 -1.1106e-12 0)
(210 -1.52252e-13 0)
(210 7.0815e-13 0)
(210 5.26925e-13 0)
(210 3.42851e-12 0)
(210 9.07699e-13 0)
(210 -1.87878e-12 0)
(210 -3.55282e-12 0)
(210 -3.92374e-12 0)
(210 -4.6979e-12 0)
(210 -4.7063e-12 0)
(210 -3.28573e-12 0)
(210 -2.10366e-12 0)
(210 -2.86334e-12 0)
(210 7.15381e-13 0)
(210 3.56971e-13 0)
(210 2.59203e-12 0)
(210 2.93018e-12 0)
(210 1.99765e-12 0)
(210 -4.10967e-13 0)
(210 -2.02809e-12 0)
(210 -5.8349e-14 0)
(210 -1.33234e-12 0)
(210 -2.82066e-12 0)
(210 1.00193e-12 0)
(210 1.58492e-12 0)
(210 4.55756e-13 0)
(210 2.01294e-12 0)
(210 -9.72747e-13 0)
(210 -1.50849e-12 0)
(210 -1.06444e-12 0)
(210 3.99477e-13 0)
(210 4.41487e-13 0)
(210 -1.58086e-12 0)
(210 -1.60921e-12 0)
(210 -2.32638e-13 0)
(210 3.36661e-13 0)
(210 -9.24491e-13 0)
(210 -1.75899e-12 0)
(210 2.16298e-12 0)
(210 2.57222e-12 0)
(210 1.5118e-12 0)
(210 2.73226e-13 0)
(210 -1.59705e-12 0)
(210 -2.76116e-12 0)
(210 -1.69951e-12 0)
(210 -2.44674e-12 0)
(210 -1.99294e-12 0)
(210 -1.02226e-12 0)
(210 1.04472e-12 0)
(210 -9.55088e-13 0)
(210 2.69718e-13 0)
(210 -6.82567e-13 0)
(210 -3.09031e-13 0)
(210 9.71787e-13 0)
(210 5.82347e-13 0)
(210 -2.61428e-12 0)
(210 -1.92674e-12 0)
(210 6.12487e-13 0)
(210 9.3401e-13 0)
(210 -5.2742e-14 0)
(210 2.38393e-13 0)
(210 1.3368e-12 0)
(210 2.60086e-12 0)
(210 1.85347e-12 0)
(210 1.37538e-12 0)
(210 -3.54513e-12 0)
(210 -5.13548e-12 0)
(210 -1.5802e-11 0)
(210 -2.49169e-10 0)
(210 -2.52157e-08 0)
(210 2.02942e-07 0)
(210 1.34606e-05 0)
(210 7.88311e-05 0)
(210 0.000159423 0)
(209.998 0.000902383 0)
(209.953 0.0133872 0)
(209.698 0.0883358 0)
(209.137 0.284351 0)
(208.485 0.596127 0)
(207.999 0.976192 0)
(207.761 1.36814 0)
(207.72 1.76615 0)
(208.276 2.32374 0)
(209.436 2.99815 0)
(210.43 3.81384 0)
(211.057 4.82608 0)
(211.374 6.30193 0)
(211.341 8.78244 0)
(211.175 12.0541 0)
(210.581 14.9121 0)
(205.565 15.5622 0)
(192.98 10.7292 0)
(180.513 0.544182 0)
(177.011 -10.0904 0)
(180.705 -17.3466 0)
(186.286 -20.6423 0)
(189.899 -22.2695 0)
(191.598 -24.4607 0)
(191.245 -29.1891 0)
(193.028 -36.822 0)
(210 -1.80812e-13 0)
(210 -1.21938e-12 0)
(210 -1.86508e-12 0)
(210 -4.65202e-13 0)
(210 1.65293e-13 0)
(210 3.964e-13 0)
(210 1.06296e-12 0)
(210 3.00136e-13 0)
(210 3.21697e-13 0)
(210 2.30912e-12 0)
(210 1.87132e-12 0)
(210 -1.11303e-12 0)
(210 1.99857e-12 0)
(210 -2.89918e-13 0)
(210 1.07757e-12 0)
(210 1.32564e-12 0)
(210 -2.76585e-12 0)
(210 -6.93183e-14 0)
(210 -1.66687e-12 0)
(210 -2.79919e-12 0)
(210 -1.31291e-12 0)
(210 -8.21958e-14 0)
(210 -6.67542e-14 0)
(210 1.0034e-12 0)
(210 2.89139e-12 0)
(210 1.00516e-12 0)
(210 -2.06427e-12 0)
(210 -2.80588e-12 0)
(210 -3.07725e-12 0)
(210 -5.12179e-12 0)
(210 -5.8007e-12 0)
(210 -4.40993e-12 0)
(210 -2.2139e-12 0)
(210 -4.08445e-12 0)
(210 1.07031e-12 0)
(210 5.61411e-13 0)
(210 1.96696e-12 0)
(210 1.49083e-12 0)
(210 1.11298e-12 0)
(210 -4.41402e-14 0)
(210 -1.66557e-12 0)
(210 1.77514e-13 0)
(210 -2.21314e-12 0)
(210 -2.97292e-12 0)
(210 -7.39632e-13 0)
(210 -1.31057e-13 0)
(210 9.15447e-13 0)
(210 2.81908e-12 0)
(210 -1.31156e-12 0)
(210 -1.95822e-12 0)
(210 5.40768e-13 0)
(210 -9.44812e-16 0)
(210 -1.05029e-12 0)
(210 -2.03545e-12 0)
(210 -1.01332e-12 0)
(210 -7.34908e-13 0)
(210 1.47501e-12 0)
(210 -1.32164e-12 0)
(210 -1.8835e-12 0)
(210 2.73241e-12 0)
(210 2.62894e-12 0)
(210 5.71979e-13 0)
(210 -1.65709e-13 0)
(210 -1.41941e-12 0)
(210 -1.49586e-12 0)
(210 -4.26701e-13 0)
(210 -2.90509e-12 0)
(210 -2.19404e-12 0)
(210 -1.9739e-12 0)
(210 2.05615e-12 0)
(210 -8.10395e-13 0)
(210 7.80575e-13 0)
(210 -4.92903e-13 0)
(210 -8.63617e-13 0)
(210 1.77771e-12 0)
(210 1.12465e-12 0)
(210 -3.02281e-12 0)
(210 -3.52518e-12 0)
(210 1.09718e-12 0)
(210 5.86345e-13 0)
(210 1.04991e-13 0)
(210 1.03863e-12 0)
(210 1.4803e-12 0)
(210 2.59297e-12 0)
(210 2.39407e-12 0)
(210 1.78274e-12 0)
(210 -4.94963e-12 0)
(210 -4.45422e-12 0)
(210 -1.52931e-11 0)
(210 -2.52189e-10 0)
(210 -2.30567e-08 0)
(210 2.95202e-07 0)
(210 1.35945e-05 0)
(210 7.54241e-05 0)
(210 0.000149782 0)
(209.998 0.000882531 0)
(209.952 0.0132449 0)
(209.692 0.0872918 0)
(209.124 0.280981 0)
(208.464 0.589771 0)
(207.972 0.967461 0)
(207.728 1.35843 0)
(207.68 1.75463 0)
(208.225 2.31128 0)
(209.381 2.98987 0)
(210.372 3.81699 0)
(210.964 4.83705 0)
(211.145 6.32684 0)
(210.731 8.83466 0)
(209.884 12.1316 0)
(208.117 15.0764 0)
(201.552 15.4369 0)
(189.304 10.3012 0)
(179.028 0.388335 0)
(177.032 -9.90053 0)
(181.231 -17.0075 0)
(186.602 -20.3479 0)
(190.074 -22.1051 0)
(191.802 -24.4227 0)
(191.547 -29.2002 0)
(193.842 -36.6928 0)
(210 -4.74556e-13 0)
(210 -3.72824e-13 0)
(210 -9.68079e-13 0)
(210 -3.17577e-13 0)
(210 -1.34155e-12 0)
(210 -1.19407e-12 0)
(210 2.58901e-12 0)
(210 1.25899e-12 0)
(210 6.5125e-13 0)
(210 1.35533e-12 0)
(210 2.55757e-12 0)
(210 2.42817e-13 0)
(210 1.37531e-12 0)
(210 -9.08902e-14 0)
(210 6.44032e-13 0)
(210 1.22461e-12 0)
(210 -1.22083e-12 0)
(210 -1.48939e-13 0)
(210 -1.11231e-13 0)
(210 -9.09626e-13 0)
(210 7.68072e-13 0)
(210 -1.84787e-13 0)
(210 3.28727e-13 0)
(210 2.68378e-13 0)
(210 1.46474e-12 0)
(210 7.17122e-14 0)
(210 -4.10807e-12 0)
(210 -2.6863e-12 0)
(210 -4.21366e-12 0)
(210 -4.01783e-12 0)
(210 -5.52152e-12 0)
(210 -3.57092e-12 0)
(210 -2.31507e-12 0)
(210 -3.83627e-12 0)
(210 2.60865e-12 0)
(210 1.66742e-13 0)
(210 -7.58672e-14 0)
(210 1.63638e-13 0)
(210 -1.38277e-12 0)
(210 -5.71555e-13 0)
(210 -1.66203e-12 0)
(210 -6.98021e-13 0)
(210 -1.43448e-12 0)
(210 -1.27186e-12 0)
(210 4.15222e-13 0)
(210 5.97735e-13 0)
(210 1.18972e-12 0)
(210 2.13522e-12 0)
(210 -2.08744e-12 0)
(210 -1.74439e-12 0)
(210 5.02162e-13 0)
(210 8.70474e-13 0)
(210 4.09299e-13 0)
(210 -1.29461e-12 0)
(210 -5.96011e-13 0)
(210 9.85469e-13 0)
(210 2.17876e-12 0)
(210 2.38647e-15 0)
(210 4.64174e-13 0)
(210 9.92854e-13 0)
(210 3.33102e-12 0)
(210 1.58515e-12 0)
(210 1.8659e-12 0)
(210 -1.53212e-12 0)
(210 -1.33455e-12 0)
(210 -1.62933e-12 0)
(210 -6.16307e-13 0)
(210 -1.15784e-12 0)
(210 -3.23224e-13 0)
(210 8.31269e-13 0)
(210 2.4329e-13 0)
(210 -2.5459e-13 0)
(210 6.8065e-13 0)
(210 9.94175e-13 0)
(210 1.37134e-12 0)
(210 1.82277e-12 0)
(210 -2.2902e-12 0)
(210 -3.7015e-12 0)
(210 5.50952e-13 0)
(210 1.72834e-12 0)
(210 1.07521e-12 0)
(210 1.36908e-12 0)
(210 2.3773e-12 0)
(210 6.45843e-13 0)
(210 1.82926e-12 0)
(210 7.6162e-13 0)
(210 -3.40876e-12 0)
(210 -4.37402e-12 0)
(210 -1.44006e-11 0)
(210 -2.51958e-10 0)
(210 -2.05863e-08 0)
(210 3.86043e-07 0)
(210 1.36478e-05 0)
(210 7.18287e-05 0)
(210 0.000140157 0)
(209.998 0.000860743 0)
(209.95 0.0130698 0)
(209.687 0.0860785 0)
(209.11 0.277192 0)
(208.442 0.582711 0)
(207.943 0.957782 0)
(207.693 1.34754 0)
(207.639 1.74153 0)
(208.171 2.29711 0)
(209.321 2.98117 0)
(210.304 3.82086 0)
(210.855 4.85063 0)
(210.898 6.35677 0)
(210.094 8.88955 0)
(208.469 12.2197 0)
(205.296 15.1134 0)
(197.631 15.1573 0)
(186.375 9.87152 0)
(178.263 0.294505 0)
(177.293 -9.72037 0)
(181.821 -16.6507 0)
(186.909 -20.0482 0)
(190.261 -21.9327 0)
(192.02 -24.3858 0)
(191.839 -29.1993 0)
(194.684 -36.5451 0)
(210 -1.82451e-12 0)
(210 -7.70622e-14 0)
(210 -8.76215e-13 0)
(210 5.64727e-13 0)
(210 -1.19595e-12 0)
(210 -1.94965e-12 0)
(210 1.00566e-12 0)
(210 1.45976e-12 0)
(210 2.44626e-12 0)
(210 1.88747e-13 0)
(210 2.04115e-12 0)
(210 1.41489e-12 0)
(210 1.97987e-13 0)
(210 8.07381e-13 0)
(210 2.20782e-13 0)
(210 1.18213e-12 0)
(210 9.77973e-13 0)
(210 -2.14143e-13 0)
(210 2.77444e-12 0)
(210 1.87117e-12 0)
(210 -7.0164e-14 0)
(210 1.28312e-13 0)
(210 1.74828e-12 0)
(210 -1.73795e-12 0)
(210 -1.7233e-12 0)
(210 -3.73427e-12 0)
(210 -6.03605e-12 0)
(210 -4.13532e-12 0)
(210 -5.24129e-12 0)
(210 -3.02791e-12 0)
(210 -3.46628e-12 0)
(210 -2.57854e-12 0)
(210 -1.66468e-12 0)
(210 -1.40785e-12 0)
(210 3.03174e-12 0)
(210 2.51576e-14 0)
(210 -2.47694e-12 0)
(210 -2.88703e-12 0)
(210 -2.66944e-12 0)
(210 -2.47004e-12 0)
(210 -1.48318e-12 0)
(210 -5.28053e-13 0)
(210 7.37257e-13 0)
(210 1.37247e-12 0)
(210 -8.19946e-13 0)
(210 -4.89058e-13 0)
(210 1.94181e-12 0)
(210 1.31262e-12 0)
(210 -5.78029e-13 0)
(210 7.04939e-13 0)
(210 1.49277e-12 0)
(210 6.42565e-13 0)
(210 3.373e-15 0)
(210 -4.63349e-13 0)
(210 -6.84414e-13 0)
(210 3.66294e-12 0)
(210 7.67129e-13 0)
(210 1.17953e-12 0)
(210 3.33617e-12 0)
(210 2.14618e-13 0)
(210 1.85187e-12 0)
(210 7.15744e-13 0)
(210 3.68833e-12 0)
(210 -2.28798e-13 0)
(210 -2.09374e-13 0)
(210 -3.11672e-12 0)
(210 6.1611e-13 0)
(210 1.36031e-12 0)
(210 1.89177e-12 0)
(210 5.17725e-14 0)
(210 1.26938e-12 0)
(210 -3.8512e-13 0)
(210 1.2966e-12 0)
(210 3.11356e-12 0)
(210 -3.17405e-13 0)
(210 1.68628e-12 0)
(210 -3.95072e-13 0)
(210 -8.48303e-13 0)
(210 8.08578e-13 0)
(210 3.56193e-12 0)
(210 2.04745e-12 0)
(210 3.36778e-13 0)
(210 1.9099e-12 0)
(210 2.66814e-13 0)
(210 -3.53845e-14 0)
(210 -1.73566e-15 0)
(210 -1.82027e-12 0)
(210 -3.85135e-12 0)
(210 -1.1092e-11 0)
(210 -2.5025e-10 0)
(210 -1.78204e-08 0)
(210 4.74088e-07 0)
(210 1.36142e-05 0)
(210 6.76815e-05 0)
(210 0.000130967 0)
(209.998 0.000836808 0)
(209.949 0.012858 0)
(209.681 0.0846771 0)
(209.097 0.272936 0)
(208.42 0.574855 0)
(207.913 0.946982 0)
(207.657 1.33545 0)
(207.597 1.72732 0)
(208.114 2.28203 0)
(209.256 2.97156 0)
(210.225 3.82024 0)
(210.733 4.84876 0)
(210.654 6.3463 0)
(209.505 8.84413 0)
(207.12 12.1246 0)
(202.686 15.0313 0)
(194.442 14.84 0)
(184.4 9.5351 0)
(178.045 0.0822427 0)
(177.805 -9.52534 0)
(182.447 -16.2879 0)
(187.204 -19.7414 0)
(190.46 -21.7476 0)
(192.241 -24.3314 0)
(192.135 -29.1658 0)
(195.531 -36.3616 0)
(210 -2.51564e-12 0)
(210 -2.93428e-12 0)
(210 -6.44716e-13 0)
(210 -7.04916e-13 0)
(210 5.65842e-13 0)
(210 -2.2902e-12 0)
(210 -1.80029e-12 0)
(210 4.40446e-13 0)
(210 1.241e-12 0)
(210 -6.1397e-13 0)
(210 -1.78203e-13 0)
(210 4.56789e-13 0)
(210 8.70296e-14 0)
(210 5.31031e-13 0)
(210 6.7538e-13 0)
(210 1.69989e-12 0)
(210 4.74241e-13 0)
(210 -1.887e-12 0)
(210 1.68659e-12 0)
(210 1.05934e-12 0)
(210 -1.19323e-12 0)
(210 8.12624e-13 0)
(210 5.47483e-14 0)
(210 -4.88246e-13 0)
(210 -1.7306e-12 0)
(210 -3.9839e-12 0)
(210 -6.46691e-12 0)
(210 -4.48007e-12 0)
(210 -6.2817e-12 0)
(210 -5.565e-12 0)
(210 -4.26204e-12 0)
(210 -2.70052e-12 0)
(210 -9.74165e-13 0)
(210 2.06762e-13 0)
(210 1.28418e-12 0)
(210 -1.02681e-12 0)
(210 -3.27092e-12 0)
(210 -4.01894e-12 0)
(210 -3.37978e-12 0)
(210 -2.20139e-12 0)
(210 -3.16216e-12 0)
(210 -2.63559e-13 0)
(210 -3.05047e-13 0)
(210 1.74365e-12 0)
(210 -3.85734e-12 0)
(210 -1.76052e-12 0)
(210 1.76924e-12 0)
(210 7.12907e-13 0)
(210 1.09035e-12 0)
(210 6.80914e-13 0)
(210 4.50055e-13 0)
(210 -2.125e-12 0)
(210 -2.63811e-12 0)
(210 -1.4497e-12 0)
(210 -8.35119e-13 0)
(210 2.61783e-12 0)
(210 -1.20646e-12 0)
(210 5.81771e-13 0)
(210 3.69316e-12 0)
(210 1.91162e-12 0)
(210 2.44819e-13 0)
(210 -7.3148e-13 0)
(210 1.20785e-12 0)
(210 1.36029e-13 0)
(210 -8.44299e-13 0)
(210 -2.76398e-12 0)
(210 -3.79964e-13 0)
(210 2.47801e-12 0)
(210 2.11688e-12 0)
(210 5.111e-13 0)
(210 8.03791e-14 0)
(210 1.61454e-12 0)
(210 -2.0742e-12 0)
(210 2.22799e-12 0)
(210 7.59531e-13 0)
(210 2.83696e-13 0)
(210 1.54654e-12 0)
(210 1.35583e-12 0)
(210 2.35873e-12 0)
(210 2.80172e-12 0)
(210 1.5259e-12 0)
(210 -7.24942e-13 0)
(210 6.92311e-13 0)
(210 7.60401e-13 0)
(210 -1.38531e-12 0)
(210 1.4019e-12 0)
(210 -7.77971e-13 0)
(210 -2.51457e-12 0)
(210 -8.34836e-12 0)
(210 -2.46012e-10 0)
(210 -1.47525e-08 0)
(210 5.57924e-07 0)
(210 1.34853e-05 0)
(210 6.31682e-05 0)
(210 0.00012209 0)
(209.998 0.000810479 0)
(209.948 0.0126051 0)
(209.675 0.0830657 0)
(209.082 0.268169 0)
(208.397 0.566172 0)
(207.882 0.935064 0)
(207.62 1.32185 0)
(207.552 1.71104 0)
(208.055 2.26461 0)
(209.183 2.96101 0)
(210.135 3.82071 0)
(210.601 4.85174 0)
(210.423 6.34021 0)
(209.014 8.79994 0)
(206.077 12.0208 0)
(200.845 14.7299 0)
(192.457 14.3837 0)
(183.419 9.03236 0)
(178.158 -0.0741131 0)
(178.542 -9.31662 0)
(183.068 -15.9159 0)
(187.492 -19.4245 0)
(190.673 -21.5533 0)
(192.471 -24.2799 0)
(192.471 -29.1341 0)
(196.374 -36.154 0)
(210 -3.58906e-12 0)
(210 -5.08623e-12 0)
(210 -2.40818e-12 0)
(210 -2.98822e-12 0)
(210 -1.34914e-12 0)
(210 -3.54215e-12 0)
(210 -4.29709e-12 0)
(210 -7.89118e-13 0)
(210 -1.61411e-12 0)
(210 -2.61924e-12 0)
(210 -9.30568e-13 0)
(210 -1.32751e-12 0)
(210 -2.25124e-12 0)
(210 7.06294e-13 0)
(210 -5.50015e-13 0)
(210 1.1243e-13 0)
(210 -2.64713e-12 0)
(210 -2.26121e-12 0)
(210 -5.71262e-13 0)
(210 -7.55355e-13 0)
(210 -7.5435e-13 0)
(210 -2.66628e-13 0)
(210 -1.91093e-12 0)
(210 -9.79046e-13 0)
(210 -2.04894e-12 0)
(210 -3.49433e-12 0)
(210 -6.57758e-12 0)
(210 -3.51364e-12 0)
(210 -7.05505e-12 0)
(210 -6.57737e-12 0)
(210 -6.63422e-12 0)
(210 -3.42945e-12 0)
(210 -7.11957e-13 0)
(210 -7.16406e-13 0)
(210 -1.08807e-13 0)
(210 -3.07441e-12 0)
(210 -3.8019e-12 0)
(210 -3.79982e-12 0)
(210 -5.61044e-12 0)
(210 -5.24669e-12 0)
(210 -4.0044e-12 0)
(210 -2.52113e-12 0)
(210 -1.8618e-12 0)
(210 8.16083e-13 0)
(210 -3.5658e-12 0)
(210 -2.06108e-12 0)
(210 1.3279e-12 0)
(210 -3.19918e-13 0)
(210 7.07802e-13 0)
(210 -1.55961e-12 0)
(210 -2.10036e-12 0)
(210 -4.44879e-12 0)
(210 -4.90988e-12 0)
(210 -1.51023e-12 0)
(210 -3.0972e-12 0)
(210 -3.57349e-13 0)
(210 -3.05709e-12 0)
(210 -1.43648e-13 0)
(210 1.54561e-12 0)
(210 1.58093e-12 0)
(210 -2.3296e-12 0)
(210 -1.88828e-12 0)
(210 -1.99963e-12 0)
(210 -1.98333e-12 0)
(210 -3.4962e-12 0)
(210 -4.26418e-12 0)
(210 -1.24295e-12 0)
(210 6.5417e-13 0)
(210 1.38358e-12 0)
(210 -1.68333e-12 0)
(210 -2.55064e-12 0)
(210 8.9889e-13 0)
(210 -1.9144e-12 0)
(210 6.09281e-14 0)
(210 1.40002e-12 0)
(210 -9.891e-13 0)
(210 3.48438e-12 0)
(210 2.55592e-12 0)
(210 2.13647e-12 0)
(210 1.8386e-12 0)
(210 -8.20801e-13 0)
(210 4.34007e-14 0)
(210 5.20372e-13 0)
(210 2.58332e-13 0)
(210 -3.29721e-14 0)
(210 1.67433e-12 0)
(210 8.92665e-13 0)
(210 -1.46709e-12 0)
(210 -7.28999e-12 0)
(210 -2.3853e-10 0)
(210 -1.1326e-08 0)
(210 6.35937e-07 0)
(210 1.32585e-05 0)
(210 5.85876e-05 0)
(210 0.000113286 0)
(209.998 0.00078153 0)
(209.947 0.0123072 0)
(209.669 0.0812247 0)
(209.068 0.262832 0)
(208.372 0.556538 0)
(207.85 0.921842 0)
(207.581 1.30685 0)
(207.506 1.69355 0)
(207.992 2.24582 0)
(209.105 2.94797 0)
(210.035 3.81415 0)
(210.462 4.83807 0)
(210.21 6.29559 0)
(208.649 8.63737 0)
(205.447 11.6425 0)
(199.87 14.1749 0)
(191.692 13.6095 0)
(183.266 8.39218 0)
(178.706 -0.180219 0)
(179.443 -9.13374 0)
(183.67 -15.5561 0)
(187.789 -19.1023 0)
(190.903 -21.3492 0)
(192.697 -24.2089 0)
(192.849 -29.0699 0)
(197.198 -35.9082 0)
(210 -3.60081e-12 0)
(210 -4.38043e-12 0)
(210 -2.87457e-12 0)
(210 -4.2849e-12 0)
(210 -2.67811e-12 0)
(210 -3.38276e-12 0)
(210 -4.85078e-12 0)
(210 -3.18383e-12 0)
(210 -4.09904e-12 0)
(210 -2.51517e-12 0)
(210 -8.6537e-13 0)
(210 -2.32852e-12 0)
(210 -3.03722e-12 0)
(210 1.21194e-12 0)
(210 2.78616e-13 0)
(210 -4.55588e-13 0)
(210 -2.12222e-12 0)
(210 -2.50119e-13 0)
(210 5.35456e-14 0)
(210 -8.9899e-13 0)
(210 2.88472e-13 0)
(210 -1.78541e-12 0)
(210 -8.48128e-13 0)
(210 -2.58153e-12 0)
(210 -2.45792e-12 0)
(210 -4.57974e-12 0)
(210 -3.08751e-12 0)
(210 -2.67353e-12 0)
(210 -6.35558e-12 0)
(210 -5.05101e-12 0)
(210 -7.14103e-12 0)
(210 -5.11037e-12 0)
(210 -1.96725e-12 0)
(210 -2.50947e-12 0)
(210 -1.16321e-12 0)
(210 -5.01961e-12 0)
(210 -3.76919e-12 0)
(210 -5.26396e-12 0)
(210 -5.40817e-12 0)
(210 -7.26472e-12 0)
(210 -2.32793e-12 0)
(210 -3.97507e-12 0)
(210 -2.86371e-12 0)
(210 -1.09073e-12 0)
(210 -1.46017e-12 0)
(210 -5.87592e-13 0)
(210 1.87041e-12 0)
(210 1.21516e-12 0)
(210 -5.49005e-13 0)
(210 -3.47471e-12 0)
(210 -2.411e-12 0)
(210 -4.53153e-12 0)
(210 -5.98514e-12 0)
(210 -1.45716e-12 0)
(210 -2.83926e-12 0)
(210 -1.6159e-12 0)
(210 -4.84621e-12 0)
(210 7.9063e-13 0)
(210 -2.24538e-13 0)
(210 -1.34507e-12 0)
(210 -3.46232e-12 0)
(210 -1.27386e-12 0)
(210 -3.35939e-12 0)
(210 -2.80246e-12 0)
(210 -3.49299e-12 0)
(210 -5.47407e-12 0)
(210 -2.65009e-12 0)
(210 -8.68312e-13 0)
(210 2.8202e-12 0)
(210 -2.3901e-12 0)
(210 -1.82318e-12 0)
(210 -1.35996e-13 0)
(210 -5.41987e-13 0)
(210 -1.18965e-12 0)
(210 5.04639e-14 0)
(210 -2.1735e-12 0)
(210 2.72368e-12 0)
(210 3.24808e-12 0)
(210 2.95455e-12 0)
(210 4.30793e-12 0)
(210 -1.3373e-14 0)
(210 -2.89488e-13 0)
(210 -1.01328e-12 0)
(210 7.10826e-13 0)
(210 3.8281e-13 0)
(210 3.11865e-13 0)
(210 8.192e-13 0)
(210 1.20641e-13 0)
(210 -6.57018e-12 0)
(210 -2.27806e-10 0)
(210 -7.93959e-09 0)
(210 7.06427e-07 0)
(210 1.29348e-05 0)
(210 5.40096e-05 0)
(210 0.000104546 0)
(209.997 0.000749716 0)
(209.946 0.0119599 0)
(209.663 0.0791299 0)
(209.053 0.256872 0)
(208.347 0.545915 0)
(207.816 0.907303 0)
(207.541 1.28997 0)
(207.458 1.67346 0)
(207.926 2.2239 0)
(209.02 2.93311 0)
(209.927 3.80915 0)
(210.315 4.83193 0)
(209.999 6.26868 0)
(208.318 8.51608 0)
(204.931 11.3409 0)
(199.242 13.599 0)
(191.309 12.8648 0)
(183.649 7.86211 0)
(179.593 -0.356154 0)
(180.4 -8.92477 0)
(184.229 -15.1888 0)
(188.102 -18.7729 0)
(191.162 -21.147 0)
(192.93 -24.1434 0)
(193.294 -29.0147 0)
(198.006 -35.6377 0)
(210 -4.29898e-12 0)
(210 -2.32929e-12 0)
(210 -1.51004e-12 0)
(210 -2.08355e-12 0)
(210 2.34297e-14 0)
(210 -2.83583e-12 0)
(210 -2.88058e-12 0)
(210 -4.65676e-12 0)
(210 -3.31486e-12 0)
(210 -2.94433e-12 0)
(210 -7.48257e-13 0)
(210 -1.61977e-12 0)
(210 -5.45826e-14 0)
(210 3.01232e-12 0)
(210 1.90903e-12 0)
(210 -1.4622e-12 0)
(210 -5.10158e-13 0)
(210 1.31168e-12 0)
(210 -1.39389e-12 0)
(210 -2.50088e-12 0)
(210 1.59011e-12 0)
(210 -5.75802e-13 0)
(210 6.91713e-13 0)
(210 -1.95262e-12 0)
(210 1.05817e-12 0)
(210 -5.15584e-12 0)
(210 -1.68535e-12 0)
(210 -1.44453e-13 0)
(210 -6.42815e-12 0)
(210 -2.79716e-12 0)
(210 -6.31965e-12 0)
(210 -4.65268e-12 0)
(210 -4.58287e-12 0)
(210 -1.74302e-12 0)
(210 -1.54373e-12 0)
(210 -3.60818e-12 0)
(210 -4.95747e-12 0)
(210 -2.69269e-12 0)
(210 -4.14943e-12 0)
(210 -4.63965e-12 0)
(210 -1.46581e-12 0)
(210 -3.34993e-12 0)
(210 -2.62349e-12 0)
(210 7.61917e-13 0)
(210 -1.79501e-12 0)
(210 6.32673e-13 0)
(210 2.7254e-12 0)
(210 1.19601e-12 0)
(210 -1.2182e-12 0)
(210 -4.13448e-12 0)
(210 -2.86995e-12 0)
(210 -2.90726e-12 0)
(210 -4.07027e-12 0)
(210 -2.99278e-12 0)
(210 -3.19783e-12 0)
(210 -2.88608e-12 0)
(210 -3.92337e-12 0)
(210 2.27909e-13 0)
(210 -8.73593e-13 0)
(210 -3.76398e-12 0)
(210 -3.54203e-12 0)
(210 -1.05315e-14 0)
(210 -3.38898e-12 0)
(210 -2.10819e-12 0)
(210 -3.42008e-12 0)
(210 -4.90392e-12 0)
(210 -2.46972e-12 0)
(210 -4.86937e-13 0)
(210 2.78705e-12 0)
(210 -1.11442e-12 0)
(210 4.53652e-13 0)
(210 6.96117e-13 0)
(210 -1.71119e-12 0)
(210 -2.62832e-12 0)
(210 -6.26636e-13 0)
(210 -5.15791e-13 0)
(210 7.81968e-13 0)
(210 2.85393e-12 0)
(210 3.43085e-12 0)
(210 4.2371e-12 0)
(210 7.54536e-13 0)
(210 -8.16343e-13 0)
(210 -1.42982e-12 0)
(210 -1.46887e-12 0)
(210 -9.87569e-13 0)
(210 -1.73337e-13 0)
(210 1.46195e-12 0)
(210 1.14985e-12 0)
(210 -5.36094e-12 0)
(210 -2.1573e-10 0)
(210 -4.16348e-09 0)
(210 7.67687e-07 0)
(210 1.25177e-05 0)
(210 4.9472e-05 0)
(210 9.58919e-05 0)
(209.997 0.000714853 0)
(209.945 0.0115593 0)
(209.657 0.0767614 0)
(209.038 0.25022 0)
(208.322 0.534127 0)
(207.781 0.891223 0)
(207.498 1.27155 0)
(207.408 1.65205 0)
(207.857 2.19998 0)
(208.931 2.91365 0)
(209.813 3.79356 0)
(210.164 4.8055 0)
(209.796 6.19984 0)
(208.085 8.28294 0)
(204.796 10.838 0)
(199.241 12.8448 0)
(191.52 12.0713 0)
(184.362 7.29744 0)
(180.664 -0.562951 0)
(181.345 -8.76543 0)
(184.77 -14.8382 0)
(188.442 -18.4431 0)
(191.426 -20.9361 0)
(193.161 -24.053 0)
(193.784 -28.9208 0)
(198.794 -35.3298 0)
(210 -4.67062e-12 0)
(210 -3.26654e-12 0)
(210 -3.30929e-12 0)
(210 -3.40086e-12 0)
(210 -1.39021e-12 0)
(210 -1.48027e-13 0)
(210 -2.816e-12 0)
(210 -3.5973e-12 0)
(210 -3.71521e-12 0)
(210 -4.18202e-12 0)
(210 -3.84476e-13 0)
(210 -4.6529e-13 0)
(210 1.68976e-13 0)
(210 3.36164e-12 0)
(210 4.06888e-12 0)
(210 -7.14441e-13 0)
(210 1.00415e-12 0)
(210 -9.27873e-13 0)
(210 -9.6922e-13 0)
(210 -2.00277e-12 0)
(210 3.65883e-13 0)
(210 -8.10948e-13 0)
(210 -6.42918e-13 0)
(210 1.54146e-13 0)
(210 9.90767e-15 0)
(210 -2.85253e-12 0)
(210 -6.51219e-13 0)
(210 -6.50258e-13 0)
(210 -4.05228e-12 0)
(210 -2.24981e-12 0)