/*--------------------------------*- C++ -*----------------------------------*\
| =========                 |                                                 |
| \\      /  F ield         | OpenFOAM: The Open Source CFD Toolbox           |
|  \\    /   O peration     | Version:  2412                                  |
|   \\  /    A nd           | Website:  www.openfoam.com                      |
|    \\/     M anipulation  |                                                 |
\*---------------------------------------------------------------------------*/
FoamFile
{
    version     2.0;
    format      ascii;
    arch        "LSB;label=32;scalar=64";
    class       volVectorField;
    location    "0.043";
    object      U;
}
// * * * * * * * * * * * * * * * * * * * * * * * * * * * * * * * * * * * * * //

dimensions      [0 1 -1 0 0 0 0];

internalField   nonuniform List<vector> 
9922
(
(169.471 84.5004 0)
(169.78 6.63269 0)
(184.366 -0.151612 0)
(194.978 -1.47632 0)
(198.449 -4.57039 0)
(198.633 -6.26254 0)
(199.038 -7.32483 0)
(199.621 -8.24419 0)
(200.303 -8.9795 0)
(200.854 -9.65839 0)
(201.554 -10.1352 0)
(202.305 -10.5259 0)
(203.112 -10.8275 0)
(203.969 -11.0647 0)
(204.861 -11.2735 0)
(205.787 -11.4576 0)
(206.745 -11.6291 0)
(207.735 -11.7896 0)
(208.753 -11.9391 0)
(209.794 -12.0828 0)
(210.865 -12.2115 0)
(211.979 -12.3274 0)
(213.151 -12.4206 0)
(214.398 -12.4895 0)
(215.735 -12.5298 0)
(217.182 -12.5433 0)
(218.758 -12.5288 0)
(220.481 -12.4883 0)
(222.363 -12.4193 0)
(224.407 -12.3203 0)
(226.606 -12.1946 0)
(228.945 -12.056 0)
(231.4 -11.927 0)
(233.944 -11.8365 0)
(236.553 -11.8117 0)
(239.218 -11.8732 0)
(241.943 -12.0321 0)
(244.747 -12.2882 0)
(247.664 -12.6352 0)
(250.734 -13.0608 0)
(254.002 -13.549 0)
(257.519 -14.0811 0)
(261.331 -14.6334 0)
(265.482 -15.1754 0)
(269.996 -15.6716 0)
(274.852 -16.0865 0)
(279.968 -16.3981 0)
(285.231 -16.6121 0)
(290.537 -16.7527 0)
(295.77 -16.8569 0)
(300.874 -17.01 0)
(305.849 -17.2739 0)
(310.661 -17.6772 0)
(315.29 -18.2432 0)
(319.771 -19.0006 0)
(324.147 -19.9476 0)
(328.463 -21.0933 0)
(332.732 -22.467 0)
(336.846 -23.9514 0)
(340.758 -25.4615 0)
(344.567 -27.1422 0)
(348.379 -28.9827 0)
(352.085 -30.9277 0)
(355.563 -32.8425 0)
(358.797 -34.6114 0)
(361.788 -36.248 0)
(364.529 -37.7839 0)
(367.029 -39.2132 0)
(369.323 -40.5101 0)
(371.443 -41.6436 0)
(373.431 -42.68 0)
(375.154 -43.5337 0)
(376.707 -44.2586 0)
(378.111 -44.7954 0)
(379.412 -45.3596 0)
(380.604 -45.7015 0)
(381.754 -46.1929 0)
(382.825 -46.4324 0)
(383.863 -46.8743 0)
(384.834 -47.0532 0)
(385.765 -47.4429 0)
(386.65 -47.5733 0)
(387.494 -47.9092 0)
(388.298 -47.9996 0)
(389.058 -48.2865 0)
(389.787 -48.3507 0)
(390.472 -48.6034 0)
(391.132 -48.6617 0)
(391.759 -48.8898 0)
(392.377 -48.939 0)
(392.972 -49.1416 0)
(393.556 -49.1896 0)
(394.108 -49.3721 0)
(394.645 -49.4046 0)
(395.149 -49.5566 0)
(395.641 -49.586 0)
(396.103 -49.732 0)
(396.554 -49.7681 0)
(396.976 -49.902 0)
(397.382 -49.9348 0)
(397.756 -50.0589 0)
(398.12 -50.096 0)
(398.474 -50.2046 0)
(398.839 -50.2375 0)
(399.207 -50.3297 0)
(399.582 -50.3774 0)
(399.937 -50.461 0)
(400.252 -50.5214 0)
(400.5 -50.5841 0)
(400.658 -50.6419 0)
(400.704 -50.6572 0)
(400.616 -50.7064 0)
(400.433 -50.6619 0)
(400.214 -50.7396 0)
(400.097 -50.7055 0)
(400.194 -50.7661 0)
(400.594 -50.8363 0)
(401.275 -50.9327 0)
(402.086 -51.0717 0)
(402.886 -51.2268 0)
(403.318 -50.9575 0)
(169.296 84.4502 0)
(169.889 6.45681 0)
(184.507 -0.229271 0)
(195.12 -1.52592 0)
(198.557 -4.58533 0)
(198.715 -6.26092 0)
(199.098 -7.31274 0)
(199.666 -8.2291 0)
(200.34 -8.9626 0)
(200.886 -9.63956 0)
(201.584 -10.1137 0)
(202.335 -10.501 0)
(203.142 -10.8002 0)
(203.999 -11.0353 0)
(204.89 -11.2422 0)
(205.816 -11.4242 0)
(206.775 -11.5934 0)
(207.766 -11.7515 0)
(208.784 -11.8984 0)
(209.827 -12.0394 0)
(210.9 -12.1651 0)
(212.017 -12.2772 0)
(213.193 -12.3658 0)
(214.445 -12.429 0)
(215.789 -12.4625 0)
(217.243 -12.4677 0)
(218.827 -12.4433 0)
(220.559 -12.3912 0)
(222.451 -12.3094 0)
(224.507 -12.1968 0)
(226.718 -12.0575 0)
(229.067 -11.9052 0)
(231.53 -11.7629 0)
(234.08 -11.6595 0)
(236.693 -11.6216 0)
(239.361 -11.669 0)
(242.089 -11.8118 0)
(244.899 -12.0486 0)
(247.825 -12.3722 0)
(250.906 -12.7692 0)
(254.189 -13.2225 0)
(257.721 -13.7123 0)
(261.546 -14.2138 0)
(265.701 -14.6963 0)
(270.197 -15.1265 0)
(274.999 -15.4741 0)
(280.036 -15.724 0)
(285.212 -15.8812 0)
(290.424 -15.9786 0)
(295.559 -16.0481 0)
(300.595 -16.1661 0)
(305.508 -16.4101 0)
(310.249 -16.801 0)
(314.829 -17.3519 0)
(319.261 -18.0824 0)
(323.552 -18.9834 0)
(327.733 -20.0623 0)
(331.881 -21.3376 0)
(336.053 -22.8363 0)
(340.119 -24.4985 0)
(343.981 -26.13 0)
(347.671 -27.817 0)
(351.267 -29.6382 0)
(354.796 -31.5418 0)
(358.169 -33.4644 0)
(361.299 -35.3078 0)
(364.165 -36.976 0)
(366.767 -38.4368 0)
(369.112 -39.7126 0)
(371.205 -40.8257 0)
(373.085 -41.8227 0)
(374.845 -42.6794 0)
(376.483 -43.4474 0)
(377.977 -44.0517 0)
(379.363 -44.6924 0)
(380.612 -45.0852 0)
(381.793 -45.6126 0)
(382.866 -45.8437 0)
(383.889 -46.2762 0)
(384.848 -46.4381 0)
(385.778 -46.8295 0)
(386.665 -46.9543 0)
(387.514 -47.2921 0)
(388.325 -47.3771 0)
(389.092 -47.6656 0)
(389.822 -47.7331 0)
(390.505 -47.9967 0)
(391.165 -48.0577 0)
(391.804 -48.2866 0)
(392.44 -48.3296 0)
(393.046 -48.5291 0)
(393.638 -48.5732 0)
(394.197 -48.7548 0)
(394.741 -48.7847 0)
(395.252 -48.9364 0)
(395.753 -48.9621 0)
(396.225 -49.1045 0)
(396.687 -49.1354 0)
(397.118 -49.2674 0)
(397.533 -49.298 0)
(397.917 -49.4208 0)
(398.292 -49.4502 0)
(398.656 -49.5531 0)
(399.031 -49.5778 0)
(399.408 -49.6679 0)
(399.792 -49.7103 0)
(400.157 -49.7932 0)
(400.485 -49.8456 0)
(400.746 -49.9048 0)
(400.919 -49.9534 0)
(400.978 -49.9677 0)
(400.901 -50.0062 0)
(400.725 -49.9554 0)
(400.51 -50.0204 0)
(400.394 -49.9767 0)
(400.489 -50.0287 0)
(400.884 -50.0883 0)
(401.56 -50.1801 0)
(402.368 -50.3194 0)
(403.172 -50.4755 0)
(403.61 -50.1975 0)
(169.118 84.3951 0)
(169.998 6.27878 0)
(184.65 -0.308139 0)
(195.264 -1.57809 0)
(198.667 -4.60186 0)
(198.798 -6.26172 0)
(199.161 -7.30326 0)
(199.713 -8.21584 0)
(200.38 -8.94721 0)
(200.921 -9.62195 0)
(201.616 -10.093 0)
(202.366 -10.4767 0)
(203.174 -10.7733 0)
(204.031 -11.0062 0)
(204.923 -11.2111 0)
(205.848 -11.391 0)
(206.807 -11.5577 0)
(207.798 -11.7133 0)
(208.817 -11.8576 0)
(209.861 -11.9959 0)
(210.937 -12.1185 0)
(212.057 -12.2269 0)
(213.237 -12.3106 0)
(214.495 -12.3681 0)
(215.845 -12.3946 0)
(217.306 -12.3913 0)
(218.898 -12.3567 0)
(220.638 -12.2928 0)
(222.54 -12.1979 0)
(224.606 -12.0715 0)
(226.829 -11.9183 0)
(229.189 -11.7526 0)
(231.662 -11.5976 0)
(234.219 -11.4821 0)
(236.839 -11.4321 0)
(239.512 -11.4662 0)
(242.246 -11.5935 0)
(245.064 -11.8115 0)
(248.001 -12.1121 0)
(251.096 -12.4808 0)
(254.395 -12.8994 0)
(257.942 -13.3471 0)
(261.78 -13.7983 0)
(265.934 -14.2226 0)
(270.403 -14.5889 0)
(275.155 -14.871 0)
(280.129 -15.0559 0)
(285.231 -15.1636 0)
(290.335 -15.2188 0)
(295.355 -15.2552 0)
(300.262 -15.3413 0)
(305.052 -15.5573 0)
(309.704 -15.9245 0)
(314.214 -16.4507 0)
(318.622 -17.1706 0)
(322.941 -18.0815 0)
(327.144 -19.1424 0)
(331.215 -20.3268 0)
(335.207 -21.7007 0)
(339.238 -23.2831 0)
(343.242 -25.0555 0)
(347.064 -26.8568 0)
(350.693 -28.5969 0)
(354.14 -30.3678 0)
(357.435 -32.195 0)
(360.589 -34.0108 0)
(363.56 -35.755 0)
(366.299 -37.3769 0)
(368.782 -38.8413 0)
(371.006 -40.1095 0)
(372.984 -41.1511 0)
(374.739 -41.9856 0)
(376.329 -42.7321 0)
(377.789 -43.3367 0)
(379.166 -43.9846 0)
(380.432 -44.3888 0)
(381.639 -44.9368 0)
(382.727 -45.1792 0)
(383.765 -45.638 0)
(384.735 -45.804 0)
(385.681 -46.2043 0)
(386.58 -46.3232 0)
(387.444 -46.6634 0)
(388.268 -46.7464 0)
(389.042 -47.0479 0)
(389.775 -47.1287 0)
(390.462 -47.4052 0)
(391.127 -47.4588 0)
(391.769 -47.6759 0)
(392.406 -47.7058 0)
(393.008 -47.9024 0)
(393.597 -47.9411 0)
(394.152 -48.1207 0)
(394.691 -48.1478 0)
(395.196 -48.3002 0)
(395.692 -48.3207 0)
(396.156 -48.4572 0)
(396.61 -48.4782 0)
(397.033 -48.6037 0)
(397.441 -48.626 0)
(397.817 -48.7422 0)
(398.186 -48.7599 0)
(398.542 -48.8542 0)
(398.911 -48.8693 0)
(399.281 -48.9557 0)
(399.66 -48.9899 0)
(400.022 -49.0665 0)
(400.35 -49.1045 0)
(400.612 -49.1524 0)
(400.787 -49.186 0)
(400.849 -49.1944 0)
(400.774 -49.2248 0)
(400.601 -49.1696 0)
(400.392 -49.228 0)
(400.293 -49.1795 0)
(400.415 -49.2294 0)
(400.853 -49.2865 0)
(401.579 -49.3727 0)
(402.408 -49.5141 0)
(403.215 -49.6747 0)
(403.661 -49.4034 0)
(168.935 84.3364 0)
(170.107 6.09872 0)
(184.795 -0.388168 0)
(195.41 -1.63304 0)
(198.778 -4.61954 0)
(198.883 -6.26057 0)
(199.224 -7.29218 0)
(199.759 -8.20062 0)
(200.418 -8.92982 0)
(200.954 -9.60252 0)
(201.647 -10.0707 0)
(202.397 -10.4507 0)
(203.204 -10.7449 0)
(204.062 -10.9757 0)
(204.953 -11.1787 0)
(205.879 -11.3565 0)
(206.838 -11.5208 0)
(207.829 -11.6739 0)
(208.849 -11.8155 0)
(209.895 -11.9511 0)
(210.972 -12.0705 0)
(212.095 -12.175 0)
(213.28 -12.2539 0)
(214.543 -12.3055 0)
(215.9 -12.3251 0)
(217.369 -12.3134 0)
(218.969 -12.2687 0)
(220.718 -12.193 0)
(222.63 -12.0849 0)
(224.707 -11.9446 0)
(226.94 -11.7774 0)
(229.31 -11.5979 0)
(231.789 -11.4297 0)
(234.35 -11.3015 0)
(236.971 -11.2384 0)
(239.645 -11.2583 0)
(242.381 -11.3691 0)
(245.203 -11.5672 0)
(248.145 -11.8436 0)
(251.248 -12.1829 0)
(254.555 -12.5658 0)
(258.111 -12.9706 0)
(261.948 -13.3714 0)
(266.087 -13.7388 0)
(270.525 -14.0445 0)
(275.237 -14.2647 0)
(280.143 -14.3924 0)
(285.134 -14.4498 0)
(290.114 -14.4616 0)
(295.025 -14.4674 0)
(299.82 -14.5271 0)
(304.506 -14.7099 0)
(309.074 -15.0442 0)
(313.512 -15.5348 0)
(317.848 -16.2058 0)
(322.12 -17.0637 0)
(326.366 -18.1283 0)
(330.545 -19.3891 0)
(334.574 -20.7243 0)
(338.471 -22.1696 0)
(342.339 -23.8079 0)
(346.224 -25.6152 0)
(349.997 -27.5363 0)
(353.569 -29.4265 0)
(356.932 -31.2157 0)
(360.082 -32.9403 0)
(363.011 -34.6187 0)
(365.728 -36.2182 0)
(368.242 -37.6961 0)
(370.551 -39.0206 0)
(372.665 -40.1928 0)
(374.565 -41.1953 0)
(376.267 -42.071 0)
(377.794 -42.7402 0)
(379.206 -43.3988 0)
(380.486 -43.8056 0)
(381.71 -44.3681 0)
(382.825 -44.628 0)
(383.9 -45.1216 0)
(384.893 -45.2816 0)
(385.851 -45.6798 0)
(386.761 -45.7847 0)
(387.628 -46.1263 0)
(388.449 -46.2092 0)
(389.216 -46.5198 0)
(389.943 -46.5955 0)
(390.637 -46.8635 0)
(391.322 -46.8957 0)
(391.982 -47.1033 0)
(392.633 -47.1328 0)
(393.24 -47.3345 0)
(393.831 -47.3698 0)
(394.386 -47.5475 0)
(394.925 -47.5715 0)
(395.428 -47.7244 0)
(395.923 -47.7395 0)
(396.386 -47.871 0)
(396.842 -47.8828 0)
(397.266 -47.9998 0)
(397.677 -48.0102 0)
(398.058 -48.117 0)
(398.432 -48.1262 0)
(398.788 -48.2186 0)
(399.154 -48.2316 0)
(399.519 -48.3166 0)
(399.895 -48.3415 0)
(400.256 -48.4099 0)
(400.587 -48.4358 0)
(400.851 -48.4767 0)
(401.029 -48.4995 0)
(401.092 -48.5011 0)
(401.016 -48.5238 0)
(400.834 -48.4659 0)
(400.608 -48.5194 0)
(400.486 -48.4645 0)
(400.577 -48.5128 0)
(400.976 -48.5649 0)
(401.669 -48.6434 0)
(402.488 -48.7674 0)
(403.284 -48.9152 0)
(403.714 -48.6374 0)
(168.751 84.2713 0)
(170.218 5.91672 0)
(184.941 -0.469306 0)
(195.559 -1.69081 0)
(198.891 -4.63902 0)
(198.97 -6.26199 0)
(199.289 -7.28386 0)
(199.806 -8.18729 0)
(200.459 -8.91394 0)
(200.99 -9.58433 0)
(201.68 -10.0492 0)
(202.43 -10.4254 0)
(203.237 -10.7169 0)
(204.095 -10.9454 0)
(204.986 -11.1465 0)
(205.912 -11.322 0)
(206.871 -11.4839 0)
(207.862 -11.6345 0)
(208.883 -11.7733 0)
(209.93 -11.906 0)
(211.01 -12.0223 0)
(212.136 -12.1228 0)
(213.325 -12.1969 0)
(214.593 -12.2424 0)
(215.956 -12.2547 0)
(217.433 -12.2344 0)
(219.04 -12.1794 0)
(220.799 -12.0916 0)
(222.72 -11.9701 0)
(224.807 -11.8157 0)
(227.05 -11.6343 0)
(229.429 -11.4414 0)
(231.917 -11.2606 0)
(234.484 -11.1203 0)
(237.11 -11.045 0)
(239.788 -11.0516 0)
(242.527 -11.1464 0)
(245.354 -11.3251 0)
(248.304 -11.5777 0)
(251.417 -11.8877 0)
(254.735 -12.2352 0)
(258.297 -12.5976 0)
(262.133 -12.9488 0)
(266.258 -13.26 0)
(270.672 -13.505 0)
(275.331 -13.6646 0)
(280.149 -13.7427 0)
(285.024 -13.7513 0)
(289.903 -13.7254 0)
(294.724 -13.7 0)
(299.444 -13.7263 0)
(304.088 -13.8728 0)
(308.608 -14.19 0)
(312.984 -14.6578 0)
(317.246 -15.2944 0)
(321.415 -16.1056 0)
(325.524 -17.0933 0)
(329.653 -18.2773 0)
(333.793 -19.6883 0)
(337.807 -21.2134 0)
(341.661 -22.749 0)
(345.398 -24.4047 0)
(349.098 -26.2113 0)
(352.753 -28.1298 0)
(356.259 -30.0991 0)
(359.54 -32.0056 0)
(362.581 -33.7583 0)
(365.377 -35.3462 0)
(367.927 -36.7902 0)
(370.23 -38.0976 0)
(372.305 -39.2697 0)
(374.197 -40.293 0)
(375.938 -41.1865 0)
(377.532 -41.8996 0)
(379.02 -42.6063 0)
(380.357 -43.0725 0)
(381.611 -43.669 0)
(382.73 -43.9505 0)
(383.798 -44.4496 0)
(384.777 -44.6025 0)
(385.731 -45.0076 0)
(386.637 -45.1102 0)
(387.5 -45.4634 0)
(388.315 -45.5601 0)
(389.083 -45.8977 0)
(389.813 -45.9834 0)
(390.523 -46.2487 0)
(391.225 -46.2641 0)
(391.892 -46.4652 0)
(392.546 -46.4937 0)
(393.154 -46.6991 0)
(393.744 -46.7293 0)
(394.295 -46.9048 0)
(394.83 -46.9251 0)
(395.33 -47.0784 0)
(395.821 -47.0893 0)
(396.282 -47.2189 0)
(396.737 -47.2238 0)
(397.16 -47.3349 0)
(397.575 -47.3341 0)
(397.958 -47.4304 0)
(398.337 -47.4299 0)
(398.696 -47.5206 0)
(399.063 -47.5325 0)
(399.428 -47.618 0)
(399.805 -47.6371 0)
(400.169 -47.7008 0)
(400.505 -47.7186 0)
(400.777 -47.7545 0)
(400.969 -47.767 0)
(401.054 -47.7618 0)
(401.009 -47.7788 0)
(400.866 -47.7204 0)
(400.686 -47.7806 0)
(400.61 -47.7308 0)
(400.744 -47.7933 0)
(401.176 -47.855 0)
(401.892 -47.9463 0)
(402.721 -48.0638 0)
(403.517 -48.199 0)
(403.95 -47.9334 0)
(168.562 84.2038 0)
(170.328 5.73292 0)
(185.089 -0.551532 0)
(195.711 -1.75173 0)
(199.006 -4.65931 0)
(199.059 -6.26163 0)
(199.354 -7.27412 0)
(199.852 -8.1719 0)
(200.498 -8.89591 0)
(201.024 -9.56423 0)
(201.712 -10.026 0)
(202.462 -10.3984 0)
(203.269 -10.6874 0)
(204.127 -10.9137 0)
(205.018 -11.1128 0)
(205.944 -11.2863 0)
(206.902 -11.4457 0)
(207.894 -11.5937 0)
(208.915 -11.7298 0)
(209.964 -11.8596 0)
(211.046 -11.9726 0)
(212.175 -12.0691 0)
(213.368 -12.1382 0)
(214.642 -12.1777 0)
(216.012 -12.1828 0)
(217.497 -12.154 0)
(219.113 -12.0886 0)
(220.88 -11.9888 0)
(222.811 -11.8538 0)
(224.908 -11.6852 0)
(227.16 -11.4895 0)
(229.547 -11.2828 0)
(232.04 -11.0888 0)
(234.609 -10.9359 0)
(237.234 -10.8477 0)
(239.911 -10.84 0)
(242.651 -10.918 0)
(245.479 -11.0763 0)
(248.431 -11.3041 0)
(251.547 -11.584 0)
(254.868 -11.8953 0)
(258.428 -12.2151 0)
(262.254 -12.5172 0)
(266.361 -12.7737 0)
(270.739 -12.961 0)
(275.326 -13.0671 0)
(280.048 -13.0946 0)
(284.851 -13.0587 0)
(289.669 -12.9954 0)
(294.418 -12.9385 0)
(299.074 -12.9384 0)
(303.622 -13.0664 0)
(308.056 -13.3627 0)
(312.382 -13.8119 0)
(316.627 -14.434 0)
(320.8 -15.2258 0)
(324.888 -16.163 0)
(328.885 -17.2537 0)
(332.868 -18.5444 0)
(336.917 -20.0468 0)
(340.914 -21.7283 0)
(344.753 -23.4259 0)
(348.434 -25.114 0)
(351.976 -26.8906 0)
(355.417 -28.7576 0)
(358.751 -30.6532 0)
(361.916 -32.52 0)
(364.851 -34.2947 0)
(367.528 -35.9196 0)
(369.948 -37.3501 0)
(372.124 -38.5726 0)
(374.072 -39.5979 0)
(375.819 -40.4671 0)
(377.395 -41.1775 0)
(378.85 -41.8723 0)
(380.182 -42.3599 0)
(381.454 -42.9727 0)
(382.608 -43.2827 0)
(383.734 -43.8024 0)
(384.77 -43.9745 0)
(385.779 -44.4057 0)
(386.72 -44.5215 0)
(387.603 -44.8903 0)
(388.432 -44.9917 0)
(389.221 -45.3284 0)
(389.982 -45.3933 0)
(390.72 -45.6513 0)
(391.439 -45.6741 0)
(392.104 -45.8933 0)
(392.748 -45.9235 0)
(393.355 -46.1216 0)
(393.946 -46.1385 0)
(394.494 -46.3062 0)
(395.027 -46.3166 0)
(395.523 -46.4642 0)
(396.012 -46.4662 0)
(396.47 -46.5903 0)
(396.922 -46.5866 0)
(397.34 -46.6927 0)
(397.749 -46.686 0)
(398.125 -46.7803 0)
(398.493 -46.7772 0)
(398.838 -46.8683 0)
(399.19 -46.8768 0)
(399.544 -46.9587 0)
(399.911 -46.9697 0)
(400.264 -47.0299 0)
(400.588 -47.0432 0)
(400.845 -47.0793 0)
(401.02 -47.0878 0)
(401.085 -47.0821 0)
(401.017 -47.0926 0)
(400.851 -47.0269 0)
(400.647 -47.0803 0)
(400.555 -47.0172 0)
(400.678 -47.071 0)
(401.107 -47.1129 0)
(401.805 -47.2083 0)
(402.625 -47.3246 0)
(403.431 -47.4549 0)
(403.864 -47.1751 0)
(168.372 84.1266 0)
(170.44 5.54747 0)
(185.238 -0.634838 0)
(195.866 -1.81579 0)
(199.122 -4.68201 0)
(199.151 -6.26383 0)
(199.421 -7.26735 0)
(199.899 -8.15813 0)
(200.538 -8.87924 0)
(201.061 -9.54537 0)
(201.747 -10.0038 0)
(202.496 -10.3721 0)
(203.304 -10.6582 0)
(204.162 -10.8823 0)
(205.052 -11.0794 0)
(205.978 -11.2506 0)
(206.936 -11.4074 0)
(207.928 -11.5528 0)
(208.95 -11.6861 0)
(209.999 -11.813 0)
(211.084 -11.9226 0)
(212.216 -12.0151 0)
(213.414 -12.079 0)
(214.693 -12.1122 0)
(216.07 -12.11 0)
(217.561 -12.0722 0)
(219.186 -11.9963 0)
(220.962 -11.8842 0)
(222.902 -11.7355 0)
(225.008 -11.5525 0)
(227.27 -11.3425 0)
(229.665 -11.1223 0)
(232.163 -10.9158 0)
(234.737 -10.7509 0)
(237.365 -10.6506 0)
(240.044 -10.6293 0)
(242.785 -10.6911 0)
(245.616 -10.8294 0)
(248.573 -11.0327 0)
(251.695 -11.2827 0)
(255.018 -11.558 0)
(258.576 -11.8356 0)
(262.394 -12.0891 0)
(266.481 -12.292 0)
(270.81 -12.4249 0)
(275.332 -12.4784 0)
(279.995 -12.4539 0)
(284.733 -12.3762 0)
(289.448 -12.2779 0)
(294.084 -12.19 0)
(298.613 -12.1597 0)
(303.028 -12.2559 0)
(307.372 -12.5126 0)
(311.626 -12.9219 0)
(315.82 -13.4989 0)
(319.988 -14.2617 0)
(324.13 -15.2207 0)
(328.205 -16.3383 0)
(332.168 -17.548 0)
(336.045 -18.9138 0)
(339.948 -20.476 0)
(343.878 -22.2181 0)
(347.702 -24.078 0)
(351.353 -25.9167 0)
(354.826 -27.7034 0)
(358.116 -29.4858 0)
(361.222 -31.2707 0)
(364.153 -33.0102 0)
(366.891 -34.656 0)
(369.412 -36.1673 0)
(371.706 -37.5164 0)
(373.778 -38.6893 0)
(375.642 -39.6982 0)
(377.313 -40.524 0)
(378.836 -41.2684 0)
(380.208 -41.796 0)
(381.51 -42.4146 0)
(382.686 -42.7389 0)
(383.822 -43.2563 0)
(384.856 -43.4143 0)
(385.846 -43.8213 0)
(386.758 -43.9152 0)
(387.624 -44.2849 0)
(388.443 -44.3838 0)
(389.239 -44.7129 0)
(390.01 -44.7575 0)
(390.74 -45.0063 0)
(391.444 -45.0332 0)
(392.096 -45.2675 0)
(392.733 -45.299 0)
(393.348 -45.4932 0)
(393.954 -45.5052 0)
(394.516 -45.6751 0)
(395.063 -45.6849 0)
(395.571 -45.8322 0)
(396.07 -45.829 0)
(396.538 -45.9501 0)
(397.003 -45.9416 0)
(397.434 -46.0486 0)
(397.857 -46.0428 0)
(398.245 -46.1408 0)
(398.626 -46.1397 0)
(398.984 -46.2346 0)
(399.348 -46.2421 0)
(399.708 -46.3227 0)
(400.081 -46.3289 0)
(400.436 -46.3895 0)
(400.767 -46.4014 0)
(401.032 -46.4401 0)
(401.218 -46.4469 0)
(401.293 -46.4433 0)
(401.238 -46.448 0)
(401.083 -46.3831 0)
(400.888 -46.4294 0)
(400.801 -46.3643 0)
(400.929 -46.4129 0)
(401.367 -46.4394 0)
(402.075 -46.536 0)
(402.903 -46.6436 0)
(403.711 -46.7665 0)
(404.146 -46.4895 0)
(168.176 84.0504 0)
(170.552 5.36049 0)
(185.39 -0.719227 0)
(196.023 -1.88335 0)
(199.242 -4.70559 0)
(199.244 -6.26408 0)
(199.487 -7.25944 0)
(199.944 -8.14252 0)
(200.576 -8.86029 0)
(201.097 -9.5245 0)
(201.78 -9.97976 0)
(202.529 -10.344 0)
(203.337 -10.6274 0)
(204.195 -10.8493 0)
(205.085 -11.0445 0)
(206.01 -11.2135 0)
(206.969 -11.3678 0)
(207.96 -11.5105 0)
(208.983 -11.641 0)
(210.034 -11.7649 0)
(211.12 -11.8711 0)
(212.256 -11.9595 0)
(213.458 -12.0182 0)
(214.743 -12.0451 0)
(216.127 -12.0354 0)
(217.627 -11.9889 0)
(219.26 -11.9026 0)
(221.045 -11.7782 0)
(222.995 -11.6158 0)
(225.11 -11.4182 0)
(227.38 -11.1938 0)
(229.781 -10.9597 0)
(232.282 -10.7401 0)
(234.855 -10.5628 0)
(237.481 -10.4495 0)
(240.157 -10.4139 0)
(242.896 -10.4586 0)
(245.726 -10.5762 0)
(248.682 -10.7542 0)
(251.802 -10.9737 0)
(255.122 -11.2129 0)
(258.671 -11.4484 0)
(262.473 -11.6541 0)
(266.528 -11.806 0)
(270.806 -11.887 0)
(275.278 -11.8889 0)
(279.878 -11.8179 0)
(284.504 -11.7002 0)
(289.095 -11.5635 0)
(293.639 -11.4502 0)
(298.097 -11.397 0)
(302.477 -11.4571 0)
(306.793 -11.6803 0)
(310.998 -12.0649 0)
(315.114 -12.6045 0)
(319.175 -13.3132 0)
(323.227 -14.1954 0)
(327.313 -15.2762 0)
(331.386 -16.5681 0)
(335.352 -17.9543 0)
(339.195 -19.3931 0)
(342.965 -20.9859 0)
(346.741 -22.7421 0)
(350.49 -24.6364 0)
(354.103 -26.6069 0)
(357.517 -28.5331 0)
(360.718 -30.3393 0)
(363.698 -32.0304 0)
(366.45 -33.6262 0)
(368.967 -35.1181 0)
(371.261 -36.4802 0)
(373.347 -37.6865 0)
(375.246 -38.7357 0)
(376.974 -39.6072 0)
(378.557 -40.3966 0)
(379.979 -40.9783 0)
(381.301 -41.6208 0)
(382.485 -41.9778 0)
(383.632 -42.5209 0)
(384.685 -42.7128 0)
(385.702 -43.1487 0)
(386.632 -43.272 0)
(387.525 -43.6596 0)
(388.369 -43.7539 0)
(389.187 -44.0746 0)
(389.973 -44.1173 0)
(390.712 -44.3847 0)
(391.424 -44.4305 0)
(392.092 -44.6752 0)
(392.749 -44.6971 0)
(393.377 -44.8828 0)
(393.991 -44.8878 0)
(394.557 -45.056 0)
(395.106 -45.0599 0)
(395.616 -45.2022 0)
(396.115 -45.1908 0)
(396.578 -45.3067 0)
(397.037 -45.2922 0)
(397.459 -45.3986 0)
(397.873 -45.3916 0)
(398.256 -45.4905 0)
(398.632 -45.4881 0)
(398.987 -45.5835 0)
(399.347 -45.5881 0)
(399.704 -45.6682 0)
(400.072 -45.672 0)
(400.421 -45.7357 0)
(400.744 -45.7479 0)
(401.002 -45.792 0)
(401.18 -45.8 0)
(401.248 -45.8027 0)
(401.188 -45.8022 0)
(401.027 -45.7425 0)
(400.824 -45.7755 0)
(400.728 -45.7138 0)
(400.849 -45.7471 0)
(401.289 -45.7558 0)
(401.997 -45.8333 0)
(402.831 -45.9163 0)
(403.647 -46.0309 0)
(404.079 -45.7467 0)
(167.983 83.9586 0)
(170.665 5.17221 0)
(185.543 -0.804757 0)
(196.184 -1.95431 0)
(199.364 -4.73154 0)
(199.336 -6.26695 0)
(199.553 -7.25374 0)
(199.991 -8.12912 0)
(200.617 -8.84272 0)
(201.135 -9.50484 0)
(201.817 -9.95665 0)
(202.565 -10.3165 0)
(203.373 -10.597 0)
(204.23 -10.8165 0)
(205.121 -11.0097 0)
(206.045 -11.1764 0)
(207.003 -11.3282 0)
(207.995 -11.4681 0)
(209.018 -11.5957 0)
(210.07 -11.7165 0)
(211.159 -11.8193 0)
(212.298 -11.9034 0)
(213.504 -11.9567 0)
(214.794 -11.9771 0)
(216.185 -11.9598 0)
(217.693 -11.9042 0)
(219.335 -11.8071 0)
(221.129 -11.6702 0)
(223.086 -11.4938 0)
(225.21 -11.2816 0)
(227.488 -11.0428 0)
(229.895 -10.7951 0)
(232.401 -10.5631 0)
(234.977 -10.374 0)
(237.604 -10.2486 0)
(240.279 -10.1992 0)
(243.018 -10.2274 0)
(245.848 -10.3245 0)
(248.805 -10.4775 0)
(251.925 -10.6667 0)
(255.241 -10.87 0)
(258.782 -11.0637 0)
(262.567 -11.2226 0)
(266.591 -11.3244 0)
(270.834 -11.3539 0)
(275.251 -11.3069 0)
(279.75 -11.1951 0)
(284.261 -11.038 0)
(288.782 -10.8681 0)
(293.281 -10.7228 0)
(297.687 -10.6396 0)
(302.017 -10.6757 0)
(306.255 -10.891 0)
(310.403 -11.2548 0)
(314.492 -11.7672 0)
(318.533 -12.4382 0)
(322.512 -13.2588 0)
(326.445 -14.2499 0)
(330.415 -15.437 0)
(334.444 -16.8341 0)
(338.42 -18.3965 0)
(342.266 -19.9827 0)
(345.988 -21.6051 0)
(349.609 -23.3534 0)
(353.173 -25.2195 0)
(356.659 -27.1541 0)
(359.994 -29.1019 0)
(363.109 -30.9885 0)
(365.98 -32.7433 0)
(368.606 -34.3236 0)
(370.992 -35.7201 0)
(373.146 -36.9357 0)
(375.084 -37.9833 0)
(376.821 -38.856 0)
(378.399 -39.646 0)
(379.827 -40.2475 0)
(381.186 -40.9146 0)
(382.428 -41.3115 0)
(383.653 -41.8971 0)
(384.761 -42.1236 0)
(385.819 -42.5903 0)
(386.779 -42.7276 0)
(387.691 -43.121 0)
(388.546 -43.2022 0)
(389.363 -43.5238 0)
(390.137 -43.5711 0)
(390.857 -43.8448 0)
(391.551 -43.8802 0)
(392.22 -44.1141 0)
(392.886 -44.1182 0)
(393.52 -44.2967 0)
(394.143 -44.296 0)
(394.719 -44.4624 0)
(395.279 -44.4596 0)
(395.798 -44.5965 0)
(396.306 -44.5772 0)
(396.776 -44.6881 0)
(397.243 -44.669 0)
(397.674 -44.7745 0)
(398.102 -44.765 0)
(398.498 -44.8616 0)
(398.889 -44.8544 0)
(399.256 -44.9463 0)
(399.628 -44.9469 0)
(399.992 -45.0277 0)
(400.366 -45.0303 0)
(400.721 -45.0952 0)
(401.049 -45.1031 0)
(401.312 -45.1478 0)
(401.496 -45.1513 0)
(401.569 -45.1558 0)
(401.514 -45.1476 0)
(401.352 -45.0924 0)
(401.146 -45.1163 0)
(401.041 -45.0515 0)
(401.149 -45.074 0)
(401.572 -45.0743 0)
(402.267 -45.1496 0)
(403.105 -45.2192 0)
(403.931 -45.3234 0)
(404.366 -45.0303 0)
(167.78 83.8743 0)
(170.778 4.98274 0)
(185.699 -0.891394 0)
(196.348 -2.02888 0)
(199.486 -4.75842 0)
(199.427 -6.26866 0)
(199.619 -7.24601 0)
(200.04 -8.11451 0)
(200.657 -8.8231 0)
(201.172 -9.48308 0)
(201.852 -9.9317 0)
(202.6 -10.2872 0)
(203.407 -10.5649 0)
(204.265 -10.7822 0)
(205.155 -10.9734 0)
(206.079 -11.1379 0)
(207.037 -11.2871 0)
(208.028 -11.4243 0)
(209.051 -11.5489 0)
(210.105 -11.6666 0)
(211.196 -11.7659 0)
(212.339 -11.8456 0)
(213.549 -11.8936 0)
(214.845 -11.9074 0)
(216.243 -11.8824 0)
(217.76 -11.8178 0)
(219.411 -11.7101 0)
(221.214 -11.5608 0)
(223.181 -11.3704 0)
(225.313 -11.1434 0)
(227.597 -10.8899 0)
(230.009 -10.6285 0)
(232.516 -10.3835 0)
(235.089 -10.182 0)
(237.712 -10.0438 0)
(240.382 -9.9801 0)
(243.116 -9.991 0)
(245.942 -10.0671 0)
(248.894 -10.1945 0)
(252.008 -10.3531 0)
(255.316 -10.5205 0)
(258.844 -10.6733 0)
(262.606 -10.7872 0)
(266.594 -10.8395 0)
(270.792 -10.8203 0)
(275.127 -10.7292 0)
(279.528 -10.578 0)
(283.985 -10.3814 0)
(288.474 -10.1746 0)
(292.9 -10.0029 0)
(297.221 -9.89977 0)
(301.42 -9.90692 0)
(305.547 -10.0789 0)
(309.635 -10.4024 0)
(313.691 -10.879 0)
(317.738 -11.5329 0)
(321.77 -12.3676 0)
(325.745 -13.3403 0)
(329.638 -14.4297 0)
(333.496 -15.6997 0)
(337.414 -17.1627 0)
(341.362 -18.8116 0)
(345.217 -20.58 0)
(348.929 -22.3463 0)
(352.492 -24.1057 0)
(355.904 -25.9111 0)
(359.172 -27.7613 0)
(362.3 -29.6039 0)
(365.254 -31.3926 0)
(367.996 -33.0753 0)
(370.502 -34.6083 0)
(372.773 -35.9685 0)
(374.816 -37.1385 0)
(376.652 -38.1269 0)
(378.312 -38.9965 0)
(379.798 -39.6479 0)
(381.185 -40.3238 0)
(382.427 -40.7003 0)
(383.613 -41.2414 0)
(384.675 -41.4331 0)
(385.696 -41.8956 0)
(386.636 -42.0383 0)
(387.545 -42.4455 0)
(388.397 -42.532 0)
(389.213 -42.8696 0)
(389.982 -42.9316 0)
(390.71 -43.2306 0)
(391.418 -43.2729 0)
(392.107 -43.5021 0)
(392.79 -43.495 0)
(393.43 -43.6754 0)
(394.056 -43.6746 0)
(394.636 -43.8439 0)
(395.201 -43.8383 0)
(395.723 -43.9759 0)
(396.233 -43.9542 0)
(396.701 -44.0656 0)
(397.165 -44.0445 0)
(397.596 -44.1493 0)
(398.025 -44.1341 0)
(398.424 -44.2239 0)
(398.82 -44.2074 0)
(399.191 -44.2923 0)
(399.565 -44.2866 0)
(399.929 -44.368 0)
(400.303 -44.3695 0)
(400.657 -44.4347 0)
(400.988 -44.4378 0)
(401.253 -44.4823 0)
(401.443 -44.4788 0)
(401.524 -44.479 0)
(401.48 -44.4584 0)
(401.327 -44.401 0)
(401.132 -44.4133 0)
(401.041 -44.3446 0)
(401.171 -44.3607 0)
(401.622 -44.3628 0)
(402.337 -44.4407 0)
(403.179 -44.5116 0)
(404.005 -44.6136 0)
(404.437 -44.3188 0)
(167.584 83.7657 0)
(170.893 4.79243 0)
(185.856 -0.979328 0)
(196.513 -2.10699 0)
(199.607 -4.78748 0)
(199.515 -6.27296 0)
(199.687 -7.2406 0)
(200.093 -8.10249 0)
(200.7 -8.80514 0)
(201.211 -9.46255 0)
(201.89 -9.90764 0)
(202.637 -10.2586 0)
(203.444 -10.5331 0)
(204.302 -10.7481 0)
(205.191 -10.9373 0)
(206.115 -11.0994 0)
(207.072 -11.2459 0)
(208.063 -11.3803 0)
(209.087 -11.5019 0)
(210.142 -11.6164 0)
(211.236 -11.712 0)
(212.381 -11.7873 0)
(213.596 -11.8297 0)
(214.897 -11.8367 0)
(216.302 -11.8037 0)
(217.827 -11.7297 0)
(219.486 -11.6111 0)
(221.298 -11.4491 0)
(223.274 -11.2445 0)
(225.414 -11.0028 0)
(227.705 -10.7348 0)
(230.121 -10.4598 0)
(232.631 -10.2025 0)
(235.205 -9.98942 0)
(237.826 -9.83911 0)
(240.494 -9.76152 0)
(243.225 -9.75556 0)
(246.049 -9.81087 0)
(248.998 -9.91294 0)
(252.107 -10.0412 0)
(255.405 -10.1728 0)
(258.918 -10.2847 0)
(262.659 -10.353 0)
(266.621 -10.3594 0)
(270.76 -10.2946 0)
(275.015 -10.1608 0)
(279.359 -9.96541 0)
(283.771 -9.73068 0)
(288.156 -9.49592 0)
(292.447 -9.29165 0)
(296.65 -9.1623 0)
(300.759 -9.14701 0)
(304.85 -9.27778 0)
(308.899 -9.56724 0)
(312.888 -10.0038 0)
(316.854 -10.5993 0)
(320.834 -11.3663 0)
(324.85 -12.3313 0)
(328.849 -13.4872 0)
(332.759 -14.7312 0)
(336.581 -16.0658 0)
(340.372 -17.5714 0)
(344.199 -19.2478 0)
(348.015 -21.083 0)
(351.715 -23.0161 0)
(355.243 -24.9279 0)
(358.586 -26.7583 0)
(361.733 -28.5234 0)
(364.675 -30.2419 0)
(367.405 -31.8927 0)
(369.925 -33.434 0)
(372.233 -34.8257 0)
(374.331 -36.0544 0)
(376.233 -37.1094 0)
(377.96 -38.0387 0)
(379.499 -38.747 0)
(380.909 -39.4718 0)
(382.169 -39.8958 0)
(383.402 -40.4961 0)
(384.516 -40.7295 0)
(385.611 -41.2381 0)
(386.61 -41.4055 0)
(387.579 -41.8425 0)
(388.474 -41.9417 0)
(389.323 -42.2952 0)
(390.123 -42.3483 0)
(390.881 -42.6363 0)
(391.621 -42.6572 0)
(392.331 -42.8869 0)
(393.026 -42.8873 0)
(393.671 -43.0805 0)
(394.301 -43.0816 0)
(394.888 -43.2548 0)
(395.46 -43.2512 0)
(395.985 -43.3949 0)
(396.497 -43.3731 0)
(396.964 -43.484 0)
(397.43 -43.4546 0)
(397.864 -43.5502 0)
(398.3 -43.522 0)
(398.704 -43.6027 0)
(399.107 -43.5774 0)
(399.481 -43.655 0)
(399.86 -43.6393 0)
(400.224 -43.7111 0)
(400.597 -43.6985 0)
(400.948 -43.754 0)
(401.275 -43.7455 0)
(401.534 -43.7845 0)
(401.714 -43.7711 0)
(401.778 -43.77 0)
(401.711 -43.7441 0)
(401.526 -43.6876 0)
(401.293 -43.6922 0)
(401.16 -43.6265 0)
(401.253 -43.6404 0)
(401.679 -43.6427 0)
(402.393 -43.7153 0)
(403.245 -43.7756 0)
(404.077 -43.8759 0)
(404.517 -43.5857 0)
(167.375 83.6737 0)
(171.008 4.60141 0)
(186.015 -1.06842 0)
(196.681 -2.18891 0)
(199.727 -4.81764 0)
(199.603 -6.27611 0)
(199.756 -7.23318 0)
(200.147 -8.08908 0)
(200.743 -8.7852 0)
(201.25 -9.43987 0)
(201.926 -9.88162 0)
(202.673 -10.228 0)
(203.48 -10.4996 0)
(204.337 -10.7123 0)
(205.226 -10.8995 0)
(206.15 -11.0594 0)
(207.106 -11.2033 0)
(208.097 -11.3349 0)
(209.121 -11.4533 0)
(210.177 -11.5645 0)
(211.273 -11.6565 0)
(212.422 -11.7273 0)
(213.642 -11.7641 0)
(214.949 -11.7642 0)
(216.362 -11.7233 0)
(217.895 -11.6401 0)
(219.564 -11.5105 0)
(221.386 -11.3359 0)
(223.37 -11.1172 0)
(225.517 -10.8605 0)
(227.813 -10.5778 0)
(230.232 -10.2891 0)
(232.741 -10.0191 0)
(235.31 -9.79377 0)
(237.925 -9.63077 0)
(240.586 -9.53877 0)
(243.31 -9.5154 0)
(246.126 -9.54945 0)
(249.067 -9.62585 0)
(252.166 -9.72373 0)
(255.454 -9.82041 0)
(258.954 -9.89297 0)
(262.664 -9.9168 0)
(266.579 -9.87821 0)
(270.653 -9.77061 0)
(274.849 -9.59406 0)
(279.143 -9.35701 0)
(283.456 -9.08879 0)
(287.717 -8.82169 0)
(291.939 -8.59671 0)
(296.116 -8.43984 0)
(300.224 -8.3873 0)
(304.291 -8.49304 0)
(308.294 -8.76927 0)
(312.242 -9.17594 0)
(316.156 -9.72695 0)
(320.037 -10.4347 0)
(323.911 -11.3144 0)
(327.846 -12.3819 0)
(331.836 -13.6574 0)
(335.779 -15.0857 0)
(339.621 -16.5517 0)
(343.366 -18.0886 0)
(347.048 -19.7759 0)
(350.707 -21.6042 0)
(354.317 -23.5372 0)
(357.796 -25.522 0)
(361.074 -27.4767 0)
(364.131 -29.3251 0)