/*--------------------------------*- C++ -*----------------------------------*\
| =========                 |                                                 |
| \\      /  F ield         | OpenFOAM: The Open Source CFD Toolbox           |
|  \\    /   O peration     | Version:  2412                                  |
|   \\  /    A nd           | Website:  www.openfoam.com                      |
|    \\/     M anipulation  |                                                 |
\*---------------------------------------------------------------------------*/
FoamFile
{
    version     2.0;
    format      ascii;
    arch        "LSB;label=32;scalar=64";
    class       volScalarField;
    location    "0.04";
    object      p;
}
// * * * * * * * * * * * * * * * * * * * * * * * * * * * * * * * * * * * * * //

dimensions      [1 -1 -2 0 0 0 0];

internalField   nonuniform List<scalar> 
78650
(
2790
2790
2790
2790
2790
2790.01
2790.21
2792.59
2801.78
2815.33
2823.06
2825.45
2821.88
2808.56
2792.48
2780.55
2772.54
2766.71
2761.25
2755.16
2748.4
2741.44
2735.42
2732.07
2731.39
2732.87
2736.61
2739.96
2741.23
2741.11
2739.99
2738.29
2736.81
2735.68
2734.68
2733.65
2732.59
2731.51
2730.46
2729.44
2728.46
2727.52
2726.63
2725.8
2725.01
2724.29
2723.63
2723.05
2722.57
2722.18
2721.84
2721.52
2721.21
2720.89
2720.58
2720.27
2719.94
2719.57
2719.12
2718.56
2717.88
2717.05
2716.05
2714.85
2713.41
2711.7
2709.68
2707.29
2704.46
2701.17
2697.37
2692.99
2687.96
2682.19
2675.6
2668.1
2659.6
2649.99
2639.15
2626.96
2613.29
2598.02
2581.03
2562.2
2541.34
2518.34
2492.92
2464.88
2433.96
2400.35
2364.08
2325.36
2283.27
2238.2
2189.18
2137.38
2082.72
2025.11
1962.91
1899.77
1836.26
1774.22
1707.86
1640.46
1572.81
1504.07
1440.81
1381.04
1325.31
1276.13
1228.22
1183.66
1141.82
1101.71
1065.52
1033.12
1005.63
981.19
960.555
941.824
903.584
2790
2790
2790
2790
2790
2790
2790.11
2791.7
2799.35
2813.05
2822.79
2826.3
2823.9
2812.49
2796.38
2783.9
2775.63
2769.84
2764.65
2758.92
2752.52
2745.77
2739.37
2734.87
2733.27
2733.8
2736.78
2740.72
2742.94
2743.38
2742.83
2741.43
2739.96
2738.86
2738.01
2737.17
2736.31
2735.42
2734.54
2733.68
2732.85
2732.07
2731.35
2730.68
2730.08
2729.54
2729.07
2728.69
2728.41
2728.22
2728.12
2728.05
2727.98
2727.93
2727.9
2727.88
2727.85
2727.81
2727.7
2727.52
2727.23
2726.83
2726.27
2725.54
2724.62
2723.46
2722.02
2720.27
2718.13
2715.57
2712.56
2709.03
2704.93
2700.16
2694.66
2688.33
2681.1
2672.86
2663.51
2652.91
2640.97
2627.57
2612.59
2595.86
2577.2
2556.46
2533.37
2507.89
2479.88
2449.42
2416.18
2379.97
2340.28
2297.87
2252.05
2203.85
2152.29
2097.03
2038.66
1977.86
1913.95
1849.97
1785.38
1719.51
1656.13
1588.63
1522.47
1459.25
1395.53
1337.7
1284.22
1232.96
1186.54
1143.1
1104
1068.1
1037.41
1010.83
987.365
965.815
922.231
2790
2790
2790
2790
2790
2790
2790.06
2791.05
2797.08
2810.37
2822.04
2826.83
2825.36
2816.32
2800.6
2787.51
2778.88
2773.04
2768.09
2762.66
2756.55
2750.06
2743.59
2738.23
2735.57
2735.28
2737.14
2741.18
2744.45
2745.62
2745.55
2744.66
2743.31
2742.2
2741.43
2740.77
2740.1
2739.39
2738.7
2738
2737.33
2736.72
2736.16
2735.66
2735.24
2734.89
2734.61
2734.42
2734.35
2734.38
2734.51
2734.68
2734.87
2735.09
2735.33
2735.6
2735.89
2736.17
2736.41
2736.6
2736.7
2736.71
2736.6
2736.35
2735.93
2735.3
2734.44
2733.31
2731.84
2730.01
2727.76
2725.05
2721.84
2718.03
2713.56
2708.34
2702.31
2695.36
2687.4
2678.31
2667.97
2656.28
2643.1
2628.31
2611.75
2593.28
2572.71
2549.94
2524.76
2497.04
2466.48
2433.04
2396.44
2356.99
2314
2268.57
2219.64
2168.08
2113.7
2055.29
1994.11
1928.82
1864.17
1795.5
1728.98
1662.82
1593.7
1529.2
1463.9
1399.3
1340.87
1283.42
1230.16
1182.39
1138.32
1097.41
1060.75
1027.4
1000.89
979.631
936.322
2790
2790
2790
2790
2790
2790
2790.03
2790.6
2795.06
2807.32
2820.65
2827.01
2826.5
2820.04
2805.15
2791.42
2782.34
2776.38
2771.6
2766.43
2760.54
2754.3
2747.97
2742.17
2738.37
2737.21
2738.06
2741.53
2745.59
2747.79
2748.27
2747.9
2746.84
2745.75
2745.02
2744.48
2743.98
2743.46
2742.94
2742.42
2741.92
2741.47
2741.08
2740.76
2740.51
2740.34
2740.26
2740.26
2740.39
2740.63
2740.98
2741.39
2741.84
2742.32
2742.84
2743.39
2743.97
2744.57
2745.16
2745.7
2746.18
2746.59
2746.91
2747.11
2747.17
2747.07
2746.77
2746.24
2745.41
2744.26
2742.75
2740.83
2738.48
2735.6
2732.13
2727.99
2723.13
2717.44
2710.85
2703.23
2694.49
2684.51
2673.18
2660.39
2645.98
2629.8
2611.62
2591.32
2568.71
2543.69
2515.92
2485.26
2451.59
2415.27
2375.94
2333.96
2287.8
2238.65
2185.46
2129.05
2070.28
2007.06
1943.42
1876.49
1806.17
1739.99
1669.71
1600.1
1535.57
1468.29
1404.59
1344.07
1284.92
1231.69
1181.83
1135.37
1094.52
1056.64
1023.37
994.74
938.221
2790
2790
2790
2790
2790
2790
2790.01
2790.32
2793.37
2804.05
2818.52
2826.91
2827.47
2823.43
2809.84
2795.6
2786.03
2779.85
2775.17
2770.2
2764.48
2758.44
2752.38
2746.5
2741.84
2739.76
2739.78
2742.1
2746.41
2749.77
2751.06
2751.14
2750.54
2749.56
2748.81
2748.36
2748
2747.65
2747.32
2746.97
2746.65
2746.37
2746.15
2745.99
2745.93
2745.94
2746.06
2746.26
2746.58
2747.03
2747.61
2748.26
2748.97
2749.71
2750.5
2751.34
2752.22
2753.14
2754.05
2754.95
2755.82
2756.62
2757.36
2758.01
2758.54
2758.94
2759.18
2759.23
2759.04
2758.57
2757.78
2756.63
2755.09
2753.09
2750.59
2747.48
2743.73
2739.24
2733.93
2727.7
2720.45
2712.08
2702.46
2691.5
2679.04
2664.95
2649.03
2631.21
2611.26
2589.02
2564.2
2536.78
2506.66
2473.83
2437.66
2398.31
2355.05
2309.16
2259.12
2206.06
2149.5
2089.31
2024.63
1960.39
1892.25
1821.52
1752.91
1679.48
1611.12
1541.5
1472.47
1409.23
1346.82
1288.4
1233.43
1182.67
1137.89
1096.61
1060.5
1029.23
965.838
2790
2790
2790
2790
2790
2790
2790
2790.15
2792.07
2800.76
2815.59
2826.33
2828.34
2826.22
2814.59
2800.22
2790.06
2783.45
2778.73
2773.94
2768.39
2762.55
2756.81
2751.17
2746.1
2742.99
2742.19
2743.33
2747.16
2751.39
2753.79
2754.45
2754.28
2753.58
2752.85
2752.43
2752.15
2751.95
2751.79
2751.64
2751.5
2751.41
2751.36
2751.39
2751.5
2751.71
2752
2752.4
2752.93
2753.59
2754.39
2755.28
2756.24
2757.25
2758.31
2759.43
2760.6
2761.82
2763.07
2764.31
2765.54
2766.73
2767.88
2768.96
2769.96
2770.86
2771.61
2772.21
2772.61
2772.79
2772.7
2772.3
2771.56
2770.41
2768.83
2766.72
2764.04
2760.71
2756.66
2751.8
2746.02
2739.23
2731.33
2722.2
2711.72
2699.76
2686.15
2670.77
2653.36
2633.79
2611.8
2587.33
2560.18
2530.29
2497.28
2461.23
2421.47
2378.74
2331.87
2282.46
2228.93
2172.02
2111.59
2046.71
1980.5
1908.19
1838.57
1764.94
1690.22
1618.69
1545.02
1476.23
1408.7
1343.66
1282.77
1226.24
1175.96
1129.86
1089.95
1056.97
993.163
2790
2790
2790
2790
2790
2790
2790
2790.06
2791.15
2797.69
2812.03
2825.04
2828.95
2828.31
2819.39
2805.3
2794.29
2787.04
2782.17
2777.6
2772.33
2766.7
2761.28
2756.02
2750.94
2747
2745.36
2745.58
2748.17
2752.63
2756.25
2757.83
2758.09
2757.77
2757.13
2756.7
2756.48
2756.4
2756.4
2756.43
2756.48
2756.57
2756.72
2756.94
2757.23
2757.62
2758.11
2758.72
2759.45
2760.32
2761.33
2762.47
2763.68
2764.95
2766.29
2767.69
2769.15
2770.68
2772.25
2773.84
2775.43
2777.01
2778.56
2780.07
2781.52
2782.89
2784.16
2785.31
2786.3
2787.09
2787.65
2787.96
2788.01
2787.69
2787
2785.85
2784.19
2781.96
2779.09
2775.5
2771.1
2765.79
2759.47
2752.04
2743.39
2733.41
2721.91
2708.79
2693.81
2676.88
2657.78
2636.43
2612.57
2585.97
2556.22
2523.41
2487.18
2448.03
2405.02
2359.09
2308.63
2255.22
2197.9
2136.24
2072.79
2003.94
1931.53
1860.3
1783.11
1709.87
1633.78
1559.22
1486.93
1415.86
1349.72
1287.66
1228.95
1173.79
1124.33
1082.41
999.338
2790
2790
2790
2790
2790
2790
2790
2790.02
2790.57
2795.05
2807.97
2822.84
2829.1
2829.98
2824.04
2810.66
2798.56
2790.59
2785.58
2781.3
2776.42
2771.05
2765.88
2761.02
2756.22
2751.89
2749.3
2748.71
2749.94
2753.81
2758.26
2761.02
2761.93
2761.96
2761.58
2761.17
2760.97
2760.95
2761.09
2761.31
2761.56
2761.85
2762.2
2762.61
2763.09
2763.68
2764.37
2765.17
2766.11
2767.19
2768.42
2769.79
2771.26
2772.79
2774.39
2776.07
2777.82
2779.65
2781.53
2783.46
2785.4
2787.35
2789.29
2791.21
2793.1
2794.94
2796.7
2798.38
2799.93
2801.33
2802.55
2803.54
2804.28
2804.76
2804.92
2804.7
2804.05
2802.9
2801.17
2798.82
2795.75
2791.9
2787.15
2781.42
2774.59
2766.56
2757.17
2746.3
2733.75
2719.43
2703.1
2684.58
2663.56
2639.91
2613.45
2584.27
2551.94
2516.54
2477.29
2434.74
2387.55
2337.22
2282.28
2224.07
2161.44
2095.48
2024.69
1954.17
1878.48
1800.79
1725.34
1644.98
1569.47
1493.54
1422.02
1355.63
1293.03
1236.1
1185.6
1141.89
1054.54
2790
2790
2790
2790
2790
2790
2790
2790.01
2790.25
2793
2803.72
2819.68
2828.73
2831.46
2828.04
2815.9
2802.84
2794.27
2789.08
2785.09
2780.66
2775.6
2770.63
2766.08
2761.69
2757.37
2754
2752.58
2752.81
2755.28
2759.75
2763.73
2765.7
2766.19
2766.1
2765.79
2765.62
2765.64
2765.89
2766.27
2766.71
2767.22
2767.78
2768.39
2769.08
2769.87
2770.76
2771.76
2772.9
2774.2
2775.65
2777.25
2778.97
2780.77
2782.64
2784.59
2786.63
2788.76
2790.95
2793.21
2795.5
2797.81
2800.14
2802.47
2804.79
2807.08
2809.32
2811.51
2813.61
2815.59
2817.43
2819.09
2820.56
2821.79
2822.74
2823.37
2823.65
2823.54
2822.91
2821.75
2819.92
2817.41
2814.11
2809.94
2804.79
2798.57
2791.14
2782.39
2772.13
2760.26
2746.55
2730.85
2712.94
2692.69
2669.84
2644.3
2615.64
2583.85
2548.3
2509.33
2465.97
2419.33
2367.83
2313.08
2253.66
2190.11
2123.58
2050.39
1977.45
1897.89
1821.71
1738.07
1658.24
1577.37
1496.72
1419.77
1345.49
1278.92
1222.1
1175.64
1080.14
2790
2790
2790
2790
2790
2790
2790
2790
2790.1
2791.59
2799.66
2815.57
2827.85
2832.57
2830.72
2820.91
2807.53
2798.3
2792.76
2788.96
2785
2780.35
2775.59
2771.25
2767.23
2763.19
2759.48
2757.15
2756.55
2757.56
2761.15
2765.78
2769.02
2770.34
2770.59
2770.5
2770.38
2770.42
2770.76
2771.29
2771.93
2772.64
2773.42
2774.26
2775.16
2776.15
2777.25
2778.46
2779.81
2781.31
2782.98
2784.81
2786.78
2788.83
2790.97
2793.19
2795.51
2797.92
2800.42
2803
2805.63
2808.3
2810.99
2813.71
2816.44
2819.17
2821.88
2824.55
2827.17
2829.72
2832.16
2834.46
2836.6
2838.55
2840.3
2841.78
2842.94
2843.74
2844.15
2844.16
2843.57
2842.41
2840.51
2837.88
2834.38
2829.93
2824.42
2817.73
2809.69
2800.19
2789.03
2776.06
2761.05
2743.85
2724.22
2702.05
2676.94
2648.81
2617.16
2582.19
2543.17
2500.7
2453.5
2402.86
2347.26
2287.7
2223.19
2154.03
2083.17
2006.44
1925.38
1844.33
1760.15
1680.15
1596.26
1517.17
1437.98
1364.3
1294.87
1234.93
1115.92
2790
2790
2790
2790
2790
2790
2790
2790
2790.03
2790.74
2796.18
2810.77
2825.97
2832.9
2832.47
2825.77
2812.67
2802.57
2796.54
2792.84
2789.4
2785.26
2780.74
2776.5
2772.69
2768.98
2765.28
2762.27
2760.85
2760.85
2762.86
2767.25
2771.61
2774.16
2775.05
2775.2
2775.2
2775.31
2775.71
2776.37
2777.19
2778.12
2779.12
2780.18
2781.3
2782.51
2783.82
2785.25
2786.8
2788.51
2790.4
2792.46
2794.66
2796.97
2799.38
2801.87
2804.47
2807.16
2809.96
2812.85
2815.81
2818.83
2821.89
2824.99
2828.12
2831.28
2834.43
2837.58
2840.71
2843.79
2846.81
2849.72
2852.51
2855.16
2857.64
2859.92
2861.95
2863.69
2865.06
2866.04
2866.6
2866.7
2866.14
2864.94
2862.96
2860.15
2856.4
2851.63
2845.67
2838.43
2829.71
2819.38
2807.23
2793.12
2776.79
2758.05
2736.52
2712.14
2684.5
2653.68
2619.01
2580.78
2538.03
2491.61
2439.78
2383.9
2322.88
2257.75
2187.52
2113.82
2031.05
1950.36
1863.19
1776.89
1687.41
1601.44
1519.53
1443.31
1373.43
1312.68
1192.1
2790
2790
2790
2790
2790
2790
2790
2790
2790.01
2790.3
2793.55
2805.69
2822.67
2832.62
2833.76
2830.11
2817.99
2806.94
2800.47
2796.81
2793.88
2790.26
2785.99
2781.74
2777.96
2774.48
2771.03
2767.79
2765.59
2764.84
2765.49
2768.71
2773.5
2777.33
2779.25
2779.9
2780.1
2780.3
2780.75
2781.52
2782.51
2783.64
2784.85
2786.14
2787.49
2788.92
2790.44
2792.08
2793.85
2795.77
2797.86
2800.14
2802.58
2805.14
2807.8
2810.56
2813.42
2816.4
2819.48
2822.67
2825.94
2829.3
2832.71
2836.17
2839.69
2843.25
2846.84
2850.44
2854.04
2857.64
2861.2
2864.7
2868.11
2871.42
2874.61
2877.64
2880.48
2883.08
2885.41
2887.44
2889.06
2890.26
2890.98
2891.19
2890.72
2889.53
2887.51
2884.59
2880.63
2875.53
2869.12
2861.28
2851.8
2840.55
2827.26
2811.77
2793.79
2773.22
2749.68
2723.13
2692.91
2659.16
2621.02
2578.97
2531.7
2480.35
2423.45
2362.33
2295.77
2223.82
2148.37
2066.86
1981.91
1890.11
1799.14
1703.49
1610.99
1519.86
1434.98
1363.18
1216.78
2790
2790
2790
2790
2790
2790
2790
2790
2790
2790.11
2791.81
2800.91
2818.17
2831.46
2834.87
2833.34
2823.12
2811.5
2804.6
2800.84
2798.24
2795.06
2791.02
2786.76
2782.96
2779.63
2776.48
2773.38
2770.75
2769.33
2769.13
2770.72
2775.02
2779.82
2783.04
2784.49
2785.04
2785.39
2785.9
2786.75
2787.89
2789.2
2790.62
2792.12
2793.69
2795.35
2797.09
2798.95
2800.93
2803.06
2805.36
2807.85
2810.52
2813.32
2816.23
2819.25
2822.38
2825.62
2828.99
2832.46
2836.05
2839.73
2843.48
2847.3
2851.19
2855.14
2859.14
2863.18
2867.25
2871.33
2875.41
2879.47
2883.48
2887.42
2891.27
2895.02
2898.63
2902.06
2905.27
2908.22
2910.88
2913.19
2915.07
2916.47
2917.34
2917.65
2917.25
2916.05
2913.97
2910.87
2906.65
2901.18
2894.28
2885.82
2875.54
2863.31
2848.83
2831.97
2812.33
2789.8
2763.8
2734.37
2700.71
2663.18
2620.78
2574.16
2521.74
2464.77
2402.09
2334.62
2261.27
2181.95
2099.63
2009.75
1921.63
1828.12
1736.81
1644.42
1553.46
1472.08
1310.14
2790
2790
2790
2790
2790
2790
2790
2790
2790
2790.03
2790.81
2796.91
2812.91
2829.25
2835.36
2835.35
2828.09
2816.48
2808.86
2804.69
2802.21
2799.41
2795.75
2791.63
2787.84
2784.6
2781.71
2778.89
2776.24
2774.3
2773.52
2773.91
2776.84
2781.82
2786.26
2788.84
2789.99
2790.6
2791.2
2792.1
2793.35
2794.82
2796.42
2798.12
2799.91
2801.78
2803.74
2805.82
2808.01
2810.34
2812.84
2815.54
2818.43
2821.46
2824.62
2827.88
2831.27
2834.77
2838.4
2842.16
2846.03
2850.01
2854.09
2858.25
2862.49
2866.81
2871.21
2875.66
2880.16
2884.7
2889.28
2893.86
2898.43
2902.96
2907.45
2911.87
2916.2
2920.4
2924.45
2928.29
2931.91
2935.25
2938.26
2940.9
2943.07
2944.72
2945.8
2946.25
2946
2944.83
2942.71
2939.43
2934.93
2929.03
2921.56
2912.35
2901.16
2887.82
2871.94
2853.36
2831.61
2806.64
2777.79
2745.26
2708.11
2666.64
2619.59
2567.84
2509.76
2446.48
2376.78
2300.81
2218.36
2130.29
2037.27
1935.55
1833.57
1734.29
1642.7
1564.39
1407.41
2790
2790
2790
2790
2790
2790
2790
2790
2790
2790.01
2790.32
2793.95
2807.45
2825.83
2835.03
2836.95
2832.59
2821.55
2812.87
2808.17
2805.77
2803.44
2800.31
2796.47
2792.71
2789.51
2786.78
2784.26
2781.83
2779.72
2778.49
2778.23
2779.57
2783.81
2789.02
2792.85
2794.89
2795.91
2796.67
2797.61
2798.92
2800.51
2802.28
2804.16
2806.14
2808.21
2810.38
2812.66
2815.06
2817.6
2820.3
2823.2
2826.29
2829.55
2832.94
2836.45
2840.07
2843.83
2847.72
2851.74
2855.89
2860.17
2864.56
2869.04
2873.62
2878.3
2883.07
2887.91
2892.83
2897.81
2902.85
2907.93
2913.03
2918.13
2923.21
2928.27
2933.28
2938.21
2943.02
2947.7
2952.21
2956.51
2960.55
2964.28
2967.66
2970.62
2973.1
2974.99
2976.27
2976.87
2976.75
2975.57
2973.4
2969.91
2965.12
2958.8
2950.74
2940.76
2928.49
2913.81
2896.28
2875.84
2851.88
2824.43
2792.59
2756.57
2715.22
2669.02
2616.59
2558.97
2494.59
2424.35
2347.77
2264.88
2175.24
2079.4
1976.91
1870.91
1759.95
1660.72
1471.18
2790
2790
2790
2790
2790
2790
2790
2790
2790
2790
2790.11
2792.04
2802.37
2821.36
2834
2838.41
2836.11
2826.1
2816.6
2811.46
2809.17
2807.35
2804.79
2801.29
2797.58
2794.38
2791.77
2789.5
2787.39
2785.44
2783.97
2783.34
2783.66
2786.43
2791.58
2796.47
2799.6
2801.26
2802.29
2803.3
2804.61
2806.29
2808.19
2810.22
2812.37
2814.63
2816.99
2819.47
2822.07
2824.81
2827.7
2830.79
2834.08
2837.54
2841.16
2844.89
2848.75
2852.74
2856.88
2861.15
2865.57
2870.12
2874.8
2879.59
2884.49
2889.5
2894.61
2899.83
2905.14
2910.53
2916
2921.54
2927.13
2932.75
2938.39
2944.04
2949.68
2955.28
2960.83
2966.28
2971.62
2976.81
2981.82
2986.59
2991.09
2995.27
2999.05
3002.39
3005.23
3007.43
3008.96
3009.74
3009.79
3008.58
3006.32
3002.63
2997.48
2990.64
2981.85
2970.93
2957.49
2941.4
2922.06
2899.37
2872.53
2841.65
2805.61
2764.66
2717.65
2665.32
2606.08
2540.56
2467.45
2387.67
2300.91
2207.32
2107.17
2006.5
1897.95
1804.47
1622.2
2790
2790
2790
2790
2790
2790
2790
2790
2790
2790
2790.04
2790.95
2798.15
2816.21
2832.46
2839.17
2838.22
2830.34
2820.37
2814.79
2812.54
2811.11
2809.07
2805.95
2802.36
2799.2
2796.72
2794.68
2792.89
2791.26
2789.82
2788.97
2788.8
2790.08
2794.33
2799.77
2803.99
2806.49
2807.93
2809.07
2810.4
2812.11
2814.12
2816.29
2818.59
2821.01
2823.55
2826.21
2829
2831.93
2835.01
2838.28
2841.76
2845.42
2849.25
2853.2
2857.28
2861.5
2865.87
2870.38
2875.04
2879.86
2884.81
2889.9
2895.1
2900.42
2905.87
2911.43
2917.11
2922.88
2928.76
2934.74
2940.79
2946.91
2953.07
2959.27
2965.5
2971.73
2977.95
2984.12
2990.23
2996.24
3002.13
3007.85
3013.38
3018.65
3023.63
3028.25
3032.45
3036.2
3039.4
3041.9
3043.71
3044.68
3044.82
3043.65
3041.28
3037.38
3031.83
3024.41
3014.77
3002.73
2987.75
2969.73
2947.95
2922.42
2892.19
2857.4
2816.83
2770.76
2717.88
2658.82
2591.66
2516.94
2433.6
2343.9
2245.83
2139.89
2019.73
1910.71
1712.47
2790
2790
2790
2790
2790
2790
2790
2790
2790
2790
2790.01
2790.41
2795.02
2810.95
2830.01
2839.28
2839.6
2834.2
2824.15
2818.09
2815.74
2814.59
2813.04
2810.41
2807.06
2804.02
2801.7
2799.86
2798.33
2797
2795.77
2794.82
2794.41
2794.78
2797.63
2802.89
2807.97
2811.43
2813.46
2814.86
2816.25
2817.98
2820.07
2822.36
2824.8
2827.36
2830.06
2832.88
2835.85
2838.95
2842.21
2845.66
2849.31
2853.17
2857.19
2861.34
2865.63
2870.07
2874.65
2879.39
2884.28
2889.34
2894.55
2899.9
2905.38
2911
2916.75
2922.64
2928.66
2934.79
2941.05
2947.42
2953.9
2960.47
2967.11
2973.82
2980.59
2987.4
2994.23
3001.06
3007.87
3014.64
3021.34
3027.94
3034.41
3040.71
3046.79
3052.6
3058.1
3063.23
3067.92
3072.11
3075.73
3078.59
3080.67
3081.83
3082.08
3080.93
3078.44
3074.27
3068.19
3060.03
3049.32
3035.96
3019.29
2999.24
2974.93
2946.35
2912.22
2872.68
2826.42
2773.79
2713.22
2645.51
2568.89
2484.57
2390.41
2291.5
2180.57
2073.24
1878.13
2790
2790
2790
2790
2790
2790
2790
2790
2790
2790
2790
2790.17
2792.94
2806.13
2826.66
2838.88
2840.72
2837.47
2827.72
2821.15
2818.66
2817.77
2816.75
2814.71
2811.71
2808.81
2806.65
2804.94
2803.55
2802.41
2801.41
2800.54
2800.04
2800
2801.56
2806.01
2811.52
2815.92
2818.71
2820.49
2822.02
2823.8
2825.96
2828.37
2830.93
2833.62
2836.46
2839.44
2842.56
2845.83
2849.26
2852.88
2856.71
2860.74
2864.94
2869.29
2873.78
2878.41
2883.21
2888.16
2893.27
2898.55
2904
2909.6
2915.35
2921.24
2927.28
2933.47
2939.8
2946.27
2952.88
2959.62
2966.5
2973.49
2980.58
2987.76
2995.03
3002.37
3009.77
3017.21
3024.67
3032.13
3039.57
3046.97
3054.29
3061.51
3068.58
3075.47
3082.13
3088.51
3094.55
3100.22
3105.42
3110.08
3114.11
3117.33
3119.7
3121.08
3121.44
3120.29
3117.59
3113.05
3106.35
3097.34
3085.4
3070.41
3051.48
3028.5
3000.29
2966.95
2927.1
2880.86
2826.71
2765.07
2694.06
2614.34
2524.06
2425.42
2318.53
2207.42
2024.54
2790
2790
2790
2790
2790
2790
2790
2790
2790
2790
2790
2790.07
2791.68
2802.1
2822.9
2837.99
2841.7
2840.01
2830.85
2823.91
2821.37
2820.77
2820.26
2818.86
2816.24
2813.45
2811.36
2809.71
2808.39
2807.36
2806.55
2805.86
2805.4
2805.25
2806.02
2809.34
2814.75
2819.9
2823.52
2825.83
2827.6
2829.48
2831.72
2834.25
2836.95
2839.77
2842.74
2845.86
2849.14
2852.57
2856.16
2859.94
2863.93
2868.13
2872.51
2877.04
2881.71
2886.54
2891.52
2896.67
2901.98
2907.47
2913.14
2918.97
2924.97
2931.11
2937.41
2943.88
2950.5
2957.28
2964.21
2971.29
2978.53
2985.9
2993.39
3001.01
3008.73
3016.55
3024.47
3032.46
3040.5
3048.59
3056.7
3064.82
3072.91
3080.97
3088.94
3096.8
3104.51
3112.03
3119.31
3126.32
3132.97
3139.23
3144.97
3150.14
3154.62
3158.23
3160.93
3162.53
3163
3161.83
3158.89
3153.87
3146.32
3136.12
3122.46
3105.27
3083.49
3057.11
3024.63
2986.09
2940.02
2886.48
2823.51
2750.99
2666.54
2572.86
2465.71
2354.62
2175.95
2790
2790
2790
2790
2790
2790
2790
2790
2790
2790
2790
2790.03
2790.96
2798.99
2819.19
2836.78
2842.57
2841.65
2833.53
2826.49
2823.95
2823.65
2823.59
2822.75
2820.46
2817.75
2815.69
2814.1
2812.84
2811.91
2811.25
2810.77
2810.47
2810.36
2810.77
2813.05
2817.88
2823.46
2827.88
2830.79
2832.9
2834.93
2837.28
2839.94
2842.78
2845.75
2848.85
2852.11
2855.53
2859.11
2862.86
2866.8
2870.95
2875.31
2879.86
2884.56
2889.41
2894.41
2899.57
2904.9
2910.4
2916.08
2921.95
2928.01
2934.22
2940.6
2947.15
2953.87
2960.76
2967.82
2975.05
2982.44
2990
2997.73
3005.6
3013.6
3021.74
3030.01
3038.39
3046.88
3055.46
3064.11
3072.83
3081.6
3090.4
3099.2
3107.98
3116.71
3125.36
3133.89
3142.27
3150.46
3158.41
3166.08
3173.37
3180.22
3186.54
3192.23
3197.21
3201.25
3204.27
3206.09
3206.62
3205.33
3201.97
3196.34
3187.82
3176.29
3160.73
3141.01
3115.66
3084.61
3046.03
2999.87
2944.5
2879.6
2803.61
2716.86
2615.67
2508.14
2343.83
2790
2790
2790
2790
2790
2790
2790
2790
2790
2790
2790
2790.01
2790.57
2796.76
2815.89
2835.55
2843.1
2842.76
2835.84
2828.95
2826.43
2826.4
2826.64
2826.21
2824.27
2821.7
2819.71
2818.22
2817.05
2816.21
2815.69
2815.4
2815.28
2815.32
2815.61
2817.15
2821.13
2826.77
2831.83
2835.38
2837.88
2840.11
2842.58
2845.38
2848.38
2851.49
2854.75
2858.15
2861.72
2865.45
2869.36
2873.45
2877.76
2882.28
2886.98
2891.85
2896.86
2902.02
2907.36
2912.86
2918.53
2924.39
2930.45
2936.7
2943.13
2949.72
2956.49
2963.44
2970.58
2977.9
2985.39
2993.07
3000.93
3008.97
3017.18
3025.54
3034.05
3042.72
3051.52
3060.46
3069.51
3078.68
3087.94
3097.28
3106.7
3116.16
3125.66
3135.17
3144.65
3154.09
3163.44
3172.69
3181.79
3190.71
3199.38
3207.74
3215.7
3223.21
3230.16
3236.44
3241.96
3246.45
3249.82
3251.86
3252.46
3251.04
3247.26
3240.79
3230.78
3217.12
3198.45
3174.65
3143.82
3106.04
3059.17
3002.32
2933.28
2850.12
2753.32
2641.73
2489.06
2790
2790
2790
2790
2790
2790
2790
2790
2790
2790
2790
2790.01
2790.36
2795.28
2813.25
2834.39
2843.41
2843.67
2837.8
2831.26
2828.77
2828.92
2829.46
2829.27
2827.72
2825.37
2823.51
2822.17
2821.13
2820.42
2820.01
2819.88
2819.94
2820.15
2820.45
2821.55
2824.68
2830.02
2835.52
2839.65
2842.55
2845
2847.6
2850.54
2853.7
2856.98
2860.39
2863.95
2867.68
2871.56
2875.62
2879.87
2884.33
2889
2893.86
2898.88
2904.04
2909.37
2914.86
2920.52
2926.35
2932.38
2938.61
2945.04
2951.66
2958.45
2965.42
2972.59
2979.95
2987.5
2995.24
3003.17
3011.3
3019.63
3028.14
3036.82
3045.68
3054.7
3063.88
3073.23
3082.71
3092.32
3102.07
3111.93
3121.9
3131.96
3142.09
3152.28
3162.51
3172.74
3182.96
3193.14
3203.25
3213.26
3223.13
3232.8
3242.22
3251.32
3260.01
3268.23
3275.86
3282.78
3288.88
3293.83
3297.56
3299.79
3300.4
3298.63
3294.07
3286.48
3274.77
3258.75
3236.55
3208.12
3170.87
3124.37
3065.49
2991.85
2903.98
2795.32
2650.02
2790
2790
2790
2790
2790
2790
2790
2790
2790
2790
2790
2790.01
2790.27
2794.37
2811.4
2833.47
2843.58
2844.43
2839.4
2833.31
2830.94
2831.21
2832.09
2832.09
2830.89
2828.81
2827.16
2826
2825.12
2824.56
2824.27
2824.25
2824.49
2824.84
2825.23
2826.11
2828.58
2833.41
2839.1
2843.7
2846.98
2849.64
2852.37
2855.44
2858.76
2862.22
2865.8
2869.52
2873.4
2877.44
2881.66
2886.06
2890.67
2895.49
2900.5
2905.66
2910.98
2916.45
2922.09
2927.9
2933.88
2940.06
2946.45
2953.04
2959.84
2966.81
2973.97
2981.33
2988.89
2996.66
3004.62
3012.79
3021.17
3029.75
3038.54
3047.51
3056.67
3066.01
3075.54
3085.24
3095.1
3105.12
3115.3
3125.62
3136.07
3146.65
3157.35
3168.14
3179.01
3189.94
3200.92
3211.91
3222.9
3233.87
3244.79
3255.6
3266.28
3276.75
3286.97
3296.88
3306.38
3315.38
3323.77
3331.38
3338.12
3343.59
3347.74
3350.22
3350.86
3348.79
3343.47
3334.41
3320.16
3300.49
3272.8
3236.73
3187.4
3122.45
3040.02
2935.17
2794.74
2790
2790
2790
2790
2790
2790
2790
2790
2790
2790
2790
2790
2790.23
2793.95
2810.38
2833.07
2843.79
2845.08
2840.64
2835.01
2832.96
2833.37
2834.62
2834.77
2833.83
2832.03
2830.63
2829.67
2828.97
2828.58
2828.43
2828.51
2828.92
2829.39
2829.91
2830.73
2832.75
2837.02
2842.68
2847.64
2851.23
2854.09
2856.94
2860.14
2863.61
2867.23
2870.97
2874.85
2878.89
2883.09
2887.45
2892.01
2896.77
2901.73
2906.88
2912.19
2917.64
2923.25
2929.03
2934.97
2941.1
2947.42
2953.95
2960.7
2967.65
2974.8
2982.13
2989.66
2997.41
3005.36
3013.53
3021.91
3030.51
3039.33
3048.36
3057.6
3067.03
3076.66
3086.49
3096.51
3106.71
3117.09
3127.65
3138.37
3149.26
3160.3
3171.49
3182.81
3194.25
3205.79
3217.42
3229.13
3240.89
3252.69
3264.51
3276.32
3288.08
3299.75
3311.28
3322.63
3333.74
3344.53
3354.91
3364.78
3374.01
3382.42
3389.91
3395.98
3400.57
3403.23
3403.76
3400.93
3394.07
3382.49
3364.39
3339.39
3302.66
3251.79
3179.39
3082.02
2946.26
2790
2790
2790
2790
2790
2790
2790
2790
2790
2790
2790
2790
2790.23
2793.89
2810.21
2833.1
2844.12
2845.62
2841.54
2836.44
2834.82
2835.51
2837.11
2837.34
2836.56
2835
2833.86
2833.1
2832.62
2832.4
2832.4
2832.64
2833.17
2833.79
2834.45
2835.3
2837.07
2840.88
2846.39
2851.56
2855.42
2858.45
2861.41
2864.71
2868.31
2872.07
2875.96
2879.99
2884.17
2888.52
2893.03
2897.73
2902.64
2907.74
2913.03
2918.46
2924.05
2929.79
2935.69
2941.77
2948.02
2954.48
2961.15
2968.04
2975.14
2982.44
2989.93
2997.63
3005.54
3013.67
3022.03
3030.6
3039.41
3048.44
3057.7
3067.17
3076.85
3086.74
3096.84
3107.15
3117.66
3128.36
3139.26
3150.35
3161.62
3173.07
3184.69
3196.48
3208.42
3220.5
3232.71
3245.03
3257.46
3269.99
3282.6
3295.26
3307.96
3320.65
3333.31
3345.91
3358.39
3370.71
3382.8
3394.59
3405.97
3416.82
3427.03
3436.35
3444.69
3451.44
3456.61
3459.58
3460.13
3456.58
3448.6
3434.86
3411.94
3376.66
3316.78
3233.08
3100.89
2790
2790
2790
2790
2790
2790
2790
2790
2790
2790
2790
2790
2790.24
2794.04
2810.77
2833.72
2844.64
2846.06
2842.15
2837.64
2836.56
2837.71
2839.58
2839.83
2839.09
2837.72
2836.82
2836.27
2836
2835.94
2836.1
2836.54
2837.18
2837.97
2838.8
2839.74
2841.43
2844.92
2850.24
2855.54
2859.6
2862.78
2865.83
2869.21
2872.91
2876.79
2880.8
2884.96
2889.27
2893.74
2898.39
2903.23
2908.27
2913.51
2918.92
2924.48
2930.19
2936.05
2942.08
2948.28
2954.65
2961.23
2968.03
2975.06
2982.3
2989.73
2997.37
3005.22
3013.29
3021.59
3030.11
3038.87
3047.86
3057.09
3066.55
3076.24
3086.14
3096.27
3106.62
3117.19
3127.98
3138.97
3150.18
3161.59
3173.21
3185.02
3197.03
3209.23
3221.62
3234.17
3246.89
3259.76
3272.78
3285.94
3299.23
3312.64
3326.15
3339.73
3353.36
3367.02
3380.68
3394.31
3407.84
3421.25
3434.45
3447.37
3459.89
3471.91
3483.28
3493.74
3503.21
3510.89
3516.86
3520.02
3520.27
3515.06
3504.1
3483.59
3442.41
3384
3271.34
2790
2790
2790
2790
2790
2790
2790
2790
2790
2790
2790
2790.01
2790.29
2794.59
2812.19
2834.93
2845.31
2846.4
2842.53
2838.62
2838.23
2840.01
2842.07
2842.25
2841.51
2840.28
2839.56
2839.19
2839.09
2839.2
2839.55
2840.15
2840.95
2841.92
2842.94
2844.02
2845.74
2849.08
2854.25
2859.61
2863.83
2867.12
2870.25
2873.69
2877.47
2881.42
2885.52
2889.78
2894.2
2898.78
2903.55
2908.52
2913.69
2919.05
2924.58
2930.26
2936.08
2942.06
2948.2
2954.51
2961
2967.7
2974.62
2981.78
2989.15
2996.72
3004.49
3012.48
3020.69
3029.14
3037.83
3046.75
3055.92
3065.33
3074.98
3084.87
3094.99
3105.33
3115.91
3126.73
3137.76
3149.03
3160.51
3172.22
3184.15
3196.29
3208.66
3221.23
3234.01
3247
3260.17
3273.53
3287.07
3300.8
3314.69
3328.75
3342.97
3357.32
3371.8
3386.38
3401.06
3415.8
3430.58
3445.36
3460.1
3474.75
3489.24
3503.51
3517.41
3530.84
3543.62
3555.45
3566.19
3574.87
3581.77
3585.44
3586.14
3578.81
3558.86
3525.25
3452.43
2790
2790
2790
2790
2790
2790
2790
2790
2790
2790
2790
2790.01
2790.39
2795.56
2814.34
2836.52
2846.05
2846.65
2842.78
2839.48
2839.81
2842.34
2844.51
2844.59
2843.84
2842.75
2842.18
2841.95
2841.98
2842.24
2842.77
2843.52
2844.49
2845.66
2846.87
2848.13
2849.96
2853.29
2858.37
2863.76
2868.08
2871.46
2874.65
2878.14
2881.96
2885.97
2890.13
2894.46
2898.97
2903.65
2908.52
2913.6
2918.89
2924.37
2930
2935.78
2941.71
2947.8
2954.05
2960.47
2967.07
2973.88
2980.92
2988.2
2995.69
3003.38
3011.28
3019.4
3027.76
3036.35
3045.19
3054.27
3063.61
3073.19
3083.03
3093.1
3103.42
3113.97
3124.76
3135.8
3147.08
3158.58
3170.33
3182.31
3194.53
3206.99
3219.68
3232.6
3245.75
3259.12
3272.71
3286.52
3300.53
3314.76
3329.2
3343.85
3358.7
3373.74
3388.95
3404.34
3419.9
3435.6
3451.44
3467.4
3483.44
3499.54
3515.66
3531.77
3547.76
3563.6
3579.12
3594.27
3608.84
3622.55
3635.18
3645.57
3654.19
3658.31
3657.43
3642.42
3616.1
2790
2790
2790
2790
2790
2790
2790
2790
2790
2790
2790
2790.01
2790.59
2797.03
2817.14
2838.35
2846.79
2846.84
2843.04
2840.34
2841.29
2844.57
2846.79
2846.81
2846.08
2845.17
2844.75
2844.64
2844.78
2845.2
2845.86
2846.75
2847.89
2849.23
2850.63
2852.08
2854.07
2857.47
2862.53
2867.93
2872.31
2875.75
2878.99
2882.52
2886.37
2890.42
2894.62
2899
2903.57
2908.33
2913.3
2918.49
2923.88
2929.46
2935.19
2941.07
2947.1
2953.29
2959.64
2966.15
2972.85
2979.77
2986.93
2994.32
3001.92
3009.74
3017.76
3026
3034.49
3043.22
3052.21
3061.44
3070.93
3080.68
3090.68
3100.94
3111.43
3122.18
3133.17
3144.42
3155.92
3167.66
3179.65
3191.89
3204.38
3217.12
3230.1
3243.34
3256.83
3270.56
3284.52
3298.73
3313.18
3327.86
3342.79
3357.96
3373.37
3389.01
3404.88
3420.98
3437.3
3453.84
3470.59
3487.54
3504.68
3521.99
3539.46
3557.06
3574.76
3592.53
3610.27
3627.97
3645.41
3662.56
3679.09
3694.84
3709.46
3721.7
3731.64
3734.04
3736.29
2790
2790
2790
2790
2790
2790
2790
2790
2790
2790
2790
2790.03
2790.93
2799.07
2820.49
2840.25
2847.47
2847.04
2843.38
2841.36
2842.89
2846.61
2848.76
2848.78
2848.13
2847.46
2847.23
2847.25
2847.55
2848.09
2848.86
2849.89
2851.18
2852.68
2854.24
2855.86
2858.02
2861.55
2866.63
2872.02
2876.43
2879.92
2883.21
2886.78
2890.66
2894.73
2898.96
2903.38
2908
2912.83
2917.88
2923.15
2928.64
2934.31
2940.13
2946.1
2952.22
2958.5
2964.94
2971.55
2978.35
2985.37
2992.64
3000.14
3007.86
3015.78
3023.92
3032.29
3040.9
3049.76
3058.88
3068.26
3077.91
3087.81
3097.98
3108.4
3119.08
3130
3141.19
3152.64
3164.34
3176.3
3188.52
3201.01
3213.75
3226.76
3240.03
3253.57
3267.37
3281.43
3295.75
3310.34
3325.18
3340.29
3355.66
3371.31
3387.23
3403.41
3419.86
3436.58
3453.56
3470.82
3488.34
3506.13
3524.18
3542.49
3561.04
3579.83
3598.84
3618.05
3637.42
3656.91
3676.42
3695.93
3715.18
3734.15
3752.23
3769.46
3784.05
3794.98
3807.25
2790
2790
2790
2790
2790
2790
2790
2790
2790
2790
2790
2790.06
2791.5
2801.76
2824.2
2842.04
2847.98
2847.23
2843.84
2842.59
2844.77
2848.57
2850.43
2850.43
2849.93
2849.53
2849.5
2849.74
2850.22
2850.88
2851.77
2852.94
2854.35
2855.98
2857.65
2859.42
2861.75
2865.43
2870.56
2875.94
2880.36
2883.89
2887.25
2890.87
2894.78
2898.87
2903.12
2907.57
2912.24
2917.13
2922.25