/*--------------------------------*- C++ -*----------------------------------*\
| =========                 |                                                 |
| \\      /  F ield         | OpenFOAM: The Open Source CFD Toolbox           |
|  \\    /   O peration     | Version:  2406                                  |
|   \\  /    A nd           | Website:  www.openfoam.com                      |
|    \\/     M anipulation  |                                                 |
\*---------------------------------------------------------------------------*/
FoamFile
{
    version     2.0;
    format      ascii;
    arch        "LSB;label=32;scalar=64";
    class       volScalarField;
    location    "0.04";
    object      p;
}
// * * * * * * * * * * * * * * * * * * * * * * * * * * * * * * * * * * * * * //

dimensions      [1 -1 -2 0 0 0 0];

internalField   nonuniform List<scalar> 
78650
(
3362.01
2899.81
2862.05
2846.43
2837.04
2834.26
2835.51
2838.57
2840.77
2840.33
2836.73
2829.13
2819.7
2811.16
2804.18
2798.31
2793.14
2788.45
2783.88
2779.09
2773.96
2768.58
2763.2
2758.17
2753.69
2749.8
2746.41
2743.38
2740.54
2737.79
2735.05
2732.32
2729.61
2726.92
2724.28
2721.72
2719.25
2716.87
2714.58
2712.37
2710.22
2708.12
2706.06
2704.04
2702.05
2700.07
2698.08
2696.03
2693.9
2691.67
2689.29
2686.75
2683.99
2680.97
2677.63
2673.94
2669.84
2665.29
2660.24
2654.64
2648.43
2641.54
2633.88
2625.4
2616.02
2605.68
2594.31
2581.82
2568.09
2553.09
2536.77
2519.03
2499.83
2479.02
2456.52
2432.33
2406.35
2378.6
2349.12
2317.9
2284.89
2250.32
2214.08
2176.56
2137.5
2096.69
2054.29
2010.37
1966.01
1921.24
1875.47
1830.53
1786.71
1742.24
1698.53
1655.71
1613.45
1575.03
1537.48
1500.71
1464.99
1431.59
1402.72
1375.81
1348.84
1322.11
1298.64
1276.71
1256.79
1237.97
1220.25
1203.19
1186.8
1171.73
1158.3
1146.27
1135.41
1125.67
1116.73
1109.7
1095.93
3332.82
2901.11
2869.51
2853.61
2842.36
2837.64
2837.45
2839.62
2842.42
2843.22
2840.92
2834.66
2825.61
2816.61
2809.01
2802.66
2797.15
2792.33
2787.88
2783.53
2779.02
2774.24
2769.27
2764.38
2759.82
2755.76
2752.2
2749.04
2746.17
2743.44
2740.78
2738.18
2735.62
2733.11
2730.66
2728.29
2726.04
2723.89
2721.84
2719.89
2718.02
2716.21
2714.46
2712.77
2711.12
2709.51
2707.9
2706.27
2704.59
2702.83
2700.96
2698.96
2696.78
2694.37
2691.7
2688.72
2685.38
2681.65
2677.46
2672.78
2667.56
2661.73
2655.21
2647.94
2639.86
2630.89
2620.97
2610.02
2597.96
2584.73
2570.23
2554.34
2537
2518.13
2497.7
2475.72
2452.06
2426.7
2399.6
2370.63
2339.71
2307.03
2272.56
2236.69
2199.05
2159.98
2119.41
2077.45
2034.56
1990.76
1945.99
1901.01
1856.94
1812.23
1768.22
1725.23
1683.11
1642.39
1603.64
1565.17
1528.3
1492.56
1457.69
1424.67
1395.09
1367.19
1341.12
1316.17
1292.53
1269.9
1248.55
1228.73
1210.56
1193.81
1178.61
1164.54
1151.3
1138.38
1126.27
1115.73
1096.07
3301.03
2901.64
2874.87
2860.74
2848.77
2841.72
2839.83
2840.9
2843.54
2845.06
2844.1
2839.66
2831.52
2822.33
2814.2
2807.35
2801.41
2796.28
2791.72
2787.56
2783.54
2779.41
2775.05
2770.56
2766.16
2762.05
2758.34
2755.05
2752.08
2749.32
2746.7
2744.17
2741.74
2739.39
2737.11
2734.95
2732.9
2730.98
2729.18
2727.5
2725.9
2724.38
2722.95
2721.58
2720.28
2719.04
2717.82
2716.61
2715.37
2714.08
2712.72
2711.25
2709.64
2707.84
2705.82
2703.54
2700.94
2697.99
2694.64
2690.86
2686.59
2681.77
2676.33
2670.22
2663.35
2655.67
2647.13
2637.64
2627.11
2615.47
2602.63
2588.51
2573.09
2556.28
2537.99
2518.17
2496.67
2473.45
2448.47
2421.63
2392.96
2362.56
2330.4
2296.63
2261.03
2223.95
2185.08
2144.84
2103.38
2060.61
2017.69
1972.7
1928.58
1883.18
1839.05
1796.06
1751.44
1708.71
1665.34
1624.84
1586.88
1549.2
1512.66
1477.43
1443.1
1411.82
1383.47
1355.87
1329.77
1304.6
1281.65
1260.52
1241.28
1223.37
1206.59
1191.09
1177.12
1164.1
1151.89
1140.67
1116.69
3268.15
2899.12
2879.54
2868.22
2856.6
2847.31
2843.02
2842.66
2844.5
2846.47
2846.57
2843.92
2837.26
2828.4
2819.84
2812.43
2806.02
2800.46
2795.61
2791.39
2787.62
2784.02
2780.33
2776.48
2772.5
2768.57
2764.85
2761.44
2758.36
2755.53
2752.88
2750.39
2748.04
2745.81
2743.7
2741.71
2739.87
2738.16
2736.6
2735.17
2733.84
2732.61
2731.48
2730.44
2729.47
2728.58
2727.74
2726.93
2726.12
2725.29
2724.41
2723.46
2722.4
2721.19
2719.8
2718.18
2716.3
2714.12
2711.58
2708.66
2705.31
2701.49
2697.11
2692.12
2686.47
2680.07
2672.9
2664.86
2655.87
2645.88
2634.79
2622.53
2609.05
2594.21
2577.91
2560.13
2540.75
2519.79
2497.21
2472.89
2446.82
2419.01
2389.34
2357.92
2324.65
2289.75
2252.99
2214.87
2175.01
2133.72
2091.37
2047.23
2002.13
1957.59
1911.99
1867.53
1821.97
1776.77
1733.89
1690.82
1649.13
1608.29
1569.14
1532.76
1498.04
1465.09
1433.72
1403.27
1375.22
1348.03
1322.76
1298.77
1276.65
1255.88
1236.33
1217.91
1200.5
1184.83
1171.83
1160.74
1141.01
3229.87
2894.04
2881.72
2874.6
2865.01
2854.76
2847.85
2845.42
2846
2847.71
2848.53
2847.23
2842.46
2834.51
2825.79
2817.88
2810.97
2804.97
2799.71
2795.22
2791.42
2788.09
2784.98
2781.85
2778.54
2775.07
2771.57
2768.2
2765.05
2762.15
2759.44
2756.94
2754.63
2752.48
2750.5
2748.67
2747.02
2745.52
2744.19
2743
2741.95
2741.01
2740.19
2739.46
2738.83
2738.3
2737.84
2737.43
2737.04
2736.67
2736.26
2735.82
2735.31
2734.67
2733.9
2732.94
2731.76
2730.32
2728.57
2726.5
2724.04
2721.17
2717.81
2713.91
2709.4
2704.22
2698.34
2691.67
2684.14
2675.69
2666.22
2655.66
2643.95
2630.97
2616.68
2601.05
2583.97
2565.38
2545.18
2523.23
2499.5
2473.94
2446.46
2417.19
2386.1
2353.31
2318.6
2282.39
2244.21
2204.84
2163.91
2121.83
2078.14
2033.82
1988.65
1942.71
1898.27
1853.42
1808.19
1763.7
1719.9
1677.45
1635.83
1596.4
1556.95
1519.2
1483.18
1448.34
1416.66
1386.83
1359.27
1332.93
1307.77
1284.12
1262.37
1242
1222.29
1203.45
1186.46
1171.57
1144.1
3187.46
2884.88
2881.89
2877.41
2870.56
2862.2
2854.17
2849.65
2848.59
2849.12
2850.11
2849.76
2846.89
2840.33
2831.9
2823.62
2816.24
2809.81
2804.17
2799.29
2795.21
2791.85
2789.04
2786.5
2783.95
2781.18
2778.21
2775.14
2772.1
2769.19
2766.43
2763.88
2761.55
2759.45
2757.55
2755.85
2754.36
2753.05
2751.94
2750.99
2750.19
2749.54
2749.01
2748.59
2748.29
2748.1
2748.01
2747.99
2748.02
2748.08
2748.14
2748.19
2748.2
2748.13
2747.95
2747.62
2747.13
2746.42
2745.43
2744.17
2742.58
2740.62
2738.25
2735.41
2732.03
2728.06
2723.46
2718.16
2712.08
2705.17
2697.34
2688.52
2678.65
2667.62
2655.39
2641.87
2626.92
2610.47
2592.45
2572.77
2551.43
2528.37
2503.52
2476.95
2448.6
2418.4
2386.26
2352.43
2316.71
2279.64
2240.52
2199.96
2158.19
2114.74
2070.95
2025.56
1979.57
1934.02
1887.95
1842.02
1796.97
1753.35
1710.63
1669.45
1628.83
1588.4
1551.19
1514.9
1480.89
1447.99
1416.99
1387.24
1358.64
1331.41
1306.37
1283.91
1263.76
1244.98
1227.67
1212.29
1180.92
3141.14
2868.47
2875.33
2875.32
2871.84
2866.5
2860.47
2855.35
2852.4
2851.62
2852.07
2851.95
2850.26
2845.41
2837.84
2829.44
2821.58
2814.73
2808.76
2803.54
2799.09
2795.46
2792.67
2790.48
2788.55
2786.56
2784.35
2781.87
2779.21
2776.5
2773.79
2771.22
2768.87
2766.77
2764.93
2763.33
2761.96
2760.82
2759.91
2759.18
2758.63
2758.25
2758.01
2757.92
2757.94
2758.1
2758.37
2758.74
2759.18
2759.67
2760.2
2760.73
2761.26
2761.74
2762.15
2762.44
2762.59
2762.59
2762.35
2761.89
2761.15
2760.07
2758.65
2756.82
2754.52
2751.69
2748.3
2744.28
2739.57
2734.1
2727.8
2720.61
2712.45
2703.23
2692.89
2681.34
2668.47
2654.28
2638.68
2621.59
2602.95
2582.63
2560.49
2536.59
2510.86
2483.23
2453.6
2422.12
2388.67
2353.56
2316.31
2277.77
2237.46
2196.02
2153.07
2108.85
2063.7
2017.27
1971.53
1924.76
1878.54
1833.15
1787.61
1742.06
1699.69
1657.28
1616.56
1577.67
1540.45
1504.63
1470.53
1438.43
1408.21
1378.99
1350.98
1324.68
1300.86
1278.82
1259.07
1241.52
1207.53
3097.82
2840.75
2855.35
2865.75
2867.65
2866.02
2863.28
2859.69
2856.64
2854.81
2853.91
2853.3
2851.8
2848.6
2842.73
2834.99
2826.95
2819.7
2813.43
2807.97
2803.2
2799.23
2796.21
2794.05
2792.47
2791.09
2789.68
2788
2786.02
2783.79
2781.36
2778.89
2776.57
2774.48
2772.65
2771.1
2769.83
2768.83
2768.08
2767.54
2767.23
2767.11
2767.14
2767.35
2767.69
2768.17
2768.79
2769.53
2770.37
2771.29
2772.26
2773.27
2774.29
2775.31
2776.28
2777.17
2777.96
2778.62
2779.11
2779.4
2779.48
2779.27
2778.78
2777.94
2776.68
2774.98
2772.78
2770.02
2766.66
2762.64
2757.88
2752.31
2745.88
2738.47
2730.05
2720.54
2709.82
2697.89
2684.59
2669.81
2653.49
2635.49
2615.76
2594.37
2571.21
2546.2
2519.3
2490.57
2459.94
2427.55
2393.11
2357.1
2318.97
2279.45
2238.19
2195.71
2152.08
2106.98
2061.02
2014.24
1967.07
1920.2
1873.93
1827.2
1782.09
1736.96
1693.49
1651.13
1609.35
1569.61
1530.56
1494.3
1461.03
1429.72
1399.89
1370.63
1343.07
1317.47
1294.66
1274.37
1232.03
3068.95
2811.23
2826.09
2845.09
2856.91
2861.67
2862.24
2860.89
2858.57
2856.17
2854.75
2853.5
2851.96
2849.67
2845.57
2839.34
2831.85
2824.45
2817.87
2812.2
2807.26
2803.05
2799.78
2797.44
2795.93
2794.92
2794.11
2793.2
2792.07
2790.6
2788.73
2786.62
2784.48
2782.47
2780.7
2779.2
2777.99
2777.1
2776.49
2776.13
2776.01
2776.14
2776.46
2776.94
2777.58
2778.39
2779.36
2780.47
2781.7
2783.03
2784.44
2785.92
2787.43
2788.97
2790.49
2791.97
2793.38
2794.7
2795.9
2796.93
2797.77
2798.4
2798.77
2798.88
2798.63
2798
2796.94
2795.36
2793.28
2790.6
2787.25
2783.21
2778.37
2772.67
2766.07
2758.47
2749.77
2739.93
2728.83
2716.38
2702.55
2687.22
2670.33
2651.86
2631.65
2609.64
2585.79
2560.02
2532.24
2502.56
2470.85
2437.32
2401.58
2364.35
2325.22
2284.85
2242.64
2198.94
2153.91
2108.35
2061.81
2014.46
1968.32
1921.52
1875.35
1829.04
1782.65
1739.35
1696.47
1655.34
1614.33
1574.63
1537.19
1501.46
1468.41
1435.98
1405.08
1376.37
1351.25
1329.95
1291.33
3058.19
2800.96
2804.83
2817.39
2832.49
2845.24
2853.22
2856.14
2856.28
2855.39
2853.91
2852.19
2850.83
2849.16
2846.24
2841.68
2835.7
2828.81
2822.13
2816.26
2811.21
2806.93
2803.5
2800.95
2799.3
2798.38
2797.9
2797.55
2797.19
2796.59
2795.53
2794.05
2792.35
2790.6
2788.97
2787.56
2786.43
2785.63
2785.12
2784.91
2784.97
2785.32
2785.86
2786.61
2787.54
2788.66
2789.95
2791.41
2793.01
2794.74
2796.57
2798.49
2800.48
2802.51
2804.56
2806.61
2808.62
2810.56
2812.42
2814.17
2815.78
2817.21
2818.43
2819.42
2820.13
2820.51
2820.58
2820.18
2819.36
2818.02
2816.07
2813.53
2810.29
2806.29
2801.48
2795.76
2789.06
2781.32
2772.42
2762.32
2750.94
2738.13
2723.83
2707.97
2690.4
2671.12
2650.07
2627.14
2602.3
2575.64
2546.97
2516.31
2483.43
2448.84
2412.21
2374.02
2333.71
2291.97
2248.66
2204.02
2158.48
2111.06
2063.21
2015.25
1965.94
1917.97
1868.7
1821.88
1775.64
1731.4
1687.44
1644.06
1602.27
1562.07
1525.34
1489.67
1455.43
1422.26
1390.88
1363.87
1310.89
3059.06
2802.72
2796.66
2799.17
2806.7
2818.49
2832.05
2843.24
2849.37
2851.19
2850.47
2849.03
2847.67
2846.42
2844.97
2842.12
2837.62
2831.98
2825.81
2819.96
2814.82
2810.55
2807.13
2804.5
2802.71
2801.75
2801.35
2801.3
2801.48
2801.6
2801.39
2800.73
2799.73
2798.49
2797.19
2796
2795.02
2794.33
2793.94
2793.86
2794.11
2794.62
2795.39
2796.38
2797.6
2799.01
2800.62
2802.41
2804.38
2806.49
2808.73
2811.08
2813.53
2816.05
2818.61
2821.2
2823.79
2826.35
2828.86
2831.3
2833.62
2835.82
2837.87
2839.73
2841.36
2842.71
2843.76
2844.47
2844.8
2844.74
2844.1
2842.98
2841.22
2838.79
2835.65
2831.69
2826.89
2821.15
2814.39
2806.54
2797.51
2787.17
2775.45
2762.28
2747.54
2731.26
2713.31
2693.52
2671.86
2648.36
2622.82
2595.25
2565.57
2534.04
2500.38
2464.98
2427.43
2388.39
2347.33
2304.7
2260.3
2214.76
2168.43
2121.7
2073.52
2025.32
1977.07
1928.18
1880.37
1833.09
1788.1
1742.13
1697.56
1653.36
1612.9
1574.2
1538.31
1503.67
1470.36
1440.12
1378.39
3059.83
2806.44
2796.8
2795.85
2795.97
2798.47
2806.55
2818.31
2830.04
2837.87
2841
2841.56
2841.29
2841.1
2841.21
2840.26
2837.48
2833.2
2828.27
2823.12
2818.16
2813.95
2810.56
2807.95
2806.16
2805.18
2804.79
2804.83
2805.32
2805.94
2806.37
2806.51
2806.33
2805.8
2805.08
2804.31
2803.61
2803.11
2802.9
2802.95
2803.35
2804.03
2804.99
2806.21
2807.67
2809.35
2811.25
2813.36
2815.66
2818.13
2820.76
2823.52
2826.4
2829.37
2832.43
2835.54
2838.67
2841.81
2844.94
2848.02
2851.05
2853.98
2856.8
2859.48
2861.99
2864.29
2866.35
2868.12
2869.56
2870.64
2871.31
2871.56
2871.28
2870.42
2868.93
2866.7
2863.75
2859.95
2855.22
2849.53
2842.76
2834.8
2825.61
2815.08
2803.12
2789.72
2774.71
2757.96
2739.43
2719.1
2696.82
2672.6
2646.29
2617.95
2587.41
2555
2520.42
2484.04
2445.32
2404.84
2362.52
2318.93
2273.89
2227.14
2179.4
2130.43
2082.27
2031.1
1981.38
1930.81
1883.48
1836.3
1790.14
1742.96
1698.11
1655.52
1616.67
1580.05
1545.87
1515.62
1455.35
3057.75
2810.93
2799.71
2797
2795.49
2794.26
2794.49
2798.37
2806.9
2816.88
2824.84
2829.26
2831.1
2832.38
2833.85
2834.84
2834.49
2832.6
2829.22
2825.06
2820.95
2817.14
2813.87
2811.31
2809.6
2808.69
2808.32
2808.39
2808.99
2809.85
2810.74
2811.5
2812.01
2812.24
2812.24
2812.08
2811.85
2811.71
2811.75
2812.04
2812.6
2813.46
2814.61
2816.05
2817.74
2819.68
2821.86
2824.26
2826.88
2829.7
2832.7
2835.85
2839.15
2842.57
2846.09
2849.7
2853.36
2857.06
2860.78
2864.49
2868.17
2871.81
2875.37
2878.83
2882.17
2885.35
2888.34
2891.1
2893.61
2895.82
2897.68
2899.14
2900.18
2900.73
2900.82
2900.2
2898.99
2897.03
2894.24
2890.62
2886.04
2880.44
2873.73
2865.81
2856.56
2845.96
2833.86
2820.15
2804.79
2787.67
2768.72
2747.94
2725.15
2700.3
2673.31
2644.35
2613.16
2580.01
2544.55
2507.29
2467.95
2426.91
2383.82
2339.16
2293.04
2245.91
2197.44
2147.9
2097.79
2046.45
1996.09
1946.62
1897.73
1847.71
1797.47
1748.02
1701.81
1658.21
1617
1579.06
1502.95
3053.28
2816.33
2804.97
2801.12
2798.17
2795.41
2793.79
2793.42
2794.75
2798.81
2805.09
2810.62
2814.84
2818.04
2821.43
2825.09
2828.03
2828.91
2827.95
2825.29
2822.32
2819.53
2816.8
2814.5
2812.95
2812.17
2811.89
2812.03
2812.73
2813.71
2814.83
2815.98
2817.03
2817.92
2818.62
2819.15
2819.54
2819.9
2820.33
2820.93
2821.75
2822.84
2824.2
2825.84
2827.76
2829.94
2832.37
2835.04
2837.96
2841.09
2844.43
2847.94
2851.63
2855.46
2859.42
2863.49
2867.65
2871.87
2876.14
2880.44
2884.74
2889.03
2893.29
2897.49
2901.61
2905.63
2909.51
2913.22
2916.72
2920
2923
2925.69
2928.04
2929.95
2931.42
2932.39
2932.82
2932.69
2931.75
2930.14
2927.63
2924.23
2919.84
2914.34
2907.67
2899.77
2890.53
2879.88
2867.72
2853.91
2838.39
2821.15
2801.94
2780.68
2757.28
2731.84
2704.21
2674.58
2642.64
2608.69
2572.37
2534.04
2493.62
2451.7
2407.9
2362.3
2315.11
2266.97
2217.89
2167.83
2116.19
2065.73
2015.86
1966.57
1915.94
1865.54
1816.86
1771.76
1731.01
1695.23
1629.98
3046.29
2821.81
2810.79
2806.7
2803.59
2799.91
2796.36
2794.18
2793.46
2793.38
2793.64
2795.05
2797.47
2800.67
2805.02
2810.68
2816.62
2821.06
2822.89
2823.29
2822.42
2820.69
2819.04
2817.58
2816.44
2815.78
2815.59
2815.85
2816.6
2817.66
2818.91
2820.27
2821.64
2822.97
2824.24
2825.4
2826.45
2827.42
2828.38
2829.41
2830.59
2831.98
2833.59
2835.47
2837.62
2840.03
2842.71
2845.65
2848.84
2852.28
2855.94
2859.8
2863.85
2868.07
2872.45
2876.96
2881.59
2886.31
2891.11
2895.96
2900.86
2905.77
2910.69
2915.59
2920.45
2925.24
2929.95
2934.54
2938.98
2943.24
2947.29
2951.1
2954.62
2957.82
2960.65
2963.06
2964.97
2966.37
2967.21
2967.47
2966.95
2965.68
2963.55
2960.4
2956.27
2951.01
2944.56
2936.86
2927.74
2917.06
2904.78
2890.84
2875.07
2857.39
2837.7
2816.04
2792.28
2766.46
2738.33
2708.07
2675.35
2640.54
2603.6
2564.83
2523.65
2480.26
2434.97
2388.63
2341.02
2291.43
2239.87
2186.84
2134.59
2083.25
2030.09
1978.79
1920.04
1867.57
1816.65
1770.86
1686.29
3036.98
2826.29
2815.89
2811.89
2809.33
2805.88
2801.62
2797.82
2795.34
2793.67
2791.69
2789.11
2786.71
2786.2
2787.88
2792.61
2799.88
2808.05
2814.87
2818.5
2820.19
2820.33
2819.84
2819.58
2819.44
2819.28
2819.34
2819.77
2820.58
2821.72
2823.1
2824.59
2826.14
2827.73
2829.37
2831.03
2832.65
2834.22
2835.77
2837.33
2838.97
2840.74
2842.69
2844.86
2847.26
2849.92
2852.84
2856.03
2859.49
2863.2
2867.16
2871.33
2875.72
2880.3
2885.06
2889.98
2895.05
2900.23
2905.51
2910.88
2916.31
2921.8
2927.33
2932.87
2938.42
2943.94
2949.41
2954.82
2960.13
2965.32
2970.36
2975.22
2979.86
2984.25
2988.35
2992.11
2995.49
2998.45
3000.91
3002.83
3004.15
3004.81
3004.89
3003.91
3002.19
2999.42
2995.56
2990.62
2984.41
2976.83
2967.81
2957.29
2945.12
2931.26
2915.54
2897.86
2878.14
2856.37
2832.35
2806.19
2777.63
2746.95
2713.91
2678.71
2641.15
2601.56
2559.86
2516.44
2471.24
2424.38
2375.47
2324.97
2273.89
2223.18
2173.02
2121.4
2069.07
2018.08
1966.29
1920.3
1836.42
3025.49
2829.77
2819.94
2815.95
2814.01
2811.5
2807.81
2803.54
2799.72
2796.38
2792.9
2788.7
2783.86
2779.4
2776.79
2777.53
2782.05
2790.5
2800.48
2808.8
2814.05
2817.21
2819.19
2820.35
2821.43
2822.4
2823.17
2823.91
2824.79
2825.97
2827.44
2829.05
2830.72
2832.44
2834.27
2836.23
2838.27
2840.35
2842.45
2844.56
2846.73
2848.96
2851.32
2853.83
2856.54
2859.47
2862.65
2866.1
2869.81
2873.79
2878.03
2882.51
2887.21
2892.13
2897.25
2902.55
2908.02
2913.64
2919.38
2925.23
2931.17
2937.2
2943.3
2949.45
2955.63
2961.82
2968.01
2974.18
2980.29
2986.34
2992.28
2998.1
3003.76
3009.24
3014.49
3019.48
3024.18
3028.53
3032.49
3036.02
3039.06
3041.52
3043.39
3044.58
3045.06
3044.71
3043.34
3041.07
3037.63
3033.05
3027.16
3019.88
3011.14
3000.84
2988.78
2974.84
2958.94
2941.04
2921
2898.86
2874.38
2847.66
2818.39
2786.87
2753.12
2717.26
2678.82
2637.92
2594.82
2550.22
2503.67
2455.29
2404.65
2352.93
2300.45
2248.19
2195.34
2140.29
2083.43
2031.73
1940.29
3013.22
2832.66
2823.22
2819.11
2817.63
2815.98
2813.29
2809.56
2805.49
2801.2
2796.17
2790.36
2784.3
2778.16
2772.9
2769.71
2769.77
2774.08
2783.23
2794.6
2804.85
2811.97
2816.84
2819.74
2821.94
2824.13
2826.26
2827.81
2829.04
2830.32
2831.85
2833.58
2835.38
2837.21
2839.13
2841.24
2843.54
2845.98
2848.53
2851.14
2853.83
2856.57
2859.38
2862.3
2865.37
2868.62
2872.09
2875.8
2879.77
2884.01
2888.51
2893.27
2898.28
2903.51
2908.96
2914.61
2920.45
2926.46
2932.61
2938.9
2945.32
2951.84
2958.45
2965.15
2971.91
2978.72
2985.56
2992.41
2999.26
3006.08
3012.85
3019.55
3026.16
3032.63
3038.95
3045.09
3051
3056.64
3061.99
3066.99
3071.59
3075.76
3079.44
3082.53
3084.98
3086.73
3087.71
3087.96
3087.13
3085.41
3082.5
3078.27
3072.79
3065.88
3057.4
3047.25
3035.32
3021.54
3005.79
2988.06
2968.1
2945.94
2921.32
2894.5
2865.34
2833.93
2799.91
2763.33
2724.42
2683.66
2640.95
2596.36
2549.06
2499.99
2448.97
2397.62
2345.06
2293.04
2237.1
2184.49
2093.52
3001.2
2835.2
2826.16
2821.84
2820.63
2819.6
2817.82
2814.87
2811.13
2806.73
2801.04
2793.93
2786.31
2779.13
2772.63
2767.41
2764.63
2764.6
2768.96
2778.7
2791.13
2802.55
2810.93
2816.64
2821.04
2824.63
2828.03
2831
2833.15
2834.79
2836.4
2838.21
2840.14
2842.09
2844.1
2846.27
2848.68
2851.33
2854.18
2857.19
2860.32
2863.54
2866.83
2870.19
2873.65
2877.26
2881.05
2885.05
2889.29
2893.79
2898.56
2903.59
2908.87
2914.39
2920.15
2926.13
2932.31
2938.68
2945.22
2951.91
2958.75
2965.73
2972.82
2980.02
2987.32
2994.69
3002.13
3009.61
3017.13
3024.66
3032.19
3039.69
3047.14
3054.52
3061.8
3068.96
3075.96
3082.77
3089.35
3095.68
3101.7
3107.38
3112.67
3117.51
3121.84
3125.6
3128.68
3131.07
3132.69
3133.49
3133.51
3132.09
3129.79
3126.13
3121.13
3114.71
3106.69
3096.96
3085.43
3071.99
3056.41
3038.72
3018.67
2996.34
2971.44
2944.2
2914.43
2882.25
2847.55
2810.37
2770.94
2729.3
2685.31
2639.39
2591.1
2541.76
2490.51
2439.34
2385.89
2333.27
2248.79
2989.93
2837.47
2828.9
2824.38
2823.34
2822.75
2821.71
2819.43
2816.04
2811.84
2806.12
2798.56
2789.98
2781.52
2773.89
2767.55
2763.16
2761.24
2761.64
2766.4
2776.79
2790.16
2802.45
2811.76
2818.66
2823.83
2828.34
2832.55
2836.2
2838.81
2840.81
2842.75
2844.81
2846.91
2849.04
2851.28
2853.75
2856.5
2859.53
2862.81
2866.3
2869.93
2873.66
2877.46
2881.35
2885.34
2889.47
2893.78
2898.31
2903.09
2908.11
2913.4
2918.95
2924.75
2930.79
2937.07
2943.56
2950.26
2957.15
2964.21
2971.44
2978.82
2986.35
2994
3001.78
3009.65
3017.63
3025.68
3033.79
3041.96
3050.16
3058.38
3066.59
3074.78
3082.92
3091
3098.98
3106.83
3114.54
3122.05
3129.36
3136.4
3143.15
3149.55
3155.56
3161.11
3166.16
3170.62
3174.47
3177.56
3179.91
3181.37
3181.95
3181.45
3179.71
3176.79
3172.33
3166.36
3158.71
3149.28
3137.91
3124.57
3109.04
3091.3
3071.08
3048.59
3023.61
2996.28
2966.22
2933.41
2898.13
2860.44
2820.62
2778.35
2733.4
2686.38
2636.61
2586.5
2532.71
2479.16
2400.34
2979.8
2839.46
2831.48
2826.83
2825.9
2825.65
2825.23
2823.48
2820.3
2816.12
2810.45
2802.94
2794.17
2785.15
2776.54
2768.98
2763.47
2760.17
2759.41
2760.41
2766.11
2777.55
2791.47
2804.02
2813.71
2821.24
2827.33
2832.8
2837.81
2841.95
2844.88
2847.18
2849.42
2851.71
2853.99
2856.32
2858.84
2861.64
2864.75
2868.19
2871.92
2875.87
2879.97
2884.18
2888.48
2892.86
2897.36
2902
2906.83
2911.88
2917.17
2922.71
2928.51
2934.57
2940.88
2947.43
2954.21
2961.21
2968.42
2975.81
2983.39
2991.14
2999.05
3007.12
3015.32
3023.66
3032.11
3040.67
3049.32
3058.06
3066.86
3075.71
3084.61
3093.51
3102.42
3111.31
3120.16
3128.94
3137.63
3146.2
3154.63
3162.88
3170.92
3178.71
3186.2
3193.35
3200.09
3206.39
3212.19
3217.45
3222.08
3225.98
3229.06
3231.27
3232.52
3232.85
3231.73
3229.46
3225.7
3220.34
3213.43
3204.71
3194.05
3181.35
3166.38
3149.18
3129.41
3107.3
3082.42
3054.95
3024.78
2991.96
2956.83
2919.02
2879.03
2836.32
2791.17
2743.82
2693.43
2639.64
2565.45
2971.16
2841.13
2833.83
2829.14
2828.39
2828.4
2828.52
2827.2
2824.04
2819.56
2813.68
2806.2
2797.65
2788.73
2779.87
2771.6
2764.88
2760.52
2758.77
2758.8
2760.87
2768.04
2780.51
2794.52
2806.92
2816.94
2825.06
2831.89
2838.09
2843.63
2848.02
2851.14
2853.71
2856.23
2858.73
2861.22
2863.83
2866.67
2869.83
2873.36
2877.24
2881.43
2885.84
2890.39
2895.06
2899.82
2904.67
2909.65
2914.79
2920.12
2925.68
2931.48
2937.53
2943.83
2950.39
2957.19
2964.24
2971.51
2979
2986.7
2994.59
3002.67
3010.93
3019.36
3027.94
3036.68
3045.56
3054.56
3063.69
3072.92
3082.25
3091.67
3101.15
3110.69
3120.27
3129.87
3139.47
3149.06
3158.61
3168.11
3177.52
3186.82
3195.99
3204.99
3213.78
3222.33
3230.59
3238.5
3246.04
3253.15
3259.79
3265.88
3271.34
3276.08
3280.01
3283.1
3285.21
3286.27
3286.38
3284.71
3281.96
3277.41
3271.09
3262.92
3252.61
3240.11
3225.12
3207.78
3187.68
3165.09
3139.53
3111.22
3080.11
3046.17
3009.78
2970.29
2928.47
2883.81
2836.79
2784.7
2716.21
2964.62
2842.49
2835.93
2831.35
2830.79
2831.18
2831.66
2830.56
2827.26
2822.19
2815.82
2808.17
2799.79
2791.22
2782.67
2774.45
2767.17
2761.82
2759.19
2758.62
2759.38
2763.3
2772.26
2785.26
2798.83
2810.89
2821.14
2829.89
2837.38
2844.19
2849.96
2854.38
2857.64
2860.48
2863.23
2865.94
2868.69
2871.62
2874.84
2878.42
2882.4
2886.74
2891.36
2896.2
2901.19
2906.29
2911.48
2916.79
2922.23
2927.85
2933.67
2939.71
2946
2952.54
2959.33
2966.37
2973.65
2981.17
2988.92
2996.89
3005.06
3013.43
3021.99
3030.74
3039.67
3048.76
3058.01
3067.4
3076.94
3086.61
3096.41
3106.31
3116.31
3126.4
3136.55
3146.77
3157.03
3167.32
3177.62
3187.91
3198.17
3208.38
3218.52
3228.55
3238.47
3248.22
3257.77
3267.08
3276.12
3284.85
3293.22
3301.18
3308.67
3315.61
3321.96
3327.62
3332.53
3336.48
3339.55
3341.47
3342.32
3341.82
3339.62
3336.01
3330.49
3323.07
3313.51
3301.76
3287.45
3270.74
3251.08
3228.75
3203.31
3175.07
3143.94
3109.47
3072.18
3031.19
2987.42
2937.81
2872.92
2960.57
2843.48
2837.78
2833.49
2833.14
2833.94
2834.64
2833.51
2829.87
2824.04
2817.03
2809.02
2800.62
2792.37
2784.34
2776.67
2769.65
2763.93
2760.39
2759.21
2759.43
2761.63
2767.87
2778.29
2791.09
2804.02
2815.95
2826.58
2835.78
2843.69
2850.87
2856.67
2860.9
2864.28
2867.38
2870.36
2873.32
2876.39
2879.68
2883.32
2887.37
2891.81
2896.6
2901.65
2906.91
2912.3
2917.8
2923.42
2929.15
2935.04
2941.12
2947.41
2953.93
2960.69
2967.7
2974.96
2982.47
2990.22
2998.2
3006.4
3014.82
3023.45
3032.29
3041.32
3050.54
3059.94
3069.52
3079.26
3089.16
3099.2
3109.4
3119.72
3130.17
3140.72
3151.38
3162.12
3172.94
3183.83
3194.76
3205.72
3216.7
3227.68
3238.64
3249.56
3260.42
3271.19
3281.84
3292.33
3302.64
3312.74
3322.59
3332.16
3341.39
3350.22
3358.61
3366.48
3373.78
3380.42
3386.32
3391.35
3395.43
3398.5
3400.4
3401.14
3400.31
3397.83
3393.59
3387.27
3378.7
3367.79
3354.04
3337.62
3317.84
3295.18
3268.95
3239.29
3206
3168.48
3127.85
3081.07
3020
2958.88
2844.5
2839.34
2835.51
2835.43
2836.65
2837.41
2836
2831.74
2825.11
2817.41
2808.95
2800.46
2792.41
2784.94
2778.01
2771.75
2766.4
2762.44
2760.54
2760.25
2761.44
2765.87
2774.45
2785.5
2797.61
2810.14
2822.26
2833.24
2842.72
2850.98
2858.04
2863.51
2867.63
2871.17
2874.47
2877.67
2880.91
2884.33
2888.05
2892.17
2896.7
2901.61
2906.83
2912.3
2917.94
2923.71
2929.6
2935.61
2941.76
2948.08
2954.6
2961.34
2968.31
2975.53
2982.99
2990.7
2998.65
3006.84
3015.26
3023.9
3032.76
3041.83
3051.11
3060.59
3070.26
3080.12
3090.15
3100.36
3110.73
3121.26
3131.95
3142.77
3153.73
3164.81
3176
3187.3
3198.69
3210.15
3221.69
3233.27
3244.9
3256.55
3268.21
3279.86
3291.47
3303.04
3314.52
3325.89
3337.13
3348.21
3359.12
3369.8
3380.21
3390.3
3400.02
3409.34
3418.18
3426.49
3434.18
3441.17
3447.37
3452.63
3456.88
3459.95
3461.73
3462.22
3460.71
3457.48
3452.15
3444.39
3434.25
3421.07
3405.21
3385.66
3362.95
3335.6
3303.43
3266.66
3222.92
3165.26
2958.98
2845.38
2840.61
2837.37
2837.65
2839.27
2839.83
2837.89
2832.69
2825.36
2817.06
2808.17
2799.67
2791.91
2784.95
2778.78
2773.43
2768.85
2765.05
2762.59
2761.76
2762.2
2765.36
2772.51
2782.21
2793.05
2804.95
2817.63
2829.98
2841.04
2850.53
2858.81
2865.46
2870.45
2874.52
2878.18
2881.66
2885.13
2888.73
2892.58
2896.79
2901.4
2906.41
2911.77
2917.4
2923.25
2929.25
2935.38
2941.63
2948.03
2954.58
2961.32
2968.27
2975.45
2982.86
2990.51
2998.41
3006.55
3014.92
3023.54
3032.38
3041.44
3050.72
3060.22
3069.92
3079.83
3089.93
3100.22
3110.69
3121.35
3132.17
3143.16
3154.31
3165.61
3177.05
3188.62
3200.32
3212.13
3224.05
3236.06
3248.15
3260.31
3272.53
3284.81
3297.11
3309.43
3321.75
3334.04
3346.28
3358.46
3370.56
3382.55
3394.41
3406.11
3417.6
3428.86
3439.83
3450.5
3460.78
3470.63
3479.98
3488.76
3496.9
3504.3
3510.86
3516.42
3520.97
3524.26
3526.22
3526.8
3525.17
3521.77
3515.7
3507.09
3495.1
3480.13
3460.1
3435.28
3403.32
3364.38
3310.53
2960.78
2845.92
2841.78
2839.23
2839.87
2841.7
2841.74
2838.91
2832.67
2824.73
2815.8
2806.87
2798.65
2791.31
2784.86
2779.38
2774.87
2771.13
2767.81
2765.15
2763.84
2763.71
2765.68
2771.95
2780.7
2790.32
2801.16
2813.55
2826.62
2839
2849.88
2859.22
2866.89
2872.8
2877.48
2881.54
2885.35
2889.07
2892.87
2896.87
2901.2
2905.91
2911.01
2916.48
2922.25
2928.27
2934.46
2940.8
2947.27
2953.88
2960.65
2967.59
2974.74
2982.1
2989.69
2997.52
3005.59
3013.9
3022.45
3031.24
3040.25
3049.5
3058.97
3068.66
3078.56
3088.67
3098.99
3109.51
3120.22
3131.12
3142.2
3153.46
3164.89
3176.48
3188.23
3200.12
3212.16
3224.34
3236.63
3249.05
3261.57
3274.18
3286.89
3299.67
3312.51
3325.41
3338.35
3351.31
3364.26
3377.21
3390.12
3403
3415.81
3428.55
3441.16
3453.64
3465.94
3478.05
3489.91
3501.5
3512.74
3523.61
3534.06
3544.03
3553.44
3562.2
3570.21
3577.34
3583.39
3588.36
3591.88
3593.95
3594.41
3592.39
3588.29
3581.62
3571.02
3556.47
3533.57
3505.79
3462.78
2964.67
2846.54
2843.11
2841.2
2842.07
2843.75
2843.11
2838.85
2831.65
2822.91
2813.84
2805.22
2797.5
2790.71
2784.8
2779.96
2776.19
2773.19
2770.44
2767.91
2766.25
2765.7
2766.88
2772.18
2780.47
2789.19
2798.89
2810.57
2823.75
2837
2849.07
2859.41
2868.02
2874.8
2880.11
2884.6
2888.73
2892.73
2896.75
2900.93
2905.39
2910.22
2915.42
2920.99
2926.89
2933.05
2939.41
2945.93
2952.59
2959.4
2966.36
2973.49
2980.82
2988.35
2996.11
3004.1
3012.33
3020.8
3029.51
3038.45
3047.63
3057.03
3066.67
3076.53
3086.61
3096.91
3107.42
3118.13
3129.04
3140.15
3151.46
3162.95
3174.62
3186.46
3198.48
3210.65
3222.98
3235.47
3248.09
3260.85
3273.73
3286.73
3299.83
3313.04
3326.35
3339.73
3353.18
3366.68
3380.23
3393.8
3407.39
3420.98
3434.56
3448.13
3461.64
3475.09
3488.44
3501.69
3514.8
3527.75
3540.49
3552.99
3565.23
3577.15
3588.7
3599.82
3610.45
3620.5
3629.92
3638.59
3646.4
3653.12
3658.78
3662.87
3665.47
3666.3
3664.54
3659.74
3648.8
3634.97
3609.23
2971.19
2846.97
2844.6
2843.18
2844.11
2845.1
2843.65
2837.96
2829.43
2820.15
2811.26
2803.21
2796.17
2790.04
2784.78
2780.54
2777.37
2774.95
2772.72
2770.49
2768.75
2767.97
2768.76
2773.17
2781.03
2789.17
2798
2808.81
2821.72
2835.4
2848.34
2859.63
2869.04
2876.58
2882.48
2887.4
2891.85
2896.11
2900.36
2904.73
2909.35
2914.3
2919.61
2925.28
2931.29
2937.57
2944.07
2950.75
2957.58
2964.55
2971.69
2978.99
2986.49
2994.19
3002.11
3010.25
3018.63
3027.24
3036.1
3045.2
3054.52
3064.08
3073.88
3083.9
3094.14
3104.61
3115.3
3126.19
3137.29
3148.6
3160.1
3171.81
3183.7
3195.77
3208.03
3220.45
3233.04
3245.8
3258.7
3271.76
3284.95
3298.28
3311.73
3325.3
3338.98
3352.77
3366.65
3380.61
3394.63
3408.72
3422.85
3437.02
3451.22
3465.44
3479.66
3493.87
3508.04
3522.16
3536.22
3550.2
3564.05
3577.77
3591.31
3604.68
3617.81
3630.69
3643.26
3655.47
3667.29
3678.61
3689.41
3699.52
3708.89
3717.35
3724.76
3730.99
3735.93
3738.96
3739.7
3736.42
3730.03
2979.72
2847.47
2845.86
2844.85
2845.61
2845.68
2843.11
2835.74
2826.19
2816.75
2808.27
2800.92
2794.61
2789.16
2784.57
2780.94
2778.27
2776.31
2774.53
2772.7
2771.13
2770.34
2770.98
2774.83
2782.24
2789.9
2798.09
2808.17
2820.62
2834.42
2847.94
2859.95
2870.07
2878.22
2884.65
2889.97
2894.74
2899.27
2903.74
2908.31
2913.1
2918.18
2923.6
2929.39
2935.5
2941.9
2948.52
2955.33
2962.3
2969.42
2976.71
2984.16
2991.81
2999.65
3007.71
3015.99
3024.51
3033.25
3042.25
3051.47
3060.94
3070.63
3080.57
3090.73
3101.13
3111.75
3122.59
3133.64
3144.91
3156.39
3168.08
3179.97
3192.06
3204.34
3216.81
3229.45
3242.28
3255.28
3268.44
3281.76
3295.23
3308.85
3322.6
3336.49
3350.51
3364.64
3378.88
3393.21
3407.64
3422.14
3436.7
3451.33
3466.02
3480.76
3495.52
3510.3
3525.08
3539.85
3554.59
3569.31
3583.94
3598.51
3612.95
3627.3
3641.48
3655.51
3669.31
3682.85
3696.11
3709.01
3721.53
3733.56
3745.06
3755.95
3766.01
3775.18
3783.33
3790.11
3795.66
3798.31
3801.75
2989.99
2848.45
2846.81
2845.99
2846.38
2845.66
2841.06
2831.94
2821.94
2812.88
2805.09
2798.48
2792.85
2788.06
2784.11
2781.01
2778.82
2777.27
2775.92
2774.5
2773.29
2772.65
2773.36
2777.02
2783.92
2791.16
2798.85
2808.34
2820.37
2834.1
2847.96
2860.5
2871.17
2879.81
2886.67
2892.36
2897.42
2902.2
2906.89
2911.66
2916.61
2921.83
2927.37
2933.26
2939.47
2945.97
2952.7
2959.62
2966.72
2973.98
2981.4
2989
2996.78
3004.77
3012.96
3021.37
3030.01
3038.89
3048
3057.36
3066.95
3076.78