/*--------------------------------*- C++ -*----------------------------------*\
| =========                 |                                                 |
| \\      /  F ield         | OpenFOAM: The Open Source CFD Toolbox           |
|  \\    /   O peration     | Version:  2412                                  |
|   \\  /    A nd           | Website:  www.openfoam.com                      |
|    \\/     M anipulation  |                                                 |
\*---------------------------------------------------------------------------*/
FoamFile
{
    version     2.0;
    format      ascii;
    arch        "LSB;label=32;scalar=64";
    class       volScalarField;
    location    "0.04";
    object      T;
}
// * * * * * * * * * * * * * * * * * * * * * * * * * * * * * * * * * * * * * //

dimensions      [0 0 0 1 0 0 0];

internalField   nonuniform List<scalar> 
78650
(
223
223
223
223
223
223
223.005
223.061
223.278
223.596
223.778
223.834
223.75
223.438
223.059
222.777
222.587
222.449
222.319
222.174
222.013
221.847
221.703
221.623
221.606
221.642
221.731
221.812
221.842
221.839
221.812
221.772
221.736
221.709
221.685
221.661
221.636
221.61
221.584
221.56
221.536
221.514
221.492
221.472
221.453
221.436
221.42
221.406
221.395
221.385
221.377
221.369
221.362
221.355
221.348
221.34
221.332
221.322
221.311
221.297
221.281
221.262
221.238
221.21
221.175
221.134
221.085
221.026
220.958
220.879
220.787
220.68
220.558
220.418
220.258
220.075
219.867
219.632
219.367
219.069
218.733
218.356
217.932
217.458
216.929
216.345
215.699
214.985
214.19
213.317
212.364
211.328
210.176
208.927
207.558
206.093
204.505
202.798
201.026
199.124
197.196
195.118
192.96
190.73
188.392
185.998
183.619
181.276
179.026
176.897
174.852
172.972
171.161
169.37
167.687
166.221
165.099
164.264
163.829
163.828
162.385
223
223
223
223
223
223
223.003
223.04
223.221
223.543
223.771
223.854
223.798
223.53
223.151
222.856
222.661
222.523
222.4
222.264
222.111
221.95
221.797
221.689
221.651
221.664
221.735
221.83
221.883
221.893
221.88
221.847
221.812
221.785
221.765
221.745
221.725
221.703
221.682
221.661
221.642
221.623
221.606
221.59
221.575
221.562
221.55
221.541
221.535
221.53
221.528
221.526
221.525
221.524
221.523
221.523
221.522
221.52
221.517
221.513
221.506
221.497
221.484
221.467
221.445
221.417
221.382
221.339
221.287
221.226
221.153
221.068
220.969
220.853
220.72
220.566
220.391
220.19
219.963
219.706
219.414
219.085
218.715
218.3
217.834
217.316
216.736
216.089
215.371
214.581
213.708
212.748
211.69
210.553
209.31
207.975
206.521
204.928
203.22
201.396
199.483
197.513
195.435
193.338
191.161
188.873
186.587
184.276
181.911
179.62
177.364
175.236
173.282
171.445
169.674
167.966
166.492
165.277
164.536
164.255
162.568
223
223
223
223
223
223
223.001
223.025
223.167
223.48
223.754
223.866
223.832
223.62
223.251
222.942
222.738
222.599
222.482
222.353
222.207
222.053
221.898
221.77
221.706
221.699
221.744
221.841
221.919
221.947
221.945
221.924
221.892
221.865
221.847
221.831
221.815
221.798
221.782
221.765
221.749
221.734
221.721
221.709
221.699
221.69
221.683
221.679
221.677
221.678
221.681
221.685
221.69
221.695
221.702
221.708
221.715
221.721
221.726
221.73
221.733
221.734
221.731
221.726
221.716
221.701
221.68
221.652
221.617
221.573
221.519
221.454
221.376
221.284
221.177
221.051
220.905
220.736
220.544
220.324
220.074
219.79
219.468
219.104
218.694
218.233
217.718
217.144
216.508
215.804
215.025
214.163
213.209
212.17
211.027
209.798
208.441
206.98
205.392
203.673
201.803
199.88
197.823
195.683
193.552
191.296
188.992
186.73
184.358
181.995
179.654
177.335
175.165
173.152
171.319
169.599
168.104
166.887
165.969
165.365
163.194
223
223
223
223
223
223
223.001
223.014
223.119
223.408
223.721
223.87
223.858
223.707
223.358
223.034
222.819
222.678
222.565
222.442
222.302
222.154
222.003
221.864
221.773
221.746
221.766
221.849
221.946
221.999
222.01
222.001
221.976
221.95
221.933
221.92
221.908
221.896
221.883
221.871
221.859
221.848
221.839
221.831
221.825
221.82
221.818
221.818
221.822
221.827
221.836
221.846
221.857
221.868
221.881
221.894
221.908
221.922
221.935
221.948
221.96
221.97
221.978
221.983
221.984
221.982
221.975
221.962
221.941
221.914
221.878
221.832
221.775
221.706
221.623
221.523
221.406
221.269
221.11
220.927
220.717
220.477
220.202
219.89
219.536
219.137
218.688
218.186
217.624
216.997
216.294
215.511
214.645
213.702
212.661
211.528
210.273
208.933
207.473
205.891
204.184
202.312
200.37
198.241
196.081
193.844
191.504
189.186
186.858
184.454
182.152
179.739
177.304
174.952
172.726
170.819
169.228
167.999
167.234
166.826
164.751
223
223
223
223
223
223
223
223.007
223.08
223.331
223.671
223.868
223.881
223.787
223.468
223.133
222.907
222.761
222.65
222.532
222.396
222.252
222.108
221.968
221.856
221.807
221.807
221.863
221.966
222.046
222.077
222.078
222.064
222.041
222.023
222.012
222.004
221.996
221.988
221.979
221.972
221.965
221.96
221.956
221.954
221.954
221.957
221.962
221.97
221.98
221.994
222.01
222.027
222.045
222.064
222.084
222.105
222.126
222.148
222.169
222.189
222.209
222.227
222.243
222.255
222.265
222.271
222.272
222.267
222.255
222.236
222.209
222.172
222.124
222.064
221.99
221.9
221.792
221.665
221.516
221.343
221.142
220.911
220.647
220.344
220.001
219.611
219.171
218.678
218.125
217.505
216.815
216.05
215.207
214.267
213.236
212.093
210.866
209.513
208.059
206.489
204.749
202.932
200.931
198.805
196.608
194.304
191.884
189.528
187.062
184.672
182.37
179.957
177.57
175.131
172.784
170.745
168.997
167.872
167.301
164.88
223
223
223
223
223
223
223
223.004
223.049
223.254
223.603
223.854
223.901
223.852
223.579
223.242
223.002
222.846
222.734
222.62
222.489
222.35
222.214
222.079
221.958
221.884
221.865
221.892
221.983
222.084
222.142
222.157
222.154
222.137
222.119
222.109
222.103
222.098
222.095
222.091
222.087
222.085
222.084
222.085
222.087
222.092
222.099
222.108
222.121
222.137
222.156
222.177
222.2
222.224
222.25
222.277
222.305
222.333
222.362
222.392
222.421
222.449
222.477
222.503
222.527
222.548
222.566
222.58
222.589
222.593
222.591
222.581
222.564
222.536
222.499
222.448
222.384
222.305
222.208
222.092
221.955
221.794
221.606
221.387
221.135
220.846
220.514
220.139
219.715
219.236
218.695
218.088
217.408
216.653
215.81
214.882
213.856
212.744
211.504
210.167
208.692
207.108
205.38
203.534
201.514
199.388
197.156
194.801
192.364
189.857
187.181
184.678
182.223
179.888
177.651
175.476
173.489
171.752
170.26
169.19
166.074
223
223
223
223
223
223
223
223.001
223.027
223.182
223.519
223.824
223.916
223.901
223.692
223.361
223.102
222.931
222.816
222.707
222.582
222.449
222.32
222.195
222.074
221.98
221.941
221.946
222.008
222.114
222.2
222.238
222.244
222.236
222.221
222.211
222.206
222.204
222.204
222.205
222.206
222.208
222.212
222.217
222.224
222.233
222.245
222.259
222.276
222.297
222.321
222.348
222.377
222.408
222.44
222.473
222.508
222.544
222.581
222.618
222.655
222.693
222.73
222.766
222.801
222.833
222.863
222.89
222.913
222.932
222.945
222.952
222.953
222.946
222.929
222.902
222.862
222.809
222.741
222.656
222.551
222.426
222.277
222.101
221.895
221.655
221.379
221.063
220.701
220.29
219.824
219.299
218.708
218.046
217.304
216.483
215.568
214.56
213.43
212.204
210.837
209.37
207.777
206.046
204.181
202.152
200.023
197.776
195.401
192.994
190.366
187.672
184.894
182.067
179.421
176.992
174.873
173.105
171.816
170.982
168.018
223
223
223
223
223
223
223
223.001
223.014
223.119
223.424
223.773
223.919
223.94
223.801
223.487
223.202
223.015
222.896
222.795
222.679
222.552
222.429
222.314
222.2
222.096
222.034
222.021
222.05
222.142
222.248
222.314
222.336
222.336
222.327
222.318
222.313
222.313
222.316
222.321
222.327
222.334
222.342
222.352
222.364
222.377
222.393
222.412
222.435
222.46
222.49
222.522
222.557
222.594
222.632
222.672
222.714
222.757
222.801
222.846
222.891
222.938
222.984
223.029
223.074
223.118
223.16
223.199
223.235
223.268
223.296
223.32
223.337
223.348
223.352
223.346
223.331
223.303
223.262
223.207
223.134
223.044
222.933
222.798
222.637
222.447
222.223
221.962
221.662
221.317
220.923
220.475
219.964
219.387
218.738
218.014
217.201
216.299
215.286
214.179
212.945
211.611
210.127
208.518
206.776
204.843
202.812
200.601
198.305
195.95
193.512
190.985
188.441
185.69
182.899
180.053
177.355
174.969
173.091
171.818
168.029
223
223
223
223
223
223
223
223
223.006
223.071
223.324
223.699
223.911
223.974
223.894
223.61
223.303
223.101
222.979
222.885
222.78
222.66
222.542
222.434
222.33
222.227
222.147
222.113
222.118
222.177
222.284
222.378
222.425
222.437
222.435
222.428
222.423
222.424
222.43
222.439
222.449
222.461
222.475
222.49
222.506
222.524
222.545
222.569
222.596
222.627
222.661
222.699
222.74
222.783
222.827
222.874
222.922
222.972
223.024
223.076
223.13
223.185
223.24
223.295
223.35
223.404
223.457
223.508
223.557
223.603
223.646
223.685
223.719
223.748
223.77
223.785
223.791
223.788
223.773
223.746
223.702
223.644
223.567
223.47
223.35
223.204
223.028
222.82
222.577
222.295
221.969
221.594
221.163
220.672
220.115
219.489
218.78
217.988
217.096
216.113
215.012
213.81
212.46
210.994
209.374
207.622
205.718
203.61
201.313
198.887
196.436
193.762
191.142
188.471
185.803
183.206
180.612
178.352
176.409
174.941
170.856
223
223
223
223
223
223
223
223
223.002
223.038
223.228
223.602
223.89
224
223.957
223.728
223.413
223.196
223.066
222.976
222.883
222.772
222.66
222.557
222.461
222.365
222.277
222.222
222.207
222.231
222.317
222.427
222.504
222.535
222.541
222.539
222.536
222.538
222.546
222.558
222.573
222.59
222.609
222.629
222.65
222.673
222.699
222.728
222.76
222.795
222.835
222.878
222.924
222.973
223.024
223.077
223.132
223.189
223.247
223.307
223.369
223.431
223.495
223.559
223.623
223.687
223.751
223.814
223.875
223.934
223.991
224.044
224.094
224.14
224.181
224.215
224.242
224.26
224.269
224.269
224.255
224.228
224.185
224.124
224.043
223.94
223.811
223.654
223.464
223.24
222.977
222.67
222.313
221.902
221.431
220.896
220.286
219.601
218.829
217.969
216.996
215.92
214.706
213.384
211.908
210.305
208.553
206.644
204.565
202.285
199.909
197.204
194.391
191.549
188.499
185.569
182.697
180.196
178.229
176.872
172.841
223
223
223
223
223
223
223
223
223.001
223.018
223.146
223.489
223.846
224.008
223.998
223.841
223.534
223.297
223.155
223.068
222.987
222.889
222.782
222.681
222.591
222.503
222.415
222.344
222.31
222.31
222.358
222.462
222.566
222.626
222.647
222.651
222.651
222.654
222.663
222.679
222.698
222.72
222.744
222.769
222.796
222.824
222.855
222.888
222.925
222.965
223.01
223.059
223.111
223.165
223.222
223.281
223.343
223.406
223.472
223.539
223.608
223.678
223.75
223.823
223.897
223.971
224.045
224.118
224.191
224.263
224.333
224.4
224.465
224.527
224.584
224.637
224.684
224.724
224.755
224.778
224.791
224.793
224.78
224.753
224.708
224.643
224.557
224.445
224.306
224.137
223.933
223.692
223.406
223.073
222.686
222.24
221.727
221.145
220.48
219.729
218.873
217.917
216.835
215.648
214.312
212.848
211.215
209.436
207.528
205.452
203.178
200.744
198.147
195.534
192.602
189.655
186.583
183.722
181.161
179.181
174.093
223
223
223
223
223
223
223
223
223
223.007
223.084
223.37
223.769
224.001
224.028
223.943
223.659
223.4
223.247
223.161
223.092
223.007
222.906
222.805
222.716
222.633
222.552
222.475
222.422
222.405
222.42
222.497
222.61
222.701
222.747
222.762
222.767
222.772
222.782
222.801
222.824
222.851
222.879
222.91
222.942
222.975
223.011
223.05
223.091
223.137
223.186
223.24
223.297
223.358
223.42
223.485
223.553
223.623
223.695
223.769
223.846
223.924
224.003
224.085
224.167
224.25
224.334
224.418
224.502
224.585
224.667
224.748
224.827
224.904
224.978
225.048
225.113
225.173
225.226
225.273
225.31
225.337
225.354
225.359
225.349
225.322
225.276
225.209
225.117
224.999
224.85
224.669
224.449
224.186
223.875
223.511
223.088
222.602
222.04
221.4
220.666
219.841
218.902
217.859
216.67
215.355
213.869
212.242
210.439
208.457
206.248
203.869
201.298
198.622
195.78
192.915
189.95
187.138
184.631
182.649
177.774
223
223
223
223
223
223
223
223
223
223.003
223.043
223.257
223.663
223.974
224.054
224.018
223.779
223.507
223.345
223.256
223.195
223.12
223.025
222.924
222.834
222.755
222.681
222.607
222.545
222.511
222.507
222.544
222.646
222.76
222.836
222.871
222.884
222.892
222.904
222.924
222.951
222.982
223.016
223.051
223.088
223.127
223.168
223.212
223.258
223.308
223.363
223.421
223.484
223.55
223.618
223.689
223.763
223.839
223.918
223.999
224.082
224.167
224.255
224.344
224.435
224.527
224.62
224.714
224.808
224.902
224.996
225.09
225.182
225.273
225.362
225.449
225.531
225.61
225.683
225.751
225.811
225.864
225.907
225.939
225.96
225.967
225.959
225.932
225.884
225.812
225.715
225.59
225.431
225.236
224.999
224.714
224.377
223.982
223.52
222.988
222.373
221.675
220.873
219.969
218.934
217.782
216.474
215.028
213.401
211.611
209.641
207.451
205.08
202.347
199.485
196.284
193.163
190.025
187.184
184.887
179.063
223
223
223
223
223
223
223
223
223
223.001
223.019
223.163
223.54
223.923
224.066
224.065
223.896
223.624
223.445
223.347
223.289
223.223
223.136
223.039
222.95
222.873
222.805
222.738
222.675
222.629
222.611
222.62
222.69
222.808
222.912
222.973
223.001
223.015
223.03
223.051
223.08
223.115
223.153
223.193
223.235
223.279
223.325
223.374
223.425
223.48
223.539
223.602
223.67
223.741
223.815
223.891
223.971
224.053
224.138
224.225
224.315
224.407
224.502
224.599
224.697
224.798
224.899
225.002
225.107
225.211
225.317
225.422
225.527
225.631
225.734
225.835
225.934
226.03
226.122
226.21
226.292
226.368
226.437
226.497
226.546
226.584
226.609
226.62
226.615
226.588
226.539
226.465
226.362
226.228
226.057
225.845
225.587
225.279
224.912
224.483
223.979
223.398
222.72
221.946
221.052
220.044
218.887
217.596
216.127
214.506
212.702
210.714
208.518
206.066
203.469
200.585
197.675
194.686
191.806
189.296
183.289
223
223
223
223
223
223
223
223
223
223
223.008
223.093
223.411
223.843
224.058
224.103
224.001
223.743
223.539
223.429
223.372
223.318
223.244
223.153
223.065
222.989
222.925
222.865
222.807
222.758
222.729
222.722
222.754
222.855
222.978
223.068
223.116
223.14
223.158
223.181
223.211
223.249
223.291
223.335
223.381
223.43
223.481
223.535
223.591
223.65
223.714
223.781
223.854
223.93
224.009
224.091
224.176
224.264
224.355
224.448
224.544
224.643
224.745
224.849
224.955
225.063
225.173
225.285
225.399
225.513
225.629
225.745
225.862
225.979
226.095
226.211
226.325
226.437
226.546
226.652
226.754
226.852
226.943
227.027
227.104
227.171
227.227
227.271
227.3
227.313
227.311
227.284
227.235
227.156
227.048
226.904
226.721
226.493
226.213
225.878
225.476
225.002
224.442
223.795
223.04
222.179
221.182
220.053
218.756
217.31
215.666
213.824
211.754
209.452
206.898
204.123
201.059
197.876
194.981
192.652
187.115
223
223
223
223
223
223
223
223
223
223
223.003
223.048
223.292
223.738
224.034
224.137
224.083
223.849
223.627
223.506
223.452
223.409
223.349
223.267
223.179
223.104
223.042
222.989
222.939
222.893
222.858
222.843
222.851
222.916
223.038
223.154
223.227
223.266
223.291
223.315
223.346
223.385
223.43
223.477
223.528
223.581
223.636
223.694
223.755
223.819
223.887
223.959
224.036
224.117
224.201
224.288
224.378
224.472
224.568
224.667
224.769
224.874
224.982
225.093
225.206
225.322
225.44
225.559
225.681
225.805
225.931
226.057
226.184
226.313
226.441
226.57
226.698
226.825
226.95
227.074
227.194
227.311
227.424
227.531
227.632
227.726
227.811
227.887
227.951
228
228.034
228.052
228.053
228.026
227.975
227.893
227.777
227.622
227.423
227.176
226.87
226.503
226.061
225.542
224.928
224.217
223.382
222.424
221.311
220.056
218.613
216.984
215.135
213.078
210.797
208.25
205.432
202.343
199.113
196.256
189.977
223
223
223
223
223
223
223
223
223
223
223.001
223.023
223.192
223.617
223.998
224.154
224.132
223.948
223.715
223.584
223.531
223.498
223.45
223.377
223.292
223.218
223.159
223.111
223.069
223.03
222.997
222.976
222.972
223.003
223.103
223.231
223.331
223.389
223.423
223.45
223.482
223.522
223.569
223.62
223.674
223.731
223.79
223.852
223.917
223.986
224.058
224.134
224.215
224.301
224.39
224.481
224.577
224.675
224.776
224.881
224.989
225.099
225.213
225.33
225.45
225.573
225.698
225.826
225.956
226.088
226.222
226.358
226.496
226.635
226.775
226.916
227.057
227.197
227.337
227.476
227.614
227.748
227.88
228.008
228.132
228.25
228.361
228.465
228.559
228.642
228.713
228.769
228.809
228.831
228.834
228.808
228.755
228.668
228.544
228.377
228.161
227.892
227.558
227.154
226.664
226.083
225.389
224.581
223.631
222.537
221.259
219.818
218.173
216.308
214.168
211.78
209.147
206.392
203.273
200.744
195.412
223
223
223
223
223
223
223
223
223
223
223
223.01
223.119
223.494
223.94
224.157
224.164
224.039
223.803
223.662
223.607
223.58
223.543
223.481
223.403
223.331
223.277
223.233
223.197
223.166
223.137
223.115
223.105
223.114
223.181
223.305
223.424
223.506
223.554
223.586
223.619
223.66
223.708
223.762
223.819
223.879
223.942
224.008
224.077
224.15
224.226
224.306
224.391
224.481
224.574
224.671
224.77
224.873
224.98
225.089
225.202
225.318
225.438
225.56
225.687
225.816
225.948
226.082
226.22
226.36
226.502
226.647
226.794
226.942
227.093
227.245
227.397
227.551
227.704
227.857
228.01
228.161
228.311
228.458
228.602
228.741
228.877
229.006
229.128
229.242
229.345
229.438
229.518
229.581
229.627
229.653
229.658
229.632
229.577
229.484
229.35
229.169
228.932
228.634
228.259
227.805
227.252
226.599
225.815
224.897
223.814
222.574
221.13
219.467
217.542
215.367
212.916
210.304
207.261
204.339
198.629
223
223
223
223
223
223
223
223
223
223
223
223.004
223.07
223.38
223.862
224.148
224.191
224.115
223.887
223.733
223.675
223.654
223.63
223.582
223.512
223.444
223.393
223.353
223.32
223.293
223.27
223.249
223.238
223.237
223.274
223.378
223.508
223.611
223.676
223.718
223.754
223.796
223.846
223.903
223.963
224.026
224.092
224.161
224.234
224.31
224.39
224.474
224.563
224.657
224.754
224.855
224.959
225.066
225.177
225.291
225.409
225.53
225.655
225.783
225.915
226.05
226.188
226.329
226.474
226.621
226.771
226.924
227.079
227.237
227.397
227.559
227.722
227.887
228.053
228.219
228.385
228.551
228.717
228.881
229.043
229.203
229.359
229.511
229.658
229.799
229.932
230.056
230.17
230.272
230.36
230.431
230.483
230.513
230.52
230.495
230.435
230.335
230.188
229.989
229.726
229.397
228.981
228.476
227.852
227.109
226.215
225.167
223.916
222.462
220.768
218.845
216.649
214.237
211.626
208.969
204.012
223
223
223
223
223
223
223
223
223
223
223
223.002
223.04
223.285
223.774
224.127
224.213
224.174
223.96
223.798
223.738
223.724
223.713
223.68
223.618
223.553
223.504
223.465
223.434
223.41
223.391
223.375
223.364
223.36
223.378
223.457
223.584
223.704
223.789
223.843
223.885
223.929
223.981
224.04
224.103
224.169
224.239
224.311
224.387
224.467
224.55
224.638
224.731
224.828
224.929
225.034
225.142
225.254
225.369
225.487
225.609
225.735
225.865
225.998
226.135
226.276
226.419
226.567
226.717
226.871
227.028
227.188
227.351
227.517
227.685
227.856
228.03
228.205
228.381
228.559
228.738
228.917
229.097
229.277
229.455
229.632
229.808
229.98
230.15
230.315
230.474
230.627
230.772
230.908
231.033
231.145
231.242
231.32
231.378
231.412
231.422
231.396
231.332
231.224
231.061
230.84
230.544
230.167
229.686
229.099
228.37
227.493
226.432
225.19
223.72
222.003
219.973
217.716
215.113
212.433
207.776
223
223
223
223
223
223
223
223
223
223
223
223.001
223.023
223.212
223.687
224.099
224.234
224.212
224.023
223.858
223.799
223.792
223.79
223.771
223.717
223.654
223.605
223.568
223.539
223.517
223.501
223.49
223.483
223.48
223.49
223.544
223.657
223.788
223.891
223.96
224.009
224.056
224.111
224.173
224.239
224.308
224.381
224.457
224.536
224.619
224.706
224.797
224.893
224.994
225.099
225.208
225.32
225.435
225.554
225.677
225.803
225.933
226.067
226.204
226.346
226.492
226.641
226.793
226.95
227.109
227.273
227.44
227.61
227.783
227.959
228.138
228.321
228.505
228.692
228.88
229.07
229.261
229.454
229.647
229.84
230.033
230.225
230.416
230.605
230.791
230.974
231.151
231.324
231.489
231.647
231.795
231.931
232.053
232.16
232.246
232.311
232.35
232.361
232.333
232.261
232.139
231.953
231.702
231.364
230.935
230.382
229.702
228.855
227.834
226.586
225.09
223.318
221.311
218.986
216.515
212.43
223
223
223
223
223
223
223
223
223
223
223
223
223.013
223.16
223.61
224.07
224.246
224.238
224.077
223.916
223.857
223.856
223.862
223.852
223.806
223.746
223.7
223.665
223.637
223.618
223.605
223.599
223.596
223.597
223.604
223.64
223.733
223.865
223.984
224.067
224.125
224.177
224.235
224.3
224.37
224.442
224.518
224.597
224.68
224.766
224.856
224.951
225.051
225.155
225.264
225.376
225.491
225.61
225.733
225.859
225.989
226.123
226.261
226.403
226.549
226.699
226.853
227.01
227.172
227.337
227.506
227.679
227.855
228.035
228.218
228.405
228.595
228.788
228.983
229.181
229.381
229.583
229.787
229.992
230.198
230.405
230.612
230.819
231.025
231.23
231.432
231.632
231.828
232.02
232.206
232.385
232.556
232.716
232.864
232.998
233.115
233.21
233.281
233.324
233.336
233.306
233.225
233.089
232.879
232.59
232.194
231.686
231.024
230.2
229.163
227.896
226.363
224.528
222.4
219.948
216.29
223
223
223
223
223
223
223
223
223
223
223
223
223.009
223.125
223.548
224.043
224.253
224.259
224.123
223.97
223.912
223.915
223.928
223.923
223.887
223.832
223.789
223.757
223.733
223.716
223.707
223.704
223.705
223.71
223.717
223.743
223.816
223.941
224.07
224.166
224.234
224.291
224.352
224.42
224.493
224.57
224.649
224.732
224.818
224.908
225.001
225.099
225.202
225.31
225.422
225.537
225.656
225.778
225.905
226.034
226.168
226.305
226.447
226.592
226.743
226.897
227.055
227.217
227.383
227.553
227.727
227.906
228.088
228.274
228.463
228.657
228.853
229.054
229.257
229.463
229.672
229.883
230.097
230.313
230.53
230.749
230.97
231.19
231.412
231.633
231.853
232.072
232.289
232.503
232.714
232.92
233.121
233.314
233.498
233.672
233.833
233.978
234.106
234.211
234.289
234.335
234.348
234.311
234.215
234.052
233.802
233.459
232.982
232.365
231.551
230.531
229.235
227.623
225.729
223.402
220.1
223
223
223
223
223
223
223
223
223
223
223
223
223.006
223.103
223.504
224.021
224.257
224.277
224.16
224.018
223.963
223.969
223.989
223.989
223.961
223.913
223.874
223.847
223.826
223.813
223.807
223.806
223.812
223.82
223.829
223.85
223.907
224.02
224.153
224.261
224.337
224.399
224.463
224.534
224.611
224.691
224.774
224.861
224.95
225.044
225.141
225.242
225.349
225.46
225.575
225.693
225.815
225.941
226.07
226.203
226.339
226.48
226.625
226.774
226.928
227.086
227.248
227.414
227.585
227.759
227.938
228.121
228.308
228.499
228.695
228.894
229.097
229.304
229.514
229.728
229.944
230.164
230.386
230.612
230.839
231.069
231.3
231.534
231.768
232.003
232.239
232.474
232.709
232.943
233.175
233.405
233.63
233.852
234.067
234.275
234.474
234.663
234.838
234.996
235.136
235.25
235.336
235.386
235.399
235.355
235.245
235.058
234.763
234.355
233.779
233.023
231.991
230.645
228.952
226.768
223.666
223
223
223
223
223
223
223
223
223
223
223
223
223.005
223.093
223.48
224.012
224.262
224.292
224.189
224.058
224.01
224.019
224.049
224.052
224.03
223.988
223.955
223.933
223.917
223.907
223.904
223.906
223.915
223.927
223.939
223.958
224.005
224.105
224.237
224.352
224.436
224.503
224.569
224.643
224.723
224.807
224.894
224.984
225.077
225.174
225.274
225.379
225.489
225.603
225.721
225.843
225.968
226.096
226.228
226.364
226.504
226.647
226.795
226.948
227.105
227.267
227.432
227.602
227.776
227.954
228.137
228.325
228.517
228.713
228.913
229.118
229.326
229.539
229.756
229.975
230.199
230.426
230.656
230.889
231.126
231.365
231.606
231.85
232.096
232.343
232.592
232.842
233.092
233.343
233.593
233.843
234.09
234.335
234.577
234.814
235.046
235.27
235.486
235.69
235.881
236.054
236.208
236.333
236.427
236.482
236.493
236.436
236.297
236.059
235.681
235.153
234.378
233.329
231.877
229.924
227.033
223
223
223
223
223
223
223
223
223
223
223
223
223.005
223.092
223.476
224.013
224.27
224.305
224.21
224.091
224.053
224.069
224.106
224.112
224.094
224.057
224.031
224.013
224.002
223.997
223.997
224.002
224.015
224.029
224.045
224.064
224.106
224.195
224.323
224.444
224.533
224.604
224.673
224.749
224.832
224.92
225.01
225.103
225.199
225.299
225.403
225.511
225.624
225.741
225.862
225.987
226.114
226.246
226.38
226.519
226.661
226.808
226.959
227.114
227.274
227.439
227.608
227.781
227.958
228.14
228.327
228.519
228.715
228.915
229.12
229.329
229.543
229.761
229.983
230.209
230.438
230.672
230.909
231.149
231.393
231.641
231.891
232.144
232.4
232.658
232.918
233.18
233.444
233.709
233.975
234.241
234.507
234.773
235.037
235.299
235.558
235.813
236.062
236.305
236.539
236.761
236.97
237.16
237.329
237.466
237.569
237.629
237.638
237.562
237.394
237.109
236.643
235.953
234.81
233.199
230.479
223
223
223
223
223
223
223
223
223
223
223
223
223.006
223.095
223.49
224.027
224.282
224.315
224.224
224.119
224.094
224.121
224.164
224.17
224.153
224.121
224.1
224.087
224.081
224.08
224.083
224.093
224.108
224.127
224.146
224.168
224.208
224.289
224.413
224.536
224.631
224.704
224.775
224.853
224.939
225.029
225.121
225.217
225.317
225.419
225.526
225.637
225.753
225.873
225.997
226.124
226.255
226.388
226.526
226.667
226.812
226.961
227.114
227.273
227.436
227.603
227.775
227.951
228.132
228.317
228.507
228.703
228.902
229.107
229.316
229.529
229.748
229.97
230.197
230.428
230.664
230.903
231.146
231.393
231.644
231.898
232.156
232.417
232.682
232.949
233.22
233.493
233.768
234.045
234.324
234.606
234.888
235.171
235.454
235.737
236.019
236.3
236.577
236.852
237.121
237.385
237.639
237.882
238.112
238.322
238.512
238.667
238.788
238.853
238.861
238.759
238.538
238.139
237.373
236.308
234.068
223
223
223
223
223
223
223
223
223
223
223
223
223.007
223.108
223.523
224.055
224.298
224.323
224.233
224.142
224.133
224.174
224.222
224.226
224.209
224.181
224.164
224.155
224.153
224.155
224.164
224.178
224.196
224.219
224.243
224.268
224.308
224.386
224.506
224.631
224.729
224.805
224.877
224.957
225.044
225.136
225.23
225.328
225.43
225.535
225.645
225.759
225.877
226
226.127
226.256
226.389
226.525
226.665
226.808
226.956
227.107
227.263
227.424
227.59
227.76
227.935
228.114
228.298
228.486
228.679
228.878
229.081
229.289
229.502
229.72
229.942
230.169
230.401
230.636
230.877
231.121
231.37
231.622
231.879
232.14
232.405
232.674
232.946
233.222
233.501
233.784
234.069
234.357
234.648
234.942
235.238
235.536
235.836
236.137
236.438
236.741
237.043
237.344
237.643
237.94
238.233
238.52
238.799
239.067
239.322
239.558
239.771
239.943
240.075
240.139
240.144
240.007
239.664
239.112
237.736
223
223
223
223
223
223
223
223
223
223
223
223
223.009
223.131
223.573
224.092
224.315
224.329
224.239
224.162
224.17
224.229
224.279
224.281
224.264
224.238
224.225
224.22
224.22
224.226
224.239
224.256
224.279
224.306
224.334
224.364
224.406
224.484
224.602
224.727
224.827
224.905
224.979
225.06
225.148
225.241
225.337
225.436
225.54
225.647
225.759
225.875
225.996
226.122
226.25
226.382
226.517
226.656
226.798
226.943
227.093
227.247
227.405
227.569
227.737
227.91
228.087
228.269
228.455
228.647
228.843
229.045
229.251
229.463
229.679
229.901
230.127
230.358
230.594
230.834
231.079
231.328
231.582
231.84
232.103
232.37
232.641
232.916
233.196
233.479
233.766
234.057
234.352
234.65
234.951
235.256
235.565
235.876
236.19
236.506
236.825
237.145
237.468
237.792
238.116
238.441
238.764
239.087
239.406
239.721
240.028
240.327
240.614
240.884
241.13
241.329
241.495
241.586
241.608
241.397
240.937
223
223
223
223
223
223
223
223
223
223
223
223
223.014
223.166
223.639
224.135
224.332
224.333
224.245
224.182
224.204
224.281
224.332
224.333
224.316
224.295
224.285
224.282
224.286
224.295
224.311
224.331
224.358
224.389
224.422
224.456
224.502
224.581
224.698
224.824
224.925
225.005
225.079
225.161
225.25
225.343
225.44
225.541
225.646
225.755
225.868
225.987
226.11
226.238
226.369
226.503
226.64
226.78
226.924
227.072
227.224
227.38
227.541
227.706
227.877
228.052
228.232
228.416
228.605
228.799
228.999
229.203
229.413
229.628
229.848
230.073
230.302
230.537
230.777
231.021
231.27
231.524
231.783
232.046
232.314
232.586
232.863
233.145
233.431
233.721
234.015
234.314
234.617
234.924
235.234
235.549
235.868
236.191
236.517
236.847
237.18
237.517
237.856
238.199
238.544
238.892
239.241
239.591
239.943
240.294
240.644
240.991
241.333
241.667
241.988
242.29
242.568
242.809
243.037
243.141
243.214
223
223
223
223
223
223
223
223
223
223
223
223.001
223.022
223.214
223.718
224.18
224.348
224.338
224.253
224.206
224.241
224.328
224.378
224.379
224.364
224.348
224.343
224.343
224.35
224.363
224.381
224.405
224.435
224.47
224.506
224.543
224.593
224.675
224.793
224.918
225.02
225.101
225.177
225.259
225.349
225.442
225.54
225.641
225.747
225.858
225.973
226.094
226.219
226.349
226.481
226.617
226.756
226.899
227.045
227.194
227.348
227.506
227.669
227.837
228.01
228.188
228.37
228.556
228.748
228.944
229.147
229.354
229.567
229.785
230.008
230.236
230.469
230.708
230.951
231.2
231.453
231.711
231.974
232.242
232.515
232.792
233.075
233.362
233.654
233.95
234.251
234.557
234.868
235.182
235.502
235.826
236.154
236.487
236.824
237.166
237.511
237.861
238.215
238.573
238.936
239.301
239.671
240.044
240.419
240.798
241.177
241.558
241.937
242.315
242.687
243.051
243.4
243.74
244.045
244.285
244.533
223
223
223
223
223
223
223
223
223
223
223
223.001
223.035
223.277
223.804
224.221
224.36
224.342
224.264
224.234
224.285
224.374
224.417
224.417
224.405
224.396
224.396
224.401
224.412
224.428
224.448
224.475
224.508
224.546
224.585
224.626
224.68
224.765
224.885
225.009
225.111
225.193
225.27
225.354
225.444
225.538
225.635
225.737
225.844
225.956
226.073
226.196
226.323
226.454
226.588
226.725
226.866
227.011
227.158
227.309
227.465
227.625
227.791
227.961
228.136
228.315
228.5
228.688
228.882
229.082
229.286
229.497
229.712
229.933
230.159
230.391
230.627
230.869
231.116
231.368
231.625
231.887
232.154
232.426
232.704
232.986
233.273
233.566
233.863