/*--------------------------------*- C++ -*----------------------------------*\
| =========                 |                                                 |
| \\      /  F ield         | OpenFOAM: The Open Source CFD Toolbox           |
|  \\    /   O peration     | Version:  2412                                  |
|   \\  /    A nd           | Website:  www.openfoam.com                      |
|    \\/     M anipulation  |                                                 |
\*---------------------------------------------------------------------------*/
FoamFile
{
    version     2.0;
    format      ascii;
    arch        "LSB;label=32;scalar=64";
    class       volScalarField;
    location    "0.04";
    object      T;
}
// * * * * * * * * * * * * * * * * * * * * * * * * * * * * * * * * * * * * * //

dimensions      [0 0 0 1 0 0 0];

internalField   nonuniform List<scalar> 
78650
(
223
223
223
223
223
223
223.005
223.061
223.278
223.596
223.778
223.834
223.75
223.438
223.059
222.777
222.587
222.449
222.319
222.174
222.013
221.847
221.703
221.623
221.606
221.642
221.731
221.812
221.842
221.839
221.812
221.772
221.736
221.709
221.685
221.661
221.635
221.609
221.584
221.56
221.536
221.514
221.492
221.472
221.453
221.436
221.42
221.406
221.395
221.385
221.377
221.37
221.362
221.355
221.347
221.34
221.332
221.323
221.312
221.299
221.282
221.262
221.238
221.209
221.175
221.133
221.085
221.027
220.959
220.879
220.787
220.681
220.56
220.42
220.259
220.077
219.869
219.634
219.368
219.068
218.731
218.352
217.929
217.458
216.933
216.351
215.704
214.984
214.183
213.305
212.347
211.313
210.175
208.94
207.578
206.114
204.542
202.854
200.993
199.061
197.07
195.078
192.893
190.612
188.255
185.786
183.442
181.162
178.973
176.987
174.997
173.083
171.227
169.394
167.717
166.259
165.146
164.355
163.913
163.698
162.092
223
223
223
223
223
223
223.003
223.04
223.221
223.543
223.771
223.854
223.798
223.53
223.151
222.856
222.661
222.523
222.4
222.264
222.111
221.95
221.797
221.689
221.651
221.664
221.735
221.83
221.883
221.893
221.88
221.847
221.812
221.785
221.765
221.745
221.724
221.703
221.682
221.661
221.641
221.623
221.605
221.59
221.575
221.562
221.551
221.542
221.535
221.531
221.528
221.526
221.525
221.524
221.523
221.522
221.522
221.521
221.518
221.514
221.507
221.497
221.484
221.466
221.444
221.416
221.382
221.339
221.288
221.227
221.154
221.069
220.97
220.855
220.722
220.568
220.393
220.193
219.965
219.706
219.413
219.083
218.713
218.299
217.834
217.314
216.732
216.085
215.369
214.584
213.719
212.768
211.713
210.571
209.322
207.987
206.538
204.956
203.253
201.442
199.496
197.501
195.437
193.278
191.144
188.809
186.448
184.127
181.715
179.457
177.308
175.179
173.184
171.257
169.483
167.869
166.579
165.644
165.061
164.765
162.993
223
223
223
223
223
223
223.001
223.025
223.167
223.48
223.754
223.866
223.832
223.62
223.251
222.942
222.738
222.599
222.482
222.353
222.207
222.053
221.898
221.77
221.706
221.699
221.744
221.841
221.919
221.947
221.945
221.924
221.892
221.865
221.847
221.831
221.815
221.798
221.781
221.765
221.749
221.734
221.721
221.709
221.699
221.69
221.684
221.679
221.678
221.678
221.681
221.685
221.69
221.695
221.701
221.708
221.714
221.721
221.727
221.731
221.734
221.734
221.731
221.725
221.715
221.7
221.68
221.653
221.617
221.573
221.519
221.454
221.377
221.286
221.178
221.052
220.907
220.739
220.546
220.325
220.073
219.788
219.465
219.101
218.692
218.234
217.721
217.15
216.514
215.809
215.025
214.159
213.201
212.158
211.007
209.774
208.427
206.984
205.437
203.743
201.931
199.954
197.949
195.766
193.593
191.374
188.987
186.693
184.304
181.863
179.585
177.272
175.047
172.982
171.031
169.222
167.677
166.443
165.737
165.469
163.725
223
223
223
223
223
223
223.001
223.014
223.119
223.408
223.721
223.87
223.858
223.707
223.358
223.034
222.819
222.678
222.565
222.442
222.302
222.154
222.003
221.864
221.773
221.746
221.766
221.849
221.946
221.999
222.01
222.001
221.976
221.95
221.932
221.92
221.908
221.895
221.883
221.871
221.859
221.848
221.838
221.831
221.825
221.821
221.819
221.819
221.822
221.828
221.836
221.846
221.857
221.868
221.881
221.894
221.908
221.922
221.936
221.949
221.96
221.97
221.978
221.983
221.984
221.982
221.974
221.962
221.942
221.915
221.878
221.833
221.776
221.707
221.624
221.525
221.408
221.271
221.113
220.929
220.717
220.476
220.2
219.888
219.536
219.138
218.689
218.185
217.621
216.992
216.289
215.507
214.64
213.695
212.66
211.543
210.298
208.952
207.473
205.875
204.18
202.317
200.399
198.334
196.108
193.956
191.608
189.211
186.925
184.47
182.067
179.71
177.32
175.089
172.942
170.929
169.226
167.807
166.795
166.168
163.783
223
223
223
223
223
223
223
223.007
223.08
223.331
223.671
223.868
223.881
223.787
223.468
223.133
222.907
222.761
222.65
222.532
222.396
222.252
222.108
221.968
221.856
221.807
221.807
221.863
221.966
222.046
222.077
222.078
222.064
222.041
222.023
222.012
222.004
221.995
221.987
221.979
221.971
221.965
221.959
221.956
221.954
221.955
221.957
221.962
221.97
221.981
221.994
222.01
222.027
222.045
222.064
222.084
222.105
222.126
222.148
222.17
222.19
222.209
222.227
222.242
222.255
222.265
222.27
222.272
222.267
222.256
222.237
222.21
222.173
222.125
222.065
221.991
221.902
221.794
221.667
221.518
221.344
221.142
220.91
220.645
220.343
219.999
219.61
219.172
218.68
218.128
217.508
216.818
216.053
215.213
214.278
213.25
212.106
210.875
209.515
208.048
206.458
204.732
202.838
200.915
198.825
196.599
194.382
191.94
189.596
187.141
184.624
182.241
179.807
177.44
175.146
173.002
171.168
169.628
168.513
167.799
165.163
223
223
223
223
223
223
223
223.004
223.049
223.254
223.603
223.854
223.901
223.852
223.579
223.242
223.002
222.846
222.734
222.62
222.489
222.35
222.214
222.079
221.958
221.884
221.865
221.892
221.983
222.084
222.142
222.157
222.154
222.137
222.119
222.109
222.103
222.098
222.094
222.091
222.087
222.085
222.084
222.085
222.087
222.092
222.099
222.109
222.121
222.137
222.156
222.177
222.2
222.224
222.25
222.276
222.304
222.333
222.363
222.392
222.422
222.45
222.477
222.503
222.527
222.548
222.566
222.58
222.59
222.594
222.592
222.582
222.565
222.537
222.5
222.45
222.386
222.307
222.21
222.094
221.956
221.794
221.605
221.385
221.133
220.845
220.515
220.141
219.716
219.236
218.693
218.085
217.406
216.653
215.814
214.888
213.856
212.733
211.486
210.151
208.683
207.094
205.374
203.489
201.521
199.318
197.141
194.774
192.3
189.86
187.267
184.76
182.214
179.664
177.196
174.864
172.833
171.11
169.849
169.073
166.475
223
223
223
223
223
223
223
223.001
223.027
223.182
223.519
223.824
223.916
223.901
223.692
223.361
223.102
222.931
222.816
222.707
222.582
222.449
222.32
222.195
222.074
221.98
221.941
221.946
222.008
222.114
222.2
222.238
222.244
222.237
222.221
222.211
222.206
222.204
222.204
222.205
222.206
222.208
222.212
222.217
222.224
222.233
222.245
222.259
222.277
222.297
222.322
222.349
222.377
222.408
222.439
222.473
222.507
222.544
222.581
222.619
222.656
222.694
222.73
222.766
222.8
222.833
222.863
222.89
222.914
222.932
222.946
222.953
222.954
222.946
222.93
222.903
222.864
222.811
222.743
222.658
222.553
222.427
222.277
222.1
221.893
221.654
221.378
221.062
220.7
220.289
219.824
219.3
218.712
218.051
217.307
216.478
215.555
214.546
213.425
212.212
210.86
209.406
207.82
206.079
204.251
202.222
200.035
197.826
195.364
192.958
190.381
187.768
185.144
182.463
179.877
177.399
175.078
173.011
171.361
170.215
166.755
223
223
223
223
223
223
223
223.001
223.014
223.119
223.424
223.773
223.919
223.94
223.801
223.487
223.202
223.015
222.896
222.795
222.679
222.552
222.429
222.314
222.2
222.096
222.034
222.021
222.05
222.142
222.248
222.314
222.336
222.336
222.327
222.318
222.313
222.312
222.316
222.321
222.327
222.334
222.342
222.352
222.363
222.377
222.394
222.413
222.435
222.461
222.49
222.523
222.557
222.594
222.632
222.672
222.713
222.756
222.801
222.846
222.892
222.938
222.984
223.03
223.074
223.118
223.159
223.199
223.235
223.268
223.297
223.32
223.338
223.349
223.353
223.348
223.332
223.305
223.264
223.209
223.136
223.046
222.933
222.798
222.636
222.445
222.222
221.962
221.662
221.318
220.925
220.476
219.964
219.385
218.733
218.008
217.198
216.303
215.3
214.2
212.965
211.628
210.146
208.547
206.794
204.91
202.839
200.726
198.397
195.937
193.476
190.768
188.13
185.381
182.689
180.129
177.721
175.635
173.994
172.824
169.323
223
223
223
223
223
223
223
223
223.006
223.071
223.324
223.699
223.911
223.974
223.894
223.61
223.303
223.101
222.979
222.885
222.78
222.66
222.542
222.434
222.33
222.227
222.147
222.113
222.118
222.177
222.284
222.378
222.425
222.437
222.435
222.427
222.423
222.424
222.43
222.439
222.449
222.461
222.475
222.489
222.506
222.524
222.545
222.569
222.596
222.627
222.662
222.7
222.74
222.783
222.827
222.873
222.922
222.972
223.024
223.077
223.131
223.185
223.24
223.295
223.35
223.403
223.456
223.508
223.557
223.604
223.647
223.686
223.72
223.749
223.771
223.786
223.792
223.79
223.775
223.748
223.705
223.646
223.568
223.47
223.349
223.203
223.027
222.82
222.577
222.295
221.968
221.593
221.162
220.673
220.117
219.493
218.787
217.997
217.106
216.119
215.009
213.798
212.443
210.979
209.363
207.6
205.717
203.596
201.429
198.999
196.604
193.892
191.209
188.393
185.469
182.594
179.794
177.369
175.507
174.25
170.455
223
223
223
223
223
223
223
223
223.002
223.038
223.228
223.602
223.89
224
223.957
223.728
223.413
223.196
223.066
222.976
222.883
222.772
222.66
222.557
222.461
222.365
222.277
222.222
222.207
222.231
222.317
222.427
222.504
222.535
222.541
222.539
222.536
222.537
222.545
222.558
222.573
222.59
222.609
222.628
222.65
222.673
222.699
222.728
222.76
222.796
222.835
222.878
222.925
222.973
223.024
223.076
223.131
223.188
223.247
223.307
223.369
223.432
223.496
223.559
223.623
223.687
223.751
223.813
223.875
223.934
223.991
224.045
224.095
224.141
224.181
224.216
224.243
224.261
224.271
224.271
224.257
224.23
224.186
224.125
224.043
223.939
223.81
223.653
223.464
223.241
222.977
222.67
222.314
221.903
221.433
220.899
220.29
219.603
218.824
217.955
216.976
215.899
214.686
213.366
211.895
210.291
208.522
206.584
204.553
202.298
199.848
197.325
194.615
191.947
189.044
186.217
183.353
180.75
178.462
176.712
172.048
223
223
223
223
223
223
223
223
223.001
223.018
223.146
223.489
223.846
224.008
223.998
223.841
223.534
223.297
223.155
223.068
222.987
222.889
222.782
222.681
222.591
222.503
222.415
222.344
222.31
222.31
222.358
222.462
222.566
222.626
222.647
222.651
222.651
222.653
222.663
222.678
222.698
222.72
222.744
222.769
222.795
222.824
222.855
222.889
222.925
222.966
223.01
223.059
223.111
223.166
223.222
223.281
223.342
223.406
223.471
223.539
223.609
223.679
223.751
223.824
223.897
223.971
224.045
224.118
224.191
224.263
224.333
224.401
224.466
224.527
224.585
224.638
224.685
224.725
224.757
224.78
224.793
224.795
224.782
224.754
224.708
224.643
224.556
224.445
224.306
224.137
223.933
223.691
223.406
223.074
222.687
222.242
221.728
221.142
220.473
219.722
218.869
217.919
216.846
215.666
214.33
212.867
211.242
209.474
207.528
205.438
203.028
200.61
197.916
195.153
192.183
189.228
186.368
183.757
181.525
179.803
175.284
223
223
223
223
223
223
223
223
223
223.007
223.084
223.37
223.769
224.001
224.028
223.943
223.659
223.4
223.247
223.161
223.092
223.007
222.906
222.805
222.716
222.633
222.552
222.475
222.422
222.405
222.42
222.497
222.61
222.701
222.747
222.762
222.767
222.772
222.782
222.8
222.824
222.851
222.879
222.91
222.942
222.975
223.011
223.05
223.092
223.137
223.187
223.24
223.298
223.358
223.42
223.485
223.553
223.622
223.695
223.769
223.846
223.925
224.004
224.085
224.167
224.25
224.334
224.418
224.501
224.585
224.668
224.749
224.828
224.904
224.978
225.048
225.114
225.174
225.228
225.274
225.312
225.339
225.356
225.36
225.35
225.322
225.276
225.208
225.117
224.999
224.85
224.668
224.448
224.186
223.876
223.512
223.089
222.602
222.042
221.406
220.676
219.855
218.918
217.873
216.685
215.376
213.904
212.295
210.51
208.538
206.423
204.077
201.559
198.746
195.857
192.708
189.591
186.53
183.808
181.706
176.24
223
223
223
223
223
223
223
223
223
223.003
223.043
223.257
223.663
223.974
224.054
224.018
223.779
223.507
223.345
223.256
223.195
223.12
223.025
222.924
222.834
222.755
222.681
222.607
222.545
222.511
222.507
222.544
222.646
222.76
222.836
222.871
222.884
222.892
222.904
222.924
222.951
222.982
223.016
223.051
223.088
223.127
223.168
223.212
223.259
223.309
223.363
223.422
223.484
223.55
223.619
223.689
223.763
223.839
223.917
223.999
224.082
224.168
224.256
224.345
224.435
224.527
224.62
224.714
224.808
224.902
224.997
225.091
225.183
225.274
225.363
225.449
225.532
225.611
225.684
225.752
225.813
225.866
225.909
225.941
225.961
225.968
225.959
225.931
225.883
225.812
225.715
225.59
225.431
225.236
224.999
224.715
224.379
223.985
223.525
222.994
222.377
221.675
220.864
219.952
218.911
217.752
216.432
214.974
213.344
211.555
209.57
207.371
205.027
202.39
199.719
196.791
193.861
190.899
188.092
185.755
180.01
223
223
223
223
223
223
223
223
223
223.001
223.019
223.163
223.54
223.923
224.066
224.065
223.896
223.624
223.445
223.347
223.289
223.223
223.136
223.039
222.95
222.873
222.805
222.738
222.675
222.629
222.611
222.62
222.689
222.808
222.912
222.973
223.001
223.015
223.029
223.051
223.08
223.115
223.153
223.193
223.235
223.279
223.325
223.374
223.425
223.48
223.539
223.602
223.67
223.741
223.815
223.891
223.971
224.052
224.137
224.225
224.315
224.408
224.503
224.599
224.698
224.798
224.899
225.002
225.106
225.211
225.317
225.422
225.527
225.631
225.734
225.836
225.935
226.031
226.124
226.211
226.294
226.37
226.438
226.498
226.548
226.585
226.61
226.62
226.614
226.588
226.539
226.465
226.362
226.227
226.057
225.846
225.589
225.282
224.915
224.484
223.976
223.39
222.709
221.935
221.042
220.036
218.881
217.593
216.127
214.502
212.678
210.646
208.386
205.904
203.199
200.142
196.987
193.9
191.155
188.989
183.671
223
223
223
223
223
223
223
223
223
223
223.008
223.093
223.411
223.843
224.058
224.103
224.001
223.743
223.539
223.429
223.372
223.318
223.244
223.153
223.065
222.989
222.925
222.865
222.807
222.758
222.729
222.722
222.754
222.855
222.978
223.068
223.116
223.14
223.158
223.181
223.211
223.249
223.29
223.335
223.381
223.43
223.481
223.535
223.591
223.651
223.714
223.782
223.854
223.93
224.01
224.092
224.176
224.264
224.354
224.448
224.544
224.644
224.746
224.849
224.955
225.064
225.174
225.285
225.399
225.513
225.629
225.746
225.862
225.979
226.095
226.211
226.325
226.437
226.547
226.653
226.756
226.853
226.945
227.029
227.105
227.172
227.228
227.271
227.3
227.313
227.311
227.284
227.235
227.156
227.047
226.904
226.721
226.494
226.214
225.878
225.476
225.004
224.448
223.807
223.058
222.204
221.213
220.093
218.806
217.37
215.739
213.925
211.904
209.662
207.17
204.427
201.417
198.266
195.011
192.229
185.964
223
223
223
223
223
223
223
223
223
223
223.003
223.048
223.292
223.738
224.034
224.137
224.083
223.849
223.627
223.506
223.452
223.409
223.349
223.267
223.179
223.104
223.042
222.989
222.939
222.893
222.858
222.843
222.851
222.916
223.038
223.154
223.227
223.266
223.291
223.314
223.345
223.385
223.429
223.477
223.528
223.581
223.636
223.694
223.755
223.819
223.887
223.959
224.036
224.117
224.201
224.288
224.378
224.471
224.567
224.667
224.769
224.874
224.983
225.093
225.206
225.322
225.44
225.56
225.681
225.805
225.93
226.057
226.185
226.313
226.442
226.57
226.698
226.825
226.951
227.075
227.195
227.312
227.425
227.533
227.634
227.728
227.813
227.888
227.951
228
228.035
228.052
228.053
228.026
227.975
227.892
227.777
227.623
227.425
227.178
226.874
226.508
226.067
225.546
224.927
224.209
223.364
222.395
221.271
220.002
218.545
216.906
215.041
212.958
210.639
208.071
205.263
202.407
199.357
196.871
191.204
223
223
223
223
223
223
223
223
223
223
223.001
223.023
223.192
223.617
223.998
224.154
224.132
223.948
223.715
223.584
223.531
223.498
223.45
223.377
223.292
223.218
223.159
223.111
223.069
223.03
222.997
222.976
222.972
223.003
223.103
223.231
223.331
223.389
223.423
223.45
223.481
223.522
223.569
223.62
223.674
223.73
223.79
223.852
223.918
223.986
224.058
224.134
224.215
224.301
224.39
224.482
224.577
224.675
224.776
224.88
224.988
225.1
225.214
225.331
225.451
225.573
225.698
225.826
225.956
226.088
226.222
226.359
226.496
226.635
226.775
226.916
227.057
227.198
227.338
227.477
227.615
227.75
227.882
228.01
228.134
228.252
228.363
228.466
228.559
228.643
228.714
228.769
228.809
228.831
228.834
228.808
228.755
228.668
228.545
228.379
228.163
227.894
227.557
227.15
226.656
226.074
225.38
224.575
223.627
222.54
221.276
219.843
218.186
216.303
214.158
211.796
209.165
206.279
203
200.096
194.115
223
223
223
223
223
223
223
223
223
223
223
223.01
223.119
223.494
223.94
224.157
224.164
224.039
223.803
223.662
223.607
223.58
223.543
223.481
223.403
223.331
223.277
223.233
223.197
223.166
223.137
223.115
223.105
223.114
223.181
223.305
223.424
223.506
223.553
223.586
223.619
223.659
223.708
223.762
223.819
223.879
223.942
224.008
224.077
224.15
224.226
224.306
224.391
224.481
224.574
224.671
224.77
224.873
224.979
225.089
225.202
225.318
225.438
225.561
225.687
225.816
225.948
226.082
226.22
226.36
226.502
226.647
226.794
226.943
227.093
227.245
227.398
227.551
227.705
227.858
228.011
228.162
228.312
228.459
228.603
228.743
228.878
229.007
229.129
229.242
229.346
229.438
229.518
229.581
229.627
229.652
229.658
229.632
229.577
229.485
229.351
229.17
228.933
228.636
228.264
227.815
227.267
226.619
225.84
224.929
223.852
222.61
221.161
219.511
217.609
215.472
213.049
210.482
207.613
204.898
199.351
223
223
223
223
223
223
223
223
223
223
223
223.004
223.07
223.38
223.862
224.148
224.191
224.115
223.887
223.733
223.675
223.654
223.63
223.582
223.512
223.444
223.393
223.353
223.32
223.293
223.27
223.249
223.238
223.237
223.273
223.378
223.508
223.611
223.676
223.718
223.754
223.796
223.846
223.903
223.963
224.026
224.092
224.161
224.234
224.31
224.39
224.474
224.563
224.657
224.754
224.855
224.959
225.066
225.177
225.291
225.409
225.53
225.655
225.784
225.916
226.05
226.188
226.33
226.474
226.621
226.771
226.924
227.08
227.237
227.397
227.559
227.723
227.887
228.053
228.22
228.386
228.552
228.718
228.882
229.045
229.204
229.361
229.513
229.659
229.8
229.932
230.057
230.17
230.273
230.361
230.431
230.483
230.513
230.52
230.495
230.436
230.336
230.19
229.992
229.73
229.399
228.98
228.469
227.837
227.086
226.179
225.117
223.857
222.399
220.691
218.74
216.501
214.037
211.381
208.639
203.67
223
223
223
223
223
223
223
223
223
223
223
223.002
223.04
223.285
223.774
224.127
224.213
224.174
223.96
223.798
223.738
223.724
223.713
223.68
223.618
223.553
223.504
223.465
223.434
223.41
223.391
223.375
223.364
223.36
223.378
223.457
223.584
223.704
223.789
223.843
223.885
223.929
223.981
224.04
224.103
224.169
224.238
224.311
224.387
224.467
224.551
224.638
224.731
224.828
224.93
225.034
225.142
225.254
225.369
225.487
225.609
225.735
225.865
225.999
226.136
226.276
226.42
226.567
226.717
226.871
227.028
227.188
227.351
227.517
227.686
227.857
228.03
228.205
228.382
228.56
228.739
228.918
229.098
229.278
229.456
229.634
229.809
229.982
230.151
230.315
230.474
230.627
230.772
230.908
231.033
231.145
231.242
231.32
231.378
231.413
231.423
231.397
231.334
231.225
231.061
230.839
230.541
230.165
229.687
229.104
228.381
227.517
226.473
225.243
223.775
222.06
220.043
217.794
215.231
212.591
207.954
223
223
223
223
223
223
223
223
223
223
223
223.001
223.023
223.212
223.687
224.099
224.234
224.212
224.023
223.858
223.799
223.792
223.79
223.771
223.717
223.654
223.605
223.568
223.539
223.517
223.501
223.49
223.483
223.48
223.49
223.544
223.657
223.788
223.891
223.959
224.009
224.056
224.111
224.173
224.239
224.308
224.381
224.456
224.536
224.619
224.706
224.797
224.894
224.994
225.1
225.208
225.32
225.435
225.554
225.676
225.802
225.932
226.067
226.205
226.347
226.492
226.641
226.794
226.95
227.11
227.273
227.439
227.61
227.783
227.96
228.139
228.321
228.505
228.692
228.88
229.071
229.262
229.455
229.648
229.841
230.035
230.227
230.418
230.607
230.792
230.974
231.152
231.324
231.49
231.647
231.795
231.931
232.053
232.16
232.246
232.311
232.35
232.361
232.333
232.261
232.14
231.957
231.709
231.372
230.944
230.392
229.711
228.857
227.824
226.568
225.078
223.323
221.318
218.991
216.534
212.469
223
223
223
223
223
223
223
223
223
223
223
223
223.013
223.16
223.61
224.07
224.246
224.238
224.077
223.916
223.857
223.856
223.862
223.852
223.806
223.746
223.7
223.665
223.637
223.618
223.606
223.599
223.596
223.597
223.604
223.64
223.733
223.865
223.984
224.067
224.125
224.177
224.234
224.3
224.37
224.442
224.518
224.597
224.68
224.766
224.857
224.951
225.051
225.155
225.264
225.376
225.491
225.61
225.732
225.859
225.989
226.123
226.261
226.403
226.55
226.699
226.853
227.011
227.172
227.337
227.506
227.679
227.855
228.035
228.219
228.406
228.595
228.788
228.983
229.181
229.382
229.584
229.787
229.993
230.199
230.406
230.613
230.82
231.026
231.231
231.433
231.633
231.829
232.021
232.207
232.386
232.556
232.716
232.864
232.998
233.115
233.21
233.282
233.325
233.337
233.307
233.227
233.089
232.876
232.584
232.184
231.672
231.005
230.179
229.143
227.873
226.327
224.468
222.318
219.834
216.202
223
223
223
223
223
223
223
223
223
223
223
223
223.009
223.125
223.548
224.043
224.253
224.259
224.123
223.97
223.912
223.915
223.928
223.923
223.887
223.832
223.789
223.757
223.733
223.716
223.707
223.704
223.705
223.71
223.717
223.743
223.816
223.941
224.07
224.166
224.234
224.291
224.351
224.42
224.493
224.57
224.649
224.731
224.818
224.908
225.002
225.1
225.203
225.31
225.422
225.538
225.656
225.779
225.904
226.034
226.167
226.305
226.447
226.593
226.743
226.897
227.055
227.217
227.383
227.553
227.727
227.906
228.088
228.274
228.464
228.657
228.854
229.054
229.257
229.463
229.672
229.884
230.098
230.314
230.531
230.75
230.971
231.192
231.413
231.634
231.854
232.073
232.29
232.504
232.715
232.921
233.121
233.314
233.498
233.672
233.833
233.978
234.107
234.211
234.289
234.335
234.348
234.311
234.215
234.055
233.808
233.469
232.998
232.39
231.586
230.574
229.293
227.704
225.826
223.495
220.177
223
223
223
223
223
223
223
223
223
223
223
223
223.006
223.103
223.504
224.021
224.257
224.277
224.16
224.018
223.963
223.969
223.989
223.989
223.961
223.913
223.874
223.847
223.826
223.813
223.807
223.806
223.812
223.82
223.829
223.85
223.908
224.02
224.153
224.261
224.337
224.399
224.462
224.534
224.611
224.691
224.774
224.86
224.95
225.044
225.141
225.243
225.349
225.46
225.575
225.694
225.816
225.941
226.07
226.202
226.339
226.48
226.625
226.775
226.929
227.087
227.249
227.415
227.585
227.759
227.938
228.121
228.308
228.5
228.695
228.895
229.098
229.304
229.514
229.728
229.945
230.165
230.387
230.612
230.84
231.07
231.302
231.535
231.769
232.004
232.24
232.475
232.71
232.944
233.176
233.405
233.631
233.852
234.067
234.275
234.474
234.663
234.838
234.997
235.137
235.25
235.336
235.388
235.401
235.357
235.247
235.058
234.761
234.348
233.763
232.995
231.948
230.586
228.883
226.704
223.608
223
223
223
223
223
223
223
223
223
223
223
223
223.005
223.093
223.48
224.012
224.262
224.292
224.189
224.058
224.01
224.019
224.049
224.052
224.03
223.988
223.955
223.933
223.917
223.907
223.904
223.906
223.915
223.927
223.939
223.958
224.005
224.105
224.237
224.352
224.436
224.502
224.569
224.643
224.723
224.807
224.894
224.984
225.077
225.174
225.275
225.38
225.489
225.603
225.722
225.843
225.968
226.096
226.228
226.364
226.503
226.647
226.795
226.948
227.106
227.267
227.433
227.602
227.776
227.955
228.138
228.325
228.517
228.713
228.913
229.118
229.327
229.539
229.756
229.976
230.199
230.426
230.657
230.89
231.126
231.366
231.607
231.851
232.097
232.344
232.593
232.843
233.093
233.343
233.594
233.843
234.091
234.336
234.577
234.814
235.046
235.271
235.486
235.69
235.881
236.054
236.208
236.333
236.427
236.481
236.492
236.434
236.293
236.054
235.678
235.155
234.392
233.358
231.915
229.962
227.071
223
223
223
223
223
223
223
223
223
223
223
223
223.005
223.092
223.476
224.013
224.27
224.305
224.21
224.091
224.053
224.069
224.106
224.112
224.094
224.057
224.031
224.013
224.002
223.997
223.997
224.002
224.015
224.029
224.045
224.064
224.106
224.195
224.323
224.444
224.533
224.604
224.672
224.749
224.832
224.919
225.009
225.103
225.199
225.299
225.403
225.511
225.624
225.741
225.862
225.987
226.115
226.246
226.38
226.519
226.661
226.807
226.959
227.115
227.275
227.44
227.608
227.781
227.959
228.141
228.327
228.519
228.715
228.915
229.12
229.33
229.543
229.761
229.983
230.209
230.439
230.672
230.909
231.15
231.394
231.641
231.892
232.145
232.401
232.659
232.919
233.181
233.445
233.71
233.975
234.242
234.508
234.773
235.037
235.299
235.558
235.813
236.063
236.305
236.539
236.761
236.97
237.16
237.329
237.466
237.571
237.631
237.643
237.57
237.406
237.123
236.654
235.956
234.806
233.192
230.468
223
223
223
223
223
223
223
223
223
223
223
223
223.006
223.095
223.49
224.027
224.282
224.315
224.224
224.119
224.094
224.121
224.164
224.17
224.153
224.121
224.1
224.087
224.081
224.08
224.083
224.093
224.109
224.127
224.146
224.168
224.208
224.289
224.413
224.536
224.63
224.704
224.775
224.853
224.939
225.029
225.121
225.217
225.317
225.42
225.527
225.638
225.753
225.874
225.997
226.125
226.255
226.389
226.526
226.667
226.811
226.96
227.114
227.273
227.436
227.604
227.775
227.951
228.132
228.318
228.508
228.703
228.902
229.107
229.316
229.53
229.748
229.971
230.198
230.429
230.664
230.903
231.146
231.393
231.644
231.899
232.157
232.418
232.683
232.95
233.221
233.493
233.769
234.046
234.325
234.606
234.888
235.171
235.454
235.737
236.019
236.3
236.578
236.852
237.122
237.385
237.639
237.882
238.112
238.322
238.513
238.667
238.787
238.85
238.853
238.745
238.521
238.124
237.363
236.303
234.068
223
223
223
223
223
223
223
223
223
223
223
223
223.007
223.108
223.523
224.055
224.298
224.323
224.233
224.142
224.133
224.174
224.222
224.226
224.209
224.181
224.164
224.155
224.153
224.155
224.164
224.178
224.196
224.219
224.243
224.268
224.308
224.386
224.506
224.631
224.728
224.805
224.877
224.957
225.044
225.136
225.23
225.328
225.43
225.536
225.645
225.759
225.878
226
226.127
226.256
226.389
226.525
226.665
226.808
226.955
227.107
227.263
227.425
227.591
227.761
227.935
228.114
228.298
228.486
228.68
228.878
229.081
229.289
229.502
229.72
229.943
230.169
230.401
230.637
230.877
231.121
231.37
231.623
231.88
232.141
232.406
232.675
232.947
233.223
233.502
233.784
234.07
234.358
234.649
234.943
235.239
235.536
235.836
236.137
236.439
236.741
237.043
237.344
237.643
237.94
238.233
238.52
238.799
239.068
239.322
239.558
239.771
239.944
240.079
240.146
240.155
240.02
239.675
239.12
237.74
223
223
223
223
223
223
223
223
223
223
223
223
223.009
223.131
223.573
224.092
224.315
224.329
224.239
224.162
224.17
224.229
224.279
224.281
224.264
224.238
224.225
224.22
224.22
224.226
224.239
224.256
224.279
224.306
224.334
224.364
224.406
224.484
224.602
224.727
224.827
224.905
224.979
225.06
225.148
225.241
225.336
225.436
225.54
225.647
225.759
225.876
225.997
226.122
226.251
226.382
226.517
226.656
226.798
226.943
227.093
227.246
227.405
227.569
227.738
227.91
228.087
228.269
228.455
228.647
228.843
229.045
229.251
229.463
229.68
229.901
230.127
230.358
230.594
230.834
231.079
231.329
231.582
231.841
232.103
232.37
232.642
232.917
233.196
233.48
233.767
234.058
234.353
234.651
234.952
235.257
235.565
235.876
236.19
236.506
236.825
237.146
237.468
237.792
238.116
238.441
238.764
239.087
239.406
239.721
240.028
240.327
240.615
240.884
241.131
241.328
241.492
241.581
241.603
241.394
240.936
223
223
223
223
223
223
223
223
223
223
223
223
223.014
223.166
223.639
224.135
224.332
224.333
224.245
224.182
224.204
224.281
224.332
224.333
224.316
224.295
224.285
224.282
224.286
224.295
224.311
224.331
224.358
224.389
224.422
224.456
224.502
224.581
224.698
224.824
224.925
225.004
225.079
225.161
225.25
225.343
225.44
225.541
225.646
225.755
225.869
225.987
226.111
226.238
226.369
226.503
226.64
226.78
226.924
227.072
227.223
227.379
227.541
227.707
227.878
228.053
228.232
228.416
228.605
228.799
228.999
229.203
229.413
229.628
229.848
230.073
230.303
230.538
230.777
231.022
231.271
231.525
231.783
232.046
232.314
232.587
232.864
233.145
233.431
233.722
234.016
234.315
234.617
234.924
235.235
235.55
235.869
236.191
236.517
236.847
237.18
237.517
237.856
238.199
238.544
238.892
239.241
239.591
239.943
240.294
240.644
240.991
241.333
241.667
241.988
242.29
242.569
242.811
243.039
243.143
243.215
223
223
223
223
223
223
223
223
223
223
223
223.001
223.022
223.214
223.718
224.18
224.348
224.338
224.253
224.206
224.241
224.328
224.378
224.379
224.364
224.348
224.343
224.343
224.35
224.363
224.381
224.405
224.435
224.47
224.506
224.543
224.594
224.675
224.793
224.918
225.02
225.101
225.177
225.259
225.349
225.442
225.54
225.641
225.747
225.858
225.974
226.094
226.219
226.349
226.481
226.617
226.756
226.899
227.044
227.194
227.347
227.506
227.669
227.838
228.011
228.188
228.37
228.556
228.748
228.945
229.147
229.354
229.567
229.785
230.008
230.237
230.47
230.708
230.951
231.2
231.453
231.711
231.974
232.242
232.515
232.793
233.075
233.362
233.654
233.951
234.252
234.558
234.868
235.183
235.502
235.826
236.155
236.487
236.824
237.166
237.511
237.861
238.215
238.574
238.936
239.302
239.671
240.044
240.419
240.798
241.177
241.558
241.937
242.316
242.687
243.051
243.4
243.74
244.045
244.284
244.533
223
223
223
223
223
223
223
223
223
223
223
223.001
223.035
223.277
223.804
224.221
224.36
224.342
224.264
224.234
224.285
224.374
224.417
224.417
224.405
224.396
224.396
224.401
224.412
224.428
224.448
224.475
224.508
224.546
224.585
224.626
224.68
224.766
224.884
225.009
225.111
225.193
225.27
225.354
225.444
225.538
225.635
225.737
225.844
225.956
226.074
226.196
226.323
226.454
226.588
226.725
226.866
227.011
227.158
227.309
227.465
227.625
227.791
227.961
228.136
228.316
228.5
228.688
228.883
229.082
229.287
229.497
229.712
229.933
230.16
230.391
230.628
230.869
231.116
231.368
231.625
231.887
232.154
232.427
232.704
232.986
233.274
233.566
233.864