/*--------------------------------*- C++ -*----------------------------------*\
| =========                 |                                                 |
| \\      /  F ield         | OpenFOAM: The Open Source CFD Toolbox           |
|  \\    /   O peration     | Version:  2412                                  |
|   \\  /    A nd           | Website:  www.openfoam.com                      |
|    \\/     M anipulation  |                                                 |
\*---------------------------------------------------------------------------*/
FoamFile
{
    version     2.0;
    format      ascii;
    arch        "LSB;label=32;scalar=64";
    class       volScalarField;
    location    "0.034";
    object      T;
}
// * * * * * * * * * * * * * * * * * * * * * * * * * * * * * * * * * * * * * //

dimensions      [0 0 0 1 0 0 0];

internalField   nonuniform List<scalar> 
9857
(
223
223
223
223
223
223
223
223
223
223
223
223
223
223
223
223.005
223.074
223.414
224.01
224.434
224.571
224.55
224.493
224.497
224.612
224.807
224.923
224.951
223
223
223
223
223
223
223
223
223
223
223
223
223.008
223.104
223.499
224.094
224.461
224.569
224.546
224.496
224.516
224.66
224.847
224.943
224.962
223
223
223
223
223
223
223
223
223
223
223
223
223.014
223.151
223.605
224.183
224.487
224.562
224.54
224.504
224.546
224.717
224.889
224.963
224.974
223
223
223
223
223
223
223
223
223
223
223
223.001
223.026
223.217
223.727
224.268
224.509
224.552
224.532
224.516
224.589
224.78
224.93
224.983
224.987
223
223
223
223
223
223
223
223
223
223
223
223.002
223.045
223.301
223.852
224.342
224.527
224.543
224.524
224.532
224.643
224.842
224.966
225
225.001
223
223
223
223
223
223
223
223
223
223
223
223.005
223.074
223.401
223.971
224.399
224.538
224.537
224.521
224.552
224.702
224.896
224.995
225.015
225.016
223
223
223
223
223
223
223
223
223
223
223
223.01
223.116
223.512
224.08
224.439
224.544
224.536
224.525
224.581
224.762
224.941
225.017
225.028
225.03
225.047
223
223
223
223
223
223
223
223
223
223
223.001
223.019
223.173
223.631
224.176
224.467
224.545
224.537
224.536
224.624
224.821
224.975
225.032
225.038
225.045
225.068
223
223
223
223
223
223
223
223
223
223
223.002
223.033
223.244
223.752
224.257
224.485
224.544
224.539
224.555
224.679
224.877
225.002
225.042
225.048
225.059
225.089
225.132
223
223
223
223
223
223
223
223
223
223
223.003
223.056
223.33
223.869
224.324
224.495
224.541
224.543
224.582
224.741
224.928
225.025
225.05
225.056
225.073
225.11
225.155
223
223
223
223
223
223
223
223
223
223
223.007
223.088
223.428
223.978
224.377
224.502
224.535
224.549
224.62
224.803
224.972
225.044
225.058
225.066
225.089
225.13
225.176
225.217
223
223
223
223
223
223
223
223
223
223
223.013
223.132
223.534
224.076
224.417
224.506
224.531
224.56
224.666
224.863
225.009
225.06
225.068
225.077
225.105
225.149
225.194
225.236
223
223
223
223
223
223
223
223
223
223.001
223.023
223.189
223.644
224.161
224.446
224.51
224.53
224.577
224.718
224.917
225.038
225.074
225.079
225.091
225.123
225.168
225.212
225.253
225.299
225.351
225.408
225.467
225.528
225.593
225.664
225.739
225.815
225.893
225.973
226.061
226.156
226.258
226.362
226.464
226.565
226.667
226.774
226.891
227.02
227.16
227.305
227.45
227.594
227.738
227.884
228.032
228.184
228.338
228.496
228.656
223
223
223
223
223
223
223
223
223
223.002
223.038
223.258
223.754
224.232
224.466
224.514
224.535
224.602
224.771
224.961
225.061
225.086
225.091
225.106
225.141
225.186
225.228
225.27
225.318
225.372
225.43
225.489
225.551
225.618
225.69
225.766
225.842
225.919
226
226.088
226.184
226.287
226.391
226.494
226.595
226.697
226.804
226.922
227.052
227.192
227.336
227.479
227.622
227.765
227.91
228.058
228.209
228.362
228.519
228.678
223
223
223
223
223
223
223
223
223
223.004
223.061
223.339
223.859
224.29
224.48
224.52
224.547
224.637
224.824
224.997
225.078
225.096
225.103
225.123
225.16
225.203
225.244
225.287
225.337
225.392
225.451
225.511
225.574
225.642
225.715
225.792
225.868
225.945
226.026
226.114
226.211
226.315
226.419
226.522
226.624
226.726
226.834
226.952
227.083
227.222
227.364
227.507
227.648
227.79
227.935
228.082
228.231
228.384
228.539
228.698
223
223
223
223
223
223
223
223
223
223.008
223.092
223.429
223.957
224.336
224.488
224.526
224.564
224.681
224.875
225.025
225.089
225.103
225.114
225.138
225.178
225.22
225.26
225.304
225.355
225.412
225.471
225.532
225.596
225.665
225.739
225.816
225.893
225.97
226.051
226.14
226.238
226.341
226.446
226.55
226.651
226.753
226.862
226.981
227.111
227.25
227.391
227.532
227.672
227.814
227.957
228.103
228.252
228.404
228.558
228.716
223
223
223
223
223
223
223
223
223.001
223.014
223.134
223.525
224.045
224.372
224.492
224.532
224.588
224.73
224.922
225.047
225.095
225.108
225.123
225.153
225.194
225.236
225.276
225.321
225.373
225.431
225.491
225.552
225.617
225.687
225.763
225.84
225.917
225.994
226.075
226.164
226.263
226.367
226.472
226.575
226.676
226.779
226.888
227.008
227.139
227.276
227.416
227.556
227.695
227.835
227.978
228.123
228.271
228.422
228.575
228.731
223
223
223
223
223
223
223
223
223.001
223.023
223.186
223.623
224.121
224.396
224.493
224.539
224.615
224.78
224.962
225.062
225.096
225.11
225.129
225.165
225.208
225.25
225.291
225.338
225.391
225.449
225.51
225.572
225.637
225.709
225.785
225.863
225.94
226.017
226.098
226.188
226.287
226.392
226.497
226.6
226.701
226.804
226.914
227.034
227.164
227.301
227.44
227.578
227.716
227.855
227.997
228.141
228.288
228.438
228.59
228.745
223
223
223
223
223
223
223
223
223.002
223.038
223.247
223.718
224.182
224.408
224.491
224.545
224.645
224.826
224.992
225.07
225.096
225.11
225.135
225.175
225.22
225.262
225.304
225.353
225.408
225.467
225.528
225.59
225.657
225.729
225.806
225.884
225.962
226.039
226.12
226.21
226.31
226.415
226.521
226.623
226.724
226.827
226.938
227.058
227.189
227.324
227.461
227.598
227.735
227.873
228.014
228.158
228.304
228.452
228.603
228.756
223
223
223
223
223
223
223
223
223.003
223.056
223.312
223.801
224.221
224.411
224.483
224.549
224.675
224.864
225.011
225.072
225.092
225.109
225.138
225.182
225.228
225.272
225.317
225.367
225.424
225.484
225.545
225.608
225.676
225.749
225.827
225.905
225.983
226.06
226.141
226.232
226.332
226.438
226.543
226.646
226.747
226.85
226.961
227.082
227.211
227.346
227.482
227.617
227.753
227.89
228.03
228.173
228.317
228.464
228.614
228.766
223
223
223
223
223
223
223
223
223.004
223.073
223.373
223.865
224.238
224.404
224.471
224.55
224.701
224.89
225.018
225.07
225.086
225.104
225.138
225.186
225.235
225.28
225.327
225.381
225.439
225.499
225.561
225.625
225.694
225.768
225.846
225.925
226.003
226.08
226.162
226.253
226.354
226.46
226.565
226.667
226.768
226.871
226.982
227.103
227.233
227.366
227.5
227.634
227.769
227.906
228.045
228.186
228.329
228.475
228.623
228.774
223
223
223
223
223
223
222.998
222.994
222.995
223.081
223.42
223.904
224.238
224.383
224.453
224.55
224.719
224.902
225.017
225.061
225.076
225.098
225.137
225.188
225.238
225.286
225.336
225.392
225.452
225.513
225.576
225.641
225.711
225.786
225.865
225.944
226.022
226.099
226.181
226.273
226.374
226.48
226.585
226.687
226.788
226.891
227.003
227.124
227.253
227.385
227.518
227.65
227.784
227.92
228.058
228.198
228.34
228.484
228.631
228.78
223
223
223
223
223
222.997
222.986
222.967
222.96
223.074
223.447
223.918
224.222
224.351
224.429
224.544
224.727
224.904
225.007
225.045
225.061
225.089
225.134
225.188
225.24
225.29
225.344
225.402
225.464
225.526
225.59
225.656
225.727
225.803
225.882
225.962
226.04
226.117
226.2
226.292
226.394
226.5
226.605
226.707
226.807
226.911
227.023
227.144
227.271
227.402
227.534
227.665
227.798
227.932
228.069
228.208
228.349
228.492
228.637
228.785
223
223
223
223
222.996
222.979
222.942
222.905
222.898
223.042
223.455
223.916
224.189
224.31
224.399
224.535
224.729
224.897
224.988
225.022
225.043
225.078
225.128
225.186
225.24
225.293
225.35
225.411
225.474
225.538
225.603
225.67
225.742
225.819
225.899
225.98
226.057
226.135
226.218
226.311
226.413
226.519
226.624
226.725
226.825
226.929
227.041
227.162
227.289
227.418
227.548
227.678
227.81
227.944
228.08
228.217
228.356
228.498
228.641
228.788
223
223
223
222.994
222.971
222.919
222.855
222.813
222.818
223.007
223.456
223.899
224.143
224.262
224.366
224.522
224.724
224.881
224.962
224.995
225.021
225.064
225.12
225.181
225.238
225.294
225.354
225.418
225.483
225.548
225.614
225.683
225.756
225.834
225.915
225.996
226.074
226.151
226.235
226.328
226.431
226.537
226.641
226.742
226.842
226.947
227.059
227.179
227.305
227.433
227.562
227.691
227.821
227.954
228.089
228.225
228.363
228.502
228.645
228.79
223
222.999
222.993
222.963
222.896
222.808
222.735
222.701
222.728
222.972
223.448
223.866
224.087
224.209
224.329
224.505
224.71
224.856
224.929
224.963
224.996
225.047
225.109
225.173
225.233
225.293
225.356
225.423
225.49
225.557
225.625
225.695
225.769
225.848
225.93
226.011
226.089
226.167
226.251
226.345
226.448
226.554
226.658
226.759
226.859
226.963
227.075
227.195
227.32
227.447
227.574
227.702
227.831
227.963
228.096
228.231
228.367
228.506
228.646
228.79
223
222.993
222.958
222.875
222.763
222.665
222.604
222.583
222.637
222.935
223.425
223.817
224.024
224.152
224.291
224.484
224.687
224.823
224.89
224.927
224.969
225.028
225.095
225.162
225.226
225.29
225.357
225.426
225.495
225.564
225.634
225.706
225.781
225.86
225.943
226.025
226.104
226.182
226.266
226.361
226.465
226.571
226.674
226.774
226.874
226.979
227.091
227.21
227.334
227.459
227.585
227.712
227.841
227.971
228.103
228.236
228.371
228.508
228.647
228.789
222.996
222.96
222.864
222.726
222.599
222.513
222.47
222.462
222.549
222.896
223.391
223.759
223.957
224.094
224.251
224.457
224.656
224.785
224.848
224.889
224.939
225.006
225.079
225.15
225.216
225.285
225.356
225.428
225.499
225.57
225.642
225.715
225.791
225.872
225.956
226.039
226.118
226.196
226.281
226.377
226.48
226.586
226.689
226.789
226.889
226.994
227.106
227.224
227.347
227.471
227.595
227.721
227.849
227.978
228.108
228.24
228.373
228.509
228.646
228.786
222.977
222.869
222.706
222.546
222.432
222.365
222.336
222.341
222.467
222.855
223.348
223.695
223.886
224.034
224.21
224.427
224.62
224.741
224.802
224.849
224.908
224.983
225.061
225.135
225.205
225.278
225.354
225.428
225.502
225.575
225.649
225.723
225.801
225.883
225.968
226.052
226.131
226.209
226.295
226.391
226.495
226.601
226.704
226.803
226.903
227.008
227.119
227.237
227.359
227.481
227.605
227.73
227.856
227.984
228.113
228.243
228.375
228.509
228.644
228.782
222.913
222.713
222.517
222.368
222.275
222.223
222.202
222.22
222.389
222.813
223.298
223.626
223.815
223.974
224.168
224.393
224.579
224.692
224.753
224.808
224.877
224.959
225.041
225.118
225.193
225.271
225.35
225.428
225.503
225.579
225.654
225.731
225.81
225.893
225.98
226.063
226.143
226.222
226.308
226.405
226.509
226.615
226.717
226.816
226.916
227.021
227.132
227.249
227.37
227.491
227.614
227.737
227.862
227.988
228.116
228.245
228.375
228.507
228.641
228.777
228.916
229.056
229.199
229.343
229.489
229.637
229.785
229.935
230.085
230.236
230.387
230.538
230.689
230.839
230.987
231.134
231.277
231.418
231.556
231.688
231.816
231.939
232.055
232.165
232.268
232.363
232.45
232.529
232.598
232.659
232.711
232.754
232.788
232.812
232.828
232.836
232.836
232.827
232.811
222.76
222.52
222.334
222.207
222.128
222.084
222.068
222.105
222.316
222.768
223.243
223.554
223.743
223.915
224.125
224.355
224.534
224.641
224.703
224.766
224.844
224.933
225.019
225.101
225.18
225.262
225.344
225.425
225.504
225.581
225.659
225.737
225.818
225.903
225.99
226.074
226.154
226.234
226.321
226.418
226.522
226.628
226.73
226.829
226.929
227.033
227.144
227.261
227.38
227.5
227.621
227.744
227.867
227.992
228.118
228.245
228.374
228.505
228.637
228.771
228.907
229.046
229.186
229.328
229.471
229.615
229.761
229.907
230.053
230.2
230.347
230.494
230.64
230.784
230.927
231.068
231.206
231.341
231.472
231.598
231.719
231.835
231.944
232.046
232.142
232.229
232.309
232.38
232.443
232.497
232.542
232.578
232.605
232.623
232.634
232.637
232.631
232.617
232.597
232.571
232.539
232.5
232.458
232.411
232.361
232.308
232.25
232.192
232.131
222.495
222.333
222.175
222.06
221.986
221.946
221.936
221.993
222.246
222.721
223.183
223.48
223.673
223.857
224.082
224.314
224.486
224.586
224.653
224.724
224.811
224.906
224.997
225.082
225.165
225.252
225.338
225.422
225.503
225.583
225.663
225.743
225.825
225.911
225.999
226.085
226.165
226.245
226.333
226.43
226.535
226.64
226.742
226.841
226.941
227.045
227.156
227.271
227.389
227.508
227.628
227.749
227.872
227.995
228.119
228.246
228.373
228.501
228.632
228.764
228.898
229.034
229.172
229.311
229.451
229.592
229.734
229.877
230.02
230.162
230.305
230.447
230.588
230.728
230.866
231.001
231.133
231.261
231.386
231.506
231.62
231.729
231.831
231.926
232.014
232.094
232.167
232.231
232.286
232.333
232.372
232.401
232.422
232.435
232.44
232.438
232.427
232.41
232.386
232.356
232.321
232.28
232.236
232.187
232.135
232.081
232.022
231.964
231.903
231.84
231.777
231.713
231.649
231.585
231.523
231.463
231.406
231.351
231.298
231.239
231.157
222.17
222.167
222.028
221.917
221.844
221.808
221.807
221.889
222.181
222.672
223.119
223.406
223.603
223.801
224.038
224.269
224.434
224.53
224.601
224.682
224.778
224.879
224.973
225.062
225.15
225.241
225.33
225.417
225.501
225.584
225.665
225.747
225.831
225.919
226.008
226.094
226.175
226.256
226.344
226.442
226.547
226.652
226.753
226.852
226.952
227.056
227.166
227.281
227.398
227.516
227.635
227.754
227.875
227.997
228.12
228.244
228.37
228.497
228.626
228.756
228.888
229.021
229.157
229.293
229.43
229.568
229.707
229.846
229.984
230.123
230.262
230.399
230.535
230.67
230.802
230.931
231.058
231.18
231.298
231.411
231.519
231.621
231.716
231.804
231.885
231.958
232.023
232.08
232.129
232.169
232.201
232.225
232.24
232.247
232.248
232.24
232.225
232.203
232.176
232.143
232.105
232.062
232.016
231.965
231.912
231.857
231.797
231.738
231.677
231.614
231.552
231.488
231.424
231.361
231.3
231.241
231.185
231.131
231.078
231.021
230.941
221.878
221.992
221.869
221.771
221.704
221.673
221.681
221.791
222.119
222.621
223.054
223.332
223.536
223.747
223.994
224.223
224.381
224.473
224.55
224.64
224.744
224.85
224.948
225.041
225.134
225.229
225.322
225.412
225.498
225.584
225.667
225.751
225.836
225.926
226.016
226.103
226.184
226.265
226.354
226.453
226.558
226.663
226.764
226.863
226.962
227.066
227.176
227.289
227.405
227.522
227.64
227.758
227.878
227.998
228.12
228.243
228.367
228.492
228.618
228.747
228.876
229.008
229.14
229.274
229.408
229.543
229.678
229.813
229.948
230.083
230.216
230.349
230.481
230.61
230.737
230.86
230.981
231.097
231.209
231.315
231.416
231.511
231.599
231.681
231.755
231.821
231.879
231.929
231.971
232.005
232.031
232.048
232.058
232.061
232.055
232.043
232.024
231.999
231.968
231.932
231.891
231.846
231.797
231.746
231.691
231.635
231.575
231.515
231.454
231.391
231.328
231.265
231.201
231.139
231.079
231.02
230.965
230.912
230.86
230.804
230.725
221.611
221.83
221.709
221.622
221.566
221.54
221.56
221.699
222.061
222.569
222.987
223.259
223.47
223.695
223.95
224.174
224.325
224.416
224.5
224.599
224.71
224.82
224.922
225.02
225.117
225.216
225.313
225.405
225.495
225.583
225.669
225.754
225.841
225.932
226.023
226.111
226.193
226.275
226.364
226.464
226.569
226.673
226.774
226.873
226.972
227.076
227.185
227.298
227.413
227.528
227.644
227.761
227.879
227.999
228.119
228.24
228.363
228.486
228.611
228.737
228.864
228.993
229.123
229.253
229.385
229.516
229.648
229.779
229.91
230.041
230.17
230.298
230.424
230.549
230.67
230.788
230.902
231.012
231.118
231.218
231.312
231.4
231.482
231.556
231.623
231.682
231.734
231.778
231.813
231.841
231.86
231.872
231.877
231.874
231.864
231.847
231.824
231.795
231.761
231.722
231.679
231.631
231.582
231.529
231.472
231.415
231.355
231.294
231.233
231.17
231.107
231.044
230.981
230.92
230.859
230.802
230.747
230.695
230.644
230.588
230.51
221.333
221.678
221.561
221.48
221.432
221.413
221.445
221.613
222.006
222.516
222.92
223.187
223.406
223.644
223.904
224.123
224.267
224.359
224.45
224.558
224.675
224.79
224.896
224.998
225.1
225.203
225.303
225.398
225.49
225.581
225.669
225.756
225.845
225.937
226.03
226.118
226.2
226.283
226.374
226.474
226.578
226.683
226.783
226.882
226.981
227.085
227.193
227.305
227.419
227.534
227.648
227.764
227.881
227.999
228.117
228.237
228.358
228.479
228.602
228.726
228.851
228.977
229.104
229.232
229.36
229.488
229.616
229.744
229.871
229.997
230.122
230.246
230.367
230.486
230.602
230.714
230.822
230.927
231.026
231.119
231.207
231.288
231.363
231.431
231.491
231.544
231.589
231.626
231.655
231.677
231.69
231.697
231.697
231.688
231.674
231.653
231.626
231.594
231.557
231.515
231.469
231.42
231.368
231.314
231.256
231.198
231.137
231.076
231.014
230.951
230.888
230.825
230.763
230.701
230.642
230.585
230.53
230.479
230.428
230.372
230.295
221.035
221.53
221.419
221.344
221.302
221.29
221.337
221.534
221.953
222.462
222.852
223.118
223.345
223.594
223.858
224.071
224.209
224.303
224.401
224.517
224.641
224.76
224.869
224.976
225.083
225.189
225.292
225.39
225.485
225.578
225.669
225.758
225.848
225.942
226.036
226.125
226.208
226.291
226.383
226.483
226.588
226.692
226.792
226.891
226.99
227.093
227.201
227.313
227.425
227.538
227.651
227.766
227.881
227.998
228.115
228.233
228.352
228.472
228.592
228.714
228.837
228.961
229.085
229.21
229.335
229.46
229.584
229.708
229.831
229.953
230.073
230.192
230.308
230.422
230.532
230.639
230.741
230.839
230.932
231.019
231.1
231.175
231.243
231.304
231.358
231.404
231.443
231.473
231.497
231.512
231.521
231.522
231.517
231.504
231.485
231.46
231.429
231.394
231.354
231.309
231.262
231.21
231.157
231.101
231.042
230.983
230.922
230.86
230.798
230.735
230.672
230.609
230.547
230.486
230.426
230.37
230.316
230.265
230.214
230.159
230.083
220.723
221.387
221.282
221.213
221.178
221.173
221.234
221.46
221.902
222.407
222.786
223.051
223.287
223.546
223.811
224.018
224.15
224.247
224.354
224.477
224.606
224.729
224.842
224.954
225.065
225.175
225.28
225.382
225.479
225.575
225.668
225.758
225.851
225.946
226.041
226.131
226.215
226.299
226.391
226.491
226.596
226.7
226.8
226.899
226.998
227.101
227.209
227.319
227.43
227.542
227.654
227.767
227.881
227.996
228.112
228.229
228.346
228.464
228.582
228.702
228.822
228.944
229.065
229.187
229.309
229.43
229.551
229.671
229.79
229.907
230.023
230.137
230.248
230.357
230.461
230.562
230.659
230.751
230.837
230.918
230.993
231.061
231.123
231.177
231.225
231.264
231.297
231.321
231.339
231.349
231.352
231.349
231.338
231.32
231.297
231.268
231.235
231.196
231.153
231.106
231.056
231.003
230.948
230.891
230.83
230.771
230.709
230.647
230.584
230.521
230.458
230.395
230.332
230.272
230.213
230.156
230.103
230.052
230.001
229.947
229.871
220.4
221.249
221.149
221.087
221.057
221.06
221.138
221.392
221.854
222.352
222.72
222.987
223.231
223.499
223.763
223.963
224.091
224.192
224.307
224.438
224.571
224.698
224.815
224.931
225.047
225.16
225.269
225.372
225.473
225.571
225.666
225.759
225.853
225.95
226.046
226.136
226.221
226.306
226.399
226.5
226.605
226.708
226.808
226.906
227.006
227.109
227.216
227.325
227.435
227.545
227.656
227.768
227.881
227.995
228.109
228.224
228.339
228.455
228.571
228.689
228.807
228.925
229.044
229.163
229.282
229.399
229.517
229.633
229.748
229.861
229.972
230.081
230.187
230.29
230.39
230.485
230.576
230.661
230.742
230.816
230.885
230.947
231.002
231.05
231.091
231.124
231.151
231.169
231.181
231.186
231.184
231.175
231.16
231.138
231.111
231.079
231.041
231
230.954
230.905
230.853
230.798
230.741
230.683
230.622
230.561
230.498
230.436
230.373
230.309
230.246
230.183
230.121
230.06
230.001
229.945
229.892
229.841
229.791
229.736
229.661
220.066
221.116
221.022
220.968
220.942
220.952
221.049
221.329
221.807
222.298
222.657
222.925
223.178
223.453
223.715
223.908
224.033
224.139
224.262
224.399
224.537
224.666
224.788
224.909
225.028
225.145
225.256
225.363
225.466
225.567
225.664
225.758
225.854
225.953
226.05
226.141
226.226
226.312
226.406
226.507
226.612
226.715
226.815
226.913
227.013
227.116
227.222
227.33
227.439
227.548
227.657
227.768
227.88
227.992
228.105
228.218
228.332
228.446
228.56
228.675
228.791
228.907
229.023
229.138
229.254
229.368
229.482
229.594
229.705
229.813
229.92
230.024
230.125
230.223
230.317
230.407
230.492
230.571
230.646
230.714
230.776
230.832
230.881
230.922
230.957
230.985
231.005
231.018
231.025
231.025
231.017
231.003
230.983
230.958
230.927
230.891
230.851
230.806
230.758
230.706
230.652
230.596
230.537
230.478
230.415
230.354
230.291
230.227
230.164
230.1
230.036
229.974
229.911
229.85
229.792
229.736
229.683
229.632
229.582
229.528
229.453
219.724
220.986
220.9
220.853
220.832
220.85
220.965
221.272
221.762
222.244
222.595
222.866
223.127
223.408
223.666
223.853
223.975
224.086
224.217
224.361
224.502
224.635
224.761
224.886
225.009
225.129
225.243
225.353
225.459
225.562
225.661
225.757
225.855
225.955
226.054
226.146
226.232
226.318
226.413
226.514
226.619
226.722
226.822
226.92
227.02
227.122
227.228
227.335
227.442
227.55
227.658
227.768
227.878
227.99
228.101
228.212
228.324
228.436
228.548
228.661
228.774
228.887
229
229.113
229.225
229.336
229.446
229.554
229.661
229.765
229.867
229.967
230.063
230.155
230.243
230.327
230.407
230.48
230.549
230.611
230.667
230.716
230.759
230.795
230.823
230.845
230.859
230.867
230.869
230.863
230.85
230.832
230.808
230.778
230.744
230.705
230.661
230.614
230.564
230.509
230.454
230.396
230.336
230.275
230.211
230.149
230.086
230.021
229.958
229.893
229.83
229.767
229.704
229.644
229.585
229.53
229.477
229.426
229.376
229.322
229.247
219.373
220.861
220.785
220.744
220.728
220.755
220.888
221.219
221.719
222.191
222.536
222.809
223.079
223.363
223.617
223.797
223.919
224.036
224.174
224.323
224.468
224.604
224.734
224.863
224.99
225.113
225.23
225.342
225.451
225.557
225.658
225.756
225.855
225.957
226.057
226.15
226.236
226.324
226.419
226.521
226.626
226.728
226.828
226.926
227.026
227.128
227.233
227.339
227.445
227.551
227.659
227.767
227.877
227.986
228.096
228.206
228.315
228.425
228.535
228.646
228.757
228.867
228.978
229.087
229.196
229.303
229.409
229.514
229.616
229.716
229.814
229.908
229.999
230.086
230.169
230.248
230.321
230.389
230.451
230.508
230.557
230.601
230.637
230.667
230.69
230.706
230.715
230.718
230.714
230.703
230.686
230.663
230.635
230.601
230.563
230.521
230.475
230.424
230.372
230.316
230.258
230.198
230.137
230.075
230.01
229.947
229.883
229.818
229.754
229.689
229.625
229.562
229.5
229.439
229.381
229.325
229.272
229.221
229.171
229.117
229.042
219.015
220.738
220.673
220.639
220.629
220.664
220.817
221.171
221.677
222.139
222.478
222.756
223.032
223.319
223.567
223.741
223.863
223.987
224.132
224.286
224.434
224.573
224.707
224.84
224.971
225.097
225.217
225.331
225.443
225.551
225.654
225.754
225.855
225.959
226.06
226.153
226.24
226.329
226.425
226.527
226.632
226.734
226.834
226.932
227.032
227.134
227.238
227.342
227.447
227.552
227.659
227.766
227.875
227.983
228.091
228.199
228.306
228.414
228.522
228.631
228.739
228.847
228.954
229.061
229.166
229.27
229.373
229.473
229.571
229.667
229.76
229.849
229.935
230.017
230.095
230.167
230.235
230.297
230.353
230.404
230.448
230.485
230.516
230.539
230.556
230.567
230.571
230.568
230.559
230.543
230.522
230.495
230.463
230.426
230.384
230.339
230.29
230.237
230.182
230.124
230.065
230.004
229.94
229.877
229.812
229.748
229.683
229.618
229.553
229.488
229.424
229.361
229.298
229.238
229.179
229.124
229.071
229.02
228.97
228.916
228.842
218.65
220.619
220.566
220.541
220.535
220.58
220.751
221.126
221.636
222.089
222.424
222.705
222.987
223.275
223.517
223.685
223.809
223.939
224.091
224.249
224.4
224.543
224.681
224.818
224.952
225.08
225.203
225.32
225.434
225.545
225.65
225.752
225.855
225.96
226.062
226.156
226.244
226.334
226.43
226.532
226.637
226.74
226.839
226.938
227.037
227.139
227.242
227.345
227.449
227.553
227.659
227.765
227.872
227.979
228.085
228.191
228.297
228.403
228.509
228.615
228.72
228.826
228.93
229.034
229.136
229.236
229.335
229.431
229.525
229.617
229.705
229.79
229.871
229.947
230.019
230.087
230.149
230.205
230.256
230.3
230.338
230.369
230.394
230.412
230.424
230.429
230.428
230.42
230.405
230.385
230.36
230.329
230.293
230.252
230.208
230.159
230.107
230.052
229.995
229.935
229.874
229.812
229.747
229.683
229.617
229.552
229.486
229.42
229.355
229.29
229.225
229.162
229.099
229.039
228.98
228.925
228.872
228.822
228.771
228.717
228.643
218.276
220.501
220.463
220.446
220.446
220.501
220.69
221.085
221.597
222.041
222.372
222.656
222.944
223.231
223.467
223.63
223.756
223.893
224.051
224.213
224.367
224.513
224.655
224.795
224.932
225.064
225.189
225.309
225.426
225.538
225.645
225.749
225.854
225.96
226.064
226.159
226.248
226.338
226.435
226.538
226.642
226.745
226.844
226.943
227.042
227.143
227.245
227.348
227.45
227.554
227.658
227.764
227.869
227.974
228.079
228.183
228.287
228.391
228.495
228.598
228.702
228.804
228.906
229.006
229.105
229.202
229.297
229.39
229.479
229.566
229.65
229.73
229.806
229.877
229.944
230.006
230.062
230.113
230.157
230.196
230.228
230.254
230.273
230.285
230.292
230.292
230.285
230.272
230.253
230.229
230.199
230.164
230.124
230.081
230.033
229.982
229.927
229.87
229.811
229.749
229.686
229.622
229.556
229.491
229.424
229.358
229.292
229.226
229.16
229.095
229.03
228.966
228.904
228.843
228.785
228.729
228.677
228.626
228.576
228.522
228.448
217.891
220.386
220.364
220.356
220.361
220.427
220.634
221.047
221.56
221.994
222.322
222.61
222.902
223.187
223.417
223.575
223.705
223.849
224.012
224.178
224.334
224.483
224.629
224.773
224.913
225.047
225.174
225.297
225.416
225.531
225.64
225.746
225.852
225.96
226.065
226.161
226.251
226.342
226.439
226.542
226.647
226.749
226.849
226.947
227.047
227.147
227.248
227.35
227.451
227.554
227.657
227.762
227.866
227.969
228.072
228.175
228.277
228.379
228.481
228.582
228.683
228.783
228.881
228.979
229.074
229.168
229.259
229.347
229.433
229.515
229.594
229.669
229.74
229.807
229.868
229.924
229.975
230.02
230.059
230.092
230.119
230.139
230.152
230.16
230.161
230.156
230.144
230.126
230.103
230.074
230.04
230.001
229.958
229.911
229.861
229.806
229.75
229.69
229.629
229.565
229.501
229.436
229.368
229.302
229.235
229.168
229.101
229.034
228.968
228.903
228.837
228.774
228.711
228.65
228.592
228.537
228.484
228.434
228.384
228.33
228.257
217.497
220.272
220.268
220.271
220.281
220.356
220.582
221.012
221.523
221.949
222.275
222.567
222.862
223.144
223.367
223.522
223.656
223.806
223.975
224.143
224.302
224.454
224.604
224.751
224.894
225.03
225.16
225.285
225.407
225.524
225.635
225.742
225.851
225.96
226.066
226.163
226.253
226.345
226.443
226.547
226.651
226.753
226.853
226.952
227.051
227.151
227.251
227.352
227.452
227.554
227.656
227.759
227.862
227.964
228.066
228.166
228.267
228.366
228.466
228.565
228.663
228.761
228.857
228.951
229.043
229.133
229.22
229.305
229.386
229.464
229.539
229.609
229.675
229.736
229.792
229.843
229.888
229.928
229.961
229.989
230.009
230.024
230.032
230.035
230.031
230.02
230.003
229.981
229.953
229.92
229.883
229.84
229.794
229.744
229.69
229.633
229.575
229.513
229.45
229.385
229.319
229.252
229.183
229.116
229.048
228.98
228.913
228.846
228.779
228.714
228.648
228.584
228.522
228.461
228.403
228.348
228.295
228.245
228.195
228.141
228.067
217.095
220.155
220.177
220.19
220.204
220.29
220.535
220.979
221.489
221.907
222.231
222.525
222.822
223.1
223.318
223.469
223.608
223.765
223.938
224.109
224.27
224.425
224.578
224.729
224.875
225.013
225.146
225.273
225.398
225.517
225.63
225.739
225.849
225.96
226.066
226.164
226.255
226.348
226.447
226.551
226.655
226.757
226.857
226.956
227.054
227.154
227.253
227.353
227.453
227.553
227.655
227.757
227.858
227.959
228.058
228.157
228.256
228.354
228.451
228.548
228.644
228.738
228.831
228.923
229.011
229.098
229.181
229.262
229.339
229.413
229.482
229.548
229.609
229.665
229.716
229.762
229.802
229.836
229.864
229.885
229.901
229.91
229.914
229.911
229.901
229.886
229.864
229.838
229.806
229.769
229.727
229.682
229.632
229.579
229.523
229.463
229.402
229.338
229.273
229.207
229.139
229.072
229.002
228.934
228.865
228.796
228.729
228.661
228.594
228.528
228.462
228.398
228.336
228.275
228.217
228.162
228.109
228.059
228.009
227.956
227.883
216.687
220.036
220.092
220.111
220.129
220.226
220.491
220.949
221.455
221.866
222.189
222.485
222.783
223.057
223.268
223.419
223.562
223.725
223.902
224.075
224.239
224.397
224.554
224.707
224.855
224.996
225.131
225.261
225.388
225.509
225.624
225.735
225.846
225.959
226.066
226.165
226.257
226.351
226.45
226.554
226.659
226.761
226.861
226.959
227.058
227.157
227.255
227.354
227.453
227.553
227.653
227.754
227.854
227.953
228.051
228.148
228.245
228.341
228.436
228.531
228.624
228.716
228.806
228.894
228.98
229.062
229.142
229.219
229.292
229.361
229.426
229.487
229.543
229.594
229.64
229.68
229.715
229.743
229.766
229.782
229.793
229.797
229.795
229.787
229.772
229.752
229.727
229.696
229.66
229.619
229.574
229.525
229.472
229.416
229.357
229.295
229.232
229.166
229.1
229.032
228.963
228.894
228.823
228.754
228.685
228.615
228.547
228.479
228.412
228.346
228.28
228.216
228.153
228.093
228.035
227.98
227.928
227.878
227.828
227.775
227.703
216.277
219.919
220.008
220.033
220.057
220.166
220.45
220.92
221.423
221.827
222.149
222.447
222.745
223.014
223.22
223.37
223.518
223.687
223.867
224.043
224.209
224.37
224.529
224.686
224.836
224.98
225.117
225.249
225.378
225.501
225.618
225.73
225.844
225.958
226.066
226.166
226.259
226.353
226.453
226.557
226.662
226.764
226.864
226.962
227.061
227.159
227.257
227.355
227.453
227.552
227.651
227.751
227.849
227.947
228.043
228.139
228.234
228.328
228.421
228.513
228.604
228.694
228.781
228.866
228.948
229.027
229.103
229.176
229.245
229.309
229.37
229.426
229.477
229.523
229.564
229.599