/*--------------------------------*- C++ -*----------------------------------*\
| =========                 |                                                 |
| \\      /  F ield         | OpenFOAM: The Open Source CFD Toolbox           |
|  \\    /   O peration     | Version:  2412                                  |
|   \\  /    A nd           | Website:  www.openfoam.com                      |
|    \\/     M anipulation  |                                                 |
\*---------------------------------------------------------------------------*/
FoamFile
{
    version     2.0;
    format      ascii;
    arch        "LSB;label=32;scalar=64";
    class       volScalarField;
    location    "0.014";
    object      p;
}
// * * * * * * * * * * * * * * * * * * * * * * * * * * * * * * * * * * * * * //

dimensions      [1 -1 -2 0 0 0 0];

internalField   nonuniform List<scalar> 
9922
(
3281.89
2978.7
2957.48
2924.32
2884.38
2844.36
2813.75
2796.89
2791.07
2790.06
2790
2790
2790
2790
2790.02
2790.46
2793.94
2802.02
2808.43
2809.46
2804.42
2783.33
2754.06
2726.57
2701.69
2677.38
2652.44
2626.9
2601.7
2578.47
2559.56
2547.28
2542.16
2541.51
2543.41
2546.45
2547.67
2546
2539.84
2529.11
2516.47
2504.16
2492.19
2478.9
2463.1
2445.34
2426.8
2407.97
2388.58
2368.41
2347.85
2327.56
2307.55
2286.04
2257.6
2213.96
2156.65
2104.44
2070.31
2049.26
2034.05
2020.54
2006.87
1993.08
1979.36
1966.25
1953.66
1941.75
1930.28
1919.36
1908.7
1898.59
1888.8
1879.47
1870.44
1861.67
1853.3
1845.21
1837.54
1830.23
1823.15
1816.32
1809.61
1803.19
1797.07
1791.26
1785.61
1780.09
1774.85
1769.88
1765.17
1760.73
1756.43
1752.27
1748.22
1744.33
1740.57
1736.98
1733.52
1730.2
1727
1723.92
1720.95
1718.09
1715.34
1712.72
1710.21
1707.85
1705.58
1703.45
1701.42
1699.47
1697.57
1695.76
1694.08
1692.42
1690.89
1689.38
1687.98
1686.72
1684.28
3278.91
2978.47
2956.28
2922.76
2882.77
2843.02
2812.9
2796.53
2790.99
2790.05
2790
2790
2790
2790
2790.01
2790.43
2793.78
2801.85
2808.49
2809.7
2805.03
2784.52
2755.4
2727.94
2703.24
2679.27
2654.72
2629.53
2604.44
2580.79
2560.72
2546.57
2539.48
2537.79
2539.12
2541.97
2543.57
2542.82
2538.08
2528.37
2516.09
2503.74
2491.61
2478.2
2462.39
2444.65
2426.12
2407.25
2387.79
2367.62
2347.28
2327.24
2306.41
2280.5
2241.37
2186.59
2131.51
2093.09
2069.65
2053.01
2038.75
2024.62
2010.29
1995.95
1982.25
1969.13
1956.7
1944.78
1933.36
1922.33
1911.76
1901.54
1891.9
1882.47
1873.63
1864.88
1856.55
1848.53
1840.9
1833.7
1826.68
1819.79
1813.18
1806.85
1800.86
1794.94
1789.21
1783.66
1778.35
1773.38
1768.64
1764.12
1759.76
1755.59
1751.57
1747.72
1744.02
1740.47
1737.08
1733.84
1730.73
1727.74
1724.86
1722.09
1719.43
1716.88
1714.43
1712.09
1709.83
1707.7
1705.67
1703.73
1701.84
1700.05
1698.4
1696.77
1695.28
1693.8
1692.43
1691.13
1688.88
3275.8
2978.25
2955.03
2921.14
2881.11
2841.65
2812.04
2796.18
2790.92
2790.05
2790
2790
2790
2790
2790.01
2790.39
2793.63
2801.68
2808.55
2809.94
2805.62
2785.7
2756.74
2729.31
2704.78
2681.11
2656.96
2632.15
2607.25
2583.36
2562.31
2546.36
2537.03
2534.12
2534.69
2537.09
2539.11
2539.22
2535.78
2527.33
2515.7
2503.45
2491.18
2477.64
2461.77
2444.03
2425.46
2406.51
2387.01
2367.02
2346.98
2326.51
2302.5
2267.58
2216.41
2159.86
2117.19
2091.03
2072.77
2057.66
2043.07
2028.19
2013.22
1998.89
1985.18
1972.27
1959.85
1947.95
1936.51
1925.42
1914.83
1904.61
1894.8
1885.42
1876.37
1867.69
1859.36
1851.42
1843.89
1836.64
1829.66
1822.79
1816.28
1810.04
1803.96
1798.07
1792.38
1787.02
1782
1777.19
1772.54
1767.98
1763.59
1759.36
1755.31
1751.43
1747.67
1744.06
1740.57
1737.21
1733.99
1730.9
1727.95
1725.13
1722.45
1719.9
1717.48
1715.18
1712.96
1710.88
1708.85
1706.93
1705.09
1703.34
1701.71
1700.1
1698.61
1697.14
1695.82
1694.53
1692.38
3272.6
2978.02
2953.74
2919.47
2879.41
2840.25
2811.18
2795.83
2790.84
2790.04
2790
2790
2790
2790
2790.01
2790.36
2793.47
2801.5
2808.59
2810.19
2806.2
2786.9
2758.11
2730.69
2706.29
2682.92
2659.15
2634.73
2610.1
2586.1
2564.25
2546.58
2535.12
2530.49
2530.08
2531.94
2534.26
2535.02
2532.71
2525.82
2515.18
2503.22
2490.91
2477.24
2461.28
2443.47
2424.81
2405.8
2386.42
2366.72
2346.51
2323.79
2292.32
2245.2
2188.64
2142.25
2113.21
2093.34
2077.28
2062.2
2046.77
2031.17
2016.1
2001.67
1988.16
1975.22
1962.89
1950.96
1939.5
1928.48
1917.82
1907.64
1897.88
1888.49
1879.54
1870.8
1862.53
1854.59
1846.99
1839.74
1832.7
1825.92
1819.38
1813.1
1806.97
1801.03
1795.43
1790.16
1785.15
1780.29
1775.56
1770.96
1766.56
1762.4
1758.43
1754.66
1751.01
1747.52
1744.1
1740.82
1737.63
1734.58
1731.65
1728.85
1726.17
1723.61
1721.17
1718.84
1716.59
1714.46
1712.38
1710.4
1708.46
1706.61
1704.87
1703.11
1701.5
1699.9
1698.47
1697.09
1694.89
3269.26
2977.8
2952.41
2917.75
2877.66
2838.83
2810.31
2795.49
2790.77
2790.04
2790
2790
2790
2790
2790.01
2790.33
2793.32
2801.31
2808.62
2810.43
2806.75
2788.1
2759.49
2732.06
2707.79
2684.69
2661.29
2637.27
2612.96
2589.01
2566.6
2547.41
2533.87
2526.95
2525.37
2526.6
2528.88
2530.13
2528.88
2523.76
2514.4
2502.97
2490.75
2477
2460.94
2443
2424.26
2405.31
2386.15
2366.38
2344.57
2315.84
2272.83
2217.57
2168.17
2136.05
2114.69
2097.73
2082.11
2066.13
2049.94
2034.13
2018.93
2004.7
1991.18
1978.32
1965.9
1953.95
1942.39
1931.36
1920.64
1910.41
1900.66
1891.28
1882.33
1873.64
1865.45
1857.62
1850.16
1842.91
1835.94
1829.16
1822.62
1816.31
1810.21
1804.38
1798.91
1793.69
1788.64
1783.72
1778.89
1774.25
1769.81
1765.57
1761.5
1757.59
1753.85
1750.29
1746.88
1743.61
1740.45
1737.44
1734.55
1731.8
1729.17
1726.66
1724.26
1721.97
1719.73
1717.58
1715.5
1713.5
1711.55
1709.69
1707.98
1706.26
1704.71
1703.18
1701.81
1700.52
1698.28
3265.82
2977.57
2951.02
2915.98
2875.86
2837.38
2809.45
2795.15
2790.7
2790.03
2790
2790
2790
2790
2790.01
2790.31
2793.16
2801.11
2808.65
2810.67
2807.3
2789.31
2760.9
2733.45
2709.26
2686.41
2663.38
2639.76
2615.81
2592.01
2569.28
2549.05
2533.49
2523.75
2520.63
2520.99
2522.87
2524.5
2524.27
2520.84
2513.06
2502.52
2490.59
2476.87
2460.74
2442.7
2423.94
2405.09
2385.9
2364.93
2338.23
2298.8
2245.71
2194.35
2159.27
2136.61
2118.81
2102.66
2086.19
2069.5
2052.96
2036.93
2021.89
2007.66
1994.22
1981.33
1968.87
1956.89
1945.34
1934.15
1923.51
1913.17
1903.48
1894.01
1885.05
1876.38
1868.14
1860.29
1852.77
1845.59
1838.69
1831.88
1825.36
1819.06
1813.07
1807.45
1802.11
1796.94
1791.86
1786.93
1782.25
1777.8
1773.54
1769.36
1765.31
1761.37
1757.62
1754.02
1750.57
1747.25
1744.03
1740.97
1738.03
1735.23
1732.55
1729.98
1727.53
1725.17
1722.9
1720.72
1718.65
1716.64
1714.73
1712.93
1711.31
1709.68
1708.18
1706.67
1705.31
1704.09
1701.71
3262.23
2977.34
2949.59
2914.14
2874.02
2835.91
2808.58
2794.82
2790.64
2790.03
2790
2790
2790
2790
2790.01
2790.28
2793.01
2800.9
2808.66
2810.91
2807.82
2790.53
2762.32
2734.84
2710.74
2688.12
2665.42
2642.19
2618.62
2595.08
2572.26
2551.21
2533.73
2521.31
2515.81
2514.96
2516.28
2518.13
2518.68
2516.75
2510.87
2501.66
2490.31
2476.75
2460.62
2442.56
2423.78
2404.84
2384.66
2359.62
2323.26
2272.8
2220.56
2182.83
2158.92
2140.34
2123.75
2106.99
2089.88
2072.63
2055.8
2039.93
2024.86
2010.72
1997.23
1984.27
1971.81
1959.7
1948.17
1936.94
1926.28
1916.14
1906.3
1896.96
1887.9
1879.26
1871.08
1863.32
1855.89
1848.64
1841.56
1834.76
1828.11
1821.9
1815.99
1810.34
1804.97
1799.64
1794.47
1789.53
1784.88
1780.51
1776.28
1772.14
1768.11
1764.25
1760.55
1757.02
1753.62
1750.38
1747.26
1744.31
1741.45
1738.73
1736.07
1733.52
1731.04
1728.68
1726.42
1724.29
1722.27
1720.34
1718.47
1716.7
1715.06
1713.41
1711.9
1710.39
1709.02
1707.81
1705.38
3258.54
2977.11
2948.12
2912.25
2872.13
2834.42
2807.71
2794.5
2790.57
2790.02
2790
2790
2790
2790
2790.01
2790.26
2792.86
2800.68
2808.66
2811.15
2808.33
2791.75
2763.77
2736.25
2712.2
2689.78
2667.4
2644.56
2621.38
2598.16
2575.4
2553.83
2534.85
2520.28
2511.17
2508.53
2509.03
2510.73
2511.82
2511.15
2507.36
2499.94
2489.62
2476.47
2460.46
2442.39
2423.46
2403.54
2379.67
2345.77
2298.03
2246.02
2206.48
2181.42
2162.12
2145.2
2128.4
2110.99
2093.09
2075.57
2058.86
2042.89
2027.94
2013.72
2000.21
1987.18
1974.6
1962.49
1950.77
1939.65
1928.86
1918.71
1908.88
1899.44
1890.51
1881.88
1873.76
1866.08
1858.71
1851.47
1844.46
1837.57
1831.07
1824.97
1819.13
1813.55
1808.13
1802.9
1797.82
1793.01
1788.39
1783.92
1779.52
1775.24
1771.12
1767.19
1763.43
1759.78
1756.28
1752.94
1749.78
1746.78
1743.92
1741.19
1738.57
1736.09
1733.72
1731.48
1729.32
1727.29
1725.35
1723.49
1721.68
1719.94
1718.34
1716.74
1715.29
1713.84
1712.5
1711.29
1708.95
3254.68
2976.86
2946.58
2910.29
2870.19
2832.9
2806.84
2794.18
2790.51
2790.02
2790
2790
2790
2790
2790.01
2790.23
2792.7
2800.45
2808.66
2811.39
2808.82
2792.98
2765.23
2737.67
2713.66
2691.43
2669.34
2646.87
2624.09
2601.22
2578.66
2556.88
2537
2520.36
2507.89
2501.76
2500.8
2501.99
2503.33
2503.69
2501.85
2496.69
2487.95
2475.61
2459.86
2441.63
2421.65
2398.17
2366.04
2321.02
2270.32
2229.97
2203.96
2184.04
2166.83
2150.12
2132.6
2114.34
2096.22
2078.65
2061.83
2046.04
2031.01
2016.79
2003.17
1990.08
1977.43
1965.26
1953.51
1942.33
1931.62
1921.3
1911.53
1902.03
1893.05
1884.44
1876.35
1868.64
1861.22
1853.88
1846.83
1840.05
1833.62
1827.58
1821.76
1816.13
1810.61
1805.34
1800.38
1795.66
1791.11
1786.6
1782.2
1778.01
1774.09
1770.35
1766.72
1763.16
1759.71
1756.4
1753.23
1750.19
1747.27
1744.47
1741.79
1739.24
1736.8
1734.48
1732.28
1730.21
1728.19
1726.29
1724.44
1722.7
1721.09
1719.47
1718.02
1716.59
1715.33
1714.14
1712.03
3250.71
2976.59
2944.97
2908.25
2868.21
2831.37
2805.97
2793.87
2790.46
2790.02
2790
2790
2790
2790
2790.01
2790.21
2792.55
2800.21
2808.64
2811.63
2809.29
2794.21
2766.72
2739.11
2715.12
2693.04
2671.24
2649.11
2626.72
2604.23
2581.94
2560.16
2539.68
2521.57
2507
2496.17
2491.79
2491.53
2492.65
2493.61
2493.28
2490.6
2483.93
2472.82
2457.35
2438.06
2414.45
2383.17
2340.66
2292.51
2252.84
2226.43
2206.06
2188.55
2171.97
2154.55
2136.22
2117.65
2099.31
2081.71
2065.06
2049.13
2034.08
2019.74
2006.02
1992.85
1980.11
1967.86
1956.14
1944.85
1934.18
1923.8
1914.09
1904.69
1895.74
1887.23
1879.22
1871.53
1864.04
1856.64
1849.53
1842.95
1836.57
1830.59
1824.76
1819.05
1813.61
1808.3
1803.27
1798.42
1793.66
1788.94
1784.42
1780.22
1776.33
1772.61
1768.98
1765.47
1762.15
1759.03
1756.05
1753.17
1750.36
1747.64
1745.01
1742.49
1740.06
1737.75
1735.55
1733.47
1731.39
1729.46
1727.55
1725.76
1724.09
1722.39
1720.82
1719.24
1717.81
1716.42
1714.24
3246.55
2976.28
2943.26
2906.14
2866.18
2829.82
2805.1
2793.57
2790.41
2790.01
2790
2790
2790
2790
2790
2790.19
2792.41
2799.96
2808.6
2811.86
2809.75
2795.45
2768.23
2740.58
2716.59
2694.65
2673.09
2651.29
2629.27
2607.18
2585.23
2563.61
2542.87
2523.8
2507.53
2494.14
2484.17
2479.94
2479.26
2479.81
2480.37
2479.55
2475.17
2465.26
2449.29
2426.84
2396.22
2356.17
2311.94
2274.83
2248.82
2228.13
2210.34
2193.84
2176.63
2158.48
2139.69
2120.78
2102.47
2084.97
2068.21
2052.35
2037.17
2022.72
2008.92
1995.58
1982.82
1970.45
1958.69
1947.29
1936.46
1926.24
1916.41
1907.14
1898.05
1889.61
1881.56
1873.9
1866.49
1859.14
1852.13
1845.65
1839.43
1833.39
1827.59
1822.01
1816.62
1811.44
1806.37
1801.46
1796.63
1792.01
1787.69
1783.68
1779.81
1775.95
1772.14
1768.52
1765.15
1761.98
1758.95
1756.01
1753.18
1750.45
1747.84
1745.35
1742.96
1740.7
1738.51
1736.45
1734.4
1732.49
1730.59
1728.81
1727.16
1725.48
1723.95
1722.42
1721.05
1719.65
1717.55
3242.29
2975.9
2941.44
2903.95
2864.11
2828.25
2804.24
2793.27
2790.36
2790.01
2790
2790
2790
2790
2790
2790.17
2792.26
2799.7
2808.56
2812.08
2810.21
2796.68
2769.77
2742.07
2718.06
2696.23
2674.91
2653.41
2631.75
2610.04
2588.45
2567.1
2546.35
2526.65
2509.02
2494.08
2481.22
2470.95
2465.19
2462.68
2461.74
2460.98
2457.45
2447.9
2429.94
2402.53
2366.62
2328.11
2295.46
2270.92
2250.22
2232.13
2215.64
2198.7
2180.86
2162.09
2142.91
2124.05
2105.77
2088.22
2071.52
2055.48
2040.22
2025.65
2011.68
1998.32
1985.4
1973.08
1961.13
1949.82
1938.89
1928.73
1918.9
1909.49
1900.62
1892.08
1884.06
1876.26
1868.77
1861.48
1854.58
1848.18
1841.88
1835.82
1830
1824.38
1819.06
1813.89
1808.81
1803.82
1799.04
1794.62
1790.61
1786.79
1782.96
1779.09
1775.33
1771.81
1768.5
1765.31
1762.25
1759.29
1756.45
1753.73
1751.09
1748.55
1746.12
1743.8
1741.56
1739.41
1737.36
1735.39
1733.45
1731.64
1730.01
1728.41
1726.98
1725.53
1724.21
1722.88
1720.76
3237.77
2975.42
2939.52
2901.69
2861.99
2826.66
2803.38
2792.99
2790.31
2790.01
2790
2790
2790
2790
2790
2790.15
2792.12
2799.43
2808.49
2812.29
2810.66
2797.9
2771.33
2743.58
2719.55
2697.81
2676.7
2655.49
2634.16
2612.82
2591.61
2570.57
2549.96
2530.13
2511.7
2495.26
2480.91
2467.88
2456.19
2447.37
2441.3
2436.67
2430.73
2419.44
2399.75
2372.24
2341.97
2314.91
2292.44
2272.19
2253.91
2237.34
2220.7
2203.26
2184.68
2165.47
2146.27
2127.37
2109.12
2091.64
2074.79
2058.69
2043.27
2028.52
2014.45
2000.92
1987.97
1975.48
1963.54
1952.11
1941.33
1931
1921.24
1911.78
1902.99
1894.59
1886.56
1878.79
1871.33
1864.24
1857.39
1850.97
1844.73
1838.76
1833.07
1827.46
1822.13
1816.87
1811.81
1806.85
1802.14
1797.79
1793.73
1789.74
1785.69
1781.7
1777.98
1774.53
1771.23
1768.02
1764.94
1762.03
1759.27
1756.63
1754.08
1751.63
1749.27
1747.02
1744.87
1742.8
1740.81
1738.91
1737.08
1735.36
1733.76
1732.13
1730.64
1729.14
1727.77
1726.47
1724.27
3233
2974.8
2937.53
2899.37
2859.83
2825.06
2802.53
2792.72
2790.27
2790.01
2790
2790
2790
2790
2790
2790.14
2791.98
2799.15
2808.41
2812.49
2811.1
2799.12
2772.91
2745.13
2721.05
2699.39
2678.45
2657.5
2636.5
2615.5
2594.67
2573.98
2553.64
2533.77
2514.82
2497.4
2481.87
2467.57
2453.97
2440.81
2428.83
2418.52
2408.17
2394.94
2377.05
2355.68
2333.85
2313.21
2293.71
2275.61
2259.02
2242.59
2225.56
2207.28
2188.23
2168.9
2149.6
2130.8
2112.62
2095.01
2078.13
2061.86
2046.27
2031.41
2017.15
2003.53
1990.45
1977.9
1965.88
1954.41
1943.58
1933.07
1923.22
1913.85
1905.02
1896.69
1888.67
1880.88
1873.4
1866.38
1859.54
1853.11
1846.96
1841.18
1835.59
1830.14
1824.78
1819.62
1814.62
1809.86
1805.33
1801.03
1796.87
1792.73
1788.65
1784.79
1781.22
1777.83
1774.49
1771.23
1768.1
1765.15
1762.35
1759.66
1757.06
1754.56
1752.16
1749.88
1747.71
1745.65
1743.69
1741.82
1740.02
1738.3
1736.73
1735.13
1733.67
1732.2
1730.85
1729.61
1727.26
3227.76
2974.03
2935.49
2896.99
2857.6
2823.43
2801.69
2792.45
2790.23
2790.01
2790
2790
2790
2790
2790
2790.12
2791.85
2798.86
2808.31
2812.69
2811.55
2800.33
2774.52
2746.72
2722.58
2700.97
2680.19
2659.48
2638.76
2618.1
2597.63
2577.3
2557.27
2537.58
2518.54
2500.41
2483.68
2468.46
2453.89
2439.67
2426.02
2413.25
2400.89
2387.25
2371.11
2352.7
2333.44
2314.68
2297.01
2280.65
2264.37
2247.66
2229.78
2211.05
2191.73
2172.28
2153.14
2134.37
2116.12
2098.53
2081.47
2065.04
2049.29
2034.2
2019.85
2006.05
1992.91
1980.27
1968.26
1956.69
1945.7
1935.28
1925.42
1916.22
1907.27
1898.88
1890.92
1883.22
1875.86
1868.82
1861.85
1855.4
1849.28
1843.61
1838.03
1832.56
1827.21
1822.05
1817.13
1812.42
1807.92
1803.53
1799.21
1794.99
1791.06
1787.49
1784.13
1780.84
1777.59
1774.45
1771.46
1768.63
1765.89
1763.25
1760.66
1758.19
1755.78
1753.49
1751.26
1749.11
1747.06
1745.1
1743.21
1741.42
1739.8
1738.16
1736.68
1735.22
1733.91
1732.74
1730.53
3222.15
2973.17
2933.42
2894.55
2855.33
2821.79
2800.86
2792.2
2790.2
2790
2790
2790
2790
2790
2790
2790.11
2791.71
2798.56
2808.19
2812.88
2811.98
2801.53
2776.15
2748.33
2724.12
2702.54
2681.91
2661.41
2640.97
2620.62
2600.49
2580.51
2560.81
2541.42
2522.48
2504.19
2486.71
2470.3
2454.92
2440.13
2425.85
2412.64
2400.03
2386.48
2370.84
2353.42
2335.39
2318.07
2302.07
2286.07
2269.63
2252.1
2233.76
2214.64
2195.21
2175.87
2156.71
2137.98
2119.76
2101.98
2084.81
2068.21
2052.24
2037.02
2022.43
2008.56
1995.19
1982.53
1970.34
1958.77
1947.58
1937.29
1927.5
1918.27
1909.41
1900.9
1892.98
1885.5
1878.2
1871.16
1864.26
1857.97
1852.08
1846.41
1840.73
1835.15
1829.86
1824.8
1819.98
1815.34
1810.85
1806.43
1802.08
1797.95
1794.2
1790.73
1787.33
1783.9
1780.52
1777.3
1774.24
1771.33
1768.53
1765.83
1763.25
1760.81
1758.45
1756.18
1753.96
1751.85
1749.8
1747.86
1745.97
1744.18
1742.53
1740.86
1739.33
1737.79
1736.4
1735.09
1732.76
3216.14
2972.28
2931.32
2892.04
2852.99
2820.13
2800.04
2791.97
2790.17
2790
2790
2790
2790
2790
2790
2790.1
2791.59
2798.25
2808.05
2813.06
2812.41
2802.71
2777.81
2749.99
2725.7
2704.14
2683.63
2663.32
2643.12
2623.06
2603.25
2583.61
2564.25
2545.14
2526.4
2508.11
2490.48
2473.46
2457.19
2441.56
2426.97
2413.63
2401.01
2387.71
2372.56
2355.94
2339.24
2323.3
2307.52
2291.43
2274.24
2256.27
2237.47
2218.22
2198.82
2179.47
2160.44
2141.72
2123.37
2105.56
2088.2
2071.38
2055.26
2039.78
2025.07
2010.98
1997.57
1984.7
1972.48
1960.78
1949.76
1939.29
1929.51
1920.03
1911.28
1902.83
1894.87
1887.36
1880.03
1872.96
1866.31
1860.27
1854.5
1848.81
1842.99
1837.41
1832.16
1827.23
1822.48
1817.92
1813.54
1809.29
1805.23
1801.4
1797.8
1794.32
1790.88
1787.48
1784.15
1780.93
1777.83
1774.84
1771.95
1769.16
1766.48
1763.93
1761.46
1759.11
1756.87
1754.76
1752.7
1750.78
1748.9
1747.13
1745.5
1743.85
1742.33
1740.78
1739.41
1738.04
1735.84
3210.01
2971.4
2929.17
2889.46
2850.61
2818.46
2799.24
2791.74
2790.14
2790
2790
2790
2790
2790
2790
2790.08
2791.46
2797.94
2807.88
2813.23
2812.84
2803.87
2779.48
2751.69
2727.31
2705.75
2685.33
2665.19
2645.21
2625.42
2605.91
2586.6
2567.57
2548.8
2530.38
2512.29
2494.58
2477.42
2460.63
2444.62
2429.43
2415.7
2403.11
2390.23
2375.99
2360.5
2344.53
2328.77
2312.95
2296.17
2278.56
2260.08
2241.13
2221.85
2202.48
2183.27
2164.23
2145.47
2127.12
2109.1
2091.56
2074.58
2058.18
2042.56
2027.59
2013.36
1999.78
1986.8
1974.44
1962.74
1951.84
1941.28
1931.28
1921.77
1913.09
1904.97
1897.17
1889.59
1882.16
1875.13
1868.69
1862.88
1857.07
1851.3
1845.47
1839.93
1834.8
1829.93
1825.25
1820.72
1816.35
1812.17
1808.22
1804.45
1800.77
1797.14
1793.58
1790.12
1786.78
1783.57
1780.5
1777.56
1774.74
1772.04
1769.45
1766.95
1764.52
1762.17
1759.9
1757.76
1755.67
1753.73
1751.82
1750.01
1748.34
1746.64
1745.08
1743.51
1742.07
1740.61
1738.44
3203.72
2970.55
2926.97
2886.81
2848.17
2816.79
2798.45
2791.53
2790.12
2790
2790
2790
2790
2790
2790
2790.07
2791.34
2797.61
2807.69
2813.4
2813.26
2805
2781.18
2753.42
2728.96
2707.39
2687.05
2667.05
2647.26
2627.71
2608.49
2589.48
2570.76
2552.3
2534.16
2516.38
2498.93
2481.73
2464.97
2448.54
2433.17
2419.46
2407.08
2394.6
2380.79
2365.71
2350.09
2334.17
2317.74
2300.58
2282.47
2263.84
2244.81
2225.56
2206.3
2187.11
2168.1
2149.34
2130.82
2112.71
2095
2077.76
2061.19
2045.26
2030.16
2015.66
2001.96
1988.81
1976.36
1964.54
1953.37
1942.85
1932.74
1923.48
1914.65
1906.64
1898.87
1891.27
1884.02
1877.3
1871.08
1865.34
1859.37
1853.61
1848.07
1842.81
1837.94
1833.25
1828.73
1824.36
1820.14
1816.11
1812.21
1808.35
1804.5
1800.72
1797.09
1793.58
1790.15
1786.85
1783.72
1780.79
1778.03
1775.38
1772.82
1770.36
1767.97
1765.67
1763.44
1761.31
1759.27
1757.31
1755.36
1753.49
1751.77
1750.05
1748.53
1747.02
1745.65
1744.3
1742.2
3197.38
2969.68
2924.72
2884.09
2845.7
2815.11
2797.69
2791.33
2790.09
2790
2790
2790
2790
2790
2790
2790.06
2791.23
2797.29
2807.47
2813.56
2813.68
2806.1
2782.9
2755.2
2730.64
2709.05
2688.77
2668.89
2649.27
2629.94
2610.97
2592.24
2573.83
2555.67
2537.84
2520.32
2503.13
2486.23
2469.47
2453.21
2437.83
2424.02
2411.71
2399.56
2386.15
2371.22
2355.27
2338.97
2322.17
2304.56
2286.29
2267.54
2248.54
2229.4
2210.18
2191.07
2172.06
2153.21
2134.64
2116.34
2098.41
2080.99
2064.13
2048.03
2032.63
2018.04
2003.97
1990.83
1978.15
1966.31
1954.82
1944.28
1934.49
1925.31
1916.53
1908.12
1900.26
1892.67
1885.65
1879.26
1873.13
1867.29
1861.26
1855.6
1850.32
1845.28
1840.52
1835.94
1831.51
1827.27
1823.18
1819.23
1815.33
1811.46
1807.7
1804.13
1800.71
1797.31
1793.93
1790.72
1787.74
1784.92
1782.19
1779.53
1776.96
1774.48
1772.08
1769.77
1767.56
1765.47
1763.49
1761.58
1759.7
1757.92
1756.27
1754.57
1753
1751.39
1749.96
1748.58
1746.28
3190.77
2968.75
2922.43
2881.32
2843.18
2813.43
2796.95
2791.15
2790.07
2790
2790
2790
2790
2790
2790
2790.06
2791.12
2796.95
2807.23
2813.71
2814.09
2807.18
2784.63
2757.02
2732.37
2710.74
2690.51
2670.73
2651.26
2632.12
2613.38
2594.91
2576.77
2558.9
2541.37
2524.14
2507.2
2490.51
2474.05
2457.86
2442.47
2428.78
2416.62
2404.56
2391.15
2376.15
2360.06
2343.36
2326.22
2308.43
2290.03
2271.3
2252.38
2233.31
2214.21
2195.1
2176.08
2157.19
2138.45
2120.01
2101.91
2084.2
2067.15
2050.74
2035.13
2020.24
2006.09
1992.54
1979.95
1967.76
1956.51
1945.79
1936.12
1926.87
1918.14
1909.71
1901.83
1894.41
1887.51
1881.3
1875.17
1869.4
1863.63
1858.31
1853.34
1848.43
1843.7
1839.14
1834.75
1830.55
1826.46
1822.43
1818.38
1814.47
1810.81
1807.4
1804.05
1800.65
1797.32
1794.27
1791.44
1788.68
1785.95
1783.29
1780.72
1778.26
1775.87
1773.58
1771.42
1769.4
1767.44
1765.54
1763.67
1761.87
1760.18
1758.47
1756.9
1755.32
1753.91
1752.58
1750.26
3183.91
2967.74
2920.1
2878.49
2840.61
2811.75
2796.23
2790.98
2790.06
2790
2790
2790
2790
2790
2790
2790.05
2791.02
2796.62
2806.96
2813.84
2814.49
2808.23
2786.39
2758.88
2734.13
2712.47
2692.28
2672.58
2653.23
2634.24
2615.71
2597.48
2579.6
2561.99
2544.71
2527.74
2511.08
2494.62
2478.32
2462.3
2447.12
2433.47
2421.33
2409.34
2395.92
2380.72
2364.32
2347.43
2330.09
2312.19
2293.8
2275.13
2256.3
2237.35
2218.28
2199.21
2180.17
2161.17
2142.35
2123.74
2105.39
2087.51
2070.12
2053.52
2037.57
2022.42
2008.06
1994.31
1981.39
1969.25
1958
1947.38
1937.19
1927.7
1918.97
1910.83
1903.17
1896.02
1889.11
1882.83
1876.66
1870.97
1865.66
1860.62
1855.8
1851.04
1846.44
1842.07
1837.92
1833.93
1829.98
1825.98
1822
1818.3
1814.91
1811.66
1808.31
1804.95
1801.76
1798.82
1795.96
1793.07
1790.15
1787.36
1784.75
1782.28
1779.93
1777.72
1775.62
1773.62
1771.65
1769.7
1767.79
1765.97
1764.28
1762.62
1761.07
1759.51
1758.09
1756.78
1754.43
3176.63
2966.61
2917.74
2875.61
2838.01
2810.07
2795.54
2790.83
2790.05
2790
2790
2790
2790
2790
2790
2790.04
2790.92
2796.28
2806.67
2813.95
2814.89
2809.24
2788.16
2760.78
2735.93
2714.24
2694.08
2674.44
2655.19
2636.34
2617.98
2599.96
2582.32
2564.95
2547.92
2531.18
2514.71
2498.47
2482.34
2466.48
2451.28
2437.63
2425.51
2413.53
2400.11
2384.89
2368.39
2351.29
2333.87
2315.96
2297.61
2279.03
2260.32
2241.45
2222.47
2203.41
2184.31
2165.26
2146.28
2127.48
2108.97
2090.78
2073.2
2056.22
2040.11
2024.58
2009.99
1996.1
1982.85
1970.62
1959.14
1948.53
1938.15
1928.55
1919.88
1912.06
1904.51
1897.42
1890.58
1884.36
1878.4
1873.02
1867.8
1862.76
1857.88
1853.23
1848.83
1844.7
1840.76
1836.95
1833.12
1829.23
1825.49
1822.09
1818.92
1815.75
1812.52
1809.44
1806.57
1803.78
1800.94
1797.96
1795
1792.22
1789.64
1787.18
1784.81
1782.58
1780.45
1778.4
1776.4
1774.46
1772.6
1770.83
1769.2
1767.55
1766
1764.44
1763.01
1761.63
1759.32
3168.98
2965.34
2915.28
2872.65
2835.35
2808.41
2794.88
2790.69
2790.03
2790
2790
2790
2790
2790
2790
2790.03
2790.83
2795.94
2806.36
2814.05
2815.28
2810.23
2789.94
2762.72
2737.78
2716.04
2695.91
2676.33
2657.15
2638.41
2620.2
2602.36
2584.92
2567.78
2550.97
2534.44
2518.16
2502.05
2486.07
2470.26
2455.16
2441.58
2429.49
2417.53
2404.1
2388.79
2372.21
2355.09
2337.62
2319.75
2301.49
2283.03
2264.42
2245.66
2226.73
2207.67
2188.54
2169.36
2150.26
2131.31
2112.53
2094.15
2076.23
2059
2042.46
2026.81
2011.65
1997.68
1984.17
1971.67
1959.82
1948.95
1938.98
1929.67
1921.14
1913.17
1905.49
1898.36
1891.68
1885.79
1880.34
1875.36
1870.15
1865.13
1860.33
1855.9
1851.82
1847.97
1844.22
1840.52
1836.84
1833.16
1829.68
1826.45
1823.31
1820.17
1817.09
1814.19
1811.41
1808.61
1805.69
1802.78
1800.09
1797.63
1795.24
1792.85
1790.56
1788.41
1786.32
1784.27
1782.27
1780.34
1778.5
1776.74
1775.11
1773.49
1771.96
1770.43
1769.03
1767.58
1765.43
3160.8
2963.87
2912.74
2869.59
2832.64
2806.76
2794.25
2790.56
2790.03
2790
2790
2790
2790
2790
2790
2790.03
2790.74
2795.59
2806.02
2814.12
2815.67
2811.17
2791.73
2764.7
2739.67
2717.9
2697.79
2678.25
2659.13
2640.47
2622.38
2604.7
2587.44
2570.48
2553.86
2537.51
2521.39
2505.43
2489.53
2473.83
2458.75
2445.12
2433.04
2421.16
2407.83
2392.59
2375.98
2358.79
2341.38
2323.58
2305.45
2287.1
2268.63
2249.95
2231.07
2212.01
2192.81
2173.56
2154.32
2135.16
2116.22
2097.53
2079.36
2061.8
2044.95
2028.9
2013.59
1998.93
1985.65
1972.65
1960.84
1949.58
1939.75
1930.73
1922.03
1913.76
1905.95
1898.81
1892.33
1886.71
1881.58
1876.9
1871.75
1866.96
1862.53
1858.49
1854.74
1851.15
1847.61
1844.11
1840.67
1837.36
1834.19
1831.12
1828.12
1825.2
1822.36
1819.6
1816.8
1813.85
1810.92
1808.26
1805.91
1803.64
1801.28
1798.92
1796.7
1794.61
1792.55
1790.48
1788.43
1786.49
1784.64
1782.89
1781.28
1779.69
1778.11
1776.63
1775.1
1773.67
1771.58
3152.07
2962.12
2910.04
2866.42
2829.89
2805.14
2793.67
2790.46
2790.02
2790
2790
2790
2790
2790
2790
2790.02
2790.66
2795.25
2805.65
2814.16
2816.05
2812.07
2793.53
2766.73
2741.61
2719.79
2699.7
2680.2
2661.13
2642.54
2624.54
2606.98
2589.87
2573.08
2556.63
2540.44
2524.45
2508.6
2492.81
2477.15
2462.11
2448.54
2436.52
2424.71
2411.44
2396.24
2379.68
2362.54
2345.15
2327.48
2309.47
2291.27
2272.9
2254.32
2235.47
2216.41
2197.17
2177.8
2158.42
2139.12
2119.91
2101
2082.48
2064.6
2047.41
2030.88
2015.35
2000.31
1986.52
1973.71
1961.67
1950.66
1940.23
1930.96
1922.11
1913.76
1906.31
1899.55
1893.47
1888
1882.78
1878.02
1873.12
1868.79
1864.86
1861.21
1857.7
1854.33
1851.03
1847.77
1844.64
1841.66
1838.74
1835.84
1832.99
1830.25
1827.62
1824.98
1822.21
1819.44
1817.02
1814.9
1812.84
1810.59
1808.2
1805.93
1803.81
1801.77
1799.72
1797.63
1795.63
1793.74
1791.9
1790.12
1788.42
1786.7
1785
1783.44
1781.84
1780.37
1778.31
3142.6
2960.03
2907.23
2863.13
2827.08
2803.55
2793.12
2790.36
2790.01
2790
2790
2790
2790
2790
2790
2790.02
2790.58
2794.91
2805.26
2814.18
2816.44
2812.93
2795.34
2768.79
2743.58
2721.73
2701.67
2682.21
2663.17
2644.62
2626.69
2609.23
2592.24
2575.59
2559.28
2543.22
2527.36
2511.62
2495.92
2480.35
2465.38
2451.82
2439.84
2428.15
2415.02
2399.9
2383.36
2366.26
2348.99
2331.44
2313.59
2295.52
2277.27
2258.76
2239.96
2220.89
2201.58
2182.13
2162.63
2143.11
2123.73
2104.51
2085.72
2067.44
2049.91
2032.98
2016.9
2001.85
1987.17
1974.13
1961.91
1950.86
1940.25
1930.32
1921.46
1913.33
1906.17
1899.88
1894.06
1888.76
1883.57
1878.89
1874.48
1870.63
1867.1
1863.73
1860.49
1857.42
1854.49
1851.64
1848.89
1846.26
1843.66
1841.02
1838.43
1835.95
1833.51
1830.97
1828.44
1826.25
1824.34
1822.43
1820.31
1817.98
1815.67
1813.52
1811.49
1809.5
1807.43
1805.32
1803.35
1801.54
1799.69
1797.89
1796.23
1794.62
1793.14
1791.68
1790.24
1788.92
1787.03
3132.45
2957.59
2904.22
2859.7
2824.23
2802.01
2792.62
2790.28
2790.01
2790
2790
2790
2790
2790
2790
2790.02
2790.51
2794.57
2804.84
2814.17
2816.82
2813.74
2797.15
2770.89
2745.6
2723.71
2703.68
2684.26
2665.26
2646.74
2628.86
2611.46
2594.57
2578.03
2561.85
2545.9
2530.15
2514.52
2498.93
2483.45
2468.52
2455.01
2443.11
2431.51
2418.5
2403.5
2387.06
2370.04
2352.86
2335.48
2317.79
2299.86
2281.71
2263.28
2244.5
2225.42
2206.08
2186.53
2166.88
2147.23
2127.58
2108.12
2088.97
2070.36
2052.33
2035.13
2018.44
2003.01
1988.16
1974.2
1961.64
1950.09
1939.72
1929.64
1920.93
1913.33
1906.15
1899.76
1893.82
1888.64
1883.68
1879.45
1875.59
1872.11
1868.81
1865.75
1862.91
1860.24
1857.76
1855.36
1853
1850.71
1848.46
1846.2
1844.02
1841.95
1839.86
1837.8
1835.96
1834.26
1832.46
1830.46
1828.34
1826.22
1824.25
1822.41
1820.59
1818.71
1816.69
1814.7
1812.83
1811.11
1809.32
1807.63
1806.15
1804.64
1803.3
1801.76
1800.47
1799.1
1797.04
3121.64
2954.82
2901.06
2856.1
2821.33
2800.51
2792.17
2790.21
2790.01
2790
2790
2790
2790
2790
2790
2790.01
2790.45
2794.24
2804.39
2814.14
2817.2
2814.5
2798.97
2773.01
2747.65
2725.74
2705.74
2686.37
2667.4
2648.91
2631.06
2613.71
2596.89
2580.44
2564.35
2548.51
2532.87
2517.35
2501.87
2486.49
2471.67
2458.22
2446.38
2434.9
2422.01
2407.11
2390.75
2373.84
2356.82
2339.6
2322.07
2304.28
2286.23
2267.86
2249.12
2230.04
2210.65
2191.02
2171.25
2151.39
2131.55
2111.81
2092.34
2073.34
2054.88
2037.16
2020.19
2003.84
1989.15
1974.74
1961.59
1949.46
1938.82
1929.34
1920.6
1913
1905.7
1899.12
1893.07
1887.95
1883.57
1879.92
1876.32
1873.09
1870.1
1867.47
1865.22
1863.07
1861.06
1859.12
1857.22
1855.38
1853.61
1851.8
1850.05
1848.38
1846.84
1845.42
1844.07
1842.51
1840.73
1838.81
1836.85
1835.02
1833.38
1831.82
1830.16
1828.43
1826.61
1824.97
1823.43
1821.99
1820.51
1819.08
1817.71
1816.17
1814.71
1813.19
1811.74
1810.28
1808.15
3110.42
2951.79
2897.61
2852.29
2818.41
2799.09
2791.76
2790.16
2790
2790
2790
2790
2790
2790
2790
2790.01
2790.39
2793.91
2803.92
2814.07
2817.56
2815.22
2800.79
2775.18
2749.75
2727.8
2707.83
2688.52
2669.6
2651.14
2633.31
2615.99
2599.21
2582.84
2566.83
2551.09
2535.55
2520.14
2504.78
2489.54
2474.78
2461.37
2449.58
2438.21
2425.47
2410.72
2394.49
2377.69
2360.83
2343.8
2326.43
2308.77
2290.82
2272.51
2253.81
2234.73
2215.31
2195.6
2175.69
2155.69
2135.6
2115.57
2095.77
2076.34
2057.5
2039.17
2021.77
2004.9
1989.39
1975.25
1961.6
1949.35
1938
1928.38
1919.41
1911.28
1903.95
1897.29
1891.5
1886.69
1882.86
1879.63
1876.17
1873.22
1870.68
1868.66
1867.16
1865.58
1864.04
1862.56
1861.2
1860
1858.87
1857.66
1856.45
1855.37
1854.44
1853.53
1852.45
1851.16
1849.63
1847.91
1846.29
1844.94
1843.72
1842.35
1840.81
1839.4
1837.89
1836.49
1835.08
1833.69
1832.27
1830.97
1829.63
1828.11
1826.69
1825.15
1823.7
1822.23
1820.08
3098.89
2948.52
2893.85
2848.25
2815.47
2797.74
2791.4
2790.11
2790
2790
2790
2790
2790
2790
2790
2790.01
2790.33
2793.58
2803.42
2813.96
2817.9
2815.93
2802.59
2777.36
2751.89
2729.91
2709.98
2690.73
2671.86
2653.42
2635.61
2618.32
2601.58
2585.25
2569.32
2553.66
2538.22
2522.93
2507.7
2492.57
2477.91
2464.56
2452.82
2441.55
2428.94
2414.34
2398.25
2381.62
2364.93
2348.08
2330.89
2313.34
2295.47
2277.22
2258.56
2239.49
2220.04
2200.27
2180.26
2160.06
2139.78
2119.48
2099.32
2079.5
2060.14
2041.35
2023.24
2006.14
1989.49
1974.6
1960.94
1948.35
1936.84
1926.36
1917.09
1908.47
1901.17
1894.62
1889.28
1885.02
1881.44
1878.34
1875.17
1872.7
1870.79
1869.43
1868.55
1867.55
1866.55
1865.65
1864.93
1864.45
1864.03
1863.49
1862.97
1862.55
1862.16
1861.71
1861.13
1860.23
1859.13
1858.05
1857.29
1856.62
1855.68
1854.46
1853.13
1852.17
1851.02
1849.74
1848.35
1846.98
1845.55
1844.35
1843.04