/*--------------------------------*- C++ -*----------------------------------*\
| =========                 |                                                 |
| \\      /  F ield         | OpenFOAM: The Open Source CFD Toolbox           |
|  \\    /   O peration     | Version:  2412                                  |
|   \\  /    A nd           | Website:  www.openfoam.com                      |
|    \\/     M anipulation  |                                                 |
\*---------------------------------------------------------------------------*/
FoamFile
{
    version     2.0;
    format      ascii;
    arch        "LSB;label=32;scalar=64";
    class       volScalarField;
    location    "0.097";
    object      T;
}
// * * * * * * * * * * * * * * * * * * * * * * * * * * * * * * * * * * * * * //

dimensions      [0 0 0 1 0 0 0];

internalField   nonuniform List<scalar> 
9816
(
227.169
227.179
227.187
227.191
227.193
227.193
227.19
227.185
227.177
227.168
227.157
227.145
227.131
227.116
227.099
227.081
227.062
227.04
227.019
226.993
226.968
226.939
226.908
226.875
226.841
226.809
226.781
226.761
226.751
226.751
226.758
226.795
226.872
227.004
227.184
227.418
227.68
227.978
228.282
228.61
228.92
229.213
225.571
225.549
225.526
225.502
225.478
225.454
225.429
225.404
225.38
225.356
225.333
225.311
225.289
225.267
225.246
225.222
225.198
225.169
225.137
225.102
225.065
225.03
225
224.98
224.971
224.97
224.993
225.059
225.195
225.395
225.657
225.953
226.274
226.593
226.905
227.187
227.436
227.635
227.784
227.871
227.909
227.887
224.837
224.819
224.8
224.782
224.765
224.746
224.732
224.716
224.702
224.688
224.675
224.662
224.649
224.635
224.618
224.6
224.58
224.561
224.543
224.531
224.524
224.523
224.531
224.557
224.616
224.715
224.865
225.064
225.308
225.591
225.901
226.216
226.514
226.78
226.988
227.109
227.185
227.242
227.264
227.255
227.23
227.191
224.403
224.389
224.377
224.364
224.352
224.34
224.329
224.318
224.308
224.298
224.288
224.277
224.264
224.249
224.233
224.216
224.202
224.192
224.188
224.189
224.194
224.213
224.254
224.329
224.447
224.619
224.845
225.122
225.434
225.761
226.068
226.34
226.564
226.7
226.756
226.804
226.837
226.845
226.833
226.807
226.771
226.728
224.118
224.108
224.097
224.086
224.076
224.067
224.057
224.049
224.04
224.032
224.022
224.011
223.999
223.986
223.972
223.962
223.955
223.953
223.953
223.958
223.974
224.01
224.075
224.182
224.337
224.551
224.816
225.125
225.454
225.774
226.048
226.268
226.421
226.48
226.493
226.516
226.537
226.546
226.54
226.518
226.484
226.444
223.91
223.902
223.894
223.887
223.88
223.875
223.87
223.865
223.861
223.855
223.848
223.839
223.829
223.819
223.809
223.802
223.799
223.798
223.801
223.811
223.834
223.879
223.957
224.079
224.253
224.483
224.764
225.077
225.4
225.698
225.94
226.119
226.241
226.293
226.3
226.311
226.328
226.34
226.34
226.328
226.304
226.273
223.758
223.753
223.749
223.745
223.741
223.737
223.733
223.729
223.724
223.718
223.711
223.702
223.692
223.683
223.675
223.67
223.669
223.669
223.674
223.686
223.713
223.762
223.846
223.971
224.149
224.378
224.654
224.956
225.263
225.544
225.779
225.945
226.06
226.13
226.152
226.151
226.159
226.171
226.179
226.178
226.169
226.147
223.645
223.64
223.636
223.632
223.629
223.626
223.623
223.62
223.616
223.612
223.605
223.598
223.591
223.585
223.58
223.579
223.579
223.58
223.587
223.602
223.632
223.684
223.769
223.894
224.065
224.285
224.546
224.833
225.125
225.398
225.633
225.809
225.924
226.004
226.048
226.057
226.052
226.058
226.067
226.073
226.075
226.068
223.549
223.546
223.544
223.542
223.541
223.539
223.538
223.536
223.533
223.529
223.524
223.519
223.513
223.508
223.505
223.504
223.504
223.507
223.515
223.532
223.563
223.617
223.7
223.822
223.986
224.195
224.442
224.715
224.995
225.264
225.498
225.685
225.822
225.915
225.955
225.967
225.982
225.998
226.006
226.007
226
225.993
223.48
223.479
223.477
223.476
223.475
223.474
223.472
223.47
223.467
223.464
223.459
223.454
223.45
223.447
223.445
223.445
223.446
223.449
223.458
223.475
223.507
223.559
223.639
223.753
223.906
224.098
224.326
224.58
224.847
225.109
225.352
225.557
225.716
225.828
225.904
225.942
225.951
225.958
225.97
225.981
225.985
225.984
223.423
223.423
223.422
223.422
223.421
223.421
223.42
223.419
223.418
223.415
223.412
223.41
223.407
223.405
223.405
223.405
223.406
223.41
223.418
223.434
223.462
223.508
223.576
223.675
223.807
223.975
224.178
224.41
224.659
224.914
225.158
225.38
225.569
225.72
225.827
225.899
225.947
225.971
225.973
225.976
225.984
225.992
223.377
223.377
223.377
223.377
223.378
223.378
223.378
223.377
223.376
223.374
223.372
223.37
223.368
223.367
223.366
223.366
223.367
223.37
223.377
223.389
223.412
223.448
223.502
223.579
223.685
223.821
223.989
224.186
224.407
224.642
224.882
225.115
225.33
225.518
225.674
225.796
225.882
225.941
225.978
225.991
225.993
226
223.335
223.335
223.336
223.336
223.337
223.337
223.337
223.337
223.336
223.336
223.334
223.332
223.33
223.329
223.328
223.328
223.328
223.33
223.334
223.343
223.358
223.383
223.421
223.477
223.555
223.657
223.786
223.943
224.126
224.331
224.552
224.782
225.01
225.228
225.426
225.599
225.738
225.847
225.928
225.975
225.995
226.013
223.307
223.308
223.309
223.31
223.311
223.312
223.312
223.312
223.312
223.312
223.311
223.309
223.308
223.306
223.306
223.306
223.306
223.307
223.31
223.315
223.325
223.343
223.369
223.409
223.465
223.541
223.638
223.762
223.911
224.085
224.281
224.496
224.721
224.95
225.173
225.381
225.566
225.722
225.842
225.928
225.993
226.028
223.281
223.283
223.285
223.286
223.288
223.289
223.291
223.291
223.292
223.292
223.291
223.291
223.29
223.289
223.289
223.289
223.289
223.291
223.293
223.297
223.305
223.318
223.339
223.371
223.419
223.485
223.572
223.682
223.818
223.979
224.164
224.368
224.588
224.817
225.045
225.266
225.469
225.648
225.796
225.905
225.983
226.041
223.258
223.26
223.262
223.264
223.266
223.267
223.268
223.268
223.268
223.268
223.268
223.267
223.266
223.265
223.265
223.264
223.265
223.266
223.268
223.272
223.279
223.292
223.314
223.347
223.395
223.461
223.549
223.661
223.798
223.96
224.146
224.351
224.571
224.8
225.03
225.253
225.458
225.642
225.795
225.909
225.991
226.054
223.237
223.239
223.241
223.243
223.245
223.246
223.247
223.248
223.248
223.248
223.248
223.247
223.247
223.247
223.247
223.248
223.249
223.252
223.256
223.263
223.274
223.292
223.318
223.357
223.411
223.483
223.577
223.695
223.836
224.004
224.193
224.402
224.624
224.855
225.084
225.306
225.51
225.692
225.841
225.952
226.035
226.095
223.218
223.221
223.223
223.225
223.227
223.229
223.23
223.231
223.231
223.232
223.232
223.232
223.233
223.233
223.234
223.236
223.238
223.243
223.249
223.259
223.275
223.299
223.333
223.381
223.446
223.531
223.639
223.77
223.926
224.105
224.305
224.522
224.751
224.982
225.21
225.426
225.621
225.788
225.922
226.027
226.102
226.141
223.206
223.209
223.212
223.214
223.216
223.218
223.219
223.22
223.221
223.221
223.221
223.222
223.222
223.223
223.225
223.227
223.231
223.237
223.246
223.26
223.281
223.312
223.356
223.415
223.495
223.595
223.72
223.868
224.042
224.237
224.451
224.678
224.913
225.145
225.369
225.575
225.756
225.908
226.027
226.11
226.169
226.212
223.196
223.199
223.202
223.204
223.206
223.208
223.209
223.21
223.21
223.211
223.211
223.211
223.212
223.213
223.216
223.219
223.225
223.233
223.245
223.263
223.29
223.329
223.382
223.454
223.546
223.662
223.803
223.969
224.158
224.369
224.595
224.831
225.069
225.302
225.52
225.717
225.885
226.021
226.125
226.202
226.249
226.271
223.189
223.192
223.195
223.198
223.2
223.201
223.202
223.203
223.204
223.204
223.204
223.205
223.206
223.208
223.212
223.217
223.224
223.234
223.249
223.273
223.305
223.353
223.416
223.5
223.606
223.738
223.894
224.077
224.28
224.504
224.739
224.982
225.222
225.452
225.664
225.85
226.006
226.132
226.223
226.281
226.319
226.348
223.186
223.189
223.192
223.194
223.196
223.198
223.199
223.2
223.2
223.201
223.202
223.203
223.205
223.208
223.213
223.219
223.228
223.242
223.262
223.292
223.335
223.393
223.47
223.569
223.694
223.843
224.019
224.218
224.439
224.674
224.919
225.164
225.402
225.625
225.826
225.998
226.137
226.248
226.324
226.366
226.394
226.418
223.185
223.188
223.191
223.193
223.195
223.196
223.198
223.198
223.199
223.2
223.202
223.204
223.207
223.212
223.218
223.227
223.24
223.26
223.289
223.33
223.387
223.463
223.561
223.683
223.833
224.008
224.209
224.43
224.669
224.916
225.166
225.409
225.638
225.845
226.024
226.171
226.285
226.372
226.429
226.454
226.47
226.49
223.186
223.189
223.192
223.194
223.196
223.198
223.199
223.2
223.201
223.203
223.205
223.209
223.214
223.221
223.23
223.244
223.264
223.294
223.337
223.396
223.475
223.578
223.707
223.864
224.047
224.257
224.488
224.734
224.989
225.245
225.491
225.721
225.926
226.103
226.247
226.36
226.441
226.492
226.524
226.549
226.563
226.567
223.189
223.192
223.194
223.196
223.198
223.2
223.201
223.203
223.205
223.208
223.211
223.217
223.224
223.234
223.249
223.269
223.301
223.345
223.407
223.491
223.6
223.738
223.906
224.102
224.326
224.571
224.832
225.099
225.363
225.614
225.844
226.046
226.216
226.351
226.454
226.529
226.574
226.598
226.618
226.635
226.642
226.644
223.194
223.197
223.2
223.202
223.203
223.205
223.207
223.208
223.211
223.215
223.22
223.227
223.236
223.25
223.27
223.3
223.343
223.405
223.489
223.6
223.741
223.914
224.119
224.354
224.612
224.888
225.168
225.445
225.705
225.942
226.147
226.316
226.446
226.543
226.613
226.655
226.673
226.686
226.701
226.713
226.718
226.72
223.201
223.203
223.206
223.207
223.209
223.21
223.211
223.213
223.216
223.221
223.227
223.235
223.247
223.265
223.291
223.33
223.386
223.463
223.567
223.702
223.87
224.072
224.307
224.57
224.852
225.144
225.434
225.71
225.961
226.18
226.361
226.503
226.605
226.678
226.726
226.748
226.756
226.766
226.778
226.788
226.793
226.795
223.205
223.208
223.209
223.211
223.212
223.214
223.216
223.218
223.222
223.228
223.235
223.244
223.259
223.28
223.313
223.36
223.427
223.517
223.639
223.791
223.981
224.205
224.461
224.741
225.039
225.338
225.631
225.902
226.144
226.348
226.511
226.634
226.723
226.779
226.81
226.831
226.847
226.855
226.857
226.859
226.862
226.867
223.211
223.213
223.215
223.216
223.217
223.219
223.221
223.224
223.228
223.234
223.242
223.254
223.272
223.297
223.336
223.391
223.469
223.573
223.71
223.88
224.089
224.331
224.604
224.898
225.205
225.51
225.801
226.067
226.298
226.49
226.639
226.748
226.825
226.876
226.9
226.911
226.922
226.934
226.942
226.945
226.946
226.946
223.216
223.218
223.219
223.221
223.222
223.224
223.226
223.23
223.235
223.242
223.251
223.266
223.287
223.319
223.365
223.431
223.521
223.643
223.797
223.99
224.218
224.481
224.771
225.079
225.393
225.7
225.987
226.244
226.462
226.639
226.772
226.866
226.932
226.974
226.99
226.997
227.007
227.018
227.028
227.032
227.034
227.034
223.219
223.221
223.222
223.224
223.225
223.227
223.231
223.235
223.242
223.25
223.262
223.28
223.308
223.348
223.407
223.488
223.599
223.743
223.924
224.143
224.399
224.685
224.995
225.315
225.634
225.937
226.214
226.454
226.652
226.806
226.917
226.996
227.047
227.069
227.079
227.092
227.105
227.115
227.119
227.121
227.121
227.12
223.221
223.223
223.225
223.226
223.228
223.231
223.235
223.241
223.249
223.26
223.277
223.302
223.339
223.394
223.471
223.576
223.716
223.892
224.109
224.364
224.652
224.967
225.295
225.624
225.94
226.23
226.485
226.696
226.862
226.986
227.072
227.122
227.152
227.176
227.191
227.198
227.201
227.204
227.208
227.212
227.217
227.221
223.222
223.223
223.225
223.227
223.23
223.234
223.24
223.248
223.258
223.274
223.298
223.335
223.387
223.464
223.568
223.708
223.886
224.108
224.369
224.667
224.992
225.333
225.674
226.002
226.302
226.564
226.782
226.952
227.076
227.167
227.225
227.251
227.266
227.283
227.298
227.307
227.31
227.311
227.311
227.312
227.314
227.317
223.22
223.222
223.224
223.227
223.231
223.237
223.245
223.255
223.271
223.294
223.33
223.383
223.46
223.566
223.71
223.895
224.126
224.399
224.713
225.054
225.412
225.769
226.111
226.42
226.687
226.906
227.077
227.199
227.278
227.332
227.37
227.387
227.393
227.4
227.407
227.415
227.423
227.427
227.429
227.428
227.426
227.424
223.217
223.22
223.223
223.227
223.233
223.241
223.252
223.267
223.29
223.326
223.38
223.458
223.569
223.718
223.913
224.156
224.446
224.778
225.141
225.52
225.896
226.252
226.572
226.844
227.064
227.231
227.344
227.416
227.468
227.5
227.512
227.516
227.524
227.531
227.54
227.547
227.552
227.553
227.552
227.548
227.544
227.54
223.213
223.216
223.221
223.227
223.235
223.247
223.262
223.286
223.323
223.379
223.46
223.577
223.734
223.941
224.199
224.509
224.862
225.249
225.65
226.047
226.419
226.75
227.027
227.246
227.403
227.513
227.587
227.624
227.638
227.653
227.668
227.68
227.688
227.691
227.69
227.689
227.687
227.685
227.684
227.682
227.678
227.673
223.206
223.211
223.217
223.227
223.239
223.256
223.282
223.322
223.382
223.47
223.596
223.766
223.989
224.268
224.6
224.979
225.39
225.816
226.232
226.62
226.959
227.241
227.457
227.605
227.706
227.777
227.812
227.82
227.83
227.84
227.851
227.861
227.866
227.867
227.863
227.856
227.848
227.839
227.829
227.818
227.806
227.792
223.2
223.207
223.218
223.231
223.251
223.28
223.326
223.394
223.494
223.635
223.826
224.073
224.38
224.742
225.152
225.591
226.042
226.478
226.877
227.222
227.501
227.707
227.854
227.953
228.002
228.023
228.042
228.059
228.072
228.077
228.077
228.073
228.067
228.059
228.049
228.037
228.022
228.005
227.985
227.963
227.939
227.914
223.196
223.208
223.223
223.246
223.281
223.335
223.416
223.535
223.699
223.922
224.204
224.551
224.954
225.403
225.877
226.354
226.808
227.214
227.56
227.834
228.029
228.157
228.251
228.302
228.318
228.326
228.332
228.338
228.344
228.347
228.343
228.332
228.312
228.287
228.257
228.225
228.192
228.161
228.131
228.103
228.076
228.048
223.197
223.214
223.242
223.283
223.349
223.446
223.59
223.786
224.049
224.38
224.779
225.237
225.736
226.254
226.76
227.232
227.643
227.98
228.235
228.424
228.545
228.611
228.648
228.671
228.684
228.689
228.688
228.684
228.674
228.656
228.631
228.599
228.561
228.52
228.475
228.431
228.388
228.347
228.309
228.273
228.24
228.209
223.205
223.237
223.284
223.361
223.477
223.646
223.879
224.189
224.576
225.039
225.561
226.12
226.686
227.228
227.717
228.131
228.453
228.691
228.863
228.967
229.013
229.04
229.056
229.069
229.074
229.072
229.062
229.04
229.009
228.966
228.916
228.86
228.803
228.747
228.693
228.642
228.595
228.551
228.512
228.476
228.442
228.41
223.23
223.284
223.371
223.502
223.696
223.964
224.319
224.763
225.29
225.878
226.499
227.116
227.693
228.199
228.607
228.911
229.135
229.28
229.348
229.383
229.408
229.425
229.434
229.433
229.423
229.401
229.366
229.318
229.26
229.196
229.13
229.065
229.003
228.944
228.89
228.84
228.795
228.753
228.716
228.681
228.649
228.619
223.281
223.376
223.522
223.736
224.035
224.43
224.923
225.505
226.15
226.824
227.483
228.087
228.601
228.995
229.279
229.484
229.598
229.636
229.662
229.679
229.694
229.701
229.696
229.673
229.632
229.575
229.505
229.43
229.355
229.285
229.221
229.164
229.112
229.064
229.019
228.977
228.937
228.901
228.866
228.834
228.803
228.773
223.389
223.549
223.784
224.11
224.54
225.075
225.701
226.389
227.098
227.78
228.39
228.888
229.273
229.537
229.677
229.757
229.817
229.853
229.862
229.856
229.841
229.818
229.78
229.729
229.667
229.597
229.522
229.446
229.371
229.299
229.233
229.174
229.121
229.074
229.033
228.997
228.964
228.935
228.908
228.883
228.858
228.834
223.587
223.844
224.2
224.665
225.237
225.898
226.617
227.344
228.026
228.625
229.101
229.428
229.655
229.807
229.867
229.881
229.893
229.9
229.904
229.901
229.884
229.849
229.795
229.727
229.649
229.566
229.484
229.407
229.336
229.272
229.216
229.166
229.121
229.08
229.042
229.007
228.974
228.943
228.913
228.885
228.857
228.83
223.931
224.321
224.824
225.432
226.124
226.862
227.591
228.261
228.83
229.262
229.539
229.731
229.852
229.894
229.899
229.902
229.907
229.908
229.907
229.896
229.868
229.819
229.751
229.67
229.583
229.496
229.414
229.34
229.275
229.219
229.171
229.128
229.089
229.052
229.017
228.983
228.95
228.918
228.887
228.856
228.827
228.797
224.473
225.016
225.662
226.378
227.122
227.839
228.478
228.989
229.375
229.638
229.771
229.829
229.873
229.903
229.914
229.915
229.907
229.892
229.865
229.827
229.774
229.708
229.632
229.551
229.468
229.387
229.312
229.243
229.182
229.128
229.08
229.037
228.998
228.963
228.929
228.898
228.869
228.84
228.813
228.787
228.761
228.735
225.233
225.911
226.644
227.382
228.072
228.661
229.116
229.445
229.659
229.76
229.804
229.84
229.863
229.875
229.873
229.861
229.836
229.797
229.742
229.675
229.598
229.517
229.433
229.352
229.274
229.202
229.136
229.077
229.024
228.976
228.934
228.895
228.859
228.826
228.796
228.767
228.739
228.713
228.687
228.663
228.639
228.615
226.168
226.903
227.622
228.263
228.793
229.186
229.45
229.62
229.711
229.752
229.77
229.782
229.786
229.779
229.759
229.721
229.662
229.587
229.502
229.412
229.322
229.235
229.154
229.081
229.015
228.955
228.902
228.854
228.81
228.77
228.733
228.699
228.666
228.635
228.605
228.577
228.55
228.524
228.5
228.476
228.453
228.43
227.148
227.824
228.404
228.863
229.187
229.403
229.527
229.603
229.638
229.653
229.653
229.646
229.625
229.582
229.52
229.441
229.349
229.251
229.153
229.059
228.973
228.896
228.828
228.768
228.715
228.667
228.624
228.584
228.547
228.512
228.478
228.446
228.415
228.385
228.357
228.33
228.305
228.28
228.257
228.235
228.214
228.193
227.99
228.496
228.868
229.13
229.288
229.389
229.439
229.463
229.466
229.46
229.435
229.389
229.321
229.235
229.137
229.033
228.93
228.831
228.742
228.662
228.592
228.531
228.477
228.43
228.387
228.347
228.31
228.275
228.241
228.208
228.177
228.147
228.119
228.091
228.065
228.041
228.018
227.996
227.975
227.955
227.936
227.917
228.531
228.823
229.006
229.125
229.193
229.224
229.229
229.223
229.194
229.144
229.068
228.976
228.873
228.765
228.658
228.558
228.467
228.386
228.316
228.255
228.202
228.154
228.112
228.072
228.035
228
227.967
227.934
227.903
227.873
227.845
227.818
227.792
227.768
227.745
227.723
227.702
227.683
227.664
227.647
227.629
227.612
228.712
228.84
228.918
228.953
228.961
228.952
228.917
228.858
228.774
228.675
228.566
228.455
228.348
228.248
228.158
228.079
228.011
227.951
227.899
227.853
227.811
227.772
227.736
227.701
227.668
227.636
227.605
227.576
227.548
227.521
227.495
227.471
227.448
227.427
227.406
227.387
227.369
227.352
227.335
227.319
227.304
227.289
228.643
228.678
228.684
228.672
228.628
228.556
228.462
228.352
228.237
228.122
228.014
227.916
227.829
227.753
227.688
227.631
227.581
227.536
227.496
227.458
227.422
227.388
227.356
227.324
227.294
227.265
227.237
227.21
227.185
227.161
227.139
227.117
227.097
227.078
227.06
227.043
227.026
227.011
226.996
226.982
226.968
226.954
228.427
228.407
228.352
228.263
228.154
228.032
227.908
227.788
227.679
227.582
227.498
227.425
227.363
227.309
227.261
227.219
227.179
227.142
227.107
227.074
227.041
227.01
226.98
226.951
226.924
226.897
226.872
226.849
226.826
226.805
226.785
226.766
226.748
226.73
226.714
226.698
226.683
226.669
226.655
226.642
226.63
226.617
228.109
228.006
227.879
227.741
227.603
227.475
227.361
227.264
227.182
227.113
227.055
227.004
226.959
226.918
226.88
226.843
226.808
226.773
226.74
226.708
226.677
226.647
226.619
226.592
226.566
226.542
226.519
226.498
226.477
226.458
226.44
226.422
226.406
226.39
226.375
226.361
226.348
226.335
226.323
226.311
226.3
226.288
227.65
227.497
227.348
227.212
227.094
226.994
226.911
226.841
226.781
226.729
226.683
226.641
226.601
226.563
226.526
226.491
226.458
226.425
226.395
226.365
226.337
226.311
226.286
226.262
226.24
226.218
226.198
226.178
226.16
226.142
226.125
226.109
226.093
226.078
226.064
226.051
226.038
226.025
226.013
226.002
225.991
225.98
227.156
227.007
226.881
226.776
226.69
226.618
226.556
226.501
226.451
226.405
226.362
226.321
226.282
226.245
226.21
226.177
226.145
226.116
226.088
226.062
226.037
226.013
225.991
225.969
225.948
225.928
225.908
225.89
225.871
225.854
225.837
225.821
225.805
225.79
225.776
225.762
225.749
225.736
225.724
225.712
225.701
225.689
226.733
226.615
226.519
226.442
226.376
226.319
226.267
226.218
226.172
226.129
226.087
226.047
226.009
225.973
225.94
225.908
225.878
225.849
225.822
225.796
225.771
225.747
225.724
225.702
225.68
225.66
225.64
225.621
225.602
225.585
225.568
225.552
225.536
225.521
225.507
225.494
225.481
225.469
225.457
225.446
225.435
225.424
226.417
226.324
226.247
226.181
226.123
226.07
226.021
225.975
225.932
225.89
225.851
225.813
225.778
225.743
225.71
225.678
225.648
225.618
225.589
225.561
225.534
225.509
225.484
225.46
225.437
225.416
225.395
225.375
225.356
225.339
225.322
225.306
225.291
225.276
225.263
225.25
225.237
225.226
225.215
225.204
225.194
225.183
226.174
226.095
226.027
225.966
225.911
225.86
225.813
225.769
225.727
225.688
225.65
225.613
225.577
225.542
225.507
225.474
225.441
225.409
225.378
225.348
225.319
225.292
225.266
225.241
225.218
225.196
225.175
225.155
225.137
225.119
225.102
225.087
225.072
225.058
225.045
225.033
225.021
225.01
225
224.99
224.98
224.971
225.973
225.904
225.842
225.786
225.734
225.686
225.639
225.595
225.552
225.511
225.47
225.43
225.391
225.353
225.315
225.279
225.244
225.211
225.179
225.149
225.121
225.094
225.068
225.044
225.022
225
224.981
224.962
224.944
224.928
224.912
224.897
224.884
224.871
224.858
224.846
224.835
224.825
224.815
224.805
224.796
224.787
225.809
225.748
225.69
225.636
225.583
225.531
225.481
225.433
225.386
225.34
225.296
225.253
225.212
225.172
225.135
225.099
225.065
225.032
225.002
224.973
224.946
224.92
224.896
224.874
224.853
224.833
224.814
224.796
224.779
224.763
224.748
224.733
224.719
224.706
224.694
224.682
224.671
224.66
224.65
224.64
224.63
224.62
225.67
225.611
225.553
225.495
225.437
225.381
225.325
225.272
225.222
225.174
225.128
225.085
225.044
225.006
224.97
224.936
224.904
224.873
224.845
224.818
224.793
224.768
224.745
224.724
224.703
224.683
224.664
224.646
224.629
224.612
224.596
224.581
224.567
224.553
224.539
224.527
224.514
224.503
224.492
224.481
224.47
224.46
225.536
225.474
225.411
225.349
225.288
225.228
225.171
225.118
225.067
225.02
224.975
224.934
224.895
224.858
224.823
224.79
224.759
224.73
224.702
224.675
224.65
224.626
224.602
224.58
224.558
224.537
224.517
224.498
224.48
224.462
224.445
224.429
224.414
224.399
224.385
224.371
224.358
224.346
224.334
224.323
224.311
224.3
225.397
225.33
225.263
225.198
225.136
225.077
225.021
224.969
224.921
224.875
224.833
224.792
224.755
224.719
224.685
224.652
224.621
224.591
224.562
224.534
224.507
224.482
224.457
224.433
224.41
224.388
224.367
224.347
224.328
224.309
224.292
224.275
224.259
224.244
224.229
224.215
224.202
224.19
224.178
224.167
224.156
224.145
225.246
225.177
225.11
225.047
224.986
224.93
224.877
224.828
224.781
224.737
224.695
224.656
224.617
224.581
224.545
224.511
224.478
224.447
224.416
224.387
224.358
224.331
224.305
224.28
224.257
224.234
224.213
224.192
224.173
224.155
224.137
224.121
224.105
224.091
224.077
224.063
224.051
224.039
224.028
224.017
224.007
223.997
225.09
225.022
224.957
224.896
224.839
224.785
224.734
224.686
224.64
224.596
224.553
224.512
224.473
224.434
224.397
224.362
224.327
224.294
224.263
224.232
224.204
224.176
224.15
224.126
224.102
224.08
224.06
224.04
224.021
224.004
223.987
223.972
223.957
223.944
223.931
223.918
223.907
223.896
223.886
223.876
223.866
223.857
224.929
224.863
224.801
224.743
224.688
224.635
224.586
224.538
224.491
224.446
224.402
224.36
224.318
224.279
224.241
224.204
224.169
224.136
224.105
224.075
224.047
224.02
223.995
223.972
223.95
223.929
223.91
223.892
223.875
223.859
223.844
223.829
223.816
223.804
223.792
223.781
223.771
223.761
223.752
223.743
223.734
223.726
224.764
224.7
224.639
224.582
224.527
224.475
224.425
224.376
224.329
224.284
224.239
224.197
224.156
224.116
224.079
224.043
224.01
223.978
223.948
223.92
223.893
223.869
223.845
223.824
223.803
223.784
223.766
223.75
223.734
223.719
223.706
223.693
223.681
223.669
223.659
223.649
223.639
223.63
223.622
223.614
223.606
223.599
224.595
224.531
224.47
224.412
224.357
224.304
224.254
224.205
224.159
224.114
224.071
224.029
223.99
223.953
223.918
223.884
223.853
223.823
223.796
223.77
223.745
223.723
223.701
223.681
223.663
223.645
223.629
223.614
223.599
223.586
223.573
223.561
223.55
223.54
223.53
223.521
223.512
223.504
223.496
223.489
223.481
223.474
224.418
224.353
224.292
224.234
224.18
224.128
224.079
224.032
223.987
223.944
223.904
223.865
223.828
223.794
223.761
223.73
223.701
223.674
223.648
223.624
223.602
223.581
223.561
223.543
223.526
223.51
223.495
223.481
223.467
223.455
223.443
223.433
223.422
223.413
223.404
223.395
223.387
223.38
223.373
223.366
223.36
223.354
224.239
224.174
224.114
224.057
224.004
223.954
223.907
223.862
223.82
223.779
223.741
223.705
223.671
223.639
223.609
223.581
223.554
223.529
223.505
223.483
223.463
223.444
223.426
223.409
223.394
223.38
223.366
223.354
223.342
223.331
223.321
223.311
223.302
223.294
223.285
223.278
223.271
223.264
223.258
223.252
223.246
223.24
224.063
224
223.941
223.886
223.835
223.787
223.741
223.699
223.658
223.621
223.585
223.552
223.52
223.491
223.463
223.438
223.414
223.391
223.371
223.351
223.333
223.316
223.3
223.285
223.271
223.258
223.246
223.234
223.224
223.214
223.205
223.196
223.188
223.181
223.174
223.167
223.161
223.155
223.15
223.145
223.14
223.135
223.895
223.834
223.777
223.724
223.675
223.629
223.585
223.545
223.507
223.472
223.44
223.409
223.38
223.353
223.328
223.304
223.282
223.262
223.243
223.226
223.21
223.195
223.181
223.168
223.156
223.145
223.134
223.124
223.115
223.107
223.099
223.091
223.084
223.078
223.072
223.066
223.061
223.056
223.051
223.046
223.042
223.038
223.735
223.677
223.623
223.573
223.526
223.483
223.442
223.404
223.368
223.335
223.304
223.276
223.25
223.225
223.203
223.182
223.162
223.144
223.128
223.112
223.098
223.085
223.073
223.062
223.051
223.042
223.033
223.024
223.016
223.009
223.002
222.995
222.989
222.984
222.978
222.973
222.969
222.964
222.96
222.956
222.952
222.949
223.586
223.531
223.481
223.433
223.389
223.348
223.309
223.274
223.241
223.21
223.182
223.156
223.132
223.11
223.09
223.071
223.054
223.038
223.024
223.01
222.998
222.986
222.975
222.965
222.956
222.948
222.94
222.932
222.925
222.919
222.913
222.907
222.902
222.897
222.892
222.887
222.883
222.879
222.875
222.872
222.868
222.865
223.446
223.394
223.346
223.302
223.261
223.223
223.188
223.155
223.125
223.098
223.072
223.049
223.027
223.008
222.989
222.973
222.957
222.943
222.93
222.918
222.907
222.896
222.887
222.878
222.87
222.862
222.855
222.848
222.842
222.836
222.83
222.825
222.82
222.816
222.812
222.808
222.804
222.8
222.797
222.794
222.791
222.787
223.315
223.266
223.221
223.18
223.142
223.108
223.076
223.047
223.02
222.995
222.972
222.951
222.932
222.914
222.898
222.883
222.869
222.856
222.844
222.833
222.823
222.814
222.806
222.798
222.79
222.783
222.777
222.771
222.765
222.76
222.755
222.75
222.746
222.742
222.738
222.734
222.731
222.727
222.724
222.721
222.719
222.716
223.191
223.145
223.104
223.066
223.032
223.001
222.972
222.945
222.921
222.899
222.879
222.86
222.843
222.827
222.812
222.799
222.786
222.775
222.765
222.755
222.746
222.738
222.73
222.723
222.716
222.71
222.704
222.698
222.693
222.688
222.684
222.68
222.676
222.672
222.668
222.665
222.662
222.659
222.656
222.654
222.651
222.649
223.074
223.032
222.994
222.96
222.929
222.9
222.874
222.851
222.829
222.809
222.791
222.774
222.759
222.745
222.732
222.72
222.709
222.699
222.69
222.681
222.673
222.665
222.658
222.652
222.646
222.64
222.635
222.63
222.625
222.621
222.617
222.613
222.61
222.606
222.603
222.6
222.597
222.595
222.592
222.59
222.587
222.585
222.962
222.925
222.89
222.859
222.831
222.806
222.783
222.761
222.742
222.724
222.708
222.693
222.68
222.667
222.656
222.645
222.635
222.626
222.618
222.61
222.603
222.596
222.59
222.584
222.579
222.574
222.569
222.565
222.561
222.557
222.553
222.55
222.546
222.543
222.541
222.538
222.535
222.533
222.531
222.529
222.527
222.525
222.854
222.821
222.79
222.762
222.738
222.715
222.694
222.676
222.659
222.643
222.629
222.616
222.604
222.593
222.583
222.573
222.565
222.557
222.549
222.542
222.536
222.53
222.525
222.52
222.515
222.51
222.506
222.502
222.498
222.495
222.492
222.489
222.486
222.483
222.481
222.478
222.476
222.474
222.472
222.47
222.468
222.467
222.75
222.72
222.693
222.669
222.647
222.627
222.609
222.592
222.578
222.564
222.552
222.541
222.53
222.521
222.512
222.504
222.496
222.489
222.483
222.477
222.471
222.466
222.461
222.456
222.452
222.448
222.445
222.441
222.438
222.435
222.432
222.429
222.427
222.424
222.422
222.42
222.418
222.416
222.414
222.413
222.411
222.409
222.65
222.624
222.6
222.579
222.56
222.543
222.528
222.514
222.501
222.489
222.479
222.469
222.46
222.452
222.444
222.437
222.43
222.424
222.419
222.413
222.408
222.404
222.4
222.396
222.392
222.389
222.385
222.382
222.379
222.377
222.374
222.372
222.369
222.367
222.365
222.363
222.362
222.36
222.358
222.357
222.355
222.354
222.556
222.533
222.514
222.496
222.48
222.465
222.452
222.44
222.429
222.419
222.41
222.401
222.393
222.386
222.38
222.373
222.368
222.363
222.358
222.353
222.349
222.345
222.341
222.338
222.334
222.331
222.328
222.326
222.323
222.321
222.318
222.316
222.314
222.312
222.311
222.309
222.307
222.306
222.304
222.303
222.301
222.3
222.47
222.451
222.434
222.419
222.405
222.393
222.382
222.372
222.362
222.354
222.346
222.338
222.332
222.326
222.32
222.314
222.309
222.305
222.301
222.296
222.293
222.289
222.286
222.283
222.28
222.277
222.274
222.272
222.27
222.267
222.265
222.263
222.262
222.26
222.258
222.257
222.255
222.254
222.252
222.251
222.25
222.249
222.392
222.376
222.362
222.349
222.338
222.327
222.318
222.309
222.301
222.294
222.287
222.281
222.275
222.269
222.264
222.26
222.255
222.251
222.247
222.244
222.24
222.237
222.234
222.231
222.228
222.226
222.224
222.221
222.219
222.217
222.215
222.213
222.212
222.21
222.209
222.207
222.206
222.204