/*--------------------------------*- C++ -*----------------------------------*\
| =========                 |                                                 |
| \\      /  F ield         | OpenFOAM: The Open Source CFD Toolbox           |
|  \\    /   O peration     | Version:  2412                                  |
|   \\  /    A nd           | Website:  www.openfoam.com                      |
|    \\/     M anipulation  |                                                 |
\*---------------------------------------------------------------------------*/
FoamFile
{
    version     2.0;
    format      ascii;
    arch        "LSB;label=32;scalar=64";
    class       volScalarField;
    location    "0.071";
    object      p;
}
// * * * * * * * * * * * * * * * * * * * * * * * * * * * * * * * * * * * * * //

dimensions      [1 -1 -2 0 0 0 0];

internalField   nonuniform List<scalar> 
78650
(
2893.5
2851.9
2863.1
2868.2
2872.29
2876.57
2881.19
2885.29
2887.06
2886.99
2885.42
2882.55
2878.94
2874.4
2868.39
2860.98
2852.72
2844.54
2836.76
2829.5
2822.75
2816.5
2810.66
2805.23
2800.22
2795.58
2791.3
2787.35
2783.72
2780.39
2777.33
2774.46
2771.67
2768.89
2766.09
2763.26
2760.42
2757.58
2754.79
2752.07
2749.44
2746.91
2744.49
2742.17
2739.96
2737.87
2735.89
2734.04
2732.31
2730.69
2729.2
2727.82
2726.54
2725.37
2724.29
2723.29
2722.36
2721.49
2720.66
2719.84
2719.01
2718.15
2717.24
2716.23
2715.09
2713.79
2712.29
2710.55
2708.53
2706.15
2703.36
2700.11
2696.35
2692
2686.99
2681.24
2674.65
2667.13
2658.53
2648.74
2637.62
2625.04
2610.92
2595.12
2577.52
2557.93
2536.23
2512.17
2485.61
2456.24
2424.24
2389.24
2351.74
2310.88
2267.74
2221.13
2171.8
2119.71
2064.9
2008.09
1947.87
1885.27
1821.21
1755.78
1691.79
1631.62
1573.53
1519.88
1469.87
1420.76
1375.2
1333.27
1291.74
1252.89
1217.47
1185.53
1158.16
1132.66
1111.22
1092.96
1055.69
2871.16
2832.33
2844.39
2853.14
2861.2
2868.23
2874.17
2879.46
2882.43
2883.19
2882.45
2880.42
2877.4
2873.35
2867.81
2860.89
2852.92
2844.92
2837.18
2830.01
2823.38
2817.25
2811.49
2806.09
2801.12
2796.55
2792.35
2788.51
2784.96
2781.73
2778.78
2776.05
2773.44
2770.85
2768.25
2765.62
2762.98
2760.34
2757.74
2755.22
2752.78
2750.44
2748.21
2746.08
2744.06
2742.16
2740.38
2738.72
2737.19
2735.79
2734.51
2733.36
2732.33
2731.4
2730.57
2729.84
2729.19
2728.62
2728.1
2727.61
2727.13
2726.65
2726.14
2725.56
2724.89
2724.08
2723.11
2721.94
2720.53
2718.83
2716.76
2714.29
2711.36
2707.93
2703.9
2699.22
2693.79
2687.53
2680.31
2672.03
2662.53
2651.71
2639.47
2625.68
2610.2
2592.85
2573.49
2551.9
2528.01
2501.56
2472.61
2440.75
2406.22
2368.34
2327.81
2283.44
2236.57
2186.56
2133.68
2078.61
2021.36
1962.18
1901.3
1838.65
1774.15
1711.3
1648.52
1586.16
1530.13
1475.9
1424.33
1378.32
1333.81
1293.45
1255.23
1218.46
1186.44
1158.7
1135.17
1114.64
1072.99
2854.53
2816.16
2825.11
2834.55
2846.06
2856.67
2865.55
2872.71
2877.33
2879.28
2879.31
2878.2
2875.85
2872.27
2867.14
2860.74
2853.1
2845.3
2837.62
2830.53
2824.01
2817.98
2812.29
2806.94
2802.02
2797.51
2793.42
2789.67
2786.23
2783.08
2780.24
2777.64
2775.18
2772.79
2770.4
2767.97
2765.53
2763.09
2760.69
2758.36
2756.13
2753.99
2751.95
2750.02
2748.2
2746.5
2744.91
2743.46
2742.14
2740.95
2739.9
2738.97
2738.18
2737.5
2736.93
2736.47
2736.1
2735.82
2735.62
2735.47
2735.34
2735.24
2735.12
2734.97
2734.75
2734.43
2733.98
2733.37
2732.57
2731.52
2730.16
2728.44
2726.33
2723.76
2720.69
2717.02
2712.69
2707.62
2701.69
2694.81
2686.82
2677.62
2667.1
2655.15
2641.64
2626.41
2609.34
2590.22
2568.96
2545.27
2519.14
2490.18
2458.47
2423.41
2385.54
2344.11
2300.33
2253.14
2203.23
2150.25
2094.15
2035.57
1974.7
1913.91
1850.5
1786.63
1725.1
1659.92
1597.22
1539.02
1480.28
1426.67
1376.83
1331.14
1290.51
1251.55
1215.25
1180.17
1150.78
1126.66
1080.95
2845.5
2807.46
2810.69
2815.14
2826.23
2840.55
2853.96
2864.45
2871.47
2875.28
2876.5
2876.06
2874.48
2871.43
2866.67
2860.68
2853.38
2845.73
2838.1
2831.07
2824.62
2818.66
2813.04
2807.76
2802.91
2798.49
2794.5
2790.87
2787.52
2784.47
2781.72
2779.24
2776.95
2774.74
2772.55
2770.34
2768.11
2765.87
2763.68
2761.55
2759.52
2757.58
2755.76
2754.03
2752.41
2750.9
2749.52
2748.27
2747.16
2746.18
2745.34
2744.65
2744.08
2743.65
2743.33
2743.13
2743.05
2743.06
2743.16
2743.33
2743.54
2743.79
2744.07
2744.33
2744.54
2744.69
2744.74
2744.67
2744.44
2744.02
2743.34
2742.34
2741.01
2739.28
2737.12
2734.44
2731.17
2727.25
2722.58
2717.06
2710.57
2702.99
2694.2
2684.11
2672.61
2659.55
2644.78
2628.07
2609.31
2588.26
2564.83
2538.69
2509.85
2477.91
2443.21
2405.15
2364.55
2320.46
2273.66
2223.37
2169.75
2112.91
2052.26
1989.77
1926.46
1860.92
1797.86
1735.23
1669.83
1609.17
1547.5
1487.21
1430.93
1377.44
1329.04
1287.06
1250.78
1216.62
1182.62
1151.85
1093.36
2840.92
2806.12
2803.38
2800.14
2805.93
2819.83
2837.29
2853.11
2864.53
2870.92
2873.94
2874.33
2873.36
2870.87
2866.55
2860.78
2853.74
2846.2
2838.65
2831.64
2825.23
2819.29
2813.73
2808.55
2803.8
2799.48
2795.6
2792.08
2788.83
2785.87
2783.23
2780.87
2778.72
2776.69
2774.71
2772.72
2770.71
2768.69
2766.7
2764.78
2762.95
2761.23
2759.62
2758.1
2756.7
2755.4
2754.23
2753.19
2752.28
2751.52
2750.9
2750.43
2750.1
2749.91
2749.85
2749.91
2750.1
2750.41
2750.8
2751.29
2751.84
2752.45
2753.1
2753.77
2754.42
2755.02
2755.56
2756.01
2756.34
2756.5
2756.49
2756.2
2755.63
2754.71
2753.41
2751.67
2749.41
2746.58
2743.09
2738.86
2733.76
2727.68
2720.51
2712.14
2702.48
2691.4
2678.73
2664.3
2648.01
2629.61
2609.04
2585.97
2560.38
2531.87
2500.59
2466.02
2428.64
2387.59
2343.53
2295.7
2244.64
2190.33
2132.78
2071.03
2007.39
1941.42
1873.21
1809.54
1743.22
1677.85
1615.75
1553.86
1495.88
1438.4
1381.93
1329.69
1284.9
1245.92
1213.25
1185.4
1125.49
2838.08
2806.91
2802.3
2794.15
2792.36
2799.82
2816.33
2836.44
2853.6
2864.91
2870.8
2872.73
2872.47
2870.71
2866.86
2861.14
2854.29
2846.79
2839.31
2832.27
2825.82
2819.86
2814.36
2809.31
2804.69
2800.5
2796.74
2793.31
2790.16
2787.31
2784.79
2782.55
2780.54
2778.69
2776.9
2775.13
2773.34
2771.55
2769.77
2768.06
2766.45
2764.94
2763.55
2762.26
2761.07
2759.99
2759.04
2758.2
2757.51
2756.97
2756.57
2756.32
2756.23
2756.28
2756.47
2756.8
2757.25
2757.83
2758.53
2759.32
2760.21
2761.16
2762.18
2763.23
2764.3
2765.35
2766.36
2767.32
2768.19
2768.93
2769.52
2769.91
2770.05
2769.92
2769.47
2768.64
2767.35
2765.57
2763.22
2760.23
2756.49
2751.89
2746.32
2739.67
2731.86
2722.77
2712.26
2700.15
2686.33
2670.54
2652.67
2632.42
2609.73
2584.28
2556.14
2524.82
2490.55
2452.55
2411.42
2366.55
2318.56
2267.28
2212.62
2154.78
2092.59
2028.42
1960.6
1890.83
1823.05
1752.3
1687.4
1621.2
1558.44
1497.84
1439.61
1384.07
1330.52
1280.55
1238.89
1205.82
1141.45
2834.63
2808.08
2803.7
2793.89
2786.87
2786.99
2795.93
2814.66
2836.75
2854.9
2865.53
2870.32
2871.46
2870.49
2867.43
2861.87
2855.11
2847.56
2840.08
2832.98
2826.42
2820.42
2814.97
2810.06
2805.6
2801.54
2797.88
2794.53
2791.48
2788.74
2786.35
2784.25
2782.38
2780.69
2779.1
2777.54
2775.99
2774.42
2772.87
2771.38
2769.98
2768.69
2767.52
2766.46
2765.51
2764.66
2763.93
2763.32
2762.85
2762.53
2762.36
2762.33
2762.48
2762.78
2763.21
2763.79
2764.51
2765.38
2766.37
2767.47
2768.68
2769.98
2771.35
2772.79
2774.27
2775.75
2777.23
2778.67
2780.06
2781.38
2782.58
2783.61
2784.44
2785.04
2785.37
2785.43
2785.07
2784.31
2783.04
2781.21
2778.73
2775.5
2771.41
2766.36
2760.25
2752.99
2744.46
2734.5
2722.95
2709.61
2694.37
2676.98
2657.4
2635.28
2610.57
2582.74
2551.91
2517.45
2479.87
2438.6
2394.05
2345.92
2294.07
2238.81
2180.05
2117.47
2052.24
1981.88
1913.47
1842.14
1771.29
1702.09
1631.09
1565.57
1501.99
1446.14
1391.45
1339.03
1288.77
1245.08
1162.7
2830.25
2809.09
2806.23
2796.65
2786.67
2781.45
2782.84
2793.15
2813.48
2837.05
2855.74
2866.12
2869.57
2869.74
2867.75
2862.77
2856.2
2848.61
2841
2833.77
2827.05
2821.01
2815.58
2810.8
2806.49
2802.57
2799.03
2795.76
2792.8
2790.2
2787.95
2785.99
2784.28
2782.75
2781.34
2779.99
2778.66
2777.33
2776.02
2774.75
2773.57
2772.5
2771.55
2770.72
2770.01
2769.4
2768.9
2768.52
2768.27
2768.18
2768.24
2768.45
2768.82
2769.35
2770.04
2770.87
2771.86
2773
2774.27
2775.68
2777.21
2778.83
2780.56
2782.37
2784.24
2786.14
2788.06
2789.98
2791.87
2793.73
2795.5
2797.16
2798.66
2799.99
2801.08
2801.92
2802.46
2802.66
2802.44
2801.76
2800.52
2798.61
2795.98
2792.49
2788.08
2782.64
2776.07
2768.22
2758.96
2748.08
2735.47
2720.88
2704.2
2685.1
2663.5
2638.98
2611.61
2580.91
2547.24
2509.96
2469.3
2424.77
2376.27
2324.09
2267.83
2207.85
2144.44
2076.87
2005.72
1934.62
1859.31
1788.16
1711.95
1640.36
1569.21
1501.6
1441.13
1387.72
1341.56
1300.87
1217.76
2825.27
2809.55
2808.7
2801.21
2789.4
2780.99
2777.52
2779.89
2791.07
2812.28
2836.78
2855.4
2864.53
2867.29
2866.59
2863.17
2857.14
2849.73
2842.1
2834.73
2827.83
2821.71
2816.26
2811.56
2807.36
2803.56
2800.13
2796.95
2794.11
2791.64
2789.53
2787.72
2786.17
2784.81
2783.58
2782.43
2781.32
2780.22
2779.15
2778.12
2777.16
2776.32
2775.6
2775.01
2774.53
2774.16
2773.9
2773.77
2773.75
2773.9
2774.19
2774.63
2775.24
2776.01
2776.95
2778.04
2779.29
2780.7
2782.26
2783.97
2785.8
2787.76
2789.83
2792
2794.25
2796.57
2798.92
2801.3
2803.68
2806.05
2808.39
2810.65
2812.79
2814.8
2816.63
2818.27
2819.66
2820.74
2821.48
2821.83
2821.77
2821.11
2819.85
2817.8
2814.95
2811.17
2806.41
2800.52
2793.39
2784.81
2774.67
2762.74
2748.9
2732.89
2714.6
2693.65
2670.07
2643.34
2613.64
2580.23
2543.28
2502.21
2457.09
2408.12
2354.97
2298.18
2237.01
2171.97
2102.2
2032.02
1958.02
1883.04
1808.98
1732.77
1658.59
1581.69
1508.03
1438.14
1378.32
1330.09
1233.13
2820.13
2809.68
2810.18
2805.53
2794.34
2783.22
2777.27
2775.49
2778.12
2789.43
2810.69
2834.88
2853
2861.9
2863.68
2862.12
2857.24
2850.21
2843.07
2835.78
2828.83
2822.56
2817
2812.24
2808.08
2804.38
2801.09
2798.09
2795.42
2793.1
2791.12
2789.47
2788.08
2786.9
2785.86
2784.91
2784.01
2783.14
2782.29
2781.5
2780.78
2780.17
2779.68
2779.31
2779.07
2778.96
2778.93
2779.05
2779.28
2779.65
2780.18
2780.86
2781.71
2782.72
2783.9
2785.25
2786.76
2788.43
2790.27
2792.27
2794.41
2796.68
2799.08
2801.59
2804.22
2806.93
2809.7
2812.52
2815.37
2818.24
2821.1
2823.93
2826.69
2829.35
2831.89
2834.27
2836.47
2838.44
2840.13
2841.47
2842.43
2842.97
2843.04
2842.43
2841.14
2839
2836
2832.02
2826.95
2820.62
2812.88
2803.53
2792.45
2779.37
2764.19
2746.57
2726.48
2703.41
2677.42
2647.82
2614.77
2577.67
2536.65
2491.75
2442.48
2389.11
2330.66
2268.2
2202.04
2130.45
2056.81
1978.28
1903.72
1825.12
1749.52
1674.19
1602.08
1533.65
1464.64
1403.33
1286.09
2814.68
2809.33
2810.92
2808.77
2800.06
2788.22
2779.45
2775.55
2775
2777.38
2788.32
2808.35
2830.88
2847.84
2855.87
2857.38
2854.98
2849.89
2843.4
2836.35
2829.64
2823.42
2817.79
2812.93
2808.69
2805.01
2801.88
2799.12
2796.68
2794.53
2792.68
2791.17
2789.95
2788.96
2788.11
2787.37
2786.68
2786.02
2785.4
2784.84
2784.36
2783.98
2783.72
2783.6
2783.58
2783.72
2783.96
2784.31
2784.78
2785.4
2786.17
2787.1
2788.19
2789.44
2790.87
2792.47
2794.24
2796.18
2798.29
2800.57
2803.01
2805.6
2808.32
2811.18
2814.16
2817.26
2820.43
2823.68
2826.98
2830.33
2833.7
2837.08
2840.43
2843.72
2846.92
2850.02
2852.98
2855.76
2858.33
2860.64
2862.65
2864.27
2865.45
2866.14
2866.29
2865.7
2864.36
2862.13
2858.96
2854.7
2849.22
2842.33
2833.9
2823.7
2811.62
2797.34
2780.77
2761.43
2739.32
2713.81
2685.04
2652.42
2616.14
2575.84
2530.96
2481.82
2427.78
2369.46
2305.61
2236.71
2163.84
2086.35
2006.43
1921.33
1836.13
1750.62
1671
1599.05
1532.78
1476.3
1361.23
2808.51
2808.7
2811.66
2811.04
2805.25
2794.57
2784.23
2777.61
2775.18
2775.41
2777.95
2787.79
2805.1
2824.71
2840.29
2848.3
2849.93
2847.63
2842.54
2836.24
2829.88
2823.85
2818.42
2813.54
2809.19
2805.51
2802.52
2800.02
2797.84
2795.89
2794.19
2792.83
2791.8
2791.01
2790.37
2789.85
2789.37
2788.91
2788.51
2788.17
2787.91
2787.77
2787.74
2787.87
2788.1
2788.47
2788.95
2789.54
2790.27
2791.13
2792.15
2793.32
2794.65
2796.15
2797.82
2799.67
2801.7
2803.89
2806.27
2808.83
2811.55
2814.44
2817.48
2820.66
2823.99
2827.45
2831.01
2834.66
2838.39
2842.19
2846.05
2849.95
2853.85
2857.73
2861.57
2865.34
2869.03
2872.59
2876
2879.21
2882.17
2884.86
2887.22
2889.13
2890.55
2891.42
2891.69
2891.21
2889.9
2887.65
2884.33
2879.77
2873.85
2866.35
2857.15
2845.98
2832.71
2816.94
2798.64
2777.28
2752.94
2725.01
2693.53
2657.83
2617.62
2573.1
2523.56
2469.34
2409.39
2344.92
2275.97
2203.26
2125.27
2042.75
1958.7
1869.49
1777.23
1687.82
1602.03
1529.88
1388.7
2802.76
2807.94
2812.1
2812.47
2809.26
2800.55
2790.16
2781.76
2777.04
2775.81
2776.66
2779.88
2787.73
2801.06
2816.95
2830.38
2837.74
2839.78
2837.91
2834
2829.25
2823.82
2818.49
2813.74
2809.57
2806.1
2803.31
2801.02
2799.01
2797.18
2795.6
2794.4
2793.56
2792.98
2792.57
2792.28
2792.02
2791.77
2791.57
2791.45
2791.41
2791.49
2791.71
2792.06
2792.54
2793.14
2793.87
2794.71
2795.68
2796.79
2798.05
2799.46
2801.04
2802.79
2804.71
2806.81
2809.08
2811.54
2814.18
2817.01
2820.02
2823.2
2826.54
2830.04
2833.71
2837.51
2841.45
2845.5
2849.64
2853.88
2858.2
2862.59
2867.03
2871.47
2875.91
2880.32
2884.69
2888.99
2893.18
2897.23
2901.1
2904.76
2908.15
2911.23
2913.91
2916.11
2917.75
2918.79
2919.19
2918.82
2917.52
2915.18
2911.62
2906.72
2900.31
2892.19
2882.21
2870
2855.5
2838.2
2818.12
2794.57
2767.5
2736.21
2700.72
2660.83
2615.68
2565.56
2509.82
2449.41
2383.09
2311.38
2234.84
2153.53
2067.8
1983.15
1892.42
1810.09
1723.8
1644.68
1489.41
2798.5
2806.29
2811.79
2813.56
2812
2805.38
2795.72
2786.93
2780.66
2777.72
2777.45
2778.99
2782.54
2787.43
2796.44
2807.71
2818.29
2825.81
2829.46
2829.49
2826.94
2822.78
2818.04
2813.62
2809.69
2806.5
2803.99
2801.95
2800.14
2798.42
2796.98
2795.93
2795.28
2794.88
2794.7
2794.67
2794.65
2794.62
2794.62
2794.69
2794.86
2795.16
2795.59
2796.18
2796.91
2797.76
2798.72
2799.81
2801.02
2802.37
2803.87
2805.53
2807.35
2809.34
2811.51
2813.85
2816.38
2819.08
2821.98
2825.07
2828.35
2831.81
2835.45
2839.25
2843.23
2847.37
2851.66
2856.08
2860.62
2865.27
2870.03
2874.88
2879.81
2884.78
2889.78
2894.8
2899.8
2904.79
2909.71
2914.55
2919.28
2923.85
2928.24
2932.39
2936.23
2939.71
2942.76
2945.29
2947.24
2948.54
2949.14
2948.94
2947.63
2945.2
2941.36
2936.06
2929.1
2920.21
2909.27
2895.82
2879.81
2860.59
2838.12
2811.77
2781.54
2746.91
2707.33
2662.96
2612.92
2557.54
2495.48
2427.68
2353.36
2273.41
2188.37
2098.87
1999.83
1900.5
1807.09
1730.18
1582.11
2795.38
2803.77
2811.06
2814.22
2813.61
2809.18
2800.69
2792.22
2785.37
2781.05
2779.56
2779.94
2782.11
2784.69
2786.82
2791.07
2797.3
2805.44
2813.44
2818.34
2819.76
2818.21
2815.64
2812.63
2809.4
2806.62
2804.37
2802.66
2801.16
2799.69
2798.43
2797.49
2796.95
2796.72
2796.73
2796.97
2797.2
2797.41
2797.62
2797.89
2798.25
2798.74
2799.4
2800.21
2801.17
2802.26
2803.47
2804.79
2806.24
2807.83
2809.56
2811.46
2813.52
2815.76
2818.16
2820.75
2823.52
2826.48
2829.63
2832.98
2836.52
2840.26
2844.18
2848.28
2852.56
2857.03
2861.65
2866.43
2871.35
2876.39
2881.56
2886.85
2892.24
2897.72
2903.25
2908.83
2914.44
2920.06
2925.68
2931.26
2936.77
2942.19
2947.48
2952.61
2957.53
2962.16
2966.46
2970.35
2973.79
2976.69
2978.96
2980.51
2981.28
2981.24
2979.87
2977.33
2973.25
2967.54
2960.01
2950.27
2938.23
2923.31
2905.52
2884.2
2859.32
2830.19
2796.51
2758.1
2713.88
2663.94
2607.32
2545.4
2477.11
2402.55
2320.83
2232.19
2146.02
2039.51
1934.39
1838.4
1659.13
2793.14
2800.9
2809.83
2814.44
2814.62
2812.24
2805.16
2797.14
2790.23
2785.17
2782.66
2782.2
2783.18
2784.81
2785.49
2785.09
2784.42
2786.94
2793.43
2801.4
2807.74
2811.02
2811.7
2810.45
2808.38
2806.23
2804.23
2802.78
2801.61
2800.66
2799.82
2799.1
2798.65
2798.53
2798.69
2799.16
2799.64
2800.1
2800.54
2801.02
2801.57
2802.25
2803.1
2804.13
2805.31
2806.64
2808.09
2809.66
2811.34
2813.16
2815.13
2817.26
2819.55
2822.02
2824.67
2827.49
2830.51
2833.71
2837.1
2840.7
2844.5
2848.5
2852.69
2857.07
2861.64
2866.41
2871.35
2876.47
2881.73
2887.14
2892.7
2898.4
2904.23
2910.16
2916.19
2922.3
2928.46
2934.68
2940.93
2947.19
2953.43
2959.63
2965.77
2971.81
2977.72
2983.43
2988.9
2994.06
2998.87
3003.25
3007.17
3010.52
3013.14
3014.99
3015.94
3016.02
3014.62
3011.91
3007.52
3001.26
2993
2982.24
2968.96
2952.43
2932.59
2908.66
2880.43
2847.34
2808.52
2764.12
2713.28
2656.53
2592.39
2521.52
2443.01
2357.61
2265.58
2172.93
2068.77
1978.54
1808.33
2791.69
2798.12
2807.93
2814.23
2815.59
2814.56
2809.07
2801.54
2794.79
2789.51
2786.3
2785.29
2785.42
2786.2
2785.98
2784.34
2780.36
2777.21
2777.89
2782.7
2790.31
2797.61
2802.55
2804.48
2804.42
2803.8
2802.96
2802.16
2801.56
2801.21
2800.96
2800.61
2800.35
2800.35
2800.64
2801.25
2801.98
2802.72
2803.41
2804.1
2804.85
2805.71
2806.74
2807.95
2809.34
2810.9
2812.58
2814.38
2816.3
2818.34
2820.54
2822.89
2825.41
2828.11
2830.98
2834.04
2837.29
2840.73
2844.36
2848.2
2852.25
2856.5
2860.96
2865.61
2870.46
2875.51
2880.76
2886.19
2891.79
2897.55
2903.48
2909.56
2915.79
2922.16
2928.66
2935.25
2941.94
2948.7
2955.54
2962.43
2969.35
2976.27
2983.18
2990.06
2996.86
3003.55
3010.07
3016.38
3022.43
3028.15
3033.51
3038.43
3042.84
3046.63
3049.61
3051.76
3052.92
3053.1
3051.69
3048.81
3044.07
3037.21
3028.1
3016.08
3001.09
2982.33
2959.69
2932.48
2900.17
2862.62
2818.79
2768.66
2710.78
2645.75
2572.49
2491.4
2401.36
2302.36
2196.08
2089.15
1906.51
2790.84
2795.71
2805.58
2813.67
2816.43
2816.13
2812.31
2805.55
2799.08
2793.82
2790.18
2788.6
2788.29
2788.37
2787.3
2784.92
2779.81
2774.22
2770.14
2769.76
2773.34
2780.54
2788.49
2795
2798.96
2800.76
2801.07
2800.84
2801.15
2801.34
2801.51
2801.72
2801.91
2802.16
2802.57
2803.26
2804.18
2805.17
2806.12
2807.05
2808
2809.05
2810.25
2811.65
2813.24
2815
2816.91
2818.94
2821.09
2823.36
2825.77
2828.34
2831.09
2834
2837.1
2840.39
2843.86
2847.53
2851.4
2855.47
2859.75
2864.25
2868.95
2873.86
2878.98
2884.3
2889.83
2895.56
2901.47
2907.56
2913.82
2920.26
2926.87
2933.64
2940.55
2947.6
2954.76
2962.03
2969.41
2976.87
2984.41
2991.99
2999.6
3007.24
3014.86
3022.43
3029.93
3037.29
3044.47
3051.43
3058.13
3064.5
3070.5
3076
3080.94
3085.2
3088.58
3091.04
3092.42
3092.69
3091.25
3088.09
3082.88
3075.2
3064.96
3051.41
3034.5
3013.43
2987.83
2957.13
2920.19
2876.85
2826.07
2768.36
2702.3
2627.71
2543.16
2450.89
2350.1
2246.62
2069.98
2790.4
2793.81
2803.07
2812.76
2816.83
2817.25
2814.97
2809.21
2803.09
2797.93
2794.02
2791.88
2791.1
2790.69
2789.1
2786.01
2780.3
2773.65
2767.77
2763.48
2762.55
2765.43
2772.26
2780.82
2788.37
2793.59
2796.55
2798.29
2799.72
2800.82
2801.54
2802.25
2803.08
2803.81
2804.46
2805.27
2806.33
2807.54
2808.76
2809.92
2811.09
2812.33
2813.7
2815.27
2817.03
2818.99
2821.11
2823.36
2825.72
2828.21
2830.84
2833.62
2836.57
2839.7
2843.01
2846.52
2850.21
2854.1
2858.19
2862.48
2867
2871.73
2876.67
2881.82
2887.19
2892.77
2898.57
2904.57
2910.78
2917.17
2923.75
2930.52
2937.48
2944.62
2951.92
2959.39
2966.99
2974.73
2982.6
2990.59
2998.69
3006.87
3015.13
3023.45
3031.81
3040.19
3048.54
3056.85
3065.05
3073.11
3081
3088.67
3096.08
3103.13
3109.77
3115.88
3121.37
3126.15
3129.95
3132.76
3134.36
3134.71
3133.18
3129.66
3123.86
3115.2
3103.6
3088.16
3068.59
3044.01
3013.53
2976.95
2933.19
2882.22
2822.65
2754.21
2674.99
2587.42
2486.21
2383.21
2218.05
2790.18
2792.45
2800.68
2811.49
2816.89
2818.34
2817.11
2812.46
2806.74
2801.78
2797.74
2795.07
2793.73
2792.81
2790.84
2787.22
2781.1
2773.99
2767.05
2761.31
2757.39
2756.34
2758.94
2765.7
2774.66
2783.27
2789.84
2794.01
2796.68
2799.1
2801
2802.35
2803.7
2805.01
2806.12
2807.18
2808.39
2809.78
2811.24
2812.66
2814.05
2815.48
2817.04
2818.76
2820.7
2822.83
2825.14
2827.6
2830.18
2832.88
2835.72
2838.7
2841.86
2845.19
2848.71
2852.42
2856.32
2860.42
2864.73
2869.24
2873.97
2878.92
2884.09
2889.48
2895.08
2900.9
2906.95
2913.22
2919.69
2926.37
2933.24
2940.32
2947.59
2955.07
2962.73
2970.57
2978.58
2986.74
2995.06
3003.52
3012.13
3020.85
3029.68
3038.62
3047.64
3056.73
3065.87
3075.01
3084.13
3093.18
3102.14
3110.98
3119.66
3128.11
3136.28
3144.06
3151.4
3158.17
3164.27
3169.59
3173.86
3177.02
3178.84
3179.26
3177.57
3173.55
3166.87
3156.81
3143.21
3125.11
3101.96
3073.25
3037.73
2995.02
2943.65
2882.77
2811.12
2728.27
2632.05
2527.11
2373.28
2790.09
2791.56
2798.59
2809.96
2816.92
2819.31
2818.74
2815.17
2810
2805.36
2801.34
2798.23
2796.22
2794.61
2792.27
2788.14
2781.87
2774.37
2767.07
2760.5
2755.23
2751.99
2751.23
2753.99
2760.91
2770.39
2779.78
2787.29
2792.89
2796.76
2799.76
2801.97
2803.76
2805.57
2807.39
2808.95
2810.4
2811.98
2813.65
2815.3
2816.9
2818.53
2820.25
2822.14
2824.24
2826.54
2829.03
2831.68
2834.46
2837.37
2840.4
2843.59
2846.95
2850.47
2854.19
2858.09
2862.2
2866.5
2871.01
2875.72
2880.66
2885.82
2891.21
2896.81
2902.64
2908.69
2914.97
2921.48
2928.21
2935.15
2942.29
2949.65
2957.22
2965
2972.99
2981.18
2989.55
2998.09
3006.82
3015.72
3024.78
3033.99
3043.34
3052.83
3062.45
3072.18
3082
3091.89
3101.82
3111.76
3121.67
3131.54
3141.33
3151
3160.5
3169.77
3178.73
3187.28
3195.37
3202.85
3209.62
3215.54
3220.29
3223.82
3225.84
3226.24
3224.2
3219.48
3211.7
3200.11
3184.22
3163.08
3135.4
3100.82
3057.85
3006.02
2943.81
2868.71
2781.35
2677.64
2535.84
2790.04
2791.01
2796.91
2808.41
2816.96
2820.08
2819.95
2817.4
2812.91
2808.66
2804.78
2801.3
2798.54
2796.04
2793.1
2788.53
2782.18
2774.59
2767.05
2760.27
2754.35
2749.84
2747.55
2747.43
2750.57
2757.96
2768.02
2778.05
2786.43
2792.61
2796.96
2800.49
2803.15
2805.65
2808.18
2810.45
2812.3
2814.08
2815.94
2817.8
2819.61
2821.44
2823.35
2825.41
2827.67
2830.13
2832.79
2835.62
2838.59
2841.69
2844.92
2848.3
2851.85
2855.56
2859.47
2863.56
2867.85
2872.34
2877.05
2881.96
2887.09
2892.46
2898.05
2903.86
2909.89
2916.16
2922.66
2929.39
2936.35
2943.53
2950.93
2958.55
2966.38
2974.45
2982.73
2991.23
2999.93
3008.82
3017.91
3027.19
3036.66
3046.3
3056.12
3066.1
3076.24
3086.53
3096.96
3107.5
3118.14
3128.85
3139.59
3150.36
3161.13
3171.88
3182.56
3193.11
3203.49
3213.62
3223.44
3232.85
3241.75
3250.02
3257.51
3264.09
3269.36
3273.26
3275.46
3275.81
3273.3
3267.66
3258.09
3243.85
3223.85
3197.58
3163.01
3119.59
3064.59
2996.22
2915.43
2816.53
2684.6
2790.02
2790.69
2795.68
2807.07
2816.87
2820.71
2821.03
2819.26
2815.48
2811.68
2807.97
2804.14
2800.56
2797.11
2793.23
2788.31
2781.9
2774.43
2766.95
2760.11
2754.06
2748.94
2745.49
2744.26
2744.81
2748.73
2756.84
2767.46
2778.09
2786.86
2793.42
2798.3
2802.11
2805.4
2808.58
2811.54
2813.95
2816.03
2818.08
2820.15
2822.18
2824.19
2826.28
2828.52
2830.94
2833.57
2836.4
2839.4
2842.54
2845.83
2849.24
2852.81
2856.54
2860.43
2864.52
2868.79
2873.26
2877.93
2882.82
2887.91
2893.24
2898.79
2904.57
2910.57
2916.8
2923.27
2929.97
2936.92
2944.09
2951.49
2959.11
2966.97
2975.05
2983.37
2991.92
3000.69
3009.69
3018.89
3028.31
3037.93
3047.76
3057.79
3068.02
3078.44
3089.04
3099.83
3110.79
3121.91
3133.17
3144.55
3156.02
3167.58
3179.2
3190.88
3202.57
3214.24
3225.84
3237.33
3248.65
3259.72
3270.47
3280.8
3290.6
3299.74
3308.02
3315.32
3321.12
3325.37
3327.65
3327.83
3324.38
3317.36
3305.33
3287.96
3263.21
3230.77
3186.72
3129.23
3056.63
2963.93
2840.13
2790.02
2790.51
2794.86
2806.07
2816.77
2821.27
2822.05
2820.87
2817.8
2814.41
2810.81
2806.55
2802.03
2797.67
2792.86
2787.29
2780.83
2773.7
2766.56
2759.89
2753.9
2748.64
2744.65
2742.38
2742.07
2743.46
2748.47
2757.54
2768.87
2779.73
2788.52
2795.12
2800.34
2804.69
2808.53
2812.18
2815.3
2817.8
2820.1
2822.36
2824.59
2826.8
2829.08
2831.5
2834.11
2836.91
2839.9
2843.06
2846.37
2849.83
2853.42
2857.16
2861.06
2865.14
2869.39
2873.83
2878.47
2883.32
2888.37
2893.65
2899.14
2904.87
2910.83
2917.02
2923.44
2930.09
2936.99
2944.12
2951.49
2959.1
2966.93
2975.01
2983.31
2991.86
3000.65
3009.68
3018.94
3028.42
3038.13
3048.06
3058.21
3068.58
3079.17
3089.97
3100.98
3112.2
3123.62
3135.24
3147.04
3159
3171.1
3183.34
3195.69
3208.16
3220.72
3233.35
3246
3258.64
3271.23
3283.72
3296.06
3308.15
3319.94
3331.28
3342.09
3352.19
3361.35
3369.43
3375.79
3380.47
3382.9
3382.94
3378.34
3369.61
3354.25
3332.08
3298.38
3251.65
3186.74
3101.49
2984.84
2790.01
2790.44
2794.39
2805.45
2816.78
2821.84
2823.04
2822.33
2819.9
2816.83
2813.18
2808.37
2802.86
2797.47
2791.72
2785.64
2779.22
2772.46
2765.75
2759.44
2753.68
2748.51
2744.31
2741.53
2740.57
2740.98
2743.52
2749.91
2760.18
2771.95
2782.66
2791.25
2797.95
2803.43
2808.16
2812.52
2816.3
2819.3
2821.89
2824.38
2826.82
2829.24
2831.72
2834.33
2837.12
2840.09
2843.25
2846.57
2850.05
2853.66
2857.42
2861.32
2865.39
2869.63
2874.05
2878.65
2883.45
2888.46
2893.68
2899.11
2904.78
2910.67
2916.8
2923.16
2929.75
2936.58
2943.65
2950.96
2958.51
2966.3
2974.33
2982.6
2991.11
2999.87
3008.88
3018.13
3027.63
3037.36
3047.32
3057.52
3067.96
3078.64
3089.54
3100.68
3112.04
3123.64
3135.47
3147.52
3159.78
3172.24
3184.89
3197.71
3210.69
3223.85
3237.15
3250.59
3264.13
3277.75
3291.42
3305.11
3318.78
3332.36
3345.81
3359.04
3371.97
3384.47
3396.41
3407.59
3417.76
3426.74
3433.76
3438.83
3441.08
3439.9
3433.09
3421.16
3399.78
3367.33
3313.84
3240.65
3130.24
2790.01
2790.42
2794.27
2805.29
2816.95
2822.53
2824.03
2823.69
2821.8
2818.88
2814.94
2809.37
2802.9
2796.38
2789.85
2783.5
2777.19
2770.77
2764.52
2758.73
2753.33
2748.4
2744.22
2741.24
2739.89
2739.76
2741
2745.03
2753.22
2764.53
2776.34
2786.65
2794.97
2801.76
2807.54
2812.59
2816.99
2820.56
2823.53
2826.27
2828.93
2831.56
2834.24
2837.04
2840.02
2843.17
2846.49
2849.97
2853.6
2857.37
2861.28
2865.34
2869.57
2873.97
2878.54
2883.3
2888.25
2893.42
2898.79
2904.39
2910.21
2916.26
2922.55
2929.06
2935.81
2942.8
2950.04
2957.52
2965.24
2973.2
2981.41
2989.86
2998.55
3007.5
3016.71
3026.17
3035.88
3045.83
3056.03
3066.47
3077.16
3088.11
3099.29
3110.73
3122.41
3134.34
3146.52
3158.95
3171.61
3184.51
3197.62
3210.95
3224.48
3238.22
3252.15
3266.28
3280.58
3295.02
3309.61
3324.31
3339.08
3353.91
3368.74
3383.54
3398.23
3412.74
3426.97
3440.76
3453.99
3466.42
3477.77
3487.73
3495.53
3501
3503.28
3501.4
3492.33
3474.01
3434.56
3379.61
3278.15
2790.01
2790.43
2794.34
2805.51
2817.4
2823.39
2825.09
2824.95
2823.46
2820.42
2815.88
2809.42
2801.98
2794.35
2787.33
2780.93
2774.82
2768.75
2762.95
2757.73
2752.78
2748.19
2744.23
2741.25
2739.65
2739.29
2739.72
2742.39
2748.4
2758.27
2770.16
2781.7
2791.58
2799.72
2806.55
2812.37
2817.45
2821.61
2825.01
2828.03
2830.9
2833.74
2836.62
2839.62
2842.78
2846.11
2849.6
2853.23
2857.01
2860.92
2864.98
2869.19
2873.57
2878.11
2882.83
2887.74
2892.84
2898.15
2903.67
2909.41
2915.38
2921.59
2928.03
2934.69
2941.6
2948.74
2956.13
2963.77
2971.65
2979.77
2988.14
2996.76
3005.63
3014.75
3024.14
3033.79
3043.7
3053.85
3064.26
3074.93
3085.85
3097.03
3108.47
3120.17
3132.13
3144.36
3156.86
3169.62
3182.64
3195.92
3209.44
3223.2
3237.21
3251.45
3265.93
3280.65
3295.59
3310.74
3326.09
3341.63
3357.34
3373.2
3389.19
3405.27
3421.42
3437.57
3453.67
3469.63
3485.34
3500.65
3515.43
3529.4
3542.26
3553.36
3562.02
3567.61
3569.46
3563.76
3542.44
3509.59
3433.37
2790.02
2790.48
2794.69
2806.21
2818.19
2824.38
2826.22
2826.15
2824.77
2821.32
2815.92
2808.45
2799.72
2791.48
2784.33
2778.06
2772.2
2766.52
2761.16
2756.5
2752.03
2747.88
2744.22
2741.32
2739.64
2739.15
2739.29
2740.88
2745.54
2753.59
2764.72
2776.82
2787.98
2797.46
2805.41
2812.13
2817.83
2822.54
2826.36
2829.67
2832.77
2835.81
2838.89
2842.09
2845.44
2848.95
2852.6
2856.39
2860.31
2864.36
2868.56
2872.91
2877.43
2882.12
2886.99
2892.03
2897.27
2902.72
2908.38
2914.26
2920.37
2926.72
2933.3
2940.11
2947.15
2954.44
2961.97
2969.75
2977.78
2986.05
2994.57
3003.35
3012.37
3021.66
3031.22
3041.04
3051.13
3061.47
3072.08
3082.94
3094.07
3105.47
3117.14
3129.08
3141.3
3153.8
3166.58
3179.64
3192.97
3206.59
3220.48
3234.63
3249.04
3263.72
3278.68
3293.91
3309.4
3325.15
3341.16
3357.42
3373.92
3390.65
3407.6
3424.75
3442.09
3459.59
3477.21
3494.91
3512.62
3530.25
3547.7
3564.81
3581.39
3597.1
3611.62
3624.02
3634.15
3639.62
3637.95
3621.96
3583.44
2790.02
2790.6
2795.34
2807.33
2819.34
2825.45
2827.36
2827.18
2825.55
2821.42
2814.94
2805.96
2796.45
2788
2780.98
2775.01
2769.45
2764.19
2759.28
2755.09
2751.1
2747.46
2744.15
2741.39
2739.68
2739.13
2739.18
2740.21
2743.8
2750.55
2760.38
2772.39
2784.45
2795.16
2804.21
2811.79
2818.13
2823.35
2827.58
2831.19
2834.52
2837.77
2841.05
2844.45
2847.99
2851.67
2855.48
2859.41
2863.46
2867.64
2871.97
2876.46
2881.12
2885.95
2890.95
2896.13
2901.5
2907.09
2912.88
2918.9
2925.15
2931.63
2938.34
2945.29
2952.47
2959.9
2967.57
2975.49
2983.65
2992.07
3000.73
3009.66
3018.83
3028.28
3037.99
3047.98
3058.24
3068.76
3079.54
3090.59
3101.92
3113.53
3125.41
3137.58
3150.03
3162.78
3175.82
3189.16
3202.79
3216.72
3230.93
3245.43
3260.22
3275.3
3290.68
3306.36
3322.35
3338.62
3355.2
3372.07
3389.24
3406.7
3424.45
3442.49
3460.8
3479.39
3498.23
3517.3
3536.56
3555.99
3575.5
3595.05
3614.48
3633.68
3652.35
3670.17
3686.72
3700.29
3710.77
3711.79
3707.19
2790.03
2790.82
2796.31
2808.89
2820.86
2826.53
2828.33
2827.89
2825.68
2820.62
2812.35
2802.25
2792.42
2784.14
2777.45
2771.86
2766.69
2761.82
2757.4
2753.57
2750.08
2746.93
2743.99
2741.43
2739.73
2739.12
2739.14
2739.97
2742.83
2748.53
2757.29
2768.7
2781.22
2792.96
2803.05
2811.48
2818.41
2824.11
2828.73
2832.63
2836.2
2839.66
2843.15
2846.74
2850.46
2854.31
2858.27
2862.34
2866.52
2870.83
2875.28
2879.9
2884.69
2889.64
2894.76
2900.07
2905.57
2911.28
2917.2
2923.34
2929.72
2936.33
2943.17
2950.24
2957.55
2965.11
2972.91
2980.96
2989.25
2997.8
3006.6
3015.66
3024.98
3034.57
3044.44
3054.58
3065
3075.68
3086.64
3097.86
3109.37
3121.17
3133.25
3145.63
3158.3
3171.28
3184.56
3198.15
3212.05
3226.25
3240.77
3255.58
3270.71
3286.14
3301.9
3317.98
3334.4
3351.13
3368.2
3385.6
3403.34
3421.42
3439.83
3458.59
3477.69
3497.14
3516.93
3537.06
3557.49
3578.24
3599.23
3620.49
3641.85
3663.36
3684.64
3705.74
3725.96
3745.32
3761.82
3772.71
3784.95
2790.06
2791.15
2797.65
2810.87
2822.61
2827.6
2828.87
2828.12
2825.05
2818.23
2808.42
2797.69
2787.96
2780.08
2773.9
2768.7
2763.96
2759.5
2755.54
2752.09
2749.07
2746.34
2743.74
2741.41
2739.76
2739.11
2739.1
2739.87
2742.35
2747.26
2755.09
2765.9
2778.54
2791.04
2802.05
2811.24
2818.75
2824.87
2829.83
2834
2837.79
2841.46
2845.14
2848.92
2852.82
2856.83
2860.93
2865.13
2869.44
2873.86
2878.44
2883.17
2888.08
2893.16
2898.4
2903.83
2909.45
2915.29
2921.33
2927.6
2934.1
2940.83
2947.79