/*--------------------------------*- C++ -*----------------------------------*\
| =========                 |                                                 |
| \\      /  F ield         | OpenFOAM: The Open Source CFD Toolbox           |
|  \\    /   O peration     | Version:  2412                                  |
|   \\  /    A nd           | Website:  www.openfoam.com                      |
|    \\/     M anipulation  |                                                 |
\*---------------------------------------------------------------------------*/
FoamFile
{
    version     2.0;
    format      ascii;
    arch        "LSB;label=32;scalar=64";
    class       volScalarField;
    location    "0.071";
    object      rho;
}
// * * * * * * * * * * * * * * * * * * * * * * * * * * * * * * * * * * * * * //

dimensions      [1 -3 0 0 0 0 0];

internalField   nonuniform List<scalar> 
78650
(
0.0432302
0.0427904
0.0429083
0.0429617
0.0430046
0.0430498
0.0430985
0.0431417
0.0431603
0.0431596
0.0431431
0.0431128
0.0430747
0.0430268
0.0429635
0.0428852
0.0427979
0.0427115
0.0426292
0.0425522
0.0424807
0.0424145
0.0423525
0.0422948
0.0422416
0.0421923
0.0421468
0.0421047
0.0420661
0.0420306
0.0419981
0.0419675
0.0419378
0.0419081
0.0418783
0.0418481
0.0418177
0.0417874
0.0417576
0.0417286
0.0417005
0.0416734
0.0416476
0.0416228
0.0415992
0.0415768
0.0415556
0.0415358
0.0415172
0.0415
0.0414839
0.0414692
0.0414555
0.041443
0.0414314
0.0414207
0.0414107
0.0414014
0.0413925
0.0413837
0.0413748
0.0413656
0.0413558
0.041345
0.0413328
0.0413188
0.0413027
0.0412841
0.0412624
0.0412369
0.0412069
0.041172
0.0411316
0.0410849
0.041031
0.0409691
0.0408981
0.040817
0.0407243
0.0406186
0.0404984
0.0403623
0.0402092
0.0400377
0.0398462
0.0396326
0.0393955
0.0391317
0.0388399
0.038516
0.0381618
0.0377729
0.0373543
0.0368959
0.0364093
0.0358805
0.0353173
0.0347184
0.0340835
0.0334202
0.032711
0.0319669
0.0311977
0.0304038
0.0296189
0.0288727
0.0281446
0.027465
0.0268248
0.0261899
0.0255956
0.0250443
0.0244945
0.0239771
0.0234995
0.0230582
0.0226629
0.0222716
0.0219166
0.0215923
0.0210346
0.0429944
0.0425833
0.0427105
0.0428026
0.0428876
0.0429619
0.0430245
0.0430803
0.0431116
0.0431196
0.0431117
0.0430904
0.0430585
0.0430157
0.0429574
0.0428843
0.0428001
0.0427155
0.0426336
0.0425577
0.0424875
0.0424224
0.0423613
0.042304
0.0422511
0.0422026
0.042158
0.042117
0.0420793
0.0420449
0.0420135
0.0419844
0.0419566
0.041929
0.0419013
0.0418733
0.041845
0.0418169
0.0417892
0.0417622
0.0417361
0.0417112
0.0416873
0.0416646
0.041643
0.0416227
0.0416036
0.0415859
0.0415695
0.0415545
0.0415409
0.0415285
0.0415175
0.0415075
0.0414987
0.0414908
0.0414839
0.0414778
0.0414722
0.041467
0.0414619
0.0414567
0.0414512
0.041445
0.0414378
0.0414291
0.0414187
0.0414062
0.0413911
0.0413729
0.0413507
0.0413242
0.0412928
0.0412559
0.0412128
0.0411625
0.0411041
0.0410368
0.0409591
0.0408699
0.0407675
0.0406507
0.0405184
0.0403692
0.0402014
0.0400129
0.0398022
0.0395667
0.0393054
0.0390152
0.0386967
0.0383447
0.0379618
0.0375399
0.0370862
0.0365867
0.0360562
0.0354863
0.0348796
0.034243
0.0335758
0.0328803
0.0321584
0.0314083
0.030628
0.0298596
0.0290837
0.0283043
0.0275961
0.0269028
0.026237
0.0256376
0.0250533
0.0245205
0.0240108
0.023511
0.0230598
0.0226449
0.022264
0.0219043
0.0212813
0.0428185
0.0424117
0.0425062
0.0426058
0.0427276
0.0428397
0.0429335
0.0430091
0.0430579
0.0430783
0.0430786
0.043067
0.0430422
0.0430044
0.0429502
0.0428827
0.0428021
0.0427196
0.0426383
0.0425632
0.0424941
0.0424301
0.0423698
0.042313
0.0422607
0.0422128
0.0421693
0.0421295
0.0420928
0.0420593
0.042029
0.0420013
0.0419752
0.0419497
0.0419242
0.0418983
0.0418723
0.0418462
0.0418207
0.0417958
0.0417719
0.0417491
0.0417274
0.0417067
0.0416873
0.041669
0.0416521
0.0416366
0.0416225
0.0416098
0.0415985
0.0415886
0.0415801
0.0415728
0.0415667
0.0415618
0.0415579
0.0415549
0.0415528
0.0415511
0.0415498
0.0415486
0.0415474
0.0415458
0.0415434
0.04154
0.0415352
0.0415287
0.04152
0.0415088
0.0414943
0.0414758
0.0414532
0.0414258
0.0413928
0.0413535
0.0413071
0.0412527
0.041189
0.041115
0.0410292
0.0409302
0.0408169
0.0406879
0.0405419
0.0403772
0.0401921
0.0399844
0.0397529
0.0394943
0.0392083
0.0388903
0.0385407
0.0381528
0.0377318
0.0372689
0.0367772
0.0362441
0.0356767
0.0350701
0.034423
0.0337417
0.0330278
0.0323083
0.0315504
0.0307793
0.0300287
0.0292248
0.0284427
0.027708
0.0269585
0.0262677
0.0256198
0.0250214
0.0244835
0.023958
0.023452
0.0229385
0.0224773
0.0220705
0.0213936
0.0427229
0.0423193
0.0423532
0.0424002
0.0425177
0.0426693
0.0428112
0.0429219
0.042996
0.0430362
0.043049
0.0430444
0.0430277
0.0429955
0.0429453
0.0428821
0.0428049
0.0427241
0.0426434
0.0425689
0.0425006
0.0424374
0.0423778
0.0423217
0.0422702
0.0422232
0.0421808
0.0421422
0.0421066
0.042074
0.0420448
0.0420184
0.041994
0.0419705
0.0419472
0.0419236
0.0418998
0.0418759
0.0418525
0.0418298
0.0418081
0.0417875
0.041768
0.0417495
0.0417322
0.0417161
0.0417014
0.041688
0.0416761
0.0416657
0.0416567
0.0416493
0.0416432
0.0416386
0.0416352
0.0416331
0.0416322
0.0416323
0.0416334
0.0416352
0.0416375
0.0416402
0.0416431
0.0416459
0.0416482
0.0416497
0.0416503
0.0416495
0.0416471
0.0416426
0.0416354
0.0416246
0.0416104
0.041592
0.0415688
0.0415401
0.0415051
0.0414632
0.0414131
0.041354
0.0412844
0.041203
0.0411086
0.0410001
0.0408763
0.0407354
0.0405759
0.0403951
0.0401919
0.0399631
0.039708
0.0394224
0.0391064
0.0387552
0.0383721
0.0379501
0.0374977
0.0370038
0.0364765
0.0359063
0.035294
0.0346401
0.0339366
0.0332053
0.0324576
0.0316757
0.0309158
0.0301529
0.0293475
0.0285923
0.0278154
0.027048
0.0263245
0.0256304
0.0249955
0.024435
0.0239337
0.0234381
0.0229184
0.022421
0.0215676
0.0426743
0.0423051
0.0422754
0.0422408
0.0423023
0.0424498
0.0426348
0.0428022
0.0429227
0.0429902
0.043022
0.0430261
0.0430159
0.0429897
0.042944
0.0428831
0.0428088
0.042729
0.0426492
0.042575
0.042507
0.042444
0.0423851
0.0423301
0.0422796
0.0422338
0.0421925
0.0421551
0.0421205
0.042089
0.0420609
0.0420358
0.0420129
0.0419913
0.0419702
0.041949
0.0419275
0.0419059
0.0418847
0.0418642
0.0418448
0.0418264
0.0418092
0.041793
0.041778
0.0417642
0.0417517
0.0417405
0.0417309
0.0417227
0.0417161
0.0417111
0.0417076
0.0417055
0.0417049
0.0417056
0.0417076
0.0417108
0.0417151
0.0417203
0.0417262
0.0417327
0.0417396
0.0417467
0.0417537
0.0417602
0.0417659
0.0417707
0.0417742
0.041776
0.0417759
0.0417727
0.0417666
0.0417569
0.0417429
0.0417243
0.0417002
0.04167
0.0416327
0.0415874
0.0415329
0.0414678
0.0413909
0.0413012
0.0411976
0.0410784
0.0409422
0.0407867
0.0406108
0.0404119
0.0401889
0.0399382
0.0396595
0.0393479
0.0390048
0.0386242
0.0382109
0.0377548
0.0372626
0.0367253
0.036148
0.0355296
0.0348694
0.0341551
0.0334123
0.0326349
0.0318229
0.031057
0.0302506
0.0294468
0.0286745
0.0278965
0.0271606
0.0264237
0.0256917
0.025003
0.024394
0.0238374
0.0233385
0.0228817
0.0220134
0.0426442
0.0423133
0.0422639
0.0421772
0.0421581
0.0422374
0.0424127
0.0426259
0.0428073
0.0429267
0.0429889
0.0430092
0.0430065
0.0429879
0.0429473
0.042887
0.0428146
0.0427353
0.0426561
0.0425817
0.0425133
0.0424501
0.0423918
0.0423382
0.0422891
0.0422446
0.0422046
0.0421681
0.0421346
0.0421043
0.0420775
0.0420537
0.0420323
0.0420125
0.0419935
0.0419746
0.0419556
0.0419364
0.0419175
0.0418993
0.041882
0.041866
0.0418511
0.0418374
0.0418247
0.0418132
0.041803
0.0417941
0.0417867
0.0417809
0.0417767
0.041774
0.0417731
0.0417735
0.0417756
0.0417791
0.0417839
0.0417901
0.0417975
0.0418061
0.0418155
0.0418257
0.0418365
0.0418478
0.0418592
0.0418704
0.0418812
0.0418914
0.0419007
0.0419086
0.0419148
0.041919
0.0419206
0.0419192
0.0419143
0.0419055
0.0418917
0.0418728
0.0418477
0.0418158
0.0417759
0.0417268
0.0416673
0.0415962
0.0415126
0.0414152
0.0413025
0.0411726
0.041024
0.040854
0.0406613
0.0404423
0.0401965
0.0399199
0.0396133
0.0392708
0.0388945
0.0384756
0.03802
0.0375202
0.0369827
0.0364045
0.035784
0.0351225
0.0344053
0.0336585
0.0328618
0.0320336
0.0312202
0.0303614
0.0295647
0.0287428
0.0279554
0.0271874
0.0264415
0.0257187
0.0250024
0.0243048
0.023687
0.0231617
0.0222362
0.0426074
0.0423256
0.0422787
0.0421744
0.0420996
0.0421009
0.042196
0.042395
0.0426291
0.042821
0.0429332
0.0429838
0.0429959
0.0429856
0.0429533
0.0428947
0.0428233
0.0427435
0.0426643
0.0425892
0.0425197
0.042456
0.0423982
0.0423462
0.0422987
0.0422557
0.0422168
0.0421812
0.0421486
0.0421196
0.0420941
0.0420717
0.0420519
0.0420338
0.0420169
0.0420003
0.0419838
0.0419671
0.0419506
0.0419347
0.0419197
0.041906
0.0418935
0.0418822
0.0418721
0.041863
0.0418552
0.0418487
0.0418437
0.0418403
0.0418384
0.0418382
0.0418398
0.0418429
0.0418475
0.0418537
0.0418614
0.0418706
0.0418812
0.041893
0.0419059
0.0419197
0.0419344
0.0419497
0.0419655
0.0419813
0.041997
0.0420124
0.0420272
0.0420412
0.042054
0.042065
0.0420738
0.0420802
0.0420837
0.0420843
0.0420806
0.0420725
0.042059
0.0420395
0.0420131
0.0419786
0.0419351
0.0418812
0.0418161
0.0417386
0.0416475
0.0415409
0.0414173
0.0412742
0.0411105
0.0409234
0.0407123
0.0404733
0.0402056
0.0399032
0.0395671
0.03919
0.0387771
0.0383214
0.0378269
0.0372896
0.0367071
0.036082
0.0354122
0.034693
0.0339365
0.0331126
0.0323031
0.0314498
0.0305926
0.0297455
0.0288668
0.0280473
0.027243
0.0265259
0.0258046
0.0250851
0.0243605
0.0236954
0.0225278
0.0425609
0.0423362
0.0423056
0.0422038
0.0420975
0.042042
0.0420568
0.0421665
0.0423825
0.0426322
0.0428299
0.0429395
0.0429759
0.0429777
0.0429567
0.0429042
0.0428347
0.0427545
0.042674
0.0425976
0.0425264
0.0424623
0.0424047
0.042354
0.0423082
0.0422666
0.042229
0.0421942
0.0421627
0.0421351
0.0421111
0.0420903
0.0420721
0.0420557
0.0420407
0.0420264
0.0420122
0.0419981
0.0419841
0.0419706
0.041958
0.0419466
0.0419365
0.0419277
0.0419201
0.0419135
0.0419082
0.0419041
0.0419015
0.0419006
0.0419012
0.0419035
0.0419074
0.041913
0.0419203
0.0419293
0.0419398
0.0419519
0.0419655
0.0419805
0.0419968
0.0420141
0.0420325
0.0420517
0.0420716
0.0420919
0.0421124
0.0421328
0.0421529
0.0421726
0.0421915
0.0422091
0.0422251
0.0422392
0.0422508
0.0422598
0.0422655
0.0422676
0.0422653
0.042258
0.0422449
0.0422246
0.0421966
0.0421595
0.0421126
0.0420547
0.0419848
0.0419012
0.0418024
0.0416861
0.0415513
0.041395
0.0412161
0.0410109
0.0407783
0.0405134
0.0402171
0.0398835
0.0395163
0.039108
0.0386607
0.0381682
0.037629
0.037045
0.036411
0.0357299
0.0350038
0.034223
0.0333927
0.0325542
0.0316561
0.0307978
0.0298677
0.0289844
0.0280954
0.0272381
0.0264514
0.0257277
0.025066
0.0244477
0.023284
0.042508
0.042341
0.0423318
0.0422522
0.0421266
0.0420371
0.0420002
0.0420253
0.0421443
0.0423697
0.0426294
0.0428263
0.0429227
0.0429518
0.0429445
0.0429084
0.0428447
0.0427664
0.0426857
0.0426077
0.0425346
0.0424698
0.0424119
0.042362
0.0423175
0.0422771
0.0422406
0.0422069
0.0421766
0.0421503
0.0421279
0.0421087
0.0420922
0.0420777
0.0420646
0.0420523
0.0420406
0.0420289
0.0420174
0.0420065
0.0419963
0.0419873
0.0419796
0.0419733
0.0419682
0.0419643
0.0419615
0.0419601
0.0419599
0.0419616
0.0419647
0.0419693
0.0419758
0.041984
0.041994
0.0420057
0.042019
0.042034
0.0420506
0.0420688
0.0420883
0.0421091
0.0421312
0.0421542
0.0421782
0.0422029
0.0422279
0.0422531
0.0422785
0.0423037
0.0423285
0.0423524
0.0423752
0.0423965
0.042416
0.0424334
0.0424481
0.0424596
0.0424674
0.0424711
0.0424705
0.0424635
0.0424502
0.0424284
0.0423982
0.0423581
0.0423075
0.042245
0.0421691
0.0420779
0.04197
0.0418427
0.041695
0.0415237
0.0413278
0.0411029
0.0408491
0.0405607
0.0402392
0.0398762
0.0394731
0.0390231
0.038526
0.0379837
0.0373911
0.0367537
0.0360618
0.0353199
0.0345167
0.0337008
0.0328314
0.0319407
0.0310508
0.030125
0.029213
0.0282536
0.0273129
0.026388
0.0255539
0.0248405
0.0234975
0.0424534
0.0423423
0.0423475
0.0422981
0.0421792
0.0420608
0.0419974
0.0419785
0.0420065
0.0421269
0.0423528
0.0426092
0.0428009
0.0428949
0.0429138
0.0428973
0.0428457
0.0427715
0.042696
0.0426188
0.0425452
0.0424788
0.0424197
0.0423693
0.0423251
0.0422858
0.0422509
0.042219
0.0421906
0.0421659
0.0421449
0.0421273
0.0421126
0.0421
0.0420889
0.0420788
0.0420692
0.0420599
0.042051
0.0420425
0.0420348
0.0420283
0.0420231
0.0420192
0.0420166
0.0420154
0.0420151
0.0420164
0.0420189
0.0420228
0.0420284
0.0420357
0.0420447
0.0420555
0.0420681
0.0420824
0.0420985
0.0421163
0.0421359
0.0421571
0.0421798
0.042204
0.0422295
0.0422563
0.0422842
0.0423129
0.0423424
0.0423723
0.0424025
0.042433
0.0424634
0.0424934
0.0425226
0.0425508
0.0425777
0.0426029
0.0426262
0.042647
0.0426649
0.0426792
0.0426894
0.042695
0.0426958
0.0426894
0.0426757
0.0426531
0.0426214
0.0425792
0.0425255
0.0424584
0.0423763
0.042277
0.0421592
0.0420201
0.0418583
0.0416702
0.0414552
0.0412079
0.0409284
0.0406091
0.0402515
0.0398484
0.0394007
0.0389082
0.0383647
0.0377723
0.037119
0.0364154
0.0356638
0.0348427
0.0339897
0.0330701
0.0321872
0.0312461
0.0303307
0.029406
0.0285021
0.0276148
0.0266798
0.0258067
0.0242096
0.0423955
0.0423385
0.0423554
0.0423325
0.04224
0.042114
0.0420207
0.0419792
0.0419733
0.0419986
0.0421151
0.042328
0.042567
0.0427465
0.0428312
0.0428473
0.0428219
0.0427681
0.0426994
0.0426248
0.0425538
0.0424879
0.0424281
0.0423765
0.0423316
0.0422925
0.0422593
0.0422299
0.042204
0.0421811
0.0421615
0.0421454
0.0421324
0.0421219
0.0421129
0.042105
0.0420976
0.0420906
0.042084
0.0420781
0.0420729
0.0420689
0.0420661
0.0420649
0.0420647
0.0420662
0.0420686
0.0420724
0.0420775
0.042084
0.0420923
0.0421021
0.0421137
0.0421271
0.0421423
0.0421593
0.0421781
0.0421987
0.0422212
0.0422454
0.0422713
0.0422988
0.0423277
0.0423581
0.0423897
0.0424226
0.0424563
0.0424907
0.0425257
0.0425611
0.0425969
0.0426327
0.0426681
0.0427029
0.0427368
0.0427696
0.0428009
0.0428303
0.0428574
0.0428818
0.042903
0.0429201
0.0429326
0.0429399
0.0429415
0.0429353
0.0429211
0.0428976
0.0428642
0.0428191
0.0427613
0.0426884
0.0425992
0.0424912
0.042363
0.0422114
0.0420351
0.041829
0.0415927
0.0413195
0.0410106
0.040659
0.0402666
0.0398286
0.0393386
0.0387991
0.038202
0.0375533
0.0368374
0.0360583
0.0352265
0.034333
0.0334016
0.032398
0.0313811
0.0303455
0.0293617
0.0284425
0.0275557
0.0267579
0.0252136
0.0423299
0.0423318
0.0423632
0.0423566
0.0422952
0.0421816
0.0420715
0.0420011
0.0419752
0.0419776
0.0420047
0.0421095
0.0422935
0.0425016
0.0426666
0.0427513
0.0427685
0.0427442
0.0426903
0.0426236
0.0425563
0.0424925
0.0424348
0.042383
0.0423369
0.0422978
0.042266
0.0422395
0.0422163
0.0421955
0.0421776
0.0421631
0.0421521
0.0421437
0.0421369
0.0421313
0.0421262
0.0421214
0.0421171
0.0421135
0.0421108
0.0421093
0.042109
0.0421103
0.0421128
0.0421167
0.0421218
0.0421281
0.0421358
0.042145
0.0421558
0.0421683
0.0421824
0.0421984
0.0422162
0.0422358
0.0422573
0.0422807
0.042306
0.0423331
0.042362
0.0423927
0.0424249
0.0424587
0.042494
0.0425306
0.0425684
0.0426071
0.0426466
0.0426868
0.0427276
0.0427688
0.0428101
0.0428511
0.0428916
0.0429315
0.0429704
0.043008
0.0430439
0.0430777
0.043109
0.0431373
0.0431622
0.0431823
0.0431973
0.0432064
0.0432093
0.0432042
0.0431905
0.0431668
0.0431318
0.0430838
0.0430213
0.0429422
0.0428452
0.0427271
0.0425867
0.0424195
0.0422252
0.041998
0.0417385
0.0414398
0.041102
0.0407175
0.0402827
0.039799
0.0392577
0.0386617
0.0379982
0.037279
0.0365034
0.0356779
0.0347838
0.0338275
0.0328424
0.0317825
0.0306657
0.0295512
0.0284367
0.0274518
0.0255832
0.0422688
0.0423237
0.0423679
0.0423718
0.0423377
0.0422452
0.0421347
0.0420453
0.041995
0.0419819
0.041991
0.0420252
0.0421089
0.0422506
0.0424193
0.0425617
0.0426396
0.0426611
0.0426414
0.0426
0.0425497
0.0424921
0.0424356
0.0423852
0.0423409
0.0423041
0.0422745
0.0422501
0.0422288
0.0422093
0.0421926
0.0421797
0.0421708
0.0421646
0.0421603
0.0421572
0.0421545
0.0421518
0.0421497
0.0421484
0.0421479
0.0421488
0.0421511
0.0421549
0.04216
0.0421664
0.0421741
0.0421831
0.0421934
0.0422052
0.0422186
0.0422336
0.0422504
0.042269
0.0422894
0.0423117
0.0423358
0.0423619
0.0423899
0.0424199
0.0424519
0.0424856
0.042521
0.0425581
0.0425969
0.0426372
0.0426789
0.0427217
0.0427656
0.0428104
0.0428561
0.0429024
0.0429492
0.0429961
0.0430429
0.0430895
0.0431355
0.0431807
0.0432249
0.0432675
0.0433083
0.0433467
0.0433824
0.0434147
0.0434429
0.043466
0.0434832
0.0434942
0.0434984
0.0434945
0.0434809
0.0434564
0.043419
0.0433674
0.0433002
0.0432147
0.0431096
0.0429809
0.0428278
0.0426449
0.0424322
0.0421821
0.0418939
0.0415598
0.0411794
0.0407501
0.0402619
0.039717
0.0391072
0.0384418
0.0377056
0.0369028
0.0360378
0.0351096
0.0341199
0.03313
0.0320511
0.031046
0.0299521
0.028902
0.0268904
0.0422235
0.0423062
0.0423646
0.0423834
0.0423668
0.0422965
0.0421938
0.0421004
0.0420335
0.0420023
0.0419994
0.0420158
0.0420536
0.0421057
0.0422014
0.0423212
0.0424335
0.0425132
0.0425519
0.0425522
0.0425252
0.042481
0.0424308
0.042384
0.0423422
0.0423084
0.0422817
0.04226
0.0422408
0.0422225
0.0422072
0.042196
0.0421891
0.0421849
0.042183
0.0421826
0.0421824
0.0421821
0.0421821
0.0421828
0.0421846
0.0421878
0.0421925
0.0421987
0.0422064
0.0422154
0.0422257
0.0422373
0.0422501
0.0422645
0.0422804
0.0422981
0.0423174
0.0423385
0.0423615
0.0423864
0.0424132
0.0424419
0.0424727
0.0425054
0.0425402
0.0425769
0.0426154
0.0426557
0.0426978
0.0427416
0.0427869
0.0428336
0.0428816
0.0429307
0.0429809
0.0430321
0.043084
0.0431364
0.0431891
0.0432419
0.0432946
0.043347
0.0433988
0.0434497
0.0434993
0.0435473
0.0435933
0.0436368
0.0436771
0.0437136
0.0437455
0.0437721
0.0437924
0.0438061
0.0438123
0.0438103
0.0437966
0.0437711
0.043731
0.0436755
0.0436025
0.0435093
0.0433944
0.043253
0.0430845
0.0428817
0.0426443
0.042365
0.0420437
0.0416744
0.0412505
0.0407733
0.040232
0.0396296
0.0389497
0.0382014
0.0373738
0.0364754
0.0355093
0.0344801
0.0333223
0.0321332
0.030972
0.0299686
0.0280815
0.0421902
0.0422794
0.0423569
0.0423904
0.0423839
0.0423369
0.0422467
0.0421566
0.0420837
0.0420377
0.0420218
0.042026
0.042049
0.0420764
0.0420991
0.0421444
0.0422106
0.0422971
0.0423821
0.042434
0.042449
0.0424326
0.0424053
0.0423734
0.0423392
0.0423096
0.0422857
0.0422675
0.0422516
0.042236
0.0422226
0.0422126
0.0422069
0.0422045
0.0422046
0.0422071
0.0422096
0.0422118
0.042214
0.0422169
0.0422207
0.042226
0.0422329
0.0422415
0.0422517
0.0422633
0.0422762
0.0422902
0.0423056
0.0423225
0.0423409
0.0423611
0.0423829
0.0424066
0.0424322
0.0424596
0.042489
0.0425204
0.0425537
0.0425892
0.0426267
0.0426663
0.0427078
0.0427512
0.0427965
0.0428436
0.0428925
0.0429429
0.0429948
0.043048
0.0431025
0.0431582
0.043215
0.0432727
0.0433309
0.0433895
0.0434484
0.0435075
0.0435664
0.0436249
0.0436827
0.0437395
0.0437949
0.0438486
0.0439
0.0439485
0.0439934
0.0440341
0.04407
0.0441003
0.044124
0.0441402
0.0441483
0.0441479
0.0441336
0.0441071
0.0440645
0.0440049
0.0439262
0.0438244
0.0436984
0.043542
0.0433552
0.0431309
0.0428685
0.0425605
0.0422032
0.0417941
0.041321
0.0407841
0.0401715
0.0394973
0.0387481
0.0379235
0.0370108
0.0360092
0.035021
0.0337741
0.0325017
0.0312923
0.0290522
0.0421664
0.042249
0.0423438
0.0423927
0.0423946
0.0423694
0.0422942
0.0422089
0.0421355
0.0420816
0.0420549
0.04205
0.0420604
0.0420777
0.0420851
0.0420808
0.0420737
0.0421004
0.0421694
0.0422542
0.0423215
0.0423564
0.0423635
0.0423502
0.0423283
0.0423054
0.0422842
0.0422688
0.0422564
0.0422463
0.0422374
0.0422297
0.042225
0.0422237
0.0422254
0.0422303
0.0422355
0.0422404
0.0422451
0.0422501
0.042256
0.0422633
0.0422723
0.0422832
0.0422958
0.0423099
0.0423253
0.0423419
0.0423598
0.0423791
0.0424
0.0424226
0.0424469
0.0424731
0.0425011
0.0425311
0.042563
0.0425969
0.0426329
0.0426709
0.0427111
0.0427534
0.0427978
0.0428441
0.0428924
0.0429427
0.0429949
0.0430488
0.0431043
0.0431613
0.0432198
0.0432798
0.0433411
0.0434035
0.0434668
0.0435309
0.0435956
0.0436608
0.0437263
0.0437918
0.0438572
0.043922
0.0439862
0.0440493
0.044111
0.0441706
0.0442276
0.0442814
0.0443315
0.0443772
0.0444179
0.0444529
0.0444801
0.0444994
0.0445093
0.0445101
0.0444955
0.0444675
0.0444217
0.0443567
0.0442706
0.0441585
0.0440199
0.0438472
0.0436394
0.0433884
0.0430914
0.0427421
0.0423309
0.0418585
0.0413147
0.0407043
0.0400098
0.039237
0.0383731
0.0374234
0.0363846
0.035317
0.0340835
0.0329709
0.0308939
0.042151
0.0422194
0.0423236
0.0423905
0.0424049
0.0423939
0.0423357
0.0422557
0.042184
0.0421278
0.0420936
0.0420828
0.0420843
0.0420926
0.0420902
0.0420727
0.0420304
0.0419968
0.0420041
0.0420553
0.0421363
0.0422139
0.0422664
0.0422869
0.0422863
0.0422797
0.0422707
0.0422622
0.0422559
0.0422522
0.0422495
0.0422458
0.042243
0.042243
0.0422461
0.0422526
0.0422604
0.0422682
0.0422755
0.0422829
0.0422908
0.0423
0.0423109
0.0423238
0.0423386
0.0423551
0.042373
0.0423921
0.0424124
0.0424341
0.0424573
0.0424823
0.042509
0.0425376
0.0425681
0.0426005
0.0426349
0.0426713
0.0427097
0.0427503
0.0427931
0.0428381
0.0428851
0.0429342
0.0429854
0.0430387
0.0430941
0.0431513
0.0432102
0.0432709
0.0433332
0.0433971
0.0434626
0.0435295
0.0435976
0.0436668
0.0437368
0.0438077
0.0438793
0.0439513
0.0440236
0.0440959
0.044168
0.0442397
0.0443106
0.0443802
0.0444481
0.0445138
0.0445766
0.0446361
0.0446918
0.0447428
0.0447885
0.0448279
0.0448588
0.044881
0.0448931
0.044895
0.0448804
0.0448505
0.0448015
0.0447304
0.0446359
0.044511
0.0443551
0.0441596
0.0439233
0.0436385
0.0432993
0.0429037
0.04244
0.041907
0.0412882
0.0405887
0.0397945
0.0389069
0.0379076
0.0367878
0.0355541
0.0342748
0.0320869
0.042142
0.0421937
0.0422986
0.0423845
0.0424139
0.0424107
0.0423701
0.0422983
0.0422296
0.0421736
0.0421349
0.0421181
0.0421148
0.0421156
0.0421043
0.0420789
0.0420246
0.041965
0.0419215
0.0419174
0.0419556
0.0420323
0.0421169
0.0421861
0.0422282
0.0422473
0.0422506
0.0422482
0.0422515
0.0422535
0.0422554
0.0422576
0.0422596
0.0422623
0.0422666
0.042274
0.0422838
0.0422943
0.0423044
0.0423142
0.0423243
0.0423354
0.0423482
0.042363
0.0423799
0.0423986
0.0424189
0.0424405
0.0424632
0.0424873
0.0425129
0.0425401
0.0425692
0.0426001
0.0426329
0.0426677
0.0427044
0.0427432
0.0427841
0.0428271
0.0428724
0.0429199
0.0429695
0.0430213
0.0430753
0.0431314
0.0431896
0.0432499
0.0433121
0.0433761
0.0434419
0.0435095
0.0435789
0.0436499
0.0437223
0.0437961
0.043871
0.0439471
0.0440242
0.0441021
0.0441807
0.0442598
0.0443391
0.0444186
0.0444979
0.0445766
0.0446545
0.0447309
0.0448054
0.0448776
0.0449469
0.0450129
0.045075
0.0451319
0.0451829
0.045227
0.0452619
0.0452873
0.0453016
0.0453044
0.0452895
0.045257
0.0452032
0.0451238
0.045018
0.0448778
0.0447025
0.0444837
0.0442172
0.0438967
0.0435098
0.0430541
0.0425176
0.0419048
0.0411988
0.0403948
0.0394718
0.0384465
0.0372988
0.0360873
0.0340203
0.0421373
0.0421735
0.042272
0.0423749
0.0424181
0.0424225
0.0423983
0.0423372
0.0422722
0.0422174
0.0421758
0.042153
0.0421448
0.0421404
0.0421235
0.0420906
0.0420298
0.0419589
0.0418962
0.0418505
0.0418406
0.0418713
0.041944
0.0420352
0.0421156
0.0421712
0.0422027
0.0422211
0.0422364
0.042248
0.0422556
0.0422632
0.042272
0.0422798
0.0422867
0.0422953
0.0423066
0.0423195
0.0423323
0.0423447
0.0423571
0.0423703
0.0423849
0.0424015
0.0424202
0.042441
0.0424634
0.0424873
0.0425124
0.0425387
0.0425665
0.042596
0.0426273
0.0426604
0.0426955
0.0427325
0.0427716
0.0428127
0.0428559
0.0429013
0.0429489
0.0429988
0.0430509
0.0431052
0.0431618
0.0432206
0.0432816
0.0433447
0.0434099
0.0434771
0.0435462
0.0436172
0.0436901
0.0437649
0.0438414
0.0439194
0.0439989
0.0440797
0.0441619
0.0442452
0.0443296
0.0444148
0.0445007
0.0445872
0.044674
0.0447609
0.0448476
0.0449336
0.0450185
0.045102
0.0451835
0.0452628
0.0453392
0.045412
0.0454804
0.0455434
0.0455999
0.0456491
0.0456882
0.0457171
0.0457336
0.0457372
0.0457215
0.0456853
0.0456258
0.0455367
0.0454171
0.0452579
0.0450558
0.0448013
0.044485
0.044104
0.0436465
0.0431114
0.0424827
0.0417549
0.0409025
0.0399444
0.0388125
0.0376311
0.0357359
0.042135
0.0421591
0.0422466
0.0423614
0.0424188
0.0424341
0.042421
0.0423717
0.042311
0.0422583
0.0422153
0.0421869
0.0421727
0.0421629
0.042142
0.0421035
0.0420383
0.0419625
0.0418885
0.0418272
0.0417855
0.0417742
0.041802
0.0418742
0.0419696
0.0420614
0.0421313
0.0421756
0.042204
0.0422297
0.04225
0.0422643
0.0422787
0.0422926
0.0423043
0.0423156
0.0423284
0.0423432
0.0423587
0.0423737
0.0423885
0.0424037
0.0424202
0.0424385
0.042459
0.0424817
0.0425062
0.0425322
0.0425596
0.0425882
0.0426182
0.0426498
0.0426833
0.0427185
0.0427557
0.0427949
0.0428362
0.0428795
0.0429249
0.0429726
0.0430225
0.0430747
0.0431292
0.0431859
0.0432448
0.0433061
0.0433697
0.0434356
0.0435036
0.0435736
0.0436457
0.0437199
0.0437961
0.0438743
0.0439544
0.0440363
0.0441199
0.044205
0.0442917
0.0443799
0.0444694
0.0445602
0.0446519
0.0447447
0.0448382
0.0449324
0.045027
0.0451216
0.0452158
0.0453093
0.0454018
0.0454929
0.0455822
0.0456692
0.0457532
0.0458332
0.0459085
0.045978
0.0460406
0.0460952
0.0461389
0.0461713
0.04619
0.0461942
0.046177
0.0461358
0.0460675
0.0459644
0.0458248
0.0456389
0.0454005
0.0451042
0.0447365
0.044293
0.0437572
0.0431183
0.0423579
0.0414647
0.0404065
0.0392274
0.0374952
0.042134
0.0421496
0.0422244
0.0423452
0.042419
0.0424444
0.0424383
0.0424005
0.0423456
0.0422963
0.0422536
0.0422205
0.0421991
0.042182
0.0421572
0.0421132
0.0420464
0.0419665
0.0418887
0.0418186
0.0417623
0.0417278
0.0417197
0.0417491
0.041823
0.0419242
0.0420242
0.0421041
0.0421637
0.0422049
0.0422367
0.0422603
0.0422793
0.0422985
0.0423179
0.0423344
0.0423498
0.0423665
0.0423843
0.0424018
0.0424188
0.042436
0.0424543
0.0424744
0.0424966
0.042521
0.0425474
0.0425755
0.0426049
0.0426357
0.0426678
0.0427016
0.042737
0.0427744
0.0428136
0.0428549
0.0428982
0.0429436
0.0429912
0.043041
0.043093
0.0431474
0.0432041
0.0432631
0.0433244
0.043388
0.043454
0.0435223
0.0435929
0.0436657
0.0437405
0.0438176
0.0438968
0.0439781
0.0440616
0.044147
0.0442343
0.0443234
0.0444142
0.0445068
0.0446009
0.0446966
0.0447937
0.044892
0.0449916
0.0450923
0.0451938
0.045296
0.0453984
0.0455008
0.0456029
0.0457044
0.045805
0.0459044
0.0460019
0.0460969
0.0461886
0.0462762
0.0463589
0.0464354
0.0465045
0.046565
0.0466135
0.0466494
0.0466701
0.0466742
0.0466535
0.0466053
0.0465261
0.0464078
0.0462454
0.046029
0.0457449
0.0453893
0.0449461
0.0444088
0.0437573
0.0429585
0.0420117
0.0408678
0.0393001
0.0421335
0.0421438
0.0422065
0.0423288
0.0424194
0.0424525
0.0424512
0.0424241
0.0423764
0.0423314
0.0422901
0.0422532
0.0422239
0.0421973
0.042166
0.0421173
0.0420498
0.0419689
0.0418885
0.0418162
0.041753
0.0417048
0.0416804
0.041679
0.0417126
0.0417915
0.0418989
0.0420058
0.042095
0.0421607
0.042207
0.0422445
0.0422728
0.0422993
0.0423263
0.0423503
0.04237
0.0423889
0.0424085
0.0424283
0.0424476
0.0424669
0.0424872
0.042509
0.042533
0.0425591
0.0425873
0.0426172
0.0426486
0.0426814
0.0427156
0.0427514
0.0427889
0.0428282
0.0428694
0.0429126
0.0429579
0.0430053
0.0430549
0.0431067
0.0431608
0.0432172
0.0432761
0.0433372
0.0434006
0.0434664
0.0435347
0.0436053
0.0436783
0.0437535
0.043831
0.0439106
0.0439926
0.0440768
0.0441632
0.0442518
0.0443424
0.044435
0.0445295
0.044626
0.0447243
0.0448243
0.044926
0.0450294
0.0451343
0.0452406
0.0453482
0.0454569
0.0455665
0.0456767
0.0457872
0.0458978
0.0460083
0.0461185
0.0462278
0.0463358
0.0464418
0.0465453
0.0466455
0.0467413
0.046832
0.0469162
0.0469923
0.0470592
0.0471128
0.0471524
0.0471748
0.0471784
0.0471529
0.0470958
0.0469987
0.0468539
0.0466503
0.0463824
0.0460293
0.045584
0.0450147
0.0442961
0.0434313
0.0423561
0.0409207
0.0421333
0.0421404
0.0421934
0.0423145
0.0424185
0.0424593
0.0424626
0.0424439
0.0424038
0.0423634
0.0423241
0.0422833
0.0422453
0.0422086
0.0421674
0.0421151
0.0420468
0.0419672
0.0418875
0.0418145
0.0417499
0.0416952
0.0416583
0.0416452
0.0416511
0.041693
0.0417795
0.0418928
0.0420062
0.0420996
0.0421694
0.0422212
0.0422617
0.0422967
0.0423305
0.0423619
0.0423875
0.0424095
0.0424313
0.0424533
0.0424747
0.0424961
0.0425183
0.042542
0.0425677
0.0425955
0.0426254
0.0426572
0.0426905
0.0427252
0.0427613
0.042799
0.0428384
0.0428796
0.0429227
0.0429678
0.0430149
0.0430642
0.0431157
0.0431694
0.0432254
0.0432839
0.0433446
0.0434077
0.0434732
0.0435411
0.0436114
0.0436842
0.0437593
0.0438368
0.0439166
0.0439987
0.0440831
0.0441699
0.044259
0.0443504
0.0444441
0.0445398
0.0446376
0.0447375
0.0448394
0.0449434
0.0450492
0.0451569
0.0452665
0.0453778
0.0454908
0.0456053
0.0457211
0.045838
0.0459559
0.0460744
0.0461934
0.0463129
0.0464324
0.0465515
0.0466699
0.0467869
0.0469021
0.0470147
0.047124
0.0472288
0.0473282
0.0474207
0.0475046
0.0475785
0.0476371
0.0476801
0.0477033
0.0477052
0.0476704
0.0475995
0.0474779
0.0473021
0.0470515
0.0467222
0.0462712
0.0456736
0.0449054
0.0439112
0.0425855
0.0421332
0.0421385
0.0421847
0.0423039
0.0424175
0.0424651
0.0424734
0.0424609
0.0424283
0.0423924
0.0423542
0.042309
0.0422609
0.0422146
0.0421635
0.0421042
0.0420354
0.0419594
0.0418833
0.0418121
0.0417482
0.041692
0.0416493
0.041625
0.0416217
0.0416367
0.0416901
0.0417871
0.0419079
0.0420236
0.0421172
0.0421874
0.042243
0.0422891
0.04233
0.0423687
0.0424018
0.0424284
0.0424527
0.0424767
0.0425003
0.0425238
0.042548
0.0425736
0.0426012
0.0426308
0.0426625
0.0426959
0.042731
0.0427675
0.0428055
0.042845
0.0428862
0.0429292
0.0429741
0.043021
0.0430699
0.043121
0.0431743
0.0432298
0.0432876
0.0433479
0.0434105
0.0434755
0.0435429
0.0436127
0.043685
0.0437597
0.0438369
0.0439164
0.0439983
0.0440826
0.0441693
0.0442584
0.04435
0.044444
0.0445403
0.0446388
0.0447395
0.0448425
0.0449477
0.0450551
0.0451645
0.0452761
0.0453897
0.0455053
0.0456229
0.0457424
0.0458636
0.0459864
0.0461104
0.0462357
0.0463621
0.0464895
0.0466177
0.0467464
0.0468751
0.0470037
0.0471316
0.0472584
0.0473834
0.0475058
0.0476251
0.0477397
0.0478488
0.0479507
0.048043
0.0481243
0.0481884
0.0482355
0.0482601
0.0482605
0.0482143
0.0481266
0.0479724
0.0477495
0.0474079
0.046927
0.0462467
0.0453424
0.04411
0.0421332
0.0421377
0.0421798
0.0422973
0.0424176
0.0424712
0.0424839
0.0424764
0.0424507
0.0424181
0.0423793
0.0423282
0.0422698
0.0422125
0.0421513
0.0420867
0.0420182
0.0419462
0.0418747
0.0418073
0.0417459
0.0416906
0.0416457
0.041616
0.0416057
0.0416101
0.0416372
0.0417056
0.0418152
0.0419408
0.0420549
0.0421462
0.0422176
0.0422758
0.042326
0.0423723
0.0424124
0.0424442
0.0424717
0.0424981