/*--------------------------------*- C++ -*----------------------------------*\
| =========                 |                                                 |
| \\      /  F ield         | OpenFOAM: The Open Source CFD Toolbox           |
|  \\    /   O peration     | Version:  2412                                  |
|   \\  /    A nd           | Website:  www.openfoam.com                      |
|    \\/     M anipulation  |                                                 |
\*---------------------------------------------------------------------------*/
FoamFile
{
    version     2.0;
    format      ascii;
    arch        "LSB;label=32;scalar=64";
    class       volScalarField;
    location    "0.065";
    object      rho;
}
// * * * * * * * * * * * * * * * * * * * * * * * * * * * * * * * * * * * * * //

dimensions      [1 -3 0 0 0 0 0];

internalField   nonuniform List<scalar> 
9816
(
0.0440571
0.0440619
0.0440655
0.0440676
0.0440688
0.0440688
0.0440674
0.0440653
0.0440622
0.0440581
0.0440533
0.0440477
0.0440415
0.0440346
0.0440271
0.0440194
0.044011
0.0440047
0.0439972
0.0439907
0.0439844
0.0439786
0.0439727
0.0439663
0.0439584
0.0439482
0.0439345
0.0439182
0.0438979
0.04387
0.0438267
0.043769
0.0436953
0.0436136
0.0435214
0.043424
0.0433127
0.0431949
0.0430622
0.0429302
0.0427862
0.0426787
0.0433583
0.0433506
0.0433427
0.0433344
0.0433259
0.0433173
0.0433083
0.0432991
0.0432897
0.0432801
0.0432704
0.0432608
0.0432512
0.043243
0.0432352
0.0432296
0.0432247
0.043221
0.0432179
0.0432146
0.0432101
0.0432033
0.0431941
0.0431821
0.0431606
0.0431257
0.0430737
0.0430068
0.0429271
0.0428387
0.0427446
0.0426437
0.0425365
0.042424
0.0423148
0.0422079
0.0421086
0.042038
0.0420027
0.0419616
0.0419332
0.0419299
0.0430331
0.0430262
0.0430192
0.0430124
0.0430056
0.0429989
0.0429921
0.0429855
0.0429791
0.042973
0.0429675
0.0429629
0.0429587
0.0429559
0.0429538
0.0429518
0.0429496
0.0429461
0.0429412
0.0429351
0.0429262
0.04291
0.0428843
0.042845
0.0427923
0.0427237
0.0426402
0.0425408
0.0424286
0.0423062
0.0421796
0.0420559
0.0419469
0.0418561
0.0417758
0.0417269
0.0417144
0.0417012
0.0416806
0.041668
0.0416671
0.0416729
0.0428376
0.0428329
0.0428281
0.0428235
0.0428188
0.0428141
0.0428095
0.042805
0.0428011
0.0427976
0.0427949
0.0427937
0.0427929
0.0427926
0.042792
0.0427903
0.0427868
0.0427823
0.0427759
0.0427646
0.042745
0.042713
0.042666
0.0426014
0.0425185
0.042416
0.0422971
0.042165
0.0420279
0.0418922
0.0417694
0.041674
0.0415981
0.0415337
0.0415106
0.0415134
0.0415077
0.0414927
0.0414777
0.0414746
0.0414775
0.0414873
0.0426948
0.0426911
0.0426874
0.0426837
0.04268
0.0426765
0.0426731
0.0426703
0.0426681
0.0426669
0.0426665
0.0426669
0.0426675
0.0426678
0.0426669
0.0426647
0.0426613
0.0426555
0.0426441
0.0426242
0.0425912
0.0425424
0.0424742
0.0423846
0.0422727
0.0421418
0.0419978
0.0418504
0.0417084
0.0415851
0.0414945
0.0414234
0.0413656
0.0413488
0.041355
0.0413525
0.0413391
0.0413224
0.0413178
0.0413193
0.041327
0.0413399
0.0426032
0.0426007
0.0425981
0.0425954
0.0425928
0.0425902
0.0425878
0.0425864
0.0425853
0.0425852
0.0425854
0.0425855
0.0425852
0.0425836
0.0425813
0.0425777
0.0425709
0.0425582
0.0425363
0.0425018
0.0424509
0.0423791
0.0422837
0.0421644
0.0420254
0.0418734
0.0417194
0.0415763
0.0414552
0.0413539
0.0412855
0.0412594
0.0412398
0.0412117
0.0411996
0.0411983
0.0412036
0.0412097
0.0412119
0.0412112
0.0412101
0.0412105
0.0425301
0.042528
0.042526
0.042524
0.0425221
0.0425204
0.0425191
0.0425189
0.0425187
0.0425188
0.0425187
0.042518
0.0425166
0.0425144
0.0425103
0.0425027
0.0424883
0.0424644
0.042426
0.0423698
0.0422898
0.0421861
0.0420572
0.0419105
0.0417527
0.041598
0.0414537
0.0413328
0.0412489
0.0411907
0.0411387
0.0411181
0.041122
0.0411249
0.0411184
0.0411049
0.0410975
0.0410952
0.0410977
0.0411048
0.041116
0.0411286
0.0424726
0.0424712
0.0424698
0.0424686
0.0424676
0.042467
0.0424667
0.0424668
0.042467
0.0424669
0.0424661
0.0424649
0.0424629
0.0424586
0.0424506
0.042435
0.0424093
0.0423676
0.0423056
0.0422186
0.0421055
0.0419679
0.0418125
0.0416496
0.0414913
0.0413494
0.0412389
0.0411558
0.0410885
0.0410585
0.0410586
0.0410532
0.0410379
0.0410224
0.0410175
0.0410175
0.0410229
0.0410311
0.0410387
0.0410457
0.0410515
0.0410567
0.0424278
0.0424269
0.0424261
0.0424256
0.0424252
0.0424254
0.0424256
0.0424259
0.0424259
0.0424255
0.0424248
0.0424233
0.0424195
0.0424121
0.0423968
0.0423715
0.042329
0.0422664
0.0421765
0.0420608
0.0419182
0.041759
0.0415914
0.0414301
0.0412867
0.041178
0.041094
0.0410274
0.0410036
0.0410063
0.0410002
0.0409835
0.0409665
0.0409615
0.0409621
0.040969
0.0409785
0.0409862
0.0409924
0.0409969
0.0410004
0.0410043
0.0423963
0.0423962
0.0423961
0.0423963
0.0423966
0.0423971
0.0423975
0.0423977
0.0423974
0.0423968
0.0423958
0.0423927
0.0423865
0.0423726
0.0423496
0.0423094
0.0422501
0.042163
0.0420502
0.0419093
0.0417511
0.0415823
0.0414195
0.0412754
0.0411595
0.0410657
0.0410105
0.0409931
0.0409747
0.0409495
0.0409397
0.0409373
0.0409414
0.0409473
0.0409501
0.0409498
0.0409488
0.0409492
0.0409518
0.0409577
0.0409671
0.0409793
0.042368
0.0423682
0.0423684
0.0423691
0.0423701
0.0423712
0.0423721
0.0423726
0.0423728
0.0423724
0.0423703
0.0423648
0.0423533
0.0423319
0.0422965
0.04224
0.0421599
0.0420507
0.041917
0.0417612
0.0415969
0.041434
0.0412891
0.0411664
0.0410724
0.0410182
0.0409892
0.0409573
0.0409371
0.0409357
0.0409387
0.0409424
0.0409421
0.0409384
0.040934
0.0409325
0.0409345
0.0409405
0.0409506
0.0409634
0.0409773
0.0409902
0.0423474
0.0423483
0.0423494
0.0423506
0.0423519
0.042353
0.0423538
0.0423543
0.0423539
0.0423515
0.0423462
0.0423348
0.0423145
0.0422797
0.0422256
0.0421474
0.0420423
0.0419121
0.0417616
0.0416015
0.0414436
0.0413006
0.0411795
0.0410888
0.0410342
0.0409963
0.0409626
0.0409513
0.040954
0.0409572
0.0409557
0.0409495
0.0409435
0.0409411
0.0409425
0.0409478
0.040957
0.0409688
0.0409812
0.0409924
0.0410016
0.0410083
0.0423311
0.0423326
0.042334
0.0423355
0.0423367
0.0423376
0.0423379
0.0423367
0.042334
0.0423267
0.0423144
0.0422902
0.0422528
0.0421935
0.0421124
0.0420039
0.0418737
0.0417255
0.0415712
0.0414219
0.0412876
0.0411789
0.041101
0.0410448
0.0410038
0.0409902
0.0409897
0.0409844
0.0409748
0.0409681
0.0409667
0.0409685
0.0409728
0.0409789
0.0409862
0.040994
0.0410019
0.0410092
0.0410161
0.0410226
0.0410292
0.0410361
0.0423168
0.0423186
0.0423203
0.0423217
0.0423224
0.0423221
0.0423201
0.0423156
0.0423058
0.0422878
0.0422574
0.0422098
0.0421409
0.0420476
0.0419309
0.0417945
0.0416477
0.0415008
0.0413644
0.0412474
0.0411598
0.0411005
0.0410526
0.0410229
0.0410191
0.0410206
0.0410179
0.0410071
0.0410028
0.041002
0.0410047
0.0410112
0.0410206
0.0410311
0.0410415
0.0410504
0.0410578
0.0410637
0.0410689
0.0410739
0.0410794
0.0410858
0.0423037
0.0423056
0.042307
0.0423074
0.0423065
0.0423034
0.0422962
0.0422817
0.0422561
0.0422152
0.0421536
0.0420689
0.0419596
0.0418301
0.0416875
0.041543
0.041407
0.041291
0.0412015
0.0411326
0.0410881
0.0410721
0.0410625
0.0410483
0.041038
0.0410381
0.0410405
0.0410451
0.0410508
0.0410575
0.0410646
0.0410719
0.0410794
0.0410876
0.0410961
0.0411052
0.0411143
0.0411233
0.0411319
0.04114
0.0411474
0.0411542
0.0422917
0.042293
0.0422931
0.0422917
0.0422874
0.0422773
0.0422578
0.0422239
0.0421713
0.0420945
0.041993
0.0418679
0.0417273
0.041581
0.0414444
0.0413249
0.0412275
0.0411638
0.0411305
0.0410984
0.0410739
0.0410722
0.0410757
0.0410799
0.0410812
0.0410811
0.0410822
0.0410859
0.0410933
0.0411043
0.0411177
0.0411319
0.0411457
0.0411579
0.041168
0.0411759
0.0411819
0.0411865
0.0411902
0.0411936
0.041197
0.0412008
0.0422802
0.0422802
0.0422786
0.0422734
0.0422614
0.0422379
0.042198
0.0421356
0.0420472
0.0419321
0.0417957
0.0416479
0.0415032
0.0413735
0.0412711
0.0412044
0.0411535
0.041115
0.0411047
0.0411078
0.0411077
0.0411042
0.0410994
0.0410987
0.0411026
0.0411109
0.041124
0.0411394
0.0411557
0.0411707
0.0411835
0.0411934
0.0412011
0.041207
0.041212
0.0412167
0.0412216
0.0412269
0.0412327
0.041239
0.0412458
0.0412529
0.0422682
0.0422666
0.0422612
0.0422487
0.0422233
0.0421809
0.0421135
0.0420191
0.0418964
0.0417548
0.0416043
0.0414637
0.0413439
0.0412451
0.0411827
0.0411646
0.0411459
0.0411196
0.0411117
0.041112
0.0411183
0.041126
0.0411322
0.041139
0.0411462
0.0411553
0.0411665
0.0411795
0.0411937
0.0412082
0.0412219
0.0412343
0.0412449
0.0412536
0.0412606
0.041266
0.0412704
0.0412742
0.0412777
0.0412811
0.0412847
0.0412887
0.0422557
0.0422505
0.0422382
0.0422137
0.0421714
0.0421043
0.0420086
0.0418852
0.0417415
0.0415921
0.0414539
0.0413354
0.0412441
0.0411972
0.0411742
0.0411451
0.0411308
0.041131
0.0411357
0.0411422
0.0411461
0.04115
0.041155
0.0411629
0.0411739
0.0411883
0.0412045
0.0412213
0.0412372
0.0412513
0.041263
0.0412721
0.041279
0.0412842
0.0412884
0.041292
0.0412955
0.0412992
0.0413033
0.0413078
0.0413127
0.0413183
0.0422403
0.0422293
0.0422069
0.0421671
0.0421028
0.0420104
0.0418893
0.0417476
0.0415988
0.0414614
0.0413423
0.0412551
0.0412132
0.0411839
0.0411527
0.0411463
0.0411492
0.0411559
0.0411609
0.041162
0.0411638
0.0411677
0.041176
0.0411889
0.0412058
0.0412245
0.0412431
0.0412598
0.0412735
0.0412839
0.0412914
0.0412968
0.0413008
0.0413044
0.0413079
0.0413119
0.0413165
0.0413218
0.0413277
0.041334
0.0413409
0.0413481
0.0422222
0.042202
0.0421667
0.0421061
0.0420199
0.0419027
0.0417655
0.0416178
0.041481
0.0413616
0.0412678
0.0412232
0.0412037
0.0411735
0.0411569
0.0411576
0.0411639
0.0411725
0.041177
0.0411805
0.0411852
0.0411919
0.0412026
0.0412173
0.0412347
0.0412531
0.0412709
0.0412866
0.0412996
0.0413094
0.0413165
0.0413216
0.0413255
0.0413288
0.0413321
0.0413357
0.0413398
0.0413444
0.0413496
0.0413554
0.0413616
0.0413683
0.0421997
0.0421694
0.0421153
0.0420357
0.0419257
0.0417936
0.0416486
0.0415078
0.0413907
0.0412945
0.0412272
0.0412094
0.0412035
0.0411839
0.0411681
0.041166
0.0411709
0.0411798
0.0411899
0.041201
0.0412122
0.0412239
0.0412358
0.0412482
0.0412613
0.0412749
0.0412889
0.0413025
0.0413154
0.0413269
0.0413367
0.0413449
0.0413514
0.0413567
0.0413611
0.0413648
0.0413682
0.0413714
0.0413746
0.0413779
0.0413815
0.0413855
0.0421741
0.0421298
0.0420586
0.0419598
0.0418338
0.0416937
0.0415497
0.0414224
0.0413308
0.0412615
0.0412072
0.0411972
0.0412039
0.0411996
0.041187
0.0411828
0.0411816
0.0411873
0.0411991
0.0412159
0.0412349
0.0412532
0.041269
0.0412818
0.0412921
0.0413008
0.0413091
0.0413176
0.0413266
0.0413361
0.0413459
0.0413556
0.0413649
0.0413735
0.041381
0.0413875
0.041393
0.0413975
0.0414013
0.0414044
0.0414072
0.0414097
0.0421459
0.0420872
0.0420023
0.0418879
0.0417541
0.0416115
0.0414769
0.0413717
0.0412928
0.0412328
0.0412139
0.0412154
0.0412075
0.041193
0.0411913
0.0411926
0.041198
0.0412096
0.0412246
0.0412416
0.0412582
0.0412731
0.0412859
0.0412972
0.0413076
0.0413179
0.0413281
0.0413385
0.0413489
0.0413589
0.0413683
0.0413769
0.0413843
0.0413907
0.041396
0.0414004
0.0414041
0.0414073
0.0414102
0.0414129
0.0414155
0.0414182
0.0421165
0.0420463
0.0419502
0.0418259
0.0416894
0.0415485
0.0414297
0.041339
0.0412645
0.0412293
0.0412316
0.0412264
0.0412096
0.0411993
0.041201
0.0412062
0.0412169
0.041232
0.0412488
0.0412651
0.0412795
0.0412916
0.0413025
0.0413125
0.0413229
0.0413338
0.0413453
0.0413569
0.0413683
0.0413788
0.041388
0.0413958
0.0414021
0.0414071
0.0414109
0.041414
0.0414166
0.0414188
0.0414209
0.041423
0.0414253
0.0414278
0.0420854
0.0420068
0.0419009
0.0417722
0.0416347
0.0415032
0.0413974
0.0413103
0.0412573
0.0412487
0.0412408
0.0412224
0.0412127
0.0412134
0.0412192
0.0412281
0.0412403
0.0412538
0.0412678
0.041281
0.0412939
0.0413063
0.0413188
0.0413313
0.0413441
0.0413566
0.0413685
0.0413793
0.0413887
0.0413965
0.0414029
0.0414081
0.0414123
0.0414159
0.0414191
0.0414221
0.0414251
0.0414281
0.0414313
0.0414347
0.0414384
0.0414424
0.0420527
0.0419668
0.0418521
0.0417221
0.0415858
0.0414666
0.0413703
0.0412935
0.0412627
0.0412619
0.041248
0.0412285
0.0412239
0.0412278
0.041236
0.0412473
0.0412614
0.0412755
0.0412889
0.0413016
0.0413133
0.0413251
0.0413371
0.0413497
0.0413625
0.0413751
0.041387
0.0413975
0.0414064
0.0414137
0.0414195
0.041424
0.0414278
0.0414309
0.0414338
0.0414366
0.0414394
0.0414424
0.0414456
0.041449
0.0414528
0.0414569
0.0420162
0.0419212
0.0418002
0.0416689
0.0415387
0.0414326
0.041344
0.0412855
0.041275
0.0412709
0.0412528
0.0412387
0.0412387
0.0412444
0.0412542
0.0412679
0.0412829
0.0412976
0.0413108
0.0413228
0.0413338
0.041345
0.0413566
0.041369
0.0413817
0.0413942
0.0414058
0.0414161
0.0414246
0.0414314
0.0414368
0.0414409
0.0414442
0.041447
0.0414496
0.0414521
0.0414546
0.0414574
0.0414605
0.0414638
0.0414675
0.0414716
0.0419745
0.0418695
0.0417439
0.0416146
0.0414955
0.0413968
0.0413261
0.0412991
0.0412815
0.0412607
0.0412563
0.0412576
0.0412637
0.0412704
0.0412779
0.0412874
0.0412997
0.0413128
0.0413282
0.0413434
0.0413587
0.041373
0.0413862
0.0413979
0.0414081
0.0414168
0.0414241
0.0414304
0.041436
0.0414411
0.0414459
0.0414506
0.0414552
0.0414598
0.0414645
0.0414691
0.0414738
0.0414784
0.041483
0.0414875
0.0414919
0.0414963
0.0419287
0.0418134
0.0416868
0.0415626
0.0414545
0.0413652
0.041321
0.0413081
0.0412844
0.0412667
0.0412677
0.0412725
0.041282
0.0412908
0.0413005
0.0413108
0.0413227
0.0413356
0.0413501
0.0413653
0.0413809
0.0413958
0.0414097
0.0414217
0.0414316
0.0414393
0.0414453
0.0414501
0.0414543
0.041458
0.0414617
0.0414655
0.0414696
0.0414739
0.0414785
0.0414834
0.0414884
0.0414936
0.0414987
0.0415038
0.0415088
0.0415138
0.0418807
0.0417596
0.0416353
0.0415183
0.0414175
0.0413524
0.0413287
0.0413027
0.0412806
0.0412815
0.0412865
0.0412947
0.0413016
0.0413085
0.0413168
0.0413289
0.0413423
0.0413588
0.0413756
0.0413927
0.0414085
0.0414224
0.0414339
0.0414428
0.0414496
0.0414549
0.0414593
0.0414633
0.0414673
0.0414715
0.041476
0.0414809
0.0414861
0.0414916
0.0414973
0.041503
0.0415087
0.0415142
0.0415194
0.0415243
0.041529
0.0415333
0.0418367
0.0417151
0.0415934
0.0414822
0.0414028
0.0413558
0.0413149
0.0412974
0.0413047
0.041308
0.0413081
0.0413068
0.0413106
0.0413186
0.0413328
0.0413519
0.041372
0.0413917
0.0414085
0.0414221
0.0414324
0.0414404
0.041447
0.0414531
0.0414591
0.0414654
0.041472
0.0414789
0.0414859
0.041493
0.0414998
0.0415063
0.0415123
0.0415177
0.0415226
0.0415269
0.0415308
0.0415341
0.041537
0.0415396
0.041542
0.0415442
0.0418029
0.041683
0.0415635
0.0414669
0.0413985
0.0413434
0.0413219
0.0413266
0.0413251
0.0413164
0.0413158
0.041317
0.0413263
0.0413418
0.0413617
0.0413826
0.0414016
0.0414167
0.0414284
0.0414374
0.0414453
0.0414528
0.0414605
0.0414688
0.0414775
0.0414863
0.0414949
0.041503
0.0415102
0.0415166
0.0415219
0.0415264
0.0415301
0.0415333
0.041536
0.0415384
0.0415406
0.0415426
0.0415446
0.0415466
0.0415487
0.0415509
0.0417794
0.0416609
0.041548
0.0414596
0.0413885
0.0413491
0.0413473
0.041343
0.0413305
0.0413242
0.0413282
0.0413353
0.0413493
0.0413678
0.0413873
0.0414049
0.0414199
0.0414315
0.0414416
0.0414508
0.0414602
0.0414699
0.04148
0.04149
0.0414996
0.0415084
0.0415159
0.0415221
0.0415272
0.0415312
0.0415345
0.0415373
0.0415398
0.0415421
0.0415444
0.0415468
0.0415492
0.0415518
0.0415545
0.0415574
0.0415604
0.0415636
0.0417672
0.0416514
0.0415448
0.0414594
0.0413938
0.0413691
0.0413684
0.0413557
0.0413419
0.0413426
0.0413487
0.0413586
0.0413744
0.0413925
0.04141
0.0414249
0.0414379
0.0414487
0.0414592
0.0414694
0.0414802
0.041491
0.0415018
0.0415117
0.0415205
0.0415279
0.0415337
0.0415382
0.0415418
0.0415447
0.0415471
0.0415495
0.0415518
0.0415542
0.0415569
0.0415597
0.0415628
0.0415661
0.0415695
0.041573
0.0415766
0.0415804
0.0417606
0.0416492
0.0415486
0.041466
0.0414069
0.0413897
0.0413853
0.0413694
0.0413587
0.0413611
0.0413689
0.0413799
0.0413959
0.041413
0.0414291
0.0414429
0.0414553
0.0414661
0.041477
0.0414877
0.0414989
0.0415098
0.0415202
0.0415294
0.0415373
0.0415435
0.0415484
0.0415521
0.0415551
0.0415577
0.04156
0.0415624
0.0415649
0.0415676
0.0415705
0.0415737
0.0415771
0.0415806
0.0415843
0.041588
0.0415918
0.0415957
0.041761
0.0416534
0.0415574
0.0414778
0.0414229
0.0414083
0.0414023
0.0413862
0.0413773
0.0413803
0.0413885
0.0414003
0.0414162
0.0414329
0.0414484
0.0414618
0.0414738
0.0414846
0.0414953
0.041506
0.0415168
0.0415273
0.0415372
0.0415458
0.0415531
0.0415588
0.0415633
0.0415668
0.0415696
0.0415721
0.0415744
0.0415768
0.0415793
0.0415821
0.0415851
0.0415883
0.0415917
0.0415953
0.0415989
0.0416025
0.0416062
0.04161
0.0417636
0.0416593
0.0415674
0.0414908
0.041439
0.0414263
0.0414204
0.0414049
0.0413961
0.0413994
0.0414074
0.04142
0.0414362
0.041453
0.0414683
0.0414815
0.0414927
0.0415029
0.041513
0.0415231
0.0415335
0.0415436
0.0415532
0.0415616
0.0415686
0.0415742
0.0415785
0.0415818
0.0415845
0.0415868
0.041589
0.0415912
0.0415936
0.0415962
0.0415991
0.0416021
0.0416054
0.0416088
0.0416123
0.0416158
0.0416194
0.0416231
0.0417606
0.0416604
0.0415735
0.041499
0.0414555
0.0414473
0.0414359
0.0414193
0.0414155
0.0414198
0.0414292
0.0414426
0.041458
0.0414736
0.0414873
0.0414995
0.0415103
0.0415208
0.0415313
0.041542
0.0415527
0.0415628
0.0415717
0.0415791
0.041585
0.0415894
0.0415927
0.0415954
0.0415976
0.0415998
0.041602
0.0416043
0.041607
0.0416099
0.0416131
0.0416165
0.0416201
0.0416238
0.0416275
0.0416312
0.041635
0.0416387
0.0417516
0.0416568
0.0415724
0.0415072
0.0414785
0.0414616
0.0414413
0.0414358
0.0414402
0.041447
0.0414559
0.0414664
0.0414777
0.0414907
0.0415035
0.0415173
0.0415305
0.0415436
0.0415556
0.0415666
0.0415758
0.0415832
0.041589
0.0415934
0.041597
0.0416001
0.041603
0.0416059
0.041609
0.0416124
0.0416161
0.0416199
0.041624
0.0416282
0.0416323
0.0416364
0.0416404
0.0416442
0.0416477
0.0416509
0.0416539
0.0416567
0.0417382
0.0416468
0.0415691
0.0415202
0.0414916
0.0414652
0.041458
0.0414631
0.041468
0.0414715
0.0414768
0.0414844
0.0414945
0.0415096
0.0415254
0.041542
0.041557
0.0415702
0.0415806
0.0415884
0.0415939
0.041598
0.0416013
0.0416045
0.0416079
0.0416118
0.0416161
0.0416208
0.0416258
0.0416309
0.0416361
0.0416411
0.0416458
0.0416502
0.0416542
0.0416576
0.0416606
0.0416632
0.0416654
0.0416672
0.0416688
0.0416702
0.0417192
0.0416328
0.0415695
0.0415284
0.0414939
0.0414825
0.0414881
0.0414888
0.0414875
0.041488
0.0414925
0.0415028
0.0415186
0.0415368
0.041555
0.0415708
0.0415832
0.0415921
0.041598
0.0416024
0.0416061
0.0416099
0.0416142
0.0416193
0.0416248
0.0416308
0.041637
0.0416431
0.0416488
0.0416541
0.0416587
0.0416626
0.0416658
0.0416685
0.0416706
0.0416724
0.0416738
0.041675
0.0416761
0.0416771
0.041678
0.041679
0.0417016
0.0416236
0.0415671
0.041532
0.0415166
0.0415023
0.041501
0.0415015
0.0415055
0.0415105
0.0415211
0.0415331
0.041548
0.0415624
0.0415765
0.0415886
0.0415992
0.0416079
0.0416155
0.0416221
0.0416281
0.0416336
0.0416387
0.0416436
0.0416481
0.0416524
0.0416565
0.0416603
0.0416639
0.0416674
0.0416706
0.0416736
0.0416765
0.0416792
0.0416818
0.0416842
0.0416865
0.0416887
0.0416908
0.0416929
0.0416949
0.0416969
0.0416857
0.0416188
0.0415721
0.0415375
0.0415306
0.04153
0.0415252
0.0415208
0.0415243
0.0415304
0.041543
0.0415581
0.041575
0.0415903
0.0416035
0.0416137
0.0416221
0.0416289
0.0416352
0.041641
0.0416467
0.0416523
0.0416579
0.0416631
0.0416681
0.0416727
0.0416769
0.0416807
0.0416842
0.0416874
0.0416903
0.041693
0.0416955
0.0416979
0.0417002
0.0417024
0.0417045
0.0417065
0.0417084
0.0417104
0.0417122
0.0417141
0.0416785
0.0416203
0.0415764
0.041557
0.0415543
0.0415495
0.0415431
0.0415422
0.0415469
0.0415575
0.0415709
0.041588
0.0416035
0.0416172
0.0416281
0.0416367
0.0416441
0.0416507
0.0416572
0.0416635
0.0416698
0.0416758
0.0416816
0.0416868
0.0416915
0.0416957
0.0416993
0.0417025
0.0417054
0.041708
0.0417105
0.0417128
0.0417151
0.0417173
0.0417194
0.0417216
0.0417237
0.0417257
0.0417278
0.0417298
0.0417317
0.0417338
0.0416763
0.0416257
0.041593
0.0415826
0.0415725
0.0415682
0.0415671
0.0415711
0.0415768
0.0415892
0.041602
0.0416171
0.0416307
0.041643
0.0416534
0.0416626
0.0416707
0.0416782
0.0416852
0.0416916
0.0416976
0.0417028
0.0417075
0.0417116
0.0417152
0.0417184
0.0417215
0.0417243
0.0417271
0.0417298
0.0417326
0.0417353
0.041738
0.0417406
0.0417432
0.0417457
0.041748
0.0417503
0.0417525
0.0417546
0.0417565
0.0417585
0.0416793
0.04164
0.0416173
0.041603
0.0415961
0.0415972
0.0415976
0.0416035
0.0416098
0.0416208
0.0416333
0.041648
0.0416617
0.0416748
0.0416857
0.0416953
0.0417032
0.0417101
0.041716
0.0417211
0.0417257
0.0417299
0.0417338
0.0417376
0.0417411
0.0417446
0.041748
0.0417514
0.0417546
0.0417578
0.0417609
0.0417639
0.0417667
0.0417694
0.041772
0.0417743
0.0417765
0.0417785
0.0417804
0.0417821
0.0417837
0.0417853
0.0416899
0.041661
0.041642
0.0416288
0.0416288
0.0416292
0.0416342
0.0416385
0.0416466
0.0416573
0.0416701
0.0416846
0.0416984
0.0417113
0.0417222
0.0417315
0.0417388
0.0417447
0.0417494
0.0417535
0.0417571
0.0417607
0.0417643
0.0417679
0.0417716
0.0417754
0.0417791
0.0417828
0.0417864
0.0417898
0.041793
0.041796
0.0417987
0.0418012
0.0418034
0.0418055
0.0418073
0.0418089
0.0418104
0.0418117
0.041813
0.0418142
0.041708
0.0416851
0.0416702
0.0416638
0.0416652
0.0416652
0.0416712
0.0416771
0.0416873
0.0416996
0.0417139
0.0417277
0.0417409
0.0417521
0.0417617
0.0417694
0.0417757
0.0417808
0.0417851
0.0417889
0.0417925
0.041796
0.0417996
0.0418032
0.0418069
0.0418105
0.0418141
0.0418176
0.0418208
0.041824
0.0418268
0.0418295
0.0418318
0.041834
0.0418359
0.0418377
0.0418392
0.0418406
0.0418419
0.041843
0.0418441
0.0418452
0.0417292
0.0417136
0.0417043
0.0417039
0.0417032
0.0417076
0.0417127
0.0417219
0.041734
0.0417479
0.0417619
0.0417749
0.0417862
0.0417956
0.0418032
0.0418094
0.0418145
0.0418189
0.0418229
0.0418266
0.0418302
0.0418338
0.0418373
0.0418408
0.0418443
0.0418476
0.0418507
0.0418537
0.0418565
0.041859
0.0418614
0.0418635
0.0418655
0.0418672
0.0418688
0.0418703
0.0418716
0.0418729
0.041874
0.041875
0.0418761
0.0418771
0.0417565
0.0417466
0.0417443
0.0417442
0.0417457
0.0417511
0.0417592
0.0417716
0.041785
0.041799
0.0418115
0.0418224
0.0418314
0.0418388
0.0418448
0.0418499
0.0418542
0.0418581
0.0418617
0.0418651
0.0418685
0.0418717
0.0418749
0.0418779
0.0418808
0.0418835
0.0418861
0.0418886
0.0418908
0.0418929
0.0418949
0.0418966
0.0418982
0.0418997
0.0419011
0.0419023
0.0419035
0.0419046
0.0419055
0.0419065
0.0419074
0.0419083
0.0417882
0.0417846
0.0417838
0.041783
0.0417895
0.0417976
0.0418106
0.0418238
0.0418375
0.0418492
0.0418594
0.0418675
0.0418742
0.0418797
0.0418844
0.0418885
0.0418923
0.0418957
0.0418988
0.0419018
0.0419046
0.0419073
0.0419098
0.0419122
0.0419144
0.0419165
0.0419185
0.0419203
0.0419221
0.0419237
0.0419252
0.0419265
0.0419278
0.041929
0.0419301
0.0419311
0.041932
0.0419329
0.0419337
0.0419345
0.0419352
0.041936
0.0418197
0.0418189
0.0418183
0.0418246
0.0418332
0.041846
0.0418594
0.0418729
0.0418843
0.0418939
0.0419014
0.0419073
0.0419121
0.0419162
0.0419197
0.0419229
0.0419259
0.0419286
0.0419312
0.0419335
0.0419357
0.0419377
0.0419396
0.0419413
0.0419429
0.0419444
0.0419458
0.0419471
0.0419483
0.0419494
0.0419504
0.0419514
0.0419523
0.0419531
0.0419539
0.0419546
0.0419552
0.0419559
0.0419564
0.041957
0.0419575
0.041958
0.0418449
0.0418467
0.0418499
0.0418598
0.041871
0.0418853
0.0418982
0.0419102
0.0419194
0.0419269
0.0419324
0.0419368
0.0419403
0.0419433
0.041946
0.0419484
0.0419506
0.0419527
0.0419546
0.0419563
0.0419578
0.0419592
0.0419605
0.0419616
0.0419627
0.0419636
0.0419645
0.0419653
0.041966
0.0419667
0.0419673
0.0419679
0.0419684
0.0419689
0.0419694
0.0419698
0.0419702
0.0419706
0.0419709
0.0419712
0.0419715
0.0419718
0.041865
0.0418682
0.0418736
0.0418856
0.0418981
0.0419122
0.0419242
0.0419347
0.0419425
0.0419486
0.0419531
0.0419567
0.0419596
0.0419621
0.0419643
0.0419663
0.0419681
0.0419697
0.0419711
0.0419723
0.0419734
0.0419744
0.0419752
0.041976
0.0419766
0.0419773
0.0419778
0.0419783
0.0419788
0.0419792
0.0419796
0.04198
0.0419803
0.0419806
0.0419809
0.0419812
0.0419814
0.0419817
0.0419819
0.0419821
0.0419823
0.0419824
0.0418786
0.0418827
0.0418896
0.0419013
0.0419139
0.0419272
0.0419386
0.0419481
0.0419553
0.0419609
0.041965
0.0419682
0.0419707
0.0419728
0.0419745
0.041976
0.0419773
0.0419785
0.0419794
0.0419803
0.041981
0.0419816
0.0419821
0.0419825
0.0419829
0.0419832
0.0419835
0.0419837
0.0419839
0.0419841
0.0419843
0.0419844
0.0419846
0.0419847
0.0419848
0.0419849
0.041985
0.0419851
0.0419852
0.0419853
0.0419853
0.0419854
0.041886
0.0418899
0.041897
0.041908
0.0419201
0.0419325
0.0419435
0.0419524
0.0419596
0.041965
0.0419691
0.0419723
0.0419747
0.0419767
0.0419784
0.0419798
0.041981
0.0419821
0.0419829
0.0419837
0.0419843
0.0419848
0.0419853
0.0419856
0.041986
0.0419862
0.0419864
0.0419866
0.0419868
0.0419869
0.0419871
0.0419872
0.0419873
0.0419873
0.0419874
0.0419874
0.0419875
0.0419875
0.0419876
0.0419876
0.0419876
0.0419877
0.0418908
0.0418944
0.0419016
0.0419113
0.0419236
0.0419353
0.0419463
0.0419551
0.0419622
0.0419675
0.0419716
0.0419747
0.0419771
0.041979
0.0419806
0.041982
0.0419831
0.041984
0.0419848
0.0419855
0.041986
0.0419864
0.0419868
0.041987
0.0419873
0.0419875
0.0419876
0.0419877
0.0419878
0.0419879
0.041988
0.041988
0.0419881
0.0419881
0.0419882
0.0419882
0.0419882
0.0419882
0.0419882
0.0419882
0.0419882
0.0419882
0.0418943
0.0418977
0.0419047
0.0419139
0.041926
0.0419374
0.0419481
0.0419566
0.0419635
0.0419687
0.0419726
0.0419756
0.041978
0.0419799
0.0419814
0.0419828
0.0419839
0.0419848
0.0419855
0.0419862
0.0419867
0.0419871
0.0419874
0.0419877
0.0419879
0.0419881
0.0419882
0.0419883
0.0419884
0.0419885
0.0419886
0.0419886
0.0419887
0.0419887
0.0419887
0.0419887
0.0419888
0.0419888
0.0419888
0.0419888
0.0419888
0.0419888
0.0418978
0.0419012
0.041908
0.0419171
0.0419288
0.0419399
0.0419503
0.0419586
0.0419653
0.0419702
0.041974
0.0419769
0.0419792
0.0419811
0.0419826
0.0419839
0.0419849
0.0419858
0.0419865
0.041987
0.0419875
0.0419879
0.0419882
0.0419884
0.0419886
0.0419887
0.0419888
0.0419889
0.041989
0.041989
0.0419891
0.0419891
0.0419891
0.0419891
0.0419891
0.0419891
0.0419891
0.0419891
0.0419891
0.0419891
0.0419891
0.0419891
0.0419012
0.0419047
0.0419115
0.0419204
0.0419318
0.0419425
0.0419524
0.0419604
0.0419668
0.0419716
0.0419752
0.041978
0.0419801
0.0419819
0.0419833
0.0419844
0.0419854
0.0419862
0.0419869
0.0419874
0.0419879
0.0419882
0.0419885
0.0419887
0.0419889
0.041989
0.0419891
0.0419892
0.0419892
0.0419893
0.0419893
0.0419893
0.0419894
0.0419894
0.0419894
0.0419894
0.0419894
0.0419894
0.0419893
0.0419893
0.0419893
0.0419893
0.0419058
0.0419096
0.0419165
0.0419253
0.0419362
0.0419465
0.0419558
0.0419632
0.0419692
0.0419737
0.0419771
0.0419798
0.0419818
0.0419835
0.0419849
0.041986
0.0419869
0.0419876
0.0419882
0.0419886
0.041989
0.0419893
0.0419895
0.0419896
0.0419898
0.0419899
0.0419899
0.04199
0.04199
0.0419901
0.0419901
0.0419901
0.0419901
0.0419901
0.0419901
0.0419901
0.04199
0.04199
0.04199
0.04199
0.04199
0.04199
0.0419116
0.0419157
0.0419228
0.0419315
0.0419418
0.0419514
0.0419599
0.0419666
0.041972
0.041976
0.0419791
0.0419816
0.0419835
0.0419851
0.0419864
0.0419874
0.0419883
0.041989
0.0419895
0.0419899
0.0419903
0.0419905
0.0419907
0.0419909
0.041991
0.0419911
0.0419911
0.0419912
0.0419912
0.0419912
0.0419912
0.0419912
0.0419912
0.0419912
0.0419912
0.0419912
0.0419912
0.0419912
0.0419911
0.0419911
0.0419911
0.0419911
0.0419184
0.0419229
0.0419304
0.0419389
0.0419487
0.0419574
0.041965
0.041971
0.0419757
0.0419793
0.041982
0.0419842
0.0419859
0.0419873
0.0419884
0.0419893
0.04199
0.0419906
0.0419911
0.0419914
0.0419917
0.0419918
0.041992
0.0419921
0.0419922
0.0419922
0.0419923
0.0419923
0.0419923
0.0419923
0.0419923
0.0419923
0.0419923
0.0419922
0.0419922
0.0419922
0.0419921
0.0419921
0.0419921
0.041992
0.041992
0.041992
0.0419265
0.0419314
0.0419388
0.0419469
0.0419557
0.0419634
0.0419699
0.0419749
0.0419789
0.0419818
0.0419841
0.0419859
0.0419873
0.0419885
0.0419894
0.0419902
0.0419907
0.0419912
0.0419916
0.0419919
0.0419921
0.0419922
0.0419923
0.0419924
0.0419925
0.0419925
0.0419925
0.0419925
0.0419925
0.0419925
0.0419925
0.0419925
0.0419925
0.0419925
0.0419924
0.0419924
0.0419924
0.0419923
0.0419923
0.0419922
0.0419922
0.0419922
0.0419346
0.0419396
0.0419465
0.0419543
0.0419616
0.0419684
0.0419737
0.041978
0.0419813
0.0419838
0.0419857
0.0419871
0.0419883
0.0419893
0.0419901
0.0419907
0.0419912
0.0419916
0.041992
0.0419922
0.0419924
0.0419925
0.0419926
0.0419926
0.0419927
0.0419927
0.0419927
0.0419927
0.0419927
0.0419926
0.0419926
0.0419926
0.0419925
0.0419925
0.0419925
0.0419924
0.0419924
0.0419924
0.0419923
0.0419923
0.0419923
0.0419922
0.0419432
0.0419482
0.0419546
0.0419614
0.0419677
0.0419733
0.0419776
0.041981
0.0419835
0.0419854
0.041987
0.0419882
0.0419893
0.0419901
0.0419908
0.0419913
0.0419918
0.0419921
0.0419924
0.0419926
0.0419927
0.0419928
0.0419928
0.0419929
0.0419929
0.0419929
0.0419929
0.0419929
0.0419928
0.0419928
0.0419928
0.0419927
0.0419927
0.0419926
0.0419926
0.0419926
0.0419925
0.0419925
0.0419924
0.0419924
0.0419924
0.0419923
0.0419489
0.0419535
0.0419592
0.0419653
0.0419709
0.0419756
0.0419793
0.0419822
0.0419846
0.0419865
0.0419879
0.0419892
0.0419902
0.041991
0.0419917
0.0419922
0.0419927
0.041993
0.0419932
0.0419934
0.0419935
0.0419936
0.0419937
0.0419937
0.0419937
0.0419937
0.0419937
0.0419936
0.0419936
0.0419935
0.0419935
0.0419934
0.0419933
0.0419933
0.0419932
0.0419932
0.0419931
0.041993
0.041993
0.0419929
0.0419929
0.0419928
0.0419557
0.0419595
0.0419642
0.0419693
0.0419741
0.0419782
0.0419815
0.0419839
0.0419858
0.0419871
0.0419881
0.0419889
0.0419895
0.0419899
0.0419903
0.0419905
0.0419907
0.0419908
0.0419908
0.0419909
0.0419909
0.0419908
0.0419908
0.0419907
0.0419907
0.0419906
0.0419906
0.0419905
0.0419904
0.0419904
0.0419903
0.0419902
0.0419902
0.0419901
0.0419901
0.04199
0.04199
0.0419899
0.0419899
0.0419898
0.0419898
0.0419898
0.0419601
0.0419629
0.0419668
0.041971
0.0419751
0.0419786
0.0419816
0.041984
0.0419858
0.0419873
0.0419885
0.0419894
0.0419902
0.0419909
0.0419914
0.0419918
0.0419921
0.0419924
0.0419926
0.0419927
0.0419927
0.0419927
0.0419927
0.0419927
0.0419926
0.0419926
0.0419925
0.0419924
0.0419923
0.0419922
0.0419921
0.041992
0.0419919
0.0419918
0.0419917
0.0419916
0.0419915
0.0419914
0.0419913
0.0419912
0.0419911
0.041991
0.0419633