/*--------------------------------*- C++ -*----------------------------------*\
| =========                 |                                                 |
| \\      /  F ield         | OpenFOAM: The Open Source CFD Toolbox           |
|  \\    /   O peration     | Version:  2412                                  |
|   \\  /    A nd           | Website:  www.openfoam.com                      |
|    \\/     M anipulation  |                                                 |
\*---------------------------------------------------------------------------*/
FoamFile
{
    version     2.0;
    format      ascii;
    arch        "LSB;label=32;scalar=64";
    class       volVectorField;
    location    "0.064";
    object      U;
}
// * * * * * * * * * * * * * * * * * * * * * * * * * * * * * * * * * * * * * //

dimensions      [0 1 -1 0 0 0 0];

internalField   nonuniform List<vector> 
9922
(
(168.72 99.8892 0)
(164.142 11.9271 0)
(176.86 2.92606 0)
(187.618 2.98695 0)
(194.866 -0.251136 0)
(198.241 -2.02933 0)
(198.91 -3.7221 0)
(199.577 -4.80856 0)
(200.057 -5.6858 0)
(200.688 -6.36972 0)
(201.391 -6.97913 0)
(202.097 -7.61758 0)
(202.751 -8.33595 0)
(203.489 -9.06445 0)
(204.222 -9.84164 0)
(204.991 -10.6112 0)
(205.797 -11.3545 0)
(206.652 -12.0502 0)
(207.566 -12.6848 0)
(208.548 -13.2511 0)
(209.6 -13.7505 0)
(210.717 -14.1872 0)
(211.888 -14.5691 0)
(213.096 -14.907 0)
(214.326 -15.2158 0)
(215.565 -15.5065 0)
(216.807 -15.7865 0)
(218.054 -16.0614 0)
(219.31 -16.3369 0)
(220.579 -16.6171 0)
(221.87 -16.9067 0)
(223.189 -17.2101 0)
(224.547 -17.5314 0)
(225.951 -17.8735 0)
(227.413 -18.2402 0)
(228.942 -18.6353 0)
(230.547 -19.0623 0)
(232.233 -19.5248 0)
(234.008 -20.0262 0)
(235.881 -20.572 0)
(237.862 -21.169 0)
(239.963 -21.8257 0)
(242.198 -22.5509 0)
(244.583 -23.3527 0)
(247.14 -24.2384 0)
(249.898 -25.2166 0)
(252.903 -26.2966 0)
(256.205 -27.4925 0)
(259.897 -28.8237 0)
(264.322 -30.2546 0)
(270.492 -31.5085 0)
(279.557 -32.1157 0)
(289.791 -31.8811 0)
(298.949 -31.325 0)
(306.156 -31.0114 0)
(311.868 -31.1788 0)
(316.832 -31.722 0)
(321.352 -32.4844 0)
(325.692 -33.4168 0)
(329.874 -34.5052 0)
(333.75 -35.6441 0)
(337.584 -36.9193 0)
(341.16 -38.184 0)
(344.426 -39.3682 0)
(347.487 -40.522 0)
(350.334 -41.583 0)
(352.902 -42.543 0)
(355.232 -43.4045 0)
(357.362 -44.1487 0)
(359.35 -44.775 0)
(361.205 -45.3254 0)
(362.921 -45.7795 0)
(364.498 -46.2282 0)
(365.943 -46.523 0)
(367.28 -46.8676 0)
(368.535 -47.0125 0)
(369.716 -47.3 0)
(370.84 -47.3891 0)
(371.887 -47.6427 0)
(372.898 -47.6851 0)
(373.839 -47.9077 0)
(374.76 -47.9313 0)
(375.617 -48.1318 0)
(376.457 -48.1367 0)
(377.232 -48.3085 0)
(377.997 -48.3058 0)
(378.708 -48.4627 0)
(379.412 -48.4585 0)
(380.066 -48.5992 0)
(380.715 -48.5941 0)
(381.321 -48.7207 0)
(381.929 -48.715 0)
(382.499 -48.8252 0)
(383.069 -48.8205 0)
(383.598 -48.9253 0)
(384.119 -48.9326 0)
(384.598 -49.0355 0)
(385.065 -49.0368 0)
(385.49 -49.1182 0)
(385.899 -49.1123 0)
(386.268 -49.1871 0)
(386.627 -49.1864 0)
(386.962 -49.2591 0)
(387.299 -49.2665 0)
(387.629 -49.3327 0)
(387.964 -49.3462 0)
(388.282 -49.4017 0)
(388.572 -49.4205 0)
(388.809 -49.4604 0)
(388.981 -49.4783 0)
(389.071 -49.4903 0)
(389.071 -49.502 0)
(389.003 -49.473 0)
(388.914 -49.5014 0)
(388.907 -49.4783 0)
(389.059 -49.5123 0)
(389.435 -49.5368 0)
(390.006 -49.615 0)
(390.692 -49.6973 0)
(391.393 -49.8007 0)
(391.775 -49.5369 0)
(168.515 99.8719 0)
(164.23 11.7112 0)
(176.969 2.83383 0)
(187.72 2.95794 0)
(194.971 -0.265221 0)
(198.325 -2.03391 0)
(198.981 -3.71248 0)
(199.635 -4.79578 0)
(200.107 -5.6705 0)
(200.73 -6.35215 0)
(201.426 -6.9589 0)
(202.125 -7.59447 0)
(202.772 -8.31075 0)
(203.504 -9.03717 0)
(204.234 -9.8116 0)
(205 -10.5786 0)
(205.805 -11.319 0)
(206.66 -12.0113 0)
(207.575 -12.6421 0)
(208.559 -13.2043 0)
(209.614 -13.6995 0)
(210.734 -14.1321 0)
(211.908 -14.5103 0)
(213.12 -14.845 0)
(214.353 -15.1513 0)
(215.596 -15.4397 0)
(216.843 -15.7175 0)
(218.095 -15.9898 0)
(219.356 -16.262 0)
(220.631 -16.5385 0)
(221.928 -16.8236 0)
(223.256 -17.1217 0)
(224.622 -17.4367 0)
(226.037 -17.7716 0)
(227.511 -18.13 0)
(229.054 -18.5156 0)
(230.675 -18.9318 0)
(232.382 -19.3827 0)
(234.184 -19.8711 0)
(236.088 -20.4026 0)
(238.106 -20.9835 0)
(240.253 -21.6219 0)
(242.544 -22.3267 0)
(244.998 -23.1052 0)
(247.641 -23.9643 0)
(250.513 -24.9112 0)
(253.663 -25.9546 0)
(257.156 -27.1079 0)
(261.152 -28.3752 0)
(266.143 -29.66 0)
(273.162 -30.6106 0)
(282.239 -30.8527 0)
(291.562 -30.4967 0)
(299.63 -30.0339 0)
(306.174 -29.8593 0)
(311.571 -30.1137 0)
(316.351 -30.6601 0)
(320.879 -31.4194 0)
(325.153 -32.3427 0)
(329.232 -33.3877 0)
(333.228 -34.5653 0)
(336.921 -35.7784 0)
(340.466 -37.0339 0)
(343.933 -38.3552 0)
(347.113 -39.6045 0)
(350.003 -40.7325 0)
(352.636 -41.7243 0)
(355.033 -42.5869 0)
(357.213 -43.3418 0)
(359.185 -43.9939 0)
(360.996 -44.57 0)
(362.689 -45.0322 0)
(364.279 -45.4678 0)
(365.756 -45.7709 0)
(367.102 -46.1497 0)
(368.35 -46.3315 0)
(369.548 -46.6418 0)
(370.69 -46.7337 0)
(371.755 -46.9998 0)
(372.777 -47.0477 0)
(373.726 -47.2849 0)
(374.649 -47.309 0)
(375.509 -47.5161 0)
(376.353 -47.5194 0)
(377.135 -47.6965 0)
(377.906 -47.689 0)
(378.619 -47.8458 0)
(379.321 -47.8364 0)
(379.969 -47.9774 0)
(380.612 -47.965 0)
(381.208 -48.0866 0)
(381.808 -48.0706 0)
(382.368 -48.175 0)
(382.933 -48.1593 0)
(383.462 -48.2552 0)
(383.994 -48.2483 0)
(384.493 -48.3377 0)
(384.988 -48.326 0)
(385.442 -48.4028 0)
(385.882 -48.3972 0)
(386.28 -48.4789 0)
(386.666 -48.4858 0)
(387.028 -48.5675 0)
(387.394 -48.5798 0)
(387.751 -48.651 0)
(388.111 -48.6677 0)
(388.445 -48.7297 0)
(388.748 -48.753 0)
(388.993 -48.7996 0)
(389.174 -48.8185 0)
(389.271 -48.833 0)
(389.275 -48.8417 0)
(389.207 -48.8082 0)
(389.115 -48.834 0)
(389.103 -48.7944 0)
(389.245 -48.8194 0)
(389.613 -48.829 0)
(390.179 -48.8997 0)
(390.865 -48.9674 0)
(391.565 -49.0651 0)
(391.948 -48.7974 0)
(168.306 99.8513 0)
(164.319 11.4916 0)
(177.079 2.73966 0)
(187.824 2.9271 0)
(195.078 -0.280662 0)
(198.41 -2.0394 0)
(199.054 -3.70563 0)
(199.695 -4.78466 0)
(200.158 -5.65645 0)
(200.773 -6.33567 0)
(201.462 -6.93966 0)
(202.155 -7.57226 0)
(202.795 -8.28635 0)
(203.521 -9.01064 0)
(204.248 -9.78218 0)
(205.012 -10.5464 0)
(205.815 -11.2836 0)
(206.67 -11.9725 0)
(207.586 -12.5994 0)
(208.572 -13.1574 0)
(209.629 -13.6482 0)
(210.753 -14.0767 0)
(211.93 -14.4512 0)
(213.147 -14.783 0)
(214.385 -15.0869 0)
(215.632 -15.3733 0)
(216.884 -15.6491 0)
(218.141 -15.919 0)
(219.408 -16.1882 0)
(220.689 -16.4611 0)
(221.994 -16.7419 0)
(223.33 -17.0351 0)
(224.706 -17.3441 0)
(226.132 -17.672 0)
(227.619 -18.0223 0)
(229.177 -18.3987 0)
(230.817 -18.8046 0)
(232.546 -19.2441 0)
(234.375 -19.72 0)
(236.312 -20.2375 0)
(238.37 -20.8028 0)
(240.565 -21.4234 0)
(242.914 -22.1079 0)
(245.441 -22.8631 0)
(248.176 -23.6949 0)
(251.165 -24.6092 0)
(254.463 -25.6138 0)
(258.16 -26.7176 0)
(262.488 -27.8962 0)
(268.032 -28.9819 0)
(275.546 -29.6199 0)
(284.281 -29.6072 0)
(292.755 -29.2111 0)
(300.016 -28.8372 0)
(306.039 -28.7624 0)
(311.213 -29.0744 0)
(315.954 -29.6614 0)
(320.373 -30.4034 0)
(324.655 -31.3194 0)
(328.779 -32.3704 0)
(332.652 -33.4774 0)
(336.461 -34.7119 0)
(340.05 -35.9929 0)
(343.322 -37.2192 0)
(346.468 -38.4572 0)
(349.487 -39.673 0)
(352.263 -40.7992 0)
(354.773 -41.794 0)
(357.035 -42.6272 0)
(359.079 -43.31 0)
(360.928 -43.8715 0)
(362.615 -44.3291 0)
(364.168 -44.7723 0)
(365.629 -45.0782 0)
(367.05 -45.4633 0)
(368.384 -45.6858 0)
(369.6 -46.0224 0)
(370.749 -46.1238 0)
(371.832 -46.4064 0)
(372.875 -46.4646 0)
(373.841 -46.7162 0)
(374.777 -46.74 0)
(375.646 -46.9514 0)
(376.499 -46.9501 0)
(377.29 -47.1285 0)
(378.07 -47.1169 0)
(378.789 -47.2763 0)
(379.498 -47.2625 0)
(380.151 -47.3992 0)
(380.798 -47.3771 0)
(381.393 -47.4942 0)
(381.985 -47.4718 0)
(382.532 -47.5718 0)
(383.079 -47.5454 0)
(383.583 -47.6324 0)
(384.084 -47.6128 0)
(384.546 -47.6916 0)
(385.003 -47.6691 0)
(385.422 -47.7416 0)
(385.833 -47.7331 0)
(386.208 -47.8146 0)
(386.578 -47.8168 0)
(386.927 -47.8916 0)
(387.284 -47.8908 0)
(387.631 -47.9503 0)
(387.983 -47.9565 0)
(388.309 -48.0153 0)
(388.606 -48.0344 0)
(388.846 -48.0794 0)
(389.023 -48.0895 0)
(389.116 -48.0976 0)
(389.117 -48.0939 0)
(389.047 -48.0543 0)
(388.956 -48.0655 0)
(388.95 -48.0185 0)
(389.104 -48.0367 0)
(389.496 -48.0447 0)
(390.088 -48.1131 0)
(390.784 -48.1749 0)
(391.481 -48.271 0)
(391.862 -48.0075 0)
(168.093 99.8268 0)
(164.405 11.2671 0)
(177.19 2.64357 0)
(187.929 2.89444 0)
(195.187 -0.297769 0)
(198.498 -2.04415 0)
(199.127 -3.6974 0)
(199.755 -4.77154 0)
(200.209 -5.64074 0)
(200.817 -6.31777 0)
(201.498 -6.91909 0)
(202.184 -7.54875 0)
(202.817 -8.26063 0)
(203.537 -8.98279 0)
(204.26 -9.75141 0)
(205.021 -10.513 0)
(205.823 -11.2471 0)
(206.677 -11.9325 0)
(207.595 -12.5555 0)
(208.583 -13.1092 0)
(209.643 -13.5957 0)
(210.77 -14.0199 0)
(211.951 -14.3905 0)
(213.17 -14.7191 0)
(214.412 -15.0204 0)
(215.663 -15.3045 0)
(216.92 -15.578 0)
(218.181 -15.8453 0)
(219.453 -16.1113 0)
(220.74 -16.3803 0)
(222.052 -16.6565 0)
(223.395 -16.9442 0)
(224.78 -17.2467 0)
(226.217 -17.5672 0)
(227.715 -17.9088 0)
(229.287 -18.2751 0)
(230.944 -18.6696 0)
(232.694 -19.0965 0)
(234.547 -19.5583 0)
(236.516 -20.06 0)
(238.612 -20.6076 0)
(240.852 -21.2078 0)
(243.257 -21.8691 0)
(245.853 -22.597 0)
(248.677 -23.3965 0)
(251.777 -24.2721 0)
(255.218 -25.2298 0)
(259.121 -26.268 0)
(263.789 -27.3289 0)
(269.816 -28.1969 0)
(277.482 -28.5685 0)
(285.761 -28.4047 0)
(293.482 -28.0098 0)
(300.119 -27.7126 0)
(305.767 -27.711 0)
(310.75 -28.0565 0)
(315.351 -28.6199 0)
(319.787 -29.38 0)
(323.997 -30.264 0)
(328.068 -31.2732 0)
(332.102 -32.4652 0)
(335.85 -33.6652 0)
(339.436 -34.9168 0)
(342.887 -36.1879 0)
(346.078 -37.4267 0)
(348.992 -38.6075 0)
(351.728 -39.7355 0)
(354.281 -40.762 0)
(356.634 -41.6625 0)
(358.788 -42.4429 0)
(360.753 -43.1164 0)
(362.537 -43.6682 0)
(364.153 -44.1417 0)
(365.624 -44.4634 0)
(367.004 -44.8388 0)
(368.305 -45.0366 0)
(369.54 -45.3685 0)
(370.703 -45.4788 0)
(371.782 -45.7623 0)
(372.81 -45.818 0)
(373.765 -46.0695 0)
(374.695 -46.0896 0)
(375.563 -46.3017 0)
(376.417 -46.2981 0)
(377.207 -46.4797 0)
(377.984 -46.4688 0)
(378.7 -46.6327 0)
(379.41 -46.616 0)
(380.07 -46.749 0)
(380.73 -46.7216 0)
(381.336 -46.8412 0)
(381.941 -46.8201 0)
(382.506 -46.9243 0)
(383.077 -46.9002 0)
(383.611 -46.9917 0)
(384.148 -46.9733 0)
(384.647 -47.0538 0)
(385.137 -47.0346 0)
(385.578 -47.1129 0)
(386.004 -47.1074 0)
(386.392 -47.1875 0)
(386.776 -47.1813 0)
(387.137 -47.2453 0)
(387.505 -47.2349 0)
(387.856 -47.2908 0)
(388.207 -47.2933 0)
(388.53 -47.3487 0)
(388.822 -47.3579 0)
(389.054 -47.3945 0)
(389.219 -47.3914 0)
(389.294 -47.3922 0)
(389.272 -47.3772 0)
(389.169 -47.334 0)
(389.036 -47.334 0)
(388.983 -47.2866 0)
(389.096 -47.3005 0)
(389.45 -47.3084 0)
(390.018 -47.3766 0)
(390.708 -47.4329 0)
(391.404 -47.5208 0)
(391.78 -47.2536 0)
(167.875 99.7989 0)
(164.491 11.0389 0)
(177.301 2.5456 0)
(188.036 2.8598 0)
(195.297 -0.316205 0)
(198.587 -2.05014 0)
(199.203 -3.69218 0)
(199.817 -4.76034 0)
(200.263 -5.62644 0)
(200.862 -6.30103 0)
(201.536 -6.89956 0)
(202.214 -7.52617 0)
(202.84 -8.23575 0)
(203.555 -8.95569 0)
(204.274 -9.72126 0)
(205.033 -10.48 0)
(205.833 -11.2107 0)
(206.688 -11.8926 0)
(207.606 -12.5115 0)
(208.596 -13.0608 0)
(209.659 -13.5428 0)
(210.789 -13.9627 0)
(211.973 -14.3296 0)
(213.197 -14.6551 0)
(214.442 -14.954 0)
(215.699 -15.2361 0)
(216.96 -15.5075 0)
(218.227 -15.7723 0)
(219.504 -16.0353 0)
(220.798 -16.3005 0)
(222.117 -16.5723 0)
(223.469 -16.8549 0)
(224.864 -17.1512 0)
(226.311 -17.4645 0)
(227.822 -17.7976 0)
(229.41 -18.1541 0)
(231.084 -18.5376 0)
(232.856 -18.9521 0)
(234.736 -19.4001 0)
(236.736 -19.8864 0)
(238.872 -20.4165 0)
(241.16 -20.9966 0)
(243.624 -21.6347 0)
(246.292 -22.3351 0)
(249.206 -23.1014 0)
(252.42 -23.9368 0)
(256.009 -24.8432 0)
(260.132 -25.8044 0)
(265.134 -26.7249 0)
(271.493 -27.366 0)
(279.044 -27.512 0)
(286.801 -27.2544 0)
(293.909 -26.8842 0)
(300.07 -26.6529 0)
(305.403 -26.6989 0)
(310.22 -27.0454 0)
(314.779 -27.5994 0)
(319.117 -28.3113 0)
(323.38 -29.1914 0)
(327.495 -30.2267 0)
(331.379 -31.3314 0)
(335.241 -32.5983 0)
(338.914 -33.9124 0)
(342.369 -35.229 0)
(345.619 -36.4971 0)
(348.657 -37.6944 0)
(351.442 -38.7975 0)
(353.983 -39.8166 0)
(356.302 -40.7387 0)
(358.432 -41.5518 0)
(360.403 -42.2445 0)
(362.238 -42.8186 0)
(363.945 -43.342 0)
(365.496 -43.753 0)
(366.861 -44.1466 0)
(368.154 -44.3705 0)
(369.391 -44.7059 0)
(370.562 -44.8222 0)
(371.656 -45.1092 0)
(372.701 -45.1783 0)
(373.678 -45.4347 0)
(374.627 -45.4568 0)
(375.513 -45.6708 0)
(376.381 -45.6709 0)
(377.182 -45.8605 0)
(377.969 -45.8536 0)
(378.696 -46.0183 0)
(379.413 -45.9966 0)
(380.072 -46.1289 0)
(380.722 -46.1021 0)
(381.315 -46.2264 0)
(381.906 -46.2055 0)
(382.456 -46.3116 0)
(383.01 -46.2868 0)
(383.525 -46.3771 0)
(384.046 -46.3491 0)
(384.527 -46.4195 0)
(385.005 -46.3924 0)
(385.437 -46.4693 0)
(385.86 -46.4566 0)
(386.252 -46.5224 0)
(386.646 -46.4952 0)
(387.021 -46.5391 0)
(387.408 -46.5159 0)
(387.776 -46.57 0)
(388.147 -46.5708 0)
(388.49 -46.6244 0)
(388.805 -46.6279 0)
(389.061 -46.6613 0)
(389.254 -46.6537 0)
(389.355 -46.6569 0)
(389.356 -46.6418 0)
(389.272 -46.6042 0)
(389.154 -46.6099 0)
(389.113 -46.5679 0)
(389.238 -46.583 0)
(389.604 -46.594 0)
(390.183 -46.661 0)
(390.879 -46.7222 0)
(391.574 -46.8098 0)
(391.952 -46.5484 0)
(167.654 99.7666 0)
(164.575 10.806 0)
(177.412 2.44571 0)
(188.145 2.82321 0)
(195.41 -0.336288 0)
(198.677 -2.05552 0)
(199.279 -3.68518 0)
(199.879 -4.74693 0)
(200.316 -5.61032 0)
(200.906 -6.28275 0)
(201.572 -6.87862 0)
(202.244 -7.50223 0)
(202.863 -8.20948 0)
(203.571 -8.92722 0)
(204.287 -9.68971 0)
(205.042 -10.4456 0)
(205.841 -11.1731 0)
(206.696 -11.8513 0)
(207.615 -12.4661 0)
(208.608 -13.0111 0)
(209.673 -13.4886 0)
(210.806 -13.9041 0)
(211.993 -14.2671 0)
(213.22 -14.5893 0)
(214.469 -14.8855 0)
(215.729 -15.1652 0)
(216.994 -15.4343 0)
(218.266 -15.6964 0)
(219.548 -15.9561 0)
(220.848 -16.2174 0)
(222.173 -16.4843 0)
(223.533 -16.7613 0)
(224.937 -17.0509 0)
(226.395 -17.3565 0)
(227.918 -17.6805 0)
(229.519 -18.0265 0)
(231.209 -18.3979 0)
(233.001 -18.7987 0)
(234.905 -19.2316 0)
(236.935 -19.7005 0)
(239.107 -20.211 0)
(241.44 -20.7685 0)
(243.958 -21.3801 0)
(246.694 -22.049 0)
(249.693 -22.7774 0)
(253.013 -23.5665 0)
(256.746 -24.4121 0)
(261.082 -25.28 0)
(266.37 -26.0447 0)
(272.904 -26.4802 0)
(280.247 -26.4683 0)
(287.529 -26.163 0)
(294.117 -25.8213 0)
(299.902 -25.6342 0)
(305.056 -25.7049 0)
(309.8 -26.0591 0)
(314.266 -26.5937 0)
(318.594 -27.2939 0)
(322.742 -28.1352 0)
(326.777 -29.1085 0)
(330.735 -30.2253 0)
(334.484 -31.4266 0)
(338.109 -32.7069 0)
(341.639 -34.041 0)
(344.995 -35.3848 0)
(348.127 -36.6967 0)
(351.027 -37.9248 0)
(353.684 -39.0205 0)
(356.099 -39.9655 0)
(358.281 -40.7722 0)
(360.253 -41.4605 0)
(362.049 -42.055 0)
(363.717 -42.5913 0)
(365.312 -43.0069 0)
(366.837 -43.4669 0)
(368.201 -43.7513 0)
(369.463 -44.1067 0)
(370.64 -44.2413 0)
(371.749 -44.5424 0)
(372.806 -44.6247 0)
(373.796 -44.8836 0)
(374.751 -44.9066 0)
(375.641 -45.1208 0)
(376.507 -45.121 0)
(377.307 -45.308 0)
(378.095 -45.2923 0)
(378.826 -45.4472 0)
(379.55 -45.4177 0)
(380.211 -45.5502 0)
(380.865 -45.5245 0)
(381.466 -45.6494 0)
(382.067 -45.6243 0)
(382.628 -45.7254 0)
(383.193 -45.6931 0)
(383.719 -45.7731 0)
(384.249 -45.7343 0)
(384.729 -45.7997 0)
(385.201 -45.7703 0)
(385.623 -45.8421 0)
(386.036 -45.8158 0)
(386.414 -45.8668 0)
(386.793 -45.8278 0)
(387.143 -45.8687 0)
(387.501 -45.8463 0)
(387.841 -45.9008 0)
(388.189 -45.8943 0)
(388.515 -45.938 0)
(388.818 -45.9298 0)
(389.06 -45.957 0)
(389.237 -45.9428 0)
(389.319 -45.9466 0)
(389.299 -45.9264 0)
(389.191 -45.8975 0)
(389.051 -45.8976 0)
(388.987 -45.8703 0)
(389.098 -45.8792 0)
(389.455 -45.8872 0)
(390.027 -45.9499 0)
(390.723 -46.0063 0)
(391.422 -46.0883 0)
(391.796 -45.8212 0)
(167.428 99.7307 0)
(164.659 10.5693 0)
(177.524 2.34397 0)
(188.256 2.78448 0)
(195.525 -0.357639 0)
(198.77 -2.06283 0)
(199.357 -3.68121 0)
(199.943 -4.73568 0)
(200.37 -5.59576 0)
(200.952 -6.2657 0)
(201.61 -6.85879 0)
(202.275 -7.47928 0)
(202.887 -8.18409 0)
(203.589 -8.89951 0)
(204.301 -9.65879 0)
(205.054 -10.4117 0)
(205.852 -11.1357 0)
(206.706 -11.8101 0)
(207.627 -12.4208 0)
(208.621 -12.9612 0)
(209.689 -13.4339 0)
(210.825 -13.8451 0)
(212.016 -14.2041 0)
(213.246 -14.5233 0)
(214.499 -14.8169 0)
(215.764 -15.0946 0)
(217.034 -15.3615 0)
(218.311 -15.6211 0)
(219.598 -15.8777 0)
(220.904 -16.1352 0)
(222.237 -16.3975 0)
(223.606 -16.669 0)
(225.019 -16.9522 0)
(226.488 -17.2504 0)
(228.024 -17.5656 0)
(229.64 -17.9013 0)
(231.348 -18.2609 0)
(233.16 -18.6484 0)
(235.09 -19.0662 0)
(237.151 -19.5182 0)
(239.361 -20.0091 0)
(241.74 -20.544 0)
(244.315 -21.1291 0)
(247.121 -21.766 0)
(250.206 -22.4557 0)
(253.635 -23.1961 0)
(257.518 -23.9755 0)
(262.063 -24.7394 0)
(267.577 -25.3399 0)
(274.139 -25.5864 0)
(281.192 -25.4532 0)
(288.019 -25.118 0)
(294.211 -24.7989 0)
(299.717 -24.6498 0)
(304.679 -24.7446 0)
(309.303 -25.1008 0)
(313.74 -25.6456 0)
(318.008 -26.3219 0)
(322.194 -27.1642 0)
(326.255 -28.1477 0)
(330.17 -29.2278 0)
(333.979 -30.4079 0)
(337.626 -31.6557 0)
(341.05 -32.9139 0)
(344.327 -34.2244 0)
(347.47 -35.535 0)
(350.426 -36.795 0)
(353.173 -37.9736 0)
(355.696 -39.0384 0)
(357.992 -39.9697 0)
(360.07 -40.7499 0)
(361.947 -41.3853 0)
(363.638 -41.9075 0)
(365.168 -42.3195 0)
(366.603 -42.761 0)
(367.982 -43.0328 0)
(369.294 -43.3896 0)
(370.509 -43.5478 0)
(371.633 -43.8577 0)
(372.683 -43.9417 0)
(373.665 -44.2005 0)
(374.614 -44.2338 0)
(375.5 -44.4563 0)
(376.363 -44.4664 0)
(377.164 -44.6596 0)
(377.954 -44.6463 0)
(378.69 -44.8011 0)
(379.417 -44.7753 0)
(380.079 -44.9182 0)
(380.73 -44.9001 0)
(381.331 -45.0272 0)
(381.933 -44.9987 0)
(382.496 -45.096 0)
(383.07 -45.0547 0)
(383.608 -45.1225 0)
(384.156 -45.0725 0)
(384.657 -45.1366 0)
(385.152 -45.1089 0)
(385.603 -45.1791 0)
(386.049 -45.1471 0)
(386.46 -45.1946 0)
(386.868 -45.1576 0)
(387.24 -45.2061 0)
(387.616 -45.1898 0)
(387.977 -45.2458 0)
(388.346 -45.2344 0)
(388.692 -45.2727 0)
(389.017 -45.2588 0)
(389.276 -45.2847 0)
(389.47 -45.2691 0)
(389.565 -45.2761 0)
(389.555 -45.2521 0)
(389.45 -45.2238 0)
(389.307 -45.2174 0)
(389.236 -45.1837 0)
(389.336 -45.1853 0)
(389.686 -45.1908 0)
(390.255 -45.2517 0)
(390.953 -45.3085 0)
(391.658 -45.3927 0)
(392.036 -45.1198 0)
(167.199 99.6901 0)
(164.74 10.328 0)
(177.636 2.24031 0)
(188.368 2.74368 0)
(195.641 -0.380542 0)
(198.864 -2.07005 0)
(199.436 -3.67517 0)
(200.007 -4.72211 0)
(200.425 -5.57924 0)
(200.998 -6.24702 0)
(201.648 -6.8375 0)
(202.306 -7.45492 0)
(202.91 -8.15726 0)
(203.606 -8.87039 0)
(204.314 -9.62642 0)
(205.064 -10.3764 0)
(205.86 -11.0969 0)
(206.714 -11.7676 0)
(207.636 -12.3739 0)
(208.633 -12.9098 0)
(209.704 -13.378 0)
(210.843 -13.7846 0)
(212.036 -14.1396 0)
(213.269 -14.4553 0)
(214.525 -14.7462 0)
(215.793 -15.0214 0)
(217.067 -15.286 0)
(218.349 -15.5428 0)
(219.641 -15.7961 0)
(220.953 -16.0494 0)
(222.292 -16.3068 0)
(223.668 -16.5725 0)
(225.091 -16.8488 0)
(226.57 -17.1389 0)
(228.118 -17.4447 0)
(229.747 -17.7693 0)
(231.471 -18.1163 0)
(233.302 -18.4893 0)
(235.255 -18.8907 0)
(237.345 -19.3239 0)
(239.589 -19.7932 0)
(242.01 -20.303 0)
(244.636 -20.8584 0)
(247.506 -21.4597 0)
(250.671 -22.1059 0)
(254.204 -22.7918 0)
(258.225 -23.4956 0)
(262.949 -24.1442 0)
(268.614 -24.5845 0)
(275.114 -24.6796 0)
(281.877 -24.4653 0)
(288.312 -24.1169 0)
(294.131 -23.8198 0)
(299.357 -23.6916 0)
(304.151 -23.7927 0)
(308.679 -24.1324 0)
(313.023 -24.6346 0)
(317.276 -25.2927 0)
(321.392 -26.0895 0)
(325.435 -27.033 0)
(329.413 -28.1229 0)
(333.255 -29.3388 0)
(336.954 -30.6184 0)
(340.515 -31.9435 0)
(343.861 -33.22 0)
(346.983 -34.4693 0)
(349.91 -35.7043 0)
(352.642 -36.8876 0)
(355.178 -37.9785 0)
(357.515 -38.9488 0)
(359.663 -39.7839 0)
(361.639 -40.4987 0)
(363.457 -41.1342 0)
(365.107 -41.6517 0)
(366.596 -42.1108 0)
(367.938 -42.3748 0)
(369.201 -42.7236 0)
(370.4 -42.8842 0)
(371.539 -43.1964 0)
(372.614 -43.2853 0)
(373.63 -43.5541 0)
(374.61 -43.5983 0)
(375.527 -43.8288 0)
(376.42 -43.8445 0)
(377.254 -44.0452 0)
(378.071 -44.0395 0)
(378.823 -44.2054 0)
(379.557 -44.1868 0)
(380.224 -44.3307 0)
(380.878 -44.3039 0)
(381.479 -44.4225 0)
(382.076 -44.3857 0)
(382.626 -44.4786 0)
(383.181 -44.4299 0)
(383.695 -44.4938 0)
(384.212 -44.4422 0)
(384.682 -44.5087 0)
(385.148 -44.4778 0)
(385.579 -44.5401 0)
(386.008 -44.4986 0)
(386.399 -44.5431 0)
(386.789 -44.5068 0)
(387.144 -44.5611 0)
(387.506 -44.5444 0)
(387.858 -44.5921 0)
(388.224 -44.5669 0)
(388.567 -44.5934 0)
(388.893 -44.5694 0)
(389.152 -44.591 0)
(389.348 -44.5698 0)
(389.445 -44.574 0)
(389.439 -44.5408 0)
(389.338 -44.5099 0)
(389.202 -44.4905 0)
(389.139 -44.4566 0)
(389.25 -44.4526 0)
(389.611 -44.4597 0)
(390.192 -44.5188 0)
(390.895 -44.5731 0)
(391.601 -44.6582 0)
(391.979 -44.3881 0)
(166.966 99.6456 0)
(164.821 10.0828 0)
(177.749 2.13482 0)
(188.483 2.7006 0)
(195.76 -0.404567 0)
(198.96 -2.07973 0)
(199.517 -3.67223 0)
(200.073 -4.71096 0)
(200.481 -5.56444 0)
(201.045 -6.22966 0)
(201.688 -6.81739 0)
(202.338 -7.43162 0)
(202.935 -8.13135 0)
(203.624 -8.84207 0)
(204.329 -9.59472 0)
(205.076 -10.3415 0)
(205.871 -11.0584 0)
(206.725 -11.7251 0)
(207.648 -12.327 0)
(208.647 -12.8581 0)
(209.72 -13.3215 0)
(210.862 -13.7236 0)
(212.058 -14.0746 0)
(213.294 -14.3871 0)
(214.555 -14.6754 0)
(215.827 -14.9484 0)
(217.106 -15.2107 0)
(218.393 -15.4651 0)
(219.691 -15.7151 0)
(221.008 -15.9645 0)
(222.355 -16.2171 0)
(223.739 -16.4771 0)
(225.172 -16.7467 0)
(226.662 -17.0291 0)
(228.223 -17.3257 0)
(229.867 -17.6396 0)
(231.608 -17.9741 0)
(233.46 -18.3329 0)
(235.437 -18.7181 0)
(237.556 -19.1327 0)
(239.836 -19.5805 0)
(242.301 -20.0653 0)
(244.981 -20.5907 0)
(247.918 -21.1559 0)
(251.165 -21.7577 0)
(254.802 -22.3863 0)
(258.961 -23.0085 0)
(263.843 -23.5347 0)
(269.584 -23.8226 0)
(275.939 -23.7903 0)
(282.369 -23.5114 0)
(288.427 -23.1572 0)
(293.953 -22.8802 0)
(298.979 -22.7686 0)
(303.637 -22.863 0)
(308.084 -23.1727 0)
(312.404 -23.651 0)
(316.597 -24.2668 0)
(320.733 -25.04 0)
(324.746 -25.9568 0)
(328.63 -27.0047 0)
(332.456 -28.1809 0)
(336.19 -29.4614 0)
(339.783 -30.8112 0)
(343.221 -32.1926 0)
(346.472 -33.551 0)
(349.501 -34.8189 0)
(352.303 -35.9881 0)
(354.877 -37.061 0)
(357.225 -38.0322 0)
(359.361 -38.8907 0)
(361.314 -39.6376 0)
(363.121 -40.291 0)
(364.809 -40.8144 0)
(366.402 -41.3236 0)
(367.863 -41.676 0)
(369.21 -42.1008 0)
(370.447 -42.293 0)
(371.607 -42.6272 0)
(372.701 -42.7313 0)
(373.724 -43.0083 0)
(374.697 -43.0364 0)
(375.598 -43.2505 0)
(376.47 -43.2505 0)
(377.279 -43.4439 0)
(378.071 -43.4285 0)
(378.803 -43.5911 0)
(379.526 -43.5666 0)
(380.194 -43.7063 0)
(380.86 -43.6731 0)
(381.476 -43.7896 0)
(382.094 -43.7519 0)
(382.668 -43.848 0)
(383.251 -43.8014 0)
(383.787 -43.8713 0)
(384.328 -43.8255 0)
(384.821 -43.8937 0)
(385.315 -43.8561 0)
(385.767 -43.9099 0)
(386.213 -43.8684 0)
(386.608 -43.9204 0)
(386.997 -43.8891 0)
(387.354 -43.9406 0)
(387.72 -43.9107 0)
(388.077 -43.9459 0)
(388.447 -43.9145 0)
(388.791 -43.9424 0)
(389.114 -43.9187 0)
(389.369 -43.9403 0)
(389.559 -43.9132 0)
(389.647 -43.9136 0)
(389.627 -43.8698 0)
(389.506 -43.8336 0)
(389.345 -43.8009 0)
(389.255 -43.765 0)
(389.346 -43.7536 0)
(389.692 -43.76 0)
(390.269 -43.8148 0)
(390.974 -43.861 0)
(391.681 -43.9416 0)
(392.06 -43.6723 0)
(166.729 99.5958 0)
(164.901 9.83314 0)
(177.861 2.02741 0)
(188.599 2.65523 0)
(195.881 -0.430333 0)
(199.059 -2.08914 0)
(199.599 -3.66722 0)
(200.139 -4.69749 0)
(200.538 -5.54756 0)
(201.093 -6.2106 0)
(201.726 -6.7958 0)
(202.37 -7.40688 0)
(202.959 -8.10396 0)
(203.642 -8.8123 0)
(204.342 -9.56151 0)
(205.086 -10.3051 0)
(205.88 -11.0184 0)
(206.734 -11.6811 0)
(207.658 -12.2785 0)
(208.659 -12.805 0)
(209.735 -13.2636 0)
(210.879 -13.6611 0)
(212.078 -14.008 0)
(213.317 -14.3169 0)
(214.58 -14.6023 0)
(215.855 -14.8728 0)
(217.139 -15.1327 0)
(218.429 -15.3843 0)
(219.732 -15.631 0)
(221.056 -15.8761 0)
(222.408 -16.1236 0)
(223.8 -16.3774 0)
(225.241 -16.6399 0)
(226.742 -16.9139 0)
(228.315 -17.2008 0)
(229.972 -17.5032 0)
(231.729 -17.8244 0)
(233.599 -18.1679 0)
(235.598 -18.5355 0)
(237.744 -18.93 0)
(240.056 -19.3543 0)
(242.561 -19.8117 0)
(245.29 -20.3043 0)
(248.287 -20.8299 0)
(251.609 -21.383 0)
(255.341 -21.9484 0)
(259.618 -22.4814 0)
(264.614 -22.8848 0)
(270.355 -23.0398 0)
(276.53 -22.9101 0)
(282.67 -22.5904 0)
(288.437 -22.2349 0)
(293.718 -21.9707 0)
(298.588 -21.8594 0)
(303.184 -21.9416 0)
(307.599 -22.2479 0)
(311.861 -22.7112 0)
(316.026 -23.3136 0)
(320.08 -24.0452 0)
(324.077 -24.9202 0)
(328.005 -25.9516 0)
(331.775 -27.0738 0)
(335.427 -28.3003 0)
(338.978 -29.6035 0)
(342.428 -30.9647 0)
(345.722 -32.3366 0)
(348.85 -33.6977 0)
(351.773 -35.005 0)
(354.465 -36.2041 0)
(356.92 -37.2593 0)
(359.148 -38.1572 0)
(361.166 -38.9096 0)
(362.994 -39.5503 0)
(364.652 -40.0751 0)
(366.177 -40.59 0)
(367.606 -40.9425 0)
(368.97 -41.3603 0)
(370.238 -41.5568 0)
(371.427 -41.9124 0)
(372.534 -42.0254 0)
(373.563 -42.3155 0)
(374.538 -42.3536 0)
(375.448 -42.5933 0)
(376.33 -42.6128 0)
(377.156 -42.8244 0)
(377.965 -42.8148 0)
(378.717 -42.9793 0)
(379.461 -42.9473 0)
(380.146 -43.0826 0)
(380.821 -43.0456 0)
(381.436 -43.1658 0)
(382.048 -43.1288 0)
(382.613 -43.2279 0)
(383.183 -43.184 0)
(383.708 -43.2649 0)
(384.233 -43.2255 0)
(384.719 -43.2911 0)
(385.21 -43.2386 0)
(385.657 -43.279 0)
(386.101 -43.2312 0)
(386.495 -43.2862 0)
(386.885 -43.255 0)
(387.248 -43.3007 0)
(387.626 -43.2575 0)
(387.994 -43.2823 0)
(388.378 -43.2465 0)
(388.734 -43.2764 0)
(389.072 -43.2507 0)
(389.346 -43.2695 0)
(389.562 -43.2375 0)
(389.677 -43.2381 0)
(389.689 -43.1903 0)
(389.594 -43.1542 0)
(389.457 -43.1199 0)
(389.387 -43.0845 0)
(389.491 -43.0706 0)
(389.847 -43.0797 0)
(390.433 -43.1333 0)
(391.148 -43.1813 0)
(391.861 -43.2608 0)
(392.241 -42.99 0)
(166.488 99.5419 0)
(164.98 9.57963 0)
(177.975 1.91832 0)
(188.717 2.6073 0)
(196.005 -0.45764 0)
(199.159 -2.10096 0)
(199.684 -3.66568 0)
(200.208 -4.68676 0)
(200.597 -5.53259 0)
(201.142 -6.19301 0)
(201.767 -6.77551 0)
(202.403 -7.38328 0)
(202.986 -8.07754 0)
(203.661 -8.78336 0)
(204.358 -9.52899 0)
(205.099 -10.2693 0)
(205.891 -10.9787 0)
(206.745 -11.6371 0)
(207.671 -12.2299 0)
(208.674 -12.7515 0)
(209.752 -13.2051 0)
(210.899 -13.598 0)
(212.101 -13.9408 0)
(213.342 -14.2464 0)
(214.609 -14.5291 0)
(215.889 -14.7973 0)
(217.177 -15.0549 0)
(218.472 -15.3039 0)
(219.781 -15.5473 0)
(221.11 -15.7884 0)
(222.47 -16.0309 0)
(223.87 -16.2787 0)
(225.32 -16.5343 0)
(226.832 -16.8002 0)
(228.418 -17.0774 0)
(230.09 -17.3686 0)
(231.863 -17.6768 0)
(233.754 -18.0052 0)
(235.777 -18.3555 0)
(237.951 -18.7301 0)
(240.297 -19.1309 0)
(242.844 -19.5609 0)
(245.624 -20.0204 0)
(248.684 -20.5059 0)
(252.082 -21.009 0)
(255.907 -21.5078 0)
(260.292 -21.9476 0)
(265.358 -22.2311 0)
(271.039 -22.2662 0)
(277.007 -22.0531 0)
(282.874 -21.6999 0)
(288.377 -21.3407 0)
(293.466 -21.0814 0)
(298.196 -20.9748 0)
(302.656 -21.0503 0)
(306.957 -21.3256 0)
(311.173 -21.7668 0)
(315.302 -22.3401 0)
(319.376 -23.0655 0)
(323.358 -23.9353 0)
(327.259 -24.9322 0)
(331.123 -26.0914 0)
(334.851 -27.3134 0)
(338.413 -28.5633 0)
(341.806 -29.8436 0)
(345.055 -31.1673 0)
(348.149 -32.4981 0)
(351.082 -33.8006 0)
(353.832 -35.0354 0)
(356.377 -36.1673 0)
(358.707 -37.1645 0)
(360.833 -38.0271 0)
(362.772 -38.7737 0)
(364.534 -39.3887 0)
(366.136 -39.9383 0)
(367.578 -40.2848 0)
(368.909 -40.6872 0)
(370.153 -40.877 0)
(371.35 -41.2397 0)
(372.48 -41.3539 0)
(373.552 -41.6644 0)
(374.573 -41.7242 0)
(375.53 -41.9996 0)
(376.447 -42.034 0)
(377.297 -42.256 0)
(378.125 -42.2401 0)
(378.889 -42.4025 0)
(379.64 -42.3664 0)
(380.325 -42.5083 0)
(380.999 -42.474 0)
(381.616 -42.5964 0)
(382.234 -42.5531 0)
(382.806 -42.6478 0)
(383.38 -42.6014 0)
(383.908 -42.6831 0)
(384.438 -42.6349 0)
(384.927 -42.6904 0)
(385.418 -42.631 0)
(385.853 -42.6732 0)
(386.279 -42.6217 0)
(386.656 -42.6668 0)
(387.03 -42.6212 0)
(387.378 -42.6568 0)
(387.74 -42.608 0)
(388.084 -42.6358 0)
(388.443 -42.6013 0)
(388.779 -42.6317 0)
(389.103 -42.6017 0)
(389.366 -42.6178 0)
(389.569 -42.5838 0)
(389.668 -42.5878 0)
(389.662 -42.5375 0)
(389.55 -42.5048 0)
(389.396 -42.4643 0)
(389.31 -42.4319 0)
(389.407 -42.409 0)
(389.761 -42.4129 0)
(390.348 -42.4631 0)
(391.067 -42.5047 0)
(391.782 -42.5743 0)
(392.16 -42.2989 0)
(166.244 99.4821 0)
(165.058 9.32193 0)
(178.088 1.80769 0)
(188.837 2.55647 0)
(196.13 -0.486743 0)
(199.262 -2.11202 0)
(199.771 -3.6622 0)
(200.278 -4.67378 0)
(200.657 -5.51546 0)
(201.192 -6.17362 0)
(201.808 -6.75368 0)
(202.436 -7.35818 0)
(203.011 -8.0496 0)
(203.679 -8.75292 0)
(204.372 -9.49493 0)
(205.11 -10.2319 0)
(205.9 -10.9375 0)
(206.754 -11.5916 0)
(207.681 -12.1797 0)
(208.686 -12.6965 0)
(209.768 -13.1452 0)
(210.917 -13.5334 0)
(212.121 -13.872 0)
(213.364 -14.1739 0)
(214.633 -14.4535 0)
(215.916 -14.7191 0)
(217.208 -14.9743 0)
(218.508 -15.2204 0)
(219.821 -15.4604 0)
(221.156 -15.697 0)
(222.521 -15.9343 0)
(223.929 -16.1756 0)
(225.388 -16.4238 0)
(226.91 -16.6809 0)
(228.507 -16.9481 0)
(230.192 -17.2274 0)
(231.981 -17.5216 0)
(233.889 -17.8339 0)
(235.934 -18.1657 0)
(238.133 -18.5189 0)
(240.511 -18.8944 0)
(243.095 -19.2947 0)
(245.921 -19.7186 0)
(249.035 -20.1608 0)
(252.499 -20.6098 0)
(256.403 -21.0373 0)
(260.866 -21.3823 0)
(265.955 -21.5547 0)
(271.546 -21.4888 0)
(277.323 -21.2106 0)
(282.947 -20.8303 0)
(288.224 -20.472 0)
(293.101 -20.2146 0)
(297.659 -20.101 0)
(302.008 -20.1593 0)
(306.249 -20.4007 0)
(310.404 -20.7997 0)
(314.493 -21.3326 0)
(318.512 -22.0097 0)
(322.498 -22.8414 0)
(326.412 -23.8178 0)
(330.22 -24.9193 0)
(333.983 -26.1526 0)
(337.663 -27.4931 0)
(341.185 -28.867 0)
(344.516 -30.2019 0)
(347.659 -31.4948 0)
(350.609 -32.7531 0)
(353.356 -33.9671 0)
(355.897 -35.1075 0)
(358.234 -36.1349 0)
(360.379 -37.0374 0)