/*--------------------------------*- C++ -*----------------------------------*\
| =========                 |                                                 |
| \\      /  F ield         | OpenFOAM: The Open Source CFD Toolbox           |
|  \\    /   O peration     | Version:  2412                                  |
|   \\  /    A nd           | Website:  www.openfoam.com                      |
|    \\/     M anipulation  |                                                 |
\*---------------------------------------------------------------------------*/
FoamFile
{
    version     2.0;
    format      ascii;
    arch        "LSB;label=32;scalar=64";
    class       volScalarField;
    location    "0.066";
    object      rho;
}
// * * * * * * * * * * * * * * * * * * * * * * * * * * * * * * * * * * * * * //

dimensions      [1 -3 0 0 0 0 0];

internalField   nonuniform List<scalar> 
9831
(
0.0281717
0.039063
0.0281262
0.03905
0.0401506
0.0401012
0.0401316
0.0401953
0.0402599
0.0403223
0.0403823
0.0404386
0.0404911
0.0405395
0.0405854
0.0406313
0.0406802
0.0407347
0.0407949
0.0408603
0.040932
0.0410146
0.041113
0.0412284
0.0413562
0.041489
0.0416202
0.0417454
0.0418622
0.0419703
0.0420704
0.0421637
0.042252
0.0423368
0.0424193
0.0425
0.0425789
0.0426557
0.0427301
0.0428019
0.0428709
0.0429372
0.0430008
0.0430616
0.0431197
0.0431752
0.043228
0.0432781
0.0433256
0.0433704
0.0434124
0.0434517
0.0280749
0.0390373
0.0401432
0.0400944
0.0401267
0.0401918
0.040257
0.0403197
0.0403799
0.0404361
0.0404884
0.0405366
0.0405822
0.0406278
0.0406767
0.0407313
0.0407916
0.0408571
0.0409293
0.0410128
0.0411125
0.0412294
0.0413585
0.0414921
0.0416236
0.0417488
0.0418655
0.0419733
0.0420731
0.0421663
0.0422544
0.0423391
0.0424214
0.042502
0.0425807
0.0426573
0.0427316
0.0428032
0.0428721
0.0429382
0.0430016
0.0430623
0.0431203
0.0431756
0.0432283
0.0432784
0.0433258
0.0433705
0.0434125
0.0434517
0.0434881
0.0435215
0.0280288
0.0390249
0.0401359
0.0400877
0.0401219
0.0401885
0.0402542
0.0403173
0.0403775
0.0404337
0.0404858
0.0405337
0.0405791
0.0406245
0.0406734
0.0407279
0.0407883
0.040854
0.0409268
0.0410112
0.0411122
0.0412306
0.0413609
0.0414952
0.041627
0.0417521
0.0418686
0.0419762
0.0420758
0.0421687
0.0422567
0.0423412
0.0424235
0.0425039
0.0425825
0.042659
0.042733
0.0428045
0.0428732
0.0429392
0.0430024
0.0430629
0.0431208
0.043176
0.0432287
0.0432786
0.043326
0.0433707
0.0434126
0.0434518
0.0434882
0.0435216
0.0435519
0.043579
0.0279885
0.0390127
0.0401284
0.0400811
0.0401173
0.0401852
0.0402514
0.040315
0.0403753
0.0404314
0.0404832
0.0405309
0.040576
0.0406213
0.04067
0.0407246
0.040785
0.040851
0.0409243
0.0410096
0.0411119
0.0412317
0.0413632
0.0414982
0.0416303
0.0417554
0.0418717
0.0419791
0.0420784
0.0421712
0.042259
0.0423434
0.0424255
0.0425058
0.0425843
0.0426606
0.0427344
0.0428057
0.0428743
0.0429401
0.0430032
0.0430636
0.0431214
0.0431765
0.043229
0.043279
0.0433263
0.0433709
0.0434128
0.043452
0.0434883
0.0435217
0.043552
0.0435792
0.0436032
0.043624
0.0436416
0.0436558
0.0436667
0.0436744
0.0436786
0.0436791
0.0436762
0.0436702
0.0436613
0.0436496
0.0436349
0.0436174
0.0435974
0.0435749
0.0435502
0.0435234
0.0434946
0.0434642
0.0434322
0.0433989
0.0433644
0.043329
0.0432927
0.0432558
0.0432184
0.0431807
0.0431427
0.0431048
0.0430667
0.043029
0.0429914
0.0429543
0.0429175
0.0428813
0.0428457
0.0428107
0.0427763
0.0427427
0.0427099
0.0426778
0.0426466
0.0426161
0.0425866
0.0425578
0.04253
0.0425029
0.0424768
0.0424515
0.0424271
0.0424036
0.0423809
0.0423591
0.042338
0.0423177
0.0422981
0.0422791
0.0422608
0.042243
0.042226
0.0422095
0.0421936
0.0421799
0.0421644
0.0279384
0.0390012
0.040121
0.0400746
0.0401127
0.0401821
0.0402488
0.0403127
0.0403731
0.0404291
0.0404808
0.0405282
0.040573
0.0406182
0.0406668
0.0407213
0.0407819
0.0408481
0.0409219
0.0410081
0.0411118
0.041233
0.0413656
0.0415013
0.0416336
0.0417586
0.0418748
0.0419819
0.042081
0.0421736
0.0422612
0.0423455
0.0424275
0.0425077
0.042586
0.0426622
0.0427359
0.042807
0.0428754
0.042941
0.043004
0.0430643
0.0431219
0.043177
0.0432294
0.0432793
0.0433265
0.0433711
0.043413
0.0434522
0.0434885
0.0435219
0.0435522
0.0435794
0.0436035
0.0436245
0.0436422
0.0436566
0.0436677
0.0436755
0.0436799
0.0436808
0.0436783
0.0436729
0.0436644
0.0436532
0.0436391
0.0436223
0.043603
0.0435812
0.0435572
0.0435313
0.0435034
0.0434739
0.0434429
0.0434107
0.0433773
0.043343
0.0433078
0.0432721
0.0432359
0.0431995
0.0431627
0.0431261
0.0430893
0.0430529
0.0430166
0.0429807
0.0429452
0.0429103
0.0428759
0.0428421
0.042809
0.0427766
0.0427449
0.0427141
0.042684
0.0426547
0.0426262
0.0425986
0.0425717
0.0425458
0.0425206
0.0424963
0.0424729
0.0424503
0.0424285
0.0424075
0.0423873
0.0423678
0.042349
0.0423308
0.0423132
0.0422962
0.0422799
0.0422641
0.0422489
0.042236
0.0422209
0.0422107
0.0421829
0.0279035
0.0389894
0.0401135
0.0400682
0.0401083
0.040179
0.0402462
0.0403105
0.040371
0.040427
0.0404784
0.0405255
0.0405702
0.0406151
0.0406637
0.0407181
0.0407788
0.0408452
0.0409195
0.0410067
0.0411117
0.0412343
0.041368
0.0415043
0.0416368
0.0417618
0.0418777
0.0419847
0.0420835
0.0421759
0.0422634
0.0423476
0.0424296
0.0425096
0.0425878
0.0426637
0.0427373
0.0428082
0.0428765
0.042942
0.0430048
0.0430649
0.0431225
0.0431774
0.0432298
0.0432796
0.0433268
0.0433714
0.0434133
0.0434525
0.0434888
0.0435222
0.0435526
0.0435799
0.0436041
0.0436252
0.0436431
0.0436577
0.0436689
0.0436769
0.0436817
0.043683
0.043681
0.0436761
0.0436682
0.0436575
0.0436441
0.043628
0.0436093
0.0435884
0.0435653
0.0435402
0.0435133
0.0434848
0.0434549
0.0434238
0.0433915
0.0433584
0.0433245
0.0432901
0.0432551
0.04322
0.0431846
0.0431492
0.0431138
0.0430786
0.0430437
0.0430091
0.0429749
0.0429413
0.0429081
0.0428756
0.0428438
0.0428126
0.0427821
0.0427524
0.0427235
0.0426953
0.042668
0.0426414
0.0426157
0.0425907
0.0425666
0.0425433
0.0425208
0.0424991
0.0424782
0.0424581
0.0424387
0.04242
0.0424019
0.0423845
0.0423676
0.0423513
0.0423357
0.0423207
0.0423065
0.0422952
0.04228
0.042269
0.0422412
0.0278626
0.0389784
0.040106
0.0400618
0.0401039
0.0401761
0.0402438
0.0403084
0.040369
0.0404249
0.0404761
0.040523
0.0405674
0.0406121
0.0406606
0.040715
0.0407757
0.0408424
0.0409172
0.0410054
0.0411118
0.0412357
0.0413704
0.0415073
0.04164
0.0417649
0.0418807
0.0419874
0.042086
0.0421782
0.0422656
0.0423497
0.0424315
0.0425115
0.0425895
0.0426653
0.0427386
0.0428094
0.0428775
0.0429429
0.0430056
0.0430656
0.043123
0.0431779
0.0432302
0.04328
0.0433272
0.0433717
0.0434136
0.0434528
0.0434892
0.0435226
0.043553
0.0435804
0.0436048
0.0436261
0.0436441
0.0436589
0.0436703
0.0436786
0.0436838
0.0436855
0.0436841
0.0436797
0.0436724
0.0436624
0.0436496
0.0436342
0.0436164
0.0435963
0.0435741
0.04355
0.0435241
0.0434968
0.043468
0.043438
0.043407
0.0433752
0.0433426
0.0433094
0.0432758
0.043242
0.0432079
0.0431739
0.0431399
0.0431061
0.0430725
0.0430393
0.0430064
0.0429741
0.0429423
0.042911
0.0428804
0.0428505
0.0428213
0.0427928
0.042765
0.042738
0.0427118
0.0426863
0.0426616
0.0426377
0.0426146
0.0425923
0.0425707
0.0425499
0.0425299
0.0425107
0.0424921
0.0424742
0.042457
0.0424402
0.0424241
0.0424085
0.0423937
0.0423798
0.0423663
0.0423556
0.0423403
0.0423295
0.0423022
0.0278219
0.0389675
0.0400984
0.0400554
0.0400997
0.0401732
0.0402413
0.0403064
0.0403671
0.0404229
0.0404739
0.0405205
0.0405646
0.0406092
0.0406576
0.040712
0.0407727
0.0408396
0.040915
0.0410042
0.0411118
0.0412371
0.0413729
0.0415104
0.0416432
0.041768
0.0418836
0.04199
0.0420885
0.0421805
0.0422678
0.0423518
0.0424335
0.0425133
0.0425912
0.0426668
0.04274
0.0428106
0.0428786
0.0429438
0.0430063
0.0430663
0.0431236
0.0431784
0.0432306
0.0432804
0.0433275
0.0433721
0.043414
0.0434532
0.0434896
0.0435231
0.0435536
0.0435811
0.0436057
0.0436271
0.0436453
0.0436603
0.043672
0.0436807
0.0436863
0.0436886
0.0436878
0.043684
0.0436773
0.0436679
0.0436558
0.0436412
0.0436242
0.0436051
0.0435839
0.0435608
0.0435361
0.0435099
0.0434824
0.0434537
0.0434239
0.0433934
0.0433621
0.0433304
0.0432981
0.0432657
0.043233
0.0432004
0.0431677
0.0431353
0.0431031
0.0430713
0.0430398
0.0430088
0.0429783
0.0429484
0.042919
0.0428904
0.0428624
0.0428351
0.0428085
0.0427826
0.0427575
0.0427331
0.0427095
0.0426866
0.0426645
0.0426431
0.0426225
0.0426026
0.0425835
0.0425651
0.0425474
0.0425302
0.0425137
0.0424976
0.0424822
0.0424673
0.0424533
0.0424404
0.0424273
0.0424166
0.0424016
0.0423916
0.0423647
0.0277903
0.0389567
0.0400908
0.0400491
0.0400955
0.0401704
0.040239
0.0403044
0.0403652
0.0404209
0.0404717
0.0405181
0.040562
0.0406064
0.0406546
0.040709
0.0407698
0.040837
0.0409129
0.0410031
0.041112
0.0412386
0.0413754
0.0415134
0.0416464
0.0417711
0.0418864
0.0419926
0.0420909
0.0421827
0.0422699
0.0423538
0.0424354
0.0425151
0.0425928
0.0426683
0.0427414
0.0428118
0.0428796
0.0429447
0.0430071
0.0430669
0.0431241
0.0431789
0.0432311
0.0432808
0.0433279
0.0433724
0.0434143
0.0434536
0.04349
0.0435236
0.0435543
0.043582
0.0436067
0.0436283
0.0436467
0.0436619
0.0436741
0.0436831
0.0436891
0.043692
0.0436918
0.0436885
0.0436825
0.0436739
0.0436626
0.0436488
0.0436328
0.0436146
0.0435945
0.0435726
0.0435491
0.0435241
0.0434978
0.0434704
0.043442
0.0434128
0.043383
0.0433526
0.0433218
0.0432907
0.0432595
0.0432283
0.0431971
0.0431661
0.0431353
0.0431048
0.0430747
0.0430451
0.0430159
0.0429874
0.0429593
0.0429319
0.0429052
0.0428791
0.0428537
0.042829
0.042805
0.0427817
0.0427592
0.0427373
0.0427162
0.0426958
0.0426761
0.0426571
0.0426389
0.0426213
0.0426044
0.042588
0.0425722
0.0425569
0.0425421
0.042528
0.0425148
0.0425028
0.04249
0.0424793
0.0424649
0.0424558
0.0424295
0.0277552
0.0389466
0.040083
0.0400429
0.0400915
0.0401676
0.0402367
0.0403025
0.0403634
0.040419
0.0404696
0.0405158
0.0405594
0.0406036
0.0406517
0.0407061
0.0407669
0.0408343
0.0409108
0.041002
0.0411122
0.0412402
0.041378
0.0415164
0.0416495
0.0417741
0.0418893
0.0419952
0.0420932
0.0421849
0.042272
0.0423558
0.0424373
0.0425169
0.0425944
0.0426698
0.0427427
0.042813
0.0428806
0.0429456
0.0430079
0.0430675
0.0431247
0.0431794
0.0432315
0.0432812
0.0433283
0.0433728
0.0434148
0.043454
0.0434906
0.0435242
0.043555
0.0435829
0.0436078
0.0436296
0.0436483
0.0436638
0.0436764
0.0436859
0.0436924
0.043696
0.0436964
0.0436936
0.0436883
0.0436805
0.04367
0.0436572
0.0436422
0.0436251
0.0436061
0.0435854
0.0435632
0.0435395
0.0435145
0.0434885
0.0434615
0.0434337
0.0434053
0.0433763
0.043347
0.0433174
0.0432876
0.0432578
0.0432281
0.0431985
0.0431691
0.0431401
0.0431114
0.0430831
0.0430553
0.0430281
0.0430013
0.0429752
0.0429497
0.0429249
0.0429006
0.0428771
0.0428542
0.042832
0.0428105
0.0427897
0.0427695
0.0427501
0.0427313
0.0427133
0.0426959
0.0426791
0.042663
0.0426473
0.0426322
0.0426176
0.0426036
0.0425903
0.0425777
0.0425665
0.042554
0.0425434
0.0425296
0.0425215
0.0424959
0.0277188
0.0389365
0.0400752
0.0400367
0.0400875
0.0401649
0.0402345
0.0403006
0.0403616
0.0404172
0.0404676
0.0405135
0.0405569
0.0406009
0.0406489
0.0407032
0.0407641
0.0408317
0.0409088
0.041001
0.0411126
0.0412418
0.0413805
0.0415195
0.0416527
0.0417772
0.0418921
0.0419978
0.0420956
0.0421871
0.042274
0.0423577
0.0424391
0.0425186
0.042596
0.0426712
0.042744
0.0428142
0.0428817
0.0429465
0.0430086
0.0430682
0.0431253
0.0431798
0.043232
0.0432816
0.0433287
0.0433733
0.0434152
0.0434546
0.0434912
0.043525
0.0435559
0.0435839
0.043609
0.0436311
0.04365
0.043666
0.043679
0.0436889
0.043696
0.0437002
0.0437012
0.0436991
0.0436946
0.0436875
0.043678
0.0436662
0.0436523
0.0436363
0.0436186
0.0435991
0.0435781
0.0435558
0.0435322
0.0435076
0.043482
0.0434556
0.0434286
0.0434012
0.0433733
0.0433452
0.0433169
0.0432886
0.0432603
0.0432322
0.0432043
0.0431767
0.0431494
0.0431226
0.0430961
0.0430702
0.0430448
0.04302
0.0429958
0.0429721
0.0429491
0.0429267
0.042905
0.0428839
0.0428634
0.0428436
0.0428245
0.042806
0.0427882
0.042771
0.0427545
0.0427385
0.0427232
0.0427083
0.0426939
0.04268
0.0426667
0.0426542
0.0426422
0.0426317
0.0426195
0.042609
0.042596
0.0425888
0.042564
0.0276936
0.0389266
0.0400672
0.0400305
0.0400837
0.0401623
0.0402323
0.0402988
0.0403599
0.0404154
0.0404657
0.0405113
0.0405544
0.0405983
0.0406461
0.0407004
0.0407613
0.0408292
0.0409069
0.041
0.0411129
0.0412435
0.0413831
0.0415225
0.0416558
0.0417801
0.0418948
0.0420003
0.0420979
0.0421892
0.042276
0.0423596
0.0424409
0.0425203
0.0425976
0.0426727
0.0427453
0.0428153
0.0428827
0.0429473
0.0430093
0.0430688
0.0431258
0.0431803
0.0432324
0.043282
0.0433292
0.0433737
0.0434157
0.0434551
0.0434918
0.0435258
0.0435569
0.0435851
0.0436104
0.0436327
0.043652
0.0436684
0.0436818
0.0436924
0.0436999
0.0437048
0.0437065
0.0437051
0.0437014
0.0436953
0.0436868
0.0436761
0.0436633
0.0436485
0.043632
0.0436139
0.0435943
0.0435733
0.0435511
0.0435279
0.0435038
0.0434789
0.0434534
0.0434274
0.043401
0.0433745
0.0433477
0.0433209
0.0432941
0.0432675
0.043241
0.0432149
0.043189
0.0431636
0.0431385
0.043114
0.0430899
0.0430664
0.0430434
0.043021
0.0429991
0.0429779
0.0429573
0.0429373
0.0429179
0.0428991
0.0428809
0.0428634
0.0428465
0.0428302
0.0428145
0.0427994
0.0427848
0.0427707
0.042757
0.0427439
0.0427313
0.0427195
0.0427081
0.0426981
0.0426862
0.0426761
0.0426638
0.0426574
0.0426334
0.0276586
0.0389173
0.0400591
0.0400244
0.0400799
0.0401598
0.0402302
0.0402971
0.0403582
0.0404137
0.0404638
0.0405091
0.0405521
0.0405957
0.0406434
0.0406976
0.0407586
0.0408268
0.040905
0.0409992
0.0411134
0.0412452
0.0413857
0.0415255
0.0416588
0.041783
0.0418975
0.0420028
0.0421001
0.0421913
0.042278
0.0423615
0.0424427
0.042522
0.0425992
0.0426741
0.0427466
0.0428165
0.0428836
0.0429482
0.0430101
0.0430695
0.0431264
0.0431808
0.0432329
0.0432825
0.0433296
0.0433742
0.0434163
0.0434557
0.0434926
0.0435266
0.0435579
0.0435863
0.0436119
0.0436345
0.0436542
0.043671
0.043685
0.043696
0.0437042
0.0437096
0.0437121
0.0437115
0.0437087
0.0437035
0.0436961
0.0436865
0.0436749
0.0436614
0.0436462
0.0436294
0.0436111
0.0435916
0.0435708
0.0435491
0.0435264
0.043503
0.043479
0.0434546
0.0434298
0.0434047
0.0433795
0.0433543
0.043329
0.0433039
0.0432789
0.0432543
0.0432299
0.0432059
0.0431822
0.0431591
0.0431363
0.0431141
0.0430924
0.0430713
0.0430507
0.0430306
0.0430112
0.0429922
0.0429739
0.0429562
0.042939
0.0429224
0.0429065
0.0428911
0.0428762
0.0428619
0.0428481
0.0428347
0.0428218
0.0428093
0.0427975
0.0427863
0.0427755
0.042766
0.0427546
0.0427447
0.0427332
0.0427277
0.0427045
0.0276355
0.0389081
0.040051
0.0400183
0.0400762
0.0401572
0.0402282
0.0402954
0.0403566
0.040412
0.0404619
0.040507
0.0405497
0.0405932
0.0406408
0.0406949
0.040756
0.0408243
0.0409032
0.0409984
0.0411139
0.0412469
0.0413882
0.0415284
0.0416618
0.0417859
0.0419001
0.0420052
0.0421024
0.0421934
0.0422799
0.0423634
0.0424445
0.0425236
0.0426007
0.0426755
0.0427478
0.0428176
0.0428846
0.042949
0.0430108
0.0430701
0.0431269
0.0431813
0.0432334
0.043283
0.0433301
0.0433747
0.0434168
0.0434564
0.0434933
0.0435275
0.043559
0.0435877
0.0436135
0.0436364
0.0436566
0.0436739
0.0436884
0.0437
0.0437087
0.0437148
0.0437181
0.0437185
0.0437165
0.0437124
0.0437061
0.0436978
0.0436874
0.0436752
0.0436614
0.0436459
0.043629
0.0436109
0.0435916
0.0435714
0.0435502
0.0435284
0.043506
0.0434831
0.0434598
0.0434364
0.0434127
0.043389
0.0433653
0.0433418
0.0433184
0.0432952
0.0432723
0.0432497
0.0432275
0.0432057
0.0431844
0.0431635
0.0431431
0.0431232
0.0431038
0.0430849
0.0430666
0.0430488
0.0430315
0.0430148
0.0429986
0.042983
0.0429679
0.0429534
0.0429394
0.0429259
0.0429129
0.0429002
0.0428881
0.0428764
0.0428653
0.0428547
0.0428444
0.0428355
0.0428244
0.042815
0.0428042
0.0427997
0.0427771
0.0276055
0.0388992
0.0400426
0.0400123
0.0400725
0.0401548
0.0402261
0.0402938
0.0403551
0.0404104
0.0404601
0.040505
0.0405475
0.0405907
0.0406382
0.0406923
0.0407534
0.040822
0.0409015
0.0409977
0.0411145
0.0412487
0.0413908
0.0415313
0.0416647
0.0417887
0.0419027
0.0420076
0.0421045
0.0421954
0.0422819
0.0423652
0.0424462
0.0425252
0.0426022
0.0426769
0.0427491
0.0428187
0.0428856
0.0429498
0.0430115
0.0430707
0.0431275
0.0431818
0.0432338
0.0432834
0.0433306
0.0433753
0.0434175
0.0434571
0.0434942
0.0435285
0.0435602
0.0435891
0.0436152
0.0436386
0.0436592
0.043677
0.0436921
0.0437042
0.0437135
0.0437203
0.0437245
0.0437259
0.0437248
0.0437218
0.0437167
0.0437096
0.0437005
0.0436896
0.0436771
0.043663
0.0436476
0.0436309
0.0436131
0.0435944
0.0435748
0.0435545
0.0435337
0.0435124
0.0434908
0.043469
0.0434469
0.0434249
0.0434028
0.0433808
0.0433589
0.0433373
0.0433159
0.0432949
0.0432741
0.0432537
0.0432338
0.0432142
0.0431952
0.0431765
0.0431584
0.0431407
0.0431235
0.0431069
0.0430907
0.043075
0.0430599
0.0430452
0.0430311
0.0430175
0.0430043
0.0429916
0.0429794
0.0429675
0.0429561
0.0429451
0.0429348
0.0429248
0.042915
0.0429066
0.0428959
0.0428869
0.0428768
0.0428731
0.0428513
0.0275839
0.0388906
0.0400342
0.0400063
0.040069
0.0401523
0.0402242
0.0402922
0.0403536
0.0404088
0.0404584
0.040503
0.0405453
0.0405883
0.0406357
0.0406897
0.0407508
0.0408197
0.0408998
0.040997
0.0411151
0.0412505
0.0413933
0.0415342
0.0416676
0.0417914
0.0419053
0.0420099
0.0421067
0.0421974
0.0422837
0.042367
0.0424479
0.0425268
0.0426037
0.0426782
0.0427503
0.0428197
0.0428865
0.0429506
0.0430122
0.0430713
0.043128
0.0431823
0.0432343
0.0432839
0.0433311
0.0433758
0.0434181
0.0434579
0.043495
0.0435296
0.0435615
0.0435906
0.0436171
0.0436409
0.043662
0.0436803
0.0436959
0.0437086
0.0437186
0.0437262
0.0437313
0.0437338
0.0437339
0.0437319
0.043728
0.0437222
0.0437144
0.0437048
0.0436937
0.043681
0.043667
0.0436519
0.0436356
0.0436184
0.0436005
0.0435819
0.0435627
0.043543
0.0435231
0.0435029
0.0434825
0.0434621
0.0434417
0.0434213
0.0434011
0.043381
0.0433611
0.0433416
0.0433223
0.0433034
0.0432848
0.0432666
0.0432489
0.0432315
0.0432146
0.0431981
0.0431821
0.0431666
0.0431515
0.0431368
0.0431227
0.043109
0.0430958
0.0430831
0.0430708
0.0430589
0.0430475
0.0430364
0.0430257
0.0430155
0.0430059
0.0429965
0.0429872
0.0429794
0.0429691
0.0429607
0.0429512
0.0429479
0.0429274
0.027559
0.0388823
0.0400256
0.0400004
0.0400655
0.04015
0.0402223
0.0402907
0.0403522
0.0404073
0.0404567
0.0405011
0.0405431
0.040586
0.0406332
0.0406871
0.0407483
0.0408175
0.0408982
0.0409965
0.0411159
0.0412523
0.0413959
0.041537
0.0416705
0.0417941
0.0419078
0.0420122
0.0421088
0.0421994
0.0422856
0.0423688
0.0424496
0.0425284
0.0426051
0.0426795
0.0427515
0.0428208
0.0428874
0.0429514
0.0430129
0.0430719
0.0431286
0.0431829
0.0432348
0.0432844
0.0433316
0.0433764
0.0434188
0.0434586
0.043496
0.0435307
0.0435628
0.0435923
0.0436192
0.0436434
0.043665
0.0436838
0.0436999
0.0437133
0.043724
0.0437324
0.0437384
0.0437421
0.0437434
0.0437425
0.0437398
0.0437351
0.0437287
0.0437205
0.0437107
0.0436995
0.043687
0.0436734
0.0436587
0.0436432
0.0436269
0.0436099
0.0435924
0.0435745
0.0435563
0.0435378
0.0435191
0.0435004
0.0434817
0.043463
0.0434443
0.0434259
0.0434076
0.0433896
0.0433718
0.0433544
0.0433372
0.0433205
0.043304
0.043288
0.0432724
0.0432571
0.0432423
0.0432279
0.0432139
0.0432003
0.0431872
0.0431745
0.0431623
0.0431504
0.043139
0.043128
0.0431173
0.0431069
0.043097
0.0430876
0.0430786
0.0430698
0.0430611
0.0430538
0.043044
0.0430361
0.0430271
0.0430243
0.0430048
0.0275401
0.0388743
0.0400169
0.0399945
0.0400621
0.0401476
0.0402204
0.0402892
0.0403508
0.0404059
0.0404551
0.0404992
0.040541
0.0405837
0.0406308
0.0406846
0.0407458
0.0408153
0.0408966
0.040996
0.0411166
0.0412542
0.0413984
0.0415399
0.0416733
0.0417968
0.0419103
0.0420145
0.0421109
0.0422013
0.0422875
0.0423705
0.0424513
0.04253
0.0426066
0.0426808
0.0427526
0.0428218
0.0428883
0.0429522
0.0430135
0.0430725
0.0431291
0.0431834
0.0432353
0.0432849
0.0433321
0.043377
0.0434194
0.0434594
0.0434969
0.0435319
0.0435643
0.0435941
0.0436214
0.043646
0.0436681
0.0436875
0.0437042
0.0437182
0.0437297
0.043739
0.043746
0.0437508
0.0437534
0.0437537
0.0437521
0.0437488
0.0437437
0.0437369
0.0437285
0.0437188
0.0437079
0.0436958
0.0436828
0.043669
0.0436544
0.0436392
0.0436235
0.0436073
0.0435908
0.0435741
0.0435572
0.0435402
0.0435232
0.0435062
0.0434892
0.0434724
0.0434557
0.0434392
0.043423
0.043407
0.0433913
0.0433759
0.0433608
0.0433461
0.0433317
0.0433177
0.043304
0.0432907
0.0432778
0.0432653
0.0432532
0.0432415
0.0432302
0.0432193
0.0432087
0.0431985
0.0431886
0.0431791
0.0431699
0.0431612
0.0431529
0.0431448
0.0431366
0.0431299
0.0431205
0.0431131
0.0431047
0.0431024
0.0430841
0.0275167
0.0388664
0.0400081
0.0399887
0.0400588
0.0401453
0.0402185
0.0402877
0.0403494
0.0404045
0.0404535
0.0404974
0.040539
0.0405814
0.0406284
0.0406822
0.0407434
0.0408131
0.0408951
0.0409955
0.0411174
0.0412561
0.041401
0.0415427
0.0416762
0.0417995
0.0419127
0.0420167
0.0421129
0.0422033
0.0422893
0.0423723
0.042453
0.0425316
0.042608
0.0426821
0.0427538
0.0428228
0.0428892
0.0429529
0.0430142
0.0430731
0.0431296
0.0431838
0.0432358
0.0432854
0.0433327
0.0433776
0.0434201
0.0434603
0.0434979
0.0435331
0.0435658
0.043596
0.0436237
0.0436488
0.0436714
0.0436913
0.0437086
0.0437233
0.0437357
0.043746
0.043754
0.0437599
0.0437637
0.0437653
0.0437649
0.0437628
0.043759
0.0437536
0.0437468
0.0437386
0.0437292
0.0437189
0.0437076
0.0436954
0.0436826
0.0436692
0.0436553
0.043641
0.0436263
0.0436114
0.0435963
0.0435811
0.0435658
0.0435505
0.0435352
0.04352
0.043505
0.0434901
0.0434754
0.0434609
0.0434466
0.0434327
0.043419
0.0434056
0.0433925
0.0433797
0.0433672
0.0433551
0.0433433
0.0433319
0.0433208
0.0433101
0.0432998
0.0432897
0.04328
0.0432707
0.0432616
0.0432528
0.0432444
0.0432364
0.0432289
0.0432214
0.0432138
0.0432077
0.0431987
0.0431917
0.0431838
0.0431819
0.0431649
0.0274987
0.0388587
0.0399991
0.0399829
0.0400556
0.040143
0.0402167
0.0402863
0.0403481
0.0404031
0.0404519
0.0404957
0.040537
0.0405792
0.040626
0.0406798
0.0407411
0.040811
0.0408937
0.0409951
0.0411183
0.0412581
0.0414037
0.0415456
0.041679
0.0418021
0.0419151
0.0420189
0.042115
0.0422052
0.0422911
0.042374
0.0424546
0.0425331
0.0426094
0.0426834
0.0427549
0.0428238
0.04289
0.0429537
0.0430148
0.0430736
0.0431301
0.0431843
0.0432363
0.0432859
0.0433332
0.0433782
0.0434209
0.0434611
0.043499
0.0435344
0.0435674
0.043598
0.0436261
0.0436517
0.0436748
0.0436953
0.0437132
0.0437287
0.0437421
0.0437534
0.0437625
0.0437695
0.0437744
0.0437774
0.0437783
0.0437774
0.043775
0.0437711
0.0437657
0.0437592
0.0437515
0.0437429
0.0437334
0.0437231
0.0437121
0.0437006
0.0436885
0.0436761
0.0436632
0.0436502
0.0436369
0.0436234
0.0436099
0.0435963
0.0435828
0.0435692
0.0435558
0.0435425
0.0435293
0.0435163
0.0435035
0.043491
0.0434786
0.0434665
0.0434547
0.0434432
0.0434319
0.0434209
0.0434102
0.0433998
0.0433898
0.04338
0.0433706
0.0433615
0.0433527
0.0433441
0.0433358
0.0433279
0.0433203
0.043313
0.0433061
0.0432995
0.0432925
0.0432869
0.0432783
0.0432717
0.0432644
0.043263
0.0432473
0.0274828
0.0388512
0.0399899
0.0399772
0.0400524
0.0401407
0.040215
0.0402849
0.0403468
0.0404017
0.0404504
0.0404939
0.040535
0.0405771
0.0406238
0.0406774
0.0407387
0.040809
0.0408923
0.0409948
0.0411193
0.0412601
0.0414064
0.0415485
0.0416818
0.0418048
0.0419175
0.042021
0.0421169
0.042207
0.0422929
0.0423758
0.0424562
0.0425346
0.0426108
0.0426847
0.042756
0.0428248
0.0428909
0.0429544
0.0430155
0.0430742
0.0431306
0.0431848
0.0432367
0.0432864
0.0433338
0.0433789
0.0434216
0.043462
0.0435001
0.0435358
0.0435691
0.0436001
0.0436287
0.0436548
0.0436783
0.0436994
0.0437181
0.0437344
0.0437487
0.0437611
0.0437713
0.0437793
0.0437854
0.0437895
0.0437918
0.0437923
0.0437912
0.0437888
0.0437851
0.0437803
0.0437743
0.0437675
0.0437598
0.0437514
0.0437423
0.0437326
0.0437225
0.0437119
0.043701
0.0436898
0.0436783
0.0436667
0.0436549
0.0436431
0.0436313
0.0436194
0.0436077
0.043596
0.0435843
0.0435729
0.0435616
0.0435504
0.0435395
0.0435287
0.0435182
0.0435079
0.0434978
0.043488
0.0434785
0.0434692
0.0434601
0.0434514
0.043443
0.0434348
0.0434268
0.0434191
0.0434116
0.0434045
0.0433976
0.0433911
0.0433848
0.043379
0.0433725
0.0433672
0.0433591
0.0433531
0.0433462
0.0433451
0.0433305
0.0274664
0.038844
0.0399806
0.0399716
0.0400493
0.0401385
0.0402132
0.0402836
0.0403456
0.0404004
0.0404489
0.0404922
0.0405331
0.040575
0.0406215
0.0406751
0.0407365
0.040807
0.040891
0.0409946
0.0411203
0.0412622
0.041409
0.0415514
0.0416846
0.0418073
0.0419198
0.0420231
0.0421189
0.0422089
0.0422947
0.0423775
0.0424578
0.0425361
0.0426121
0.0426859
0.0427571
0.0428257
0.0428917
0.0429551
0.0430161
0.0430748
0.0431311
0.0431853
0.0432372
0.0432869
0.0433344
0.0433795
0.0434224
0.043463
0.0435013
0.0435372
0.0435709
0.0436023
0.0436313
0.0436579
0.043682
0.0437037
0.0437231
0.0437404
0.0437557
0.0437691
0.0437804
0.0437896
0.0437968
0.0438022
0.0438058
0.0438078
0.0438082
0.0438073
0.0438053
0.0438023
0.0437981
0.0437931
0.0437873
0.0437808
0.0437737
0.0437659
0.0437577
0.0437491
0.04374
0.0437307
0.0437211
0.0437113
0.0437014
0.0436913
0.0436812
0.0436711
0.0436609
0.0436508
0.0436407
0.0436308
0.0436209
0.0436112
0.0436016
0.0435922
0.0435829
0.0435738
0.043565
0.0435563
0.0435478
0.0435396
0.0435316
0.0435238
0.0435163
0.043509
0.0435019
0.043495
0.0434884
0.043482
0.0434759
0.0434701
0.0434645
0.0434595
0.0434534
0.0434484
0.0434409
0.0434356
0.0434293
0.0434285
0.0434152
0.0274504
0.0388369
0.0399711
0.039966
0.0400462
0.0401363
0.0402115
0.0402823
0.0403443
0.0403992
0.0404475
0.0404906
0.0405312
0.040573
0.0406193
0.0406728
0.0407342
0.0408051
0.0408897
0.0409944
0.0411213
0.0412643
0.0414117
0.0415542
0.0416874
0.0418099
0.0419221
0.0420252
0.0421208
0.0422107
0.0422964
0.0423791
0.0424594
0.0425375
0.0426135
0.0426871
0.0427582
0.0428267
0.0428925
0.0429558
0.0430167
0.0430753
0.0431316
0.0431858
0.0432377
0.0432874
0.0433349
0.0433802
0.0434232
0.0434639
0.0435025
0.0435387
0.0435728
0.0436046
0.043634
0.0436611
0.0436857
0.0437081
0.0437284
0.0437466
0.0437629
0.0437774
0.0437897
0.0438
0.0438084
0.043815
0.04382
0.0438234
0.0438255
0.0438263
0.043826
0.0438246
0.0438224
0.0438193
0.0438154
0.0438109
0.0438056
0.0437999
0.0437936
0.0437869
0.0437798
0.0437723
0.0437646
0.0437567
0.0437485
0.0437403
0.0437319
0.0437234
0.0437149
0.0437064
0.0436979
0.0436895
0.0436811
0.0436729
0.0436647
0.0436566
0.0436487
0.0436408
0.0436332
0.0436257
0.0436184
0.0436112
0.0436043
0.0435975
0.043591
0.0435846
0.0435784
0.0435724
0.0435665
0.0435609
0.0435556
0.0435506
0.0435457
0.0435416
0.0435357
0.0435309
0.0435241
0.0435196
0.0435139
0.0435134
0.0435013
0.0274391
0.0388299
0.0399614
0.0399605
0.0400433
0.0401341
0.0402098
0.040281
0.0403431
0.0403979
0.0404461
0.040489
0.0405294
0.0405709
0.0406172
0.0406706
0.040732
0.0408032
0.0408885
0.0409943
0.0411225
0.0412664
0.0414144
0.0415571
0.0416901
0.0418124
0.0419244
0.0420273
0.0421227
0.0422125
0.0422982
0.0423808
0.042461
0.042539
0.0426148
0.0426883
0.0427592
0.0428276
0.0428933
0.0429565
0.0430173
0.0430758
0.0431321
0.0431862
0.0432382
0.0432879
0.0433355
0.0433808
0.043424
0.0434649
0.0435037
0.0435403
0.0435747
0.0436069
0.0436368
0.0436644
0.0436896
0.0437128
0.0437339
0.0437531
0.0437705
0.0437859
0.0437994
0.0438107
0.0438203
0.0438283
0.0438347
0.0438397
0.0438434
0.043846
0.0438475
0.0438481
0.0438477
0.0438465
0.0438446
0.043842
0.0438388
0.043835
0.0438307
0.0438259
0.0438207
0.0438152
0.0438093
0.0438032
0.0437969
0.0437904
0.0437838
0.043777
0.0437701
0.0437633
0.0437563
0.0437494
0.0437425
0.0437356
0.0437288
0.0437221
0.0437154
0.0437088
0.0437024
0.043696
0.0436898
0.0436837
0.0436778
0.043672
0.0436664
0.0436609
0.0436556
0.0436504
0.0436454
0.0436406
0.043636
0.0436317
0.0436275
0.0436242
0.0436186
0.0436139
0.043608
0.0436043
0.0435992
0.043599
0.0435883
0.0274281
0.038823
0.0399516
0.0399551
0.0400404
0.0401319
0.0402082
0.0402797
0.040342
0.0403967
0.0404447
0.0404874
0.0405276
0.040569
0.0406151
0.0406684
0.0407299
0.0408013
0.0408874
0.0409942
0.0411236
0.0412685
0.041417
0.0415598
0.0416928
0.0418149
0.0419267
0.0420293
0.0421246
0.0422143
0.0422999
0.0423824
0.0424625
0.0425404
0.0426161
0.0426894
0.0427602
0.0428285
0.042894
0.0429571
0.0430178
0.0430763
0.0431326
0.0431867
0.0432386
0.0432884
0.043336
0.0433815
0.0434248
0.0434659
0.043505
0.0435419
0.0435767
0.0436093
0.0436397
0.0436677
0.0436937
0.0437176
0.0437396
0.0437598
0.0437781
0.0437946
0.0438091
0.0438216
0.0438324
0.0438417
0.0438496
0.0438562
0.0438617
0.043866
0.0438694
0.0438719
0.0438734
0.0438742
0.0438742
0.0438736
0.0438723
0.0438705
0.0438681
0.0438653
0.043862
0.0438584
0.0438545
0.0438502
0.0438457
0.043841
0.0438361
0.043831
0.0438259
0.0438206
0.0438153
0.0438099
0.0438045
0.0437991
0.0437937
0.0437883
0.043783
0.0437777
0.0437725
0.0437673
0.0437622
0.0437573
0.0437524
0.0437477
0.043743
0.0437385
0.0437341
0.0437298
0.0437256
0.0437217
0.043718
0.0437144
0.0437108
0.043708
0.0437029
0.0436987
0.0436936
0.0436906
0.0436861
0.0436861
0.0436767
0.0274181
0.0388164
0.0399417
0.0399496
0.0400375
0.0401297
0.0402066
0.0402784
0.0403408
0.0403955
0.0404434
0.0404859
0.0405259
0.040567
0.040613
0.0406662
0.0407278
0.0407995
0.0408863
0.0409942
0.0411248
0.0412706
0.0414196
0.0415626
0.0416954
0.0418173
0.0419289
0.0420314
0.0421265
0.0422161
0.0423015
0.042384
0.042464
0.0425418
0.0426173
0.0426905
0.0427612
0.0428293
0.0428948
0.0429578
0.0430184
0.0430768
0.043133
0.0431871
0.0432391
0.0432889
0.0433366
0.0433822
0.0434256
0.043467
0.0435063
0.0435436
0.0435788
0.0436118
0.0436426
0.0436712
0.0436978
0.0437226
0.0437456
0.0437667
0.043786
0.0438035
0.043819
0.0438327
0.0438449
0.0438557
0.0438651
0.0438734
0.0438807
0.0438869
0.0438921
0.0438965
0.0439001
0.0439028
0.0439049
0.0439062
0.0439069
0.043907
0.0439066
0.0439057
0.0439044
0.0439027
0.0439006
0.0438983
0.0438956
0.0438927
0.0438895
0.0438862
0.0438827
0.0438791
0.0438753
0.0438715
0.0438676
0.0438636
0.0438596
0.0438556
0.0438515
0.0438475
0.0438434
0.0438394
0.0438355
0.0438316
0.0438278
0.043824
0.0438203
0.0438167
0.0438131
0.0438097
0.0438063
0.0438032
0.0438003
0.0437974
0.0437943
0.0437919
0.0437874
0.0437839
0.0437795
0.0437771
0.0437732
0.0437736
0.0437653
0.0274091
0.0388098
0.0399317
0.0399442
0.0400346
0.0401276